561
Atoms. Timestep: 20639
Pt 7.08698 7.50684 14.73
Au 4.65391 8.92981 12.0657
Pt 7.3599 11.3877 10.8979
Au 5.05825 9.32976 14.7948
Pt 5.35658 11.4365 12.8178
Pt 5.15752 11.3687 16.7626
Au 6.99114 12.939 6.35183
Pt 5.86202 15.4694 8.91487
Au 3.49231 13.5093 12.6722
Pt 4.01607 15.5573 10.8262
Au 3.35377 15.3437 18.6553
Pt 5.31725 13.3662 14.8297
Au 8.72607 5.34323 18.611
Pt 5.30973 15.2721 16.8345
Pt 6.98643 11.1941 18.8469
Au 9.11408 12.8374 4.54155
Au 3.6441 17.433 12.7737
Pt 6.14625 17.4749 7.24167
Au 3.40137 15.3956 14.756
Pt 5.89602 17.3474 10.973
Au 3.43896 17.3902 16.761
Pt 5.46247 17.2898 14.8989
Au 8.64502 8.96791 22.7788
Pt 5.29026 17.1933 18.9054
Au 5.0049 15.1463 20.8368
Pt 5.11442 13.2351 18.7496
Au 4.05467 17.5461 8.96561
Au 6.07714 23.18 13.2439
Pt 4.31378 19.316 10.9813
Au 3.62931 19.3146 18.7335
Pt 5.61237 19.1825 16.9192
Au 5.29825 19.1675 20.9116
Pt 5.69848 21.0894 18.9094
Au 3.76229 19.4364 14.8267
Au 3.90731 21.3199 16.8715
Pt 5.88782 21.1915 15.0328
Pt 8.57844 6.87963 10.2978
Pt 6.69549 8.90897 10.2679
Pt 6.97515 9.32796 16.7891
Pt 9.07214 7.41391 12.9095
Pt 8.85278 7.30936 16.8198
Pt 5.55429 13.4173 10.8846
Au 6.63157 10.7973 8.18771
Pt 10.8816 8.81753 6.53617
Au 4.6978 10.9329 10.1744
Pt 7.18914 9.44871 12.8724
Au 6.47418 6.86381 12.1074
Pt 9.20946 9.37459 10.954
Au 10.8313 3.60743 14.805
Pt 7.12146 11.2895 14.9056
Au 9.04431 9.29226 14.9397
Pt 9.23171 11.2467 12.9909
Au 8.71886 5.33504 14.878
Pt 10.7338 7.11361 18.9234
Au 12.5632 4.99676 19.0387
Pt 8.78597 9.12585 18.8968
Pt 10.6531 8.95776 20.9446
Pt 9.64931 13.3365 7.08107
Au 12.8833 8.78083 4.58735
Au 4.94327 13.0197 8.28475
Pt 7.56406 13.3745 8.97553
Au 9.31377 11.288 8.9168
Pt 11.7344 15.1941 7.20514
Au 3.3837 11.5177 14.6584
Pt 5.54403 15.3627 12.9424
Au 7.35785 13.2604 12.9553
Pt 9.40953 13.2 11.0246
Au 3.28225 13.3812 16.7029
Pt 7.10271 13.2154 16.9467
Au 8.99918 11.18 17.0054
Pt 9.17159 13.1227 15.0532
Au 4.92104 11.2782 20.5874
Pt 8.78404 11.0106 20.9149
Au 6.6972 9.10871 20.7433
Pt 8.94837 13.0577 19.0857
Au 4.94954 9.39193 18.5676
Pt 8.78202 12.934 22.9259
Au 8.65386 10.9271 24.6538
Pt 12.7373 12.6665 23.278
Pt 7.86667 15.406 7.07039
Au 8.78992 10.7101 6.25082
Au 9.66131 15.2151 9.08623
Pt 7.89714 17.3416 9.09924
Au 11.7815 17.0419 9.2473
Pt 9.88023 17.2998 7.23031
Au 7.59056 15.2717 11.0068
Pt 7.55284 17.2028 13.0631
Au 9.46766 15.138 13.1052
Pt 9.65358 17.1364 11.15
Au 7.35417 15.2229 15.0049
Pt 7.3011 17.0855 17.0223
Au 9.20506 15.0333 17.1329
Pt 9.44715 16.9964 15.1707
Au 7.05908 15.1363 19.0185
Pt 7.06978 17.0177 21.1218
Au 8.94579 14.9552 21.1525
Pt 9.17918 16.8938 19.202
Au 6.73231 11.1043 22.7139
Pt 6.91305 13.0931 20.8632
Au 7.06773 16.9657 24.6774
Pt 11.0962 18.7245 23.1887
Au 8.03155 17.4604 5.30676
Au 8.00695 19.5391 7.11215
Pt 6.15121 19.3678 9.10776
Au 9.90715 19.205 9.24412
Pt 8.16368 21.2279 9.31041
Au 7.8295 19.2886 11.1727
Pt 5.82689 19.3254 13.0411
Au 9.71774 18.9853 13.215
Pt 9.94544 21.1161 11.3169
Au 7.62143 19.0822 15.0774
Pt 7.70758 20.9709 17.1191
Au 9.50337 18.8569 17.2173
Pt 9.76779 22.8836 17.2479
Au 7.35917 18.9451 19.0694
Pt 7.51489 20.8967 20.9422
Au 9.22551 18.8108 21.1677
Pt 9.53362 20.8596 19.1652
Au 6.79156 14.9036 22.9497
Au 9.03677 18.8694 24.9827
Pt 9.33236 20.7952 23.0248
Au 5.95743 21.4149 11.0869
Au 8.17502 24.9503 13.3729
Pt 7.89155 21.1796 13.1428
Au 11.8166 20.8789 13.4014
Pt 9.98782 22.9775 13.3471
Au 9.74526 20.9449 15.2628
Pt 6.01923 22.9712 17.0432
Au 7.89318 24.8951 17.1395
Pt 7.9715 22.9967 15.2221
Au 7.10399 19.1065 23.0073
Au 7.58872 22.7815 22.8019
Pt 7.78272 22.9215 19.0601
Pt 11.0816 7.34591 11.0034
Pt 15.2329 9.07941 9.3136
Pt 10.928 5.42854 12.9042
Pt 12.9645 5.35073 11.1667
Pt 10.7454 5.31324 16.8898
Pt 12.8949 5.28464 14.9268
Pt 12.5325 6.99142 20.9136
Pt 14.6123 6.84867 19.1923
Pt 12.4645 8.80219 22.9197
Pt 11.4986 11.305 7.15865
Au 10.4263 6.6472 8.2384
Au 8.50845 8.65311 8.17835
Pt 11.1717 9.31704 9.06491
Au 10.4285 4.75363 10.2645
Pt 13.465 11.3141 5.35917
Au 8.39835 4.89691 12.1484
Pt 11.0884 9.22915 13.0324
Au 13.0328 7.23063 13.0459
Pt 13.1736 9.21031 11.1721
Au 10.8995 7.16784 14.9678
Pt 10.8728 9.09002 17.0605
Au 12.7936 7.02151 17.1037
Pt 12.967 9.02323 15.1638
Au 12.6583 3.44044 16.7976
Pt 12.7551 8.94027 19.1253
Au 8.68775 7.07123 20.7257
Pt 14.8684 8.84082 17.2993
Au 6.77789 7.27293 18.5977
Pt 10.6563 10.8495 22.9297
Au 14.2769 6.85201 22.9973
Pt 14.5627 10.5148 23.2312
Pt 11.6831 13.3136 5.29326
Au 15.0468 7.16789 5.25293
Au 10.9371 10.7479 4.52002
Pt 11.491 13.1733 9.11495
Au 13.3684 11.1329 9.15405
Pt 13.5724 13.2166 7.22182
Au 11.2819 11.2168 11.0806
Pt 11.3062 13.0636 13.1444
Au 13.2346 11.0432 13.1965
Pt 13.4219 12.987 11.2121
Au 11.1295 11.1274 15.0983
Pt 11.0749 12.9829 17.1841
Au 12.992 10.9428 17.2113
Pt 13.22 12.8995 15.2626
Au 10.8574 11.0021 19.1063
Pt 10.8425 12.881 21.2041
Au 12.7367 10.8067 21.1928
Pt 12.9656 12.809 19.3466
Au 12.4659 10.5629 24.9721
Pt 10.9049 14.7659 23.2272
Au 10.6461 12.707 25.0802
Pt 14.7689 14.4696 23.4551
Pt 11.9537 17.2449 5.49509
Au 13.7536 15.1452 5.13939
Au 9.9051 15.432 5.11536
Pt 12.0026 19.1083 7.46069
Au 13.669 14.9655 9.27116
Pt 13.8745 16.9211 7.31111
Au 11.5438 15.0294 11.2044
Pt 11.5848 16.8893 13.2772
Au 13.4438 14.8373 13.2989
Pt 13.6759 16.8004 11.3543
Au 11.3227 14.9228 15.2203
Pt 11.3499 16.7808 17.2823
Au 13.2028 14.7457 17.3585
Pt 13.4468 16.6974 15.3815
Au 11.0796 14.8574 19.2613
Pt 11.121 16.7264 21.3293
Au 12.9643 14.6884 21.4023
Pt 13.2161 16.6271 19.448
Au 8.76264 14.7975 24.9158
Pt 9.06175 16.8619 23.059
Au 10.7607 16.7292 25.2698
Pt 12.9394 16.5897 23.5075
Pt 10.2602 21.1698 7.46592
Au 12.3031 21.0782 5.60347
Au 10.1969 19.2924 5.38107
Pt 12.0686 21.0214 9.43644
Au 13.8952 18.8339 9.41927
Pt 14.1152 20.9621 7.60419
Au 11.7912 18.9316 11.332
Pt 11.7982 22.8365 15.4284
Au 13.689 18.7181 13.4468
Pt 15.9425 22.6986 11.6772
Au 11.6107 18.7918 15.3403
Pt 11.6063 20.8308 17.3467
Au 13.4437 18.6359 17.4151
Pt 13.6674 20.7793 15.5091
Au 11.3465 18.693 19.3071
Pt 11.3384 20.7098 21.2328
Au 15.1037 18.4679 23.5946
Pt 11.5877 22.7257 19.3205
Au 11.0786 20.747 25.1597
Pt 11.3341 22.605 23.1342
Au 13.1838 22.4815 25.2113
Pt 13.167 20.6189 23.2516
Au 12.2938 23.0488 7.55036
Au 8.08958 23.2409 11.1915
Pt 12.0404 22.8808 11.4827
Au 10.2583 24.9781 11.4723
Pt 10.2855 23.0156 9.47635
Au 13.9025 20.808 11.5106
Pt 12.0569 24.7197 13.499
Au 13.8855 22.7499 13.5651
Pt 14.0922 24.6467 11.6832
Au 10.0515 25.0334 15.372
Pt 11.8003 24.6593 17.4398
Au 13.4298 20.6239 19.4226
Pt 13.8217 24.6378 15.5509
Au 9.74 24.8593 19.2183
Pt 9.56721 22.7961 21.0771
Au 11.5617 24.6965 21.3001
Pt 13.6453 22.7004 17.4791
Au 5.82834 22.9415 20.8019
Au 13.3749 24.427 23.3313
Pt 13.4048 22.5777 21.3774
Pt 13.5224 9.17593 7.13498
Pt 12.6487 5.11634 8.64728
Pt 14.9754 6.57102 7.93043
Pt 14.9309 5.23049 13.0641
Pt 17.1091 5.21708 11.2946
Pt 14.6769 5.11973 17.0744
Pt 16.7043 5.07137 15.2034
Pt 16.6824 8.60535 19.3968
Pt 18.4675 6.61044 19.3242
Pt 16.3952 8.525 23.1504
Pt 18.3848 10.313 23.4521
Pt 17.7593 10.743 6.03196
Au 15.6179 9.90097 4.54607
Au 12.5905 6.66695 6.44509
Pt 12.9924 7.49538 9.21911
Au 15.1381 4.5786 9.6573
Pt 16.3019 8.6785 6.99559
Au 15.109 7.01835 11.0229
Pt 15.1308 8.99371 13.1457
Au 16.9635 7.00061 13.2618
Pt 17.2552 8.95397 11.3067
Au 14.9026 7.06231 15.1643
Pt 16.7168 6.8482 17.2832
Au 18.4434 4.67946 17.3023
Pt 17.0036 8.8216 15.3634
Au 16.3862 4.80327 19.1267
Pt 14.6102 8.73835 21.1577
Au 20.0991 8.31622 23.6124
Pt 20.514 10.1556 21.608
Au 16.4216 6.50407 21.2917
Pt 16.6766 10.5173 21.4013
Au 16.3498 10.2827 25.2429
Pt 16.6224 12.3633 23.4716
Pt 15.6192 12.9976 5.39652
Au 17.8291 12.6242 4.07467
Au 15.4052 11.1603 7.25083
Pt 15.5702 12.9633 9.23349
Au 17.4693 10.74 9.14302
Pt 17.6808 12.9616 7.40771
Au 15.3764 11.0272 11.2266
Pt 15.3435 12.8254 13.3416
Au 17.2347 10.8336 13.3877
Pt 17.5049 12.7514 11.3171
Au 15.0998 10.8302 15.2989
Pt 15.1005 12.736 17.4062
Au 16.952 10.6915 17.4366
Pt 17.2046 12.674 15.5009
Au 14.8671 10.7672 19.3185
Pt 14.8235 12.5817 21.4649
Au 18.8232 12.3859 21.7008
Pt 16.9514 12.5577 19.5882
Au 14.5774 12.3989 25.3924
Pt 16.6009 14.2575 25.3404
Au 18.6715 16.0107 25.8696
Pt 18.7205 14.2428 23.6853
Pt 14.022 19.0137 5.72105
Au 15.9896 17.0525 5.35856
Au 15.7721 14.9618 7.20284
Pt 15.777 16.7369 9.37786
Au 17.7005 14.7571 9.43397
Pt 17.9089 16.7055 7.56383
Au 15.568 14.7606 11.3645
Pt 15.5386 16.6087 13.4635
Au 17.4387 14.595 13.4995
Pt 17.6645 16.5478 11.5302
Au 15.3222 14.6707 15.4405
Pt 15.2982 16.5243 17.5158
Au 17.2046 14.5224 17.6224
Pt 17.3862 16.4426 15.5995
Au 15.0739 14.6005 19.5047
Pt 15.0531 16.4949 21.6496
Au 16.8937 14.4505 21.6432
Pt 17.1455 16.419 19.6965
Au 12.7493 14.5333 25.3988
Pt 12.8806 18.72 25.1283
Au 12.8801 16.7533 26.9303
Pt 14.9451 16.4165 25.3365
Pt 16.1974 22.7246 7.86448
Au 16.1531 20.8642 5.74826
Au 15.9521 18.7851 7.54519
Pt 19.7994 22.4241 11.9679
Au 17.8443 18.5633 9.65111
Pt 18.0294 20.6709 7.89831
Au 15.7636 18.6174 11.5502
Pt 15.7209 20.7044 13.6214
Au 17.5668 18.4604 13.6479
Pt 17.7713 20.5991 11.76
Au 15.4878 18.5607 15.5354
Pt 15.4639 20.6316 17.5606
Au 17.3193 18.3781 17.6402
Pt 15.6748 22.6635 15.6406
Au 15.2731 18.4587 19.5464
Pt 15.252 20.5046 21.5418
Au 17.0266 16.4217 23.6934
Pt 19.3348 22.3264 19.8346
Au 14.8363 18.5601 26.9392
Pt 15.2613 22.4742 23.3809
Au 17.1881 18.5068 25.6465
Pt 15.0034 20.5247 25.1916
Pt 17.9878 22.5943 9.89979
Au 18.2809 24.5429 8.03887
Au 15.9565 20.7309 9.65302
Pt 14.1206 22.8472 9.62419
Au 16.1194 24.7589 9.78477
Pt 20.0272 24.319 10.1096
Au 12.3316 24.8666 9.63528
Pt 15.9025 24.6039 13.6858
Au 17.5 20.5024 15.6938
Pt 17.7206 22.5618 13.7726
Au 15.841 26.4808 15.6836
Pt 15.6882 24.5045 17.6664
Au 17.7111 26.3733 17.7525
Pt 17.9422 24.501 11.854
Au 13.213 18.5488 21.4636
Pt 15.4371 22.5317 19.5697
Au 17.2731 20.4416 19.6581
Pt 17.5005 22.4722 17.7044
Au 13.8327 26.4089 17.5929
Pt 13.6273 24.5055 19.4993
Au 19.245 24.2683 21.8229
Pt 17.2203 22.4216 21.5969
Pt 17.312 7.21068 9.29046
Pt 18.8082 5.02695 13.3752
Pt 19.1042 6.93787 11.4838
Pt 20.4976 6.53166 17.4599
Pt 22.5711 6.50962 15.7137
Pt 18.4829 8.3593 21.4304
Pt 20.5247 8.32476 19.559
Pt 19.8084 10.8847 7.78584
Au 17.4655 6.03334 6.90264
Pt 19.4872 8.83938 9.62219
Au 18.9787 5.09057 9.36816
Pt 18.8262 8.49843 7.19503
Au 20.7965 4.77145 11.5638
Pt 19.1125 8.77461 13.4662
Au 20.5651 4.61586 15.4455
Pt 21.2734 8.70593 11.6603
Au 18.793 6.74335 15.4116
Pt 18.7998 8.62441 17.4848
Au 22.2238 6.24704 19.4539
Pt 22.6443 8.24971 17.6911
Au 18.7391 10.4356 19.5616
Pt 22.1817 10.0232 23.6028
Au 22.0182 7.77987 21.744
Pt 22.6196 10.0097 19.793
Au 18.4181 12.2113 25.5511
Pt 20.4613 11.9036 23.7788
Pt 24.0079 9.47084 21.994
Pt 19.7817 12.6914 5.87661
Au 18.2657 10.1149 3.52807
Au 17.7592 7.89562 4.83437
Pt 19.653 12.7669 9.53196
Au 23.3305 8.53284 9.8154
Pt 21.5785 10.7125 9.73757
Au 19.3588 10.7869 11.4636
Pt 19.3553 12.6387 13.5779
Au 23.459 10.5003 11.718
Pt 21.5048 12.588 11.6923
Au 19.0966 10.683 15.5509
Pt 19.0747 12.4981 17.6619
Au 20.9666 10.4492 17.6825
Pt 21.2622 12.4809 15.8125
Au 20.8664 12.2494 19.82
Pt 21.1951 14.0756 22.5221
Au 22.7877 11.9075 21.7562
Pt 22.5776 14.2474 20.2193
Au 23.0115 12.5987 24.4171
Pt 20.6081 16.3398 23.9494
Au 20.7309 14.0123 25.4797
Pt 24.1524 14.2255 22.5205
Pt 18.0817 18.8462 6.00055
Au 19.9715 16.8701 5.82129
Au 18.0083 14.9374 5.45462
Pt 19.8337 16.5662 9.64422
Au 21.8839 12.6529 7.65227
Pt 19.9884 18.6115 7.92774
Au 19.5804 14.5835 11.6084
Pt 19.5235 16.4082 13.7005
Au 21.4323 14.4331 13.8165
Pt 21.6505 16.4135 11.8166
Au 19.3041 14.4669 15.6975
Pt 19.2456 16.3402 17.7582
Au 21.1786 14.3801 17.8531
Pt 21.4056 16.3143 15.8668
Au 19.1262 14.4061 19.7799
Pt 18.8845 18.4317 23.5662
Au 19.0944 16.2647 21.7782
Pt 21.1084 16.3895 19.9122
Au 23.017 15.3904 24.6608
Pt 17.0682 20.4207 23.566
Au 20.3254 18.2895 25.7195
Pt 20.9811 18.3537 21.9066
Pt 20.0348 22.4511 8.1097
Au 22.0328 24.1477 8.35638
Au 20.1548 20.5816 6.09269
Pt 19.8219 20.5056 9.95892
Au 21.847 18.4702 9.94452
Pt 21.8306 22.2762 10.1963
Au 19.6782 18.4217 11.7722
Pt 19.5613 22.3777 15.8304
Au 21.5471 18.3128 13.8852
Pt 21.495 20.3046 15.9158
Au 19.4369 18.3054 15.7669
Pt 17.6993 24.4134 15.7824
Au 21.2875 18.246 17.8858
Pt 23.4577 22.1476 16.0767
Au 19.1468 18.3106 19.7893
Pt 17.0721 18.4202 21.6417
Au 21.2185 20.2935 19.9251
Pt 23.3071 20.2046 18.0333
Au 20.9026 20.3237 23.9284
Pt 18.9782 22.1584 23.4922
Au 15.4773 24.5768 21.5418
Pt 21.3348 24.0331 19.8696
Au 23.8079 14.5649 8.07174
Pt 21.8257 24.2423 12.1318
Au 23.7928 24.0421 10.3507
Au 19.6096 20.4022 13.8347
Pt 19.7792 24.2993 13.9205
Au 21.7959 26.1949 14.1046
Pt 21.6352 22.2718 14.0012
Au 17.9811 26.4246 13.8785
Pt 19.5443 24.2131 17.845
Au 19.3746 20.3586 17.7796
Pt 19.7717 26.0557 15.942
Au 21.5863 26.0877 18.0029
Pt 17.474 24.3362 19.6696
Au 23.5906 25.9514 16.1592
Pt 21.399 22.2082 17.9073
Au 19.5372 26.0946 19.7993
Pt 20.9119 6.72369 13.5558
Pt 24.6806 8.28753 15.9362
Pt 20.8712 8.56202 15.6163
Pt 21.1303 6.82374 9.76439
Au 23.0549 6.48933 11.6828
Pt 24.9744 10.289 14.0018
Au 22.6433 4.6701 13.686
Pt 22.9101 8.54734 13.7641
Au 21.1879 10.6411 13.6227
Pt 22.9095 10.378 15.73
Au 26.5627 8.87027 18.411
Pt 24.481 6.5851 13.9712
Au 24.3929 7.91363 19.7798
Pt 25.2822 10.5639 20.149
Pt 24.4779 10.168 17.7405
Pt 19.8683 14.6989 7.64546
Au 20.211 6.34312 7.33167
Pt 25.2702 12.4304 12.0584
Au 21.5703 8.76494 7.68509
Pt 23.5372 12.6024 9.93906
Au 25.0918 8.34672 12.0959
Pt 23.6832 16.4118 10.0465
Au 27.2712 14.2537 12.3261
Pt 23.4787 14.4252 11.9423
Au 27.0198 12.1267 14.105
Pt 23.2934 12.4026 13.8475
Au 26.7494 10.0952 16.0112
Pt 25.2375 14.2884 14.0824
Au 23.2288 12.4123 18.2229
Pt 25.0009 13.0579 20.3348
Au 26.6318 11.8926 18.1998
Pt 25.0095 12.2281 15.9945
Au 25.261 11.7319 22.7502
Pt 22.5922 16.3113 22.1351
Pt 24.5421 15.8791 20.3775
Pt 21.8856 20.5127 8.20879
Au 18.2662 22.6092 6.068
Au 20.2715 9.91839 5.3223
Pt 21.6716 14.5688 9.7571
Au 25.6138 14.4283 10.136
Pt 23.6352 18.3742 12.0316
Au 23.8431 18.4802 8.17954
Pt 23.4556 16.3169 13.9667
Au 27.36 16.1576 14.3034
Pt 25.4441 16.2636 12.1628
Au 23.3044 14.3172 16.0162
Pt 23.3009 16.2419 18.0334
Au 27.1477 14.0351 16.0927
Pt 25.2918 16.269 16.0427
Au 25.3181 14.379 18.0759
Pt 24.5881 17.9678 22.1337
Au 26.951 14.9219 20.3297
Pt 26.2883 17.6138 20.1609
Au 25.1934 20.0918 20.2576
Pt 19.1363 20.3656 21.6913
Au 22.7054 18.2075 24.1294
Pt 22.9487 20.0933 21.96
Au 23.9678 20.5287 10.0537
Pt 21.7373 20.3494 11.9807
Au 21.9386 16.5556 7.71354
Au 25.6824 18.2491 10.2505
Pt 23.5431 20.2624 14.0755
Au 27.354 18.1059 12.4342
Pt 23.6949 22.1993 12.2417
Au 23.3674 18.2423 16.0211
Pt 25.1839 18.2619 17.9994
Au 27.2403 16.3413 17.9752
Pt 25.3358 18.2458 14.1332
Au 23.1836 18.2236 19.9637
Pt 23.3593 23.9699 18.0563
Au 25.3484 22.0115 18.2035
Pt 23.218 22.0466 19.9648
Au 21.2849 22.3274 22.0013
Au 20.0086 26.2661 12.0004
Pt 23.5968 24.0669 14.171
Au 25.7082 20.2677 12.242
Au 25.6085 22.1537 14.2511
Pt 21.603 24.1291 16.0024
Au 27.1947 18.3087 16.0716
Pt 25.2986 20.2088 16.1327
Au 25.4225 23.9688 16.2701
