561
Atoms. Timestep: 20761
Pt 15.1969 12.7266 25.6599
Au 5.16259 19.5459 14.4888
Pt 11.5649 11.5403 21.8586
Au 6.29469 10.686 9.5475
Pt 13.2645 8.46113 8.02846
Pt 9.14715 10.5999 9.375
Au 19.8325 25.9022 12.2782
Pt 8.09962 8.16151 17.5115
Au 6.93156 23.1171 17.2011
Pt 15.4095 15.3019 26.1395
Au 8.638 11.1791 24.5788
Pt 22.5366 16.2835 15.0914
Au 21.3627 22.4981 7.91525
Pt 20.654 12.138 19.576
Pt 11.4052 16.2241 11.3119
Au 17.9074 23.9702 8.45856
Au 23.0111 9.44898 19.3762
Pt 9.99413 17.5216 13.0697
Au 9.89552 4.71752 13.2702
Pt 11.0755 18.2029 21.9946
Au 15.6253 15.7122 28.6895
Pt 22.5412 16.2431 17.7948
Au 5.80418 21.8353 19.3613
Pt 19.245 10.6052 23.4792
Au 9.4391 17.8964 24.4218
Pt 23.6792 13.8317 17.8463
Au 8.17704 20.1106 7.05797
Au 22.6803 11.4486 8.82024
Pt 18.0097 17.3154 8.50864
Au 16.8322 13.4485 27.7218
Pt 17.9273 24.4452 13.6769
Au 12.0875 7.20039 23.0529
Pt 8.19264 15.5948 17.3766
Au 13.4015 5.69429 7.89589
Au 8.1668 24.3751 15.0027
Pt 16.2155 10.3084 11.0954
Pt 7.54071 19.9087 16.151
Pt 10.0907 14.513 13.0245
Pt 22.4198 11.5517 17.7703
Pt 13.5684 11.0826 8.0509
Pt 11.3327 9.64019 10.6198
Pt 20.0443 15.2761 8.12644
Au 12.1913 3.37036 14.0927
Pt 10.089 9.32233 20.7066
Au 10.0508 11.4141 5.41376
Pt 12.1153 5.92557 14.5984
Au 25.4903 21.9141 13.9027
Pt 24.2724 18.3536 15.6918
Au 5.15248 21.0612 16.7764
Pt 22.5477 14.609 20.1401
Au 14.7141 4.91749 10.1993
Pt 9.31931 11.8304 16.7413
Au 4.36041 16.7481 14.6219
Pt 5.46321 14.0694 18.983
Au 21.5593 15.7774 5.91122
Pt 21.5478 10.0164 12.9051
Pt 13.8359 23.9896 15.6648
Pt 14.2698 11.9725 5.58682
Au 13.4895 4.48399 19.4305
Au 4.2128 12.5544 20.9999
Pt 10.359 7.15853 19.1492
Au 19.4624 11.4685 5.1279
Pt 18.6287 18.6705 23.2927
Au 10.493 9.50359 23.4215
Pt 12.0626 12.9145 6.80626
Au 27.902 13.6389 12.761
Pt 14.9303 24.6033 13.2295
Au 6.96973 16.1453 24.0811
Pt 16.0193 16.8443 22.2603
Au 17.3754 8.49611 23.7795
Pt 17.268 9.4792 13.4266
Au 7.94416 22.1796 9.75314
Pt 14.102 17.8163 20.5782
Au 12.843 3.64622 16.7474
Pt 19.5632 16.0957 24.1294
Au 6.23377 8.32335 11.0192
Pt 18.8888 10.3055 18.9355
Au 23.2472 11.956 24.1596
Pt 15.4322 7.43393 10.4587
Pt 11.9182 21.7293 10.6695
Au 13.0095 22.31 7.34735
Au 3.9717 17.9638 19.6534
Pt 17.1201 14.8891 20.1257
Au 10.2131 23.8635 11.0764
Pt 12.8062 7.05948 10.213
Au 11.6279 10.1857 15.3505
Pt 14.5876 15.0996 20.6926
Au 15.4652 12.9179 3.21757
Pt 7.61589 12.9281 18.2753
Au 9.42358 12.889 7.6718
Pt 15.6834 10.163 22.2913
Au 20.9439 18.9329 24.8843
Pt 16.535 20.3176 14.3834
Au 6.80233 20.8437 12.1215
Pt 12.7035 18.2071 6.3202
Au 10.7956 4.31917 18.6875
Pt 21.3788 8.12548 14.9414
Au 16.3698 20.5128 25.9925
Pt 14.7985 8.66892 12.7283
Au 6.83104 21.9828 14.5666
Pt 8.02957 12.8056 10.1844
Au 14.3704 27.2094 12.7588
Au 21.0116 20.3027 6.26436
Pt 20.6736 9.88344 10.3815
Au 20.9237 12.7257 7.03546
Pt 25.2904 14.0737 12.7662
Au 9.40714 8.82393 6.26509
Pt 8.55466 18.1938 18.0714
Au 7.17526 18.8147 23.1019
Pt 10.7341 13.0016 23.8762
Au 7.83171 9.20908 22.4905
Pt 11.7201 12.0002 17.313
Au 20.4152 17.7536 13.9875
Pt 14.0683 19.3585 14.6205
Au 9.28596 15.2743 25.2535
Pt 8.39056 15.8154 11.575
Au 19.4419 23.2109 23.0652
Pt 13.0129 14.6114 24.8419
Au 13.4045 16.7134 27.2894
Au 16.8021 17.6274 3.73784
Pt 16.3846 23.3258 15.4417
Au 24.7623 23.5562 11.9508
Au 9.05303 6.33441 7.26506
Pt 9.52467 17.2396 9.57531
Au 10.9186 24.7946 19.71
Pt 17.4169 21.1532 19.4958
Au 23.4811 16.7345 21.6739
Pt 16.9732 21.0197 16.9162
Au 23.3301 23.7434 14.3284
Pt 11.9561 15.943 20.4686
Au 18.7699 20.9868 24.695
Au 9.72296 12.8447 26.3296
Pt 14.0148 11.6961 20.6795
Pt 21.5862 12.2506 11.5905
Pt 15.2431 14.5401 23.5213
Pt 13.0104 17.8578 12.7308
Pt 12.1697 10.3383 19.5254
Pt 15.5676 8.9165 17.1756
Pt 8.8377 8.58434 11.0273
Pt 14.7421 16.5664 5.50841
Pt 9.91587 11.8683 19.4958
Pt 10.3049 19.7773 17.0662
Pt 10.0013 14.4353 15.681
Au 4.32495 10.1263 16.145
Au 5.93228 16.9366 21.4902
Pt 10.2281 14.3346 10.0221
Au 14.6681 7.84079 23.7735
Pt 16.8092 12.6569 5.69958
Au 5.26081 18.6591 11.7462
Pt 6.91133 12.463 20.7048
Au 22.4575 8.65429 9.05209
Pt 18.2677 12.9798 7.88286
Au 11.4157 5.29845 21.0999
Pt 7.83714 10.2674 19.3935
Au 16.9623 10.4977 4.13391
Pt 24.326 13.8813 15.2109
Au 25.3491 20.9469 11.184
Pt 8.23333 20.9186 18.6007
Au 7.63909 17.4193 7.3486
Pt 14.6197 17.2696 24.7455
Au 26.0151 20.3642 16.096
Pt 10.2607 18.2931 7.22976
Au 8.05993 6.30121 15.3141
Pt 19.1516 21.7648 9.20103
Pt 6.51728 17.5605 16.1947
Au 12.8801 9.76035 24.6869
Au 13.989 24.7405 20.0519
Pt 12.7467 8.66609 17.6382
Au 15.6951 26.3401 14.9969
Pt 18.0328 8.44177 10.6853
Au 21.0666 13.6044 4.31178
Pt 10.2293 13.9579 21.0565
Au 21.6156 5.98393 13.4589
Pt 8.91042 9.55288 15.3986
Au 12.0607 12.8617 14.4412
Pt 10.1681 12.0705 11.6682
Au 14.1659 11.1857 17.6341
Pt 12.1025 19.9125 8.5818
Au 18.7084 26.7675 14.7338
Pt 18.2407 15.0186 9.92928
Au 10.2536 4.62654 16.0215
Pt 11.5802 18.3112 19.1968
Au 12.3978 9.62917 5.45552
Pt 16.218 17.0652 19.0794
Au 11.4658 19.8193 24.8499
Pt 20.4972 12.373 13.9924
Pt 9.55398 19.9815 9.25133
Au 12.0544 16.5087 4.04332
Au 14.8371 3.46465 14.8394
Pt 7.8233 15.6808 14.3891
Au 4.98825 9.5491 13.2212
Pt 13.4923 14.2649 4.56005
Au 14.2982 12.413 10.4482
Pt 8.41298 18.778 11.4058
Au 18.0368 16.0101 27.2543
Pt 18.5596 12.0739 21.3649
Au 14.0959 14.7488 13.4546
Pt 13.2931 16.4435 22.7082
Au 15.7149 17.3459 13.2876
Pt 17.2413 7.97207 19.1907
Au 12.5982 13.4972 19.3673
Pt 20.5385 21.2807 20.0427
Au 14.2379 3.16624 12.2708
Pt 11.9799 17.1654 24.969
Au 5.67318 14.3326 22.4221
Pt 12.7957 13.8479 22.2033
Au 3.16991 14.2984 15.6436
Pt 24.9807 16.0063 16.6175
Pt 12.4174 20.7663 18.2703
Au 18.5675 7.91248 8.03775
Au 11.4057 14.908 26.8709
Pt 12.9584 20.0172 20.7125
Au 22.4455 7.75889 11.6894
Pt 18.8148 23.2718 20.4223
Au 3.74697 14.4591 12.1138
Pt 6.17811 16.655 18.8059
Au 6.75661 19.7212 9.38325
Pt 20.7718 14.2998 18.1063
Au 22.0528 6.87982 18.781
Pt 12.8223 14.5134 9.02523
Au 16.995 26.6815 12.4465
Pt 22.6269 14.3195 13.1003
Au 3.81466 15.3283 20.5296
Pt 14.4614 21.3294 16.6507
Au 9.52075 20.2616 22.9436
Pt 16.4927 18.2511 6.44412
Au 16.4204 21.6839 7.26807
Pt 19.5897 13.2819 23.8427
Au 23.7034 10.3193 22.0008
Pt 11.9675 21.4911 15.6942
Au 18.092 11.5361 26.0112
Au 5.49931 19.6791 21.0996
Pt 7.54185 13.4088 15.6564
Au 26.036 11.4483 12.1106
Pt 12.8097 23.4486 17.9311
Au 7.61793 8.44641 8.45371
Pt 18.1464 23.1981 17.7892
Au 24.4663 22.744 16.6567
Pt 14.2991 21.9452 14.0514
Au 12.284 23.4473 13.1724
Pt 17.159 16.7848 24.6572
Au 10.4022 22.5219 8.57131
Pt 16.551 24.3949 11.051
Au 14.5223 25.9764 17.531
Pt 20.8333 23.2856 18.3694
Au 23.8128 13.9548 22.4796
Pt 12.2172 22.5797 20.4173
Au 13.0678 20.7381 5.05422
Au 13.7584 19.3074 26.2128
Pt 14.5613 21.8642 19.4931
Pt 7.73578 10.8129 11.9133
Pt 18.2377 13.1016 18.635
Pt 10.148 14.2337 18.3837
Pt 6.7663 17.1525 9.99931
Pt 11.0998 10.292 7.67229
Pt 23.407 20.8218 15.2285
Pt 10.4391 7.98082 8.84077
Pt 18.7331 7.19432 14.7317
Pt 20.9836 16.6556 20.0173
Pt 23.1367 12.1365 20.2962
Pt 15.9984 12.9479 21.5061
Pt 18.1534 8.95778 16.7182
Au 14.358 10.181 3.64711
Au 15.1438 23.7902 8.6391
Pt 14.7178 6.75347 18.5435
Au 8.17534 23.4894 19.6586
Pt 16.0135 18.5212 16.389
Au 5.51559 15.6749 8.05917
Pt 21.3877 12.3793 22.2737
Au 17.1069 15.2339 2.11504
Pt 18.578 19.7283 7.54758
Au 16.8949 11.4618 16.9308
Pt 8.96448 11.5573 21.9771
Au 24.8524 18.5936 8.79291
Pt 15.9385 11.8843 8.18512
Au 15.5514 4.03598 17.5652
Pt 14.518 5.87469 15.9529
Au 26.1113 16.2516 9.51881
Pt 21.0395 21.9211 10.983
Au 19.7746 25.5676 21.3617
Pt 11.0166 16.6582 17.2197
Au 10.9414 5.30953 8.98977
Pt 19.3492 19.1308 20.5964
Pt 17.5635 14.1852 25.2251
Au 23.3607 22.6261 9.87675
Au 13.4028 8.18546 15.1202
Pt 16.9852 6.89883 12.5535
Au 3.09293 13.2507 18.2835
Pt 14.0108 16.0168 10.9404
Au 7.84718 14.7382 6.2301
Pt 16.4956 17.2261 10.6346
Au 15.9644 6.58035 7.87745
Pt 5.15671 12.6283 16.5151
Au 25.7761 19.2192 13.3447
Pt 16.1094 7.68026 14.9307
Au 16.9036 14.5225 14.3347
Pt 21.3213 15.1066 22.5004
Au 12.9336 10.8873 12.6876
Pt 9.61546 16.5778 19.7043
Au 26.2197 13.4985 17.2261
Pt 19.7752 8.10554 12.5608
Au 16.2522 5.18223 20.0122
Pt 19.8919 8.00726 19.8084
Au 5.6975 9.93045 21.0295
Pt 9.18974 17.5648 15.5781
Pt 17.0016 15.3436 7.2425
Au 13.9879 18.5071 3.80557
Au 3.77121 11.9012 14.1523
Pt 18.6474 16.9371 5.83124
Au 19.3602 15.8111 3.52798
Pt 5.99878 14.4081 10.5563
Au 19.6245 24.434 15.9341
Pt 14.2543 23.0445 11.2812
Au 12.4085 12.1853 25.8993
Pt 15.1411 9.73633 6.28065
Au 14.9208 13.1696 15.7348
Pt 23.4537 18.5908 18.1988
Au 18.5468 18.5762 26.1234
Pt 18.0779 21.0898 22.0485
Au 19.978 7.93452 22.8466
Pt 19.4994 9.88927 14.7034
Au 12.2133 12.0167 3.8982
Pt 6.61808 11.2899 14.3243
Au 10.1895 25.3214 13.4825
Pt 8.33949 14.007 22.799
Au 5.63885 8.63684 18.4184
Pt 13.2417 18.5937 17.0541
Pt 22.3323 14.2637 8.94423
Au 26.5252 12.2881 14.6391
Au 21.7989 9.70495 23.7554
Pt 10.3822 22.4658 18.4102
Au 23.3127 21.3236 20.9633
Pt 22.9937 18.9291 13.3766
Au 22.936 18.3179 6.64063
Pt 18.055 9.37613 21.3356
Au 17.8365 16.8428 15.2812
Pt 14.7778 16.9476 8.17914
Au 7.21901 13.4743 25.07
Pt 12.7057 7.46885 20.2268
Au 6.33376 11.6757 23.1596
Pt 11.5266 18.6646 15.0143
Au 14.4437 5.85744 13.0485
Pt 12.0342 21.3045 22.7028
Au 4.21508 16.4731 10.3757
Pt 13.806 20.4044 11.9908
Au 19.9199 4.83626 15.1677
Pt 22.4317 17.2859 9.41971
Au 23.4308 23.3253 19.1152
Pt 18.5094 19.3963 10.2976
Pt 7.99501 15.0942 8.87775
Au 4.08652 18.4513 16.9041
Au 22.1996 6.02093 16.2121
Pt 12.1338 17.1616 8.89444
Au 24.8471 16.2616 19.3312
Pt 16.2504 14.783 11.7972
Au 20.7724 18.0745 4.69317
Pt 6.152 19.2518 18.5195
Au 10.9554 18.9812 4.51314
Pt 21.4528 22.4018 15.9262
Au 20.5561 26.7165 16.9334
Pt 8.67868 16.6564 22.1063
Au 26.6319 13.7094 10.4522
Pt 24.4662 17.7823 11.3828
Au 16.9854 7.99039 5.71815
Pt 14.3251 21.2095 9.42226
Au 18.2219 4.06514 17.051
Pt 10.2657 9.80762 13.0133
Au 14.0631 5.67071 21.8508
Pt 19.0301 14.3058 5.75832
Au 9.22611 24.8178 17.4931
Pt 18.85 19.2957 15.6737
Pt 14.6188 9.25132 19.6274
Pt 19.665 20.9816 17.5159
Pt 16.1392 19.2793 23.7437
Pt 12.532 15.6441 6.62705
Pt 6.93332 10.6125 16.8856
Pt 15.6387 7.66566 21.3017
Pt 13.9798 18.5782 10.145
Pt 7.58138 8.71258 13.41
Au 16.0133 17.9536 27.0672
Pt 22.1109 19.0637 20.426
Au 19.2053 5.39516 12.3977
Pt 10.4808 7.48081 16.3516
Au 9.60117 7.08109 21.9748
Pt 23.6248 11.8645 13.5223
Au 20.303 7.03612 10.0828
Pt 10.2149 15.5503 7.54422
Au 18.505 19.635 4.90366
Pt 12.3332 13.6792 11.7368
Au 26.9246 15.0062 14.8981
Pt 20.2335 15.0767 14.0262
Au 17.6632 5.82955 9.98939
Pt 23.9303 15.3541 10.7642
Au 21.7917 25.6037 19.3864
Pt 10.402 6.62493 11.3012
Au 16.5489 22.5092 23.7642
Pt 16.7684 21.8712 10.1235
Pt 23.0614 19.8354 10.5908
Pt 14.7013 14.1203 6.93421
Au 12.2168 4.77216 11.6661
Au 18.8694 5.48363 19.2094
Pt 9.95199 7.38294 13.8072
Au 23.351 20.669 7.95786
Pt 17.7343 10.3409 6.7618
Au 18.9885 22.162 6.46883
Pt 20.8133 10.0793 21.1568
Au 22.2009 24.4251 11.7786
Pt 17.0434 6.42231 17.1109
Au 16.4871 15.165 17.1461
Pt 16.7445 18.9493 20.9616
Au 19.7916 11.7029 16.7493
Pt 13.1175 9.40517 21.9991
Au 15.0031 10.4695 14.9088
Pt 18.6899 21.9966 15.0078
Au 26.8707 16.2806 12.2248
Pt 9.50342 21.1871 11.6304
Au 21.4491 25.7688 14.4267
Pt 7.60012 13.4629 12.7052
Au 5.39487 14.0318 14.0691
Pt 17.7616 14.6673 22.6483
Pt 16.0625 9.16384 8.62627
Au 3.47304 15.9416 17.854
Au 9.4797 16.7567 5.18409
Pt 16.627 15.0326 4.65975
Au 12.3374 25.7209 11.7673
Pt 15.3642 13.3238 18.737
Au 11.8248 25.9188 17.3489
Pt 13.4679 19.0326 23.1583
Au 12.646 14.4272 16.6714
Pt 18.3388 10.5658 9.2581
Au 11.5284 7.08256 6.46722
Pt 14.4202 19.7887 7.18977
Au 24.8263 18.8856 20.5311
Pt 7.67111 14.941 20.2382
Au 25.489 11.2336 9.42551
Pt 19.7882 6.83668 17.1287
Au 21.9099 14.2115 25.0056
Pt 15.6128 23.5967 17.9626
Au 19.7314 13.8625 26.6836
Pt 19.7047 14.3469 20.6596
Au 23.8912 9.10161 13.9535
Pt 11.6199 20.5851 13.2341
Pt 19.9749 17.1987 10.3074
Au 6.35191 13.0536 8.03743
Au 23.4426 8.55414 16.742
Pt 24.6728 16.4682 13.7242
Au 10.7073 20.8902 6.42785
Pt 20.9359 17.7757 22.4457
Au 23.2001 19.2179 22.95
Pt 20.0127 12.6489 9.68511
Au 15.5903 12.2978 12.9315
Pt 11.0692 23.9541 15.7543
Au 13.7428 16.2191 18.3163
Pt 10.1938 9.62479 17.9322
Au 14.4439 16.4649 15.6006
Pt 16.2362 23.0946 20.9303
Au 20.738 5.8722 21.1023
Pt 18.77 16.1968 18.507
Au 12.5288 24.1528 9.45759
Pt 10.8293 15.6011 23.1172
Au 16.6547 4.26455 12.07
Pt 16.5701 22.3595 12.7563
Au 22.5317 24.8137 16.8338
Pt 16.9543 12.0557 23.6895
Au 23.7026 10.1 11.1709
Pt 12.3362 6.12204 17.5151
Au 26.8183 18.6554 10.7625
Au 12.6686 26.0947 14.603
Pt 20.8937 9.21959 17.4981
Au 25.3021 13.6981 20.0627
Pt 11.2621 18.9881 11.0357
Au 15.818 20.2872 4.85828
Pt 21.6945 19.0014 16.0569
Au 11.868 16.0223 14.4717
Pt 20.2748 16.5576 16.4474
Au 7.62168 21.3562 21.3602
Pt 7.26914 18.1976 13.6586
Au 7.74471 10.8512 7.05828
Pt 5.67519 15.1835 16.5157
Au 14.6393 15.9265 2.83765
Pt 13.8328 9.63933 10.3428
Pt 16.2709 19.369 8.92925
Pt 9.14288 20.035 14.0831
Pt 5.9335 16.1824 12.5082
Au 20.8555 20.7192 22.6796
Pt 18.906 23.5182 11.3221
Au 10.5584 14.2165 5.01395
Pt 18.8939 14.1341 16.1529
Au 18.2976 13.1324 3.32771
Pt 11.6206 12.1372 9.48088
Au 24.9606 13.6513 8.38949
Pt 20.5069 17.7935 7.52446
Au 20.6598 16.533 26.3984
Pt 15.165 20.8476 21.9217
Pt 18.5877 16.7795 21.3366
Pt 22.0427 10.6998 15.4087
Au 14.2317 7.33209 5.7478
Pt 23.9488 12.8239 10.8513
Au 17.3945 24.8586 22.3968
Pt 17.1833 12.6264 10.4754
Au 24.0041 16.0661 7.64604
Pt 9.36227 12.0239 14.1546
Au 26.0946 18.2886 17.8977
Pt 22.089 16.7767 12.1591
Au 17.0808 4.96948 14.6942
Pt 18.9346 10.9262 12.0107
Au 7.68269 7.63175 20.1241
Pt 21.8285 13.6183 15.8318
Au 20.8641 11.6112 25.4885
Pt 10.2797 20.3992 20.2689
Au 22.392 7.91372 21.517
Pt 20.8369 14.8084 11.0674
Au 26.8563 17.6606 15.265
Pt 17.8234 11.9587 14.4647
Pt 18.7877 13.5387 12.3199
Pt 12.2995 7.92941 12.6393
Au 15.6171 10.1215 25.1532
Au 20.4362 10.0425 7.58653
Pt 18.4904 16.2082 12.3939
Au 24.6241 11.1043 16.0664
Pt 15.6018 14.5544 9.28904
Au 14.1113 21.3819 24.5036
Pt 20.9759 19.824 9.04794
Au 24.9721 20.8752 18.6363
Pt 16.1873 19.7429 11.6732
Au 7.75224 6.25075 12.4493
Pt 13.9707 11.9095 23.4763
Au 18.0425 6.52613 21.6491
Pt 22.9681 21.5988 12.6718
Au 7.82024 23.4272 12.314
Pt 8.13379 18.7697 20.5621
Au 25.0865 11.3406 18.6886
Pt 20.5972 18.5757 18.2851
Au 8.53608 5.62899 17.9851
Pt 16.5285 11 19.6884
Au 9.92374 22.837 21.6592
Pt 18.1756 18.689 12.9873
Au 18.321 26.0736 10.0862
Pt 18.8169 21.1371 12.3394
Au 16.7693 25.4475 19.7287
Au 20.5795 24.4754 9.55987
Pt 20.5406 23.2467 13.484
Au 13.9832 23.2962 22.4531
Pt 15.1957 19.5279 18.7276
Au 14.6158 25.9176 10.3911
Pt 17.9707 18.8109 18.2556
Au 22.5957 16.7642 24.3544
Pt 20.7804 19.2762 11.7443
Au 6.11907 8.24703 15.5813
Pt 9.15325 22.0273 16.1737
Au 17.3384 25.7765 16.9838
Pt 9.86256 22.5931 13.7692
Au 23.2463 13.7209 6.33587
Au 13.8012 13.8547 27.6966
Pt 22.3565 20.9687 18.0218
Au 4.96842 11.2394 18.7761
Au 21.5453 23.4878 21.2234
Pt 20.7997 20.578 14.0793
Au 8.24233 6.14182 9.79211
Pt 19.2568 25.3562 18.7715
Au 5.26697 12.0533 11.8018
