561
Atoms. Timestep: 20493
Pt 16.8948 11.1888 20.6347
Au 3.41453 17.0546 13.6325
Pt 19.4076 5.77195 15.1839
Au 9.88746 10.1991 23.2268
Pt 17.2292 6.1842 10.0611
Pt 9.21082 6.9573 12.3657
Au 9.11536 8.13887 6.52959
Pt 9.23738 11.5822 12.4228
Au 24.8081 22.757 18.5432
Pt 14.9892 24.0141 19.6835
Au 5.38218 11.9401 19.9585
Pt 23.8517 20.1082 18.9718
Au 25.2048 8.90299 21.2361
Pt 20.2366 20.4159 21.1761
Pt 6.30289 19.1075 16.1539
Au 6.41172 23.3275 11.3074
Au 25.7444 20.7273 16.8709
Pt 13.1522 21.1294 22.4999
Au 23.0722 6.26966 17.8342
Pt 15.56 20.8315 23.8137
Au 6.82347 9.67256 19.232
Pt 20.1937 20.9835 16.1811
Au 12.7588 3.09277 13.206
Pt 21.7721 10.9835 17.6616
Au 16.9767 17.0598 26.0918
Pt 24.003 16.4101 16.183
Au 5.03647 22.5104 13.5166
Au 13.5031 3.18276 10.5256
Pt 12.7798 23.1989 20.9306
Au 11.2234 7.96995 22.3279
Pt 24.8669 19.4059 14.0776
Au 20.8864 13.8987 24.7676
Pt 16.4226 9.83576 7.19693
Au 15.7889 14.3152 5.07227
Au 16.3422 7.31574 6.16408
Pt 20.9573 13.8885 12.7965
Pt 14.4526 8.08389 11.7299
Pt 9.56748 16.5064 12.2521
Pt 19.506 9.57421 17.3461
Pt 16.7471 6.34997 15.5631
Pt 17.1639 10.7315 12.6631
Pt 15.9494 19.1948 10.5765
Au 21.6422 11.6594 23.2704
Pt 9.34278 17.9501 14.6089
Au 13.0497 4.77621 8.36154
Pt 12.2662 8.07804 16.5988
Au 24.224 21.9704 21.1743
Pt 18.8829 10.9831 7.51979
Au 12.0712 26.3003 17.0993
Pt 9.96538 16.3458 18.9269
Au 5.44251 20.7655 11.3431
Pt 14.1156 17.5921 22.2668
Au 10.7193 20.5771 6.03618
Pt 12.7827 23.7035 18.2509
Au 17.7632 22.1019 7.12751
Pt 16.0398 18.3251 23.9226
Pt 15.4783 25.3692 14.5645
Pt 12.2899 16.7528 9.67438
Au 22.1126 16.0258 20.754
Au 6.05817 14.0558 10.3425
Pt 14.0995 11.2416 20.3261
Au 17.2874 11.9556 5.43312
Pt 18.3684 16.4882 13.4261
Au 15.6504 14.6128 26.0278
Pt 23.3323 13.106 11.9094
Au 20.3109 9.26165 23.9665
Pt 15.0574 18.108 6.73241
Au 14.1533 25.2187 22.1009
Pt 8.01564 16.0591 9.85806
Au 15.6579 5.19085 7.82859
Pt 13.6824 8.86413 21.5501
Au 6.15721 23.54 15.9921
Pt 14.2741 16.7699 25.07
Au 15.1428 19.3099 26.3578
Pt 13.7234 16.5089 17.1073
Au 7.12073 7.01645 10.454
Pt 20.8966 7.45667 13.5315
Au 16.2443 21.9154 26.2066
Pt 17.2995 16.9753 11.014
Pt 16.6831 14.5908 9.69536
Au 10.2224 25.8382 19.0685
Au 21.1982 25.6636 15.9624
Pt 7.38303 15.5655 18.9062
Au 11.0778 6.43291 7.30495
Pt 11.6253 20.7301 13.0892
Au 16.0376 17.761 13.4954
Pt 8.83508 15.189 21.4858
Au 23.3495 6.37305 12.7685
Pt 12.8467 16.6228 19.5529
Au 15.0521 11.7882 3.95079
Pt 12.7016 10.5478 23.3041
Au 15.7373 26.5276 20.0724
Pt 15.3859 22.4373 21.7126
Au 7.22047 21.5632 9.34774
Pt 14.0883 22.5334 8.25381
Au 3.78905 15.504 15.9144
Pt 12.8734 19.0391 20.6002
Au 22.9613 14.5399 23.0402
Pt 24.2333 10.3841 12.2816
Au 5.26986 16.8495 17.7949
Pt 10.5772 14.8136 23.3246
Au 23.0876 22.8174 12.412
Au 14.6694 19.4216 4.44868
Pt 7.69455 11.5647 10.2518
Au 18.8949 8.24822 6.20604
Pt 10.8683 15.5113 14.5994
Au 7.43805 10.8826 21.7435
Pt 7.47424 18.7091 10.6886
Au 26.3316 20.9666 19.7226
Pt 8.41346 9.01275 9.0347
Au 13.7091 6.99831 6.70649
Pt 12.8133 9.98028 10.3316
Au 16.309 17.7266 16.4474
Pt 8.52485 13.6707 8.91486
Au 8.41224 12.5332 23.7511
Pt 7.87161 10.061 14.2997
Au 19.3971 24.1137 22.7113
Pt 10.157 9.13722 13.2242
Au 21.6949 22.8025 22.2077
Au 20.0029 12.885 5.62587
Pt 19.4618 18.3259 10.0407
Au 18.6938 26.0431 20.2806
Au 8.86865 4.78114 10.9067
Pt 15.6963 22.764 14.6209
Au 17.7793 19.8251 25.4917
Pt 16.424 21.432 19.3375
Au 23.3611 24.5497 17.2155
Pt 21.8735 11.1913 13.0683
Au 20.1953 21.0408 23.8922
Pt 20.9188 10.0226 15.1692
Au 16.0731 27.6829 15.6067
Au 10.4618 18.792 25.413
Pt 10.3629 14.9126 10.3055
Pt 18.3804 14.0653 11.8472
Pt 19.3633 11.9661 19.4576
Pt 17.3821 18.3913 8.36899
Pt 17.912 4.51497 11.8403
Pt 11.7824 5.36267 10.8557
Pt 13.427 20.2945 6.70591
Pt 19.2498 11.8786 13.8401
Pt 18.7503 8.45331 15.0008
Pt 8.95068 21.2473 18.8117
Pt 10.8556 13.6294 12.61
Au 8.41829 5.85457 8.19851
Au 9.89486 10.7988 5.67887
Pt 14.6275 5.65872 10.4851
Au 14.8177 10.0821 25.2957
Pt 12.8575 7.40626 9.33823
Au 6.20969 13.6527 22.6721
Pt 11.4874 14.615 20.5507
Au 5.84168 9.55917 9.41974
Pt 15.8246 15.1824 12.3873
Au 13.4399 6.29747 22.3242
Pt 14.7615 9.54329 16.2203
Au 24.1008 19.2151 9.44006
Pt 13.7412 13.3563 12.7658
Au 23.2847 17.523 7.34155
Pt 14.1865 17.3249 11.5034
Au 7.92255 12.7389 6.17506
Pt 9.033 11.1911 19.4533
Au 21.5104 18.8774 5.9401
Pt 10.0108 23.0179 12.9171
Au 14.0932 12.469 26.6374
Pt 11.2674 20.9872 20.3682
Pt 22.1019 18.1086 10.9722
Au 17.5598 4.01008 14.3771
Au 13.6978 21.7182 25.562
Pt 16.1052 8.61779 13.9425
Au 8.47914 25.0892 15.872
Pt 15.4556 7.7328 8.83477
Au 6.72012 7.66661 13.4807
Pt 7.49908 13.2594 20.5009
Au 13.2579 15.3948 27.2739
Pt 19.5088 23.4616 15.6007
Au 14.0939 19.6758 12.8465
Pt 11.899 7.86161 11.8472
Au 13.7321 15.8011 14.3201
Pt 7.94555 17.11 16.7007
Au 17.013 19.7452 5.72233
Pt 9.65701 19.1056 12.2206
Au 6.5897 7.65482 7.68531
Pt 7.79713 9.3375 11.6866
Au 25.5906 8.07342 13.2391
Pt 8.09211 15.5986 14.2582
Au 8.63207 7.82401 18.2633
Pt 21.1788 18.1807 15.9973
Pt 13.3084 15.1658 22.3614
Au 4.75422 11.7406 10.557
Au 12.3028 4.81884 15.4944
Pt 17.7964 13.8902 7.14392
Au 10.073 7.09694 9.83027
Pt 17.8184 24.2484 13.7964
Au 21.5587 13.0121 15.2789
Pt 12.2734 14.2495 8.59371
Au 16.6978 12.056 25.699
Pt 20.9103 16.1329 14.1742
Au 18.8811 16.6269 16.2297
Pt 6.69987 16.4437 12.1351
Au 18.5184 19.1212 17.5764
Pt 12.7936 14.5314 24.8717
Au 18.5289 23.8491 9.0817
Pt 19.5161 17.4612 21.0147
Au 5.43177 16.6666 9.37674
Pt 9.27642 20.7424 14.2556
Au 6.46691 16.3801 22.4288
Pt 19.525 12.9473 22.1448
Au 6.37868 20.6423 20.3797
Pt 12.8448 19.1005 17.907
Pt 6.84634 21.1777 14.7738
Au 19.6688 4.95286 9.79845
Au 5.82341 19.299 8.8256
Pt 21.2129 19.6253 18.288
Au 24.3398 6.77127 15.4638
Pt 20.4057 20.5894 10.9457
Au 12.6538 18.0304 26.7262
Pt 15.8156 15.4426 23.4157
Au 4.55805 19.6871 13.8066
Pt 20.4929 17.0214 18.576
Au 17.0132 9.45298 4.51246
Pt 15.8164 24.1726 12.152
Au 26.0194 12.2676 11.3212
Pt 18.9466 14.2667 14.8555
Au 18.2984 7.56489 23.1258
Pt 11.2241 22.482 15.1037
Au 3.67684 18.3618 16.0579
Pt 10.5666 24.0646 17.0604
Au 16.5479 17.2159 4.53202
Pt 10.0997 12.3378 16.9718
Au 11.3196 7.45468 19.5788
Pt 18.1229 22.0528 21.34
Au 21.0248 5.8004 19.6408
Au 12.2166 10.5372 25.9567
Pt 20.161 16.197 11.532
Au 21.1651 9.65692 6.84868
Pt 15.0852 22.7458 17.305
Au 12.7438 5.52576 18.1758
Pt 16.9539 16.2549 7.00084
Au 11.1641 25.1239 21.6151
Pt 6.57883 11.8411 12.677
Au 12.0555 27.2548 12.7173
Pt 20.7506 18.3754 22.9813
Au 11.2397 15.7852 5.10074
Pt 23.5027 10.9877 15.3207
Au 7.51607 17.3474 7.57444
Pt 16.5426 8.53147 21.347
Au 21.1842 25.6177 21.431
Pt 17.4852 23.7765 19.1732
Au 12.1939 22.8388 6.49182
Au 8.03533 23.9621 18.3937
Pt 11.9111 17.0296 23.8708
Pt 13.0341 16.4678 7.17118
Pt 19.5233 9.52544 12.5181
Pt 10.2402 9.85632 10.6721
Pt 13.7496 9.59673 7.82411
Pt 10.201 16.0925 7.84844
Pt 15.3562 20.0736 17.3844
Pt 19.6708 7.44612 10.8422
Pt 21.2337 10.6607 20.6284
Pt 22.9622 21.5629 16.9709
Pt 21.52 16.4844 9.06441
Pt 11.0787 9.1532 8.24611
Pt 21.2626 13.4777 18.184
Au 6.083 12.1643 8.18001
Au 26.5972 9.56984 11.1659
Pt 20.3418 9.73975 9.52047
Au 10.321 22.4713 22.4386
Pt 18.1094 19.685 22.7928
Au 5.35187 10.9493 17.3451
Pt 13.3088 19.255 24.3373
Au 13.7487 25.1611 8.01042
Pt 14.6108 11.8887 6.61408
Au 4.68957 19.5498 18.3593
Pt 15.453 10.0888 9.94124
Au 23.3857 17.4421 22.7828
Pt 13.7627 18.8958 8.95779
Au 2.93164 14.3334 13.6633
Pt 23.3801 9.76226 19.5919
Au 21.4269 16.1962 5.61736
Pt 17.0603 24.3536 16.4861
Au 26.0941 14.6653 15.6807
Pt 23.1285 17.5111 18.4458
Au 8.58032 15.3506 5.80991
Pt 7.43282 18.8266 18.6556
Pt 9.62094 8.53813 15.7871
Au 23.9441 11.5385 21.8362
Au 22.1127 5.24247 14.907
Pt 9.69493 20.6753 10.1356
Au 5.53939 17.8304 20.3615
Pt 9.57625 13.7606 19.0927
Au 20.5217 5.03046 12.4915
Pt 15.957 15.3334 17.7749
Au 14.8825 4.32662 14.9362
Pt 11.945 11.2537 12.5966
Au 17.7708 22.3757 24.0011
Pt 24.8194 10.8354 17.6173
Au 17.7866 16.6916 19.0685
Pt 9.97156 12.5377 21.5955
Au 9.05827 17.5765 23.3959
Pt 8.74668 22.364 16.2724
Au 11.2432 21.2981 24.7341
Pt 21.1823 7.47403 16.192
Au 17.0288 4.222 19.7694
Pt 19.7245 14.7586 20.0664
Au 16.3364 3.58812 9.8719
Pt 14.4668 12.7706 24.0056
Pt 18.819 14.4277 17.6218
Au 18.2815 5.86425 7.589
Au 11.5778 13.1549 26.9403
Pt 15.961 12.5812 11.1712
Au 10.4743 4.17724 8.84049
Pt 9.16644 14.8478 16.6884
Au 24.1904 13.3348 9.41992
Pt 9.83988 17.9217 9.80914
Au 25.9639 15.9976 18.0667
Pt 11.8747 17.9563 13.395
Au 11.8056 14.5785 17.468
Pt 16.7386 6.72986 18.9806
Au 14.4064 27.8357 17.8513
Pt 6.76187 12.2719 15.335
Au 26.2665 18.0555 16.0783
Pt 21.453 13.9999 10.0289
Au 11.805 8.79316 5.73239
Pt 13.0954 9.37656 18.7391
Au 6.51447 21.5306 17.7662
Pt 18.5696 8.96464 19.7049
Au 9.01501 23.419 10.3914
Pt 13.264 24.082 15.5576
Pt 11.8797 21.0954 8.68767
Au 23.2305 7.2231 20.4348
Au 10.7346 15.9971 26.0407
Pt 11.6259 22.3313 10.9923
Au 24.8285 16.7044 20.515
Pt 16.7546 13.1099 16.4647
Au 24.8072 10.5755 9.47247
Pt 15.257 10.5922 22.6593
Au 17.0122 13.5723 19.4444
Pt 23.3942 14.8748 14.1864
Au 9.06613 8.81271 20.7943
Pt 14.5769 11.7524 14.8652
Au 10.433 4.65197 13.3075
Pt 7.13607 18.9012 13.3322
Au 11.0738 17.2581 16.6768
Pt 16.3696 15.3727 15.0605
Au 4.12305 15.4796 11.551
Pt 11.3744 18.6272 7.80717
Au 24.2529 16.235 9.55922
Pt 12.0056 19.2499 10.8717
Au 25.7123 9.18704 15.7242
Pt 14.1928 13.9291 16.3072
Pt 12.8779 9.36384 14.2004
Au 12.9055 8.18974 24.4229
Au 26.5411 11.9854 15.9574
Pt 13.7312 23.8663 10.5552
Au 20.1378 18.6311 25.4768
Pt 12.9358 13.8844 6.08515
Au 18.7708 15.3849 5.12043
Pt 14.814 25.4171 17.3367
Au 7.61932 23.673 13.7089
Pt 17.5411 21.7354 16.7597
Au 20.4429 24.6867 13.2947
Pt 15.2637 13.3113 21.5274
Au 25.9084 11.1447 20.0094
Pt 18.959 10.3544 21.9925
Au 6.81169 8.29271 16.209
Pt 10.4221 23.3223 19.656
Au 19.2588 11.6752 24.6982
Pt 14.5015 10.6591 12.4402
Au 22.8053 8.79948 8.834
Pt 13.882 13.9242 19.2005
Au 13.477 27.0525 14.9931
Pt 7.94597 21.2955 12.0949
Pt 14.7092 7.17188 17.3156
Pt 16.2094 22.7272 9.86839
Pt 11.8567 12.1517 19.0169
Pt 11.3638 19.69 15.5922
Pt 13.2837 5.62264 12.8622
Pt 19.1256 6.87201 17.8014
Pt 8.32392 17.5665 20.6903
Pt 11.3139 7.0077 14.3281
Au 22.9753 24.1877 19.9973
Pt 22.7841 15.7515 11.773
Au 15.2804 23.6081 24.1625
Pt 17.9848 10.7141 10.1657
Au 22.762 9.17796 22.4485
Pt 6.46217 14.7839 16.2385
Au 13.9894 16.3139 4.64005
Pt 15.2554 16.7457 9.08138
Au 15.2581 22.0119 5.83967
Pt 15.4625 19.8251 21.3494
Au 4.73806 13.8316 18.0647
Pt 22.1592 18.715 20.6178
Au 10.5406 13.2527 4.40035
Pt 18.8573 15.7598 9.28294
Au 20.8449 23.4354 10.849
Pt 12.0786 13.1364 14.9578
Au 10.9107 25.2764 14.4674
Pt 16.6378 13.0612 13.7855
Pt 13.61 22.4275 12.9671
Pt 20.0459 11.8809 11.2724
Au 14.8198 26.9711 12.3254
Au 24.8139 18.0076 11.7097
Pt 22.9675 17.6936 13.8396
Au 25.9588 13.3284 18.3712
Pt 20.666 21.815 13.2692
Au 10.9681 25.0802 11.4901
Pt 11.4016 10.2671 20.7886
Au 19.1146 18.0753 4.89198
Pt 17.3281 9.87746 24.0097
Au 18.5568 18.9595 14.8386
Pt 21.1109 23.2265 17.6917
Au 8.80977 20.4532 23.8193
Pt 14.7912 11.7912 17.8591
Au 18.2083 21.5507 14.0998
Pt 19.0369 13.0354 9.27078
Au 26.6706 10.6888 13.5942
Pt 11.1152 19.4195 22.6873
Au 15.8608 25.6106 9.91569
Pt 12.5613 11.015 16.5815
Au 15.4344 3.41562 12.4202
Pt 8.20478 14.0283 11.9438
Pt 21.2496 8.38714 18.8338
Au 5.14262 9.47574 12.0805
Au 8.08402 22.6995 20.9249
Pt 14.0477 21.1127 10.4892
Au 6.50757 14.8155 7.58928
Pt 23.0934 8.73553 14.1094
Au 16.8903 24.6629 21.8864
Pt 20.0544 23.6332 20.0972
Au 13.8134 18.4442 15.3246
Pt 10.3489 13.5867 6.97098
Au 5.1847 10.0618 14.7392
Pt 17.3515 11.0459 18.0195
Au 24.5839 21.9401 14.6149
Pt 16.1216 21.3983 12.2132
Au 19.559 16.081 26.041
Pt 19.3886 12.0654 16.5542
Au 18.6334 6.23018 20.7351
Pt 10.9629 17.119 21.391
Au 14.4399 9.35537 5.20308
Pt 21.9649 21.7094 19.7077
Au 22.0832 6.35453 10.3672
Pt 18.4306 22.5411 11.6003
Pt 23.187 8.8521 16.9011
Au 5.64955 14.2644 13.5674
Au 27.1768 13.5033 13.4901
Pt 15.7724 20.4986 8.16644
Au 21.5767 12.1557 7.87791
Pt 17.0864 8.50659 17.0031
Au 6.82134 19.0807 22.5463
Pt 17.9371 19.4408 20.1181
Au 23.0001 14.749 7.46981
Pt 16.023 20.14 14.7864
Au 13.5603 21.2493 15.6242
Pt 8.15569 10.5071 16.9369
Au 4.40644 21.2006 16.0511
Pt 22.7168 20.1235 12.3006
Au 15.3216 4.57632 17.6385
Pt 10.6025 9.70281 18.0064
Au 9.59665 22.3508 7.85637
Pt 15.6314 9.32046 19.0403
Au 25.0593 20.8879 11.7406
Pt 20.5162 18.6553 13.0561
Au 18.6222 26.3822 15.4339
Pt 9.05018 13.1694 14.5469
Au 22.2426 23.3094 14.9876
Pt 14.1138 7.08013 14.7979
Au 24.7699 13.9949 20.9225
Au 19.3461 19.9324 7.11167
Pt 16.4415 12.1501 8.48159
Au 16.115 5.8957 21.7981
Pt 23.4697 12.3486 19.2168
Au 11.4604 24.0843 8.89513
Pt 12.2072 15.6913 12.0933
Au 15.2657 18.116 19.1694
Pt 19.6265 17.2751 7.32995
Au 9.2508 13.7589 26.0064
Pt 23.7193 19.0023 16.453
Au 8.672 19.7283 7.83272
Pt 8.96033 19.6651 16.6889
Au 7.3022 10.1567 6.84833
Pt 14.066 14.6581 10.429
Pt 19.2153 25.0132 17.7863
Pt 10.5141 10.912 14.9415
Pt 14.2542 7.10136 19.8799
Au 8.00945 15.2236 24.2508
Pt 13.2392 24.9246 13.0038
Au 4.74785 18.2034 11.4904
Pt 11.2587 12.4903 24.2415
Au 9.59742 17.9625 5.83305
Pt 9.4507 11.3411 8.26391
Au 25.3995 14.9001 11.8055
Pt 11.3703 21.4435 17.6582
Au 9.64587 11.1331 25.8321
Pt 19.2399 21.5139 18.799
Pt 18.1158 19.4762 12.1442
Pt 24.7885 12.6531 13.9434
Au 13.2265 13.8254 3.56605
Pt 20.305 15.5095 22.7446
Au 20.4371 21.9313 8.54966
Pt 18.0928 8.42218 8.75971
Au 24.8722 19.3063 21.3528
Pt 7.32463 12.8505 17.898
Au 12.5778 23.5664 23.6785
Pt 14.9364 14.4207 7.69588
Au 3.93597 11.8925 13.0732
Pt 17.1829 10.7062 15.3409
Au 8.56694 6.24859 14.8976
Pt 12.0232 11.591 7.49311
Au 10.3596 6.14382 16.9757
Pt 17.1376 12.4574 23.063
Au 22.6897 20.2878 22.7888
Pt 22.4083 11.2457 10.2796
Au 10.8826 2.91449 11.2323
Pt 18.3199 6.8057 13.0311
Pt 18.4246 17.0875 23.7407
Pt 17.7556 14.9813 21.7653
Au 20.5617 7.99874 21.4848
Au 12.2612 18.3897 5.15748
Pt 22.0022 8.85239 11.5493
Au 25.2292 8.154 18.4943
Pt 18.0765 20.7679 9.59885
Au 17.3203 26.8864 13.1592
Pt 13.7663 21.2972 19.338
Au 21.8321 16.5331 24.7488
Pt 13.8424 12.227 9.41673
Au 24.4632 7.96289 10.7624
Pt 5.83535 16.9657 14.7196
Au 5.26961 14.9681 20.4316
Pt 23.8541 13.3458 16.5768
Au 12.9863 26.0665 19.6972
Pt 15.2972 15.7282 20.4868
Au 14.3691 4.53099 20.2367
Pt 10.3427 18.8764 19.0071
Au 19.5056 10.4318 4.83833
Pt 21.8369 13.3325 20.9241
Au 21.4114 25.9769 18.7569
Pt 17.0789 8.41822 11.3436
Au 12.493 11.3722 4.7737
Pt 15.8887 6.07636 12.8595
Au 17.2122 26.8163 17.892
Au 13.0807 26.4107 10.3277
Pt 23.4801 14.9572 18.6516
Au 22.8008 21.5294 9.95673
Pt 16.8492 17.5024 21.5849
Au 25.6281 16.6289 13.8708
Pt 22.2773 20.3371 14.75
Au 18.3893 25.2573 11.3221
Pt 20.3561 14.6314 7.50871
Au 20.5941 7.2247 8.20444
Pt 8.96661 20.0292 21.188
Au 25.958 18.547 18.733
Pt 11.1236 12.3496 10.1661
Au 18.1325 14.3946 24.5952
Au 20.7925 4.73147 17.2223
Pt 12.6108 12.6938 21.8864
Au 18.0107 4.47347 17.2157
Au 16.1645 24.1874 7.52959
Pt 21.4966 19.2673 8.64689
Au 15.4655 7.83672 23.7065
Pt 21.5665 15.4894 16.6257
Au 4.1387 12.7594 15.6078
