561
Atoms. Timestep: 20467
Pt 9.84183 11.4096 15.917
Au 5.03399 15.3815 21.1338
Pt 11.4995 14.3655 24.0733
Au 5.96297 13.7398 9.27215
Pt 12.8798 17.8793 6.21789
Pt 9.31645 17.7143 13.33
Au 14.3156 14.2832 3.5794
Pt 13.8204 16.0139 20.3671
Au 6.08229 20.3894 11.2294
Pt 9.43991 8.68234 16.1014
Au 17.0888 25.452 21.4488
Pt 10.5092 21.7556 16.335
Au 5.60055 9.17633 12.8227
Pt 14.0098 14.9269 23.0972
Pt 7.52073 17.6201 11.3624
Au 16.0569 25.0824 10.1733
Au 8.38303 9.04256 22.1135
Pt 8.87942 19.7583 11.1264
Au 9.78651 12.1081 4.96284
Pt 9.03982 16.9364 15.765
Au 11.1498 11.4988 26.479
Pt 7.84151 21.5845 15.2485
Au 4.03167 13.6519 19.3677
Pt 18.5438 14.9397 24.6136
Au 15.8692 11.9286 27.4616
Pt 12.7139 12.7429 22.1263
Au 14.8165 22.1507 5.61227
Au 22.531 8.21621 19.4181
Pt 9.61379 21.7504 13.4372
Au 6.31029 16.9408 22.8668
Pt 19.2665 16.0055 10.7991
Au 15.9904 9.16812 26.9012
Pt 9.91388 17.3993 20.0913
Au 11.0625 19.3852 4.98959
Au 8.89428 15.4852 24.7258
Pt 20.1129 19.3235 7.17282
Pt 9.46365 13.5147 22.6183
Pt 12.1939 16.8558 9.01289
Pt 21.6389 7.15902 15.1831
Pt 12.4797 11.603 16.7822
Pt 9.12532 9.81018 9.72898
Pt 11.1102 19.1757 7.72214
Au 9.31738 9.93474 24.5241
Pt 15.3331 18.8124 6.22966
Au 15.0004 11.6394 3.75839
Pt 7.96333 21.1639 17.7114
Au 14.02 20.6648 25.2477
Pt 13.6253 8.90098 8.05878
Au 6.83699 11.1534 8.50029
Pt 19.2472 12.0433 19.0971
Au 4.83201 17.9778 11.1999
Pt 8.10787 10.3582 17.6851
Au 9.00514 12.734 25.1599
Pt 8.37121 13.0053 17.7039
Au 21.6298 24.0959 20.9228
Pt 16.2202 9.55483 22.9142
Pt 21.9469 22.0712 16.8982
Pt 13.1508 14.3639 8.36083
Au 20.1815 4.19241 12.2658
Au 11.0388 5.90367 8.62787
Pt 12.4919 10.5728 20.3674
Au 12.3519 8.31696 5.70638
Pt 6.49161 16.7732 16.8874
Au 8.94842 23.9785 21.091
Pt 7.61072 19.7224 13.3545
Au 17.1824 9.63664 4.98929
Pt 11.5066 12.5772 9.37994
Au 4.37602 16.4481 18.6617
Pt 9.74944 13.8058 19.9616
Au 9.18742 5.02587 19.1853
Pt 12.7791 9.73884 12.4775
Au 3.61129 13.0508 14.3328
Pt 14.27 9.11799 19.0491
Au 11.7518 13.7198 4.04043
Pt 10.2197 7.16699 18.2951
Au 7.63675 11.5152 22.996
Pt 20.5789 16.2615 15.1888
Au 22.4046 17.4918 23.6162
Pt 20.8415 8.6515 17.3626
Pt 6.0585 14.4206 17.8464
Au 8.1557 13.5489 7.25421
Au 8.07019 24.0316 13.8752
Pt 11.2215 9.09242 22.3982
Au 17.4139 26.929 18.8822
Pt 18.5078 8.18973 6.76334
Au 7.95039 16.3079 7.16996
Pt 8.48445 12.415 13.7705
Au 11.4838 4.75534 14.1632
Pt 17.4141 22.7029 9.24526
Au 10.655 21.6226 6.69473
Pt 14.87 13.6775 20.5303
Au 17.1932 26.3653 12.5002
Pt 12.7513 23.3547 11.8784
Au 6.50353 22.3711 20.9609
Pt 10.9379 13.6582 17.4547
Au 18.1028 10.7718 26.0759
Pt 8.12508 15.2654 10.0466
Au 5.30155 19.0369 18.114
Pt 17.98 10.5387 21.4232
Au 11.2369 21.2678 25.5936
Pt 13.5061 10.4139 23.3035
Au 13.8713 19.7989 4.22755
Au 24.3413 17.489 7.08174
Pt 18.7118 10.6626 7.14544
Au 22.694 15.8098 5.60477
Pt 15.6321 10.9028 24.9859
Au 8.08805 8.75973 7.50983
Pt 8.38729 15.2869 13.0364
Au 5.99142 22.0647 13.4611
Pt 7.00042 16.8896 19.695
Au 4.9358 19.3182 13.5657
Pt 11.0113 19.6156 12.8893
Au 15.4086 17.3452 12.944
Pt 13.1527 23.476 21.6502
Au 12.6216 6.63432 22.5925
Pt 8.53388 15.7891 21.6917
Au 10.8767 14.2307 26.6409
Pt 14.082 8.53772 21.6602
Au 4.32986 10.4452 14.9381
Au 5.99775 16.6095 9.06944
Pt 14.1223 24.8924 16.815
Au 12.6757 26.6859 15.5399
Au 19.2491 22.4293 24.5434
Pt 13.6977 18.9937 8.91031
Au 5.03428 20.925 15.8863
Pt 9.7645 20.0916 19.3894
Au 9.97725 18.6742 26.1157
Pt 12.6016 21.5284 9.05739
Au 11.8575 9.03688 25.0074
Pt 13.2911 23.3829 18.9773
Au 10.0124 22.7702 23.5081
Au 11.8454 5.23338 19.9538
Pt 16.4158 20.6598 20.9034
Pt 14.5655 7.60629 12.0734
Pt 11.4582 15.93 16.4329
Pt 6.44685 12.3298 15.9296
Pt 7.34397 10.1796 14.8899
Pt 15.8179 9.86555 12.999
Pt 11.6752 9.28141 17.7578
Pt 15.1334 10.9354 20.8916
Pt 14.1407 9.41306 16.5474
Pt 12.6517 17.1519 22.4937
Pt 16.9264 11.0532 10.5676
Au 17.4503 5.96532 20.1757
Au 23.8147 14.6447 21.1333
Pt 10.3162 14.909 8.8521
Au 14.5664 9.88141 5.76303
Pt 7.63666 14.7015 15.7208
Au 7.62286 10.9675 5.9657
Pt 7.17455 13.2628 11.6351
Au 9.3764 14.8451 5.08448
Pt 15.8562 15.7245 5.23913
Au 18.4751 7.74586 22.107
Pt 9.5888 9.18643 19.7797
Au 4.25622 15.1356 16.0167
Pt 20.9573 11.4474 16.6925
Au 20.5256 4.68148 15.0014
Pt 11.5675 16.6583 25.3018
Au 6.55718 8.87452 9.98174
Pt 22.7157 15.4847 16.6975
Au 15.0135 24.7228 23.0768
Pt 10.4787 8.43955 11.5153
Au 24.851 14.7593 18.5534
Pt 21.2129 19.2217 15.1531
Pt 13.1235 15.2967 5.86738
Au 15.3267 3.36255 15.8396
Au 9.05049 17.5143 4.89514
Pt 21.4616 10.9141 11.3298
Au 7.30221 23.8067 18.7749
Pt 16.3697 11.8945 6.10412
Au 13.3372 6.32941 7.2537
Pt 9.69286 11.2773 7.66526
Au 22.8034 12.9624 6.36023
Pt 12.3251 13.2057 19.6656
Au 19.4429 17.1588 19.6547
Pt 9.23522 17.6901 9.04912
Au 16.0445 11.361 16.3839
Pt 9.98883 14.0851 15.0618
Au 8.89041 5.86796 16.3035
Pt 11.3575 15.1597 21.5776
Au 5.57112 12.3503 21.2995
Pt 21.3133 15.7372 21.7072
Au 21.1631 10.7358 5.81601
Pt 11.1519 11.6115 23.8665
Au 23.6018 22.1758 21.0092
Pt 19.7124 13.562 22.4095
Pt 14.6753 16.6226 7.65027
Au 16.6784 20.5963 4.45228
Au 16.134 4.52748 8.6803
Pt 13.1819 20.5114 6.73642
Au 15.9113 16.3014 17.7004
Pt 11.1212 13.57 6.76028
Au 15.5362 14.1248 7.29616
Pt 13.0578 20.5905 11.4337
Au 13.8548 14.5071 17.7943
Pt 12.5371 7.46053 10.2575
Au 12.9157 13.8002 15.3014
Pt 16.3612 19.7518 23.5328
Au 17.9704 11.139 14.3398
Pt 16.2522 5.69196 11.1968
Au 14.1382 11.4213 14.3602
Pt 13.6662 15.1223 25.7206
Au 19.2605 9.82281 23.7728
Pt 16.6595 14.7014 22.7741
Au 22.4092 12.9619 22.7887
Pt 10.2601 11.3367 21.4692
Au 7.39963 7.70419 17.6793
Pt 20.1819 18.1732 22.3349
Pt 19.1795 14.9117 8.38673
Au 12.7316 23.3107 7.08523
Au 11.5777 25.9565 13.1528
Pt 17.376 12.5552 8.38122
Au 19.0667 5.09058 17.9323
Pt 11.2264 19.1282 10.2361
Au 6.98542 19.1508 9.01693
Pt 10.7307 21.737 11.043
Au 4.28163 13.5996 11.7326
Pt 12.4693 18.5377 19.9305
Au 16.5302 2.87808 13.4271
Pt 10.85 23.7771 14.5552
Au 24.9531 12.2818 8.09034
Pt 17.6285 19.8708 6.83655
Au 15.1956 18.3067 19.9923
Pt 19.4273 22.4901 20.781
Au 13.8237 19.278 13.7744
Pt 6.92842 19.1107 15.804
Au 15.823 14.699 27.601
Pt 13.3804 12.5726 24.9452
Au 20.1632 17.3401 25.1937
Pt 18.1611 23.0497 16.6768
Au 12.3894 16.1067 27.8344
Au 11.2522 24.9709 22.6145
Pt 9.83597 22.7869 18.726
Au 10.0431 24.1915 11.8359
Pt 8.88536 15.6706 18.1458
Au 5.27457 11.2478 10.7355
Pt 22.0396 15.7399 19.2536
Au 22.1668 25.1052 16.522
Pt 19.7248 21.8828 10.6185
Au 10.7094 23.481 9.03988
Pt 14.0142 19.381 22.4181
Au 19.6289 25.6723 20.0786
Pt 19.5985 21.1886 15.3301
Au 15.1736 27.3816 17.0657
Pt 21.7194 18.5121 19.6679
Au 13.4907 26.0308 21.0735
Pt 7.06634 19.9471 19.9109
Au 9.14776 21.103 8.86322
Au 8.64813 19.2696 6.79939
Pt 14.925 22.4283 10.3556
Pt 14.9237 7.05877 9.36459
Pt 21.8551 8.7077 12.9382
Pt 5.92073 14.3611 13.9271
Pt 10.3954 11.2246 11.562
Pt 12.2009 7.2918 13.283
Pt 17.6092 18.3777 21.392
Pt 13.6768 12.6984 5.91635
Pt 20.4651 11.2449 21.5036
Pt 20.6297 14.1201 17.6773
Pt 15.6548 7.24919 17.8995
Pt 5.83027 11.8152 13.3192
Pt 15.2898 5.35856 13.5863
Au 16.6433 17.9628 3.96035
Au 16.9266 13.5806 3.85473
Pt 8.76679 12.555 9.73735
Au 4.30237 17.8977 15.7794
Pt 20.6063 15.0424 12.7921
Au 19.0377 4.48771 8.92779
Pt 19.8998 6.94107 13.1354
Au 8.8627 7.11299 9.65576
Pt 15.3497 13.7118 10.1377
Au 11.4905 12.1635 13.7083
Pt 13.0685 6.88228 17.8967
Au 23.9176 10.224 17.8039
Pt 10.8497 8.52705 8.07619
Au 11.1678 4.74247 17.241
Pt 17.7904 12.1721 23.6645
Au 24.4115 21.2329 15.4917
Pt 24.769 14.2601 15.7863
Au 12.2553 10.9196 4.38815
Pt 16.4214 6.02811 15.7701
Au 7.06638 7.62011 14.8812
Pt 15.9999 16.1297 25.0282
Pt 12.0152 10.1123 9.80479
Au 25.5414 9.82969 9.06427
Au 14.0494 16.2987 15.1961
Pt 21.762 15.0929 8.07724
Au 9.97683 9.48526 5.61413
Pt 10.0531 13.8125 11.6758
Au 18.0316 3.78261 15.7675
Pt 20.2016 16.6066 6.47952
Au 15.7172 13.8726 15.4537
Pt 16.7774 8.73931 15.8377
Au 21.5523 6.04569 17.5854
Pt 24.8283 13.0256 13.436
Au 12.5325 14.7783 10.8873
Pt 8.07272 11.6236 20.2617
Au 11.7043 17.8282 14.7364
Pt 12.0418 7.9166 20.1231
Au 24.2035 19.7273 19.924
Pt 18.7663 16.0208 22.1883
Au 24.3535 12.2623 19.8637
Pt 15.2725 12.4673 22.8877
Au 14.4693 8.19823 24.6433
Pt 14.3892 11.8059 18.5048
Pt 16.8812 15.7438 9.09839
Au 19.3222 21.2299 5.1597
Au 3.97506 12.3918 16.9461
Pt 20.8605 8.12704 10.6659
Au 22.0197 23.4734 11.2205
Pt 20.9751 9.59441 8.3592
Au 21.7492 21.2932 6.32393
Pt 17.5314 18.1538 11.1319
Au 14.3124 14.5908 12.9268
Pt 16.3193 9.63114 8.15404
Au 13.466 17.5486 17.6505
Pt 21.6794 21.3714 19.469
Au 12.7837 17.5634 11.853
Pt 17.5504 22.0717 13.8993
Au 7.80019 7.07741 20.2067
Pt 17.3941 12.9644 20.9155
Au 11.531 15.455 13.4015
Pt 10.2686 16.5771 11.1587
Au 5.13143 18.3579 20.8849
Pt 15.5259 17.1321 22.502
Au 12.6581 2.9768 15.9438
Pt 14.1172 17.8218 24.7378
Pt 18.034 14.1968 6.23226
Au 14.0512 17.1117 3.79917
Au 19.213 18.5551 4.74325
Pt 17.272 20.6239 16.4109
Au 22.3627 5.70863 13.0642
Pt 24.2229 16.5685 9.6101
Au 25.3781 10.3839 15.2073
Pt 19.3546 19.9712 12.9469
Au 16.8516 15.3975 12.0151
Pt 9.61004 19.549 15.4463
Au 9.93986 26.0765 15.5559
Pt 18.07 13.5955 10.6
Au 18.9938 9.64288 12.1804
Pt 18.3611 20.0681 9.35901
Au 18.681 18.3816 15.841
Pt 11.887 19.054 24.2342
Au 10.0615 6.71384 21.4957
Pt 19.5671 21.9193 7.84554
Au 4.05618 16.3278 13.4233
Pt 15.3646 26.0362 14.5854
Au 23.0957 10.4284 21.3183
Pt 8.82212 23.797 16.4612
Pt 22.0237 21.8019 14.3752
Au 6.18077 23.3806 16.2123
Au 23.5535 7.15205 11.187
Pt 15.5286 20.9501 8.20331
Au 12.7034 26.5484 18.4281
Pt 21.0629 13.6447 15.0494
Au 9.3744 25.6526 18.382
Pt 11.3232 24.7196 19.9398
Au 18.8124 17.2512 13.2929
Pt 14.7492 16.5973 10.3289
Au 21.9873 22.8119 8.61099
Pt 10.8577 18.371 17.612
Au 26.1598 14.5331 9.52656
Pt 24.3347 14.8738 7.52517
Au 13.5247 12.1478 11.4565
Pt 15.2771 19.4835 10.9945
Au 16.6561 13.5946 18.3189
Pt 15.2255 25.4015 19.1701
Au 17.8784 16.6324 26.7419
Pt 13.0946 22.5301 16.4259
Au 21.2982 22.1607 22.7534
Pt 8.77269 21.2603 21.5492
Pt 9.61221 9.71629 13.6298
Pt 18.9628 6.70536 15.7429
Pt 6.61814 17.0748 14.0504
Pt 24.5317 14.9279 11.7623
Pt 10.4435 11.4061 18.7011
Pt 16.7948 19.5432 13.6702
Pt 13.6792 5.53801 15.682
Pt 17.2266 7.60609 13.4994
Au 23.5372 19.9566 7.78178
Pt 19.5002 12.4681 12.39
Au 15.816 7.40488 6.56061
Pt 11.5542 7.11978 15.8109
Au 18.5482 15.9239 4.23202
Pt 19.5214 11.5095 9.68589
Au 13.7522 4.22876 18.1509
Pt 7.7602 10.6239 11.8307
Au 5.55313 9.6895 17.125
Pt 11.9221 9.62746 14.9983
Au 16.402 4.59559 18.0838
Pt 22.4012 13.1454 12.4595
Au 6.83142 14.1722 23.0705
Pt 23.658 10.6065 13.0876
Au 26.9622 12.9446 14.9157
Pt 19.5539 19.9064 20.3099
Au 23.8463 21.3267 10.172
Pt 17.8598 21.483 18.8779
Pt 22.1345 19.8597 21.782
Pt 21.3456 20.2967 9.26198
Au 23.4423 9.9189 7.24842
Au 17.7936 3.52643 11.0702
Pt 14.9488 21.6582 12.9095
Au 26.8517 11.9384 10.1565
Pt 18.6768 9.08061 9.40955
Au 21.1822 8.03997 6.23436
Pt 5.9529 15.6161 11.6062
Au 25.4773 19.7452 11.9431
Pt 21.034 11.1778 13.9937
Au 18.6365 10.2238 17.0356
Pt 17.8593 17.6789 24.0286
Au 16.2709 12.6426 12.7
Pt 16.5471 8.44835 20.3017
Au 15.5787 18.4995 15.9987
Pt 19.6999 9.05581 14.83
Au 25.4164 19.3196 17.1338
Pt 8.2685 18.5084 21.7129
Au 14.5294 6.17128 20.2237
Pt 6.01358 11.887 18.6484
Au 17.3117 8.16892 24.8177
Pt 17.3719 22.7036 22.3944
Pt 20.8179 13.7277 10.2736
Au 10.658 5.69097 11.402
Au 6.5346 9.46991 19.8709
Pt 22.014 16.141 10.8483
Au 20.2682 26.2885 14.6721
Pt 17.392 6.87568 8.79819
Au 14.0519 26.0023 12.0241
Pt 13.7273 21.059 20.4971
Au 18.3599 14.2266 14.0695
Pt 12.1241 10.8996 7.08895
Au 16.7793 15.8382 20.2228
Pt 20.3089 23.718 15.5035
Au 20.0549 25.3909 12.142
Pt 16.7973 25.2472 16.8843
Au 23.6906 7.6446 16.8804
Pt 23.3714 19.6373 13.5939
Au 27.0501 13.873 12.094
Pt 10.1194 17.2691 23.1706
Au 21.842 10.5082 23.7207
Pt 17.7206 24.0972 19.2063
Au 21.2508 14.994 24.2939
Pt 14.9455 21.0662 15.4143
Pt 22.9463 12.965 17.7627
Au 20.1575 6.75819 19.8794
Au 15.044 3.30833 11.0926
Pt 18.0068 23.7772 11.6403
Au 7.9543 22.3891 11.3763
Pt 18.0543 24.668 14.3635
Au 14.4065 11.6955 8.49509
Pt 20.0635 6.88645 8.40949
Au 18.6157 15.8293 17.2946
Pt 14.9055 21.9509 22.9974
Au 14.8009 20.2482 18.1019
Pt 8.27763 18.4555 17.9623
Au 16.9403 16.2951 15.0598
Pt 15.6687 22.7827 17.8584
Au 18.5384 12.9762 16.4385
Pt 20.0047 20.1586 17.7083
Au 6.5336 20.1033 22.7569
Pt 15.9687 13.5491 25.1953
Au 15.2708 23.7451 7.88388
Pt 21.6421 10.7689 19.0992
Au 5.46571 21.7879 18.4766
Pt 11.4488 24.4397 17.1367
Au 20.5546 14.1679 5.0926
Pt 14.5954 9.73071 10.4386
Au 22.9868 23.8783 18.7078
Au 12.8815 23.4303 24.4346
Pt 17.2349 21.1462 11.4459
Au 16.2149 18.9992 26.1336
Pt 21.888 17.7033 8.50227
Au 13.2405 24.5249 9.5886
Pt 11.1191 22.1049 20.835
Au 17.4895 18.7029 18.4427
Pt 9.43972 20.0907 23.7907
Au 17.3521 24.4311 24.3304
Pt 12.0359 21.0022 18.4799
Au 26.4287 16.8944 11.2259
Pt 17.5338 17.0743 6.6399
Au 19.7299 24.2995 9.49842
Pt 22.5956 9.61165 15.4839
Pt 20.0022 22.7934 13.0435
Pt 21.5758 17.6722 13.0588
Pt 20.2238 12.7824 7.38997
Au 22.1366 18.5153 5.70455
Pt 23.1667 9.54264 10.0911
Au 7.83429 7.84816 12.1317
Pt 14.4868 7.85452 14.6288
Au 13.3973 4.71826 9.40507
Pt 20.2297 23.4103 18.3739
Au 24.2035 7.89881 14.0038
Pt 19.4309 9.32405 19.666
Au 26.1483 15.7453 13.9137
Pt 22.7574 19.6436 17.3679
Pt 12.2594 21.3217 23.0249
Pt 18.8252 6.31126 10.938
Au 18.8768 11.9231 4.77722
Pt 21.6992 20.7756 11.9344
Au 25.804 18.6351 14.4894
Pt 23.2591 12.1614 15.3112
Au 24.0822 22.1982 12.7459
Pt 20.2855 18.5225 10.8876
Au 14.8093 17.1477 27.4006
Pt 24.359 11.837 10.8987
Au 12.6221 18.7812 26.8768
Pt 23.3862 17.7046 15.4767
Au 15.9008 6.78228 22.6278
Pt 18.2075 7.70576 18.054
Au 19.4784 24.4906 22.6278
Pt 7.17606 14.1597 20.1309
Au 18.6532 19.8523 25.4629
Pt 23.0499 18.7456 10.7947
Au 24.0013 17.3797 18.4191
Pt 16.867 10.6752 18.9112
Pt 21.663 13.2212 20.1907
Pt 16.8538 8.3297 10.9887
Au 13.7282 3.14324 13.5215
Au 21.4763 5.48557 10.2783
Pt 23.0498 15.3129 13.9972
Au 23.5926 17.3632 21.2301
Pt 19.0233 17.5843 8.74913
Au 25.7489 16.6292 16.4718
Pt 17.9677 5.12686 13.4508
Au 16.6161 21.9072 25.1357
Pt 11.5806 15.8219 19.0149
Au 18.0203 5.55842 6.65971
Pt 13.2976 5.2955 11.9428
Au 13.594 10.3916 26.6559
Pt 24.2169 17.3184 12.6816
Au 20.1907 12.4422 24.8662
Pt 10.9482 19.4347 21.7184
Au 25.4449 18.8885 9.40389
Pt 18.8273 20.49 22.7516
Au 21.0794 8.60916 21.7896
Pt 21.0219 17.5356 17.3674
Au 7.84628 18.1625 24.5789
Pt 15.5667 23.1916 20.5681
Au 11.4357 16.5579 4.11625
Pt 10.692 16.5237 6.80719
Au 22.7457 7.39787 8.48587
Au 17.3457 22.6074 6.47004
Pt 19.3132 14.5507 19.9183
Au 25.3922 9.10451 11.6747
Pt 16.3399 18.4148 8.74859
Au 26.6238 11.1815 12.7945
Pt 12.329 21.6512 13.9643
Au 17.6907 27.206 15.3387
Pt 22.2794 11.8316 8.83622
Au 18.1809 13.4486 26.7324
Pt 13.4141 24.218 14.2524
Au 22.2876 24.45 13.7711
Pt 12.5781 19.8871 16.1649
Au 25.6356 12.2598 17.2783
Au 19.448 25.8169 17.2602
Pt 15.7709 23.44 15.2359
Au 21.081 19.8813 24.291
Au 24.4173 21.732 18.2041
Pt 15.6623 24.0532 12.6473
Au 9.58017 6.81041 13.8437
Pt 23.3965 13.9365 9.77098
Au 13.3493 13.1891 27.564
