561
Atoms. Timestep: 20111
Pt 7.04844 7.3081 14.8112
Au 5.30072 7.11383 12.8238
Pt 7.1017 11.0024 10.7746
Au 4.92524 9.17384 14.7182
Pt 5.13713 11.049 12.6811
Pt 5.09875 11.0294 16.7491
Au 3.46646 13.2998 8.93633
Pt 5.35471 15.207 8.84438
Au 3.2061 13.1873 12.6213
Pt 3.55932 15.1859 10.8414
Au 3.28242 15.008 18.7265
Pt 3.46087 15.0174 14.7843
Au 5.19036 7.31315 16.7615
Pt 5.16541 14.9097 16.8434
Pt 7.02271 10.9485 18.8235
Au 5.32418 13.2569 6.93523
Au 2.94152 17.7873 10.2967
Pt 6.85848 17.7498 6.54842
Au 3.22579 16.9951 12.8985
Pt 5.38208 17.0414 10.9139
Au 3.19492 16.966 16.7402
Pt 5.2119 16.9637 14.8662
Au 7.157 16.5374 24.6742
Pt 5.16357 16.8812 18.8283
Au 5.03769 14.9004 20.886
Pt 7.09884 14.7234 22.7112
Au 4.71387 17.8023 8.22072
Au 4.82568 21.5099 12.3269
Pt 4.90246 19.6149 10.335
Au 3.42354 18.9257 18.7151
Pt 5.32689 18.859 16.8315
Au 5.1761 18.791 20.862
Pt 5.42715 20.7479 18.8254
Au 3.40794 19.0655 14.8335
Au 3.5924 20.9538 16.8406
Pt 5.4864 20.8997 14.89
Pt 9.08879 7.3114 12.8751
Pt 7.29591 7.16821 10.9873
Pt 7.05723 9.11474 16.7979
Pt 9.53094 6.28748 15.3048
Pt 9.58142 8.19018 17.4236
Pt 5.24366 13.0412 10.8306
Au 7.04618 8.9545 8.78852
Pt 9.18878 9.10878 7.00011
Au 5.1647 9.0395 10.848
Pt 7.06596 9.1597 12.8184
Au 7.40561 5.31472 13.1228
Pt 9.02501 9.10847 10.7846
Au 7.69682 6.23595 17.2892
Pt 7.01749 11.0031 14.8107
Au 9.0126 9.08981 14.8694
Pt 9.03473 10.996 12.8048
Au 7.44326 8.08711 19.3752
Pt 9.59977 6.36067 19.3317
Au 11.4361 4.4173 19.3063
Pt 9.52531 9.93176 19.54
Pt 11.5322 9.92585 21.4035
Pt 9.06049 13.0419 6.85969
Au 11.0839 9.0847 5.03273
Au 5.13652 11.1049 8.85578
Pt 7.12695 13.0596 8.86321
Au 8.99822 11.0486 8.79549
Pt 11.1673 14.9195 6.88588
Au 4.92247 12.7971 14.736
Pt 5.25355 14.9948 12.8495
Au 7.07225 12.9147 12.8449
Pt 9.04148 12.9456 10.8449
Au 3.18513 13.0895 16.7687
Pt 6.93201 12.9074 16.8661
Au 9.00589 10.967 16.9382
Pt 8.97958 12.8732 14.8973
Au 4.89379 12.7333 18.9294
Pt 6.94417 12.818 20.8022
Au 9.58591 11.9617 21.4098
Pt 8.91653 12.833 18.8836
Au 5.03026 9.22962 18.6684
Pt 7.79826 12.1169 23.2711
Au 9.62122 11.8618 25.3229
Pt 11.6308 11.8385 23.4235
Pt 7.29632 15.1311 6.93525
Au 7.08039 11.0818 6.82121
Au 9.16158 14.9398 8.85209
Pt 7.29829 17.0194 8.98427
Au 11.2286 16.8393 8.90977
Pt 9.30951 16.993 6.98078
Au 7.1701 14.9707 10.8672
Pt 7.17767 16.8992 12.9223
Au 9.10925 14.8793 12.9149
Pt 9.18803 16.8643 10.9052
Au 7.03714 14.8572 14.8893
Pt 7.08696 16.8203 16.8907
Au 9.00557 14.8037 16.9325
Pt 9.0945 16.7646 14.9592
Au 6.92183 14.7992 18.9171
Pt 7.03607 16.78 20.9249
Au 8.98722 14.7269 20.8718
Pt 9.00675 16.7039 18.952
Au 7.72892 13.9187 25.2522
Pt 9.69215 13.9352 23.4416
Au 9.72828 15.7959 25.5641
Pt 9.08447 16.6186 22.8879
Au 8.65305 17.7342 4.51967
Au 8.5795 19.8607 6.29878
Pt 6.76958 19.6583 8.40831
Au 9.29019 18.9526 8.93998
Pt 8.79413 21.5632 8.47735
Au 7.35679 18.9944 10.9769
Pt 5.31205 18.8978 12.899
Au 9.27101 18.7531 12.9579
Pt 9.31626 20.9488 11.0065
Au 7.24213 18.8316 14.8981
Pt 7.35393 20.7254 16.9574
Au 9.19364 18.6949 16.9857
Pt 9.33578 22.6022 16.9948
Au 7.15887 18.7303 18.9306
Pt 7.2556 20.6157 20.8631
Au 9.08986 18.6408 20.9589
Pt 9.15785 20.7438 19.0105
Au 7.0977 18.6993 22.9158
Au 9.13447 18.5277 24.9023
Pt 9.21949 20.4723 22.9262
Au 6.70111 21.7501 10.2676
Au 6.85573 23.4437 12.464
Pt 7.38576 20.8533 12.9491
Au 11.268 20.7682 12.9977
Pt 9.4254 22.8129 13.0506
Au 9.29582 20.7589 14.9626
Pt 5.67339 22.6446 16.9116
Au 7.54588 24.6012 17.0334
Pt 7.49169 22.7586 15.0073
Au 7.21532 22.7824 19.116
Au 9.14218 22.6316 21.1738
Pt 9.44935 24.2689 18.9781
Pt 11.0228 7.25827 10.8817
Pt 15.0174 8.96201 8.82592
Pt 11.4705 6.19787 13.3158
Pt 13.4655 6.17629 11.3293
Pt 11.3961 6.17519 17.3297
Pt 13.4468 6.0933 15.3458
Pt 11.5191 6.24113 21.28
Pt 13.4844 6.09633 19.4492
Pt 11.5932 8.04133 23.2208
Pt 11.0917 11.0384 6.96337
Au 11.1323 7.04394 6.97819
Au 9.08779 6.96504 8.89789
Pt 11.0013 9.07702 8.88039
Au 11.2952 5.20765 9.25098
Pt 12.9894 11.033 5.07356
Au 9.3748 5.20847 11.2512
Pt 11.0106 9.08052 12.8481
Au 13.5276 7.98899 13.4019
Pt 13.012 9.02672 10.8821
Au 11.5507 8.06058 15.3778
Pt 11.5671 9.98464 17.473
Au 13.4959 7.91107 17.4055
Pt 13.5815 9.938 15.4813
Au 13.3989 4.40177 17.3741
Pt 11.5715 8.05293 19.3945
Au 9.40359 7.95519 21.5248
Pt 13.5271 9.92713 19.4554
Au 7.4513 10.084 21.4382
Pt 9.63745 10.0314 23.2847
Au 15.4673 9.65652 25.412
Pt 13.5373 9.83817 23.44
Pt 11.0906 12.9721 5.07299
Au 14.9793 9.08645 4.90269
Au 9.19099 11.0605 5.02541
Pt 11.0429 12.9498 8.82184
Au 13.0495 10.9785 8.86878
Pt 13.076 12.974 6.85996
Au 11.0274 11.0243 10.8489
Pt 11.03 12.8869 12.8999
Au 13.0554 10.9158 12.9117
Pt 13.0643 12.8709 10.8838
Au 11.0356 10.9593 14.8977
Pt 10.9845 12.8318 16.905
Au 13.5775 11.9096 17.475
Pt 13.0328 12.8112 14.9145
Au 11.5519 11.9264 19.4516
Pt 11.6029 13.8515 21.5461
Au 13.5616 11.8538 21.5203
Pt 13.5999 13.8315 19.5591
Au 11.5213 9.82748 25.2585
Pt 11.5865 13.7229 25.3452
Au 13.4947 11.7645 25.5636
Pt 13.5922 13.7678 23.5944
Pt 11.2031 16.9729 5.08461
Au 13.0228 14.8696 4.71986
Au 9.20972 15.0225 4.93872
Pt 11.2332 18.9154 7.04437
Au 13.1396 14.8211 8.87229
Pt 13.2021 16.7627 6.8377
Au 11.1152 14.8271 10.9098
Pt 11.1662 16.7101 12.966
Au 13.0941 14.7535 12.9369
Pt 13.1692 16.6967 10.9521
Au 11.0536 14.7845 14.9476
Pt 11.0966 16.6868 16.9827
Au 13.0535 14.703 16.9668
Pt 13.1225 16.655 14.9819
Au 11.0255 14.7231 18.9377
Pt 11.0453 16.6077 20.9544
Au 13.6425 15.7433 21.5938
Pt 13.0674 16.6127 18.9807
Au 11.6951 15.7787 23.6001
Pt 11.7251 17.703 25.4293
Au 13.6055 15.6366 25.7579
Pt 13.6998 17.6429 23.6605
Pt 10.7906 21.5017 6.58407
Au 12.7664 21.4815 4.62784
Au 10.6813 19.6481 4.47908
Pt 11.3481 20.8021 9.11074
Au 13.2621 18.6975 8.95774
Pt 13.3111 20.8022 7.18939
Au 11.2338 18.7477 10.9917
Pt 11.3251 22.6533 15.0809
Au 13.2014 18.6347 13.0209
Pt 15.3522 22.6072 11.1455
Au 11.2002 18.6474 14.9899
Pt 11.2241 20.6268 16.9858
Au 13.1434 18.5923 16.9923
Pt 13.2231 20.6402 15.0299
Au 11.1036 18.6515 19.0096
Pt 11.1165 20.6043 21.0543
Au 13.1115 18.5264 20.9994
Pt 13.1925 20.5021 18.976
Au 11.104 18.5055 22.9281
Pt 11.2633 20.3126 24.8136
Au 13.7653 19.5251 25.7459
Pt 13.1711 20.3878 23.0408
Au 12.7718 23.4519 6.61437
Au 8.85619 23.6194 10.4507
Pt 11.3971 22.8112 11.0793
Au 12.6664 25.1808 8.81451
Pt 10.8197 23.3212 8.55967
Au 13.295 20.6951 11.0695
Pt 11.4616 24.4983 13.1191
Au 13.3476 22.6307 13.115
Pt 13.4573 24.5239 11.2458
Au 9.49569 24.7245 15.0641
Pt 11.3527 24.4277 17.0811
Au 13.2759 22.5433 17.0409
Pt 13.3296 24.4586 15.1022
Au 11.2694 22.4439 19.019
Pt 11.3851 24.1489 20.9877
Au 13.2407 22.3115 21.0242
Pt 13.2847 24.2934 19.0828
Au 11.1508 22.4916 23.1562
Au 13.2422 22.2588 25.0558
Pt 13.3835 24.0311 22.9641
Pt 13.0239 9.04926 6.89202
Pt 15.5729 6.30783 9.54953
Pt 17.3675 6.49671 7.65361
Pt 15.498 6.10618 13.4159
Pt 17.5324 6.17174 11.459
Pt 15.4944 6.0261 17.4325
Pt 17.4834 6.04357 15.4504
Pt 15.4125 6.06022 21.294
Pt 17.422 6.02594 19.4167
Pt 15.4553 7.87224 23.3072
Pt 19.2949 7.7893 23.2216
Pt 16.9659 11.0187 5.02458
Au 14.8547 6.97009 6.82706
Au 13.8026 4.87313 8.37545
Pt 12.9963 7.26658 8.91563
Au 17.5624 8.20147 9.51694
Pt 16.9222 8.97391 6.87018
Au 15.5308 8.0612 11.4963
Pt 15.5813 9.94655 13.5115
Au 17.5183 7.93852 13.4847
Pt 17.587 10.0024 11.5273
Au 15.5083 7.90132 15.4411
Pt 15.5228 9.87376 17.4645
Au 17.5026 7.88011 17.4522
Pt 17.5424 9.86715 15.5089
Au 15.4751 7.94182 19.3958
Pt 13.5101 8.03468 21.3542
Au 17.3395 5.85297 23.1597
Pt 17.392 7.91929 21.3634
Au 13.465 6.05801 23.1783
Pt 15.4829 9.8701 21.4796
Au 17.4772 7.72976 25.1922
Pt 17.4385 9.78302 23.4086
Pt 15.0006 12.8396 4.96359
Au 17.1333 14.652 4.69994
Au 15.0183 10.9508 6.87119
Pt 15.0659 12.8772 8.81886
Au 17.0358 10.891 8.8937
Pt 17.0512 12.8551 6.8748
Au 15.0483 10.8936 10.8908
Pt 15.0624 12.7836 12.9123
Au 17.6126 11.8875 13.5208
Pt 17.0686 12.7736 10.8998
Au 15.593 11.8789 15.5005
Pt 15.6161 13.8231 17.5391
Au 17.5745 11.8451 17.5084
Pt 17.6452 13.8027 15.5474
Au 15.5485 11.8682 19.507
Pt 15.5736 13.7513 21.6353
Au 17.5242 11.8015 21.5453
Pt 17.603 13.7397 19.5637
Au 15.5258 11.7537 23.6095
Pt 15.5384 13.6637 25.4759
Au 17.5048 11.6505 25.6311
Pt 17.5591 13.6767 23.667
Pt 13.1869 18.8684 5.20846
Au 15.154 16.8085 4.70074
Au 15.1184 14.8411 6.71561
Pt 15.1471 16.6805 8.85734
Au 17.0698 14.7592 8.88842
Pt 17.1114 16.6867 6.75063
Au 15.1043 14.7463 10.9187
Pt 15.1298 16.6351 12.9902
Au 17.0962 14.6583 12.9639
Pt 17.1343 16.6041 10.9986
Au 15.0797 14.6776 14.9628
Pt 15.0883 16.5866 16.9787
Au 17.655 15.693 17.565
Pt 17.1134 16.565 14.9794
Au 15.6436 15.6954 19.589
Pt 15.6882 17.5835 21.6466
Au 17.6257 15.6084 21.6511
Pt 17.6994 17.5727 19.608
Au 15.6185 15.6403 23.706
Pt 15.6729 17.5116 25.5709
Au 17.6273 15.5153 25.8032
Pt 17.6731 17.4613 23.7309
Pt 15.2957 20.9381 5.42636
Au 15.1464 19.2297 3.51363
Au 15.2279 18.6788 6.91935
Pt 17.298 22.6391 9.18429
Au 17.155 18.5331 9.0248
Pt 17.254 20.6543 7.23089
Au 15.2008 18.5871 11.03
Pt 15.2484 20.6132 13.0606
Au 17.1584 18.5519 13.0297
Pt 17.2193 20.5744 11.0636
Au 15.1538 18.5869 15.0105
Pt 15.1953 20.5188 17.0175
Au 17.1441 18.471 17.0058
Pt 17.2037 20.4963 15.0501
Au 15.1378 18.4708 18.9988
Pt 15.1908 20.3305 20.9915
Au 17.7372 19.4355 21.6297
Pt 17.1802 20.3644 19.0049
Au 15.7535 19.4325 23.6915
Pt 15.8189 21.3655 25.4767
Au 17.7376 19.3831 25.8161
Pt 17.7962 21.3272 23.605
Pt 15.351 22.7536 7.34069
Au 17.3789 22.6709 5.46099
Au 15.2981 20.6709 9.08712
Pt 13.4027 22.6787 9.21144
Au 19.309 24.5339 9.31618
Pt 19.2573 22.5231 7.38039
Au 15.4016 24.6921 9.2833
Pt 15.362 24.4427 13.1548
Au 17.2745 22.493 13.1306
Pt 17.3452 24.3834 11.2395
Au 15.2928 22.5511 15.1041
Pt 15.3131 24.3419 17.1171
Au 17.2621 22.4293 17.0765
Pt 17.3532 24.3196 15.1283
Au 15.2495 22.4204 19.041
Pt 15.2906 24.1705 21.0795
Au 17.2461 22.2323 21.0032
Pt 17.3134 24.2042 19.1061
Au 15.2478 22.1412 22.9573
Pt 15.3788 23.9006 24.7505
Au 17.8138 23.1852 25.56
Pt 17.2934 23.971 22.9761
Pt 19.4055 6.34412 9.53332
Pt 19.4863 6.08147 13.463
Pt 21.387 6.21966 11.5672
Pt 19.4245 5.98798 17.4518
Pt 21.3588 6.02747 15.4813
Pt 19.2921 6.04911 21.2718
Pt 19.4805 7.86213 19.4479
Pt 18.9391 10.8063 6.96074
Au 19.6059 8.04064 7.36861
Pt 19.6651 9.92006 9.46833
Au 21.6452 7.87079 9.37765
Pt 21.5458 10.0512 7.57995
Au 19.5352 8.0481 11.5019
Pt 19.5491 9.90144 13.5355
Au 21.483 7.97413 13.503
Pt 21.6535 9.79663 11.4801
Au 19.475 7.89097 15.4931
Pt 19.5291 9.82957 17.5225
Au 21.3094 5.79454 19.3658
Pt 21.3982 7.87721 17.516
Au 17.5268 9.86059 19.4743
Pt 19.5108 9.72643 21.4542
Au 21.5256 7.58941 21.601
Pt 21.5291 9.64076 19.5565
Au 21.1516 7.76307 24.9791
Pt 19.3671 9.67247 25.2064
Pt 21.3915 9.72961 23.3515
Pt 19.0841 12.7362 5.06649
Au 20.9062 10.7607 5.04416
Au 18.7695 9.06602 4.92643
Pt 19.0543 12.7371 8.87897
Au 21.681 11.856 9.55174
Pt 20.9649 12.6886 7.0046
Au 19.6552 11.8374 11.5021
Pt 19.6789 13.7855 13.5441
Au 21.6305 11.8184 13.5429
Pt 21.7239 13.7608 11.551
Au 19.5857 11.8482 15.5446
Pt 19.6404 13.7442 17.5603
Au 21.6016 11.7631 17.5694
Pt 21.725 13.6964 15.5817
Au 19.5952 11.7682 19.5398
Pt 19.5747 13.6611 21.5995
Au 21.5679 11.6718 21.5278
Pt 21.6568 13.6447 19.5535
Au 19.4755 11.6802 23.5253
Pt 19.5782 13.5114 25.4665
Au 21.4689 11.4918 25.4835
Pt 21.5464 13.5033 23.5564
Pt 17.2108 18.8913 5.15514
Au 19.1282 16.7733 4.79623
Au 19.0002 14.7586 6.86278
Pt 19.1114 16.5853 8.96845
Au 21.0779 14.602 8.96458
Pt 21.0445 16.5999 7.05439
Au 19.096 14.6236 10.9605
Pt 19.1468 16.5222 12.9953
Au 21.7711 15.6229 13.6049
Pt 21.1696 16.4634 10.9902
Au 19.7151 15.6602 15.5774
Pt 19.7279 17.5489 17.6066
Au 21.7618 15.5734 17.593
Pt 21.8033 17.5033 15.6214
Au 19.647 15.5963 19.5824
Pt 19.6725 17.4565 21.6446
Au 21.6125 15.5004 21.5694
Pt 21.7363 17.4371 19.612
Au 19.6272 15.5102 23.698
Pt 19.6846 17.4235 25.5473
Au 21.5856 15.4104 25.7521
Pt 21.6534 17.4026 23.622
Pt 19.2092 20.6434 5.38861
Au 21.1846 22.4491 5.44209
Au 19.0987 18.5473 7.05655
Pt 19.185 20.4923 9.13399
Au 21.1415 18.4587 9.09552
Pt 21.1217 20.479 7.28124
Au 19.1649 18.5018 11.0629
Pt 19.1885 20.4481 13.0477
Au 21.2045 18.3914 13.0463
Pt 21.2834 20.3998 11.0909
Au 19.1634 18.4302 15.0214
Pt 19.1734 20.3393 17.0434
Au 21.777 19.3835 17.6378
Pt 21.1808 20.2604 15.0659
Au 19.7662 19.448 19.6464
Pt 19.8262 21.3663 21.689
Au 21.761 19.3274 21.6769
Pt 21.836 21.3387 19.7062
Au 19.6914 19.32 23.658
Pt 19.6867 21.2309 25.3978
Au 21.676 19.2997 25.6321
Pt 21.6967 21.1809 23.6034
Au 21.3185 24.2348 7.49327
Pt 21.2371 22.3159 9.27774
Au 23.2037 22.3049 7.37581
Au 19.2372 22.4244 11.1141
Pt 19.3587 24.2305 13.1346
Au 21.2614 22.236 13.0792
Pt 21.2936 24.0902 11.2092
Au 19.2667 22.3702 15.0955
Pt 19.3247 24.1786 17.1311
Au 21.2005 22.1797 17.1084
Pt 21.331 24.0973 15.1338
Au 19.2352 22.232 19.0691
Pt 19.2835 23.9746 21.0695
Au 21.8852 23.2636 21.7412
Pt 21.2613 23.9479 19.1211
Au 19.8694 23.3192 23.6874
Pt 23.2544 6.15044 13.6016
Pt 23.2034 6.10174 17.3596
Pt 23.3796 7.88269 15.5157
Pt 23.5227 9.89724 9.61211
Au 23.6071 7.74618 11.4284
Pt 23.5275 9.81492 13.557
Au 25.36 7.824 13.6153
Pt 25.2979 9.80412 11.671
Au 21.5289 9.85173 15.5542
Pt 23.454 9.71238 17.5421
Au 25.3318 7.7396 17.4305
Pt 25.354 9.69881 15.5743
Au 23.468 7.60508 19.5528
Pt 23.3964 9.69352 21.4299
Pt 25.2217 9.63875 19.4156
Pt 20.9794 14.7349 5.16899
Au 23.6464 11.8527 7.54804
Pt 23.6945 13.7333 9.56832
Au 25.5323 11.7125 9.67959
Pt 22.9452 14.5837 7.05377
Au 23.6344 11.7954 11.616
Pt 23.7889 13.6709 13.6153
Au 25.7777 11.6412 13.6041
Pt 25.5712 13.613 11.6279
Au 23.6911 11.7357 15.5837
Pt 23.7758 13.6271 17.5864
Au 25.7439 11.5747 17.5763
Pt 25.6349 13.5706 15.6099
Au 23.5809 11.6476 19.5111
Pt 23.5934 13.4982 21.551
Au 25.5059 11.4928 21.5119
Pt 25.5406 13.4704 19.6166
Au 23.5906 11.4036 23.5952
Pt 23.4241 13.4873 25.3177
Pt 25.3232 13.4797 23.4597
Pt 21.0779 18.6232 5.32461
Au 22.9652 16.6088 5.22602
Au 22.7541 12.7767 5.06439
Pt 23.1378 16.4432 8.9684
Au 25.6755 15.6127 9.68105
Pt 23.0416 18.4664 7.20634
Au 23.7852 15.5937 11.6312
Pt 23.8522 17.4941 13.6389
Au 25.9415 15.5206 13.6245
Pt 25.6404 17.5072 11.6725
Au 23.8508 15.5452 15.6146
Pt 23.8615 17.4023 17.6344
Au 25.9283 15.4562 17.6554
Pt 25.7278 17.4098 15.654
Au 23.7801 15.4826 19.62
Pt 23.6875 17.385 21.6249
Au 25.8058 15.3828 21.6108
Pt 25.6488 17.3755 19.6811
Au 23.518 15.4018 23.5071
Pt 23.5263 17.2483 25.3884
Au 25.3868 15.3153 25.415
Pt 25.4178 17.23 23.5327
Au 23.0281 20.4262 5.40472
Pt 23.1852 20.326 9.13631
Au 25.1233 18.3192 9.05997
Au 23.1686 18.3115 11.0357
Pt 23.2567 20.2704 13.0589
Au 25.9299 19.3709 13.681
Pt 25.0272 20.1453 11.1454
Au 23.8564 19.3301 15.6612
Pt 23.7786 21.2433 17.6929
Au 25.9592 19.2981 17.6953
Pt 25.6669 21.2349 15.7225
Au 23.7709 19.2742 19.634
Pt 23.7124 21.1574 21.6156
Au 25.7152 19.2593 21.6582
Pt 25.5355 21.1576 19.6266
Au 23.7894 19.392 23.7391
Au 23.4473 22.3985 10.9742
Pt 23.2264 23.9088 13.2233
Au 25.2885 22.1062 13.1283
Au 23.1662 22.0418 15.1203
Pt 23.1971 23.8901 17.1533
Au 25.7572 23.0669 17.7079
Pt 24.9837 23.773 15.2508
Au 23.8586 23.2649 19.7457
