561
Atoms. Timestep: 20124
Pt 7.57584 7.22995 15.1253
Au 5.70284 7.12547 13.1459
Pt 7.51687 11.0147 11.108
Au 5.36776 9.06071 15.0799
Pt 5.54068 11.0428 13.0694
Pt 5.47539 11.052 17.0523
Au 5.6644 13.178 7.24817
Pt 5.69827 15.0957 9.10643
Au 3.60416 13.0486 12.969
Pt 4.00207 15.0423 11.1288
Au 3.61409 15.0332 18.993
Pt 5.47501 13.0279 15.0661
Au 5.64668 7.13398 17.0204
Pt 5.41896 14.9853 17.0583
Pt 7.34107 11.0681 19.1622
Au 7.64522 13.1421 5.33725
Au 3.57458 16.9989 13.0082
Pt 7.10441 17.6863 6.79377
Au 3.45133 14.9837 15.0074
Pt 5.58286 17.0406 11.1133
Au 3.47461 17.0107 17.009
Pt 5.41863 16.9536 15.0905
Au 7.34417 16.9469 24.87
Pt 5.38614 17.0024 19.0989
Au 5.31552 15.0158 21.2094
Pt 7.38516 15.0093 23.0406
Au 4.98643 17.6893 8.51777
Au 4.94869 21.4728 12.5178
Pt 5.11102 19.5396 10.5579
Au 3.66087 19.024 18.8785
Pt 5.51184 18.9871 17.0168
Au 5.34202 19.0547 21.0404
Pt 5.57463 20.9112 18.9435
Au 3.67271 19.0422 15.0329
Au 5.63518 22.8289 17.0683
Pt 5.64154 20.9385 15.0976
Pt 9.53815 7.25557 13.1751
Pt 7.68702 7.23477 11.283
Pt 7.42354 9.13958 17.1052
Pt 9.57632 5.39244 15.1507
Pt 9.42592 7.29321 17.1714
Pt 5.58056 12.9763 11.0678
Au 7.46276 8.99676 9.10983
Pt 9.66272 9.19574 7.28364
Au 5.56826 9.07707 11.1822
Pt 7.49447 9.16045 13.1652
Au 7.68031 5.24975 13.2472
Pt 9.4735 9.12701 11.1246
Au 7.68542 5.23892 17.0516
Pt 7.36678 11.054 15.1321
Au 9.40965 9.19709 15.1591
Pt 9.41683 11.0696 13.1239
Au 7.33942 7.10833 19.161
Pt 9.51005 5.48531 19.0988
Au 11.4278 3.6155 19.1399
Pt 9.27301 9.07934 19.2386
Pt 11.2811 9.16395 21.1488
Pt 9.53588 13.0606 7.19861
Au 11.614 9.1691 5.30174
Au 5.57732 11.0995 9.1555
Pt 7.5421 13.0448 9.12674
Au 9.43045 11.0619 9.12718
Pt 11.5316 15.002 7.16345
Au 3.60836 11.1481 15.0109
Pt 5.54607 14.9889 13.1653
Au 7.421 12.9649 13.1058
Pt 9.39941 13.0158 11.1337
Au 3.54165 13.03 17.0278
Pt 7.23859 13.0176 17.1905
Au 9.29025 11.1174 17.2318
Pt 9.27959 12.9876 15.1897
Au 5.21422 12.7941 19.2591
Pt 7.24243 13.0155 21.162
Au 9.29127 11.1083 21.1262
Pt 9.20231 13.0599 19.2101
Au 5.4523 9.16516 18.968
Pt 7.50256 11.1595 23.0009
Au 9.28287 11.0889 25.049
Pt 11.3076 11.1062 23.1427
Pt 7.6424 15.1089 7.18516
Au 7.49976 11.0319 7.10522
Au 9.49079 15.0003 9.14278
Pt 7.56414 17.0039 9.23713
Au 11.5043 16.9528 9.16523
Pt 9.59563 17.0116 7.22257
Au 7.42918 14.9877 11.1385
Pt 7.4069 16.944 13.1386
Au 9.40413 14.9847 13.164
Pt 9.43948 16.9426 11.157
Au 7.39503 14.9878 15.1585
Pt 7.28168 16.9417 17.1258
Au 9.26855 14.9606 17.2194
Pt 9.34995 16.9103 15.194
Au 7.14027 14.944 19.1939
Pt 7.20998 16.995 21.1841
Au 9.22255 15.0118 21.1542
Pt 9.19571 16.8816 19.1785
Au 7.33086 13.063 24.8512
Pt 9.3149 13.0895 23.1021
Au 9.25663 15.01 25.2126
Pt 9.27535 16.9648 23.1227
Au 8.91548 17.6995 4.76304
Au 8.77222 19.8425 6.50938
Pt 6.96741 19.6225 8.61199
Au 9.50847 19.0032 9.15216
Pt 8.93244 21.5971 8.66884
Au 7.56892 19.0096 11.1851
Pt 5.57096 18.9232 13.1184
Au 9.46702 18.8674 13.1884
Pt 9.44946 21.0249 11.203
Au 7.42822 18.8983 15.1121
Pt 7.51138 20.8737 17.0986
Au 9.38258 18.8523 17.1729
Pt 9.44011 22.8815 17.1123
Au 7.32179 18.8892 19.0982
Pt 7.45065 20.8613 20.956
Au 9.26335 18.8419 21.1164
Pt 9.39165 20.8862 19.0981
Au 7.23719 19.0334 23.1018
Au 9.27565 18.9977 25.0514
Pt 9.33727 20.8399 22.9449
Au 6.78557 21.7115 10.4434
Au 6.90413 23.4658 12.6255
Pt 7.53649 20.917 13.1447
Au 11.4213 20.9194 13.2145
Pt 9.50588 22.9569 13.1862
Au 9.44195 20.9236 15.1561
Pt 7.56226 22.8346 18.9783
Au 9.4074 24.825 18.9927
Pt 7.57583 22.8484 15.1757
Au 5.69781 22.7931 20.8124
Au 7.47788 22.7865 22.8369
Pt 9.38338 22.8761 20.9861
Pt 11.4801 7.23017 11.2038
Pt 15.4775 9.20667 9.26647
Pt 11.4972 5.3806 13.1958
Pt 13.528 5.41992 11.2483
Pt 11.3519 5.37123 17.153
Pt 13.3883 5.35437 15.1793
Pt 11.4146 5.48364 21.0744
Pt 13.3965 5.39102 19.2701
Pt 11.4125 7.31112 23.0003
Pt 11.5412 11.1079 7.27191
Au 11.5307 7.12185 7.23303
Au 9.50146 7.0741 9.17256
Pt 11.4717 9.1139 9.21209
Au 11.6411 5.23405 9.33685
Pt 13.5109 11.0961 5.43606
Au 9.60018 5.2105 11.2832
Pt 11.3998 9.17737 13.1546
Au 13.4302 7.25592 13.2186
Pt 13.4182 9.18459 11.2106
Au 11.4417 7.26288 15.1946
Pt 11.3298 9.1905 17.226
Au 13.3727 7.20482 17.223
Pt 13.3683 9.18709 15.2345
Au 13.3993 3.64972 17.2188
Pt 11.3924 7.28653 19.1669
Au 9.24843 7.12254 21.2798
Pt 13.3141 9.21097 19.2345
Au 7.22731 9.15386 21.1686
Pt 9.38742 9.21765 23.0309
Au 15.2516 9.11954 25.2168
Pt 13.2983 9.16756 23.2276
Pt 11.5375 13.0246 5.36292
Au 15.582 9.19724 5.27866
Au 9.62755 11.1216 5.27367
Pt 11.4407 13.0462 9.14214
Au 13.4603 11.1446 9.21096
Pt 13.4935 13.1009 7.16636
Au 11.4109 11.1176 11.1638
Pt 11.3505 13.0289 13.1869
Au 13.3934 11.1267 13.2202
Pt 13.4049 13.0507 11.1982
Au 11.3646 11.145 15.2008
Pt 11.2761 13.0524 17.2249
Au 13.3371 11.1505 17.2426
Pt 13.3397 13.0482 15.2312
Au 11.2934 11.1387 19.2083
Pt 11.2532 13.0762 21.2509
Au 13.2729 11.1484 21.2738
Pt 13.2881 13.0763 19.2907
Au 11.2611 9.12578 25.0175
Pt 11.1722 13.0159 25.0351
Au 13.1737 11.1277 25.3137
Pt 13.2462 13.0844 23.3363
Pt 11.5281 17.0507 5.35784
Au 13.4362 14.9954 5.03608
Au 9.63341 15.0341 5.1467
Pt 11.4736 18.9986 7.27513
Au 13.4731 14.9856 9.15692
Pt 13.5053 16.9212 7.12494
Au 11.4282 14.9671 11.1879
Pt 11.4133 16.8795 13.2249
Au 13.3691 14.9566 13.2307
Pt 13.4258 16.8918 11.2179
Au 11.3171 14.9444 15.2201
Pt 11.3194 16.8668 17.2186
Au 13.3057 14.9549 17.2594
Pt 13.3419 16.8762 15.2544
Au 11.2802 14.9824 19.2349
Pt 11.2732 16.8956 21.2369
Au 13.2851 15.0019 21.3281
Pt 13.3033 16.8859 19.2616
Au 11.2569 15.0304 23.2797
Pt 11.1894 17.0317 25.0548
Au 13.1311 14.9749 25.4229
Pt 13.2585 16.9214 23.3448
Pt 10.9139 21.5583 6.80012
Au 12.8422 21.5739 4.87907
Au 10.8986 19.652 4.71261
Pt 11.5128 20.9297 9.30547
Au 13.48 18.8791 9.21269
Pt 13.5 20.9367 7.39721
Au 11.435 18.8914 11.2223
Pt 11.4149 22.8684 15.2081
Au 13.4055 18.8556 13.2655
Pt 15.4299 22.8829 11.3327
Au 11.4087 18.86 15.2298
Pt 11.3652 20.921 17.1873
Au 13.3317 18.8561 17.229
Pt 13.3911 20.9293 15.2404
Au 11.3037 18.8189 19.1926
Pt 11.2907 20.8694 21.1025
Au 13.3005 18.8329 21.2469
Pt 11.3483 22.8387 19.1389
Au 11.2557 18.887 23.1138
Pt 11.2814 20.913 24.8171
Au 15.0999 20.9905 25.143
Pt 13.2584 20.921 23.0362
Au 12.8473 23.55 6.77374
Au 8.82301 23.6604 10.5656
Pt 11.4837 22.881 11.2744
Au 10.8938 25.4378 10.7243
Pt 10.9127 23.4681 8.74028
Au 13.4649 20.8858 11.2843
Pt 11.4959 24.7387 13.2672
Au 13.4374 22.8943 13.282
Pt 13.4974 24.771 11.3573
Au 9.48824 24.8467 15.196
Pt 11.434 24.7183 17.1715
Au 13.3508 22.8475 17.1991
Pt 13.358 24.7837 15.2493
Au 11.3149 24.9029 21.0046
Pt 11.3094 22.8657 22.8705
Au 13.2787 24.7907 22.9445
Pt 13.3238 24.7261 19.165
Au 9.44046 22.8104 24.6836
Au 13.0975 22.8866 24.9177
Pt 13.2875 22.8344 21.0793
Pt 13.5186 9.16417 7.31599
Pt 15.5224 5.50829 9.39125
Pt 15.5659 7.32168 7.4118
Pt 15.43 5.40066 13.2367
Pt 17.4192 5.44771 11.353
Pt 15.4172 5.3581 17.2815
Pt 17.404 5.39757 15.2849
Pt 15.3052 5.43183 21.1401
Pt 17.3286 5.42426 19.2852
Pt 15.2645 7.27074 23.1223
Pt 19.1822 7.30852 23.1178
Pt 17.5407 11.1752 5.49009
Au 13.6521 7.25637 5.48628
Au 13.688 5.34755 7.46087
Pt 13.4906 7.29463 9.28916
Au 19.2981 5.33926 9.43495
Pt 17.4808 9.1972 7.33427
Au 15.4555 7.30976 11.2804
Pt 15.4119 9.19893 13.2537
Au 17.406 7.27621 13.2997
Pt 17.46 9.2031 11.2714
Au 15.3854 7.22308 15.2631
Pt 15.3346 9.20493 17.2592
Au 17.3571 7.2657 17.2822
Pt 17.3814 9.21292 15.2907
Au 15.3359 7.293 19.2255
Pt 13.3351 7.3479 21.1477
Au 17.2429 5.30447 23.0021
Pt 17.2502 7.33175 21.2073
Au 13.3395 5.38803 22.9977
Pt 15.2765 9.22851 21.2799
Au 17.234 7.19072 24.9906
Pt 17.2472 9.19318 23.2022
Pt 15.4817 12.9865 5.33104
Au 17.5319 14.9481 5.08312
Au 15.497 11.1107 7.23943
Pt 15.4438 13.0919 9.1374
Au 17.4622 11.165 9.27197
Pt 17.4679 13.121 7.23266
Au 15.4323 11.1577 11.2447
Pt 15.3856 13.0628 13.2516
Au 17.4037 11.1613 13.2803
Pt 17.4185 13.0932 11.2478
Au 15.3693 11.1392 15.2635
Pt 15.3243 13.0872 17.282
Au 17.3457 11.1989 17.2925
Pt 17.3618 13.0955 15.2968
Au 15.2999 11.201 19.294
Pt 15.2575 13.1106 21.4156
Au 17.2776 11.2063 21.3413
Pt 17.3042 13.1269 19.3542
Au 15.2139 11.1224 23.3404
Pt 15.2256 13.0096 25.2048
Au 17.2325 14.9646 25.497
Pt 17.2358 13.1194 23.3825
Pt 13.4789 19.0132 5.46757
Au 15.4878 17.0996 5.07318
Au 15.4727 15.051 7.01657
Pt 15.4264 16.9164 9.14189
Au 17.3918 15.0349 9.21881
Pt 17.4324 16.9321 7.13131
Au 15.3962 14.9788 11.2222
Pt 15.3545 16.8781 13.2672
Au 17.3718 14.9885 13.2825
Pt 17.3752 16.8878 11.2797
Au 15.3379 14.9692 15.2704
Pt 15.2997 16.8706 17.2831
Au 17.3216 15.0071 17.3295
Pt 17.3274 16.8729 15.3042
Au 15.2899 14.9923 19.335
Pt 15.2747 16.9163 21.4021
Au 17.2405 15.0404 21.4033
Pt 17.2871 16.9067 19.365
Au 15.2397 15.0557 23.5049
Pt 13.159 19.0289 24.9779
Au 15.1307 17.053 25.4502
Pt 17.2353 16.9692 23.4751
Pt 15.4466 22.8596 7.50831
Au 15.5186 21.0478 5.43199
Au 15.4785 18.9264 7.22808
Pt 19.3065 22.8392 11.4303
Au 17.4003 18.8485 9.29702
Pt 17.4476 20.9512 7.42369
Au 15.4172 18.8368 11.2864
Pt 15.3851 20.9296 13.2992
Au 17.3243 18.828 13.3153
Pt 17.3631 20.9128 11.371
Au 15.3151 18.8481 15.2791
Pt 15.3047 20.9059 17.241
Au 17.2871 18.8022 17.3014
Pt 15.3367 22.9234 15.2561
Au 15.3003 18.8192 19.2835
Pt 15.2705 20.8889 21.2277
Au 17.2485 18.8728 21.3728
Pt 19.1713 22.8292 19.2946
Au 15.2429 18.9188 23.3225
Pt 15.1845 22.8237 23.0843
Au 17.1454 19.0243 25.2825
Pt 17.1429 20.9365 23.2044
Pt 17.4099 22.9222 9.46698
Au 18.0466 23.5207 6.92438
Au 15.49 20.9068 9.3314
Pt 13.4923 22.873 9.38814
Au 15.4972 24.8908 9.37165
Pt 19.9533 23.502 8.87169
Au 12.8212 25.4031 8.80148
Pt 15.4091 24.8098 13.27
Au 17.2691 20.8702 15.3145
Pt 17.3151 22.8624 13.3531
Au 15.3279 26.6116 15.264
Pt 15.2898 24.7772 17.2478
Au 17.2622 26.7399 17.2656
Pt 17.3729 24.7495 11.4244
Au 13.3161 20.841 19.2019
Pt 15.283 22.8307 19.2151
Au 17.2411 20.8656 19.2788
Pt 17.232 22.8825 17.2569
Au 15.2871 26.5714 19.2197
Pt 15.2738 24.6732 21.1334
Au 19.1423 24.7764 21.3192
Pt 17.2123 22.8524 21.25
Pt 17.4677 7.30382 9.34904
Pt 19.364 5.42992 13.3501
Pt 19.4111 7.28914 11.3349
Pt 19.2816 5.40853 17.3011
Pt 21.2173 5.48392 15.3506
Pt 19.2056 5.55123 21.151
Pt 19.3276 7.31231 19.2798
Pt 19.4496 11.1599 7.40746
Au 19.3742 7.22749 7.36636
Pt 19.4464 9.17677 9.33657
Au 21.4201 7.16566 9.31286
Pt 21.3308 9.26328 7.47183
Au 21.2596 5.28351 11.451
Pt 19.3996 9.21631 13.2976
Au 23.1716 5.37454 13.4939
Pt 21.4026 9.15814 11.338
Au 19.3362 7.29374 15.3136
Pt 19.3643 9.2291 17.3238
Au 21.1536 5.28183 19.2363
Pt 21.2558 7.26232 17.3109
Au 17.3383 9.25583 19.2856
Pt 19.3172 9.17099 21.2747
Au 21.4331 7.07871 21.4195
Pt 21.264 9.19636 19.3627
Au 19.1921 9.13708 25.2105
Pt 17.2476 11.0893 25.0878
Pt 21.1469 9.20328 23.1972
Pt 19.5395 13.061 5.48386
Au 21.4486 11.1665 5.46449
Au 19.4391 9.25489 5.4556
Pt 19.4343 13.1325 9.2572
Au 21.4599 11.1585 9.36442
Pt 21.425 13.0693 7.44072
Au 19.4455 11.1797 11.3018
Pt 19.3977 13.1236 13.2997
Au 21.4009 11.2345 13.3388
Pt 21.4775 13.1382 11.2892
Au 19.3598 11.2176 15.3205
Pt 19.3479 13.1586 17.3513
Au 21.3392 11.2554 17.3622
Pt 21.4375 13.1359 15.3565
Au 19.3342 11.2391 19.3505
Pt 19.291 13.1441 21.4418
Au 21.2884 11.2093 21.3587
Pt 21.3767 13.1552 19.3987
Au 19.252 11.1301 23.3089
Pt 19.2432 13.0676 25.1682
Au 21.1754 11.135 25.2032
Pt 21.2889 13.0902 23.3464
Pt 17.4962 19.0645 5.53379
Au 19.5207 17.0789 5.22454
Au 19.3943 15.0861 7.23766
Pt 19.3982 16.9317 9.27831
Au 21.4326 15.0619 9.31265
Pt 21.398 17.0498 7.33995
Au 19.4114 15.0174 11.2959
Pt 19.3828 16.8787 13.3275
Au 21.4589 14.9909 13.3459
Pt 21.4367 16.9105 11.3736
Au 19.3878 15.0093 15.3264
Pt 19.3498 16.8703 17.3497
Au 21.4114 15.0164 17.371
Pt 21.4522 16.8826 15.3521
Au 19.3067 15.0388 19.3951
Pt 19.2449 16.9861 21.4424
Au 21.276 15.036 21.3938
Pt 21.3518 16.929 19.4048
Au 19.1884 15.0717 23.4182
Pt 21.1872 17.056 23.2592
Au 19.2938 17.0071 25.4019
Pt 21.2158 18.9183 21.3382
Pt 20.0048 21.628 6.95511
Au 22.4995 24.1523 8.28455
Au 19.3967 18.9357 7.37966
Pt 19.3145 20.904 9.44174
Au 21.3395 18.9091 9.41801
Pt 21.9006 21.5629 8.90059
Au 19.3381 18.8369 11.3609
Pt 19.245 22.858 15.3155
Au 21.3603 18.8271 13.3862
Pt 21.3013 20.9067 15.36
Au 19.336 18.7918 15.3338
Pt 17.3028 24.7854 15.2722
Au 21.3208 18.8291 17.3048
Pt 25.0503 21.0601 15.3514
Au 19.2738 18.8159 19.3445
Pt 19.1721 20.8731 21.2729
Au 21.1611 20.9001 19.3212
Pt 23.1691 20.9553 17.3517
Au 19.1704 19.0669 23.4377
Pt 21.0803 22.8326 21.2249
Au 19.1554 22.7502 23.231
Pt 21.0785 24.6597 19.2512
Au 24.3883 24.0935 10.292
Pt 21.8556 23.5005 10.8366
Au 24.493 22.2397 8.28233
Au 19.3054 20.846 13.3795
Pt 19.2675 24.7671 13.353
Au 21.8974 25.453 12.7632
Pt 21.2048 22.8476 13.3984
Au 19.2243 26.6712 15.2738
Pt 19.1862 24.7109 17.2769
Au 19.2576 20.8709 17.2851
Pt 21.1957 24.7481 15.3411
Au 21.0595 26.6237 17.3212
Pt 17.2406 24.7067 19.2528
Au 23.1165 24.8266 17.3622
Pt 21.1871 22.8652 17.2915
Au 19.1462 26.5979 19.2698
Pt 21.3276 7.31146 13.3319
Pt 23.0325 7.25837 19.1859
Pt 23.1864 7.26879 15.4217
Pt 23.2866 9.22389 9.49056
Au 23.3711 7.1474 11.3653
Pt 23.2802 9.22795 13.4143
Au 25.1561 7.31807 13.5154
Pt 25.0672 9.22367 11.539
Au 21.3429 9.24771 15.3491
Pt 23.2176 9.27631 17.3524
Au 25.0337 7.2681 17.3847
Pt 25.0931 9.19524 15.4419
Au 24.7509 7.32329 21.0838
Pt 23.0977 9.25639 21.2798
Pt 24.9975 9.196 19.278
Pt 21.4475 15.0416 5.66884
Au 23.4775 11.0615 7.41273
Pt 23.4572 13.0988 9.29734
Au 25.3081 11.0884 9.51436
Pt 23.3977 15.1439 7.52592
Au 23.395 11.1974 11.4233
Pt 23.5287 13.1306 13.3722
Au 25.5174 11.1178 13.4169
Pt 25.2844 13.075 11.3654
Au 23.4417 11.2359 15.3755
Pt 23.4806 13.1419 17.3909
Au 25.4716 11.1478 17.4114
Pt 25.3578 13.0861 15.3966
Au 23.3002 11.204 19.3343
Pt 23.3151 13.096 21.4047
Au 25.1604 11.0489 21.3071
Pt 25.1917 13.0908 19.4527
Au 23.2379 11.1327 23.3417
Pt 21.2074 15.0625 25.0399
Pt 23.1771 15.0389 23.2153
Pt 21.9806 19.6527 6.8975
Au 20.064 19.8363 4.9669
Au 23.3661 13.1939 5.68366
Pt 23.3634 17.0179 9.4166
Au 25.4231 15.0684 9.39471
Pt 23.8996 19.6747 8.81103
Au 23.5073 15.0341 11.3625
Pt 23.48 16.9018 13.3985
Au 25.6359 15.0257 13.3477
Pt 25.3128 17.0515 11.4078
Au 23.5267 14.9899 15.3798
Pt 23.4581 16.8923 17.3569
Au 25.632 14.9974 17.4579
Pt 25.361 16.9181 15.3805
Au 23.4024 15.0579 19.4014
Pt 23.241 16.9956 21.4445
Au 25.2501 15.1019 21.3932
Pt 25.1902 17.0596 19.3991
Au 23.1365 16.9663 25.0163
Pt 21.1455 20.8623 23.0837
Au 21.2627 18.9785 25.1335
Pt 23.0604 20.9313 21.2336
Au 22.5409 22.1989 6.37402
Pt 21.2797 20.8914 11.4323
Au 23.9554 17.7448 6.81206
Au 23.3493 18.9243 11.3982
Pt 23.1972 20.8941 13.4122
Au 25.8407 17.7757 8.83004
Pt 23.8431 21.5503 10.8317
Au 23.3781 18.8909 15.3577
Pt 25.024 19.0507 17.4582
Au 27.0589 17.4152 17.4643
Pt 25.1921 19.0121 13.3389
Au 23.1578 18.9384 19.3559
Pt 23.054 22.8111 19.2704
Au 23.2763 19.0828 23.2868
Pt 24.9175 18.9588 21.1998
Au 25.1715 21.0059 19.4449
Au 19.9455 25.4542 10.754
Pt 23.7294 23.4408 12.813
Au 25.9325 19.7466 10.7606
Au 25.7885 21.6689 12.7829
Pt 23.1576 22.9263 15.3553
Au 26.9304 20.819 17.3342
Pt 26.696 19.0675 15.391
Au 25.0933 22.9039 17.3591
