561
Atoms. Timestep: 20402
Pt 6.14567 8.92407 15.5749
Au 5.8039 6.44417 14.5451
Pt 8.18064 9.80007 11.3067
Au 12.5229 3.77748 15.5011
Pt 6.37596 10.5232 13.3801
Pt 5.92551 11.0501 17.4988
Au 6.49986 16.4645 7.09748
Pt 5.54788 15.1902 9.37996
Au 3.568 13.2667 13.9265
Pt 4.83675 13.9269 11.6028
Au 3.82467 17.027 17.8282
Pt 5.71877 12.9868 15.5982
Au 8.0208 5.04596 17.7642
Pt 5.81485 14.9384 17.5873
Pt 7.86603 11.052 19.4873
Au 5.76832 13.7242 7.02478
Au 5.41563 18.9475 9.68622
Pt 7.41026 18.978 7.84198
Au 3.64935 16.9468 13.7408
Pt 5.43686 16.8854 11.623
Au 3.76962 18.9132 15.7716
Pt 5.68096 16.9736 15.7214
Au 7.74712 9.05351 21.5863
Pt 5.91572 16.8905 19.6448
Au 4.0279 14.8815 19.5653
Pt 7.88747 13.0281 21.4613
Au 3.7762 18.9828 11.8858
Au 5.7371 22.8664 13.8743
Pt 5.70939 20.8671 11.8416
Au 4.19079 18.9429 19.7208
Pt 5.92734 18.8966 17.6631
Au 5.99104 21.001 19.7463
Pt 7.86948 20.8083 17.5986
Au 3.87604 20.875 13.8717
Au 6.0031 22.8577 17.6379
Pt 5.87883 20.8395 15.7089
Pt 10.3702 6.74897 14.0457
Pt 6.61761 10.598 8.91143
Pt 7.89366 9.09225 17.5123
Pt 8.09016 6.88179 15.7445
Pt 9.7663 7.13234 17.6628
Pt 6.59978 11.961 11.1915
Au 8.47117 9.17518 7.36585
Pt 11.1425 8.25826 7.19294
Au 4.53546 8.59858 13.4178
Pt 7.92884 8.33616 13.5318
Au 8.14733 5.38683 13.3646
Pt 9.0967 6.98926 11.4103
Au 9.72538 4.58496 15.5559
Pt 7.76715 11.0457 15.5638
Au 9.77559 9.03164 15.4026
Pt 9.35504 11.0474 13.4047
Au 5.40018 9.35745 10.9032
Pt 7.84223 7.26831 19.5192
Au 14.7705 2.98646 16.8739
Pt 9.81178 9.14643 19.4675
Pt 11.8322 9.14892 21.3577
Pt 8.39579 14.522 6.86323
Au 13.0279 6.41351 7.0256
Au 4.07561 11.3415 12.1551
Pt 7.7479 11.802 6.89796
Au 4.70515 12.4839 9.31977
Pt 11.161 15.1107 7.44131
Au 4.17131 10.8276 15.1635
Pt 5.59069 15.0753 13.7898
Au 7.39316 13.0233 13.5199
Pt 9.17685 12.9721 11.3442
Au 3.65444 15.1124 15.8876
Pt 7.75002 13.0106 17.5126
Au 9.7841 11.0947 17.4083
Pt 9.61672 13.0144 15.3835
Au 3.82282 12.8682 17.5221
Pt 5.90028 12.9669 19.5028
Au 9.81764 11.047 21.4736
Pt 9.77407 13.008 19.472
Au 4.05542 10.978 19.4643
Pt 6.0196 9.1517 19.4067
Au 14.4245 6.35116 23.8068
Pt 11.8971 11.0387 23.3309
Pt 7.36148 13.3521 9.10554
Au 8.80487 12.7799 4.66
Au 9.33691 15.0345 9.44656
Pt 7.38393 17.011 9.6217
Au 11.4682 16.9682 9.36271
Pt 9.25141 17.0404 7.56503
Au 7.31949 14.9576 11.4851
Pt 7.51347 16.8931 13.5293
Au 9.52458 14.9247 13.3517
Pt 9.43286 16.9157 11.4352
Au 7.66723 14.9807 15.5441
Pt 7.73123 16.8683 17.5642
Au 9.75602 14.9241 17.4499
Pt 9.64395 16.8488 15.4302
Au 7.79454 14.9518 19.5501
Pt 7.95437 16.8705 21.5543
Au 9.90266 14.9367 21.4919
Pt 9.81708 16.8379 19.4852
Au 5.92259 11.1102 21.4811
Pt 9.9793 13.0156 23.3954
Au 8.04103 14.9309 23.4893
Pt 10.0509 16.8622 23.405
Au 9.09528 19.0343 5.70843
Au 9.16286 21.0903 7.59873
Pt 7.48103 20.8704 9.7953
Au 9.39147 18.9621 9.58274
Pt 9.42452 22.8302 9.76944
Au 7.42279 18.8652 11.6205
Pt 5.71131 18.8779 13.7457
Au 9.58092 18.7944 13.448
Pt 9.45284 20.886 11.603
Au 7.72385 18.8264 15.5721
Pt 9.90452 22.6551 17.4678
Au 9.80665 18.755 17.4692
Pt 11.8582 24.5457 17.3743
Au 5.93058 14.9214 21.6109
Pt 8.12529 22.6948 19.4865
Au 7.857 18.8429 19.5707
Pt 9.9709 20.721 19.4328
Au 7.95117 11.2061 23.4248
Au 8.2306 18.8735 23.4714
Pt 10.1291 22.656 21.3257
Au 7.44358 22.9614 11.6686
Au 7.74649 24.799 13.8425
Pt 7.65929 20.8902 13.6364
Au 11.6313 20.7721 13.4043
Pt 9.61438 22.8495 13.5358
Au 9.74226 20.7842 15.4761
Pt 7.85428 22.7607 15.6505
Au 11.9073 26.4964 19.2243
Pt 9.86454 24.6535 15.6019
Au 6.12163 18.8739 21.6755
Au 4.09439 20.8482 17.7126
Pt 10.081 24.5029 19.3696
Pt 11.6783 6.56284 11.6637
Pt 15.2331 8.7389 10.0636
Pt 13.0908 5.93065 13.9359
Pt 14.0143 4.76093 11.8799
Pt 10.9471 4.65544 17.9073
Pt 15.3142 3.66797 14.256
Pt 9.64808 5.47623 19.8342
Pt 15.4418 7.06933 19.3284
Pt 13.8289 9.03922 23.2122
Pt 10.1941 12.6571 6.99924
Au 10.77 6.31545 9.01259
Au 7.31922 7.89152 9.48029
Pt 9.9112 8.78254 9.62807
Au 11.0841 4.2779 13.049
Pt 12.7966 10.1631 5.89578
Au 6.34264 6.99185 11.8973
Pt 10.6232 8.89003 12.563
Au 12.6325 8.53608 14.6837
Pt 12.9129 10.3453 12.6336
Au 11.9462 6.40389 16.3229
Pt 11.6847 9.06875 17.3891
Au 13.4809 5.04462 18.4757
Pt 14.6542 10.5848 14.6131
Au 11.9645 5.10741 21.0644
Pt 11.8665 7.14379 19.2976
Au 4.14525 9.08712 17.3959
Pt 13.741 9.20268 19.3742
Au 5.96851 6.99338 17.5285
Pt 9.9374 7.38272 21.3953
Au 13.824 10.9595 25.399
Pt 15.7361 10.9089 23.2635
Pt 11.6375 12.3624 4.84856
Au 20.2676 7.1676 8.36606
Au 10.041 10.3183 5.53772
Pt 9.06951 11.347 9.1783
Au 13.6903 10.9896 9.49381
Pt 13.1107 14.7469 5.76189
Au 11.0191 11.07 11.0257
Pt 11.4628 12.8961 13.2051
Au 13.4878 12.9173 11.3478
Pt 11.3356 13.1221 9.35995
Au 11.6602 11.054 15.1537
Pt 11.7332 12.9809 17.3069
Au 13.6905 10.9255 17.1678
Pt 13.5253 12.9984 15.2045
Au 11.7834 11.1064 19.3588
Pt 11.8449 12.9969 21.4254
Au 13.8271 11.1069 21.3213
Pt 13.7855 12.9806 19.2952
Au 14.5253 8.286 25.7063
Pt 11.9737 14.919 23.394
Au 11.9459 9.00789 25.1677
Pt 13.8607 12.9691 23.3784
Pt 10.5418 14.727 4.90378
Au 12.7845 14.1567 3.25049
Au 8.43291 16.447 5.01714
Pt 11.1149 19.0966 7.5015
Au 13.6199 14.8068 8.9179
Pt 13.0638 17.1817 7.17838
Au 11.4842 14.9392 11.3164
Pt 11.5911 16.8439 13.3151
Au 13.5775 14.9269 13.2077
Pt 13.5518 16.7817 11.1332
Au 11.6125 14.9096 15.2659
Pt 11.7858 16.7813 17.334
Au 13.7348 14.8749 17.2348
Pt 13.7056 16.7733 15.2213
Au 11.8265 14.9044 19.3802
Pt 11.9538 16.8103 21.4443
Au 13.8985 14.8652 21.3703
Pt 13.8896 16.7435 19.3511
Au 12.0291 16.8754 25.258
Pt 12.0483 18.818 23.2914
Au 11.8088 7.01099 23.2841
Pt 13.9882 16.8031 23.3449
Pt 12.9427 21.0683 7.38939
Au 11.0966 23.0504 7.61771
Au 12.8143 19.296 5.31585
Pt 11.2554 20.9309 9.5099
Au 15.2291 17.0552 8.89311
Pt 13.3021 19.0697 9.21258
Au 11.5444 18.8348 11.3856
Pt 11.7488 22.7051 15.3997
Au 13.6704 18.7159 13.234
Pt 15.4978 22.8272 11.2892
Au 11.7379 18.7259 15.3567
Pt 11.8442 20.7174 17.3547
Au 13.8305 18.6738 17.2607
Pt 13.7602 20.7057 15.2816
Au 11.9088 18.6902 19.3431
Pt 12.0386 20.7128 21.2816
Au 13.9727 18.7046 21.2969
Pt 11.9821 22.5952 19.3103
Au 10.0039 18.7473 21.4236
Pt 8.17467 20.7686 21.4339
Au 15.9966 22.7584 23.2559
Pt 14.0296 20.7508 23.1921
Au 13.7419 23.6637 7.06603
Au 9.48035 24.8798 11.5845
Pt 11.4595 22.8024 11.5711
Au 9.85277 26.5903 13.6973
Pt 11.4698 24.6812 9.72505
Au 13.5525 20.831 11.271
Pt 11.6839 24.6684 13.5159
Au 13.6499 22.7213 13.3579
Pt 13.5271 24.6885 11.4703
Au 11.8409 26.6375 15.5809
Pt 13.8709 26.3419 17.3588
Au 13.8609 22.6172 17.2266
Pt 13.7655 24.6133 15.3233
Au 13.9439 26.4893 21.0239
Pt 12.0538 24.5031 21.1843
Au 14.0417 24.6436 23.0269
Pt 13.9196 24.4906 19.2146
Au 8.04983 24.7232 17.585
Au 12.0866 22.685 23.2956
Pt 13.9962 22.6223 21.216
Pt 11.3629 10.537 8.16974
Pt 13.4725 6.44356 9.66253
Pt 13.6889 8.74893 7.95654
Pt 15.901 5.94722 13.3805
Pt 18.0733 6.27077 12.0677
Pt 16.2644 4.82492 18.1693
Pt 18.0047 4.03647 13.6872
Pt 16.2467 6.48912 21.9076
Pt 18.8322 4.8265 17.972
Pt 16.4529 8.30966 23.8366
Pt 20.5144 7.11031 21.8049
Pt 15.1603 11.0261 6.9839
Au 15.0015 8.52773 5.67748
Au 11.8984 4.2718 10.3907
Pt 12.3902 8.74334 10.2969
Au 19.6382 4.16892 11.5663
Pt 16.5501 9.11392 7.86579
Au 16.6109 3.80541 11.4932
Pt 14.0053 7.75344 12.2734
Au 17.3966 2.91661 16.2516
Pt 16.565 8.47374 12.3436
Au 14.7305 5.55273 16.0392
Pt 14.1023 7.82499 17.1974
Au 19.9618 3.94339 15.5838
Pt 15.3451 7.98364 14.806
Au 17.7516 9.21832 19.1227
Pt 13.6734 7.14891 21.2776
Au 17.5422 3.9871 20.4274
Pt 17.9736 6.51684 19.9702
Au 14.8459 4.61077 20.7315
Pt 15.7043 9.06446 21.2083
Au 20.2653 4.95832 20.2759
Pt 18.2177 8.38966 21.8587
Pt 14.2619 12.2621 4.83499
Au 15.4649 14.5736 3.98724
Au 12.9472 12.5632 7.27929
Pt 15.3508 13.7241 6.85567
Au 17.611 10.5141 10.0587
Pt 16.9724 12.5448 5.12075
Au 15.3909 10.8037 11.8351
Pt 15.4688 12.9201 13.4557
Au 17.3831 10.4977 14.1208
Pt 17.5095 12.4906 12.0177
Au 16.1704 9.65617 16.7451
Pt 15.59 12.9188 16.9728
Au 17.9299 13.1373 19.2711
Pt 17.7769 15.0444 12.6735
Au 15.7915 11.1768 19.1282
Pt 15.8399 12.9686 21.4272
Au 17.6936 11.0255 21.2381
Pt 19.9601 12.2067 21.5004
Au 11.9222 13.0067 25.3016
Pt 15.8249 12.6916 25.1435
Au 17.2184 14.7176 25.8662
Pt 15.9756 16.6927 21.3938
Pt 11.0707 17.158 5.52202
Au 18.1679 19.4643 5.05873
Au 17.2212 16.7833 4.06595
Pt 15.2138 16.334 6.04397
Au 15.834 12.6239 9.45005
Pt 17.5702 14.9608 5.99566
Au 15.5904 14.7942 11.0945
Pt 15.6418 16.7627 12.9983
Au 17.5504 16.8133 10.5851
Pt 16.8632 15.0418 8.48169
Au 15.7274 14.9096 15.0806
Pt 15.7649 16.6981 17.1688
Au 17.7471 14.7966 16.9832
Pt 17.6681 16.7233 14.9034
Au 15.7921 14.7926 19.2128
Pt 16.0041 17.0042 25.1322
Au 17.8808 18.6791 21.3011
Pt 15.9273 18.7542 23.1413
Au 14.0464 14.9116 25.4491
Pt 10.2128 20.7239 23.176
Au 9.84542 9.14306 23.4876
Pt 18.0109 16.5045 23.4674
Pt 15.139 24.4971 9.29271
Au 13.4112 16.8104 4.06033
Au 15.4618 18.7548 4.51331
Pt 19.4939 22.6164 11.2057
Au 15.048 19.1837 7.07955
Pt 17.5137 21.2108 7.12602
Au 15.4474 18.8465 11.0339
Pt 15.6004 20.7901 13.2024
Au 17.4444 18.7688 12.9623
Pt 17.3699 20.9357 11.0644
Au 15.6986 18.6491 15.1728
Pt 15.8374 20.6439 17.1553
Au 17.9063 18.3876 17.0727
Pt 15.7368 22.6698 15.2134
Au 15.9621 18.5496 19.2135
Pt 15.9439 20.7484 21.2232
Au 13.993 18.8481 25.2126
Pt 19.7208 22.6324 19.0136
Au 16.0671 20.6567 25.0635
Pt 17.9384 20.837 23.019
Au 18.7374 16.867 26.2055
Pt 19.831 20.7753 21.0328
Pt 17.4719 22.9813 9.3402
Au 17.3325 25.8327 8.89059
Au 15.3314 21.3742 8.80762
Pt 13.1842 22.7843 9.5167
Au 15.5579 26.4849 11.1801
Pt 19.56 24.6925 9.58228
Au 11.6387 26.608 11.58
Pt 15.6366 24.6815 13.3143
Au 17.7049 20.5511 15.1226
Pt 17.5852 22.6527 13.1945
Au 13.6752 26.6775 13.4126
Pt 15.8614 24.5886 17.193
Au 15.6673 26.7072 15.332
Pt 17.537 24.6792 11.3795
Au 13.983 20.6333 19.2459
Pt 15.882 22.6391 19.1427
Au 17.8051 20.6057 19.1109
Pt 17.7444 22.6171 17.1071
Au 15.923 26.5799 19.1355
Pt 15.9115 24.5632 21.0224
Au 19.9035 24.7027 20.946
Pt 17.8691 22.671 21.006
Pt 15.8703 6.2264 10.6407
Pt 20.056 5.951 13.631
Pt 20.4092 6.7824 11.0039
Pt 19.7818 6.57031 16.1976
Pt 21.8971 8.19465 16.9338
Pt 22.2149 7.00897 19.662
Pt 17.3687 5.43326 15.6263
Pt 17.6548 11.9742 7.57834
Au 19.4763 13.7879 4.66908
Pt 17.9421 7.86322 9.83035
Au 18.2475 5.2799 9.46994
Pt 19.5617 13.9112 7.39068
Au 22.5544 6.78776 12.6231
Pt 18.0237 7.75515 14.5771
Au 24.4555 9.34314 17.141
Pt 19.1499 8.78547 12.4154
Au 22.2707 5.80813 15.2467
Pt 17.2909 7.26592 17.3537
Au 21.5606 5.15013 17.8019
Pt 19.927 7.43127 18.6496
Au 17.9287 11.682 16.8251
Pt 20.5087 9.6562 22.9073
Au 22.8194 9.84686 24.1475
Pt 20.2752 9.34069 20.4274
Au 16.5516 10.1126 25.8878
Pt 18.2693 10.4411 23.8248
Pt 20.8835 12.164 24.0069
Pt 22.0419 12.7474 7.7942
Au 21.7355 14.7642 5.94868
Au 15.6953 6.61187 7.95202
Pt 19.9565 11.6749 8.90754
Au 17.4315 10.0171 5.49838
Pt 19.0704 9.47878 7.63916
Au 19.8039 11.3477 11.7155
Pt 20.1976 15.7146 10.8193
Au 20.1585 11.2208 14.5085
Pt 21.4296 13.3448 10.4065
Au 18.0875 13.2454 14.629
Pt 20.3134 13.8398 12.8065
Au 19.8536 11.3202 18.8513
Pt 24.0901 12.0673 16.5416
Au 20.143 13.3874 16.9296
Pt 19.9922 14.6022 22.9053
Au 20.4143 14.477 19.845
Pt 19.9105 15.3106 14.9226
Au 18.5847 5.51713 22.563
Pt 17.8436 14.7404 21.4251
Au 20.3287 9.96228 25.536
Pt 17.9608 13.0565 23.5194
Pt 17.2929 17.5773 6.75091
Au 20.9484 19.0759 5.18998
Au 19.6564 16.6292 5.3922
Pt 19.1593 16.3627 8.25755
Au 21.8266 9.87269 7.75871
Pt 19.4423 18.8954 7.4228
Au 18.5851 13.7579 10.0176
Pt 19.4395 17.0406 12.8099
Au 22.1915 13.5961 14.9743
Pt 22.7724 16.4745 10.8347
Au 21.6813 11.0341 16.9084
Pt 21.9082 16.1522 13.3978
Au 20.1108 16.2911 17.3714
Pt 24.601 15.7703 13.7444
Au 17.9925 16.4659 19.2698
Pt 17.9997 18.825 24.713
Au 21.9568 16.7904 19.3199
Pt 24.6466 12.7215 21.2617
Au 18.5394 12.0543 25.9868
Pt 20.5571 16.7895 24.2701
Au 19.8973 14.3858 25.57
Pt 19.7965 16.8347 21.3946
Pt 19.3907 21.0647 8.98217
Au 23.6979 21.5613 8.70173
Au 16.4309 23.7606 6.97679
Pt 19.2001 19.0047 10.7806
Au 21.1002 17.9664 9.4368
Pt 21.3286 22.8055 9.05998
Au 17.1982 19.1738 8.92951
Pt 19.5864 22.5767 15.0562
Au 21.5819 18.6024 12.2626
Pt 21.6143 20.5928 14.9562
Au 20.031 18.2705 15.0624
Pt 17.6439 24.5957 15.1558
Au 21.794 18.5735 17.1332
Pt 23.4648 22.4677 14.918
Au 19.8096 18.623 19.2013
Pt 21.6784 20.7064 19.0501
Au 26.8132 19.6754 16.7519
Pt 23.5286 20.6649 17.011
Au 19.8504 22.7672 22.9694
Pt 21.7199 22.6649 20.8463
Au 17.8828 24.677 22.7704
Pt 21.695 24.461 18.8195
Au 20.1425 21.3647 6.25618
Pt 21.4976 24.5484 11.2589
Au 19.1576 23.5801 7.27638
Au 19.5961 20.5047 13.0497
Pt 19.5679 24.5168 13.1332
Au 21.6422 26.4348 13.2436
Pt 21.4698 22.4874 13.0089
Au 17.5818 26.6955 13.3006
Pt 19.6815 24.4864 17.021
Au 19.7183 20.5264 17.0363
Pt 19.6653 26.3054 15.0819
Au 19.8556 26.4753 18.8548
Pt 17.84 24.6049 19.067
Au 21.7481 26.3754 16.8261
Pt 21.5629 22.5111 16.9696
Au 17.8109 26.6498 17.0623
Pt 20.9005 8.34593 14.5039
Pt 22.7372 8.50313 21.7198
Pt 22.4273 9.64346 19.1102
Pt 20.2264 9.26973 10.0158
Au 23.8924 7.952 14.7512
Pt 22.8912 10.3637 14.6933
Au 24.346 9.87222 12.3455
Pt 21.7424 9.29837 12.303
Au 19.2948 9.32041 16.5994
Pt 24.6605 10.8853 19.396
Au 26.8341 12.7553 15.1757
Pt 22.2442 11.9067 12.6818
Au 23.916 6.66202 17.5216
Pt 22.4213 11.0063 21.625
Pt 22.3729 12.3974 19.4275
Pt 21.7032 17.3324 6.98806
Au 24.2636 11.5924 8.56147
Pt 23.783 14.1529 9.42646
Au 22.6652 8.12459 10.0087
Pt 21.6011 15.2928 8.5871
Au 27.0493 16.9 12.3723
Pt 22.3971 10.8776 10.2071
Au 24.6574 8.21726 19.8125
Pt 24.5145 12.2851 11.1467
Au 26.5313 11.3225 17.4645
Pt 24.8767 13.4113 18.5914
Au 24.9072 10.112 22.0349
Pt 24.4927 12.6307 13.9039
Au 19.1141 7.72315 24.3205
Pt 22.1859 13.5387 22.0141
Au 23.8017 12.3192 23.8168
Pt 24.5617 16.1945 18.31
Au 22.4077 14.6905 24.5132
Pt 15.8837 14.8486 23.4091
Pt 22.1666 16.1892 22.1471
Pt 21.7681 20.0282 7.93116
Au 15.1311 21.5453 5.80626
Au 20.0114 11.4977 6.0738
Pt 23.2166 14.2664 12.1682
Au 25.6222 10.3036 14.8305
Pt 23.4316 19.1139 10.0011
Au 27.2189 14.1411 17.644
Pt 25.9702 17.8465 14.6426
Au 27.2465 15.3974 14.6803
Pt 25.2204 15.7132 10.9129
Au 24.9674 14.6345 16.0858
Pt 22.5218 14.3482 17.7024
Au 26.9453 12.4578 19.9383
Pt 22.7147 16.2324 15.9718
Au 26.2013 15.1919 20.2801
Pt 23.4744 14.8869 20.2533
Au 24.5989 14.9768 22.7864
Pt 23.678 18.8826 19.1514
Au 21.8543 20.8995 22.998
Pt 19.9539 18.9887 23.0544
Au 22.7128 18.3165 23.6093
Pt 21.8452 18.8498 21.127
Au 25.3698 20.8521 10.7168
Pt 21.4569 20.793 10.7159
Au 24.0099 16.8449 8.45331
Au 26.001 18.1861 10.0938
Pt 23.4274 20.5664 12.7009
Au 26.353 13.932 12.4952
Pt 23.346 22.6742 11.0763
Au 23.1322 18.4138 14.5419
Pt 24.5804 18.2354 16.7725
Au 26.9483 16.7972 16.995
Pt 24.4807 18.0581 12.2698
Au 24.4451 17.4097 21.2895
Pt 23.4943 24.2806 16.8096
Au 25.607 20.7799 18.9101
Pt 23.5848 22.5673 18.8356
Au 23.783 20.8315 21.0427
Au 19.5609 26.622 11.404
Pt 23.3892 24.3401 13.1245
Au 26.614 19.683 12.7621
Au 25.413 22.4274 13.0282
Pt 21.5595 24.3908 15.0076
Au 26.2717 18.1017 19.2506
Pt 25.0469 20.3624 14.8512
Au 25.5562 22.427 16.6699
