561
Atoms. Timestep: 21098
Pt 15.5948 9.25839 14.5284
Au 19.6096 23.7321 7.08805
Pt 18.9593 24.1474 13.5055
Au 25.1706 18.3401 14.5676
Pt 17.2128 7.89251 19.3616
Pt 18.0354 22.6901 8.95656
Au 6.67759 17.8588 6.74276
Pt 17.8095 12.9164 19.3364
Au 10.1964 14.2465 5.4046
Pt 14.0749 23.2848 19.0534
Au 11.4145 20.7284 5.22043
Pt 16.1529 19.1385 17.2562
Au 11.8995 3.98438 14.906
Pt 19.6245 15.5121 14.6764
Pt 20.4342 19.0286 17.1347
Au 20.6509 11.9591 25.886
Au 10.6081 5.4931 19.8435
Pt 15.6802 18.4499 7.50333
Au 3.72247 14.8073 15.1595
Pt 21.3312 22.5755 13.3604
Au 9.40741 17.566 26.2704
Pt 13.3015 21.879 11.1498
Au 6.34959 18.1583 21.4296
Pt 17.5941 14.7011 21.4307
Au 21.0117 6.36883 17.2362
Pt 18.3706 20.113 7.75113
Au 4.19863 17.4143 16.1077
Au 21.0317 5.99019 10.4729
Pt 10.7929 16.2116 14.5253
Au 18.5789 17.8303 2.96275
Pt 10.025 8.37914 20.0585
Au 16.419 16.3507 2.59026
Pt 7.46528 11.8833 19.159
Au 20.7924 9.79117 7.88953
Au 26.0953 14.8742 18.6477
Pt 23.8287 16.2354 17.8109
Pt 8.94693 10.926 21.1001
Pt 13.8988 10.3819 17.052
Pt 12.7225 12.5844 17.8144
Pt 11.6284 23.0025 18.0109
Pt 20.2069 11.0643 23.3235
Pt 14.9028 15.7534 24.245
Au 16.1198 6.65049 5.12411
Pt 15.6886 9.69318 9.50859
Au 8.62513 8.8659 22.7083
Pt 11.7329 23.5351 15.145
Au 26.2269 16.7941 16.6338
Pt 14.6358 8.48165 19.464
Au 13.3245 5.02817 10.3376
Pt 11.1899 10.4243 16.5506
Au 18.7533 4.87093 9.54627
Pt 9.33977 10.4649 13.0036
Au 4.90703 12.5226 10.8963
Pt 17.6049 13.0409 10.9599
Au 7.54065 17.9787 24.2818
Pt 12.4001 6.71872 12.6333
Pt 16.0967 24.7121 17.9575
Pt 9.85374 19.8178 9.63963
Au 21.4745 12.0617 6.48154
Au 17.8893 6.18545 21.3521
Pt 11.3832 16.4184 6.90684
Au 18.8784 26.8554 13.8225
Pt 13.3728 16.6561 15.6183
Au 5.70575 10.282 15.3884
Pt 15.9375 27.2553 18.1378
Au 26.3098 13.1063 13.4882
Pt 20.5559 15.7936 22.765
Au 17.2824 13.7053 3.04686
Pt 6.54133 14.1176 12.3639
Au 13.9238 17.5639 3.21406
Pt 12.5251 7.24828 20.574
Au 21.5554 23.0646 20.3754
Pt 8.77756 17.8059 15.2766
Au 19.9038 4.16555 12.1067
Pt 16.0096 21.7815 10.678
Au 13.9306 26.0009 19.464
Pt 17.027 12.1952 8.4203
Au 12.1448 21.6768 20.3493
Pt 15.5926 17.7597 11.8631
Pt 17.0499 11.1169 13.0357
Au 24.6223 12.9878 20.2897
Au 12.3621 15.7363 4.48042
Pt 17.902 11.7583 21.8387
Au 16.3568 4.241 20.212
Pt 19.6628 12.1503 12.3695
Au 16.0187 20.818 26.2025
Pt 18.1413 15.2083 24.1138
Au 12.2068 6.59268 8.00224
Pt 18.0404 15.6824 4.81738
Au 18.3023 18.385 5.6279
Pt 15.7269 16.5131 17.0661
Au 9.88081 14.9319 8.55987
Pt 9.41756 12.5104 7.64207
Au 8.88974 19.4611 5.90082
Pt 12.7794 11.9495 15.0443
Au 7.41636 8.55919 13.8114
Pt 16.8146 17.2085 25.2901
Au 21.3766 13.6877 13.7295
Pt 8.96634 17.542 22.07
Au 11.9061 24.3822 20.6009
Pt 18.2455 13.0513 14.6644
Au 11.1916 10.8557 26.1831
Au 23.1311 23.115 17.8552
Pt 13.217 16.7918 11.1153
Au 25.031 19.3501 17.1679
Pt 16.3578 14.2664 25.8501
Au 20.1713 9.19963 25.2725
Pt 20.4346 11.6903 20.7987
Au 10.6339 6.96548 22.4577
Pt 15.8589 17.2772 5.12225
Au 18.2169 5.5207 18.4516
Pt 22.4426 20.0424 13.9262
Au 12.7337 13.0498 4.39754
Pt 10.6608 17.79 19.6157
Au 16.603 25.8812 20.4426
Pt 15.429 14.7937 19.1058
Au 22.6815 9.67534 14.9653
Pt 21.5383 20.7274 11.2181
Au 25.0684 8.82018 15.7621
Au 5.60019 10.2867 12.5991
Pt 15.3817 12.1844 18.1515
Au 13.388 10.5967 5.71122
Au 16.4167 18.5218 27.587
Pt 20.4103 16.6713 18.2123
Au 7.0546 13.4551 9.31283
Pt 22.2647 11.1619 12.9155
Au 21.3553 25.3484 14.0592
Pt 22.2655 16.2353 13.6936
Au 8.44257 6.64824 18.4811
Pt 6.70963 16.4874 16.2028
Au 16.4038 24.1364 7.45982
Au 6.05276 17.5485 18.6113
Pt 7.20194 18.5474 13.2515
Pt 16.8007 14.012 16.8649
Pt 23.8855 14.3032 12.7131
Pt 16.6245 15.5148 14.7442
Pt 10.3949 8.40284 14.5343
Pt 20.8799 18.8907 7.39482
Pt 20.1871 16.6003 12.1001
Pt 15.7537 20.8523 15.1478
Pt 20.259 11.2299 14.8633
Pt 10.4655 19.9005 21.4597
Pt 10.3017 16.0381 24.1039
Au 7.92236 22.1448 17.4455
Au 9.56865 24.9762 13.8542
Pt 20.4343 21 15.3761
Au 4.68113 12.6118 16.6109
Pt 15.9576 21.2355 8.07142
Au 9.00188 12.6374 25.6653
Pt 16.5657 15.3717 6.97424
Au 14.6212 24.3422 21.646
Pt 15.9189 15.1412 11.3019
Au 8.88199 10.0142 6.65391
Pt 11.4844 9.7569 21.7692
Au 21.8331 14.6074 5.57363
Pt 20.0633 6.65804 13.1632
Au 7.48154 11.4208 23.4309
Pt 8.67908 16.8638 17.8874
Au 23.5428 18.5842 21.1108
Pt 16.8039 8.6446 11.7896
Au 13.8348 11.3609 27.1327
Pt 12.5391 15.3597 25.6485
Au 19.6359 13.3056 4.38769
Pt 18.8843 8.12203 17.2639
Pt 8.90922 19.4528 17.3234
Au 11.5681 4.2025 12.2208
Au 22.9211 11.1361 21.8124
Pt 19.1173 21.6811 20.1385
Au 6.39755 20.1991 18.5211
Pt 15.8605 8.14124 7.32403
Au 14.1458 23.1722 8.8434
Pt 9.29614 13.7391 13.104
Au 5.63456 19.5361 11.2054
Pt 12.151 8.11213 10.2914
Au 20.6995 19.4095 19.8552
Pt 17.9938 6.1323 11.7913
Au 15.8179 9.5336 27.1535
Pt 8.63374 10.0228 15.6638
Au 4.66772 13.1794 8.09324
Pt 21.7946 15.4284 16.2246
Au 20.5389 21.4802 8.76469
Pt 14.3525 15.7768 13.3525
Au 19.9453 25.7937 11.4728
Pt 11.0627 11.3287 19.4709
Au 9.81252 21.5125 7.44964
Pt 13.0549 10.7143 24.163
Pt 10.141 18.8477 24.0446
Au 23.1508 20.5108 8.54565
Au 10.0261 5.73114 13.8394
Pt 15.137 14.0104 9.00275
Au 23.7927 9.81896 11.0156
Pt 15.5912 23.6347 15.5282
Au 22.9742 11.4101 8.8753
Pt 22.0947 14.4945 18.7515
Au 12.6591 22.8043 22.8791
Pt 6.41946 14.1695 15.1236
Au 9.38672 23.7946 19.3121
Pt 9.87654 21.1232 19.1084
Au 3.80293 17.4014 11.6066
Pt 13.7015 17.9257 18.0767
Au 8.98321 17.7196 7.97327
Pt 13.5584 12.7126 22.5782
Au 10.7387 5.84931 10.239
Pt 14.5663 6.89849 14.1863
Au 10.0698 15.0245 26.7536
Pt 18.145 10.5457 10.6268
Au 7.28067 19.89 8.76889
Pt 18.9032 10.1407 19.0129
Pt 24.2433 15.5036 15.1853
Au 10.2407 10.2563 10.4202
Au 16.155 19.1014 3.03511
Pt 13.4709 21.9649 16.4643
Au 17.0266 3.66471 11.9104
Pt 20.3892 8.32495 15.1461
Au 15.2383 11.9591 3.97729
Pt 9.02794 10.0197 18.2463
Au 6.00939 10.832 21.1428
Pt 10.1979 11.1364 23.5922
Au 19.9701 20.3136 23.9398
Pt 22.2114 13.9111 21.3422
Au 13.7636 19.2783 27.1994
Pt 16.6453 20.3433 19.6774
Au 6.63463 11.7127 7.08778
Pt 16.945 19.1704 9.86015
Au 23.2512 20.8636 19.4241
Pt 6.28172 16.6603 11.4739
Au 24.4341 10.1456 19.4352
Pt 18.1087 9.462 8.28666
Au 18.3433 20.4783 3.93453
Pt 18.5342 23.454 18.0375
Au 19.9778 7.25314 19.6804
Au 14.3959 19.99 12.7805
Pt 17.0316 19.8701 12.6359
Au 13.5428 27.8148 14.3914
Pt 16.1288 20.0257 5.57015
Au 13.4182 4.4807 19.9428
Pt 20.9555 10.1032 17.2277
Au 21.1709 4.69293 14.7384
Pt 13.0979 10.601 10.493
Au 9.90942 22.5888 21.7359
Pt 22.8808 17.9398 15.831
Au 16.1604 2.57089 14.2737
Pt 8.35709 20.4758 14.8712
Au 24.3356 15.6804 20.6113
Pt 9.18836 13.479 20.1912
Au 7.26254 8.82608 19.963
Pt 11.5851 17.6354 22.2423
Au 23.0551 23.106 15.1977
Au 19.3214 14.0738 7.00159
Pt 16.1035 22.0299 17.6032
Pt 10.0691 12.2359 14.9895
Pt 12.5155 6.32596 18.0685
Pt 15.7522 11.746 15.4486
Pt 12.9015 16.3899 20.2278
Pt 19.8942 14.4965 20.1204
Pt 14.0331 15.7825 6.80288
Pt 9.49892 12.8716 10.4388
Pt 7.39187 11.9645 14.0561
Pt 22.4396 15.7318 10.8379
Pt 18.1623 19.5829 15.1897
Pt 14.2035 7.85474 16.7887
Pt 17.6295 7.6156 13.9809
Au 24.2022 19.6484 11.0323
Au 23.7631 13.4156 7.0268
Pt 26.1778 14.0105 16.0287
Au 5.22021 17.8837 9.11961
Pt 11.2038 14.8344 11.3044
Au 15.2693 22.0417 23.7827
Pt 20.0526 23.1067 11.0947
Au 14.5383 26.7772 11.9729
Pt 10.881 17.2362 9.70712
Au 18.281 10.7075 26.6918
Pt 19.4013 14.4407 17.0449
Au 6.88316 15.8093 22.7588
Pt 18.0085 22.3889 15.5735
Au 5.44777 10.4901 18.2423
Pt 11.1323 12.6428 21.7675
Au 16.3196 28.0043 13.7591
Pt 22.2458 12.8932 11.0377
Au 17.2193 24.1259 22.6282
Pt 13.8425 8.85149 22.1614
Au 20.6513 14.6835 25.2684
Pt 19.6436 12.1364 9.06325
Pt 7.19094 16.1105 8.97831
Au 20.6613 18.9201 4.41208
Au 18.7235 13.7749 27.0638
Pt 13.1842 17.898 8.53977
Au 13.6685 7.65805 5.70739
Pt 9.7614 22.3177 13.6354
Au 5.15884 15.6845 7.21716
Pt 11.5244 14.306 16.1943
Au 5.63883 13.5974 5.59079
Pt 19.4129 9.50611 12.884
Au 14.6979 5.63659 7.33117
Pt 16.4413 9.58221 17.3523
Au 11.467 26.24 15.4871
Pt 17.2266 7.23298 9.50952
Au 6.91674 8.53574 17.1659
Pt 15.5363 12.7852 20.7752
Au 21.3625 17.4233 24.9238
Pt 11.4628 12.1083 12.3531
Au 20.8557 21.8082 18.0624
Pt 12.165 6.59528 15.4075
Au 7.91062 10.6275 9.0826
Pt 12.2637 14.1934 13.6881
Pt 14.562 7.2502 9.56732
Au 24.6088 17.0051 12.3577
Au 8.95616 16.7114 5.43419
Pt 12.9633 9.15429 14.8023
Au 21.8675 8.41181 12.3697
Pt 13.5756 19.43 15.7814
Au 22.2035 22.7249 7.15249
Pt 19.7828 18.7738 9.90827
Au 3.8609 14.7514 12.4082
Pt 8.23618 18.1296 10.744
Au 21.787 20.88 21.8983
Pt 14.8095 18.9429 24.6708
Au 26.0727 12.0824 18.1998
Pt 7.49922 11.789 11.5027
Au 24.111 18.3784 7.35893
Pt 11.9083 12.7532 9.58911
Au 16.0283 4.73457 9.54488
Pt 11.7254 19.7781 17.8984
Au 11.3347 25.7128 18.2481
Pt 13.9736 22.4806 13.8174
Au 19.1202 16.5866 26.5108
Pt 9.88088 19.501 12.8943
Pt 13.2377 15.2796 17.8697
Au 20.9366 24.7479 18.3311
Au 14.1302 4.17148 13.2369
Pt 7.33382 14.4413 18.17
Au 23.0033 8.39837 17.6014
Pt 20.1469 16.5669 6.44474
Au 22.4003 24.4951 11.7774
Pt 19.1286 16.9684 20.9014
Au 16.357 6.5715 23.8309
Pt 14.4213 19.6899 9.90508
Au 19.7591 22.7299 22.5824
Pt 8.05905 15.9761 13.621
Au 15.6246 25.4903 9.66938
Pt 21.8339 16.6048 20.3975
Au 10.7667 11.4407 5.36575
Pt 15.3767 6.14653 11.8181
Au 15.3345 28.9578 16.1448
Pt 12.8739 13.7442 20.15
Au 25.454 17.7397 19.2516
Pt 21.7457 12.7213 16.3407
Au 26.1118 14.9302 11.3963
Pt 12.6034 15.1617 22.9252
Pt 16.4118 10.4206 19.9549
Au 11.7377 26.393 12.6785
Au 22.7737 6.91235 15.1706
Pt 22.207 18.2764 12.0965
Au 17.502 5.85773 7.23897
Pt 22.3032 18.1793 9.51593
Au 6.24333 19.2516 15.9475
Pt 18.4413 20.7224 17.6493
Au 16.9605 3.97168 16.5685
Pt 10.6177 21.7203 11.2789
Au 18.4389 25.3902 9.09363
Pt 18.2855 12.554 24.6896
Au 19.1125 24.509 20.5422
Pt 18.6447 20.9471 10.7293
Au 10.2237 5.16786 16.8784
Pt 13.6183 10.9337 20.2792
Au 12.3428 3.65334 17.5988
Pt 11.9638 23.7145 12.5137
Au 15.3111 5.9646 18.5487
Pt 18.2944 17.1623 16.3852
Au 12.3228 22.6927 6.78467
Pt 17.3033 21.5744 22.0706
Pt 14.7629 24.0132 11.7255
Pt 8.04512 20.7144 11.6241
Pt 14.3336 14.0561 15.7067
Pt 10.5007 15.376 21.3582
Pt 11.1603 17.1306 17.0506
Pt 15.3021 8.9616 24.4797
Pt 20.3783 23.6139 15.9156
Pt 14.1098 11.6283 8.30952
Au 13.3204 27.4763 17.1966
Pt 18.1691 14.8158 12.6633
Au 23.097 16.3294 22.956
Pt 15.391 11.8709 10.8395
Au 13.1941 21.1939 25.3335
Pt 13.9471 13.2335 25.171
Au 26.5696 15.8155 13.9838
Pt 12.8979 20.0342 22.9357
Au 9.84752 24.5681 11.1758
Pt 18.2248 18.3797 18.8783
Au 9.52873 24.3161 16.5727
Pt 13.7176 25.1345 14.0812
Au 17.7985 27.8144 16.2013
Pt 20.052 14.2975 10.8387
Au 14.965 3.15935 18.126
Pt 13.3692 18.1258 5.78867
Au 5.40975 15.5742 20.3619
Pt 17.8925 14.8345 9.15068
Pt 8.33161 18.9437 19.8732
Pt 22.745 20.5974 16.628
Au 6.14083 21.1747 13.5209
Au 8.93531 13.8 23.1015
Pt 18.1429 11.6998 16.946
Au 13.8606 20.2508 4.15943
Pt 13.0705 19.0875 20.4486
Au 21.6118 13.8674 8.57608
Pt 14.1306 11.1472 13.0335
Au 11.8862 17.1793 27.4688
Pt 12.1477 20.9455 8.99642
Au 11.2428 8.67924 6.2834
Pt 16.4767 25.2806 13.4759
Au 22.5766 5.76769 12.6741
Pt 15.5902 19.475 21.9244
Au 8.75094 9.86014 25.3219
Pt 5.40808 16.4272 13.8772
Au 26.2477 11.3374 15.6547
Pt 18.8954 5.95217 15.5456
Au 14.8545 22.4745 5.79154
Pt 14.2668 8.63299 12.0183
Au 21.7007 9.36149 19.8905
Pt 13.7065 20.3418 7.03835
Pt 20.504 18.0514 14.733
Au 19.7528 3.87482 16.9135
Au 17.6313 22.2348 5.96663
Pt 14.1135 17.5229 22.5114
Au 21.447 8.77218 22.6628
Pt 22.5442 11.8948 19.0801
Au 18.9217 11.2245 6.40706
Pt 16.1102 13.4234 23.3531
Au 19.7396 7.18944 8.08936
Pt 15.6985 13.4037 13.3236
Au 7.5763 9.03817 11.1603
Pt 11.9966 20.9002 13.7455
Au 8.33825 6.57916 21.1514
Pt 17.9528 17.43 13.4997
Au 14.9698 6.28479 21.47
Pt 15.4707 10.8561 22.6234
Au 22.2945 13.0788 23.8258
Pt 23.8929 12.672 14.7775
Au 13.2614 8.85061 26.1736
Pt 10.4371 7.90288 17.1868
Au 13.4451 7.0049 24.0091
Pt 13.4256 9.0765 8.03448
Pt 19.0053 21.5645 13.235
Au 22.6856 20.1704 5.87141
Au 8.3868 6.84479 15.6806
Pt 12.1236 13.4403 7.05863
Au 17.967 22.1546 24.6634
Pt 12.4871 17.8116 24.8094
Au 22.8801 16.0742 7.77595
Pt 22.732 18.4291 18.4539
Au 11.8947 13.2184 27.266
Pt 13.4922 24.7647 16.8673
Au 17.6139 8.03164 25.8283
Pt 14.5458 16.807 26.6108
Au 22.1588 8.22376 9.54239
Pt 15.471 16.6801 9.28428
Au 7.67701 23.2811 12.2138
Pt 7.40896 12.192 16.6345
Au 11.1631 23.432 9.1391
Pt 10.2807 17.1087 12.2435
Au 18.4838 26.2445 18.4222
Pt 20.1851 12.4241 18.3576
Au 10.6651 21.3685 24.0499
Pt 13.6429 13.7434 11.4347
Au 24.3453 7.95025 13.2266
Pt 15.679 17.5545 19.9158
Au 11.0435 18.1659 4.50474
Au 24.9862 10.5552 13.4183
Pt 24.0297 13.6329 17.3489
Au 8.0859 20.1801 22.6327
Pt 9.80923 12.7094 17.6379
Au 23.7897 21.9887 12.4933
Pt 17.981 16.9347 10.8023
Au 21.1097 24.5497 9.15539
Pt 16.5914 5.20854 14.1506
Au 9.74273 7.70006 11.9154
Pt 14.6393 21.6829 21.1367
Au 18.7063 3.45005 14.3686
Pt 18.9963 17.7243 23.8513
Au 7.72304 14.6399 6.7473
Pt 18.5404 19.3557 21.6075
Pt 15.6452 18.0999 14.6841
Pt 11.3539 13.2978 24.4814
Pt 19.7449 19.2167 12.5766
Au 7.93214 15.3519 25.2009
Pt 8.06363 15.9878 20.2389
Au 22.9311 22.7016 9.94401
Pt 8.60659 15.3631 11.0254
Au 22.4961 10.4554 24.4907
Pt 23.8341 10.9895 16.9312
Au 20.1782 21.2068 5.9283
Pt 12.212 9.09905 18.6696
Au 7.57489 23.1391 14.9381
Pt 10.3807 21.5619 16.2354
Pt 15.8874 11.447 25.2569
Pt 17.19 19.6642 23.9757
Au 20.2231 26.4087 16.2673
Pt 20.3473 16.2942 9.09453
Au 4.73594 15.1914 17.6697
Pt 16.6985 23.1621 20.0334
Au 24.7539 16.9876 9.68975
Pt 15.464 26.2937 15.7555
Au 4.51617 18.9455 13.7479
Pt 14.6875 13.1983 6.4041
Au 24.755 21.0002 14.8977
Pt 16.516 8.49555 21.9294
Au 15.6048 9.20097 4.45584
Pt 20.9605 10.4428 10.6258
Au 20.4549 16.0932 3.79202
Pt 19.48 8.16332 10.597
Au 16.8201 15.817 27.8836
Pt 16.5725 22.5326 13.1873
Au 4.67317 15.1857 9.88058
Pt 11.1977 19.0883 7.31051
Pt 16.8199 17.1098 22.45
Pt 8.93941 14.7518 15.9653
Au 6.75979 13.4053 21.4467
Au 17.3523 26.801 11.3993
Pt 17.1615 13.1464 5.66806
Au 18.0571 8.5583 5.74986
Pt 18.09 17.3589 8.07865
Au 24.2966 14.2229 9.51149
Pt 19.7436 13.4864 22.6775
Au 17.8231 9.91084 23.947
Pt 21.1176 18.3471 22.3543
Au 12.5283 5.15435 22.298
Pt 12.7541 15.202 9.06644
Au 17.7298 10.9748 4.04736
Pt 14.9396 15.2193 21.6133
Au 22.5431 17.346 5.3861
Pt 12.6827 18.0028 13.4798
Au 18.6139 19.3335 26.1777
Pt 11.7894 9.51278 12.5793
Au 13.9872 2.49277 15.699
Pt 10.9874 19.1094 15.3472
Au 19.0759 9.1686 21.4487
Pt 10.6049 15.0932 18.6781
Au 7.66395 21.6854 20.3885
Pt 14.3817 5.07319 16.0863
Au 14.3439 14.3486 27.7361
Au 4.62875 12.5049 13.7887
Pt 17.9278 25.0687 15.8696
Au 24.9441 12.2474 11.2243
Pt 17.4991 24.0497 11.2196
Au 8.19943 12.4099 5.11956
Pt 14.1687 20.5479 18.601
Au 9.9107 8.22478 8.68211
Pt 11.4026 10.7387 7.97972
Au 11.1477 8.67775 24.418
Pt 16.6045 6.96119 16.3658
Au 11.1795 19.6832 26.3585
Pt 17.8072 15.7751 18.8234
Au 8.52874 22.4563 9.65312
Au 16.3675 12.3895 27.7791
Pt 12.0483 19.2843 11.1949
Au 15.0128 14.8056 4.25345
Au 5.03455 13.0033 19.3405
Pt 16.0611 10.6863 6.57567
Au 19.0143 7.40569 23.5266
Pt 18.0818 9.82208 15.2546
Au 12.7891 25.2437 10.364
