561
Atoms. Timestep: 20461
Pt 9.81883 10.3252 22.8882
Au 14.4425 25.4049 8.31212
Pt 11.3272 10.6532 13.6355
Au 4.00766 13.2516 18.7883
Pt 9.39512 13.142 7.91042
Pt 10.019 12.7174 12.3732
Au 25.3482 15.1802 8.91331
Pt 10.2441 12.6617 19.1349
Au 2.93905 17.1358 15.0915
Pt 8.77639 10.8177 17.5849
Au 12.8436 22.8673 23.6784
Pt 9.02076 17.2966 21.2838
Au 4.51852 13.5894 8.51892
Pt 16.0122 14.752 22.9791
Pt 12.0678 21.3026 14.1083
Au 21.8032 13.8285 5.09257
Au 24.8261 9.76615 19.0779
Pt 10.4341 20.0386 12.2905
Au 14.1658 6.43995 7.19231
Pt 8.36224 21.4778 16.4322
Au 16.792 22.4728 24.0156
Pt 6.06222 15.0111 12.294
Au 3.43416 15.7197 17.4479
Pt 18.0269 10.4961 24.3568
Au 6.39038 13.8744 23.2446
Pt 21.0056 13.995 19.7341
Au 11.1426 26.1335 17.7736
Au 25.6293 12.3403 19.7005
Pt 17.1952 13.2143 9.86844
Au 13.9076 20.6633 24.8414
Pt 18.4136 24.3839 15.8027
Au 22.9366 8.39664 20.4255
Pt 13.6903 13.7824 23.831
Au 11.3783 6.06884 7.90327
Au 6.39275 23.0964 17.0168
Pt 9.69445 17.8087 8.33418
Pt 15.0179 12.4416 21.8861
Pt 10.501 10.4126 11.0337
Pt 14.1555 10.1265 20.4537
Pt 12.322 8.5522 11.9008
Pt 10.7768 8.29421 9.33565
Pt 13.0491 15.7819 5.83367
Au 12.5867 13.1494 20.9481
Pt 15.8394 5.42452 13.5223
Au 15.5524 21.9854 5.56809
Pt 14.7786 24.7489 13.8615
Au 15.7953 10.2434 25.9733
Pt 21.7088 9.18287 12.657
Au 4.52653 16.8036 19.6416
Pt 19.394 21.2507 14.1017
Au 4.0928 17.3797 12.5801
Pt 12.7125 9.474 22.5711
Au 9.54419 6.9919 23.4353
Pt 5.19168 15.7855 14.6478
Au 21.9417 16.2369 25.3037
Pt 9.8169 12.7771 21.6934
Pt 20.4768 18.938 10.7498
Pt 16.6157 10.5276 8.79539
Au 23.0439 7.76307 10.711
Au 8.07034 9.10697 9.33243
Pt 17.6436 12.4163 22.5969
Au 5.74014 15.8336 7.65589
Pt 8.64457 18.7996 10.5286
Au 21.578 20.8784 23.2945
Pt 8.51383 10.3285 12.6991
Au 14.5216 14.5992 3.66849
Pt 7.70763 16.7291 14.9846
Au 8.94911 12.8566 24.3027
Pt 12.4843 16.0535 25.0693
Au 9.55963 15.3625 25.3679
Pt 17.6717 12.2398 18.2433
Au 7.16069 7.93026 13.1131
Pt 18.3922 21.5536 16.3629
Au 18.5427 9.01587 5.79481
Pt 20.3051 11.7192 18.2105
Au 8.22954 22.7664 11.2685
Pt 14.833 7.46423 18.9657
Au 16.7292 16.795 27.1458
Pt 19.7997 8.07428 14.2588
Pt 10.0047 21.1468 9.82039
Au 3.38593 14.7904 12.5255
Au 4.31224 10.5062 18.4606
Pt 14.5465 17.6681 24.6134
Au 22.0897 22.8362 21.2232
Pt 12.7564 11.338 7.2192
Au 16.2881 11.4379 11.6683
Pt 9.28004 14.2407 10.423
Au 9.16845 13.2162 5.19134
Pt 12.0426 18.5253 14.1428
Au 7.6051 15.4575 5.54546
Pt 21.2172 10.5179 20.6552
Au 18.6255 26.9558 15.7463
Pt 7.43348 16.4272 10.4501
Au 14.5752 25.6917 11.1791
Pt 9.42373 7.94996 11.5943
Au 12.382 6.85009 22.9583
Pt 12.5988 10.0536 9.54762
Au 7.89247 17.272 23.933
Pt 19.1684 6.65869 16.5961
Au 5.04844 19.9628 12.8647
Pt 6.55501 11.9163 18.7556
Au 15.6974 26.8846 15.3058
Au 21.3846 25.5251 16.3313
Pt 17.2249 9.50891 13.6401
Au 19.0023 22.417 7.47429
Pt 19.0755 9.50727 19.1359
Au 8.49468 22.8506 8.45731
Pt 10.1269 17.5843 18.8323
Au 3.81512 18.5393 17.2905
Pt 7.67071 20.1485 19.0444
Au 5.00928 11.8384 21.0696
Pt 7.28424 12.6589 12.4087
Au 16.1222 19.5138 20.5342
Pt 12.7477 21.3724 9.71743
Au 10.019 18.1644 25.6933
Pt 8.59795 10.7803 20.3648
Au 11.2835 16.3655 27.2762
Pt 10.6803 9.33697 18.7025
Au 6.50053 7.2748 15.7862
Au 5.75237 10.4376 13.6303
Pt 12.1648 23.9234 13.8788
Au 23.2371 21.1999 7.92926
Au 13.9781 16.7621 27.3521
Pt 10.2004 16.681 10.9271
Au 7.87649 21.8224 21.3824
Pt 10.4919 22.9572 15.7747
Au 19.5961 8.34886 23.914
Pt 5.33498 18.4171 14.9999
Au 17.7832 7.08546 22.2058
Pt 17.1376 16.7998 24.434
Au 7.95149 23.9494 14.8604
Au 7.02966 19.1849 21.6798
Pt 16.3064 12.6264 24.7755
Pt 18.3001 6.6004 9.91467
Pt 10.7948 9.83623 16.131
Pt 8.28589 8.38197 19.4395
Pt 6.63055 9.25509 17.6813
Pt 12.7849 8.4493 14.6573
Pt 6.44511 11.6728 16.0954
Pt 8.92861 15.0101 19.7962
Pt 10.8272 14.9731 17.7332
Pt 6.03711 20.1765 16.887
Pt 6.78756 13.8935 9.81952
Au 15.2949 3.96056 15.8284
Au 9.36513 19.6116 23.3595
Pt 16.0128 10.6893 6.03318
Au 9.33607 8.30135 7.05631
Pt 12.7295 17.3654 11.8516
Au 6.98479 18.2133 8.19834
Pt 6.97122 13.4407 7.15967
Au 15.1106 11.6517 3.53664
Pt 20.9563 15.3225 7.69307
Au 7.20024 11.2507 22.8139
Pt 13.2602 16.3458 22.5769
Au 7.65373 8.61802 22.2671
Pt 20.2256 11.6083 23.0243
Au 23.9259 10.8037 21.5309
Pt 15.6574 22.1686 19.8473
Au 13.602 9.92898 5.02398
Pt 12.5503 11.3208 18.3782
Au 6.26864 21.7923 14.512
Pt 8.44185 11.7348 10.0675
Au 12.5592 3.95718 16.4577
Pt 23.9629 19.0051 18.8463
Pt 13.1734 18.7179 5.68869
Au 8.04665 10.9347 6.81467
Au 9.62818 24.5375 12.7924
Pt 17.9573 7.03507 12.6198
Au 6.09379 11.3925 8.69372
Pt 16.4862 18.6019 8.86614
Au 19.917 18.4688 5.22715
Pt 8.97805 11.973 14.7858
Au 18.1454 20.8831 5.30849
Pt 15.9887 9.91508 22.6635
Au 16.9222 19.5682 14.8968
Pt 14.1279 12.9211 5.71673
Au 15.7195 12.3515 16.3794
Pt 9.7291 14.6288 15.2744
Au 20.4644 6.96412 11.4391
Pt 8.33573 15.9417 17.3565
Au 13.6842 3.40977 13.5966
Pt 22.1952 12.98 21.8675
Au 15.9947 8.00712 5.87394
Pt 8.26996 18.6104 17.0273
Au 14.466 24.3564 21.9028
Pt 23.2196 15.8491 16.1772
Pt 10.2163 15.7478 6.31847
Au 7.04974 20.8238 9.60378
Au 11.6928 4.07978 19.0822
Pt 11.5767 12.6424 9.42636
Au 16.4603 14.2677 12.5794
Pt 15.2373 17.2138 4.73199
Au 15.0948 17.4299 16.9744
Pt 9.8454 8.45475 14.142
Au 20.4277 15.8796 15.798
Pt 13.5338 5.91736 12.0096
Au 18.9208 14.8783 18.2943
Pt 24.5834 16.4641 18.4388
Au 12.3002 18.3958 17.4116
Pt 21.093 13.1821 14.1451
Au 13.3001 13.6675 16.6217
Pt 20.248 20.8831 20.8236
Au 17.8488 4.53524 11.749
Pt 15.7659 17.3874 22.185
Au 21.1777 7.33349 18.5258
Pt 18.0575 21.3399 19.234
Au 10.7509 5.46064 21.3219
Pt 19.9053 20.1278 17.8859
Pt 9.3983 17.9501 13.2691
Au 20.5904 23.4775 9.4868
Au 17.4247 25.8999 13.4586
Pt 11.2142 22.5358 11.743
Au 20.3713 7.8418 21.2124
Pt 7.24759 14.028 14.7416
Au 7.51262 6.12203 18.1447
Pt 7.59271 20.357 12.2318
Au 7.20131 17.5141 19.3718
Pt 19.5637 23.4102 20.0558
Au 20.5709 11.1658 4.98372
Pt 8.33356 15.5832 8.17439
Au 20.696 7.15499 8.61449
Pt 16.6959 13.1804 5.0249
Au 17.1824 14.0456 20.3727
Pt 19.6309 18.7587 15.4271
Au 17.3321 12.2039 14.2267
Pt 16.0679 19.0509 11.9002
Au 26.1654 12.601 15.4394
Pt 18.2942 14.4093 24.3374
Au 18.6729 6.63866 19.4323
Pt 20.7202 23.3377 14.9225
Au 17.2809 14.1463 26.8865
Au 19.2818 16.1493 26.2105
Pt 9.20221 21.8356 13.7534
Au 12.8281 21.4273 5.51538
Pt 6.8071 17.6642 12.7325
Au 9.80177 4.7377 16.9417
Pt 19.2122 12.1616 20.4904
Au 11.1729 22.7504 7.73837
Pt 13.1294 20.0307 12.0037
Au 4.83345 12.9435 13.9543
Pt 17.7944 21.0019 21.928
Au 24.6138 16.5308 6.61599
Pt 15.3643 20.9529 10.3951
Au 10.1348 24.311 9.97724
Pt 19.5611 17.4761 17.9934
Au 19.0263 20.9038 24.4217
Pt 7.69352 19.5199 14.6539
Au 6.31632 10.1761 11.0821
Au 10.4098 25.665 15.1574
Pt 15.509 16.603 11.2936
Pt 11.1958 6.81752 15.9883
Pt 21.8949 11.771 9.26795
Pt 7.34053 13.2209 20.8676
Pt 11.2443 6.511 13.2369
Pt 9.00992 7.93999 16.8522
Pt 22.1083 15.6479 22.4207
Pt 18.3718 11.4822 6.92448
Pt 18.6287 9.796 21.8267
Pt 24.6698 18.0922 16.2555
Pt 21.2008 11.6441 11.791
Pt 12.5254 7.954 20.1619
Pt 16.7778 8.56984 20.2458
Au 5.61009 18.585 10.511
Au 25.1715 20.6271 10.0396
Pt 14.5608 13.9871 10.7312
Au 6.45283 16.2962 21.7417
Pt 18.7119 16.6582 8.46001
Au 22.9472 11.7332 24.0553
Pt 13.3618 5.82081 14.6875
Au 8.74292 20.3105 7.49156
Pt 16.0026 12.8489 7.60943
Au 16.814 16.9113 19.3602
Pt 11.7814 11.857 23.5477
Au 26.557 19.3121 17.7672
Pt 14.7685 9.29674 10.7432
Au 11.778 3.84376 11.745
Pt 10.2607 8.29371 21.2685
Au 24.7714 22.6505 15.1181
Pt 23.7827 19.9136 14.4926
Au 25.9884 13.5551 11.0669
Pt 6.373 14.8216 19.0143
Au 12.0384 8.52276 6.83537
Pt 17.9864 16.2265 21.7575
Pt 19.8599 13.7308 9.56627
Au 23.3177 9.56421 8.52405
Au 13.9407 17.7846 19.9141
Pt 22.5299 14.2654 9.74297
Au 11.4323 14.7977 3.95805
Pt 15.6547 15.1328 6.32203
Au 18.123 6.60294 7.1868
Pt 16.0508 19.384 6.19727
Au 17.7347 16.651 16.2007
Pt 12.7846 11.9523 11.6847
Au 16.4227 2.88945 13.4974
Pt 18.6708 19.1752 12.7745
Au 14.6729 15.1356 20.6426
Pt 16.7304 11.1344 20.3518
Au 13.2431 11.0708 15.7268
Pt 8.27399 13.3976 17.3338
Au 12.8484 10.4273 26.1396
Pt 18.7284 18.7303 20.2941
Au 23.8156 8.01672 17.2247
Pt 14.2063 11.1432 24.0297
Au 11.1562 20.8998 25.0927
Pt 8.71655 14.9922 22.5731
Pt 20.1937 21.601 11.5404
Au 10.9053 17.5424 4.55593
Au 4.73274 9.44635 15.9006
Pt 22.1611 9.82341 18.2023
Au 24.3805 8.72644 13.0634
Pt 19.7864 10.7807 14.2956
Au 4.6557 15.8361 10.1785
Pt 23.2898 14.2502 7.26291
Au 13.2911 15.7058 18.3632
Pt 18.856 12.6015 12.0655
Au 19.1125 13.1447 16.1105
Pt 14.086 22.5664 15.3001
Au 11.4304 15.5815 20.5459
Pt 21.4888 20.9116 15.8054
Au 26.2551 15.0368 20.1167
Pt 21.6086 11.3896 16.0167
Au 8.55873 17.9774 5.91008
Pt 5.50131 14.0877 16.6887
Au 8.84105 24.7257 17.2716
Pt 19.7185 14.1922 22.0906
Au 14.5577 4.44276 18.4642
Pt 13.9839 19.2584 22.2535
Pt 14.7096 17.295 7.49062
Au 24.4998 12.4262 9.0169
Au 17.8294 25.7364 20.2219
Pt 15.6485 24.4457 16.4727
Au 14.1373 8.39772 24.5933
Pt 16.5925 21.3339 8.05532
Au 25.2225 9.8157 15.3635
Pt 17.3879 17.1798 6.37437
Au 17.2569 19.163 17.6702
Pt 18.3991 15.2656 11.146
Au 23.1279 18.0098 23.6376
Pt 11.3037 6.13176 10.6108
Au 14.1355 19.7663 15.6379
Pt 17.2549 8.88786 10.8553
Au 17.8322 10.3566 16.2946
Pt 12.7214 23.9882 9.80361
Au 8.48014 9.22769 24.7744
Pt 15.3184 23.3292 9.71972
Au 16.8898 25.5073 9.64796
Pt 20.8884 18.0928 7.86771
Au 21.6992 6.53068 15.9411
Pt 18.0084 22.9232 10.0289
Pt 20.7052 16.3966 10.1274
Au 12.2967 12.2284 3.99663
Au 16.2063 5.06501 8.76546
Pt 16.2483 15.5956 8.94427
Au 12.9825 26.5732 14.5801
Pt 15.0651 21.0201 13.3992
Au 25.0286 21.824 12.5801
Pt 13.0575 22.5238 20.5652
Au 5.13689 19.4516 19.4797
Pt 18.8992 23.5836 13.0154
Au 22.9978 24.5565 14.2896
Pt 12.149 18.6625 24.0134
Au 20.8879 9.80041 7.28739
Pt 21.0047 9.37719 10.0322
Au 20.8966 20.7466 6.31698
Pt 20.7013 20.785 8.956
Au 15.1612 15.1513 25.5763
Pt 11.625 18.1749 21.3083
Au 16.2417 5.70002 20.4017
Pt 17.4066 21.4482 12.2528
Au 11.4998 24.3673 21.9491
Pt 10.2578 19.8856 15.4751
Pt 10.2744 6.65028 18.9155
Pt 24.0156 11.3825 17.0201
Pt 5.88613 16.902 17.0931
Pt 14.1494 20.1711 7.7404
Pt 10.3262 17.1961 15.902
Pt 11.8397 13.3617 14.1469
Pt 11.8808 14.5274 11.3145
Pt 12.6998 6.26031 17.9814
Au 14.0492 26.5262 17.5274
Pt 18.851 14.7029 13.9028
Au 17.3483 15.6036 3.99569
Pt 10.8466 12.4585 16.5506
Au 17.9302 11.0449 4.08271
Pt 17.1596 7.23903 15.09
Au 8.91011 6.3938 9.35526
Pt 11.5501 13.4821 6.43289
Au 10.5929 10.7616 5.57584
Pt 8.64724 15.2674 12.783
Au 15.2048 3.81246 11.2244
Pt 22.4586 17.3755 11.7753
Au 9.18981 5.23537 12.0416
Pt 22.4298 8.99013 15.2197
Au 24.1372 22.8051 19.2276
Pt 22.6177 15.3192 13.646
Au 26.6807 16.3068 12.3738
Pt 21.2732 19.6342 13.2135
Pt 22.7637 23.1295 16.7488
Pt 13.4198 7.42031 9.52347
Au 22.951 18.9208 6.42475
Au 12.2801 19.6355 3.39014
Pt 14.4264 11.8124 9.4089
Au 25.239 17.8169 10.5204
Pt 15.781 6.54222 10.9332
Au 20.025 5.4673 13.7724
Pt 7.77339 9.62467 15.2397
Au 20.249 25.8412 13.8231
Pt 17.1699 8.12194 17.6338
Au 14.2393 10.2802 13.2147
Pt 12.277 21.2125 16.9308
Au 15.686 15.1041 15.1553
Pt 14.7959 7.72407 21.8425
Au 14.7146 17.7544 13.9219
Pt 24.1549 15.535 11.3253
Au 21.0045 13.7604 24.5884
Pt 16.4359 23.89 11.9857
Au 4.63779 14.4536 21.1368
Pt 10.5105 16.8776 23.3353
Au 17.0209 5.319 17.6454
Pt 20.2918 16.4475 20.5622
Pt 18.6609 8.90801 8.49809
Au 8.1462 6.25584 21.0175
Au 3.71176 12.0038 16.3078
Pt 14.4198 9.37974 7.71263
Au 25.0503 19.0755 22.1722
Pt 15.069 7.82449 13.1861
Au 22.7828 21.9784 10.584
Pt 14.9147 21.6353 22.3209
Au 13.8007 15.2534 13.1113
Pt 16.1672 7.77083 8.61817
Au 17.3161 16.9079 13.4708
Pt 22.7887 19.1576 9.52333
Au 26.3236 20.4072 15.2473
Pt 12.7474 24.5691 16.3525
Au 27.1717 16.6491 17.8206
Pt 23.5692 19.664 11.9429
Au 24.981 16.1648 22.3831
Pt 10.467 22.2387 20.5467
Au 11.6442 13.4992 25.8497
Pt 15.3918 24.8006 19.3375
Au 27.0548 13.8073 17.7768
Pt 11.4344 18.8574 10.075
Pt 20.118 9.13668 16.67
Au 10.8654 4.16567 14.3383
Au 13.4145 4.73906 9.4033
Pt 22.1318 17.7115 14.6257
Au 2.88777 14.3932 15.207
Pt 18.4778 18.6217 22.9807
Au 14.7221 12.7647 19.0827
Pt 24.5599 17.2592 13.6339
Au 14.5197 12.8043 13.8724
Pt 11.2169 23.2594 18.2791
Au 16.0921 14.7727 17.8028
Pt 13.8811 23.0137 18.0892
Au 12.874 16.1779 15.6186
Pt 14.0581 18.6539 9.87196
Au 14.5229 20.0447 18.3843
Pt 22.0232 18.5663 17.0086
Au 5.91276 22.0451 19.3942
Pt 15.976 21.7377 17.0156
Au 16.6075 23.9288 7.36154
Pt 23.9447 20.718 16.9627
Au 9.77963 24.852 19.8993
Pt 13.6322 14.089 8.06498
Au 22.1234 16.519 5.588
Pt 18.208 14.284 7.37657
Au 17.1229 23.6175 21.5658
Au 19.5115 25.6933 18.175
Pt 20.0951 16.9103 12.9534
Au 14.2471 12.7182 26.4645
Pt 13.9346 22.7769 7.62013
Au 19.1202 25.3333 11.1144
Pt 11.8448 20.7616 22.3569
Au 15.407 10.1782 18.0946
Pt 10.1446 20.424 18.1519
Au 12.758 25.1745 19.6843
Pt 13.8497 22.8967 12.0059
Au 25.046 18.7993 8.02693
Pt 12.1111 17.4709 7.68544
Au 13.1496 17.0155 3.21587
Pt 18.2262 20.2874 10.0112
Pt 18.0791 17.6931 10.7223
Pt 20.171 22.9846 17.5203
Pt 11.0935 15.2191 8.7144
Au 21.4804 24.1097 12.0286
Pt 25.2067 14.3843 13.5039
Au 9.03954 4.28025 19.479
Pt 11.4371 10.7552 20.7629
Au 4.79439 12.6683 11.1331
Pt 21.3769 18.7352 19.5544
Au 22.4873 6.73946 13.3805
Pt 23.1081 16.7103 8.79171
Au 26.9846 17.7554 14.9279
Pt 16.7309 22.8161 14.5118
Pt 19.8914 16.4372 23.5935
Pt 19.0969 11.2254 9.64376
Au 14.9056 19.8467 3.84024
Pt 23.3937 13.0711 11.9944
Au 26.1811 17.8168 20.1575
Pt 15.3315 9.19993 15.5997
Au 25.8827 15.4314 15.812
Pt 11.1329 15.936 13.475
Au 20.6806 18.6915 24.9062
Pt 23.5707 13.3121 15.2195
Au 20.7733 10.4271 25.2629
Pt 20.9868 18.5134 22.1425
Au 10.2748 11.0375 25.7114
Pt 19.2643 9.70791 11.9721
Au 19.6247 22.8988 22.6912
Pt 11.2522 14.421 23.1879
Au 19.0145 12.3541 25.9161
Pt 20.5962 12.7303 7.25183
Au 18.1429 18.7853 25.933
Pt 23.0787 11.1298 13.8221
Pt 23.2456 17.3753 20.782
Pt 14.9562 6.6817 16.4376
Au 21.9732 9.37007 22.9768
Au 22.9802 11.6337 6.64643
Pt 23.5599 14.7123 20.2648
Au 23.6649 14.4312 24.198
Pt 19.5076 15.8873 5.63834
Au 16.872 26.5037 17.7715
Pt 22.4289 21.9712 13.4009
Au 15.4129 19.1192 26.6224
Pt 21.6901 13.8018 17.1597
Au 17.4691 18.5271 3.96029
Pt 13.0518 8.78229 17.3884
Au 11.2389 8.69726 24.7182
Pt 22.0037 21.361 18.7526
Au 6.00615 9.48997 20.3375
Pt 12.2594 20.1815 19.7175
Au 25.5723 11.5428 12.9911
Pt 23.0012 20.2514 21.0346
Au 13.4901 5.47854 20.764
Pt 22.9135 12.1791 19.3195
Au 9.92583 22.4468 23.1816
Pt 18.6581 19.4311 7.50801
Au 10.4025 20.097 5.30564
Pt 13.4118 16.1291 9.61744
Au 21.9149 24.4453 18.9883
Au 11.9964 25.5928 11.8912
Pt 24.3876 13.8976 17.7737
Au 23.7873 10.5045 11.0308
Pt 10.262 10.6325 8.25191
Au 26.1043 22.0349 17.5415
Pt 9.64942 19.7885 20.7083
Au 25.6261 20.6959 19.9962
Pt 19.1877 13.4138 5.00131
Au 16.818 8.1002 24.4812
Pt 11.4803 20.0301 7.69575
Au 26.1693 19.2706 12.7079
Pt 8.5374 22.6238 18.8107
Au 26.6321 11.03 17.5254
Au 16.2964 19.7291 23.9726
Pt 17.5377 23.7122 18.2714
Au 12.5534 18.8621 26.6171
Au 24.9472 13.3261 22.1511
Pt 20.9383 14.4622 11.8947
Au 17.9155 4.57295 15.0874
Pt 21.944 16.2068 18.4854
Au 8.70636 6.0171 14.6798
