561
Atoms. Timestep: 20399
Pt 10.2434 11.0543 19.8779
Au 4.84207 11.2539 19.6868
Pt 5.98704 9.8887 15.3745
Au 12.3027 3.82618 18.6827
Pt 4.92055 17.0564 14.9415
Pt 5.46348 13.8539 20.4074
Au 3.20843 16.8804 12.8637
Pt 6.25555 13.1681 18.0017
Au 4.45517 14.6924 11.1863
Pt 6.79095 21.3234 12.3778
Au 3.96139 20.7986 17.9499
Pt 7.742 14.9418 19.1689
Au 16.3469 4.06655 12.4796
Pt 5.56567 18.3221 20.9884
Pt 7.79438 13.7292 21.8737
Au 4.11451 11.3422 14.0266
Au 6.04676 17.6829 7.80421
Pt 7.28599 19.5766 9.30965
Au 4.83551 17.6259 10.2772
Pt 4.95416 19.1448 13.0848
Au 2.77756 15.9824 18.4997
Pt 5.85686 16.6294 12.4682
Au 9.7435 14.6345 25.6879
Pt 6.04411 19.3122 18.5607
Au 5.48894 17.2556 23.5257
Pt 7.77244 15.5974 23.8251
Au 10.0348 19.4258 5.84894
Au 9.35796 25.1051 13.7245
Pt 7.23914 21.1291 14.9519
Au 3.87792 16.0484 21.2369
Pt 4.11767 17.8833 17.2244
Au 7.38271 24.4761 18.0371
Pt 8.10561 19.237 16.7868
Au 4.63355 21.5849 14.0892
Au 3.32278 18.5119 19.6414
Pt 5.41255 19.7247 15.957
Pt 7.85855 8.5722 16.6941
Pt 7.79157 8.25387 13.9242
Pt 7.59708 11.7154 20.1841
Pt 10.094 8.36446 15.1248
Pt 12.0655 6.54117 15.2825
Pt 8.32583 14.2991 9.33933
Au 7.09772 13.0516 7.18487
Pt 8.22844 9.87831 10.5805
Au 5.70324 15.0595 8.79977
Pt 6.83246 10.6776 17.7924
Au 7.18728 5.78923 13.3558
Pt 7.14623 10.5674 12.9557
Au 14.3495 3.16231 14.2093
Pt 5.80204 12.6729 12.5104
Au 5.86943 11.8399 22.2849
Pt 8.53162 10.7325 15.3399
Au 5.76629 7.12024 15.3939
Pt 8.21811 6.13992 15.9576
Au 20.5753 5.32934 19.5403
Pt 10.4105 9.37585 21.947
Pt 12.8383 5.88109 20.5447
Pt 7.23281 14.6188 11.6913
Au 10.5086 6.06925 9.36112
Au 5.31985 8.47986 17.7911
Pt 6.44221 12.5713 9.89521
Au 4.94855 8.78062 13.2515
Pt 9.91525 13.9373 7.11463
Au 2.57928 16.076 15.6255
Pt 4.97965 15.0828 16.7333
Au 6.10073 12.6807 15.3905
Pt 8.71961 12.3588 11.3538
Au 2.99422 18.9533 14.9502
Pt 5.39891 16.4174 19.0386
Au 7.8682 10.0085 22.4095
Pt 8.66032 9.22218 19.1684
Au 3.56755 13.4506 18.5093
Pt 6.62836 15.9915 21.3619
Au 8.66121 7.4282 21.1257
Pt 9.3176 16.144 21.2238
Au 7.50518 6.71787 18.6534
Pt 12.3225 6.34685 17.9412
Au 15.8749 3.47091 16.7314
Pt 11.1264 8.12112 19.7024
Pt 7.5073 16.7768 9.96814
Au 3.15109 13.342 15.7717
Au 14.1595 14.913 9.42334
Pt 10.004 16.1327 8.72015
Au 12.0488 16.6364 10.3321
Pt 7.84719 15.7297 7.17985
Au 11.5589 13.7264 9.28852
Pt 4.56319 14.6028 13.925
Au 8.37991 12.9835 13.8691
Pt 7.18438 18.8161 11.7285
Au 8.71242 14.6184 16.6294
Pt 6.93586 16.9017 16.9502
Au 11.0526 17.7871 12.6723
Pt 8.97674 19.5298 13.6413
Au 4.69285 20.7269 20.7336
Pt 9.95361 18.8224 20.801
Au 7.69128 18.3142 24.9543
Pt 7.81354 18.1258 22.22
Au 6.32707 9.06491 20.3093
Pt 9.82565 11.9448 22.2939
Au 12.6195 14.1626 26.2107
Pt 9.74771 17.1506 23.6465
Au 9.55517 23.1036 8.66594
Au 8.06999 21.0651 7.19767
Pt 8.6982 18.1925 7.70281
Au 10.7284 21.8767 6.52082
Pt 13.7534 22.7047 9.91361
Au 7.13003 22.1951 9.72489
Pt 7.06832 18.233 14.4806
Au 6.68366 23.6493 13.6197
Pt 9.0134 20.8395 11.1326
Au 7.10114 15.3165 14.5813
Pt 11.0994 23.855 15.3853
Au 9.4499 17.1229 15.4891
Pt 11.7302 25.2802 18.1599
Au 5.38915 14.4136 23.1798
Pt 9.94814 23.2268 17.6902
Au 6.28592 20.1098 23.0724
Pt 7.57111 20.3606 20.5664
Au 8.15284 12.6931 24.3118
Au 7.95313 22.2679 22.6231
Pt 11.5067 22.995 19.6349
Au 8.95461 23.7188 11.2763
Au 5.79595 22.5852 19.2941
Pt 8.24619 23.5126 15.7376
Au 12.6546 16.5016 14.3345
Pt 9.1397 22.3495 13.5395
Au 11.1273 20.6253 12.9057
Pt 13.2329 23.6209 17.0983
Au 14.1871 26.4236 18.0935
Pt 13.7024 23.9058 14.3129
Au 10.0443 24.1163 21.9402
Au 5.52451 22.758 16.4187
Pt 13.6286 24.6106 20.0492
Pt 15.4622 6.77571 12.4296
Pt 19.674 9.05545 9.522
Pt 17.9955 6.238 13.2588
Pt 15.0835 8.07205 10.3259
Pt 9.82832 5.82962 14.04
Pt 18.9899 6.52458 15.6526
Pt 10.5534 4.86603 16.6664
Pt 15.1622 9.94573 15.3998
Pt 17.0368 10.2794 22.6512
Pt 9.55895 9.50491 8.16526
Au 14.5956 4.99458 10.5204
Au 11.6164 3.82635 14.3725
Pt 9.09098 7.11932 11.8085
Au 12.8703 7.29232 5.85439
Pt 13.2229 9.92778 6.64033
Au 16.1193 5.92367 8.26017
Pt 9.77791 9.88459 12.7676
Au 11.0411 5.01934 11.7732
Pt 15.6545 10.6898 10.0347
Au 19.2585 4.28471 12.1065
Pt 10.3499 10.1361 17.2647
Au 15.0436 9.76176 17.9961
Pt 15.6447 9.58795 12.6617
Au 17.8624 3.97386 14.8243
Pt 9.98962 7.33881 17.5324
Au 10.1666 5.50229 19.5789
Pt 12.5191 8.76477 16.7257
Au 4.21983 11.1431 16.9803
Pt 13.4476 4.58641 16.2823
Au 16.765 7.48245 23.2965
Pt 18.4506 8.45947 20.8062
Pt 11.7861 8.08169 8.13725
Au 20.4389 8.24512 7.0307
Au 10.7702 9.16589 5.80655
Pt 10.9673 11.1392 10.3676
Au 6.89142 10.3485 8.30665
Pt 13.2039 9.86812 9.3138
Au 6.55717 7.82915 11.3912
Pt 8.85011 12.3102 17.8609
Au 15.4846 13.1167 15.6355
Pt 13.8264 8.06775 14.0852
Au 11.5632 13.0337 18.1443
Pt 9.82436 13.6443 20.1999
Au 13.1836 11.5429 16.4353
Pt 14.2292 15.3401 16.3205
Au 12.5997 10.3834 19.0514
Pt 11.1436 12.5975 24.6099
Au 14.5446 10.9516 20.9588
Pt 11.4635 15.2009 16.4782
Au 19.2198 8.66523 23.3459
Pt 10.2189 14.4466 23.0495
Au 18.3393 5.94156 21.2944
Pt 12.9326 8.80319 21.528
Pt 9.02215 11.9304 8.76081
Au 9.23569 11.5078 6.03978
Au 5.43685 10.3356 10.9018
Pt 12.6334 20.7823 8.2141
Au 11.1603 12.4234 12.7515
Pt 12.4314 15.8887 7.50736
Au 10.5498 12.5077 15.6195
Pt 9.64466 18.2848 10.415
Au 14.4456 17.2165 11.787
Pt 8.57651 16.7717 12.6895
Au 12.8553 13.7125 14.6804
Pt 7.95926 17.6972 19.3822
Au 10.425 18.3989 17.8737
Pt 13.4857 19.2555 13.366
Au 10.3593 15.8625 18.7387
Pt 11.9019 15.4172 21.3209
Au 12.3229 12.7613 20.8658
Pt 13.1496 15.1455 18.8068
Au 12.5765 17.4578 26.7852
Pt 11.0287 19.0526 24.9688
Au 11.1182 6.79643 22.2976
Pt 11.8961 16.1482 24.476
Pt 16.962 20.7328 8.16624
Au 16.1512 21.4229 5.46562
Au 14.6531 24.9817 9.05529
Pt 10.0227 20.3795 8.74714
Au 12.6515 18.6895 5.67749
Pt 14.8878 22.4447 7.6027
Au 5.06142 20.3501 10.6284
Pt 12.59 21.6516 15.074
Au 12.3625 19.4313 10.634
Pt 14.9205 20.4188 9.9159
Au 11.4798 18.9818 15.2743
Pt 7.56654 21.5851 17.6835
Au 12.9115 17.4353 17.1731
Pt 15.1866 21.5978 14.3783
Au 9.77893 20.7497 18.9089
Pt 12.4131 20.3824 20.5917
Au 12.3725 17.6456 19.8737
Pt 8.48012 22.8689 20.0082
Au 9.9316 21.1723 15.8988
Pt 10.2667 21.4457 21.5182
Au 16.018 25.9137 20.3626
Pt 12.4889 23.0267 22.0142
Au 22.2201 19.9128 5.31416
Au 12.3314 23.5852 7.84955
Pt 11.2778 22.0329 10.4323
Au 9.58751 25.7629 16.5779
Pt 11.4375 23.4068 12.7708
Au 14.0379 17.8399 8.93139
Pt 15.8064 22.3469 11.7819
Au 13.4373 21.6707 12.3015
Pt 15.3278 25.1959 15.8973
Au 12.6521 26.1349 15.7243
Pt 14.0643 24.4899 11.7758
Au 12.2292 20.9559 17.7024
Pt 16.4574 24.1735 13.5336
Au 14.8273 26.3702 13.5386
Pt 15.6947 24.1384 18.2356
Au 19.6561 26.3486 17.5294
Pt 15.0116 21.7941 17.0697
Au 9.54041 25.3062 19.5277
Au 10.6223 22.2603 24.1187
Pt 14.1041 22.1129 19.4923
Pt 10.6908 8.61655 10.4628
Pt 17.2095 8.55769 8.97032
Pt 14.6131 7.99466 7.78427
Pt 18.7227 9.11356 14.3152
Pt 20.619 11.1324 8.04327
Pt 15.4648 5.47161 14.7409
Pt 16.5291 7.84313 14.6938
Pt 14.6523 7.24931 16.6445
Pt 21.46 9.4252 14.5727
Pt 16.9032 5.93067 16.8971
Pt 18.9993 7.03227 18.4974
Pt 15.908 10.1918 7.3313
Au 17.0617 10.5661 4.62488
Au 8.20037 7.52128 9.22551
Pt 11.461 7.64447 12.9061
Au 21.0442 10.484 5.48468
Pt 19.0633 12.3889 5.31938
Au 18.9327 6.50739 8.49864
Pt 13.3026 5.50783 13.0805
Au 13.2109 5.7618 8.27516
Pt 17.6922 8.353 11.6598
Au 17.2022 11.4442 14.3027
Pt 13.8889 7.859 19.2962
Au 21.4791 5.93648 16.8984
Pt 19.7791 6.77812 11.1124
Au 20.6294 4.60691 14.5343
Pt 14.7297 5.26566 18.5698
Au 25.6293 8.25238 16.1285
Pt 16.4894 7.39258 19.046
Au 15.5632 5.71798 21.1479
Pt 15.6069 8.46317 21.2221
Au 23.351 8.38826 21.2213
Pt 17.573 13.0055 23.6028
Pt 14.6669 11.7132 5.44498
Au 11.8789 11.4918 4.8188
Au 11.9269 10.2164 14.3996
Pt 12.995 9.60087 11.8867
Au 12.816 14.689 12.0611
Pt 14.2126 12.1702 8.1381
Au 17.2572 17.1141 13.2257
Pt 16.8042 19.3663 15.0292
Au 13.4495 12.2783 10.7973
Pt 19.9148 11.6233 13.4961
Au 15.1733 14.9851 13.4834
Pt 15.0279 16.8497 19.9323
Au 16.7153 12.6633 21.0162
Pt 15.0464 17.4774 14.6336
Au 14.4816 12.5703 18.6296
Pt 15.0534 12.2528 23.2484
Au 22.182 12.1674 24.698
Pt 19.0494 11.1376 21.3682
Au 13.9488 6.86927 23.0362
Pt 14.6538 9.55517 23.5632
Au 13.4724 11.3681 25.3452
Pt 14.0078 16.5349 22.5306
Pt 11.434 18.3156 8.04648
Au 12.7975 16.0295 4.83785
Au 10.8034 14.0401 4.62866
Pt 11.4454 11.3978 7.72215
Au 16.4463 13.5197 9.0766
Pt 12.5412 13.4611 6.53789
Au 10.0473 14.9115 11.3195
Pt 15.9371 19.5486 12.4208
Au 16.6537 15.6127 11.0125
Pt 21.2305 13.6359 9.26937
Au 10.3032 14.9597 14.0159
Pt 16.7826 19.9154 17.5398
Au 16.092 14.6381 18.1486
Pt 16.8263 15.6816 15.5705
Au 14.5839 14.3241 20.9269
Pt 13.1386 14.0101 23.4443
Au 16.8792 17.5469 21.8298
Pt 11.8055 18.1087 22.4351
Au 12.1138 8.72986 24.1987
Pt 9.26457 19.9426 23.3258
Au 9.85962 10.2953 24.4486
Pt 14.4376 15.9335 25.2805
Pt 14.7921 19.6941 7.14325
Au 10.2285 16.5677 5.92363
Au 13.3095 21.398 5.63675
Pt 19.155 22.0868 9.15215
Au 16.5807 16.1714 8.17312
Pt 17.1319 18.4872 6.52577
Au 19.0681 15.8381 9.43582
Pt 17.7346 20.6783 10.7845
Au 18.8114 18.2306 11.2727
Pt 20.5316 20.0743 10.2583
Au 14.1896 19.5398 16.0213
Pt 16.9285 23.0238 15.8526
Au 17.739 17.891 19.2917
Pt 17.6516 21.402 13.5455
Au 15.8265 17.3907 17.3297
Pt 12.4529 20.5608 23.2706
Au 9.84317 17.182 26.3744
Pt 19.1634 20.2096 18.9229
Au 12.9132 20.4611 26.1288
Pt 14.6888 21.6425 22.1055
Au 17.4815 20.3098 25.4786
Pt 16.8786 20.1036 22.7694
Pt 18.9407 18.9321 8.45832
Au 11.6918 24.7045 10.3479
Au 16.5543 18.3014 9.83005
Pt 18.7185 21.255 6.36086
Au 18.9033 24.7326 9.35563
Pt 20.8656 20.6159 7.62016
Au 16.5771 25.428 11.0983
Pt 18.252 23.2914 11.6027
Au 19.3875 16.2708 14.8835
Pt 20.0267 21.4241 12.3521
Au 17.5486 23.4912 7.08668
Pt 17.9823 25.5104 15.3238
Au 20.8668 25.3073 15.2108
Pt 16.6006 23.0919 9.48973
Au 14.3249 19.3447 18.8571
Pt 17.5408 22.2563 18.4136
Au 16.4655 20.3412 20.2027
Pt 18.8613 21.1571 16.0726
Au 12.0639 25.9198 13.0615
Pt 16.1847 23.1768 20.6548
Au 14.8257 24.4708 22.5689
Pt 18.4918 22.1059 21.0147
Pt 12.7849 7.01721 10.6819
Pt 20.2316 9.25783 12.0913
Pt 17.2609 5.95444 10.6235
Pt 21.9237 10.4594 17.6763
Pt 20.5339 7.13098 13.6874
Pt 21.6371 7.92492 18.9654
Pt 17.5292 8.78255 16.9398
Pt 21.4385 12.9846 6.42667
Au 25.0219 10.3943 9.19361
Pt 23.1415 11.9839 8.20884
Au 21.8466 5.43758 12.0552
Pt 18.5632 10.0959 6.7566
Au 15.0259 8.80047 5.04282
Pt 20.4189 11.4387 10.6353
Au 26.3521 11.813 11.4736
Pt 22.39 9.8924 10.0597
Au 22.8318 9.42769 7.47118
Pt 16.9822 10.3045 19.7115
Au 21.8017 7.33379 9.42426
Pt 22.9347 8.19311 16.4953
Au 16.9807 11.4557 17.1871
Pt 19.4881 11.2605 23.9904
Au 16.6359 10.9089 25.1965
Pt 20.2966 8.46381 16.6577
Au 17.3238 4.59108 19.193
Pt 17.082 15.3956 25.5146
Pt 18.484 15.7718 23.3724
Pt 14.9413 14.3686 6.51211
Au 16.5215 13.2897 4.09286
Au 22.4866 14.6698 4.6178
Pt 19.1292 13.6773 7.71091
Au 17.2269 7.78613 6.3881
Pt 23.8756 14.0132 6.73568
Au 18.6549 13.5147 10.7586
Pt 18.0756 11.3254 8.99388
Au 19.8095 15.839 12.1562
Pt 23.656 14.613 9.19793
Au 19.6043 11.0764 16.1729
Pt 23.6593 12.5663 18.0603
Au 14.1422 11.6727 13.4699
Pt 22.3993 11.7968 15.2559
Au 18.4464 12.9602 18.8823
Pt 19.2951 13.714 21.6251
Au 18.5999 15.7897 17.7079
Pt 20.8509 12.079 19.5943
Au 19.2227 4.34453 17.2497
Pt 15.9358 14.9675 23.1759
Au 17.9282 24.5925 22.1011
Pt 15.0082 20.4851 24.5109
Pt 14.7602 17.0545 6.46705
Au 15.5753 15.9487 4.17727
Au 13.6723 13.6651 4.00049
Pt 21.648 15.4975 7.37601
Au 25.8485 16.5161 10.261
Pt 17.4335 15.0001 5.9588
Au 15.9565 12.9128 11.8098
Pt 21.1326 13.5053 11.9472
Au 22.5877 15.7299 11.2288
Pt 23.7215 17.2023 8.68323
Au 17.9842 14.1025 13.4194
Pt 20.7797 13.8735 14.6042
Au 18.4291 13.5678 16.0623
Pt 23.2961 13.6582 13.211
Au 17.395 15.2671 20.4795
Pt 14.4643 19.0159 21.8508
Au 20.5453 14.8972 19.4333
Pt 20.114 13.7925 24.1731
Au 15.3735 13.3637 25.7056
Pt 13.5503 18.3393 24.4308
Au 18.354 13.0606 26.0975
Pt 18.7736 18.4599 23.9057
Pt 19.7096 18.9861 5.74959
Au 23.1611 21.805 7.13565
Au 17.7887 19.7556 4.14816
Pt 19.2536 16.6979 6.9638
Au 24.3528 19.2779 6.9385
Pt 21.7226 18.1224 7.2132
Au 21.1793 17.4693 9.72139
Pt 21.5183 18.2682 15.3882
Au 19.2207 19.139 13.9209
Pt 22.0587 20.186 19.5201
Au 21.3851 16.0401 16.8788
Pt 19.2425 23.3275 14.2381
Au 20.6449 17.877 18.8627
Pt 23.3155 18.0215 18.1355
Au 19.691 16.7881 21.2572
Pt 19.1297 19.4352 21.4179
Au 23.4576 20.6873 21.8741
Pt 20.9316 21.4358 21.5367
Au 16.7097 22.6769 23.6935
Pt 19.0882 21.2729 23.4598
Au 13.5711 22.7692 24.4819
Pt 19.1191 23.8658 17.0169
Au 26.1332 20.0298 14.5971
Pt 21.9033 22.2909 9.53377
Au 24.586 21.7923 9.50385
Au 22.0762 16.0874 13.9333
Pt 20.7408 23.7573 11.2552
Au 23.6227 23.2756 11.6067
Pt 23.8276 19.0046 13.6925
Au 19.0302 25.5782 12.764
Pt 21.1538 22.6379 16.0322
Au 18.8932 18.3561 16.6427
Pt 21.828 23.2359 13.5501
Au 20.4547 24.1227 20.9072
Pt 18.2685 24.6099 19.3645
Au 21.7269 24.5927 18.0181
Pt 21.1211 20.1533 17.1144
Au 16.9889 26.4629 17.7069
Pt 22.5507 8.07889 12.0949
Pt 25.1421 12.5744 20.7116
Pt 23.1841 10.9633 20.1476
Pt 23.5162 12.3393 10.7668
Au 23.7807 16.7133 5.93914
Pt 24.0061 9.09558 14.1524
Au 23.0222 6.49167 14.4156
Pt 24.5574 9.86357 11.7151
Au 17.9237 10.9661 11.7034
Pt 24.1626 9.12197 18.5979
Au 26.1448 11.2314 18.5049
Pt 24.832 11.6937 13.8586
Au 26.5788 9.71277 13.5204
Pt 21.0322 9.63445 20.8604
Pt 19.4224 9.89381 18.7249
Pt 16.9112 12.4737 6.70593
Au 25.7249 13.0346 8.8789
Pt 26.3276 17.2507 14.6749
Au 25.7052 15.6629 7.67943
Pt 23.8077 18.3632 11.1615
Au 27.4486 12.538 14.041
Pt 22.3853 10.984 12.6596
Au 21.7482 9.63212 23.4365
Pt 25.2332 14.2184 11.4447
Au 25.5827 9.87863 20.7882
Pt 25.5735 12.8894 16.2326
Au 24.0015 10.9878 22.7515
Pt 25.9852 14.03 18.7331
Au 20.8385 7.11094 21.5964
Pt 21.5222 12.1491 22.1794
Au 19.754 15.858 25.8327
Pt 24.3849 10.5564 16.3873
Au 17.8614 17.7811 26.3899
Pt 12.4272 11.091 22.883
Pt 16.1537 17.7796 24.2742
Pt 19.9208 14.8554 5.2187
Au 15.254 18.8454 4.51857
Au 21.2701 17.1266 4.68677
Pt 25.5723 14.4597 14.1933
Au 27.1099 10.5849 15.9858
Pt 22.8982 19.7729 9.13974
Au 28.0168 13.049 17.0616
Pt 24.549 16.4643 12.9063
Au 28.0224 15.6377 17.8597
Pt 25.7418 15.5915 16.6259
Au 21.068 13.2847 17.2312
Pt 23.6461 15.281 18.2616
Au 28.0242 15.0628 15.1805
Pt 23.3353 14.323 15.7956
Au 22.3631 15.0636 24.8613
Pt 22.8337 13.7023 20.3362
Au 23.5576 16.7487 22.8918
Pt 21.5515 14.9445 22.2724
Au 21.2561 19.829 23.8546
Pt 20.9455 17.1017 23.7093
Au 15.1583 18.6122 26.6215
Pt 21.7075 18.6246 21.5734
Au 18.2414 17.0274 4.35695
Pt 22.6304 20.8447 11.8127
Au 25.6431 19.2325 9.44978
Au 27.2862 15.7019 12.5533
Pt 23.9032 17.1049 15.6939
Au 26.4374 18.4163 12.2181
Pt 23.9266 21.7371 14.197
Au 21.4093 18.3862 12.4528
Pt 24.8393 15.2779 20.9091
Au 25.8762 16.8833 19.0603
Pt 24.5224 20.304 18.7795
Au 23.9211 13.739 22.9794
Pt 23.0001 22.0683 17.6815
Au 22.8832 22.8239 20.2027
Pt 20.4267 22.4034 18.8583
Au 24.4201 18.4267 20.7702
Au 20.524 23.302 7.28526
Pt 23.6287 19.8787 16.1708
Au 25.3202 20.8707 11.9663
Au 25.4016 21.8244 16.5681
Pt 21.5105 20.6615 14.3795
Au 25.9536 18.6781 17.0175
Pt 22.576 16.4902 20.3098
Au 23.4872 23.9219 15.7466
