561
Atoms. Timestep: 20446
Pt 11.9042 18.1924 20.1907
Au 13.6049 26.466 12.0894
Pt 13.8461 16.3053 20.1536
Au 3.5022 12.016 17.0558
Pt 10.9913 15.6329 12.5887
Pt 9.80498 12.2007 15.6341
Au 23.4191 21.8012 8.98851
Pt 10.4606 17.1174 17.6739
Au 5.61454 13.0579 9.15494
Pt 13.4648 14.7523 24.3618
Au 14.1656 16.8279 27.7344
Pt 8.36882 21.3757 18.2421
Au 17.9123 7.27004 5.5164
Pt 20.3555 12.2279 18.7731
Pt 10.8867 22.478 18.5221
Au 18.4512 18.199 4.93623
Au 21.5193 5.15263 14.0321
Pt 10.4508 16.7298 22.1354
Au 23.021 9.04559 8.82667
Pt 8.4391 22.0984 20.7359
Au 20.3421 19.121 24.0728
Pt 7.97438 16.0098 18.0516
Au 4.15898 19.2828 19.5937
Pt 17.0271 15.3005 20.3878
Au 9.6385 18.1446 24.6122
Pt 19.9778 13.6589 23.4669
Au 7.32529 23.5744 10.8822
Au 24.5476 12.203 21.6672
Pt 11.9573 17.2192 5.78342
Au 14.8536 19.2201 26.6746
Pt 20.9628 21.6903 15.8136
Au 17.4876 4.62807 10.2083
Pt 16.4336 15.6926 24.0253
Au 15.1616 6.95639 6.35769
Au 6.15923 23.0776 17.8898
Pt 16.7809 19.9889 7.8012
Pt 12.3073 14.7374 21.9958
Pt 11.308 6.78362 12.1499
Pt 16.8474 5.8648 16.7593
Pt 15.345 7.75822 8.90964
Pt 10.9963 10.1809 16.6932
Pt 21.277 15.8146 8.39843
Au 19.483 11.3611 25.0596
Pt 20.4601 9.00091 10.131
Au 16.7101 11.5462 3.63721
Pt 10.9735 23.2229 13.82
Au 27.2491 13.0014 17.5662
Pt 25.1811 13.9056 13.5853
Au 3.2977 16.8937 17.7064
Pt 24.3381 15.9929 18.1062
Au 7.85932 16.0768 5.99178
Pt 15.2817 13.0808 24.0882
Au 3.9535 16.5169 20.3804
Pt 10.1676 14.2227 17.9408
Au 23.1934 23.2824 16.5457
Pt 14.287 16.9889 25.0685
Pt 21.9661 17.7887 11.9421
Pt 17.6909 9.02052 9.52445
Au 21.6353 6.66759 9.64337
Au 12.1672 4.83588 10.2758
Pt 15.2302 8.20642 15.9164
Au 7.00556 10.8582 8.09365
Pt 10.5967 19.9138 17.3547
Au 19.2212 23.0014 22.3603
Pt 10.3694 15.4975 9.97947
Au 12.8979 6.56865 8.10228
Pt 9.79559 19.9139 12.1649
Au 5.35303 18.5319 21.9704
Pt 8.24786 18.7169 17.6
Au 11.0701 20.3473 25.4311
Pt 15.9911 8.05638 21.071
Au 5.77823 10.6565 10.5056
Pt 17.4547 21.8674 17.5207
Au 20.4165 4.80846 11.3998
Pt 20.746 7.96267 16.4981
Au 15.0101 24.6806 22.0533
Pt 11.6705 10.5736 22.3995
Au 25.3684 14.6377 22.472
Pt 14.2925 9.66514 10.4011
Pt 7.18195 19.4568 20.0291
Au 13.2856 15.7604 3.93506
Au 5.27727 15.8237 22.804
Pt 18.0769 17.6712 20.4933
Au 23.0349 22.5104 13.8242
Pt 21.1489 10.7893 8.19119
Au 14.273 14.6271 12.1787
Pt 9.84398 11.7315 18.5555
Au 9.2474 9.01932 8.52299
Pt 8.54148 16.7971 15.5257
Au 16.0486 8.92862 4.36562
Pt 19.1195 8.62471 18.7312
Au 16.3033 26.7194 17.1399
Pt 9.83887 17.642 7.5335
Au 11.6396 21.7059 7.16847
Pt 7.71793 9.71396 12.6769
Au 10.2914 13.482 25.6293
Pt 11.8942 10.9842 14.2616
Au 9.41847 23.6195 22.8252
Pt 15.4905 5.36234 12.177
Au 8.50753 24.5056 13.1113
Pt 5.17865 12.5406 19.1387
Au 9.72721 25.0253 15.5888
Au 22.0249 22.7415 11.253
Pt 17.0754 9.97453 14.6348
Au 11.2034 23.6662 8.99967
Pt 18.1763 5.89356 12.478
Au 11.5932 19.7727 5.1935
Pt 9.73315 14.1468 22.9821
Au 4.71719 22.1517 15.7237
Pt 9.90938 20.0096 20.0245
Au 5.02708 10.0185 18.2884
Pt 9.73319 14.9997 7.43098
Au 17.9186 16.0684 11.7487
Pt 13.1325 19.423 10.5046
Au 14.088 23.5738 24.3668
Pt 7.66096 13.4085 18.654
Au 16.6181 17.0214 26.4757
Pt 8.78654 9.18343 18.1466
Au 6.6974 8.25666 19.6576
Au 7.42659 13.4212 6.86813
Pt 14.843 18.5064 12.7183
Au 9.75578 25.1599 10.7604
Au 3.78475 21.712 18.2769
Pt 12.3813 14.5766 6.29105
Au 11.1901 23.0256 24.8711
Pt 15.1815 21.1755 19.2001
Au 24.3718 18.8517 20.4931
Pt 12.8536 16.7285 10.9697
Au 18.7495 4.51817 20.8532
Pt 21.5277 12.4921 21.3347
Au 12.1748 26.294 15.5899
Au 3.48095 14.7447 16.0308
Pt 13.8812 12.2082 21.8064
Pt 22.0129 13.2047 7.49152
Pt 5.51559 10.5148 15.7103
Pt 11.9189 12.7675 23.6653
Pt 8.48126 9.58099 15.358
Pt 14.8899 5.80021 18.4597
Pt 7.26567 10.8664 19.5742
Pt 6.64896 16.8659 13.5711
Pt 9.1969 17.5048 19.9312
Pt 12.5857 20.6329 19.4822
Pt 9.20406 13.8382 13.6026
Au 15.0925 3.39205 16.7123
Au 9.20293 11.5105 23.7123
Pt 15.4785 11.0105 6.02686
Au 18.5196 9.94503 5.13113
Pt 13.1074 12.0476 6.38754
Au 10.1528 12.862 5.78373
Pt 7.58073 11.3508 17.0312
Au 24.2133 14.6138 7.93693
Pt 15.7638 19.5095 10.3614
Au 8.51581 15.5673 25.0709
Pt 13.0862 17.1829 22.6808
Au 7.20418 23.7976 15.4163
Pt 18.3884 8.94671 21.3225
Au 19.4651 3.18146 18.5218
Pt 16.4917 22.3779 21.2772
Au 10.3245 15.4082 4.6554
Pt 13.9028 9.46676 21.8004
Au 11.0072 25.9118 13.1363
Pt 8.48677 10.9148 10.3969
Au 17.8406 3.20857 16.2813
Pt 21.8738 20.0156 13.7765
Pt 14.2692 20.6131 8.18854
Au 14.9659 5.12366 9.30665
Au 3.71248 19.4904 16.6951
Pt 16.7706 7.36017 14.0438
Au 5.16539 20.4241 11.3047
Pt 13.5611 11.9182 9.15106
Au 22.6595 7.68346 14.2743
Pt 7.91738 14.1825 9.49021
Au 24.9627 10.058 10.6091
Pt 15.2872 10.3659 19.6393
Au 17.294 17.8596 14.8201
Pt 7.20651 12.717 11.7907
Au 13.2777 13.6637 19.4807
Pt 20.2835 20.034 11.7185
Au 25.0029 9.12618 15.0828
Pt 8.14439 14.1963 16.0279
Au 10.1107 6.64425 9.71409
Pt 20.0519 18.1895 18.6072
Au 23.5487 17.2423 7.31573
Pt 12.0292 18.5952 12.7831
Au 15.6147 26.1629 19.7925
Pt 23.0461 11.8736 19.3741
Pt 17.116 15.0674 6.24524
Au 9.43885 18.0666 4.97524
Au 8.36541 6.47202 18.0465
Pt 8.11921 16.7707 9.26116
Au 12.3097 12.6602 16.8251
Pt 11.3743 10.7623 7.81752
Au 13.7324 11.7442 12.1601
Pt 9.91692 8.90845 11.2728
Au 16.8397 23.4139 23.7845
Pt 12.9465 4.83947 12.8787
Au 15.2551 18.3548 19.4166
Pt 18.0715 10.9772 19.7083
Au 15.0033 16.9766 16.2178
Pt 20.5163 7.3281 12.5726
Au 13.246 16.3741 14.0766
Pt 20.9906 22.167 20.3351
Au 27.7217 15.0266 10.3287
Pt 15.7174 17.2615 21.9969
Au 15.597 11.7768 26.4135
Pt 13.299 19.2806 24.294
Au 9.136 7.53444 20.5411
Pt 19.7118 23.4026 17.3565
Pt 10.6071 18.0396 10.4156
Au 17.5067 14.2052 3.76615
Au 12.9648 25.2274 20.244
Pt 9.00537 19.4331 15.1041
Au 20.4021 3.82615 16.1189
Pt 8.25839 15.5289 11.8159
Au 8.37371 6.63628 15.1081
Pt 12.0915 16.4799 8.28375
Au 9.37959 21.0651 23.424
Pt 18.4939 19.5494 16.5733
Au 19.6438 8.23744 7.57292
Pt 8.76331 19.4471 9.28672
Au 26.9175 18.7633 13.6501
Pt 19.6098 19.3 7.78519
Au 20.0929 6.91937 21.2009
Pt 20.2049 22.3343 13.2582
Au 12.2534 13.5196 13.8768
Pt 8.75726 21.8216 13.6732
Au 26.7111 10.6458 16.504
Pt 16.3698 10.7056 21.9807
Au 14.1267 6.72863 22.5023
Pt 16.0026 23.0359 14.0303
Au 18.2897 8.88286 24.0566
Au 21.7038 7.49517 19.101
Pt 7.01567 19.6283 13.3515
Au 9.3155 20.2663 6.78704
Pt 6.47343 14.2643 13.8132
Au 7.33987 8.3553 10.3376
Pt 21.982 14.3642 18.4545
Au 6.04855 15.6506 8.02561
Pt 10.9704 20.8525 9.7344
Au 3.89268 17.4117 14.92
Pt 15.9037 18.8794 24.1638
Au 20.3332 24.8099 11.963
Pt 12.1477 21.3057 12.1917
Au 18.2392 26.5157 12.1454
Pt 19.9092 20.8421 18.3241
Au 23.5258 21.4249 20.911
Pt 6.27049 18.5988 15.6555
Au 9.04166 10.4501 6.26706
Au 5.72667 15.5252 10.8869
Pt 7.50087 18.2083 11.3086
Pt 11.308 8.76226 18.9213
Pt 18.3808 8.88604 12.1831
Pt 7.9339 16.0631 22.5407
Pt 12.773 8.78324 15.11
Pt 9.81941 10.1495 20.6695
Pt 20.4925 17.736 21.5799
Pt 17.6666 13.1338 8.53484
Pt 17.7062 6.55666 19.6272
Pt 20.7192 12.9594 12.1647
Pt 23.4833 14.8568 15.6424
Pt 13.7054 7.90815 19.6402
Pt 19.3567 5.90634 17.7068
Au 5.58777 18.0961 9.46132
Au 24.9353 20.8583 18.4808
Pt 16.0255 10.9849 8.68749
Au 4.67432 17.9046 12.1519
Pt 14.867 21.1849 12.1561
Au 11.6749 7.69496 21.4948
Pt 10.2915 8.53601 13.911
Au 7.18872 18.4318 7.20004
Pt 19.0183 16.8112 7.20781
Au 19.5015 15.5974 18.9732
Pt 19.1524 11.2779 22.3676
Au 27.1053 15.7271 18.2648
Pt 19.1343 11.125 10.4608
Au 10.1087 4.81953 13.5648
Pt 13.9975 10.8489 24.1492
Au 26.1399 14.8705 15.9124
Pt 22.3355 17.2844 14.4996
Au 22.959 6.03812 11.9396
Pt 6.67808 16.7984 20.4059
Au 25.9302 13.1364 9.44923
Pt 22.3357 16.9013 19.7104
Pt 19.181 6.18663 14.9755
Au 27.4959 15.3901 13.2832
Au 12.7849 15.5142 17.308
Pt 19.784 17.7769 10.3174
Au 12.2063 13.1756 3.96252
Pt 18.6483 10.8459 7.74847
Au 20.3729 11.8843 5.74292
Pt 15.1967 13.3577 7.39724
Au 11.2779 17.8772 15.3006
Pt 7.33932 11.8457 14.3518
Au 25.7934 11.2228 19.2355
Pt 17.6536 12.5174 5.92846
Au 13.6997 9.86997 17.4619
Pt 12.9576 7.11671 17.2022
Au 15.2195 14.5623 26.5033
Pt 11.3373 15.6475 19.7541
Au 20.8215 9.93651 20.4841
Pt 21.6829 19.5896 20.16
Au 10.1359 4.91949 16.4661
Pt 16.1305 8.15396 18.3972
Au 12.0218 17.9104 26.3069
Pt 14.9504 14.708 21.9893
Pt 13.5704 21.927 14.3693
Au 15.9614 16.6735 4.27094
Au 2.98435 14.2353 18.7089
Pt 20.9045 10.2353 12.7198
Au 27.1959 17.2927 15.8787
Pt 15.0368 9.51313 13.09
Au 8.77008 22.2562 8.81254
Pt 13.8118 14.8515 9.19236
Au 7.08153 13.5688 23.5526
Pt 22.6807 13.8253 10.1866
Au 17.4529 12.4804 15.6379
Pt 15.9057 25.4949 13.3607
Au 10.7646 15.1408 15.4416
Pt 17.6238 19.8849 19.171
Au 21.1106 4.94399 19.4672
Pt 19.5784 9.04399 14.508
Au 14.9661 13.662 4.68367
Pt 5.78627 13.2388 16.4908
Au 8.65694 24.1082 18.0689
Pt 21.1085 15.1152 21.2149
Au 7.54839 9.70274 22.0225
Pt 15.1036 21.2961 23.2844
Pt 11.9405 19.1208 8.00748
Au 16.0955 19.6797 4.92718
Au 17.6252 24.897 21.252
Pt 12.9233 21.0503 16.9285
Au 15.6053 8.64254 23.8798
Pt 16.2701 22.0271 9.88616
Au 27.1313 12.9422 11.9073
Pt 19.6002 14.1628 6.92165
Au 16.0908 12.8442 13.2417
Pt 14.4837 15.957 6.58538
Au 18.8753 16.3029 25.1205
Pt 13.5981 7.01266 10.822
Au 13.5156 21.4789 25.8921
Pt 9.756 11.2488 12.9319
Au 17.7523 13.3096 18.2574
Pt 13.4609 23.362 18.4368
Au 6.8328 20.7478 22.5336
Pt 14.075 18.6823 6.42147
Au 4.45442 20.0703 14.0232
Pt 20.9545 20.9184 9.3574
Au 24.9756 8.06501 12.5773
Pt 12.146 24.0083 11.5609
Pt 16.5088 17.633 6.76764
Au 13.9873 11.0787 3.81286
Au 22.0735 5.70125 16.8416
Pt 11.5703 13.4559 8.46611
Au 21.1329 24.3489 14.9103
Pt 6.25458 22.2086 13.2528
Au 18.6643 25.0388 9.66472
Pt 12.5072 21.5345 23.225
Au 4.12259 15.3156 13.2539
Pt 14.7851 23.8002 11.5671
Au 18.2334 25.4598 18.6381
Pt 13.8894 19.597 21.5686
Au 16.9212 3.04435 12.29
Pt 18.1169 13.4602 11.2066
Au 16.1499 22.2686 6.61219
Pt 17.6647 18.7223 12.1203
Au 15.4408 15.1304 18.2601
Pt 11.2133 19.3144 22.5279
Au 9.85645 8.83294 23.2365
Pt 14.4623 17.7474 8.78793
Au 21.5702 25.1963 17.6198
Pt 16.0297 23.7663 18.838
Pt 10.3563 7.68589 16.5502
Pt 21.8744 16.5402 17.0331
Pt 5.46528 15.0968 18.5416
Pt 20.6764 15.3971 11.2814
Pt 6.48386 14.2319 20.947
Pt 16.7806 9.02436 7.05021
Pt 11.3431 11.1174 10.534
Pt 11.8228 6.34112 14.8448
Au 16.3093 21.3464 25.6608
Pt 20.2565 12.1239 14.8383
Au 21.1418 17.8677 6.02779
Pt 10.9258 12.8203 20.866
Au 24.6167 19.2543 9.04669
Pt 14.0162 7.20872 13.3946
Au 8.48129 6.87908 12.3907
Pt 9.30799 12.2483 8.39021
Au 5.1529 10.5135 13.07
Pt 5.94948 15.917 16.0026
Au 12.2741 3.61323 15.1393
Pt 24.5625 17.8046 11.4095
Au 6.56169 8.21927 16.8532
Pt 22.6913 12.7398 13.8504
Au 25.9869 18.255 18.2997
Pt 21.1083 14.8664 14.5179
Au 26.2261 19.8513 16.0934
Pt 19.3074 22.5546 10.7251
Pt 17.3581 23.9217 11.6808
Pt 11.9335 8.68195 9.49619
Au 18.4549 22.5243 8.12567
Au 19.5399 15.702 4.72692
Pt 20.2687 13.1345 9.38533
Au 27.1749 17.3844 11.3783
Pt 14.3868 5.58223 15.4098
Au 14.3183 3.24295 11.1741
Pt 8.37237 12.3989 21.3258
Au 22.6166 19.9171 7.11942
Pt 16.7599 10.4313 17.3262
Au 14.5777 14.1242 15.4662
Pt 22.3658 21.3087 18.1565
Au 16.0299 15.8277 13.724
Pt 19.0518 13.4335 20.7146
Au 16.2233 20.3318 14.4974
Pt 25.2638 15.1224 11.2492
Au 17.6468 6.59049 22.5749
Pt 7.1674 21.1662 15.7089
Au 12.0875 24.2594 22.5992
Pt 5.78474 17.6997 18.1065
Au 19.2054 3.62483 13.6675
Pt 17.3871 13.3584 22.6709
Pt 16.5687 10.7934 11.3232
Au 3.92672 13.8727 21.2243
Au 13.4851 8.7554 5.17287
Pt 24.3483 12.4672 11.6044
Au 17.4376 27.0718 14.7215
Pt 22.1227 11.1802 10.6871
Au 13.873 21.2364 5.49438
Pt 11.0543 22.0218 21.2202
Au 12.5209 10.9928 19.6576
Pt 18.984 6.87025 10.2101
Au 18.623 14.3407 13.8092
Pt 16.2887 15.4962 8.71849
Au 26.2695 13.7792 20.0303
Pt 14.6341 24.7496 16.1702
Au 23.0438 10.0647 21.9606
Pt 22.9784 15.2328 12.626
Au 18.0942 19.1678 25.6976
Pt 13.7541 22.5425 21.0466
Au 12.2928 15.1637 26.7931
Pt 18.5118 24.511 14.0068
Au 27.4216 12.7297 14.7236
Pt 7.69771 21.0239 11.1576
Pt 18.4964 11.5005 13.0792
Au 6.27803 8.17828 14.1663
Au 11.2752 8.32139 6.75359
Pt 18.1323 18.1051 23.1207
Au 4.60943 13.0252 11.7371
Pt 16.0511 12.8354 20.3446
Au 17.3244 15.1718 16.1483
Pt 23.6286 14.4209 20.408
Au 19.7756 17.2002 13.4144
Pt 9.66628 22.3051 16.1199
Au 13.7194 19.2024 15.029
Pt 17.9406 20.8641 23.504
Au 13.0251 18.3505 17.6984
Pt 13.3994 22.2102 9.98276
Au 17.3603 17.2973 17.8757
Pt 24.5745 13.3802 17.7987
Au 11.2208 25.2673 18.0134
Pt 12.1394 23.5116 16.1586
Au 20.7752 21.7993 6.84675
Pt 24.2412 19.0779 13.6337
Au 13.6804 26.4882 17.9
Pt 9.73963 13.1898 11.0836
Au 13.8069 23.3179 7.51969
Pt 21.9793 18.4726 9.23015
Au 22.8089 14.0404 23.2154
Au 15.9946 26.1703 10.6617
Pt 23.7428 11.7717 8.80646
Au 15.032 12.4449 17.6949
Pt 18.8365 15.3808 9.33119
Au 18.4595 20.8008 5.83724
Pt 19.253 20.227 21.2816
Au 14.5586 11.2612 15.1577
Pt 15.1752 22.255 16.5173
Au 20.3882 24.6909 20.0558
Pt 9.86375 22.595 11.3858
Au 16.1357 24.3148 8.69462
Pt 12.2038 13.6818 11.0018
Au 13.7368 18.4494 3.89535
Pt 15.518 16.6958 10.9558
Pt 17.6419 21.3771 12.4253
Pt 21.199 19.1012 16.2543
Pt 15.6311 13.2 10.302
Au 21.2948 21.3524 22.8362
Pt 19.264 19.8092 14.1484
Au 4.18631 12.6524 14.4007
Pt 17.0023 11.1487 24.3241
Au 17.4574 6.36021 8.02474
Pt 17.4334 17.7855 9.26882
Au 25.8096 16.6746 9.04943
Pt 23.5882 10.3979 13.1301
Au 23.5158 7.98905 17.035
Pt 17.2092 24.2927 16.2861
Pt 18.7227 15.712 22.3882
Pt 16.7657 4.70648 14.4339
Au 11.4388 10.5277 4.93143
Pt 24.0927 10.6267 17.2466
Au 25.6305 16.45 20.4625
Pt 16.2239 7.6886 11.3577
Au 23.845 9.21186 19.5585
Pt 9.36704 17.5645 13.1541
Au 20.727 9.11031 23.0972
Pt 19.5194 16.871 16.1025
Au 12.6202 8.47481 24.0503
Pt 23.1826 18.7554 18.0184
Au 12.9473 5.35663 20.4201
Pt 18.0051 8.16128 16.4231
Au 20.9967 23.6318 8.88023
Pt 11.1987 15.9573 24.4691
Au 14.7047 3.05429 13.9307
Pt 23.2267 16.2851 9.95734
Au 22.6981 19.118 22.6629
Pt 12.4042 9.23185 12.2717
Pt 24.7776 12.1013 15.3221
Pt 10.979 6.23503 18.8117
Au 16.9709 3.96447 18.8008
Au 24.6361 22.2879 11.4924
Pt 22.2282 12.5126 16.5909
Au 21.8067 11.57 23.8233
Pt 23.0427 20.1462 11.2356
Au 10.1841 24.4331 20.3894
Pt 24.4668 17.654 16.0206
Au 15.8049 5.1457 21.0401
Pt 19.9129 14.057 16.7237
Au 22.0416 15.2812 5.86259
Pt 9.00322 14.8478 20.4284
Au 13.0487 12.6057 26.1575
Pt 18.3494 20.2467 9.92476
Au 17.7823 13.6356 25.424
Pt 16.5256 19.7632 21.5323
Au 26.222 10.7433 13.1996
Pt 18.4878 22.7017 19.7211
Au 12.6103 4.40702 17.6791
Pt 21.6118 10.0139 17.9478
Au 5.71653 21.7014 20.2333
Pt 13.4112 24.5076 13.8863
Au 13.5644 25.1682 9.55096
Pt 11.2634 20.625 14.6593
Au 14.6163 27.1711 14.899
Au 6.44548 20.65 8.81262
Pt 19.3316 10.65 16.805
Au 23.4503 16.5913 22.2021
Pt 13.8395 9.51922 7.66738
Au 19.3656 25.9945 16.2129
Pt 15.7251 19.6009 17.0516
Au 22.9666 23.6339 19.2982
Pt 22.6705 8.60087 11.4448
Au 11.3432 10.6036 25.1814
Pt 5.98211 20.3231 17.8084
Au 23.6665 20.5818 15.8671
Pt 8.54028 18.725 22.164
Au 25.989 20.0208 11.3718
Au 21.1979 16.3122 23.788
Pt 18.3371 22.1071 15.1284
Au 6.90332 17.8718 24.1286
Au 25.597 21.3248 13.8361
Pt 25.1169 16.5583 13.7386
Au 14.4179 3.32234 19.4144
Pt 22.1009 10.1529 15.3045
Au 5.69943 11.7547 21.7554
