561
Atoms. Timestep: 20245
Pt 9.73422 8.16235 15.7297
Au 6.48155 6.35443 13.1562
Pt 7.05816 10.5467 10.6798
Au 6.51291 6.42489 18.4399
Pt 6.27289 9.14682 12.8776
Pt 5.57561 10.4935 17.0355
Au 7.37856 15.2945 5.27147
Pt 6.82311 15.2221 7.7959
Au 3.77816 14.8701 11.1804
Pt 6.9321 15.2954 10.7196
Au 3.67793 12.3399 16.658
Pt 6.57812 11.875 13.0322
Au 8.41021 5.46867 20.2262
Pt 4.65995 14.6606 15.6958
Pt 7.15339 10.6675 19.2089
Au 4.69127 14.1019 8.75474
Au 4.4597 19.2311 10.8967
Pt 8.54389 19.3463 7.08677
Au 3.30767 15.7929 13.7734
Pt 5.33372 16.9283 9.39648
Au 3.44502 18.5283 13.5212
Pt 5.58231 17.0675 14.9618
Au 6.78048 11.4323 23.5404
Pt 6.96628 15.0473 19.8729
Au 4.00863 14.5179 18.3779
Pt 6.39733 12.578 21.0439
Au 6.41997 17.65 6.66779
Au 7.23167 21.9436 13.5521
Pt 7.12838 18.3999 11.1006
Au 3.90305 17.1179 17.0611
Pt 4.64196 19.4184 15.7179
Au 7.60556 21.5523 21.4605
Pt 7.60603 21.3539 17.7634
Au 4.50348 21.1525 13.5068
Au 8.23647 25.1373 17.7003
Pt 7.97389 23.2462 15.8087
Pt 10.9043 6.53578 13.7359
Pt 9.02986 6.30913 11.5182
Pt 7.47535 8.72382 17.341
Pt 10.3822 5.44632 16.0329
Pt 9.12585 6.82752 17.966
Pt 5.66627 12.9947 10.9609
Au 6.76579 7.60887 10.7383
Pt 9.36314 9.18347 6.9378
Au 4.43399 10.7087 11.621
Pt 8.50727 7.92257 13.4774
Au 8.84011 4.88336 13.7769
Pt 9.13393 8.89327 10.7058
Au 13.0875 4.62898 17.4689
Pt 7.5289 9.99553 15.0383
Au 12.5162 8.53706 15.2615
Pt 8.86166 10.5715 12.7607
Au 8.22247 4.39506 17.5233
Pt 8.02475 8.36075 20.2146
Au 10.6449 4.62788 18.6958
Pt 10.5174 9.33266 21.9527
Pt 12.4193 12.0948 22.1605
Pt 9.09445 11.0146 8.79963
Au 11.2409 9.21768 4.96848
Au 5.20145 11.1832 8.86673
Pt 7.23447 12.8887 8.82775
Au 7.13288 9.02935 8.43957
Pt 11.1873 14.97 6.97477
Au 7.57424 6.31734 15.712
Pt 5.11673 16.9212 12.0899
Au 8.77823 14.5196 12.8824
Pt 8.65052 12.6879 11.0236
Au 4.48691 10.4672 14.4943
Pt 6.33047 13.0849 18.0878
Au 8.39039 11.5577 17.1115
Pt 6.0941 12.5016 15.4616
Au 5.55273 8.09675 15.4216
Pt 8.49134 10.9017 21.3948
Au 7.8314 8.87269 23.0775
Pt 8.75286 12.9138 19.6398
Au 5.24861 8.73362 19.0366
Pt 9.47618 11.0123 23.8316
Au 9.96003 14.7758 26.0918
Pt 11.3395 13.3729 24.2543
Pt 9.00748 13.4023 6.74125
Au 7.22815 11.2066 6.76721
Au 9.13643 14.8093 9.13296
Pt 7.9503 17.2802 8.93066
Au 10.9923 16.8668 9.1543
Pt 9.184 16.5755 6.87429
Au 9.28632 16.819 11.2976
Pt 5.89918 14.5888 13.1642
Au 7.5214 14.8016 15.3058
Pt 7.53838 16.8156 13.3228
Au 3.86648 12.93 13.4662
Pt 6.45882 18.3375 17.4523
Au 6.30418 15.7711 17.4544
Pt 8.53069 17.1841 15.8328
Au 4.46338 11.6302 19.363
Pt 7.93323 14.4808 22.0955
Au 4.56266 14.4673 20.9811
Pt 8.39633 17.0549 18.9023
Au 5.80383 9.8833 21.4342
Pt 8.54977 13.3357 24.3494
Au 7.53895 15.8475 24.4779
Pt 8.34624 17.1249 21.5247
Au 8.51067 17.8655 4.72962
Au 7.98676 21.7763 8.8454
Pt 6.44464 19.4347 8.79991
Au 9.221 19.4799 9.66945
Pt 10.1648 24.9097 11.8609
Au 6.48129 21.0837 11.0638
Pt 6.07194 19.1729 13.25
Au 8.95248 19.1567 13.3168
Pt 9.31288 21.3147 11.5867
Au 7.24622 19.7889 15.4611
Pt 9.93248 22.8933 17.6083
Au 9.15673 19.1492 17.5565
Pt 12.0749 24.5221 17.6105
Au 5.14861 20.4335 18.2209
Pt 8.14852 23.2018 19.5208
Au 7.17645 19.3257 19.9502
Pt 9.58851 20.9399 19.5383
Au 5.75668 13.9345 23.4645
Au 5.92342 16.4544 22.2566
Pt 10.0117 22.7331 21.4356
Au 7.95241 23.5587 11.2979
Au 8.1446 25.0522 13.7342
Pt 9.80999 23.0056 13.6946
Au 11.3738 20.6768 13.5736
Pt 12.0109 24.6579 13.7451
Au 9.54993 21.067 15.5661
Pt 10.1035 24.8526 15.7251
Au 12.3885 26.4823 19.6151
Pt 12.3165 26.4209 15.7209
Au 5.21687 17.1414 19.6353
Au 5.58204 21.9631 15.9458
Pt 10.2698 24.7344 19.5626
Pt 11.3819 7.29723 10.8975
Pt 15.1415 9.39322 8.86669
Pt 13.1032 5.88229 15.1633
Pt 13.4638 5.55393 10.9452
Pt 11.6885 7.25615 17.4958
Pt 17.6546 5.33952 18.3171
Pt 12.1511 7.27693 22.2468
Pt 12.7156 6.12813 19.6598
Pt 13.212 9.66412 22.1046
Pt 11.1303 11.1686 6.98525
Au 11.2591 7.14059 6.96439
Au 9.18201 7.01595 8.81181
Pt 11.1699 9.1319 8.88796
Au 11.4145 5.33244 9.1287
Pt 13.1 11.1824 5.07607
Au 11.1383 4.66602 11.8977
Pt 10.903 8.97491 12.9108
Au 13.3061 7.40109 12.8828
Pt 13.1523 9.35759 10.8746
Au 15.639 5.04912 16.4535
Pt 9.90765 9.4524 18.1764
Au 14.3633 7.22247 17.5423
Pt 12.7838 10.6741 13.2814
Au 11.0295 4.90972 21.4046
Pt 10.4185 7.34135 20.1097
Au 10.2924 8.4263 24.4955
Pt 12.4459 8.88235 19.6433
Au 9.36286 6.75218 22.5208
Pt 11.9127 10.5831 24.3098
Au 13.2091 10.0341 26.592
Pt 14.4447 10.9591 24.0956
Pt 11.1916 13.0207 5.09484
Au 16.9917 5.55381 7.01858
Au 9.27976 11.1944 5.0228
Pt 10.9265 12.9331 8.90571
Au 13.1047 11.282 8.92599
Pt 13.093 13.1658 6.91608
Au 10.9001 10.9672 10.9066
Pt 8.6716 12.4868 14.6852
Au 10.8531 12.5881 13.1748
Pt 12.8729 12.6898 11.2382
Au 10.5726 10.6503 15.3071
Pt 10.8291 12.4615 17.4897
Au 12.5878 10.3331 17.3592
Pt 12.6254 12.5562 15.3408
Au 10.8372 11.0908 19.9698
Pt 10.0346 13.0373 21.9726
Au 14.9842 12.7563 21.7355
Pt 11.7684 13.5835 19.7325
Au 13.0117 8.09161 24.6982
Pt 10.0144 15.5091 23.4114
Au 10.4786 11.897 26.2528
Pt 15.4133 14.1423 26.1148
Pt 11.1739 17.3535 5.35334
Au 12.9071 15.1593 4.7749
Au 9.89339 15.2179 4.45751
Pt 11.1173 18.9608 7.56227
Au 12.9137 14.8052 9.15313
Pt 13.0305 16.919 7.15668
Au 10.9874 14.6281 11.2156
Pt 10.6323 16.6305 13.6409
Au 12.714 14.6295 13.4215
Pt 12.9064 16.5641 11.3962
Au 10.5481 14.5707 15.3936
Pt 10.7657 16.567 17.5664
Au 12.6254 14.4987 17.3842
Pt 12.7779 16.4077 15.4942
Au 8.95332 14.5905 17.6523
Pt 9.96301 15.3887 20.3211
Au 12.3406 14.9097 21.9604
Pt 12.6197 16.3175 19.6423
Au 11.0476 17.2322 25.3132
Pt 11.3471 19.4147 23.6562
Au 12.7662 15.1867 26.0964
Pt 13.2328 16.6303 23.8274
Pt 10.3313 21.4514 7.4616
Au 12.2307 21.8537 5.48243
Au 10.327 19.9473 5.10574
Pt 11.4631 20.905 9.76454
Au 13.1103 18.6348 9.45861
Pt 13.178 20.8915 7.74625
Au 11.1667 18.7489 11.5604
Pt 11.7803 22.6858 15.6138
Au 13.0559 18.3378 13.5639
Pt 15.5101 22.4817 11.6027
Au 10.9881 18.5681 15.5122
Pt 11.4843 20.6125 17.5617
Au 12.9862 18.243 17.5321
Pt 13.3678 20.3542 15.5428
Au 10.9023 18.4748 19.6237
Pt 11.6899 20.6163 21.3737
Au 13.3873 18.3726 21.6725
Pt 11.8654 22.5383 19.4774
Au 8.88563 18.1415 23.9795
Pt 9.34381 19.5861 21.7796
Au 15.6057 20.5468 25.2876
Pt 13.7195 20.5961 23.36
Au 12.2176 23.5007 7.66342
Au 10.3612 26.7378 13.8483
Pt 11.6698 22.7607 11.7712
Au 11.9994 25.115 9.91366
Pt 10.1702 23.1656 9.63198
Au 13.4 20.5052 11.6611
Pt 13.7724 24.5191 11.8186
Au 13.6676 22.4249 13.6575
Pt 16.0228 25.7318 11.5284
Au 14.1607 26.4793 13.6689
Pt 14.1921 26.1466 17.612
Au 13.7396 22.2998 17.4895
Pt 13.993 24.3681 15.6031
Au 14.2662 26.0176 21.5473
Pt 12.146 24.3531 21.4459
Au 14.0211 23.9687 23.4264
Pt 14.0325 24.2319 19.48
Au 10.4701 26.7435 17.6469
Au 11.7271 22.3839 23.4624
Pt 13.836 22.2916 21.3541
Pt 13.1281 9.30935 6.98165
Pt 15.2397 5.65514 8.98568
Pt 15.152 7.47284 6.99937
Pt 15.3851 5.69417 12.9068
Pt 17.1831 5.69256 10.8574
Pt 15.2047 5.35947 19.4099
Pt 16.732 7.4551 19.521
Pt 17.5698 8.36421 21.8756
Pt 19.6394 5.98762 16.6461
Pt 15.1778 8.14542 23.2178
Pt 19.4428 9.37789 23.6617
Pt 16.9491 11.3572 4.93906
Au 15.1144 9.30147 4.8351
Au 13.2494 7.34776 5.17611
Pt 13.2393 7.36578 8.8872
Au 18.9986 5.52341 8.85652
Pt 17.0458 9.33698 6.81031
Au 15.2323 7.53948 10.8629
Pt 15.2072 9.47214 12.8144
Au 17.2662 7.60423 12.7742
Pt 17.2325 9.44573 10.7399
Au 15.2818 7.53201 14.8998
Pt 15.0133 9.42707 18.8196
Au 17.2251 7.57408 16.8348
Pt 17.2953 9.48292 14.7108
Au 16.3789 5.89498 22.1207
Pt 14.5256 7.61454 20.8116
Au 17.5739 7.50798 24.4632
Pt 19.8987 9.0554 20.9994
Au 13.8045 5.17583 21.9334
Pt 15.684 10.1713 21.3235
Au 15.5762 8.86122 25.8109
Pt 16.9019 10.212 23.7882
Pt 14.9453 13.1871 4.95076
Au 16.8807 15.2185 4.63513
Au 15.0845 11.2631 6.84842
Pt 15.1271 13.2755 8.80609
Au 17.1248 11.3621 8.75158
Pt 16.9987 13.3114 6.75343
Au 15.1981 11.3912 10.8696
Pt 14.6989 12.5043 13.3495
Au 17.2845 11.382 12.7582
Pt 17.2548 13.3056 10.7545
Au 14.5751 10.424 15.3232
Pt 14.5614 12.3898 17.3121
Au 16.6136 10.4543 17.0947
Pt 16.6858 12.3439 15.2656
Au 13.6135 11.5232 19.7038
Pt 13.9111 13.8732 23.8752
Au 18.1425 11.4931 21.5888
Pt 16.4635 12.1742 19.4241
Au 15.74 11.4796 26.5226
Pt 13.2008 12.5302 25.9622
Au 20.28 11.9468 26.5713
Pt 17.8979 13.0869 26.2215
Pt 12.9811 19.2513 5.64372
Au 14.7963 17.284 4.90648
Au 14.9881 15.1771 6.76518
Pt 14.8935 16.585 9.22539
Au 17.1701 15.2192 8.80864
Pt 16.9867 17.0138 6.80471
Au 14.7871 14.5172 11.2889
Pt 14.8823 16.2678 13.4487
Au 16.809 14.2276 13.3134
Pt 16.8418 16.2 11.3552
Au 14.7271 14.3367 15.4034
Pt 14.8508 16.1199 17.4525
Au 16.7899 14.0733 17.4521
Pt 16.9357 15.9587 15.447
Au 14.589 14.2921 19.4514
Pt 14.8782 15.9737 21.5759
Au 17.1606 14.2869 21.6629
Pt 16.9693 15.8943 19.4598
Au 17.6422 15.826 26.4138
Pt 11.012 17.3594 22.0465
Au 15.0963 16.9094 26.0853
Pt 15.9526 15.4641 23.9304
Pt 15.2978 22.7305 7.8969
Au 15.0346 21.1928 5.66891
Au 15.0044 18.81 7.32036
Pt 19.3712 21.8141 11.5269
Au 16.9729 18.3355 9.28365
Pt 17.0661 20.705 7.56358
Au 15.0868 18.2849 11.4946
Pt 15.3499 20.2564 13.5618
Au 17.0284 17.9861 13.5024
Pt 17.1699 20.1984 11.5083
Au 15.0354 18.1066 15.5232
Pt 15.3461 20.0816 17.4509
Au 17.1097 17.7723 17.4615
Pt 15.6249 22.1797 15.5423
Au 15.0537 17.8992 19.4812
Pt 15.5393 20.1217 21.4344
Au 15.4042 18.2943 23.6699
Pt 19.4982 21.7273 19.2612
Au 13.3048 18.9109 25.4432
Pt 15.9641 22.1422 23.2212
Au 17.4734 18.714 25.8616
Pt 17.6071 19.9103 23.3001
Pt 17.2716 22.3163 9.65067
Au 17.9073 23.284 7.10461
Au 15.2129 20.5039 9.57792
Pt 13.487 22.681 9.84978
Au 17.4793 25.0829 9.24588
Pt 19.6147 23.3759 9.37715
Au 14.7597 24.9768 9.25623
Pt 15.8446 24.2426 13.6843
Au 17.2751 19.9133 15.5308
Pt 17.4686 22.0256 13.5714
Au 16.1352 26.2918 15.6465
Pt 15.9378 24.1441 17.4962
Au 18.2048 25.9306 17.5664
Pt 17.7419 23.9119 11.6766
Au 13.4856 20.2023 19.462
Pt 15.6716 22.0765 19.4074
Au 17.2914 19.8315 19.3454
Pt 17.547 21.9406 17.4057
Au 16.1731 26.0701 19.5221
Pt 15.9954 24.0012 21.3709
Au 18.6502 24.3655 21.928
Pt 17.6759 21.8676 21.2604
Pt 17.1648 7.53139 8.85588
Pt 19.2514 5.88915 12.7181
Pt 19.1988 7.52066 10.6456
Pt 17.5661 5.82947 14.7705
Pt 21.5596 7.98459 16.3498
Pt 18.6263 6.07037 20.806
Pt 19.3991 7.48279 18.7384
Pt 18.9525 11.3412 6.71213
Au 18.9869 7.36315 6.68418
Pt 19.1178 9.38899 8.63374
Au 21.0493 7.39449 8.57874
Pt 20.8013 9.42709 6.57567
Au 21.4559 7.32353 12.2828
Pt 19.3657 9.41204 12.5311
Au 23.4495 7.47144 14.3686
Pt 21.2229 9.3835 10.4399
Au 19.4218 7.76805 14.6555
Pt 19.3145 9.37925 16.9215
Au 21.3207 5.78626 14.6073
Pt 22.045 6.5009 18.3108
Au 17.8764 9.82922 19.3593
Pt 20.2034 11.1922 19.4953
Au 19.8608 6.83494 23.046
Pt 21.5304 9.06799 18.8266
Au 18.225 10.142 26.1148
Pt 19.0447 11.9106 24.1434
Pt 21.9123 8.70926 22.5756
Pt 18.8318 13.2638 4.8037
Au 20.6513 11.3327 4.57592
Au 18.7498 9.37193 4.73625
Pt 19.1445 13.2933 8.55629
Au 21.1172 11.3668 8.44556
Pt 20.9836 13.2681 6.47557
Au 19.2355 11.3808 10.5816
Pt 19.393 13.188 12.6984
Au 21.3755 11.3443 12.3213
Pt 21.3622 13.2343 10.3816
Au 19.4139 11.2118 14.6702
Pt 21.6336 12.9666 14.597
Au 21.2654 13.6787 17.2697
Pt 22.4729 14.1349 22.2723
Au 18.8051 12.0859 17.3419
Pt 16.4647 12.7764 24.0037
Au 23.5182 11.7167 23.1772
Pt 19.9179 13.5858 22.0386
Au 21.8843 13.0205 19.9704
Pt 21.4056 13.0693 24.3826
Au 21.6376 10.3593 24.8152
Pt 20.9469 11.253 22.2916
Pt 16.7806 19.1417 5.34065
Au 18.8503 17.3939 4.70589
Au 18.9737 15.2468 6.57846
Pt 19.3175 17.1233 8.73357
Au 21.1552 15.1589 8.46984
Pt 18.9121 18.984 6.97692
Au 19.3266 15.1316 10.7045
Pt 18.9078 15.9021 13.3559
Au 21.4591 14.9757 12.566
Pt 23.364 15.1172 10.2233
Au 18.9547 13.975 15.3202
Pt 19.0856 15.6777 17.4335
Au 19.2424 16.0578 21.4465
Pt 21.0852 15.6795 15.3405
Au 18.9206 13.8002 19.4805
Pt 17.8756 17.036 23.8943
Au 17.1067 17.8304 21.4201
Pt 24.3978 12.5303 20.7406
Au 20.2983 14.7045 26.21
Pt 19.9017 18.182 23.0958
Au 19.9469 17.3933 25.7519
Pt 21.5241 17.6422 21.1237
Pt 19.9545 21.5001 7.39621
Au 24.1978 21.9258 8.93749
Au 20.8139 19.6503 5.32774
Pt 19.0484 20.1394 9.4631
Au 21.4199 17.0964 10.5253
Pt 21.5261 21.4154 9.5383
Au 18.8762 17.9797 11.3498
Pt 19.4466 21.7992 15.424
Au 20.9798 17.6786 13.3191
Pt 21.2462 19.6746 15.3321
Au 19.1296 17.6726 15.4712
Pt 17.7683 23.9975 15.5181
Au 21.2217 17.6679 17.3765
Pt 23.3763 21.4389 15.2238
Au 19.2448 17.7457 19.3405
Pt 19.3203 19.7908 21.191
Au 21.5382 19.8908 19.5757
Pt 23.2717 19.5274 17.1731
Au 19.8983 20.1217 24.8384
Pt 20.3852 22.2676 21.634
Au 18.6945 22.3307 23.7806
Pt 21.7658 23.1014 19.3554
Au 22.6269 21.0107 6.95489
Pt 21.4341 23.5139 11.3986
Au 22.1677 23.7808 8.65873
Au 19.1661 19.8209 13.4825
Pt 19.6317 23.7477 13.4805
Au 21.6607 25.5332 13.3053
Pt 21.3271 21.6407 13.3987
Au 18.0256 26.042 13.5119
Pt 19.7349 23.6313 17.4151
Au 19.3654 19.7488 17.4048
Pt 19.9589 25.4932 15.4817
Au 21.8276 25.3244 17.5329
Pt 17.7992 23.8241 19.3696
Au 23.5151 25.2768 15.3548
Pt 21.4918 21.5253 17.2864
Au 20.082 25.1368 19.7123
Pt 21.5503 9.41771 14.1733
Pt 23.8903 8.43211 18.1015
Pt 23.6901 9.65806 15.8877
Pt 22.8166 9.43761 8.28375
Au 23.5645 9.11805 12.1073
Pt 23.4942 13.1939 12.116
Au 25.9488 10.3033 14.4837
Pt 23.5363 11.2033 13.806
Au 21.4501 10.9951 16.5877
Pt 23.4331 11.103 18.3457
Au 25.9737 10.029 17.2223
Pt 24.1781 12.3441 16.0809
Au 20.1841 4.7672 19.0417
Pt 21.1702 6.82873 20.6881
Pt 22.7992 10.3681 20.7711
Pt 20.9009 17.1345 6.52725
Au 22.8418 11.2847 6.23039
Pt 23.1255 13.2552 8.24235
Au 25.5329 11.2095 11.8694
Pt 22.8339 15.281 6.45547
Au 23.3523 11.1881 10.2469
Pt 25.4293 14.9684 12.0474
Au 27.458 14.8383 14.1355
Pt 25.569 13.0164 13.885
Au 23.5851 14.8133 14.4015
Pt 23.9416 13.7397 18.2916
Au 27.6534 14.3589 17.8286
Pt 25.5438 14.6646 16.1947
Au 25.3688 9.99892 19.9444
Pt 20.8772 15.8035 23.6253
Au 23.145 15.1537 24.78
Pt 25.9931 12.3309 18.4576
Au 23.6205 7.7994 20.6129
Pt 18.5719 14.5392 24.1221
Pt 23.4204 16.7019 22.5548
Pt 21.3782 19.0733 8.3536
Au 18.4111 21.1954 5.24732
Au 20.8131 15.2136 4.59099
Pt 23.1357 17.0882 8.39896
Au 25.0533 15.244 8.07451
Pt 23.3901 19.0385 10.4119
Au 25.3877 13.224 9.94074
Pt 25.5593 16.7369 14.2791
Au 24.8254 11.2524 8.03798
Pt 25.2171 17.1047 10.1689
Au 21.2154 15.62 19.3434
Pt 23.3816 17.6049 19.0935
Au 26.4368 14.2596 20.3737
Pt 23.2028 15.7966 17.0874
Au 27.1041 12.3831 15.9773
Pt 23.7708 15.2834 20.3472
Au 25.0533 14.4812 22.7348
Pt 25.6459 15.9947 18.5683
Au 25.5974 17.1356 21.0413
Pt 21.5943 20.0605 22.563
Au 22.2688 18.1535 24.4143
Pt 23.7069 19.2351 21.1229
Au 23.9679 23.9788 10.7591
Pt 21.0376 19.7136 11.4142
Au 23.1702 18.3609 6.05007
Au 23.5487 16.8891 12.3574
Pt 23.1015 19.5933 13.249
Au 24.6909 19.2737 8.11691
Pt 23.3193 21.4845 11.4634
Au 23.0918 17.6089 15.1096
Pt 25.1647 17.7491 16.8442
Au 27.4603 16.5952 16.2485
Pt 25.454 18.7264 12.4057
Au 25.6016 19.1831 19.0959
Pt 23.5419 23.2162 17.235
Au 25.5376 21.1697 17.0399
Pt 23.7553 21.2464 19.0459
Au 23.0515 21.9245 21.4535
Au 19.7149 25.5954 11.2016
Pt 23.381 23.388 13.3519
Au 25.7721 20.3714 10.4516
Au 25.4388 21.4621 13.1157
Pt 21.5881 23.4577 15.393
Au 27.2195 16.8278 12.1232
Pt 25.1753 19.4933 14.9696
Au 25.3678 23.251 15.2254
