561
Atoms. Timestep: 20728
Pt 7.165 19.4358 12.4126
Au 19.492 26.6923 13.5077
Pt 22.0685 13.0604 18.8515
Au 6.08758 9.7975 18.5388
Pt 25.1818 11.1267 14.8253
Pt 9.33847 14.1398 21.5002
Au 17.6515 23.0942 6.83492
Pt 11.1008 10.6337 19.1865
Au 17.8206 3.4579 11.3712
Pt 17.3233 14.9802 10.518
Au 15.1212 27.887 14.286
Pt 13.4216 19.5269 16.9852
Au 20.5642 12.9355 7.06782
Pt 22.6818 13.4997 8.94408
Pt 22.0369 20.589 15.5279
Au 4.97053 18.3234 10.8477
Au 18.7673 14.1647 5.37087
Pt 20.192 22.3881 14.1554
Au 14.5903 24.0502 22.9154
Pt 17.4806 15.5909 13.01
Au 15.0249 20.0331 25.1578
Pt 15.2628 17.6594 16.4107
Au 12.9864 3.54106 16.5443
Pt 13.2859 24.0469 12.0736
Au 18.4559 5.28632 20.7717
Pt 13.3468 21.1975 19.0931
Au 12.519 22.0332 5.29325
Au 24.1499 11.0909 7.93052
Pt 7.00979 20.3253 14.911
Au 17.7144 18.096 25.6435
Pt 12.636 22.8671 21.0839
Au 18.8776 21.0876 5.43374
Pt 18.4339 17.1855 22.0069
Au 23.6374 6.91144 10.8214
Au 21.3613 15.2054 5.73828
Pt 19.5363 20.9792 16.2277
Pt 13.2042 8.08436 16.5842
Pt 9.51469 19.6986 8.34753
Pt 16.8793 21.3971 9.27949
Pt 10.2782 17.7062 9.94584
Pt 23.417 16.4132 12.5993
Pt 16.2512 17.7325 6.74614
Au 7.80192 7.80691 19.0259
Pt 20.0087 13.7571 17.0958
Au 5.62331 9.02085 14.0631
Pt 21.2595 18.2259 11.5965
Au 22.2291 7.78018 18.4294
Pt 18.9243 9.80975 21.0044
Au 6.5299 14.6314 8.02394
Pt 8.08861 15.2012 19.2847
Au 22.1118 5.16225 17.528
Pt 19.2333 11.9674 22.4847
Au 7.648 21.5638 21.825
Pt 19.5946 13.8997 12.2712
Au 22.7967 5.11162 14.9173
Pt 17.9165 21.8465 20.5288
Pt 14.492 8.12175 20.9812
Pt 13.5473 10.8302 20.6725
Au 15.6104 14.6945 28.1568
Au 5.84267 17.3615 8.44322
Pt 7.62419 17.7768 14.6863
Au 11.0612 8.91967 6.42776
Pt 7.67461 21.3989 10.3702
Au 4.30324 17.3866 18.5632
Pt 20.0132 19.0558 14.357
Au 12.6284 5.96053 20.5202
Pt 7.55604 16.0796 10.1546
Au 14.7485 20.4465 4.67492
Pt 9.42747 21.0832 16.2553
Au 24.4114 9.40082 10.0893
Pt 11.7483 13.0681 20.3518
Au 26.3027 9.12991 16.5258
Pt 5.89385 14.4164 13.1336
Au 18.6693 11.154 25.1854
Pt 19.4063 8.33295 12.6059
Au 17.2239 19.043 4.59586
Pt 13.4663 10.4659 13.4424
Au 24.3812 17.9623 20.8377
Pt 17.3033 19.3266 16.3144
Pt 14.9374 11.4995 7.06323
Au 22.0241 17.6368 6.69679
Au 25.3846 13.5302 8.42238
Pt 19.2805 22.6265 18.3425
Au 22.1292 8.36025 8.79484
Pt 16.0716 23.23 14.7342
Au 17.1626 16.3015 4.57332
Pt 12.5777 8.45992 19.1522
Au 21.3345 11.9273 24.1183
Pt 11.6751 10.2571 16.4219
Au 10.0141 6.07135 19.385
Pt 6.48486 16.8027 12.4256
Au 10.1637 23.2212 7.01608
Pt 15.0831 17.3358 25.1321
Au 12.2401 5.85916 17.7635
Pt 21.2702 20.4993 18.3452
Au 26.4588 11.2241 9.46852
Pt 9.89961 15.6858 23.953
Au 3.32629 18.0168 16.0286
Pt 24.4224 14.6996 17.8212
Au 21.7767 10.5458 6.77685
Pt 14.1074 19.134 12.602
Au 16.3409 27.6308 16.7789
Au 14.2581 14.9529 4.68578
Pt 16.0211 17.3626 11.3145
Au 24.132 21.7721 16.5083
Pt 17.7328 17.0071 8.87342
Au 9.81347 11.4448 6.17954
Pt 19.8482 14.7356 19.6182
Au 6.44893 12.4461 18.4931
Pt 8.9967 17.4064 12.2738
Au 7.84716 21.7233 7.59309
Pt 13.2938 14.0086 10.2627
Au 25.8039 8.31595 12.1524
Pt 20.93 6.80678 11.1483
Au 19.4158 19.1134 23.6007
Pt 22.4198 13.9927 16.3063
Au 17.5735 4.53913 8.98354
Pt 9.69566 20.1921 11.505
Au 21.2143 24.6116 12.435
Au 14.6723 17.7313 4.48901
Pt 13.4143 11.5651 9.39837
Au 8.96276 13.9253 6.9588
Au 23.6355 8.11792 20.9956
Pt 12.2853 16.9703 24.8922
Au 17.7513 28.4383 14.6207
Pt 20.3655 16.373 13.1469
Au 16.0021 10.0808 25.6379
Pt 12.7376 12.7873 12.5485
Au 6.68786 11.0111 16.1032
Pt 19.7825 18.3556 17.0375
Au 19.1764 10.909 5.71012
Au 17.7361 4.91918 15.8796
Pt 18.96 14.5174 14.855
Pt 6.7065 16.0972 16.9967
Pt 10.8339 12.7106 17.644
Pt 14.3389 9.51936 10.9418
Pt 9.8945 8.69087 20.293
Pt 11.7116 10.5527 11.2506
Pt 20.5579 18.1267 8.81022
Pt 14.4879 10.6017 15.9383
Pt 26.0299 11.0303 12.1022
Pt 11.7664 20.0169 9.9826
Pt 9.7452 8.70057 12.7895
Au 9.77573 26.8299 13.6489
Au 4.79606 18.9865 13.7195
Pt 13.0644 5.94014 14.8093
Au 11.9182 23.967 23.3222
Pt 18.459 18.0165 12.3438
Au 5.1674 16.4385 14.8314
Pt 10.5867 22.1806 14.0828
Au 4.00241 13.0452 11.7908
Pt 18.5341 19.1697 7.33413
Au 21.6669 14.6573 23.8713
Pt 9.61397 19.5236 14.0862
Au 25.5193 15.489 20.4063
Pt 18.5439 14.4929 8.23961
Au 21.0713 8.12944 21.2954
Pt 24.1186 12.0405 10.5284
Au 12.3925 3.01901 11.7228
Pt 11.7747 7.85879 11.2759
Au 17.7326 20.7497 25.0064
Pt 19.9713 22.7628 11.0451
Au 22.0988 18.3219 22.5339
Pt 14.5677 22.3418 17.0067
Pt 9.59649 19.5526 21.249
Au 15.3753 5.97025 8.10713
Au 12.0852 26.0977 18.7032
Pt 22.8853 15.3451 20.0128
Au 15.5623 24.9655 16.8645
Pt 8.71822 10.2739 17.9328
Au 16.291 15.0272 6.79948
Pt 8.05531 20.2451 19.3503
Au 22.8444 9.79026 23.1248
Pt 16.4729 8.07402 9.75783
Au 17.3417 23.6419 22.7105
Pt 11.3929 23.3625 18.6946
Au 16.7888 12.6869 26.5218
Pt 16.461 20.63 6.73404
Au 21.5518 22.9557 16.7785
Pt 13.8163 7.06105 9.9855
Au 20.3997 24.3515 8.97944
Pt 11.5788 18.4622 12.326
Au 17.8826 6.87119 7.68261
Pt 5.80559 18.5678 16.6623
Au 5.24559 19.843 19.1677
Pt 20.9077 16.3412 15.576
Pt 7.80124 10.3129 13.6595
Au 6.73814 23.644 11.7023
Au 11.4965 13.6596 5.39439
Pt 11.9107 17.6887 20.5471
Au 21.9985 18.123 19.674
Pt 19.0802 16.5892 6.65785
Au 15.1069 22.9447 5.62803
Pt 20.2307 13.239 9.82199
Au 8.11369 11.9206 23.0385
Pt 9.78503 15.1674 9.36748
Au 12.3224 11.113 23.4438
Pt 14.7187 6.703 18.7672
Au 9.30417 23.4678 22.8564
Pt 16.9455 25.815 14.7178
Au 19.2825 21.7492 22.8632
Pt 17.4448 12.7443 20.6094
Au 4.30168 20.6292 15.9921
Pt 12.6717 14.2935 24.7294
Au 9.84239 17.9156 25.6579
Pt 13.7519 21.3714 23.093
Au 13.5999 27.0784 16.4906
Pt 16.6105 19.9867 11.6527
Pt 17.8149 23.7827 9.40099
Au 16.0554 7.27811 23.1241
Au 17.4391 12.3571 7.11303
Pt 18.1131 7.5583 14.8513
Au 27.4058 14.4146 16.1351
Pt 16.4957 21.0986 22.7143
Au 17.0112 3.14711 13.9551
Pt 22.5004 7.62634 13.1523
Au 24.4225 6.72128 16.6005
Pt 17.4111 15.5586 20.0555
Au 5.23146 21.0439 11.4102
Pt 14.1088 15.9671 23.0993
Au 20.1957 4.32059 10.4784
Pt 21.5931 10.9602 21.1856
Au 19.9434 8.61866 7.13131
Pt 6.68211 21.1814 17.3255
Au 11.4116 12.5202 26.2972
Pt 17.132 7.20455 17.382
Au 17.3034 9.45958 7.2371
Pt 21.7878 20.6793 12.8482
Au 26.0195 10.8572 18.8565
Pt 21.2872 9.82753 14.1446
Au 17.6539 25.9158 18.5029
Au 20.3424 4.01312 15.7361
Pt 17.4325 13.736 18.0655
Au 19.4935 4.51414 18.3581
Pt 16.6834 23.4086 18.7744
Au 26.72 16.2245 18.1474
Pt 12.5625 22.8062 9.7939
Au 5.70324 13.723 15.9874
Pt 10.1619 23.8162 16.2303
Au 12.2531 14.4774 28.487
Pt 10.6365 6.6216 15.5925
Au 13.7015 13.9404 7.181
Pt 21.322 13.5347 21.4679
Au 5.04472 23.1823 16.3783
Pt 13.6086 15.7846 26.7241
Au 10.9248 21.3564 23.2732
Pt 16.9618 7.45851 20.1792
Au 8.79882 24.3852 13.5642
Au 9.86011 3.98786 12.0112
Pt 11.954 21.751 16.6556
Pt 22.3413 18.3826 16.8386
Pt 15.0428 16.3435 13.8631
Pt 15.8904 20.4869 18.6722
Pt 10.9426 6.16674 13.0524
Pt 19.7224 11.0589 11.7514
Pt 10.3987 8.17336 17.7201
Pt 14.5197 9.05548 8.13863
Pt 17.8176 12.4685 10.3772
Pt 12.0393 8.99637 21.7658
Pt 15.6487 13.4091 9.06574
Pt 9.13202 11.3613 11.7202
Pt 16.4554 18.5824 23.268
Au 8.41532 6.15008 16.9315
Au 26.187 16.7058 15.6005
Pt 20.4414 6.21544 13.9983
Au 17.6636 15.4348 26.43
Pt 10.869 10.9258 13.7706
Au 13.8298 16.6124 29.1573
Pt 10.6962 15.3304 19.3421
Au 25.504 17.1518 10.9371
Pt 14.2269 25.2674 14.3868
Au 6.75737 13.3153 21.0463
Pt 13.5753 15.5703 20.3642
Au 27.1533 11.7543 16.453
Pt 17.4348 22.5124 11.7431
Au 22.3465 4.84974 12.2659
Pt 14.9841 21.8964 12.6618
Au 7.73029 10.4153 20.6505
Pt 24.3588 14.78 10.618
Au 23.7067 15.5787 7.53786
Pt 18.5422 24.1597 13.3948
Au 5.09575 10.3482 11.6627
Pt 13.4135 5.33777 12.2087
Pt 10.9553 15.6963 11.7834
Au 19.9615 3.64257 13.1151
Au 10.5993 15.1689 26.4546
Pt 19.3801 8.75941 9.87025
Au 6.3891 16.1172 21.4104
Pt 17.032 15.9347 23.8122
Au 15.5257 24.5531 7.80165
Pt 8.8588 22.5755 18.3439
Au 10.3831 7.14438 8.55483
Pt 15.3896 7.93285 15.1486
Au 20.1487 9.5188 23.5099
Pt 13.4058 13.4067 22.2959
Au 19.3709 13.7818 25.0581
Pt 10.0805 22.0997 20.6589
Au 3.79857 16.2543 12.4915
Pt 14.134 18.2089 19.1287
Au 20.3976 23.0151 6.6223
Pt 18.5303 16.0325 17.4563
Au 14.2474 7.90862 25.3085
Pt 15.2835 22.4438 20.8134
Au 15.2006 3.14873 11.7269
Pt 15.6318 5.54986 13.8173
Pt 14.0598 7.76719 12.8287
Au 8.70823 9.31473 7.66757
Au 9.20373 9.0871 22.852
Pt 15.9008 5.68302 11.0525
Au 6.88089 24.3863 17.9177
Pt 14.9296 13.1932 16.8847
Au 8.86968 25.556 11.1787
Pt 22.0778 14.4191 13.7839
Au 12.176 19.7314 25.095
Pt 16.2069 10.7616 9.27231
Au 25.3246 18.1724 13.4501
Pt 15.5306 11.8363 22.1892
Au 14.8195 26.656 18.9476
Pt 24.6097 8.47865 14.5212
Au 11.4556 3.72415 14.2456
Pt 14.8371 13.2175 19.7523
Au 24.4297 12.9563 20.1292
Pt 10.4975 23.3654 11.6521
Au 10.6776 24.8989 20.9214
Pt 12.2911 11.2525 7.05135
Au 10.3183 4.21464 16.8102
Pt 10.8329 20.3711 18.6655
Pt 17.4053 12.6644 12.9894
Au 22.7989 20.4804 20.9044
Au 14.5872 12.1432 24.6448
Pt 10.2711 11.2267 21.608
Au 20.3322 6.25496 8.58078
Pt 17.0058 9.67798 16.214
Au 16.2487 25.9735 10.0132
Pt 14.9085 13.1703 14.1993
Au 18.6524 7.43337 22.3647
Pt 20.9189 16.228 21.6144
Au 13.9592 12.8595 27.1527
Pt 14.0747 19.4319 7.17779
Au 19.9003 18.474 5.06323
Pt 12.3172 16.095 9.2298
Au 14.177 3.27023 14.1702
Pt 16.0219 18.9909 9.05281
Au 6.1653 22.3552 19.6403
Pt 16.2922 11.4374 18.2923
Au 23.034 17.1026 9.72121
Pt 23.6738 10.2183 12.746
Au 20.269 25.0471 18.0589
Pt 17.6318 21.1188 14.1768
Pt 8.48289 14.509 12.0339
Au 14.2488 26.7287 11.9135
Au 13.3018 25.6108 21.1479
Pt 12.5531 12.6294 15.3936
Au 6.91431 8.31874 16.4076
Pt 12.0371 9.26056 8.94018
Au 12.4278 27.3344 13.9587
Pt 9.343 16.4175 16.9516
Au 10.839 18.2413 23.1085
Pt 15.315 15.6605 18.3229
Au 12.2792 19.2721 5.12448
Pt 19.2715 20.549 12.2364
Au 13.692 16.7128 6.8339
Pt 15.6007 17.1841 21.1574
Au 9.05693 16.8403 21.3819
Pt 9.55585 9.07627 10.2191
Au 9.48069 15.5407 4.88497
Pt 9.82293 17.9615 18.9913
Au 10.5883 6.81418 22.1469
Pt 21.7616 11.0494 9.44293
Au 20.1387 19.8063 21.0273
Pt 22.8188 11.9356 14.67
Pt 10.3056 13.5736 13.7173
Pt 13.6157 18.5441 23.0113
Pt 24.9463 13.9308 15.264
Pt 11.0506 14.7835 16.0599
Pt 18.1141 5.56762 13.0533
Pt 16.3691 18.5839 13.9191
Pt 18.5903 20.0713 18.6405
Pt 17.3862 10.0091 11.4902
Au 23.0693 19.5924 8.62497
Pt 9.42959 11.6736 15.724
Au 24.8025 19.0705 16.0218
Pt 15.9995 10.3047 13.7243
Au 6.13304 24.7234 14.251
Pt 12.9726 17.6738 14.8197
Au 23.9304 5.95326 19.3351
Pt 22.0315 7.67387 15.7022
Au 19.0226 26.7185 16.2698
Pt 9.00321 12.5306 19.4833
Au 11.5238 26.0851 11.5774
Pt 11.6289 15.5398 22.1092
Au 10.7519 24.8056 9.20154
Pt 10.4528 16.8274 14.4111
Au 5.40462 12.5051 9.44548
Pt 12.2938 20.1612 14.4818
Au 9.42912 25.3864 18.4007
Pt 11.5471 24.7242 14.0435
Pt 8.17289 15.3208 14.6259
Pt 11.6735 18.3764 7.68547
Au 7.62859 22.9906 15.5925
Au 17.2988 9.85893 23.2268
Pt 17.9907 9.43758 18.623
Au 7.19654 10.4049 9.79815
Pt 11.9685 21.1559 7.66058
Au 7.14794 8.47851 11.7176
Pt 11.3811 13.4116 8.25981
Au 23.512 12.6829 22.6814
Pt 15.3391 14.6072 25.2189
Au 11.4696 5.28726 10.2213
Pt 22.5791 18.3763 14.0905
Au 14.1806 4.08067 18.9079
Pt 18.5017 23.9725 16.1242
Au 13.6642 18.5918 27.1017
Pt 17.1165 21.8588 16.757
Au 22.1118 22.2873 8.61968
Pt 8.18128 21.8342 13.0223
Au 15.7281 22.5942 24.7812
Pt 16.5242 15.14 15.7603
Au 8.45197 16.7662 7.58635
Pt 24.4017 13.1944 12.8412
Pt 21.5409 16.0014 17.9801
Au 8.95115 4.74862 14.4776
Au 9.82213 18.1003 5.6554
Pt 13.4424 16.5615 11.6894
Au 11.6269 8.51779 24.3708
Pt 17.4318 19.2853 20.857
Au 24.6904 10.5383 21.3182
Pt 18.6074 10.2943 14.2003
Au 9.93055 20.7839 5.86784
Pt 14.3158 20.7548 10.3529
Au 9.05862 6.51081 11.1435
Pt 15.8861 14.5194 21.8972
Au 12.9183 7.06046 7.33419
Pt 6.7352 12.3626 11.7915
Au 11.5229 17.2266 27.8016
Pt 21.5208 11.3028 16.8503
Au 16.7938 4.78144 18.6475
Pt 10.9046 18.719 16.3986
Au 26.0014 15.4041 13.1043
Pt 13.6303 18.286 9.7282
Au 5.37611 14.9234 19.0832
Pt 19.2233 10.979 8.61126
Pt 16.8297 17.8839 18.595
Au 7.78261 17.334 23.7658
Au 8.10841 23.8756 9.24539
Pt 18.6086 19.301 10.0082
Au 16.2663 13.152 4.75909
Pt 17.1048 12.3874 15.543
Au 21.2976 5.6511 20.1406
Pt 12.2993 21.4101 12.1516
Au 13.4729 25.4366 9.57101
Pt 19.8401 6.53689 16.6912
Au 14.4792 9.5268 23.2806
Pt 17.1389 13.056 23.8173
Au 7.38513 11.797 7.49183
Pt 15.2089 23.3455 10.2507
Au 7.90426 7.15795 14.0476
Pt 19.3435 21.5755 8.5659
Au 6.90197 18.9336 21.6391
Pt 8.12546 13.1663 9.70824
Au 19.7127 16.4851 24.3669
Pt 12.3034 16.9069 17.7478
Au 10.8786 26.4921 16.1799
Pt 16.0096 24.656 12.4039
Au 20.8105 22.4568 20.5474
Pt 15.0207 5.61598 16.4661
Au 22.7494 22.5432 11.2946
Au 24.3195 20.7317 13.8215
Pt 15.2047 14.5392 11.9507
Au 13.1088 10.2816 25.9657
Pt 21.9331 12.3049 12.0208
Au 18.8854 25.5244 11.0639
Pt 23.6034 16.3005 15.4556
Au 27.1408 12.8182 13.8095
Pt 19.4411 7.3198 19.175
Au 15.996 17.3051 27.6615
Pt 12.7844 24.4279 16.576
Au 8.35553 13.7805 16.9694
Pt 11.9634 8.46793 14.2308
Au 23.7538 19.3718 11.3831
Pt 19.651 12.1032 19.5717
Pt 14.52 21.9497 8.00767
Pt 7.73896 18.6674 9.96792
Pt 21.8057 14.985 11.1206
Au 22.8174 23.0181 14.1668
Pt 21.7288 9.345 11.3248
Au 7.40247 19.1448 6.83626
Pt 13.9947 24.0048 19.0346
Au 15.4139 5.42883 21.1391
Pt 19.5729 16.2745 10.5796
Au 24.0775 19.8787 18.574
Pt 24.2026 17.1835 18.1859
Au 8.20237 25.7583 15.8686
Pt 13.3612 11.4622 18.1795
Pt 8.31954 18.8828 17.0164
Pt 10.7609 13.1662 10.879
Au 5.81903 20.1688 8.83964
Pt 11.023 15.834 7.01151
Au 5.03843 11.7815 14.0067
Pt 12.1713 20.1712 21.1935
Au 26.6356 13.4734 11.0643
Pt 19.8345 9.08104 16.4035
Au 9.96993 10.793 24.7807
Pt 18.3924 6.44979 10.6324
Au 8.89963 13.352 25.3279
Pt 9.3845 9.00802 15.4645
Au 23.6036 15.8087 22.4493
Pt 21.1147 20.4505 10.2215
Au 27.2731 9.77545 14.0728
Pt 15.094 9.17127 18.2721
Au 23.0352 22.4148 18.9581
Pt 10.0434 22.0439 9.44711
Au 23.216 13.1329 6.37988
Pt 16.2846 10.0429 20.6047
Pt 10.7327 13.1702 23.4059
Pt 10.0226 11.317 8.95426
Au 26.6892 13.499 18.5938
Au 16.1921 10.4352 4.98383
Pt 19.411 17.5 19.5725
Au 13.6066 9.44694 5.53355
Pt 13.3103 22.7117 14.5152
Au 20.8776 24.9851 15.1332
Pt 23.1905 10.5089 19.0915
Au 7.44493 14.6127 23.4192
Pt 13.7806 15.3939 16.0368
Au 5.11574 15.1293 10.404
Pt 24.3156 12.1363 17.209
Au 6.98666 17.6774 19.2016
Pt 14.8166 19.8301 21.0838
Au 15.5814 7.74162 6.04697
Pt 12.5984 15.0791 13.7708
Au 3.75972 15.4061 16.8729
Pt 18.8981 11.4257 17.1031
Au 25.0112 8.37833 18.7508
Pt 18.901 14.558 22.3155
Au 17.0203 27.2174 12.3224
Pt 7.73294 12.8361 14.2027
Au 5.37631 22.1457 13.8335
Pt 23.5418 9.62181 16.5878
Au 13.3069 6.7542 23.0403
Au 15.7335 3.10341 16.5232
Pt 15.116 16.0616 9.14376
Au 12.0134 16.5339 4.59974
Pt 15.1792 11.9466 11.5649
Au 18.8434 24.4078 20.4701
Pt 14.9954 20.5049 15.0655
Au 8.67808 19.87 23.8096
Pt 16.6379 7.80592 12.5669
Au 13.9216 4.27392 9.63885
Pt 20.201 12.3233 14.5039
Au 24.7085 6.09182 13.3087
Pt 21.0414 15.5341 8.4133
Au 16.0978 25.1653 20.8174
Au 12.814 23.9548 7.25531
Pt 20.645 9.78127 18.9103
Au 3.51607 14.202 14.3212
Au 13.714 12.1409 4.78591
Pt 12.8407 14.2478 18.1831
Au 21.0921 20.2736 6.89352
Pt 18.2539 17.1575 15.0613
Au 8.074 24.078 20.4933
