561
Atoms. Timestep: 20123
Pt 7.02135 7.31521 14.7986
Au 5.30857 7.12539 12.7902
Pt 7.09679 11.0088 10.767
Au 4.97147 9.17478 14.7265
Pt 5.13329 11.0479 12.6891
Pt 5.09705 11.07 16.7413
Au 3.48823 13.3028 8.91047
Pt 5.37092 15.2204 8.81385
Au 3.20027 13.208 12.6058
Pt 3.61377 15.1729 10.8132
Au 3.27577 15.026 18.7193
Pt 3.45307 15.0211 14.7879
Au 7.55245 6.32677 17.2906
Pt 5.15914 14.9247 16.8373
Pt 7.01057 10.9655 18.8126
Au 5.33992 13.2653 6.90842
Au 3.00884 19.4688 12.0236
Pt 6.8459 17.7623 6.55766
Au 3.19986 16.9167 12.8628
Pt 5.24618 17.1323 10.9025
Au 3.18957 16.9816 16.7321
Pt 5.19374 16.9814 14.8454
Au 7.14979 16.566 24.6604
Pt 5.15705 16.9006 18.8179
Au 5.0302 14.923 20.8784
Pt 7.09127 14.7477 22.7015
Au 4.72703 17.8259 8.28003
Au 4.79698 21.5768 12.3076
Pt 4.94055 19.6825 10.2771
Au 3.41905 18.9469 18.6994
Pt 5.31569 18.8742 16.8086
Au 5.17154 18.8159 20.8454
Pt 5.42075 20.767 18.8009
Au 3.36431 19.0718 14.785
Au 3.58409 20.9637 16.8092
Pt 5.47269 20.9088 14.8643
Pt 9.06913 7.32139 12.8767
Pt 7.29527 7.16717 10.978
Pt 6.97081 9.07017 16.7757
Pt 9.50743 6.27731 15.3121
Pt 9.55017 8.17204 17.4256
Pt 5.24174 13.0318 10.8245
Au 7.04441 8.95285 8.78154
Pt 9.18539 9.10777 6.99883
Au 5.15807 9.05361 10.8351
Pt 7.06383 9.17079 12.8032
Au 7.41133 5.31292 13.1434
Pt 9.01792 9.1135 10.7782
Au 9.57675 4.49587 17.3087
Pt 7.01485 11.0177 14.8078
Au 8.97844 9.08696 14.8778
Pt 9.02266 11.0058 12.8019
Au 7.45896 8.14373 19.4005
Pt 9.56732 6.33168 19.3268
Au 11.4305 4.35492 19.3262
Pt 9.51573 9.96899 19.5346
Pt 11.5186 9.94994 21.4091
Pt 9.05253 13.0482 6.85167
Au 11.0782 9.07871 5.03363
Au 5.14065 11.1055 8.83585
Pt 7.11994 13.0697 8.85549
Au 8.98948 11.0556 8.7897
Pt 11.1595 14.9225 6.88168
Au 4.9145 12.8096 14.7236
Pt 5.25211 15.0023 12.8459
Au 7.06462 12.9273 12.8349
Pt 9.01832 12.9676 10.8369
Au 3.17745 13.102 16.7664
Pt 6.92812 12.9272 16.8585
Au 8.95574 10.9433 16.9294
Pt 8.96673 12.8854 14.8945
Au 4.88383 12.7484 18.9286
Pt 6.93528 12.8369 20.7945
Au 9.57533 11.9868 21.4098
Pt 8.90624 12.8403 18.8712
Au 5.06428 9.249 18.6243
Pt 7.78633 12.1445 23.27
Au 9.60971 11.8867 25.3203
Pt 11.618 11.8603 23.4239
Pt 7.30115 15.1479 6.91694
Au 7.08106 11.0812 6.80977
Au 9.14526 14.9505 8.84891
Pt 7.28834 17.0395 8.99127
Au 11.2257 16.8416 8.90061
Pt 9.30451 17.003 6.97638
Au 7.11681 15.0157 10.8537
Pt 7.16044 16.9032 12.888
Au 9.0929 14.8906 12.8974
Pt 9.18596 16.8695 10.8921
Au 7.02929 14.8758 14.8808
Pt 7.07769 16.8344 16.8799
Au 8.99778 14.8197 16.9263
Pt 9.08884 16.7699 14.9443
Au 6.91425 14.8161 18.9104
Pt 7.02956 16.8025 20.9126
Au 8.97871 14.7443 20.8609
Pt 8.9996 16.7208 18.9416
Au 7.71983 13.9485 25.2471
Pt 9.68242 13.9605 23.4367
Au 9.7197 15.8249 25.5548
Pt 9.07783 16.6419 22.8743
Au 8.64527 17.7369 4.51901
Au 8.59523 19.8703 6.28036
Pt 6.80645 19.6919 8.37298
Au 9.30441 18.9676 8.92527
Pt 8.84067 21.5977 8.45901
Au 7.35887 18.9924 10.9493
Pt 5.40535 18.925 12.924
Au 9.26019 18.7591 12.9422
Pt 9.31358 20.9499 10.9898
Au 7.26471 18.8388 14.9094
Pt 7.35072 20.7418 16.9388
Au 9.19748 18.7092 16.9795
Pt 9.33841 22.615 16.9713
Au 7.15143 18.7494 18.9115
Pt 7.25182 20.6374 20.8408
Au 9.08483 18.6617 20.9413
Pt 9.15678 20.7618 18.991
Au 7.09327 18.7255 22.8987
Au 9.129 18.5547 24.8858
Pt 9.21665 20.4954 22.906
Au 6.71194 21.7726 10.2458
Au 6.87646 23.4813 12.4486
Pt 7.38343 20.8811 12.9232
Au 11.2786 20.742 13.0088
Pt 9.44342 22.8392 13.0166
Au 9.29594 20.7766 14.9407
Pt 5.66836 22.6576 16.8852
Au 7.54628 24.612 17.0053
Pt 7.4917 22.7668 14.9843
Au 7.21308 22.7995 19.0903
Au 9.14132 22.6512 21.1501
Pt 9.45079 24.2821 18.9518
Pt 11.0109 7.26054 10.8914
Pt 15.0041 8.96057 8.82836
Pt 11.4457 6.19656 13.3378
Pt 13.4443 6.17663 11.3422
Pt 11.4883 6.25064 17.3676
Pt 13.4309 6.10529 15.3603
Pt 11.4983 6.24248 21.2642
Pt 13.4605 6.10657 19.4327
Pt 11.5763 8.05196 23.2143
Pt 11.083 11.0403 6.96157
Au 11.1329 7.03707 6.98201
Au 9.089 6.96155 8.89696
Pt 10.9931 9.0786 8.88116
Au 11.2937 5.2035 9.26816
Pt 12.9797 11.0301 5.07185
Au 9.36874 5.20854 11.2624
Pt 10.9898 9.08998 12.8475
Au 13.5058 7.99403 13.4048
Pt 12.9948 9.03393 10.8849
Au 11.5305 8.08487 15.3753
Pt 11.5314 9.99972 17.4743
Au 13.5132 7.98604 17.4102
Pt 13.566 9.96237 15.4719
Au 13.3703 4.36443 17.3618
Pt 11.5386 8.08047 19.4097
Au 9.3972 7.97653 21.5215
Pt 13.5106 9.94858 19.4625
Au 7.43772 10.1153 21.4428
Pt 9.62217 10.0531 23.2838
Au 15.4462 9.66754 25.4098
Pt 13.5193 9.85114 23.4365
Pt 11.0853 12.9728 5.06887
Au 14.9671 9.08435 4.89996
Au 9.19048 11.0595 5.01901
Pt 11.0302 12.9575 8.81591
Au 13.0377 10.9819 8.86807
Pt 13.0682 12.9733 6.85635
Au 11.0092 11.0372 10.8437
Pt 11.0133 12.8966 12.8937
Au 13.0354 10.9244 12.9067
Pt 13.0539 12.875 10.8788
Au 11.0076 10.9654 14.8951
Pt 10.956 12.8287 16.9001
Au 13.5595 11.9173 17.4721
Pt 13.0147 12.8157 14.91
Au 11.5435 11.9474 19.4516
Pt 11.5939 13.8719 21.5421
Au 13.5509 11.8734 21.5228
Pt 13.5915 13.8457 19.554
Au 11.5046 9.84314 25.2529
Pt 11.5752 13.7479 25.3416
Au 13.4782 11.7816 25.5605
Pt 13.5815 13.7873 23.5925
Pt 11.2006 16.9734 5.0771
Au 13.0177 14.8664 4.71452
Au 9.21243 15.0265 4.92641
Pt 11.2424 18.9149 7.02817
Au 13.1346 14.8216 8.8653
Pt 13.202 16.7594 6.82746
Au 11.1077 14.8315 10.9011
Pt 11.1592 16.7164 12.9542
Au 13.0847 14.7569 12.9306
Pt 13.166 16.6968 10.9436
Au 11.041 14.7905 14.9387
Pt 11.0914 16.6947 16.9741
Au 13.0384 14.7045 16.9583
Pt 13.1162 16.6581 14.9727
Au 11.0152 14.7335 18.9288
Pt 11.039 16.6243 20.9425
Au 13.6358 15.7591 21.5869
Pt 13.0616 16.6212 18.9704
Au 11.6872 15.8011 23.5922
Pt 11.7184 17.7288 25.4167
Au 13.5963 15.6595 25.7515
Pt 13.6943 17.6618 23.6499
Pt 10.808 21.5014 6.56299
Au 12.7784 21.4826 4.61765
Au 10.692 19.6439 4.46151
Pt 11.3745 20.8099 9.08243
Au 13.2679 18.6898 8.94616
Pt 13.3293 20.7935 7.18122
Au 11.2368 18.7567 10.9787
Pt 11.3315 22.6673 15.0561
Au 13.206 18.6337 13.0076
Pt 15.3677 22.5912 11.1306
Au 11.1953 18.6472 14.9814
Pt 11.2258 20.6399 16.965
Au 13.1413 18.5994 16.9802
Pt 13.2302 20.645 15.0181
Au 11.104 18.6664 18.9976
Pt 11.1153 20.6226 21.0361
Au 13.109 18.5402 20.9865
Pt 13.1933 20.5136 18.959
Au 11.0991 18.5263 22.9123
Pt 11.2599 20.3367 24.7949
Au 13.7608 19.5478 25.7313
Pt 13.1693 20.4056 23.0238
Au 12.804 23.4159 6.61495
Au 8.8343 23.6403 10.4036
Pt 11.4132 22.7008 11.0986
Au 11.0539 25.2491 10.4717
Pt 10.8909 23.3557 8.55507
Au 13.3186 20.6942 11.0403
Pt 11.4795 24.5383 13.0844
Au 13.3591 22.6376 13.0994
Pt 13.4958 24.5164 11.1955
Au 9.49695 24.735 15.0358
Pt 11.3574 24.4377 17.0568
Au 13.2806 22.5522 17.0212
Pt 13.3448 24.4647 15.0843
Au 11.2717 22.4574 18.9967
Pt 11.3877 24.1642 20.9626
Au 13.2425 22.3257 21.0039
Pt 13.2901 24.3039 19.0598
Au 11.1507 22.5127 23.134
Au 13.2417 22.2803 25.0352
Pt 13.3864 24.048 22.9407
Pt 13.0134 9.04907 6.89504
Pt 15.5474 6.30107 9.55473
Pt 17.3455 6.48673 7.66057
Pt 15.4754 6.10864 13.422
Pt 17.5096 6.16679 11.4645
Pt 15.4575 6.03486 17.4328
Pt 17.4579 6.04476 15.4563
Pt 15.3859 6.06641 21.2906
Pt 17.3959 6.02929 19.4173
Pt 15.4302 7.88021 23.305
Pt 19.271 7.79131 23.2252
Pt 16.9578 11.0084 5.02396
Au 14.84 6.97252 6.82328
Au 13.7844 4.87941 8.3433
Pt 12.9853 7.26671 8.92545
Au 17.5443 8.19233 9.52133
Pt 16.9092 8.96569 6.87215
Au 15.5107 8.05956 11.4987
Pt 15.5652 9.9515 13.5083
Au 17.5009 7.93757 13.4856
Pt 17.5731 9.99703 11.5276
Au 15.4943 7.91387 15.4375
Pt 15.5236 9.89898 17.4667
Au 17.48 7.88281 17.4545
Pt 17.5302 9.87129 15.5077
Au 15.4603 7.95333 19.4017
Pt 13.4885 8.04264 21.3478
Au 17.3101 5.85818 23.1608
Pt 17.3709 7.92424 21.3666
Au 13.4391 6.06538 23.1721
Pt 15.4651 9.88077 21.4809
Au 17.4509 7.73658 25.1923
Pt 17.4184 9.79 23.4093
Pt 14.9939 12.8318 4.96003
Au 17.1328 14.6361 4.69499
Au 15.0087 10.9467 6.87055
Pt 15.0588 12.8742 8.8156
Au 17.0257 10.8838 8.89374
Pt 17.0462 12.8449 6.87242
Au 15.0358 10.8941 10.8897
Pt 15.0506 12.7849 12.9091
Au 17.6022 11.8856 13.5184
Pt 17.0605 12.7683 10.8975
Au 15.5827 11.8884 15.4973
Pt 15.6043 13.8291 17.5349
Au 17.5676 11.854 17.5084
Pt 17.6373 13.8038 15.5435
Au 15.5367 11.8813 19.5076
Pt 15.5643 13.7647 21.6341
Au 17.5098 11.8092 21.5466
Pt 17.594 13.7458 19.5622
Au 15.5108 11.7665 23.6102
Pt 15.5254 13.6803 25.4731
Au 17.4875 11.661 25.6306
Pt 17.5468 13.6872 23.6658
Pt 13.1966 18.8651 5.19468
Au 15.1566 16.7944 4.69276
Au 15.1157 14.8333 6.71022
Pt 15.149 16.6731 8.84906
Au 17.0679 14.7494 8.88388
Pt 17.1144 16.6724 6.74352
Au 15.099 14.7441 10.9131
Pt 15.1276 16.6329 12.9818
Au 17.0902 14.6547 12.9591
Pt 17.1344 16.597 10.9906
Au 15.0695 14.6796 14.957
Pt 15.0807 16.5884 16.9709
Au 17.6487 15.6943 17.5599
Pt 17.1095 16.5626 14.9728
Au 15.6379 15.7043 19.5832
Pt 15.684 17.5953 21.6375
Au 17.6186 15.6172 21.6472
Pt 17.696 17.5775 19.6
Au 15.6102 15.6559 23.7014
Pt 15.6662 17.5308 25.5621
Au 17.6168 15.5296 25.7986
Pt 17.6673 17.4733 23.7236
Pt 15.3049 20.9183 5.40309
Au 15.1583 19.2061 3.4945
Au 15.2349 18.6676 6.90926
Pt 17.3178 22.62 9.16784
Au 17.1559 18.5281 9.01453
Pt 17.2636 20.6358 7.21588
Au 15.2063 18.5814 11.0169
Pt 15.2526 20.6097 13.049
Au 17.1598 18.5464 13.0203
Pt 17.2265 20.5631 11.0487
Au 15.1537 18.5859 15.0011
Pt 15.1985 20.5232 17.0041
Au 17.1425 18.4708 16.9963
Pt 17.2078 20.4931 15.0378
Au 15.1348 18.4777 18.987
Pt 15.1905 20.3413 20.9763
Au 17.7357 19.4435 21.6187
Pt 17.1814 20.368 18.9921
Au 15.7505 19.4477 23.6787
Pt 15.8174 21.384 25.4601
Au 17.7334 19.399 25.8049
Pt 17.7963 21.3385 23.5905
Pt 15.3824 22.722 7.31203
Au 17.3993 22.6414 5.42924
Au 15.293 20.6826 9.07302
Pt 13.4019 22.7681 9.18828
Au 19.3252 24.5161 9.29558
Pt 19.2703 22.5025 7.35982
Au 15.4364 24.6436 9.25927
Pt 15.376 24.4402 13.1319
Au 17.285 22.4862 13.1152
Pt 17.3588 24.3727 11.2175
Au 15.3025 22.5529 15.0877
Pt 15.3232 24.3465 17.0978
Au 17.269 22.43 17.0611
Pt 17.3648 24.3171 15.1093
Au 15.2535 22.4282 19.0231
Pt 15.296 24.1812 21.0582
Au 17.2492 22.2395 20.9867
Pt 17.3217 24.2081 19.0874
Au 15.2489 22.1554 22.9387
Pt 15.3813 23.9182 24.7284
Au 17.8151 23.2 25.5417
Pt 17.298 23.9818 22.9562
Pt 19.3845 6.33222 9.54
Pt 19.463 6.07499 13.4701
Pt 21.3657 6.2061 11.5757
Pt 19.3993 5.98699 17.4574
Pt 21.3348 6.01984 15.4893
Pt 19.2652 6.05005 21.2753
Pt 19.4582 7.86278 19.4517
Pt 18.9302 10.7921 6.96191
Au 19.5888 8.02538 7.37368
Pt 19.652 9.90679 9.47075
Au 21.6283 7.85349 9.38392
Pt 21.5347 10.0312 7.58397
Au 19.5182 8.03837 11.5058
Pt 19.5357 9.89538 13.5366
Au 21.4643 7.96312 13.509
Pt 21.6402 9.78237 11.4838
Au 19.4545 7.88751 15.4975
Pt 19.5123 9.82858 17.5249
Au 21.2831 5.791 19.3726
Pt 21.3771 7.87207 17.5216
Au 17.5133 9.86805 19.4781
Pt 19.4927 9.72865 21.4581
Au 21.5015 7.58765 21.6067
Pt 21.5106 9.63738 19.5607
Au 21.1262 7.7647 24.9838
Pt 19.3448 9.67739 25.2078
Pt 21.3711 9.73029 23.356
Pt 19.081 12.7184 5.06515
Au 20.8989 10.739 5.04685
Au 18.7571 9.05113 4.929
Pt 19.0485 12.7244 8.87793
Au 21.6732 11.8385 9.55332
Pt 20.9605 12.6691 7.00489
Au 19.646 11.8274 11.5018
Pt 19.6724 13.7786 13.5416
Au 21.6206 11.8076 13.5441
Pt 21.7188 13.7463 11.5502
Au 19.5757 11.8457 15.5439
Pt 19.6339 13.7446 17.5586
Au 21.5889 11.7576 17.5712
Pt 21.7181 13.6885 15.5811
Au 19.5833 11.7702 19.5418
Pt 19.5633 13.6652 21.5993
Au 21.5527 11.6712 21.531
Pt 21.6471 13.6423 19.5536
Au 19.4588 11.6853 23.527
Pt 19.5637 13.5198 25.4654
Au 21.4496 11.4957 25.4856
Pt 21.5325 13.5058 23.5568
Pt 17.2184 18.8719 5.14258
Au 19.1326 16.7519 4.78876
Au 19.0003 14.7426 6.85912
Pt 19.1115 16.5728 8.9625
Au 21.0756 14.585 8.96279
Pt 21.0486 16.5785 7.04993
Au 19.0925 14.6136 10.9571
Pt 19.145 16.5144 12.9896
Au 21.7684 15.6113 13.6016
Pt 21.1699 16.4487 10.9858
Au 19.7111 15.6558 15.5729
Pt 19.7255 17.5465 17.5999
Au 21.7572 15.5685 17.5903
Pt 21.8028 17.4944 15.6156
Au 19.6406 15.5979 19.5789
Pt 19.668 17.4611 21.6385
Au 21.6041 15.5007 21.5672
Pt 21.733 17.4344 19.607
Au 19.6176 15.5175 23.6952
Pt 19.6773 17.4343 25.5409
Au 21.574 15.4165 25.7498
Pt 21.647 17.4061 23.6169
Pt 19.2233 20.6168 5.37321
Au 21.1999 22.4216 5.42455
Au 19.1054 18.5279 7.04743
Pt 19.196 20.4758 9.12049
Au 21.1477 18.4399 9.08778
Pt 21.1329 20.4564 7.26901
Au 19.1685 18.49 11.0535
Pt 19.1941 20.4381 13.0362
Au 21.2067 18.3794 13.0389
Pt 21.2909 20.3844 11.0799
Au 19.1638 18.4244 15.0132
Pt 19.176 20.3361 17.0322
Au 21.7783 19.3771 17.6297
Pt 21.185 20.2508 15.0562
Au 19.7662 19.4486 19.6369
Pt 19.8279 21.3703 21.6763
Au 21.7596 19.3279 21.6689
Pt 21.8393 21.3355 19.6951
Au 19.6886 19.3279 23.6486
Pt 19.6859 21.2422 25.3845
Au 21.6718 19.307 25.6237
Pt 21.6973 21.1849 23.5921
Au 21.334 24.2109 7.47226
Pt 21.2489 22.2972 9.26241
Au 23.2169 22.2788 7.36152
Au 19.2496 22.4105 11.1006
Pt 19.3713 24.2206 13.117
Au 21.2707 22.2227 13.0667
Pt 21.3074 24.0734 11.1927
Au 19.2746 22.3637 15.0813
Pt 19.3345 24.1756 17.1138
Au 21.2068 22.1731 17.0955
Pt 21.3418 24.0874 15.1179
Au 19.2403 22.2322 19.0547
Pt 19.29 23.9783 21.0519
Au 21.8904 23.2639 21.7267
Pt 21.2693 23.9447 19.1053
Au 19.8728 23.3269 23.6709
Pt 23.2321 6.13606 13.6114
Pt 23.179 6.09246 17.3684
Pt 23.3598 7.87092 15.5231
Pt 23.5109 9.87616 9.61744
Au 23.5892 7.72781 11.4363
Pt 23.5128 9.79979 13.5623
Au 25.3412 7.80518 13.6244
Pt 25.2846 9.78242 11.6776
Au 21.513 9.84374 15.5579
Pt 23.4367 9.703 17.5476
Au 25.3105 7.72626 17.4395
Pt 25.338 9.68285 15.581
Au 23.4451 7.59783 19.5603
Pt 23.3765 9.6887 21.4356
Pt 25.2026 9.6281 19.4226
Pt 20.981 14.7121 5.16643
Au 23.6401 11.8277 7.55132
Pt 23.6908 13.7115 9.56916
Au 25.5246 11.6874 9.68411
Pt 22.9452 14.5589 7.05355
Au 23.6255 11.7771 11.6189
Pt 23.7827 13.6553 13.6161
Au 25.7669 11.6214 13.6088
Pt 25.5661 13.5907 11.63
Au 23.6794 11.7231 15.5869
Pt 23.7665 13.6173 17.5875
Au 25.73 11.5607 17.5814
Pt 25.6267 13.5541 15.6123
Au 23.566 11.6405 19.5148
Pt 23.5809 13.4943 21.5525
Au 25.489 11.4846 21.5172
Pt 25.5292 13.4597 19.6194
Au 23.5725 11.4018 23.5994
Pt 23.4085 13.4884 25.319
Pt 25.3088 13.4749 23.4625
Pt 21.0875 18.5964 5.31612
Au 22.9721 16.5803 5.22309
Au 22.7518 12.7503 5.0659
Pt 23.1403 16.4211 8.96547
Au 25.6758 15.5872 9.68083
Pt 23.0496 18.4413 7.20006
Au 23.7839 15.5749 11.6295
Pt 23.853 17.4783 13.6346
Au 25.9388 15.5007 13.6244
Pt 25.6426 17.4851 11.6695
Au 23.847 15.5326 15.613
Pt 23.8599 17.3927 17.6305
Au 25.9223 15.4422 17.6557
Pt 25.7273 17.3936 15.6511
Au 23.7732 15.4759 19.6189
Pt 23.6824 17.3813 21.6211
Au 25.7965 15.3747 21.6115
Pt 25.6451 17.3654 19.6787
Au 23.5074 15.4009 23.5063
Pt 23.5181 17.2506 25.3846
Au 25.3743 15.3134 25.4154
Pt 25.4107 17.2256 23.5303
Au 23.0407 20.3965 5.39365
Pt 23.1942 20.3041 9.12694
Au 25.1291 18.2939 9.05563
Au 23.1726 18.2928 11.0299
Pt 23.2625 20.2544 13.0501
Au 25.9339 19.3514 13.6753
Pt 25.0343 20.1235 11.138
Au 23.8592 19.3171 15.6543
Pt 23.7831 21.2335 17.6832
Au 25.9605 19.2847 17.69
Pt 25.6727 21.219 15.7139
Au 23.7708 19.2675 19.6274
Pt 23.7143 21.1541 21.6059
Au 25.7134 19.252 21.653
Pt 25.5387 21.1478 19.6182
Au 23.7865 19.3916 23.7322
Au 23.4579 22.3785 10.9619
Pt 23.2381 23.8927 13.2088
Au 25.2973 22.0868 13.118
Au 23.1736 22.0289 15.1091
Pt 23.2063 23.8804 17.139
Au 25.7647 23.0538 17.6965
Pt 24.9938 23.7574 15.2377
Au 23.8652 23.2582 19.7327
