561
Atoms. Timestep: 20161
Pt 7.57878 7.32998 15.1289
Au 5.69437 7.24632 13.1653
Pt 7.55171 11.1223 11.1448
Au 5.38112 9.1864 15.0967
Pt 5.57771 11.1726 13.1082
Pt 5.5148 11.1563 17.0954
Au 5.69404 13.2968 7.24736
Pt 5.74497 15.1362 9.19102
Au 3.66017 13.2093 13.0346
Pt 4.00493 15.2399 11.1671
Au 3.67113 15.2394 19.1612
Pt 5.54103 13.1554 15.1094
Au 5.63792 7.24206 17.011
Pt 5.50086 15.1079 17.1317
Pt 7.39318 11.1362 19.1876
Au 7.71016 13.2644 5.34069
Au 3.62497 17.1758 13.0648
Pt 5.8965 17.0863 7.41261
Au 3.55077 15.151 15.0728
Pt 5.79981 17.1067 11.1725
Au 3.57086 17.1589 17.1238
Pt 5.51385 17.0986 15.1356
Au 5.71456 13.0809 23.0913
Pt 5.59959 17.1112 19.0496
Au 4.13433 17.1679 21.1678
Pt 5.62635 14.989 21.1183
Au 3.88863 17.1739 9.2442
Au 3.97922 21.0486 13.1555
Pt 4.15183 19.0665 11.2075
Au 3.87526 19.187 19.0852
Pt 5.68346 19.0481 17.0932
Au 5.61773 19.3993 21.2375
Pt 5.89554 21.1172 19.0682
Au 3.71625 19.1882 15.1613
Au 4.13728 21.2377 17.1085
Pt 5.84779 21.055 15.1411
Pt 9.54009 7.32859 13.1902
Pt 7.67921 7.339 11.3048
Pt 7.44212 9.22362 17.1157
Pt 9.56515 5.46167 15.1443
Pt 9.43875 7.30711 17.2157
Pt 5.62146 13.1173 11.1314
Au 7.47095 9.11462 9.13741
Pt 9.67259 9.27533 7.30334
Au 5.58131 9.21061 11.2143
Pt 7.51484 9.26274 13.1902
Au 7.64976 5.34455 13.2639
Pt 9.48984 9.20691 11.1484
Au 7.64618 5.32526 17.0026
Pt 7.40892 11.1476 15.1608
Au 9.4413 9.2486 15.1944
Pt 9.46082 11.137 13.1602
Au 7.38638 7.13224 19.1252
Pt 9.45943 7.36943 20.9382
Au 9.4924 5.24042 19.1559
Pt 9.31147 9.23109 19.1512
Pt 11.3843 9.1949 21.179
Pt 9.60766 13.133 7.21347
Au 11.6223 9.22176 5.31817
Au 5.60584 11.2419 9.19796
Pt 7.59858 13.1259 9.16092
Au 9.4717 11.1382 9.1511
Pt 11.6105 15.059 7.19285
Au 3.65237 11.2979 15.0595
Pt 5.61937 15.1335 13.1907
Au 7.48147 13.0704 13.1451
Pt 9.47945 13.0706 11.1698
Au 3.58506 13.1985 17.0547
Pt 7.31814 13.1036 17.218
Au 9.35337 11.2096 17.216
Pt 9.35553 13.0685 15.2005
Au 5.25829 12.976 19.2247
Pt 7.4366 13.0691 21.1155
Au 9.36182 11.0896 21.1841
Pt 9.33605 13.1025 19.2337
Au 5.48344 9.22309 19.0262
Pt 7.54086 11.1129 23.0125
Au 9.34917 11.1077 24.9987
Pt 11.3414 11.1229 23.1494
Pt 7.72478 15.1364 7.26028
Au 7.53314 11.1487 7.12732
Au 9.60373 15.0591 9.18221
Pt 7.71722 17.0978 9.20977
Au 11.612 16.9984 9.18954
Pt 9.65085 17.0838 7.24119
Au 7.56918 15.062 11.1663
Pt 7.55025 17.0292 13.1917
Au 9.51277 15.0512 13.197
Pt 9.54987 17.0342 11.1896
Au 7.4732 15.0855 15.1977
Pt 7.47185 17.0224 17.142
Au 9.41273 15.0167 17.2285
Pt 9.503 16.9662 15.2171
Au 7.35635 15.0473 19.1683
Pt 7.25557 17.1296 21.2564
Au 9.23765 15.1259 21.3083
Pt 9.33465 16.961 19.2584
Au 5.48861 11.0951 21.1969
Pt 9.22194 13.1559 23.198
Au 9.4104 15.0678 25.1702
Pt 9.36213 17.0741 23.255
Au 7.72925 17.0717 5.39039
Au 7.66634 19.222 7.15147
Pt 5.90361 19.0641 9.22615
Au 9.6452 19.0582 9.20756
Pt 7.85688 21.0331 9.29003
Au 7.65261 19.1208 11.2181
Pt 5.76576 19.0674 13.213
Au 9.60842 18.9428 13.2024
Pt 9.68576 21.0461 11.2472
Au 7.6144 18.9743 15.1604
Pt 7.67403 20.9056 17.1347
Au 9.55282 18.8997 17.226
Pt 9.68733 22.8593 17.2096
Au 7.49713 19.0001 19.2062
Pt 7.76697 21.0886 21.0432
Au 9.42007 18.9266 21.2126
Pt 9.56034 20.9158 19.148
Au 7.3036 15.2465 23.3264
Au 9.6192 19.1538 25.083
Pt 9.64344 21.0405 22.987
Au 5.74146 21.2369 11.0665
Au 5.94532 23.0221 13.2749
Pt 7.7038 21.0409 13.1439
Au 11.602 20.9543 13.266
Pt 9.64758 22.9883 13.2618
Au 9.60726 20.9734 15.1948
Pt 7.12023 23.2622 17.9151
Au 8.92721 25.3094 17.9277
Pt 7.77778 22.9648 15.2892
Au 7.56971 19.1741 23.2
Au 6.42084 23.3302 20.4803
Pt 9.01013 23.3734 19.853
Pt 11.4741 7.28154 11.2157
Pt 15.4985 9.20203 9.27499
Pt 11.4729 5.425 13.1982
Pt 13.5012 5.44299 11.2534
Pt 11.3349 5.39166 17.2011
Pt 13.3665 5.36644 15.1645
Pt 11.3503 5.56223 21.1629
Pt 13.3014 5.37545 19.3064
Pt 11.6218 7.34401 23.1134
Pt 11.5809 11.1566 7.29016
Au 11.5144 7.17595 7.24773
Au 9.48526 7.15911 9.19038
Pt 11.4869 9.16482 9.22833
Au 11.6029 5.28666 9.34816
Pt 13.5452 11.1235 5.45284
Au 9.56362 5.28783 11.2946
Pt 11.4244 9.21811 13.1793
Au 13.4293 7.27687 13.2275
Pt 13.4421 9.20445 11.2239
Au 11.4464 7.28555 15.2243
Pt 11.3699 9.22132 17.2351
Au 13.3878 7.17485 17.2271
Pt 13.3975 9.19022 15.2536
Au 13.3766 3.73965 17.2261
Pt 11.411 7.29239 19.1388
Au 9.3385 6.27569 23.2104
Pt 13.3448 9.2024 19.2372
Au 7.30248 9.03006 21.2312
Pt 9.45037 9.10065 23.0557
Au 15.2988 9.10468 25.231
Pt 13.3712 9.23026 23.2439
Pt 11.5993 13.0794 5.3834
Au 15.5915 9.19796 5.28862
Au 9.66144 11.1998 5.29282
Pt 11.514 13.0868 9.16741
Au 13.5061 11.1653 9.22771
Pt 13.5546 13.1285 7.18737
Au 11.4611 11.1567 11.1893
Pt 11.4339 13.0685 13.2082
Au 13.4495 11.1378 13.2388
Pt 13.4796 13.0688 11.2188
Au 11.4227 11.1837 15.2169
Pt 11.3773 13.092 17.245
Au 13.3958 11.159 17.2599
Pt 13.4267 13.0608 15.2473
Au 11.3641 11.179 19.2372
Pt 11.2598 13.1129 21.3306
Au 13.3349 11.1882 21.2859
Pt 13.3524 13.0996 19.3219
Au 11.3008 9.16802 25.0657
Pt 11.2502 13.0271 25.0137
Au 13.243 11.149 25.332
Pt 13.3237 13.0881 23.3472
Pt 11.6526 17.1008 5.42934
Au 13.5144 15.029 5.06358
Au 9.74185 15.1358 5.1672
Pt 11.6728 19.0281 7.34461
Au 13.5652 15.0067 9.18402
Pt 13.6239 16.9396 7.16622
Au 11.5261 15.0162 11.2178
Pt 11.5435 16.9331 13.2365
Au 13.4775 14.9782 13.2442
Pt 13.5545 16.9169 11.2323
Au 11.4424 14.9856 15.233
Pt 11.4527 16.8934 17.2635
Au 13.4041 14.9658 17.2926
Pt 13.4755 16.8904 15.2751
Au 11.346 15.015 19.3129
Pt 11.3642 16.9228 21.3025
Au 13.3766 14.9992 21.3535
Pt 13.4232 16.8688 19.2948
Au 11.3336 15.0518 23.2939
Pt 11.3777 17.0523 25.0845
Au 13.232 14.9569 25.4338
Pt 13.3981 16.9019 23.3629
Pt 9.84374 21.0066 7.37956
Au 11.7986 20.9796 5.44779
Au 9.78955 19.0559 5.34608
Pt 11.7193 20.9963 9.28585
Au 13.6275 18.9177 9.24328
Pt 13.6914 21.0029 7.3832
Au 11.5979 18.9469 11.2365
Pt 11.5975 22.9047 15.2535
Au 13.5688 18.8758 13.2791
Pt 15.6227 22.8769 11.354
Au 11.5622 18.8817 15.2531
Pt 11.5738 20.8983 17.2189
Au 13.495 18.8349 17.2679
Pt 13.5688 20.9194 15.28
Au 11.4572 18.8388 19.2502
Pt 11.5022 20.8598 21.1691
Au 13.471 18.781 21.2622
Pt 11.5688 22.819 19.2095
Au 11.4331 18.901 23.1397
Pt 11.5885 21.0173 24.6879
Au 15.2633 20.9727 25.1179
Pt 13.5093 20.8365 23.0316
Au 11.7903 22.9969 7.35292
Au 7.80159 23.1083 11.1807
Pt 11.6991 22.8906 11.315
Au 9.88004 24.8933 11.3356
Pt 9.88035 22.9184 9.34855
Au 13.6437 20.918 11.2985
Pt 11.7219 24.7451 13.305
Au 13.6325 22.8819 13.3339
Pt 13.6819 24.7374 11.4059
Au 9.69771 24.9319 15.2395
Pt 11.5892 24.7533 17.2712
Au 13.5324 22.8466 17.238
Pt 13.5652 24.7851 15.3108
Au 10.8763 25.3889 19.9188
Pt 10.9015 23.3241 21.8197
Au 12.8578 25.2966 21.8425
Pt 13.5076 24.7214 19.215
Au 8.31581 23.2945 22.4498
Au 12.746 23.3059 23.8154
Pt 13.4938 22.7805 21.1495
Pt 13.5324 9.18877 7.32899
Pt 15.4934 5.50711 9.39428
Pt 15.5569 7.32009 7.41773
Pt 15.4117 5.3942 13.2365
Pt 17.3959 5.4202 11.3495
Pt 15.422 5.33901 17.2795
Pt 17.3964 5.36253 15.2811
Pt 15.3138 5.39185 21.1087
Pt 17.3211 5.37041 19.2644
Pt 15.2582 7.23866 23.1218
Pt 19.1711 7.22885 23.1178
Pt 17.5761 11.1492 5.4987
Au 13.6359 7.28221 5.49742
Au 13.65 5.3722 7.46999
Pt 13.484 7.31948 9.29898
Au 19.283 5.28995 9.43992
Pt 17.4972 9.16927 7.3387
Au 15.4557 7.30535 11.2869
Pt 15.4412 9.18904 13.2645
Au 17.4135 7.24581 13.3029
Pt 17.4846 9.1709 11.2751
Au 15.3948 7.20779 15.2661
Pt 15.3642 9.17812 17.2675
Au 17.3781 7.22049 17.2793
Pt 17.4157 9.17652 15.2965
Au 15.3304 7.24544 19.2159
Pt 13.3695 7.33258 21.1441
Au 17.2047 5.25027 23.0114
Pt 17.2496 7.27984 21.2037
Au 13.3656 5.29063 22.9447
Pt 15.3107 9.20966 21.2763
Au 17.2293 7.13745 24.9941
Pt 17.2733 9.14021 23.2033
Pt 15.536 12.9872 5.34836
Au 17.604 14.9148 5.09665
Au 15.5354 11.1095 7.25242
Pt 15.5144 13.0888 9.15425
Au 17.5072 11.1348 9.27906
Pt 17.533 13.0921 7.24512
Au 15.4831 11.1511 11.2569
Pt 15.4645 13.0538 13.2653
Au 17.4566 11.1283 13.2889
Pt 17.4952 13.0635 11.2568
Au 15.4246 11.1229 15.2786
Pt 15.3996 13.0756 17.3005
Au 17.3971 11.164 17.3037
Pt 17.4375 13.0614 15.3084
Au 15.3496 11.1868 19.3028
Pt 15.3498 13.1007 21.4263
Au 17.3385 11.1579 21.3386
Pt 17.4002 13.0713 19.3623
Au 15.2946 11.1198 23.3473
Pt 15.32 12.9883 25.2212
Au 17.362 14.8992 25.5117
Pt 17.3346 13.0628 23.3894
Pt 13.6278 19.02 5.52684
Au 15.5891 17.0963 5.1006
Au 15.5638 15.0472 7.04336
Pt 15.5556 16.9188 9.17373
Au 17.4952 15.0091 9.23392
Pt 17.5504 16.9032 7.16185
Au 15.4997 14.9745 11.2371
Pt 15.4855 16.8735 13.279
Au 17.4731 14.9586 13.289
Pt 17.5065 16.8691 11.279
Au 15.44 14.9576 15.2875
Pt 15.4369 16.8413 17.3076
Au 17.4324 14.9578 17.3508
Pt 17.4565 16.8262 15.3198
Au 15.4051 14.9701 19.3574
Pt 15.4346 16.874 21.4249
Au 17.3742 14.9822 21.4129
Pt 17.4458 16.8573 19.4021
Au 15.3636 15.0244 23.5205
Pt 13.3307 18.9958 25.0127
Au 15.2837 17.007 25.473
Pt 17.4012 16.9073 23.4915
Pt 15.7313 22.8492 7.5648
Au 15.6659 21.0097 5.50509
Au 15.6017 18.921 7.2808
Pt 19.5092 22.8079 11.4327
Au 17.6003 18.8336 9.25923
Pt 17.6385 20.9183 7.44465
Au 15.5881 18.8351 11.2904
Pt 15.5692 20.9146 13.32
Au 17.4793 18.7914 13.3366
Pt 17.5419 20.8739 11.3905
Au 15.4727 18.8301 15.3025
Pt 15.4801 20.8676 17.275
Au 17.4495 18.7453 17.3167
Pt 15.5197 22.8814 15.3022
Au 15.482 18.7613 19.3188
Pt 15.5008 20.8 21.248
Au 17.4825 18.8145 21.4534
Pt 19.4103 22.7176 19.3444
Au 15.4246 18.8563 23.3496
Pt 15.3885 22.7873 23.1051
Au 17.317 18.981 25.2724
Pt 17.3556 20.9 23.2421
Pt 17.6088 22.8389 9.48434
Au 18.301 25.3598 8.84825
Au 15.6492 20.892 9.34619
Pt 13.6999 22.9034 9.37206
Au 15.6213 24.8846 9.42221
Pt 20.2149 23.4405 8.88513
Au 11.8464 24.854 9.41325
Pt 15.5793 24.7958 13.3158
Au 17.4527 20.8315 15.3394
Pt 17.5085 22.8526 13.3766
Au 15.5417 26.6537 15.3132
Pt 15.498 24.7706 17.2859
Au 17.5116 26.7424 17.2988
Pt 17.5831 24.7514 11.4303
Au 13.5169 20.8109 19.2427
Pt 15.4642 22.802 19.2415
Au 17.4448 20.7697 19.296
Pt 17.4371 22.7997 17.3111
Au 15.4636 26.6069 19.2592
Pt 15.445 24.6641 21.2095
Au 17.41 26.5043 21.2188
Pt 17.3691 22.7577 21.1851
Pt 17.4662 7.27318 9.35013
Pt 19.3395 5.37511 13.3329
Pt 19.416 7.23576 11.3327
Pt 19.3096 5.3379 17.2891
Pt 21.2114 5.37212 15.3417
Pt 19.1537 5.45255 21.1522
Pt 19.3307 7.2296 19.2842
Pt 19.4911 11.1081 7.41048
Au 19.3714 7.17734 7.36867
Pt 19.4673 9.12285 9.33652
Au 21.4239 7.09041 9.31315
Pt 21.3499 9.18846 7.46943
Au 21.2551 5.21064 11.4546
Pt 19.4281 9.16126 13.2955
Au 23.1953 5.25565 13.5222
Pt 21.4266 9.08081 11.3339
Au 19.3586 7.23444 15.3136
Pt 19.3763 9.18337 17.3315
Au 21.1697 5.16857 19.2224
Pt 21.2489 7.25273 17.3569
Au 17.3581 9.20235 19.2855
Pt 19.3337 9.10409 21.2731
Au 21.3415 7.01378 21.3948
Pt 21.3571 9.03826 19.3756
Au 19.2205 9.05225 25.2151
Pt 17.3171 11.0353 25.1
Pt 21.1698 9.09898 23.2067
Pt 19.5982 13.0095 5.48755
Au 21.4882 11.0956 5.46473
Au 19.4541 9.20708 5.45807
Pt 19.5062 13.0763 9.26652
Au 21.5049 11.0802 9.3626
Pt 21.4912 12.9923 7.44352
Au 19.4934 11.123 11.3042
Pt 19.4713 13.0737 13.298
Au 21.4516 11.1689 13.333
Pt 21.5444 13.0666 11.2843
Au 19.4131 11.1716 15.3256
Pt 19.4444 13.0881 17.3677
Au 21.4065 11.14 17.3727
Pt 21.5239 13.0511 15.3712
Au 19.4132 11.1395 19.3524
Pt 19.399 13.0467 21.4362
Au 21.372 11.054 21.3477
Pt 21.4637 13.0473 19.4137
Au 19.3125 11.0435 23.3093
Pt 19.3417 12.975 25.1774
Au 21.2436 11.0184 25.2074
Pt 21.3854 12.9416 23.3252
Pt 17.5609 19.0055 5.58442
Au 19.5931 16.9564 5.25996
Au 19.4883 15.0229 7.2535
Pt 19.5251 16.9175 9.23464
Au 21.5234 14.9955 9.31068
Pt 21.5294 16.9793 7.34606
Au 19.5085 14.9813 11.2882
Pt 19.5064 16.8163 13.3419
Au 21.554 14.9067 13.3537
Pt 21.5516 16.8384 11.3736
Au 19.4922 14.9375 15.3407
Pt 19.4754 16.7924 17.3677
Au 21.5294 14.9348 17.3876
Pt 21.5755 16.7883 15.3739
Au 19.4274 14.9619 19.4152
Pt 19.4286 16.905 21.5026
Au 21.3931 14.9477 21.4212
Pt 21.4738 16.8297 19.4391
Au 19.3148 14.9681 23.4085
Pt 21.3811 16.9205 23.363
Au 19.4239 16.8542 25.3774
Pt 21.3543 18.8243 21.3922
Pt 20.2439 21.5524 7.00472
Au 22.777 24.0952 8.36973
Au 19.6101 18.9377 7.19746
Pt 19.5144 20.8428 9.45449
Au 21.4723 18.8407 9.41305
Pt 22.1257 21.4919 8.96703
Au 19.4857 18.7816 11.3728
Pt 19.4439 22.8095 15.3493
Au 21.4983 18.7385 13.4011
Pt 21.4523 20.8036 15.3694
Au 19.4883 18.7235 15.3526
Pt 17.4735 24.6973 15.3566
Au 21.4656 18.7126 17.3592
Pt 23.3811 22.7679 15.4085
Au 19.4436 18.7343 19.3789
Pt 19.4174 20.7844 21.3203
Au 21.3707 20.8165 19.3941
Pt 23.2752 20.7887 17.347
Au 19.4685 18.9682 23.5528
Pt 19.3308 24.6031 21.1884
Au 17.397 24.5836 23.198
Pt 21.2984 24.5881 19.2641
Au 24.6372 23.9825 10.387
Pt 22.0791 23.4282 10.8961
Au 24.7397 22.1349 8.3714
Au 19.468 20.8018 13.39
Pt 19.5301 24.6913 13.3689
Au 22.1855 25.3765 12.8379
Pt 21.4204 22.7512 13.4347
Au 17.5942 26.641 13.4078
Pt 19.4004 24.6293 17.3527
Au 19.4578 20.7864 17.3148
Pt 19.4438 26.3788 15.3872
Au 21.3232 26.5364 17.3289
Pt 17.4363 24.6678 19.2386
Au 23.3807 24.6933 17.3769
Pt 21.3918 22.7699 17.3215
Au 19.4156 26.6098 19.3113
Pt 21.3399 7.22408 13.3284
Pt 23.0606 5.49464 17.2119
Pt 23.2089 7.23824 15.3344
Pt 23.3116 9.12698 9.48552
Au 23.38 7.04844 11.3684
Pt 23.3162 9.15531 13.3757
Au 25.1981 7.20579 13.4832
Pt 25.105 9.116 11.5099
Au 21.3616 9.18755 15.3364
Pt 23.2661 9.10636 17.3509
Au 25.1651 7.16754 17.2764
Pt 25.1559 9.10203 15.3963
Au 23.3121 7.00556 19.3958
Pt 23.1837 9.09482 21.2761
Pt 25.0099 9.07395 19.2568
Pt 21.5366 14.9579 5.67812
Au 23.5186 10.9572 7.40819
Pt 23.5243 13.006 9.2877
Au 25.3566 10.9802 9.49796
Pt 23.4924 15.0569 7.52771
Au 23.4448 11.1112 11.4068
Pt 23.6004 13.0295 13.3764
Au 25.5754 11.0097 13.3876
Pt 25.356 12.9641 11.3574
Au 23.4925 11.117 15.3785
Pt 23.5442 13.009 17.393
Au 25.523 11.0036 17.4133
Pt 25.4291 12.9467 15.391
Au 23.353 11.0674 19.3366
Pt 23.3844 12.9668 21.4207
Au 25.2118 10.933 21.2989
Pt 25.2627 12.9401 19.4577
Au 23.3041 10.9622 23.3309
Pt 21.2985 14.8707 25.0121
Pt 23.2484 14.9306 23.2278
Pt 22.19 19.6041 6.96478
Au 18.3121 23.4601 6.86515
Au 23.4411 13.0972 5.6946
Pt 23.4823 16.9286 9.42827
Au 25.5152 14.9514 9.39201
Pt 24.0747 19.5752 8.86017
Au 23.5947 14.9316 11.3621
Pt 23.5844 16.7919 13.4027
Au 25.7224 14.8953 13.3578
Pt 25.4264 16.9187 11.4187
Au 23.6384 14.8931 15.3929
Pt 23.6301 16.7987 17.3753
Au 25.6995 14.8007 17.4577
Pt 25.4828 16.8398 15.3643
Au 23.5001 14.9288 19.4053
Pt 23.3866 16.8699 21.4198
Au 25.3275 14.9116 21.4194
Pt 25.31 16.905 19.4447
Au 23.3041 18.8274 23.2715
Pt 19.2797 22.6849 23.0285
Au 21.3875 20.887 23.2927
Pt 23.2441 20.7519 21.2684
Au 22.7955 22.1531 6.47684
Pt 21.4593 20.8083 11.4655
Au 24.1025 17.6557 6.84479
Au 23.4994 18.8188 11.4298
Pt 23.3799 20.7642 13.458
Au 25.9846 17.6528 8.86069
Pt 24.0433 21.441 10.8993
Au 23.4977 18.7585 15.3953
Pt 25.2583 18.9592 17.4329
Au 27.1069 17.1077 17.4725
Pt 25.3496 18.8614 13.4072
Au 23.3427 18.765 19.4005
Pt 23.2541 22.7082 19.2778
Au 25.273 18.8752 21.3196
Pt 25.0738 20.747 19.3222
Au 21.4991 22.9195 21.4288
Au 20.2437 25.4767 10.8171
Pt 23.9565 23.3142 12.8867
Au 26.0968 19.603 10.8171
Au 25.9718 21.5072 12.8573
Pt 21.4565 24.6414 15.3786
Au 27.0853 18.9576 15.445
Pt 25.2262 20.8454 15.4186
Au 25.2772 22.656 17.4227
