561
Atoms. Timestep: 20478
Pt 10.6393 7.20555 16.4183
Au 10.9546 24.3755 14.3874
Pt 8.06694 9.06793 12.6858
Au 8.65835 5.40268 15.2474
Pt 13.3597 13.243 9.55107
Pt 6.51885 12.008 17.2345
Au 21.3877 25.1464 13.3102
Pt 11.142 17.843 18.5549
Au 3.93274 16.7827 17.9391
Pt 7.72992 9.63904 17.6735
Au 16.3438 25.5454 21.6889
Pt 18.4985 19.3712 17.8441
Au 4.49989 10.1628 11.011
Pt 15.2031 13.6034 21.3914
Pt 6.21612 15.882 19.0206
Au 17.5951 25.5304 10.2231
Au 14.6929 3.70838 17.9116
Pt 7.46759 21.3885 14.7826
Au 13.6513 14.3196 3.66046
Pt 5.0237 17.7952 20.3449
Au 17.0422 21.5967 25.4788
Pt 6.9131 21.0394 17.6016
Au 5.20832 20.1498 21.8579
Pt 12.1589 7.1376 19.0167
Au 12.2742 19.0799 27.2834
Pt 10.2922 18.2684 25.323
Au 8.76371 23.7663 12.615
Au 23.506 10.2364 19.6808
Pt 9.12132 21.3781 11.2556
Au 6.3208 23.7639 13.7268
Pt 18.9241 20.9907 13.0175
Au 21.4214 12.9281 23.8929
Pt 12.2493 14.7806 24.3325
Au 6.87945 20.6901 9.42497
Au 13.4287 16.7108 28.2205
Pt 13.9337 21.8666 8.66659
Pt 12.5145 12.7239 22.7198
Pt 11.6552 15.302 8.93714
Pt 14.0065 7.07244 14.9139
Pt 10.1365 10.2202 16.7546
Pt 8.80773 8.73034 10.1051
Pt 9.67557 17.1267 8.64883
Au 8.54232 20.4619 24.9448
Pt 20.8583 16.6062 8.10611
Au 11.9067 7.81094 6.61217
Pt 13.8652 19.1343 19.31
Au 17.0853 19.2662 26.8166
Pt 13.4346 9.3171 11.1197
Au 6.18997 8.08927 10.9946
Pt 24.3685 12.8484 19.2369
Au 3.86051 14.4234 19.3635
Pt 12.9374 5.85633 17.0303
Au 8.02205 6.75681 17.6134
Pt 7.38176 16.9462 21.2271
Au 20.7082 22.0775 21.4403
Pt 8.88642 12.1434 18.6787
Pt 22.0647 22.1967 19.0493
Pt 10.1299 15.4226 6.61651
Au 17.202 4.73427 18.6107
Au 7.33274 16.0516 7.6487
Pt 14.2268 4.32474 15.2619
Au 9.77329 11.2276 5.76554
Pt 10.6516 16.4106 20.8436
Au 12.8973 25.0959 12.3433
Pt 6.1344 18.4237 17.8923
Au 17.2715 13.3371 3.75951
Pt 8.34861 14.9383 14.8012
Au 9.72601 15.5451 25.3244
Pt 9.52677 18.8865 20.6472
Au 17.6408 6.31974 20.9153
Pt 14.9754 11.0311 12.5069
Au 9.18688 6.5599 8.63535
Pt 20.6127 13.1788 21.3657
Au 12.2941 11.8432 4.86014
Pt 16.2937 5.65592 14.0548
Au 7.98961 23.741 18.2287
Pt 15.9209 8.53414 21.0361
Au 23.6392 14.5517 23.203
Pt 22.4481 9.05276 16.2246
Pt 7.06229 19.5287 20.0869
Au 8.12817 6.2261 11.2977
Au 6.66724 21.5382 12.1811
Pt 14.855 17.3231 17.6608
Au 25.2476 22.6252 12.2782
Pt 16.1369 16.572 7.26901
Au 16.6306 13.5517 13.4787
Pt 7.89142 13.1992 10.6234
Au 8.35378 13.431 6.40549
Pt 11.4533 21.5964 9.723
Au 9.71171 17.8521 5.82446
Pt 14.6715 18.1127 26.2975
Au 15.2375 26.4361 16.1775
Pt 7.60298 18.9505 11.3084
Au 4.7331 21.6833 14.0459
Pt 5.28882 12.7339 10.742
Au 14.7158 8.8622 23.597
Pt 11.8273 10.9784 9.86598
Au 5.86121 23.0258 16.3014
Pt 16.7023 8.29111 14.3115
Au 12.9363 26.1558 14.9038
Pt 14.2464 10.8536 20.5344
Au 4.06523 11.9031 13.0879
Au 22.0151 20.4548 8.4834
Pt 16.238 9.56645 10.6868
Au 18.8682 8.15665 4.91509
Pt 18.0139 6.28201 16.3245
Au 3.99665 14.5509 12.3785
Pt 9.20295 16.9381 23.0592
Au 5.91922 19.2339 13.6715
Pt 10.3513 19.6139 23.1369
Au 4.33674 11.6931 20.0947
Pt 7.71806 17.0911 13.4576
Au 14.5338 18.0581 14.7347
Pt 13.0076 23.876 16.4396
Au 10.6569 12.9127 25.3327
Pt 9.5399 10.3286 20.5436
Au 17.3318 7.69604 23.2382
Pt 10.4272 4.85134 17.2442
Au 12.2381 4.31436 19.1788
Au 5.00814 9.85189 18.1193
Pt 18.5055 22.9616 10.9502
Au 19.7744 25.5647 15.4179
Au 7.81706 21.6809 22.1637
Pt 14.3047 17.7974 8.96047
Au 4.54125 17.7177 15.4921
Pt 13.7631 23.9587 19.1267
Au 16.0375 12.3822 25.8246
Pt 6.88405 16.5213 16.3938
Au 17.586 14.7214 25.6604
Pt 14.7813 21.9491 23.7034
Au 14.8622 25.4918 10.4597
Au 7.83688 8.15756 20.2597
Pt 18.3503 21.0744 19.9067
Pt 15.4188 14.1017 5.76072
Pt 9.35858 15.1655 12.1549
Pt 6.86779 10.7614 19.8551
Pt 11.6953 5.42703 14.6662
Pt 6.25331 12.9966 14.6888
Pt 8.54028 14.7572 20.3754
Pt 9.90296 8.46662 18.5902
Pt 15.4368 8.83013 16.5318
Pt 16.1442 19.2474 16.556
Pt 14.705 11.0211 9.1027
Au 26.536 17.2218 12.2568
Au 11.9967 14.5707 27.0982
Pt 16.0198 11.2335 6.65728
Au 9.33555 8.95202 7.29132
Pt 8.5805 12.8591 13.2434
Au 7.90493 18.9072 7.59674
Pt 7.22334 10.5344 15.0512
Au 8.98094 22.0344 8.3759
Pt 14.6964 18.9738 6.67122
Au 14.912 6.39929 22.395
Pt 11.7358 17.132 23.1554
Au 5.81352 12.5119 22.1675
Pt 20.201 7.34103 11.542
Au 26.2921 14.694 13.6122
Pt 7.75237 19.1173 22.6588
Au 5.9707 17.9692 9.29153
Pt 16.6392 11.1459 21.4883
Au 11.2971 25.3581 19.7325
Pt 10.7199 6.47351 10.8965
Au 20.9237 4.92154 12.6724
Pt 14.3708 16.9747 23.5839
Pt 16.6724 17.8875 5.08635
Au 25.7818 11.9208 13.0972
Au 5.39314 15.2604 9.84561
Pt 18.5114 5.21141 11.4592
Au 4.54872 10.7924 15.5464
Pt 17.7221 15.3057 5.56214
Au 23.0165 7.02948 12.1206
Pt 9.7816 7.015 13.4109
Au 10.204 20.3412 6.67803
Pt 14.001 9.61237 14.357
Au 18.302 17.8207 15.211
Pt 6.63926 11.3334 12.5147
Au 13.3456 13.2347 19.5745
Pt 8.10346 14.4376 17.5377
Au 14.6414 6.72232 7.03747
Pt 8.5684 16.9249 18.8832
Au 15.7202 2.99016 13.5168
Pt 15.6307 19.5259 24.3306
Au 13.9076 9.64561 5.88412
Pt 8.27435 12.5408 21.4256
Au 12.5593 23.1917 24.8447
Pt 19.1028 14.4059 23.2549
Pt 9.77797 19.5747 9.42582
Au 18.4983 23.7686 8.22141
Au 14.4374 4.66515 8.99284
Pt 7.77099 16.3385 10.4644
Au 10.6316 14.8134 18.6441
Pt 14.0401 15.2435 7.8613
Au 16.1756 12.6523 10.758
Pt 9.90724 17.7021 11.5263
Au 20.2494 17.5055 17.3341
Pt 11.8058 10.4068 7.37083
Au 18.4948 14.0767 18.4502
Pt 19.0458 17.9678 20.077
Au 12.9714 17.8947 12.4679
Pt 21.8145 9.38613 11.1125
Au 11.4903 12.3227 17.8398
Pt 17.2657 16.1247 20.3969
Au 22.6276 6.38049 16.7905
Pt 15.042 23.2435 21.4541
Au 16.5438 16.6689 27.5657
Pt 11.9234 10.3394 21.8747
Au 12.1159 4.17711 10.7835
Pt 19.2565 19.7902 21.9995
Pt 12.4143 19.729 7.97537
Au 13.6601 21.359 5.95675
Au 9.96417 24.0159 9.91121
Pt 16.197 13.6561 8.27864
Au 20.3961 4.96383 15.6861
Pt 5.52785 15.5365 14.429
Au 7.43926 10.1087 22.3594
Pt 9.09364 19.4274 13.4906
Au 5.54482 17.5192 23.0974
Pt 15.6968 21.1436 20.0414
Au 20.289 7.45517 7.13451
Pt 10.3755 19.2735 15.9985
Au 25.0527 10.445 7.88839
Pt 14.1714 16.565 5.40617
Au 13.2161 15.3428 14.3111
Pt 16.8473 18.2805 22.1104
Au 15.4673 16.0045 12.9758
Pt 11.3454 20.3464 18.6812
Au 17.1827 10.2578 24.1733
Pt 14.6617 11.4509 23.2924
Au 15.0941 23.521 25.8023
Pt 18.371 23.282 16.3144
Au 14.1424 20.9441 26.2262
Au 19.838 20.0748 25.9815
Pt 12.7304 22.3205 13.9036
Au 3.61293 13.6807 15.0835
Pt 7.64814 18.9165 15.6966
Au 3.75938 12.3696 17.5738
Pt 19.0243 17.0185 22.9553
Au 18.2833 26.2597 12.7498
Pt 16.0668 23.0835 9.67952
Au 5.29826 15.1638 21.5553
Pt 22.9227 22.9798 13.6552
Au 21.3013 16.4741 5.32672
Pt 16.6703 19.585 13.7618
Au 11.5485 22.6891 7.31705
Pt 22.5714 14.668 20.4627
Au 15.3141 26.4101 13.1835
Pt 8.84247 19.3058 18.0286
Au 5.99097 8.22464 16.0634
Au 5.33275 17.0632 11.9938
Pt 9.51139 16.7943 16.4528
Pt 20.5401 9.59679 8.76676
Pt 22.8951 11.1391 9.24141
Pt 12.5 16.8475 25.7059
Pt 9.31664 11.4307 8.69091
Pt 18.8591 6.32057 13.8794
Pt 17.895 13.605 21.0145
Pt 17.1249 17.6673 9.39551
Pt 16.9602 12.9228 23.4549
Pt 21.7271 12.4902 19.1783
Pt 16.4803 10.9323 15.2874
Pt 7.07234 10.6902 9.97648
Pt 17.5667 7.60827 11.831
Au 18.9193 17.1167 3.84852
Au 24.631 18.295 10.1711
Pt 9.11157 14.4494 8.86911
Au 7.60938 17.6919 25.0508
Pt 21.7821 14.6203 15.0235
Au 21.9663 7.92937 18.9781
Pt 12.4222 7.31689 12.8032
Au 4.95699 19.7047 11.1679
Pt 18.4043 8.04202 9.22877
Au 7.52468 14.7655 23.1597
Pt 15.5036 6.14864 16.8795
Au 26.6155 14.1427 18.625
Pt 12.1673 17.1952 7.13457
Au 4.96504 10.9047 8.489
Pt 18.3558 9.27939 21.2606
Au 27.4682 19.1576 16.2294
Pt 25.2757 15.3309 16.3187
Au 21.0092 9.70978 5.67921
Pt 13.7677 5.13204 12.778
Au 10.4154 13.7543 4.54887
Pt 18.2497 19.2235 24.2653
Pt 16.1994 8.97666 7.88933
Au 22.0864 13.75 5.31663
Au 13.0104 16.0602 19.1531
Pt 23.1497 13.6004 10.6682
Au 14.491 18.606 3.77853
Pt 9.36857 11.1144 11.3622
Au 25.36 11.2446 10.444
Pt 18.3217 15.5978 8.41969
Au 14.3036 11.255 17.463
Pt 9.74114 10.7028 14.0267
Au 24.8948 10.189 15.151
Pt 23.3175 11.3339 17.1989
Au 12.0871 11.504 15.3754
Pt 15.0357 7.7107 12.3969
Au 10.6782 16.9292 14.0219
Pt 10.6725 7.99151 21.0402
Au 19.1816 21.979 23.8177
Pt 14.7109 14.2047 23.9066
Au 22.9437 5.15268 14.3933
Pt 14.4294 8.55338 18.8275
Au 14.7057 15.1341 26.344
Pt 6.38575 13.3462 19.5447
Pt 20.4935 22.4227 14.8264
Au 15.9955 15.848 3.47872
Au 10.1836 3.18034 15.0694
Pt 24.851 12.8848 15.4582
Au 23.415 15.4409 7.01981
Pt 18.5244 9.8301 6.86784
Au 19.6517 21.3195 6.9659
Pt 19.6047 18.9879 8.66295
Au 16.1141 15.913 15.6429
Pt 19.9791 14.485 6.70465
Au 24.5613 20.9686 19.1909
Pt 20.1283 21.3158 17.496
Au 12.0666 15.5845 11.576
Pt 22.4361 19.5346 17.7144
Au 19.6695 6.0245 18.6535
Pt 20.2587 10.3681 15.5368
Au 11.1943 13.5795 13.492
Pt 9.33869 21.7828 16.8311
Au 11.1989 20.9449 25.6062
Pt 16.6561 15.5415 22.804
Au 14.4677 2.94714 11.1509
Pt 12.9347 19.1646 24.411
Pt 21.7899 16.1611 12.3169
Au 16.3239 22.1819 7.09086
Au 17.7185 25.7126 17.4057
Pt 18.2226 23.3169 21.4112
Au 19.7498 9.09244 23.4606
Pt 22.725 15.9975 9.70525
Au 24.8839 9.26058 12.49
Pt 17.328 19.4851 7.20903
Au 12.355 16.8522 16.3637
Pt 11.8979 17.9045 9.90572
Au 12.986 26.2036 17.7795
Pt 11.0897 12.9748 7.59068
Au 10.8059 13.2911 10.6809
Pt 18.7282 12.7943 11.7507
Au 17.4782 15.15 10.9758
Pt 13.1247 21.5826 20.4816
Au 10.6408 16.8868 27.6106
Pt 19.5414 17.0698 10.5441
Au 6.19903 22.2255 19.9772
Pt 20.455 14.691 10.4263
Au 25.3344 14.4056 21.1695
Pt 16.4137 21.3383 11.6311
Pt 23.7627 13.8772 13.2868
Au 12.6658 24.1853 9.51029
Au 17.1877 4.68726 9.04292
Pt 17.7594 17.3819 12.6165
Au 15.5254 26.1437 18.9831
Pt 13.7269 12.3845 7.05281
Au 22.9712 23.8342 11.0714
Pt 18.2516 20.7214 15.5504
Au 10.8946 14.4212 15.9763
Pt 18.1756 21.2475 9.10991
Au 18.784 19.6728 4.90459
Pt 10.2163 14.3743 22.6542
Au 24.6439 13.1887 8.35894
Pt 20.4434 11.0071 12.941
Au 12.2335 19.0547 5.19032
Pt 20.4214 20.5567 10.7146
Au 16.5474 13.3742 16.4812
Pt 13.9992 21.6259 17.9799
Au 18.9654 17.303 26.2617
Pt 14.5996 24.0175 14.2788
Au 16.9168 23.7389 23.7115
Pt 11.806 21.6565 16.2943
Pt 13.403 6.68162 10.4351
Pt 19.054 11.5034 19.7865
Pt 6.66819 14.5939 12.3689
Pt 21.0922 17.0781 14.7338
Pt 5.38948 14.4244 16.9584
Pt 17.6637 11.0198 8.99379
Pt 15.9136 5.25379 11.4213
Pt 16.7566 10.0093 18.8072
Au 20.2119 25.0769 10.8627
Pt 21.2338 13.4603 12.6956
Au 16.1197 20.5454 4.89067
Pt 12.7175 8.85621 16.8531
Au 24.2005 8.73299 9.92025
Pt 20.3748 11.789 7.4004
Au 5.30674 9.12708 13.4741
Pt 11.2403 8.43418 9.23254
Au 6.76038 8.53463 8.36338
Pt 8.60737 8.38018 15.3338
Au 11.9163 5.8049 8.39776
Pt 23.1769 13.9543 17.1854
Au 10.0819 4.43468 12.6622
Pt 23.9069 16.3928 14.3438
Au 26.3601 16.812 20.3175
Pt 24.2184 20.7495 13.8475
Au 26.8565 21.0032 14.2923
Pt 20.8733 22.6962 12.0736
Pt 20.7871 19.8673 19.6906
Pt 18.0157 12.7444 6.40765
Au 14.9672 11.8527 4.26593
Au 21.9574 7.15845 9.45995
Pt 13.9898 22.6961 11.4281
Au 25.2913 15.8174 9.12474
Pt 13.7058 8.66441 8.56422
Au 17.2287 2.9193 11.2471
Pt 8.9095 12.4678 15.9264
Au 22.9733 11.5608 6.54357
Pt 18.067 9.00865 16.4527
Au 12.2194 11.2451 12.6094
Pt 16.8102 21.5497 17.6696
Au 18.9405 12.6571 14.6271
Pt 13.3545 8.29832 21.175
Au 15.4866 18.3619 11.4704
Pt 21.3299 7.22216 14.2668
Au 18.9883 12.3572 25.2082
Pt 14.3206 20.4675 12.9817
Au 9.85295 11.5905 23.2376
Pt 10.8772 12.6788 20.5903
Au 12.4741 2.97432 13.526
Pt 14.5033 19.5741 21.9891
Pt 20.767 11.9094 10.3323
Au 6.89421 6.8591 13.7106
Au 12.2772 5.79551 21.4646
Pt 18.8315 13.2207 9.02856
Au 25.373 19.079 21.4578
Pt 19.0524 9.84503 11.0079
Au 13.9976 23.9008 7.0397
Pt 21.2936 18.1182 21.8356
Au 13.9031 13.5513 12.2074
Pt 15.8955 7.05609 9.57908
Au 19.0847 15.1649 15.9778
Pt 21.728 20.4865 13.2592
Au 25.2181 23.0411 15.0513
Pt 18.8661 23.791 13.413
Au 24.6129 8.85622 17.5977
Pt 25.5827 18.5487 14.3244
Au 24.2926 23.076 17.5564
Pt 12.1305 18.8268 21.1791
Au 12.3369 3.06422 16.604
Pt 16.5835 23.6949 19.3211
Au 23.1892 12.2376 21.6971
Pt 14.6805 21.3104 15.521
Pt 20.7077 12.7726 16.7383
Au 14.6961 5.8984 19.6931
Au 17.5517 6.68866 7.06112
Pt 16.4852 18.7323 19.4652
Au 4.53664 20.2091 19.1004
Pt 14.7591 16.9954 20.9242
Au 14.834 15.5458 10.3632
Pt 21.8967 13.6822 8.34347
Au 19.2679 15.2862 13.2181
Pt 10.0672 21.7371 14.1282
Au 13.6532 14.2887 16.9147
Pt 13.1782 19.3656 16.7912
Au 14.4045 12.6442 14.7952
Pt 18.0847 19.4294 11.0332
Au 20.2076 7.39674 21.1472
Pt 20.9957 15.0062 18.2014
Au 5.99355 19.858 24.4128
Pt 12.4608 21.2375 23.0067
Au 11.6371 16.41 4.35674
Pt 19.2763 8.83669 13.7279
Au 4.80054 20.2848 16.2753
Pt 11.2804 22.9466 11.9286
Au 19.98 12.0012 4.67855
Pt 12.5188 14.4764 6.00479
Au 20.348 25.9855 18.1505
Au 8.40777 23.9213 15.4364
Pt 20.2061 18.478 12.7041
Au 10.0445 22.5395 23.5795
Pt 18.877 17.4208 6.59054
Au 7.40045 23.2842 10.2849
Pt 15.6017 23.7791 16.8479
Au 15.6017 14.9732 18.7407
Pt 8.78679 21.5092 19.4674
Au 13.6968 25.8586 20.9931
Pt 16.3494 24.0587 12.2346
Au 21.3764 20.3122 23.6529
Pt 15.8051 20.1093 9.21255
Au 16.118 25.0694 7.98141
Pt 22.6369 21.5963 16.0402
Pt 21.0661 23.6925 17.0334
Pt 17.5994 16.8111 17.811
Pt 17.5118 10.6919 12.9263
Au 20.8828 22.8431 9.27143
Pt 24.3848 15.7067 18.8388
Au 9.79155 5.84855 19.6625
Pt 12.0118 10.0378 19.2059
Au 7.27008 10.8729 7.05269
Pt 23.0927 18.8401 15.2815
Au 25.8715 13.8542 10.9756
Pt 18.4218 11.4853 17.2354
Au 23.4593 18.4196 23.4035
Pt 21.3956 15.6725 22.7845
Pt 16.9376 21.0971 22.4121
Pt 22.4136 11.9271 14.7726
Au 22.8453 8.88593 7.49618
Pt 19.8833 15.5676 20.596
Au 26.6386 19.1793 18.8101
Pt 20.2571 7.70165 16.6112
Au 21.1161 10.1396 21.0966
Pt 23.1805 11.4543 12.1225
Au 22.9476 20.284 21.2883
Pt 25.0409 20.5133 16.4645
Au 21.075 17.7963 24.66
Pt 24.1257 18.3332 19.2756
Au 16.8809 3.76154 16.0205
Pt 22.4689 9.44521 13.6788
Au 20.8857 24.5775 20.5023
Pt 12.9667 15.1436 21.7241
Au 9.35061 23.7548 20.8451
Pt 23.3791 18.4322 12.5982
Au 20.4357 15.1418 25.3639
Pt 16.936 7.43941 18.6168
Pt 16.2492 12.4452 19.113
Pt 10.7693 9.04008 11.8808
Au 19.7067 5.68784 9.15824
Au 24.2014 7.52983 14.7337
Pt 22.7865 16.6363 16.8905
Au 23.3027 20.9879 11.0169
Pt 24.3558 15.9517 11.7443
Au 26.0118 11.5682 17.504
Pt 20.9826 10.2934 18.1042
Au 10.4785 24.7305 17.1101
Pt 16.698 17.1031 24.8562
Au 17.5943 10.6666 4.41767
Pt 11.4336 8.86084 14.5948
Au 13.3585 12.5523 25.651
Pt 23.7324 16.7727 21.4002
Au 12.1797 10.397 24.4839
Pt 10.6116 21.3522 21.1796
Au 27.3165 16.6278 17.7635
Pt 19.1851 23.3857 18.8767
Au 18.4452 3.68239 13.7219
Pt 19.1259 11.531 22.6248
Au 12.1037 23.7765 21.9006
Pt 17.0423 25.037 14.8185
Au 21.0905 19.0074 6.30834
Pt 12.1793 19.6714 14.3355
Au 16.2445 8.45462 5.28764
Au 19.782 14.58 3.9287
Pt 19.2004 8.71499 18.9349
Au 23.1935 18.0273 7.84788
Pt 13.5032 20.0376 10.5235
Au 27.3281 16.6735 15.0508
Pt 11.2743 20.0965 11.9478
Au 25.906 19.9276 11.9125
Pt 25.1066 17.8936 16.8789
Au 12.1788 7.7761 23.4616
Pt 16.6801 22.3404 14.2331
Au 22.9812 24.7331 15.666
Pt 11.2557 22.8724 18.8278
Au 27.338 13.7396 16.0452
Au 18.4127 25.7703 20.0634
Pt 21.842 18.3974 10.3826
Au 14.2986 24.8062 23.5023
Au 22.773 24.9256 18.6353
Pt 20.5576 19.6022 15.4607
Au 6.46213 13.2386 8.30681
Pt 21.8193 17.2104 19.462
Au 9.73648 8.94777 23.2467
