561
Atoms. Timestep: 20282
Pt 18.8195 9.96076 22.7448
Au 9.24408 20.2634 22.9442
Pt 16.6659 5.606 19.9446
Au 5.17907 12.1679 15.5488
Pt 9.38951 11.5059 12.3427
Pt 7.83167 13.7051 12.0854
Au 24.4489 21.2804 12.0701
Pt 9.69741 10.7891 14.819
Au 8.59059 21.5901 20.5819
Pt 22.1408 17.8639 13.6197
Au 12.5937 11.0449 25.9342
Pt 18.0624 18.9835 23.6573
Au 25.2924 13.9297 11.4761
Pt 18.0257 6.35181 17.9204
Pt 10.8513 22.7806 19.2211
Au 7.47722 14.5043 5.76589
Au 23.5277 15.1026 22.8416
Pt 18.8425 23.8067 19.0231
Au 18.2336 7.07207 23.7377
Pt 12.1609 14.5179 24.5728
Au 7.46152 12.2852 24.6508
Pt 21.0804 22.4657 18.9392
Au 16.4095 8.82062 24.4632
Pt 20.6701 9.26766 16.0698
Au 15.0588 24.6667 24.9424
Pt 21.8704 13.8447 21.0255
Au 7.76611 21.4642 15.9309
Au 23.4304 16.7164 7.70156
Pt 10.986 19.6549 9.90659
Au 9.87702 5.6288 20.2656
Pt 15.7238 17.6786 16.5352
Au 21.4191 4.57044 15.0092
Pt 16.3104 15.4657 7.36847
Au 7.90429 7.11823 13.7021
Au 24.5223 13.9187 8.88072
Pt 19.5765 16.0501 10.2818
Pt 9.67404 15.7396 19.9712
Pt 11.1889 12.1313 10.437
Pt 19.3723 8.53313 18.2315
Pt 22.7528 12.6849 10.5067
Pt 15.5991 11.3796 10.7528
Pt 18.9437 19.6125 7.66147
Au 17.4141 5.26856 8.59196
Pt 11.8534 12.0249 20.8071
Au 21.3196 8.10841 8.79284
Pt 12.1133 16.3525 22.3419
Au 16.9625 22.8716 25.4976
Pt 22.3522 18.3894 20.5409
Au 12.1922 25.843 12.1337
Pt 13.3402 21.1551 22.483
Au 6.61182 17.0831 5.65094
Pt 22.3919 10.4884 12.0399
Au 5.82959 19.8065 8.39538
Pt 10.6144 21.7384 14.7732
Au 18.3255 18.6853 3.47733
Pt 7.33807 13.9016 16.7348
Pt 15.7317 22.1204 9.90221
Pt 12.0581 21.3313 7.86765
Au 21.809 7.67534 11.511
Au 4.68558 17.4703 20.074
Pt 12.4502 5.99076 16.5188
Au 12.8819 4.06435 8.95414
Pt 23.7642 17.0004 15.352
Au 18.2133 10.8177 25.592
Pt 14.0185 22.2804 15.2274
Au 19.0232 3.95069 13.7071
Pt 13.9691 7.99322 6.73433
Au 18.7284 26.4642 18.6863
Pt 6.6452 16.9372 15.9452
Au 11.7695 3.83323 15.0624
Pt 17.8937 14.0231 9.0544
Au 11.322 13.4153 26.8521
Pt 19.0617 14.5575 21.7121
Au 18.5674 5.35968 21.7342
Pt 18.5364 12.935 23.7334
Au 6.41932 8.37671 17.2238
Pt 19.9961 16.2467 13.3008
Au 11.9857 24.8 20.8695
Pt 22.169 14.8134 14.5256
Pt 20.5144 22.8067 10.1347
Au 8.94686 24.5306 8.88901
Au 22.2252 17.4023 23.3805
Pt 17.4972 12.2669 21.2911
Au 8.971 10.4151 7.45036
Pt 7.29517 11.829 13.9308
Au 16.1839 14.9055 17.3053
Pt 16.1072 13.9133 22.8902
Au 18.6291 7.76863 7.97116
Pt 11.5205 24.2921 10.0069
Au 6.19709 11.5644 11.2771
Pt 18.6195 10.6018 19.7019
Au 15.1038 26.405 12.1711
Pt 10.2764 22.8749 11.8906
Au 6.92501 20.7924 18.52
Pt 13.4397 19.2732 6.62932
Au 14.6129 3.89398 19.5506
Pt 20.2093 11.9473 21.86
Au 19.99 8.86885 24.7872
Pt 23.4546 15.8127 12.3648
Au 5.78698 19.5255 15.9807
Pt 11.0619 19.3517 15.8798
Au 25.7621 14.661 18.9417
Au 14.3325 16.1143 2.97802
Pt 11.435 8.30702 15.4166
Au 25.0299 18.9632 17.036
Pt 13.5038 19.0867 20.7561
Au 8.59374 14.0727 26.6603
Pt 8.98511 19.5687 14.1052
Au 8.21826 16.9575 26.0235
Pt 7.07265 15.0004 14.2513
Au 5.28949 11.9836 20.4071
Pt 14.365 6.29012 12.2622
Au 11.5278 15.2822 14.9264
Pt 15.302 14.0131 9.68561
Au 16.7914 16.4447 22.5779
Pt 8.32872 16.2739 17.8387
Au 13.5531 19.5731 25.0877
Pt 14.2374 6.613 20.2652
Au 22.9398 12.3539 23.1279
Au 19.7696 6.18711 9.98929
Pt 15.7617 20.4231 14.2535
Au 22.6404 20.1505 18.5514
Au 10.0618 5.55019 12.4634
Pt 12.5246 14.3604 10.0026
Au 19.5223 13.4698 26.1301
Pt 19.7791 21.4715 12.2337
Au 26.0794 16.3449 16.7989
Pt 17.9638 13.1568 6.59795
Au 23.2274 6.28554 13.5025
Pt 7.38069 10.8533 16.3524
Au 20.2669 22.0609 7.59686
Au 15.8771 15.7248 26.8426
Pt 13.6025 12.1195 9.02633
Pt 18.6158 20.6941 14.5047
Pt 16.5897 5.12604 12.9598
Pt 9.77883 14.4441 10.4483
Pt 18.2657 11.6892 10.4157
Pt 17.0385 6.915 10.8708
Pt 11.8547 17.015 6.13936
Pt 16.3613 9.45173 7.00825
Pt 8.81877 8.55983 15.7734
Pt 14.3994 23.5468 20.8321
Pt 9.37012 18.266 11.7765
Au 12.6119 6.08935 24.5984
Au 4.82013 18.714 11.9589
Pt 12.4049 6.14128 13.8733
Au 10.6639 6.92607 22.9436
Pt 13.3062 10.8359 18.8939
Au 7.27989 22.2467 8.49559
Pt 14.5757 11.7761 21.5686
Au 20.9992 5.14289 12.3145
Pt 16.696 14.654 20.3866
Au 7.84572 6.15616 16.6278
Pt 17.4959 10.1705 17.2868
Au 15.7666 8.87474 4.52251
Pt 23.3251 12.8961 13.0703
Au 24.6672 19.8969 20.1952
Pt 11.3101 16.5986 10.9896
Au 7.47277 9.5847 9.58506
Pt 9.0285 10.8363 20.6577
Au 20.3556 24.5604 12.1766
Pt 9.15006 16.9724 6.63827
Au 16.2248 20.2241 26.0263
Pt 20.1228 14.9859 7.69927
Pt 19.1137 14.4879 16.9188
Au 10.1315 4.61138 17.426
Au 9.5131 25.3877 11.418
Pt 23.2049 9.99363 16.4154
Au 10.7916 25.2671 18.287
Pt 14.0651 7.90415 15.4642
Au 12.9665 13.8769 2.33339
Pt 9.17827 18.5959 19.2191
Au 12.5392 5.12332 21.8975
Pt 12.1565 21.7441 17.0522
Au 13.1211 15.6804 12.7628
Pt 10.07 9.69205 10.389
Au 13.7125 12.9365 11.9389
Pt 10.5989 19.1678 7.22763
Au 11.5448 20.7987 5.19556
Pt 8.46969 12.067 9.964
Au 9.42161 7.8428 8.32866
Pt 6.51522 18.2691 18.3478
Au 14.745 5.22899 7.46101
Pt 8.23597 15.0596 8.39945
Au 7.02034 15.0617 24.6474
Pt 23.2835 12.8193 18.5895
Pt 7.6451 16.1812 10.8594
Au 6.51369 20.3439 13.3653
Au 12.2107 11.2442 2.7839
Pt 13.8163 12.4689 4.56923
Au 11.1745 8.57104 6.27738
Pt 12.2343 24.14 15.942
Au 15.7926 14.9822 12.2624
Pt 15.6807 18.5744 10.9231
Au 18.965 4.26757 19.2191
Pt 18.939 22.2049 16.7333
Au 13.3165 14.7159 16.991
Pt 11.5878 9.65097 22.1121
Au 17.4588 9.72964 12.3725
Pt 21.0063 16.2991 21.1608
Au 18.5313 23.7136 6.11294
Pt 20.6686 9.34185 20.5407
Au 4.83337 13.2811 18.0247
Pt 7.2477 17.6197 13.3416
Au 7.10017 19.3094 21.0692
Pt 7.28334 16.7806 20.3797
Au 10.5617 16.0366 26.6619
Pt 16.5057 19.7675 8.73944
Pt 11.1294 13.6617 12.6972
Au 10.7162 5.70105 9.60162
Au 18.8291 21.0048 5.31549
Pt 11.0036 20.3513 12.4593
Au 18.8417 6.80068 12.6609
Pt 16.1459 24.1049 18.8019
Au 14.6892 18.1408 27.1388
Pt 12.5334 17.1355 24.8882
Au 5.96058 21.1847 10.7482
Pt 16.0746 18.5362 21.1267
Au 24.5772 10.4774 21.6792
Pt 16.2935 19.8957 6.03011
Au 19.1609 11.3392 5.01209
Pt 17.498 12.8702 18.499
Au 13.1721 15.8104 27.1398
Pt 13.058 21.5422 19.7431
Au 8.13498 23.2469 18.4952
Pt 12.4314 17.757 8.72001
Au 22.6641 14.1217 6.97666
Pt 19.3674 8.85337 10.5568
Au 23.1107 11.5722 8.08687
Pt 14.9658 24.5832 16.4652
Au 21.9717 9.77905 22.9675
Au 5.66364 16.351 22.473
Pt 19.7085 22.2549 21.2469
Au 24.5991 10.6097 13.9134
Pt 12.5121 22.6142 13.1582
Au 14.9324 10.8172 2.88153
Pt 13.5789 6.51171 9.72604
Au 11.0493 23.8088 7.36338
Pt 14.9894 21.9712 17.8531
Au 8.72638 16.1864 4.06272
Pt 16.3896 16.9075 19.0282
Au 13.1089 9.22995 4.36855
Pt 22.4154 11.2944 20.5816
Au 10.0343 18.5315 4.57976
Pt 21.4374 10.7776 18.2569
Au 18.2301 17.9308 26.25
Pt 13.2396 23.9359 18.4482
Au 13.1847 23.0007 5.83781
Au 12.2368 26.5948 14.7784
Pt 11.7408 18.9652 22.931
Pt 13.6286 15.5029 7.77938
Pt 15.7663 7.33937 8.68048
Pt 8.28449 15.3644 22.3328
Pt 11.6934 7.46638 11.3554
Pt 10.7481 14.2066 21.9689
Pt 17.2312 23.2258 21.1074
Pt 17.042 9.42818 9.61546
Pt 24.8274 14.8203 14.4497
Pt 15.9878 17.7396 24.86
Pt 20.5165 17.6727 18.6693
Pt 12.9946 8.63286 13.2203
Pt 17.9449 18.9228 18.8245
Au 5.09435 10.6034 17.8895
Au 21.8633 23.7551 21.3533
Pt 21.5068 13.3037 16.639
Au 12.9125 23.7407 23.3703
Pt 15.7101 20.1686 23.3468
Au 9.23538 10.1729 23.3822
Pt 14.2537 17.8345 22.967
Au 15.6111 13.4405 2.62166
Pt 21.6941 17.3894 11.0363
Au 18.5163 24.1343 8.87154
Pt 9.90869 12.9668 8.00391
Au 10.8764 22.4914 22.0231
Pt 11.5543 10.7396 8.12564
Au 5.67599 15.3218 7.62927
Pt 22.5104 8.82951 14.1276
Au 18.4217 8.84026 5.44204
Pt 16.0866 24.7134 10.1919
Au 22.3615 21.0248 21.4057
Pt 14.6294 10.5809 13.0118
Au 4.21157 17.4183 17.1536
Pt 9.56883 17.8177 21.7741
Pt 12.8529 8.0478 18.1792
Au 20.9857 14.3522 23.7346
Au 14.1462 3.76718 13.5717
Pt 8.52506 19.9112 8.81499
Au 18.4104 15.4702 27.4276
Pt 7.06271 18.7305 10.6747
Au 15.3759 4.5418 10.3982
Pt 20.915 17.5173 8.38477
Au 12.2683 5.06286 19.0228
Pt 13.2869 10.4788 15.487
Au 19.8704 23.7885 23.5176
Pt 14.3434 9.59818 8.83748
Au 19.7068 13.6132 14.3442
Pt 12.1834 19.3983 18.3186
Au 16.1418 10.3086 15.0494
Pt 9.2231 16.691 15.2637
Au 14.1972 22.1291 25.3006
Pt 17.5984 17.1066 12.2901
Au 15.315 6.25232 24.3782
Pt 18.884 15.5873 19.2436
Au 23.4064 9.49652 9.78551
Pt 11.5573 11.9733 23.4921
Pt 21.4083 20.4967 14.1923
Au 19.8988 18.3172 5.60939
Au 11.9947 18.3985 27.1237
Pt 18.6764 10.6243 7.84171
Au 12.0989 6.0962 7.25664
Pt 18.6482 17.6092 20.9779
Au 22.0946 25.1837 14.8517
Pt 14.1474 16.4658 10.3427
Au 23.6596 15.7276 20.2092
Pt 13.1298 14.9073 5.12519
Au 14.4646 13.514 19.397
Pt 8.76069 9.56913 18.292
Au 10.4342 24.6157 13.9359
Pt 13.3922 14.01 22.0956
Au 20.5131 6.44598 19.9223
Pt 18.4052 18.5285 10.157
Au 19.8296 16.2804 3.57977
Pt 11.0534 9.67761 19.5698
Au 9.32087 24.3587 20.6111
Pt 10.9427 17.1233 17.4616
Au 9.02669 12.2848 5.45008
Pt 14.4588 20.8625 11.9112
Pt 20.6941 19.8827 9.7992
Au 24.9902 8.22893 15.0401
Au 25.8397 11.9789 18.8552
Pt 13.8787 19.9139 9.34685
Au 15.249 4.72156 22.132
Pt 23.8778 12.5445 15.7443
Au 24.7175 16.4445 10.0809
Pt 20.903 10.7624 9.59613
Au 16.8592 12.4851 13.0178
Pt 23.7389 14.9013 17.0206
Au 6.60646 9.46008 19.941
Pt 11.2036 10.2193 17.0794
Au 12.4309 4.51681 11.5474
Pt 9.4307 15.7478 12.8598
Au 14.4184 16.1578 20.8036
Pt 14.0793 19.8546 16.4115
Au 4.60459 17.5577 14.3887
Pt 14.7515 21.5221 7.39034
Au 23.3876 18.8727 9.45764
Pt 14.5618 17.0641 5.60412
Au 24.369 21.5857 16.9344
Pt 15.9066 14.6687 4.916
Pt 9.44211 12.1541 17.1082
Au 11.4253 8.90233 24.6796
Au 20.4186 16.1427 25.7812
Pt 12.2392 13.2103 6.94786
Au 24.1912 9.93214 18.9369
Pt 11.4895 11.0873 5.49504
Au 23.4846 22.7053 14.5706
Pt 15.1977 19.4525 18.7173
Au 12.7763 18.4594 3.96593
Pt 13.9494 24.7048 13.9361
Au 20.5742 26.7854 16.7278
Pt 13.9059 10.112 23.4967
Au 24.9566 11.2438 11.2532
Pt 20.1645 20.0939 19.7678
Au 8.77363 7.36694 10.9506
Pt 13.0214 19.9724 14.0353
Au 13.9783 3.70886 16.7114
Pt 15.9245 10.9709 19.429
Au 19.1195 3.8341 16.4786
Pt 17.115 17.5873 5.63755
Au 7.84816 19.4416 6.23806
Pt 13.6981 17.1273 18.3734
Pt 7.27607 14.1414 20.037
Pt 15.7918 22.8918 13.0105
Pt 8.62721 12.7369 22.2065
Pt 14.8849 13.3161 6.87208
Pt 14.0162 9.20326 20.7202
Pt 20.186 9.30533 13.0159
Pt 11.5984 17.5062 20.0756
Pt 9.23001 13.6033 14.7012
Au 14.7788 25.5985 22.4806
Pt 19.7714 19.8128 17.1221
Au 23.0552 8.30818 20.9595
Pt 16.3233 11.5952 5.20076
Au 18.2229 4.31266 11.082
Pt 16.5211 7.75077 16.4319
Au 16.6028 6.80394 6.17341
Pt 11.2007 13.2948 4.15582
Au 21.8066 19.7892 7.29033
Pt 10.0335 16.4075 24.0162
Au 15.9839 26.7121 17.9081
Pt 16.3772 8.23863 19.2394
Au 5.30752 15.9195 12.2813
Pt 12.931 18.6259 11.5601
Au 19.4315 25.1853 21.2516
Pt 11.8481 11.0756 13.1764
Au 9.39083 21.6933 6.72801
Pt 19.5001 11.7127 16.8787
Pt 10.2122 14.764 5.89376
Pt 22.2486 19.903 11.8398
Au 9.64099 23.5928 16.4058
Au 21.5632 16.3036 5.76677
Pt 15.1953 17.7415 8.09446
Au 24.1455 19.9444 14.4835
Pt 22.2101 18.9658 16.2431
Au 14.2184 20.8304 4.47565
Pt 14.8681 9.44422 17.443
Au 16.827 20.9213 3.5328
Pt 21.5992 11.4431 14.6144
Au 17.6715 15.4677 14.6371
Pt 18.0156 21.796 23.356
Au 9.67346 20.9084 17.8501
Pt 16.1153 7.23762 22.0419
Au 14.3668 12.911 14.6249
Pt 20.44 24.237 16.8076
Au 26.3037 13.4911 16.511
Pt 8.48634 18.8394 16.6208
Au 18.1146 13.5523 3.718
Pt 11.9112 12.7097 18.0841
Au 16.6122 3.99809 17.6043
Pt 11.7685 7.41324 20.5467
Pt 20.1794 11.9215 12.1851
Au 4.63268 14.7475 20.4778
Au 7.67307 23.3681 10.972
Pt 10.2012 14.6299 17.225
Au 14.1586 26.1379 19.8457
Pt 18.4431 8.51235 14.9582
Au 11.4822 21.2844 24.4636
Pt 17.8066 24.7444 16.6719
Au 13.0712 17.4564 15.6553
Pt 10.1504 8.72464 13.0992
Au 6.77147 10.7902 22.3412
Pt 16.4726 9.70168 21.6794
Au 24.5019 17.6837 21.887
Pt 18.3099 23.3133 13.876
Au 24.4137 8.49415 12.1878
Pt 17.9624 5.88285 15.2424
Au 16.6597 13.213 25.8546
Pt 9.5481 17.4497 9.2539
Au 4.75428 14.9466 15.6775
Pt 19.509 16.7483 23.37
Au 27.3649 15.2437 14.6439
Pt 9.91124 22.1216 9.38004
Pt 18.4504 14.2631 11.7892
Au 6.22566 9.25078 14.6322
Au 24.5321 18.4155 12.1375
Pt 17.3625 18.3189 14.5513
Au 20.6466 12.306 7.19605
Pt 15.1537 5.60409 15.1842
Au 16.8244 25.9382 20.6765
Pt 18.4158 7.91611 20.8287
Au 15.5549 18.5373 3.49765
Pt 13.9502 23.8073 11.3346
Au 14.9709 15.54 14.8986
Pt 12.137 14.9157 19.5958
Au 7.62231 17.9288 23.5768
Pt 17.2188 12.8377 15.7447
Au 14.1004 13.3313 26.8303
Pt 16.3442 11.782 8.27506
Au 16.0925 24.3153 7.52048
Pt 16.3996 11.3749 23.6651
Au 24.6081 13.1479 21.0405
Pt 17.2422 20.4474 12.0475
Au 13.6571 23.6874 8.52407
Pt 15.0056 12.1311 17.1216
Au 26.2496 12.7049 13.8099
Pt 7.36429 11.9242 18.7385
Au 25.7713 10.716 16.4355
Au 23.6867 22.5744 19.4946
Pt 19.7043 18.8487 12.4064
Au 20.7257 11.536 24.617
Pt 11.219 17.765 13.6108
Au 17.1467 16.187 3.10971
Pt 22.2407 15.2281 9.61072
Au 14.8956 17.8814 13.4275
Pt 16.56 22.5764 15.7069
Au 10.1431 18.8336 25.1808
Pt 16.9589 20.0999 16.6683
Au 5.07909 16.989 9.78035
Pt 15.504 21.1655 20.7426
Au 7.59629 9.47934 12.3312
Pt 20.315 13.3211 9.7197
Pt 14.9623 8.57131 11.1978
Pt 11.6649 12.6127 15.4214
Pt 9.71729 13.1417 19.5886
Au 13.1287 26.464 17.3303
Pt 17.3925 21.9232 7.5363
Au 7.08758 12.6374 7.76356
Pt 14.1163 12.6695 24.2841
Au 16.0579 22.7787 5.27224
Pt 5.85649 15.6491 18.2741
Au 23.0606 24.0222 17.2171
Pt 8.587 20.8198 11.421
Au 9.87622 11.4478 25.6869
Pt 15.5252 22.7844 23.0749
Pt 18.4476 21.2524 9.79372
Pt 20.7025 22.9853 14.4603
Au 11.3742 16.069 3.47205
Pt 18.8208 11.0635 14.4482
Au 14.9294 27.1323 15.2685
Pt 17.5124 21.5435 18.9115
Au 17.3629 24.7944 23.3346
Pt 10.9003 20.1664 20.6068
Au 20.782 21.3062 23.7259
Pt 12.7576 10.0777 10.8717
Au 5.18522 13.3681 13.0908
Pt 21.5075 15.0863 18.6513
Au 6.03931 14.0865 10.0608
Pt 16.1129 7.76025 13.6233
Au 9.07244 8.24213 21.1851
Pt 17.9663 20.2911 21.2867
Au 20.5594 18.8073 25.0046
Pt 13.9857 10.7349 6.51605
Au 26.1045 17.8722 14.5227
Pt 11.9897 8.30108 8.84425
Pt 20.6232 6.98121 14.5272
Pt 13.4969 7.63153 22.7586
Au 20.623 7.4196 22.4963
Au 9.98167 5.99666 15.105
Pt 21.2502 14.3884 12.0012
Au 25.5439 17.4962 19.3196
Pt 22.1715 22.5554 12.2284
Au 16.588 25.2529 14.285
Pt 17.8754 23.1871 11.3489
Au 20.5295 6.11936 17.1351
Pt 12.437 21.8397 10.4793
Au 20.545 13.866 4.96734
Pt 14.9001 6.17704 17.7941
Au 15.2996 10.7759 26.1082
Pt 18.3723 17.0867 16.8987
Au 6.03738 13.5553 22.5483
Pt 17.7877 15.3852 24.7915
Au 22.9325 6.91551 16.1047
Pt 7.14036 17.5348 8.23961
Au 16.6095 3.3255 14.9917
Pt 21.6859 21.6961 16.5177
Au 17.8765 27.3729 16.115
Pt 18.5338 15.5218 5.669
Au 22.8266 21.5655 9.65441
Pt 16.7936 16.2579 9.93626
Au 13.7039 26.0632 9.82546
Au 20.8426 9.6511 6.71737
Pt 23.1276 17.2965 18.0772
Au 19.3982 25.8167 14.4461
Pt 20.0407 12.9434 19.3214
Au 17.1093 27.7243 13.5893
Pt 20.3958 19.1623 22.2433
Au 21.3173 25.2753 19.1208
Pt 18.3356 17.0622 7.91951
Au 22.1689 8.11534 18.3828
Pt 9.65977 13.8328 24.3542
Au 18.84 20.777 25.6773
Pt 10.9944 15.4858 8.24866
Au 26.2254 16.2374 12.4327
Au 7.77562 7.02614 19.1663
Pt 14.6374 15.4298 24.4502
Au 10.2466 7.27912 17.9346
Au 17.9175 25.8223 11.8515
Pt 19.8945 18.2933 15.025
Au 13.9165 8.34598 25.5509
Pt 21.1097 16.3305 16.3016
Au 8.23808 22.6442 13.5949
