561
Atoms. Timestep: 20119
Pt 7.03717 7.33745 14.7933
Au 5.28948 7.15184 12.8041
Pt 7.10146 11.0392 10.7621
Au 4.91966 9.20914 14.7019
Pt 5.13671 11.0851 12.6663
Pt 5.10053 11.0538 16.7416
Au 3.48063 13.3505 8.91437
Pt 5.36416 15.2639 8.83634
Au 3.21178 13.224 12.6156
Pt 3.57044 15.2212 10.8319
Au 3.29393 15.0253 18.7352
Pt 3.47178 15.039 14.7916
Au 5.1779 7.34586 16.7426
Pt 5.17522 14.9319 16.8463
Pt 7.02465 10.9672 18.8158
Au 5.34039 13.3138 6.92062
Au 2.8878 17.7835 10.1963
Pt 6.8953 17.8134 6.55183
Au 3.1946 16.9982 12.8893
Pt 5.35699 17.109 10.9183
Au 3.20596 16.9785 16.7571
Pt 5.21148 16.9957 14.8638
Au 7.16862 16.5541 24.6714
Pt 5.17642 16.903 18.8315
Au 5.0488 14.9211 20.8883
Pt 7.10847 14.7408 22.7085
Au 4.74779 17.8635 8.19395
Au 2.94387 19.6765 12.1612
Pt 4.89762 19.6741 10.3062
Au 3.43904 18.9524 18.7177
Pt 5.33975 18.8817 16.8331
Au 5.19297 18.8146 20.862
Pt 5.44698 20.7708 18.8242
Au 3.37064 19.0837 14.8538
Au 3.60477 20.9863 16.8473
Pt 5.48327 20.9019 14.8943
Pt 9.07779 7.33845 12.8581
Pt 7.28571 7.2035 10.9685
Pt 7.05324 9.1381 16.7855
Pt 9.51722 6.31072 15.2878
Pt 9.57385 8.20879 17.4101
Pt 5.24769 13.0801 10.8197
Au 7.04176 8.99468 8.77235
Pt 9.18404 9.14812 6.98695
Au 5.16002 9.08007 10.8301
Pt 7.06083 9.19207 12.8028
Au 7.38854 5.34638 13.101
Pt 9.0192 9.14057 10.7702
Au 7.68232 6.26138 17.2718
Pt 7.01781 11.0307 14.7988
Au 9.00659 9.11357 14.8552
Pt 9.03238 11.0257 12.7929
Au 7.43638 8.10676 19.3635
Pt 9.58678 6.37639 19.316
Au 11.4175 4.42856 19.288
Pt 9.52239 9.94677 19.5302
Pt 11.5275 9.93408 21.3944
Pt 9.06404 13.0859 6.85346
Au 11.079 9.122 5.02059
Au 5.13995 11.1502 8.84001
Pt 7.13025 13.1058 8.85579
Au 8.99665 11.0872 8.78474
Pt 11.1796 14.9532 6.88385
Au 4.92629 12.822 14.73
Pt 5.25902 15.0297 12.8455
Au 7.07345 12.9491 12.835
Pt 9.0399 12.983 10.8364
Au 3.19202 13.1134 16.7698
Pt 6.93674 12.9289 16.8606
Au 9.00527 10.987 16.9276
Pt 8.98123 12.8981 14.8889
Au 4.90026 12.7514 18.9284
Pt 6.94993 12.8359 20.7979
Au 9.58756 11.9744 21.4035
Pt 8.9208 12.8494 18.8776
Au 5.02676 9.2538 18.6593
Pt 7.80059 12.1316 23.2659
Au 9.62228 11.8708 25.3169
Pt 11.6304 11.845 23.4171
Pt 7.30991 15.1872 6.93306
Au 7.08216 11.1279 6.80914
Au 9.16779 14.9805 8.85136
Pt 7.30833 17.0714 8.99152
Au 11.2462 16.868 8.9107
Pt 9.33272 17.0323 6.98197
Au 7.16477 15.0201 10.8604
Pt 7.19529 16.9186 12.9197
Au 9.11613 14.9043 12.9072
Pt 9.20168 16.8991 10.9038
Au 7.03932 14.8838 14.8863
Pt 7.09622 16.843 16.8866
Au 9.01152 14.8223 16.9283
Pt 9.10632 16.7823 14.958
Au 6.93077 14.8189 18.9156
Pt 7.04907 16.7999 20.9229
Au 8.99566 14.7424 20.8678
Pt 9.01752 16.7213 18.9482
Au 7.73544 13.9329 25.2486
Pt 9.69769 13.9467 23.4371
Au 9.73744 15.8071 25.5604
Pt 9.09602 16.6334 22.8845
Au 8.68458 17.7876 4.52183
Au 8.61703 19.9153 6.30402
Pt 6.81199 19.7266 8.41668
Au 9.31616 18.9878 8.94183
Pt 8.85839 21.6152 8.48814
Au 7.36331 19.036 10.9837
Pt 5.38433 18.933 12.929
Au 9.2732 18.7875 12.9571
Pt 9.35668 20.9389 11.0153
Au 7.2736 18.8627 14.905
Pt 7.37125 20.7507 16.9481
Au 9.21041 18.7167 16.9859
Pt 9.34943 22.618 16.9821
Au 7.17405 18.7515 18.9268
Pt 7.27464 20.6351 20.8616
Au 9.10504 18.6577 20.955
Pt 9.17317 20.7644 19.005
Au 7.11404 18.7179 22.9144
Au 9.14919 18.5412 24.9
Pt 9.23789 20.4872 22.9239
Au 6.76225 21.7763 10.325
Au 4.87423 21.5939 12.3378
Pt 7.40224 20.9514 12.944
Au 11.2969 20.7617 13.0317
Pt 9.43067 22.8508 13.0359
Au 9.30669 20.7921 14.9506
Pt 5.69683 22.6619 16.9099
Au 7.56372 24.6083 17.0199
Pt 7.50553 22.7703 14.9816
Au 7.23371 22.8037 19.1162
Au 9.16359 22.6477 21.1711
Pt 9.47023 24.2791 18.9689
Pt 11.0114 7.28442 10.8656
Pt 15.0111 8.98028 8.8157
Pt 11.4564 6.21953 13.299
Pt 13.451 6.19572 11.3133
Pt 11.382 6.18948 17.3135
Pt 13.4317 6.10602 15.3302
Pt 11.5049 6.24907 21.2652
Pt 13.4696 6.10227 19.4342
Pt 11.5832 8.04674 23.2095
Pt 11.091 11.0731 6.95503
Au 11.1217 7.07719 6.96181
Au 9.07724 6.99956 8.88002
Pt 10.9951 9.10785 8.8679
Au 11.2791 5.23552 9.2314
Pt 12.9896 11.0637 5.0657
Au 9.35875 5.23767 11.2308
Pt 11.0033 9.10415 12.8346
Au 13.5177 8.00498 13.3888
Pt 13.0048 9.04819 10.8701
Au 11.5415 8.07839 15.3641
Pt 11.563 9.9988 17.4624
Au 13.4856 7.92037 17.3929
Pt 13.5767 9.95037 15.4711
Au 13.3801 4.41104 17.3559
Pt 11.5623 8.06368 19.3821
Au 9.39473 7.96782 21.513
Pt 13.5218 9.93332 19.4461
Au 7.44889 10.1008 21.4303
Pt 9.63364 10.0418 23.2764
Au 15.4582 9.65116 25.4039
Pt 13.5307 9.83985 23.4308
Pt 11.096 13.0096 5.06823
Au 14.9739 9.11084 4.89228
Au 9.19243 11.1043 5.01603
Pt 11.0453 12.9827 8.81567
Au 13.0481 11.0036 8.86066
Pt 13.0818 13.0007 6.85506
Au 11.0239 11.0534 10.8383
Pt 11.0329 12.9097 12.8922
Au 13.0532 10.9332 12.9021
Pt 13.0679 12.892 10.8781
Au 11.0332 10.979 14.8872
Pt 10.9873 12.848 16.8975
Au 13.5777 11.9187 17.4677
Pt 13.0357 12.8252 14.9076
Au 11.5526 11.9374 19.4441
Pt 11.6077 13.8607 21.5411
Au 13.5606 11.858 21.5135
Pt 13.6045 13.8381 19.5541
Au 11.5163 9.83089 25.2497
Pt 11.59 13.7292 25.3403
Au 13.4921 11.7649 25.5574
Pt 13.5951 13.7707 23.5894
Pt 11.2276 17.01 5.08347
Au 13.0357 14.8977 4.71715
Au 9.22413 15.0693 4.93593
Pt 11.2614 18.9465 7.04427
Au 13.1511 14.8439 8.8695
Pt 13.2222 16.7885 6.83616
Au 11.1236 14.8541 10.9063
Pt 11.1742 16.7364 12.963
Au 13.1014 14.7716 12.9337
Pt 13.1871 16.7133 10.9526
Au 11.0609 14.8033 14.9416
Pt 11.1074 16.7001 16.9822
Au 13.0607 14.7137 16.9622
Pt 13.1348 16.668 14.9799
Au 11.0325 14.7355 18.9334
Pt 11.0562 16.62 20.9501
Au 13.6507 15.7484 21.5902
Pt 13.0784 16.6215 18.978
Au 11.7034 15.7869 23.596
Pt 11.7371 17.7106 25.4259
Au 13.6119 15.6387 25.7543
Pt 13.7115 17.6469 23.6574
Pt 10.8302 21.5367 6.58893
Au 12.8038 21.527 4.64401
Au 10.719 19.6913 4.48088
Pt 11.3951 20.8286 9.1028
Au 13.2904 18.7119 8.95904
Pt 13.3512 20.8222 7.20185
Au 11.2617 18.7705 10.9951
Pt 11.345 22.6698 15.0703
Au 13.2265 18.6471 13.0223
Pt 15.391 22.606 11.1533
Au 11.2113 18.6586 14.9929
Pt 11.24 20.6447 16.9772
Au 13.1587 18.6026 16.9915
Pt 13.2518 20.6503 15.036
Au 11.1189 18.6675 19.0066
Pt 11.134 20.617 21.0513
Au 13.1259 18.5342 20.9967
Pt 13.2113 20.5109 18.9734
Au 11.1182 18.5164 22.9248
Pt 11.2806 20.3222 24.8114
Au 13.7802 19.5283 25.7439
Pt 13.1886 20.394 23.0387
Au 12.8227 23.4505 6.65015
Au 8.87355 23.6119 10.4567
Pt 11.4408 22.7104 11.1293
Au 11.0681 25.2583 10.5058
Pt 10.9044 23.3756 8.59026
Au 13.3422 20.7072 11.06
Pt 11.4984 24.5358 13.1132
Au 13.3869 22.6456 13.1237
Pt 13.5152 24.5308 11.2253
Au 9.5235 24.7299 15.0674
Pt 11.3777 24.4354 17.0787
Au 13.3001 22.5516 17.0396
Pt 13.3642 24.4674 15.1094
Au 11.2898 22.4544 19.0138
Pt 11.409 24.1573 20.9834
Au 13.2624 22.3179 21.0221
Pt 13.3111 24.2989 19.082
Au 11.1725 22.5023 23.154
Au 13.263 22.2638 25.0546
Pt 13.4084 24.0357 22.9628
Pt 13.0179 9.07728 6.88103
Pt 15.5592 6.32343 9.53538
Pt 17.3553 6.50852 7.64088
Pt 15.4828 6.11631 13.4014
Pt 17.5178 6.17845 11.446
Pt 15.479 6.03016 17.4184
Pt 17.4676 6.04483 15.4375
Pt 15.3963 6.05887 21.2807
Pt 17.4055 6.02198 19.4043
Pt 15.4424 7.86873 23.2969
Pt 19.2809 7.77623 23.2133
Pt 16.9679 11.0344 5.01817
Au 14.8439 6.99241 6.81336
Au 13.7861 4.89581 8.35727
Pt 12.9851 7.29071 8.90093
Au 17.5545 8.2101 9.50661
Pt 16.9169 8.98795 6.86071
Au 15.5216 8.07408 11.4846
Pt 15.5769 9.95606 13.5025
Au 17.5084 7.94229 13.4742
Pt 17.5838 10.0079 11.5197
Au 15.4979 7.90828 15.4294
Pt 15.5172 9.87763 17.4557
Au 17.4916 7.87871 17.442
Pt 17.5375 9.8679 15.5012
Au 15.4641 7.94313 19.3847
Pt 13.4996 8.03792 21.3427
Au 17.3207 5.84476 23.1483
Pt 17.3796 7.91313 21.3539
Au 13.449 6.05838 23.1645
Pt 15.4762 9.86895 21.4711
Au 17.4627 7.71899 25.183
Pt 17.4298 9.77475 23.4014
Pt 15.0078 12.8614 4.9586
Au 17.1481 14.6649 4.69829
Au 15.0187 10.9711 6.86391
Pt 15.0719 12.8937 8.81418
Au 17.0362 10.9015 8.88693
Pt 17.0592 12.867 6.87072
Au 15.0472 10.9083 10.883
Pt 15.0659 12.7948 12.9074
Au 17.6143 11.8899 13.5161
Pt 17.0747 12.7801 10.8962
Au 15.5936 11.8852 15.4944
Pt 15.6212 13.8266 17.5352
Au 17.5743 11.8431 17.5034
Pt 17.6516 13.8023 15.545
Au 15.5475 11.8695 19.5007
Pt 15.5765 13.7508 21.6311
Au 17.5217 11.7953 21.5403
Pt 17.6067 13.7355 19.561
Au 15.5229 11.7509 23.6037
Pt 15.5392 13.6602 25.4716
Au 17.4995 11.6409 25.6262
Pt 17.5602 13.6692 23.6638
Pt 13.2196 18.9029 5.21115
Au 15.1743 16.8259 4.70199
Au 15.1318 14.8586 6.71404
Pt 15.1685 16.6926 8.85756
Au 17.0841 14.7661 8.88721
Pt 17.1328 16.6955 6.75187
Au 15.1161 14.7579 10.9167
Pt 15.1471 16.6433 12.99
Au 17.1073 14.6618 12.9622
Pt 17.1534 16.609 10.9983
Au 15.0881 14.6855 14.9597
Pt 15.1005 16.5917 16.9778
Au 17.6655 15.6904 17.5647
Pt 17.129 16.5657 14.9802
Au 15.6525 15.6969 19.5868
Pt 15.7003 17.5837 21.6452
Au 17.6329 15.6028 21.6499
Pt 17.7133 17.5685 19.6091
Au 15.6249 15.6386 23.7033
Pt 15.6827 17.5092 25.5689
Au 17.6315 15.5067 25.8013
Pt 17.6835 17.4547 23.7305
Pt 15.3281 20.9473 5.4227
Au 15.1809 19.2398 3.50923
Au 15.2571 18.6934 6.92367
Pt 17.3407 22.6394 9.18992
Au 17.1768 18.5462 9.02777
Pt 17.2858 20.6591 7.23451
Au 15.2282 18.5956 11.0301
Pt 15.2772 20.6185 13.0669
Au 17.1816 18.5541 13.0327
Pt 17.2492 20.5769 11.0661
Au 15.1753 18.5915 15.0139
Pt 15.2198 20.5233 17.0208
Au 17.1636 18.47 17.0084
Pt 17.2306 20.4967 15.055
Au 15.1536 18.4744 18.9981
Pt 15.2095 20.3328 20.9909
Au 17.754 19.4304 21.6314
Pt 17.2021 20.3624 19.0079
Au 15.7688 19.4316 23.6907
Pt 15.8375 21.3638 25.4767
Au 17.7511 19.3755 25.8167
Pt 17.8162 21.3209 23.6073
Pt 15.4029 22.7465 7.33625
Au 17.4222 22.6703 5.45502
Au 15.3159 20.7031 9.09191
Pt 13.4217 22.7873 9.2148
Au 19.3509 24.5323 9.32315
Pt 19.2946 22.5232 7.38307
Au 15.4572 24.6621 9.28933
Pt 15.4006 24.45 13.1587
Au 17.3088 22.4951 13.1372
Pt 17.3834 24.3857 11.2441
Au 15.3268 22.5577 15.1106
Pt 15.3452 24.3457 17.123
Au 17.2922 22.429 17.0825
Pt 17.3898 24.3207 15.1356
Au 15.2742 22.4233 19.0424
Pt 15.3178 24.1715 21.081
Au 17.2703 22.2289 21.006
Pt 17.3447 24.2018 19.112
Au 15.2693 22.142 22.9571
Pt 15.4033 23.9004 24.7509
Au 17.8365 23.1779 25.5629
Pt 17.3202 23.9663 22.9793
Pt 19.3925 6.34762 9.52186
Pt 19.471 6.07937 13.4516
Pt 21.3733 6.2142 11.5574
Pt 19.4079 5.98102 17.4405
Pt 21.3428 6.01721 15.4715
Pt 19.2742 6.03789 21.2613
Pt 19.4682 7.8527 19.4395
Pt 18.9407 10.8121 6.95524
Au 19.5988 8.04533 7.35929
Pt 19.6632 9.92119 9.46202
Au 21.6376 7.86639 9.36998
Pt 21.546 10.0484 7.57537
Au 19.5266 8.04797 11.4931
Pt 19.5454 9.89846 13.5293
Au 21.4737 7.9656 13.4956
Pt 21.6509 9.78924 11.4751
Au 19.4645 7.88622 15.4841
Pt 19.5233 9.82221 17.5163
Au 21.2908 5.77982 19.356
Pt 21.3866 7.86452 17.5087
Au 17.5203 9.85651 19.4669
Pt 19.5026 9.71487 21.4481
Au 21.5112 7.5721 21.5937
Pt 21.5216 9.62558 19.5515
Au 21.1351 7.74366 24.9731
Pt 19.3561 9.65778 25.2006
Pt 21.3816 9.71096 23.3471
Pt 19.0934 12.7429 5.06341
Au 20.9092 10.7618 5.04003
Au 18.7655 9.07618 4.91807
Pt 19.062 12.7394 8.87619
Au 21.686 11.8502 9.54961
Pt 20.9734 12.6872 7.00284
Au 19.6587 11.8356 11.4987
Pt 19.6871 13.7812 13.5431
Au 21.6329 11.8088 13.5406
Pt 21.7335 13.7527 11.5512
Au 19.5868 11.8426 15.541
Pt 19.6456 13.7362 17.559
Au 21.6012 11.7496 17.5672
Pt 21.7317 13.6843 15.5818
Au 19.5936 11.7585 19.5362
Pt 19.5766 13.6498 21.5979
Au 21.5644 11.6547 21.5256
Pt 21.6602 13.6292 19.5534
Au 19.471 11.667 23.5216
Pt 19.5771 13.4968 25.4643
Au 21.462 11.4716 25.4809
Pt 21.5462 13.4849 23.5558
Pt 17.2397 18.8993 5.15663
Au 19.151 16.7778 4.79734
Au 19.0157 14.7628 6.86233
Pt 19.1293 16.5881 8.97001
Au 21.091 14.5983 8.96534
Pt 21.0658 16.5969 7.0574
Au 19.1087 14.6234 10.9599
Pt 19.1637 16.5197 12.9969
Au 21.7848 15.6126 13.6071
Pt 21.1876 16.4571 10.9929
Au 19.7275 15.6535 15.5785
Pt 19.7441 17.5404 17.6095
Au 21.7724 15.5594 17.5951
Pt 21.821 17.4909 15.6254
Au 19.6558 15.5865 19.5829
Pt 19.6845 17.4456 21.6465
Au 21.6194 15.4837 21.571
Pt 21.7503 17.4217 19.6157
Au 19.6324 15.4976 23.6979
Pt 19.6932 17.4098 25.5484
Au 21.5887 15.3906 25.7532
Pt 21.6636 17.3845 23.6251
Pt 19.2449 20.6429 5.39178
Au 21.2239 22.445 5.44747
Au 19.1253 18.549 7.0604
Pt 19.218 20.4921 9.13815
Au 21.1673 18.4533 9.09992
Pt 21.1547 20.4748 7.28655
Au 19.1889 18.5008 11.0659
Pt 19.2163 20.4448 13.053
Au 21.2266 18.3832 13.0508
Pt 21.3127 20.3932 11.0969
Au 19.1845 18.4255 15.0251
Pt 19.1977 20.3333 17.0484
Au 21.798 19.3696 17.6435
Pt 21.2065 20.2505 15.0722
Au 19.7854 19.4381 19.6504
Pt 19.8483 21.3552 21.6942
Au 21.7782 19.3106 21.682
Pt 21.8604 21.3231 19.7134
Au 19.7066 19.3079 23.6609
Pt 19.7052 21.2181 25.4014
Au 21.6895 19.2805 25.6364
Pt 21.7172 21.1632 23.6096
Au 21.36 24.2292 7.49973
Pt 21.2728 22.3107 9.28445
Au 23.2407 22.295 7.38366
Au 19.2731 22.4224 11.1222
Pt 19.3967 24.2273 13.1428
Au 21.2943 22.2274 13.0877
Pt 21.3331 24.0826 11.2184
Au 19.2983 22.3658 15.1026
Pt 19.3594 24.1725 17.1394
Au 21.2299 22.1682 17.1162
Pt 21.3672 24.0871 15.1433
Au 19.2628 22.2245 19.0753
Pt 19.3131 23.9655 21.0762
Au 21.9129 23.2465 21.7497
Pt 21.2936 23.9347 19.1302
Au 19.8946 23.3071 23.6933
Pt 23.2396 6.13666 13.5933
Pt 23.1865 6.08382 17.3514
Pt 23.3691 7.86619 15.5098
Pt 23.522 9.88627 9.60886
Au 23.5986 7.73334 11.4222
Pt 23.5239 9.79981 13.5536
Au 25.3504 7.8035 13.6108
Pt 25.2957 9.78567 11.6689
Au 21.5242 9.84062 15.5495
Pt 23.4477 9.69365 17.5387
Au 25.3195 7.7155 17.4261
Pt 25.3489 9.6763 15.5721
Au 23.4543 7.58415 19.5468
Pt 23.3873 9.67125 21.4268
Pt 25.2135 9.61307 19.4136
Pt 20.9962 14.7345 5.16953
Au 23.6529 11.8427 7.54754
Pt 23.7053 13.7212 9.56993
Au 25.5373 11.6954 9.68004
Pt 22.9602 14.5752 7.05595
Au 23.6381 11.7818 11.6151
Pt 23.7969 13.6548 13.6168
Au 25.7797 11.6192 13.6046
Pt 25.5805 13.5936 11.6307
Au 23.6921 11.718 15.5828
Pt 23.7807 13.6074 17.5878
Au 25.7427 11.5493 17.5768
Pt 25.641 13.5473 15.6126
Au 23.5787 11.6267 19.5102
Pt 23.5947 13.4757 21.5521
Au 25.5015 11.4648 21.5124
Pt 25.5433 13.444 19.6193
Au 23.5845 11.3793 23.5941
Pt 23.4221 13.4622 25.3186
Pt 25.3226 13.4509 23.4622
Pt 21.107 18.6199 5.329
Au 22.9887 16.6013 5.23043
Au 22.7648 12.7709 5.0643
Pt 23.1576 16.4326 8.97248
Au 25.6922 15.5946 9.6862
Pt 23.0688 18.4573 7.21214
Au 23.8003 15.5794 11.6349
Pt 23.8712 17.4778 13.6444
Au 25.9549 15.4983 13.6296
Pt 25.661 17.4876 11.6794
Au 23.8628 15.5271 15.6181
Pt 23.877 17.3825 17.6397
Au 25.9381 15.4304 17.6604
Pt 25.7449 17.3865 15.6607
Au 23.7885 15.4612 19.6233
Pt 23.6994 17.3625 21.6298
Au 25.8121 15.3542 21.6157
Pt 25.6624 17.3491 19.6878
Au 23.5227 15.3782 23.51
Pt 23.5345 17.2234 25.3927
Au 25.3895 15.2848 25.4193
Pt 25.4276 17.2011 23.5388
Au 23.0623 20.4176 5.41123
Pt 23.2157 20.3154 9.1436
Au 25.1482 18.3032 9.06735
Au 23.1919 18.2994 11.0416
Pt 23.2839 20.2564 13.0665
Au 25.9541 19.3488 13.6898
Pt 25.0556 20.1279 11.1542
Au 23.879 19.3121 15.6683
Pt 23.8047 21.2239 17.7017
Au 25.9799 19.2725 17.704
Pt 25.6947 21.2119 15.7327
Au 23.7899 19.2532 19.6409
Pt 23.7349 21.1351 21.6239
Au 25.7323 19.2312 21.6666
Pt 25.5598 21.1316 19.6365
Au 23.8049 19.3678 23.7457
Au 23.4818 22.3854 10.9836
Pt 23.2636 23.8946 13.2339
Au 25.3207 22.0864 13.139
Au 23.1968 22.0263 15.1295
Pt 23.2312 23.873 17.1639
Au 25.7884 23.042 17.7198
Pt 25.019 23.7523 15.2626
Au 23.8885 23.2435 19.7562
