561
Atoms. Timestep: 20109
Pt 6.98074 7.3483 14.8186
Au 5.28851 7.14669 12.8014
Pt 7.08351 11.0276 10.779
Au 4.94735 9.2054 14.7369
Pt 5.12181 11.0704 12.699
Pt 5.08406 11.0972 16.751
Au 3.45888 13.3279 8.93568
Pt 5.34922 15.2316 8.8436
Au 3.19354 13.2189 12.6243
Pt 3.55249 15.2127 10.8408
Au 3.27499 15.0566 18.7283
Pt 3.4507 15.0609 14.7812
Au 7.63038 6.35351 17.3132
Pt 5.15575 14.9513 16.8432
Pt 7.00064 10.9877 18.8248
Au 5.31597 13.2816 6.9333
Au 2.93958 17.8086 10.2805
Pt 6.86462 17.7743 6.54378
Au 3.22432 17.0343 12.8898
Pt 5.3788 17.0656 10.909
Au 3.19192 17.0114 16.7375
Pt 5.20878 16.9991 14.8628
Au 7.15462 16.5875 24.6727
Pt 5.16089 16.9246 18.8267
Au 5.02942 14.9478 20.8881
Pt 7.09063 14.7693 22.7132
Au 4.71952 17.8284 8.21134
Au 4.82663 21.5338 12.3188
Pt 4.90177 19.6351 10.326
Au 3.42661 18.9735 18.7097
Pt 5.32927 18.8977 16.8258
Au 5.17907 18.8383 20.8568
Pt 5.43527 20.7903 18.8167
Au 3.41188 19.1061 14.8259
Au 3.6013 20.9973 16.8311
Pt 5.4955 20.9349 14.8817
Pt 9.05859 7.33319 12.8969
Pt 7.28439 7.17974 10.9984
Pt 6.95331 9.08626 16.7954
Pt 9.44203 6.29209 15.3281
Pt 9.53979 8.2396 17.4487
Pt 5.23017 13.0632 10.8362
Au 7.02614 8.97075 8.79547
Pt 9.1641 9.11897 7.00584
Au 5.1447 9.07273 10.8484
Pt 7.0497 9.18763 12.8165
Au 7.39399 5.33607 13.1685
Pt 9.00063 9.12781 10.7897
Au 11.3985 4.47777 15.3997
Pt 7.00253 11.032 14.822
Au 8.96486 9.09811 14.8941
Pt 9.01556 11.0122 12.8167
Au 7.43518 8.16623 19.4142
Pt 9.55079 6.38819 19.3434
Au 11.371 4.41397 19.3072
Pt 9.50192 9.98969 19.5575
Pt 11.5107 9.96696 21.4265
Pt 9.04558 13.0558 6.85949
Au 11.0587 9.08603 5.04038
Au 5.12174 11.1307 8.85516
Pt 7.11352 13.0806 8.86491
Au 8.97836 11.0644 8.79781
Pt 11.1588 14.9275 6.88492
Au 4.90937 12.8387 14.7347
Pt 5.2454 15.0251 12.8482
Au 7.05938 12.9384 12.8486
Pt 9.02795 12.9615 10.8486
Au 3.16923 13.1403 16.7692
Pt 6.92001 12.9484 16.8698
Au 8.94295 10.9669 16.9398
Pt 8.96407 12.8941 14.9045
Au 4.87539 12.7744 18.9369
Pt 6.92904 12.8592 20.8059
Au 9.56924 12.0067 21.4246
Pt 8.90136 12.8561 18.884
Au 5.04407 9.28672 18.6426
Pt 7.77989 12.1664 23.2835
Au 9.60536 11.906 25.3332
Pt 11.6143 11.875 23.4366
Pt 7.29032 15.1527 6.93369
Au 7.06294 11.0983 6.82323
Au 9.15341 14.954 8.85147
Pt 7.29885 17.0405 8.98043
Au 11.2244 16.849 8.90838
Pt 9.31018 17.0073 6.97836
Au 7.16233 14.9916 10.867
Pt 7.17448 16.9233 12.9191
Au 9.10078 14.8986 12.9156
Pt 9.18653 16.8816 10.9015
Au 7.02923 14.8883 14.8885
Pt 7.08355 16.8542 16.889
Au 8.9965 14.8321 16.9352
Pt 9.09051 16.7872 14.958
Au 6.91207 14.8365 18.919
Pt 7.03318 16.822 20.9232
Au 8.9772 14.7617 20.8714
Pt 9.00307 16.7358 18.9503
Au 7.71899 13.9703 25.2598
Pt 9.68152 13.9779 23.4486
Au 9.72423 15.8414 25.5661
Pt 9.0821 16.6583 22.8856
Au 8.65857 17.7533 4.51708
Au 8.58953 19.8827 6.29605
Pt 6.78095 19.6833 8.40158
Au 9.29629 18.9746 8.9338
Pt 8.82889 21.5993 8.47285
Au 7.35618 19.011 10.9708
Pt 5.31636 18.9271 12.8929
Au 9.27052 18.7687 12.9534
Pt 9.31098 20.9578 11.0008
Au 7.24461 18.8604 14.8937
Pt 7.3618 20.7588 16.9498
Au 9.19554 18.7234 16.9808
Pt 9.35042 22.63 16.9827
Au 7.16131 18.7678 18.9254
Pt 7.2647 20.6565 20.854
Au 9.09336 18.6762 20.953
Pt 9.16739 20.7754 19.0012
Au 7.10141 18.7452 22.91
Au 9.13828 18.5715 24.8967
Pt 9.22903 20.5111 22.9168
Au 6.69472 21.7588 10.2547
Au 6.8578 23.4643 12.4571
Pt 7.39162 20.8778 12.9418
Au 11.2811 20.7519 13.0178
Pt 9.44183 22.8503 13.0261
Au 9.30056 20.7865 14.9527
Pt 5.68728 22.6829 16.8997
Au 7.56612 24.6343 17.0184
Pt 7.50699 22.789 14.9959
Au 7.23055 22.8199 19.1034
Au 9.15786 22.6671 21.1608
Pt 9.46954 24.2994 18.9627
Pt 10.9862 7.27775 10.8818
Pt 14.9903 8.95971 8.83283
Pt 11.4378 6.16538 13.2906
Pt 13.4293 6.17114 11.3419
Pt 11.3729 6.23829 17.4051
Pt 13.4938 6.09813 15.3608
Pt 11.4797 6.25791 21.2842
Pt 13.4295 6.11211 19.4415
Pt 11.5632 8.06689 23.2289
Pt 11.0711 11.0459 6.96592
Au 11.1051 7.04629 6.98987
Au 9.06214 6.9722 8.90684
Pt 10.9765 9.08846 8.88304
Au 11.267 5.20977 9.27646
Pt 12.968 11.0316 5.07689
Au 9.35999 5.21181 11.292
Pt 10.981 9.09322 12.8597
Au 13.4947 7.99605 13.4091
Pt 12.9844 9.03291 10.8897
Au 11.5124 8.0331 15.3766
Pt 11.5299 10.0108 17.4788
Au 13.4676 7.95896 17.4164
Pt 13.5459 9.95069 15.4841
Au 13.3492 4.34785 17.3832
Pt 11.5273 8.10507 19.4347
Au 9.37874 7.99339 21.5397
Pt 13.5012 9.95295 19.4683
Au 7.42428 10.1378 21.4577
Pt 9.61219 10.0723 23.298
Au 15.4405 9.67221 25.418
Pt 13.512 9.86025 23.4479
Pt 11.0752 12.9777 5.0741
Au 14.9526 9.08022 4.90766
Au 9.17266 11.0692 5.02816
Pt 11.0277 12.9589 8.82311
Au 13.0281 10.9823 8.87299
Pt 13.0603 12.9747 6.86124
Au 11.0058 11.0349 10.8544
Pt 11.0119 12.8979 12.9065
Au 13.0286 10.9244 12.9173
Pt 13.0468 12.8764 10.8865
Au 11.0012 10.9613 14.9076
Pt 10.9518 12.8362 16.9091
Au 13.5537 11.9226 17.479
Pt 13.0073 12.8168 14.9189
Au 11.5376 11.9562 19.4613
Pt 11.5923 13.8838 21.5516
Au 13.5461 11.8811 21.5313
Pt 13.5884 13.8517 19.5619
Au 11.4968 9.85921 25.2656
Pt 11.5764 13.7616 25.3529
Au 13.4767 11.7914 25.5707
Pt 13.5815 13.7956 23.601
Pt 11.2041 16.9806 5.08042
Au 13.0128 14.8674 4.71857
Au 9.20331 15.0373 4.93772
Pt 11.2387 18.9224 7.03708
Au 13.1289 14.8244 8.87182
Pt 13.1993 16.7641 6.83359
Au 11.1051 14.8372 10.9107
Pt 11.1624 16.724 12.9637
Au 13.0813 14.7594 12.9388
Pt 13.1643 16.7006 10.9508
Au 11.0415 14.7994 14.951
Pt 11.0926 16.7056 16.9838
Au 13.0365 14.7104 16.9671
Pt 13.1178 16.6635 14.9807
Au 11.0136 14.7435 18.9379
Pt 11.0421 16.636 20.9514
Au 13.6377 15.7663 21.5945
Pt 13.0628 16.6285 18.9783
Au 11.6909 15.8127 23.6016
Pt 11.727 17.7404 25.4262
Au 13.6015 15.6681 25.7599
Pt 13.7012 17.6695 23.6572
Pt 10.8029 21.5101 6.57586
Au 12.7763 21.4957 4.63009
Au 10.6917 19.6592 4.47304
Pt 11.3691 20.815 9.09197
Au 13.2667 18.6948 8.95282
Pt 13.3255 20.7998 7.19054
Au 11.2375 18.7645 10.985
Pt 11.3381 22.6757 15.0643
Au 13.2073 18.6399 13.0142
Pt 15.3697 22.5944 11.1354
Au 11.2017 18.6569 14.9916
Pt 11.2325 20.6494 16.9743
Au 13.1463 18.6061 16.9885
Pt 13.2356 20.6518 15.0251
Au 11.1066 18.6771 19.0033
Pt 11.1262 20.6334 21.0447
Au 13.1141 18.5481 20.9931
Pt 13.201 20.5208 18.9664
Au 11.1075 18.5381 22.9223
Pt 11.2727 20.3489 24.8044
Au 13.7727 19.5557 25.7389
Pt 13.1805 20.4138 23.0313
Au 12.7982 23.4249 6.62885
Au 8.82169 23.6386 10.4152
Pt 11.4115 22.706 11.1081
Au 11.0442 25.2512 10.4842
Pt 10.8824 23.3593 8.56792
Au 13.3188 20.6995 11.0468
Pt 11.4849 24.5442 13.0927
Au 13.364 22.6431 13.1053
Pt 13.4949 24.5206 11.2005
Au 9.51292 24.7511 15.0461
Pt 11.3723 24.4488 17.0647
Au 13.29 22.5588 17.0277
Pt 13.3543 24.4706 15.0896
Au 11.2842 22.4687 19.0059
Pt 11.4057 24.177 20.9714
Au 13.2556 22.3338 21.0113
Pt 13.3052 24.3119 19.0662
Au 11.1667 22.5247 23.143
Au 13.2577 22.289 25.0428
Pt 13.4043 24.0567 22.9478
Pt 12.998 9.04994 6.8987
Pt 15.5363 6.30298 9.55942
Pt 17.3324 6.48486 7.66391
Pt 15.4676 6.10582 13.4207
Pt 17.4982 6.16514 11.4673
Pt 15.4392 6.03442 17.4435
Pt 17.4434 6.04526 15.4631
Pt 15.3631 6.07052 21.2968
Pt 17.3778 6.0292 19.4262
Pt 15.418 7.88432 23.3129
Pt 19.2564 7.78835 23.228
Pt 16.9451 11.005 5.02858
Au 14.8228 6.96723 6.83386
Au 13.7651 4.87486 8.37496
Pt 12.9667 7.26889 8.9267
Au 17.5323 8.19145 9.52481
Pt 16.895 8.96283 6.87695
Au 15.4989 8.06009 11.5034
Pt 15.5553 9.95319 13.5137
Au 17.4905 7.93737 13.4893
Pt 17.5623 9.99591 11.532
Au 15.496 7.93287 15.4491
Pt 15.501 9.89219 17.4749
Au 17.4679 7.88095 17.4648
Pt 17.5237 9.87344 15.5159
Au 15.4375 7.95225 19.4042
Pt 13.4751 8.05014 21.3603
Au 17.2917 5.85806 23.1637
Pt 17.3541 7.92354 21.3703
Au 13.4226 6.07507 23.1863
Pt 15.4542 9.88331 21.487
Au 17.4398 7.7358 25.1973
Pt 17.4092 9.79006 23.4143
Pt 14.9847 12.8315 4.96496
Au 17.1236 14.6354 4.69979
Au 14.9968 10.9456 6.87512
Pt 15.0495 12.8741 8.82085
Au 17.0138 10.8821 8.8983
Pt 17.0358 12.8426 6.87685
Au 15.0248 10.8941 10.8952
Pt 15.0433 12.7852 12.9159
Au 17.5934 11.8841 13.5244
Pt 17.0517 12.7664 10.9029
Au 15.5701 11.8826 15.5043
Pt 15.6006 13.8304 17.5409
Au 17.5561 11.85 17.5142
Pt 17.6299 13.8003 15.5492
Au 15.5291 11.8832 19.5138
Pt 15.5625 13.7684 21.6404
Au 17.503 11.8085 21.5514
Pt 17.5898 13.7451 19.5672
Au 15.5069 11.7708 23.6173
Pt 15.5268 13.6851 25.4801
Au 17.4849 11.6615 25.636
Pt 17.5458 13.6879 23.6706
Pt 13.1948 18.8746 5.2036
Au 15.15 16.7969 4.69899
Au 15.1084 14.8338 6.71566
Pt 15.1447 16.6741 8.85542
Au 17.0605 14.7474 8.88888
Pt 17.1084 16.6713 6.74893
Au 15.0929 14.7443 10.9193
Pt 15.1252 16.6343 12.9881
Au 17.0845 14.6533 12.9646
Pt 17.1301 16.5957 10.9955
Au 15.0652 14.6792 14.9638
Pt 15.0811 16.5911 16.9771
Au 17.647 15.6934 17.5644
Pt 17.1073 16.5615 14.9777
Au 15.6377 15.7071 19.5889
Pt 15.6885 17.5992 21.6432
Au 17.6195 15.6177 21.6517
Pt 17.6989 17.5774 19.6043
Au 15.6134 15.6603 23.7077
Pt 15.6741 17.5354 25.5683
Au 17.6209 15.5309 25.8036
Pt 17.6731 17.4743 23.728
Pt 15.3019 20.9196 5.41012
Au 15.1555 19.208 3.50023
Au 15.2325 18.67 6.91678
Pt 17.3187 22.6207 9.17112
Au 17.1533 18.5278 9.0201
Pt 17.2618 20.6356 7.22119
Au 15.2051 18.5838 11.0228
Pt 15.2553 20.613 13.0539
Au 17.1594 18.546 13.0247
Pt 17.2271 20.5637 11.0529
Au 15.1557 18.5892 15.0066
Pt 15.2048 20.5272 17.0095
Au 17.1449 18.4711 17.0006
Pt 17.2117 20.4937 15.0415
Au 15.1394 18.4816 18.9934
Pt 15.1991 20.3458 20.9823
Au 17.7431 19.4442 21.6227
Pt 17.1883 20.3691 18.9962
Au 15.7602 19.4521 23.6845
Pt 15.8319 21.3885 25.4659
Au 17.7442 19.4002 25.8096
Pt 17.8086 21.3398 23.5944
Pt 15.3792 22.7239 7.31815
Au 17.3975 22.6414 5.43622
Au 15.2925 20.6857 9.07921
Pt 13.3987 22.7717 9.19651
Au 19.3302 24.5131 9.29845
Pt 19.2716 22.4994 7.36356
Au 15.4369 24.6447 9.2653
Pt 15.3822 24.4432 13.1347
Au 17.2897 22.4869 13.1184
Pt 17.3639 24.3725 11.2204
Au 15.3095 22.5567 15.0921
Pt 15.3349 24.3504 17.1021
Au 17.2775 22.4309 17.0644
Pt 17.374 24.3177 15.1118
Au 15.2642 22.4323 19.0282
Pt 15.3116 24.1861 21.0632
Au 17.2606 22.2409 20.9907
Pt 17.3347 24.2093 19.0906
Au 15.2625 22.1605 22.9447
Pt 15.3994 23.9233 24.7343
Au 17.8323 23.2017 25.5456
Pt 17.3142 23.9836 22.96
Pt 19.371 6.329 9.54279
Pt 19.4486 6.07171 13.4751
Pt 21.3505 6.20027 11.5796
Pt 19.3839 5.9835 17.4645
Pt 21.3191 6.01417 15.4945
Pt 19.2492 6.04693 21.2805
Pt 19.4457 7.85936 19.4583
Pt 18.9176 10.788 6.96577
Au 19.5759 8.02153 7.37661
Pt 19.6409 9.90323 9.47413
Au 21.6154 7.84756 9.38692
Pt 21.5227 10.0253 7.58645
Au 19.5063 8.03549 11.5091
Pt 19.5253 9.89225 13.5413
Au 21.4508 7.95731 13.5134
Pt 21.6293 9.77636 11.4874
Au 19.4412 7.88413 15.5037
Pt 19.5019 9.82483 17.5314
Au 21.2682 5.78532 19.3783
Pt 21.3642 7.86599 17.5268
Au 17.4988 9.86531 19.483
Pt 19.4814 9.72534 21.4622
Au 21.4887 7.5813 21.6119
Pt 21.5005 9.63115 19.5654
Au 21.1148 7.75623 24.9827
Pt 19.3372 9.67347 25.2109
Pt 21.362 9.72471 23.3588
Pt 19.0692 12.7144 5.06901
Au 20.885 10.7332 5.04968
Au 18.7423 9.0463 4.93302
Pt 19.0387 12.7203 8.88202
Au 21.6633 11.832 9.55622
Pt 20.9497 12.6631 7.00799
Au 19.6367 11.8233 11.506
Pt 19.6655 13.7741 13.5459
Au 21.6119 11.8013 13.5479
Pt 21.7112 13.7395 11.5532
Au 19.5681 11.8429 15.5495
Pt 19.6273 13.7397 17.5631
Au 21.581 11.7512 17.5755
Pt 21.7123 13.6819 15.5846
Au 19.5743 11.7657 19.546
Pt 19.56 13.6618 21.6029
Au 21.5457 11.6649 21.5338
Pt 21.6421 13.6355 19.5567
Au 19.4531 11.6823 23.531
Pt 19.5632 13.5174 25.4691
Au 21.4447 11.49 25.4884
Pt 21.5302 13.4998 23.5594
Pt 17.2143 18.871 5.14809
Au 19.1256 16.7484 4.79297
Au 18.9916 14.7387 6.86322
Pt 19.1059 16.5691 8.9664
Au 21.0677 14.5789 8.96586
Pt 21.0418 16.5726 7.05277
Au 19.0855 14.6098 10.9612
Pt 19.1415 16.5107 12.9934
Au 21.7638 15.6043 13.6045
Pt 21.1652 16.4425 10.9887
Au 19.7071 15.6508 15.5768
Pt 19.7263 17.5429 17.6029
Au 21.7542 15.5614 17.593
Pt 21.8015 17.4874 15.6179
Au 19.6395 15.5945 19.5824
Pt 19.6716 17.4586 21.6415
Au 21.6038 15.4946 21.5697
Pt 21.7347 17.4282 19.6091
Au 19.6195 15.515 23.6986
Pt 19.6838 17.4322 25.5441
Au 21.5766 15.4111 25.7524
Pt 21.6516 17.4007 23.6188
Pt 19.2204 20.6141 5.37752
Au 21.2003 22.4154 5.42727
Au 19.1013 18.5249 7.0517
Pt 19.1954 20.4729 9.12413
Au 21.1444 18.4338 9.09051
Pt 21.1314 20.4505 7.2717
Au 19.1665 18.4867 11.0572
Pt 19.196 20.4354 13.039
Au 21.2057 18.3733 13.0412
Pt 21.2915 20.3782 11.082
Au 19.1641 18.4211 15.0163
Pt 19.1808 20.3337 17.0348
Au 21.7817 19.3709 17.6313
Pt 21.1879 20.2451 15.0578
Au 19.7717 19.4458 19.6394
Pt 19.8383 21.3679 21.6786
Au 21.7661 19.3222 21.6705
Pt 21.8476 21.3297 19.6961
Au 19.697 19.3259 23.6516
Pt 19.6989 21.2406 25.3874
Au 21.681 19.302 25.6256
Pt 21.7084 21.1797 23.5934
Au 21.3379 24.2048 7.47466
Pt 21.2512 22.291 9.26456
Au 23.2182 22.27 7.36295
Au 19.2527 22.4079 11.103
Pt 19.3787 24.2179 13.1187
Au 21.2753 22.2171 13.068
Pt 21.3135 24.0676 11.194
Au 19.2809 22.3613 15.0833
Pt 19.3454 24.1734 17.1155
Au 21.2143 22.1678 17.0965
Pt 21.3508 24.0818 15.1187
Au 19.2497 22.2302 19.057
Pt 19.304 23.9766 21.054
Au 21.9036 23.2584 21.7274
Pt 21.2813 23.9396 19.106
Au 19.8883 23.3249 23.673
Pt 23.2159 6.12777 13.6154
Pt 23.1637 6.08429 17.3728
Pt 23.3463 7.86238 15.527
Pt 23.4991 9.8678 9.61994
Au 23.5753 7.71905 11.4398
Pt 23.5016 9.79111 13.5657
Au 25.3273 7.79409 13.6275
Pt 25.2726 9.77161 11.6801
Au 21.502 9.83751 15.5625
Pt 23.4262 9.69412 17.5511
Au 25.2975 7.71498 17.4426
Pt 25.327 9.67159 15.5838
Au 23.4325 7.58925 19.5645
Pt 23.3674 9.68014 21.4386
Pt 25.1931 9.61699 19.4251
Pt 20.9713 14.7058 5.16944
Au 23.6294 11.8193 7.55335
Pt 23.6825 13.7024 9.57122
Au 25.5144 11.6765 9.68592
Pt 22.9363 14.5509 7.05562
Au 23.616 11.7684 11.6215
Pt 23.776 13.646 13.6184
Au 25.7578 11.6096 13.6109
Pt 25.5587 13.5794 11.6316
Au 23.6709 11.7139 15.5899
Pt 23.7613 13.608 17.5898
Au 25.7224 11.5489 17.5833
Pt 25.6207 13.5424 15.6137
Au 23.5591 11.6315 19.5175
Pt 23.5772 13.4852 21.5545
Au 25.4829 11.473 21.5188
Pt 25.5249 13.448 19.6207
Au 23.5666 11.3929 23.6014
Pt 23.4071 13.4798 25.3208
Pt 25.3063 13.4635 23.4634
Pt 21.0822 18.5908 5.31902
Au 22.9641 16.572 5.22456
Au 22.7403 12.7423 5.0683
Pt 23.1346 16.4125 8.96742
Au 25.6696 15.5752 9.68155
Pt 23.0453 18.4325 7.2017
Au 23.7785 15.5654 11.6314
Pt 23.851 17.4685 13.6359
Au 25.9345 15.4885 13.6253
Pt 25.6398 17.4729 11.6698
Au 23.8434 15.5231 15.6148
Pt 23.8598 17.3831 17.6317
Au 25.9199 15.4298 17.6563
Pt 25.7264 17.3815 15.6515
Au 23.7715 15.4664 19.6205
Pt 23.6853 17.3723 21.6221
Au 25.7961 15.3624 21.6119
Pt 25.6466 17.3532 19.6787
Au 23.5081 15.3922 23.5078
Pt 23.5231 17.2424 25.3858
Au 25.3758 15.302 25.416
Pt 25.4144 17.214 23.5305
Au 23.0383 20.3878 5.39545
Pt 23.1937 20.2951 9.12813
Au 25.1259 18.2823 9.05589
Au 23.1705 18.284 11.0313
Pt 23.2643 20.2455 13.0509
Au 25.9348 19.3386 13.675
Pt 25.035 20.112 11.1379
Au 23.8608 19.3075 15.655
Pt 23.7895 21.2243 17.6833
Au 25.9637 19.272 17.6895
Pt 25.6776 21.2065 15.713
Au 23.7754 19.2584 19.628
Pt 23.7235 21.1454 21.6061
Au 25.7192 19.2399 21.6524
Pt 25.5462 21.136 19.6173
Au 23.7943 19.3828 23.7327
Au 23.4615 22.3693 10.9623
Pt 23.2455 23.8839 13.2089
Au 25.3021 22.0749 13.1172
Au 23.1795 22.0203 15.1092
Pt 23.2165 23.872 17.1387
Au 25.7741 23.0415 17.695
Pt 25.0026 23.746 15.2366
Au 23.8766 23.2493 19.7322
