561
Atoms. Timestep: 20452
Pt 15.3696 8.38545 18.5601
Au 23.4439 23.4985 13.3788
Pt 16.3405 11.0534 11.9613
Au 14.4407 21.9335 21.9386
Pt 9.85244 10.2885 10.3639
Pt 20.1267 19.1422 17.2393
Au 9.91455 25.1796 21.0071
Pt 14.3896 10.8059 18.4336
Au 13.3914 3.87725 12.5313
Pt 7.98418 11.4138 21.3375
Au 18.9921 26.1107 18.4519
Pt 12.9892 14.6151 21.559
Au 24.9767 18.4543 18.9069
Pt 15.761 15.858 9.54067
Pt 16.5634 10.3194 9.21636
Au 5.56212 12.6005 12.7382
Au 24.9501 21.2601 12.78
Pt 11.1091 13.8218 8.07386
Au 15.7518 26.7549 10.6273
Pt 22.6452 14.9466 18.0207
Au 17.3307 16.8182 25.8167
Pt 11.478 23.1468 20.0615
Au 6.81234 8.96634 13.2916
Pt 19.194 14.41 9.14506
Au 9.86425 4.31498 20.8064
Pt 20.7587 18.6489 10.1608
Au 10.0641 20.8628 10.1061
Au 17.3164 10.819 2.45316
Pt 17.9407 8.95699 18.8858
Au 13.8338 28.0675 13.9637
Pt 18.5649 10.2179 21.3205
Au 21.1003 14.393 4.69789
Pt 11.2064 24.8798 16.2773
Au 20.8468 5.4209 11.7695
Au 9.81445 13.0973 25.6576
Pt 17.8821 24.9499 10.031
Pt 12.2454 5.74627 20.9991
Pt 12.8149 14.1443 11.7477
Pt 12.8415 16.9437 22.6205
Pt 9.97574 16.2369 8.66561
Pt 20.0871 9.5183 13.7352
Pt 11.8164 9.49121 18.1902
Au 19.0902 14.425 24.8872
Pt 23.3399 17.8069 10.7369
Au 4.88374 13.1015 15.5556
Pt 6.88357 14.6748 17.1938
Au 25.9323 13.9978 10.4576
Pt 17.3545 6.51192 17.4398
Au 19.7324 6.05973 9.40999
Pt 10.8816 6.29173 16.0013
Au 19.1528 8.64402 23.7027
Pt 12.1828 12.2674 22.0843
Au 4.3836 17.5315 21.7237
Pt 19.0552 17.6521 11.9429
Au 16.5469 27.9826 13.2381
Pt 15.3224 12.2016 7.1312
Pt 16.7856 22.9315 20.7339
Pt 11.0008 19.1013 17.7529
Au 23.8622 18.385 21.3324
Au 8.40844 10.6629 24.483
Pt 12.8059 15.8876 13.9455
Au 7.75203 8.54362 10.5779
Pt 19.2831 12.1583 19.0772
Au 15.138 5.44221 10.9649
Pt 20.6335 16.2367 16.3257
Au 21.9687 17.8018 23.1674
Pt 11.3034 16.9404 11.6683
Au 16.2593 7.49095 6.86998
Pt 9.69045 12.9345 14.934
Au 14.4002 26.534 20.1919
Pt 19.8393 12.1434 12.8553
Au 22.8406 8.36247 20.6212
Pt 16.1108 15.6553 18.2536
Au 25.8765 11.6911 16.8071
Pt 13.8529 13.8231 8.93034
Au 11.4442 24.784 11.6112
Pt 12.3915 19.6958 11.1187
Au 25.7159 16.4908 11.5759
Pt 16.5541 18.5657 21.6894
Pt 15.7681 14.3978 5.35715
Au 13.0813 27.0115 11.5146
Au 11.0988 19.0041 6.24062
Pt 15.8073 9.51143 21.0911
Au 14.0273 5.30461 23.1084
Pt 17.3938 10.1855 6.66427
Au 6.63625 17.5424 20.3809
Pt 21.6397 18.5002 12.6746
Au 19.2473 5.06829 21.0247
Pt 19.7263 7.94219 11.2894
Au 18.9724 4.20158 13.8324
Pt 8.98271 12.802 9.56296
Au 8.81909 22.9574 11.7016
Pt 20.7031 21.1754 9.60067
Au 13.5813 7.02809 6.43175
Pt 6.74375 16.6938 15.1372
Au 25.4259 11.5496 11.4579
Pt 14.409 14.056 19.4809
Au 9.64253 24.535 18.4135
Pt 12.9363 20.5117 16.6127
Au 12.0225 9.31479 6.67733
Pt 14.9666 14.431 13.4517
Au 8.51638 14.9932 24.0385
Au 19.9753 19.6958 4.74828
Pt 13.6219 11.2986 5.23072
Au 21.1198 24.3928 18.5594
Pt 15.4302 20.3552 17.4428
Au 24.629 12.4875 8.56675
Pt 20.5728 12.3899 10.2812
Au 19.7825 17.0879 24.5191
Pt 23.2519 16.4252 15.5469
Au 4.17584 17.6602 16.2305
Pt 7.27675 19.655 18.5566
Au 23.2097 22.6642 18.1332
Pt 15.3315 7.09516 13.0925
Au 16.2674 20.6282 26.0996
Pt 12.9369 7.23831 19.0194
Au 21.6878 5.23245 14.3801
Pt 10.3251 19.4271 12.5902
Au 16.2892 11.6669 4.69194
Au 11.5919 10.1372 3.90076
Pt 9.57218 13.7215 17.6328
Au 13.1966 18.6902 4.46759
Au 20.7416 12.2616 21.4711
Pt 22.6507 11.8683 13.3482
Au 16.4073 27.325 18.1179
Pt 15.7595 21.6004 13.4518
Au 25.1866 11.391 14.1974
Pt 11.401 10.8644 14.1915
Au 12.4783 4.72902 10.1279
Pt 13.0226 20.5165 8.7264
Au 11.614 14.2178 3.90798
Au 11.3511 4.3118 23.0574
Pt 10.8671 19.8444 15.1565
Pt 10.3582 11.0634 7.99771
Pt 20.1714 15.7668 7.01565
Pt 19.6915 18.4459 14.6528
Pt 10.5657 16.468 17.767
Pt 18.8148 11.5258 8.52203
Pt 19.1589 14.8003 11.9844
Pt 17.4349 25.6281 12.6023
Pt 20.3158 13.0994 6.92618
Pt 18.7102 22.5099 10.7854
Pt 9.46113 11.0665 18.4336
Au 10.0103 15.9046 26.1504
Au 9.88806 24.3238 13.8237
Pt 17.566 8.59411 13.16
Au 4.15646 17.4402 19.0426
Pt 19.3896 10.332 17.1656
Au 15.7827 25.1173 8.1597
Pt 13.159 13.8725 6.1614
Au 4.46048 15.5315 14.4898
Pt 16.7729 20.827 11.1145
Au 5.71632 10.1918 20.0872
Pt 16.643 13.4498 8.81347
Au 16.4539 8.92762 4.43359
Pt 18.4354 19.7383 9.3764
Au 24.7586 9.33199 16.2166
Pt 15.3715 17.5774 16.5558
Au 16.7186 9.96112 23.7
Pt 10.4675 17.2796 14.4739
Au 25.2358 16.0894 17.2905
Pt 18.4162 23.3333 18.6458
Au 15.5958 26.7688 15.5243
Pt 8.80924 18.0014 16.594
Pt 11.7213 22.6082 15.0397
Au 6.34464 7.71631 18.6751
Au 9.04292 4.98725 14.5514
Pt 16.3685 18.261 18.8932
Au 11.8573 22.8862 9.682
Pt 18.3697 17.6336 6.07381
Au 9.0309 19.3647 8.03894
Pt 8.44827 15.5678 19.292
Au 12.077 3.56478 19.3231
Pt 20.2599 18.4833 7.52525
Au 21.7375 25.704 13.683
Pt 14.6538 7.87307 9.18734
Au 7.96794 17.5239 24.8308
Pt 6.53613 17.1412 17.7949
Au 18.4593 24.785 7.29381
Pt 10.5492 10.5186 20.9029
Au 24.327 18.7456 13.443
Pt 22.1871 18.8427 15.3739
Au 25.2844 20.9168 17.8438
Pt 7.78033 11.5419 13.8156
Au 12.9772 27.0219 16.5007
Pt 8.54418 17.166 22.0527
Pt 13.7141 11.6415 12.6191
Au 14.0163 22.8862 7.91319
Au 11.1973 7.69073 4.93426
Pt 9.35547 8.24858 17.6922
Au 16.8253 25.4039 19.9642
Pt 13.6873 24.7258 15.3153
Au 22.5322 24.093 15.921
Pt 23.55 15.1477 10.4833
Au 14.8622 10.5045 25.6094
Pt 16.4446 18.0441 7.93767
Au 20.0705 22.2055 22.9152
Pt 14.3567 11.2992 9.87586
Au 9.16372 18.1387 10.5277
Pt 14.5858 22.2875 15.6654
Au 7.6754 10.5362 8.60528
Pt 19.5531 14.1762 14.7246
Au 10.8154 21.4299 7.55288
Pt 10.4843 14.5754 10.6665
Au 5.11779 12.359 18.1789
Pt 14.7581 25.7634 13.017
Au 13.9649 24.622 10.2776
Pt 18.1161 17.1721 16.9703
Pt 17.3 22.1987 15.9549
Au 14.4198 5.37625 8.33634
Au 14.7876 3.18103 17.8544
Pt 19.3576 19.3715 22.2363
Au 21.9506 5.53766 17.0935
Pt 20.601 21.5209 18.4408
Au 14.613 10.6863 2.81309
Pt 19.6574 20.3893 12.1662
Au 12.2639 14.2413 26.5223
Pt 9.01317 15.4684 15.6769
Au 15.256 24.6541 22.3459
Pt 21.9511 9.92857 17.1823
Au 6.53218 7.73638 21.481
Pt 22.6141 17.4989 17.9005
Au 22.4903 25.0185 10.8753
Pt 21.3921 19.1188 19.9608
Au 24.7651 15.8937 19.9175
Pt 18.1637 22.6758 13.2502
Au 25.0408 13.9873 15.5126
Pt 21.9153 14.2436 8.69913
Au 21.1963 9.6743 22.4065
Pt 16.8046 15.7487 11.9036
Au 4.29656 15.1661 17.3415
Au 9.60317 8.40066 8.2218
Pt 14.721 16.8108 20.5318
Au 15.7337 22.6254 24.349
Pt 23.2505 12.0422 16.2862
Au 18.7466 14.1829 22.22
Pt 17.7058 16.3142 20.2688
Au 15.9947 15.9979 3.0072
Pt 14.9033 19.5295 14.9183
Au 8.39496 22.0997 23.9564
Pt 22.3135 14.1207 14.8992
Au 16.018 4.25878 13.4396
Pt 16.8212 8.10096 10.7589
Au 21.9879 20.3714 22.2889
Pt 13.7853 10.2555 23.0153
Au 6.49329 18.9362 22.9259
Pt 8.67102 20.592 16.4547
Au 18.9841 22.3957 5.37735
Au 19.0657 12.6027 4.04324
Pt 13.6598 18.7308 18.6637
Pt 17.9363 10.8978 14.3927
Pt 11.4836 18.3939 8.92402
Pt 15.6575 14.7463 21.8913
Pt 19.363 20.9758 14.8631
Pt 17.2062 24.8481 16.851
Pt 15.384 13.4952 11.1272
Pt 12.7008 13.1382 14.472
Pt 15.0955 19.933 23.6165
Pt 17.9591 12.7414 10.8577
Pt 13.7214 18.4026 7.07653
Pt 16.7153 18.1462 10.6923
Pt 18.2327 12.5571 16.3799
Au 23.1511 13.3983 6.37781
Au 24.1588 21.381 15.4184
Pt 21.0171 16.1071 10.6823
Au 17.5408 27.11 8.50184
Pt 20.8488 16.2345 13.7038
Au 22.1356 12.2153 18.8785
Pt 16.1883 24.1447 14.4984
Au 16.8113 13.4857 2.78646
Pt 14.7346 25.3158 17.7753
Au 12.5902 9.07324 25.4126
Pt 14.5194 9.17986 11.5045
Au 20.2683 10.0613 6.70924
Pt 20.3905 14.4881 19.9616
Au 14.1761 3.17065 15.1498
Pt 9.18761 21.4958 13.9569
Au 21.6657 22.5842 20.6361
Pt 21.6438 14.0695 12.2525
Au 24.7107 13.3773 18.5011
Pt 10.4721 17.0934 23.7589
Au 17.0105 6.02655 9.02017
Pt 10.2708 12.196 12.2947
Pt 16.0413 23.636 11.7264
Au 9.81116 14.7152 5.90397
Au 9.19204 19.6508 23.5787
Pt 20.0442 7.6035 18.0589
Au 17.0246 4.0277 19.2652
Pt 13.8132 14.775 24.1841
Au 13.0187 21.0282 6.06085
Pt 11.8547 12.1529 10.2126
Au 13.1438 5.85949 14.2633
Pt 17.1788 6.65882 19.9836
Au 15.2044 17.1593 23.7863
Pt 12.9581 7.03067 11.4645
Au 13.6439 21.1919 25.5576
Pt 16.017 13.0276 17.6303
Au 6.91509 12.7855 23.5841
Pt 7.81579 14.2984 21.4877
Au 10.4106 18.7466 25.8551
Pt 8.95827 8.97787 22.3901
Au 8.45325 6.65617 12.4197
Pt 11.2939 14.5594 23.8373
Au 15.8454 17.3025 5.3557
Pt 13.5652 10.4638 15.9546
Pt 10.9895 7.37408 13.4433
Au 6.61343 17.8875 11.4126
Au 10.9688 12.1657 5.55363
Pt 9.29323 22.3311 21.3734
Au 15.4662 20.0592 5.7473
Pt 8.27187 9.19449 19.9165
Au 21.0611 27.1992 11.4771
Pt 14.9262 12.5113 23.6039
Au 5.16561 18.251 13.6363
Pt 11.9246 9.75382 11.9101
Au 24.2036 9.27535 12.4242
Pt 13.6583 19.2828 21.3593
Au 23.1806 11.0281 21.0822
Pt 22.0411 7.66327 12.9916
Au 8.16152 5.9212 17.0693
Pt 13.3412 7.61812 16.5386
Au 20.0865 26.4667 9.09479
Pt 14.1342 16.5806 11.6791
Au 17.6562 19.0498 24.3657
Pt 7.05431 14.2021 14.4279
Au 19.4251 24.2829 20.9023
Pt 8.54167 21.9793 18.8063
Pt 21.6847 10.1036 11.7124
Au 12.9828 23.3336 17.6172
Au 21.2266 6.91369 22.4455
Pt 11.7811 21.3361 22.1477
Au 21.502 6.1631 19.792
Pt 11.2628 22.105 12.2937
Au 24.8619 18.6918 16.1726
Pt 14.4132 15.1153 15.9175
Au 5.53062 12.6577 21.2039
Pt 15.6644 20.44 8.54032
Au 11.9304 6.84619 8.53467
Pt 9.38192 9.50439 12.9281
Au 22.4465 18.8581 5.85146
Pt 15.4765 17.0941 13.9397
Au 8.3615 6.38426 19.9097
Pt 13.0996 20.909 13.6066
Au 12.5543 25.0639 21.778
Pt 13.1654 9.52953 20.5064
Au 20.3874 19.8488 24.5525
Pt 12.3039 8.07242 22.5266
Au 21.4851 11.6638 5.0043
Pt 22.2264 16.4768 20.3672
Pt 20.7891 21.004 7.03526
Au 7.0897 24.1067 17.438
Au 14.6782 7.91116 23.948
Pt 19.4155 7.78901 20.847
Au 16.4202 6.0224 24.4018
Pt 19.0871 21.4282 20.5567
Au 10.9751 16.8677 4.4583
Pt 10.5148 14.7817 13.3341
Au 10.816 4.99003 12.3056
Pt 18.469 8.40521 15.7915
Au 20.6463 26.0639 16.241
Pt 24.2581 13.7939 12.7957
Au 21.6396 21.8514 4.75608
Pt 18.6847 16.9626 9.24169
Au 12.8148 11.4899 27.1793
Pt 19.6067 6.87627 13.6643
Au 22.8509 16.0941 6.02489
Pt 17.6493 16.538 22.9836
Au 21.333 14.8703 22.8745
Pt 15.4219 9.98528 14.0951
Au 12.1208 25.7037 18.9211
Pt 14.6005 11.9693 20.9686
Pt 10.8758 18.778 21.7281
Pt 7.47025 12.8235 19.1497
Pt 20.7539 13.4978 17.0627
Pt 8.21971 19.9232 21.0287
Pt 18.0126 20.7579 18.1394
Pt 22.7117 9.70401 14.625
Pt 14.842 19.2753 12.1223
Pt 22.96 20.4228 10.9956
Au 18.1887 27.3193 15.9984
Pt 12.4789 12.1977 24.7064
Au 7.80543 5.4095 22.4021
Pt 12.8154 5.00215 17.145
Au 6.20691 15.9739 22.8382
Pt 9.14655 23.1115 16.1363
Au 24.574 15.2333 8.04901
Pt 17.0578 7.64191 22.3528
Au 17.8292 23.7977 23.0683
Pt 11.2311 11.731 16.6896
Au 19.4173 27.347 13.6063
Pt 9.67311 12.6681 22.9494
Au 7.45734 24.1038 20.1347
Pt 17.8418 13.0182 6.43042
Au 9.9634 8.18416 24.9096
Pt 19.8336 24.7998 11.9258
Au 10.55 23.748 23.2519
Pt 16.3549 22.8068 9.31126
Pt 8.89861 10.2002 15.7212
Pt 13.404 13.0482 17.1856
Au 10.977 21.4473 24.754
Au 18.3673 21.7217 24.913
Pt 17.439 19.4207 15.9263
Au 7.83082 20.3771 11.6189
Pt 18.7193 18.8576 19.7737
Au 18.4817 8.43201 8.61097
Pt 13.2523 8.6148 13.9503
Au 10.5157 10.6031 26.226
Pt 7.56116 11.1769 11.2966
Au 19.4753 4.77891 18.4015
Pt 6.45533 19.1958 15.9871
Au 19.9474 16.8661 21.6378
Pt 15.1833 5.49053 15.9975
Au 5.85461 15.3454 12.1443
Pt 16.8268 11.221 19.4252
Au 24.2799 22.9051 10.8206
Pt 11.6136 14.8142 16.1296
Au 5.71325 10.5596 15.3117
Pt 8.83549 7.68762 14.9399
Au 14.1463 13.3383 3.44121
Pt 20.4144 23.9337 9.37704
Pt 17.2565 21.097 22.5242
Au 18.8897 5.98912 23.4544
Au 16.4424 22.5859 6.55286
Pt 10.6876 5.91476 18.6527
Au 19.2714 11.5694 23.6399
Pt 17.011 12.185 22.1399
Au 24.8129 17.9824 8.50353
Pt 12.6748 17.7241 16.079
Au 6.39481 13.365 10.0496
Pt 8.02668 15.6104 10.4135
Au 14.821 13.1348 26.3637
Pt 8.1904 13.7018 12.1578
Au 11.4754 3.73593 14.7471
Pt 14.9927 5.73624 18.6465
Au 7.49094 7.56763 24.0306
Pt 11.7191 14.5213 19.1299
Au 12.0311 6.41449 24.6203
Pt 11.0086 10.2931 23.518
Au 14.4208 4.05801 20.6273
Pt 14.2302 18.2572 9.63267
Au 7.29449 23.3984 14.2808
Pt 14.6948 9.63717 7.17699
Pt 22.1642 20.9024 13.5106
Au 15.5676 18.7683 3.17391
Au 13.7819 8.68422 4.41971
Pt 11.9318 16.3379 6.8564
Au 24.8605 20.8826 8.9771
Pt 11.9546 17.1764 20.0287
Au 19.0071 9.98086 4.34048
Pt 8.14553 18.8368 13.9739
Au 8.96991 17.2106 6.38497
Pt 10.3932 15.4432 21.4563
Au 23.7348 20.8116 20.1462
Pt 23.3173 16.2585 12.9121
Au 17.8914 5.73826 11.7501
Pt 20.7457 23.1595 13.9609
Au 12.5208 16.8738 25.5557
Pt 17.3359 19.2627 13.3011
Au 5.24853 19.8788 20.603
Pt 17.33 13.3262 13.4184
Au 13.0975 23.2534 23.8431
Pt 21.5163 22.634 11.5395
Au 4.60668 19.8981 17.9136
Pt 18.8248 24.9315 14.6448
Au 14.8888 15.8353 26.5041
Pt 19.5037 5.74318 16.0206
Au 11.935 26.1847 13.9234
Au 17.3436 3.91922 16.3323
Pt 20.7398 11.6102 15.267
Au 6.18259 21.859 16.3888
Pt 23.0823 12.4441 10.6719
Au 18.342 15.2455 4.60609
Pt 16.9663 14.8642 15.7244
Au 25.5713 19.2329 10.9612
Pt 21.1575 7.86479 15.6859
Au 12.4565 19.2655 24.0218
Pt 10.6474 20.5296 19.8619
Au 9.38089 5.51629 24.5859
Pt 15.9769 20.5777 20.071
Au 13.5927 15.9996 4.41887
Pt 18.7703 10.2744 11.1474
Pt 12.6541 16.0105 9.49157
Pt 11.1619 8.8923 15.7502
Pt 18.6492 14.7525 17.8879
Au 6.6284 21.9609 21.8299
Pt 7.05738 10.176 17.7514
Au 18.0952 17.8246 3.44858
Pt 14.5241 15.8863 7.27827
Au 14.6348 18.5748 26.008
Pt 21.5981 21.5056 16.0279
Au 26.6889 14.1554 13.145
Pt 17.2395 13.7391 19.9623
Au 4.13437 20.2433 15.2524
Pt 16.4679 14.6027 24.3497
Pt 8.42458 16.3908 12.9272
Pt 15.3993 12.4162 15.1142
Au 20.9888 23.6964 6.74306
Pt 22.2469 16.9179 8.44566
Au 8.44778 12.4076 6.76142
Pt 10.6925 8.01916 20.2321
Au 25.7047 16.4308 14.362
Pt 19.7627 23.345 16.4653
Au 9.8653 5.43926 9.80135
Pt 17.2812 6.24267 14.6299
Au 21.0534 7.66264 7.73381
Pt 22.099 11.5896 8.11914
Au 23.163 7.7446 17.9793
Pt 12.7531 18.3859 13.4802
Au 24.2075 10.3973 18.655
Pt 12.8243 11.6748 7.73441
Au 22.2432 7.55414 10.2861
Pt 12.4234 9.39758 9.35972
Au 18.7941 7.82771 5.97331
Pt 9.91867 13.0764 20.303
Pt 18.0895 16.5025 14.1757
Pt 9.31748 18.0483 19.5157
Au 23.6404 7.06024 15.1819
Au 10.4383 7.706 10.7958
Pt 22.7751 19.9975 17.7838
Au 12.3261 2.33993 16.935
Pt 14.1659 21.7613 10.9111
Au 23.5302 21.2667 6.5407
Pt 10.1051 6.65573 22.3786
Au 17.2282 14.3679 26.9094
Pt 10.8632 21.8583 17.6085
Au 7.27652 17.3748 8.60046
Pt 13.4476 16.1533 18.0737
Au 7.77414 14.7602 7.86696
Pt 14.6539 7.05945 21.1146
Au 20.6407 17.081 4.614
Pt 15.7898 22.8356 18.1846
Au 23.0924 13.8573 20.8512
Pt 18.6805 22.2749 8.13517
Au 23.809 15.9138 22.4797
Pt 16.5742 10.3837 16.7944
Au 17.2247 12.1821 25.2781
Pt 13.3299 21.2282 19.4181
Au 6.33058 20.9087 13.7741
Pt 7.50886 12.3371 16.4151
Au 5.60543 15.0254 19.8192
Au 6.29682 10.0632 22.8535
Pt 13.501 23.4714 12.963
Au 22.7479 22.7371 8.6509
Pt 20.7656 9.73106 9.3695
Au 7.94142 24.3357 22.7018
Pt 14.1562 23.8124 20.0113
Au 10.0674 3.84372 17.133
Pt 12.1987 11.9255 19.3665
Au 16.6359 4.88847 21.9892
Pt 17.3538 15.5237 7.29183
Au 20.8015 9.83792 19.6412
Pt 22.6104 19.5942 8.46595
Au 5.85578 22.1101 19.1249
Au 18.4113 27.6099 11.0251
Pt 18.0151 20.1251 6.79293
Au 9.47468 9.79976 5.79189
Au 6.55668 8.09491 16.0373
Pt 15.7613 8.10393 15.8201
Au 23.6441 9.94738 9.73037
Pt 20.1016 16.8686 18.8169
Au 17.4973 20.4485 4.09121
