561
Atoms. Timestep: 20446
Pt 8.41132 14.8911 21.451
Au 11.262 24.13 21.9109
Pt 17.8245 20.8462 22.7149
Au 10.62 22.0656 23.6273
Pt 18.9732 7.69092 11.3407
Pt 17.8234 11.5359 14.5217
Au 10.456 18.2143 5.41484
Pt 20.6318 13.6867 21.0676
Au 19.0489 7.03038 22.3827
Pt 18.526 21.9191 20.4167
Au 11.2057 11.4343 4.52074
Pt 15.334 14.4966 8.47955
Au 20.3072 22.4534 9.46823
Pt 13.7072 11.4636 11.1793
Pt 23.6778 21.3682 16.8693
Au 9.03235 7.30763 7.64812
Au 25.2467 11.0232 16.4256
Pt 19.5739 17.7222 20.1463
Au 14.3834 21.0463 5.62791
Pt 16.0907 19.4844 10.4055
Au 5.88027 21.5472 20.7977
Pt 12.7214 10.4766 13.6127
Au 8.20107 14.5155 7.09398
Pt 16.3084 22.3862 16.63
Au 13.7733 7.70314 23.4247
Pt 15.7203 13.7724 22.637
Au 5.07131 18.5387 10.8471
Au 13.7517 6.39643 4.97355
Pt 10.9001 11.8781 16.4417
Au 19.1181 14.666 26.0728
Pt 8.78775 16.419 17.6095
Au 23.1466 14.04 22.7466
Pt 15.6364 11.4599 21.0267
Au 11.9693 4.04891 12.6725
Au 25.4829 22.0725 11.3011
Pt 21.7707 16.0554 21.3082
Pt 21.4039 23.1015 16.5914
Pt 12.5 14.4156 7.51184
Pt 14.6515 20.8407 18.291
Pt 7.01644 16.7165 11.3137
Pt 18.8729 9.26126 15.2731
Pt 22.7449 17.6648 14.4728
Au 19.044 3.26905 16.6074
Pt 12.6474 17.138 23.6058
Au 8.09928 18.2507 24.2967
Pt 16.0854 20.6057 20.7467
Au 20.9607 17.245 25.3966
Pt 17.7738 11.1318 19.2532
Au 8.79808 20.2571 6.40425
Pt 7.10915 15.0152 19.0762
Au 4.41036 13.7362 13.1238
Pt 20.1396 11.2398 20.626
Au 4.85968 11.1212 13.4158
Pt 23.9643 19.9315 14.628
Au 24.2263 10.236 9.27101
Pt 8.04709 12.671 20.0568
Pt 16.6508 13.5213 18.3712
Pt 22.4145 13.056 13.8064
Au 16.6425 17.7672 28.6706
Au 13.4901 4.34579 10.1506
Pt 10.1583 9.99945 14.6329
Au 6.0667 8.39859 13.9843
Pt 6.21172 18.4461 13.4807
Au 14.2449 24.0096 17.6297
Pt 19.3011 13.3391 18.6717
Au 17.4003 4.8187 21.8234
Pt 11.5309 19.6178 10.2476
Au 14.9589 16.3945 3.91775
Pt 10.505 10.3932 12.0861
Au 25.9968 14.6855 9.85799
Pt 15.8253 9.16406 19.4622
Au 21.9503 9.03025 8.24004
Pt 20.8347 9.46519 10.6701
Au 25.6317 15.1737 19.0254
Pt 11.2537 15.1469 16.7756
Au 19.2455 10.6486 3.93163
Pt 14.3263 12.5861 13.6442
Au 24.615 16.1534 21.4461
Pt 24.5579 13.4643 15.1124
Pt 8.60214 14.7495 15.4939
Au 26.0652 19.7304 12.6213
Au 16.2182 24.6385 9.32379
Pt 16.394 22.8798 19.215
Au 19.5507 20.7872 7.22245
Pt 23.3794 20.7709 12.212
Au 17.1296 21.1391 5.99949
Pt 10.1337 7.32855 15.1927
Au 18.0778 8.94052 24.1634
Pt 12.2776 9.19563 10.4097
Au 7.82622 9.96114 20.8787
Pt 10.2879 17.3927 15.4743
Au 10.6876 23.9204 8.30088
Pt 15.2735 13.7872 11.4271
Au 16.5683 3.53504 17.4704
Pt 20.341 18.1581 15.5659
Au 26.6365 17.6609 16.9285
Pt 14.0101 15.782 25.4225
Au 7.75882 6.10427 14.4563
Pt 20.3871 16.1606 9.72263
Au 22.7024 14.1025 6.4573
Pt 14.6638 22.4523 14.1141
Au 7.31824 20.1115 19.0415
Au 18.1103 23.1215 7.85119
Pt 23.929 18.4892 16.8296
Au 26.386 13.6009 17.0133
Pt 14.9475 22.4482 10.3723
Au 10.1349 9.40121 6.07422
Pt 20.0522 20.0914 21.5917
Au 8.15391 23.6777 14.2905
Pt 13.6266 16.556 16.8622
Au 12.3299 16.1156 5.03922
Pt 15.8574 12.5473 6.61165
Au 23.1033 7.97311 10.6897
Pt 14.4735 8.94664 11.9165
Au 14.8868 26.606 17.717
Pt 16.5857 7.85883 8.31142
Au 8.65758 5.70742 9.94835
Pt 8.86029 16.4134 9.16377
Au 23.0014 16.9828 23.4932
Au 25.9553 20.2041 18.0254
Pt 4.88741 17.6314 15.5075
Au 22.0241 20.3581 8.45334
Au 12.6883 3.45392 15.2675
Pt 6.25415 17.6237 17.9317
Au 18.927 24.8881 9.89929
Pt 21.153 22.1565 12.1009
Au 20.8407 6.84354 9.52699
Pt 15.0789 19.1529 7.33918
Au 7.44058 19.7778 11.6862
Pt 16.089 21.1659 12.464
Au 19.1455 17.9145 5.78854
Au 19.187 11.3914 25.0062
Pt 23.3529 16.7091 18.9823
Pt 11.3621 17.65 17.9694
Pt 10.9668 21.2351 8.05973
Pt 14.664 9.71431 9.14552
Pt 11.9532 11.8267 23.5422
Pt 12.3174 18.9254 7.4238
Pt 24.8767 11.7215 13.0826
Pt 10.7434 15.2764 13.8837
Pt 25.4153 17.7004 14.4704
Pt 14.2329 16.0764 10.4159
Pt 11.6943 6.26731 10.6864
Au 12.8178 21.2704 25.2399
Au 4.15323 16.5385 12.5218
Pt 13.3323 6.41204 16.8361
Au 5.86422 14.1234 21.4588
Pt 18.7741 20.8232 12.5928
Au 8.71874 11.9197 5.87745
Pt 13.3954 19.0842 16.5632
Au 12.0027 6.84284 21.5729
Pt 20.1294 18.4389 8.52891
Au 17.3951 3.5893 14.3806
Pt 9.03262 19.074 17.196
Au 25.9866 11.9139 10.5841
Pt 8.84552 16.9825 13.1972
Au 25.2966 13.4425 21.2305
Pt 14.2739 7.74353 14.3897
Au 16.3724 6.82439 10.9631
Pt 4.63671 13.122 15.8586
Au 16.1077 23.1636 21.9402
Pt 11.9783 22.7907 18.2983
Au 15.0658 23.2965 24.4508
Pt 13.9212 18.1484 19.2475
Pt 14.2735 18.7678 24.8518
Au 16.2521 6.48054 6.06603
Au 12.3175 17.81 26.4463
Pt 15.1623 20.8279 23.305
Au 21.7777 25.7236 16.4557
Pt 9.88677 9.48855 17.2523
Au 13.023 13.7686 3.81676
Pt 18.2205 16.0208 14.3644
Au 14.2972 16.4171 28.0558
Pt 11.7949 8.112 12.8868
Au 22.7291 21.1529 21.4908
Pt 11.8687 17.2446 11.8306
Au 19.4199 19.4443 24.8348
Pt 6.77947 13.0322 14.4957
Au 21.3084 24.6537 13.898
Pt 7.54703 17.3426 15.5374
Au 25.3974 22.203 14.0564
Pt 10.2623 14.0655 8.93471
Au 23.7781 18.4688 7.52065
Pt 8.3737 11.5012 16.1144
Au 6.9682 22.7392 11.8104
Pt 19.5919 13.5615 13.8061
Pt 10.0538 11.2184 21.7347
Au 10.5775 24.0851 12.8534
Au 13.9557 11.1138 3.75203
Pt 14.1813 13.1028 24.6721
Au 22.7027 11.3407 6.93909
Pt 17.6401 18.9171 7.73676
Au 3.56474 18.9357 13.5443
Pt 9.69016 12.6641 14.0839
Au 4.95847 16.3723 20.1534
Pt 7.69426 10.7779 13.4794
Au 10.264 16.6088 24.9125
Pt 11.0863 7.33102 17.8061
Au 3.53056 15.41 15.0884
Pt 17.7181 25.3454 13.8831
Au 17.4596 19.6982 26.9463
Pt 14.874 18.4815 21.9595
Au 4.56885 13.9628 18.7571
Pt 13.4535 11.3523 16.0931
Au 9.94158 24.098 19.5536
Pt 16.2137 16.1673 12.4369
Au 11.5868 25.2706 17.3062
Pt 16.8846 18.735 12.8315
Pt 13.539 20.6243 11.558
Au 18.4845 13.6332 23.5434
Au 14.6691 3.65398 13.2548
Pt 20.9487 13.7322 16.2668
Au 17.7397 21.9115 25.0416
Pt 24.736 15.9402 16.3873
Au 22.2522 7.36243 17.9743
Pt 14.1348 7.86683 7.12027
Au 21.7984 8.97142 20.6553
Pt 13.1715 22.2605 22.5606
Au 10.5836 13.9903 5.39729
Pt 13.0822 13.6628 22.166
Au 13.2901 5.34352 7.48938
Pt 16.8143 19.0552 24.4248
Au 24.378 18.9261 21.7594
Pt 13.2932 21.7265 16.2077
Au 14.7711 11.2013 26.5592
Pt 8.6895 8.43715 13.0999
Au 16.2181 4.19675 11.1542
Pt 16.8923 8.59005 13.1242
Au 22.0522 6.65693 15.1089
Pt 20.3139 17.7153 22.8471
Au 12.6699 25.217 19.7749
Au 9.98514 4.44575 14.8071
Pt 15.3549 10.1807 14.6437
Au 10.1781 5.85055 19.7518
Pt 22.163 16.1758 16.5513
Au 16.5972 11.1011 4.15884
Pt 16.4332 21.1729 8.55454
Au 8.03792 17.3367 6.67377
Pt 8.77784 19.3751 14.31
Au 9.96684 19.7602 22.3032
Pt 13.3087 7.80583 19.0414
Au 17.6644 16.2066 4.05839
Pt 21.6125 14.5972 11.813
Au 5.24393 23.1422 13.857
Pt 16.7501 13.9103 13.8061
Au 17.2581 12.7095 26.8347
Pt 17.3505 15.1372 10.1502
Au 15.3324 23.1262 7.15758
Au 17.9494 8.08277 18.077
Pt 19.9919 22.1766 14.5464
Pt 21.2953 19.8483 13.7008
Pt 21.556 17.236 12.0288
Pt 21.6909 12.2567 18.7152
Pt 11.7434 12.8817 12.4494
Pt 17.1505 24.767 17.5202
Pt 21.5085 9.23097 16.0862
Pt 6.77209 12.9023 17.5182
Pt 12.4787 10.0146 7.59298
Pt 16.4423 14.5948 25.126
Pt 19.1652 24.3708 15.8005
Pt 6.86505 21.1087 14.0328
Pt 19.9263 20.2029 18.8802
Au 3.7567 16.355 17.675
Au 22.1003 19.5461 23.6152
Pt 23.2393 10.242 14.368
Au 10.3219 25.565 15.0205
Pt 11.0912 20.0879 15.7079
Au 12.9211 5.18597 19.6703
Pt 14.119 14.0463 17.2783
Au 15.7672 5.24619 8.57654
Pt 15.9373 20.2519 15.2287
Au 14.5548 4.9738 22.3937
Pt 16.2383 9.10123 22.1696
Au 18.6857 5.00632 12.1579
Pt 23.8772 15.4728 13.5857
Au 17.61 8.96682 5.7006
Pt 18.2706 17.7498 10.5399
Au 8.62364 9.69563 23.4246
Pt 18.9923 7.0602 13.9502
Au 18.345 5.77894 9.39816
Pt 23.9545 18.2212 12.0881
Au 10.4364 3.84496 10.6084
Pt 16.9469 10.3615 16.9062
Pt 16.2766 16.772 6.43222
Au 13.9453 6.10331 12.2658
Au 14.5804 13.8109 27.2948
Pt 19.925 13.6012 9.95698
Au 5.6392 11.7097 20.2464
Pt 20.9316 15.3938 18.8673
Au 19.6964 26.3729 12.2275
Pt 12.5881 11.5716 20.6724
Au 16.9456 15.231 27.8095
Pt 9.72967 8.03039 10.703
Au 20.3567 9.54426 22.8714
Pt 18.6399 9.088 20.7103
Au 13.8972 24.8529 22.2973
Pt 16.7421 18.2026 19.8211
Au 17.0824 26.3672 11.3237
Pt 13.2117 15.1236 12.6963
Au 9.39296 21.6054 12.7388
Pt 18.3831 11.8935 6.05809
Au 20.1137 6.88172 19.7056
Pt 16.1589 17.1824 26.1187
Au 24.2773 15.848 7.99619
Pt 9.9808 9.75914 8.76228
Pt 14.7836 11.4615 18.4818
Au 8.37665 4.28285 12.3896
Au 7.16225 10.2964 18.2884
Pt 10.0372 6.16199 12.6805
Au 8.32361 22.3503 8.13498
Pt 21.3352 18.1422 18.0968
Au 18.3564 24.671 20.0924
Pt 19.1386 8.86386 8.72123
Au 6.33672 22.825 16.2917
Pt 20.1363 11.4127 7.87687
Au 25.8105 22.7194 16.7799
Pt 12.1683 12.9443 18.4348
Au 14.3241 25.8916 10.9305
Pt 20.1566 14.1034 7.38141
Au 7.06333 6.74559 11.8641
Pt 14.2718 10.788 23.1907
Au 20.8501 5.01088 17.4723
Pt 19.3912 18.1888 13.0077
Au 20.8571 24.564 18.8823
Pt 15.2291 17.6307 14.7473
Au 20.1024 15.3497 5.09028
Pt 9.71469 19.0466 19.7836
Pt 14.3443 18.0743 12.2249
Au 20.7607 23.0922 21.2768
Au 17.3359 10.0854 26.5311
Pt 15.3817 15.9803 18.8861
Au 8.52651 7.9419 19.0289
Pt 19.8487 7.17532 16.5607
Au 24.6283 22.0495 19.4735
Pt 10.9199 12.0687 7.28787
Au 15.436 8.99923 25.0056
Pt 22.9373 10.5034 11.795
Au 9.58035 21.6138 18.417
Pt 11.8943 17.9838 20.9502
Au 23.0233 22.4182 10.0446
Pt 12.5708 15.5117 19.2624
Au 15.1839 2.4013 15.5423
Pt 11.0724 19.3555 13.0398
Au 11.6214 20.6188 5.40995
Pt 23.1015 14.1804 20.0196
Au 23.8972 24.2425 15.3376
Pt 17.1753 10.4592 7.91406
Au 23.5499 24.0351 18.0003
Pt 17.311 20.4655 18.3417
Pt 17.6038 22.5397 10.6014
Au 17.7151 27.9402 13.4606
Au 15.3766 21.1586 26.0734
Pt 12.2596 8.8421 15.7914
Au 15.6089 4.45713 19.8983
Pt 22.0418 11.7913 9.55517
Au 17.1016 27.0554 16.006
Pt 14.8055 6.99166 20.9311
Au 5.83749 9.3887 11.5644
Pt 17.783 5.61036 16.1838
Au 16.4546 18.7945 4.81663
Pt 16.9531 9.38751 10.5079
Au 18.5899 13.3925 3.81053
Pt 21.3508 20.3801 16.4924
Au 12.7126 9.90338 25.2788
Pt 18.2283 13.6748 16.1571
Au 20.285 9.45338 6.11057
Pt 10.7875 22.8424 15.7713
Au 8.811 5.94323 17.0873
Pt 16.0622 11.9878 9.74394
Au 9.17266 23.5611 10.5106
Pt 19.5488 11.3889 16.9024
Pt 17.4148 22.6496 14.3099
Pt 7.63325 17.4011 20.1018
Pt 22.644 11.7499 16.3386
Pt 13.6097 19.8481 14.0601
Pt 10.655 13.5876 20.4733
Pt 19.1551 15.6037 12.012
Pt 11.2283 21.6543 20.7234
Pt 18.4996 16.2095 7.86562
Au 23.6175 23.718 12.4755
Pt 9.97504 11.2706 19.0778
Au 24.1276 8.37689 16.1248
Pt 20.753 11.9896 11.9099
Au 12.8087 24.2471 14.8802
Pt 12.6143 17.2859 14.419
Au 24.4482 12.9187 8.43365
Pt 15.6925 6.4421 18.0578
Au 12.4562 26.2029 13.0065
Pt 9.29286 12.6038 11.3561
Au 19.376 26.4209 17.615
Pt 13.5818 9.31873 21.1454
Au 9.95408 22.662 6.0026
Pt 9.46621 18.1648 10.9938
Au 7.66285 9.7712 7.3174
Pt 6.20512 15.6826 13.9136
Au 4.86598 20.9152 12.2296
Pt 11.9692 21.8386 13.5316
Pt 10.2712 15.2373 11.2868
Pt 11.3747 11.714 9.87258
Au 9.8862 11.3532 25.0292
Au 26.9415 12.3213 14.6239
Pt 18.2894 16.57 24.2749
Au 4.45069 11.4068 17.8971
Pt 16.2191 11.2056 12.3452
Au 11.2466 4.66073 17.3063
Pt 6.52643 12.4223 11.6535
Au 25.3887 9.3934 11.6219
Pt 23.404 14.0403 17.4724
Au 7.5474 12.2238 22.7337
Pt 18.9247 10.1298 12.5617
Au 16.505 11.6266 24.3915
Pt 13.9221 22.8612 20.165
Au 12.6203 22.9169 6.57169
Pt 16.6062 15.8361 16.5359
Au 18.5737 23.5356 22.8214
Pt 10.0432 16.1206 19.7587
Au 11.6448 7.58737 8.35215
Pt 23.4087 19.6923 19.0525
Au 11.278 6.7525 5.90735
Pt 18.7406 20.2871 9.89817
Pt 18.5254 18.1711 17.7634
Au 7.17741 19.4068 21.869
Au 7.20567 18.7482 9.00329
Pt 6.06883 15.2691 16.5643
Au 13.9111 3.74877 17.6651
Pt 22.001 18.5442 20.8128
Au 18.7389 17.2841 26.9161
Pt 18.8108 11.1743 10.0733
Au 6.34639 21.2055 9.69733
Pt 22.5771 17.6932 9.65601
Au 7.26857 22.9675 18.9175
Pt 16.5921 7.83109 15.693
Au 5.95231 13.3975 8.39537
Pt 12.4121 10.1672 18.241
Au 22.9245 11.6113 21.1045
Pt 18.6227 20.6352 16.0342
Au 18.3566 5.0073 18.8563
Pt 17.7219 18.317 15.3002
Au 12.6526 9.0296 4.99977
Pt 22.3263 14.4762 9.12654
Au 3.88958 19.1111 17.4298
Pt 22.6131 22.1362 14.443
Pt 18.9925 22.7013 17.8723
Au 4.38974 20.8726 15.2324
Au 8.40188 12.0544 8.63021
Pt 16.0203 24.0487 12.3152
Au 21.5966 16.6358 7.12677
Pt 12.3304 13.5466 15.027
Au 24.749 12.1942 18.9063
Pt 13.3365 23.6912 12.1238
Au 15.2315 26.7109 13.4199
Pt 12.2881 5.98373 14.5118
Au 8.58306 21.9306 21.2114
Pt 18.0866 11.1597 22.3191
Au 6.21457 16.1713 8.60128
Pt 11.6594 22.3264 10.5353
Au 8.0184 15.2324 24.0763
Pt 21.1059 19.6753 10.9617
Au 11.3559 9.17392 23.0005
Pt 10.978 9.01055 20.1232
Au 5.00142 19.0677 19.9748
Pt 15.6269 16.5844 23.5369
Au 6.47309 16.7561 22.4578
Pt 11.6926 16.7045 9.30921
Au 26.5085 20.0753 15.4333
Pt 21.1642 8.78347 13.3184
Au 21.4341 24.5947 11.0051
Au 23.7994 7.81538 13.3148
Pt 14.5912 14.7224 5.92377
Au 20.3913 21.7386 23.6824
Pt 21.0259 15.6789 14.2352
Au 15.519 24.8087 15.3066
Pt 14.6188 8.95088 17.045
Au 24.3814 19.969 9.84841
Pt 23.6832 13.1311 11.2057
Au 10.5806 19.4332 24.9636
Pt 11.8929 20.1429 18.496
Au 12.1335 12.4272 26.3707
Pt 11.9654 14.5024 24.442
Au 17.214 27.0305 18.9489
Pt 13.9141 16.0493 21.4424
Pt 12.7033 14.0382 10.1888
Pt 14.041 7.11435 9.6856
Pt 19.048 15.6446 21.7446
Au 25.8948 9.53092 14.2725
Pt 16.4823 5.97653 13.5392
Au 5.17187 14.7234 10.7277
Pt 13.7724 16.7145 7.50035
Au 15.4948 25.294 20.0709
Pt 23.8751 15.7724 10.9759
Au 25.6232 17.9635 19.491
Pt 16.1045 17.1775 9.03436
Au 13.3958 24.0869 8.95256
Pt 16.5367 15.8617 21.2357
Pt 15.836 18.3831 17.3315
Pt 8.09887 14.4725 12.7136
Au 9.8445 18.7147 8.24472
Pt 13.2408 12.2923 5.99073
Au 9.30796 7.70115 21.6861
Pt 12.5011 19.7136 23.0506
Au 26.7585 15.3194 14.7763
Pt 15.1363 5.15074 15.5578
Au 11.9665 15.1295 27.0843
Pt 13.5934 21.1387 8.55451
Au 20.0808 4.77632 14.6697
Pt 9.88217 13.4647 23.1722
Au 21.2452 6.33353 12.3117
Pt 9.20734 20.8188 10.0808
Au 26.0803 14.0102 12.5009
Pt 17.2364 6.95551 20.3695
Au 20.8615 15.015 23.8521
Pt 14.6283 15.0749 14.8385
Au 20.8669 12.4716 5.21356
Pt 9.37771 13.7042 17.9312
Pt 13.768 18.5546 9.63968
Pt 15.8063 12.5999 15.9766
Au 23.2224 9.93922 18.3798
Au 26.3007 16.7072 12.1768
Pt 17.7727 18.2299 22.1634
Au 10.7207 5.07525 8.25073
Pt 13.4638 20.3108 20.6779
Au 19.7701 26.9 14.9277
Pt 18.1072 15.748 19.0482
Au 16.4231 6.74287 23.3872
Pt 9.33116 17.2459 22.2321
Au 5.83449 10.5409 15.7957
Pt 19.0649 23.7028 12.3909
Au 8.83242 24.1755 16.9946
Pt 17.7279 13.3881 20.8593
Au 18.9224 6.94446 6.99738
Pt 6.52857 19.7755 16.3493
Au 9.75328 13.9599 25.8513
Pt 20.6421 11.1954 14.4701
Au 15.2811 8.5296 4.32625
Pt 14.5775 13.6807 20.0489
Au 8.18836 20.9227 23.8779
Pt 8.64015 21.4861 15.9506
Au 11.5534 25.2021 10.5809
Pt 7.75732 14.3053 10.0933
Au 12.4349 23.9366 24.4522
Au 7.74118 8.46906 16.0773
Pt 10.5316 16.1615 7.06807
Au 25.514 17.5607 9.70953
Pt 18.0268 13.0096 11.7229
Au 21.8635 21.98 19.0131
Pt 13.7596 12.2008 8.51621
Au 14.579 19.0612 27.5092
Pt 11.2431 15.5579 22.1008
Au 5.99774 10.873 9.32396
Pt 17.5456 14.4965 6.06863
Au 20.337 9.4652 18.4954
Pt 19.4403 15.9497 16.7365
Au 13.3838 26.7193 15.5409
Au 13.6135 18.4845 5.06586
Pt 8.21108 10.2857 10.7998
Au 7.18942 8.15565 9.48135
Au 15.8544 13.7035 3.82679
Pt 14.9629 10.1889 6.3744
Au 21.0622 12.1644 23.1987
Pt 17.8577 13.2313 8.37358
Au 5.04494 21.3831 18.1683
