561
Atoms. Timestep: 21004
Pt 19.634 8.59089 16.1462
Au 14.8302 4.39614 12.1215
Pt 23.6761 21.2441 14.1054
Au 23.3391 6.31152 14.5511
Pt 14.96 16.4291 21.4346
Pt 18.6163 14.5969 7.49474
Au 11.7821 24.8215 20.0427
Pt 7.75058 15.8709 16.1036
Au 17.9417 15.0049 4.87742
Pt 7.81713 10.6981 14.9978
Au 13.7018 25.9197 15.5414
Pt 7.63063 14.4905 13.6076
Au 10.9222 12.5661 4.98978
Pt 15.6715 24.1201 16.5343
Pt 8.92919 16.1994 11.059
Au 23.5352 8.3671 12.7785
Au 15.4495 8.50959 23.8244
Pt 7.07217 19.0885 12.8205
Au 12.8276 8.10267 22.69
Pt 10.43 22.7186 15.9719
Au 16.2012 15.844 26.2593
Pt 7.18809 7.68644 14.3691
Au 14.914 26.1461 18.0257
Pt 8.69317 20.7995 11.7733
Au 9.14372 9.10883 13.0115
Pt 23.8708 19.1036 18.6348
Au 7.73176 10.0909 20.4132
Au 24.6455 18.5526 7.49144
Pt 19.2651 19.5386 13.4115
Au 16.8167 26.2417 20.1704
Pt 17.2457 21.1917 19.8883
Au 18.5804 22.0044 5.76808
Pt 9.90193 19.4557 13.8549
Au 10.0175 4.18671 10.9967
Au 17.1765 3.48067 15.9677
Pt 18.2756 23.0425 17.4375
Pt 11.0244 10.746 8.94148
Pt 22.366 12.5969 11.7772
Pt 17.1099 13.8356 16.6361
Pt 15.4836 17.6935 14.2449
Pt 23.3604 16.0754 14.9282
Pt 9.9859 11.6183 19.6925
Au 22.6661 4.34155 16.3559
Pt 18.2634 17.1595 6.66182
Au 3.08655 11.0148 15.3487
Pt 19.1563 14.0845 20.914
Au 19.0182 24.7043 19.6001
Pt 15.8758 7.69898 14.8234
Au 9.35175 13.0306 24.3761
Pt 20.7214 14.5269 11.207
Au 13.4937 11.9536 5.55718
Pt 16.4163 22.0634 14.6942
Au 24.5256 20.49 20.9911
Pt 16.3654 18.7953 20.7354
Au 24.6995 24.1866 11.4737
Pt 18.3912 14.0046 23.4964
Pt 9.60545 6.62905 12.0781
Pt 12.6296 10.7894 18.7291
Au 6.49719 22.8404 18.6324
Au 7.37495 5.16084 10.6187
Pt 22.0849 19.0612 20.6062
Au 11.5082 10.2504 6.38326
Pt 9.71107 12.533 14.448
Au 20.1676 7.53186 22.5894
Pt 13.4985 19.1299 12.9982
Au 17.3646 6.96132 22.3606
Pt 17.184 12.9465 19.1888
Au 19.5211 18.5814 8.66484
Pt 13.5709 22.5975 16.0508
Au 9.80204 17.4472 8.49139
Pt 23.3597 14.8399 10.4325
Au 22.7092 16.1725 5.51483
Pt 18.3699 15.2801 18.6545
Au 18.3624 27.2757 11.7005
Pt 7.39624 14.1253 10.8209
Au 27.2937 17.1394 17.0081
Pt 12.5727 18.0286 22.4085
Au 10.5783 23.5435 22.3442
Pt 11.1303 6.5697 17.207
Pt 20.9953 6.36187 15.9149
Au 16.036 2.63768 13.6681
Au 3.63005 16.1074 11.1702
Pt 8.13181 13.6229 18.7454
Au 5.42106 9.36554 18.9816
Pt 13.7209 6.78068 18.8421
Au 11.8626 17.0881 25.1096
Pt 16.2663 9.39028 21.4764
Au 3.38111 13.1465 11.1071
Pt 14.8148 12.655 10.1477
Au 4.36445 18.4365 12.4495
Pt 9.96613 14.0166 16.7882
Au 8.02507 24.0575 16.5654
Pt 12.5157 15.2916 21.5372
Au 26.1253 11.4218 15.5426
Pt 18.1005 18.5826 23.0089
Au 24.7316 17.8483 21.185
Pt 19.0208 10.4273 14.3522
Au 11.8041 14.4743 24.0894
Pt 16.9071 16.2404 23.5878
Au 10.4184 3.44756 13.8988
Pt 19.1367 7.0133 11.5511
Au 26.1779 21.8532 10.5045
Au 21.8183 25.5537 14.4304
Pt 19.0987 21.6934 15.0936
Au 6.51592 11.0139 8.48224
Pt 8.37127 6.72528 17.1373
Au 24.542 12.7151 22.3842
Pt 20.9069 7.94074 13.6142
Au 18.5819 25.544 22.2251
Pt 23.2965 12.8638 19.9446
Au 11.9499 6.12724 20.935
Pt 19.7503 16.1944 22.9054
Au 15.9275 10.8164 6.52499
Pt 14.0033 9.07525 20.2566
Au 17.084 18.4014 25.5403
Pt 14.4293 25.0146 20.3446
Au 5.75086 5.60625 12.9082
Pt 12.1831 13.5174 15.2125
Au 21.093 9.79892 23.7514
Au 11.1049 7.82302 7.63172
Pt 22.3577 17.9915 16.6221
Au 8.83739 9.39902 7.85619
Au 3.51601 18.635 18.0556
Pt 20.6427 18.8205 22.7786
Au 5.98874 16.8268 21.6079
Pt 19.9167 23.4007 10.855
Au 12.2478 23.9805 14.1335
Pt 20.8182 10.9879 16.2062
Au 18.7397 3.08546 13.5771
Pt 5.80381 12.0327 10.998
Au 18.3144 11.6447 24.9485
Au 4.64254 6.79074 15.1478
Pt 23.9687 14.7176 18.1281
Pt 21.6794 14.0343 21.8887
Pt 20.9766 9.35714 20.6615
Pt 16.5622 12.8991 8.14054
Pt 16.2376 7.67231 19.3433
Pt 13.9075 15.6468 14.5853
Pt 14.6566 14.0879 19.7204
Pt 18.2941 6.09385 16.0052
Pt 21.3872 20.0925 15.0242
Pt 19.8183 23.7957 13.5061
Pt 20.7737 19.3719 10.9589
Au 7.76148 15.0301 23.152
Au 17.8699 6.29941 9.24652
Pt 22.2317 23.7461 12.379
Au 12.0836 25.7477 10.3184
Pt 7.82376 9.93533 10.5157
Au 11.3559 4.18827 18.7961
Pt 11.5378 17.0963 13.2526
Au 12.7922 19.7026 24.6573
Pt 14.7152 14.7821 17.0343
Au 8.44683 21.2577 22.6033
Pt 14.6923 8.96748 11.5656
Au 12.6642 14.663 5.35519
Pt 16.0031 5.96316 17.3177
Au 20.1428 4.12679 11.4502
Pt 12.054 5.15075 15.1587
Au 20.6308 6.03001 9.63213
Pt 12.8873 8.69902 9.40756
Au 13.9019 4.35915 20.1203
Pt 11.5656 21.9695 18.2751
Au 14.5021 20.7147 5.91658
Pt 17.263 11.7178 11.0688
Pt 22.8983 16.7971 19.3011
Au 18.3289 9.52341 23.2369
Au 16.587 5.17069 20.1872
Pt 22.4851 11.1094 21.7269
Au 5.87374 11.9443 19.4325
Pt 13.9339 18.2252 19.7175
Au 22.953 8.53967 22.2989
Pt 14.6413 20.0443 15.3341
Au 20.5782 14.2776 5.66727
Pt 10.1822 18.4459 11.4617
Au 26.0552 15.0417 11.2633
Pt 10.0749 20.0143 9.35657
Au 5.86317 14.3996 20.6382
Pt 21.7289 21.6549 9.80143
Au 24.9564 8.85965 14.947
Pt 18.8637 7.12571 18.3405
Au 21.4856 24.0802 18.9053
Pt 14.8837 24.8164 11.1582
Au 12.2583 18.8367 7.72176
Pt 10.077 8.70321 10.2659
Au 3.72172 10.7377 12.6036
Pt 10.4977 11.3785 16.9514
Pt 21.3706 8.05357 18.2485
Au 18.2834 12.3875 5.99118
Au 13.2895 2.22366 18.4893
Pt 11.9075 5.3752 12.5429
Au 19.9729 3.81311 16.0193
Pt 10.2017 15.1035 14.2996
Au 14.1545 15.9529 23.944
Pt 13.0282 10.8282 10.8404
Au 6.26602 19.5261 21.9347
Pt 19.6181 13.0711 17.789
Au 21.8101 23.2952 7.62216
Pt 15.5704 10.2835 9.23636
Au 15.2641 15.8819 4.46818
Pt 22.1542 18.9086 8.60443
Au 18.1054 20.9444 24.8431
Pt 11.6656 10.1215 21.2401
Au 12.7786 4.11448 10.2116
Pt 18.0948 18.9947 11.0564
Au 20.2089 24.6918 16.4411
Pt 22.3705 8.68007 15.7713
Au 11.0544 13.7859 26.4977
Pt 13.6183 17.0292 6.18832
Pt 12.6654 22.4734 20.8634
Au 15.5174 4.88205 9.53166
Au 19.0497 26.4222 14.2426
Pt 21.0821 21.3969 12.6404
Au 18.9647 16.3239 25.4896
Pt 18.5662 8.50268 20.5069
Au 14.0633 8.80889 7.02059
Pt 17.7047 23.1929 21.5232
Au 10.2911 24.8812 12.2186
Pt 20.7445 16.6054 7.30966
Au 26.4102 18.8735 19.1736
Pt 14.5691 9.2328 17.5418
Au 24.9355 16.9614 12.9004
Pt 18.5366 20.4733 17.6928
Au 23.5342 6.74066 17.3361
Pt 16.5838 20.8699 10.0444
Au 24.8122 9.28366 17.5469
Pt 12.4374 18.3767 15.3017
Au 5.11564 14.6071 9.56163
Pt 15.9497 13.824 24.4142
Au 13.1176 3.00701 13.7336
Pt 16.5521 14.2235 21.5202
Au 25.5279 19.7146 12.3035
Au 5.19099 17.8838 9.66302
Pt 17.5834 4.68484 11.4791
Au 26.8038 18.2651 14.4021
Pt 24.0413 20.1549 9.77616
Au 23.4651 10.3237 10.8626
Pt 11.3997 20.9999 22.7488
Au 20.5577 23.6661 21.6568
Pt 19.7621 12.3402 12.487
Au 13.5529 4.60195 17.3426
Pt 17.781 16.596 21.0685
Au 21.0541 5.25473 18.3817
Pt 5.85831 18.5452 19.3671
Au 25.9808 13.4291 19.9688
Pt 21.6228 14.9573 16.3705
Au 7.96537 23.9819 13.8915
Pt 21.4363 16.851 9.97273
Au 16.6558 26.3139 9.79492
Au 7.24614 16.3121 8.77343
Pt 17.2291 19.5862 15.4798
Pt 16.622 11.8183 22.7186
Pt 19.6581 17.0403 12.0033
Pt 12.556 12.0576 13.1299
Pt 11.9883 8.47614 12.0389
Pt 4.76099 8.05177 12.6841
Pt 22.8002 19.0999 12.5253
Pt 23.9694 14.2788 13.0589
Pt 11.6129 13.0319 7.55502
Pt 9.4333 6.1456 14.7012
Pt 18.3528 11.2026 20.8508
Pt 19.1009 15.6231 15.9742
Pt 7.25766 7.62728 11.5847
Au 11.9875 23.8182 8.43866
Au 26.5265 19.2041 9.61564
Pt 11.9839 20.9444 14.6933
Au 9.61946 24.7174 9.45859
Pt 12.9729 15.875 18.9496
Au 9.79858 14.6573 6.28915
Pt 18.1197 14.4095 12.1032
Au 10.9287 11.2406 25.6694
Pt 7.80905 18.5984 10.3602
Au 9.64109 23.9868 18.6682
Pt 5.24895 14.3798 12.4983
Au 15.8988 26.8787 12.6792
Pt 23.3347 16.2705 8.13509
Au 15.9173 25.2319 22.5665
Pt 13.9253 6.7957 13.4288
Au 8.16832 23.5108 20.8781
Pt 13.8955 23.2628 18.5456
Au 11.8017 2.67924 16.2604
Pt 10.0514 21.752 20.4056
Au 16.1733 22.8901 5.18926
Pt 19.6783 5.57297 13.7043
Pt 15.9757 22.6186 12.0025
Au 14.1271 13.3647 22.6251
Au 7.94128 17.8431 23.3123
Pt 7.97342 11.112 17.7936
Au 14.2565 27.3618 10.5777
Pt 24.0293 17.6453 10.4692
Au 8.12368 4.44105 13.0908
Pt 10.1079 22.4317 13.2977
Au 14.7591 6.68321 21.5485
Pt 16.355 6.95855 11.8902
Au 21.7551 10.4429 13.4042
Pt 7.61148 20.5876 19.8696
Au 6.91573 5.17571 15.5091
Pt 9.38508 9.00181 18.4303
Au 14.7094 18.5284 4.0622
Pt 13.5113 11.2984 8.1501
Au 21.7221 17.008 24.6954
Pt 16.7996 9.68644 12.968
Au 13.1341 26.1566 12.8044
Pt 20.5232 16.7818 17.8915
Au 25.1181 14.1168 8.59003
Pt 19.8553 21.8912 19.7291
Pt 18.2348 17.9341 18.635
Au 18.1246 13.9026 26.2594
Au 10.8644 17.1089 5.84174
Pt 21.3453 14.6181 19.2331
Au 21.5613 8.39529 10.839
Pt 13.2594 20.1641 17.5128
Au 20.0106 12.0086 22.7912
Pt 15.0403 11.6271 20.3872
Au 9.88814 19.7087 6.63295
Pt 12.1243 19.8982 20.2693
Au 19.8305 18.882 25.338
Pt 11.6289 8.25766 19.343
Au 22.6602 21.6753 19.3253
Pt 10.7537 14.2604 19.4257
Au 7.53761 19.0716 7.86578
Pt 17.0174 5.32576 13.8709
Au 24.4587 11.2585 13.3244
Pt 12.4137 21.2693 9.16618
Au 6.41233 21.9437 12.9175
Pt 15.7698 10.5085 15.3226
Au 21.7872 6.64164 20.6098
Pt 15.3452 18.5598 10.8551
Pt 19.3771 13.0877 15.1419
Au 25.976 22.3389 13.1558
Au 10.0778 25.2271 15.095
Pt 8.22223 21.3635 14.9688
Au 25.5146 22.187 15.8476
Pt 16.4543 22.0738 7.69386
Au 25.7975 21.0976 7.90092
Pt 14.9913 11.4864 12.6133
Au 3.4959 18.3743 15.3181
Pt 20.4015 15.017 13.7494
Au 15.5801 13.2083 26.9108
Pt 18.8929 16.0298 9.67545
Au 8.89978 6.61634 9.0137
Pt 16.0988 15.6458 7.09267
Au 3.10116 13.2976 13.8252
Pt 21.7731 22.8219 14.9571
Au 7.68254 21.4219 9.31477
Pt 12.4879 12.6213 20.6195
Au 24.1241 22.9578 9.05763
Pt 16.7177 15.0827 14.3872
Au 5.64541 6.69222 17.629
Pt 10.475 11.0717 11.7267
Pt 13.9599 21.963 13.4381
Au 20.6752 25.9585 11.9499
Au 15.8005 3.30869 18.3375
Pt 11.1193 10.3408 14.4202
Au 23.7354 8.224 19.7559
Pt 14.6151 22.8793 9.40118
Au 16.3622 26.5905 15.3002
Pt 17.1204 8.58265 16.8785
Au 19.513 10.1136 18.4612
Pt 5.66113 12.196 14.0434
Au 22.1172 24.6821 9.88619
Pt 16.5846 20.746 22.5496
Au 7.21222 13.6384 8.02826
Pt 9.93048 19.5284 19.0445
Au 20.7548 11.0763 10.013
Pt 15.3021 18.3872 23.3129
Au 22.4505 12.293 24.0982
Pt 14.1232 13.9663 7.62088
Au 2.76638 8.59049 14.3099
Pt 22.2874 12.7483 17.4569
Au 22.0064 21.3812 21.9796
Pt 9.92049 13.847 11.9247
Pt 5.51057 11.4072 16.7229
Pt 6.38617 16.5751 11.6376
Pt 14.3535 17.0813 8.76851
Pt 10.3111 13.6316 21.9414
Pt 16.2924 19.9795 12.9225
Pt 16.4284 23.7053 19.2072
Pt 6.96563 16.1312 18.7693
Pt 14.7427 19.8715 8.45644
Au 6.01964 22.1229 21.3698
Pt 11.596 20.6736 11.9538
Au 14.1211 23.36 6.78833
Pt 15.4125 7.58927 9.19797
Au 22.0052 18.721 5.95816
Pt 19.5087 18.5367 16.1896
Au 25.9569 19.5847 16.6091
Pt 19.2155 21.1463 22.2813
Au 10.1366 19.0824 24.3589
Pt 18.9437 13.1956 9.71831
Au 12.0195 15.7515 7.94537
Pt 12.6327 18.6392 10.3758
Au 3.38065 16.0317 16.7323
Pt 8.19182 17.9129 20.452
Au 9.71216 8.23381 21.3034
Pt 22.5309 10.4298 18.605
Au 9.72816 22.3161 7.83352
Pt 5.65888 17.5187 16.8113
Pt 21.0061 19.5431 18.3039
Pt 5.2649 9.52894 14.8679
Au 5.0366 6.6492 10.4479
Au 23.3715 23.4544 17.0354
Pt 9.62669 16.2542 18.2108
Au 20.1333 16.7977 4.65042
Pt 12.5927 13.2906 17.8473
Au 19.2712 25.6529 9.59728
Pt 24.7302 17.0166 17.0504
Au 9.62596 6.13534 19.4562
Pt 24.1075 18.7383 14.8367
Au 5.94255 22.5776 15.7738
Pt 22.0105 12.9666 14.4621
Au 20.6133 12.1438 7.44085
Pt 19.3886 9.74112 11.8755
Au 20.7619 14.3 24.7174
Pt 17.7821 24.2242 14.9938
Au 16.6517 24.6943 7.46448
Pt 11.0009 17.1537 20.3005
Au 23.2494 21.0004 7.16838
Pt 15.8308 18.2865 6.46223
Au 13.3311 6.15799 8.15937
Pt 11.8846 9.06379 16.7782
Pt 22.3172 16.7305 22.0789
Au 6.6515 8.08136 8.84985
Au 5.34695 20.1079 14.617
Pt 11.493 16.1749 10.6088
Au 9.14258 11.9506 6.93936
Pt 16.9052 17.6924 8.94083
Au 25.0665 12.5828 10.9676
Pt 15.2173 24.4147 13.8457
Au 16.4242 14.9749 9.79914
Pt 7.69761 18.8115 15.3314
Au 4.68696 20.8904 19.3956
Pt 18.3598 21.7646 12.2721
Au 10.2506 16.4871 22.8031
Pt 14.6532 20.9285 19.6597
Au 26.1823 15.618 14.9331
Pt 13.9883 20.3008 22.1476
Au 9.49497 15.6572 25.2145
Pt 7.5048 13.173 16.0436
Au 14.4098 17.8954 25.9186
Pt 16.7539 10.2364 18.9268
Au 18.3036 10.8394 8.42738
Pt 18.167 17.2935 14.1371
Pt 20.815 21.9755 17.1997
Au 14.2548 25.5145 8.55113
Au 19.3651 19.323 5.29605
Pt 14.862 13.0824 14.8878
Au 13.118 24.6492 22.5717
Pt 15.1267 22.7815 21.5864
Au 26.3546 13.262 13.5272
Pt 16.8417 16.8597 16.5157
Au 5.26169 14.6271 15.2449
Pt 22.3718 16.3625 12.3922
Au 25.0313 11.9827 17.932
Pt 9.91668 19.1761 21.7472
Au 23.3462 14.9046 23.8179
Pt 15.9288 21.6275 17.3355
Au 24.1669 24.0586 14.2965
Pt 20.7241 12.0537 19.9872
Au 17.7274 25.7971 17.4691
Pt 11.3326 6.41209 10.0278
Au 16.316 23.0236 24.0812
Pt 15.2699 14.1852 12.3248
Au 18.3982 4.41952 18.2687
Pt 5.91279 16.9966 14.2147
Au 25.9936 16.6146 8.99944
Pt 23.6423 21.7567 11.6344
Au 25.2718 21.4844 18.4938
Au 7.79242 12.7617 21.4051
Pt 23.2528 20.72 16.7172
Au 10.7518 9.21722 23.8577
Pt 17.2897 23.5545 9.89132
Au 20.5208 20.864 7.2914
Pt 14.0997 10.6079 22.6294
Au 23.2244 19.1261 23.2078
Pt 10.3613 22.4665 10.486
Au 9.57364 4.28008 16.6065
Pt 14.1297 20.8805 11.0707
Au 14.5627 2.29687 16.0313
Pt 9.95783 17.3721 15.7854
Au 7.33831 7.53353 19.5914
Pt 13.7201 14.9502 10.0951
Pt 11.8362 13.1147 10.239
Pt 19.0783 21.216 9.59148
Pt 13.6668 9.38626 14.136
Au 15.3486 20.5519 25.0317
Pt 12.6692 23.2922 11.4236
Au 3.84066 8.80587 16.931
Pt 14.0166 16.6732 12.0705
Au 15.6712 11.0105 25.0945
Pt 24.3567 13.612 15.6708
Au 19.2327 5.75021 20.6405
Pt 6.45725 9.994 12.6858
Au 3.2935 13.2818 16.6116
Pt 21.2109 14.4228 8.64135
Pt 10.3351 19.9558 16.4697
Pt 11.8488 11.8368 23.2576
Au 17.393 17.6147 4.1469
Pt 18.2791 7.83859 13.9278
Au 13.5154 15.0984 26.4237
Pt 8.68786 15.4037 20.7306
Au 23.0219 12.3531 9.03202
Pt 13.6678 7.15509 16.1543
Au 11.9643 24.7006 17.2119
Pt 17.6579 19.9044 7.40826
Au 15.7498 13.4068 5.45696
Pt 12.0069 15.7995 16.4569
Au 21.7073 3.96424 13.8704
Pt 6.87805 8.88868 16.8492
Au 23.0634 13.844 6.76724
Pt 15.1463 12.0782 17.6357
Au 9.34893 10.9354 22.4938
Pt 17.6735 24.7431 12.2408
Au 19.1519 23.4584 7.94749
Pt 19.2484 19.3086 20.5034
Pt 21.0723 17.5433 14.299
Pt 8.70813 21.5942 17.7016
Au 12.2953 19.2463 5.03973
Au 13.5136 22.367 23.8822
Pt 8.03538 12.0144 12.4811
Au 8.88129 12.1542 9.68512
Pt 11.7285 18.041 17.9091
Au 16.8351 20.2428 4.65258
Pt 14.2659 17.4481 16.8829
Au 11.9818 21.5462 6.53698
Pt 8.12152 18.3581 17.7719
Au 7.97276 23.4508 11.2168
Pt 8.58974 17.0092 13.4827
Au 22.0437 5.98255 12.0615
Pt 15.9131 16.3791 18.9647
Au 5.71785 20.3004 10.8184
Pt 17.8554 11.2777 16.6608
Au 20.8714 21.1664 24.3758
Pt 9.40008 8.77452 15.7992
Au 17.1602 8.52608 7.51883
Pt 12.4316 14.5705 12.6194
Au 3.92807 20.9295 16.7707
Pt 6.42103 20.2774 17.2497
Au 27.0962 17.5125 11.5372
Pt 14.8087 4.8431 15.0189
Au 3.32656 16.0731 13.8491
Au 24.2482 15.1342 21.1642
Pt 23.4523 11.0225 15.8161
Au 24.799 10.6394 20.3934
Pt 16.7948 16.6715 11.9287
Au 9.68448 14.615 8.97738
Pt 15.9768 19.1356 17.9823
Au 5.46156 14.1424 17.8757
Pt 17.416 8.93377 10.4187
Au 26.0406 16.1802 19.3117
Pt 17.2288 12.4022 13.8104
Au 19.6367 8.49348 8.94096
Pt 13.7665 6.5414 10.8874
Au 19.063 23.3529 23.9083
Au 13.4056 12.5484 25.4016
Pt 20.3125 16.8163 20.4336
Au 4.91869 9.4989 10.3611
Au 26.5244 14.3119 17.2742
Pt 11.4802 7.64856 14.4295
Au 13.1647 9.78255 24.9866
Pt 13.2185 11.2385 16.0297
Au 4.2916 16.313 19.3133
