561
Atoms. Timestep: 20578
Pt 10.3772 6.5267 16.8309
Au 3.94165 12.9039 10.9467
Pt 9.24124 9.82399 13.4331
Au 10.738 4.06999 11.4157
Pt 9.35709 13.7877 10.6118
Pt 8.33001 12.4583 19.738
Au 6.39286 15.326 6.46424
Pt 6.23041 14.3551 10.5669
Au 3.75203 13.6305 19.3679
Pt 9.1419 8.94027 15.9738
Au 6.85998 23.3936 10.3479
Pt 6.67779 10.498 14.1805
Au 12.6174 3.2757 13.213
Pt 8.72976 15.466 14.9764
Pt 5.85189 11.8834 19.1171
Au 5.20122 10.8084 9.72912
Au 3.87935 15.8314 10.5186
Pt 8.29925 17.6503 21.3476
Au 8.32106 13.3513 5.84092
Pt 6.11324 16.6136 14.408
Au 6.15209 22.2381 12.7592
Pt 8.5101 17.2661 12.8471
Au 9.16303 15.7092 25.7364
Pt 9.97538 18.6034 22.9828
Au 7.40179 17.2976 23.9775
Pt 7.98039 13.365 22.0375
Au 11.7678 25.5104 9.86304
Au 18.0449 24.9603 19.7408
Pt 7.80857 20.6227 16.8416
Au 3.68122 17.6074 16.0335
Pt 8.32892 21.4846 14.1121
Au 7.07043 23.8463 20.0757
Pt 6.83468 19.5112 12.319
Au 4.83469 19.1031 14.0615
Au 7.11991 14.4267 24.3592
Pt 10.7174 16.273 9.51424
Pt 12.479 7.04801 18.3253
Pt 11.4055 8.85595 11.8929
Pt 10.5383 11.1164 19.6267
Pt 14.4535 5.10207 13.7035
Pt 9.51855 10.8181 10.8899
Pt 5.06609 13.3868 17.0235
Au 6.55113 18.1867 6.80603
Pt 7.8567 14.2672 8.40429
Au 4.3725 12.1903 14.5283
Pt 10.2364 13.207 17.8708
Au 8.21411 6.25031 15.3963
Pt 12.4734 13.3349 6.46228
Au 16.0499 2.78136 14.3847
Pt 10.983 10.9544 16.8457
Au 8.61548 8.9015 20.5172
Pt 10.4109 7.56214 14.2018
Au 12.9919 5.20518 20.2353
Pt 11.9505 6.03282 12.8875
Au 19.7996 6.6944 22.1925
Pt 11.65 10.7832 23.4033
Pt 13.5468 15.5763 23.7689
Pt 8.64317 16.9968 7.92818
Au 13.2712 13.4769 3.87229
Au 7.2525 7.88204 13.4885
Pt 4.89769 14.5546 12.9261
Au 5.21344 13.4098 8.35263
Pt 6.02926 16.3243 8.87228
Au 3.89882 14.9894 15.3468
Pt 8.74024 12.3895 12.9653
Au 11.5686 17.5502 12.0094
Pt 8.98926 8.08216 11.3498
Au 3.53561 16.8127 13.2617
Pt 8.70238 17.9767 16.8261
Au 8.11508 7.3737 18.1235
Pt 7.72722 13.2811 17.2984
Au 6.49836 8.45775 16.1469
Pt 12.0138 8.58673 16.2105
Au 14.9658 5.92047 22.1157
Pt 12.7089 11.7497 21.3146
Au 11.9495 4.46309 17.681
Pt 13.7332 7.83685 20.4911
Au 17.529 5.09044 21.3074
Pt 14.7144 8.36689 17.9093
Pt 7.622 18.9385 14.6897
Au 4.14514 18.6616 11.3379
Au 16.0453 14.4593 10.4153
Pt 7.62401 14.7762 12.6958
Au 16.0685 25.254 7.70473
Pt 6.85447 18.6268 9.81742
Au 13.5574 17.2974 14.1207
Pt 6.72652 13.4697 14.8303
Au 18.2216 14.8703 14.7136
Pt 9.47088 18.6268 10.3556
Au 15.1117 16.7467 11.7793
Pt 6.69028 15.6447 16.677
Au 13.077 18.003 9.68224
Pt 6.0302 16.8872 11.7699
Au 4.41013 18.3022 18.9459
Pt 6.07632 18.3677 16.7761
Au 6.75412 10.8085 21.4003
Pt 6.21731 12.376 12.3403
Au 8.87274 6.59922 9.16431
Pt 11.7411 14.4652 25.5118
Au 13.9706 13.0856 26.588
Pt 10.3005 13.1461 23.5955
Au 4.48692 18.5175 8.6809
Au 17.807 25.7741 9.74449
Pt 12.7701 15.5517 7.93307
Au 8.16405 22.6023 8.07149
Pt 9.40419 22.6136 16.4001
Au 6.06347 20.7432 8.04731
Pt 4.50532 15.8732 17.9271
Au 12.3751 24.712 20.6528
Pt 10.9705 23.7174 18.1914
Au 10.2795 21.3172 6.49648
Pt 9.26147 15.5671 17.492
Au 12.1914 19.7337 13.7715
Pt 13.7652 22.1212 14.8395
Au 5.31362 13.2522 21.6274
Pt 11.2439 21.9581 20.1955
Au 6.51043 21.2232 20.659
Pt 11.6284 20.6529 22.458
Au 5.31787 20.6764 18.1359
Au 9.33546 18.479 25.5714
Pt 14.0789 19.6711 21.1514
Au 9.67247 24.4495 20.419
Au 8.52879 24.8231 17.7128
Pt 7.52447 19.3415 19.1138
Au 6.53879 22.9795 17.5684
Pt 9.64935 19.5701 12.8086
Au 7.21353 23.7948 15.0668
Pt 9.26284 20.208 20.9229
Au 12.3184 22.031 24.8132
Pt 13.5838 22.3115 21.7285
Au 7.51385 19.9163 22.9931
Au 5.76654 18.4318 21.3232
Pt 11.5109 18.9697 20.3816
Pt 18.1501 7.39005 11.6752
Pt 15.8506 5.95584 10.5435
Pt 20.299 8.3362 13.0738
Pt 15.613 7.17854 12.8614
Pt 13.4362 4.85753 11.1469
Pt 22.2294 12.0012 15.436
Pt 12.7656 6.08421 15.5674
Pt 15.8096 9.56612 13.7404
Pt 13.8405 9.43201 22.673
Pt 8.25924 16.2086 10.4277
Au 11.8433 4.27215 8.98672
Au 10.6214 4.60507 14.8137
Pt 7.09937 9.94731 11.6363
Au 15.7046 3.4319 11.7431
Pt 12.7732 8.60471 8.81404
Au 18.8283 3.26119 13.6276
Pt 13.213 8.18454 13.8254
Au 7.03653 11.5024 7.38786
Pt 14.5884 10.6097 9.24022
Au 21.1634 4.40331 14.7336
Pt 16.7214 9.50917 16.2691
Au 12.3786 7.01429 22.7017
Pt 17.1704 5.21452 13.2489
Au 21.53 9.39556 22.2009
Pt 10.4244 8.71195 18.4841
Au 9.08636 5.77398 12.6642
Pt 11.6047 9.25778 21.082
Au 6.23527 9.26548 18.8869
Pt 18.7388 5.2848 15.6034
Au 9.56483 10.3658 24.9417
Pt 15.2775 11.7068 22.6433
Pt 14.9941 14.1917 6.00501
Au 18.1872 4.60825 10.8471
Au 5.22646 20.9799 10.5229
Pt 6.19105 11.0809 16.6181
Au 8.68548 16.1691 5.30948
Pt 10.2073 14.5543 7.34099
Au 4.5119 10.3937 12.3895
Pt 8.70053 11.5842 15.5398
Au 12.9251 14.5926 13.4154
Pt 15.0987 7.39728 15.4985
Au 14.3349 14.6481 18.1804
Pt 6.37997 14.4107 19.3625
Au 13.4049 17.0545 19.8169
Pt 11.2442 6.59212 10.3873
Au 14.0678 10.1975 15.8264
Pt 6.66439 15.6657 21.8208
Au 15.7036 2.95419 17.4292
Pt 10.6451 13.5112 20.9913
Au 13.6227 3.47323 15.7573
Pt 8.40319 10.4802 18.0276
Au 14.7112 7.57884 24.2715
Pt 14.0842 10.9289 24.8736
Pt 13.0923 15.8195 5.30234
Au 11.23 17.3464 4.03222
Au 15.253 15.5294 3.56585
Pt 13.7074 23.907 8.52427
Au 13.0439 12.8123 16.2921
Pt 15.706 16.789 6.04287
Au 11.3905 12.5149 12.2284
Pt 7.96311 21.0297 10.582
Au 11.9271 15.4222 16.1995
Pt 11.007 18.8956 8.14592
Au 15.9548 14.217 13.1437
Pt 8.83203 15.1678 20.1014
Au 17.1757 11.7256 14.3825
Pt 14.46 21.5113 9.98134
Au 10.377 15.189 12.6536
Pt 12.5906 12.7346 18.9463
Au 17.1555 13.6856 19.0044
Pt 9.19358 15.515 22.9504
Au 15.3762 20.4187 26.0639
Pt 11.1846 16.6184 24.1899
Au 10.6404 6.78231 20.4033
Pt 15.3578 21.4826 19.8811
Pt 11.9918 21.6736 16.7731
Au 9.8687 26.0086 12.0234
Au 17.5872 21.4363 6.0135
Pt 8.4623 19.7454 8.01849
Au 19.1439 19.0855 5.45903
Pt 9.57085 23.8565 10.1931
Au 5.73621 21.2964 15.3576
Pt 9.73711 24.6673 14.706
Au 20.395 25.0677 18.2844
Pt 10.9654 22.2237 14.2785
Au 13.0016 15.4047 10.7728
Pt 6.89343 16.8851 19.0653
Au 15.16 16.4089 8.68727
Pt 8.48674 23.7111 12.5951
Au 11.6827 17.9858 17.3805
Pt 14.018 20.3032 23.7138
Au 10.6004 13.3641 14.9224
Pt 9.71491 17.5703 19.2094
Au 4.37902 16.0243 20.5966
Pt 11.0179 16.3675 21.3743
Au 16.6743 24.0126 22.5545
Pt 21.964 16.749 21.3466
Au 15.7785 25.9349 18.2138
Au 13.7152 26.6951 16.0328
Pt 10.1378 21.8904 11.8699
Au 11.627 26.5586 14.2509
Pt 8.73994 22.1339 19.0448
Au 23.7596 12.6282 8.00006
Pt 15.2058 21.3782 17.0655
Au 10.7941 26.1775 16.8931
Pt 11.5958 24.2265 12.6216
Au 14.9532 22.7631 24.4354
Pt 13.4318 22.8446 18.816
Au 13.678 19.5023 15.989
Pt 13.0525 25.3747 18.2242
Au 13.9735 24.6499 22.8103
Pt 16.584 23.2424 18.269
Au 22.4496 23.9817 16.7697
Pt 16.931 19.0974 20.984
Au 23.846 18.6924 22.3662
Au 8.61526 22.4975 22.0377
Pt 17.7747 22.3805 20.6481
Pt 14.3342 13.4838 8.52352
Pt 12.0033 10.8442 10.1129
Pt 9.35923 9.99549 7.06344
Pt 19.2091 9.8366 15.0785
Pt 13.6317 6.15003 8.70009
Pt 20.9427 7.7364 20.0215
Pt 17.1489 7.02603 17.2637
Pt 19.1236 8.72443 17.5005
Pt 19.9016 11.5984 21.8971
Pt 18.3766 7.34257 19.9913
Pt 21.857 8.13728 17.5551
Pt 16.9293 14.6016 7.72081
Au 11.1356 6.64502 7.63684
Au 16.0761 19.4445 4.96923
Pt 7.44137 12.0735 9.96423
Au 16.0496 10.0649 4.82007
Pt 14.2441 9.07172 6.66407
Au 20.1932 6.30549 10.0306
Pt 19.8563 5.7875 12.9253
Au 22.4313 6.93255 11.3701
Pt 17.969 9.6936 9.74663
Au 15.2118 11.4894 17.9399
Pt 14.553 5.51894 17.6841
Au 26.6988 9.62219 14.0002
Pt 15.9514 8.96384 11.0403
Au 23.5028 7.9061 20.7317
Pt 17.6828 4.75342 18.3593
Au 24.6479 16.0702 22.054
Pt 16.2097 8.5459 21.5994
Au 15.4223 4.00955 19.8981
Pt 14.7568 10.3094 20.3209
Au 18.1415 2.82993 16.2885
Pt 14.0493 17.9157 24.7927
Pt 17.447 14.7417 4.98408
Au 15.8967 12.6688 3.8847
Au 11.7149 10.6295 14.2202
Pt 9.65623 12.082 8.38029
Au 11.7339 13.4122 9.35659
Pt 10.3035 8.92969 9.1387
Au 19.8387 16.7637 13.5875
Pt 13.9263 24.2491 11.2332
Au 13.9261 12.8371 11.1658
Pt 18.3013 9.95921 12.4565
Au 19.6009 12.5034 15.3751
Pt 20.7891 10.738 17.3583
Au 16.4285 13.3448 16.3457
Pt 20.3523 7.21093 15.4909
Au 16.4912 9.65451 24.1828
Pt 11.5244 15.3185 18.928
Au 18.9089 12.9848 26.0622
Pt 15.6281 14.7186 22.22
Au 16.5943 14.5783 26.7312
Pt 13.0527 14.6712 21.2889
Au 10.0114 8.44322 23.0422
Pt 11.8187 19.2884 24.9603
Pt 12.5911 20.9678 8.23322
Au 13.9779 18.0103 4.15527
Au 10.7485 14.5287 4.61509
Pt 11.022 16.9144 6.5699
Au 21.4386 22.4932 8.68668
Pt 19.0151 11.5118 7.84865
Au 15.6708 18.9295 9.64428
Pt 11.8837 20.0665 10.8332
Au 19.8048 16.8918 16.4348
Pt 13.5711 17.9944 7.0166
Au 16.5908 18.8599 16.4195
Pt 16.9168 9.29634 19.0339
Au 18.107 11.4167 17.5842
Pt 21.6588 14.5714 16.2476
Au 22.4351 11.7308 23.5745
Pt 12.798 9.97256 18.6217
Au 14.9715 13.031 20.3182
Pt 13.0379 20.2458 18.6955
Au 9.12504 12.9951 25.8879
Pt 9.4264 11.0449 22.0394
Au 7.47786 11.7151 23.9977
Pt 12.6327 18.0496 22.5952
Pt 17.2008 18.8603 7.35526
Au 9.36074 18.8268 5.6434
Au 17.495 17.2778 4.09231
Pt 21.3108 19.6377 9.7994
Au 20.7192 16.6316 5.66957
Pt 17.7913 16.7503 9.27821
Au 17.3071 18.3943 12.1971
Pt 12.9613 21.935 12.4074
Au 14.3514 12.1799 13.9486
Pt 15.5692 22.7567 7.18927
Au 14.3637 19.4533 12.0629
Pt 10.166 19.9586 15.5875
Au 14.2983 17.0977 17.0093
Pt 10.1443 21.2854 9.22874
Au 18.1286 13.8575 21.6587
Pt 15.17 24.1841 20.3223
Au 9.70459 21.0769 24.2668
Pt 20.2725 23.1658 15.523
Au 13.5117 18.7858 27.1839
Pt 21.1493 18.7872 23.0319
Au 18.106 26.8814 17.1398
Pt 10.1816 20.1434 18.2501
Pt 22.3374 17.1757 7.85677
Au 13.133 22.3795 6.15014
Au 19.0233 12.6127 4.38209
Pt 12.0248 22.8074 10.1545
Au 22.5911 23.7394 11.1345
Pt 20.1123 24.2954 10.2175
Au 18.0071 27.2471 14.2247
Pt 14.013 24.7695 13.937
Au 15.8984 20.291 14.1963
Pt 12.1049 24.1857 15.6837
Au 19.3048 26.1555 12.021
Pt 16.2273 25.7172 15.403
Au 18.4224 23.5186 8.06846
Pt 21.8971 21.2701 11.6992
Au 10.6432 17.4129 14.7153
Pt 18.6689 20.293 22.5397
Au 15.3482 18.8312 18.8176
Pt 16.2236 25.2485 12.5245
Au 11.157 23.355 22.7217
Pt 20.9778 17.8717 18.7784
Au 21.4085 21.4043 22.1941
Pt 19.6723 20.4637 20.1024
Pt 13.6532 7.542 11.0962
Pt 22.3382 10.0512 19.529
Pt 15.4513 8.02343 8.69156
Pt 21.1375 14.0441 13.7188
Pt 23.5258 10.1439 17.2002
Pt 17.7119 12.0891 23.6496
Pt 19.8867 6.32147 17.9212
Pt 16.6989 12.1709 8.95111
Au 24.7782 13.1222 22.0439
Pt 21.0817 13.0073 8.60612
Au 22.6656 5.77143 16.4865
Pt 17.1837 12.357 6.21136
Au 13.1235 10.855 4.76856
Pt 12.1783 10.9959 7.56176
Au 24.3305 7.39242 18.2358
Pt 20.5602 8.99766 10.5846
Au 22.3537 5.66829 19.1675
Pt 16.209 5.00572 15.7764
Au 19.9279 4.82974 20.1043
Pt 22.3581 12.733 18.143
Au 17.3434 11.2879 20.8372
Pt 18.6733 17.9746 24.02
Au 19.9293 10.7722 24.4934
Pt 15.9181 6.63625 19.649
Au 20.7764 15.2192 25.5871
Pt 17.6107 16.5719 22.1284
Pt 17.4758 20.6401 18.6055
Pt 14.7172 11.6548 6.69083
Au 14.7169 3.7216 9.17675
Au 24.4962 7.91398 15.6282
Pt 19.9541 18.2202 7.92209
Au 16.1326 5.52025 7.77029
Pt 21.3052 10.4031 8.27673
Au 16.3862 16.9875 14.3723
Pt 16.7619 9.99572 7.44925
Au 14.6532 15.0211 15.3819
Pt 24.339 17.3985 12.8867
Au 16.9507 16.0593 17.0574
Pt 18.1147 14.8026 24.2705
Au 18.9793 15.7665 19.7379
Pt 17.8073 7.60641 14.4858
Au 13.7537 10.247 12.0636
Pt 20.1854 16.0853 23.1121
Au 18.702 9.20478 22.4718
Pt 23.1804 19.4039 17.977
Au 20.4771 3.88387 17.3822
Pt 13.02 13.0613 23.606
Au 17.5091 21.683 24.7314
Pt 22.6003 14.4274 23.0083
Pt 19.5373 20.8051 7.71462
Au 21.1377 11.9307 6.04058
Au 11.5771 8.85323 6.11535
Pt 20.2964 15.7193 8.59286
Au 23.8425 9.87731 7.85588
Pt 19.4402 14.0544 6.69264
Au 16.4083 11.7011 11.6046
Pt 20.5805 15.2448 11.29
Au 18.7814 13.1053 12.5053
Pt 22.8623 10.9016 10.2443
Au 18.6954 13.8871 9.73898
Pt 22.486 17.2202 10.5134
Au 25.8942 14.8954 19.7711
Pt 24.2635 14.7718 17.6342
Au 19.8959 12.6184 19.3344
Pt 19.5423 18.057 21.1315
Au 18.2049 18.0857 18.5988
Pt 16.0276 17.7994 26.5125
Au 14.0531 15.8366 26.5695
Pt 16.1196 21.3309 22.4048
Au 11.5143 17.0406 26.7533
Pt 21.7272 21.5042 18.8102
Pt 21.8923 9.34171 15.0986
Au 25.6624 11.1474 9.46196
Au 22.0941 7.88465 8.69326
Pt 22.753 14.8178 9.41159
Au 11.0269 23.6113 7.76448
Pt 24.8916 15.9883 10.5016
Au 17.9147 15.7585 11.917
Pt 17.0105 21.3086 8.70465
Au 16.8626 20.937 11.359
Pt 20.3284 23.1019 12.6468
Au 18.0159 21.3982 16.1074
Pt 19.4128 22.5475 18.1335
Au 20.0282 19.927 17.2565
Pt 23.2539 20.2727 13.8068
Au 16.1075 16.2287 19.7919
Pt 21.6205 18.7445 15.4842
Au 20.132 20.6436 24.7044
Pt 20.6625 20.925 14.278
Au 22.6349 23.87 19.5118
Pt 20.2697 23.1976 20.4757
Au 19.2008 22.9201 22.9506
Pt 24.3015 18.8165 15.6164
Au 24.6452 15.7595 7.77115
Pt 16.0965 23.5935 9.81933
Au 22.2586 14.5906 6.63767
Au 12.2044 19.669 5.52652
Pt 17.9611 23.6173 11.5429
Au 16.9313 27.5728 11.6518
Pt 19.8747 17.5978 10.8354
Au 13.0534 26.6898 11.9766
Pt 18.1922 24.3521 16.6693
Au 18.7079 19.0206 14.667
Pt 22.3746 21.3028 16.2446
Au 20.2147 25.9799 15.6741
Pt 19.3794 21.8065 10.2335
Au 21.4707 25.2918 13.4271
Pt 16.3427 23.1401 15.0251
Au 25.0052 21.5841 15.3259
Pt 24.6361 12.4163 16.5682
Pt 23.3129 14.5015 20.2907
Pt 20.2587 13.3864 23.7367
Pt 18.415 19.3549 9.72514
Au 10.5317 11.7586 5.45875
Pt 24.2293 10.3339 14.5716
Au 24.8395 7.92545 12.8895
Pt 19.6982 11.4477 10.4891
Au 19.1779 14.3457 17.3001
Pt 22.2763 12.1945 20.954
Au 12.2438 8.77905 24.9203
Pt 25.9463 12.2624 14.1566
Au 25.2485 9.7164 19.2469
Pt 15.502 13.6171 24.5179
Pt 20.7376 14.3289 21.2033
Pt 17.8479 7.09161 9.09018
Au 7.61288 9.28181 9.05791
Pt 22.4597 6.93766 14.0021
Au 26.2193 10.2881 16.6128
Pt 24.3685 13.1444 10.7881
Au 27.3622 15.3709 11.0855
Pt 22.6754 9.45109 12.4336
Au 20.7315 18.0196 25.6393
Pt 19.554 9.92666 19.8474
Au 26.7286 12.8463 18.0596
Pt 23.8327 14.137 14.8078
Au 11.6757 11.7545 25.9483
Pt 20.7615 11.1512 13.1007
Au 17.2948 6.92514 23.342
Pt 15.0787 17.3901 22.1344
Au 22.7346 16.8234 24.1361
Pt 24.5384 12.2614 19.4122
Au 16.4698 11.7111 26.0903
Pt 16.1228 16.3129 24.4648
Pt 16.4056 19.0719 23.8481
Pt 19.4278 8.69777 7.8377
Au 24.4211 18.4459 8.8898
Au 18.819 10.0755 5.5371
Pt 21.6377 12.9527 11.2103
Au 24.1646 10.4326 21.6826
Pt 18.3183 16.5903 6.63717
Au 25.8548 20.0174 17.4723
Pt 25.1244 10.6276 12.0291
Au 25.73 17.1945 17.8125
Pt 22.3951 16.4623 14.4085
Au 24.3605 8.63344 10.2407
Pt 25.0382 16.3664 15.2547
Au 26.9443 18.33 15.6104
Pt 23.0797 15.0891 12.2079
Au 18.1133 19.4214 26.1965
Pt 22.8824 16.9144 16.9819
Au 22.8268 23.0108 14.0274
Pt 23.6984 17.0383 19.5158
Au 18.4584 16.569 26.3828
Pt 22.1473 19.3831 20.491
Au 23.7298 21.5489 20.6572
Pt 14.5473 24.0075 16.6579
Au 17.1022 7.69005 6.365
Pt 14.8835 20.2642 7.26678
Au 22.1737 19.8706 7.33427
Au 23.6389 21.2458 9.46684
Pt 25.5664 14.6035 12.9194
Au 26.1785 13.9186 9.07171
Pt 15.4644 22.6802 12.6314
Au 25.9174 19.6301 13.3866
Pt 21.4737 15.2994 18.7168
Au 27.0256 16.8299 13.3792
Pt 23.3517 12.2763 13.0223
Au 24.2695 22.1634 18.0104
Pt 18.4654 24.5804 14.0312
Au 26.3181 18.1392 11.0474
Pt 18.1851 21.8568 13.5405
Au 25.0644 19.2706 19.9641
Au 15.0294 26.3052 10.0026
Pt 21.695 18.523 12.7002
Au 26.931 12.6416 11.5732
Au 24.601 21.9285 12.1274
Pt 19.542 19.9886 12.1158
Au 26.5921 14.34 15.7741
Pt 23.8763 19.411 11.3229
Au 15.0647 27.4159 13.6736
