561
Atoms. Timestep: 20712
Pt 8.80272 14.6841 15.8438
Au 5.35244 14.1511 20.5167
Pt 9.95817 7.8673 18.5987
Au 5.82814 7.45753 19.1758
Pt 11.0756 24.4456 13.986
Pt 7.46032 12.3155 11.312
Au 9.09716 9.65093 7.8876
Pt 9.26082 12.6592 17.6636
Au 9.00609 24.0446 12.0871
Pt 5.95791 12.2757 13.621
Au 19.6689 26.9812 15.359
Pt 8.12884 13.8186 13.4754
Au 9.52869 4.08545 13.086
Pt 10.6733 14.552 13.6286
Pt 6.01961 14.5456 12.0495
Au 8.88138 24.8125 15.5829
Au 5.9568 7.14289 16.3665
Pt 10.7655 22.4967 19.0248
Au 11.1569 16.1306 3.91107
Pt 7.02863 18.352 14.8769
Au 9.07628 22.5057 22.3961
Pt 6.84865 20.2203 13.067
Au 7.47795 13.7751 23.9864
Pt 11.1481 13.9822 22.3817
Au 6.2721 12.0507 22.1855
Pt 7.24973 16.2664 19.7462
Au 8.19943 22.6322 9.48433
Au 14.8787 5.3298 22.0743
Pt 17.0482 23.3707 9.9227
Au 9.71994 24.9292 18.3467
Pt 9.49756 22.3228 14.4377
Au 19.4487 17.3102 25.3038
Pt 7.17256 13.9739 18.5277
Au 5.07305 15.8677 9.93376
Au 5.02151 20.05 16.1718
Pt 12.92 20.096 5.52675
Pt 11.2486 11.1956 21.5823
Pt 9.18943 17.6599 7.66066
Pt 14.8146 8.71325 18.5998
Pt 10.1023 6.4764 14.1182
Pt 11.7746 9.04179 7.28394
Pt 10.0038 18.8912 9.99259
Au 10.4659 5.77726 20.2829
Pt 11.1743 11.4602 7.93789
Au 6.73487 8.39901 11.2152
Pt 9.44165 19.9709 21.4843
Au 9.32871 14.294 25.8007
Pt 13.3812 10.4457 9.04005
Au 7.79761 5.86614 12.0587
Pt 8.56098 7.53674 16.3742
Au 4.42336 18.9029 13.7362
Pt 16.3179 7.94072 16.5043
Au 4.08375 16.2149 12.8135
Pt 7.42514 7.62079 13.9623
Au 13.7055 11.4898 27.4933
Pt 14.4326 7.95421 21.1183
Pt 17.2954 16.5316 21.6839
Pt 8.69602 18.501 12.2175
Au 15.4219 17.7315 2.35897
Au 11.3467 6.67853 8.54089
Pt 7.69513 9.2899 18.5874
Au 5.15863 10.7419 11.5227
Pt 8.2494 15.969 11.925
Au 4.46838 13.0089 17.7228
Pt 9.94735 20.702 16.8145
Au 13.5563 12.8042 4.24557
Pt 9.80237 11.7695 12.9562
Au 7.7557 17.4094 24.5108
Pt 6.81338 11.5507 17.489
Au 9.91912 7.35823 22.6408
Pt 11.9811 10.061 15.3213
Au 5.1937 11.3604 19.7181
Pt 10.2542 9.82148 23.737
Au 8.86288 7.47663 9.56129
Pt 15.0267 6.21111 19.4374
Au 4.99885 9.48589 17.6407
Pt 24.6006 12.7578 16.5918
Au 23.8098 16.9327 23.5677
Pt 22.6393 11.7299 20.2947
Pt 7.25675 16.575 17.0264
Au 4.64319 11.2994 15.6163
Au 4.98008 18.535 9.62203
Pt 9.54875 15.396 18.2113
Au 18.5967 24.7927 8.25392
Pt 13.6314 15.3886 7.97362
Au 14.3506 19.4107 14.8492
Pt 9.85917 16.1035 9.6479
Au 15.473 10.9227 13.423
Pt 15.9843 22.6814 12.2806
Au 10.6313 24.1086 9.70761
Pt 8.17503 11.8213 15.1799
Au 15.8592 25.6082 8.50117
Pt 16.7851 21.5302 7.7851
Au 7.07685 23.4098 14.0245
Pt 9.19965 16.8187 14.3091
Au 11.2378 12.7815 26.9939
Pt 7.51582 14.5764 9.74125
Au 5.1932 13.0042 9.87029
Pt 12.5141 6.64496 18.4603
Au 6.06822 18.7002 22.6086
Pt 10.1632 18.4481 23.6223
Au 6.57096 18.7558 7.48385
Au 23.999 22.3201 11.7219
Pt 15.4071 14.0775 6.18754
Au 13.7833 7.53306 6.63985
Pt 12.622 19.4774 22.8723
Au 8.37242 18.898 5.47156
Pt 6.59055 15.885 14.2517
Au 6.76106 15.9822 7.45567
Pt 9.74087 17.9363 16.5968
Au 4.92286 15.5991 18.1162
Pt 6.14375 17.726 12.0396
Au 13.4026 13.6637 15.8733
Pt 17.9179 23.7696 17.6727
Au 19.1112 7.56087 24.0186
Pt 8.2362 7.3597 20.4568
Au 10.7815 21.1978 24.0481
Pt 15.4783 12.4157 21.4535
Au 6.74171 13.0446 7.62049
Au 4.91403 21.7339 13.9861
Pt 19.4749 21.9396 22.0822
Au 12.0195 26.0165 19.3916
Au 12.6241 23.278 23.29
Pt 8.94685 21.2939 11.9656
Au 13.1511 26.3831 14.0901
Pt 11.547 21.5701 21.4299
Au 5.10056 18.3074 18.2273
Pt 7.4331 21.0308 15.4844
Au 6.38252 15.8718 22.5999
Pt 14.2845 18.3397 24.5496
Au 6.07765 21.2847 18.5931
Au 7.55305 9.96642 23.5248
Pt 15.8236 19.1231 22.3735
Pt 12.5621 7.72746 13.8469
Pt 7.53893 10.2137 13.0227
Pt 17.055 8.96374 12.2967
Pt 11.088 7.77448 16.2274
Pt 20.059 8.44581 19.9343
Pt 12.4512 6.58838 22.1666
Pt 14.7234 5.41141 16.9285
Pt 12.3538 5.60656 15.6847
Pt 8.65838 20.8241 19.1751
Pt 15.7232 19.2333 5.92496
Au 13.7682 3.29195 15.0218
Au 11.6203 10.254 26.032
Pt 9.0548 14.4935 7.48745
Au 13.8654 10.2874 6.09725
Pt 9.74332 13.8876 11.2091
Au 5.16398 9.18205 13.8283
Pt 8.96976 12.3004 9.08832
Au 6.73433 10.6442 9.1893
Pt 11.203 15.805 6.88399
Au 10.2331 5.23509 17.3916
Pt 7.89157 11.6988 19.9999
Au 12.9763 4.62083 20.2463
Pt 14.5849 5.69174 14.2685
Au 25.0577 10.4061 20.3742
Pt 8.04193 14.1501 21.2544
Au 11.4037 11.0671 5.30963
Pt 21.9909 13.6547 21.9754
Au 8.069 20.1449 23.7785
Pt 11.5255 9.8001 12.4784
Au 26.412 11.5568 18.2466
Pt 19.7959 12.9215 22.9573
Pt 8.68316 20.325 7.98167
Au 20.9682 5.36198 11.7473
Au 3.81375 13.1554 12.2667
Pt 11.2718 13.9365 8.87977
Au 16.6166 23.9165 6.43618
Pt 11.0252 18.1846 5.70165
Au 8.95857 11.9539 6.34573
Pt 13.7227 11.5545 11.4635
Au 15.706 17.3932 13.6021
Pt 9.08511 9.61214 21.311
Au 16.3777 17.1101 17.0877
Pt 9.61866 10.1203 16.8049
Au 12.0401 11.9912 17.7108
Pt 9.41278 8.00904 12.103
Au 14.499 10.3882 16.0588
Pt 11.1006 12.3116 24.3069
Au 17.2586 5.00229 20.6357
Pt 11.5726 8.43566 20.5386
Au 18.3441 12.7758 4.38376
Pt 10.2561 10.5761 19.2391
Au 27.1454 16.8658 14.973
Pt 13.7333 14.2825 22.9516
Pt 12.4109 13.9408 11.7416
Au 9.92845 22.6585 7.26273
Au 20.2807 12.4478 6.47936
Pt 10.6211 21.4594 9.84037
Au 12.3717 14.6128 18.4217
Pt 12.9928 12.9498 6.86282
Au 13.7447 16.9377 16.3076
Pt 10.8053 16.8963 12.1076
Au 18.1482 16.6292 14.7826
Pt 13.7245 7.65438 9.36728
Au 18.7773 10.7683 19.6181
Pt 8.39012 17.5614 21.8322
Au 11.3352 15.6406 16.0306
Pt 15.9152 10.3771 10.4004
Au 13.3141 18.0134 12.0925
Pt 19.7637 17.9273 19.8468
Au 18.6988 8.50754 17.5976
Pt 16.864 21.489 22.4591
Au 18.1722 12.6487 25.1936
Pt 11.8575 14.8063 25.0523
Au 19.7499 10.2833 24.1899
Pt 12.2652 16.7903 23.5474
Pt 13.1039 22.6918 10.4407
Au 13.8964 26.4314 17.1049
Au 14.7478 25.7014 19.6903
Pt 11.8477 17.7986 8.44919
Au 24.7776 8.16202 14.3943
Pt 7.41173 19.8805 10.3654
Au 4.18802 14.277 14.7437
Pt 14.9083 24.7001 10.9506
Au 6.44967 22.485 11.5132
Pt 11.196 19.864 19.2847
Au 18.3715 10.404 6.05123
Pt 9.48972 19.6637 14.413
Au 21.4162 21.4168 7.03462
Pt 14.7055 21.9426 6.02535
Au 15.7204 15.206 15.1264
Pt 18.5559 19.6233 23.7678
Au 12.2916 19.4349 16.831
Pt 6.40339 13.7792 15.9613
Au 13.6461 21.1377 24.7785
Pt 13.0147 13.0745 20.5291
Au 21.6576 18.5024 24.1414
Pt 20.6271 23.1524 13.0235
Au 16.2484 20.193 25.0046
Au 23.5849 23.5557 16.8382
Pt 15.4643 24.2068 16.6334
Au 13.8781 24.5098 6.4295
Pt 6.90964 18.9534 20.0735
Au 16.2813 3.17445 16.475
Pt 18.2402 19.6796 21.126
Au 21.7849 25.4205 16.0477
Pt 19.2215 22.1034 9.05587
Au 4.72171 20.421 11.428
Pt 13.3305 21.3797 19.3421
Au 17.8267 15.6793 19.1876
Pt 14.9159 22.034 14.6558
Au 20.5294 25.7989 13.0936
Pt 16.5394 18.1088 19.8135
Au 24.8719 19.864 12.7703
Pt 16.4269 21.5334 17.1974
Au 5.76858 22.8567 16.3943
Au 5.91743 21.1492 8.79997
Pt 10.9819 23.1428 16.4854
Pt 16.1042 12.9132 11.0132
Pt 18.9065 7.01303 11.543
Pt 7.48311 17.3436 9.72089
Pt 17.1625 5.85703 17.9169
Pt 14.2904 6.51795 11.7822
Pt 15.3745 14.8459 20.6471
Pt 13.7364 7.81559 16.2602
Pt 17.7224 11.4248 22.5536
Pt 22.2191 12.9567 18.0115
Pt 18.4606 9.11132 21.9117
Pt 10.6619 12.6211 15.4736
Pt 20.237 11.6806 9.2898
Au 12.1844 25.4252 11.5851
Au 10.2156 20.7942 5.2404
Pt 12.4421 16.0176 10.2607
Au 4.66792 17.0115 15.7328
Pt 15.2457 8.25119 14.047
Au 10.1414 5.28622 10.7724
Pt 23.7585 10.693 18.032
Au 12.8701 4.94217 10.1316
Pt 15.5168 9.21741 8.1295
Au 16.1004 12.5328 16.0673
Pt 14.6111 15.5909 25.0786
Au 26.0326 17.1442 17.4891
Pt 9.60787 9.30111 14.3658
Au 19.4237 6.30698 21.6755
Pt 16.2993 10.1932 20.3176
Au 20.6613 13.9675 25.2866
Pt 24.6137 13.23 19.444
Au 18.2817 5.85375 9.13425
Pt 21.0965 8.35393 22.3227
Au 21.3952 4.59652 14.6061
Pt 14.7002 16.8231 22.3594
Pt 13.2472 15.2883 5.33197
Au 17.4183 18.8549 3.78954
Au 17.8796 14.5341 16.6462
Pt 13.7238 13.203 9.49972
Au 13.8319 15.5086 2.81752
Pt 15.384 11.8866 7.86579
Au 19.9033 11.5162 14.1236
Pt 18.0889 17.8038 6.23332
Au 17.4269 15.1984 12.3609
Pt 20.6405 10.8123 21.606
Au 14.6481 11.9 18.5336
Pt 20.2984 9.22824 15.6598
Au 14.3533 16.8202 19.0897
Pt 16.9707 5.53252 15.3752
Au 14.9092 19.36 17.763
Pt 17.3068 7.75102 19.833
Au 21.9451 6.45932 20.197
Pt 12.6822 15.8042 20.9672
Au 22.071 11.8305 24.0259
Pt 14.0605 9.99031 25.0232
Au 8.81605 11.5952 25.3725
Pt 12.3457 9.37924 18.0717
Pt 11.2732 20.124 7.61733
Au 13.1283 18.0314 3.77604
Au 10.8738 3.55846 15.2697
Pt 13.6099 17.6909 6.48107
Au 22.4009 14.2699 6.31876
Pt 17.7787 15.2499 5.45784
Au 22.9848 24.0663 13.9207
Pt 14.8606 23.1245 8.49231
Au 13.1729 15.7618 13.7586
Pt 15.9992 14.4198 8.87194
Au 15.7248 18.8897 11.3106
Pt 22.2925 14.941 19.7563
Au 14.8211 13.5754 13.2564
Pt 24.2168 14.2451 11.5838
Au 19.9763 14.0653 14.9372
Pt 13.3696 11.6863 22.9637
Au 23.5712 17.2592 15.8635
Pt 9.20311 18.02 19.2144
Au 4.88307 17.0532 20.6463
Pt 9.0222 12.1014 22.5671
Au 12.7311 3.75204 17.6484
Pt 10.2985 13.2042 19.9648
Pt 14.355 17.6788 9.2619
Au 8.82815 16.1742 5.39137
Au 12.1409 22.6864 5.31189
Pt 19.3 17.8054 8.68234
Au 25.6729 9.33682 16.731
Pt 23.4925 14.7901 8.86858
Au 20.2571 14.629 4.55372
Pt 19.614 24.2669 10.7508
Au 20.2928 16.1412 13.0681
Pt 11.2392 22.4862 12.2456
Au 20.0703 24.0065 20.3759
Pt 11.2042 19.7885 12.3109
Au 14.8536 15.559 11.2948
Pt 13.7659 20.8664 12.4376
Au 20.0516 18.8281 14.721
Pt 13.7172 18.9729 20.5166
Au 11.842 19.201 25.5942
Pt 20.8897 19.8705 9.1825
Au 8.12386 5.1256 15.2886
Pt 19.6719 24.0733 15.3195
Au 16.1602 10.8327 26.5644
Pt 13.4814 23.5445 12.9401
Pt 13.2268 24.0839 15.4499
Au 15.1932 26.9314 12.3168
Au 19.8205 17.3501 4.28543
Pt 15.3729 21.1549 10.1295
Au 23.2375 16.7871 6.57956
Pt 22.3215 12.7709 10.4173
Au 19.4928 25.8884 17.8427
Pt 12.913 23.982 18.1041
Au 18.2847 17.9934 12.3474
Pt 12.4857 22.4055 7.90806
Au 23.3326 19.349 7.99975
Pt 7.52566 19.2317 17.3852
Au 21.1375 18.6753 6.47476
Pt 15.9706 16.5669 7.30564
Au 11.7758 18.1258 14.4778
Pt 11.2387 18.0087 21.2266
Au 11.7296 17.2643 18.5156
Pt 15.3844 23.1686 18.9723
Au 17.4854 15.4302 26.0022
Pt 16.5766 18.9476 8.36616
Au 24.2499 21.1593 19.9434
Pt 14.2042 21.409 22.042
Pt 11.1904 9.15935 9.80462
Pt 17.8717 13.7965 21.3536
Pt 11.7954 7.21693 11.3743
Pt 22.2798 9.52306 13.6588
Pt 12.1551 5.06035 13.0032
Pt 21.9648 11.5714 15.8351
Pt 19.4876 6.02107 18.999
Pt 16.4249 7.6417 10.2024
Au 24.1623 8.74354 11.7415
Pt 21.1248 10.8711 11.6937
Au 15.7369 4.97362 10.0505
Pt 16.6489 6.13272 12.6287
Au 16.0211 11.5661 5.10464
Pt 11.2355 11.7342 10.5955
Au 18.361 3.59028 18.4348
Pt 18.9959 5.2598 13.6427
Au 16.7514 3.47949 13.7081
Pt 7.00733 9.58789 15.7557
Au 23.2412 9.97995 22.4708
Pt 17.7689 10.908 8.65524
Au 6.38686 9.35171 21.1015
Pt 21.0997 10.3344 18.1872
Au 27.4542 14.0158 14.7397
Pt 16.3001 14.5102 23.4451
Au 24.8901 17.2373 8.74212
Pt 20.8144 19.6486 21.8649
Pt 20.186 12.9782 19.9255
Pt 23.9338 11.363 12.0022
Au 16.0077 14.0685 3.56057
Au 22.6059 9.92402 9.64669
Pt 18.8673 20.0978 7.32415
Au 22.9938 6.38248 15.8628
Pt 13.9917 9.03266 11.684
Au 19.6172 20.2023 4.8225
Pt 8.94484 10.1684 10.7101
Au 17.4262 25.9658 10.7958
Pt 24.0199 17.1793 19.7177
Au 17.5519 12.9164 13.7786
Pt 18.7539 15.1869 23.6584
Au 19.267 11.9871 16.9679
Pt 16.7434 7.26775 22.3977
Au 16.8173 20.3221 13.3613
Pt 19.9681 15.4098 21.0479
Au 19.0379 17.3882 17.3072
Pt 19.2121 21.5715 16.9079
Au 15.4163 3.63601 19.0008
Pt 12.6692 9.19008 22.8141
Au 14.5268 7.43192 23.9928
Pt 24.1365 15.155 21.5786
Pt 18.3358 15.4293 7.97662
Au 18.1443 4.2604 11.3346
Au 14.4729 3.80115 12.2527
Pt 21.8485 15.2373 10.9927
Au 26.5098 12.705 11.7729
Pt 17.7138 12.9994 7.04435
Au 17.7908 27.0009 13.3277
Pt 24.9201 17.3446 13.5256
Au 20.2791 14.8116 17.8576
Pt 18.0655 8.35029 8.0078
Au 17.2256 12.9012 18.921
Pt 18.0985 24.3608 12.9684
Au 22.6718 12.0469 7.84078
Pt 22.0167 17.1858 21.3919
Au 12.59 12.0708 13.7702
Pt 20.7359 19.4349 17.3812
Au 25.9017 19.0526 19.5808
Pt 9.51198 15.6847 23.416
Au 7.75586 5.86355 18.2613
Pt 21.314 15.7996 23.4956
Au 15.7787 13.4874 26.6449
Pt 15.5645 24.8 13.9062
Pt 21.3753 7.55894 17.7487
Au 20.5969 7.24778 9.12481
Au 20.522 9.64358 7.66471
Pt 22.8044 19.6865 10.9678
Au 13.0576 25.1605 8.93846
Pt 19.3713 15.7589 10.4406
Au 16.9711 16.8014 10.0146
Pt 18.2551 11.3192 11.5488
Au 18.1772 19.8521 10.2344
Pt 17.5571 25.459 15.551
Au 17.4207 19.3754 15.8062
Pt 8.33643 22.7632 17.2728
Au 21.0516 16.4999 15.6567
Pt 19.3272 21.2977 14.3265
Au 19.912 13.48 11.9971
Pt 15.7546 12.0397 24.2012
Au 10.5744 24.2999 21.0426
Pt 13.1413 23.663 20.6964
Au 16.6422 26.473 17.8062
Pt 13.5303 10.3872 20.4487
Au 8.08989 23.3103 19.9419
Pt 13.6263 21.7824 16.8389
Au 17.6583 16.2099 3.01253
Pt 15.5317 16.682 4.75609
Au 24.4531 21.8444 14.7356
Au 22.6947 23.4179 19.5404
Pt 14.1368 20.1403 7.91116
Au 15.6137 27.226 15.1251
Pt 20.7985 14.2608 8.59418
Au 11.3397 25.9364 16.3751
Pt 15.8488 20.7194 19.9886
Au 15.2207 14.5719 17.8657
Pt 17.8811 22.3435 19.93
Au 17.5177 25.1267 20.0323
Pt 17.3326 22.7862 15.0055
Au 26.2649 17.647 11.1774
Pt 18.4901 21.9937 11.7693
Au 23.2942 21.8522 9.09735
Pt 22.6037 9.098 20.0236
Pt 22.7122 19.8242 15.5502
Pt 23.9054 19.0116 17.7872
Pt 20.4517 16.1384 6.71937
Au 14.9008 20.2248 3.63119
Pt 24.9165 13.1452 13.8897
Au 21.2667 4.74435 17.4545
Pt 20.8845 7.18092 14.0329
Au 17.597 10.2454 15.1026
Pt 22.2084 19.3462 19.7247
Au 26.7943 11.5452 15.4749
Pt 18.0831 7.68585 14.4473
Au 23.4024 14.2487 24.1783
Pt 25.1376 15.2306 15.3488
Pt 20.7252 23.4737 17.7877
Pt 22.8928 9.02044 16.2097
Au 15.9953 6.52404 7.73006
Pt 21.9577 17.0451 8.8549
Au 25.5502 19.232 15.4929
Pt 21.4979 8.10842 11.4604
Au 26.7236 14.2269 17.4012
Pt 24.2384 10.8271 14.7927
Au 15.7956 17.5507 26.5779
Pt 24.0458 15.2557 17.8024
Au 22.1898 21.8953 21.7003
Pt 22.259 12.8415 13.3683
Au 12.9534 16.9926 26.6066
Pt 19.5413 6.30156 16.2041
Au 23.7158 19.3085 22.0055
Pt 10.0214 15.7782 20.7123
Au 18.2674 22.2005 24.6096
Pt 22.2774 21.0317 13.2716
Au 24.4729 12.4935 22.2142
Pt 15.3941 9.80194 22.6876
Pt 16.8985 17.3646 24.1367
Pt 19.561 9.21073 12.9543
Au 24.0416 7.70496 18.311
Au 23.1732 6.47098 13.0043
Pt 22.5958 14.2498 15.7155
Au 26.156 15.4887 19.7702
Pt 18.3391 13.3978 9.71473
Au 17.1092 9.28613 24.5841
Pt 16.8067 10.3641 17.7171
Au 18.0037 24.0712 22.5701
Pt 18.1257 19.7982 18.4942
Au 16.2703 8.68423 5.75299
Pt 19.2152 9.26574 10.2091
Au 20.8297 21.1003 24.1828
Pt 23.6772 17.0794 11.1107
Au 13.366 14.4483 27.4194
Pt 22.4385 21.3328 17.8616
Au 17.1663 21.4073 4.99112
Pt 19.4665 17.5539 22.5714
Au 11.8143 7.74386 24.7631
Pt 13.5182 12.7906 25.2969
Au 15.4848 23.0215 24.0875
Pt 20.2993 21.2288 19.5571
Au 10.7882 13.7206 5.23294
Pt 12.7517 19.869 10.0838
Au 25.1834 19.829 9.98275
Au 19.1323 22.7529 6.4138
Pt 21.8518 17.0812 18.2108
Au 26.1657 10.2985 13.0657
Pt 12.0404 21.3533 14.6323
Au 26.48 15.3482 12.6496
Pt 22.37 18.2494 13.3257
Au 24.8652 12.3988 9.55994
Pt 22.9977 15.5497 13.475
Au 6.89083 21.2149 21.4229
Pt 21.2707 21.9931 10.7834
Au 21.271 23.7595 8.59167
Pt 15.649 23.6308 21.4577
Au 26.036 15.0481 9.90394
Au 22.297 24.4502 11.21
Pt 20.8932 17.8403 11.0366
Au 25.7258 17.3841 21.7272
Au 25.1475 21.3055 17.344
Pt 20.1727 19.9944 12.1608
Au 19.0119 3.64285 15.8349
Pt 21.5947 22.2617 15.5023
Au 10.2587 16.9009 25.8407
