561
Atoms. Timestep: 20164
Pt 7.53124 7.16762 15.0126
Au 5.67674 7.11116 13.0124
Pt 7.54693 11.009 11.0666
Au 5.35264 8.99811 14.9952
Pt 5.55831 11.0204 13.0183
Pt 5.46424 10.9441 17.005
Au 5.7232 13.2012 7.18735
Pt 5.73608 15.0545 9.127
Au 3.63366 13.0541 12.9517
Pt 4.0224 15.0668 11.1211
Au 3.5743 14.9667 18.9982
Pt 5.49543 12.9828 15.0438
Au 7.57217 5.14319 16.9025
Pt 5.45162 14.9151 17.0818
Pt 7.31989 10.9168 19.0929
Au 7.74963 13.2019 5.28396
Au 3.57695 16.9747 13.0157
Pt 5.84612 18.9176 9.21043
Au 3.49234 14.9737 15.0222
Pt 5.71188 16.9685 11.0718
Au 3.55317 16.9475 17.072
Pt 5.46978 16.9152 15.1276
Au 5.43483 12.8721 22.8757
Pt 5.4266 16.9083 19.1086
Au 5.26728 16.774 22.7084
Pt 5.46116 14.82 20.9688
Au 5.72838 17.0286 7.27101
Au 4.0344 20.862 13.1195
Pt 4.12157 18.9163 11.2171
Au 7.25028 20.902 21.162
Pt 5.50876 18.8834 17.1535
Au 7.14059 18.8082 22.9896
Pt 7.55702 22.6819 19.0983
Au 3.66452 18.9443 15.0717
Au 5.42204 20.8432 19.0315
Pt 5.68086 20.8047 15.22
Pt 9.52963 7.18716 13.0828
Pt 7.68504 7.23337 11.175
Pt 7.40817 9.05113 16.9982
Pt 9.49309 5.2915 15.0284
Pt 9.42228 7.12796 17.0587
Pt 5.61185 12.9758 11.0544
Au 7.4946 9.02902 9.03114
Pt 9.71498 9.22853 7.22169
Au 5.57981 9.09391 11.0899
Pt 7.49928 9.12132 13.0883
Au 7.62904 5.21127 13.0916
Pt 9.49175 9.10906 11.0676
Au 11.4707 3.49305 15.0578
Pt 7.37399 10.9879 15.0735
Au 9.41514 9.09124 15.0933
Pt 9.43469 11.0173 13.0993
Au 5.606 7.03581 16.9336
Pt 7.5143 7.08384 18.8878
Au 9.39491 5.03804 18.9972
Pt 9.27298 8.98874 19.1386
Pt 11.2167 8.94873 21.0609
Pt 9.62393 13.0817 7.17524
Au 11.6864 9.20746 5.25691
Au 5.61454 11.1342 9.09588
Pt 7.59452 13.036 9.10809
Au 9.48487 11.0679 9.09288
Pt 11.627 15.0064 7.19022
Au 3.621 11.1051 14.9443
Pt 5.58277 14.982 13.1563
Au 7.44743 12.9381 13.0937
Pt 9.45374 12.9784 11.1366
Au 3.51615 12.982 16.9509
Pt 7.26079 12.9112 17.1526
Au 9.30022 11.0192 17.1687
Pt 9.3018 12.9246 15.1689
Au 5.17667 12.7517 19.1238
Pt 7.29455 12.8799 21.0255
Au 9.23891 10.9205 21.0994
Pt 9.24588 12.9283 19.192
Au 5.41592 8.96329 18.9011
Pt 7.35752 10.9267 22.89
Au 9.18917 10.7926 24.8851
Pt 11.2271 10.8331 23.0546
Pt 7.72134 15.0728 7.21356
Au 7.5687 11.078 7.04687
Au 9.58313 14.9721 9.16907
Pt 7.66741 16.9671 9.17841
Au 11.5758 16.9352 9.20162
Pt 9.67071 16.9766 7.24043
Au 7.51544 14.9479 11.132
Pt 7.47875 16.8885 13.1546
Au 9.45106 14.9442 13.1843
Pt 9.47754 16.9475 11.175
Au 7.42157 14.9395 15.1783
Pt 7.33357 16.8972 17.1965
Au 9.32415 14.8809 17.2131
Pt 9.38114 16.8615 15.2477
Au 7.27937 14.8628 19.1084
Pt 7.32673 16.855 21.085
Au 9.20224 14.8879 21.3049
Pt 9.25337 16.8401 19.2412
Au 5.36364 10.8331 21.048
Pt 9.12876 12.8532 23.1249
Au 9.10922 16.9691 23.3534
Pt 9.22754 18.8327 21.1904
Au 7.74938 17.0348 5.37352
Au 9.59371 21.095 7.22954
Pt 7.786 18.9396 7.33681
Au 9.6172 18.9863 9.23579
Pt 7.77393 20.9146 9.28886
Au 7.55722 18.9972 11.2081
Pt 5.70694 18.8398 13.2009
Au 9.45407 18.8586 13.2375
Pt 9.56411 20.9111 11.2893
Au 7.47255 18.8382 15.2151
Pt 7.37869 18.8714 19.1682
Au 9.39391 18.8009 17.2539
Pt 9.45756 22.7321 17.1981
Au 5.28692 18.8421 20.9401
Pt 9.4201 22.6363 21.1147
Au 9.20908 20.723 23.2058
Pt 9.36542 20.7381 19.2512
Au 7.20698 14.8777 23.1979
Au 13.2608 22.6474 25.093
Pt 13.3794 24.4091 23.0536
Au 5.65719 21.0862 10.9809
Au 7.37496 22.9977 14.9914
Pt 7.43721 20.9422 13.1422
Au 11.4817 20.8318 13.3203
Pt 9.56834 22.842 13.2597
Au 9.36685 20.9142 15.1918
Pt 7.51511 20.8207 17.1915
Au 7.57016 24.6954 17.2273
Pt 9.58731 24.6019 15.2938
Au 11.1757 22.7586 23.2697
Au 11.257 24.7161 21.3207
Pt 9.51424 24.5434 19.1677
Pt 11.4769 7.19635 11.1207
Pt 15.5208 9.14978 9.26318
Pt 11.4756 5.27948 13.0536
Pt 13.5153 5.35317 11.1689
Pt 11.3146 5.20787 17.1268
Pt 13.4383 5.23786 15.0609
Pt 11.3797 5.29118 20.9179
Pt 13.3077 5.19305 19.1472
Pt 11.3255 7.06735 22.894
Pt 11.6135 11.1224 7.25235
Au 11.5608 7.13758 7.16217
Au 9.51405 7.08696 9.07739
Pt 11.5051 9.10891 9.16634
Au 11.6372 5.21746 9.23874
Pt 13.5968 11.1182 5.43327
Au 9.56554 5.18252 11.1474
Pt 11.4024 9.10407 13.1131
Au 13.4204 7.17965 13.1438
Pt 13.4379 9.13697 11.1805
Au 11.4309 7.09979 15.1144
Pt 11.3006 9.05989 17.1607
Au 13.3208 7.05382 17.1521
Pt 13.34 9.07631 15.196
Au 13.349 3.48181 17.0759
Pt 11.2813 7.10247 19.0731
Au 9.2072 6.85847 21.1019
Pt 13.2454 9.02427 19.1654
Au 7.20648 8.80734 21.0766
Pt 9.29193 8.93502 22.9007
Au 15.1369 8.80516 25.141
Pt 13.2078 8.91706 23.1435
Pt 11.6429 13.0584 5.36123
Au 15.6398 9.19164 5.27326
Au 9.71662 11.1705 5.23114
Pt 11.5153 13.0289 9.15261
Au 13.5177 11.1204 9.21445
Pt 13.5808 13.1052 7.19039
Au 11.45 11.0792 11.1529
Pt 11.3854 12.9757 13.1935
Au 13.41 11.0575 13.2173
Pt 13.4532 13.0148 11.2227
Au 11.3681 11.059 15.1724
Pt 11.2881 12.9548 17.2245
Au 13.3066 11.03 17.2311
Pt 13.3468 12.9686 15.2517
Au 11.2718 11.0148 19.195
Pt 11.1632 12.926 21.3555
Au 13.2079 10.9476 21.2295
Pt 13.2239 12.9589 19.3381
Au 11.1525 8.85916 24.9272
Pt 11.1352 12.6487 24.9098
Au 13.0964 10.8306 25.262
Pt 13.1555 12.8426 23.2929
Pt 11.6583 17.0674 5.44441
Au 13.5551 15.0257 5.08461
Au 9.76766 15.0921 5.13763
Pt 11.5906 19.0231 7.35673
Au 13.5506 14.9684 9.20444
Pt 13.6093 16.9221 7.19863
Au 11.4787 14.9454 11.2244
Pt 11.4359 16.8508 13.2745
Au 13.4055 14.9045 13.2703
Pt 13.4951 16.8381 11.2796
Au 11.35 14.8869 15.2427
Pt 11.3165 16.8034 17.3046
Au 13.2747 14.8687 17.3276
Pt 13.3537 16.8037 15.3206
Au 11.2292 14.8659 19.3239
Pt 11.1343 16.7992 21.3817
Au 13.1157 14.8569 21.4553
Pt 13.2216 16.7628 19.408
Au 11.0038 14.9285 23.5477
Pt 11.1687 18.7734 23.1877
Au 13.1044 14.637 25.3601
Pt 13.0959 16.7109 23.4353
Pt 11.7235 22.7847 7.60003
Au 11.7889 21.0044 5.4716
Au 9.75465 18.9911 5.35559
Pt 11.6001 20.8812 9.35632
Au 13.5735 18.8258 9.30222
Pt 13.6552 20.8843 7.50636
Au 11.5169 18.8382 11.304
Pt 11.4945 22.7455 15.317
Au 13.4658 18.777 13.3433
Pt 15.5309 22.7996 11.4616
Au 11.4055 18.8024 15.2976
Pt 11.3545 20.7729 17.3125
Au 13.3384 18.7249 17.3341
Pt 13.4468 20.7696 15.3511
Au 11.2865 18.7222 19.3401
Pt 11.253 20.7242 21.2986
Au 13.2209 18.65 21.4281
Pt 11.369 22.6639 19.2731
Au 11.3023 20.6918 25.076
Pt 15.2645 22.5468 23.2664
Au 15.1466 20.6819 25.2841
Pt 13.221 20.7478 23.1677
Au 13.7208 22.9598 5.87121
Au 7.68662 22.9553 11.2678
Pt 11.6027 22.7909 11.3654
Au 9.76305 24.7883 11.3672
Pt 9.75277 22.8161 9.42923
Au 13.5434 20.8285 11.3523
Pt 11.6015 24.6594 13.367
Au 13.5271 22.7548 13.4027
Pt 13.5659 24.646 11.4952
Au 11.5634 26.519 15.3178
Pt 11.4977 24.5872 17.3107
Au 13.4113 22.6434 17.3291
Pt 13.4891 24.6425 15.3889
Au 9.62102 26.4959 17.2424
Pt 13.2476 22.6209 21.2421
Au 11.454 26.5488 19.293
Pt 13.3378 24.5349 19.3239
Au 5.63476 22.7511 17.1131
Au 13.4673 26.4593 21.2666
Pt 15.2922 24.4609 21.2863
Pt 13.5675 9.16077 7.29205
Pt 15.4971 5.46573 9.33866
Pt 15.5906 7.29659 7.38679
Pt 15.4276 5.29526 13.1383
Pt 17.4278 5.39209 11.2833
Pt 15.3546 5.19378 17.1803
Pt 17.3513 5.25457 15.2159
Pt 15.2108 5.25729 21.0614
Pt 17.2032 5.20949 19.1899
Pt 15.1895 7.05125 23.0389
Pt 19.7087 8.26177 23.7746
Pt 17.603 11.1372 5.52392
Au 13.6965 7.26934 5.43755
Au 13.6966 5.33662 7.38296
Pt 13.5024 7.26767 9.23767
Au 21.2266 5.20703 11.453
Pt 17.5123 9.15013 7.35645
Au 15.4641 7.24043 11.2362
Pt 15.4146 9.11714 13.2308
Au 17.3974 7.17136 13.2665
Pt 17.471 9.11603 11.2724
Au 15.3665 7.13026 15.1985
Pt 15.2913 9.05976 17.2307
Au 17.2929 7.1036 17.2227
Pt 17.3691 9.0961 15.2818
Au 15.2593 7.09558 19.1537
Pt 13.265 7.14375 21.0477
Au 17.7348 6.2678 23.6704
Pt 17.1915 7.02828 21.1421
Au 13.2415 5.18155 22.8849
Pt 15.2006 9.00713 21.2061
Au 17.7874 8.21052 25.6326
Pt 17.1517 8.93703 23.1325
Pt 15.5827 12.9978 5.37459
Au 17.6469 14.9573 5.18287
Au 15.5543 11.0905 7.26052
Pt 15.5116 13.0683 9.17833
Au 17.4938 11.1135 9.31167
Pt 17.5344 13.078 7.29348
Au 15.4645 11.1044 11.2626
Pt 15.4122 12.9943 13.2886
Au 17.4159 11.0703 13.3154
Pt 17.4709 13.0283 11.2989
Au 15.3542 11.0348 15.2727
Pt 15.2812 12.9799 17.3225
Au 17.2953 11.0602 17.3145
Pt 17.3554 12.9898 15.3539
Au 15.2287 11.0422 19.278
Pt 15.1612 12.9392 21.4243
Au 17.1757 11.0129 21.3218
Pt 17.2389 12.9668 19.3802
Au 15.1271 10.869 23.3022
Pt 15.1171 12.7399 25.1859
Au 17.1222 14.684 25.5336
Pt 17.1353 12.8774 23.3885
Pt 13.6134 19.0213 5.58164
Au 15.6283 17.1094 5.17283
Au 15.5804 15.0489 7.08675
Pt 15.5482 16.8755 9.22203
Au 17.5184 14.9865 9.281
Pt 17.6004 16.9069 7.26531
Au 15.4736 14.9293 11.272
Pt 15.4119 16.7946 13.3364
Au 17.4175 14.9053 13.3491
Pt 17.4865 16.8277 11.3408
Au 15.3415 14.88 15.3333
Pt 15.2818 16.7374 17.385
Au 17.304 14.8701 17.413
Pt 17.3602 16.7439 15.3948
Au 15.2114 14.8611 19.4232
Pt 15.1868 16.7185 21.5125
Au 17.1931 14.8312 21.4499
Pt 17.2754 16.723 19.4867
Au 15.1548 14.8341 23.5131
Pt 13.1886 18.8109 24.9612
Au 15.0672 16.7864 25.4663
Pt 17.2056 16.7006 23.5378
Pt 15.6774 22.8366 7.65448
Au 15.6579 20.9905 5.54104
Au 15.6109 18.8859 7.3364
Pt 19.4087 22.7147 11.6264
Au 17.5399 18.8001 9.38538
Pt 17.5808 20.9347 7.56204
Au 15.5064 18.7559 11.3754
Pt 15.4733 20.7964 13.3943
Au 17.4263 18.6994 13.3975
Pt 17.4883 20.7841 11.4845
Au 15.3655 18.7116 15.3703
Pt 15.3479 20.7031 17.3765
Au 17.3015 18.6082 17.4232
Pt 15.4219 22.728 15.3937
Au 15.2841 18.617 19.4404
Pt 15.263 20.6419 21.3837
Au 17.3067 18.6462 21.5402
Pt 19.2618 22.5803 19.4862
Au 15.2466 18.6806 23.3979
Pt 17.1077 24.3584 23.134
Au 17.1473 18.6937 25.3692
Pt 17.211 20.6784 23.3725
Pt 17.5313 22.7839 9.64339
Au 17.6356 24.7109 7.75965
Au 15.5874 20.8317 9.4503
Pt 13.6525 22.8545 9.43846
Au 15.5378 24.8733 9.55886
Pt 19.4524 24.6468 9.77021
Au 11.7538 24.7671 9.45004
Pt 15.4626 24.7173 13.4418
Au 17.3377 20.6943 15.4396
Pt 17.3889 22.758 13.4913
Au 15.3887 26.6351 15.4302
Pt 15.379 24.6024 17.387
Au 17.3371 26.6597 17.4681
Pt 17.4433 24.7093 11.5688
Au 13.3189 20.651 19.3567
Pt 15.3118 22.6205 19.3672
Au 17.2666 20.6053 19.4103
Pt 17.3107 22.6591 17.4356
Au 13.4394 26.6414 17.4099
Pt 15.3657 26.3236 19.3654
Au 17.1695 26.408 21.4007
Pt 17.2278 22.5354 21.3248
Pt 17.5143 7.19507 9.33462
Pt 19.3211 5.30759 13.3237
Pt 19.4 7.1681 11.3044
Pt 19.2187 5.18333 17.2679
Pt 21.1768 5.24563 15.3591
Pt 19.6886 6.40683 21.7807
Pt 19.1793 7.07565 19.2313
Pt 19.4882 11.0804 7.46362
Au 19.3982 7.18765 7.41325
Pt 19.459 9.11896 9.37385
Au 21.3754 7.06945 9.36018
Pt 21.3663 9.17077 7.52561
Au 23.1732 5.18181 13.4811
Pt 19.3899 9.08711 13.3058
Au 23.6957 4.58923 16.1221
Pt 21.3996 9.04964 11.3804
Au 19.3086 7.1393 15.3045
Pt 19.2986 9.07858 17.3403
Au 19.6792 4.46809 19.9043
Pt 21.1645 7.08438 17.3492
Au 17.259 9.06138 19.2805
Pt 19.2242 8.97576 21.2745
Au 21.8769 8.04321 22.1227
Pt 21.182 8.96713 19.3766
Au 19.7485 10.1299 25.8711
Pt 17.1382 10.814 25.0986
Pt 21.6346 10.1717 23.8574
Pt 19.5806 12.9753 5.55825
Au 21.4762 11.0694 5.56802
Au 19.481 9.18556 5.49244
Pt 19.5047 13.0419 9.30375
Au 21.4827 11.0744 9.41758
Pt 21.5359 12.9782 7.45179
Au 19.4593 11.0875 11.356
Pt 19.4171 13.0184 13.3758
Au 21.3962 11.0951 13.4116
Pt 21.4953 13.007 11.3981
Au 19.3517 11.0972 15.3849
Pt 19.3445 12.9949 17.4187
Au 21.3676 11.0605 17.4769
Pt 21.4423 12.9808 15.4483
Au 19.2696 11.0486 19.3631
Pt 19.2386 12.8952 21.4301
Au 21.3 10.8349 21.3081
Pt 21.4019 12.8915 19.4787
Au 19.1434 10.8852 23.297
Pt 19.1278 12.7466 25.2427
Au 21.7 12.0745 25.7529
Pt 21.1893 12.7516 23.2852
Pt 17.6742 19.0177 5.70789
Au 19.6563 17.1065 5.3943
Au 19.5368 14.9951 7.28476
Pt 19.5626 16.8971 9.35829
Au 21.4984 14.9115 9.43091
Pt 19.5844 18.9174 7.58538
Au 19.4834 14.938 11.3754
Pt 19.4572 16.7768 13.4162
Au 21.4839 14.8833 13.4447
Pt 21.5374 16.8511 11.4192
Au 19.4062 14.8776 15.4183
Pt 19.3638 16.6983 17.4695
Au 21.419 14.8384 17.4809
Pt 21.4899 16.7324 15.4948
Au 19.3008 14.837 19.4732
Pt 19.258 16.7417 21.594
Au 21.24 14.8008 21.4762
Pt 21.3578 16.7222 19.529
Au 19.1331 14.7614 23.4613
Pt 21.1909 16.719 23.4841
Au 19.2085 16.6202 25.4604
Pt 21.1886 18.6252 21.4829
Pt 19.4773 22.7874 7.74022
Au 23.3808 22.8214 7.89237
Au 21.7432 18.9866 5.91398
Pt 19.4825 20.7984 9.58325
Au 21.7447 18.872 9.30096
Pt 21.3599 22.7332 9.78387
Au 19.5304 18.7358 11.4009
Pt 19.2978 22.6677 15.4972
Au 21.4521 18.6956 13.5211
Pt 21.3775 20.7105 15.5259
Au 19.4007 18.6266 15.4701
Pt 17.3418 24.6287 15.4996
Au 21.3663 18.6332 17.5078
Pt 23.2403 22.7026 15.5996
Au 19.2852 18.6 19.4987
Pt 19.207 20.6718 21.4584
Au 21.2134 20.6749 19.5785
Pt 23.1927 20.7169 17.5621
Au 19.3114 18.7644 23.6698
Pt 19.1276 24.435 21.3748
Au 19.1455 22.585 23.4552
Pt 21.1307 24.4798 19.4456
Au 21.3811 24.6607 7.92206
Pt 21.3433 24.6385 11.724
Au 23.2845 24.6446 9.90021
Au 19.3926 20.6885 13.515
Pt 19.359 24.5954 13.5702
Au 21.3228 26.5869 13.7139
Pt 21.3191 22.6527 13.591
Au 17.4559 26.6389 13.5716
Pt 19.2504 24.5503 17.5124
Au 19.3094 20.6345 17.4559
Pt 19.3354 26.3698 15.5629
Au 21.221 26.5014 17.5429
Pt 17.2997 24.5069 19.3886
Au 23.2424 26.2721 15.669
Pt 21.2038 22.6088 17.5095
Au 19.2263 26.4775 19.5195
Pt 21.3055 7.16901 13.3501
Pt 23.6229 6.45586 18.0745
Pt 23.1153 7.13982 15.4354
Pt 23.284 9.11251 9.53279
Au 23.3533 7.02755 11.3859
Pt 23.2773 9.07763 13.46
Au 25.1731 7.1296 13.5601
Pt 25.0717 9.07429 11.5909
Au 21.2938 9.12007 15.3952
Pt 23.1791 9.04493 17.4204
Au 25.6184 6.51197 16.2584
Pt 25.0965 9.023 15.5307
Au 21.7258 4.43772 18.0142
Pt 23.5871 8.27298 20.0422
Pt 21.6662 6.37154 19.9283
Pt 21.5023 16.8521 7.4792
Au 23.4898 11.0086 7.5048
Pt 23.495 12.9566 9.46622
Au 25.3313 10.9483 9.60117
Pt 23.4313 14.8777 7.64357
Au 23.4078 11.0514 11.5104
Pt 23.5299 12.9768 13.4771
Au 25.5187 10.9486 13.4984
Pt 25.3208 12.9241 11.4898
Au 23.4264 11.0569 15.4546
Pt 23.4343 12.9337 17.4929
Au 25.4728 11.0457 17.451
Pt 25.3498 12.9226 15.4687
Au 23.5261 10.8641 19.4644
Pt 23.2545 12.8101 21.4945
Au 25.5996 8.39558 18.2548
Pt 25.1317 12.9398 19.5519
Au 23.782 10.1565 22.1336
Pt 21.0982 14.6182 25.1244
Pt 23.0434 14.706 23.3457
Pt 21.3965 21.0162 7.70848
Au 19.5835 20.9037 5.69505
Au 21.631 14.9293 5.56128
Pt 23.4732 16.801 9.55062
Au 25.4401 14.9208 9.53874
Pt 23.4176 20.9389 9.80795
Au 23.5373 14.8876 11.5082
Pt 23.5064 16.776 13.5189
Au 25.6521 14.8878 13.4633
Pt 25.3149 16.8915 11.5452
Au 23.5368 14.8394 15.4948
Pt 23.5177 16.7167 17.5091
Au 25.584 14.7215 17.5691
Pt 25.3783 16.7834 15.5078
Au 23.3541 14.8368 19.5264
Pt 23.2011 16.7292 21.5908
Au 25.1489 14.8111 21.574
Pt 25.1651 16.7837 19.6118
Au 25.0651 18.694 21.5711
Pt 21.1254 20.6275 23.1833
Au 23.0352 18.7021 23.4753
Pt 23.1043 20.6047 21.4379
Au 23.8543 20.0688 7.34868
Pt 21.4105 20.7401 11.5769
Au 24.0557 17.4475 7.05562
Au 23.464 18.8236 11.5637
Pt 23.3274 20.7474 13.6107
Au 25.1939 18.8288 9.44933
Pt 23.3337 22.7057 11.7475
Au 23.4062 18.7089 15.5571
Pt 25.1417 18.8788 17.6187
Au 26.9759 17.0153 17.6462
Pt 25.249 18.8263 13.598
Au 23.2574 18.6872 19.5587
Pt 23.0666 24.4584 17.5774
Au 25.1577 20.746 19.596
Pt 23.0846 22.5782 19.499
Au 21.3063 22.7862 21.6124
Au 19.4447 26.5841 11.6695
Pt 23.1761 24.5318 13.6725
Au 25.4049 20.808 11.7179
Au 25.242 22.7427 13.7442
Pt 21.2299 24.5112 15.5849
Au 26.9696 18.8835 15.6422
Pt 25.1184 20.7864 15.6297
Au 25.1144 22.6848 17.5906
