561
Atoms. Timestep: 20489
Pt 15.5224 13.4404 9.05993
Au 5.99485 12.4461 22.0869
Pt 16.4199 21.4478 15.5305
Au 25.6413 10.4904 18.7859
Pt 11.1856 12.5848 21.1135
Pt 19.0406 14.769 14.1909
Au 16.591 27.4442 14.4675
Pt 15.1176 9.20026 7.14957
Au 18.0123 5.87465 8.59756
Pt 18.1908 10.6755 15.2766
Au 5.06268 10.6837 11.5858
Pt 12.5886 21.4596 10.724
Au 13.4079 4.96618 10.5676
Pt 17.2761 22.8243 18.7178
Pt 8.67453 16.5582 9.37981
Au 4.2931 12.8292 15.8285
Au 20.1718 17.1297 26.2545
Pt 9.57107 16.9605 11.8778
Au 16.6037 13.5759 27.0131
Pt 17.8295 13.6861 18.538
Au 14.6658 11.5709 27.3202
Pt 21.3295 13.4613 13.8794
Au 13.6814 24.7901 7.99729
Pt 20.6475 12.7509 21.9702
Au 15.7452 4.9177 17.7481
Pt 17.0703 22.526 10.395
Au 9.34352 10.6711 26.0968
Au 23.3317 16.5079 22.7925
Pt 20.2529 10.2353 22.7269
Au 7.17154 16.7402 23.5234
Pt 10.6998 18.2487 6.8884
Au 22.4917 15.4458 6.01198
Pt 12.4801 20.2962 6.08487
Au 19.4913 5.5297 10.8934
Au 9.67104 5.32736 13.7646
Pt 17.2672 20.9266 8.38696
Pt 13.523 9.44293 10.6878
Pt 19.8504 7.4318 17.3898
Pt 9.21092 11.9742 13.5862
Pt 20.0231 17.0975 12.5836
Pt 18.0726 16.4756 7.71654
Pt 11.9496 10.5765 19.381
Au 4.69934 10.3897 14.3921
Pt 16.1246 7.62209 13.6662
Au 14.3541 5.59077 15.4266
Pt 9.37711 8.9354 19.4126
Au 10.507 5.61977 8.47616
Pt 14.1964 17.4134 14.7764
Au 24.9714 15.8398 12.7565
Pt 21.8432 12.3276 16.4014
Au 10.7748 22.1088 5.06986
Pt 16.4178 18.1251 6.02502
Au 11.6549 25.8455 12.2713
Pt 19.9319 22.636 17.5338
Au 18.6051 23.4542 8.38755
Pt 19.202 12.8892 16.1027
Pt 7.59571 11.9389 11.1707
Pt 10.6179 18.7594 21.7808
Au 10.3276 23.3739 12.1894
Au 7.3883 6.39309 14.8781
Pt 21.9706 8.83031 18.4805
Au 11.7847 24.0471 9.89359
Pt 9.65101 7.81017 10.6722
Au 17.4983 6.9017 23.8974
Pt 17.3059 16.858 14.3899
Au 7.77844 11.4292 24.0432
Pt 13.1473 10.6406 15.9566
Au 16.0208 14.9646 2.70019
Pt 14.0791 20.0585 14.5783
Au 7.78087 22.2384 11.3893
Pt 15.8321 16.1121 16.6857
Au 24.6281 16.5156 7.61203
Pt 20.0579 19.2482 19.1401
Au 17.5386 19.9216 4.23207
Pt 12.1213 7.26961 9.9998
Au 24.9424 11.9256 16.5174
Pt 15.9854 14.8299 21.5497
Au 20.3716 21.7599 7.05131
Pt 13.0089 10.8864 21.9528
Pt 23.4568 13.6939 12.3186
Au 12.0227 12.0637 26.2805
Au 8.61384 22.6605 6.64094
Pt 20.8621 8.03592 20.8282
Au 13.182 5.77471 7.70399
Pt 13.5893 10.6435 24.4964
Au 25.9955 13.421 11.4546
Pt 15.0102 20.3216 20.5466
Au 6.49602 22.3146 18.6142
Pt 19.7087 21.0079 9.56489
Au 11.9118 26.9681 14.8002
Pt 13.0591 22.0508 8.10268
Au 5.15722 15.3482 12.1589
Pt 9.87058 16.4368 14.6727
Au 16.7204 8.20056 4.85282
Pt 12.4198 13.773 12.1891
Au 21.3774 19.729 23.4805
Pt 21.1286 19.2885 7.94286
Au 13.9181 7.4561 5.44934
Pt 10.5042 21.2196 7.67326
Au 14.9026 6.02645 23.3299
Pt 13.7384 14.012 16.4604
Au 12.1139 26.4551 17.4894
Au 18.2201 19.0252 27.1045
Pt 8.39133 22.9427 16.8635
Au 5.4334 13.2987 10.4162
Pt 15.6271 17.7358 21.009
Au 23.3092 20.4607 25.121
Pt 10.5834 14.8618 10.2695
Au 20.7933 9.79115 25.2325
Pt 17.1345 16.2236 19.332
Au 8.80658 10.628 9.16531
Pt 17.9754 16.6561 22.1049
Au 6.71283 20.6422 13.3806
Pt 12.0193 8.13683 20.4472
Au 10.2673 24.7292 16.9219
Pt 16.6468 21.4671 23.8941
Au 16.0965 18.902 25.2548
Pt 13.1586 23.6834 12.3718
Au 23.5996 13.7436 7.72214
Au 9.07812 9.01501 23.9354
Pt 21.9121 18.0714 21.0414
Au 9.23866 9.06001 5.60614
Au 16.5683 25.081 20.0921
Pt 19.1733 19.6276 12.0589
Au 11.9943 22.4518 23.6339
Pt 14.7269 20.3755 9.42646
Au 11.1498 23.8372 7.16825
Pt 11.5621 18.3997 13.6799
Au 18.0685 5.45111 13.3915
Pt 8.40677 19.3702 11.2552
Au 21.0882 23.9723 19.5508
Au 7.59528 9.62324 21.5606
Pt 15.632 10.4873 14.8417
Pt 22.9516 9.88796 16.1918
Pt 11.777 15.142 21.7332
Pt 14.8808 14.0188 5.25516
Pt 9.38837 11.7644 16.2407
Pt 14.0492 18.4393 7.21541
Pt 23.0317 16.5755 16.7631
Pt 7.48964 15.6562 19.0861
Pt 16.8754 19.8784 10.831
Pt 17.0164 15.6157 5.16632
Pt 14.9298 21.3593 12.0765
Au 15.5895 21.8238 4.28039
Au 23.144 6.74203 19.8095
Pt 17.4609 10.0283 12.9398
Au 24.162 20.246 11.0762
Pt 6.79987 11.7685 15.466
Au 13.2112 5.85408 18.0042
Pt 8.47416 18.524 13.7922
Au 4.97602 15.7419 18.0238
Pt 13.9867 12.1082 18.4687
Au 5.60943 17.9651 13.6123
Pt 20.0316 17.2475 15.1596
Au 9.17979 23.5143 9.15769
Pt 15.4535 20.9404 17.9392
Au 9.99784 8.25792 8.11567
Pt 7.38126 16.3594 16.1942
Au 11.95 25.0287 22.7353
Pt 18.441 10.0845 10.5033
Au 26.0199 14.4535 16.4536
Pt 12.5025 23.729 18.1977
Au 9.96541 25.1661 14.2863
Pt 19.3948 12.227 6.46515
Pt 23.0309 18.866 15.4801
Au 14.2263 25.7698 18.9342
Au 23.7489 9.35309 10.56
Pt 21.0945 14.8549 16.1355
Au 6.09784 10.8958 9.04201
Pt 10.5859 11.3469 23.7762
Au 21.7201 5.91436 22.0035
Pt 11.3091 20.0924 15.6238
Au 18.8532 7.69258 6.64005
Pt 17.4157 13.9954 7.14739
Au 22.7884 23.5351 17.416
Pt 17.6018 17.4345 11.5135
Au 11.5611 5.15488 15.9243
Pt 18.7587 17.5081 4.92629
Au 23.2503 23.5907 14.6111
Pt 21.2544 9.985 9.89357
Au 22.5679 17.8598 25.0623
Pt 14.7752 22.9315 19.6768
Au 11.9695 14.8914 5.12447
Pt 16.8982 9.55043 19.7197
Au 9.90541 23.4737 21.9606
Pt 14.9907 13.8644 11.8253
Pt 11.5049 7.96207 12.639
Au 16.0448 6.57213 6.89191
Au 19.7789 12.4054 3.8032
Pt 13.3723 15.0351 9.84451
Au 15.8533 23.2075 7.48123
Pt 14.3703 9.65808 20.0479
Au 9.74213 20.9909 22.9954
Pt 19.5982 14.8028 5.49633
Au 6.65682 17.3438 11.1354
Pt 16.0491 18.8798 16.0231
Au 17.8501 21.9587 5.96569
Pt 15.0219 11.1317 12.1515
Au 20.7493 6.56772 13.0859
Pt 22.5298 16.068 19.4259
Au 13.1986 7.35626 24.917
Pt 20.4235 17.1706 23.4127
Au 11.2287 6.94688 6.01961
Pt 14.5118 16.5113 4.79939
Au 21.856 12.9251 5.54255
Pt 6.74944 19.1949 15.7553
Au 7.76121 6.07444 11.8374
Pt 10.0882 21.3331 10.2934
Pt 17.4627 19.5728 19.7587
Au 17.1524 6.20798 15.8647
Au 7.95404 21.7561 20.8699
Pt 16.1628 19.0151 13.2306
Au 14.1001 24.1691 24.2058
Pt 9.6928 16.4496 17.8574
Au 14.1718 17.1204 2.20457
Pt 13.3975 16.4575 17.7624
Au 18.6929 21.6327 25.8069
Pt 10.9639 19.15 18.259
Au 22.5783 8.46302 22.7923
Pt 16.9871 12.7774 13.8858
Au 23.3854 21.8128 22.8024
Pt 23.6769 14.2957 15.1167
Au 20.9705 23.5342 9.92431
Pt 20.396 12.0116 18.7206
Au 22.7644 11.0848 23.2432
Pt 22.2463 16.008 11.539
Au 8.08625 23.0962 14.0543
Pt 9.54758 11.6321 19.1304
Au 21.5609 8.12741 7.85877
Pt 19.564 16.8074 20.055
Au 9.10294 15.9278 25.319
Au 6.18229 21.8875 15.8547
Pt 18.1071 9.64997 24.1804
Au 12.7214 24.4914 15.2668
Pt 20.3491 9.23664 12.3408
Au 5.91872 13.1563 7.70361
Pt 19.5165 9.47081 19.215
Au 16.2407 7.36492 21.4096
Pt 10.2879 10.0798 21.4805
Au 14.1902 9.06557 26.7132
Pt 15.0883 12.5723 22.8751
Au 19.2147 21.4699 22.7638
Pt 9.15517 18.4611 16.4309
Au 21.2378 23.2754 22.1644
Pt 20.5306 19.4847 16.626
Au 15.4862 15.5749 28.6838
Pt 20.0565 14.3949 11.7653
Au 23.4218 10.1379 8.02198
Au 11.8864 19.6378 24.3196
Pt 19.3609 14.6883 23.4659
Pt 20.5914 16.9625 17.6887
Pt 16.058 8.73312 11.136
Pt 21.7151 10.651 20.6315
Pt 19.3573 22.4107 11.7229
Pt 10.8702 7.13806 17.9458
Pt 21.6315 20.7327 21.0538
Pt 13.9894 8.39532 22.3702
Pt 8.3205 13.4376 8.9496
Pt 12.3509 13.1274 23.5742
Pt 11.2053 14.8396 16.3896
Pt 21.9038 21.5502 15.8552
Pt 8.72649 8.073 13.1711
Au 23.6484 20.9757 13.7477
Au 16.3503 25.1128 9.41134
Pt 16.9638 22.009 21.2258
Au 15.0517 23.8073 17.0276
Pt 12.1625 11.0893 12.4096
Au 9.78329 16.6172 4.85643
Pt 17.3296 21.5568 13.0849
Au 11.9632 15.0017 25.6813
Pt 12.8786 21.1052 18.9717
Au 9.02843 5.28116 16.833
Pt 6.77265 17.9959 18.1388
Au 20.7201 24.3404 15.5283
Pt 15.5011 18.1839 18.4777
Au 11.5812 9.34963 25.906
Pt 6.86615 13.3638 13.3014
Au 10.1889 15.3365 7.40791
Pt 17.3702 14.9537 12.2363
Au 8.5628 6.27568 19.4157
Pt 9.72745 20.795 13.0554
Au 22.8993 18.0898 6.05194
Pt 17.3841 10.3369 6.27661
Pt 8.60502 14.1059 15.1951
Au 24.6201 17.6275 20.3835
Au 11.5923 25.446 20.0669
Pt 17.5503 8.64504 17.0811
Au 18.9289 25.1058 18.4278
Pt 18.6055 19.3534 6.87386
Au 4.6841 17.665 16.2172
Pt 11.1652 19.1038 11.2318
Au 25.5702 13.21 18.9491
Pt 15.5811 8.69766 24.462
Au 14.7256 10.1246 4.6674
Pt 8.27082 20.416 18.125
Au 6.57984 8.33666 19.1854
Pt 14.0639 12.5881 14.1737
Au 8.03047 17.1527 6.82601
Pt 19.5431 10.0145 7.87506
Au 11.093 17.6952 26.2064
Pt 16.0714 15.9171 9.96747
Au 16.6727 17.6176 3.1275
Pt 19.3839 21.6812 19.992
Au 25.0267 11.0061 12.2773
Pt 18.2231 12.2061 23.2633
Pt 21.149 15.3468 21.5896
Au 20.6493 5.69676 19.3987
Au 13.3944 14.4452 2.92327
Pt 13.6902 13.3542 20.8594
Au 17.2336 10.5546 3.44535
Pt 17.9411 16.6929 24.8334
Au 15.61 18.141 27.7324
Pt 18.7421 8.12581 14.6396
Au 14.3747 26.6416 16.0539
Pt 22.3735 16.2938 14.1445
Au 21.1834 22.1807 24.6852
Pt 13.5038 19.2287 17.0665
Au 14.1673 21.4984 25.1374
Pt 16.2037 12.9191 16.4062
Au 5.20618 15.2201 14.9354
Pt 22.6102 18.4534 12.7158
Au 22.3159 6.37413 17.1623
Pt 20.3568 14.556 18.7634
Au 7.97775 11.52 6.75792
Pt 23.1507 11.3251 18.5269
Au 17.7401 16.3271 27.4847
Pt 19.5291 7.86624 9.55268
Pt 21.9977 11.5121 11.8578
Au 13.2449 16.7348 27.5542
Au 17.7009 12.9236 2.17809
Pt 10.0782 7.4409 15.2776
Au 22.5221 21.4486 9.12228
Pt 19.3035 11.9757 12.7782
Au 15.1186 19.8493 2.25398
Pt 16.3546 18.2984 8.68678
Au 9.60283 13.2591 25.6907
Pt 15.4783 7.46034 18.6434
Au 18.8701 8.03136 26.0334
Pt 21.5381 11.9956 8.12177
Au 13.2845 13.6949 7.4134
Pt 17.6845 11.8081 8.53103
Au 18.9609 5.90973 21.673
Pt 18.8955 18.5504 9.40855
Au 5.70246 10.7929 19.9375
Pt 15.2304 14.4398 18.7219
Au 13.985 25.7638 10.6558
Pt 9.16613 13.8918 17.7617
Au 21.6177 10.2453 6.03729
Pt 12.2102 19.5636 8.80416
Pt 18.2056 14.3744 9.64833
Au 16.4032 23.4325 25.5166
Au 4.34273 12.8347 13.0998
Pt 14.071 7.13413 11.9788
Au 23.3606 22.7757 20.1936
Pt 17.8864 11.2235 17.9032
Au 6.72779 18.5862 8.68176
Pt 7.56421 10.5308 17.827
Au 15.2476 4.9468 13.0062
Pt 11.3276 17.153 9.38636
Au 24.1618 20.9709 17.0945
Pt 16.1024 24.941 14.6929
Au 5.10722 14.6557 20.5505
Pt 12.3324 17.7647 4.98712
Au 24.0358 12.0699 9.91109
Pt 15.7025 16.9754 23.4461
Au 19.9486 5.58488 15.5146
Pt 10.718 9.62198 17.0747
Au 12.4407 5.46873 13.3307
Pt 18.5673 14.2022 20.9852
Au 16.8517 9.56125 26.8085
Pt 13.051 17.6891 22.2403
Pt 11.2055 16.8901 19.8553
Pt 22.0254 13.881 10.0081
Pt 8.61997 12.1764 21.6552
Pt 10.3358 20.9453 20.1362
Pt 20.4058 14.4285 7.92132
Pt 18.181 20.6048 17.4171
Pt 20.8698 19.7509 14.0467
Pt 13.2166 10.981 7.7913
Au 14.1662 26.2373 13.3416
Pt 10.7072 10.6273 7.08174
Au 21.1275 16.8215 4.15631
Pt 15.3337 15.8505 7.42153
Au 16.5671 5.9459 10.9256
Pt 11.3246 10.1195 9.74685
Au 22.8208 20.7289 6.48734
Pt 11.7474 17.4736 16.1421
Au 9.51852 23.5554 19.3164
Pt 18.344 7.68737 11.9499
Au 15.1272 12.3283 3.13086
Pt 18.3437 19.3162 14.7576
Au 19.1426 14.3929 26.1004
Pt 13.8604 15.2249 23.3558
Au 23.8787 7.47144 15.2188
Pt 12.6334 15.3888 14.2648
Au 18.481 24.1086 13.6332
Pt 12.2391 22.9575 20.8025
Pt 21.4998 18.4798 10.3493
Pt 11.1403 16.7 23.7035
Au 20.8279 12.5364 24.6597
Au 20.8514 19.8319 26.2205
Pt 17.0021 19.3765 22.4462
Au 12.3778 19.0438 2.58722
Pt 9.63086 14.4853 20.2081
Au 20.6498 19.5165 5.1498
Pt 11.6239 12.315 17.3931
Au 21.8566 7.3979 10.7538
Pt 21.5531 20.765 11.5766
Au 18.6277 24.9371 10.8942
Pt 18.1624 7.15206 19.3672
Au 18.815 24.0994 21.2166
Pt 13.7406 9.21523 13.5622
Au 23.0494 13.7434 22.9378
Pt 19.8574 12.2938 10.0984
Au 23.8007 19.015 8.5216
Pt 9.17478 16.6265 21.7634
Au 16.6112 26.1168 17.4094
Pt 19.9595 16.2846 9.90194
Au 12.0549 9.44686 5.17281
Pt 12.5173 20.5 21.6884
Pt 14.4844 22.2454 22.363
Au 7.10212 8.82866 10.7301
Au 6.26645 17.2036 20.8825
Pt 14.9835 16.6134 12.3078
Au 5.94961 20.0803 10.829
Pt 15.4469 10.3019 17.4955
Au 10.1267 12.9403 5.77283
Pt 21.1508 22.4422 13.5458
Au 7.86217 14.4257 6.44532
Pt 15.0703 8.13678 16.017
Au 18.8859 26.6758 13.0513
Pt 24.158 17.5702 10.7067
Au 10.5748 5.36179 11.2244
Pt 10.2377 12.4583 11.0295
Au 18.8228 23.731 24.0787
Pt 14.5031 19.6267 23.224
Au 21.6638 15.2119 24.8352
Pt 9.62907 10.0762 11.8638
Au 15.3566 15.9051 26.0096
Pt 11.655 8.88177 23.296
Au 8.61262 6.59908 6.57962
Pt 10.9707 9.93681 14.4176
Pt 15.9388 24.0121 12.2185
Au 19.4068 9.70566 4.75126
Au 23.9776 9.19218 20.5066
Pt 8.81313 18.3581 19.7479
Au 11.1934 5.59934 20.0886
Pt 10.7213 22.6789 14.994
Au 16.1392 12.2222 20.2324
Pt 22.3923 13.3932 20.1415
Au 5.96714 8.47361 16.0164
Pt 12.2557 16.5131 11.9015
Au 23.9212 19.1944 22.6164
Pt 14.5383 23.145 10.0092
Au 12.1064 6.28788 22.6089
Pt 12.2619 21.3031 13.2913
Au 18.8079 19.2189 24.4724
Pt 17.1479 12.3723 11.1461
Au 16.4709 24.2139 22.8209
Pt 7.48921 15.9966 13.5111
Au 20.9745 24.8202 12.4838
Pt 20.889 10.7169 14.3908
Au 7.34637 8.82795 7.67675
Pt 7.8575 14.7059 11.1846
Au 13.5151 23.0161 5.70511
Pt 13.8569 16.0034 20.3354
Au 17.7934 23.7416 16.3007
Au 6.51078 6.15928 17.5049
Pt 18.6648 11.4422 20.7449
Au 13.9946 6.03059 20.6052
Pt 14.632 22.7914 14.2964
Au 12.8073 12.1223 5.10986
Pt 15.4175 14.8973 14.3909
Au 7.20844 14.0609 24.2501
Pt 12.5734 7.70744 15.4164
Au 24.3859 11.8717 21.0837
Pt 12.0481 14.3755 18.9563
Au 6.22581 19.8686 20.0089
Pt 10.6595 21.8157 17.5719
Au 10.951 12.8222 8.45586
Pt 22.326 16.4099 8.73483
Pt 12.712 16.2991 7.31912
Pt 8.75332 20.8427 15.4694
Pt 18.3814 15.4265 16.6694
Au 13.5528 14.0286 27.768
Pt 20.45 17.0421 6.92301
Au 4.93191 10.5894 17.2721
Pt 13.147 18.5886 19.7521
Au 9.73531 14.1798 23.2012
Pt 19.1981 21.7636 15.1134
Au 5.93145 8.02154 13.1744
Pt 14.7823 7.38938 9.24897
Au 7.91572 6.52906 9.15835
Pt 13.9848 17.6608 9.82714
Pt 13.7138 19.0348 12.0395
Pt 20.2233 10.0863 16.7996
Au 24.6014 14.8504 20.9074
Pt 7.12484 10.3782 13.1814
Au 16.7768 14.2901 24.2328
Pt 15.2126 20.7287 6.71022
Au 24.1739 20.2499 19.9178
Pt 13.1251 8.63487 17.9114
Au 13.0005 21.3675 3.59961
Pt 12.6823 8.46788 7.76802
Au 15.4472 4.76164 8.7975
Pt 13.5155 17.5376 24.9507
Au 7.77252 19.1999 22.1454
Pt 15.4316 11.9629 6.73333
Au 24.5603 15.0634 9.95522
Pt 23.3786 11.7157 14.2208
Au 9.63896 7.38013 21.7442
Pt 23.2787 14.0186 17.7534
Au 25.2645 9.80982 14.8
Pt 13.2303 12.26 10.1328
Pt 18.1087 17.954 17.4268
Pt 9.41382 19.0645 8.91657
Au 10.3292 19.4763 4.41834
Au 18.703 26.227 15.6734
Pt 11.5049 12.7643 14.6689
Au 6.30639 15.5476 8.89176
Pt 13.1806 21.8827 16.36
Au 16.1567 10.2204 22.3004
Pt 8.37835 9.5858 15.2654
Au 18.7799 15.3136 3.05881
Pt 22.5936 18.6692 18.3888
Au 7.65122 21.1985 8.81621
Pt 9.9818 14.4646 12.9186
Au 16.1953 11.4448 25.0476
Pt 14.319 13.4207 25.3234
Au 8.4464 19.8939 6.42035
Pt 19.4263 18.9752 21.6566
Au 16.2706 21.0177 26.8023
Pt 7.19782 12.9395 19.4724
Au 4.57455 12.9492 18.5767
Pt 14.519 19.2297 4.6042
Au 5.0984 20.1203 17.6056
Pt 7.44582 14.696 21.6663
Au 25.135 18.6241 13.2505
Pt 17.1705 8.6242 8.61771
Au 16.4869 26.5569 11.8663
Au 25.2181 16.8163 15.2978
Pt 8.39817 7.95146 17.2207
Au 18.5023 4.95952 17.8894
Pt 6.60625 13.8449 17.0114
Au 9.23707 18.5161 24.3071
Pt 14.1742 24.7301 21.4424
Au 16.7454 5.02648 20.1871
Pt 24.9814 15.9022 18.3808
Au 23.0715 22.9618 11.7271
Pt 17.3023 12.8831 4.80692
Au 22.9903 9.0546 13.1708
Pt 21.2797 8.11888 15.1972
Au 18.7117 11.5612 26.0812
Au 20.1791 7.5276 23.6777
Pt 21.8403 21.2183 18.5286
Au 25.1077 18.4511 17.5541
Au 25.8178 13.0282 14.0669
Pt 15.4782 10.7005 9.40645
Au 11.5828 16.4486 2.81494
Pt 18.4766 8.67371 21.7192
Au 24.4828 8.27933 17.761
