561
Atoms. Timestep: 20302
Pt 6.77997 7.69808 14.7061
Au 5.0384 9.62613 11.068
Pt 7.1769 11.3451 10.9902
Au 7.82766 5.40927 13.9426
Pt 7.28577 11.162 15.0099
Pt 7.59571 8.79395 16.9155
Au 5.65284 17.3632 7.27583
Pt 5.53719 15.3731 9.15257
Au 3.38847 13.3158 13.0129
Pt 5.33134 13.3425 11.0599
Au 4.25345 14.4784 19.2419
Pt 5.28046 13.1968 15.0968
Au 6.81151 7.48327 11.1403
Pt 5.363 15.0777 16.9404
Pt 10.0795 6.81671 18.7962
Au 5.45615 13.6082 7.10366
Au 3.2257 15.4793 14.6745
Pt 7.79715 19.1858 7.36162
Au 3.58149 15.4456 11.1127
Pt 5.60407 17.2574 11.046
Au 3.41957 16.9517 17.0372
Pt 5.43391 17.1185 15.0973
Au 7.82455 12.324 22.2488
Pt 5.34557 16.9832 19.0037
Au 6.49172 10.3681 18.6179
Pt 8.69381 12.2852 19.58
Au 3.84105 19.2672 11.0731
Au 3.86609 21.0816 13.166
Pt 3.81264 17.403 12.9901
Au 3.65713 19.0363 18.7943
Pt 5.53885 19.0494 17.0149
Au 5.44408 21.1068 18.9969
Pt 7.55169 20.9419 17.1428
Au 3.60652 19.1289 15.1193
Au 7.73346 24.8642 17.1413
Pt 5.70124 21.0297 15.1441
Pt 12.7367 6.3844 18.7132
Pt 7.12798 9.46307 12.9266
Pt 8.81291 6.63823 16.2509
Pt 8.93542 7.37865 12.7354
Pt 11.1383 5.27277 16.9037
Pt 5.28134 11.3817 13.1038
Au 9.01442 9.20664 7.01867
Pt 11.2312 9.25516 5.52719
Au 6.93323 9.35595 9.01824
Pt 9.18141 11.1476 13.0239
Au 4.56198 8.89744 13.7476
Pt 8.99527 9.32966 10.9366
Au 8.70281 4.56125 17.8579
Pt 9.12487 9.09018 14.8705
Au 10.9302 8.63385 17.0189
Pt 11.0303 10.9581 15.1032
Au 9.79718 4.12723 15.0507
Pt 11.3907 6.23047 21.0669
Au 11.1164 4.08925 19.3545
Pt 10.0198 10.426 21.417
Pt 12.6997 10.6005 21.8584
Pt 9.33486 13.2399 7.1196
Au 15.0574 9.05671 5.11894
Au 5.21813 11.5843 9.02481
Pt 7.32522 13.3222 9.05145
Au 9.07575 11.2127 8.96103
Pt 11.4355 15.0814 7.1813
Au 3.38337 11.3773 15.0746
Pt 5.43788 15.195 13.0992
Au 7.26555 13.1484 13.0708
Pt 9.22557 13.1243 11.066
Au 2.97369 13.864 16.7101
Pt 5.4074 9.94745 16.0268
Au 9.09867 11.0217 17.1099
Pt 9.17091 12.996 15.1487
Au 4.54346 12.0157 17.6482
Pt 9.04305 9.25871 19.1517
Au 8.96116 9.70912 23.6163
Pt 7.07079 12.8204 17.2376
Au 7.43168 6.96537 18.9013
Pt 11.5433 10.3784 24.1815
Au 12.812 11.5203 26.1343
Pt 12.645 12.857 23.4625
Pt 7.50917 15.3421 7.21277
Au 7.16026 11.4047 6.96089
Au 9.42443 15.1294 9.14013
Pt 7.5951 17.1908 9.17749
Au 11.5429 16.9986 9.19648
Pt 9.58118 17.1755 7.27279
Au 7.36975 15.1758 11.1078
Pt 7.38169 17.0709 13.1284
Au 9.33736 15.0535 13.1428
Pt 9.43515 17.0434 11.1638
Au 7.32655 15.0284 15.1417
Pt 7.29634 16.9327 17.1389
Au 9.09696 14.7129 17.3082
Pt 9.32942 16.8672 15.2431
Au 7.0318 14.8275 19.1751
Pt 7.16504 16.9909 21.0377
Au 8.9234 14.7089 21.1965
Pt 9.13275 16.7642 19.2064
Au 7.3253 9.93058 21.1674
Pt 10.007 12.3274 23.6636
Au 8.35697 14.4856 23.9731
Pt 9.03414 16.8838 23.0105
Au 7.66956 17.3146 5.35424
Au 7.7079 21.3348 9.14578
Pt 5.8775 19.2277 9.25267
Au 9.6403 19.1252 9.27441
Pt 7.94295 22.9649 11.3841
Au 7.6154 19.2042 11.1818
Pt 5.71532 19.1898 13.1213
Au 9.52672 18.8732 13.2231
Pt 9.69912 20.9892 11.2762
Au 7.50174 18.9556 15.1599
Pt 9.61386 22.8006 17.2015
Au 9.3881 18.7927 17.2216
Pt 11.6776 24.5671 17.3125
Au 5.95401 12.4998 20.1545
Pt 7.64211 22.8427 19.0353
Au 7.27252 18.936 19.0673
Pt 9.42182 20.8185 19.1375
Au 6.27116 14.6462 21.8874
Au 7.1887 18.9736 22.982
Pt 9.43593 22.7455 21.0536
Au 5.71885 21.3239 11.1331
Au 7.94484 24.8816 13.3458
Pt 7.67473 21.0527 13.2202
Au 11.6372 20.7846 13.3235
Pt 9.79873 22.8612 13.3158
Au 9.58357 20.8585 15.2401
Pt 7.76694 22.9078 15.2153
Au 11.8746 26.608 15.4273
Pt 9.82573 24.729 15.291
Au 5.3205 19.0246 20.9491
Au 5.72054 22.9884 17.0075
Pt 9.66841 24.6254 19.1464
Pt 10.9105 7.27134 10.8541
Pt 15.1102 9.09695 9.18694
Pt 10.7611 6.90036 14.6088
Pt 12.6935 5.34871 10.6308
Pt 13.0292 6.78807 16.1521
Pt 12.4401 4.77764 14.4451
Pt 11.3304 8.33336 22.5385
Pt 13.5444 4.79505 20.4929
Pt 14.4463 11.1384 24.0915
Pt 11.1986 11.2312 7.19924
Au 10.9643 7.12507 7.28856
Au 8.85945 7.30496 9.14333
Pt 11.0204 9.23548 8.99531
Au 12.9966 5.29516 7.5303
Pt 13.1334 11.1079 5.31508
Au 10.5199 5.08371 12.4913
Pt 10.9622 9.10958 12.8907
Au 12.7747 6.91996 12.8412
Pt 13.0161 9.09617 11.0968
Au 13.3059 3.74699 17.6577
Pt 11.0849 11.0022 19.0609
Au 15.7346 3.66234 19.1979
Pt 12.7454 8.96333 14.8673
Au 14.639 3.47564 15.0704
Pt 11.7898 8.6818 19.8784
Au 8.96968 7.71219 21.3995
Pt 14.1789 10.3712 19.8353
Au 8.89892 5.15003 20.5119
Pt 13.5216 8.69502 23.8356
Au 15.7035 9.10387 25.5135
Pt 16.2452 13.1599 24.0496
Pt 11.3209 13.1617 5.2495
Au 17.7064 8.32039 4.77157
Au 9.36725 11.3088 5.15044
Pt 11.2582 13.1099 9.09158
Au 13.188 11.0935 9.15139
Pt 13.2827 13.0285 7.12345
Au 11.1057 11.1376 11.0235
Pt 11.1601 12.9778 13.1682
Au 13.0576 11.0134 13.1073
Pt 13.215 12.9587 11.165
Au 13.0225 10.5372 17.1851
Pt 11.1334 12.8294 17.182
Au 14.9425 12.5785 17.2999
Pt 13.0619 12.8185 15.2237
Au 13.0721 12.7213 19.3926
Pt 10.9769 12.8099 21.2372
Au 14.8429 12.4662 21.6671
Pt 14.9856 14.6122 19.461
Au 15.7695 11.7626 26.386
Pt 10.8903 14.8587 23.1021
Au 13.9876 13.8942 25.8985
Pt 12.9384 14.6833 21.3334
Pt 9.51224 15.2811 5.3692
Au 11.3871 15.174 3.51131
Au 7.49575 13.5076 5.18707
Pt 11.6847 19.0357 7.34547
Au 13.3966 14.9307 9.13398
Pt 13.522 16.9596 7.09921
Au 11.3645 14.9814 11.1885
Pt 11.4295 16.8254 13.2614
Au 13.2705 14.7949 13.2612
Pt 13.4862 16.785 11.2519
Au 11.2037 14.8605 15.2564
Pt 11.2272 16.6803 17.3016
Au 13.1374 14.7112 17.3426
Pt 13.3282 16.6499 15.3444
Au 10.9873 14.6692 19.276
Pt 11.057 16.7392 21.2086
Au 14.9116 16.6234 21.4675
Pt 13.1144 16.609 19.3637
Au 9.19877 18.885 24.8451
Pt 11.0548 18.8046 23.0571
Au 11.2183 13.8565 25.5695
Pt 12.7998 16.7899 23.3334
Pt 9.8605 21.0725 7.47959
Au 11.7765 21.0654 5.56948
Au 9.70233 19.2322 5.38855
Pt 11.7619 20.9414 9.37224
Au 13.6348 18.8309 9.28861
Pt 13.7253 20.9054 7.46193
Au 11.5907 18.8496 11.2943
Pt 11.6759 22.7467 15.318
Au 13.5405 18.6592 13.3512
Pt 15.7388 22.629 11.5031
Au 11.4624 18.7028 15.298
Pt 11.4764 20.7588 17.2484
Au 13.3425 18.5787 17.3138
Pt 13.5732 20.6595 15.3482
Au 11.262 18.6895 19.2219
Pt 11.2652 20.763 21.1759
Au 13.1113 18.6838 21.3283
Pt 11.4823 22.6454 19.2187
Au 9.18663 18.8193 21.0868
Pt 7.42064 20.884 20.9329
Au 13.3253 24.391 23.2427
Pt 13.0596 20.74 23.2525
Au 11.887 22.9885 7.52393
Au 5.83021 23.09 13.3044
Pt 11.8031 22.8097 11.4143
Au 9.92771 24.8995 11.4225
Pt 9.9589 22.9301 9.48083
Au 13.6925 20.7655 11.3653
Pt 11.8178 24.6953 13.3919
Au 13.7303 22.6748 13.4261
Pt 13.8928 24.5996 11.5392
Au 13.8502 26.5223 13.515
Pt 13.7288 26.2612 17.4228
Au 13.5858 22.5735 17.3255
Pt 13.7565 24.5361 15.4078
Au 11.7206 26.529 19.2752
Pt 11.4895 24.4868 21.1522
Au 13.5202 26.3001 21.3165
Pt 13.5515 24.4241 19.3559
Au 9.85503 26.5869 17.2736
Au 11.1624 22.6885 23.2319
Pt 13.318 22.5451 21.2859
Pt 13.1616 9.18988 7.21975
Pt 15.0003 5.33597 9.25242
Pt 15.0168 7.20029 7.25015
Pt 14.5088 4.61056 12.296
Pt 16.9613 5.21812 11.085
Pt 15.1416 5.51095 17.0708
Pt 14.8791 6.11743 14.3041
Pt 15.6334 5.21294 21.9234
Pt 17.7043 5.21673 18.2503
Pt 15.5397 7.17962 23.6281
Pt 17.9624 8.28872 23.9992
Pt 17.2031 10.9221 5.35772
Au 15.2434 12.9004 4.97209
Au 13.0103 7.18746 5.45146
Pt 13.0484 7.36762 9.11396
Au 19.6984 7.98356 6.62719
Pt 17.0668 8.98753 7.25117
Au 14.9777 7.05846 11.1832
Pt 14.931 8.85326 13.1135
Au 17.1778 7.0604 13.054
Pt 17.111 8.99109 11.1524
Au 15.2997 8.30779 15.7618
Pt 14.3028 8.34075 18.268
Au 17.0217 7.75176 17.7241
Pt 17.9659 8.59394 15.2709
Au 15.5738 6.36367 19.594
Pt 13.9139 7.7677 21.2169
Au 18.189 4.88493 20.8812
Pt 17.041 7.43026 21.5244
Au 13.1575 5.97023 23.086
Pt 15.5951 9.62192 22.2568
Au 17.8488 5.67756 23.4867
Pt 17.213 10.7765 24.0414
Pt 13.3672 14.9816 5.29947
Au 17.4427 14.7491 5.08048
Au 15.1859 11.0242 7.095
Pt 15.2497 12.9256 9.11133
Au 17.1693 10.9618 9.19613
Pt 17.2518 12.8717 7.16321
Au 15.1731 10.9686 11.2367
Pt 15.2125 12.8246 13.2412
Au 17.1346 10.687 13.3456
Pt 17.2664 12.8001 11.2499
Au 14.9915 10.8662 15.1267
Pt 17.021 14.42 17.4229
Au 16.9861 10.612 17.1607
Pt 17.1123 12.7173 15.3197
Au 16.5604 12.3576 19.4294
Pt 16.6211 14.6107 21.7303
Au 17.9105 12.344 21.8284
Pt 18.6868 14.1644 19.6736
Au 16.6283 14.8311 26.127
Pt 14.4644 14.8445 23.4975
Au 20.6271 18.2677 25.7358
Pt 18.5492 14.4779 23.9099
Pt 11.4698 17.1672 5.38157
Au 15.597 16.9554 5.11196
Au 15.4061 14.872 7.03632
Pt 15.4357 16.7288 9.15626
Au 17.3138 14.7397 9.22844
Pt 17.4485 16.6936 7.23733
Au 15.3041 14.7509 11.2397
Pt 15.3757 16.5783 13.3587
Au 17.2832 14.6157 13.3208
Pt 17.3545 16.5544 11.2926
Au 15.1924 14.6383 15.3417
Pt 15.2394 16.4857 17.4001
Au 19.0764 16.193 17.5283
Pt 17.3233 16.4002 15.4291
Au 17.038 16.3514 19.5149
Pt 16.6304 16.5053 23.7191
Au 18.7736 20.2959 25.5242
Pt 16.9188 18.4473 21.6569
Au 14.4803 16.7088 25.5477
Pt 9.24734 20.7928 22.9046
Au 10.8119 16.6579 25.1428
Pt 14.8669 18.6228 23.4743
Pt 17.5836 20.6805 7.54169
Au 13.3742 16.9883 3.56868
Au 13.6453 19.0791 5.27715
Pt 19.7158 22.6395 11.34
Au 17.4626 18.5699 9.35234
Pt 15.5328 18.7611 7.33557
Au 15.5633 18.6586 11.3626
Pt 15.6073 20.6134 13.4152
Au 17.426 18.4105 13.4316
Pt 17.6654 20.6169 11.4576
Au 15.3996 18.4874 15.4057
Pt 15.4147 20.5255 17.3997
Au 17.3214 18.3794 17.4536
Pt 15.6297 22.526 15.4392
Au 15.226 18.4874 19.3823
Pt 15.1744 20.5231 21.4514
Au 12.6603 18.8485 25.2206
Pt 19.2692 22.2786 19.7765
Au 14.8427 20.6631 25.2758
Pt 15.1773 22.4649 23.2798
Au 16.6078 18.5713 25.632
Pt 16.9506 20.4627 23.5297
Pt 17.6782 22.6181 9.53119
Au 18.1374 26.492 10.2821
Au 15.6743 20.8147 9.35706
Pt 13.8289 22.7891 9.47753
Au 15.9209 24.6718 9.58076
Pt 20.203 25.5015 11.7381
Au 12 24.8008 9.59488
Pt 15.8406 24.5005 13.5586
Au 17.4463 20.3771 15.4951
Pt 17.6693 22.3823 13.5219
Au 15.7877 26.5232 15.5141
Pt 15.6351 24.4259 17.4933
Au 17.6244 26.3667 17.6269
Pt 17.7606 24.3471 11.6766
Au 13.3652 20.5993 19.3021
Pt 15.4037 22.4679 19.4662
Au 17.2484 20.4096 19.547
Pt 17.3834 22.3613 17.5625
Au 15.5575 26.3711 19.4811
Pt 15.4089 24.3586 21.3806
Au 21.571 24.1214 20.2228
Pt 17.2085 22.3717 21.5582
Pt 16.9505 7.1144 9.23111
Pt 16.8559 4.30034 13.6302
Pt 19.0628 7.02175 11.1512
Pt 16.9393 3.56606 16.3328
Pt 19.2515 4.3463 15.1026
Pt 19.6917 7.20121 22.1158
Pt 18.8816 7.32014 19.6466
Pt 19.11 10.7784 7.28957
Au 19.7719 10.1562 4.8028
Pt 19.0642 8.84982 9.14144
Au 17.4716 6.31095 6.6954
Pt 19.2394 12.7332 5.41232
Au 19.268 4.60052 12.3688
Pt 19.3473 9.02064 13.0479
Au 21.5884 6.24175 11.7259
Pt 21.0803 8.86002 11.0123
Au 17.2755 6.02849 15.5464
Pt 19.3339 9.12792 17.8135
Au 19.3074 3.27084 17.5415
Pt 19.5557 6.49675 16.736
Au 16.7004 9.49266 19.7435
Pt 20.649 9.38847 23.4441
Au 21.921 6.67293 20.6953
Pt 20.8159 9.03224 20.2399
Au 19.2194 10.0149 25.6952
Pt 18.284 12.6046 25.7922
Pt 22.4563 11.4875 23.7126
Pt 19.2727 14.7171 7.25056
Au 21.2266 14.623 5.48414
Au 19.3277 5.99521 8.71428
Pt 19.2724 12.8183 9.14296
Au 21.7224 9.86452 6.75473
Pt 21.164 12.5416 7.18003
Au 19.1825 10.8747 11.1765
Pt 19.2086 12.6787 13.2279
Au 21.3835 10.9407 13.3661
Pt 21.2201 12.7407 11.1086
Au 19.1576 10.9925 15.3511
Pt 19.1285 12.7006 17.4089
Au 21.6552 10.4736 17.8568
Pt 23.1097 9.58432 15.6695
Au 19.088 11.1556 19.5038
Pt 20.2471 14.0364 21.8907
Au 20.9743 11.2949 21.572
Pt 21.2139 12.9342 19.5401
Au 18.5592 9.68516 21.8171
Pt 19.7136 11.9417 23.7533
Au 21.0861 12.0376 26.0204
Pt 21.6011 13.929 24.1444
Pt 17.5613 18.7818 5.6257
Au 21.3139 18.6644 5.50164
Au 19.3865 16.7359 5.2416
Pt 19.45 16.5272 9.23679
Au 21.5338 14.5351 8.92702
Pt 19.4466 18.5924 7.46719
Au 19.3813 14.6863 11.2438
Pt 19.3147 16.3648 13.4284
Au 21.3098 14.3947 13.3872
Pt 21.6093 16.3144 11.1931
Au 21.4927 12.3396 15.673
Pt 19.2263 14.4029 15.3647
Au 21.1984 14.5167 17.4938
Pt 21.261 16.2633 15.4694
Au 18.7176 16.3098 21.7558
Pt 18.7116 18.3788 23.629
Au 20.7859 16.0087 19.8198
Pt 25.1692 12.7866 19.6388
Au 19.9987 14.5899 26.3148
Pt 20.4895 16.303 23.8168
Au 23.0388 19.9732 22.0582
Pt 20.8538 18.1509 21.8707
Pt 19.5676 22.3783 7.65482
Au 19.6655 24.5096 9.26
Au 19.4456 20.6746 5.57457
Pt 19.455 20.4524 9.4737
Au 21.4627 18.4003 9.35588
Pt 21.4889 22.327 9.45304
Au 19.4424 18.283 11.388
Pt 19.3542 22.2708 15.6395
Au 21.5442 17.8871 13.3063
Pt 21.6445 20.8777 15.811
Au 19.511 18.3372 15.5281
Pt 17.5743 24.3883 15.6106
Au 21.086 18.1468 17.8378
Pt 24.6171 20.449 15.7857
Au 19.0295 18.2742 19.7435
Pt 18.9752 20.2973 21.7107
Au 21.1163 20.118 19.9473
Pt 22.8705 17.9233 20.0235
Au 19.013 22.3008 23.6549
Pt 21.0337 22.0204 21.8061
Au 19.1983 24.2571 21.6713
Pt 21.8285 25.073 17.67
Au 22.2976 24.6707 10.2999
Pt 22.4886 24.3863 12.8822
Au 25.2573 23.413 12.4103
Au 19.5502 20.1774 13.5278
Pt 19.5436 24.2566 13.7904
Au 23.8164 25.0453 15.3754
Pt 21.1343 22.2132 13.4194
Au 15.8997 26.4742 11.7105
Pt 19.3914 24.0214 17.6972
Au 19.4279 20.3835 17.6412
Pt 19.6992 25.8982 15.9664
Au 21.4226 26.3784 14.132
Pt 17.4322 24.301 19.5577
Au 25.9492 22.7508 15.38
Pt 21.3516 22.3633 18.1107
Au 19.699 25.9504 19.4222
Pt 19.8691 6.62398 13.9912
Pt 20.3073 5.2778 19.0679
Pt 22.213 6.66707 15.371
Pt 21.0459 10.7607 9.17689
Au 21.5521 7.64579 8.73728
Pt 22.0825 8.35299 13.3591
Au 23.7466 8.13798 11.3005
Pt 22.9152 10.8029 11.1673
Au 20.6743 8.79448 15.5942
Pt 21.5786 7.40617 17.9565
Au 24.49 7.5703 14.1752
Pt 24.2334 10.1371 13.268
Au 21.5146 4.60902 16.7801
Pt 23.2715 8.65123 19.3626
Pt 23.1594 11.1288 20.0277
Pt 21.3394 16.622 7.2696
Au 23.3698 12.4159 8.89445
Pt 23.2969 14.2884 11.0401
Au 23.4841 9.55968 8.90853
Pt 23.3992 16.4982 9.2217
Au 25.2576 11.9479 10.9485
Pt 24.3683 11.8528 15.5187
Au 25.8533 9.60609 15.4516
Pt 23.561 12.7872 13.1977
Au 24.8323 10.3333 17.9316
Pt 23.3326 12.7028 17.7882
Au 24.1947 7.60803 17.0247
Pt 25.658 14.066 14.7793
Au 22.9724 9.22972 22.0498
Pt 22.8988 13.3216 21.7944
Au 24.0316 15.1088 23.8558
Pt 25.1081 14.679 17.5758
Au 22.275 15.9799 25.7816
Pt 18.4984 16.6454 25.5712
Pt 22.4021 15.9239 21.9753
Pt 21.3851 20.4557 7.52903
Au 15.7497 20.8506 5.64734
Au 25.3117 14.496 9.44616
Pt 25.6921 14.2048 12.2105
Au 26.3258 11.7802 13.5609
Pt 23.3207 20.3954 9.342
Au 27.5518 14.9413 16.2874
Pt 23.661 15.7804 13.3305
Au 26.7987 16.3466 13.5973
Pt 25.136 16.5485 11.285
Au 23.2098 14.4566 15.5988
Pt 23.197 16.5135 17.6659
Au 26.4911 12.4363 17.0833
Pt 25.1119 16.5615 15.7278
Au 27.1261 14.647 19.1744
Pt 23.2733 14.7892 19.6445
Au 24.7366 11.5213 22.1271
Pt 25.2116 16.6332 19.5388
Au 22.7395 17.9625 23.9602
Pt 20.7895 20.0791 23.6563
Au 24.6653 17.4283 22.0652
Pt 23.1982 21.8109 20.0152
Au 24.2186 22.9813 9.43908
Pt 21.2797 20.2846 11.3522
Au 23.3799 18.5048 7.34127
Au 23.5354 18.6458 11.3141
Pt 22.8909 20.1289 13.5513
Au 25.3519 18.4631 9.3244
Pt 23.177 22.0351 11.6275
Au 22.8854 18.3799 15.7256
Pt 25.0076 18.5645 17.593
Au 27.1194 17.0758 17.7071
Pt 24.6773 18.171 13.6787
Au 25.3405 14.68 21.4989
Pt 23.5714 22.7151 16.8669
Au 25.0035 19.5506 20.1295
Pt 23.0112 20.131 18.0253
Au 24.0051 24.0931 18.9558
Au 18.0384 26.4525 13.5791
Pt 23.6 22.5313 14.3085
Au 26.5986 18.7151 11.9295
Au 25.5747 20.9611 10.6999
Pt 21.4699 23.811 15.5405
Au 26.7271 18.7461 15.3007
Pt 25.4481 20.7798 13.3224
Au 25.4713 21.4742 18.2222
