561
Atoms. Timestep: 20949
Pt 10.7966 16.4285 11.8718
Au 18.4751 24.9523 19.7878
Pt 18.4537 20.7439 14.6242
Au 3.9815 14.6724 20.3924
Pt 14.9043 20.4353 12.1924
Pt 15.46 14.1583 17.0413
Au 2.56857 16.3765 12.5609
Pt 24.016 11.0308 18.317
Au 24.0184 11.6238 23.0382
Pt 18.2026 19.4423 8.03277
Au 18.7775 23.8955 9.95949
Pt 15.4755 20.144 8.14428
Au 20.9175 19.7232 7.29521
Pt 24.7549 15.4234 17.2322
Pt 19.0711 22.0238 11.9252
Au 13.0175 13.9772 5.14091
Au 18.8771 10.5813 24.5664
Pt 17.4512 16.0022 17.289
Au 12.0094 25.6423 9.41523
Pt 10.6235 18.8603 10.8051
Au 5.81397 8.97272 19.5929
Pt 20.2863 18.676 15.2625
Au 7.22365 8.98917 10.4545
Pt 7.98669 22.119 16.5072
Au 8.06237 7.8161 21.2476
Pt 22.5998 11.9625 20.8055
Au 4.65476 20.5268 12.262
Au 14.4303 11.5985 4.62578
Pt 11.1523 14.1603 13.0394
Au 14.2947 21.8379 21.5257
Pt 15.0706 14.62 24.189
Au 24.7795 7.9068 15.8074
Pt 15.6621 10.8963 20.2975
Au 21.3785 4.17221 16.7654
Au 14.0729 26.5436 14.4022
Pt 15.6628 17.1246 22.1885
Pt 18.1039 19.2588 21.3624
Pt 15.2336 13.4127 6.5709
Pt 12.8616 18.6601 17.5777
Pt 7.13179 16.4172 9.40979
Pt 20.7974 16.9241 13.2938
Pt 20.0663 14.7463 18.0668
Au 11.3043 16.3255 25.4678
Pt 15.748 16.284 19.5719
Au 7.90498 10.2975 7.98026
Pt 11.1678 13.9132 15.6468
Au 27.5047 16.5622 14.4426
Pt 14.8118 9.67796 15.8462
Au 10.2725 14.6903 5.18908
Pt 7.14101 19.5103 12.9377
Au 12.1909 5.36462 18.1431
Pt 14.8047 10.1728 22.7633
Au 9.03277 12.3251 6.11575
Pt 13.2661 23.7458 14.8447
Au 22.5932 21.3656 12.5105
Pt 13.4554 17.4615 19.9167
Pt 7.64817 11.7601 11.1337
Pt 17.597 15.5233 24.1385
Au 25.4582 22.3482 19.0217
Au 5.53248 10.1644 12.291
Pt 19.7474 9.32069 12.733
Au 11.336 6.26612 9.78168
Pt 4.5683 14.7469 13.3087
Au 12.3755 25.5306 12.3783
Pt 24.9624 11.3151 12.973
Au 12.3132 5.43044 20.8998
Pt 8.74222 22.7226 13.9801
Au 13.8082 17.9367 14.9184
Pt 11.2221 13.3373 7.26537
Au 26.6742 15.0567 19.1637
Pt 5.99168 12.256 14.0032
Au 16.6038 3.85507 17.5274
Pt 16.7763 12.1103 23.2152
Au 18.6282 5.95389 10.5059
Pt 6.45578 16.9354 19.4922
Au 11.3525 7.53573 7.23789
Pt 23.0735 11.5673 8.84344
Au 21.5031 13.7344 25.9798
Pt 23.5681 14.1366 9.55385
Pt 12.2388 11.0958 22.7191
Au 26.2139 19.9311 17.8695
Au 6.98667 24.5108 14.9557
Pt 17.1301 13.5118 11.0336
Au 22.2789 10.5188 6.31714
Pt 22.5975 12.8101 11.5976
Au 19.5891 24.8032 12.4315
Pt 11.8248 11.6966 9.27265
Au 26.6022 9.52747 14.287
Pt 10.5135 11.494 17.0798
Au 2.00795 16.8 15.3378
Pt 10.8299 22.1074 15.6613
Au 4.97849 23.4327 13.3422
Pt 22.9135 18.641 13.558
Au 16.1792 10.114 25.151
Pt 15.6012 9.64861 11.2645
Au 26.5636 12.0857 15.1827
Pt 6.3342 21.5263 14.5965
Au 9.19248 7.9306 8.69941
Pt 11.8176 15.9623 7.49443
Au 26.0441 15.4997 9.46247
Pt 17.0261 21.68 20.902
Au 9.27493 22.2929 21.5986
Au 19.9435 21.9393 8.55667
Pt 22.0009 9.07538 16.7227
Au 21.0191 23.8844 20.5582
Pt 19.2452 14.8024 7.48735
Au 13.8916 5.4319 10.8856
Pt 15.2906 8.25557 20.8984
Au 2.99979 21.8763 17.3815
Pt 8.65103 12.6198 18.549
Au 4.69309 17.4661 8.54542
Pt 20.4101 12.5164 6.66889
Au 22.9836 13.4879 6.8412
Pt 17.7416 12.8523 6.48574
Au 20.4345 17.9388 25.5974
Pt 22.3724 17.1923 15.8242
Au 24.1923 7.4657 10.5107
Pt 8.3958 13.1053 13.236
Au 7.41555 12.0473 23.8278
Au 24.1409 19.4499 11.1094
Pt 9.64649 10.1451 10.1675
Au 25.161 14.4055 11.9858
Au 16.5033 13.5324 4.10319
Pt 12.8222 21.0899 13.962
Au 16.1825 24.3952 15.9446
Pt 15.2483 12.1104 9.42243
Au 22.3665 16.0275 25.1394
Pt 15.5678 19.105 20.3547
Au 11.8855 5.46789 15.2791
Pt 8.356 20.3665 10.816
Au 14.3368 18.408 4.76552
Au 21.5968 11.5003 24.5854
Pt 24.0874 20.1041 19.5911
Pt 10.4109 21.1593 9.39764
Pt 9.15184 15.5932 13.9938
Pt 23.4538 13.0802 14.0234
Pt 20.0403 12.3266 19.6146
Pt 12.8215 20.7908 8.45902
Pt 21.0026 14.1085 13.6445
Pt 10.3952 9.06308 18.2649
Pt 19.9303 11.523 13.9596
Pt 11.9161 23.3118 10.4936
Pt 16.2009 16.6516 14.9819
Au 22.7587 18.3976 23.9272
Au 7.06613 17.283 6.77143
Pt 14.4431 16.5254 17.1015
Au 14.4073 24.9098 10.5464
Pt 24.218 19.5856 15.8132
Au 2.08137 14.2365 14.3264
Pt 11.0453 18.7667 8.1445
Au 13.1606 11.2834 26.9508
Pt 17.8066 23.3689 13.9365
Au 17.969 8.39022 5.45963
Pt 6.80465 14.36 19.9297
Au 25.5565 11.9695 20.665
Pt 19.1395 15.083 10.0664
Au 16.9698 12.8941 25.723
Pt 5.34126 12.9743 11.5714
Au 12.9627 7.76882 22.4162
Pt 8.24052 17.4628 11.5524
Au 25.0499 23.8655 16.8332
Pt 4.86521 18.1123 17.4824
Au 18.2717 18.3352 23.9565
Pt 20.3235 16.5077 20.1897
Pt 17.7253 10.4721 18.6418
Au 17.0439 5.21519 19.8305
Au 6.28194 10.2428 21.9176
Pt 12.1755 21.3451 17.8875
Au 14.0921 23.9127 19.4143
Pt 11.3669 15.919 20.1238
Au 7.45124 23.6189 9.76899
Pt 4.61103 15.5334 17.9561
Au 10.1464 6.61437 19.6593
Pt 11.9596 13.4927 21.1823
Au 27.6011 13.9822 13.4466
Pt 9.74111 18.2224 13.5399
Au 11.7288 5.95748 12.4591
Pt 9.49978 17.5669 16.3041
Au 19.9961 10.3593 4.86538
Pt 12.798 7.79989 14.2207
Au 23.8172 22.5848 14.6899
Pt 8.99075 14.5187 11.0315
Au 20.8895 6.71842 9.08374
Pt 4.44517 13.8008 15.7525
Au 10.365 6.71789 22.3935
Pt 24.3501 12.9069 16.5321
Pt 17.4839 6.29421 17.0739
Au 4.13788 13.4124 9.0925
Au 7.59267 14.8 5.64178
Pt 5.29406 19.1072 14.9667
Au 25.2115 9.6783 8.81814
Pt 15.4611 22.0763 14.331
Au 4.0073 17.4762 20.3206
Pt 9.65738 9.40781 15.5199
Au 9.76525 14.1603 25.0233
Pt 4.62509 16.5138 15.294
Au 5.07996 22.303 19.2104
Pt 19.9926 10.8696 17.3121
Au 3.9012 12.87 18.415
Pt 9.86971 16.6549 9.3498
Au 18.2413 25.806 17.0639
Pt 8.64068 20.0619 15.0279
Au 11.6394 11.5862 5.17444
Pt 8.75822 10.1103 12.8322
Au 21.3384 22.6654 22.9159
Pt 5.73365 19.579 19.5219
Au 22.6688 24.764 15.9785
Pt 16.1934 17.9894 6.81962
Pt 7.99149 12.2133 21.1946
Au 21.0846 5.19568 11.3334
Au 15.9463 7.19596 9.93064
Pt 13.7761 22.9638 12.3076
Au 10.1186 6.83513 16.8334
Pt 21.8025 13.7783 23.0318
Au 14.3945 4.16024 19.3218
Pt 13.3671 11.6986 7.26151
Au 26.1036 21.6511 15.8297
Pt 19.932 21.186 21.2778
Au 15.8612 10.7389 6.86527
Pt 17.6659 20.3302 18.7959
Au 20.1046 11.4464 22.2359
Pt 24.9572 17.2232 15.2935
Au 24.1827 9.67108 20.731
Pt 6.92556 22.0924 12.0901
Au 10.0282 12.5839 22.8858
Pt 12.7431 10.1836 17.959
Au 26.1253 18.0274 10.1611
Pt 21.9454 11.6481 15.7025
Au 22.0081 7.88336 20.5776
Pt 17.5837 12.4842 13.442
Au 17.6377 26.0904 14.1466
Au 16.4003 4.58842 14.8009
Pt 18.6349 23.0919 16.4501
Au 22.9414 6.01199 15.6892
Pt 7.3722 19.0323 17.168
Au 22.1817 9.7286 22.544
Pt 13.4766 18.3524 7.37296
Au 12.6347 23.436 7.90786
Pt 8.31204 18.8167 19.7547
Au 16.1569 22.5313 23.4639
Pt 13.3829 12.2745 19.3443
Au 5.56771 15.129 7.53269
Pt 19.6275 15.9064 15.4579
Au 9.58202 23.0447 18.7301
Pt 15.7584 17.3946 24.7304
Au 14.8948 5.74765 21.5033
Pt 14.9347 21.1801 18.8704
Au 8.10939 21.5748 8.09613
Au 16.5347 15.4432 26.6407
Pt 13.5702 18.9386 22.4215
Pt 19.6004 19.9109 10.2697
Pt 20.5522 18.3518 22.1612
Pt 22.4288 18.1569 20.0931
Pt 15.5 11.5635 17.6026
Pt 16.9773 9.83367 13.8537
Pt 12.8197 7.72452 16.8554
Pt 21.7178 8.07491 11.3835
Pt 15.1985 7.03138 15.7848
Pt 22.3411 16.05 18.2569
Pt 11.6542 16.1254 17.2869
Pt 12.9612 13.302 11.2718
Pt 12.4961 13.9022 23.8332
Au 6.62554 12.6508 7.2719
Au 13.8714 25.6766 16.9973
Pt 16.5873 18.792 10.196
Au 8.98728 19.5432 22.4231
Pt 13.8942 19.0361 10.1623
Au 4.28759 9.87032 14.8185
Pt 8.4461 10.0313 19.8968
Au 26.2495 9.36195 11.3195
Pt 20.3971 22.5025 14.1883
Au 7.91999 14.5607 22.9962
Pt 24.2226 13.6872 19.1629
Au 18.2366 7.39 8.08679
Pt 21.4441 15.3665 11.1782
Au 14.1944 4.58515 16.4718
Pt 21.921 20.6755 15.1745
Au 19.298 12.9689 4.26598
Pt 13.389 7.96748 11.4296
Au 27.5149 16.1444 11.7034
Pt 21.249 22.6784 16.8377
Au 27.3316 14.5057 16.4404
Pt 15.7039 13.5361 19.6302
Pt 17.0421 9.76319 9.12149
Au 23.1133 6.08976 12.7982
Au 19.3234 15.3544 26.2219
Pt 15.2173 12.1433 12.2001
Au 11.2145 11.5381 25.1511
Pt 12.8067 7.67328 19.522
Au 21.2556 23.082 10.8834
Pt 11.239 23.2567 13.2138
Au 7.68715 7.43475 15.6701
Pt 18.4961 10.3587 7.06534
Au 12.0926 13.7972 26.4696
Pt 18.3087 21.044 23.3887
Au 16.0382 25.7365 18.6725
Pt 12.3285 20.9025 11.2605
Au 11.8354 22.7282 20.3227
Pt 12.5236 18.5977 12.6638
Au 9.81221 25.3142 10.9114
Pt 13.5624 14.1459 8.52846
Au 14.2503 12.0707 24.7059
Pt 12.8418 19.9812 20.0537
Au 15.4288 9.06885 4.72038
Pt 18.4342 12.2862 9.04229
Pt 19.6076 8.18133 17.954
Au 8.87171 10.0265 22.7665
Au 5.6094 8.59302 16.8725
Pt 15.0426 6.47873 18.4188
Au 15.0156 22.5595 7.03293
Pt 13.315 15.9115 12.6063
Au 20.613 24.9768 18.0033
Pt 21.6794 15.5521 8.35177
Au 9.39332 24.4809 16.2743
Pt 11.1829 14.3916 9.75468
Au 26.9676 19.123 15.2491
Pt 10.5006 12.0814 11.6193
Au 11.6046 20.9212 22.4652
Pt 11.0708 13.7233 18.4226
Au 15.7457 7.97007 7.16767
Pt 21.7452 10.0851 19.1534
Au 20.1369 17.7102 4.25656
Pt 20.3756 19.7932 12.863
Au 13.8899 21.0364 24.1626
Pt 17.9067 17.7272 19.2064
Au 17.3464 10.9458 4.45722
Pt 5.42504 20.7851 17.0467
Pt 9.19705 12.4817 8.99598
Au 17.8818 8.09722 24.4552
Au 21.9487 8.09773 14.2858
Pt 19.7385 12.9967 11.6486
Au 26.3319 16.0382 21.6812
Pt 17.3716 7.91034 19.3604
Au 23.0828 23.9327 18.6672
Pt 6.53479 13.7647 17.4273
Au 24.3598 14.1365 21.9408
Pt 19.9178 6.80548 13.079
Au 5.53292 13.0199 21.9716
Pt 21.7678 21.455 19.2713
Au 25.7361 13.2315 8.09883
Pt 7.04232 9.96273 14.8078
Au 5.76071 15.8805 22.0075
Pt 8.44317 18.7588 8.83455
Au 3.77218 10.1449 18.0672
Pt 14.2385 9.62158 8.92621
Au 27.5348 11.4903 12.365
Pt 24.1431 10.4167 15.3857
Au 25.2253 12.1028 10.4885
Pt 18.5926 15.1557 12.9469
Pt 20.6152 10.5763 8.4401
Au 13.8624 16.0156 26.2579
Au 19.4254 12.294 26.6165
Pt 11.7793 8.90047 9.56584
Au 18.855 4.0524 15.7544
Pt 16.611 14.4178 8.61917
Au 20.0854 25.0577 15.1439
Pt 18.2417 16.6732 21.7857
Au 15.1694 15.8778 4.11935
Pt 16.0576 19.426 14.5399
Au 22.1456 24.2146 13.2839
Pt 15.7084 14.6687 13.2498
Au 13.232 9.22659 6.33045
Pt 23.6072 21.569 17.2953
Au 13.3989 9.42586 24.9431
Pt 13.4565 14.8165 18.7958
Au 24.3824 8.48467 13.1126
Pt 6.81164 14.697 14.8733
Au 26.1279 9.9221 17.1099
Pt 11.314 9.4671 12.7078
Au 17.6776 22.0035 7.09262
Pt 18.0308 10.8463 11.3678
Pt 14.7991 14.8703 10.6916
Pt 9.78674 20.2354 17.4209
Pt 15.3961 7.71569 13.1981
Pt 10.2477 20.7015 12.9509
Pt 13.6704 14.7998 15.0526
Pt 21.7187 18.229 11.0772
Pt 21.8953 14.4069 20.3494
Pt 16.8739 16.2621 11.2549
Au 27.3711 18.7791 12.5688
Pt 20.1847 16.0387 23.6139
Au 23.9602 8.29824 18.3813
Pt 22.3148 10.5456 13.2666
Au 3.50402 18.2966 10.8587
Pt 17.3485 21.3748 9.73126
Au 17.2056 17.9156 4.34357
Pt 21.9856 12.8351 18.0299
Au 17.7901 17.7918 26.5484
Pt 10.2594 20.5152 19.9978
Au 17.0677 25.4092 11.4163
Pt 13.1754 9.99185 20.587
Au 2.72987 19.3282 16.3254
Pt 20.984 13.1807 9.23785
Au 8.79337 19.5543 6.32475
Pt 6.25853 11.6225 19.2012
Au 5.81565 21.3542 9.79419
Pt 19.8219 13.2328 15.95
Pt 8.84646 14.787 7.89514
Pt 7.88316 10.1298 17.3901
Au 7.2713 23.5189 20.3732
Au 25.2241 20.3386 13.429
Pt 14.1325 10.0221 13.4596
Au 12.2782 16.5935 4.87233
Pt 15.2465 17.786 12.5096
Au 19.3649 4.92499 18.3267
Pt 15.1004 9.03539 18.3706
Au 21.1915 4.56862 14.0816
Pt 13.8743 15.2732 21.4859
Au 3.34578 12.0174 13.3996
Pt 14.3564 15.9468 6.64543
Au 15.3708 7.69554 23.6939
Pt 15.9988 19.7808 22.9
Au 6.39869 18.4812 21.9185
Pt 13.1446 12.5516 16.6603
Au 27.55 13.587 10.6372
Pt 16.7611 23.151 18.4946
Au 9.95276 23.7561 8.58125
Pt 19.6843 20.5692 17.0773
Au 13.6065 6.97009 8.53535
Pt 12.5996 16.8118 9.95519
Pt 24.3072 17.9418 17.9459
Au 6.95114 24.1012 17.8379
Au 6.15952 19.64 7.75522
Pt 5.26041 17.45 12.7389
Au 7.24257 7.91365 13.0149
Pt 20.0565 17.4114 17.6132
Au 26.9769 17.1531 17.2298
Pt 6.88339 15.3121 12.2266
Au 2.93095 18.8307 13.6173
Pt 17.7345 16.8516 8.72594
Au 2.19531 14.6083 17.0415
Pt 19.4946 9.55123 20.317
Au 19.8808 8.34392 22.6628
Pt 7.29671 17.4024 14.5267
Au 26.5339 12.4475 18.1178
Pt 15.4278 24.6636 13.3304
Au 9.93326 7.23556 14.0512
Pt 20.9552 10.8188 10.9318
Au 3.58345 21.4037 14.7132
Pt 12.9031 12.3417 13.8024
Au 18.5192 15.5416 4.03931
Pt 16.547 14.4983 21.9461
Pt 17.8767 18.5546 16.4127
Au 2.72602 11.8246 16.0993
Au 21.8843 17.3619 6.35348
Pt 25.3353 14.7281 14.6893
Au 10.6127 10.2175 7.31843
Pt 14.0739 20.4121 16.1365
Au 24.6019 18.3463 21.8374
Pt 17.8151 12.2448 20.8202
Au 7.3171 24.704 12.2356
Pt 12.2094 10.135 15.3737
Au 16.1747 20.015 25.5002
Pt 17.6647 7.01415 14.4651
Au 2.69734 13.9109 11.4172
Pt 14.5651 22.0741 9.88417
Au 7.88531 7.60088 18.4393
Pt 15.088 16.8319 9.03862
Au 8.57892 16.7666 21.4585
Pt 13.2191 16.6447 23.5848
Au 13.5742 18.6885 25.4456
Pt 10.8263 15.5669 22.7241
Au 3.18037 19.7922 19.0059
Pt 11.5604 16.5493 14.6656
Au 23.5229 22.6136 20.9852
Pt 19.4928 9.11163 15.306
Au 27.395 11.1456 9.46911
Au 21.7684 6.5567 18.1879
Pt 4.77573 15.6676 10.6447
Au 26.3413 17.9693 19.7788
Pt 14.403 12.7216 21.9862
Au 13.3949 20.7959 5.833
Pt 22.2652 14.598 15.965
Au 16.0388 27.0747 16.1544
Pt 19.4572 8.78822 10.0041
Au 18.8151 20.2309 25.9044
Pt 9.42623 14.252 20.6311
Au 5.67593 11.0972 9.39696
Pt 10.7139 18.1662 18.8239
Au 22.1232 20.6962 9.7289
Pt 19.2968 22.4842 19.0136
Pt 11.1634 18.1353 21.5077
Pt 5.59429 11.4406 16.581
Pt 22.056 19.2983 17.5742
Au 25.2441 17.3085 12.6917
Pt 17.4606 14.2497 15.317
Au 10.9847 8.9376 23.927
Pt 9.42706 22.7455 11.3352
Au 9.02831 17.0271 24.0911
Pt 19.0112 17.2901 6.48416
Au 17.4628 9.6501 22.1652
Pt 16.4568 22.724 11.722
Au 9.53145 25.366 13.6089
Pt 6.95763 16.4329 16.9399
Pt 19.519 14.2123 21.6968
Pt 16.9844 15.5199 6.16434
Au 11.3761 19.0355 5.47282
Pt 13.0929 10.691 11.1916
Au 10.7545 21.5106 6.77409
Pt 11.4302 19.3777 15.3847
Au 20.4611 8.37644 6.82096
Pt 20.126 19.3102 19.4908
Au 18.7003 23.4784 22.1653
Pt 9.69034 17.0017 6.5324
Au 4.08773 11.1757 20.5837
Pt 8.18515 12.2587 15.7709
Au 19.6205 6.68035 20.3421
Pt 23.1524 15.7725 13.4395
Au 9.6107 7.67033 11.3969
Pt 10.3631 11.7007 14.3083
Au 14.6834 13.5058 27.009
Pt 8.96755 16.1514 18.7633
Au 20.9063 15.035 5.41069
Pt 10.7069 11.4676 20.0424
Pt 22.4683 16.3241 22.1539
Pt 17.7397 11.3697 15.9007
Au 17.4668 6.85026 22.036
Au 22.622 8.75336 8.6171
Pt 14.3319 22.8599 16.9764
Au 23.1307 18.2807 8.64966
Pt 15.3293 12.3438 14.9526
Au 16.1789 24.177 21.1331
Pt 20.3079 17.6299 8.86315
Au 24.6518 16.2828 23.738
Pt 7.64269 21.2623 18.9119
Au 16.3412 5.41151 12.0985
Pt 23.5221 10.0512 10.9657
Au 4.9229 23.3393 16.2322
Pt 18.0362 14.9583 19.7152
Au 16.1615 20.3775 5.47563
Pt 6.12997 18.7318 10.4737
Au 20.7727 20.292 24.0761
Pt 8.98375 14.6946 16.6342
Au 24.184 15.9486 7.5542
Pt 17.2067 8.81756 16.5689
Au 11.2236 18.7187 24.1111
Pt 6.83135 13.8317 9.6356
Au 16.3401 23.9052 8.94117
Pt 14.1173 5.54635 13.7471
Au 11.8336 24.0181 17.5273
Au 18.6749 4.50345 13.0336
Pt 19.1098 17.5443 11.2676
Au 11.6214 25.7474 15.2363
Pt 15.6251 18.7489 17.6923
Au 23.8804 13.7685 24.666
Pt 18.2038 17.8047 13.7359
Au 6.79819 21.1156 21.4779
Pt 24.2422 16.1857 20.0475
Au 20.1142 6.47638 15.8713
Pt 23.7372 16.5255 10.6288
Au 19.2776 13.3481 24.1939
Pt 16.6642 21.2461 16.5493
Au 22.5362 20.3059 21.8849
Au 18.8599 19.8653 5.46615
Pt 17.8888 13.0836 17.9164
Au 3.38952 11.3224 10.782
Au 24.7455 11.2704 6.74398
Pt 17.666 7.99586 11.8906
Au 10.739 8.96291 21.0668
Pt 17.5487 19.9343 12.2473
Au 2.40552 17.1632 18.0797
