561
Atoms. Timestep: 20784
Pt 8.25398 15.3814 21.479
Au 18.0322 24.6979 22.2255
Pt 23.534 17.2497 13.1854
Au 5.83584 11.6391 22.092
Pt 13.7752 9.45752 14.7472
Pt 16.7519 10.4082 15.4438
Au 4.4039 13.1133 10.1838
Pt 15.8223 13.708 13.1225
Au 24.8711 7.15676 17.6285
Pt 18.4072 21.7218 15.5655
Au 8.46367 24.3478 19.8403
Pt 16.2163 17.4932 18.2846
Au 17.7036 4.20514 10.7327
Pt 11.8075 18.5197 20.8837
Pt 12.7349 20.4414 19.0953
Au 7.14863 24.3032 17.3194
Au 19.7089 4.60943 17.0275
Pt 19.9677 20.05 19.0296
Au 20.6858 17.2514 5.91513
Pt 7.06274 19.5795 16.0809
Au 8.68102 7.57812 9.57128
Pt 20.0688 23.7499 16.044
Au 10.5066 5.90463 20.0368
Pt 16.3019 8.9301 20.9681
Au 25.642 15.5654 20.1157
Pt 19.2304 15.6478 11.3201
Au 3.51971 14.7037 14.8765
Au 19.4183 25.7092 9.18603
Pt 6.10031 17.686 17.7506
Au 6.67083 17.6616 22.6895
Pt 23.0569 16.5141 21.5357
Au 17.8145 6.36909 20.9032
Pt 20.2314 12.304 15.8798
Au 15.5279 5.223 6.87858
Au 15.043 24.7571 16.7477
Pt 16.5416 9.97199 18.1737
Pt 15.9151 14.7887 5.63792
Pt 8.66126 10.4187 9.84059
Pt 17.9336 12.2869 17.1615
Pt 8.40555 21.9011 16.897
Pt 19.9969 15.9483 8.34617
Pt 16.3162 19.4985 8.16819
Au 22.4561 19.3685 25.086
Pt 5.93262 15.3877 16.3953
Au 21.677 14.5974 6.44035
Pt 14.1807 24.7001 14.2105
Au 22.2869 10.0075 22.5347
Pt 11.1884 21.3588 9.29486
Au 7.34085 17.3429 7.83351
Pt 9.23753 19.6748 20.9364
Au 6.04099 11.2817 8.89894
Pt 18.8401 9.39509 16.9033
Au 3.63621 13.7576 17.4788
Pt 20.9904 17.725 19.9172
Au 25.9081 9.69383 18.9143
Pt 10.5068 19.3335 18.5923
Pt 20.8067 9.47852 7.84253
Pt 17.5298 19.1916 15.1469
Au 23.1278 8.00972 14.7509
Au 6.30989 6.16853 14.3286
Pt 12.2592 7.6214 10.6754
Au 17.1372 15.8698 3.53261
Pt 15.3345 16.2202 13.9253
Au 10.5957 15.9818 24.9544
Pt 20.261 15.5138 18.2585
Au 8.48363 7.11826 21.5389
Pt 7.58746 20.6694 11.844
Au 19.7735 14.5708 24.4368
Pt 10.5583 14.6262 8.65842
Au 17.5871 6.98754 6.07143
Pt 21.9508 14.3793 16.5598
Au 6.38883 20.0835 21.0123
Pt 22.36 12.6687 11.5243
Au 23.7017 8.29259 19.9751
Pt 9.73822 19.5609 16.0813
Au 18.416 22.4405 6.43471
Pt 17.7968 15.3623 22.7281
Au 21.8024 24.2314 18.3465
Pt 19.7798 8.83642 10.1895
Pt 20.3575 13.6675 10.0613
Au 16.528 26.6603 18.2136
Au 13.4747 26.9122 15.8329
Pt 7.60366 15.6192 18.8671
Au 18.2976 13.3954 2.91199
Pt 17.6702 12.9423 5.37829
Au 15.8445 23.2606 22.0546
Pt 13.3305 7.95407 17.334
Au 19.7961 6.29255 19.0965
Pt 20.1026 16.7501 22.5715
Au 24.1729 9.25009 10.8388
Pt 8.84867 14.4688 12.3233
Au 7.32186 23.3161 11.971
Pt 14.4457 20.0646 11.3385
Au 2.29549 9.44375 16.2381
Pt 17.7288 24.7075 16.8039
Au 5.90961 6.77995 17.1625
Pt 9.96614 23.1062 14.9537
Au 10.8781 6.33295 8.8086
Pt 8.63997 17.5239 17.2697
Au 11.0838 26.8231 16.9532
Pt 9.73513 22.1436 12.3233
Au 22.3408 14.778 23.4665
Au 14.1359 26.9533 10.278
Pt 11.6966 10.322 13.2172
Au 22.8377 14.3496 9.02613
Pt 14.3325 24.7104 11.5502
Au 4.09903 15.3998 12.0495
Pt 18.5534 8.69491 19.4893
Au 25.0718 15.0814 22.8418
Pt 8.79727 11.3757 18.2662
Au 12.5592 24.9806 9.23655
Pt 15.8287 8.4548 13.5436
Au 11.4708 17.1696 17.1136
Pt 11.2785 15.5055 13.1255
Au 14.1241 19.0626 25.2703
Pt 7.8696 19.8616 18.5957
Au 27.8218 10.8937 17.2073
Pt 21.3327 17.2414 10.1214
Au 19.642 25.9414 18.1176
Au 23.182 5.64235 16.0798
Pt 19.5147 17.3561 15.0287
Au 20.4265 27.1809 13.3586
Au 21.9048 10.6973 5.66686
Pt 17.4027 24.2002 19.507
Au 23.5945 22.0038 18.829
Pt 13.9898 21.8047 20.9178
Au 25.9561 16.139 12.2514
Pt 19.7047 6.64466 11.8234
Au 8.72658 5.0483 13.7053
Pt 12.2466 15.097 18.9808
Au 15.8529 17.736 5.56262
Au 22.7721 23.852 15.823
Pt 17.0964 16.614 15.9337
Pt 9.79712 19.6708 10.8555
Pt 11.1708 15.7172 21.4573
Pt 20.1109 13.6117 13.149
Pt 10.8641 9.11418 8.78915
Pt 19.7997 11.1886 11.7835
Pt 13.6906 8.76726 9.06298
Pt 13.263 11.976 19.4072
Pt 19.2429 13.429 19.493
Pt 5.80765 10.7467 13.7745
Pt 14.3263 6.70171 12.2098
Au 13.2463 16.2804 25.6445
Au 16.4826 11.2474 3.26249
Pt 23.8809 14.5628 13.1602
Au 5.58009 15.2622 21.5608
Pt 18.1214 17.397 9.71511
Au 5.12891 20.0642 18.5088
Pt 8.17207 15.6893 9.80871
Au 14.3264 16.213 3.86078
Pt 18.6336 25.4024 14.4814
Au 15.4585 5.53302 9.79677
Pt 22.2918 12.6905 14.2713
Au 13.204 24.7454 21.1791
Pt 22.0244 10.3412 13.0305
Au 26.2155 18.2479 13.8804
Pt 13.6941 17.3587 12.0463
Au 6.93652 9.09733 22.4957
Pt 9.29988 17.0026 11.8161
Au 21.3264 24.5062 13.3854
Pt 16.2285 16.3893 7.96582
Au 26.6513 18.0469 19.3797
Pt 15.0188 18.372 15.7331
Pt 19.2264 10.4753 14.2079
Au 11.9682 9.11836 23.9523
Au 26.0987 9.01562 16.1199
Pt 21.9179 15.2625 11.6564
Au 19.0615 10.7676 3.76836
Pt 7.72444 9.45904 12.4967
Au 3.60249 19.896 13.4021
Pt 10.5652 11.9747 8.62198
Au 17.304 9.2457 24.657
Pt 13.9387 15.7481 9.34739
Au 9.50813 24.9005 12.8503
Pt 16.4484 22.4844 17.2735
Au 13.5323 12.1531 12.3956
Pt 11.7899 13.1244 21.2786
Au 19.7738 15.3887 4.14226
Pt 7.36463 11.0807 16.037
Au 20.8591 18.9506 8.10619
Pt 5.12451 15.2824 18.9537
Au 21.8268 5.6957 13.7062
Pt 10.1024 8.8477 11.5453
Au 7.24624 23.8867 14.6489
Pt 16.1256 14.0957 15.9724
Pt 15.144 15.4947 23.3062
Au 12.2648 21.0342 25.0031
Au 5.24388 8.21145 12.7244
Pt 18.2327 15.7019 6.24531
Au 20.0807 5.10006 9.61502
Pt 11.0522 13.5169 11.0892
Au 15.0883 24.238 8.86887
Pt 15.7534 12.608 18.5573
Au 15.8508 16.9621 25.4738
Pt 15.0043 12.2432 5.86342
Au 4.47959 18.101 11.5188
Pt 12.5724 13.5926 7.15623
Au 11.3595 18.3923 12.723
Pt 15.3136 17.9043 10.0711
Au 10.4836 23.8371 10.369
Pt 21.0115 22.2145 20.1773
Au 4.19421 7.74285 15.2556
Pt 15.9656 7.56472 8.15804
Au 10.072 22.052 23.6265
Pt 16.3659 15.8465 11.3277
Au 20.3781 23.3752 22.6667
Pt 19.3087 13.6 7.3795
Pt 8.64848 14.8406 14.9953
Au 21.0804 7.99117 20.9613
Au 27.0938 15.5719 17.7839
Pt 19.2043 14.7258 15.9144
Au 17.361 4.76076 18.816
Pt 20.1073 19.6729 16.292
Au 16.9139 19.4897 24.7439
Pt 14.2167 10.6175 17.1729
Au 16.1408 28.1362 11.6015
Pt 16.8079 23.5429 11.6857
Au 22.2351 5.47483 11.0567
Pt 13.6932 13.4181 17.111
Au 23.9788 16.5662 10.3471
Pt 21.3165 21.7584 17.3835
Au 19.7541 19.2771 24.3736
Pt 6.9932 13.2597 20.0623
Au 18.4201 21.6414 23.6062
Pt 8.7974 18.9685 13.4865
Au 24.1522 6.77028 12.4668
Pt 14.0828 9.3515 19.5134
Au 23.3091 22.3559 21.5648
Pt 10.9511 20.7252 14.2051
Au 15.8118 11.5054 25.1756
Au 8.72173 26.3843 18.107
Pt 12.0779 23.4603 12.6178
Au 13.1648 6.2559 19.3866
Pt 13.365 22.6084 10.3329
Au 13.7252 7.70343 21.7936
Pt 15.9706 21.7594 9.96501
Au 11.8686 26.0403 11.8059
Pt 12.4271 17.4168 23.3375
Au 7.973 15.8583 24.3118
Pt 17.6397 18.9741 20.061
Au 8.38284 6.34606 16.1751
Pt 15.2561 11.3838 21.0902
Au 23.4223 9.83773 7.88558
Pt 24.5676 14.1983 17.779
Au 26.3868 15.7569 15.0606
Pt 16.3796 21.4642 19.7095
Au 15.0961 19.9101 17.8709
Au 23.479 22.7581 13.3856
Pt 15.1803 18.0849 22.9765
Pt 19.8401 19.3231 10.7448
Pt 21.4337 15.6077 14.3322
Pt 11.2281 12.7625 17.9649
Pt 21.9501 8.09235 11.7482
Pt 11.3726 8.70744 15.4843
Pt 9.89827 24.0479 17.513
Pt 17.9266 6.74365 17.0892
Pt 12.1318 11.5708 15.6445
Pt 16.3532 25.7999 12.9164
Pt 23.5451 9.41933 17.4417
Pt 11.5963 16.1716 10.5906
Pt 21.0664 8.73117 18.3691
Au 9.22981 7.67477 13.908
Au 22.7387 23.6978 10.9012
Pt 14.0717 18.1088 7.74039
Au 12.3597 11.3598 5.23376
Pt 17.5559 15.0238 18.0987
Au 3.69189 16.7149 16.9999
Pt 16.2477 13.0821 23.0108
Au 14.2301 20.2052 6.04625
Pt 17.8525 12.6538 14.4234
Au 3.11184 11.153 18.1894
Pt 18.033 9.19077 8.00316
Au 22.4233 6.40361 18.5193
Pt 12.0428 23.0671 19.3516
Au 2.85269 12.0196 15.4407
Pt 20.4857 8.13711 13.8348
Au 17.0344 8.55381 3.88712
Pt 12.4318 24.4032 17.0911
Au 15.2009 5.46095 17.2742
Pt 22.7098 11.8953 16.9973
Au 22.2118 7.5668 9.18382
Pt 7.4785 13.5311 17.3164
Pt 14.7859 10.9894 9.86075
Au 25.3941 6.678 14.9271
Au 24.7273 10.4061 21.383
Pt 7.21089 17.1263 14.9269
Au 11.5956 13.324 25.451
Pt 24.7702 16.9626 17.6709
Au 24.1248 11.808 9.51529
Pt 15.8007 18.7037 13.1283
Au 13.0642 11.0422 25.4938
Pt 16.2065 11.0244 12.682
Au 26.1808 20.4538 15.4108
Pt 10.9398 11.611 23.3047
Au 12.9682 22.6613 7.59207
Pt 14.1664 15.9916 16.5681
Au 6.10585 19.2435 13.5298
Pt 11.1254 21.7111 17.0501
Au 14.3567 13.7871 25.4371
Pt 17.0834 6.31507 12.2889
Au 18.4289 12.1272 24.7715
Pt 14.7999 19.127 20.4959
Au 20.5082 12.8811 4.71798
Pt 15.7202 8.15996 16.297
Pt 9.73308 9.59907 21.859
Au 12.5021 4.82598 13.1514
Au 6.17588 7.79548 20.1012
Pt 13.7352 6.68759 14.9722
Au 24.2666 20.2019 13.4689
Pt 12.9031 11.0513 7.83845
Au 13.7047 26.2354 18.7306
Pt 15.1735 13.8145 7.97474
Au 23.8573 17.2668 24.0512
Pt 12.7699 17.1798 14.6841
Au 8.00515 20.062 23.3019
Pt 11.5036 10.0244 17.7972
Au 18.7005 27.4749 16.1612
Pt 16.1826 16.6659 20.903
Au 17.2398 3.95656 16.1746
Pt 20.7156 17.5127 12.6853
Au 20.3629 23.2376 8.10123
Pt 10.7836 7.23493 17.6746
Au 11.0658 25.6329 19.47
Pt 21.5348 12.4673 21.5333
Au 22.6812 16.8109 7.77641
Pt 9.70395 15.0505 17.4671
Pt 11.642 25.023 14.7213
Au 8.91679 13.225 25.3594
Au 10.5465 23.857 21.5752
Pt 13.113 13.1152 9.65432
Au 15.3156 5.64957 20.8055
Pt 17.4617 10.7761 22.5567
Au 19.7628 20.0757 5.91488
Pt 11.5475 14.6787 15.8355
Au 18.4773 16.9419 25.0032
Pt 17.2974 10.5479 10.3364
Au 8.19606 22.2029 21.5969
Pt 9.61365 21.8869 19.3136
Au 17.8321 5.01153 8.06308
Pt 9.05944 9.03855 16.7043
Au 9.25141 8.50662 24.1211
Pt 16.5458 23.5342 14.5745
Au 8.9457 18.2686 25.0019
Pt 16.9767 11.9556 8.00058
Au 19.1284 5.50684 14.4759
Pt 8.52905 13.1082 9.88513
Au 25.1725 18.7566 11.3477
Pt 21.5268 12.1412 8.07975
Pt 17.9305 15.2837 13.665
Au 4.27558 12.9722 20.1666
Au 25.9636 12.9067 21.366
Pt 7.76499 12.5769 13.822
Au 19.9061 10.0376 23.9263
Pt 18.1026 17.7251 12.6099
Au 15.4918 13.6779 3.26093
Pt 9.49483 17.4455 22.4877
Au 10.248 13.0092 5.95543
Pt 23.8949 18.1788 19.7723
Au 21.3511 9.83144 15.8352
Pt 15.9819 7.39936 18.8855
Au 13.3863 6.3781 7.93415
Pt 21.1968 21.7048 14.7106
Au 6.34899 8.87435 10.1937
Pt 6.72233 9.23417 17.944
Au 17.3616 3.72989 13.4472
Pt 9.38391 10.391 14.4265
Au 12.6163 4.99963 16.9935
Pt 6.17066 14.7501 13.8204
Au 18.7106 20.7516 8.48019
Pt 18.1643 8.91108 12.2587
Pt 17.7351 11.3772 19.9803
Pt 9.97454 17.0621 14.8692
Pt 6.45394 14.2489 11.2736
Pt 11.8264 16.8035 7.91957
Pt 16.9246 14.0006 20.5916
Pt 11.637 8.4716 20.0453
Pt 9.94458 14.1052 23.1118
Pt 5.75625 11.7638 18.2279
Au 15.0303 21.5117 24.1352
Pt 21.6548 17.2765 16.7141
Au 14.8211 9.66931 23.4159
Pt 13.8771 9.44111 11.9672
Au 17.0309 14.4637 25.2676
Pt 12.0118 20.8865 11.7748
Au 23.6651 12.5222 6.83306
Pt 17.0822 10.2896 5.73349
Au 18.872 27.7467 11.0097
Pt 21.8456 13.2629 18.9656
Au 20.0677 24.6985 20.414
Pt 14.2833 13.9332 21.1386
Au 13.0838 13.8821 4.50482
Pt 18.6492 21.6478 11.0406
Au 7.12302 18.6138 10.2249
Pt 6.88691 8.62662 15.105
Au 4.39153 10.5048 11.2583
Pt 17.6916 14.5154 9.19895
Pt 8.79603 12.1769 21.6976
Pt 6.76963 11.7013 11.4463
Au 11.1258 15.5538 5.5933
Au 23.9463 21.29 10.9332
Pt 19.8687 10.4768 21.1422
Au 12.8158 5.0413 10.4305
Pt 21.2816 21.565 12.1337
Au 4.41446 19.3085 15.9668
Pt 4.837 10.2003 16.1994
Au 19.5814 8.70441 5.45681
Pt 10.6649 11.1032 20.0375
Au 8.1097 12.1107 7.341
Pt 20.1728 23.5893 10.721
Au 9.05701 25.7918 15.443
Pt 20.8925 14.944 20.9679
Au 5.10601 20.6847 11.2183
Pt 18.9392 17.7053 17.7797
Au 18.7018 8.27609 22.4227
Pt 13.4545 19.8211 13.8464
Au 5.46938 21.9531 13.6047
Pt 10.0149 16.8941 19.5534
Au 10.1475 10.2706 6.50146
Pt 5.45722 12.8434 15.5818
Pt 24.3348 12.005 19.333
Au 4.02102 8.45208 18.1213
Au 12.6315 17.937 5.34786
Pt 8.06061 21.3559 14.346
Au 7.82339 9.35118 7.66327
Pt 13.4561 17.738 18.6736
Au 23.6416 21.2513 16.0007
Pt 12.8323 22.4321 14.9676
Au 11.6222 19.6432 7.29761
Pt 19.319 11.4444 9.19289
Au 10.9287 5.8369 15.1424
Pt 16.3198 6.01298 14.7223
Au 17.0708 20.2056 5.63903
Pt 14.5728 22.2733 12.8562
Au 16.1759 7.24258 23.0201
Pt 21.8511 10.4374 10.2002
Au 7.06114 13.6109 23.2962
Pt 23.558 14.0272 20.8167
Au 7.51763 6.7818 11.8928
Pt 22.7767 15.8666 18.9091
Au 19.8476 6.98625 7.70233
Pt 22.4895 19.4229 17.8901
Pt 19.0254 13.0057 22.1847
Au 4.24474 12.7625 12.942
Au 19.9734 4.07502 12.2639
Pt 19.028 22.615 18.2882
Au 15.8074 22.1183 7.25558
Pt 12.7028 10.3603 21.6465
Au 21.1402 26.1461 15.785
Pt 25.3604 11.5625 17.0279
Au 21.5456 21.277 9.4887
Pt 9.52219 11.5574 11.9768
Au 6.71272 22.2611 19.1503
Pt 14.7684 11.9659 14.9294
Au 3.2691 9.93017 13.7382
Pt 14.8081 23.7131 19.2518
Au 8.05281 6.24149 18.8698
Pt 7.58779 17.7712 20.22
Au 13.9705 27.2265 13.1127
Pt 9.11593 8.67471 19.3332
Au 15.6841 25.8305 20.807
Pt 16.9997 21.1772 13.1282
Au 5.44976 16.2872 9.70621
Pt 17.828 18.1087 22.5805
Au 16.1627 26.8567 15.3589
Pt 17.7455 20.1546 17.6457
Au 16.7933 25.9706 10.1234
Au 27.2979 13.3856 16.1185
Pt 13.8713 20.5041 8.77405
Au 25.1962 20.4056 20.5773
Pt 23.7931 15.8853 15.5356
Au 8.58571 15.0712 6.99075
Pt 11.9615 7.59544 13.2141
Au 11.2506 27.4281 14.1373
Pt 21.9181 19.1035 14.4706
Au 4.69616 10.0945 20.1899
Pt 24.1289 18.5099 15.7012
Au 14.5178 9.90718 4.53705
Pt 13.6846 12.2394 23.232
Au 14.9445 7.55389 5.63699
Pt 18.3546 18.1336 7.23418
Pt 9.65961 13.8427 19.814
Pt 15.6806 13.315 10.4987
Pt 10.9615 12.9589 13.7117
Au 21.525 21.135 23.2322
Pt 13.5233 14.244 14.3979
Au 10.0122 4.70583 17.618
Pt 11.3417 21.2688 21.2919
Au 21.3024 26.0758 11.0461
Pt 17.9861 6.99201 9.81961
Au 25.45 8.96838 13.3049
Pt 16.4892 20.4472 22.1292
Au 24.0867 19.9651 22.9573
Pt 19.6842 19.8023 21.645
Pt 13.8009 22.1672 17.3402
Pt 19.098 22.9619 13.3472
Au 18.4734 18.0129 4.51338
Pt 15.3485 21.0767 15.2778
Au 17.9074 27.9902 13.5717
Pt 17.1417 19.5706 10.886
Au 24.0065 10.591 14.8949
Pt 18.6523 16.3789 20.2703
Au 21.292 16.9385 24.9909
Pt 19.4794 19.9716 13.4203
Au 4.46341 17.148 14.2541
Pt 7.4108 10.4432 20.2536
Au 10.269 5.97121 11.6117
Pt 15.8862 8.34141 10.6953
Au 15.0588 4.15069 12.1696
Pt 12.6502 14.6899 23.3641
Au 20.7396 7.00588 16.3043
Pt 24.6634 13.3169 15.2692
Au 24.7042 11.6253 12.4206
Pt 10.7768 19.5337 23.2732
Pt 14.9742 15.1895 18.934
Pt 20.1094 11.2131 18.3934
Au 25.511 17.8052 21.9143
Au 26.5088 13.6215 13.2552
Pt 22.4077 19.2134 11.692
Au 26.9386 18.0911 16.5506
Pt 12.337 18.7071 9.97079
Au 17.8093 23.5174 8.97329
Pt 6.75918 16.7941 12.2447
Au 23.8264 12.4053 23.0455
Pt 15.2038 9.93426 7.33529
Au 14.5605 4.04411 14.8993
Pt 9.59642 12.5523 15.9536
Au 11.5124 18.5036 25.7312
Pt 13.6347 16.5288 21.1148
Au 8.90426 19.8865 8.18298
Pt 18.4943 22.1682 20.9861
Au 12.5469 8.70762 6.4823
Pt 13.3634 19.9496 22.6838
Au 23.4077 19.1015 9.20239
Pt 18.1066 8.01507 14.7853
Au 25.2643 19.8903 17.9029
Pt 13.6686 14.7789 11.7917
Au 9.71577 17.7412 6.47711
Pt 22.2785 10.5637 19.8046
Au 8.52284 22.0417 9.76105
Au 6.37096 14.0551 8.40146
Pt 19.3754 11.1919 6.49555
Au 24.9811 13.981 10.8176
Pt 22.3511 20.0717 20.5463
Au 26.8908 12.9717 18.8418
Pt 18.7939 25.3375 11.9391
Au 12.7816 22.8649 23.1056
Pt 18.0283 13.0956 11.577
Au 26.7014 11.2121 14.5531
Pt 13.7916 15.7869 6.52304
Au 18.1973 26.6769 20.3323
Pt 11.9342 10.7238 10.5515
Au 11.0556 7.15397 22.3913
Au 21.2549 12.2948 24.1684
Pt 21.8746 18.5279 22.5829
Au 10.2903 10.702 25.632
Au 5.74274 21.9422 16.3767
Pt 9.77599 17.6274 9.217
Au 8.10841 11.0153 24.0044
Pt 12.605 19.5931 16.3841
Au 4.92959 17.7106 20.2083
