561
Atoms. Timestep: 20129
Pt 7.04732 7.27925 14.783
Au 5.30981 7.10089 12.7669
Pt 7.08488 11.0323 10.7893
Au 4.94422 9.05417 14.7586
Pt 5.12197 11.0634 12.7476
Pt 5.04897 11.0833 16.6995
Au 5.26216 13.2617 6.99039
Pt 5.36415 15.1854 8.84581
Au 3.23466 13.1306 12.6806
Pt 3.67868 15.1443 10.8674
Au 3.24906 15.0759 18.6716
Pt 5.10376 13.0459 14.7578
Au 4.98785 9.17368 18.547
Pt 5.11039 14.9656 16.7713
Pt 6.99357 10.9382 18.7688
Au 7.22354 13.1976 5.06525
Au 3.31215 17.0945 12.7484
Pt 6.83656 17.7747 6.5581
Au 3.13094 15.0741 14.7153
Pt 5.31918 17.104 10.8708
Au 3.19732 17.0632 16.7461
Pt 5.16286 16.9676 14.8441
Au 7.138 16.5385 24.6506
Pt 5.15402 16.9208 18.8377
Au 5.00783 14.905 20.8588
Pt 7.07168 14.7223 22.6858
Au 4.73226 17.8119 8.2903
Au 4.82613 21.5474 12.3244
Pt 4.92597 19.6311 10.3509
Au 3.42607 18.9786 18.7263
Pt 5.33009 18.9004 16.8261
Au 5.1756 18.8258 20.8669
Pt 5.43155 20.7836 18.8221
Au 3.42976 19.1071 14.7946
Au 3.59573 20.9824 16.8256
Pt 5.49964 20.9367 14.886
Pt 9.06793 7.31967 12.8658
Pt 7.29237 7.18059 10.9655
Pt 6.95901 9.07005 16.744
Pt 9.52943 6.29351 15.29
Pt 9.56217 8.22769 17.4057
Pt 5.19651 13.0352 10.7742
Au 7.02043 8.97037 8.79971
Pt 9.16441 9.14695 6.98102
Au 5.14045 9.0763 10.853
Pt 7.04088 9.17401 12.8139
Au 7.40669 5.30428 13.0871
Pt 9.00722 9.12857 10.7864
Au 7.68699 6.32377 17.2641
Pt 6.95719 11.0312 14.7997
Au 8.96545 9.09542 14.8579
Pt 8.99977 11.0225 12.8108
Au 7.43342 8.13891 19.371
Pt 9.57803 6.3797 19.301
Au 11.4117 4.43101 19.2765
Pt 9.50641 9.95502 19.5275
Pt 11.5211 9.93424 21.3918
Pt 9.11557 13.0609 6.90471
Au 11.0588 9.12072 5.01325
Au 5.15376 11.1416 8.86554
Pt 7.14678 13.0784 8.84146
Au 8.98074 11.0553 8.80465
Pt 11.156 14.9512 6.87344
Au 3.20731 11.1748 14.6683
Pt 5.23183 15.0265 12.8932
Au 7.04702 12.9559 12.8069
Pt 9.02661 12.9766 10.8393
Au 3.11892 13.0892 16.6592
Pt 6.92304 12.9431 16.8595
Au 8.95119 10.9559 16.9036
Pt 8.9433 12.8908 14.8836
Au 4.8377 12.8424 18.8272
Pt 6.92855 12.8308 20.7702
Au 9.57322 11.9712 21.4083
Pt 8.89609 12.8272 18.8685
Au 5.08535 10.8787 20.6567
Pt 7.75587 12.1161 23.2459
Au 9.60019 11.8698 25.3031
Pt 11.6232 11.8474 23.4148
Pt 7.28448 15.1651 6.92258
Au 7.03937 11.0577 6.81234
Au 9.1514 14.9761 8.86765
Pt 7.28904 17.036 8.98979
Au 11.2194 16.8661 8.90189
Pt 9.29654 17.014 6.96983
Au 7.10544 14.9981 10.8683
Pt 7.15051 16.9208 12.893
Au 9.09941 14.9071 12.8923
Pt 9.17434 16.8851 10.9027
Au 7.09526 14.9416 14.8842
Pt 7.06512 16.8456 16.8858
Au 9.00509 14.826 16.9361
Pt 9.1068 16.8035 14.9523
Au 6.8989 14.8377 18.8839
Pt 7.01999 16.7953 20.922
Au 8.97072 14.7389 20.8505
Pt 8.99546 16.7255 18.9467
Au 7.7025 13.9202 25.2286
Pt 9.66846 13.9386 23.4263
Au 9.70736 15.7944 25.5495
Pt 9.07009 16.6213 22.8743
Au 8.63499 17.785 4.52083
Au 8.57236 19.895 6.30216
Pt 6.77357 19.688 8.40393
Au 9.28814 18.98 8.9302
Pt 8.81645 21.6091 8.47858
Au 7.36128 19.0083 10.9654
Pt 5.36794 18.956 12.9031
Au 9.26084 18.7714 12.9556
Pt 9.30444 20.966 11.0029
Au 7.236 18.8385 14.9013
Pt 7.35797 20.7533 16.9545
Au 9.18836 18.7166 16.9865
Pt 9.34148 22.6263 16.9948
Au 7.15324 18.7558 18.9293
Pt 7.25753 20.6401 20.8628
Au 9.08143 18.6539 20.9557
Pt 9.15782 20.7646 19.0098
Au 7.09273 18.7153 22.9127
Au 9.12474 18.5269 24.894
Pt 9.21723 20.4827 22.9253
Au 6.68202 21.7583 10.2597
Au 6.85158 23.4728 12.4651
Pt 7.39677 20.887 12.9439
Au 11.2704 20.7592 13.0228
Pt 9.43483 22.8585 13.036
Au 9.28999 20.783 14.9603
Pt 5.68052 22.6763 16.9096
Au 7.55708 24.6297 17.0349
Pt 7.50126 22.791 15.0051
Au 7.22267 22.81 19.1158
Au 9.14609 22.6491 21.1763
Pt 9.45848 24.2905 18.9814
Pt 11.0034 7.27996 10.8644
Pt 14.9968 8.98228 8.80911
Pt 11.4533 6.21355 13.2957
Pt 13.4445 6.19635 11.3088
Pt 11.3749 6.19891 17.3108
Pt 13.422 6.11394 15.3266
Pt 11.5176 6.23946 21.2573
Pt 13.4676 6.10741 19.4229
Pt 11.5947 8.04319 23.2114
Pt 11.0686 11.0633 6.94391
Au 11.1101 7.07678 6.95298
Au 9.07383 6.99442 8.87405
Pt 10.9816 9.1011 8.86575
Au 11.2768 5.23312 9.22095
Pt 12.9722 11.0606 5.05736
Au 9.37271 5.22143 11.2267
Pt 10.9822 9.09785 12.8382
Au 13.5049 8.00877 13.385
Pt 12.9907 9.04673 10.8677
Au 11.5247 8.0857 15.3603
Pt 11.5415 10.0083 17.4609
Au 13.4745 7.93142 17.3875
Pt 13.559 9.95639 15.4681
Au 13.3739 4.41512 17.3464
Pt 11.5529 8.06715 19.3793
Au 9.42289 7.93998 21.5119
Pt 13.5102 9.93832 19.4409
Au 7.4936 10.0228 21.4968
Pt 9.64974 10.0308 23.2914
Au 15.456 9.65808 25.3967
Pt 13.528 9.84604 23.4257
Pt 11.0617 12.9973 5.04394
Au 14.9575 9.1112 4.88412
Au 9.1396 11.1036 4.97399
Pt 11.0506 12.9703 8.83799
Au 13.0294 10.9964 8.85511
Pt 13.0544 12.9978 6.84509
Au 11.0063 11.0427 10.849
Pt 11.0115 12.9055 12.8922
Au 13.0342 10.9309 12.9021
Pt 13.0533 12.8877 10.8787
Au 11.003 10.9709 14.8841
Pt 10.953 12.8303 16.8942
Au 13.5586 11.9226 17.465
Pt 13.0106 12.8212 14.9059
Au 11.537 11.94 19.445
Pt 11.5879 13.8605 21.5381
Au 13.55 11.8627 21.5087
Pt 13.5878 13.8409 19.55
Au 11.5233 9.83731 25.256
Pt 11.5696 13.7264 25.3326
Au 13.4886 11.7738 25.5549
Pt 13.5817 13.7738 23.5853
Pt 11.2034 17.0259 5.0775
Au 13.0034 14.8975 4.71004
Au 9.23487 15.0768 4.87266
Pt 11.2261 18.9446 7.03812
Au 13.1297 14.8464 8.86045
Pt 13.1953 16.792 6.82905
Au 11.113 14.8532 10.906
Pt 11.1617 16.7335 12.9604
Au 13.0816 14.7689 12.9329
Pt 13.1622 16.7175 10.9457
Au 11.0347 14.7965 14.9398
Pt 11.0912 16.7026 16.9817
Au 13.0339 14.7087 16.9568
Pt 13.1115 16.6673 14.9775
Au 11.0127 14.7281 18.9298
Pt 11.0339 16.6152 20.9454
Au 13.6311 15.7487 21.5871
Pt 13.0574 16.6192 18.9749
Au 11.6789 15.7809 23.5909
Pt 11.7126 17.7004 25.4227
Au 13.5942 15.6357 25.7484
Pt 13.6896 17.6428 23.6558
Pt 10.7885 21.5318 6.58181
Au 12.7658 21.5286 4.63657
Au 10.6763 19.6935 4.47687
Pt 11.3581 20.8308 9.09639
Au 13.2571 18.7158 8.95232
Pt 13.3133 20.8266 7.19495
Au 11.227 18.7742 10.9853
Pt 11.3259 22.6778 15.0754
Au 13.2007 18.6511 13.0134
Pt 15.3563 22.6154 11.1445
Au 11.2012 18.6659 14.9939
Pt 11.2222 20.6464 16.9831
Au 13.1393 18.6055 16.9923
Pt 13.226 20.6592 15.0315
Au 11.0982 18.6665 19.0074
Pt 11.1132 20.6143 21.0539
Au 13.1044 18.5317 20.9955
Pt 13.189 20.5132 18.9759
Au 11.0948 18.5086 22.9222
Pt 11.2577 20.3118 24.8113
Au 13.7578 19.5199 25.7432
Pt 13.1662 20.389 23.0397
Au 12.7824 23.4512 6.64013
Au 8.80752 23.6458 10.4236
Pt 11.4003 22.7192 11.1173
Au 11.0263 25.2639 10.4994
Pt 10.8674 23.3753 8.57827
Au 13.3074 20.7151 11.0514
Pt 11.473 24.5545 13.1071
Au 13.3513 22.6549 13.1149
Pt 13.4795 24.5378 11.2135
Au 9.50329 24.7545 15.0625
Pt 11.359 24.4466 17.0828
Au 13.2753 22.5583 17.0418
Pt 13.3387 24.4762 15.106
Au 11.2714 22.4594 19.0214
Pt 11.3904 24.1611 20.9941
Au 13.2397 22.3182 21.028
Pt 13.2876 24.3049 19.0881
Au 11.1512 22.4974 23.1598
Au 13.2409 22.2554 25.0586
Pt 13.3859 24.0337 22.9716
Pt 13.002 9.07489 6.87283
Pt 15.5501 6.3278 9.52983
Pt 17.3437 6.51561 7.63349
Pt 15.4737 6.12286 13.3971
Pt 17.5085 6.18668 11.4394
Pt 15.4714 6.03928 17.4101
Pt 17.4604 6.05518 15.4296
Pt 15.3966 6.06551 21.2697
Pt 17.4028 6.0325 19.3932
Pt 15.4419 7.87621 23.2882
Pt 19.2797 7.78853 23.2006
Pt 16.9442 11.0394 5.00883
Au 14.8323 6.99477 6.80539
Au 13.7834 4.89685 8.34774
Pt 12.9749 7.2903 8.89505
Au 17.5411 8.21843 9.49895
Pt 16.9004 8.99438 6.85308
Au 15.5096 8.07877 11.4793
Pt 15.562 9.96187 13.4973
Au 17.4975 7.9517 13.4667
Pt 17.5681 10.0168 11.512
Au 15.4874 7.91726 15.4233
Pt 15.5058 9.88665 17.449
Au 17.4841 7.88959 17.4325
Pt 17.5253 9.87845 15.4928
Au 15.4582 7.95206 19.376
Pt 13.4972 8.04126 21.3358
Au 17.3218 5.85448 23.1373
Pt 17.3764 7.92339 21.3432
Au 13.4584 6.05713 23.1589
Pt 15.4698 9.87663 21.4631
Au 17.4636 7.72883 25.1725
Pt 17.4262 9.78459 23.3917
Pt 14.982 12.8644 4.95013
Au 17.1179 14.6732 4.68873
Au 14.9975 10.9731 6.85652
Pt 15.0463 12.8949 8.80659
Au 17.0166 10.9092 8.87946
Pt 17.0326 12.8724 6.86169
Au 15.0294 10.9099 10.8778
Pt 15.0465 12.7968 12.9035
Au 17.5966 11.8993 13.5082
Pt 17.0524 12.7877 10.8886
Au 15.5754 11.8912 15.4892
Pt 15.6013 13.8323 17.5294
Au 17.5607 11.8539 17.4944
Pt 17.6313 13.8116 15.5364
Au 15.535 11.8763 19.4939
Pt 15.5636 13.7565 21.6252
Au 17.5129 11.8051 21.5312
Pt 17.5922 13.7446 19.5523
Au 15.5162 11.7581 23.597
Pt 15.5319 13.6659 25.4659
Au 17.4961 11.6485 25.617
Pt 17.5514 13.6772 23.6558
Pt 13.1862 18.9107 5.20639
Au 15.1389 16.8322 4.6945
Au 15.1023 14.8611 6.70481
Pt 15.1409 16.6991 8.84982
Au 17.0544 14.771 8.87844
Pt 17.1002 16.7016 6.74293
Au 15.0906 14.7619 10.9103
Pt 15.1202 16.6474 12.9836
Au 17.0836 14.6703 12.9542
Pt 17.1241 16.6168 10.9894
Au 15.065 14.6876 14.9551
Pt 15.0759 16.5928 16.9733
Au 17.6442 15.6989 17.5566
Pt 17.1024 16.5732 14.9725
Au 15.634 15.7014 19.5822
Pt 15.6804 17.5857 21.6417
Au 17.6185 15.6103 21.6423
Pt 17.6925 17.5757 19.602
Au 15.6109 15.642 23.6974
Pt 15.6662 17.5079 25.5657
Au 17.6226 15.5124 25.7945
Pt 17.6682 17.4594 23.7252
Pt 15.2955 20.956 5.41783
Au 15.1438 19.2492 3.50283
Au 15.2247 18.7019 6.91839
Pt 17.301 22.6412 9.1817
Au 17.1464 18.5565 9.01907
Pt 17.2571 20.6714 7.22934
Au 15.1975 18.603 11.0214
Pt 15.2431 20.6273 13.0588
Au 17.1483 18.5619 13.0251
Pt 17.2148 20.5857 11.0566
Au 15.1455 18.5966 15.0082
Pt 15.1918 20.5296 17.018
Au 17.1356 18.4765 17.0014
Pt 17.1952 20.5048 15.0496
Au 15.131 18.4766 18.9958
Pt 15.1864 20.3335 20.9908
Au 17.7325 19.4346 21.627
Pt 17.1757 20.3677 19.0044
Au 15.7474 19.4298 23.6891
Pt 15.8163 21.3585 25.4779
Au 17.7348 19.3762 25.8127
Pt 17.7941 21.3221 23.6055
Pt 15.3664 22.754 7.32802
Au 17.395 22.6812 5.45836
Au 15.2792 20.7089 9.08262
Pt 13.3852 22.7931 9.20591
Au 19.3358 24.4878 9.30065
Pt 19.2666 22.5291 7.38506
Au 15.4227 24.6689 9.27904
Pt 15.3673 24.4584 13.1464
Au 17.2697 22.5062 13.1296
Pt 17.3586 24.3939 11.2222
Au 15.2931 22.5665 15.1048
Pt 15.3144 24.3534 17.1238
Au 17.2578 22.4363 17.0811
Pt 17.3487 24.3316 15.1348
Au 15.2471 22.4276 19.0447
Pt 15.2919 24.1739 21.0864
Au 17.2447 22.2326 21.0055
Pt 17.3136 24.2086 19.113
Au 15.2465 22.1401 22.96
Pt 15.3804 23.8954 24.7572
Au 17.8147 23.1757 25.5636
Pt 17.2946 23.9675 22.9817
Pt 19.3813 6.35837 9.51298
Pt 19.4631 6.09154 13.442
Pt 21.3636 6.22896 11.5458
Pt 19.4037 5.99413 17.4294
Pt 21.3371 6.03271 15.4589
Pt 19.2736 6.0506 21.2486
Pt 19.4636 7.86612 19.4275
Pt 18.9195 10.8227 6.94599
Au 19.5836 8.05691 7.34974
Pt 19.6457 9.93395 9.45213
Au 21.6233 7.88195 9.35823
Pt 21.5265 10.0642 7.56378
Au 19.514 8.05993 11.4834
Pt 19.5313 9.91128 13.5188
Au 21.4629 7.98119 13.4831
Pt 21.6346 9.80558 11.4625
Au 19.4557 7.89915 15.4736
Pt 19.5136 9.83584 17.5049
Au 21.2896 5.7958 19.3423
Pt 21.3803 7.88054 17.4952
Au 17.5125 9.86743 19.4573
Pt 19.4973 9.72807 21.436
Au 21.5094 7.58814 21.5791
Pt 21.5145 9.64218 19.5373
Au 21.1383 7.75746 24.9559
Pt 19.3561 9.66878 25.1878
Pt 21.3795 9.7265 23.3316
Pt 19.0643 12.7505 5.05174
Au 20.887 10.7759 5.02879
Au 18.7469 9.08599 4.9087
Pt 19.0392 12.7518 8.86655
Au 21.6641 11.8676 9.5372
Pt 20.9481 12.7018 6.99125
Au 19.6389 11.8491 11.4882
Pt 19.6657 13.7951 13.5319
Au 21.615 11.8255 13.5276
Pt 21.7107 13.7702 11.5388
Au 19.5716 11.8565 15.53
Pt 19.6295 13.7498 17.5475
Au 21.5888 11.7669 17.5527
Pt 21.7134 13.7027 15.5673
Au 19.5834 11.772 19.5243
Pt 19.566 13.6616 21.5865
Au 21.5575 11.671 21.5104
Pt 21.6476 13.6463 19.5383
Au 19.4657 11.6787 23.5097
Pt 19.5717 13.5065 25.4537
Au 21.4604 11.4849 25.4662
Pt 21.5391 13.4988 23.5421
Pt 17.2016 18.9046 5.14972
Au 19.1185 16.789 4.78583
Au 18.9846 14.7701 6.85102
Pt 19.0952 16.5954 8.95798
Au 21.0674 14.6172 8.954
Pt 21.0284 16.6041 7.03832
Au 19.0837 14.6357 10.9496
Pt 19.1372 16.5331 12.9864
Au 21.7589 15.6326 13.5928
Pt 21.1611 16.4727 10.9817
Au 19.7039 15.6665 15.5672
Pt 19.7199 17.5525 17.5989
Au 21.7533 15.5777 17.5799
Pt 21.7935 17.5088 15.609
Au 19.639 15.5984 19.572
Pt 19.6675 17.4551 21.6373
Au 21.6063 15.4979 21.5577
Pt 21.7305 17.4363 19.6031
Au 19.6217 15.5073 23.6879
Pt 19.682 17.4171 25.5403
Au 21.5817 15.4021 25.7407
Pt 21.6503 17.3965 23.6135
Pt 19.2001 20.6444 5.37783
Au 21.1246 22.4715 5.48437
Au 19.0919 18.5585 7.05011
Pt 19.189 20.5061 9.12869
Au 21.1278 18.4576 9.08979
Pt 21.1284 20.4767 7.27379
Au 19.1548 18.5126 11.0563
Pt 19.1756 20.4559 13.0493
Au 21.1966 18.4084 13.0303
Pt 21.2474 20.4422 11.0799
Au 19.1551 18.436 15.0149
Pt 19.1674 20.342 17.0418
Au 21.7723 19.3835 17.6318
Pt 21.1751 20.2622 15.0638
Au 19.7618 19.4481 19.6424
Pt 19.8243 21.3629 21.6879
Au 21.7584 19.3233 21.671
Pt 21.8341 21.336 19.7029
Au 19.6893 19.3148 23.6533
Pt 19.6868 21.2219 25.3964
Au 21.6759 19.2903 25.6263
Pt 21.6965 21.1737 23.6004
Au 23.0996 22.4123 7.36625
Pt 21.2066 22.399 9.23862
Au 24.8991 20.3888 7.24856
Au 19.2344 22.4298 11.1186
Pt 19.344 24.2433 13.1474
Au 21.251 22.2392 13.0979
Pt 21.2688 24.1014 11.261
Au 19.2569 22.3762 15.1022
Pt 19.3219 24.1839 17.1379
Au 21.1975 22.1805 17.1079
Pt 21.3237 24.1044 15.1431
Au 19.2333 22.2329 19.0702
Pt 19.2844 23.9725 21.0732
Au 21.8859 23.2578 21.7409
Pt 21.2616 23.9465 19.1228
Au 19.8702 23.3123 23.6893
Pt 23.2322 6.15513 13.579
Pt 23.183 6.10241 17.3362
Pt 23.3604 7.88532 15.4947
Pt 23.5038 9.90601 9.59464
Au 23.586 7.75283 11.4078
Pt 23.5097 9.81919 13.5386
Au 25.3401 7.82597 13.5939
Pt 25.2798 9.80848 11.6523
Au 21.5123 9.85702 15.5362
Pt 23.4383 9.71336 17.5224
Au 25.3136 7.73747 17.4079
Pt 25.3372 9.69901 15.5547
Au 23.451 7.6039 19.5304
Pt 23.3835 9.69075 21.4088
Pt 25.2074 9.63601 19.3937
Pt 20.9613 14.7414 5.15238
Au 23.63 11.8623 7.53382
Pt 23.6794 13.7421 9.55553
Au 25.516 11.7198 9.66397
Pt 22.9299 14.5922 7.04103
Au 23.6179 11.8013 11.6005
Pt 23.7742 13.677 13.6005
Au 25.7623 11.6423 13.588
Pt 25.5571 13.6155 11.6172
Au 23.6769 11.7388 15.5664
Pt 23.7651 13.6297 17.5693
Au 25.7308 11.5743 17.5564
Pt 25.6221 13.5731 15.592
Au 23.5694 11.6473 19.4921
Pt 23.5853 13.495 21.5343
Au 25.4955 11.4879 21.4909
Pt 25.5309 13.4685 19.5977
Au 23.5812 11.3973 23.5759
Pt 23.4182 13.4778 25.302
Pt 25.3161 13.4714 23.4421
Pt 21.0741 18.6369 5.31329
Au 22.9503 16.6062 5.20134
Au 22.7397 12.7872 5.05088
Pt 23.1385 16.4593 8.95261
Au 25.6718 15.6041 9.67835
Pt 23.0328 18.471 7.17753
Au 23.7733 15.6033 11.6174
Pt 23.8382 17.5029 13.6242
Au 25.9289 15.5259 13.6087
Pt 25.6289 17.5176 11.6633
Au 23.841 15.5512 15.5992
Pt 23.8551 17.4047 17.6207
Au 25.9188 15.4583 17.6366
Pt 25.7179 17.417 15.6342
Au 23.7728 15.4821 19.605
Pt 23.6835 17.3796 21.6145
Au 25.7993 15.3767 21.5952
Pt 25.6436 17.3722 19.6676
Au 23.5128 15.3946 23.4942
Pt 23.5245 17.238 25.3784
Au 25.383 15.3032 25.4008
Pt 25.4148 17.2203 23.5212
Au 22.999 20.4905 5.32411
Pt 23.1183 20.3695 9.16684
Au 25.1583 18.3209 9.04123
Au 23.1628 18.3269 11.0218
Pt 23.2496 20.2839 13.0369
Au 25.9108 19.3857 13.6524
Pt 25.0162 20.1776 11.0928
Au 23.8482 19.3342 15.6463
Pt 23.7763 21.2403 17.6866
Au 25.9533 19.2972 17.6821
Pt 25.6633 21.2341 15.7092
Au 23.7671 19.2707 19.6263
Pt 23.7118 21.151 21.6106
Au 25.7131 19.2512 21.6493
Pt 25.5342 21.151 19.62
Au 23.7884 19.3835 23.7318
Au 23.418 22.433 10.9741
Pt 23.2171 23.9211 13.2341
Au 25.276 22.1171 13.1131
Au 23.1639 22.0431 15.1181
Pt 23.1973 23.8885 17.1532
Au 25.7574 23.0595 17.7025
Pt 24.984 23.7727 15.2489
Au 23.8591 23.2592 19.743
