561
Atoms. Timestep: 20640
Pt 15.4366 24.8185 14.8207
Au 22.5165 8.75493 9.86834
Pt 14.9758 16.2591 7.72182
Au 20.4278 23.4002 11.0734
Pt 13.3591 9.92875 21.3552
Pt 12.1755 20.5469 21.8854
Au 19.2494 4.90509 10.03
Pt 17.996 18.7256 20.7533
Au 6.01379 10.5472 12.2823
Pt 16.3931 16.9926 18.741
Au 7.33311 14.4377 24.2487
Pt 19.1193 17.0238 14.6186
Au 22.19 15.455 6.84576
Pt 11.9098 14.0638 23.5508
Pt 17.5706 11.7376 21.7331
Au 16.3235 4.53764 14.6127
Au 21.7626 6.8526 14.0558
Pt 13.3812 14.1191 7.58734
Au 21.0451 4.81925 15.9516
Pt 11.6995 16.2585 21.5643
Au 5.94679 9.12432 22.7143
Pt 23.517 18.1418 15.1168
Au 27.8847 18.2836 16.8696
Pt 24.3327 13.2849 18.5641
Au 19.7148 26.5862 14.5316
Pt 11.161 24.1839 12.7638
Au 8.18179 8.81305 7.317
Au 21.7116 25.3247 12.8968
Pt 10.8339 18.4395 22.8316
Au 11.5911 25.7255 17.5496
Pt 17.3434 14.4576 25.7205
Au 10.7574 5.44581 14.6624
Pt 12.3369 16.5355 24.2132
Au 25.8312 10.41 14.898
Au 12.57 26.6884 13.0155
Pt 19.1954 19.6084 7.6354
Pt 17.4449 15.0999 15.469
Pt 11.1713 18.8031 7.55316
Pt 20.8685 11.7132 15.3072
Pt 11.3292 11.5742 11.4322
Pt 21.8744 22.6911 16.9122
Pt 14.9374 8.2764 12.5146
Au 10.1522 15.0077 25.7046
Pt 8.08447 20.7476 11.7699
Au 8.42761 25.1941 13.1284
Pt 15.5702 8.81269 7.40433
Au 13.6479 9.94599 25.5504
Pt 8.26825 13.8844 19.0823
Au 6.79287 21.4938 20.0633
Pt 10.2662 10.4169 6.7432
Au 19.4447 26.1373 17.1247
Pt 13.4704 7.63866 8.65367
Au 13.4919 5.03289 19.3586
Pt 20.1666 14.832 13.0759
Au 12.4167 27.5806 15.7098
Pt 11.3955 16.9507 15.6153
Pt 15.1057 10.8015 23.3194
Pt 19.0244 12.8234 17.2056
Au 19.9539 5.10816 12.7376
Au 20.4657 12.1829 26.2254
Pt 18.7667 12.3732 24.1691
Au 12.4255 25.0502 10.6113
Pt 13.6794 12.718 22.1244
Au 14.9497 6.97119 20.7851
Pt 16.1038 16.9568 21.4717
Au 12.3333 6.72931 21.5678
Pt 15.9976 13.4662 23.2887
Au 5.77129 13.4906 8.28654
Pt 16.6231 11.4929 13.5045
Au 7.08922 12.0745 15.0342
Pt 16.8813 14.4587 17.8935
Au 7.1674 18.9161 7.66218
Pt 18.2885 13.2397 19.7227
Au 4.00214 17.5332 13.7356
Pt 16.0012 9.156 16.708
Au 15.2992 16.0082 27.7571
Pt 20.6456 10.2433 17.5369
Au 5.77187 13.3276 22.3046
Pt 22.1621 16.9763 19.4279
Pt 14.4702 13.5247 18.1606
Au 22.0041 14.3251 25.3336
Au 13.0504 15.1688 2.81213
Pt 13.3749 18.2047 21.672
Au 25.4041 11.63 20.4272
Pt 17.7236 22.3672 19.1854
Au 19.1562 17.1293 25.3126
Pt 21.0039 19.039 14.5516
Au 7.54509 7.9537 12.0939
Pt 16.5229 16.3548 10.4494
Au 11.1977 12.4595 25.8592
Pt 11.8233 16.2678 8.63153
Au 10.5129 17.9626 25.5108
Pt 17.7374 16.1774 8.12574
Au 18.2267 23.2869 21.7394
Pt 7.42007 17.4945 10.333
Au 12.1709 5.9479 7.11225
Pt 14.1316 15.4047 22.4368
Au 7.81416 22.1572 9.34606
Pt 9.59978 20.42 21.0604
Au 13.6534 5.06683 9.69172
Pt 11.6868 22.2929 14.6687
Au 7.2104 6.62609 18.9668
Au 15.8537 24.1215 20.3156
Pt 19.1746 10.5283 13.2038
Au 17.5368 4.13941 12.1421
Pt 25.4411 19.4926 16.1379
Au 11.82 21.5574 6.53308
Pt 10.3946 15.9963 19.2983
Au 11.0005 13.2439 3.07839
Pt 10.173 24.3876 15.3749
Au 16.0571 8.7414 25.2294
Pt 21.7734 19.9576 16.9958
Au 4.68501 17.8346 10.5065
Pt 16.7005 11.6041 9.83903
Au 18.0506 12.3856 27.43
Pt 23.1695 20.9377 14.9347
Au 23.8801 19.0987 10.0982
Pt 14.757 15.2324 25.0897
Au 14.8729 26.0649 11.8929
Au 5.50817 10.0782 15.9388
Pt 18.8207 22.3117 13.2332
Au 25.0699 14.1946 21.239
Au 6.93163 6.83204 21.7
Pt 12.7787 17.1174 6.25522
Au 21.5597 11.3027 10.3587
Pt 22.7351 19.5758 12.5958
Au 9.3216 11.0493 19.2131
Pt 18.3824 18.535 9.8604
Au 14.7867 27.3579 14.4946
Pt 15.1037 7.01092 15.0064
Au 9.10867 24.3775 17.9505
Au 15.6985 10.5365 27.3741
Pt 7.57726 16.3467 19.22
Pt 15.6486 7.14328 10.1251
Pt 18.1948 7.12579 10.6533
Pt 14.4812 11.1283 12.0768
Pt 9.39198 13.0949 10.1184
Pt 10.4618 13.7978 12.4975
Pt 21.123 18.8331 10.0264
Pt 18.0692 19.8519 14.317
Pt 8.55703 12.2138 7.75058
Pt 14.5482 9.95451 14.5041
Pt 9.30481 22.0504 16.0079
Au 9.51954 12.9526 23.5532
Au 11.4466 10.5983 4.27016
Pt 9.54619 10.5084 22.3968
Au 16.9658 9.88045 4.89349
Pt 9.66715 15.7962 10.4819
Au 12.7488 14.6844 26.6511
Pt 20.3091 13.2162 21.7581
Au 6.20074 20.0043 9.98612
Pt 17.1063 11.1398 7.20662
Au 6.70156 16.9285 23.0616
Pt 15.6447 19.3318 13.2584
Au 9.61727 6.94146 21.3696
Pt 14.8289 20.2446 22.7941
Au 23.5493 16.4896 21.8924
Pt 10.867 8.31148 8.39325
Au 13.6765 25.9494 19.6806
Pt 21.5826 22.126 13.1585
Au 12.7109 24.9643 15.1267
Pt 24.538 15.748 14.2254
Au 5.8114 7.63482 14.6559
Pt 13.7282 19.6413 7.09057
Pt 18.559 12.3784 11.6267
Au 7.70244 9.56123 14.2526
Au 24.2726 21.7824 9.50249
Pt 22.618 14.2066 22.7283
Au 8.69342 23.4386 20.6809
Pt 20.8792 7.32903 16.7181
Au 13.5602 12.6264 3.67061
Pt 16.7984 17.9606 16.0612
Au 4.20528 15.0994 9.99238
Pt 14.2643 21.8634 20.7196
Au 16.3765 24.0799 17.4525
Pt 20.0156 7.846 19.1993
Au 11.0955 24.6947 19.9783
Pt 11.2938 11.9554 21.1739
Au 24.9562 8.98942 17.1372
Pt 8.55279 14.4963 14.6052
Au 20.4781 13.6118 5.32915
Pt 15.3702 19.1853 20.2453
Au 7.52432 16.4731 6.07456
Pt 15.5716 20.3119 15.802
Au 26.1755 11.2862 17.7925
Pt 13.344 8.47094 16.4857
Pt 10.1627 14.2192 21.2587
Au 13.2106 24.0876 21.6298
Au 16.8985 7.26435 22.7947
Pt 10.6627 13.9475 7.59167
Au 22.1047 25.6745 15.8758
Pt 14.4778 21.1208 9.17759
Au 10.3032 26.5315 11.6664
Pt 11.6945 12.1946 16.6002
Au 20.552 9.75133 24.7369
Pt 7.76884 14.9907 21.542
Au 5.8298 19.549 15.0656
Pt 20.0945 21.394 15.4141
Au 16.3534 26.4067 18.8279
Pt 11.7856 13.9979 10.0263
Au 17.7397 12.5154 4.49617
Pt 18.2269 13.4943 6.98831
Au 16.8921 19.3853 3.81987
Pt 16.5119 11.4079 18.1311
Au 27.1029 15.0666 13.7249
Pt 19.366 7.8702 12.8551
Au 21.9725 5.71237 18.5317
Pt 17.9363 24.2222 15.1293
Pt 18.4436 16.0864 20.0248
Au 17.1791 26.6865 13.3289
Au 7.24544 11.3107 23.6938
Pt 12.7638 9.61865 7.09127
Au 10.3768 20.8617 24.0394
Pt 7.9572 15.9675 12.5775
Au 23.2113 14.002 9.22496
Pt 19.4727 15.9003 5.97739
Au 20.2752 17.2165 8.12397
Pt 22.6378 9.55795 15.9225
Au 26.8558 21.0744 17.7122
Pt 18.5536 8.46519 17.0514
Au 16.5352 5.19069 19.2514
Pt 22.6347 8.34878 18.3818
Au 24.3046 12.0554 23.0734
Pt 9.60365 15.9991 23.3036
Au 17.9048 17.9941 5.98266
Pt 18.5495 8.93654 21.2229
Au 17.0091 26.6709 16.1245
Pt 15.7875 19.0263 10.5732
Au 9.61026 6.04004 12.0231
Pt 11.5217 22.9485 17.2904
Au 15.7682 14.4842 20.4235
Au 26.9641 21.6794 13.0165
Pt 14.2057 22.8244 16.0349
Au 10.243 23.0893 8.3602
Pt 7.03609 14.6774 10.4074
Au 19.1788 24.3496 8.78874
Pt 18.986 17.1238 22.5871
Au 26.8858 13.8655 18.5337
Pt 21.6417 12.0888 23.8189
Au 27.4484 16.4443 18.8466
Pt 22.0764 21.22 10.673
Au 23.4054 23.6989 14.4111
Pt 10.9776 9.22782 20.6368
Au 21.5683 16.7687 23.9103
Pt 23.638 17.2233 12.2092
Au 19.1654 17.6467 3.71668
Pt 22.7375 11.8854 21.0633
Au 15.0587 23.9381 10.0811
Au 9.18401 5.56119 16.9877
Pt 19.1407 19.1058 16.5737
Pt 18.6702 16.5318 17.3915
Pt 8.12992 19.9527 16.7282
Pt 16.9868 6.39499 16.7398
Pt 7.78406 13.0221 12.4463
Pt 26.0062 18.6942 18.7825
Pt 14.5659 11.3518 7.74419
Pt 14.8348 16.0384 16.5839
Pt 20.7177 12.2047 19.3965
Pt 19.2427 11.7182 8.88683
Pt 13.3102 19.7405 11.3484
Pt 16.3462 17.4446 25.8167
Pt 8.0648 19.1698 19.2594
Au 17.4032 25.6893 10.5441
Au 9.63425 10.3379 25.0323
Pt 14.4384 17.2479 11.9643
Au 7.58913 24.4616 15.5941
Pt 21.1788 12.3339 12.8018
Au 14.3412 26.0754 17.0613
Pt 7.87936 7.90377 16.42
Au 21.7156 12.4164 7.53774
Pt 16.2038 12.6346 15.8854
Au 4.87869 15.757 18.2094
Pt 16.8234 21.0641 21.22
Au 9.52507 7.98099 18.7105
Pt 15.9756 16.7346 13.9554
Au 10.993 8.08229 5.60851
Pt 12.5432 9.7726 9.97076
Au 22.9237 17.8828 7.85478
Pt 19.7247 14.7666 24.053
Au 24.597 16.4676 9.61215
Pt 12.5023 12.1507 6.11732
Au 21.1639 6.8267 11.1144
Pt 17.7598 9.91996 23.5831
Pt 25.2265 19.5383 13.4658
Au 24.0573 18.7814 20.6468
Au 18.5526 24.9766 19.482
Pt 17.1418 9.52756 11.6679
Au 21.6483 23.0159 8.63768
Pt 15.2894 17.9553 5.65724
Au 5.04131 13.0902 11.5901
Pt 13.9152 12.6956 24.9399
Au 27.254 12.7471 15.7381
Pt 10.4165 16.2041 13.3473
Au 27.7813 20.3678 15.1832
Pt 11.1838 14.2699 15.0716
Au 7.97848 10.8508 5.40011
Pt 10.7047 7.69796 16.3087
Au 10.0148 8.21173 13.7169
Pt 9.07114 21.7986 18.7157
Au 26.1407 20.1656 10.9724
Pt 21.9398 13.05 17.2959
Au 21.1818 17.3172 16.8559
Pt 11.5166 9.86004 17.9357
Au 24.131 9.258 20.4623
Pt 6.9538 17.5807 17.0862
Pt 13.3219 15.8469 14.0616
Au 22.1604 20.5271 19.6774
Au 6.26593 10.8725 7.52801
Pt 8.49279 20.033 14.1654
Au 13.7245 17.7393 3.53903
Pt 17.693 15.1209 12.5736
Au 18.6587 7.73386 24.7758
Pt 12.545 5.91623 16.8432
Au 6.50079 18.4935 12.6461
Pt 17.6245 20.5277 11.695
Au 25.6035 22.1642 15.3412
Pt 11.1934 18.3719 10.3595
Au 5.46127 20.9379 12.4774
Pt 20.2319 9.08586 15.0013
Au 16.7649 20.7159 6.26579
Pt 22.5417 14.3287 19.9968
Au 19.7155 19.4771 23.7329
Pt 13.6397 23.5726 18.6294
Au 20.1611 26.0388 10.7041
Pt 13.8961 12.4077 9.93281
Au 20.3649 7.78123 22.6533
Pt 20.5139 23.9108 14.8467
Pt 15.3402 11.8076 20.3855
Au 21.5708 24.9739 18.3888
Au 14.5276 22.2223 6.62889
Pt 10.7969 20.2426 17.9395
Au 26.0963 16.9756 21.0774
Pt 11.6194 9.91737 15.1397
Au 19.5715 11.1655 6.03585
Pt 21.9072 16.2961 14.4154
Au 19.7204 14.8152 26.8543
Pt 8.82443 10.5359 11.9284
Au 8.04356 21.636 22.6777
Pt 14.0576 11.1286 16.7525
Au 20.7977 15.7912 21.3919
Pt 15.9227 13.5839 11.3454
Au 23.2479 23.0252 19.3698
Pt 12.7119 22.3471 11.1325
Au 11.8454 19.344 4.90122
Pt 23.6123 18.4494 17.9044
Au 17.5935 21.3678 23.8216
Pt 16.8111 15.3107 5.75429
Au 21.3283 18.5599 21.6242
Pt 8.82216 17.5475 21.2658
Pt 9.1565 17.371 8.41127
Au 12.0518 11.0236 23.6423
Au 6.49216 5.66916 16.4708
Pt 13.0761 19.9951 19.3181
Au 9.13387 14.9824 4.27276
Pt 23.1807 10.9141 18.5049
Au 5.96023 16.4163 8.34997
Pt 10.9455 20.5607 12.7077
Au 6.744 22.1332 14.5724
Pt 12.401 9.50905 12.671
Au 5.65871 20.1347 17.7982
Pt 9.79488 11.7519 14.1546
Au 17.4989 14.6975 28.5127
Pt 12.9248 11.6385 19.1943
Au 20.1049 7.34724 8.68754
Pt 13.009 20.5895 16.6239
Au 13.5005 4.69023 14.618
Pt 23.0188 15.4976 17.0066
Au 4.71285 11.1602 9.73429
Pt 10.1692 22.0816 10.8282
Au 10.2452 26.7667 14.4012
Pt 19.354 16.1558 10.5989
Pt 18.0432 14.4518 22.0607
Pt 18.9719 24.8396 12.6999
Pt 6.81202 14.6517 16.7357
Pt 12.1614 16.1732 11.462
Pt 10.4335 8.4962 11.0755
Pt 9.17697 12.9014 16.6573
Pt 8.76175 17.5223 14.9688
Pt 6.30705 16.6688 14.7587
Au 4.32607 17.8862 16.5885
Pt 14.1918 15.2586 10.0375
Au 15.0366 5.83818 7.4246
Pt 12.6835 7.28187 14.0563
Au 9.52018 6.39297 7.19529
Pt 19.3871 23.5263 17.3065
Au 24.2848 9.82712 11.6177
Pt 20.0592 20.0247 12.2364
Au 3.39366 14.6744 13.0842
Pt 11.8767 14.5751 5.2326
Au 17.5828 6.50331 8.01328
Pt 8.28751 14.8682 8.12813
Au 14.129 8.19813 23.2761
Pt 14.6998 17.7207 23.8299
Au 25.3197 12.9679 13.7806
Pt 9.39434 10.3039 9.39353
Au 27.7564 15.4849 16.3004
Pt 12.0787 18.29 13.1924
Pt 14.3383 15.3651 5.1567
Pt 26.5421 17.5664 14.5524
Au 14.4138 20.323 4.5852
Au 11.0326 5.89587 9.65378
Pt 19.6327 21.2029 9.71957
Au 4.00917 15.3546 15.6102
Pt 11.0319 18.4709 20.0515
Au 5.29803 8.35564 20.1071
Pt 7.16698 11.8979 10.092
Au 23.7384 11.1156 9.0152
Pt 17.2207 8.79461 14.3886
Au 9.15405 24.4312 10.5614
Pt 16.4834 11.7961 25.2727
Au 24.3498 21.8924 12.3786
Pt 19.7981 21.052 18.3204
Au 13.5579 17.5704 26.3882
Pt 12.344 17.8475 17.777
Au 9.22481 20.8085 7.21143
Pt 11.5619 22.1134 19.85
Au 4.63035 10.6099 18.4175
Pt 16.2405 22.0976 14.1482
Au 18.0129 19.5326 25.9199
Pt 16.4785 24.0452 12.5354
Pt 17.309 19.6865 18.3556
Au 14.8723 4.41354 17.0052
Au 8.09064 16.7776 25.4062
Pt 14.5613 9.47923 18.9707
Au 14.8344 5.33056 12.2057
Pt 11.5871 11.7301 8.60914
Au 15.3718 13.3563 27.3116
Pt 19.9676 18.458 19.1147
Au 6.77862 9.2711 9.78343
Pt 7.10811 9.44352 18.3796
Au 15.5971 22.9973 22.8671
Pt 18.6383 10.4878 19.2008
Au 12.7214 19.522 24.5893
Pt 10.8572 19.6089 15.3398
Au 13.7816 7.60709 5.62041
Pt 21.3218 9.74517 20.292
Au 25.1544 21.0832 19.8484
Pt 10.8001 13.3287 18.7555
Au 13.243 11.8207 27.4337
Pt 22.7174 13.7182 14.7424
Au 4.70345 12.8948 16.6809
Pt 17.0288 6.63315 12.9336
Pt 18.1731 10.7811 15.8878
Au 9.2388 18.5818 5.59387
Au 14.3345 10.3037 4.99052
Pt 9.11807 19.7328 9.63872
Au 23.4573 6.77946 16.2764
Pt 17.6377 21.7359 16.4674
Au 21.7606 9.31101 12.578
Pt 14.7834 18.703 17.6886
Au 13.1108 22.1987 23.7433
Pt 10.232 16.2347 6.40418
Au 11.1995 8.4524 23.3387
Pt 24.0733 11.8617 16.2057
Au 22.2382 7.21371 20.8292
Pt 24.0623 21.2271 17.5036
Au 12.8964 23.3211 8.49338
Pt 13.8194 23.5909 13.0886
Au 6.99438 23.1851 11.8628
Pt 22.6962 14.7489 12.2365
Au 19.2325 20.2449 5.01586
Pt 17.7391 22.9463 10.5905
Au 10.7944 5.55945 19.1666
Pt 20.7532 13.8004 10.6419
Au 17.5589 3.79487 16.9787
Pt 13.8593 16.6156 19.5382
Au 27.9196 19.144 12.8388
Au 7.95225 9.14271 20.8442
Pt 25.2445 14.2748 16.2831
Au 21.817 20.423 7.87393
Pt 19.7167 9.45686 10.6279
Au 12.0933 4.9908 12.2356
Pt 21.9913 16.2788 10.051
Au 8.44617 12.6464 25.9288
Pt 16.0366 9.40618 21.3064
Au 18.6836 8.63475 6.5886
Pt 17.0768 18.8032 23.3665
Au 7.28126 13.6285 5.86619
Pt 20.2954 14.7342 15.8669
Au 12.4821 7.64594 19.0751
Pt 15.3643 12.9269 5.79097
Pt 9.65245 17.9296 17.5609
Pt 11.7792 20.7459 9.15446
Pt 18.6779 13.0513 14.3309
Au 15.8408 14.1109 3.27898
Pt 17.0981 20.8941 8.99405
Au 5.17292 7.82029 17.4092
Pt 17.9631 17.8802 12.3871
Au 18.9189 6.31672 15.0293
Pt 8.06465 12.3293 21.2159
Au 8.54853 7.19693 9.60388
Pt 9.2977 18.3443 12.165
Au 8.40142 18.99 23.8072
Pt 20.8527 17.449 12.3149
Pt 12.5961 12.0051 13.9428
Pt 5.92422 14.206 14.0602
Au 18.0394 17.088 27.7068
Pt 17.0193 8.08621 19.1314
Au 5.81988 10.9912 20.7771
Pt 13.7327 13.7013 15.6323
Au 5.56679 13.4446 19.5034
Pt 25.4286 16.8441 16.7781
Au 16.5099 7.26226 5.54209
Pt 16.2252 18.5849 8.05725
Au 23.8787 12.4514 11.4317
Pt 12.8961 7.29576 11.2079
Au 24.1101 8.42915 14.042
Pt 15.906 13.8029 8.33344
Au 8.12033 6.21843 14.3413
Pt 15.538 14.0863 13.8108
Au 20.9806 18.2901 5.77411
Pt 13.8272 18.2717 15.2045
Au 5.3281 15.8118 20.9598
Pt 15.2923 21.4991 18.2784
Pt 24.6857 15.9567 19.1217
Pt 18.0568 14.048 9.7622
Au 4.40964 12.031 14.0746
Au 15.376 20.0113 25.4053
Pt 17.7011 9.18002 8.99747
Au 16.4171 16.7638 3.44125
Pt 23.2902 11.1342 13.8171
Au 18.3453 10.0035 26.2969
Pt 15.2877 21.6802 11.6587
Au 25.3303 14.7933 11.6067
Pt 20.4072 14.921 18.6049
Au 24.1576 23.9947 17.0163
Pt 5.45753 15.9614 12.1377
Au 19.2361 5.49492 18.1493
Pt 6.98268 11.9335 17.7976
Au 26.2392 17.3891 11.7795
Pt 12.8297 14.2734 20.1682
Au 18.8839 3.63248 14.6738
Pt 13.3173 13.8062 12.2837
Au 6.8711 22.541 17.3872
Pt 20.0452 10.7201 22.2692
Au 5.46729 18.1242 19.5282
Pt 20.2325 14.5233 8.27729
Au 16.458 4.6897 9.75275
Pt 9.36767 15.484 16.9343
Au 8.39509 8.35562 23.5164
Au 18.5527 14.9703 3.65687
Pt 15.0625 9.6135 9.9327
Au 11.0988 16.8844 3.89652
Pt 12.3304 15.1341 17.4783
Au 16.7239 23.2829 7.95094
Pt 14.8324 6.94616 17.9767
Au 23.0708 23.822 11.0133
Pt 9.88375 12.6853 5.40421
Au 20.9523 9.80709 7.95386
Pt 9.19198 22.6116 13.3879
Au 20.5258 23.0617 19.9723
Pt 16.9261 16.0259 23.7602
Au 10.7479 22.9258 22.3244
Au 19.2361 22.1829 7.1445
Pt 13.6426 18.0958 9.20719
Au 6.73934 19.3263 21.6737
Au 22.6211 9.64815 22.7707
Pt 13.5768 20.8217 13.8313
Au 9.16583 10.2257 16.5082
Pt 18.4589 6.43499 20.6797
Au 19.6108 20.8196 21.2492
