561
Atoms. Timestep: 20434
Pt 10.964 13.2894 17.7107
Au 5.50786 18.6926 17.5565
Pt 6.64442 11.8321 18.2483
Au 6.8717 13.6185 6.43778
Pt 8.90162 17.9137 8.64489
Pt 9.79416 10.6363 14.6496
Au 20.1885 24.7675 17.5526
Pt 14.5889 16.0722 22.7145
Au 9.03763 22.8227 14.6181
Pt 19.8715 17.933 17.8111
Au 15.8424 17.7474 27.465
Pt 12.9023 18.4507 18.0914
Au 21.159 12.5441 5.55405
Pt 17.1271 13.8237 24.7682
Pt 10.5019 18.3942 14.7487
Au 20.4952 18.139 3.93916
Au 24.278 15.8841 20.5691
Pt 9.09815 15.9634 20.7385
Au 20.5941 8.36613 7.17894
Pt 12.1198 15.9911 17.7805
Au 8.77975 10.9896 26.3461
Pt 20.734 13.3337 18.9975
Au 8.29794 13.1947 24.5969
Pt 15.4876 6.04117 19.1791
Au 9.9579 20.1894 24.1292
Pt 13.4737 17.0173 20.4284
Au 8.82912 22.1239 10.1695
Au 21.637 6.62057 12.3975
Pt 19.0893 18.0817 9.82872
Au 14.4839 10.8835 26.5879
Pt 18.7683 24.4709 10.9506
Au 16.2984 3.62996 20.1014
Pt 7.54574 17.278 18.668
Au 13.9838 10.517 4.84422
Au 15.6302 25.2467 9.68669
Pt 20.694 13.9782 10.5711
Pt 7.6861 14.2522 21.9885
Pt 8.57981 13.3334 8.49899
Pt 14.8312 11.3537 21.5351
Pt 12.6118 10.0385 7.04097
Pt 10.872 10.6517 12.2007
Pt 18.5196 13.5057 12.0175
Au 14.3156 6.63421 10.7777
Pt 18.8526 9.88825 15.2854
Au 22.4768 10.4484 6.93952
Pt 9.78823 7.94657 13.6792
Au 21.0826 20.8194 24.2296
Pt 24.2038 19.02 15.0666
Au 5.92111 10.0552 21.734
Pt 18.2836 12.2168 18.622
Au 7.40984 15.896 7.81288
Pt 13.5212 5.76038 17.1068
Au 4.57661 12.6172 14.5331
Pt 6.7882 14.8168 19.1764
Au 23.8065 22.0488 10.9744
Pt 20.4562 10.9495 17.4968
Pt 12.6994 19.345 10.074
Pt 10.2566 19.4704 6.40319
Au 22.0555 6.65386 18.0346
Au 5.85255 12.6556 23.2682
Pt 18.0044 9.64598 17.7719
Au 16.9942 11.5708 3.75623
Pt 16.9254 23.6301 18.1559
Au 14.1513 22.3096 24.9685
Pt 7.22503 16.5467 13.8002
Au 25.5217 15.7801 8.40945
Pt 19.1632 15.0233 5.84619
Au 7.78399 19.9378 22.4394
Pt 10.2833 11.4276 24.0654
Au 17.8784 11.4456 26.0292
Pt 16.4061 10.7335 13.727
Au 4.34378 16.1461 17.2327
Pt 15.3896 8.43407 17.929
Au 14.2299 4.57005 12.4792
Pt 18.4474 16.1662 25.0065
Au 11.3629 7.42332 25.8743
Pt 16.5574 8.49088 15.4669
Au 14.3409 13.9792 24.8536
Pt 18.7896 6.3723 12.0325
Pt 18.7289 21.6364 12.1314
Au 8.51057 20.6927 5.12052
Au 12.3318 20.1419 25.4275
Pt 19.6563 14.0771 23.6423
Au 25.8652 20.2725 10.8748
Pt 12.6608 8.81344 11.4675
Au 12.2491 11.7451 15.4249
Pt 17.5237 12.4214 21.0517
Au 16.1417 6.5598 8.3819
Pt 9.06984 17.7209 12.4546
Au 8.23154 11.3052 6.49499
Pt 17.7719 8.60912 13.0996
Au 18.99 24.3523 22.1769
Pt 15.8056 20.2448 12.1467
Au 6.88092 17.0881 10.6289
Pt 12.074 22.2623 9.76953
Au 15.4523 3.64806 17.5517
Pt 21.0976 15.8666 16.8581
Au 16.6621 23.1997 23.41
Pt 18.7548 7.30175 16.9369
Au 4.05805 11.4547 20.0713
Pt 11.369 21.2989 14.113
Au 24.8498 21.411 16.6198
Au 17.9344 20.961 5.50901
Pt 17.6482 7.74982 19.5187
Au 14.4068 12.9599 3.72053
Pt 23.1812 17.3159 18.3148
Au 7.84167 20.3664 7.92999
Pt 7.47497 12.4598 10.8065
Au 6.18905 19.296 20.1763
Pt 12.9762 11.6641 24.4494
Au 13.7549 8.48139 25.8676
Pt 13.035 6.87096 19.4798
Au 13.7696 14.7969 13.0257
Pt 14.7246 21.0312 9.61648
Au 10.1942 13.1235 26.7095
Pt 8.21804 13.7335 17.0835
Au 16.9116 21.8288 25.774
Pt 12.926 8.41456 17.0688
Au 7.81343 8.21366 22.7467
Au 16.5196 9.83515 5.77866
Pt 15.0806 22.521 13.3279
Au 25.5846 18.6482 8.72427
Au 5.17028 17.9864 15.0463
Pt 6.92018 16.0584 16.4647
Au 11.4595 22.571 23.6243
Pt 14.9716 21.2502 21.0067
Au 19.2863 22.8484 24.414
Pt 14.5065 23.9982 17.268
Au 23.988 21.5874 19.9113
Pt 14.381 9.34342 23.2807
Au 11.0278 26.8918 16.3502
Au 11.5527 15.5495 26.9167
Pt 12.1485 9.07753 14.1656
Pt 19.943 7.58313 14.2451
Pt 15.2475 7.99062 20.9943
Pt 9.87775 13.22 15.1941
Pt 16.0444 6.44981 13.0197
Pt 14.3183 10.9934 17.5702
Pt 12.339 18.8696 12.9168
Pt 13.0394 19.7033 5.46069
Pt 8.7335 8.21666 18.4625
Pt 9.54106 15.639 18.1912
Pt 11.4692 14.9263 10.9984
Au 5.29898 9.36605 19.0271
Au 7.98236 17.8412 24.4426
Pt 11.0842 9.12427 8.98952
Au 17.4902 5.70925 21.2363
Pt 16.1166 9.24598 8.50622
Au 5.02843 16.8222 19.7529
Pt 7.97021 10.2068 19.9376
Au 16.6651 5.10281 10.6979
Pt 21.2685 22.8797 10.8261
Au 19.0688 7.78651 21.9385
Pt 8.83937 13.3014 19.673
Au 11.6899 13.2843 4.06588
Pt 22.8697 12.0189 17.993
Au 22.9454 23.8274 12.9175
Pt 14.7503 23.4586 19.7776
Au 17.8848 18.9892 3.35725
Pt 17.164 22.7601 20.7764
Au 13.0417 26.4775 18.0454
Pt 10.7168 17.5624 10.4978
Au 6.94616 7.59822 20.3408
Pt 23.4289 13.0211 11.3493
Pt 19.1309 20.1602 7.94335
Au 18.787 9.2934 24.3051
Au 11.1249 24.4033 21.5016
Pt 24.3583 12.7371 15.9377
Au 16.4943 23.3633 6.08284
Pt 11.4685 6.73053 15.4011
Au 13.6432 5.91082 8.14807
Pt 12.9648 12.337 19.7317
Au 23.043 9.16911 18.6108
Pt 14.3573 9.86222 15.2619
Au 14.8637 17.501 13.2579
Pt 12.1972 15.3454 6.41967
Au 15.0559 16.3065 18.1654
Pt 9.24311 14.9325 12.9435
Au 11.433 25.4819 11.7337
Pt 16.7353 16.5536 5.73325
Au 5.75648 7.28628 15.2533
Pt 17.2356 21.3886 14.2852
Au 14.5102 8.09114 6.49834
Pt 11.1217 22.4198 16.8903
Au 9.3149 8.85605 24.9186
Pt 20.5178 20.6845 17.3191
Pt 13.4858 22.3184 15.5327
Au 8.95143 18.0261 4.08213
Au 8.75971 10.427 9.53141
Pt 13.5062 11.2485 12.9204
Au 4.2415 11.4479 17.2856
Pt 12.0367 13.5621 8.70202
Au 12.935 17.4471 15.4594
Pt 16.7843 18.9891 7.84002
Au 17.2893 15.3819 27.2853
Pt 22.8142 10.4534 15.9198
Au 13.7532 13.7864 17.4615
Pt 8.3433 11.583 22.1485
Au 14.9843 15.6248 15.4597
Pt 20.3144 12.3658 21.7115
Au 17.2315 17.4765 11.6665
Pt 24.3006 17.1026 13.1581
Au 5.661 8.64962 12.7517
Pt 16.6363 11.3024 16.4723
Au 10.4706 6.90593 23.3427
Pt 6.3141 12.5298 20.6255
Au 7.19631 10.4708 24.2401
Pt 23.9335 14.5227 13.7782
Pt 10.5246 20.4286 21.5214
Au 9.21521 7.1873 8.70801
Au 9.18988 22.5658 22.1577
Pt 7.93185 18.3391 15.6318
Au 17.4443 4.07387 13.1114
Pt 20.1588 19.2357 22.0863
Au 8.15221 22.4572 17.3976
Pt 13.1614 20.7547 22.9405
Au 11.155 21.8722 5.20113
Pt 21.9347 18.3879 16.2558
Au 15.2807 4.31559 14.9015
Pt 15.2553 18.3797 10.2235
Au 19.3273 26.2301 13.0399
Pt 23.1054 11.856 13.7362
Au 5.9647 10.0559 10.4605
Pt 10.7567 20.3934 18.7442
Au 10.2932 25.1897 14.221
Pt 15.1319 20.9461 6.67608
Au 18.5894 16.3104 3.55207
Pt 12.9404 16.2894 24.746
Au 20.492 11.5789 24.7382
Pt 12.6607 23.7797 13.5175
Au 21.1114 16.0478 25.3893
Au 8.92507 15.5354 26.0544
Pt 12.3518 22.194 20.7268
Au 18.7198 6.4583 9.28534
Pt 8.91125 20.1377 13.5884
Au 6.20047 14.535 12.1487
Pt 17.3982 23.9024 13.0537
Au 10.2535 24.2855 9.55948
Pt 17.5166 20.121 10.2509
Au 10.8619 19.8 3.54307
Pt 19.5523 13.4485 16.6749
Au 20.543 24.4844 8.82425
Pt 14.9663 25.1134 13.5006
Au 11.8954 23.731 7.274
Pt 23.8641 16.3367 15.8692
Au 22.8069 11.7466 22.564
Pt 10.2797 13.4072 22.1417
Au 15.696 16.8603 3.29116
Au 7.41435 21.9317 12.5119
Pt 15.7625 20.6571 23.5704
Pt 11.7667 10.7349 17.8711
Pt 17.3529 11.4311 8.06252
Pt 9.14628 11.1238 17.5535
Pt 14.5742 14.0403 8.29232
Pt 12.8881 12.637 6.37386
Pt 17.359 17.9555 23.1221
Pt 10.0308 8.34148 11.1444
Pt 16.1066 6.20589 16.625
Pt 16.9439 14.7491 19.8203
Pt 18.2511 11.7768 23.3628
Pt 15.616 12.6273 19.1024
Pt 20.2354 8.62339 18.8041
Au 7.37402 7.70034 10.6666
Au 17.6259 26.0421 17.0967
Pt 19.2028 11.067 12.8645
Au 13.385 25.6289 20.6283
Pt 19.2318 22.5581 18.9433
Au 4.73837 15.3108 14.6003
Pt 16.8989 9.71642 22.3308
Au 13.7104 22.8072 5.41344
Pt 21.2737 18.8129 8.38306
Au 14.3349 20.0018 14.4174
Pt 14.0902 7.00236 14.7768
Au 25.6268 16.1158 18.1185
Pt 17.0167 14.3171 7.39489
Au 4.99059 9.95983 15.1436
Pt 18.7057 9.16089 9.11224
Au 23.7874 12.8776 7.08165
Pt 19.1047 19.9051 19.4499
Au 24.4371 18.8453 20.1449
Pt 9.98215 9.39909 21.9944
Au 4.79935 12.4296 11.1157
Pt 18.9248 15.4728 18.3421
Pt 16.2976 10.1835 19.6917
Au 25.3109 14.978 11.2067
Au 11.6475 6.48771 9.84718
Pt 8.82262 12.3739 12.9595
Au 8.74146 24.3043 12.0535
Pt 7.23012 13.9812 14.542
Au 13.1481 15.5749 3.64887
Pt 13.1337 16.1596 8.88612
Au 7.17789 9.00799 8.05628
Pt 8.23654 9.87782 12.1555
Au 25.4459 13.2023 18.511
Pt 23.9482 17.2552 10.3123
Au 15.4428 15.4476 10.7898
Pt 19.3598 14.6445 20.9065
Au 12.1473 14.6929 15.3501
Pt 12.2167 20.0236 16.2507
Au 26.3544 17.4023 15.4419
Pt 19.809 20.6438 14.6095
Au 13.6234 4.0715 19.655
Pt 15.6946 13.6313 22.4141
Au 12.5039 4.38965 14.711
Pt 9.37054 15.6156 23.5214
Pt 21.8286 12.416 8.84516
Au 16.8349 14.2672 4.13564
Au 6.64803 15.4146 24.1381
Pt 21.5956 14.6483 7.12091
Au 15.4629 19.5424 2.42061
Pt 11.4498 14.6151 20.008
Au 26.3888 17.5788 11.2622
Pt 19.3877 13.6711 8.22287
Au 17.8337 3.83677 15.9699
Pt 13.6893 8.60521 9.04213
Au 15.3913 18.6202 16.5529
Pt 15.1095 19.0899 19.3322
Au 6.8408 20.782 15.3758
Pt 14.2806 14.6251 20.231
Au 12.8614 13.0377 26.9576
Pt 19.4458 15.1243 14.679
Au 9.65663 9.05143 6.70046
Pt 12.4879 8.11194 21.7002
Au 19.4547 22.7564 6.86061
Pt 11.7073 15.9135 22.2924
Au 7.38607 4.98041 15.8014
Pt 10.1175 18.1079 17.4076
Pt 20.8376 16.1817 9.19721
Au 25.2799 13.0082 9.34283
Au 24.0136 8.07808 16.3441
Pt 9.57756 20.5307 16.1045
Au 13.9384 23.5713 22.5085
Pt 23.7649 19.4661 12.2175
Au 26.61 15.6718 13.4048
Pt 21.1359 13.6726 13.1154
Au 17.5498 16.6196 16.163
Pt 21.7679 18.8083 13.6791
Au 9.6843 6.73968 20.7026
Pt 14.8981 8.7355 12.8294
Au 12.6019 3.34046 17.2384
Pt 11.3752 16.3471 13.2763
Au 19.7099 16.2139 12.1931
Pt 17.4802 15.4296 22.555
Au 6.48859 19.1642 12.9814
Pt 9.64627 16.613 6.38465
Au 17.9873 7.88081 6.83757
Pt 18.1333 15.3072 10.0229
Au 21.6907 21.7079 8.27
Pt 11.6967 17.93 7.7653
Pt 10.114 13.8367 6.45197
Au 6.94522 17.1401 21.8644
Au 24.3609 11.136 20.2049
Pt 10.1715 12.687 10.5714
Au 22.2378 13.617 24.5784
Pt 12.4991 21.0091 7.59232
Au 23.5366 19.7161 7.0008
Pt 13.1843 21.2021 11.9979
Au 13.2743 18.289 3.08599
Pt 12.3167 24.6538 16.0158
Au 16.141 25.1464 21.4768
Pt 14.473 18.5052 24.6301
Au 19.196 9.99587 5.18575
Pt 23.2432 14.6596 17.954
Au 10.7932 11.0617 5.19921
Pt 16.5274 22.7794 10.7449
Au 21.746 7.99827 20.7977
Pt 12.2592 18.3523 22.991
Au 10.9735 4.4627 19.2675
Pt 15.7984 19.021 5.09262
Au 14.5025 23.2969 8.13945
Pt 12.3405 23.8786 18.7082
Pt 11.0241 8.8351 19.5385
Pt 22.3028 17.3413 21.7283
Pt 14.8171 18.7187 22.0676
Pt 11.5565 17.5681 4.95634
Pt 12.2751 10.8663 21.9566
Pt 17.8771 6.17956 14.7449
Pt 13.1835 16.9609 11.3077
Pt 7.30018 11.6203 15.5668
Au 13.0877 17.9398 26.9204
Pt 22.0731 13.8115 15.6762
Au 18.9885 10.1821 20.5739
Pt 8.6557 7.11586 16.0282
Au 14.7883 5.42775 21.8148
Pt 19.8756 8.81586 11.4956
Au 9.70973 5.12437 14.0216
Pt 11.5558 13.1477 12.9923
Au 19.4206 13.4897 3.62034
Pt 9.76623 17.9607 22.4525
Au 25.2037 10.5194 17.5426
Pt 21.5397 11.302 11.5708
Au 6.26341 11.7401 8.40234
Pt 18.3359 12.4802 5.85931
Au 26.2689 19.2638 13.3927
Pt 14.8498 10.4992 10.7768
Au 15.6208 26.0299 18.9227
Pt 19.3439 21.7462 21.6492
Pt 14.0511 17.2099 5.84842
Pt 12.3384 11.1345 9.97606
Au 9.39568 5.84544 11.4253
Au 25.2804 10.2742 14.7345
Pt 8.5951 15.1308 10.4881
Au 23.8916 15.313 5.90377
Pt 14.7151 14.7485 5.76199
Au 20.9305 20.0565 5.89798
Pt 21.5971 10.8427 20.076
Au 23.4885 23.5486 15.53
Pt 17.8332 5.17348 18.3641
Au 16.7578 14.064 17.0122
Pt 19.0206 17.3561 20.5453
Au 12.9929 13.5053 22.3681
Pt 20.6185 11.7875 14.9302
Au 7.96473 19.6102 10.686
Pt 20.8719 22.9233 15.651
Au 24.6374 17.9985 22.6562
Pt 10.0498 22.8989 19.4134
Au 14.8053 26.3517 15.9846
Pt 7.61119 9.14136 14.5549
Au 6.28285 6.8903 17.794
Pt 10.8803 6.70679 17.9392
Pt 21.294 9.81435 9.34206
Au 4.24415 13.9545 19.0988
Au 10.2159 15.4843 3.91153
Pt 14.1528 18.8049 7.87728
Au 13.2664 21.0994 3.24186
Pt 19.3493 11.7022 10.0776
Au 4.91203 16.9696 12.4619
Pt 21.497 18.7301 19.7539
Au 14.7978 12.8149 15.02
Pt 16.7509 7.92787 10.7523
Au 10.4392 11.4029 20.1491
Pt 13.7562 13.1696 10.7586
Au 24.58 21.5856 13.7402
Pt 9.52931 15.9744 15.5163
Au 24.7119 10.5625 12.0274
Pt 19.3299 19.0481 12.4563
Au 18.7077 17.7755 27.1584
Pt 10.8058 22.811 12.0345
Au 16.357 7.2495 23.3682
Pt 20.0354 16.6333 22.8616
Au 25.8672 12.7751 13.4276
Pt 15.6989 21.4299 16.5161
Pt 22.4675 20.9258 15.4403
Au 7.46652 18.2971 6.27101
Au 26.8587 12.089 16.0688
Pt 16.2785 17.03 20.7761
Au 9.6972 22.238 7.4785
Pt 15.6901 11.571 24.2034
Au 22.3239 18.369 24.2399
Pt 18.4198 16.6577 7.81888
Au 16.9617 15.4074 13.4663
Pt 19.0895 22.2978 9.53929
Au 17.863 12.874 14.6158
Pt 6.98152 9.41938 17.0278
Au 17.1522 18.6749 14.2016
Pt 21.3641 21.3258 19.9917
Au 20.8928 9.79731 22.6518
Pt 22.9914 13.4131 20.2788
Au 13.967 26.4756 11.5184
Pt 11.3664 14.0643 24.5459
Au 20.1734 5.11115 16.7474
Pt 13.9801 23.6363 11.1501
Au 12.8115 25.2197 9.34935
Pt 15.8623 16.3274 25.0459
Au 25.2703 17.5889 6.32463
Pt 19.8863 11.0459 7.46464
Au 25.4233 18.8476 17.5334
Au 17.0592 26.588 14.4839
Pt 23.195 14.7324 9.23292
Au 23.4959 15.9405 23.8955
Pt 10.5279 20.2319 11.5748
Au 17.7849 24.4385 8.34923
Pt 20.6202 20.3775 10.4959
Au 15.8585 12.9698 12.4393
Pt 12.7364 19.6078 20.4869
Au 7.90573 21.4774 20.0572
Pt 8.88835 18.8739 20.157
Au 5.9912 14.3115 9.41492
Pt 7.91469 19.8181 17.9166
Au 15.791 21.629 4.03102
Pt 21.574 18.0355 11.1323
Pt 10.5817 11.5697 7.88264
Pt 10.3492 15.5669 8.63112
Pt 5.57986 13.7468 16.7663
Au 14.8452 20.2297 26.6382
Pt 23.0132 20.0529 18.0009
Au 8.78186 13.0982 4.40303
Pt 21.8029 14.7164 22.1457
Au 21.4152 15.4216 4.40459
Pt 14.5017 11.3879 8.31278
Au 23.846 10.7066 9.4487
Pt 16.9613 21.8093 8.19565
Au 19.2038 20.5251 26.3172
Pt 16.7823 21.0063 18.7744
Pt 13.5735 21.3163 18.339
Pt 17.3299 17.9423 18.5654
Au 11.7831 7.40381 7.05481
Pt 18.558 18.4106 5.85162
Au 20.9819 24.1093 20.1852
Pt 22.4681 15.6039 11.6852
Au 22.8322 20.1623 22.0582
Pt 6.33535 11.3941 13.0736
Au 24.4281 13.8711 22.4544
Pt 21.7741 21.3163 12.8716
Au 8.4316 5.445 18.4733
Pt 17.3192 10.5321 11.0804
Au 7.45598 6.55174 13.2899
Pt 16.5686 13.0075 9.87478
Au 12.0448 5.40864 21.6229
Pt 11.8446 9.24188 24.0299
Au 15.8644 13.0994 27.0513
Pt 15.6391 12.3362 6.10619
Au 22.9018 17.8206 5.09389
Pt 15.71 16.5445 8.23164
Pt 21.1345 8.55 16.327
Pt 10.3823 8.98746 16.4594
Au 19.934 6.07616 19.7027
Au 21.2345 7.17419 9.72906
Pt 22.6681 8.90949 11.3491
Au 26.1324 14.6746 15.8723
Pt 20.7337 17.1106 6.49518
Au 18.3831 25.2518 19.7085
Pt 20.1681 23.5006 13.1767
Au 14.3501 15.4607 27.2275
Pt 23.1022 17.0542 7.82842
Au 20.047 4.79856 13.9857
Pt 13.5829 9.61299 19.7258
Au 16.3243 9.19472 25.3236
Pt 18.4273 22.2948 16.4563
Au 5.11224 14.8366 21.6365
Pt 19.6834 18.4619 24.7236
Au 22.1884 6.31653 15.1571
Pt 18.0917 19.6487 16.6107
Au 10.1698 4.4567 16.5662
Pt 21.4884 9.57101 13.672
Au 21.6262 22.7565 22.4151
Pt 18.8444 24.6005 15.1962
Au 21.4588 25.3954 14.6639
Pt 23.2633 19.7865 9.68419
Au 9.65661 24.6572 16.9481
Au 21.3031 25.4515 11.4372
Pt 21.818 16.2312 14.1873
Au 10.6503 25.8073 19.1674
Pt 11.0453 17.5235 19.9316
Au 16.8271 26.2946 11.7889
Pt 18.3229 20.5133 23.6721
Au 19.4714 13.8133 26.2789
Pt 16.3117 23.8753 15.4605
Au 12.0422 6.40168 12.6903
Pt 21.3755 15.9088 19.6648
Au 12.7229 26.5729 14.0756
Pt 10.379 20.0865 9.00821
Au 23.7654 8.20203 13.6696
Au 10.6476 17.6703 25.2497
Pt 17.0116 18.9827 25.4664
Au 11.5321 10.4298 26.4481
Au 22.3857 22.8513 17.9669
Pt 19.6644 17.8306 14.9935
Au 13.3756 6.73597 23.838
Pt 17.2589 19.8027 21.2373
Au 7.67905 15.6614 4.93752
