1687
Atoms. Timestep: 21127
Au 24.0302 34.1724 25.5364
Au 22.9691 37.8722 14.4371
Au 21.4996 33.2706 21.5585
Au 9.67096 11.8738 31.6567
Au 32.9602 7.09011 18.9743
Au 5.56701 28.164 14.1949
Au 9.72236 17.7503 3.84616
Pd 18.0353 18.0868 15.2271
Au 16.3893 8.98972 10.9698
Au 19.6345 10.7029 33.2579
Pd 10.7527 13.499 29.781
Au 11.2795 17.9937 9.12887
Au 23.5404 3.70225 28.8234
Pd 18.7372 16.046 7.83321
Au 14.4899 11.2692 22.9398
Au 23.7165 11.6468 28.1533
Au 11.6243 15.4407 28.1833
Pd 11.2995 10.6616 18.6309
Pd 19.496 10.9304 18.1041
Pd 10.9653 27.8673 13.4089
Pd 20.9356 15.7107 34.1267
Pd 16.9131 8.84734 28.965
Au 23.2193 19.7441 11.7114
Pd 16.5281 31.0063 31.0448
Au 12.6053 6.29908 9.40814
Au 29.7645 21.0814 19.3022
Au 8.77565 15.2538 16.9752
Au 8.21685 8.583 16.8646
Au 12.1473 28.0506 2.57631
Au 31.8414 8.24305 26.4577
Au 1.02805 12.8785 16.9358
Pd 17.8337 28.0634 18.8536
Au 26.5343 15.8908 21.321
Au 10.727 9.47539 24.2761
Au 21.678 35.4651 14.7477
Au 17.9346 13.7785 9.04569
Au 9.27381 20.2392 19.0396
Au 34.4758 24.2678 16.6011
Au 17.2688 23.4242 20.1387
Au 22.0399 5.26107 27.1355
Au 5.81013 9.11663 25.3885
Au 5.35236 20.939 29.7127
Au 29.4991 26.3148 15.7872
Au 7.28511 22.1987 18.916
Au 23.5144 20.9413 16.2478
Au 27.4083 3.67172 26.1994
Au 32.108 12.7627 23.7713
Au 30.0373 8.64152 32.3276
Au 29.5032 15.5038 30.8567
Au 22.7005 15.8454 13.012
Au 12.5875 11.2343 30.2267
Au 5.27829 9.31187 17.1906
Pd 26.2032 5.18296 24.3271
Au 22.3548 17.373 17.8828
Au 19.7965 30.7914 21.9488
Au 10.2299 9.00344 21.7204
Au 22.2047 14.8982 28.9883
Au 9.54541 10.8824 10.3875
Au 11.7057 15.1351 34.1203
Au 8.00497 13.5147 30.127
Au 19.9935 24.4765 7.38928
Au 4.06566 18.5834 18.0812
Au 12.7647 21.6377 4.12792
Au 13.7151 12.9556 34.1644
Au 27.0977 6.55529 13.0393
Au 27.9038 15.3847 14.1487
Pd 22.1855 29.9095 28.0671
Au 17.5217 22.1646 1.10419
Pd 23.5459 16.3007 15.5078
Au 28.3539 24.6002 28.322
Pd 14.2867 25.5039 9.78596
Au 3.44422 16.4304 25.2962
Pd 21.1341 17.8205 20.4065
Au 31.8008 16.6161 8.24025
Au 16.2336 14.5043 33.2229
Au 5.84489 13.7598 28.4959
Au 23.4469 24.4307 33.7997
Au 16.8724 32.8722 6.90172
Au 8.96681 6.27053 15.5475
Au 17.1981 6.57808 30.6932
Au 25.1479 2.32471 27.2086
Au 10.3795 29.0968 9.99072
Au 19.7297 19.5711 13.885
Au 4.43424 27.803 16.6561
Au 27.1739 20.3688 34.3902
Au 27.183 21.8283 20.495
Au 15.7519 13.9881 10.6384
Au 16.9329 1.02294 17.0024
Au 18.6419 22.5548 31.277
Pd 25.8332 20.0341 7.66095
Au 13.3075 30.6201 25.9143
Au 10.3368 21.9127 17.0903
Au 22.5303 2.10732 20.4336
Au 19.8208 5.67335 31.2899
Au 32.1819 10.717 22.0803
Au 15.277 17.3829 1.30128
Au 30.3922 7.50931 19.4891
Au 15.237 7.37444 9.02077
Pd 19.8526 20.8458 26.8197
Au 6.49338 10.3535 12.5874
Au 21.9289 15.1121 19.7021
Au 18.8461 20.9535 33.7128
Au 23.3423 27.2207 34.4193
Pd 13.7266 8.81155 10.7021
Au 15.8965 15.3232 25.1508
Au 12.6823 32.5214 24.0011
Au 15.7943 9.12637 21.447
Au 25.0356 23.415 19.567
Au 17.9358 18.4121 8.73482
Au 18.3167 2.63077 15.3257
Au 7.96988 25.6534 25.3716
Pd 14.0339 9.94065 27.9782
Au 29.3419 27.9381 24.9174
Au 3.81147 19.1823 24.5285
Pd 19.0098 13.5683 23.0006
Au 21.2555 12.087 29.219
Pd 19.4435 33.7713 17.4813
Au 25.7277 25.0781 17.5948
Pd 21.2648 18.0095 12.2396
Au 13.7654 21.8917 35.4283
Au 14.3189 3.01937 18.9847
Au 20.7836 9.23272 3.034
Pd 31.187 17.9998 21.8124
Au 32.8773 14.7577 28.7488
Au 18.4621 9.89671 20.3895
Au 28.8772 31.9395 14.8092
Au 17.3153 26.804 4.01065
Au 12.4126 24.7034 25.6567
Au 23.5354 26.8662 10.1473
Au 22.7337 2.88984 25.9613
Au 17.396 19.7286 6.2565
Au 31.7593 24.4312 23.2407
Au 11.0155 21.4578 14.4636
Au 13.7479 15.1936 1.27054
Au 20.8911 25.8792 34.3487
Au 32.3799 8.82335 23.9902
Au 25.3499 23.6374 10.6391
Au 19.2539 25.006 10.1751
Au 27.969 30.4004 17.3269
Au 9.48924 14.6132 32.2098
Pd 21.9472 32.3234 26.2242
Au 17.9298 2.45827 12.6601
Au 2.69868 14.9205 21.0879
Pd 25.7759 5.65879 19.8152
Pd 27.2386 14.1021 11.6159
Au 22.8479 37.0425 19.1057
Au 16.9236 2.1702 19.6938
Pd 28.7027 30.574 25.0029
Au 26.7481 21.1088 28.6948
Pd 9.84552 16.7043 14.9411
Au 24.7584 3.18274 19.1526
Pd 18.0103 36.0923 17.4385
Au 21.2552 28.4174 22.1888
Au 25.1426 23.8178 22.2602
Au 21.5779 13.6189 22
Pd 12.3695 24.149 8.14729
Pd 5.89373 24.4537 24.0379
Au 20.8785 8.08482 5.51167
Au 1.55783 15.2806 18.4512
Au 23.1242 15.2323 5.9495
Au 19.9936 18.3054 34.9079
Au 26.823 32.8303 8.97885
Au 7.37739 27.9914 16.2919
Pd 20.9684 19.0694 23.4442
Pd 11.142 24.2254 16.0802
Pd 14.2412 17.4396 5.52064
Au 20.6929 36.1813 17.1894
Au 17.4652 11.6953 29.4321
Au 6.07713 14.3093 9.52753
Au 14.4331 29.3735 16.6282
Au 27.1143 4.01424 17.8785
Au 6.20231 23.4887 16.3562
Au 7.50265 25.4762 14.8791
Au 16.7855 13.9023 27.4812
Pd 24.3854 21.2077 21.0778
Au 13.2719 13.7059 11.7275
Au 28.8022 7.42755 30.2294
Pd 11.5227 23.629 5.56079
Au 19.546 12.6422 20.2853
Au 35.449 19.6371 23.4907
Au 31.3986 21.0859 32.1229
Au 22.6242 3.06922 14.7887
Au 15.3885 18.4919 25.8582
Au 16.1231 28.8251 32.844
Pd 21.751 10.7905 31.5007
Au 26.8378 26.8468 23.3079
Au 24.7903 6.61627 22.46
Au 17.767 27.529 28.6811
Au 22.4889 8.86598 14.6332
Au 32.1974 7.93732 21.4928
Au 31.2912 13.2494 20.6709
Au 19.4449 32.4166 24.8915
Au 29.5155 2.89903 18.8834
Pd 13.7652 15.2358 32.5004
Au 31.2689 20.4662 10.2762
Au 27.7446 10.4416 20.6545
Au 14.1837 33.6392 19.8714
Au 3.55922 23.6768 22.9081
Au 29.618 19.6696 33.5056
Au 9.36329 19.9448 8.2529
Au 25.6516 26.1329 27.4961
Au 12.368 23.6532 13.715
Au 10.1826 33.776 20.2437
Au 28.5924 33.2056 25.8062
Au 20.5167 31.2989 12.3704
Au 22.5277 23.0004 29.0155
Au 28.7484 28.9832 15.0487
Au 22.7483 18.9348 35.5388
Au 27.481 33.1656 11.5914
Pd 12.2152 13.5894 6.4566
Pd 19.2277 9.9977 13.7952
Au 20.7725 11.5583 12.1794
Au 10.5576 17.3735 33.2891
Au 23.7547 29.1593 23.0019
Au 5.57207 10.0704 22.7945
Pd 27.4727 15.1684 9.11354
Au 8.1681 17.3991 24.4856
Au 23.132 25.4579 19.5807
Au 21.5089 20.0825 33.1205
Pd 21.193 10.5832 26.7755
Au 36.4804 16.2004 14.8474
Pd 27.0616 28.3502 26.3045
Au 7.98935 12.3804 8.53919
Pd 18.7083 26.8567 6.61608
Au 11.3429 5.39043 16.5959
Pd 16.0569 4.16321 14.7477
Au 7.69659 11.6933 27.9603
Au 7.24573 10.3727 15.2005
Pd 16.7975 36.3571 21.6623
Au 28.635 9.29835 18.1891
Au 26.1591 17.1538 18.8268
Au 11.4977 15.8739 31.0528
Au 9.6564 12.1698 25.5478
Au 4.59554 22.1485 25.14
Au 13.4118 19.61 9.94235
Au 15.0386 36.4071 23.8
Au 14.675 32.7531 29.9816
Au 2.35633 12.911 19.439
Au 21.8817 14.6082 24.5387
Au 9.29778 22.0314 21.7372
Pd 29.9493 23.7807 19.3828
Au 21.3348 16.5916 36.6819
Au 12.417 15.7268 18.9879
Au 11.5807 20.0464 33.1921
Au 31.7397 21.4954 29.5229
Au 23.6952 27.7507 12.7832
Au 19.5466 17.4978 17.4735
Au 24.2956 20.5398 33.389
Au 27.6244 21.4562 6.10859
Au 27.4734 19.5191 19.0229
Au 7.86563 32.2269 15.233
Pd 13.8632 35.0511 17.3646
Pd 23.8798 32.744 20.105
Au 30.101 14.555 23.9896
Pd 15.5568 16.5973 27.8106
Au 14.3062 15.3579 35.2505
Au 9.81789 23.1621 19.4538
Au 35.403 22.8431 18.8315
Pd 9.19761 16.03 29.4144
Au 11.482 25.0809 28.6394
Au 32.9329 10.5716 13.1952
Au 21.0917 25.6045 28.7387
Au 17.2605 9.68634 34.1407
Pd 22.5773 23.4054 21.2481
Au 15.4582 3.59276 12.1782
Pd 23.4103 12.1457 10.4899
Au 23.1182 21.1728 3.22512
Au 9.51769 12.887 6.34512
Au 16.2752 21.211 34.9856
Au 21.222 19.7734 18.4746
Pd 26.3328 11.5372 32.3891
Pd 13.8949 22.4765 9.68895
Au 9.56431 15.6889 19.4769
Pd 15.5212 23.5607 25.4802
Au 19.0347 10.2031 24.7813
Pd 17.5951 25.164 24.8605
Pd 28.121 12.1485 27.3563
Pd 9.66393 6.88258 23.6814
Au 14.3879 21.5576 14.0593
Pd 10.9256 13.7895 23.1667
Au 25.2672 31.2303 21.9641
Pd 13.6474 2.92178 14.0746
Au 14.0205 21.1522 19.8541
Au 10.4402 13.2524 11.5713
Au 16.5655 10.1035 18.4509
Au 9.22 13.9172 27.6088
Pd 22.4378 21.0674 9.31266
Au 16.5171 23.6341 10.3727
Au 22.0771 33.656 16.6544
Au 12.6244 26.1847 15.0019
Au 17.4732 28.1069 16.1609
Au 23.4507 7.24087 19.9184
Pd 20.3854 24.4597 15.5097
Au 20.5758 14.2988 13.9289
Au 24.4658 5.38409 10.9638
Au 21.0891 20.6077 21.139
Au 4.66592 14.372 14.6207
Pd 23.3118 23.8524 17.2065
Pd 15.4466 15.89 3.65209
Pd 17.7606 5.1019 12.6855
Pd 18.92 25.0997 32.5818
Pd 25.1167 33.0279 12.9728
Au 14.6534 21.6624 0.701833
Au 12.3935 27.5859 17.5135
Au 3.34047 13.9611 11.9768
Au 28.7499 12.8002 19.5372
Au 22.7891 5.69386 15.4771
Au 5.96893 21.2498 14.5395
Au 13.9539 37.502 19.0171
Au 2.71134 11.1792 15.4626
Pd 21.3778 29.9396 5.29817
Au 19.6519 33.3043 27.6441
Au 31.7913 14.408 10.0807
Au 16.9634 21.0741 18.7538
Au 7.86028 31.0543 17.6308
Au 30.3987 14.1854 33.1567
Au 31.5932 21.3422 26.8181
Au 18.815 19.1875 19.5488
Pd 19.1818 30.2822 9.95975
Au 20.4819 19.0123 37.6089
Au 24.0464 12.5513 18.5551
Au 19.3385 13.0917 16.3383
Au 19.6569 18.1603 6.52374
Au 26.4495 32.5212 18.7479
Au 14.6718 20.3071 17.4068
Au 21.5887 35.1568 26.6296
Au 8.78357 22.044 9.91291
Au 30.1894 11.3685 32.2989
Au 20.0752 16.5174 23.9353
Au 27.3595 27.9346 31.5008
Au 18.9932 29.4411 7.27252
Pd 29.838 13.8298 12.5702
Au 18.003 17.2943 1.65542
Au 15.2523 31.4172 21.7462
Pd 10.7479 17.9869 19.8686
Pd 15.337 31.698 27.3886
Au 25.1586 9.22341 33.0902
Au 5.96966 18.3683 28.7171
Au 23.2262 7.93222 31.5469
Au 15.6746 8.87842 16.0445
Au 13.3504 21.8126 7.01468
Au 31.4556 20.7913 17.1646
Au 15.0355 11.3087 10.0657
Au 10.9412 18.7425 13.5023
Pd 14.0676 19.6613 2.61067
Au 16.6177 28.626 5.94039
Au 27.3392 16.8833 11.863
Au 22.2484 23.5656 2.35494
Au 14.7669 20.0675 5.31304
Au 15.2385 18.2367 7.92738
Au 14.5184 21.4604 26.9045
Au 30.6241 28.7112 20.4184
Au 20.6201 20.9023 35.6986
Au 25.1222 16.4102 9.21279
Au 35.7844 20.9772 21.0249
Au 13.8866 17.2824 23.7896
Au 27.1195 5.5103 30.8548
Au 16.2748 35.5431 13.1947
Au 8.55694 17.2835 8.6657
Pd 26.6131 18.5811 9.8407
Au 10.4681 9.41858 31.1107
Pd 33.5689 25.8507 21.9337
Au 10.7982 31.8484 10.8727
Au 15.1701 6.41862 11.6798
Pd 11.61 7.15547 14.539
Au 18.2198 31.105 5.36623
Au 26.5301 20.7771 25.7677
Au 20.2354 6.0231 11.669
Pd 7.1292 11.2611 24.7891
Au 31.2681 15.544 26.495
Au 17.6597 21.0054 29.1326
Au 18.762 30.0035 34.5184
Pd 15.9854 28.8616 20.9157
Au 30.6198 30.5485 16.2369
Au 9.29571 8.40081 28.5865
Au 6.12859 21.3512 9.55435
Pd 19.0656 16.4859 12.9234
Pd 25.1858 9.73519 16.4462
Au 34.1988 14.4438 23.8392
Au 15.875 7.53528 6.23899
Pd 17.5411 15.8756 22.9215
Au 18.2524 20.8791 21.6657
Pd 27.3716 7.53786 23.4134
Au 19.0805 22.2717 14.5778
Pd 22.9949 13.5413 15.8322
Pd 21.137 25.736 21.7044
Pd 11.9443 13.3219 32.1169
Au 15.6396 37.5013 17.0352
Au 26.8718 22.4452 8.55312
Au 32.0491 16.1852 31.4009
Au 27.3286 26.2644 6.95193
Au 10.534 26.4201 30.9107
Au 18.3711 8.48813 26.7059
Pd 22.5729 16.5489 10.3186
Au 28.28 34.191 23.0718
Pd 25.9078 12.7642 9.37896
Au 23.2257 16.0586 3.28838
Au 33.6856 20.1363 27.9967
Au 20.2629 7.34854 9.17632
Au 8.26271 31.8552 21.2158
Au 26.5219 11.2826 18.3814
Pd 14.2899 19.9784 33.4076
Au 6.01781 26.1862 12.4903
Pd 21.5337 29.2707 7.89396
Pd 13.2997 30.0213 23.022
Au 22.9956 25.3841 36.3387
Au 21.8588 32.3912 28.9964
Au 17.2364 12.5412 25.003
Au 29.5389 4.41581 16.591
Au 4.61692 20.1981 27.1458
Au 28.839 19.0454 6.29397
Au 20.2123 24.2904 23.8466
Au 27.9095 12.9046 7.5414
Au 22.7439 33.1336 11.1319
Au 17.8099 37.0877 24.0344
Au 8.65739 6.79756 21.0444
Au 18.5226 15.506 15.4598
Au 16.0916 11.8961 20.5354
Au 28.8715 19.1603 11.2743
Au 17.2315 18.8664 33.9147
Pd 11.4292 15.3169 13.0941
Pd 10.9172 13.7397 20.5588
Au 25.6923 7.79656 25.693
Au 24.6208 18.3639 26.3163
Au 17.5494 32.5304 15.6739
Au 22.5419 2.45183 17.6338
Pd 22.8322 24.2616 23.9008
Au 9.68978 28.152 28.8775
Pd 28.8077 5.26132 19.713
Au 19.3246 14.0837 28.9381
Au 21.6167 31.3745 9.54368
Au 12.2883 9.79375 15.0087
Au 31.5265 11.9742 11.2791
Au 14.6374 32.3831 16.8404
Au 33.3767 18.8226 9.07995
Au 18.5093 34.4609 8.38329
Au 13.204 28.6888 9.32456
Au 11.4269 18.6601 1.93846
Au 13.373 5.77518 18.8782
Au 14.8132 30.98 19.1541
Au 21.1554 15.2634 16.6747
Pd 12.3451 7.19371 24.269
Pd 20.5248 16.4756 2.8262
Au 13.6405 24.8665 35.3778
Au 10.6388 25.8803 6.95257
Au 25.0274 30.2118 19.4058
Pd 19.37 31.6156 29.9229
Pd 23.8535 33.3104 22.9486
Pd 31.9931 16.5528 17.6093
Pd 6.13258 18.6662 23.0919
Au 14.375 6.61359 21.3465
Pd 23.2591 28.3766 15.5538
Au 21.285 33.0586 31.5796
Au 24.039 16.7533 20.3769
Pd 25.3992 18.3326 34.6164
Au 30.4179 24.967 10.5739
Au 18.0244 19.606 36.4584
Au 23.9064 20.6664 5.83756
Au 2.68074 16.1073 13.4491
Pd 7.82411 7.39113 25.9152
Au 28.4676 20.7525 16.6856
Au 26.3951 29.6612 23.9842
Au 10.2994 32.6149 22.8288
Au 10.0875 4.45965 20.966
Au 17.4866 37.8959 19.3979
Au 10.167 11.0295 28.8382
Au 13.5896 9.5132 25.1435
Au 34.4952 12.0432 14.9915
Pd 22.0341 6.61619 22.5322
Au 28.6069 30.6419 30.6765
Au 23.3464 10.0463 12.2602
Pd 18.4665 4.60874 29.0817
Au 29.5025 23.2936 25.9164
Pd 27.8478 15.5032 33.0576
Pd 11.2617 17.3794 17.1932
Pd 21.9365 5.01727 9.78213
Au 6.64917 29.2805 24.9554
Pd 20.3938 27.8341 26.7358
Pd 5.35541 14.4727 21.0232
Au 20.5067 23.0999 33.5801
Au 26.0677 30.318 31.7206
Au 15.6223 19.0183 31.2328
Au 20.3852 11.0175 22.276
Au 11.1354 29.5761 30.6051
Au 17.8682 22.7513 8.06029
Au 28.5093 14.826 26.3461
Au 7.50432 28.4685 11.0483
Pd 20.2857 37.8042 19.2932
Pd 16.7304 6.30515 27.9844
Au 20.6768 1.57779 15.8945
Au 27.5836 8.42492 10.8482
Au 24.0512 31.8964 17.3455
Pd 13.5186 22.5655 23.9543
Au 8.24778 18.6227 26.9519
Au 21.2154 9.03858 19.1625
Au 18.4835 24.9649 29.7929
Au 11.8891 16.0182 5.16145
Au 12.3609 29.6627 11.8758
Au 25.6165 14.0465 31.282
Au 27.5813 2.88175 23.3089
Au 27.5808 22.9752 18.0761
Au 9.19173 29.8785 26.5369
Au 26.0533 8.20838 30.6731
Pd 16.3112 18.4065 3.69886
Au 7.69552 24.8543 19.9595
Pd 4.69362 20.92 19.8781
Pd 16.6062 3.62123 17.3469
Au 21.4725 13.9803 3.1569
Au 12.8494 16.9872 14.6594
Au 33.9665 25.1371 19.2341
Au 12.1236 28.1428 32.7235
Au 30.8216 31.2571 26.4161
Au 15.0765 30.4035 12.4195
Au 19.8103 30.6361 27.0356
Au 16.9999 11.8548 32.2871
Au 6.77813 23.4808 29.3158
Au 9.77379 17.0861 11.1888
Au 21.2758 6.777 33.3716
Au 25.3517 36.3865 14.5837
Pd 17.3924 30.6334 25.77
Au 22.3315 29.3623 25.4953
Au 18.8105 32.0698 32.5461
Au 29.5328 22.6387 9.45803
Au 31.9102 19.04 19.3131
Au 18.9504 38.5049 17.0544
Au 23.4871 14.4281 33.5463
Au 9.30194 11.4926 20.1749
Pd 22.3329 26.1493 31.9846
Au 11.9653 2.84459 16.1264
Au 25.7185 28.4733 33.7559
Au 12.366 23.0131 18.7565
Au 6.27388 6.90669 16.4103
Au 24.9842 17.1469 23.2206
Au 27.5463 7.5299 32.8386
Au 19.1094 18.5127 3.92071
Au 23.9934 32.4622 8.44902
Au 22.5413 24.2808 9.52745
Au 7.98947 10.26 30.1946
Au 4.90078 21.0683 22.6957
Pd 21.1417 7.92639 27.0578
Au 19.368 31.0859 17.2197
Au 14.0725 24.0374 27.803
Au 25.1707 3.38728 21.9776
Au 32.4302 18.9608 30.1859
Pd 21.8102 17.5612 5.0155
Au 29.8927 28.3202 30.1984
Au 31.7535 28.4021 26.0376
Pd 21.4408 19.2679 15.9431
Au 21.4487 28.8193 10.6871
Au 17.7377 27.9732 25.8375
Pd 19.629 20.5418 7.89412
Au 24.683 29.2395 27.3488
Au 14.6357 7.60806 29.4756
Au 22.5373 32.7014 13.8834
Au 18.2911 19.8083 24.4074
Au 33.219 13.5511 26.2889
Au 24.9782 3.81727 31.1353
Au 31.138 29.9764 23.9068
Au 16.1402 26.0066 26.9323
Pd 15.7123 12.7595 7.77152
Au 35.0046 13.0689 17.5308
Au 15.6015 10.7265 3.43615
Pd 7.8478 19.3632 10.5784
Pd 18.8221 18.2289 22.1129
Au 17.8589 20.874 10.0487
Pd 27.4771 26.3626 13.7335
Au 19.3861 4.8064 8.78153
Pd 28.614 17.5388 20.6177
Pd 15.0041 12.1505 17.6602
Pd 10.8333 18.4061 30.8121
Pd 9.86751 23.0071 7.58146
Au 13.4446 26.7159 27.3126
Au 29.9416 14.7477 8.05658
Au 10.4158 25.9954 23.9835
Pd 15.9964 3.63055 24.3509
Au 2.77684 22.5254 18.3023
Au 15.7084 24.1843 0.874914
Pd 22.5038 17.6521 28.0123
Au 8.92641 19.5308 23.0198
Pd 26.0869 30.3746 8.23033
Au 13.6046 7.20075 16.4123
Au 18.675 22.6628 11.8495
Au 15.1394 15.9887 21.7625
Au 1.16553 15.5751 15.8164
Au 29.7183 18.1967 18.1575
Au 6.64479 20.2378 25.2723
Au 30.6705 5.73118 26.2581
Au 8.9215 19.555 32.5042
Au 32.418 23.1235 10.2674
Pd 28.7293 23.9256 7.07508
Au 15.3981 31.8095 24.4548
Pd 21.5578 21.2343 0.969614
Au 27.2372 8.01508 15.6087
Au 29.9462 16.8797 13.2581
Au 14.2786 27.4174 22.4061
Pd 9.90327 33.8935 14.9027
Au 16.8123 29.4888 3.32044
Au 23.2915 29.8283 34.5129
Au 13.8427 29.8971 31.4965
Pd 16.5474 17.7303 13.0198
Au 13.1098 32.3111 12.2887
Au 9.96797 6.62628 10.2613
Au 33.5916 22.8569 28.0668
Au 13.5099 13.4329 21.5943
Au 21.887 31.3469 23.5973
Au 31.7879 9.30036 17.8137
Au 19.7972 15.6589 21.3497
Au 24.5731 14.6184 11.2183
Au 12.1141 18.9747 4.56917
Au 33.0356 20.0297 14.7126
Au 12.6675 37.3347 16.7332
Au 11.0751 23.7327 31.2613
Pd 15.9621 23.7586 35.9185
Au 34.5665 18.7369 25.8777
Au 7.05778 26.0541 10.0412
Au 26.0294 27.632 9.03591
Au 10.6818 6.25682 19.0999
Au 8.24902 6.08172 18.1816
Au 24.7676 4.78951 13.7185
Au 5.92226 29.1135 18.3811
Au 31.4575 13.4374 30.7976
Au 25.9755 26.2412 11.4939
Au 18.9158 35.1285 15.0297
Pd 27.4866 18.245 32.6118
Pd 15.5485 33.2126 11.4781
Pd 24.7076 18.3666 16.8101
Pd 7.25596 15.9855 27.3238
Au 9.53794 8.81697 14.4152
Au 33.5647 26.889 17.1593
Au 31.2106 26.0448 18.1362
Au 26.0846 20.0902 15.2787
Au 7.66368 14.8421 7.28271
Au 27.7335 10.7386 15.8307
Au 27.8588 7.66246 20.576
Pd 32.7397 19.4953 24.0711
Pd 21.3897 36.1517 21.439
Au 18.4016 25.1868 35.5638
Au 21.147 26.6382 8.70773
Au 31.2083 16.8699 28.897
Au 3.78881 26.3111 23.5756
Pd 28.8732 16.8854 23.2032
Pd 17.5137 23.2881 33.7784
Pd 17.2421 26.8884 31.3427
Au 22.8794 22.1674 35.1358
Au 7.62571 27.732 27.0464
Au 20.4619 2.21871 24.3255
Au 32.0111 25.3455 15.5265
Au 28.3543 25.6966 18.2884
Pd 25.034 23.5683 31.581
Au 22.6624 24.9656 6.8149
Au 13.3129 18.3997 20.25
Au 12.8027 4.16389 21.1255
Au 26.2653 33.8023 27.159
Au 30.1292 11.1925 13.6188
Pd 10.4157 19.8843 11.1037
Au 16.7781 28.0629 13.4103
Au 22.124 9.32757 33.7027
Au 2.46834 17.3944 20.0681
Au 11.6776 11.3459 21.769
Pd 10.9751 31.5138 13.7712
Au 9.99622 25.5013 4.34216
Pd 8.62743 26.939 18.5154
Au 22.2885 18.6555 30.6092
Au 11.3838 20.4886 20.6995
Au 8.98309 22.6989 4.96227
Au 6.97959 30.3203 13.2553
Au 23.763 7.38656 34.5534
Au 16.0649 19.1898 20.5294
Au 26.9542 27.2439 16.3134
Au 13.1065 7.37399 27.004
Au 19.0798 35.2055 25.5641
Au 4.97815 10.0588 19.9741
Au 21.4108 34.1478 24.1298
Au 10.7818 12.9331 8.78728
Pd 8.81239 14.7692 9.81905
Au 26.309 32.8612 24.3689
Au 4.55928 21.3917 11.8165
Au 14.0394 4.49242 16.5706
Au 35.0236 22.422 14.5255
Au 18.1333 35.4199 28.2174
Au 11.1534 4.64592 23.4497
Au 29.6541 24.0003 14.1293
Au 11.7301 27.8325 5.13163
Au 31.5273 28.0838 15.5636
Au 33.8267 12.8757 21.4204
Au 21.4824 13.3488 26.9322
Au 12.1743 32.1033 30.5225
Au 18.7264 27.8849 21.4038
Pd 17.626 16.8382 20.0928
Au 24.5271 6.05725 29.8398
Pd 15.1363 26.8126 15.9271
Au 21.414 28.0848 3.23163
Au 36.1436 22.1637 23.4413
Au 29.2844 25.7393 23.0221
Au 10.5909 31.6793 16.3865
Au 17.9969 9.52386 31.3083
Au 16.4773 19.7337 1.29349
Au 26.411 11.7699 29.5137
Au 20.9662 23.7008 4.76637
Pd 26.3342 15.8479 35.4533
Au 14.7191 10.5051 33.2742
Au 16.8004 27.1438 23.2631
Au 8.65758 15.0047 12.6204
Au 7.34878 21.0463 27.9812
Au 16.574 23.2737 13.4163
Au 27.338 24.836 32.76
Au 3.48213 18.6428 12.4403
Au 8.49485 18.9522 29.6619
Au 32.9297 8.68364 15.412
Pd 34.3895 14.67 14.2576
Au 12.1158 6.9579 11.9576
Au 24.3203 21.3826 27.3207
Pd 24.3378 30.8124 14.5891
Au 29.4797 16.1113 16.2487
Au 12.5769 26.0876 12.1671
Au 26.263 33.7096 21.2775
Au 15.4428 21.2599 11.4852
Au 27.4676 14.2564 29.0082
Au 17.4926 12.8658 18.3321
Pd 24.182 14.0408 21.1088
Pd 13.1526 19.8977 30.2598
Pd 29.5036 28.2493 17.8795
Au 15.974 15.5858 8.23223
Pd 16.2966 17.2042 36.0279
Au 13.8808 29.3569 6.74491
Pd 11.4172 14.1835 25.8301
Au 4.96817 21.1568 17.1727
Pd 1.59209 17.8268 17.4644
Pd 33.4495 17.0734 20.2326
Au 7.08708 23.813 8.65283
Au 7.05427 7.85259 14.0138
Au 13.4515 31.0542 14.7298
Au 22.6722 21.5183 23.2092
Au 26.3998 32.102 15.8703
Au 16.5718 25.5123 17.9722
Au 23.6167 28.2924 4.82417
Au 31.8777 5.31319 21.0704
Au 10.3169 26.7302 26.6061
Au 11.6223 26.487 9.54781
Au 30.0011 29.4032 10.3881
Au 30.0045 22.0863 12.1192
Au 13.829 19.9895 22.3945
Au 21.1453 11.6284 14.8994
Au 22.9008 13.1022 13.0741
Au 20.5374 26.274 37.0164
Au 27.6355 21.9555 13.9417
Pd 20.191 21.6085 24.027
Au 12.8503 17.7007 34.7075
Pd 29.2723 17.436 25.893
Au 4.75326 22.8473 27.7342
Au 23.9459 9.93772 35.6216
Au 10.862 13.2239 4.04144
Pd 30.9905 19.3683 12.9181
Au 17.5729 11.5275 11.4027
Au 22.6057 10.3666 6.07218
Pd 20.1545 37.6704 14.7972
Au 21.4763 37.0567 12.3699
Au 32.436 22.7488 15.21
Au 21.7373 16.7372 7.76504
Au 24.6948 21.5449 13.3856
Pd 32.5245 21.4795 8.14943
Au 17.8715 2.47234 22.5185
Au 22.3503 27.8723 29.7962
Au 10.3584 15.3918 7.55852
Pd 16.883 34.5185 23.9389
Pd 19.4919 14.4039 36.24
Pd 19.4219 12.3237 31.1297
Au 21.1121 31.1103 33.6376
Pd 25.3636 23.4066 28.8799
Pd 15.522 19.1404 15.1576
Au 32.0174 11.2022 15.6753
Au 20.8634 21.1371 30.6228
Au 5.62865 23.8017 10.8917
Au 17.4481 17.8693 29.5336
Pd 24.244 22.5524 7.8664
Au 14.3191 12.0297 5.56247
Au 17.3728 37.3562 14.9888
Au 8.63149 8.58417 8.95459
Pd 3.27555 10.9625 17.9673
Pd 22.074 19.3635 7.252
Au 11.8721 22.0242 26.1822
Au 17.7573 8.18875 23.0859
Pd 26.8529 16.3947 30.6633
Pd 23.0534 11.6831 23.03
Au 20.1937 8.42163 21.8345
Au 22.3921 9.36 29.1116
Au 12.2049 11.8318 24.5364
Au 27.4049 10.1876 23.3276
Au 6.88107 16.1102 19.3757
Au 28.4027 6.62159 17.5095
Au 14.4535 24.032 20.3612
Au 30.033 9.69968 11.1375
Au 10.8116 28.126 19.7471
Au 12.9476 11.3771 3.27876
Pd 2.14098 20.003 19.2656
Pd 9.3133 15.3136 5.01374
Au 20.9862 8.60028 12.2838
Au 25.8086 24.0769 13.4225
Au 30.5733 12.8185 26.1499
Au 24.1198 30.5182 29.904
Au 12.6552 33.6646 15.1483
Au 19.0099 30.0329 14.6197
Au 18.4656 19.6557 31.3738
Au 14.5519 31.0944 9.86908
Pd 22.7263 35.7356 10.413
Au 36.2176 17.8709 16.899
Pd 29.9606 23.3767 16.7077
Au 13.8943 28.3678 13.9843
Pd 25.2372 9.39043 28.3765
Pd 16.1947 6.83535 14.1947
Au 13.5047 14.4184 29.7975
Au 16.5724 10.7605 27.0599
Au 20.4873 8.41298 31.3062
Pd 7.90306 12.6424 16.5419
Au 11.0298 8.233 17.0356
Au 12.5351 21.3552 11.9863
Au 30.2323 31.0493 18.8377
Au 11.7403 28.9121 27.2756
Au 31.9441 24.2437 12.8221
Au 23.9707 35.3409 21.054
Au 24.9087 10.8433 4.61103
Au 14.4022 34.1733 25.4435
Au 13.8882 26.3079 1.58963
Au 13.6056 25.1755 17.6163
Au 24.2057 10.394 8.46216
Au 17.3433 3.79965 10.2486
Au 25.4611 8.06861 9.07074
Pd 18.8451 25.6441 27.1904
Pd 19.7626 25.921 4.08682
Au 10.724 23.2073 2.95604
Au 17.6878 8.31028 8.28591
Au 18.907 25.5495 19.7703
Au 14.4824 1.86637 16.5027
Au 19.2815 32.8547 20.0735
Pd 29.0543 25.7638 30.7614
Au 15.651 20.815 24.3172
Au 23.1787 8.7249 4.13281
Au 7.40987 18.7026 15.3898
Au 27.9402 11.3105 11.8129
Au 26.8439 30.9834 13.2356
Au 3.97948 12.1824 21.6429
Au 11.3142 4.49837 13.954
Au 16.3854 13.55 15.673
Pd 11.5395 18.4307 22.5748
Au 34.2536 10.3984 17.1559
Pd 27.5357 24.4442 15.6774
Au 29.904 18.1736 31.13
Au 22.8825 2.17909 23.1407
Au 33.95 13.8316 11.5982
Au 5.30901 16.9273 13.568
Pd 17.4497 14.2821 6.20385
Au 13.8448 4.96291 23.5429
Au 19.0441 28.3531 12.0072
Au 10.121 25.1722 13.6085
Pd 4.15629 26.9327 19.3279
Au 21.6958 34.6387 19.2256
Au 30.7606 25.6984 25.4109
Au 25.0224 26.3453 32.273
Au 31.0326 19.2021 7.83622
Au 8.64922 24.3701 17.2041
Pd 14.1635 36.1059 21.2129
Pd 21.2509 25.1871 26.1208
Au 15.2831 33.0619 14.115
Au 33.802 16.3516 10.0658
Au 21.1383 20.243 4.97902
Au 3.0487 19.3502 21.8109
Au 30.0095 9.0795 15.708
Au 23.9297 11.2284 14.6715
Pd 14.7338 12.7656 1.7888
Au 25.6184 12.167 23.7609
Pd 19.8431 12.0209 9.75752
Au 11.3299 16.3501 24.2798
Au 10.4787 23.3855 23.8973
Au 24.778 18.9192 28.9223
Au 27.9125 17.2561 4.56559
Au 13.2044 30.0005 4.22108
Au 15.0087 27.7262 18.6403
Au 20.299 22.6496 9.52951
Pd 20.2285 15.3708 5.54484
Au 10.1654 20.6009 27.9666
Au 14.7283 24.0862 15.3215
Au 18.1191 25.3886 1.49014
Au 13.259 26.6082 7.19338
Pd 16.8328 30.3539 17.5412
Pd 25.5701 8.79558 21.2277
Au 5.11994 25.4801 21.4252
Pd 6.70265 26.9475 23.2197
Au 18.8794 34.2238 30.7016
Au 31.8235 6.13348 23.763
Pd 19.0014 12.0542 27.0751
Au 27.864 10.6137 9.18306
Au 18.6787 27.6553 9.31475
Au 13.802 10.6116 20.0922
Au 18.2646 16.1752 34.4044
Au 24.5477 19.7005 24.0098
Au 34.2184 21.0108 10.2588
Pd 9.82358 23.9509 26.534
Au 21.5137 14.1115 10.9483
Au 23.8275 18.7219 9.18633
Au 26.2625 15.6103 16.4625
Pd 20.7285 23.728 36.1665
Au 29.5219 12.0524 22.3394
Au 21.8009 32.0021 6.88002
Au 25.7246 35.2844 23.3994
Pd 10.9113 25.5049 18.4891
Pd 16.4924 9.81836 13.5419
Au 18.9689 13.1008 4.20084
Au 23.8169 29.6023 9.39656
Au 20.1585 17.6969 32.2294
Au 13.0814 33.3842 9.85415
Pd 23.7182 24.3356 26.9047
Au 6.08516 25.3602 27.4967
Pd 13.2195 17.3941 29.2218
Au 7.51654 21.7383 7.0814
Pd 25.6589 14.7692 7.15445
Au 24.3935 27.3508 17.8783
Au 31.2676 17.7539 10.6075
Au 31.2067 6.80206 16.7249
Pd 5.93321 14.5691 12.2315
Au 36.5416 18.2909 13.2351
Au 24.5835 22.4802 24.8531
Au 2.08982 13.5104 14.3993
Au 35.3544 20.5621 12.6173
Pd 21.6315 13.016 5.63033
Au 11.8678 22.9537 33.9623
Pd 21.8131 6.67343 29.5115
Au 30.8675 29.1196 13.0796
Au 26.696 23.3582 26.5324
Pd 19.5675 33.0599 10.5201
Au 26.5192 16.5772 25.4367
Pd 27.9018 31.6141 22.5608
Au 26.0259 18.8825 21.3309
Au 10.1371 30.0198 21.8793
Au 23.9916 18.6241 3.8305
Au 22.4977 30.5821 20.9231
Pd 8.69494 17.8147 17.8109
Au 27.2258 18.6682 27.2439
Au 32.2688 15.2964 22.1462
Au 19.7696 29.5672 24.4839
Pd 17.713 6.50185 10.3046
Au 14.8899 12.3939 28.7396
Au 18.4736 27.45 33.8336
Au 18.3636 22.411 36.3128
Au 25.223 31.6266 10.7178
Au 27.3318 5.22097 21.9591
Au 15.8891 18.7362 10.5981
Au 31.4933 27.3707 10.8338
Au 16.1873 13.3706 3.97334
Au 16.2981 27.349 1.56487
Pd 29.5725 7.72233 27.6747
Au 28.246 9.9029 33.8697
Pd 26.5378 20.9519 31.7663
Au 7.85456 21.1054 16.4965
Au 17.1844 21.5083 26.4016
Au 19.3293 14.9959 18.7
Au 16.2321 30.3479 14.8376
Au 25.0347 34.3551 10.2759
Au 31.5918 25.9602 29.917
Pd 25.4019 12.2703 12.4827
Pd 27.682 30.5801 10.358
Au 21.9444 11.9637 8.12774
Au 9.15267 33.4733 17.6957
Au 21.3605 28.9559 13.6485
Au 16.1879 34.8431 16.0132
Au 24.1492 21.1367 30.3069
Au 23.84 30.2594 6.6631
Au 20.135 21.7219 3.06057
Au 15.6036 28.6714 29.9386
Au 9.44385 29.8664 12.3009
Pd 11.6987 29.2196 15.5065
Au 15.1929 7.87548 18.9681
Au 24.7958 8.60289 6.36401
Pd 10.0107 19.4117 16.0166
Au 20.9838 28.5214 35.5769
Pd 20.0731 32.6809 14.8297
Au 10.6493 7.35218 7.67681
Au 22.8747 7.53258 10.3491
Au 25.8952 28.5553 14.184
Au 11.0468 34.0677 12.4878
Au 8.81157 9.73475 26.2833
Pd 4.21769 15.7172 18.8393
Pd 13.8744 10.7326 12.5767
Au 25.5707 12.7797 16.173
Au 19.0553 9.40489 10.5537
Pd 33.6175 19.3679 21.5132
Au 34.1683 21.4919 25.4185
Pd 28.5462 27.0633 10.5952
Pd 6.97861 12.8455 14.0088
Au 25.1098 6.18198 32.6107
Pd 17.5736 10.9762 8.67395
Au 11.8331 12.2255 13.6637
Au 16.8547 14.1948 30.4244
Au 28.7814 32.9623 17.3758
Au 25.7234 21.7405 4.21505
Au 30.8426 30.6922 29.1356
Au 25.7118 29.002 11.3961
Au 12.0153 13.2562 1.62626
Pd 30.9234 25.8657 20.8291
Au 26.6434 31.1554 26.5803
Au 18.3356 23.3953 17.2591
Au 13.0053 26.327 20.1682
Au 24.2694 32.0443 27.6579
Au 14.0735 5.8029 7.21196
Au 18.9671 27.8849 2.0586
Au 28.8238 29.0128 22.5377
Pd 9.99163 22.5455 12.2394
Au 23.5789 4.64375 23.9109
Au 27.5793 12.7341 14.1044
Au 10.1429 10.4265 7.67965
Pd 26.8489 28.2182 18.7758
Au 14.2882 36.3656 14.8708
Au 29.7373 3.67822 21.6544
Au 19.1882 19.8184 1.4027
Au 29.5218 11.7781 29.6106
Au 25.8269 16.4097 28.066
Au 24.6934 9.41168 23.7158
Au 16.8261 14.538 35.9863
Au 8.33944 17.0199 31.7416
Au 13.9891 9.39222 5.16578
Pd 2.9197 24.5618 20.2294
Au 24.7321 3.65445 16.3633
Au 8.44892 13.991 21.6854
Au 15.0618 21.9739 29.6894
Pd 16.2718 6.33494 16.9689
Pd 29.2493 22.0284 28.3971
Pd 4.3265 13.9153 26.1545
Au 15.1033 16.8425 19.2111
Au 33.4123 14.5989 19.2107
Pd 14.4331 16.0743 12.6459
Au 16.3206 24.124 31.287
Au 26.4296 25.5102 30.182
Au 33.4752 9.74262 19.8614
Pd 9.73717 16.2988 26.4073
Au 26.3012 8.35847 35.1992
Au 8.97459 28.2326 24.2958
Au 32.5928 10.8801 25.8889
Au 34.1352 17.5039 14.471
Au 12.8614 32.8171 27.6275
Au 32.3416 23.5247 20.7816
Au 22.8981 17.6073 33.1794
Au 23.5191 36.4006 16.5936
Au 20.3643 21.7967 38.1404
Au 21.771 9.49145 24.1802
Au 19.1399 23.2851 26.0751
Au 23.6761 25.4125 29.6896
Au 35.7215 19.8402 15.2566
Au 14.1503 32.3179 32.6185
Pd 24.4565 33.995 15.431
Au 9.95812 10.9277 16.1609
Pd 31.9217 15.9235 14.9788
Au 7.24721 15.5404 14.8378
Au 28.0331 13.5469 16.9245
Au 16.4366 31.348 33.8296
Au 11.1309 28.6351 7.51054
Pd 12.3757 30.3345 18.0541
Au 7.11223 23.1552 26.2809
Au 10.5908 21.0318 30.7214
Pd 15.5134 31.0079 5.24764
Au 24.4578 34.6442 18.3575
Au 23.4091 14.3154 8.69411
Au 4.2553 16.3379 10.9467
Au 20.6177 6.42325 20.0487
Au 18.6901 29.4217 31.6889
Au 14.6928 11.2566 15.1346
Au 6.91026 16.2314 22.2214
Au 19.2629 12.4207 7.00275
Au 35.607 18.51 10.6665
Pd 8.06806 24.4645 12.0287
Pd 8.70355 20.3218 13.5577
Au 12.359 31.8332 21.0139
Au 20.038 29.701 19.48
Pd 15.2561 25.8627 13.3094
Au 19.6927 1.78595 20.6082
Au 8.51659 24.3049 31.2098
Au 14.7227 19.2668 35.8955
Au 12.9493 17.1315 26.4046
Au 11.654 11 5.56506
Pd 10.6294 25.1348 21.2203
Au 19.9066 23.4174 1.00417
Au 20.0095 7.4972 24.6307
Au 16.2193 26.16 20.6366
Pd 12.9658 4.47988 11.6787
Au 25.0254 25.1714 8.29134
Pd 15.9377 13.6003 22.9187
Pd 7.56406 9.41294 21.0909
Au 9.95793 26.8027 15.9241
Au 11.054 15.5881 2.61513
Au 11.4759 21.4904 9.15506
Pd 12.0205 19.9125 18.07
Au 14.4534 26.8074 31.88
Au 23.2083 30.4808 12.1371
Au 32.0408 12.0887 28.4157
Pd 31.0962 23.9881 28.1326
Pd 9.00838 29.8187 14.9991
Au 11.2898 25.5988 1.953
Pd 26.6582 6.95012 28.2644
Au 6.57974 7.91235 19.1034
Pd 10.8125 31.1283 28.3768
Au 32.0834 28.386 28.6699
Au 18.8179 36.4573 12.6596
Au 11.9878 8.52071 29.1548
Pd 17.4925 16.8897 31.9621
Au 20.6934 14.3372 8.27026
Pd 24.125 16.4326 30.2384
Au 15.2555 17.2184 33.5413
Pd 17.2035 32.9035 29.0571
Au 18.7996 11.4447 35.7346
Au 4.40158 11.7604 24.4429
Au 4.74863 25.6467 15.0962
Au 24.9145 23.4847 36.337
Au 25.5667 16.0295 4.7421
Au 15.666 27.6784 8.4857
Au 33.3172 21.3449 19.631
Au 24.3743 12.8394 35.8997
Au 25.9846 13.7599 26.226
Au 25.9335 22.7699 33.9836
Au 20.8824 25.8456 1.70891
Au 10.6209 18.8353 25.4233
Pd 18.51 8.17711 18.1301
Au 28.1287 15.2062 6.13124
Au 6.14075 23.0398 21.4073
Pd 16.2357 18.3747 23.0677
Pd 12.3629 17.535 11.6148
Au 19.8985 23.1356 21.4244