1687
Atoms. Timestep: 20536
Au 12.0263 5.58972 9.38403
Au 7.43938 8.23512 11.0937
Au 8.49117 6.14852 12.6185
Au 8.23327 5.06 18.7236
Au 8.45199 5.21506 21.5361
Au 7.00386 8.17419 25.5526
Au 13.576 10.7769 33.5824
Pd 10.8263 4.91897 11.822
Au 10.934 7.57324 7.7834
Au 12.2277 8.35496 5.49167
Pd 7.38862 5.5712 15.0147
Au 6.31885 7.61534 13.5331
Au 7.21992 7.16915 17.2448
Pd 6.29021 9.27209 15.7226
Au 9.27178 2.99681 20.128
Au 7.29003 7.34327 20.1453
Au 7.90493 10.8364 28.9613
Pd 7.5767 7.62731 22.9466
Pd 10.2106 9.31319 29.5889
Pd 11.1534 9.26567 26.8746
Pd 11.8442 10.1408 31.5589
Pd 9.61615 11.7145 30.9068
Au 5.54147 12.409 8.04075
Pd 5.35482 9.67087 12.0353
Au 6.40641 10.3444 9.55706
Au 5.25721 11.3218 14.2232
Au 4.22552 13.4114 12.6885
Au 6.25935 9.46739 18.6081
Au 5.25978 11.5614 17.0487
Au 6.35609 9.70288 21.4549
Au 5.29782 11.8291 19.9103
Pd 6.43754 10.2739 24.135
Au 5.33583 12.2583 22.688
Au 6.28181 10.4316 26.9037
Au 5.50787 12.6207 25.4976
Au 7.27629 13.186 30.2486
Au 5.59695 12.8199 28.2052
Au 5.392 14.0593 10.1519
Au 3.23325 15.5042 11.0926
Au 4.36496 18.9306 8.33687
Au 4.22672 13.6506 15.4916
Au 3.2198 15.7515 13.8941
Au 4.26531 13.9359 18.3336
Au 3.25587 16.0415 16.7179
Au 4.31363 14.2996 21.1625
Au 3.30912 16.3664 19.5577
Au 4.45724 14.6661 24.0309
Au 3.41832 16.7004 22.4317
Au 4.72855 14.9982 26.7958
Au 3.62738 17.0593 25.2775
Au 6.7842 15.6655 31.2076
Au 6.30965 17.7657 29.4479
Pd 6.76107 19.2882 9.6245
Au 2.34796 17.8408 12.272
Au 4.96561 21.4302 9.29493
Au 2.37898 18.1487 15.0604
Au 2.91897 20.3139 13.3527
Au 2.41138 18.4577 17.8836
Au 2.93374 20.647 16.1539
Au 2.48931 18.7658 20.7347
Au 2.96309 20.9654 18.9488
Au 2.61726 19.0888 23.6094
Au 3.0128 21.2732 21.7765
Au 3.32447 21.9536 27.3448
Au 3.1283 21.6077 24.603
Au 2.84832 19.4816 26.3592
Pd 5.63055 22.311 28.7523
Au 7.4025 21.8147 10.6177
Pd 3.01851 19.9435 10.5872
Au 5.58624 23.9157 10.326
Pd 3.6186 22.7831 14.416
Au 3.61446 22.4081 11.62
Pd 3.63691 23.1152 17.2055
Au 4.22968 25.279 15.4501
Au 3.60595 23.4749 19.9928
Au 4.2273 25.6128 18.2168
Au 3.66388 23.7979 22.7827
Au 4.27669 25.9716 21.0099
Au 3.74358 24.1245 25.5822
Au 4.26254 26.3135 23.8021
Au 5.96313 22.6771 31.4406
Au 3.89354 24.4451 28.2409
Au 11.9567 23.6605 10.807
Au 6.21786 26.3723 11.3639
Au 10.1291 25.7699 10.4374
Au 4.24489 24.872 12.6618
Au 6.82282 28.8703 12.3398
Au 4.84478 27.7765 16.4323
Au 4.84864 27.3396 13.6484
Pd 4.91442 28.0592 19.1884
Au 5.69583 30.5257 19.805
Au 4.94196 28.4856 21.9549
Au 6.33042 30.8864 22.3538
Au 4.37348 26.6217 26.5608
Au 5.00978 28.8185 24.6221
Au 6.61065 29.1411 26.7216
Au 11.2917 32.2645 30.356
Au 6.45555 20.3791 7.1265
Pd 7.7246 25.3442 9.13803
Au 9.17273 24.3429 6.90111
Au 7.34443 31.4214 13.1995
Au 8.28897 27.8474 10.1124
Au 5.37751 29.8956 14.4805
Pd 11.3268 30.7429 12.5318
Au 8.61936 33.6051 16.4169
Au 9.58512 32.9017 12.1376
Au 6.74272 31.2933 24.992
Au 9.21671 33.5167 21.2326
Au 7.81829 35.6029 21.5861
Au 10.1814 27.1831 32.1292
Au 17.6896 29.0775 28.6626
Pd 13.0814 30.7081 31.5171
Au 13.2405 6.33043 7.01248
Au 9.61801 4.2161 14.1844
Pd 8.69767 9.00082 8.69291
Au 10.9639 6.49472 14.0162
Pd 12.2134 7.21196 11.5835
Au 10.6258 3.57152 17.8098
Pd 12.0307 4.33685 15.5155
Au 10.8927 3.59791 22.1819
Au 11.8983 2.35042 19.9563
Au 10.7945 7.01655 28.1907
Pd 12.5447 4.47052 24.2223
Au 8.5782 8.49521 27.6296
Au 12.3922 7.7926 30.2101
Au 13.6922 12.9846 34.9248
Au 13.9896 8.58106 32.1757
Au 13.6186 10.7464 5.05172
Au 7.70416 11.0633 7.1702
Au 10.1141 11.4269 8.4103
Au 8.79692 10.6683 10.8945
Au 11.1252 9.27752 9.99546
Au 9.0566 13.4645 6.75689
Au 9.86586 8.55878 12.4437
Au 8.6396 7.9053 14.8922
Au 12.3446 8.93979 13.8231
Au 11.2989 11.025 12.2535
Au 9.64375 5.71884 16.4206
Au 9.63377 7.459 18.6057
Au 12.1134 6.02494 17.6923
Pd 11.0497 8.19321 16.2503
Au 10.7061 5.25072 19.9814
Au 9.8043 7.59023 21.455
Pd 12.4877 5.83078 21.8997
Pd 12.0922 7.73975 19.8762
Au 10.1874 5.81505 23.5636
Au 9.55786 8.07488 24.9181
Pd 11.8387 6.73285 25.6647
Au 11.7929 8.13598 23.2509
Pd 12.762 10.1616 28.9401
Au 10.3993 11.5841 28.1225
Pd 14.3723 11.1105 31.0172
Au 12.7296 11.5731 26.5207
Au 12.1076 12.5521 30.2295
Au 11.4412 15.0006 31.2994
Pd 13.7753 13.5899 32.3083
Pd 13.7512 14.982 29.8706
Au 9.97484 9.71501 6.30424
Au 6.76349 14.8119 7.63962
Au 7.82386 12.7835 9.30608
Au 6.46005 12.0548 11.7576
Au 10.2911 13.1376 10.6533
Au 9.24073 15.1829 8.97211
Pd 7.62358 9.99995 13.3661
Pd 7.65354 11.6719 15.5811
Pd 10.0283 10.3213 14.7115
Au 8.96173 12.3964 13.1385
Au 8.64416 9.59005 17.1137
Au 7.67284 11.8902 18.4464
Au 11.0991 9.92868 18.4614
Au 10.1148 12.0253 16.9375
Au 8.69047 9.77241 20.0139
Au 7.75325 12.1239 21.3357
Au 11.1678 10.1142 21.3371
Pd 10.1561 12.2492 19.8016
Au 8.84634 10.0033 22.9183
Au 7.90505 12.5701 24.1601
Pd 11.1285 10.5454 24.4111
Au 10.2801 12.5237 22.6636
Au 8.76288 10.5422 25.865
Au 7.99576 12.9321 27.1159
Au 12.0149 13.9925 27.7967
Au 10.3813 12.961 25.6194
Au 9.65962 13.9555 29.3001
Pd 9.00059 16.3933 30.1974
Au 11.8085 14.902 33.9283
Au 11.294 16.4759 28.8896
Au 8.91523 16.2779 6.40883
Au 11.055 17.7413 5.2436
Au 4.50468 16.1773 8.60688
Au 5.62348 15.7833 12.4267
Au 7.92679 14.461 11.5396
Au 6.91959 16.4822 9.88691
Pd 6.63231 13.7231 14.0279
Au 5.64217 16.0774 15.2434
Au 9.10601 14.0975 15.3671
Au 8.09871 16.1721 13.7757
Au 6.64817 13.9794 16.8582
Au 5.68331 16.3631 18.0901
Au 9.15914 14.3494 18.236
Au 8.13176 16.4555 16.6045
Au 6.70885 14.2491 19.7313
Au 5.76308 16.6853 20.9369
Au 9.24279 14.6079 21.0765
Au 8.20048 16.7294 19.4521
Au 6.81586 14.6047 22.5783
Au 5.91753 17.0156 23.8133
Au 9.38335 14.987 23.9467
Au 8.30831 17.0448 22.2928
Pd 7.02329 14.9818 25.4409
Pd 6.04355 17.3953 26.669
Au 9.48785 15.4001 26.8755
Au 8.41766 17.4091 25.1522
Au 7.03985 15.2945 28.3821
Au 7.72239 18.3357 31.6636
Pd 9.80969 16.7087 32.73
Au 8.58207 17.8532 27.9229
Au 8.74305 19.0715 6.11706
Au 6.60191 17.6145 7.33081
Pd 4.71968 17.8351 10.8427
Au 5.35228 20.3118 11.8874
Pd 7.12698 18.1891 12.1656
Au 11.334 21.1243 9.78427
Pd 4.71459 18.1666 13.6125
Au 5.33172 20.6724 14.7134
Pd 7.14693 18.5337 14.9602
Au 7.81887 20.6895 13.2332
Au 4.72966 18.4847 16.4163
Pd 5.36349 21.0151 17.5052
Au 7.19267 18.8561 17.7723
Au 7.81439 21.0702 16.044
Au 4.77534 18.8092 19.2442
Au 5.38568 21.3679 20.3033
Au 7.26645 19.1716 20.6074
Au 7.84335 21.4224 18.8516
Au 4.87251 19.12 22.0981
Au 5.46302 21.6813 23.1228
Au 7.38775 19.4922 23.4543
Au 7.90194 21.7424 21.6493
Au 5.05669 19.4648 24.9538
Pd 5.58426 21.9973 25.9524
Au 7.4631 19.8709 26.3389
Au 7.95717 22.0554 24.4674
Au 5.11368 19.7885 27.8635
Au 5.65169 20.1407 30.693
Au 10.182 19.3716 32.7773
Au 7.69141 20.3452 29.1329
Au 2.38531 17.5464 9.56669
Au 10.9934 22.2081 7.24175
Au 8.04765 24.2993 11.6661
Au 8.66625 26.7984 12.6929
Pd 9.88261 22.1983 12.0066
Pd 12.5687 26.1928 11.8025
Au 5.99915 22.8149 12.9418
Pd 6.64408 25.2949 13.998
Au 8.48419 23.2157 14.2941
Au 10.5392 24.7258 13.0486
Au 6.0055 23.2219 15.7925
Pd 6.67211 25.7897 16.8713
Au 8.48347 23.6464 17.1505
Au 9.11916 25.7621 15.3672
Au 6.02129 23.5654 18.5824
Au 6.70678 26.0912 19.6378
Pd 8.52538 23.9652 19.9441
Au 9.14517 26.2375 18.2442
Pd 6.07387 23.8919 21.3668
Au 6.71303 26.4046 22.4668
Au 8.57592 24.2639 22.748
Au 9.22276 26.4747 21.0401
Au 6.10663 24.1914 24.1796
Pd 6.19817 24.5143 26.9807
Pd 7.99292 22.4347 27.2353
Au 8.60936 24.6173 25.5854
Pd 8.02556 23.1016 29.8321
Au 8.24643 23.814 32.4092
Pd 8.07216 21.0296 31.824
Pd 10.2018 24.5226 30.7941
Pd 9.50829 23.2615 9.42977
Au 13.0392 22.0017 3.78723
Pd 11.6015 24.7178 8.25823
Au 8.89589 30.3654 11.1393
Pd 10.7286 28.2724 11.4541
Au 11.2795 25.7963 5.73228
Au 9.27215 29.2917 13.7025
Au 12.9164 33.8495 18.1382
Au 11.1752 27.321 14.1249
Pd 13.1677 28.6851 12.8368
Au 7.21255 27.7865 15.0086
Au 7.70171 30.2887 15.8376
Au 9.73382 28.3062 16.4553
Au 11.6783 30.0013 15.3992
Au 7.33336 28.5556 18.01
Pd 9.62408 30.8783 17.5204
Au 9.9588 28.7921 19.3867
Au 12.1656 31.1273 18.3379
Au 7.42188 28.577 20.8353
Au 7.57171 28.8622 23.7324
Pd 9.22884 26.7169 23.8697
Pd 9.96315 28.9709 22.1911
Pd 6.66031 26.6662 25.2348
Pd 10.049 31.1439 28.2938
Pd 8.47007 25.3046 28.2886
Au 8.79432 27.4464 26.594
Au 5.98978 24.8361 29.8303
Au 10.6268 29.5577 30.5549
Au 10.757 24.7363 33.4434
Au 11.0976 28.7135 27.6677
Au 7.0577 22.9065 8.06872
Au 8.86125 20.7561 8.40497
Au 10.3263 29.3121 8.89978
Pd 9.80492 26.8011 7.92398
Au 12.9203 33.2337 8.86448
Au 11.8532 28.2822 6.72603
Au 9.61136 31.8448 14.5759
Au 14.8514 31.3328 8.87987
Au 10.9038 31.819 9.95105
Au 12.3729 30.7923 7.777
Au 7.89925 34.6583 18.9166
Pd 14.1775 33.1743 15.744
Au 11.4666 32.793 16.171
Au 10.0979 34.6172 14.3822
Au 10.2105 33.2151 18.7339
Au 5.26639 30.3151 17.164
Au 8.47263 31.0218 20.2584
Au 6.26375 32.4174 15.4959
Au 6.55243 33.0936 20.6318
Au 7.58036 31.5796 27.5345
Au 9.01737 31.3304 23.1631
Au 7.15874 32.0888 18.0879
Au 10.1156 35.8899 19.6866
Au 6.41086 27.0037 28.3019
Pd 16.3985 33.7484 27.7397
Au 7.17665 33.4256 23.2452
Au 8.05953 26.2683 30.7489
Pd 17.7855 30.6842 31.0295
Pd 13.211 25.6636 34.4162
Au 15.6911 31.2206 29.2857
Au 14.6874 8.61078 6.59955
Au 13.4466 7.91245 9.1412
Au 15.9599 9.42342 4.24807
Au 13.2422 4.9691 13.1025
Au 14.4519 5.67028 10.6471
Au 13.1852 2.65695 17.4573
Au 14.426 3.15065 14.9352
Pd 13.623 3.22098 21.9925
Au 14.7258 2.10567 19.6603
Au 14.1264 5.30784 26.3468
Au 15.2604 4.07491 24.0564
Au 16.2363 13.671 35.67
Au 15.6613 6.24984 28.4319
Au 11.365 12.4805 32.9037
Au 15.7183 11.0345 35.476
Au 11.3314 12.1194 5.90033
Au 15.7621 12.193 3.83308
Au 12.4023 10.0365 7.54687
Au 12.5881 11.7738 9.77666
Au 14.8651 10.3641 8.87781
Au 13.7719 12.4882 7.24597
Au 13.6214 9.66 11.3729
Pd 13.7791 11.384 13.6053
Au 14.6429 7.45027 12.8801
Pd 15.0318 12.1009 11.1453
Au 13.4085 6.7687 15.3216
Au 13.5188 8.54109 17.5444
Pd 14.5739 4.91345 17.0562
Au 14.8289 9.26753 15.1296
Au 13.3927 4.478 19.5967
Au 14.085 8.15862 21.6246
Pd 15.1841 5.45255 21.6701
Au 14.7436 6.76772 19.2726
Au 14.113 6.65932 23.9946
Au 13.4154 9.09313 25.3111
Pd 15.7122 7.58778 26.0671
Au 15.7103 9.05896 23.7109
Au 13.4074 7.67603 27.7059
Au 14.3664 12.5079 28.6194
Pd 15.0065 8.66489 29.7158
Pd 15.0256 10.0431 27.3457
Au 15.9642 12.1191 33.1523
Au 18.757 14.6736 36.4006
Pd 14.2681 15.5732 34.8696
Au 16.0788 13.4499 30.7056
Pd 11.2251 14.9406 5.61924
Au 13.4675 13.5766 4.68013
Pd 11.5126 13.8387 8.1338
Pd 11.6948 15.5578 10.3838
Pd 13.9561 14.207 9.52037
Au 13.6376 15.2883 6.91585
Au 12.7551 13.4744 12.014
Au 11.4692 12.7474 14.4799
Au 15.1935 13.7993 13.3993
Au 14.1251 15.9051 11.7775
Au 12.4781 10.6663 16.0492
Pd 12.558 12.3755 18.2786
Au 14.9635 11.0103 17.3743
Pd 13.9173 13.0883 15.8417
Au 13.5224 10.2331 19.7778
Au 12.615 12.6226 21.1265
Au 15.7381 10.5758 21.3147
Au 14.9963 12.6867 19.6041
Au 13.4265 10.5877 22.8678
Pd 12.7007 12.9756 24.0829
Au 15.0116 11.5349 24.969
Pd 15.0034 12.9732 22.5408
Pd 14.2933 13.9548 26.2227
Au 13.5842 16.4219 27.4536
Au 15.9843 14.8955 28.3155
Au 15.815 16.3521 25.913
Au 14.137 16.3282 32.3257
Au 14.6203 18.2573 34.8656
Au 16.7397 16.4116 35.6461
Au 16.7409 17.6286 33.1828
Au 10.8928 20.5281 4.96064
Au 13.3392 16.3987 4.37025
Au 11.3534 16.646 7.79228
Au 9.4146 16.8846 11.2654
Au 13.7993 17.0224 9.18699
Au 13.4882 18.1116 6.6069
Au 10.4497 14.8398 12.8832
Au 10.5924 16.541 15.1123
Pd 12.8998 15.1733 14.2558
Pd 11.8547 17.2607 12.6312
Au 11.5986 14.4542 16.7206
Au 10.6342 16.8143 17.9645
Au 14.0438 14.7977 18.0702
Au 13.0626 16.8952 16.4893
Pd 11.6338 14.7047 19.5643
Au 10.7148 17.0847 20.7949
Pd 14.0972 15.0537 20.8972
Au 13.1173 17.1644 19.308
Au 11.7466 14.9926 22.4139
Au 10.8335 17.4248 23.6606
Au 14.2213 15.353 23.784
Au 13.214 17.4476 22.1402
Au 11.8992 15.3887 25.3462
Au 11.0186 17.8945 26.5082
Au 14.4643 17.6882 29.8063
Au 13.3892 17.8482 25.0139
Au 12.0147 17.7177 31.2841
Au 12.1775 17.5508 33.9589
Au 17.3748 21.8499 35.7729
Pd 14.5045 19.064 32.2893
Pd 11.1828 19.4261 7.49311
Au 13.2112 19.2219 4.07283
Au 9.04801 17.9742 8.6613
Au 9.22581 19.6743 10.9792
Pd 11.5104 18.3494 10.0607
Pd 13.6342 19.8061 8.87166
Pd 9.57842 18.5777 13.5143
Pd 10.2683 21.0903 14.5718
Au 12.0315 18.97 14.8644
Pd 11.6547 20.0682 12.3343
Au 9.61809 18.9181 16.3084
Au 10.3005 21.4525 17.3998
Pd 12.0978 19.2837 17.693
Au 12.7206 21.4683 15.9637
Au 9.68682 19.2205 19.1365
Au 10.3501 21.7827 20.1921
Au 12.1761 19.5837 20.501
Pd 12.7762 21.819 18.7761
Au 9.77584 19.5258 21.9749
Au 10.4258 22.0892 22.9816
Au 12.274 19.8908 23.3639
Au 12.8737 22.1279 21.5447
Au 9.8696 19.867 24.8444
Au 10.0443 20.456 27.7056
Au 12.3256 19.0959 28.7534
Au 12.4293 20.4545 26.24
Pd 9.88859 18.969 30.1194
Au 12.5475 20.2407 33.9379
Au 14.9231 20.9672 34.9779
Pd 12.3625 20.4152 31.2731
Au 10.7284 23.2933 4.75008
Pd 13.3043 20.8808 6.34042
Pd 14.0331 25.1175 9.6344
Pd 14.3674 24.0758 12.1862
Au 13.7513 21.5369 11.1599
Pd 13.4549 22.5911 8.61316
Pd 12.3181 22.5864 13.379
Au 12.9703 25.1653 14.4181
Au 14.7516 22.987 14.7673
Au 16.7962 24.4801 13.5832
Au 10.9478 23.6072 15.6569
Au 11.6154 26.146 16.7501
Au 13.4209 24.014 17.0888
Au 15.3747 25.6136 15.833
Au 10.9694 24.0112 18.5139
Pd 11.6673 26.5148 19.6181
Pd 13.4759 24.345 19.8745
Au 14.1764 26.5871 18.1788
Au 11.0378 24.304 21.3024
Au 11.1266 24.6486 24.1625
Pd 12.9444 22.4166 24.3016
Au 13.5439 24.6391 22.6852
Au 10.4413 22.4346 25.7202
Au 10.3563 23.4341 28.2252
Au 12.533 21.8831 28.8159
Au 12.7039 23.7551 26.6493
Au 10.2042 21.672 30.3469
Au 10.3967 22.0749 33.0496
Au 15.2598 23.6943 35.1375
Au 12.4434 23.1411 31.5327
Au 15.4002 20.7002 2.91496
Pd 13.7109 26.1786 7.13368
Au 12.2054 27.2382 9.23365
Pd 14.6128 27.6634 10.5514
Pd 16.4229 25.5507 10.9801
Au 14.2929 28.7809 7.8981
Au 14.9734 26.6333 13.1624
Au 18.2186 29.7396 15.414
Au 19.7896 27.5702 15.7906
Au 17.373 27.0907 14.5796
Au 12.134 33.1911 13.528
Au 16.101 28.3408 16.9077
Au 13.6156 27.8395 15.5043
Au 19.6403 31.0991 19.4395
Au 12.3062 28.5673 17.8532
Au 12.4582 29.0909 20.7871
Au 14.1564 26.84 20.9686
Pd 18.5489 28.8126 18.0182
Au 11.669 26.7922 22.4222
Au 11.2219 28.2849 24.8743
Au 13.2803 26.2311 25.154
Au 13.6071 28.3975 23.3872
Au 10.9077 25.8338 26.7263
Au 10.514 26.8452 29.4548
Au 12.5362 24.7793 29.2864
Pd 13.1525 26.9194 27.834
Au 12.5421 25.961 31.7983
Au 12.423 28.4936 32.977
Au 12.8369 22.9411 34.197
Au 14.932 27.3138 32.948
Au 8.58353 21.8416 5.91558
Au 19.9419 20.5342 1.17337
Au 12.8804 24.7437 3.65816
Au 12.7893 29.7417 10.2268
Au 13.3909 32.2004 11.2958
Au 22.0948 23.6296 4.34847
Au 15.2188 33.8673 10.1747
Pd 11.6619 34.2182 11.0612
Au 15.1661 30.1841 11.6399
Au 16.6064 35.3284 11.9982
Au 13.8918 34.9243 12.4102
Au 19.1783 35.8516 16.7537
Pd 16.1646 33.1015 21.3205
Au 23.3086 33.9696 13.5562
Au 11.1207 31.4748 20.9207
Pd 12.6086 35.5668 23.9103
Au 13.6768 33.0725 22.7004
Au 8.98221 35.0696 24.2381
Pd 11.8892 30.6374 23.3673
Au 10.9625 33.3691 23.2274
Au 9.14298 30.0017 25.775
Au 9.70836 32.6675 25.5969
Au 7.3339 33.7935 25.9744
Au 14.2207 32.2445 27.2068
Au 12.862 30.5357 28.8172
Au 13.8726 33.1125 29.8141
Au 10.8637 35.1617 26.1406
Pd 12.8831 28.1865 30.2713
Au 23.5484 29.0985 35.9394
Au 8.49644 28.8146 28.9207
Pd 20.4917 11.1686 4.30476
Pd 15.7062 6.48862 8.23197
Au 16.9348 7.25127 5.76853
Pd 15.64 3.81735 12.4133
Au 9.73307 6.85869 10.2117
Pd 15.9418 2.54166 17.1615
Pd 17.1687 3.07296 14.6369
Pd 16.367 2.97525 21.6936
Pd 17.4908 1.99372 19.3384
Au 16.8516 4.98552 26.156
Au 18.0122 3.78924 23.7952
Au 17.1493 7.14509 30.5438
Pd 18.3856 5.9439 28.2515
Au 16.4897 9.52835 31.9679
Au 18.7269 8.00343 32.6259
Pd 20.6143 8.44048 4.66868
Au 27.2441 13.7946 3.52076
Pd 16.0597 11.1058 6.40867
Au 16.2264 12.8363 8.66216
Au 17.1009 8.93137 7.98608
Au 18.2357 12.5384 5.21351
Au 15.8964 8.18234 10.4506
Au 16.0823 9.97331 12.6945
Au 16.9766 6.12814 12.017
Au 17.304 10.6877 10.2563
Au 15.7591 5.45595 14.5578
Au 15.9688 7.26037 16.7523
Pd 17.3739 4.81081 16.7741
Au 17.1804 7.88694 14.2553
Pd 16.178 4.34522 19.2851
Au 16.7685 7.81489 21.3717
Au 17.9115 5.19597 21.4036
Au 17.6288 6.6464 18.9607
Pd 16.8432 6.35538 23.7626
Au 17.3352 9.96601 25.7781
Au 18.4767 7.25536 25.8631
Au 18.4389 8.76834 23.4701
Pd 17.2883 8.50056 28.1263
Au 16.6507 10.9357 29.4546
Au 18.8057 9.32401 30.2693
Au 19.036 10.8239 27.8417
Au 16.382 14.8741 33.2106
Au 20.7989 12.9865 36.9322
Au 9.03409 14.1639 32.0876
Au 18.2738 11.8065 31.613
Au 15.6215 15.035 3.5021
Au 18.0469 10.8367 3.11868
Au 15.9322 13.9149 6.02737
Au 16.1078 15.6656 8.31826
Au 18.4126 14.3003 7.46133
Pd 18.1033 15.3531 4.91623
Au 16.4232 14.5378 10.9213
Au 16.6597 16.2363 13.1802
Au 17.519 12.4283 12.5132
Au 18.5946 16.0117 9.75119
Au 16.266 11.7156 14.9481
Au 16.4293 13.4127 17.177
Au 17.3945 9.66375 16.5043
Au 17.7501 14.1392 14.7622
Au 16.1473 9.09578 18.9884
Au 17.3159 12.9472 21.0042
Pd 18.3766 10.2461 21.0851
Pd 17.5559 11.4214 18.7261
Pd 17.2922 11.4743 23.4187
Pd 16.5612 13.8973 24.6787
Au 18.9624 12.3572 25.5072
Au 18.833 13.8593 23.1318
Au 16.6475 12.4129 27.0648
Au 16.6018 16.1974 30.7304
Au 18.433 13.2929 29.1221
Au 18.2295 14.7876 26.7766
Au 19.2526 18.8582 33.9604
Pd 17.0837 19.126 35.6217
Pd 21.2526 15.7298 36.9639
Au 21.0497 14.3523 34.6844
Au 15.5137 17.8701 3.21775
Au 17.7354 16.4713 2.47263
Au 15.8125 16.7388 5.73375
Pd 15.9553 18.4748 8.00712
Pd 18.2716 17.1122 7.18791
Pd 17.9796 18.1376 4.66709
Au 16.2699 17.3824 10.5847
Au 14.3208 17.6022 14.017
Au 18.8125 17.7137 12.0375
Au 18.4244 18.8382 9.44892
Au 15.3751 15.5015 15.6352
Pd 15.5594 17.2353 17.8444
Au 17.9198 15.8606 16.9782
Au 16.8682 17.9355 15.4151
Au 16.5185 15.1258 19.3811
Au 15.6122 17.5008 20.6284
Au 18.9507 15.3908 20.7231
Pd 18.0894 17.5431 19.184
Au 16.5379 15.3563 22.2452
Au 15.7262 17.8105 23.4695
Au 18.071 16.3445 24.3872
Au 18.1077 17.7788 21.9633
Pd 16.8207 17.5467 28.2121
Au 16.8439 18.9989 30.6769
Pd 19.0703 17.4438 31.5292
Au 19.1434 18.8788 29.031
Au 19.5404 20.182 36.4271
Au 19.9826 22.8713 36.4963
Au 19.2351 17.4414 36.3502
Au 21.6688 20.2148 34.6093
Au 17.6912 19.274 2.1588
Au 22.4136 19.3306 1.83934
Au 15.6514 19.5451 5.45952
Au 16.0709 20.1944 10.2628
Au 18.1375 19.9331 6.90237
Au 17.8335 20.9639 4.34748
Au 13.9287 18.7356 11.4447
Pd 14.1107 20.4503 13.7032
Au 16.435 19.0908 12.8504
Au 18.567 20.5605 11.7536
Au 14.5263 19.3172 16.2561
Au 15.2107 21.8384 17.3641
Au 17.0721 19.6456 17.632
Au 16.6322 20.8155 15.0886
Au 14.5836 19.6297 19.0583
Au 15.3009 22.1782 20.1555
Au 17.1139 19.9505 20.4247
Au 17.7698 22.164 18.7351
Au 14.6808 19.9282 21.8812
Au 14.7997 20.331 24.7264
Au 17.0637 18.8869 25.6972
Pd 17.2118 20.2135 23.2235
Au 14.6733 19.0357 27.2544
Pd 14.6873 20.4823 29.7654
Au 19.2089 20.3158 31.4952
Au 16.9282 20.3984 28.1352
Au 16.9453 20.3964 33.2019
Au 17.8956 24.5064 35.6911
Au 21.7998 23.3044 34.4973
Au 19.4392 21.7947 33.9776
Au 15.415 22.3207 5.20726
Au 17.1993 26.3984 3.54311
Pd 15.7749 21.2657 7.72905
Au 15.8924 23.0244 9.98758
Au 18.2547 21.6683 9.17372
Au 17.9597 22.7646 6.61534
Au 16.2149 21.9411 12.5426
Au 19.3055 24.8882 14.9958
Au 18.3932 23.4245 11.4098
Au 18.1139 24.5734 8.82528
Au 17.2388 23.3693 16.1641
Au 18.5612 24.6733 19.8205
Pd 21.5543 24.3556 19.31
Au 16.7188 26.9755 19.4524
Au 15.9355 24.3842 18.4833
Pd 16.0067 24.6838 21.2508
Au 17.8639 22.4628 21.5588
Au 17.8212 25.9925 17.1524
Au 15.4328 22.4425 22.935
Au 15.0839 23.9963 25.1485
Au 16.9875 21.8748 25.5558
Au 17.649 24.072 23.745
Pd 14.7281 21.9099 27.1727
Pd 14.7513 23.2499 29.9451
Pd 16.9612 21.7924 30.7246
Au 16.9771 23.1747 28.2592
Pd 14.6707 21.7737 32.3822
Au 16.327 29.0017 35.606
Pd 20.64 25.4395 36.1128
Au 17.1554 23.169 33.2329
Pd 19.6958 25.103 4.05796
Pd 17.4871 23.6887 4.09151
Au 15.606 24.0872 7.45876
Au 16.1248 26.6555 8.39563
Au 20.2976 24.299 6.38019
Au 18.505 35.1059 14.2297
Au 18.7962 25.9886 12.4249
Au 18.9236 28.4395 20.6097
Au 24.4394 29.4486 14.8793
Au 18.4376 27.1761 9.93399
Au 20.1833 26.5528 18.3519
Au 20.5727 30.5246 16.9292
Au 14.3595 30.4974 16.7494
Au 13.7624 31.0857 13.9942
Au 14.8047 29.2681 19.2703
Au 13.8643 32.0741 20.1251
Au 16.3099 28.3324 21.7551
Au 14.7109 35.0185 19.9427
Au 15.5976 26.2735 23.559
Pd 15.7625 27.2319 26.3137
Au 17.3961 25.0396 26.2573
Pd 15.9835 29.137 24.382
Au 14.9303 24.9003 27.7334
Au 14.8592 26.2857 30.2498
Au 17.1027 24.6275 30.7391
Pd 17.0169 26.3648 28.6173
Au 14.8315 24.5157 32.5131
Au 15.7527 26.3408 35.44
Pd 19.6919 24.774 33.6766
Au 17.3386 25.9771 33.2265
Au 22.2195 22.1392 1.69599
Au 22.3887 30.862 5.90136
Au 13.4002 27.1884 4.71306
Pd 15.6512 29.1732 14.2529
Au 21.1985 29.0146 4.11163
Au 16.4712 30.15 6.81066
Au 13.1169 23.675 6.10846
Pd 20.847 33.5682 19.6708
Pd 17.5808 30.6958 12.8891
Pd 16.9514 28.147 11.9769
Au 12.7233 35.3419 15.0986
Pd 12.0324 34.1692 20.7332
Pd 26.4617 33.6694 15.1354
Au 21.7833 35.5266 17.8469
Au 10.7311 35.3632 17.029
Au 12.6191 33.343 25.3007
Au 14.7038 30.494 22.0362
Pd 10.4918 35.9137 22.2698
Au 13.7011 29.0118 26.2036
Au 11.7853 30.9187 26.1462
Au 18.2356 31.7491 28.2756
Pd 16.1569 30.5035 26.6917
Pd 15.0674 28.6138 28.5672
Au 15.3599 29.279 31.1618
Au 19.9176 30.363 32.8216
Pd 21.9812 34.3393 28.232
Pd 17.4041 27.5065 30.937
Au 17.094 33.3455 30.3366
Au 18.9474 29.8221 35.3132
Au 14.7704 30.072 33.6932
Au 18.2242 8.13205 3.53027
Au 18.0375 5.26971 7.364
Au 21.9541 6.10883 4.76495
Au 18.3703 3.66515 12.0555
Au 16.8295 4.4989 9.84733
Au 18.6979 2.36312 16.8274
Au 19.9412 2.94031 14.2688
Pd 19.1536 2.75572 21.3934
Pd 20.3035 1.84086 18.9871
Au 19.6325 4.67838 25.9266
Au 20.807 3.54165 23.5048
Au 19.8931 6.70361 30.4126
Au 21.1282 5.55814 28.0821
Au 18.2493 11.9393 36.347
Au 18.0303 10.3706 34.0796
Au 17.8681 13.6533 2.76497
Au 24.9251 15.1558 2.75673
Pd 18.3506 9.75657 5.62245
Au 18.5121 11.4621 7.8005
Pd 19.4067 7.6563 7.09735
Au 20.7167 12.9323 6.50043
Pd 18.1931 6.87237 9.55074
Pd 18.3941 8.58142 11.7868
Au 19.7716 6.08313 11.7404
Au 19.595 9.3166 9.33572
Au 18.5669 5.39168 14.253
Pd 18.815 7.19665 16.4575
Au 20.159 4.68475 16.4557
Au 20.0191 7.86839 13.9761
Au 18.971 4.17142 18.9878
Au 19.4874 7.60048 21.1093
Au 20.702 5.00136 21.1278
Au 20.4624 6.53097 18.6702
Au 19.6068 6.0823 23.5353
Au 20.148 9.57011 25.6217
Au 21.3357 6.94341 25.6993
Au 21.2026 8.48018 23.2789
Au 20.0964 8.13937 28.0056
Au 20.5498 11.6031 29.9863
Au 21.6006 8.9696 30.1512
Pd 21.9611 10.5177 27.7924
Pd 20.3685 10.1582 32.4426
Au 18.5476 13.2206 34.0093
Au 20.5003 11.3664 34.8475
Au 21.0295 12.9502 32.3752
Au 20.3608 13.9084 3.86063
Au 22.6649 13.7017 2.39446
Pd 27.632 12.6797 6.16107
Au 20.7512 17.4488 8.63584
Au 20.9182 14.6368 8.83369
Au 20.5459 15.7615 6.21119
Au 18.7336 13.1783 10.0605
Au 18.989 14.8707 12.3324
Au 19.8336 11.0426 11.6091
Au 21.126 16.3484 11.1941
Au 18.6233 10.3345 14.0362
Pd 18.8278 12.0509 16.2649
Au 20.2615 9.62542 16.2106
Pd 20.0705 12.7618 13.8523
Au 19.0721 9.01286 18.6941
Au 19.9857 12.6642 20.8179
Au 21.0456 9.99749 20.8168
Au 20.4901 11.3703 18.4341
Pd 19.995 11.1218 23.2043
Au 20.4227 14.8368 25.2014
Au 21.6901 11.7913 25.3393
Au 21.5522 13.4891 22.9957
Pd 20.8559 13.164 27.5351
Au 18.7933 14.6335 31.5898
Au 21.0556 14.4745 29.9529
Au 21.4777 15.883 27.5205
Au 23.5832 15.2213 34.1254
Au 23.7346 16.6741 36.522
Pd 23.3195 13.9599 36.4184
Pd 25.4231 13.2744 34.4918
Au 20.2152 16.6924 3.54995
Au 22.5287 18.0926 4.2836
Au 20.1161 19.5108 3.56693
Au 20.4807 18.6101 6.12087
Au 22.9233 17.2192 6.88388
Au 24.6739 22.1245 5.11099
Pd 20.8744 19.1385 10.954
Au 21.0236 20.9689 13.4358
Pd 21.5029 18.1505 13.4844
Au 23.0438 21.6186 9.37039
Au 19.2838 16.5979 14.5501
Au 19.4665 18.2783 16.7885
Au 20.2902 14.4572 16.0772
Au 21.6775 19.8062 15.805
Au 18.9898 13.7695 18.4761
Au 20.7314 17.8145 20.5284
Pd 21.6599 15.139 20.6677
Au 20.4869 16.1662 18.3303
Au 20.4101 16.3832 22.8798
Au 19.2724 17.3857 26.6531
Au 21.8028 17.3402 25.1213
Pd 22.1325 18.7296 22.7639
Pd 18.943 16.0442 29.1212
Au 21.4492 18.8023 32.2004
Pd 21.3592 15.8637 32.3112
Au 21.3303 17.3506 29.8382
Au 21.6034 17.2616 34.6451
Pd 23.9124 21.8062 35.2742
Au 21.7184 18.5378 36.9937
Au 24.0221 20.2669 32.8725
Au 22.5744 16.4762 2.07707
Au 24.9426 12.3304 3.11375
Au 22.4295 20.9051 4.10949
Au 20.3922 21.5149 5.89427
Pd 22.8806 20.1722 6.7717
Au 24.3874 24.8314 5.19611
Au 20.6623 20.3035 8.43791
Au 20.8271 21.9652 10.9762
Pd 23.3176 22.9429 11.9322
Au 20.699 24.9407 10.7433
Au 18.9941 19.4038 14.2759
Au 19.2165 21.1585 16.4737
Pd 21.6338 21.5345 18.1015
Pd 18.6955 22.3474 13.9798
Au 19.6283 19.9045 19.0089
Au 19.6623 20.0558 21.7682
Au 22.8985 20.0063 20.3804
Au 20.7486 26.2943 20.9736
Pd 19.5263 18.77 24.1994
Au 19.2841 20.302 26.5131
Pd 21.5211 18.8391 27.3784
Au 21.6915 20.3508 24.915
Pd 21.4517 20.2591 29.7429
Au 21.6449 21.682 32.1701
Au 23.8355 21.5455 30.4019
Au 21.5762 21.7427 27.2787
Pd 24.0879 23.0177 32.7192
Au 22.0564 21.221 37.0992
Au 24.2678 24.7 34.7492
Au 24.9048 27.4432 34.4059
Au 24.8371 18.0185 2.5347
Pd 19.9049 22.447 3.23566
Au 21.3276 24.8175 1.97778
Pd 22.8166 22.9279 6.9509
Au 29.4435 19.5965 6.80876
Au 26.8235 25.9923 6.14998
Pd 22.6286 25.6861 6.97144
Au 20.6108 23.1042 8.62613
Pd 23.3346 24.2012 14.4193
Au 25.5346 23.0704 10.1828
Au 19.7273 23.737 17.4872
Au 23.6067 26.9091 14.7246
Au 22.1728 28.153 16.8053
Pd 21.7272 25.4779 16.3201
Au 21.7685 21.6231 22.3834
Au 18.1802 26.1798 22.054
Au 23.3871 22.6 20.1617
Pd 25.3569 25.3652 17.8201
Au 19.3745 21.7679 23.9747
Au 19.3092 23.121 26.4531
Au 21.6229 23.2556 24.8242
Au 19.9158 25.4556 24.8976
Au 19.2261 21.7423 28.9852
Au 19.3607 23.1756 31.409
Au 21.5337 23.131 29.6495
Au 21.5215 24.7927 27.1261
Au 22.7774 23.8318 36.9459
Pd 22.1617 26.2856 34.0047
Au 26.5407 24.5901 32.955
Pd 24.9937 23.9962 30.3904
Au 21.9612 30.2388 10.61
Au 24.8842 27.4251 7.53999
Au 17.5834 22.1021 1.79239
Au 22.5491 32.8762 10.9936
Au 22.2624 26.4309 4.08471
Au 20.4072 26.2036 8.37018
Pd 15.2361 25.1352 4.95386
Pd 20.382 31.1999 12.6784
Au 29.2617 29.1744 19.0231
Au 21.2252 26.4874 13.646
Au 21.661 29.3654 14.4213
Au 17.2086 33.9864 16.3981
Au 16.3081 31.7029 15.1642
Au 18.9657 32.3937 14.8361
Au 16.994 30.6927 20.1876
Au 16.6658 31.698 23.6199
Au 18.3605 29.6892 22.9812
Pd 17.665 31.3604 17.531
Au 17.9177 27.2895 24.512
Au 18.49 29.722 25.7721
Pd 18.8832 27.2215 26.985
Au 18.0086 32.6554 25.7493
Pd 19.2425 24.6766 28.7456
Au 19.6555 25.9532 31.1163
Au 22.9112 25.4751 29.6088
Au 20.8029 26.9756 28.7639
Au 21.9214 24.5513 31.9735
Au 18.4198 27.1504 35.5444
Pd 24.3304 26.032 32.1317
Pd 22.0767 27.438 31.3283
Au 17.7777 25.6881 6.17557
Au 19.8515 30.128 6.14387
Pd 19.0853 29.8158 10.6285
Au 15.2045 23.4756 2.716
Pd 20.1987 27.1159 5.78907
Pd 16.6169 29.2365 9.41642
Au 19.3676 28.6337 13.1591
Pd 15.5849 32.8314 12.8084
Au 15.6385 35.1006 14.4837
Au 12.6023 36.4121 18.7705
Au 14.6715 35.5849 17.0381
Au 15.0944 35.3863 22.6704
Au 14.8589 36.4737 25.0856
Au 17.1622 36.9701 23.4737
Au 11.7859 33.327 27.9655
Pd 14.2156 31.1795 24.673
Au 17.2218 35.61 25.8569
Au 19.5638 36.189 24.3869
Au 15.3667 33.7595 25.0346
Au 9.16346 33.7742 27.9563
Au 20.4503 30.9707 24.4041
Au 20.6807 32.3362 26.9565
Au 19.8191 28.7773 30.5766
Pd 17.39 28.8183 33.2057
Au 19.5652 32.4077 34.6277
Au 19.5456 33.9262 29.3949
Au 21.0037 28.0903 35.9014
Pd 19.8229 27.5935 33.2806
Au 17.2969 31.4296 33.6854
Au 15.3877 32.0504 31.9074
Au 24.3349 7.44392 5.12964
Au 20.7872 5.17216 7.06673
Au 23.5736 5.31007 6.82714
Au 21.1751 3.64842 11.7295
Au 19.5699 4.39502 9.53205
Au 21.5263 2.25383 16.4695
Au 22.7617 2.92075 13.9318
Pd 21.9574 2.57792 21.0574
Au 23.1342 1.68544 18.6283
Au 22.4454 4.41598 25.6272
Au 23.6099 3.36144 23.1752
Pd 22.6307 6.49983 30.1851
Pd 23.7997 5.36642 27.7649
Pd 18.9795 16.0641 33.9704
Au 25.1245 7.15582 29.4802
Au 27.5493 15.3974 5.81801
Pd 25.1968 13.9904 5.33107
Au 19.257 6.06665 4.95603
Au 20.7949 10.1358 6.86774
Au 22.184 7.70529 6.87301
Pd 22.9124 9.83716 5.16867
Au 20.9815 6.83006 9.28195
Au 21.2346 8.59409 11.5307
Au 22.6054 6.11703 11.465
Au 22.4602 9.38315 9.11392
Au 21.3857 5.34833 13.939
Au 21.6357 7.15147 16.1632
Au 22.9934 4.63205 16.1377
Au 22.8663 7.8824 13.6797
Au 21.8164 4.03505 18.671
Au 22.2351 7.40422 20.8087
Au 23.4911 4.8612 20.7945
Au 23.291 6.42604 18.3608
Au 22.4152 5.86542 23.2937
Au 23.0159 9.29273 25.4958
Pd 24.1643 6.81079 25.4466
Au 23.9409 8.25213 22.9066
Pd 22.8607 7.84699 27.8356
Au 23.9866 8.37051 31.8011
Au 22.6644 9.58282 33.9103
Au 24.6476 11.6736 27.615
Au 21.4447 7.61992 32.4823
Pd 26.7752 13.0841 32.2665
Au 22.9913 12.2235 34.3503
Au 23.9305 13.4214 32.0429
Pd 27.1357 19.4969 3.50731
Au 27.1857 16.7293 3.35082
Au 25.5173 15.8097 7.65512
Au 23.1297 14.3443 7.10519
Au 23.2062 11.5617 7.42958
Au 29.4565 12.0981 8.29437
Au 21.0319 11.824 9.15261
Au 21.2861 13.5214 11.4365
Au 22.7168 11.067 11.3588
Au 23.3029 16.0361 9.38691
Pd 21.4726 10.3294 13.7721
Pd 21.6875 12.0359 16.0078
Au 23.0933 9.60791 15.9134
Au 22.924 12.7676 13.6087
Pd 21.9276 8.9178 18.398
Au 22.6576 12.4553 20.5899
Au 23.7887 9.8166 20.5026
Au 23.3525 11.33 18.1648
Au 22.7399 10.8077 22.9253
Au 23.028 14.0919 25.3439
Pd 24.4268 11.5407 24.938
Au 24.2847 13.1915 22.7735
Au 22.9141 10.9131 31.635
Au 23.5181 15.7209 30.5057
Pd 25.5055 11.6989 30.4467
Au 23.9113 14.6129 27.9746
Pd 23.7619 17.5293 32.7553
Pd 26.2484 20.7149 36.395
Au 27.6098 14.9903 34.1669
Au 26.2122 18.0258 36.7017
Au 25.0269 16.7262 5.05532
Pd 30.5198 17.4342 9.41443
Au 22.705 15.3011 4.5428
Au 25.1414 18.7362 7.50692
Au 25.6122 17.476 9.95748
Pd 27.3036 19.7075 8.65203
Pd 23.0574 18.8764 9.26693
Au 23.1228 20.2732 11.9314
Pd 23.4955 17.6186 11.6544
Au 27.8788 17.1391 8.45892
Pd 21.5442 15.2334 13.6849
Au 21.8339 16.9195 15.9552
Au 23.1305 14.4418 15.8808
Au 25.1703 19.0313 13.2456
Pd 21.9092 13.7519 18.2858
Au 23.5584 17.3664 20.7673
Pd 24.2856 14.797 20.5665
Au 23.3827 16.1288 18.2491
Pd 23.0472 15.8404 23.0572
Au 24.0457 19.1022 25.5665
Au 24.3625 16.4117 25.7264
Au 24.8592 17.9603 23.183
Au 23.819 17.4046 28.1308
Au 23.6696 18.7556 30.3958
Au 26.1595 19.5139 30.974
Au 26.2182 18.8681 28.0417
Au 24.0404 19.0795 35.4385
Au 27.4198 27.1951 33.1256
Au 25.5602 23.3718 36.7248
Au 26.4143 19.4797 33.9519
Au 24.7613 20.8331 2.52389
Pd 27.2873 18.0517 5.91472
Au 24.8268 19.4374 4.88969
Au 23.0342 24.3846 9.51423
Pd 28.2575 22.0448 8.03599
Pd 25.062 24.5269 7.81578