1687
Atoms. Timestep: 20965
Au 11.8537 5.76413 8.85158
Au 4.23076 11.8296 10.5055
Au 7.30984 8.31323 10.8154
Au 8.15984 4.83243 18.3325
Au 8.38769 4.91442 21.2191
Au 10.2883 4.60462 26.0066
Au 12.0532 8.70903 31.8859
Pd 13.3518 8.0502 8.82781
Au 13.4887 15.487 6.93292
Au 11.3162 12.3669 5.87759
Pd 8.35074 6.31203 12.2648
Au 6.19929 7.64266 13.2179
Au 7.19573 6.99531 16.9332
Pd 6.26349 9.16095 15.5013
Au 9.16172 2.72516 19.6463
Au 7.32607 7.05601 19.8511
Au 7.93236 5.84367 25.2711
Pd 7.68341 7.18798 22.8045
Pd 9.81549 10.0509 30.9884
Pd 8.40515 9.06614 28.7697
Pd 12.6009 13.4888 32.902
Pd 11.1984 11.0451 33.1832
Au 10.8238 7.84667 7.53755
Pd 5.21153 9.73612 11.8673
Au 5.42478 14.1973 10.1627
Au 5.23413 11.2708 14.1155
Au 4.20656 13.4088 12.695
Au 6.31595 9.21773 18.4001
Au 5.32708 11.3823 16.9561
Au 6.5331 9.32298 21.328
Au 5.46632 11.4949 19.8468
Pd 6.84099 9.49048 24.1803
Au 5.66974 11.6459 22.7045
Au 7.06605 8.04825 26.5673
Au 5.94116 11.8999 25.4781
Au 8.96759 12.3612 32.3008
Au 7.61796 11.3528 30.1123
Au 6.32595 10.4741 9.47101
Au 3.24882 15.6009 11.2537
Au 4.28928 19.2386 8.74437
Au 4.30051 13.5489 15.5267
Au 3.29411 15.7307 14.0648
Au 4.4179 13.6768 18.3776
Au 3.39508 15.8707 16.8942
Au 4.57907 13.8298 21.2318
Au 3.5267 16.0218 19.7397
Au 4.78979 14.0253 24.0587
Au 3.69192 16.1957 22.5788
Au 5.11281 14.3318 26.8026
Au 3.91271 16.4176 25.3936
Au 5.80583 17.6521 30.2401
Au 4.31386 16.7246 28.0991
Pd 6.73616 19.4754 9.98498
Au 2.39066 17.9039 12.6164
Au 4.96061 21.6886 9.84997
Au 2.49634 18.0715 15.4011
Au 3.01805 20.3232 13.8311
Au 2.60457 18.2254 18.222
Au 3.11541 20.5095 16.6292
Au 2.74183 18.3826 21.0551
Au 3.21587 20.6785 19.4153
Au 2.90107 18.5698 23.8986
Au 3.31101 20.8506 22.2279
Au 3.55632 21.3427 27.7586
Au 3.42709 21.0594 25.0357
Au 3.10913 18.8095 26.6848
Pd 5.84889 21.9079 29.0066
Au 7.44795 21.9304 11.1246
Pd 3.03604 20.1115 11.0689
Au 5.66625 24.1233 11.014
Pd 3.77392 22.7352 15.0158
Au 3.69828 22.5288 12.2295
Pd 3.87508 22.9221 17.8066
Au 4.43864 25.1775 16.1767
Au 3.90742 23.1338 20.5946
Au 4.52086 25.3793 18.9619
Au 3.99544 23.3364 23.3887
Au 4.60897 25.585 21.7572
Au 4.07244 23.5716 26.1781
Au 4.68396 25.8271 24.5638
Au 5.48807 23.4022 31.1603
Au 4.1456 23.9273 28.8654
Au 12.0164 23.686 11.303
Au 6.3824 26.5499 12.196
Au 10.2192 25.9139 11.162
Au 4.41395 24.9522 13.4031
Au 7.10293 29.0107 13.3385
Au 5.12871 27.6242 17.3308
Au 5.12436 27.3833 14.5549
Pd 5.27058 27.8154 20.1218
Au 5.86787 30.0801 18.4847
Au 5.29686 28.0564 22.9154
Au 6.08284 30.4897 24.0298
Au 4.80082 26.0892 27.32
Au 5.44377 28.2659 25.702
Au 7.41649 30.0457 26.4556
Au 14.1612 34.3569 28.4305
Au 6.31607 20.7354 7.6292
Pd 7.76633 25.632 9.91977
Au 9.06818 24.7493 7.64371
Au 7.86612 31.4629 14.5047
Au 8.44342 28.1057 11.0219
Au 5.86535 29.8552 15.715
Pd 10.3972 31.7196 15.8286
Au 6.65313 32.2735 16.8876
Au 12.2474 33.5489 14.714
Au 8.10017 32.258 24.8195
Au 11.7217 33.0368 19.4087
Au 8.855 34.3861 23.2047
Au 10.0377 29.2487 31.1714
Au 19.5917 28.6625 29.7619
Pd 11.7365 33.2848 27.7587
Au 16.0768 11.1021 6.14364
Au 14.2921 5.68197 10.1008
Pd 9.62034 7.01417 9.89318
Au 10.7376 6.21729 13.4839
Pd 11.083 9.35463 9.75026
Au 10.4123 3.36716 17.291
Pd 11.7645 4.14192 14.9449
Au 10.5772 3.36978 21.8148
Au 11.8865 2.47731 19.4491
Au 9.27246 6.7313 27.4777
Pd 14.7706 3.9298 23.8397
Au 11.654 5.52797 28.2576
Au 12.0357 3.97823 23.9626
Au 13.5758 14.5689 35.2413
Au 10.6643 7.74202 29.6668
Au 17.0759 10.5271 3.67481
Au 10.008 11.4284 8.14996
Au 13.7934 12.564 7.14355
Au 8.78448 10.7055 10.6876
Au 12.3244 10.0805 7.18552
Au 11.4904 13.9295 8.11734
Au 9.78881 8.5478 12.146
Au 8.48952 7.70811 14.5565
Au 12.2696 8.69917 13.4229
Au 11.3206 10.946 12.0183
Au 9.40153 5.47989 15.8657
Au 9.63521 7.14822 18.1722
Au 11.917 5.67224 17.1582
Pd 10.9543 7.87257 15.7661
Au 10.6232 4.9586 19.5593
Au 9.84082 7.23983 21.1045
Pd 12.0966 5.69031 21.743
Pd 12.1408 7.31635 19.4444
Au 9.94377 5.69747 23.5043
Au 9.20043 8.14696 25.0022
Pd 11.5731 6.88279 25.841
Au 11.4067 8.13057 23.3532
Pd 10.6389 9.12371 27.2437
Au 9.7663 11.4399 28.5733
Pd 12.0965 10.1114 29.4817
Au 12.1141 11.4861 27.0173
Au 11.1752 12.464 30.7877
Au 10.204 14.8479 32.107
Pd 14.9749 12.3887 33.8773
Pd 12.6807 14.8899 30.5438
Au 7.68961 12.8169 9.13013
Au 6.71613 15.0961 7.82467
Au 8.5896 9.11349 8.5099
Au 6.54908 12.0962 11.7255
Au 10.2593 13.0835 10.4872
Au 9.19955 15.2978 9.08079
Pd 7.57991 9.93869 13.1407
Pd 7.69254 11.5181 15.409
Pd 10.0112 10.1224 14.4376
Au 9.03266 12.3164 13.0148
Au 8.66865 9.35229 16.8053
Au 7.79597 11.6108 18.2544
Au 11.1896 9.54803 18.0653
Au 10.2241 11.7446 16.6987
Au 8.80139 9.42772 19.6826
Au 7.97358 11.7288 21.1097
Au 11.3689 9.64741 20.933
Pd 10.3654 11.8457 19.5305
Au 9.05285 9.55863 22.5599
Au 8.2019 11.8797 23.9497
Pd 10.569 10.5105 24.8136
Au 10.5701 11.9674 22.3781
Au 8.18931 10.4655 26.4258
Au 7.27082 12.7676 27.7624
Au 11.2267 13.8383 28.3488
Au 9.69372 12.816 26.1467
Au 8.75388 13.8149 29.9566
Pd 8.03484 16.3059 31.1224
Au 11.4904 15.935 34.2155
Au 10.384 16.1804 29.6508
Au 8.71176 16.5651 6.60528
Au 10.7051 18.1113 5.4927
Au 4.45139 16.4481 8.84939
Au 5.67314 15.7814 12.5375
Au 7.97144 14.4571 11.4994
Au 6.91752 16.6476 10.0901
Pd 6.68287 13.6564 14.0052
Au 5.75981 15.9574 15.3571
Au 9.2232 13.9083 15.2835
Au 8.20572 16.0568 13.832
Au 6.77186 13.7776 16.8184
Au 5.86749 16.0998 18.1951
Au 9.36011 14.0276 18.1256
Au 8.31105 16.2121 16.6615
Au 6.91264 13.9124 19.6666
Au 6.01377 16.2567 21.033
Au 9.52461 14.1561 20.9324
Au 8.45172 16.356 19.4972
Au 7.0945 14.0648 22.5005
Au 6.20729 16.4357 23.8564
Au 9.71535 14.3111 23.7471
Au 8.60961 16.5201 22.3166
Pd 7.35396 14.2705 25.287
Pd 6.50333 16.7161 26.6044
Au 8.81678 15.1336 27.472
Au 8.8213 16.7177 25.1136
Au 6.48196 15.2116 29.0273
Au 7.32339 18.8698 32.1361
Pd 9.48068 17.4442 33.1155
Au 8.08382 17.5215 28.6894
Au 8.49526 19.422 6.50407
Au 6.45802 17.9241 7.62434
Pd 4.7271 17.9611 11.1483
Au 5.41089 20.37 12.3176
Pd 7.1917 18.1916 12.4174
Au 11.2916 21.2228 10.1251
Pd 4.80217 18.1297 13.9027
Au 5.4783 20.5623 15.1323
Pd 7.29203 18.3702 15.2005
Au 7.92996 20.5988 13.6075
Au 4.893 18.3068 16.703
Pd 5.59046 20.7582 17.9279
Au 7.41276 18.5545 18.0169
Au 8.01879 20.8093 16.4258
Au 5.00955 18.4787 19.5307
Au 5.67559 20.9652 20.7308
Au 7.54894 18.7335 20.8596
Au 8.12363 21.0223 19.2556
Au 5.15495 18.649 22.3748
Au 5.77979 21.1677 23.5418
Au 7.69427 18.9272 23.7086
Au 8.22819 21.2332 22.073
Au 5.33237 18.8757 25.2209
Pd 5.87903 21.4246 26.3155
Au 7.79572 19.2642 26.5626
Au 8.2869 21.4772 24.8896
Au 5.40184 19.2572 28.0885
Au 5.23341 20.2432 30.9381
Au 9.48668 20.2996 32.9944
Au 7.5832 20.0081 29.6714
Au 2.35378 17.7683 9.92041
Au 10.7685 22.5397 7.72271
Au 8.15468 24.3646 12.3172
Au 8.86302 26.8233 13.4655
Pd 9.97948 22.1435 12.4532
Pd 12.7034 26.1494 12.4503
Au 6.11444 22.8092 13.4957
Pd 6.8322 25.2334 14.6771
Au 8.63401 23.0341 14.7944
Au 10.6922 24.5801 13.6157
Au 6.19414 23.0191 16.3245
Pd 6.89213 25.4547 17.4876
Au 8.72436 23.2647 17.6522
Au 9.32229 25.486 15.9797
Au 6.28799 23.2144 19.1291
Au 6.99161 25.645 20.2954
Pd 8.8249 23.4782 20.4713
Au 9.4314 25.7065 18.8397
Pd 6.38585 23.4173 21.9261
Au 7.07383 25.8889 23.1073
Au 8.9076 23.7251 23.2808
Au 9.54726 25.9464 21.6601
Au 6.44977 23.6725 24.7311
Pd 6.52089 24.0221 27.484
Pd 8.25051 21.8899 27.6947
Au 8.93882 24.0483 26.1038
Pd 7.92391 23.4952 29.8767
Au 7.59174 24.9254 32.0859
Pd 7.39295 21.6966 31.8794
Pd 10.0403 25.0633 30.7804
Pd 9.51365 23.458 10.0359
Au 11.0556 26.2854 6.47791
Pd 11.5512 24.996 8.88285
Au 9.17716 30.5757 12.1702
Pd 10.9222 28.3772 12.3097
Au 11.8124 28.7347 7.58383
Au 9.61174 29.2918 14.6213
Au 14.934 33.7634 15.0755
Au 11.4004 27.0518 14.7838
Pd 13.3843 28.6147 13.6385
Au 7.53024 27.6851 15.8244
Au 8.30339 30.1669 16.9924
Au 10.0481 27.9572 17.1437
Au 12.1466 29.5287 15.9752
Au 7.59896 27.902 18.6408
Pd 8.36402 30.335 19.797
Au 10.148 28.1702 19.9965
Au 10.7925 30.4834 18.3022
Au 7.69826 28.1147 21.4524
Au 7.80618 28.3504 24.269
Pd 9.61723 26.2238 24.4681
Pd 10.2414 28.4174 22.8077
Pd 7.18815 26.1767 25.9102
Pd 12.0095 31.7334 25.6534
Pd 8.59037 25.6921 28.3573
Au 9.28947 27.909 26.7036
Au 6.16766 25.6312 29.7512
Au 10.5753 31.4571 29.6857
Au 9.81688 26.1998 33.2113
Au 11.5227 29.8465 27.6153
Au 7.03835 23.2169 8.72323
Au 8.74958 21.0325 8.75684
Au 10.4869 29.6489 9.86202
Pd 9.80626 27.1682 8.77236
Au 14.3223 29.012 8.89382
Au 12.5911 31.1857 8.69208
Au 8.68194 33.7538 15.7081
Au 11.9985 34.5127 12.1078
Au 9.92729 33.011 13.359
Au 11.2217 32.1262 10.9959
Au 9.10453 32.8123 20.9556
Pd 12.8492 35.9921 16.1929
Au 13.2745 30.6243 19.5608
Au 13.7537 35.7638 13.7427
Au 11.0145 34.2582 17.0559
Au 9.02848 32.6512 18.1832
Au 10.8897 30.6615 21.106
Au 9.76822 34.9788 19.4354
Au 5.94796 30.2878 21.259
Au 9.5156 31.7796 27.176
Au 8.45878 30.5519 22.5993
Au 6.67352 32.4455 19.6544
Au 12.1098 36.1212 18.8725
Au 6.82758 27.7991 28.1447
Pd 18.622 33.0153 29.4838
Au 6.80307 32.6761 22.408
Au 8.30397 27.1915 30.6868
Pd 19.8055 32.6791 31.8573
Pd 11.7577 27.0232 31.6495
Au 17.0457 32.7991 31.9216
Au 13.0476 6.64044 6.65928
Au 15.5373 6.54295 7.77733
Au 13.6566 11.0784 4.91548
Au 13.0548 4.87712 12.5331
Au 17.0703 5.50422 9.97544
Au 13.222 3.14654 17.0807
Au 14.5308 3.9021 14.7269
Pd 13.3514 3.21428 21.6265
Au 14.6816 2.37259 19.3151
Au 13.2775 4.71393 26.1783
Au 16.0633 4.63732 26.1196
Au 13.0224 6.50414 30.5085
Au 14.555 5.52618 28.3931
Au 10.4718 13.3687 34.3885
Au 13.4501 9.67559 34.0998
Au 9.0124 13.7227 6.84966
Au 13.2281 13.8934 4.66204
Au 12.5674 11.6967 9.51633
Au 14.0798 14.1832 9.41888
Au 15.8596 8.07884 10.0048
Au 18.1834 14.4216 7.2822
Au 13.6003 9.56801 11.0486
Pd 13.8437 11.1676 13.2928
Au 14.5595 7.23446 12.3868
Pd 15.1201 11.962 10.8421
Au 13.2462 6.42583 14.7808
Au 13.4588 8.07247 17.0478
Pd 14.726 5.50114 16.996
Au 14.7994 8.88871 14.6635
Au 13.4148 4.77394 19.3659
Au 13.6243 8.07868 21.6616
Pd 14.86 5.52891 21.5982
Au 14.936 7.15436 19.2881
Au 13.5024 6.36842 23.9339
Au 12.9676 9.19623 25.6619
Pd 14.8035 7.14232 26.1463
Au 15.0631 8.84952 23.8862
Au 13.0329 7.85524 28.1358
Au 13.5662 12.4921 29.2542
Pd 14.4544 8.84566 30.3974
Pd 14.4715 10.1735 27.9532
Au 13.4908 11.1029 31.7478
Au 15.4613 13.1998 36.5127
Pd 12.7356 12.0174 35.2465
Au 15.8849 10.0296 32.8399
Pd 10.9987 15.2229 5.7032
Au 16.9185 17.1343 2.12738
Pd 15.4524 17.0231 5.75314
Pd 11.7708 15.5546 10.3966
Pd 16.0394 15.7806 8.23408
Au 15.1694 15.487 3.48321
Au 12.8339 13.3407 11.8219
Au 11.5717 12.549 14.2842
Au 15.3658 13.5617 13.1175
Au 14.3157 15.7813 11.703
Au 12.5195 10.3444 15.6799
Pd 12.7445 11.9607 17.9662
Au 15.0329 10.5204 16.9447
Pd 14.0777 12.761 15.5606
Au 13.6969 9.72635 19.3376
Au 12.9116 12.0661 20.7973
Au 15.2109 10.51 21.5887
Au 15.2693 12.135 19.2451
Au 12.8946 10.5378 23.1961
Pd 12.1177 12.8397 24.5803
Au 14.4658 11.4982 25.4293
Pd 14.4827 12.8534 23.0059
Pd 13.6705 13.8108 26.7896
Au 12.89 16.1653 28.0835
Au 15.1647 14.8643 28.9972
Au 15.3666 16.1178 26.5603
Au 14.0735 15.8481 32.8307
Au 13.6726 17.3687 35.0694
Au 15.6318 15.9751 36.4472
Au 16.2629 17.489 33.5979
Au 10.4724 21.007 5.45086
Au 14.7712 18.3659 3.26816
Au 11.2301 16.8366 7.92548
Au 9.49176 16.898 11.399
Au 13.7962 17.1034 9.2222
Au 13.2343 18.376 6.74859
Au 10.549 14.7173 12.8077
Au 10.7674 16.2989 15.1199
Pd 13.0724 14.935 14.1234
Pd 12.0108 17.1295 12.6963
Au 11.7927 14.1346 16.5745
Au 10.8903 16.4428 17.9751
Au 14.3064 14.3465 17.8683
Au 13.3079 16.5239 16.4552
Pd 11.9173 14.2523 19.3987
Au 11.043 16.5823 20.7913
Pd 14.4737 14.4513 20.6897
Au 13.4532 16.6592 19.289
Au 12.1183 14.3707 22.2162
Au 11.2164 16.7768 23.5979
Au 13.7507 15.1304 24.3602
Au 13.6336 16.8148 22.1009
Au 11.3133 15.1432 25.8867
Au 10.5438 17.464 27.1613
Au 14.4134 17.2453 30.327
Au 13.0284 17.4612 25.6075
Au 11.8746 17.2496 31.801
Au 11.6135 18.8764 34.0302
Au 13.8688 20.1402 34.9307
Pd 14.1031 18.7406 32.5971
Pd 11.0213 19.6783 7.79722
Au 12.9255 16.7612 4.49372
Au 8.97192 18.1652 8.90635
Au 9.25259 19.721 11.2531
Pd 11.5298 18.4073 10.2368
Pd 13.5643 19.9292 9.05862
Pd 9.71103 18.4461 13.7029
Pd 10.4398 20.8534 14.9011
Au 12.2309 18.6948 15.01
Pd 11.7548 19.9549 12.5653
Au 9.83251 18.6211 16.507
Au 10.5723 21.0482 17.7554
Pd 12.3872 18.8502 17.8646
Au 12.9612 21.0905 16.2411
Au 9.97899 18.7933 19.3527
Au 10.6709 21.2717 20.5942
Au 12.5325 19.0317 20.6974
Pd 13.0866 21.2796 19.1101
Au 10.106 18.9918 22.1974
Au 10.755 21.5231 23.4434
Au 12.6549 19.3004 23.5492
Au 13.1669 21.526 21.9495
Au 10.2177 19.2517 25.0447
Au 9.97597 19.8941 28.2165
Au 12.163 18.5477 29.3107
Au 12.4039 19.8499 26.7195
Pd 9.69801 18.6478 30.7313
Au 11.697 21.7127 33.8462
Au 13.9023 22.7739 35.1325
Pd 11.8781 20.1214 31.5637
Au 12.7942 24.0613 6.60077
Pd 13.0098 21.241 6.65947
Pd 14.0267 25.2344 10.1585
Pd 14.4868 23.9438 12.5886
Au 13.7873 21.4768 11.4236
Pd 13.3209 22.7472 8.99399
Pd 12.4809 22.3771 13.7537
Au 13.1958 24.8211 14.9368
Au 15.0078 22.6596 15.0797
Au 17.0189 24.2642 13.8764
Au 11.1492 23.2623 16.109
Au 11.8455 25.7048 17.3182
Au 13.6708 23.4947 17.4842
Au 15.7425 25.0926 16.3341
Au 11.2684 23.4968 18.998
Pd 11.9644 25.9551 20.1769
Pd 13.7682 23.7268 20.3398
Au 14.3736 25.9042 18.658
Au 11.3472 23.7648 21.8136
Au 11.419 24.091 24.68
Pd 13.1411 21.9019 24.9035
Au 13.7953 24.015 23.2032
Au 10.6784 21.8877 26.2969
Au 10.4134 23.5246 28.5936
Au 12.1869 21.4005 29.0385
Au 12.816 23.5198 27.1939
Au 9.75374 21.5617 30.5143
Au 9.59965 23.2284 32.7872
Au 14.5345 25.4556 35.1108
Au 11.9652 23.0428 31.3179
Au 12.4594 22.5204 4.24436
Pd 13.573 26.5575 7.71073
Au 12.2615 27.4526 10.0155
Pd 14.7268 27.697 11.3298
Pd 16.5244 25.4777 11.4318
Au 15.6912 28.1559 6.49624
Au 15.1519 26.401 13.7567
Au 15.8541 28.9223 14.982
Au 17.6404 26.6968 15.1136
Au 17.2271 27.8955 12.6436
Au 11.6584 30.8801 13.4949
Au 14.6803 29.8046 17.3154
Au 13.9137 27.2916 16.1486
Au 19.9356 31.117 18.5915
Au 12.5227 28.1663 18.4584
Au 12.66 28.4254 21.3467
Au 14.4699 26.1814 21.522
Pd 15.828 32.2636 17.201
Au 12.0889 26.2846 23.0386
Au 11.7131 27.9697 25.2399
Au 13.6094 25.8823 25.4894
Au 14.4232 28.0644 23.6669
Au 11.0653 25.7078 26.9469
Au 10.6094 27.4082 29.1477
Au 12.5542 25.2756 29.6073
Pd 12.9806 27.4768 27.7058
Au 12.4091 26.98 34.4628
Au 12.1682 31.0617 31.8894
Au 12.14 24.5122 33.522
Au 14.9006 30.4585 31.1467
Au 10.3333 23.8155 5.40288
Au 16.6414 22.7794 1.9225
Au 13.9087 30.2477 6.41957
Au 17.9829 32.6211 7.57076
Au 16.3263 32.9982 12.554
Au 13.0892 27.7958 5.30189
Au 12.9449 29.9414 11.1757
Pd 12.8817 32.0198 17.0761
Au 15.3665 30.1849 12.5477
Au 19.1884 35.677 13.6519
Au 13.6767 32.5076 12.4323
Au 15.5373 36.2842 16.0453
Pd 19.2659 35.1996 20.1693
Au 16.5069 35.6691 13.5134
Au 13.0001 32.3638 21.8434
Pd 10.5133 32.2307 23.3585
Au 16.5455 34.9202 20.5886
Au 10.947 36.0621 23.9232
Pd 12.3656 30.1 23.4802
Au 12.5333 33.9172 24.0575
Au 9.90361 30.0865 25.0568
Au 10.189 33.9447 25.5636
Au 12.3512 35.4847 26.2953
Au 14.4122 32.0435 26.9765
Au 13.1719 31.7653 29.3717
Au 14.4722 33.1331 31.1766
Au 18.7882 35.0832 31.1042
Pd 12.5742 29.0942 30.1276
Au 10.8799 28.8416 33.5304
Au 8.81918 29.5681 28.8038
Pd 15.6959 14.1629 5.96948
Pd 18.4215 6.33133 7.66346
Au 20.0417 6.8603 5.4391
Pd 15.824 4.73726 12.3771
Au 12.0322 7.07772 11.1573
Pd 15.9927 3.08116 16.9944
Pd 17.2996 3.79983 14.6564
Pd 16.0953 3.07765 21.5392
Pd 17.4367 2.30914 19.251
Au 17.3572 5.40456 28.4149
Au 17.5083 3.72299 23.8346
Au 15.8289 6.31957 30.629
Pd 18.641 6.23504 30.6708
Au 14.439 7.50625 32.7106
Au 15.8523 8.25122 34.8869
Pd 18.3703 15.9304 0.220962
Au 26.0241 17.9777 1.07862
Pd 14.8556 10.3388 8.56909
Au 16.3496 12.7479 8.41758
Au 17.1133 8.78752 7.53974
Au 17.8917 12.8125 5.0152
Au 18.6395 7.86799 9.8844
Au 16.1232 9.72886 12.2719
Au 17.3575 7.0585 12.2589
Au 17.3935 10.5084 9.83047
Au 16.0419 6.24702 14.6528
Au 16.2879 7.90246 16.9151
Pd 17.5161 5.36013 16.9141
Au 17.6057 8.70445 14.5356
Pd 16.1779 4.67289 19.2566
Au 16.4233 7.9202 21.5544
Au 17.6129 5.34729 21.5504
Au 17.7484 7.01746 19.1876
Pd 16.2723 6.2554 23.8515
Au 16.4218 9.61338 26.1123
Au 17.5975 6.99915 26.1424
Au 17.8666 8.67896 23.8102
Pd 16.098 7.92642 28.387
Au 15.9127 11.1776 30.2854
Au 20.1106 8.64884 30.7853
Au 17.7319 10.3306 28.4011
Au 17.2971 8.68921 30.7629
Au 17.8993 14.332 36.5717
Au 15.1561 10.6381 35.9602
Au 18.4626 9.44057 33.3696
Au 21.5556 18.3327 2.59791
Au 21.5974 12.3536 2.63701
Au 15.5191 12.7135 3.64644
Au 19.0347 12.9925 9.64464
Au 17.6707 15.7047 4.71858
Pd 19.9708 14.1925 4.00853
Au 16.6959 14.4158 10.6552
Au 16.9171 15.9783 13.0078
Au 17.6779 12.1577 12.1025
Au 18.7589 16.0534 9.51698
Au 16.365 11.3449 14.5493
Au 16.6116 12.9303 16.852
Au 17.856 10.3349 16.8202
Au 17.9592 13.7586 14.4275
Au 16.5262 9.57946 19.2165
Au 16.816 12.8388 21.4499
Pd 18.0272 10.3087 21.475
Pd 18.0992 11.9605 19.1015
Pd 16.6997 11.2721 23.8002
Pd 16.0724 13.7555 25.2425
Au 18.1078 12.0174 26.0558
Au 18.361 13.5808 23.6581
Au 15.9688 12.4523 27.7111
Au 16.513 15.7803 31.3593
Au 14.9563 13.5355 31.4427
Au 17.6557 14.7542 27.5252
Au 16.4032 14.7703 34.189
Pd 15.8992 18.608 35.9171
Pd 18.0946 16.7721 35.5355
Au 18.7174 16.5604 32.6651
Au 23.752 19.4928 1.16749
Au 20.1692 14.1182 1.1428
Au 17.2004 21.4354 4.32782
Pd 18.0859 17.2693 7.00792
Pd 17.2288 18.589 4.43079
Pd 19.3155 20.0002 3.30695
Au 16.3835 17.3209 10.5119
Au 14.5433 17.3489 14.02
Au 18.9029 17.6355 11.9006
Au 19.6435 17.6397 4.7597
Au 15.6073 15.145 15.4366
Pd 15.8605 16.7346 17.7828
Au 18.158 15.3545 16.7526
Au 17.1405 17.5704 15.356
Au 16.8558 14.5355 19.1606
Au 16.0522 16.8785 20.6043
Au 18.5127 15.1929 21.3166
Pd 18.4647 16.9239 19.0938
Au 16.1221 15.1536 22.8232
Au 15.487 17.4706 24.1042
Au 17.7758 16.0683 25.0463
Au 17.917 17.5087 22.6418
Pd 16.8111 17.2372 28.8238
Au 16.8127 18.792 31.2143
Pd 18.8152 15.8565 29.9148
Au 19.2633 18.6831 29.6377
Au 18.7174 18.9638 34.1343
Au 16.1495 21.2244 36.1263
Au 18.1903 19.4172 36.7464
Au 20.6809 19.6792 36.1099
Au 12.6382 19.6965 4.35341
Au 16.8248 19.9123 1.99234
Au 15.1975 19.9299 5.58111
Au 16.0797 20.1757 10.3435
Au 18.0283 20.0524 6.69197
Au 14.6503 21.2115 3.12281
Au 14.0311 18.6496 11.5416
Pd 14.2723 20.2096 13.8812
Au 16.5782 18.902 12.8769
Au 18.5989 20.4821 11.6787
Au 14.7877 18.9137 16.3755
Au 15.5064 21.3528 17.6284
Au 17.3682 19.1156 17.7444
Au 16.8107 20.4831 15.2434
Au 14.942 19.072 19.2246
Au 15.587 21.5418 20.4762
Au 17.5964 19.315 20.5851
Au 18.0566 21.6251 18.9994
Au 15.1227 19.3079 22.0719
Au 14.8304 19.8195 25.2478
Au 17.064 18.4665 26.3089
Pd 17.3242 19.8386 23.8109
Au 14.5973 18.5391 27.7986
Pd 14.4185 20.0748 30.1208
Au 18.8306 20.6649 32.017
Au 16.8045 20.0655 28.674
Au 16.3647 20.468 33.5441
Au 16.5309 23.6869 35.3204
Au 20.2887 22.7193 33.0693
Au 17.6255 23.1423 32.9122
Au 15.0212 22.7798 5.43831
Au 14.2123 26.8493 2.99308
Pd 15.6173 21.4432 7.87309
Au 15.849 23.0308 10.2596
Au 18.4063 18.8768 9.28198
Au 17.5977 22.9781 6.6495
Au 16.3085 21.773 12.7182
Au 19.4089 24.6726 15.3536
Au 18.8083 22.1112 14.0802
Au 18.4487 23.3984 11.5686
Au 17.579 22.9839 16.5205
Au 18.7409 24.0496 20.3873
Pd 21.5326 24.3183 20.3216
Au 16.9782 26.2418 20.156
Au 16.2243 23.8035 18.9005
Pd 16.258 23.9959 21.7278
Au 17.9959 21.8096 21.9046
Au 16.4821 27.6157 17.4998
Au 15.5299 21.8542 23.4103
Au 15.3247 23.5799 25.7493
Au 16.9666 21.343 26.1141
Au 17.7394 23.3634 24.1914
Pd 14.5796 21.4176 27.5693
Pd 14.2362 22.987 29.8883
Pd 16.4543 21.754 30.9293
Au 16.6245 23.0877 28.4615
Pd 14.031 21.429 32.4401
Au 17.1991 26.2793 35.8936
Pd 19.1359 24.1902 35.152
Au 14.9683 23.7576 32.904
Pd 12.326 25.3164 4.25358
Pd 17.0797 24.3287 4.15145
Au 15.3166 24.2834 7.84627
Au 16.0412 26.7764 9.00571
Au 15.8582 18.6322 7.99219
Au 19.2266 30.174 9.14899
Au 19.2565 25.9034 12.7758
Au 21.7501 25.7326 17.9542
Au 22.3334 33.0266 9.90727
Au 17.95 24.5285 9.01635
Au 18.3245 25.4707 17.8984
Au 18.5884 29.2266 14.708
Au 18.711 30.2465 21.256
Au 17.7011 30.2135 17.0886
Au 14.966 28.2744 19.8043
Au 13.9809 34.3213 17.8075
Au 16.7708 28.2055 21.9783
Au 15.0027 32.6875 19.8165
Au 15.8836 25.6861 23.8742
Pd 15.6235 27.5307 26.8934
Au 17.619 25.4507 25.9624
Pd 16.5086 30.2081 26.4961
Au 14.7872 25.1538 27.9859
Au 14.6331 27.2145 29.8413
Au 15.997 24.8828 30.7099
Pd 16.8228 28.759 29.3065
Au 14.1673 26.249 32.4271
Au 15.4163 27.9423 34.5942
Pd 16.9093 25.8672 33.3251
Au 16.0869 28.1837 31.9408
Au 16.3274 25.5995 1.81887
Au 19.1244 27.4941 5.29863
Au 16.5547 30.3904 7.98654
Pd 14.1017 31.1446 14.8322
Au 18.7106 24.5345 1.24243
Au 13.335 33.548 9.79345
Au 16.3745 31.1812 5.48523
Pd 19.0064 33.0452 13.288
Pd 20.5474 30.6429 13.5669
Pd 16.8751 29.1916 10.3295
Au 16.1621 34.0365 9.35305
Pd 13.6418 34.8275 20.5517
Pd 19.3729 34.0812 17.6737
Au 22.8821 35.3442 17.4035
Au 17.7217 37.0045 18.9599
Au 12.3404 36.8521 21.6527
Au 14.8341 30.2918 21.8823
Pd 14.9713 34.2356 22.7557
Au 13.8649 29.5451 25.8206
Au 14.4757 31.8031 24.2154
Au 20.8547 29.5304 27.3078
Pd 16.1484 31.7972 29.2761
Pd 14.5353 29.6602 28.3982
Au 16.3206 30.3808 33.4807
Au 20.6465 30.0919 32.004
Pd 20.1504 33.8215 27.4573
Pd 22.9238 31.1853 27.7012
Au 24.2304 31.6137 33.7551
Au 13.4958 28.948 32.8968
Au 18.8317 31.0951 33.8201
Au 14.5984 8.77052 6.31186
Au 22.8952 8.27577 7.51767
Au 25.6798 8.01556 7.3502
Au 18.5838 4.55439 12.2864
Au 19.8199 5.33769 9.89221
Au 18.7498 2.87079 16.9189
Au 20.0649 3.59958 14.5904
Pd 18.8502 2.91409 21.5397
Pd 20.2256 2.19578 19.2588
Au 18.8571 4.44979 26.1621
Au 20.3234 3.55165 23.868
Au 17.1716 6.9836 32.9193
Au 20.1597 5.26422 28.4815
Au 20.041 9.96735 35.5956
Au 18.5841 7.45498 35.2198
Au 22.3917 14.1289 5.19815
Au 25.2001 15.3161 1.81697
Pd 24.3314 9.0052 5.16254
Au 20.0361 8.52896 7.55213
Pd 21.6717 10.7219 7.41255
Au 18.8759 12.0567 2.47347
Pd 21.451 7.65984 9.81806
Pd 18.9014 9.48768 12.1371
Au 20.1398 6.84511 12.1477
Au 18.6585 11.1619 7.36274
Au 18.8194 6.10592 14.558
Pd 19.0875 7.75906 16.8202
Au 20.3025 5.199 16.8387
Au 20.3932 8.52276 14.4137
Au 18.9758 4.51582 19.201
Au 19.232 7.74469 21.491
Au 20.4203 5.17027 21.5227
Au 20.5933 6.85714 19.135
Au 19.0621 6.05462 23.8583
Au 19.2359 9.40133 26.1194
Au 20.4354 6.79667 26.2039
Au 20.6993 8.44071 23.8076
Au 18.9278 7.77435 28.45
Au 18.7438 11.1095 30.8752
Au 22.9153 8.71617 30.8477
Pd 20.5539 10.1308 28.4728
Pd 17.5684 9.57469 36.3696
Au 19.9174 12.5951 36.1885
Au 17.5843 11.8935 37.5511
Au 19.9609 11.8567 33.4234
Au 22.8569 14.2092 0.736623
Au 28.105 19.4185 1.92212
Pd 24.2157 17.5333 3.08835
Au 20.7769 17.7744 8.1466
Au 20.4258 15.7139 6.39936
Au 17.4859 14.3494 2.34836
Au 21.8738 12.4524 9.68631
Au 19.3199 14.6046 11.9809
Au 20.4562 11.8689 12.0332
Au 21.2954 16.544 11.2201
Au 19.1688 11.1152 14.4143
Pd 19.3898 12.7111 16.6917
Au 20.647 10.164 16.7017
Pd 20.7114 13.4645 14.2815
Au 19.3286 9.40864 19.1133
Au 19.6592 12.6218 21.3542
Au 20.8424 10.0648 21.4228
Au 20.8915 11.7771 18.9967
Pd 19.5089 11.0042 23.7283
Au 19.817 14.329 25.8767
Au 20.8738 11.7046 26.0251
Au 21.2251 13.2971 23.6294
Pd 19.4054 12.6209 28.4464
Au 17.4872 12.9531 32.4835
Au 19.9526 13.7287 31.21
Au 20.8473 14.929 28.2871
Au 17.5279 11.8528 34.9133
Au 23.225 16.6834 35.8649
Pd 21.7835 14.3504 35.2523
Pd 19.2427 14.4024 34.1853
Au 18.8306 21.5101 0.970933
Au 23.2461 18.7816 7.18574
Au 19.0835 18.5976 0.964533
Au 22.3758 17.1124 5.07921
Au 22.9946 20.5917 9.25248
Au 29.7553 17.7619 3.40186
Pd 20.8568 19.2034 10.6135
Au 21.059 20.8903 13.0102
Pd 21.4767 18.1736 13.3679
Au 25.5997 18.9098 10.654
Au 19.5546 16.226 14.296
Au 19.7519 17.8119 16.664
Au 20.8974 15.0471 16.5255
Au 21.6813 19.8476 15.6476
Au 19.6968 14.3205 18.9672
Au 20.3203 17.4839 21.1839
Pd 21.3405 14.9223 21.2399
Au 21.3444 16.6085 18.8186
Au 20.1442 15.947 23.5401
Au 19.3046 17.0792 27.3359
Au 21.6495 16.6196 25.8064
Pd 21.9011 18.2361 23.422
Pd 17.3719 13.4881 29.9037
Au 20.5395 18.478 32.0433
Pd 21.2746 15.6177 32.7746
Au 21.3443 16.6041 30.3315
Au 20.7307 17.1405 34.9417
Pd 21.4982 22.3156 35.4783
Au 23.3012 19.4325 35.7017
Au 24.2836 20.3204 33.3566
Au 23.6606 22.0879 1.66621
Au 25.641 19.8479 3.16054
Au 21.7116 21.141 3.36936
Au 19.4973 16.3752 2.53476
Pd 20.996 19.5119 5.7575
Au 26.1267 21.1735 1.01819
Au 18.1417 21.7282 9.13375
Au 20.6695 22.034 10.5252
Pd 25.4119 21.6488 10.2342
Au 23.0937 25.8163 9.36143
Au 19.1326 19.2244 14.2618
Au 19.3243 20.7931 16.6641
Pd 21.7369 21.2638 18.0816
Pd 21.1094 22.5955 15.5377
Au 20.0068 19.3088 19.0452
Au 19.8256 19.8547 22.394
Au 22.1702 19.7111 20.8794
Au 19.9042 26.6065 20.4061
Pd 19.5275 18.3902 24.8373
Au 19.2866 19.9793 27.1084
Pd 21.8872 17.9716 28.1836
Au 21.9034 19.4807 25.9704
Pd 21.4264 20.5677 28.6451
Au 21.6914 21.4025 31.131
Au 24.7472 21.2059 30.8249
Au 21.5122 22.1882 26.4329
Pd 21.4942 20.3135 33.6943
Au 18.7293 21.515 35.0651
Au 23.1229 22.7377 33.2017
Au 24.303 24.805 34.5977
Au 20.9819 16.6156 0.333738
Pd 19.8286 21.8667 5.57036
Au 21.229 20.3764 0.809766
Pd 20.1975 23.3177 7.84911
Au 27.4622 26.9944 6.3934
Au 20.4455 20.5613 8.16452
Pd 22.6589 23.2109 9.12179
Au 20.5439 24.8137 10.2387
Pd 23.1967 22.5785 11.6629
Au 25.3246 24.2289 9.53349
Au 20.1542 23.4362 17.976
Au 23.0393 30.4492 17.5644
Au 24.0675 24.7216 19.1699
Pd 21.919 25.4258 15.2159
Au 22.1615 21.0169 23.7351
Au 18.471 25.6349 22.7821
Au 22.9067 22.4622 21.6215
Pd 23.1776 23.285 17.0885
Au 19.5444 21.3384 24.6892
Au 18.9009 23.0414 26.9985
Au 22.7797 23.6991 24.3725
Au 20.2736 24.5276 25.0835
Au 18.963 21.5068 29.4598
Au 18.6075 24.0293 30.3624
Au 20.8593 23.4498 28.9275
Au 19.8702 25.6592 27.5819
Au 21.651 24.8613 34.2549
Pd 19.4837 25.2877 32.6321
Au 25.9483 22.8337 33.4365
Pd 24.511 23.999 31.1826
Au 22.8111 31.4109 12.1056
Au 26.6456 29.6568 9.52322
Au 14.4555 24.0609 3.05887
Au 23.3024 30.4504 7.49428
Au 19.2697 22.9214 3.23179
Au 20.9728 28.9101 7.13089
Pd 14.7791 25.5648 5.42258
Pd 20.2111 31.8271 11.188
Au 22.6982 27.8507 16.3574
Au 22.079 26.0079 12.16
Au 20.9287 27.7782 14.1191
Au 17.7772 32.6935 19.2228
Au 16.4963 30.3881 19.5783
Au 20.7816 29.8859 16.2377
Au 18.5259 28.5014 19.1148
Au 16.8259 33.234 24.4591
Au 16.8404 30.4064 23.7637
Pd 16.8901 32.366 21.8127
Au 17.226 27.8784 24.7306
Au 18.4865 30.6615 28.2454
Pd 18.4245 28.0436 27.2437
Au 16.7183 33.5892 27.4202
Pd 17.2782 25.9316 28.5468
Au 18.0936 26.7391 30.8846
Au 20.7229 26.2066 30.028
Au 21.1225 31.7132 25.6637
Au 21.831 24.253 31.3637
Au 17.8712 28.8841 35.3227
Pd 23.4644 26.2413 32.3783
Pd 21.0937 27.4199 32.4997
Au 17.336 25.7654 6.6202
Au 25.2266 25.3704 6.88714
Pd 17.9838 30.6734 12.4593
Au 19.5769 24.7094 5.36413
Pd 20.2178 26.0882 7.66407
Pd 15.0491 31.489 10.1563
Au 19.7323 28.838 11.6718
Pd 16.837 31.5191 14.7737
Au 17.8461 29.439 3.84315
Au 14.839 34.9704 11.4681
Au 17.6321 34.1049 15.4074
Au 15.056 36.9076 21.6768
Au 16.4887 36.1407 24.0592
Au 14.9347 36.645 18.8775
Au 13.6772 36.446 23.9852
Pd 11.1634 34.4738 21.7197
Au 18.2974 35.7011 28.4516
Au 21.107 36.1381 26.3971
Au 14.6964 34.4295 25.6219
Au 16.0144 36.1535 27.0936
Au 19.1322 29.781 25.2
Au 18.3601 35.1567 25.8065
Au 20.7613 35.9071 29.2728
Pd 17.994 30.4984 31.0934
Au 20.6916 29.2019 34.6981
Au 21.3993 34.9011 31.652
Au 22.6628 27.2535 34.8021
Pd 18.608 28.4309 32.8793
Au 19.6615 26.7881 34.9086
Au 23.217 35.8291 28.244
Au 26.8364 10.2048 5.86531
Au 21.268 5.94192 7.6422
Au 28.1265 9.0979 8.0682
Au 24.0609 4.23927 12.2798
Au 22.626 5.11908 9.95908
Au 21.5356 2.74078 16.9392
Au 22.9031 3.45065 14.7197
Pd 21.6067 2.73823 21.5966
Au 23.7785 2.45476 20.0618
Au 21.6697 4.28936 26.2049
Au 23.239 3.40992 23.8662
Pd 21.4003 6.22234 30.7319
Pd 22.8807 5.22639 28.5428
Pd 21.2523 9.44102 33.1188
Au 22.6695 7.03544 33.0293
Au 23.5298 16.8804 0.523372
Pd 22.1989 15.5527 2.82043
Au 22.7658 6.65572 5.4366
Au 21.5886 9.0593 5.13573
Au 20.1865 10.2528 9.74228
Pd 23.0697 11.5338 5.18925
Au 24.048 5.76797 7.68197
Au 21.6963 9.31792 12.0485
Au 22.9092 6.75315 12.1159
Au 21.2888 15.0737 8.95834
Au 21.6013 5.88091 14.4093
Au 21.887 7.64992 16.7194
Au 23.1098 5.17495 16.859
Au 23.2025 8.42886 14.3581
Au 21.9287 4.28161 19.1907
Au 22.0913 7.51553 21.4996
Au 23.1888 4.95254 21.5584
Au 23.3904 6.91374 19.111
Au 21.9113 5.85846 23.9074
Au 22.0431 9.15855 26.1177
Pd 23.2187 6.65988 26.2414
Au 23.612 8.21521 23.7944
Pd 21.7507 7.66235 28.5007
Au 21.4599 11.2875 30.8788
Au 25.0203 8.25873 32.6335
Au 23.3798 9.94965 28.4124
Au 19.9412 6.94583 32.9649
Pd 22.2864 13.1178 32.8852
Au 22.2086 11.4846 35.0644
Au 24.1048 11.7996 30.2332
Pd 27.8327 19.2037 4.58823
Au 27.0019 16.8453 3.41624
Au 29.0112 15.0874 3.91806
Au 20.3077 11.5267 4.95916
Au 23.002 10.0961 3.00011
Au 28.9706 16.9559 5.88086
Au 18.7014 9.22863 5.25662
Au 22.1647 14.0803 11.8673
Au 23.3855 11.6202 12.0449
Au 23.8425 15.1222 9.89513
Pd 21.971 10.93 14.3361
Pd 22.1593 12.4939 16.6119
Au 23.4982 10.0112 16.6479
Au 23.5428 13.2474 14.2949
Pd 22.1369 9.30739 19.0483
Au 22.4771 12.3239 21.3321
Au 23.7307 9.73657 21.3975
Au 23.7608 11.5677 18.9681
Au 22.3994 10.7485 23.7155
Au 22.5999 14.0055 26.0385
Pd 23.683 11.4369 26.0714
Au 24.1272 13.0444 23.7259
Au 22.1355 12.4375 28.3408
Au 23.9047 16.3108 31.1987
Pd 22.6114 14.1001 30.4267
Au 23.4801 15.6914 28.2814
Pd 23.7413 15.2886 33.6969
Pd 25.3415 17.8548 34.6209
Au 27.7872 18.1769 33.4464
Au 26.1997 15.9233 32.7845
Au 29.9419 20.6458 3.47439
Pd 30.2782 19.2648 5.68615
Au 25.5799 17.8978 5.67502
Au 25.6383 17.2566 8.34266
Au 29.212 15.4841 11.0885
Pd 26.0172 20.7535 5.72952
Pd 23.1772 17.7818 9.64831
Au 23.2423 19.7102 11.802
Pd 23.9394 16.9521 12.1149
Au 28.277 17.9651 10.3996
Pd 22.3005 15.6856 13.9907
Au 22.467 17.2946 16.1119
Au 23.6425 14.8253 16.504
Au 24.0058 18.8351 14.2913
Pd 22.5029 14.0392 18.9
Au 23.2236 17.1299 21.2364
Pd 24.0416 14.5309 21.1653
Au 24.1774 16.2894 18.7176
Pd 22.9074 15.5063 23.5754
Au 24.55 20.0885 25.0945
Au 24.1774 17.6812 26.494
Au 24.52 17.6531 23.8091
Au 24.0133 20.0488 28.0302
Au 22.9644 19.0009 30.5975
Au 26.9572 19.6187 29.658
Au 26.5575 19.1351 26.8535
Au 22.9075 17.8867 33.3473
Au 24.274 22.0055 35.4973
Au 26.5521 20.3778 34.784
Au 25.4831 18.4736 31.8482
Au 27.5071 21.8388 3.32874
Pd 28.702 21.6453 5.73716
Au 23.5069 19.6564 4.69215
Au 24.6996 22.6024 7.39316
Pd 25.4535 19.9859 8.15627
Pd 21.8161 23.6222 4.28607