1687
Atoms. Timestep: 20923
Au 29.5172 26.7316 21.8812
Au 6.73414 20.6841 15.4982
Au 28.0893 27.5995 17.21
Au 13.3737 28.1263 26.3269
Au 12.297 3.7436 12.658
Au 31.4949 28.6015 22.1432
Au 9.0985 21.7602 5.50356
Pd 13.8136 33.5894 21.4592
Au 18.5237 10.4584 15.6257
Au 11.4816 16.6537 22.3113
Pd 27.6117 22.8261 23.785
Au 10.987 10.1608 7.44441
Au 17.7818 17.0518 15.0776
Pd 7.75359 22.959 30.4414
Au 17.1336 10.503 9.75905
Au 23.8805 21.6892 20.5674
Au 28.1085 7.93189 25.7168
Pd 11.7072 13.9194 10.5234
Pd 28.0977 29.7215 12.0139
Pd 24.1343 11.7184 11.6189
Pd 11.9333 6.62488 26.8289
Pd 6.65332 23.2563 14.0685
Au 15.2463 16.9467 18.9481
Pd 36.4016 19.4583 14.2718
Au 20.783 3.15146 24.2287
Au 28.6058 33.7193 13.2315
Au 7.57309 23.4974 19.3644
Au 27.6311 25.6925 9.79222
Au 9.04951 12.0679 6.77059
Au 32.97 22.84 29.1997
Au 2.25551 15.7815 20.2331
Pd 26.0752 17.8875 14.3713
Au 28.7541 13.2056 24.7175
Au 15.4103 24.8854 5.75081
Au 28.2833 25.8847 14.6001
Au 19.246 7.90766 15.0252
Au 10.1294 27.5763 29.8163
Au 24.2277 7.96215 8.30882
Au 28.415 19.0639 15.4961
Au 27.2461 22.8345 9.05661
Au 25.3867 17.8626 19.228
Au 5.49339 13.4381 17.3374
Au 23.59 27.0464 14.341
Au 16.8187 16.0689 2.72266
Au 10.6911 25.6015 17.154
Au 30.7479 15.0833 24.1962
Au 21.1008 19.1285 24.5369
Au 20.7053 8.87149 19.6288
Au 9.57576 18.5649 23.6466
Au 25.931 21.6802 1.58883
Au 16.0648 29.3873 26.7183
Au 14.4222 3.2287 14.245
Pd 14.5438 21.158 17.4875
Au 5.79493 23.2127 8.60787
Au 26.1793 9.5919 15.4229
Au 7.84836 11.2271 20.7946
Au 7.94765 33.8915 25.4241
Au 6.86255 15.871 20.5706
Au 18.3107 15.6823 34.4457
Au 11.7695 2.71478 15.1161
Au 34.5178 12.8475 12.8759
Au 33.0344 11.3274 11.1737
Au 14.7619 21.0451 2.51995
Au 1.92329 20.941 21.6846
Au 24.7831 19.8334 34.7404
Au 18.3792 25.1772 18.2927
Pd 34.1677 26.9063 15.3858
Au 26.0511 21.0094 10.8434
Pd 13.5267 13.4554 4.36099
Au 21.42 21.3109 19.0432
Pd 32.0415 22.7852 8.07463
Au 7.16577 9.46818 15.5341
Pd 18.8183 3.31405 17.3742
Au 11.5352 23.373 25.0873
Au 14.4513 10.6106 9.12998
Au 20.6432 14.1424 33.882
Au 14.8469 9.07851 23.2824
Au 9.09216 16.1883 16.6519
Au 7.45763 16.4242 6.2132
Au 4.22516 16.9235 21.8626
Au 29.1072 5.15685 23.4076
Au 9.1418 15.6521 23.5966
Au 34.3454 26.039 12.6781
Au 10.0472 18.997 26.4969
Au 12.6507 22.202 32.2683
Au 28.4936 17.4642 9.67577
Au 20.8349 7.16554 26.3774
Au 8.67476 7.19588 14.5787
Au 20.5259 36.7462 21.5899
Pd 10.6542 19.0281 9.19955
Au 15.6662 8.25807 27.6717
Au 15.5996 25.8473 14.3934
Au 26.8212 27.829 7.94577
Au 24.1703 12.7785 35.0878
Au 37.3849 15.4243 16.9515
Au 29.5746 27.38 12.6741
Au 32.7109 20.2941 20.1386
Au 31.9151 25.3393 21.8936
Pd 11.7038 28.1666 17.22
Au 9.33904 3.31977 16.0812
Au 6.18416 9.92791 25.8245
Au 4.10015 20.7641 30.0571
Au 8.43442 11.0814 30.2865
Pd 8.87026 4.58065 21.2752
Au 7.63199 5.14399 17.4033
Au 30.8684 29.9072 28.1563
Au 15.0049 24.9383 18.6211
Au 22.392 20.6766 35.6974
Au 7.56816 4.78875 14.6406
Au 11.4476 15.271 3.63132
Au 13.9483 30.8529 32.9159
Pd 23.0489 6.06406 25.1914
Au 37.34 17.1432 19.3084
Au 10.0716 6.94663 21.8461
Pd 17.5504 18.9564 25.3161
Au 7.65186 18.0415 25.4659
Pd 19.1077 26.7007 15.8673
Au 12.2847 13.5404 35.0634
Pd 27.0524 18.4689 29.0517
Au 20.0971 33.5392 17.1265
Au 14.7029 16.4303 6.24409
Au 16.6847 11.6592 14.0436
Pd 17.189 17.5823 7.30009
Au 30.3651 29.8812 24.5097
Au 17.3873 16.9192 32.1981
Au 26.9747 15.7699 19.9634
Au 10.3135 14.1385 21.4416
Au 20.217 19.1144 36.2581
Au 12.73 6.43848 12.8707
Au 23.1804 25.8105 23.3012
Au 20.3749 1.99542 21.7875
Au 10.1604 31.5677 28.9272
Au 19.32 27.0775 8.91649
Au 36.9665 22.0765 25.7704
Au 36.0282 23.8345 19.1596
Au 14.8302 29.5305 20.0983
Au 27.0988 13.4301 5.55312
Au 27.9245 14.7534 10.2914
Au 7.71253 27.6461 10.9291
Au 22.747 30.4047 12.8191
Pd 24.4479 27.1766 21.1482
Au 20.8038 10.204 5.85278
Au 17.1202 9.99187 30.7603
Pd 24.3573 22.6683 34.8338
Pd 32.5569 12.173 17.2468
Au 21.8099 26.7395 2.34159
Au 32.3445 8.55873 11.7197
Pd 25.5069 32.3875 19.3087
Au 18.1218 18.3754 34.6074
Pd 22.0247 13.9892 28.7472
Au 32.1771 18.3945 27.4309
Pd 33.868 18.7452 24.9635
Au 16.2276 18.6065 1.69001
Au 23.1995 25.983 18.923
Au 22.7553 19.0035 19.877
Pd 34.9922 14.1777 21.7593
Pd 9.25936 26.5305 24.5814
Au 24.0465 16.6224 21.1746
Au 14.4694 14.3377 18.23
Au 27.2788 12.2122 16.4053
Au 7.22607 28.1394 30.1897
Au 28.4857 23.4414 18.8149
Au 6.3481 15.0102 10.4288
Pd 20.2093 8.05795 12.4233
Pd 22.7757 24.3797 14.6288
Pd 23.7811 18.5153 10.1532
Au 3.41903 27.348 20.599
Au 17.2753 14.4444 13.8223
Au 9.49837 27.4049 12.9346
Au 24.6275 35.0625 23.0464
Au 5.96678 19.3811 27.2006
Au 8.24399 15.6169 31.9574
Au 36.597 14.5925 19.5631
Au 2.01006 15.9918 15.4019
Pd 9.56029 30.3225 19.7021
Au 6.20526 21.359 20.9477
Au 21.2608 15.2786 31.1224
Pd 30.305 18.9567 18.977
Au 24.2357 7.49531 19.2942
Au 26.8163 12.7937 34.5318
Au 18.2489 8.10231 29.1998
Au 25.3899 14.6653 33.003
Au 11.2928 17.7613 2.40338
Au 15.2043 23.8904 31.4732
Pd 5.21605 27.3023 24.9509
Au 13.4638 31.0008 22.1858
Au 28.2904 10.3323 28.3099
Au 24.9684 17.4477 33.2893
Au 18.2882 11.5746 5.30997
Au 24.2511 6.48395 29.8697
Au 10.2772 6.67223 24.6362
Au 12.9307 18.3961 26.5919
Au 27.1225 30.0991 18.8396
Pd 10.2467 21.7386 26.7502
Au 34.8758 10.8856 18.1249
Au 22.8283 7.60589 12.3956
Au 8.54452 34.7547 22.8001
Au 15.323 18.0123 11.727
Au 15.8019 17.0946 24.2626
Au 29.0908 22.4213 16.3107
Au 28.7458 20.2051 5.06304
Au 14.4974 16.1617 31.4131
Au 29.0103 24.0212 21.518
Au 25.734 27.6892 18.7417
Au 29.3195 34.5859 23.7868
Au 23.8475 26.647 5.96811
Au 29.5082 14.0598 8.02355
Au 25.6473 10.3587 34.5275
Au 12.5148 14.8996 29.5071
Pd 16.5148 28.7783 6.54716
Pd 7.96509 16.0238 12.8115
Au 27.0241 22.3305 34.8687
Au 22.4853 14.7598 36.0239
Au 33.4815 17.2235 29.6466
Au 23.6289 20.3662 24.9642
Pd 19.2974 30.9332 17.9085
Au 4.21111 16.7129 10.9781
Au 23.8077 34.9372 25.5844
Au 16.201 26.8621 33.8674
Pd 17.5247 10.572 22.9682
Au 28.2405 9.23758 20.8584
Pd 28.5144 24.1174 28.6465
Au 11.8157 20.2772 24.6668
Pd 17.9531 27.7358 31.5535
Au 22.5487 31.3617 8.02328
Pd 8.99771 28.806 17.5512
Au 15.1074 12.7438 27.5258
Au 18.1273 13.6712 9.21165
Pd 25.2924 18.4212 5.95732
Au 13.5338 10.7117 6.48411
Au 29.4124 22.0139 7.36033
Au 16.0347 17.4186 36.7077
Au 22.3775 28.9241 22.2349
Au 13.0999 33.9845 26.0897
Au 14.2512 13.3479 6.90918
Au 11.8693 29.3847 13.0787
Au 23.176 19.4916 29.1991
Au 7.19352 13.5671 30.0799
Au 14.5865 27.6384 28.6982
Au 16.4891 33.9594 21.0277
Pd 20.4969 17.9005 4.80195
Au 27.3374 20.2916 13.2164
Au 20.3848 29.9633 20.193
Au 12.1805 17.6529 4.94509
Au 30.74 32.5736 28.4366
Au 24.7579 10.5432 25.4105
Au 1.39271 28.9266 21.1585
Au 22.807 17.9362 26.587
Au 12.2797 25.0568 4.00114
Au 20.6379 2.07749 19.0258
Au 31.2737 28.5381 8.88809
Pd 12.8681 23.8594 20.7038
Pd 22.9593 15.2359 26.1578
Au 17.1674 24.3772 27.1708
Pd 4.18472 29.7198 25.1847
Au 13.533 23.2575 34.6574
Au 12.6487 13.1814 22.4755
Au 32.8607 16.2929 25.7373
Pd 20.8206 12.6226 15.8736
Au 3.83056 8.48725 19.7149
Au 30.8678 28.2575 17.2866
Au 7.74454 9.76942 28.0717
Au 27.9221 13.0423 28.0797
Pd 23.9829 31.2459 31.0281
Au 5.25618 14.7703 22.9207
Pd 33.1927 19.4947 14.6505
Au 28.1605 10.9046 6.12108
Au 25.2901 23.0077 7.0677
Au 14.9519 11.6926 22.9511
Au 22.0268 3.29641 13.9523
Pd 19.5215 13.5361 20.0938
Pd 30.8177 20.1538 16.36
Au 8.62162 13.4051 25.5056
Pd 19.0024 23.9955 30.244
Au 17.4756 20.8705 2.92199
Pd 8.28428 23.2126 9.95931
Pd 26.3489 8.06475 30.2026
Pd 17.0802 31.0276 24.6778
Au 13.4702 13.629 32.6404
Pd 8.15919 25.7441 18.0826
Au 30.39 9.29429 13.2482
Pd 20.4991 28.5703 31.8154
Au 21.2368 25.9055 4.93539
Au 6.14462 6.91745 15.934
Au 4.6919 14.4309 19.9433
Au 6.15357 19.0166 17.6898
Pd 25.9659 9.76706 12.6879
Au 22.9459 18.9578 7.3427
Au 11.9766 26.1479 8.69233
Au 15.3929 16.6116 34.2005
Au 25.138 21.6546 23.1169
Au 16.5227 7.65867 16.7049
Pd 29.7562 5.59599 17.2385
Au 19.0905 11.1607 25.0405
Au 24.8294 13.7827 7.18786
Au 13.9956 2.80139 16.8899
Au 19.2393 26.8786 3.21611
Pd 22.8304 13.1197 32.7452
Pd 29.1962 14.1691 12.5688
Pd 34.6622 16.4717 20.3896
Pd 34.1987 23.6134 26.7727
Pd 30.9536 32.4513 23.9627
Au 23.7431 5.16869 13.0041
Au 17.9046 31.1969 6.1882
Au 2.8629 13.6391 21.7771
Au 21.0476 26.2674 13.4821
Au 27.7183 10.8125 32.7877
Au 14.5137 27.9852 17.8854
Au 22.5611 33.2576 15.6139
Au 9.83662 17.2836 14.3416
Pd 26.6585 8.14044 9.94107
Au 15.1565 31.0881 15.1711
Au 25.6736 15.8067 5.26541
Au 28.1553 18.3969 20.5086
Au 23.6384 34.5595 13.4673
Au 24.0968 20.5639 18.0144
Au 14.9902 19.9268 28.2066
Au 30.1436 7.80112 15.5462
Pd 20.8742 10.2708 14.1785
Au 17.5581 24.0648 15.8829
Au 30.8805 13.7193 31.7481
Au 27.5287 29.883 25.6073
Au 3.07534 15.279 17.7231
Au 14.7844 24.9044 8.7157
Au 12.138 20.5262 2.16207
Au 31.1029 24.9349 29.5469
Au 3.38198 25.2255 16.1758
Au 30.0118 15.8293 33.3694
Au 22.2853 20.3062 22.3912
Au 15.1132 9.24307 32.49
Au 27.4085 20.2423 22.5451
Pd 26.7642 25.7265 21.4899
Au 8.69282 17.9175 11.0624
Au 5.75173 8.21579 23.6207
Pd 15.5534 34.9348 25.5283
Pd 13.0666 6.01723 18.3899
Au 19.9431 29.0991 29.0505
Au 13.9783 15.3426 36.1258
Au 8.75994 19.755 33.7627
Au 22.3962 16.4953 3.05678
Au 18.179 3.13316 23.2435
Au 18.9203 10.5289 7.80365
Au 17.7497 5.48947 18.622
Au 13.4036 28.2667 22.157
Pd 7.01674 19.775 23.2711
Au 36.1181 23.4958 21.7459
Au 27.6948 18.0717 26.4756
Au 9.03849 14.5454 10.6882
Au 3.8528 27.2649 17.8803
Au 14.8163 22.3463 7.19448
Au 5.82699 22.9581 26.3047
Au 26.7092 17.1813 22.3929
Au 7.87728 25.1701 12.3282
Au 28.8999 30.1526 16.7044
Au 26.1059 34.7127 17.8692
Au 15.2709 31.3009 6.35078
Au 22.4464 10.4661 31.5776
Au 36.5098 18.0806 23.7665
Au 8.38821 17.8875 18.7472
Pd 20.9647 16.4856 24.6234
Au 13.7769 7.47494 16.1306
Pd 15.8365 26.6081 26.5226
Au 7.58459 28.0853 26.0499
Au 2.88379 27.5521 23.2908
Pd 18.9427 21.058 30.0967
Au 18.5239 14.1323 6.46173
Au 18.3904 21.206 10.121
Au 32.7512 18.5326 17.9389
Pd 28.4621 14.7016 17.3315
Au 33.3352 20.0768 29.5134
Au 6.35154 24.2414 32.5268
Au 28.2124 20.4016 17.9983
Pd 20.302 25.3428 32.4077
Au 21.7845 23.8608 20.3858
Au 9.10059 35.0328 20.174
Au 8.22624 19.0656 8.21808
Pd 22.6551 12.5716 13.9072
Pd 25.2754 11.9374 14.3054
Au 13.3497 15.1422 8.7548
Au 15.2891 5.15713 17.1136
Pd 4.25965 25.3704 26.6762
Au 32.0269 29.7801 19.4081
Pd 30.7801 10.2145 10.2918
Au 13.4702 19.811 30.8006
Pd 19.7529 31.7417 28.6729
Pd 31.0045 24.4492 19.3586
Pd 30.8078 10.4957 29.3838
Au 6.72167 27.3227 13.5423
Au 18.558 31.6381 10.6799
Au 10.0623 24.4882 29.3198
Au 23.3869 9.4538 6.34317
Au 11.7623 26.2555 21.5656
Au 15.0944 13.1137 34.9216
Pd 23.6976 28.0084 16.8941
Au 16.143 33.4275 14.054
Pd 5.77859 24.0264 21.3052
Au 21.4754 32.8849 13.0437
Au 28.6806 13.6458 19.9119
Au 22.0606 6.41018 20.6213
Au 25.1276 32.2123 9.28165
Au 23.2555 23.9862 5.48423
Pd 9.96892 32.9793 18.6004
Au 25.2942 34.1796 27.6324
Pd 16.1528 31.3712 22.0979
Pd 16.7222 26.9704 4.39012
Au 17.7255 10.0949 33.4547
Au 9.28394 17.8693 30.5055
Au 6.90142 12.2124 9.94973
Au 21.835 11.104 24.3834
Au 20.309 27.7243 26.1605
Au 21.7201 13.5067 11.647
Au 38.2137 20.2781 23.8368
Au 15.2833 9.94825 15.9693
Au 16.6045 5.81651 28.629
Au 5.70205 32.2039 25.7379
Au 17.5111 4.48496 26.2643
Au 26.3881 10.8624 10.1424
Au 18.3707 28.2747 18.095
Au 33.8071 16.2367 10.7235
Au 24.3935 10.8702 22.6729
Pd 16.6076 6.59643 24.517
Pd 14.4945 11.4577 18.5529
Au 26.6003 9.25918 23.2403
Au 5.38392 12.3497 21.8773
Au 3.51654 11.1561 13.3177
Au 22.3672 3.40919 20.5194
Pd 21.6129 23.0584 34.6335
Au 19.6135 34.4854 28.0024
Pd 18.2616 16.305 25.1438
Au 11.2252 3.43246 20.563
Au 8.59672 27.0319 15.5909
Au 12.7964 17.2945 13.7988
Au 32.8302 24.4625 10.3571
Au 11.3847 17.7692 16.6969
Au 28.9921 6.40141 20.9152
Au 33.6449 26.3876 26.5982
Au 24.9528 32.4565 16.6484
Au 4.11483 18.3808 28.8773
Au 25.8123 28.8805 32.896
Au 24.4972 23.3281 9.63663
Au 28.4015 10.0466 11.6284
Pd 5.87091 18.5315 7.10734
Pd 27.4225 22.6132 5.47278
Au 22.2694 9.73911 26.7046
Au 6.50094 19.1993 29.9191
Au 30.7252 21.6729 18.7233
Pd 10.8816 30.5614 26.5022
Pd 18.0961 27.5262 27.6173
Pd 23.5662 17.7188 23.966
Pd 24.539 15.715 14.7919
Au 8.59539 10.3466 11.256
Pd 21.8988 19.4146 16.9651
Au 19.8081 21.7629 36.2573
Au 22.9868 2.09152 22.8472
Pd 6.14135 21.7063 28.6693
Au 20.6136 24.5737 23.5252
Au 13.1225 18.481 33.2738
Au 19.9332 24.9525 1.26334
Au 10.9738 21.8752 29.6103
Pd 35.1784 18.916 19.2354
Au 35.5623 23.8516 24.4076
Au 31.9944 31.5459 26.2542
Au 15.0027 13.5483 12.538
Au 10.6105 25.6627 31.7466
Au 19.7747 26.5805 30.0178
Au 24.402 25.2428 30.2959
Au 9.25911 15.2162 19.1946
Au 28.1989 5.65109 12.1352
Pd 19.8757 30.5301 12.8643
Au 19.1309 20.0726 0.966484
Au 29.5081 14.8234 26.8441
Pd 17.9973 7.16405 26.6551
Au 22.7351 17.8699 14.5694
Pd 19.6389 14.3492 36.3497
Pd 29.2997 31.5899 26.431
Pd 21.5584 20.2545 9.37068
Au 27.667 32.4828 17.2898
Pd 6.9961 25.4177 26.0392
Pd 15.9595 24.3918 24.7451
Au 29.0095 26.8041 29.0009
Au 17.5563 28.2454 24.6993
Au 21.495 27.384 7.23401
Au 24.8268 30.3696 28.5856
Au 12.1457 31.849 19.8984
Au 33.0506 17.029 15.7074
Au 20.9065 29.8872 24.532
Au 10.2745 5.76546 16.4946
Pd 19.8701 16.4771 7.12378
Pd 17.4089 5.41292 22.0763
Au 19.0362 7.82545 17.7863
Au 33.3649 14.0571 24.075
Au 34.8054 18.4548 27.7008
Pd 17.2636 21.3791 21.2437
Au 18.4889 30.5864 30.9992
Au 26.0005 18.9707 16.8612
Au 32.0777 13.2098 7.07296
Au 13.3143 18.7763 18.2364
Au 36.8764 22.2409 13.8004
Au 34.0873 13.5922 19.1803
Au 14.0035 16.633 16.4679
Au 19.7428 18.6215 10.7954
Au 14.7632 6.05575 22.7082
Au 28.2975 33.6658 28.1566
Pd 14.6819 29.431 12.915
Au 18.7194 19.3654 16.1374
Pd 11.0563 16.8298 28.1152
Pd 22.7349 17.4645 31.1652
Au 18.0732 6.32309 13.0817
Au 26.3908 12.3426 23.7589
Au 25.325 29.1463 13.6103
Au 18.4055 13.797 24.3285
Au 26.7046 21.2646 15.6571
Au 21.1168 28.5816 4.28852
Au 31.9274 22.4792 24.8325
Au 21.511 17.549 21.9568
Au 22.5741 33.1914 24.0068
Au 2.61763 10.1926 15.5777
Au 28.7608 12.2001 30.6165
Au 16.4323 27.4228 12.0846
Pd 14.6322 24.9448 28.8074
Au 6.01776 31.5354 20.8995
Au 11.4674 27.1461 33.7273
Au 29.5604 25.9946 31.6323
Au 33.3538 21.8084 10.3952
Au 5.33761 16.7309 27.1677
Au 16.548 21.6404 24.1919
Au 25.6304 5.0395 25.5704
Pd 16.6882 31.7722 8.64964
Au 4.47746 17.1793 19.1596
Au 38.0272 21.5187 21.1715
Au 14.9317 13.2418 20.6768
Au 26.2965 17.6409 35.658
Au 31.2788 22.472 21.3372
Au 22.0846 14.6029 20.4187
Au 21.7445 5.23004 11.1788
Au 27.9853 15.9475 24.7419
Au 22.7144 24.9581 8.0839
Au 33.7162 15.3733 13.7608
Au 22.4321 31.6916 28.81
Pd 17.0125 12.5212 29.5885
Au 9.63965 28.2254 9.17407
Au 22.3832 7.78096 31.2823
Au 27.9364 28.6588 14.5151
Au 16.2507 14.3816 32.8482
Pd 21.9604 7.85114 15.0186
Au 17.5736 22.4286 31.9989
Au 32.6809 11.0901 19.7629
Pd 22.6084 29.1066 29.7674
Au 23.407 24.139 12.0441
Au 16.266 20.5153 30.455
Pd 15.4645 8.02844 9.45237
Au 26.3522 13.7165 30.237
Au 15.36 16.3358 13.8349
Au 36.4602 26.313 20.3527
Au 20.9415 9.64227 16.848
Au 8.60586 20.4197 28.4875
Au 17.0289 20.672 7.77039
Au 14.0145 27.1254 4.62511
Au 15.9061 14.9143 25.883
Pd 17.0502 12.6593 18.8348
Au 37.1493 18.9735 21.3463
Au 27.429 17.7796 4.16833
Pd 5.76835 27.276 27.9356
Pd 19.8481 9.42618 31.462
Au 6.28141 9.50992 10.09
Pd 13.4882 18.2666 20.8713
Au 11.79 15.085 18.0372
Pd 18.9065 27.7804 20.9258
Pd 11.8234 10.0967 12.9919
Pd 26.9409 19.128 31.7234
Pd 25.1507 34.7813 20.4139
Au 23.0835 11.17 16.1152
Au 34.3155 23.844 17.0097
Au 3.19467 24.7716 21.9223
Pd 15.3874 16.597 21.6578
Au 11.2233 24.3498 34.0232
Au 10.9344 4.61969 23.0206
Pd 13.5222 11.1785 33.8738
Au 13.1622 15.5703 26.5773
Pd 25.9431 3.64948 18.8147
Au 31.1706 14.5619 16.8176
Au 33.1545 14.5006 30.2302
Au 27.8301 17.9478 6.82386
Au 9.06529 3.45553 18.8414
Au 27.7169 10.9854 18.8485
Au 14.2266 8.80318 18.4103
Au 13.8434 11.6322 14.171
Au 3.59153 15.8513 24.8984
Au 17.9247 7.87024 8.40141
Pd 26.2522 20.3297 19.9452
Au 15.1146 21.4022 32.9949
Pd 17.352 23.5514 7.62365
Au 21.8139 25.9428 10.4771
Au 32.1294 13.7117 26.5338
Au 28.6569 22.0825 11.4107
Pd 31.2392 22.8991 11.9291
Au 8.97393 10.6149 25.815
Au 11.2286 14.2873 24.663
Au 6.0114 29.8919 27.1952
Pd 7.7238 6.24668 23.0153
Au 29.4101 28.8043 19.638
Au 19.7544 21.999 7.93107
Au 16.615 22.905 29.3149
Au 31.0403 18.7439 29.9856
Au 33.8098 28.0466 18.1442
Au 31.0411 9.80051 18.0142
Au 33.145 21.1299 17.3271
Au 35.1613 16.6042 17.6954
Au 2.41169 23.8491 14.0836
Au 14.913 19.8265 25.3505
Au 23.5781 32.7918 11.3414
Au 11.0435 19.8744 32.1794
Pd 30.2788 17.2603 25.8162
Au 12.3656 31.2213 15.019
Au 21.9487 7.64221 9.7929
Au 27.6005 21.4263 27.9251
Au 23.5349 2.15682 18.3741
Au 4.74412 8.87925 14.4618
Au 29.4792 13.3067 15.0541
Au 16.3431 28.4713 14.9358
Au 5.14583 11.5106 19.2594
Au 24.2227 20.8873 5.81666
Au 27.045 15.4333 7.74821
Pd 12.6929 15.9283 33.6458
Pd 22.9705 16.8044 5.62798
Pd 21.4924 23.1466 27.0438
Pd 3.21095 18.4153 26.2445
Au 33.7635 12.5647 28.5032
Au 26.1911 16.501 30.9238
Au 35.1167 21.2324 27.8284
Au 19.7523 25.1913 27.6583
Au 7.55294 11.4241 17.6837
Au 11.1376 10.1771 10.1711
Au 17.7952 23.3134 11.7744
Pd 34.5859 25.6405 22.3177
Pd 28.6931 28.2129 9.99091
Au 31.2406 5.87757 19.5395
Au 14.7937 20.1797 9.75413
Au 27.1741 6.00609 18.7918
Au 23.2591 36.638 21.1347
Pd 10.4172 14.3153 7.97974
Pd 5.15412 29.1294 19.6691
Pd 30.4001 19.4384 21.7342
Au 16.8094 7.97625 19.5199
Au 16.6766 9.26733 25.2747
Au 36.1606 14.0771 14.7582
Au 31.4419 26.9999 27.8531
Au 26.6433 33.9079 15.059
Pd 13.3709 6.24533 10.1535
Au 35.0767 19.1689 16.5284
Au 2.42292 18.005 23.5779
Au 11.3541 8.04699 17.604
Au 17.1184 31.436 28.4806
Au 23.2584 15.2996 10.0828
Pd 14.1881 14.293 15.1129
Au 21.1659 4.5038 26.5396
Au 31.3149 21.1582 31.1256
Au 1.25202 27.3364 18.9673
Au 8.50294 22.968 21.7699
Pd 19.3311 21.9373 16.8703
Au 6.63919 4.51717 19.8973
Pd 2.88539 10.523 18.1978
Au 10.9341 16.4171 9.59238
Au 8.03922 12.0273 14.948
Au 22.634 4.72758 22.9006
Au 18.7386 29.5004 15.612
Au 11.282 19.3324 29.0445
Au 6.31527 25.4854 15.8953
Au 34.0157 14.4325 16.425
Au 23.2943 1.64186 15.6501
Au 27.5022 34.1476 25.6594
Au 2.33649 20.5549 24.4212
Au 5.68898 6.3867 13.3393
Au 13.7373 3.49469 19.6014
Pd 11.3314 17.0115 25.0178
Au 26.0333 33.7234 12.3279
Au 27.5288 3.3086 13.7673
Au 19.1883 6.9967 20.7251
Au 30.4967 26.2876 10.3178
Au 21.8982 27.1151 33.7391
Au 2.54794 22.8392 17.4464
Au 23.1901 29.0697 32.3989
Au 8.14177 20.8918 18.452
Au 19.1843 26.2392 11.4187
Au 17.8694 13.4712 27.1194
Au 21.0873 6.99357 23.1863
Au 21.6598 16.6624 28.689
Au 13.5695 28.6155 15.2992
Pd 7.31233 23.1058 16.7073
Au 30.0903 22.5765 4.67436
Pd 6.69865 26.9103 32.6447
Au 13.7956 22.8739 4.62735
Au 24.8898 3.55722 16.3504
Au 20.0822 4.67779 21.9126
Au 3.68847 22.5702 20.0497
Au 17.1688 8.0871 22.2229
Au 19.9677 24.9298 7.30451
Au 15.3292 21.7173 35.9657
Au 34.0699 23.3478 12.6307
Pd 25.1973 19.4074 27.1955
Au 15.8726 31.5287 31.0065
Au 12.7724 5.10607 15.4406
Au 5.50116 9.66283 21.3492
Au 24.6387 25.918 25.6916
Au 26.4605 24.3175 2.4431
Au 10.5075 27.8939 26.7208
Au 27.9607 24.6681 7.15024
Au 20.188 17.3399 32.6693
Au 25.4922 24.9483 13.9433
Pd 31.4766 18.1341 9.64865
Au 31.2743 5.96136 22.2887
Au 12.7055 11.9711 28.4034
Pd 13.9283 22.1642 29.575
Au 14.0306 7.75357 25.5082
Au 2.38637 25.3425 24.5776
Au 22.1496 35.9559 23.5513
Au 13.7973 18.4946 2.8103
Au 23.5254 17.4476 35.8014
Au 29.0411 5.33229 14.6525
Pd 28.7249 9.34113 30.7396
Pd 21.8174 26.8723 28.2944
Pd 20.7086 23.0794 5.47504
Au 19.0722 27.5886 6.04399
Pd 15.6996 7.69089 30.344
Au 32.6379 20.4612 22.9846
Pd 19.3394 14.1661 29.2946
Au 20.354 12.3361 27.1161
Pd 1.82144 22.0478 12.0356
Pd 7.21916 13.4681 19.4939
Au 25.686 31.0039 11.6466
Au 23.8029 32.1021 26.4636
Au 27.2545 30.5197 9.18986
Au 19.2518 11.021 29.3185
Au 38.3414 22.4706 18.6073
Au 18.8329 35.1358 20.16
Au 16.4673 30.2509 17.4907
Au 18.4057 3.2672 20.2907
Au 22.946 31.4994 20.1676
Au 17.4525 25.1334 2.22214
Au 12.1897 28.7283 8.21902
Au 21.238 19.798 31.4094
Au 32.3971 28.8364 26.0803
Au 4.77683 29.78 16.8922
Au 14.7976 25.1849 2.94746
Au 23.9604 36.3358 18.495
Au 31.0758 26.7616 15.002
Pd 22.4593 21.9143 13.5903
Au 12.72 27.078 30.8986
Pd 29.8292 21.5091 23.352
Au 4.62525 31.7376 18.6672
Au 30.5573 6.8694 25.1018
Au 13.4719 29.3801 5.93826
Pd 32.9427 24.6549 14.7596
Au 30.359 9.7236 24.945
Au 12.5279 10.0095 15.9417
Pd 11.7137 33.4606 13.4807
Au 29.1953 14.8808 29.782
Au 15.6179 12.5355 16.4266
Au 24.8149 17.7207 3.3369
Au 16.5661 20.8466 0.358633
Pd 30.8907 27.0053 24.512
Au 33.3628 10.5286 24.3868
Au 23.821 22.4998 30.5785
Au 18.1247 16.443 5.00965
Pd 26.0001 27.1826 15.6108
Pd 14.4302 8.00154 20.9013
Pd 31.0672 8.44299 20.5644
Au 25.0831 27.9491 30.4546
Pd 28.8207 21.3187 20.5798
Pd 21.8483 10.2396 8.56657
Au 23.7491 33.7093 29.878
Au 14.2056 20.73 22.1903
Au 16.9037 35.4773 18.2059
Au 11.8766 26.7237 24.3971
Pd 26.437 23.8499 11.5491
Au 29.8014 13.0558 5.56721
Au 33.8995 28.0344 20.9295
Au 28.9185 4.13431 19.2958
Pd 21.1601 13.6479 24.798
Pd 30.0622 16.6226 7.7173
Au 11.2899 17.2083 19.571
Au 18.1939 13.1363 16.195
Pd 30.5349 15.6025 10.342
Pd 23.6858 23.3014 25.3824
Au 23.4013 3.37512 25.2175
Au 19.3781 3.51444 14.6378
Au 2.63898 25.0597 19.1416
Au 8.21041 31.3837 26.4708
Au 15.4965 10.2357 11.9187
Au 3.33081 30.8904 20.9555
Au 15.683 17.5932 26.9407
Au 3.11362 22.9118 25.5927
Au 13.5789 19.8204 12.7887
Au 12.1061 20.7918 10.6104
Pd 10.5412 19.6201 18.8322
Pd 21.5014 21.7441 29.3774
Au 34.106 13.6735 10.2761
Au 33.6131 22.9735 22.5263
Au 22.9221 21.4236 32.969
Au 26.0752 6.3589 27.8516
Au 11.8388 22.2185 22.5304
Au 2.13006 18.1118 18.0671
Au 1.69754 20.7894 18.9865
Au 9.35092 9.87598 13.8977
Pd 10.5349 34.6562 24.5049
Au 18.9231 23.0712 25.3913
Pd 18.5079 18.358 2.98694
Au 13.3969 17.9646 35.9357
Pd 23.3655 21.2846 11.1432
Pd 12.2234 23.616 27.8497
Au 19.6726 16.3453 20.2297
Au 20.6833 34.6217 25.4293
Au 32.3432 8.09776 23.3674
Pd 13.3733 10.6161 20.9833
Au 16.9027 24.3094 20.4583
Au 24.5508 13.5154 16.4378
Au 2.66268 29.6076 18.7087
Au 27.0927 28.8146 28.3475
Au 32.9313 29.2476 15.8093
Au 16.836 22.717 18.0738
Au 21.9866 31.431 17.6635
Au 18.3522 29.66 8.33061
Au 29.9827 11.2478 20.2903
Au 21.0765 32.0803 26.3445
Au 13.2113 8.74314 11.0164
Au 35.2818 12.0077 23.3402
Au 23.5437 30.0759 10.1709
Pd 13.6685 15.704 11.4973
Pd 21.2936 16.4702 11.4508
Au 19.7479 15.0099 14.8772
Au 20.2948 5.62399 16.3346
Au 21.0377 29.3471 9.04176
Au 9.31128 9.37882 19.3681
Au 31.6112 23.3297 16.8025
Pd 5.28303 26.5072 22.3102
Au 26.3488 10.7495 30.2633
Au 9.60297 12.2342 9.38935
Au 20.1951 24.1443 15.228
Au 24.4739 11.0061 8.35743
Au 11.8026 34.758 19.7423
Au 20.5351 25.3916 35.2317
Au 18.4808 13.9531 3.70378
Au 29.7518 19.7817 27.5559
Pd 14.5076 30.5439 28.5741
Au 33.0053 10.4748 13.6806
Pd 26.1334 22.3416 18.1841
Au 36.4189 19.5439 25.9265
Au 17.8284 19.1529 28.2128
Au 20.7667 15.1854 4.90782
Au 6.72388 20.9082 9.78874
Pd 23.9989 13.1692 24.5268
Au 32.556 7.87724 14.4117
Au 34.3328 21.3705 25.258
Au 15.7332 4.01069 24.165
Pd 7.26308 14.6682 15.2651
Au 21.9272 35.7321 16.6918
Au 33.4885 27.7131 23.8003
Au 27.8512 28.0823 31.0657
Au 15.974 18.1192 4.45087
Au 14.1808 27.2893 10.1883
Pd 16.0542 30.1676 10.7625
Pd 23.5579 24.7189 27.8291
Au 24.1088 12.2391 20.011
Au 24.2646 27.6749 27.8043
Au 16.0521 9.53371 7.09316
Au 12.9851 5.31048 24.6357
Au 19.903 6.69412 30.7644
Au 18.2739 21.9831 5.57527
Pd 15.9744 10.4234 20.6186
Au 28.4987 31.0501 29.0215
Pd 28.0295 22.1479 3.02226
Au 16.1045 14.3879 4.99497
Au 6.37043 9.05037 18.6168
Au 24.6171 5.13161 20.6701
Au 18.374 24.8874 5.06873
Au 26.8028 20.558 7.02623
Au 35.8059 15.2254 12.2444
Au 31.4865 20.7197 5.97406
Pd 29.4424 17.2323 28.3761
Au 4.58015 22.706 15.6952
Au 20.2248 20.5771 33.8589
Au 17.803 15.7457 22.3524
Au 2.34818 30.1215 23.3189
Pd 18.736 28.0002 13.4486
Pd 29.662 25.309 16.9713
Au 6.65897 15.4262 25.1214
Pd 11.5055 27.6156 11.0334
Au 35.7055 26.1036 17.4996
Au 10.4322 5.84025 19.258
Pd 26.1763 5.36311 14.4679
Au 15.4015 5.58693 19.9949
Au 7.40195 10.7182 23.4645
Au 14.7809 22.9522 26.9843
Au 30.2989 24.0086 14.3849
Au 26.0008 24.8921 34.921
Au 26.3256 9.34992 7.39131
Pd 11.3178 7.82727 14.7786
Au 13.4357 3.60899 22.4526
Au 26.3778 7.29803 21.0583
Au 18.4372 22.7122 0.732802
Pd 11.0287 14.0681 27.4105
Au 29.1085 16.8705 12.4156
Au 4.77649 25.1797 13.6919
Au 6.09274 12.6701 24.802
Pd 12.8977 24.6134 6.66388
Pd 8.09746 8.24043 24.8103
Au 16.4428 23.2022 3.86069
Au 17.8878 32.0602 15.748
Au 16.4203 12.0878 25.1608
Au 12.6852 26.2542 19.0633
Pd 31.0875 29.1831 11.5313
Au 8.74693 23.5066 25.0772
Pd 27.2562 22.5985 30.7743
Au 5.3507 12.7241 14.527
Pd 28.7825 17.2334 30.9386
Au 27.0058 24.3643 16.4191
Au 25.411 15.419 23.9051
Au 31.9377 17.2968 12.2146
Pd 24.716 32.4576 22.0096
Au 8.66376 25.1208 33.4947
Au 29.9788 16.073 19.3164
Au 8.52369 7.79891 17.2662
Au 11.6101 23.5149 15.5085
Pd 23.8928 21.8662 27.7718
Au 18.5933 10.4903 20.377
Pd 20.0808 18.7151 18.7148
Au 9.0124 24.4744 15.0124
Au 13.4932 15.6143 23.7597
Pd 7.75794 13.6045 22.434
Au 11.6572 29.3596 31.9399
Pd 15.3774 26.7379 31.3074
Au 21.4382 35.6392 19.3466
Au 3.55046 17.1931 13.5609
Au 27.3895 31.4233 14.0354
Au 20.1379 27.3759 23.4029
Pd 18.1388 25.2824 13.6163
Au 31.4989 12.9869 9.69604
Au 24.6643 7.49379 14.5181
Au 32.1244 17.6557 20.6391
Pd 12.3411 12.2631 8.54747
Au 27.0436 34.0618 22.422
Au 22.3507 18.6884 33.7593
Au 7.38348 27.808 23.1254
Au 29.6044 31.5228 19.2958
Au 17.891 20.258 18.6458
Au 25.4509 24.3909 23.537
Au 29.4553 7.78234 10.8592
Au 6.18832 10.7962 12.7499
Au 26.963 27.2314 25.977
Pd 14.9497 33.1648 29.137
Au 27.8686 15.1352 35.0045
Pd 19.1283 22.5482 28.0272
Au 26.5537 31.8713 27.0376
Au 29.3597 12.8875 33.7576
Au 20.4627 21.258 11.8105
Au 24.4249 35.2526 15.936
Au 10.0465 16.9616 6.89677
Au 9.4867 7.91699 27.0875
Pd 21.7178 26.2845 16.3166
Pd 30.7752 21.0692 9.80771
Au 6.92351 21.1766 7.03674
Au 11.6621 26.9604 6.06674
Au 11.5493 31.7573 11.555
Au 13.6871 33.6276 15.1456
Au 29.3536 22.7684 26.1308
Au 15.639 33.2715 16.9711
Au 25.8501 7.05242 12.188
Au 6.57596 34.2227 21.0096
Au 10.284 25.1541 26.6534
Pd 21.7756 23.0547 9.97683
Au 3.03319 13.9802 13.6567
Au 25.7213 28.5439 5.538
Pd 14.8083 29.6819 8.44725
Au 34.9058 21.7544 15.2938
Pd 28.9944 24.7515 12.0448
Au 37.0762 23.508 16.459
Au 33.3092 7.06491 21.0398
Au 31.359 15.3956 5.77195
Au 28.5173 24.7592 4.2069
Au 17.5464 23.0291 36.4137
Pd 7.22326 14.7815 27.7085
Pd 12.9793 9.12256 27.9227
Au 15.7631 23.2452 1.20414
Au 6.569 16.3969 29.9307
Pd 21.6685 24.4067 29.7982
Au 25.8197 23.4063 28.648
Pd 24.5001 14.1768 12.5347
Pd 16.9189 21.3903 26.887
Au 34.6846 11.8143 15.4667
Pd 8.11355 19.0743 5.5511
Au 8.86031 22.6453 12.716
Au 4.88123 23.3 30.6425
Au 10.4378 22.013 20.1338
Au 16.0316 19.0458 14.2208
Au 26.9034 12.6919 12.2096
Au 8.06291 23.7059 7.20048
Au 7.15887 29.4153 15.4298
Pd 22.2061 12.9731 18.1745
Au 9.61058 14.2332 13.9348
Au 21.686 26.5253 21.2409
Au 33.8678 19.1112 10.6258
Au 18.878 14.6612 31.9751
Au 22.0068 22.0781 16.3052
Au 32.2747 13.0756 14.5888
Au 16.4912 26.4995 16.8455
Pd 26.7253 18.3349 11.5373
Au 11.8753 17.2811 31.0854
Au 12.6386 17.6541 7.70558
Au 19.3209 4.23738 11.9365
Pd 14.9693 22.4046 19.8892
Au 35.9831 27.9144 22.5972
Au 23.7996 17.4129 16.9628
Au 32.8288 20.1247 8.25323
Au 23.8049 4.76799 27.5631
Au 21.8951 16.6673 18.6957
Au 19.7581 19.8115 21.0654
Au 24.3905 16.5561 7.85942
Au 1.05522 26.1679 21.4357
Au 34.7079 20.7587 12.6614
Pd 25.5207 32.7722 24.5244
Au 32.2862 15.16 21.6435
Au 14.9885 5.47963 26.5246
Au 24.8228 9.20724 32.1748
Pd 27.0754 15.7878 28.2136
Pd 22.8748 23.0955 22.8073
Pd 29.943 11.7938 26.7674
Au 28.8193 20.3516 30.2244
Au 18.9508 20.6716 23.577
Pd 15.549 18.7472 32.2786
Au 18.7915 29.8916 22.708
Au 32.6508 15.8747 18.6037
Au 26.0217 24.9914 18.9221
Pd 13.598 25.4273 33.0257
Au 23.5318 7.49924 27.4683
Au 10.0759 17.2345 33.2401
Au 9.76732 12.3817 19.1133
Au 10.9716 14.775 31.7626
Au 9.93819 12.1415 23.4883
Au 33.5289 8.68155 19.0316
Au 10.3318 33.1872 26.6548
Au 22.4843 22.2099 7.50244
Au 26.349 26.0442 28.3127
Au 25.3165 16.7007 26.2571
Au 33.2349 9.57358 16.3621
Au 12.6043 12.7117 16.8296
Au 31.6175 24.2622 26.9844
Au 9.2135 20.6534 10.949
Pd 31.387 13.577 19.56
Au 4.37071 10.6089 23.7333
Pd 23.5597 23.3058 18.3664
Au 14.0135 32.0519 12.721
Au 23.8781 15.0092 30.7267
Au 24.8499 2.86234 13.7983
Au 6.90602 17.5457 15.2325
Pd 14.8701 29.6152 24.1618
Au 18.7833 22.1427 14.0753
Au 14.8961 10.4317 29.3579
Pd 5.05812 10.841 16.5224
Au 32.7641 28.1412 13.3247
Au 18.4682 19.6361 13.09
Au 30.1038 17.8928 5.13422
Au 19.1528 14.7942 11.7634
Au 29.4701 28.3325 26.5843
Au 26.1519 20.1737 3.88617
Au 22.6658 12.7484 9.24851
Au 21.1505 21.8082 1.51378
Au 29.8233 21.1917 13.844
Pd 6.65389 22.4096 23.6563
Pd 9.5587 21.4531 8.26904
Au 9.36625 21.6825 15.254
Au 20.8112 20.0995 14.5867
Pd 15.9451 22.6592 9.80276
Au 17.5654 19.9347 36.7815
Au 12.7589 21.0439 27.203
Au 18.0952 33.3058 30.0861
Au 32.8986 30.3997 23.8217
Au 25.9969 18.9217 24.5202
Pd 8.27626 25.8389 21.0054
Au 19.8515 12.1923 22.5864
Au 30.4841 17.2546 16.7069
Au 23.393 14.2641 4.72776
Pd 27.6775 14.4171 22.4048
Au 8.49806 9.95021 8.50577
Pd 6.50203 27.7754 17.5037
Pd 11.1822 22.4175 3.83239
Au 19.7497 16.114 2.59229
Au 12.4122 7.74886 23.1609
Au 26.9155 6.4131 23.5572
Pd 10.245 24.4048 5.61661
Au 26.0102 9.05654 27.6143
Au 13.1708 11.7654 11.3244
Au 38.1238 25.2334 18.3242
Pd 19.535 32.2047 24.1453
Pd 13.7244 19.1903 15.6077
Au 4.50784 8.72916 11.8847
Pd 12.9602 34.953 23.5913
Au 29.6822 32.3387 15.267
Pd 23.3107 30.2974 15.5273
Au 17.5583 21.13 34.3871
Au 24.5949 22.8057 15.8613
Au 22.9807 10.0446 18.794
Pd 9.36277 29.4043 24.5174
Au 22.8788 8.99133 21.4297
Pd 10.3442 24.6279 19.8098
Au 5.42472 15.2356 12.9758
Pd 12.9382 18.12 10.4637
Au 16.0973 23.8448 34.1564
Au 4.90144 24.5652 24.1954
Au 1.93906 18.7116 15.3244
Au 9.8627 22.9894 17.64
Au 28.3397 16.333 15.0583
Au 20.1722 34.2864 22.5911
Au 27.8657 25.5997 23.9529
Au 13.883 22.2504 24.5624
Au 24.502 17.1398 28.8664
Au 15.0902 32.1366 19.46
Au 13.5226 36.2947 21.238
Au 10.3319 7.91368 12.1261
Pd 2.28105 21.3359 14.8143
Au 22.1305 15.2642 13.6865
Au 8.6021 31.5525 16.4212
Pd 8.5959 19.5208 13.5573
Pd 18.397 12.1021 31.8457
Au 4.62197 15.2356 15.5004