1687
Atoms. Timestep: 21341
Au 17.5997 20.7802 2.63163
Au 25.8498 33.8188 8.54337
Au 6.55259 13.1317 28.2397
Au 30.9931 17.1216 24.932
Au 21.6427 16.8238 26.0783
Au 6.218 11.9822 25.0261
Au 5.13789 17.5565 30.6176
Pd 25.5373 12.1522 21.4225
Au 20.5776 19.0725 23.8894
Au 28.2701 18.4435 26.3278
Pd 24.409 20.4898 20.4856
Au 12.6046 31.6078 19.0123
Au 34.9699 20.3755 25.8967
Pd 20.5948 35.0635 21.6433
Au 13.0625 7.70937 15.7606
Au 4.69689 18.2973 20.4648
Au 24.6722 6.98646 31.5016
Pd 24.4909 7.80598 23.0146
Pd 4.88573 15.518 16.619
Pd 7.27488 25.9934 11.7059
Pd 7.06879 12.5127 22.3141
Pd 18.0128 29.0462 10.4924
Au 11.9243 14.4464 4.40581
Pd 14.6335 31.211 15.4917
Au 17.8284 33.5778 10.0127
Au 22.5928 26.464 16.7922
Au 6.65231 23.438 11.5387
Au 16.4755 16.3749 4.56698
Au 5.07172 8.11041 18.0102
Au 11.1563 34.6222 23.5623
Au 1.63942 12.1886 18.7969
Pd 24.3905 25.3809 5.85513
Au 28.1885 6.19251 28.647
Au 15.0118 10.2982 23.327
Au 7.70459 21.6106 7.13759
Au 18.9622 11.5482 9.8192
Au 13.1028 6.80322 10.8962
Au 27.8654 30.2183 26.0032
Au 24.0307 30.9885 13.3871
Au 7.81754 31.4937 28.4406
Au 21.9218 6.75636 16.4862
Au 11.9956 20.2197 27.2256
Au 15.3557 6.30636 9.4956
Au 16.6595 25.2853 28.5813
Au 19.5556 -0.113025 15.4415
Au 10.1175 10.3622 31.2138
Au 29.3559 5.34191 19.9226
Au 28.3472 14.1105 17.2735
Au 17.5687 18.4212 33.0868
Au 4.80717 27.3701 18.7785
Au 26.4895 29.1085 23.7774
Au 6.52946 16.3171 8.79441
Pd 9.69721 27.004 11.0395
Au 13.3134 30.7602 12.9507
Au 6.80293 6.11699 17.7777
Au 23.5931 25.002 11.7772
Au 13.3436 15.1047 24.6832
Au 18.3327 22.3725 12.4607
Au 25.0946 34.6771 12.9897
Au 11.9676 12.4217 6.35662
Au 26.7875 16.4421 27.7957
Au 6.62266 6.83141 12.9068
Au 13.9761 12.4856 4.58385
Au 28.8264 17.121 5.12071
Au 7.10812 18.9661 7.44796
Au 9.1996 7.28788 18.3264
Pd 25.6168 14.1905 13.3954
Au 18.8884 21.2698 9.76292
Pd 22.7254 35.6611 20.2109
Au 11.0291 31.7222 11.2949
Pd 12.6033 28.9171 8.3222
Au 16.0079 34.8884 21.1367
Pd 8.21251 11.3356 19.6685
Au 21.1289 26.959 11.4957
Au 15.6327 7.14474 16.0378
Au 10.0268 11.6992 21.8711
Au 17.465 26.3838 23.4929
Au 5.64989 20.1327 30.547
Au 20.3122 9.12995 28.9696
Au 10.9422 6.31422 22.5612
Au 30.7717 30.167 25.6839
Au 11.721 10.9677 29.1682
Au 21.9229 29.1415 17.466
Au 34.2478 19.9138 12.8641
Au 27.3835 35.2046 20.2781
Au 17.9278 36.5693 17.6282
Au 4.71151 14.0301 21.6281
Au 11.4683 33.4562 20.9751
Au 20.1423 23.2651 28.2617
Pd 29.3204 12.1792 19.254
Au 20.7525 6.10917 29.1549
Au 8.5087 16.9575 33.7124
Au 2.26469 27.1841 22.3581
Au 11.3085 25.2363 15.3317
Au 15.9416 33.7856 25.9859
Au 24.8846 27.4644 31.7763
Au 6.42444 25.6931 25.8333
Au 13.3101 25.3988 29.0442
Pd 17.7075 14.1797 22.0425
Au 9.29675 12.7284 32.0406
Au 21.8395 3.05178 13.0914
Au 18.3763 14.8519 13.4445
Au 28.4216 31.9704 16.9516
Pd 12.1112 22.2321 15.9036
Au 9.41166 16.9516 28.1518
Au 17.7318 26.4657 31.5889
Au 8.87083 11.265 24.3474
Au 20.0344 26.1932 23.9385
Au 14.1921 9.83111 25.8835
Au 26.5228 15.0394 8.22483
Au 13.1389 23.2624 20.0574
Pd 8.98886 12.969 14.275
Au 20.2636 19.5725 2.73986
Au 20.4246 22.4071 14.4526
Pd 20.0375 9.5714 25.7751
Au 13.505 28.0525 33.216
Pd 31.4847 10.0089 16.2505
Au 15.3617 22.1734 7.60178
Pd 8.6862 18.0533 9.48604
Au 36.3489 23.9727 17.1002
Au 22.6169 16.7 16.5472
Au 19.5408 16.2184 21.0149
Pd 15.9267 14.0744 28.9884
Au 14.633 32.8686 30.3019
Au 16.8402 16.0937 9.41795
Au 12.7741 32.5778 23.3001
Au 17.0733 29.6876 19.7131
Au 25.9862 21.3184 3.18313
Au 5.24243 27.5758 21.5773
Au 16.5885 10.7012 7.91847
Au 26.4836 17.7621 16.1514
Au 14.4336 14.9919 3.10327
Au 16.3601 34.1599 18.2669
Au 17.222 1.21396 15.0438
Au 11.0205 29.6359 17.5973
Au 23.3266 16.702 4.24198
Au 19.0235 31.4314 29.3009
Au 23.0523 22.2535 12.2841
Au 3.40979 14.2158 14.7843
Au 25.9634 4.31729 13.5417
Pd 11.6001 10.6286 24.7806
Au 14.842 9.54185 20.6769
Au 18.9343 23.5098 5.36384
Pd 26.116 11.7855 32.1577
Pd 20.5583 12.7095 5.96996
Au 9.98546 4.82524 17.5323
Au 24.8109 13.8428 35.136
Pd 15.7197 15.1151 14.1308
Au 35.4736 19.6861 18.7636
Pd 11.174 13.4521 25.2394
Au 13.1965 28.1032 22.2109
Pd 27.1997 13.0496 15.1449
Au 12.2922 10.4389 16.6289
Au 6.39683 13.2546 13.6588
Au 12.0467 25.7217 26.6209
Pd 11.7879 21.6804 6.70808
Pd 17.7988 19.5903 24.0642
Au 14.8128 7.12789 22.0656
Au 11.517 26.0609 21.0692
Au 17.7043 7.97137 14.3804
Au 16.5261 30.0499 6.32712
Au 22.1574 23.6409 2.16486
Au 17.2228 0.685475 22.0665
Pd 15.062 2.40383 21.4242
Pd 23.6731 8.29877 17.9594
Pd 10.5938 28.6523 13.1628
Au 17.5168 4.85128 10.3392
Au 18.8125 14.5476 29.5804
Au 2.78562 19.4798 16.7608
Au 2.90833 11.9139 16.4196
Au 12.5316 9.54863 11.1752
Au 9.3947 5.30032 25.3535
Au 10.4558 28.1383 22.6055
Au 6.77128 18.7607 13.6727
Pd 28.2671 17.862 23.5666
Au 10.3594 13.1658 8.8887
Au 4.6095 9.76178 15.8397
Pd 13.3778 18.2598 28.3776
Au 8.80699 21.8847 11.9553
Au 25.0618 18.7757 30.5419
Au 24.8764 9.72176 27.9634
Au 6.17694 10.808 17.8233
Au 21.8216 21.3603 27.174
Au 13.0542 21.7239 25.1571
Pd 14.7845 17.0794 23.2497
Au 10.9082 18.7387 29.4106
Au 19.5589 7.60262 31.1325
Au 16.9635 7.74715 20.2344
Au 16.7464 17.8144 6.99988
Au 29.5886 14.8345 24.0692
Au 13.6525 5.23757 14.5509
Au 10.2991 20.628 14.2268
Au 22.4686 17.4415 7.88191
Pd 9.84298 19.2308 19.0567
Au 4.09914 14.0789 12.1677
Au 11.929 16.2125 26.8357
Au 2.10486 19.6567 19.5771
Au 6.77152 14.5062 11.2652
Au 15.54 4.44006 16.3989
Au 5.71969 9.43095 13.0473
Au 13.2784 2.93744 16.5642
Au 15.3953 36.3468 26.3715
Au 19.9303 27.1303 13.9317
Au 20.7023 27.4706 34.0655
Au 6.9718 31.5664 23.7611
Au 33.4158 13.861 27.6113
Au 33.0033 14.2707 10.813
Au 18.4807 34.6413 19.8932
Au 33.2171 20.6245 30.5086
Pd 7.10742 21.6519 23.1149
Pd 22.2433 7.00264 9.90011
Au 6.53598 9.8602 10.2433
Au 24.1548 4.13861 23.4135
Au 5.61595 11.3621 20.4146
Au 13.334 28.1139 30.5695
Pd 15.0162 18.8166 30.542
Au 10.5901 12.1591 18.7847
Au 21.0982 23.7289 23.0518
Au 13.294 28.1617 12.0858
Pd 24.3749 12.565 15.5025
Au 11.1734 7.27558 25.1472
Pd 19.2845 23.0462 34.2403
Au 9.25831 6.32698 13.2543
Pd 8.81834 26.0836 20.6719
Au 11.6199 17.0263 23.8249
Pd 22.1408 30.9754 11.5226
Au 25.231 23.2231 16.323
Au 6.53709 11.4959 7.816
Pd 19.6933 11.8794 29.4056
Au 2.37454 14.5026 17.3494
Au 11.4623 19.1818 5.11128
Au 17.2707 9.09336 22.5484
Au 8.70415 18.8523 5.25022
Au 21.7395 13.8884 10.4535
Au 10.3266 9.0842 22.96
Au 23.5858 5.47614 29.2969
Au 13.8721 33.758 16.8933
Au 10.1566 11.457 26.9019
Au 20.1792 7.57868 7.57534
Au 8.41502 24.2046 18.5982
Pd 27.0234 25.6799 6.01709
Au 16.9993 17.7179 13.596
Au 5.67571 15.9298 13.7051
Au 11.0802 3.92777 23.8188
Au 16.2773 18.8099 21.7157
Au 27.6137 31.4922 28.9731
Au 10.4385 14.111 27.7791
Au 13.6771 34.6612 19.4341
Au 19.2072 31.7335 19.8535
Au 12.3173 26.7443 9.88532
Au 6.95588 31.8308 16.1998
Pd 20.6713 28.1897 7.11387
Pd 33.8654 24.4749 18.1897
Au 11.5078 10.6475 8.31437
Pd 16.6276 5.91926 18.3622
Au 8.45775 26.965 24.406
Au 25.9995 19.1564 24.9292
Au 28.5978 34.1928 13.0486
Pd 5.34099 16.7587 22.5871
Au 14.8203 20.2565 26.7111
Au 17.9086 3.73595 14.8835
Au 15.1927 17.5818 2.61195
Au 13.8221 7.64187 30.9462
Pd 20.6433 16.4051 9.72132
Au 12.4145 2.12136 21.4752
Pd 30.8152 11.2208 21.5212
Au 21.6959 11.4828 3.93154
Au 10.5893 8.35674 9.63967
Au 19.2238 34.1865 17.2751
Au 5.64374 25.4322 30.7587
Pd 28.3677 9.86271 25.5728
Pd 11.2876 11.8499 13.0488
Au 3.79138 24.7231 18.4212
Pd 14.7675 24.211 9.19424
Au 30.4898 13.5201 11.4625
Pd 25.289 29.8614 5.8733
Pd 27.9923 30.6716 19.608
Pd 19.8315 26.5069 9.11099
Au 0.5245 23.044 23.7327
Pd 14.6128 17.9037 19.8129
Au 19.7313 35.135 11.0261
Pd 23.0634 14.6236 14.4559
Au 4.56663 17.9823 15.0694
Au 20.871 15.7495 12.4036
Au 12.385 12.3883 10.5923
Au 22.6394 30.4932 26.6395
Pd 22.188 8.64567 21.5288
Au 19.7302 2.13652 21.5892
Au 15.07 19.4473 8.4472
Au 1.57911 18.8508 22.0208
Au 19.828 30.7777 7.25969
Au 14.2721 17.8441 5.53016
Pd 7.98036 23.6135 24.8124
Au 20.6967 18.4618 12.0703
Au 11.9396 16.6392 6.30697
Au 15.8893 13.4495 19.3957
Au 16.1756 26.3329 13.283
Pd 25.9451 13.951 10.715
Pd 26.6221 29.8394 17.4937
Pd 20.5405 16.3033 23.5873
Pd 26.0307 28.0837 26.3573
Pd 20.8168 34.0398 24.0575
Au 25.2952 30.3601 27.9808
Au 12.9167 16.4643 12.8127
Au 4.17978 13.0323 18.7413
Au 16.2217 11.8364 21.5015
Au 5.55495 24.8744 9.5593
Au 19.4385 1.89355 13.4921
Au 16.6149 29.3953 16.9623
Au 8.56606 22.8643 30.2276
Pd 30.1265 7.80365 18.9531
Au 35.3035 14.9839 20.035
Au 21.709 3.67548 24.4521
Au 7.09375 18.9202 32.5574
Au 6.14267 29.9494 11.7571
Au 12.0711 23.9987 10.486
Au 10.9051 34.0537 15.4477
Au 24.7828 9.37203 15.512
Pd 13.3745 23.896 13.901
Au 8.70725 25.3716 16.2354
Au 20.3708 32.8301 31.296
Au 7.90842 23.4005 21.1841
Au 5.45962 11.8936 11.4352
Au 16.2652 5.60615 13.8677
Au 18.5046 33.1861 22.1907
Au 21.7643 31.7642 28.9739
Au 18.7668 12.6968 3.64786
Au 23.8134 13.1332 19.6703
Au 33.6026 24.4051 26.2349
Au 24.101 17.8202 20.9719
Au 17.8353 31.8053 17.3827
Pd 21.9599 18.9909 4.85978
Au 10.0473 27.7975 15.8025
Au 6.80825 13.5583 18.818
Pd 20.2497 18.3291 33.5489
Pd 21.8892 24.5488 30.4024
Au 11.8536 14.9981 10.6115
Au 25.4531 26.7271 12.8543
Au 17.5732 10.4447 15.6421
Au 27.9126 9.66192 28.273
Au 4.66648 15.6738 19.4896
Au 15.4162 35.2102 13.855
Au 26.8953 8.60089 6.91558
Au 10.8893 21.6938 18.5781
Pd 15.3727 16.1844 11.7153
Au 2.40205 16.7819 15.9882
Au 20.7421 5.27153 26.4614
Au 4.70702 8.85101 20.6524
Au 29.8242 11.9415 26.7672
Au 23.1697 27.9779 27.2316
Au 22.6461 28.8376 32.5442
Au 32.8394 17.3564 22.8136
Au 17.2392 20.6843 19.7206
Au 25.2486 2.29198 21.6225
Au 15.1238 8.84223 10.54
Au 11.1617 5.97479 19.7961
Au 19.5819 6.80239 10.5823
Au 13.8932 10.3401 6.6034
Au 25.8575 32.5992 17.4273
Pd 23.1355 7.70967 14.2554
Au 6.10658 15.1465 30.1294
Pd 6.64253 29.1946 19.777
Au 18.3213 10.3719 27.6269
Au 28.7434 12.9292 6.87506
Pd 18.9864 14.1905 10.877
Au 9.44031 22.5758 16.179
Au 10.9338 31.4054 14.0073
Au 14.6357 20.7245 20.4405
Pd 27.2144 17.713 32.672
Au 30.8633 6.46559 12.4393
Au 5.33424 23.0833 13.8195
Au 28.3927 5.04763 12.7009
Pd 5.8236 22.9437 18.872
Au 24.2224 6.30962 11.8436
Au 14.8402 12.8404 7.19141
Au 13.4809 12.2824 14.931
Pd 5.95656 20.1538 16.4887
Pd 27.1758 7.92374 23.6539
Au 24.5412 21.0657 17.7989
Au 10.5653 27.2969 30.8951
Pd 27.241 8.39756 15.8202
Au 14.1324 6.64534 19.396
Pd 19.9224 9.21911 23.0502
Au 29.0143 21.6896 21.6283
Pd 22.4175 10.8286 29.2549
Pd 18.1639 28.4901 7.94949
Pd 17.8086 23.2729 8.17365
Au 2.21247 26.7188 19.6649
Au 26.8497 6.5383 8.72736
Au 2.83318 16.5271 21.6495
Au 32.5303 11.6696 26.4055
Au 12.3547 28.3567 19.6237
Au 15.1833 14.184 16.6717
Pd 30.4103 29.5137 13.6386
Au 21.7917 30.8419 19.6108
Pd 15.5839 29.7731 11.7255
Au 20.8449 14.2763 3.41231
Au 30.9849 32.449 13.2991
Au 32.9297 11.4608 23.486
Au 14.966 21.8392 3.22288
Au 26.7292 11.2531 19.2526
Pd 19.0599 20.0656 14.4421
Au 27.7876 13.7112 27.7496
Pd 6.22192 19.1082 23.6375
Pd 16.6529 32.3218 20.3588
Au 22.3469 17.8882 31.3549
Au 18.5749 20.4885 34.9391
Au 6.84435 9.37365 24.7329
Au 24.5706 11.8105 4.3174
Au 18.4103 23.6257 21.7999
Au 20.4965 25.3385 18.4324
Au 21.295 29.4065 24.3237
Au 24.7236 9.04637 12.3498
Au 16.0334 21.6151 34.2256
Au 11.3551 21.5743 35.0146
Au 21.4706 9.30568 5.57649
Au 11.1997 29.6802 29.3606
Au 9.87658 32.2513 23.1467
Au 28.6495 14.0661 9.58629
Au 5.86602 18.8374 9.82619
Pd 14.2383 25.4701 21.5112
Pd 16.7699 10.684 19.0978
Au 31.2155 24.2116 24.916
Au 34.1287 19.3414 21.3823
Au 3.56205 18.482 23.886
Au 5.41442 13.6465 9.20264
Pd 8.12029 23.7953 13.9339
Au 10.1805 21.2224 25.522
Pd 6.31921 28.7086 24.0716
Au 20.9816 13.2113 13.2242
Au 17.4183 31.1382 8.58567
Au 25.0185 26.4605 24.4939
Au 25.9675 13.7388 23.5016
Au 11.3697 32.8221 25.649
Au 2.9548 22.8751 22.8179
Au 6.9213 30.6037 30.8419
Au 29.7925 26.5932 20.6335
Au 13.0163 8.48967 23.6938
Au 22.0294 22.4458 35.3807
Au 4.52313 27.6131 15.8583
Au 28.4906 5.61006 22.7072
Pd 8.41755 12.2157 16.9091
Pd 16.3007 8.52851 27.171
Au 10.9113 33.9003 12.8009
Au 25.868 27.5971 4.56209
Au 15.8626 24.9695 18.3492
Pd 10.4316 23.585 20.492
Pd 27.9361 23.3056 12.3216
Pd 8.32186 6.24025 15.694
Pd 16.6328 14.9965 6.94747
Au 3.14281 17.5103 26.3203
Pd 9.71108 9.91736 17.6094
Au 24.8143 28.6049 14.657
Au 27.5136 5.49502 15.519
Pd 22.6554 8.9277 7.91992
Au 11.4362 8.27003 29.916
Au 23.1799 13.1466 2.45953
Au 8.41171 15.5063 13.2943
Au 26.2748 23.6836 7.87963
Pd 9.14019 16.6496 19.7846
Au 6.03727 20.8081 11.8179
Au 15.8813 26.5466 33.6587
Au 30.5593 13.8826 31.0402
Au 29.0558 33.1737 19.3485
Au 7.00018 24.3854 7.20039
Au 11.7708 15.4399 17.4878
Au 5.43148 12.8625 16.2355
Au 28.69 24.2616 9.91449
Pd 24.2404 7.21405 26.9856
Au 16.2031 12.4385 14.4369
Au 27.8934 26.9767 11.2791
Pd 21.787 13.6358 29.2848
Au 16.0001 23.501 13.2689
Pd 17.806 22.4773 15.2923
Pd 23.2532 10.2862 10.3086
Pd 3.28894 29.0404 20.6503
Au 18.3012 23.8615 19.1969
Pd 16.9168 25.7401 20.8375
Pd 8.05485 17.0862 30.7893
Au 15.7421 35.6249 23.8168
Au 32.3655 18.2292 31.7078
Au 8.34686 29.7588 17.6337
Au 1.19145 24.2899 18.8372
Au 11.6694 30.5745 21.425
Au 26.787 17.4171 20.6646
Au 34.0861 23.6079 15.6165
Au 31.273 23.94 16.823
Pd 19.2638 25.102 29.9003
Pd 5.05646 14.2443 26.2171
Au 22.9427 17.6593 10.692
Au 32.0353 28.7131 27.5244
Au 24.9946 25.8406 15.3915
Pd 30.8654 31.3911 15.7631
Au 23.985 18.9543 15.8127
Au 6.41374 14.5763 23.9459
Au 20.0254 22.7184 17.3217
Au 32.9553 18.3888 29.0663
Au 32.0097 12.021 29.2585
Au 33.6296 27.196 28.9941
Au 4.13858 21.5109 28.4498
Au 22.6257 36.9173 22.6483
Au 22.6187 35.5956 25.2132
Au 20.0547 35.4192 26.4163
Pd 20.0126 21.4849 7.34493
Au 15.4868 35.9931 16.4442
Pd 6.96443 10.9125 15.0422
Pd 26.5143 10.911 23.775
Au 14.4031 26.6401 8.08449
Au 6.72809 22.9918 16.2881
Au 3.75743 29.1097 23.462
Au 9.88272 31.6747 19.4583
Au 29.1107 22.3208 30.8189
Au 14.4368 4.25762 26.3667
Au 15.4739 9.8235 31.2449
Au 10.2626 27.2759 28.178
Au 13.6038 3.06627 23.7588
Au 4.4638 20.6112 14.3059
Au 15.1488 2.90986 14.2397
Au 20.7533 30.1328 31.0171
Pd 31.7736 12.1895 14.5321
Au 22.6333 27.1968 30.0732
Au 25.0926 15.0685 21.2489
Au 32.1146 22.6605 19.2493
Au 29.8455 26.8488 31.773
Au 12.0154 17.5781 15.1163
Au 7.25279 15.6277 27.375
Au 25.1013 24.7601 32.4642
Pd 20.7097 24.9196 15.5277
Au 24.6002 7.18611 7.18532
Au 27.1826 25.8808 28.048
Au 3.79662 20.4593 21.7983
Au 2.16467 14.4908 20.0182
Au 32.6206 21.8558 25.8002
Au 10.225 9.06936 12.653
Au 17.8509 8.64692 6.36303
Au 7.80785 12.3236 9.86747
Au 18.6861 27.2837 28.555
Au 31.6724 28.8987 9.26277
Au 23.7381 15.0766 24.2126
Pd 23.7663 23.3247 4.27704
Au 21.8198 27.6403 22.2519
Au 7.77124 9.871 22.0646
Au 12.0272 26.1926 23.8818
Au 13.1357 18.7374 21.8232
Pd 29.291 16.4296 19.7641
Au 32.071 14.7944 13.343
Au 27.3651 26.8877 30.704
Pd 24.3408 32.5512 10.8054
Au 6.38886 20.6574 20.6439
Au 15.1451 27.0735 16.6744
Pd 31.4 24.6301 6.02052
Au 24.135 19.2202 12.5898
Au 23.0303 14.8517 27.1607
Au 13.1269 35.45 12.5464
Au 21.6911 35.8495 9.2895
Au 27.3943 7.23033 31.3534
Au 22.2649 35.9366 11.9835
Au 17.7605 31.396 11.916
Au 19.8492 30.5024 26.562
Pd 12.5395 10.7639 22.1445
Au 30.5181 10.3935 31.0045
Au 32.217 16.2646 27.4293
Pd 18.9853 12.762 15.1641
Pd 31.9122 21.0484 21.3967
Au 24.4135 5.33167 9.21274
Pd 19.3185 20.7259 28.782
Au 32.4472 8.22773 20.2109
Pd 26.3612 11.4502 26.5467
Pd 9.12604 19.884 27.7093
Pd 7.50936 8.74068 16.7451
Pd 14.5901 7.76039 13.1583
Au 30.7887 19.1797 16.9821
Au 14.4647 12.0996 32.7351
Au 24.6412 17.0265 32.8639
Pd 12.4669 27.1673 16.8748
Au 13.6367 21.2327 29.1843
Au 29.6217 26.8142 5.56545
Pd 32.3558 19.2199 14.761
Au 10.3868 18.5063 21.6657
Pd 8.01727 20.6376 9.65818
Au 17.7561 18.0222 16.3886
Au 3.81676 25.2247 21.39
Au 19.4394 29.7289 15.3688
Au 27.4608 23.5586 2.78648
Au 24.0921 1.31655 16.8558
Au 9.83244 14.3982 34.1698
Au 29.1372 11.9403 29.437
Au 22.0414 6.65326 19.4389
Au 21.4722 13.9239 25.0284
Pd 9.31141 9.02004 25.9335
Au 23.9236 12.3674 27.7032
Pd 23.6635 20.2594 10.1539
Au 29.0863 32.3742 11.2536
Au 22.0363 16.2238 33.5316
Au 21.4505 11.36 23.9884
Pd 17.289 2.48154 19.8774
Au 31.6141 28.5793 30.2646
Au 32.8759 30.3601 14.1387
Au 25.4806 2.8331 18.825
Pd 25.4666 23.8708 13.5152
Au 32.9982 25.5309 23.4651
Au 13.0919 15.0209 15.1919
Au 30.3917 12.1171 24.0353
Au 14.0474 9.27417 28.8346
Au 32.1891 23.5147 10.7723
Au 17.6951 6.34297 22.7014
Au 14.4514 16.2407 29.7791
Au 9.61105 23.4691 6.84218
Au 8.82776 16.808 7.05531
Au 22.9429 29.5582 7.2297
Au 32.3852 12.3677 17.3737
Au 4.03038 22.2663 16.6566
Pd 22.0302 28.8197 14.7537
Au 24.0258 4.44491 20.5491
Au 30.8604 12.6513 8.79738
Au 34.6404 24.5986 10.2435
Au 25.0109 16.8716 2.10885
Au 5.09124 10.4655 22.8964
Au 24.3377 15.9774 18.7601
Au 30.5302 31.796 21.1751
Au 25.8031 8.99577 33.0379
Au 23.5815 15.3623 11.9742
Au 26.8098 23.0567 18.6284
Pd 7.20052 18.832 18.6206
Pd 10.2284 25.2228 8.87971
Pd 11.7208 18.9097 12.6733
Pd 8.80908 30.0754 14.9591
Au 18.4801 32.863 27.0316
Au 28.8985 11.3083 10.221
Au 12.9076 11.9799 26.9611
Au 16.2822 20.8953 28.9116
Au 22.9013 21.0586 2.82744
Au 27.2726 31.0508 7.37404
Au 24.3019 22.6844 30.8168
Pd 25.5825 17.0554 23.1841
Pd 21.01 10.4094 33.6696
Au 16.3702 30.8765 30.3604
Au 29.8697 26.3072 16.9807
Au 22.1844 14.4201 7.68028
Au 7.49766 10.7909 27.1083
Pd 29.2314 25.1203 7.50577
Pd 27.8307 10.4824 33.7778
Pd 8.1232 23.4913 9.33118
Au 15.6212 19.5146 17.8463
Au 10.3728 22.0585 9.0878
Au 21.2415 11.2046 21.1476
Au 20.9475 24.3556 12.6001
Au 24.0496 20.7074 28.8057
Pd 13.8341 23.0305 35.2683
Au 8.36453 26.6286 32.6143
Au 10.9866 29.2447 10.5687
Au 26.7158 11.1378 5.9731
Au 20.9963 19.3858 9.55393
Au 26.7225 20.0795 5.83983
Pd 14.4463 30.001 20.2983
Au 2.18516 18.9017 14.0886
Au 29.549 13.7147 14.0747
Au 11.4863 24.3838 5.20634
Au 17.4407 8.77214 29.6944
Pd 16.8155 16.384 34.8253
Au 4.79975 17.9218 17.7747
Pd 17.6018 29.725 27.7682
Au 17.7213 6.46218 8.1281
Au 1.89206 21.4741 15.0817
Au 9.21944 22.9134 33.957
Au 18.093 15.0378 19.0727
Au 9.14274 25.3985 26.616
Au 17.6265 23.4602 2.89684
Au 25.2931 20.9352 8.01865
Au 30.3601 10.9308 12.5092
Au 15.5794 36.6009 19.0932
Au 13.8623 29.4491 17.5178
Au 35.7825 22.2259 13.8741
Au 25.0817 27.3073 10.3325
Pd 9.47586 13.4588 11.6072
Au 7.35478 24.1819 32.3573
Au 22.9331 25.8762 3.38692
Au 17.6898 28.6149 13.1231
Au 18.8375 17.69 5.01097
Au 2.0873 14.0211 22.5746
Au 32.202 21.4751 16.5402
Au 17.3205 30.5703 22.4012
Au 12.8071 17.1595 32.0548
Au 15.8187 27.219 10.7214
Au 26.5388 33.1351 27.0939
Au 7.27598 27.8806 15.7732
Au 11.6671 16.1094 29.6229
Au 16.1948 15.3197 24.6795
Pd 20.3279 35.0683 13.7022
Au 11.9243 3.39407 19.008
Pd 11.4903 29.6042 32.066
Au 20.7817 14.8369 31.6148
Au 29.1273 22.0439 17.0223
Au 6.82088 25.517 22.7491
Au 29.8166 7.46244 24.3326
Au 7.00024 24.2543 28.3104
Au 10.7862 23.2407 13.6037
Au 33.1393 28.7822 11.6041
Au 9.3221 9.34526 28.6613
Pd 16.0094 24.7848 15.5436
Au 13.7157 1.39463 19.1803
Au 7.65557 14.0463 7.64821
Au 18.1122 0.700698 17.5721
Au 4.46827 20.5511 18.7575
Au 16.4074 27.3308 6.17668
Au 6.82255 18.3186 28.593
Au 13.5584 19.538 3.30464
Au 26.2664 30.8928 15.0689
Au 18.4452 11.9375 12.6021
Pd 29.6389 21.7464 10.2206
Au 16.1374 17.9375 25.4582
Au 26.9255 28.9917 9.18883
Pd 29.914 7.77357 16.1018
Au 16.26 24.6417 6.39981
Au 3.8034 25.435 26.3601
Au 14.5017 14.2756 9.80989
Au 2.76495 22.8923 25.6884
Au 26.164 34.3481 22.6235
Au 15.6778 11.2484 27.7396
Pd 1.78724 23.9337 16.2262
Pd 22.6491 26.0508 32.699
Pd 14.9409 22.2468 15.4357
Au 15.0744 14.4665 34.0407
Pd 16.0278 24.097 23.056
Au 7.76193 27.1882 18.4374
Pd 17.3138 15.7074 27.2744
Au 32.7355 26.3533 16.6143
Pd 30.6249 19.7091 25.763
Pd 33.7913 26.746 19.652
Au 21.9213 20.0535 13.9532
Au 8.85939 29.7736 24.2458
Au 15.1782 28.8031 14.3511
Au 12.4171 23.1475 30.862
Au 13.5105 35.0051 22.2752
Au 22.4004 26.4207 25.1062
Au 15.7978 32.9202 23.2641
Au 24.2231 23.1934 19.6762
Au 25.7196 18.4714 35.2002
Au 24.3201 22.8858 9.85592
Au 14.4162 30.4579 22.9567
Au 31.2816 10.3244 18.984
Au 33.0431 19.9948 23.8704
Au 29.455 19.0761 10.4131
Au 15.1981 26.0518 30.9959
Au 11.6719 25.9238 12.6168
Au 25.1117 18.1414 8.83972
Pd 19.615 21.6378 20.15
Au 6.21143 7.76125 22.6007
Pd 31.6548 28.1123 18.7533
Au 16.3944 13.6298 11.8173
Au 2.82606 20.2187 26.4166
Au 6.50003 27.9551 30.9851
Pd 34.8963 17.7545 14.5552
Au 29.9345 29.2202 21.0252
Au 11.8126 12.4697 32.7646
Pd 15.9252 31.9527 27.9039
Au 13.9839 17.1741 34.6426
Au 27.1587 14.7283 5.54317
Au 13.2798 33.0987 11.3317
Au 9.93233 27.9668 8.4248
Pd 21.4717 24.3923 5.10023
Au 22.9716 23.6957 14.6644
Au 23.2047 23.1468 7.17908
Au 2.69337 23.6368 13.5649
Pd 21.5058 31.3941 14.4476
Pd 20.3085 19.8518 31.1664
Pd 18.4279 26.3923 11.5001
Au 16.0148 28.8964 24.4186
Pd 28.2513 23.1044 28.197
Pd 31.1082 8.7712 13.8893
Au 23.8815 10.4536 22.8016
Au 13.6814 12.389 24.2953
Au 27.1443 27.2639 16.4458
Au 22.637 18.3742 2.0877
Pd 25.8628 29.5016 12.0021
Au 8.05387 28.9067 10.2661
Au 16.398 13.6322 4.42983
Au 3.90403 18.8626 28.633
Pd 23.2915 34.3386 22.7035
Pd 27.8808 19.7529 8.35976
Au 30.4404 30.7015 18.4645
Au 28.8223 22.1752 33.7409
Pd 34.9744 26.7214 11.9347
Pd 22.8051 2.38617 18.9961
Au 5.33092 23.0021 21.5592
Au 12.1332 4.63032 12.4637
Au 16.2924 24.2047 34.9785
Au 8.42176 5.01495 19.7825
Au 14.1608 12.0949 29.9992
Au 30.4227 16.4872 11.4591
Au 8.50925 28.9343 29.4506
Au 22.416 3.21256 16.2646
Au 17.0491 11.7226 30.0628
Au 22.1054 4.25301 10.0183
Pd 25.0953 6.62711 16.4685
Pd 24.5001 7.48321 20.3739
Au 14.5949 8.92891 17.9461
Au 24.0135 12.6314 30.6532
Au 21.469 17.2853 35.9737
Au 27.2062 15.8816 25.0608
Au 24.2124 2.33957 14.2952
Au 13.9465 30.4292 29.1057
Au 25.0122 36.3022 21.3122
Au 16.8291 24.2152 10.8433
Pd 10.8783 23.8042 25.1318
Au 33.1719 21.7975 8.89193
Pd 24.6949 27.6006 22.0694
Au 34.0488 22.0103 28.0649
Pd 19.1372 12.0483 25.1665
Pd 25.875 5.63971 18.9579
Au 15.154 13.5206 26.3927
Au 14.3194 11.2128 12.4153
Au 23.4953 5.06282 14.4864
Pd 12.5615 14.4947 7.95659
Au 10.3628 7.95677 15.6378
Au 16.0467 18.5631 10.8003
Au 21.1739 16.2376 5.79086
Au 29.9703 26.9026 14.3323
Au 30.7707 22.0015 5.86837
Au 26.0756 24.48 23.1866
Au 13.0445 12.9779 17.9156
Au 34.1705 11.3862 15.6235
Au 7.54869 18.2983 21.2869
Au 16.0578 4.21752 28.5637
Au 26.6761 21.0676 29.7732
Au 7.44377 14.6884 15.9137
Au 14.8451 19.8623 23.8299
Pd 6.15445 25.506 17.2149
Pd 9.08732 13.8829 23.4779
Au 6.88391 21.2772 28.4176
Au 30.1025 7.51784 21.6092
Au 20.8965 28.9499 28.6037
Au 14.1391 20.5238 5.79807
Au 11.2283 19.6487 16.7015
Pd 18.2097 7.73045 25.0237
Au 16.6716 5.87815 26.5674
Au 9.16378 11.8667 6.91815
Au 4.9983 27.8825 13.1245
Au 31.0736 9.7004 25.3143
Au 30.0841 20.6629 19.2427
Au 21.8204 20.8553 21.6684
Au 25.4017 3.82955 16.316
Au 18.7444 4.31974 27.9665
Pd 13.8812 21.8188 17.9357
Au 17.8247 8.80971 9.42505
Pd 4.60711 25.3617 12.2062
Au 27.0731 35.0417 25.1573
Au 26.9584 16.1185 18.2624
Au 30.1755 21.0945 14.7302
Au 12.8979 28.0406 27.8944
Pd 16.55 9.86893 12.9858
Au 30.5382 19.046 33.437
Au 19.9133 7.13696 21.31
Au 28.8371 9.79681 17.653
Pd 10.6996 27.9512 25.5538
Au 18.1808 15.6832 32.5565
Au 24.4892 25.2356 29.8171
Au 33.4885 24.4182 20.9984
Au 24.5389 28.187 17.3263
Au 17.6039 27.253 15.5249
Pd 28.0468 17.803 12.6154
Pd 18.0708 21.0677 32.4175
Au 33.0501 18.6098 26.2965
Au 21.7781 19.0501 28.9381
Au 17.8002 16.9146 23.0335
Au 21.829 33.568 10.5238
Au 25.8595 7.05885 13.9138
Au 22.9039 13.9623 5.08247
Pd 8.06371 8.62752 14.1472
Au 27.8593 4.07817 17.9039
Pd 8.7502 14.6558 29.7931
Au 1.0381 21.549 21.3939
Au 29.6535 33.7767 15.4329
Au 27.619 34.6364 17.5663
Au 13.1291 8.44325 8.6357
Au 35.4447 25.5418 24.5526
Au 8.07183 16.7966 23.4906
Au 21.2288 29.8021 5.06549
Pd 26.0396 5.17889 27.4447
Au 28.9944 20.4794 28.2694
Au 16.9449 13.3156 9.05994
Au 34.0942 13.4416 24.8682
Au 33.4115 14.7975 18.0639
Pd 6.22637 25.3895 20.0356
Pd 15.8683 28.119 21.8747
Au 5.77554 7.38154 15.3216
Pd 22.4639 15.6348 21.7827
Au 25.8532 19.0482 27.687
Au 27.1752 20.5613 19.5875
Pd 16.3438 33.3649 15.6003
Au 21.1836 13.8707 20.061
Au 24.7675 23.2016 1.84042
Au 17.5008 20.4295 7.38585
Au 8.95757 19.2786 11.9791
Au 34.62 20.5359 15.5637
Au 6.90124 12.6824 30.8437
Pd 27.2942 13.2324 34.15
Au 24.042 20.0019 23.2355
Au 21.8263 21.7993 29.8961
Au 22.2726 5.87338 7.55392
Pd 14.1359 32.5838 21.0177
Au 34.288 19.4089 10.2115
Au 20.3805 36.4286 18.9427
Au 17.1288 30.8725 14.5784
Pd 10.7754 21.5021 29.3854
Pd 18.2875 15.3662 2.88637
Au 20.3322 27.4691 31.347
Au 13.1356 21.6578 9.03673
Au 10.4994 6.17993 11.0236
Au 27.4987 27.3087 21.9261
Pd 18.9847 9.66289 20.3406
Au 14.1712 15.058 5.74532
Pd 29.9159 31.794 23.8571
Au 34.5561 29.051 18.6441
Pd 30.9706 25.7514 9.63717
Au 26.2101 29.7151 30.7097
Au 28.8459 10.3809 14.7375
Au 25.9508 7.60948 29.174
Pd 24.6766 33.6746 24.9322
Au 18.5005 27.9618 21.3656
Au 17.109 10.2195 25.163
Au 9.53736 29.9428 26.9865
Au 22.6531 10.1966 26.5159
Pd 26.1063 5.0813 30.1054
Au 9.62305 24.9999 22.9774
Pd 26.0827 21.9038 23.9982
Au 28.3984 33.0891 8.77166
Au 22.6581 33.47 13.0561
Pd 20.6614 21.2182 11.8422
Au 22.6585 26.3627 13.9412
Pd 18.3312 28.4969 33.2288
Au 34.2001 28.6488 16.0377
Au 6.11449 30.0257 14.4225
Au 5.92881 29.3895 28.5942
Au 23.2315 19.094 26.2592
Pd 26.2258 8.74575 18.4896
Au 22.0944 14.5106 35.6847
Au 10.5951 24.6438 29.1267
Au 22.0253 21.2923 18.9495
Pd 21.2519 32.9731 26.4898
Au 7.44145 20.9938 25.6925
Au 20.7102 31.6466 17.1295
Au 34.0281 28.0961 23.7923
Au 34.6297 21.9387 20.6362
Au 36.6162 18.6175 16.4854
Au 22.1045 32.0583 6.33586
Au 28.037 24.7738 32.6199
Au 19.1223 10.4011 4.75489
Au 9.55425 15.7763 25.5036
Pd 12.6557 25.7106 31.801
Au 12.1181 23.0412 27.5118
Pd 29.5604 23.8589 14.7146
Au 13.2381 25.7493 19.0034
Au 27.5077 9.71113 12.4502
Au 31.1998 30.6323 11.3068
Au 20.7066 27.9027 19.656
Au 23.2299 27.8766 5.15374
Au 15.1846 34.6764 28.449
Pd 23.7007 30.6918 16.2047
Pd 23.6422 32.8787 20.5168
Au 17.6402 19.8918 26.7399
Au 32.8823 30.6277 17.3985
Au 18.4209 6.06429 16.2134
Au 2.61441 21.0558 12.4595
Au 29.5007 8.1582 29.8789
Au 27.6978 26.4089 24.6066
Au 15.6134 7.68002 24.5538
Au 34.3058 24.2356 12.868
Au 22.6757 15.6419 1.87444
Pd 18.1962 34.1451 24.6623
Au 13.7351 19.8015 15.8551
Au 11.1804 24.2158 17.859
Pd 10.3677 26.6807 18.4627
Au 21.2852 32.4382 21.8627
Pd 28.9809 24.0552 5.03575
Au 27.6077 28.455 13.8461
Au 19.3332 7.12858 18.6793
Au 13.9167 26.0135 5.45865
Au 28.883 15.7398 29.5661
Au 22.8666 18.7588 18.4708
Pd 20.987 12.1773 27.0828
Pd 12.1769 31.7143 16.3531
Au 14.1802 25.3719 11.6897
Au 9.41471 17.931 14.3408
Pd 26.6543 24.0133 25.8659
Au 22.6472 31.9334 24.261
Pd 13.163 21.1253 13.5977
Pd 22.1977 23.3315 32.7682
Au 15.5518 8.25556 7.62492
Pd 20.0977 34.0505 28.8681
Au 34.9919 28.7629 13.5524
Au 23.1438 33.9207 8.10591
Au 36.3672 27.4203 19.7812
Au 13.7947 24.2249 24.8939
Au 25.0281 10.2889 8.08581
Au 33.6288 24.5108 28.8989
Au 12.5172 24.2279 7.70317
Pd 8.77825 30.6465 12.2942
Au 28.8761 10.4101 7.59875
Au 25.1595 15.3142 16.0457
Au 13.348 28.449 25.0743
Au 18.6782 28.6941 5.27839
Au 22.7673 11.915 35.1893
Au 25.815 16.7367 11.1618
Au 8.59436 19.7797 16.3424
Pd 9.05206 20.8578 20.9844
Au 20.0497 25.0967 32.5392
Au 21.8954 8.60075 12.0539
Au 9.87531 22.2425 23.0682
Pd 20.9469 20.9991 33.4268
Au 23.7484 24.5097 34.7791
Au 13.2534 5.73152 24.0917
Au 8.93315 15.3461 9.70438
Au 20.4163 13.057 34.0665
Au 19.9979 14.8438 27.1568
Au 10.999 5.22821 15.0847
Au 31.8941 9.08305 22.7731
Au 18.5987 4.68484 24.9298
Au 15.9958 16.4599 17.9178
Pd 16.2152 22.0185 24.9724
Au 24.0491 1.54632 24.0369
Au 19.7998 3.62919 11.2617
Au 4.27378 24.2152 28.6742
Pd 13.7422 19.9733 11.0096
Pd 13.942 15.2801 19.1989
Pd 17.859 3.59375 17.5837
Au 8.23662 30.8438 21.4726
Au 15.9605 4.99614 20.9182
Pd 3.08509 22.638 20.0107
Au 26.2537 11.6637 29.3021
Au 17.1593 25.982 8.71216
Au 35.1312 18.2367 23.9855
Pd 12.409 8.15384 21.021
Au 17.9115 12.5062 6.448
Au 23.8524 32.844 27.4443
Au 24.5477 3.10556 28.4585
Au 4.76204 16.3358 28.0781
Au 16.2464 19.0032 35.4032
Au 29.0349 5.95538 10.3065
Au 20.1048 2.5291 26.3836
Au 30.7259 14.0924 28.3371
Au 29.6496 7.76005 27.0062
Au 12.255 30.4796 26.8506
Au 10.4766 32.2432 28.213
Au 20.6245 9.25219 9.6932
Au 34.0553 16.6185 10.3492
Au 13.9289 23.2446 5.5064
Pd 24.4643 21.3246 14.5689
Au 17.6593 35.3707 27.6513
Pd 30.3064 16.6115 22.2227
Au 9.83073 19.7114 7.51235
Au 30.5851 24.1324 32.3785
Au 23.4497 15.4077 30.8443
Au 29.9436 30.2207 28.3164
Pd 11.0606 16.9427 34.3183
Au 24.5772 25.6085 27.0544
Au 30.5902 19.8796 30.4496
Pd 20.0933 32.647 12.4538
Au 17.3766 33.5009 29.7089
Au 33.9665 27.0886 26.2981
Au 22.4893 2.37441 21.9339
Au 28.0485 15.1711 12.0814
Au 20.4901 4.74681 17.7132
Au 22.2541 21.3501 16.262
Au 12.7559 5.46628 17.3256
Au 26.481 4.68862 10.8096
Au 29.3799 15.8455 26.738
Pd 25.713 11.2397 13.7088
Pd 11.8745 13.5782 22.6341
Au 31.9741 25.8104 30.5333
Au 10.1677 9.46309 20.209
Pd 30.5286 22.5666 12.5732
Au 20.6124 15.081 15.329
Au 18.691 28.8483 24.138
Au 31.1077 15.9598 32.8002
Au 8.22466 26.0516 29.902
Au 36.87 20.0536 20.9788
Pd 14.6595 3.85455 18.9201
Au 23.2008 32.9598 17.7413
Au 32.3602 7.6356 17.5152
Au 13.4994 34.5452 25.1506
Pd 13.2929 21.6146 33.0463
Au 11.4801 14.3712 19.9953
Pd 31.6179 16.1806 30.075
Pd 25.5331 18.5923 18.5487
Au 29.302 28.8236 23.7051
Au 11.8085 21.1678 21.2987
Au 27.6471 24.5058 16.4477
Pd 30.5087 27.8478 11.4881
Au 5.63019 26.685 28.4079
Au 18.546 20.4753 17.248
Au 12.4789 29.177 15.0401
Pd 16.8235 21.4468 22.3336
Pd 27.083 17.495 7.06489
Au 21.4194 0.520708 17.4706
Pd 18.7536 1.84858 24.1893
Au 21.4563 0.404169 20.349
Pd 20.1639 27.7484 26.2339
Au 30.2865 18.0115 28.3115
Au 33.0625 24.622 8.14545
Au 33.6877 8.75139 15.4405
Pd 32.4844 26.001 11.8124
Au 21.9552 24.8517 9.72947
Pd 25.64 25.349 20.7124
Au 26.3909 32.6846 20.3376
Pd 24.2847 22.1099 33.7101
Au 10.0234 24.5869 31.8251
Au 30.8609 23.1624 8.308
Au 9.51461 24.4029 11.4703
Au 30.0159 14.0115 21.3277
Au 16.4193 24.7962 25.6728
Au 8.25097 8.10493 11.199
Au 34.4318 12.988 21.7747
Au 12.5488 18.9991 7.71487
Au 30.7937 21.8055 23.6969
Au 15.8047 4.78728 24.0667
Au 8.52291 19.9544 30.3931
Au 18.6241 4.86113 20.087
Pd 28.7926 18.8317 15.1477
Au 20.0243 4.6188 22.5921
Au 23.6827 12.615 12.0785
Pd 17.4428 12.7612 17.3308
Pd 31.7178 16.9454 18.1541