1687
Atoms. Timestep: 21262
Au 11.1545 10.875 9.00047
Au 7.5111 13.73 9.25383
Au 8.08511 6.46301 18.1134
Au 14.1083 5.8581 21.7094
Au 9.74089 4.77258 19.3839
Au 12.3718 8.46987 32.8145
Au 7.10577 14.4297 28.7198
Pd 9.37561 17.004 12.4774
Au 3.82589 15.6296 14.7328
Au 23.5706 8.81778 6.86373
Pd 8.00325 10.239 21.3308
Au 13.3006 12.4562 24.6195
Au 6.44251 18.8053 21.719
Pd 7.85352 19.1113 13.1885
Au 12.4056 4.95415 14.1037
Au 6.4494 8.33802 19.9601
Au 17.8915 4.17629 22.1746
Pd 19.2782 6.19252 16.4078
Pd 13.8016 14.4643 26.3626
Pd 9.6471 13.3141 28.8741
Pd 7.00244 21.5404 32.2025
Pd 14.1536 23.4014 32.3298
Au 7.31336 17.6098 9.66856
Pd 8.1451 17.7527 19.8268
Au 12.6708 16.1791 4.02726
Au 3.88137 12.1668 17.9291
Au 6.37677 15.0616 15.5081
Au 6.80735 8.66536 17.2372
Au 11.0222 6.85214 12.2468
Au 10.1075 5.86821 26.145
Au 8.62955 6.88429 20.7858
Pd 12.9944 13.4815 22.067
Au 9.72248 6.70415 23.4597
Au 16.6807 11.081 34.2644
Au 11.9223 4.07332 26.7534
Au 12.3941 24.4095 26.9188
Au 10.1829 10.5883 28.784
Au 6.14467 19.8404 8.42061
Au 5.38642 19.487 14.2597
Au 7.22373 21.1775 15.2182
Au 9.64016 7.83829 16.423
Au 7.15225 15.5424 11.3427
Au 1.84711 12.5497 19.7176
Au 5.62625 10.8339 16.2516
Au 7.4578 6.87745 15.3264
Au 4.43124 13.1617 15.4959
Au 12.3581 8.87683 28.1294
Au 3.15793 25.8972 22.1685
Au 11.8291 10.9142 31.2384
Au 5.31542 9.47073 22.1664
Au 3.11876 20.4722 28.2715
Au 6.3402 16.4886 30.3961
Pd 7.70646 25.7377 17.8001
Au 3.80453 10.8881 20.413
Au 5.81073 16.2074 20.3389
Au 4.10203 27.3617 20.089
Au 2.95455 12.8233 22.228
Au 1.11404 22.3591 24.2811
Au 9.54252 22.3894 19.8609
Au 5.31876 24.9423 23.5924
Au 6.37484 19.0253 31.4126
Au 6.39621 13.4123 24.3997
Au 14.8288 13.7283 28.6685
Au 12.2255 28.8319 25.9254
Au 6.98985 21.2366 29.4593
Au 11.685 20.6933 32.2919
Pd 13.7966 16.7732 24.8806
Au 4.05422 25.177 10.9887
Pd 8.35743 14.8518 13.7867
Au 10.9089 26.1257 21.8932
Pd 8.24582 27.6577 25.4272
Au 7.1998 24.4558 6.43657
Pd 8.8835 25.0645 20.3698
Au 6.94062 23.4105 19.4847
Au 2.2959 17.9826 24.2315
Au 10.0005 19.6455 20.341
Au 7.43277 26.018 30.3573
Au 5.96816 23.5342 30.7186
Au 1.86669 15.0183 20.7526
Au 7.43412 23.6526 22.2846
Au 16.0255 20.2459 30.6655
Au 13.4158 24.4588 29.8475
Au 16.6951 24.217 14.1839
Au 6.65998 24.2145 11.2811
Au 12.0507 27.8515 15.6148
Au 2.76589 23.8974 19.1388
Au 3.60796 27.0106 24.7538
Au 2.1934 23.2505 21.941
Au 7.95161 20.1142 10.5448
Pd 11.957 17.7814 18.8613
Au 14.6763 25.2971 34.1214
Au 7.04057 28.2214 27.8505
Au 12.2956 32.3985 24.3042
Au 6.13552 16.8836 13.4746
Au 3.79713 22.2082 23.8932
Au 12.4003 35.1171 24.2815
Au 4.31048 29.7445 18.9716
Au 9.82436 30.6079 9.50549
Pd 11.7945 18.1768 13.3244
Au 13.2005 30.9226 7.87039
Au 2.65922 26.3858 17.9995
Au 9.7393 29.5176 15.0237
Au 9.52922 29.3728 27.3156
Pd 19.6125 24.8211 7.32454
Au 14.2814 33.772 26.008
Au 7.7141 19.1656 17.2035
Au 13.8608 35.569 17.607
Au 9.84581 34.959 19.7737
Au 19.1097 37.1008 22.7101
Au 26.155 35.7306 24.2233
Au 19.9299 24.788 35.5689
Pd 16.4806 30.0112 26.1978
Au 11.0782 20.8008 1.87425
Au 9.5965 15.1175 10.29
Pd 9.06771 12.0929 19.4935
Au 11.9881 13.506 9.90805
Pd 13.2738 11.163 16.5649
Au 19.8552 7.00143 8.85875
Pd 10.7967 11.6075 11.7227
Au 13.0109 5.43461 19.0219
Au 17.3898 1.47819 21.4656
Au 17.4366 15.5113 33.1143
Pd 19.0391 6.45272 21.0496
Au 14.0386 6.78405 28.8899
Au 9.87913 9.66828 32.5198
Au 16.6362 16.5195 35.5399
Au 17.1401 8.3141 34.1985
Au 13.9366 23.2247 3.79608
Au 7.038 19.8864 5.88302
Au 13.3443 10.8784 10.5921
Au 4.19382 22.0631 14.7269
Au 10.3159 9.4616 13.5293
Au 11.7426 18.8438 7.9824
Au 7.06313 12.4196 14.5641
Au 3.27619 16.8531 19.459
Au 18.551 8.02718 11.6354
Au 14.5192 7.32017 8.69462
Au 4.47561 9.44186 18.3087
Au 12.4229 11.1414 14.0326
Au 15.6477 2.28509 16.7487
Pd 15.5583 4.87058 17.7243
Au 8.47235 7.68366 12.9465
Au 15.041 8.60854 11.0263
Pd 16.5155 8.40801 13.4719
Pd 11.8274 7.58808 14.7889
Au 17.0002 3.19595 26.6315
Au 15.3832 3.26651 21.4916
Pd 9.80855 16.1598 29.8891
Au 15.1638 9.18103 28.0849
Pd 9.0187 14.9621 24.3055
Au 16.2089 4.90402 28.5264
Pd 14.431 6.59017 24.2673
Au 7.55547 17.2652 28.211
Au 13.8126 20.1279 35.4445
Au 9.30076 32.3143 26.3536
Pd 14.8193 20.0156 21.4343
Pd 13.7801 13.6234 31.12
Au 19.3231 9.38363 4.58976
Au 6.25098 17.4858 7.12978
Au 10.5831 16.0725 14.7986
Au 11.2058 14.8114 6.02147
Au 8.98121 21.8961 2.98104
Au 8.95493 24.377 4.13094
Pd 8.3388 11.3237 16.9403
Pd 6.48908 13.2004 17.4411
Pd 8.13819 17.2508 15.2794
Au 13.8025 17.3413 9.21211
Au 16.6895 2.37931 23.9177
Au 11.0126 5.35636 16.8909
Au 13.46 6.17563 11.0807
Au 8.85183 9.28996 18.8752
Au 12.6607 3.59437 21.2442
Au 12.8312 8.84925 12.5541
Au 11.2005 13.5083 26.6
Pd 7.04521 13.8136 19.9702
Au 12.1718 10.3004 23.6258
Au 16.3022 9.34902 31.8992
Pd 9.56582 9.53819 23.6299
Au 6.43053 11.0716 19.1631
Au 15.9159 8.42866 20.4708
Au 6.87942 15.5166 26.0724
Au 18.7733 10.4619 24.6673
Au 15.2428 5.22489 30.9517
Au 8.27418 13.0356 26.3846
Pd 13.3786 21.7239 30.2551
Au 12.6243 13.4852 33.5652
Au 4.63994 19.4896 23.9181
Au 17.3778 23.3272 0.385737
Au 15.1262 24.2185 1.47546
Au 10.4932 14.2766 21.8557
Au 9.78309 19.5654 15.0449
Au 8.56611 16.0065 7.72843
Au 8.20079 17.5083 5.37547
Pd 10.1933 19.9588 12.154
Au 17.0135 12.5217 13.2595
Au 8.80603 17.5507 25.4471
Au 14.141 20.4286 12.5985
Au 3.59403 13.5579 24.7967
Au 10.0785 17.6381 34.2137
Au 13.6727 20.549 3.09846
Au 5.68797 15.5724 8.94899
Au 1.70658 17.7662 21.5339
Au 7.38077 8.02311 22.8919
Au 6.05586 11.2559 26.361
Au 4.68176 23.9023 21.0887
Au 10.5127 8.79541 21.2427
Au 14.8686 7.21607 32.6444
Au 7.30864 10.8731 23.9282
Au 5.04679 20.7891 26.3901
Pd 15.3529 15.0248 21.218
Pd 3.47595 18.2704 26.7459
Au 4.27507 16.1373 25.1295
Au 5.13121 13.7011 26.9813
Au 2.09141 20.3607 22.6772
Au 8.27242 23.9343 32.0877
Pd 11.057 23.335 29.3586
Au 15.4466 22.4615 34.7982
Au 9.21264 22.7287 10.9979
Au 8.28015 26.351 10.7581
Pd 11.9364 16.4057 11.1105
Au 5.56655 18.8087 11.5362
Pd 8.81494 24.7742 13.0018
Au 14.5568 17.5833 12.1427
Pd 13.0619 22.6481 6.44347
Au 4.2691 13.8633 19.9693
Pd 8.92269 18.9395 7.61816
Au 2.80214 21.8387 17.2034
Au 14.629 25.4129 15.7129
Pd 7.23967 20.5161 19.6514
Au 2.21919 14.5687 18.0351
Au 3.73789 28.5755 22.5578
Au 10.9523 8.27562 30.415
Au 8.23549 7.80188 25.4992
Au 5.83912 8.92401 25.0056
Au 12.5342 18.9396 26.4727
Au 12.2185 15.9707 31.7308
Au 10.1606 20.0637 25.7311
Au 7.5087 11.5372 28.6499
Au 2.72862 17.0422 16.7568
Au 9.58743 7.99255 27.9376
Pd 12.7103 18.353 33.5965
Au 14.1329 23.7093 24.9035
Au 14.1423 19.7357 28.4951
Au 9.61901 22.1877 33.6405
Au 23.6392 22.9766 37.4104
Au 9.30925 27.7304 29.4494
Au 14.1099 28.1174 32.3306
Au 5.1809 20.3737 16.9294
Au 10.587 26.5111 3.43249
Au 9.05446 21.994 13.5473
Au 5.77155 23.113 16.894
Pd 12.7785 26.6057 9.30064
Pd 9.98999 24.3071 17.8768
Au 4.49709 16.1722 11.3769
Pd 5.76023 25.683 15.7233
Au 5.57016 14.117 13.0213
Au 17.2146 26.0313 21.5602
Au 3.77012 27.3044 12.6064
Pd 6.42869 22.1394 24.3376
Au 10.5464 27.2415 13.2438
Au 13.3804 30.2376 16.1727
Au 4.04946 30.8822 21.3378
Au 4.64596 20.9656 30.6284
Pd 4.82494 27.7504 17.2398
Au 5.68702 29.1208 11.9729
Pd 10.4046 24.9182 24.4844
Au 4.26105 22.7346 11.8499
Au 7.4642 30.2912 25.8493
Au 11.2971 23.5679 13.272
Au 15.5641 17.4665 22.8383
Pd 17.5744 15.5138 22.9653
Pd 7.46987 19.706 24.3349
Au 17.0411 32.3748 27.5106
Pd 8.34795 25.8751 27.6659
Au 21.2716 36.5558 27.0084
Pd 13.8283 8.91167 30.6057
Pd 16.2847 27.6109 27.3608
Pd 6.22544 22.1664 9.77658
Au 18.3797 27.0663 3.37809
Pd 12.4364 25.2378 7.15004
Au 6.32622 23.6158 13.9197
Pd 14.2449 24.3442 18.2573
Au 7.72325 28.8931 9.89353
Au 12.8934 23.3615 15.7538
Au 12.3521 29.5377 13.4524
Au 11.7929 32.5662 9.51386
Pd 10.3865 28.0552 10.5634
Au 6.08988 27.6229 23.5558
Au 15.3955 26.4523 10.1342
Au 5.66908 27.0626 10.2489
Au 9.2383 29.4096 18.4925
Au 2.58562 24.5707 24.5432
Pd 5.97115 18.1071 25.9966
Au 3.89646 24.7979 13.7046
Au 3.18884 26.8385 15.3081
Au 5.10891 25.2998 18.5471
Au 15.6269 34.4059 28.4901
Pd 11.3983 26.0619 28.8959
Pd 13.6489 26.748 27.1805
Pd 8.26497 12.9108 22.3264
Pd 12.9459 31.8766 21.6023
Pd 13.0566 16.2836 22.3303
Au 26.1231 33.0418 23.8758
Au 9.42317 21.6592 30.9354
Au 19.295 34.4959 21.9307
Au 14.3644 20.8063 32.8496
Au 15.8058 32.405 30.3066
Au 3.86119 19.4746 20.8367
Au 8.847 26.472 5.80321
Au 7.6388 31.0356 11.5373
Pd 9.95801 23.9754 6.74525
Au 18.1506 29.0104 5.29664
Au 7.32845 26.7057 8.10248
Au 18.8351 28.8479 15.0363
Au 9.13857 28.6599 7.53072
Au 18.2138 36.1412 15.4006
Au 20.6914 28.0918 4.54972
Au 20.965 36.1822 15.6665
Pd 22.8117 32.2697 16.5683
Au 15.0074 36.6563 19.8074
Au 8.86049 32.2453 13.8627
Au 9.71439 33.6115 16.1621
Au 17.5788 32.2787 22.1535
Au 7.40079 28.6267 16.4937
Au 5.20031 28.93 25.8286
Au 8.69109 27.8534 20.9948
Au 6.11897 29.202 21.2203
Au 20.2569 31.7249 17.8216
Au 8.63122 32.7942 18.7001
Au 20.5473 33.4991 15.2295
Au 3.38011 24.3541 16.3975
Pd 31.4881 27.7177 26.9872
Au 30.6178 33.5814 24.0844
Au 5.89709 26.3864 26.1282
Pd 21.0605 18.211 30.0672
Pd 10.5561 27.9026 23.8075
Au 18.2875 26.7517 31.7607
Au 18.6251 20.9308 4.33055
Au 9.72563 12.2269 14.3434
Au 15.419 21.4695 0.953518
Au 21.7624 2.61932 14.3938
Au 19.521 4.3267 14.38
Au 19.4378 1.81249 23.1348
Au 15.3102 4.77527 9.51628
Pd 18.9235 6.22596 23.9433
Au 23.8055 2.21106 12.6911
Au 16.6857 6.95306 22.5599
Au 21.3152 10.6017 25.9219
Au 15.6634 10.8867 24.7029
Au 19.0306 3.60947 25.0066
Au 18.3252 21.7313 29.7761
Au 16.5333 4.98779 24.5355
Au 14.7485 18.1494 4.64247
Au 23.6567 19.1078 3.3596
Au 20.8853 13.7438 3.69679
Au 14.3818 12.4065 8.45313
Au 12.2563 8.36377 9.91453
Au 11.7485 18.5957 3.26607
Au 11.2547 16.1321 8.36822
Pd 16.7596 12.4987 6.85598
Au 7.90208 9.5966 14.9049
Pd 16.7259 9.5098 17.739
Au 15.1728 4.32268 15.026
Au 26.256 11.6325 4.35215
Pd 23.847 4.25676 19.208
Au 9.86806 9.08961 10.8812
Au 24.2676 1.57586 15.3151
Au 14.5376 12.9702 19.7425
Pd 12.4794 8.43552 17.3283
Au 19.6389 11.3035 21.4138
Au 24.3648 1.66545 18.0768
Au 11.6014 3.14387 18.7202
Pd 17.4017 17.1015 17.5888
Au 13.128 3.54019 16.5878
Au 20.6243 4.40444 22.7843
Au 14.268 11.1779 32.4796
Pd 18.6838 16.7874 29.647
Pd 12.8303 6.55196 26.4522
Au 14.5451 9.30023 34.3609
Au 8.87559 11.6952 31.0169
Pd 11.6926 22.4856 24.9264
Au 18.1522 18.1739 33.8583
Pd 14.5842 19.3067 7.38032
Au 13.0107 27.9535 3.91925
Pd 17.0147 10.5181 5.01695
Pd 6.45083 21.3647 12.4267
Pd 13.3032 16.9911 6.4928
Au 15.602 12.6041 10.8976
Au 10.7863 14.2782 12.5911
Au 17.9189 12.2644 9.34161
Au 11.3659 6.0249 28.6912
Au 10.404 20.7259 9.53068
Au 23.0691 3.39936 10.4478
Pd 20.7583 15.5068 15.0729
Au 18.2272 12.3163 15.7529
Pd 8.31485 13.0958 11.8636
Au 22.3731 14.5749 20.3596
Au 19.4214 17.2762 21.8447
Au 9.34966 15.4648 27.2571
Au 10.7362 10.1933 16.1131
Au 23.2469 11.9078 24.3198
Pd 14.5356 14.7083 35.4202
Au 15.2963 12.1459 22.3287
Pd 16.9877 8.35138 24.8959
Pd 16.3677 13.3205 26.304
Au 18.5633 5.598 29.6787
Au 19.6412 7.5738 33.3339
Au 10.086 12.3306 33.3087
Au 17.4835 10.1358 29.558
Au 7.63998 19.8392 27.0878
Au 12.7362 25.7946 32.1871
Au 13.9687 30.0137 30.2941
Au 10.8069 23.7895 2.27223
Au 9.6519 19.8085 4.75617
Au 16.7588 21.8079 12.6809
Au 12.4877 19.1993 10.7803
Au 11.4782 15.362 17.3583
Au 12.2201 29.8483 5.65673
Au 13.0666 15.7201 13.4557
Au 5.93158 22.2194 7.06364
Pd 4.68143 15.2515 17.6193
Pd 18.6382 14.6952 25.4542
Au 9.61214 17.2718 17.574
Au 8.89638 14.3288 16.434
Au 10.5708 16.7989 20.9575
Au 9.48661 14.8574 19.219
Pd 18.1382 14.7694 14.2839
Au 4.16806 17.2241 22.3668
Pd 10.5523 11.4869 21.7144
Au 23.2867 21.6127 23.5609
Au 14.6437 9.02471 22.846
Au 12.0969 10.7805 34.1121
Au 2.37655 20.3531 25.5111
Au 12.7286 6.26534 31.1319
Au 10.509 26.8813 19.2361
Au 8.64604 19.0437 30.0244
Au 8.33998 9.20329 30.1069
Au 5.02551 23.714 25.9787
Au 19.1032 19.3632 28.326
Au 23.2276 13.0968 33.7824
Au 11.7998 18.1761 36.2155
Pd 7.07825 9.05527 27.6141
Pd 14.4348 17.5827 20.275
Au 4.43899 17.9209 9.25905
Au 3.38138 20.3743 12.6909
Au 11.294 27.3216 5.91302
Pd 11.8559 21.6668 20.9834
Pd 10.7016 21.3016 6.89041
Pd 14.2429 22.5911 20.3677
Pd 11.9602 21.0086 13.9981
Au 4.67522 21.7477 19.2308
Pd 14.9004 29.572 11.969
Au 3.44467 17.7991 13.3021
Au 2.956 19.5108 15.4776
Pd 25.4851 14.0792 16.1055
Au 16.5717 22.5138 25.4977
Au 4.99615 14.6888 22.5476
Au 2.08981 21.3648 20.0022
Au 10.5892 26.7873 26.4968
Pd 10.0594 18.3016 27.8094
Au 16.5104 18.2574 28.7548
Au 11.7989 14.8005 24.2426
Au 2.30026 15.421 23.3029
Au 12.8027 24.2531 22.598
Au 8.09241 31.3367 16.451
Au 11.885 24.4529 19.9851
Au 8.36768 21.0716 22.1224
Au 12.1904 21.6352 27.4896
Pd 22.5421 16.4726 25.5458
Au 9.81541 23.758 26.8753
Au 10.9873 20.2212 34.8454
Pd 12.2373 17.5235 29.1747
Au 22.221 21.8583 0.56685
Pd 11.3762 21.9419 4.28948
Pd 14.4154 28.0328 14.2916
Pd 15.8562 28.35 22.3163
Au 12.7948 25.7571 13.7853
Pd 8.3178 21.6346 8.14044
Pd 6.22746 26.2928 12.8757
Au 16.8087 26.9221 15.4038
Au 11.2092 17.6054 24.0404
Au 21.3699 19.9091 18.5081
Au 14.3874 18.1645 17.4611
Au 4.12298 20.5633 10.1186
Au 8.39175 26.1341 23.0796
Au 20.4047 29.0439 17.6183
Au 5.54409 18.4313 18.8521
Pd 6.79106 27.9266 19.0133
Pd 10.82 32.02 19.9747
Au 10.1464 26.2674 8.40406
Au 9.72056 32.7983 11.2866
Au 4.6637 22.6275 28.5016
Pd 13.7588 27.1882 29.8242
Au 25.4005 22.523 19.5369
Au 5.57253 21.4293 21.8423
Au 20.222 22.3061 17.4068
Au 9.02844 22.271 24.6366
Au 8.99542 18.259 22.6213
Au 5.39383 18.9813 28.7607
Au 11.7755 31.2348 27.1469
Au 10.4112 31.4574 22.5854
Au 4.95286 16.2845 27.9642
Au 17.7503 20.7242 -0.339299
Pd 16.0659 16.9184 14.9277
Au 8.31751 24.2199 8.94607
Pd 22.0565 26.2745 6.32144
Pd 25.594 19.525 7.81338
Au 12.2161 32.2221 12.2017
Au 27.3185 26.1895 5.26647
Au 16.5375 23.5852 16.8321
Au 16.6139 26.0424 17.9427
Au 12.054 22.4489 18.2542
Au 19.7723 35.2697 13.3151
Au 5.36342 30.3392 16.4725
Au 13.6786 36.0487 22.0603
Au 23.6779 27.1377 17.4051
Au 5.61301 30.4689 23.6185
Au 3.4397 25.4574 27.0598
Au 18.5353 27.3041 19.4895
Pd 12.0415 29.0866 18.2612
Au 5.39869 28.2288 14.5885
Au 7.91562 32.0514 23.8265
Au 16.0567 30.0743 31.9828
Au 14.9115 36.0545 24.5686
Au 14.2683 32.0228 28.1663
Au 8.84222 19.6856 32.8883
Au 14.6678 23.0486 27.6721
Pd 17.6585 28.9807 17.6138
Au 11.5309 27.9572 31.165
Au 23.3783 35.0685 28.0414
Au 11.5063 34.202 21.8054
Au 11.5556 33.7947 26.4836
Au 10.061 30.2627 12.3028
Au 15.2392 21.1008 5.26635
Au 30.6966 17.3683 7.36397
Au 17.6968 26.2883 5.95115
Au 17.9162 36.7112 20.2254
Au 15.732 27.8698 4.6837
Au 7.00637 30.323 14.1556
Pd 19.202 26.6994 16.8547
Au 27.098 22.0509 8.84212
Au 15.9386 32.2312 15.9512
Au 15.7141 23.2332 22.5417
Au 14.3008 31.4394 13.8863
Pd 22.5012 31.5346 19.2529
Au 10.7192 34.1975 13.4748
Au 14.4939 27.7789 17.1546
Pd 24.0725 24.4182 12.6978
Au 21.7132 34.5218 25.3052
Au 18.2094 33.9003 16.8294
Pd 20.9965 34.2651 17.7247
Au 14.6871 25.3263 20.8425
Au 2.89283 19.3303 18.2631
Au 6.34687 26.1196 21.0889
Au 15.6256 25.6332 31.6244
Au 11.6226 33.939 18.1828
Au 23.2106 33.7599 30.4937
Au 16.404 27.5393 33.5383
Au 19.4853 23.447 25.3764
Pd 14.1041 31.0028 25.5671
Au 15.4916 31.8722 20.4466
Au 20.5835 32.9392 30.74
Pd 18.1178 10.1175 7.49809
Pd 9.81188 5.88658 14.4996
Au 27.0579 6.2637 8.0661
Pd 12.0193 13.7016 15.0447
Au 8.06927 10.5214 12.3921
Pd 26.2436 8.99646 26.9327
Pd 21.782 5.42089 15.1466
Pd 25.9458 5.08481 23.774
Pd 21.4939 9.98177 23.2828
Au 18.1654 5.77794 26.6325
Au 19.285 8.55417 22.7494
Au 14.1358 3.78506 23.7539
Pd 11.9598 5.23147 24.1566
Au 25.2139 4.17819 26.2409
Au 29.4254 10.1093 30.5635
Pd 24.0818 18.0669 6.01322
Au 27.8628 16.0506 4.37969
Pd 16.6115 22.4956 3.13061
Au 20.2606 15.8048 5.41717
Au 15.958 12.7705 4.03494
Au 19.549 9.75122 9.83631
Au 21.3647 15.0259 1.36985
Au 10.8018 12.6112 17.2209
Au 15.8736 8.69248 6.66537
Au 15.8032 10.2599 8.89652
Au 17.2679 7.93523 9.14534
Au 17.6801 14.4252 11.2733
Pd 17.2231 2.91597 13.9123
Au 21.8819 8.47889 4.69573
Pd 20.6236 3.83602 17.051
Au 21.1249 8.93102 20.6461
Au 29.3634 8.73552 23.3824
Au 21.2605 4.90408 20.1014
Pd 16.368 5.49567 20.2157
Au 15.8642 12.1618 17.4479
Au 11.6988 10.8773 26.3483
Au 14.2508 10.1468 18.773
Pd 14.3383 11.5487 27.0171
Au 18.2767 26.4968 28.9073
Au 26.8156 2.68872 24.6382
Au 13.0573 8.07543 20.3753
Au 19.7863 8.20039 25.7142
Au 18.8854 20.6763 37.0897
Au 18.788 18.0012 36.5173
Au 20.9828 11.646 33.4341
Au 18.7273 17.1308 7.2307
Au 13.2557 19.8235 0.608055
Au 23.9738 10.5664 9.12821
Au 16.4694 19.2228 13.4386
Au 20.354 20.0062 -0.279818
Pd 21.5178 20.3555 4.97943
Au 20.3983 18.7183 9.29014
Au 14.6699 12.9125 14.836
Au 9.9714 18.0116 10.0413
Au 15.62 23.7441 6.00999
Au 10.8631 20.4667 23.1936
Au 14.1761 8.91933 15.2106
Au 24.7804 13.2918 19.9956
Au 11.3793 10.3178 18.9734
Au 17.1406 16.7782 20.3162
Au 27.9776 17.5755 19.3265
Pd 26.0542 12.0607 17.8846
Pd 24.5368 13.9252 22.6035
Pd 13.5703 6.18574 16.2553
Pd 20.2214 16.3327 24.1977
Au 8.1147 15.639 21.7218
Au 15.8054 18.7576 26.0405
Au 16.3039 16.0603 25.4817
Au 20.7869 13.5375 35.5997
Au 18.7951 4.70436 18.8964
Au 17.6954 13.2842 21.2881
Au 9.51969 21.3524 28.14
Pd 21.2079 19.6514 32.4572
Pd 18.7957 10.0895 32.8445
Au 15.6334 6.85932 26.6761
Au 26.5361 23.1091 2.29999
Au 19.101 21.7655 1.7919
Au 9.93451 13.4172 8.11549
Pd 12.0542 21.9846 11.3318
Pd 16.2942 19.6572 2.97881
Pd 17.0695 19.1561 5.77201
Au 14.3157 15.0476 10.6178
Au 5.35599 17.5925 16.2118
Au 16.3661 14.574 8.74182
Au 14.2018 23.2748 13.275
Au 26.6372 19.966 19.7462
Pd 13.7689 15.9421 15.968
Au 19.1106 19.6639 13.8488
Au 5.77109 12.129 21.7646
Au 16.9579 21.5711 20.7599
Au 18.5142 9.14401 19.9868
Au 10.7446 7.22317 18.9359
Pd 10.1955 23.3421 22.3406
Au 16.5641 17.4896 31.4001
Au 34.2879 16.9267 25.9437
Au 17.1313 10.6807 26.9148
Au 12.2093 14.8668 28.8995
Pd 7.23383 22.6369 27.0625
Au 10.0487 25.5961 31.0784
Pd 25.8259 18.4488 28.5584
Au 21.2537 13.9782 26.0184
Au 16.9131 23.312 32.6438
Au 13.7646 18.6864 31.1243
Au 8.31765 17.0519 32.0947
Au 16.6775 19.776 35.7695
Au 14.1639 24.0398 8.7579
Au 15.8631 18.9002 0.301141
Au 16.4002 17.0169 10.1669
Au 24.5386 22.3544 7.81684
Au 15.6679 14.8379 5.9608
Au 23.809 23.097 10.3676
Au 13.2379 20.0868 19.2191
Pd 10.5663 25.2041 15.26
Au 8.21988 23.9993 15.7367
Au 19.0792 26.309 14.0021
Au 14.0603 18.7078 14.7355
Au 19.1431 24.5895 18.6645
Au 17.2194 14.2453 18.9068
Au 17.5161 19.1772 21.7009
Au 13.5284 19.1896 23.8971
Au 23.8349 30.6429 27.2974
Au 20.547 17.4799 17.2578
Au 10.4357 20.084 17.7383
Au 22.6552 21.4349 20.8645
Au 10.1507 12.3192 24.3026
Au 17.4171 24.6273 24.025
Pd 15.1312 25.9166 23.489
Au 15.0119 14.4535 23.8214
Pd 20.148 24.5138 28.0372
Au 21.0247 29.7016 34.1197
Au 17.1425 20.6743 33.2503
Au 17.2664 25.0942 34.6477
Au 26.4084 15.926 32.6131
Au 19.4072 35.8103 25.0681
Au 4.49917 11.1924 24.0573
Au 15.3575 21.7279 8.05669
Au 16.2822 25.2829 3.63947
Pd 11.6361 24.5228 4.7513
Au 8.3684 22.1438 5.51575
Au 17.4834 14.1842 2.20424
Au 5.58679 24.6042 8.72048
Au 15.8713 31.1438 8.3128
Au 22.8773 28.9794 5.96432
Au 24.478 16.6948 23.7044
Au 10.8209 25.3329 11.092
Au 19.042 16.4984 9.95945
Au 20.3437 29.1171 20.3616
Pd 17.2096 27.4518 24.6273
Au 11.164 29.1865 20.989
Au 15.0636 21.6073 17.9358
Pd 10.2225 30.3571 24.93
Au 32.7437 20.2942 23.8615
Au 13.2356 27.4525 22.2467
Au 14.9638 11.3052 29.8236
Au 12.7149 26.2525 24.6786
Au 20.8485 22.5811 22.7816
Au 19.5461 33.6403 26.9929
Pd 15.0711 30.8435 22.9766
Pd 20.0498 21.872 27.6244
Pd 13.201 31.6823 18.7455
Au 29.5135 21.312 26.7827
Pd 18.5847 28.8864 27.4185
Au 11.4027 20.0333 29.5843
Pd 19.4066 21.8476 32.2917
Au 18.1942 33.8772 29.4862
Pd 15.3796 26.067 7.46073
Pd 21.5369 17.9927 6.50841
Au 16.508 19.4248 16.2832
Au 11.3377 23.4826 9.06232
Au 11.8346 18.0343 16.1355
Au 24.0481 23.8613 1.48736
Au 11.4685 31.9105 14.7725
Au 30.1245 20.0198 24.011
Au 17.0069 31.5273 10.7707
Au 22.1923 20.7472 7.64953
Au 18.7121 17.3258 15.1719
Au 16.2735 19.3091 19.105
Au 12.2162 36.1791 19.7409
Au 13.4391 34.2761 10.9673
Au 18.7066 34.1498 19.3931
Au 16.2172 37.1083 22.2952
Au 8.13857 26.6802 14.7954
Au 13.4524 33.0679 16.3635
Au 22.3565 30.4245 21.7232
Pd 15.848 25.3092 26.1445
Au 14.3101 29.3388 27.7591
Pd 28.1631 34.3879 20.1208
Au 19.7552 21.4395 20.3126
Au 14.5689 16.0418 33.0403
Au 18.2119 21.9392 23.3019
Pd 25.0074 31.013 15.0173
Au 17.5284 29.8745 20.6075
Au 17.9254 18.0195 24.2373
Pd 20.775 23.4736 30.4942
Au 11.4019 23.4299 32.0362
Au 29.2192 16.0169 9.8845
Au 33.0494 27.9054 13.9803
Au 13.19 27.0143 19.5112
Pd 8.15032 28.3618 12.65
Au 25.8297 26.8865 7.82615
Au 17.6996 33.7126 14.172
Au 23.2946 27.3498 3.8302
Pd 16.4612 24.1454 11.1747
Pd 24.7109 28.1035 14.9677
Pd 10.4289 22.2857 15.8975
Au 6.3994 32.0349 21.4109
Pd 13.7172 34.0425 20.1134
Pd 20.5641 28.3062 12.9739
Au 15.0277 30.267 5.83222
Au 22.3931 36.4185 18.2243
Au 8.76533 33.3912 21.5632
Au 29.2098 28.5379 23.5081
Pd 9.76516 27.2924 16.802
Au 8.28818 21.9263 17.562
Au 21.5987 37.4078 24.5
Au 24.7427 29.2054 29.8163
Pd 24.0059 32.9531 21.2234
Pd 12.599 29.7858 23.3867
Au 6.71521 30.7873 18.8101
Au 22.4286 32.0551 32.5807
Pd 21.5756 31.8605 25.4263
Pd 7.6962 24.6187 25.1879
Au 25.6483 34.9053 29.6057
Au 21.354 21.7457 36.6131
Au 18.6791 19.3174 31.1886
Au 16.8459 16.8718 1.73583
Au 26.5112 5.71509 13.8675
Au 24.3179 15.0068 10.7287
Au 24.2945 2.10924 20.8112
Au 14.8965 4.20848 12.3701
Au 26.3347 3.29615 19.1715
Au 23.2804 3.64281 16.6074
Pd 19.6071 2.74411 20.5961
Pd 25.371 11.3579 26.0915
Au 23.518 6.24264 30.975
Au 19.2135 1.83292 18.0495
Au 16.9348 2.80588 19.1729
Au 21.5638 6.92355 22.5462
Au 14.3271 11.9943 35.2003
Au 14.2207 2.87271 19.0563
Au 19.3213 16.1032 2.84355
Au 27.0937 13.2564 6.95027
Pd 13.7903 28.0096 6.75393
Au 10.7698 17.51 5.75592
Pd 22.6846 11.3273 6.80113
Au 23.1603 15.5883 5.41284
Pd 17.1656 10.3496 11.2413
Pd 19.0709 5.39284 11.8674
Au 24.4127 13.6771 6.90535
Au 14.4127 6.68786 13.5715
Au 16.2298 7.04654 15.9533
Pd 15.6164 14.9305 13.0751
Au 17.2462 5.693 13.8809
Au 19.379 12.0508 11.7262
Au 22.5295 11.4882 13.5186
Au 24.1065 18.4782 26.4118
Au 20.3282 12.5423 23.8478
Au 25.0712 9.34996 17.1276
Au 17.7664 3.86722 16.4656
Au 29.9772 6.30655 24.4068
Au 17.1003 13.6333 35.5121
Au 18.4255 8.70183 15.7706
Au 21.9387 2.12382 22.0317
Au 8.93808 10.3938 26.2492
Au 19.3402 14.7382 28.0473
Pd 18.9645 18.8335 19.3371
Pd 14.4796 16.2037 30.1293
Au 17.517 6.5339 32.1117
Au 24.8919 6.94302 25.7281
Au 12.6058 22.3961 34.3484
Au 28.5921 20.7453 4.45587
Au 27.7711 18.4413 3.04905
Pd 23.5113 12.7421 4.57572
Au 12.9683 22.6071 1.29427
Au 13.4847 13.7004 4.98295
Au 18.3469 18.0285 -0.533516
Au 12.6021 19.8202 5.56436
Au 20.6864 9.45174 6.9442
Au 20.2173 14.012 10.0057
Au 18.8954 15.5828 0.306133
Au 13.1796 10.7942 21.1448
Pd 15.0718 15.7342 18.4399
Au 16.2566 10.5501 15.2724
Pd 21.4957 13.6238 6.42355
Au 18.9684 14.8742 16.9694
Au 11.2722 5.86466 21.3531
Au 27.1237 13.3206 21.3551
Au 2.58401 22.7616 26.6535
Pd 13.5312 21.6996 23.1016
Au 19.8213 3.97046 27.6794
Au 26.444 12.8038 24.0507
Au 20.7185 12.5987 16.8185
Pd 20.2259 6.93095 28.1042
Au 11.038 8.33037 25.5403
Au 24.4702 5.0817 28.7114
Au 17.5819 12.774 28.8538
Au 31.4741 20.9933 32.263
Au 27.3046 14.8089 25.6864
Pd 21.3451 9.48093 31.8284
Pd 26.773 25.7615 33.9646
Au 21.379 11.1038 4.3016
Au 28.4503 13.3602 4.75546
Au 21.1636 15.8094 8.04332
Au 31.1541 12.1989 9.62907
Au 19.5048 21.3798 11.711
Au 29.2426 18.1795 5.36126
Pd 7.21959 16.0477 17.9286
Au 17.8463 21.7218 15.2731
Pd 13.0952 27.5097 11.7359
Au 25.6242 12.7832 9.27753
Au 23.3411 18.1918 16.9708
Au 16.5722 20.9251 27.8085
Au 27.8004 17.4759 11.8488
Au 21.7977 20.4072 15.8783
Au 16.0917 20.3339 23.8104
Au 18.7729 23.8281 21.4149
Pd 16.48 11.1295 20.0458
Au 29.198 19.3155 21.0945
Au 24.7566 15.9971 20.9959
Au 6.66085 16.8194 23.655
Au 25.053 19.4052 24.0289
Pd 26.0839 21.495 33.5628
Pd 21.8821 12.8739 31.273
Au 20.9361 9.3193 34.7811
Pd 24.9539 17.6798 31.1637
Au 26.0373 10.5088 33.4033
Au 15.5743 13.4833 33.2442
Pd 23.8316 34.3621 23.514
Au 16.711 15.5007 28.1475
Au 19.0228 28.8447 30.0576
Au 20.8271 17.567 0.823565
Au 8.74212 11.4278 9.84562
Au 23.9071 16.0438 8.18171
Au 23.1061 18.4945 8.82953
Pd 28.3126 19.9483 7.34244
Au 27.2779 11.9869 11.4019
Au 20.8158 9.45388 12.4844
Au 18.9303 23.8764 12.727
Pd 29.3438 24.9919 13.9261
Au 21.8919 17.0704 3.49001
Au 10.789 31.317 17.2932
Au 11.8684 35.1692 15.7448
Pd 23.2382 27.8438 8.31975
Pd 26.3369 19.0413 17.0573
Au 12.3102 18.835 21.5325
Au 17.5397 12.8053 23.9086
Au 26.968 21.6427 17.1913
Au 23.937 23.7645 21.5603
Pd 17.798 21.5103 18.2071
Au 24.2548 15.469 18.0791
Pd 15.4538 18.4911 33.6837
Au 16.5289 14.5983 30.7652
Pd 24.9272 29.4877 25.2052
Au 11.6981 16.3696 26.5687
Au 26.7671 24.6593 25.0979
Au 12.4255 12.145 28.8701
Pd 27.1952 32.2566 21.5408
Au 18.6635 13.0443 33.3894
Au 20.6449 27.2743 27.7556
Au 5.88797 25.01 28.4158
Au 16.01 17.042 7.38645
Pd 29.1279 22.4559 6.71884
Au 20.7125 22.8026 3.72486
Pd 14.3429 31.7573 10.513
Au 22.462 28.3339 10.9331
Au 24.9499 21.2904 1.05686
Pd 18.0294 19.1893 11.0982
Au 16.5014 28.5698 7.41777
Pd 28.4513 20.1727 15.5324
Au 29.9741 12.7878 12.0806
Au 17.849 33.0272 8.55653
Au 19.9194 27.7936 7.23627
Au 19.189 19.7053 16.6681
Pd 24.9441 26.1005 26.3779
Au 31.3541 14.1231 27.9194
Au 23.7585 24.9029 18.9494
Au 21.9302 19.6582 27.7308
Pd 26.1784 25.2062 20.2949
Au 8.24031 29.3916 23.2532
Au 15.7516 25.4327 28.8647
Au 23.6419 20.3158 37.2338
Au 23.9205 31.4727 23.694
Au 33.8243 26.4477 28.0429
Au 14.2275 17.429 35.8307
Au 26.5968 17.998 21.7954
Au 11.8063 28.8334 28.6766
Au 11.0199 13.5853 31.1178
Pd 16.6948 30.2149 29.0328
Au 24.634 23.9524 33.1267
Pd 30.3642 29.6945 25.6358
Au 29.6211 24.99 6.35717
Au 25.1605 29.7239 7.54796
Au 17.6712 21.7285 6.88189
Au 30.6102 8.49678 12.7055
Au 12.8807 20.5445 16.4826
Au 20.4203 30.3085 6.108
Pd 16.9232 28.7393 10.2529
Pd 19.7214 31.9271 10.1963
Au 20.0808 30.5287 23.2238
Au 17.0522 24.0274 8.39907
Au 17.6236 23.6393 27.7356
Au 12.3174 29.9658 10.6114
Au 28.904 29.1094 27.99
Au 21.1866 24.1273 1.33493
Au 29.0097 17.5788 23.2038
Au 23.6587 33.9237 18.6388
Au 24.091 24.1791 24.4354
Pd 19.8426 31.7808 20.6384
Au 24.8483 26.5551 29.0814
Au 16.3351 34.5405 20.87
Pd 18.7317 28.1401 22.3421
Au 17.5152 30.0385 23.7593
Pd 18.3426 17.2268 26.8115
Au 20.9372 16.8508 27.7232
Au 28.8092 24.419 21.0728
Au 10.0237 15.1143 33.1508
Au 22.5224 22.0919 32.0413
Au 23.7086 22.0264 34.8445
Pd 16.6588 23.9111 19.6115
Pd 21.918 32.7709 27.9678
Au 17.7447 31.4293 6.34251
Au 18.179 23.6674 5.02664
Pd 29.4077 24.4606 25.8828
Au 32.4495 22.9301 15.0201
Pd 12.9196 21.1773 8.77565
Pd 12.2315 25.7549 17.2895
Au 30.833 26.1211 8.79031
Pd 22.6869 23.3542 5.97243
Au 14.0101 25.7763 5.05204
Au 8.58145 30.6561 20.7921
Au 15.0782 21.5204 15.1041
Au 21.5777 32.8511 22.8349
Au 28.1081 21.8186 21.0066
Au 28.1773 34.029 25.5601
Au 9.96643 33.7936 24.1494
Pd 15.6472 33.576 18.258
Au 13.8946 29.574 20.5589
Au 28.2823 34.5319 22.8968
Au 18.6793 36.0698 27.799
Au 23.5514 35.8038 20.645
Au 16.2603 27.9687 30.3157
Au 26.1421 32.6796 19.204
Au 16.7185 36.0394 17.8059
Pd 22.0022 28.5236 29.6985
Au 19.3975 24.5749 32.9234
Au 22.2771 29.4113 24.843
Au 18.5271 29.3858 32.9067
Pd 19.4276 31.3979 28.7363
Au 14.3534 16.9179 27.5464
Au 26.9421 32.7218 30.6541
Au 17.2069 16.7536 4.5635
Au 23.5719 16.8991 1.35719
Au 27.6732 10.9487 8.65444
Au 14.8246 7.44766 18.2803
Au 12.151 12.3341 6.93268
Au 17.5984 7.06976 18.3824
Au 19.6456 2.67681 12.3211
Pd 24.6387 11.7474 15.3497
Au 26.7231 2.04639 16.6878
Au 28.743 8.50604 20.6827
Au 28.8313 9.52336 26.3894
Pd 20.8385 5.58164 25.6999
Pd 24.2576 11.511 31.5977
Pd 24.399 7.0461 22.9142
Au 19.1576 8.29204 30.5319
Au 26.6098 18.7458 5.41639
Pd 21.7679 11.3173 10.6606
Au 18.5786 7.61239 6.52695
Au 13.321 13.1286 12.3971
Au 14.1516 17.7457 2.09004
Pd 22.0195 8.71047 9.20301
Au 17.2394 3.52606 11.2828
Au 16.4051 6.29197 11.3508
Au 25.7917 3.73227 11.593
Au 25.6269 8.35635 19.8826
Au 21.5933 6.87874 6.7918
Au 18.0014 5.11757 9.26688
Au 23.1662 5.1537 24.5614
Au 24.3397 16.3682 15.2696
Au 25.7061 5.50496 20.8705
Au 25.2277 11.2764 22.2011
Au 23.9933 13.383 29.7162
Au 25.1487 4.76781 9.21341
Au 31.9479 7.99775 23.0026
Au 22.6034 3.8528 26.9895
Pd 24.2698 2.76559 23.7438
Au 30.3501 6.24766 21.6703
Pd 23.8849 15.0096 31.9222
Au 23.3851 10.1089 33.8084
Au 27.7292 17.4517 30.5649
Au 23.4123 9.29929 27.1386
Au 21.7603 4.96673 29.2789
Pd 25.2948 14.8519 34.9352
Au 19.1494 11.2898 35.4362
Au 31.8342 11.1494 29.71
Pd 15.2401 19.6148 10.1849
Au 27.9023 23.572 4.55402
Au 29.1823 6.46361 14.0548
Au 29.1378 8.84043 15.5736
Au 18.697 11.9382 3.30393
Au 30.9689 8.30296 10.0144
Au 18.1581 14.1597 4.84764
Au 23.9927 18.977 14.3218
Au 22.1575 13.7378 12.0247
Au 29.6938 6.36777 8.59465
Pd 23.3702 12.9091 17.7504
Pd 25.2003 16.7875 12.6362
Au 22.7773 13.8182 15.1784
Au 13.5207 14.7384 7.77896
Pd 20.3923 18.0288 12.03
Au 26.8903 15.5332 23.0655
Au 25.1684 7.78289 12.7608
Au 22.4499 17.2705 19.4198
Au 23.5644 9.25088 21.6794
Au 24.3654 14.2106 25.3966
Pd 22.8033 6.61107 27.3254
Au 34.6511 13.1764 15.3687
Au 14.5121 4.32534 26.3796
Au 24.1718 26.5381 33.9877
Pd 19.6933 16.1285 19.4523
Au 25.9087 13.2096 32.8961
Pd 20.3162 7.15626 18.7572
Pd 28.8938 17.8999 16.8044
Au 19.1588 15.5695 35.1697
Au 10.781 18.189 31.5684
Au 26.1498 28.3345 27.3518
Pd 29.4806 17.9639 14.123
Au 18.5614 30.0912 8.51245
Au 21.6115 23.1745 11.9339
Au 17.3672 19.3 8.49882
Pd 23.793 24.9592 8.08839
Pd 25.8764 20.6988 3.61749
Au 21.6906 20.2419 13.076
Pd 13.5413 13.6736 17.3995
Au 35.5103 15.5432 24.0491
Pd 14.917 10.7115 12.9196
Au 19.3486 11.9352 5.8829
Au 24.5559 9.41814 24.3721
Au 33.1141 19.0813 11.0224
Pd 28.9371 13.5794 23.3746
Au 19.3037 24.0949 10.033
Pd 28.5795 11.1118 22.1971
Au 11.7353 12.9177 19.6718
Pd 32.3544 11.957 16.3813
Au 22.1969 14.4903 23.5488
Au 21.5286 15.4156 30.1856
Au 19.8123 19.7851 23.2031
Au 20.0504 9.90038 28.2488
Au 27.302 23.4485 32.2087
Au 18.327 22.5283 35.0534
Au 23.412 17.2651 28.9995
Au 28.4323 14.7691 31.2288
Au 24.7159 23.548 27.0884
Au 20.771 6.30256 31.3209
Au 32.4293 26.4946 22.474
Au 24.0806 20.7467 5.66506
Pd 30.6698 20.8161 14.2096
Au 25.8066 14.2423 4.39995
Au 25.5495 17.605 9.98058
Pd 32.1085 16.9714 9.56626
Pd 14.3901 28.8742 9.28358