1687
Atoms. Timestep: 20270
Au 5.74712 5.54743 7.48823
Au 5.69063 5.4875 11.3427
Au 5.65237 5.47602 15.2942
Au 5.62055 5.47364 19.3238
Au 5.64918 5.47641 23.3461
Au 5.69979 5.5082 27.2687
Au 5.76204 5.52901 31.0857
Pd 5.70393 7.46453 5.64884
Au 5.50125 7.3852 9.41465
Au 5.48194 9.39066 7.46891
Pd 5.55171 7.34251 13.322
Au 5.41919 9.34237 11.3774
Au 5.45125 7.291 17.2912
Pd 5.44146 9.27543 15.2978
Au 5.44684 7.28769 21.3363
Au 5.33825 9.23349 19.3087
Au 5.49492 7.3228 25.3218
Pd 5.43285 9.2473 23.3341
Pd 5.61124 7.38088 29.1924
Pd 5.48888 9.29238 27.262
Pd 5.76443 7.39223 32.968
Pd 5.59279 9.31715 31.1509
Au 5.5838 11.3136 5.57852
Pd 5.45264 11.3548 9.40039
Au 5.41939 13.3205 7.39206
Au 5.3378 11.2988 13.3115
Au 5.33508 13.3086 11.3497
Au 5.27358 11.2397 17.2864
Au 5.23526 13.2604 15.2722
Au 5.25928 11.2254 21.3352
Au 5.17352 13.2281 19.3083
Pd 5.3672 11.2636 25.315
Au 5.19769 13.2407 23.3391
Au 5.39256 11.2768 29.2591
Au 5.28203 13.2784 27.3237
Au 5.64339 11.2282 33.0636
Au 5.41144 13.2422 31.2751
Au 5.56655 15.3287 5.54935
Au 5.33924 15.3125 9.3438
Au 5.41839 17.3284 7.37262
Au 5.24247 15.2881 13.2764
Au 5.26858 17.318 11.2947
Au 5.13874 15.2537 17.2888
Au 5.14711 17.2915 15.2766
Au 5.11595 15.2508 21.3214
Au 5.08736 17.2776 19.3006
Au 5.18611 15.2688 25.3722
Au 5.10746 17.28 23.3547
Au 5.31774 15.2726 29.3495
Au 5.23298 17.2686 27.401
Au 5.55856 15.2445 33.1038
Au 5.37049 17.2712 31.309
Pd 5.60182 19.3257 5.56737
Au 5.32721 19.3185 9.30783
Au 5.4232 21.3017 7.3745
Au 5.18805 19.3153 13.2836
Au 5.26254 21.2875 11.3071
Au 5.10894 19.3233 17.2927
Au 5.1693 21.3227 15.3181
Au 5.07894 19.3059 21.3179
Au 5.11058 21.3276 19.29
Au 5.14506 19.2922 25.3967
Au 5.11275 21.3061 23.3427
Au 5.30061 19.2841 29.3878
Au 5.22355 21.3036 27.4267
Au 5.53291 19.2959 33.1084
Pd 5.45826 21.2962 31.2778
Au 5.57344 23.2916 5.55113
Pd 5.38413 23.2589 9.34814
Au 5.3906 25.2277 7.42549
Pd 5.27376 23.2756 13.3254
Au 5.27805 25.225 11.3634
Pd 5.2141 23.324 17.3137
Au 5.21418 25.2777 15.3158
Au 5.12001 23.309 21.3198
Au 5.17708 25.3177 19.3389
Au 5.17059 23.2777 25.3429
Au 5.18095 25.2729 23.3114
Au 5.33029 23.3003 29.3986
Au 5.24386 25.2242 27.3344
Au 5.60781 23.2513 33.104
Au 5.43442 25.2633 31.3398
Au 5.5396 27.1906 5.65989
Au 5.32011 27.1656 9.40895
Au 5.36364 29.0999 7.55509
Au 5.24264 27.2564 13.3113
Au 5.3409 29.2501 11.2771
Au 5.20011 27.2761 17.3396
Au 5.2449 29.2966 15.3386
Pd 5.28475 27.3259 21.3724
Au 5.25934 29.2907 19.3573
Au 5.23383 27.2107 25.2797
Au 5.31195 29.3181 23.3844
Au 5.25838 27.1253 29.3187
Au 5.25237 29.0735 27.2678
Au 5.15 28.1811 31.8679
Au 4.90038 29.9104 29.8852
Au 5.67804 31.3615 6.25448
Pd 5.70985 31.2891 9.17164
Au 6.41555 33.4548 7.67717
Au 5.36916 31.2188 13.3572
Au 6.8288 33.4928 10.3502
Au 5.31577 31.2521 17.3561
Pd 5.51394 33.0464 15.3621
Au 5.3268 31.2266 21.3413
Au 5.47221 33.0653 19.3534
Au 5.44967 31.325 25.4137
Au 5.48098 33.0538 23.3172
Au 4.39404 31.5609 27.8586
Au 6.03714 33.5692 27.5102
Au 5.37801 32.5841 30.1158
Pd 7.1651 33.0385 32.2151
Au 7.58879 5.60273 5.61167
Au 7.56449 5.38195 9.40814
Pd 9.51888 5.47464 7.438
Au 7.49782 5.34081 13.3367
Pd 9.48138 5.37175 11.3858
Au 7.44442 5.32676 17.3194
Pd 9.41486 5.3375 15.3415
Au 7.46106 5.3418 21.3294
Au 9.39838 5.28694 19.3425
Au 7.51145 5.36012 25.2945
Pd 9.42718 5.36927 23.2909
Au 7.57798 5.36821 29.1652
Au 9.49507 5.31702 27.2121
Au 7.61332 5.51075 32.9417
Au 9.5237 5.35321 31.1229
Au 7.50276 9.41102 5.41659
Au 9.49168 7.44484 5.3921
Au 7.5849 7.48347 7.50037
Au 7.43344 9.42049 9.45004
Au 9.53531 7.36139 9.43887
Au 9.5144 9.44389 7.34888
Au 7.50509 7.38047 11.3826
Au 7.39084 9.36988 13.347
Au 9.4653 7.2956 13.3743
Au 9.46475 9.38922 11.4192
Au 7.46796 7.34844 15.3244
Au 7.33475 9.31628 17.3162
Au 9.41784 7.26032 17.3384
Pd 9.38844 9.32967 15.3389
Au 7.44493 7.33305 19.3238
Au 7.32509 9.30964 21.308
Pd 9.41004 7.29526 21.3029
Pd 9.3601 9.3162 19.3165
Au 7.47547 7.34031 23.3108
Au 7.38528 9.32981 25.2858
Pd 9.47388 7.30931 25.2629
Au 9.39316 9.32829 23.2953
Pd 7.55413 7.37926 27.2269
Au 7.47808 9.36864 29.1751
Pd 9.52889 7.34747 29.1612
Au 9.47025 9.36378 27.213
Au 7.62232 7.42765 31.0925
Au 7.54135 9.33644 33.1872
Pd 9.48546 7.39429 33.1193
Pd 9.50494 9.38673 31.224
Au 7.40619 13.3261 5.38411
Au 9.44325 11.3868 5.33318
Au 7.46101 11.3754 7.41497
Au 7.33841 13.3485 9.40849
Au 9.44749 11.4061 9.39221
Au 9.4319 13.3524 7.30477
Pd 7.36134 11.3678 11.4049
Pd 7.26258 13.3256 13.3308
Pd 9.35894 11.3568 13.376
Au 9.34135 13.3526 11.3838
Au 7.27522 11.326 15.3097
Au 7.15921 13.294 17.3162
Au 9.29318 11.332 17.3277
Au 9.25917 13.3328 15.3357
Au 7.21994 11.2947 19.3115
Au 7.13795 13.2882 21.3082
Au 9.28467 11.3335 21.2947
Pd 9.21244 13.32 19.3084
Au 7.24862 11.3131 23.3122
Au 7.20016 13.3215 25.3089
Pd 9.3395 11.3508 25.2734
Au 9.24408 13.3259 23.3111
Au 7.32557 11.3409 27.2498
Au 7.31631 13.3141 29.2666
Au 9.45462 11.3626 29.235
Au 9.33412 13.335 27.2563
Au 7.48397 11.3123 31.2155
Pd 7.42568 13.2683 33.1927
Au 9.41706 11.3118 33.3076
Au 9.4255 13.3242 31.3539
Au 7.39226 17.3329 5.39134
Au 9.35292 15.3312 5.31093
Au 7.41168 15.3287 7.39466
Au 7.30301 17.3393 9.37303
Au 9.3725 15.3451 9.36325
Au 9.37415 17.3478 7.29459
Pd 7.26602 15.3329 11.3526
Au 7.16274 17.3304 13.3079
Au 9.24631 15.3447 13.3373
Au 9.28532 17.36 11.348
Au 7.13588 15.3019 15.3066
Au 7.06038 17.2956 17.315
Au 9.18903 15.3026 17.3362
Au 9.17787 17.3275 15.3259
Au 7.0809 15.279 19.3125
Au 7.03316 17.2904 21.3125
Au 9.16823 15.2942 21.2955
Au 9.13053 17.2908 19.3208
Au 7.0895 15.294 23.3166
Au 7.10419 17.2871 25.3459
Au 9.22423 15.3151 25.3046
Au 9.1447 17.2933 23.3064
Pd 7.22683 15.3029 27.3218
Pd 7.2814 17.284 29.3194
Au 9.34485 15.3204 29.3114
Au 9.23991 17.3029 27.3201
Au 7.39097 15.292 31.2684
Au 7.34896 17.2776 33.2833
Pd 9.33521 15.3054 33.2879
Au 9.36447 17.3065 31.3896
Au 7.41271 21.3188 5.40324
Au 9.33584 19.344 5.32612
Pd 7.43119 19.3223 7.41567
Au 7.31868 21.2779 9.37375
Pd 9.35549 19.3197 9.35526
Au 9.38127 21.3108 7.32868
Pd 7.24427 19.315 11.3362
Au 7.16861 21.2732 13.3298
Pd 9.22281 19.3136 13.3302
Au 9.30152 21.2704 11.3464
Au 7.09689 19.3106 15.3218
Pd 7.10131 21.3037 17.3237
Au 9.12918 19.3087 17.3378
Au 9.17221 21.2841 15.3309
Au 7.02955 19.3087 19.3096
Au 7.0468 21.3076 21.3218
Au 9.11108 19.2951 21.3137
Au 9.11625 21.3077 19.3434
Au 7.04452 19.2938 23.3294
Au 7.09814 21.2905 25.3361
Au 9.16902 19.2976 25.3195
Au 9.13578 21.2948 23.3018
Au 7.16432 19.2889 27.3592
Pd 7.30435 21.2876 29.3183
Au 9.31871 19.2876 29.3366
Au 9.24372 21.2852 27.3315
Au 7.37257 19.2804 31.2776
Au 7.37851 21.2766 33.274
Au 9.32291 19.2875 33.3555
Au 9.34565 21.2748 31.364
Au 7.41293 25.2823 5.44471
Au 9.38 23.3208 5.37408
Au 7.42688 23.2879 7.41
Au 7.34057 25.2316 9.40513
Pd 9.36583 23.2643 9.36806
Pd 9.39915 25.2569 7.38137
Au 7.25068 23.2592 11.3649
Pd 7.21679 25.2611 13.3486
Au 9.23999 23.2582 13.3376
Au 9.32418 25.2425 11.3539
Au 7.1347 23.291 15.3428
Pd 7.1501 25.2887 17.3478
Au 9.14583 23.2839 17.3544
Au 9.19884 25.2635 15.356
Au 7.0834 23.3014 19.3303
Au 7.12677 25.276 21.3456
Pd 9.14497 23.2905 21.332
Au 9.17613 25.2796 19.3653
Pd 7.11504 23.2677 23.3084
Au 7.1701 25.2251 25.2854
Au 9.19785 23.26 25.2996
Au 9.19868 25.2688 23.31
Au 7.19912 23.2671 27.3506
Pd 7.32108 25.2315 29.2933
Pd 9.33215 23.2587 29.3189
Au 9.27795 25.2205 27.2987
Pd 7.42684 23.2696 31.2336
Au 7.42706 25.2103 33.2303
Pd 9.31393 23.2468 33.2783
Pd 9.39492 25.2039 31.3224
Pd 7.31019 29.194 5.68626
Au 9.35057 27.2455 5.40538
Pd 7.437 27.1741 7.49899
Au 7.41115 29.1843 9.38356
Pd 9.40169 27.2155 9.41127
Au 9.48397 29.1181 7.39752
Au 7.2741 27.2266 11.3698
Au 7.24646 29.2164 13.3649
Au 9.2814 27.2445 13.3659
Pd 9.3454 29.2195 11.4241
Au 7.16152 27.2446 15.3488
Au 7.2127 29.2634 17.3451
Au 9.22183 27.2759 17.3562
Au 9.30672 29.2919 15.3518
Au 7.15819 27.2784 19.3505
Pd 7.26694 29.269 21.348
Au 9.22611 27.2864 21.3514
Au 9.28838 29.2966 19.3537
Au 7.20945 27.2931 23.3485
Au 7.27368 29.25 25.3919
Pd 9.25726 27.2483 25.316
Pd 9.29079 29.2762 23.3501
Pd 7.26017 27.122 27.2441
Pd 7.3232 28.8997 29.2115
Pd 9.39105 27.1363 29.2688
Au 9.30119 29.2306 27.3293
Au 7.45577 27.1131 31.2772
Au 7.34915 29.2198 33.013
Au 9.35947 27.2362 33.3034
Au 9.41432 29.1357 31.2086
Au 8.66675 33.2921 6.00859
Au 9.33608 30.8559 5.17123
Au 7.88891 31.2524 7.52358
Pd 8.87706 33.7091 8.67313
Au 9.4283 31.2987 9.66288
Au 10.8829 34.3402 7.06651
Au 7.30862 31.1772 11.4197
Au 7.27651 33.2111 13.293
Au 9.33686 31.3559 13.343
Au 9.34917 33.4091 11.4531
Au 7.34109 31.2369 15.342
Pd 7.32424 33.1824 17.3651
Au 9.32381 31.3657 17.349
Au 9.23368 33.3222 15.3216
Au 7.32641 31.2382 19.3579
Au 7.3192 33.2445 21.3405
Au 9.32778 31.3333 21.3505
Au 9.27853 33.3199 19.3566
Au 7.36112 31.2204 23.321
Au 7.38948 33.2732 25.2479
Au 9.27409 31.2918 25.3773
Au 9.32806 33.2929 23.3195
Au 7.20518 31.205 27.6623
Au 7.79656 33.4681 29.519
Pd 9.52748 31.2958 29.2437
Au 9.28021 33.2822 27.2781
Au 7.42597 30.9592 30.7845
Pd 5.37043 30.9099 32.3403
Pd 9.16706 31.2158 32.9439
Au 9.69505 33.2917 31.3359
Au 11.4609 5.58526 5.53395
Au 11.4776 5.33 9.37077
Au 13.4284 5.41737 7.37055
Au 11.4336 5.25571 13.3723
Au 13.4283 5.26586 11.351
Au 11.4038 5.24572 17.3565
Au 13.4012 5.23128 15.3767
Pd 11.3986 5.33208 21.3087
Au 13.382 5.26373 19.3355
Au 11.4374 5.28066 25.2377
Au 13.3844 5.26391 23.2655
Au 11.4778 5.31604 29.2035
Au 13.4261 5.28178 27.2417
Au 11.4171 5.51653 33.0181
Au 13.4022 5.35514 31.2095
Au 11.4573 9.40619 5.31893
Au 13.433 7.41773 5.39213
Au 11.4765 7.42798 7.39559
Au 11.4844 9.41074 9.39071
Au 13.4292 7.31551 9.38379
Au 13.421 9.42172 7.30269
Au 11.478 7.27595 11.4068
Pd 11.4146 9.30809 13.3854
Au 13.4064 7.20937 13.3773
Pd 13.4155 9.31759 11.3858
Au 11.4161 7.22039 15.3622
Au 11.3565 9.27739 17.337
Pd 13.3755 7.20483 17.3556
Au 13.3692 9.25165 15.3617
Au 11.3909 7.21633 19.3299
Au 11.3685 9.27348 21.2964
Pd 13.3874 7.22787 21.2989
Au 13.3615 9.23756 19.3221
Au 11.421 7.23899 23.2766
Au 11.433 9.31807 25.2629
Pd 13.4114 7.23823 25.2498
Au 13.3908 9.2624 23.2805
Au 11.4764 7.26955 27.2142
Au 11.4664 9.3581 29.214
Pd 13.4204 7.30698 29.2218
Pd 13.4092 9.30686 27.2379
Au 11.4473 7.38027 31.1757
Au 11.4174 9.31515 33.2866
Pd 13.3898 7.35343 33.1704
Au 13.4075 9.35366 31.3233
Pd 11.3895 13.3545 5.33355
Au 13.396 11.377 5.28273
Pd 11.4474 11.401 7.30324
Pd 11.4126 13.3764 9.30543
Pd 13.413 11.3996 9.30875
Au 13.3856 13.3703 7.22622
Au 11.4283 11.3757 11.3787
Au 11.3443 13.3565 13.3621
Au 13.3675 11.3267 13.3679
Au 13.3714 13.379 11.3143
Au 11.3368 11.3333 15.3495
Pd 11.2701 13.3362 17.3315
Au 13.3241 11.3153 17.3337
Pd 13.3155 13.3432 15.3477
Au 11.3025 11.3349 19.3124
Au 11.2791 13.3445 21.3
Au 13.3464 11.3113 21.316
Au 13.2871 13.3391 19.3211
Au 11.3509 11.3518 23.3018
Pd 11.3377 13.3369 25.2823
Au 13.3851 11.3455 25.2683
Pd 13.3375 13.3266 23.2991
Pd 11.4211 11.3673 27.2362
Au 11.4082 13.3476 29.3297
Au 13.4027 11.3529 29.3075
Au 13.3852 13.3495 27.2996
Au 11.4301 11.3467 31.3862
Au 11.3665 13.3189 33.4059
Au 13.3965 11.2906 33.3967
Au 13.3859 13.3357 31.4765
Au 11.3298 17.3508 5.25082
Au 13.3533 15.3455 5.23058
Au 11.3758 15.3573 7.23546
Au 11.3576 17.3664 9.30594
Au 13.3643 15.3818 9.25248
Au 13.3494 17.3601 7.18856
Au 11.3553 15.3629 11.3334
Au 11.2876 17.3525 13.3149
Pd 13.3197 15.3627 13.3269
Pd 13.323 17.3588 11.28
Au 11.2763 15.334 15.3389
Au 11.218 17.3178 17.3407
Au 13.2671 15.3258 17.3326
Au 13.275 17.3428 15.3358
Pd 11.2253 15.3077 19.3141
Au 11.2139 17.28 21.3034
Pd 13.2833 15.311 21.3092
Au 13.2509 17.3028 19.3166
Au 11.2762 15.3008 23.3052
Au 11.266 17.3086 25.3148
Au 13.3413 15.3028 25.3149
Au 13.2821 17.2999 23.3111
Au 11.3367 15.3224 27.3087
Au 11.3572 17.3162 29.4062
Au 13.381 15.3353 29.4223
Au 13.3461 17.3066 27.3832
Au 11.386 15.3325 31.4569
Au 11.33 17.3177 33.4039
Au 13.3432 15.3261 33.4546
Pd 13.3464 17.3254 31.4895
Pd 11.3279 21.3558 5.37858
Au 13.2968 19.3826 5.24068
Au 11.3545 19.3393 7.25142
Au 11.3437 21.2899 9.31305
Pd 13.325 19.3262 9.25308
Pd 13.3141 21.328 7.26072
Pd 11.315 19.3251 11.3204
Pd 11.2628 21.2805 13.3138
Au 13.2792 19.3361 13.2865
Pd 13.2939 21.288 11.2869
Au 11.2278 19.3213 15.3269
Au 11.2114 21.2927 17.3576
Pd 13.2474 19.3146 17.3444
Au 13.2594 21.2882 15.3239
Au 11.2022 19.3077 19.3313
Au 11.2013 21.3144 21.3174
Au 13.2466 19.3119 21.3105
Pd 13.2432 21.3068 19.341
Au 11.2102 19.301 23.306
Au 11.2605 21.2964 25.3178
Au 13.3 19.3139 25.345
Au 13.2648 21.3205 23.3171
Au 11.3077 19.3034 27.3548
Au 11.3411 21.2845 29.4048
Au 13.3503 19.3134 29.4653
Au 13.3445 21.3075 27.396
Pd 11.3498 19.3008 31.4381
Au 11.3125 21.2748 33.3911
Au 13.3016 19.312 33.4411
Pd 13.3406 21.2874 31.476
Au 11.3454 25.2773 5.37845
Pd 13.2836 23.3312 5.3819
Pd 11.3408 23.3036 7.33316
Pd 11.349 25.2488 9.34258
Au 13.3014 23.2766 9.2815
Pd 13.3245 25.2584 7.3225
Pd 11.3144 23.2532 11.3262
Au 11.2968 25.2599 13.336
Au 13.2848 23.2518 13.3052
Au 13.306 25.275 11.3066
Au 11.2387 23.2646 15.3372
Au 11.2392 25.2871 17.3679
Au 13.2551 23.2902 17.3626
Au 13.2934 25.2949 15.3469
Au 11.2117 23.2967 19.3707
Pd 11.235 25.2894 21.3389
Pd 13.2567 23.3067 21.3244
Au 13.2675 25.3111 19.3764
Au 11.2333 23.2927 23.2947
Au 11.2836 25.2568 25.3003
Pd 13.3032 23.2818 25.3316
Au 13.2848 25.289 23.3051
Au 11.3168 23.2575 27.3357
Au 11.3602 25.2096 29.3576
Au 13.3747 23.2541 29.4328
Au 13.3506 25.2396 27.3472
Au 11.3479 23.2447 31.4329
Au 11.2991 25.2262 33.3894
Au 13.3203 23.2588 33.4376
Au 13.3486 25.2306 31.4731
Au 11.4136 29.2005 5.3651
Pd 13.3421 27.2551 5.42216
Au 11.3868 27.1966 7.35727
Pd 11.353 29.3044 9.39537
Pd 13.3231 27.2864 9.32757
Au 13.2744 29.3115 7.37473
Au 11.3503 27.283 11.3417
Au 11.3398 29.351 13.3669
Au 13.3242 27.3316 13.345
Au 13.3416 29.3566 11.3421
Au 11.2989 27.3024 15.3644
Au 11.3189 29.3719 17.3674
Au 13.2975 27.3604 17.3763
Au 13.32 29.4196 15.3796
Au 11.277 27.3163 19.3682
Au 11.2981 29.3647 21.3574
Au 13.2842 27.344 21.3461
Pd 13.2933 29.4283 19.3606
Au 11.2652 27.2948 23.3272
Au 11.2934 29.3074 25.3242
Au 13.3235 27.3134 25.3125
Au 13.3028 29.3886 23.3493
Au 11.326 27.2351 27.2796
Au 11.3901 29.2066 29.2477
Au 13.3548 27.2248 29.3438
Pd 13.3461 29.3195 27.2754
Au 11.3592 27.1997 31.3996
Au 11.2694 29.3285 33.3122
Au 13.293 27.2648 33.4181
Au 13.3488 29.2034 31.3847
Au 11.2246 32.7395 5.05501
Au 13.3039 31.1738 5.44854
Au 11.0585 31.4756 7.39781
Au 11.4748 33.4396 9.52679
Au 13.2979 31.3736 9.3241
Au 13.2672 33.1902 7.28475
Au 11.4292 31.4162 11.4494
Pd 11.3478 33.3569 13.4099
Au 13.3695 31.4679 13.4145
Au 13.4316 33.4058 11.4269
Au 11.3186 31.4472 15.3708
Au 11.2751 33.4025 17.3391
Pd 13.2965 31.4631 17.3578
Au 13.3292 33.425 15.3903
Au 11.3178 31.4326 19.3374
Pd 11.2856 33.3086 21.3516
Au 13.2861 31.4612 21.353
Au 13.2752 33.4231 19.3354
Pd 11.2913 31.3578 23.3705
Au 11.2952 33.3367 25.3193
Au 13.3404 31.408 25.3199
Au 13.2732 33.3903 23.3527
Au 11.3768 31.3549 27.2618
Au 11.4066 33.3287 29.2506
Au 13.3514 31.315 29.2743
Au 13.3718 33.3549 27.3091
Au 11.4 31.1647 31.2486
Pd 11.3893 32.7571 33.3081
Au 13.4318 31.1237 33.3428
Au 13.2855 33.1654 31.3607
Pd 15.4018 5.60137 5.56267
Pd 15.3997 5.38536 9.31612
Au 17.3733 5.43289 7.36685
Pd 15.3897 5.28867 13.3513
Au 17.3687 5.27638 11.3144
Pd 15.3489 5.28862 17.3689
Pd 17.3335 5.26699 15.3739
Pd 15.3286 5.28311 21.2937
Pd 17.2998 5.2714 19.3249
Au 15.3449 5.24542 25.2651
Au 17.3005 5.19822 23.2824
Au 15.3668 5.31135 29.2572
Pd 17.3241 5.30766 27.2774
Au 15.3837 5.50529 33.0531
Au 17.3808 5.34943 31.228
Pd 15.3944 9.36571 5.37287
Au 17.3688 7.41084 5.40132
Pd 15.3918 7.44089 7.40931
Au 15.3772 9.37474 9.35424
Au 17.377 7.30866 9.35897
Au 17.3775 9.39057 7.29024
Au 15.3907 7.23709 11.3621
Au 15.38 9.25039 13.3641
Au 17.3777 7.18275 13.352
Au 17.3767 9.28781 11.3607
Au 15.3741 7.1707 15.3782
Au 15.3616 9.20861 17.3454
Pd 17.3388 7.18568 17.358
Au 17.3699 9.2083 15.359
Pd 15.3447 7.20714 19.325
Au 15.3623 9.23233 21.3093
Au 17.3151 7.15477 21.307
Au 17.3422 9.20236 19.3241
Pd 15.3517 7.20532 23.2816
Au 15.3577 9.26016 25.268
Au 17.3217 7.17309 25.2668
Au 17.335 9.24229 23.2893
Pd 15.3544 7.2567 27.2484
Au 15.3733 9.3196 29.2592
Au 17.3596 7.2583 29.2397
Au 17.351 9.26792 27.2629
Au 15.3822 7.35348 31.2201
Au 15.3941 9.27989 33.3203
Au 17.3978 7.31461 33.2269
Au 17.3793 9.32496 31.3445
Au 15.3715 13.3531 5.2284
Au 17.3689 11.3555 5.26997
Au 15.3888 11.396 7.23359
Au 15.3777 13.3934 9.2439
Au 17.3679 11.3854 9.27391
Pd 17.3567 13.3785 7.19612
Au 15.3654 11.3543 11.3364
Au 15.3307 13.3647 13.3356
Au 17.3649 11.3101 13.348
Au 17.3522 13.3922 11.2788
Au 15.3506 11.2996 15.3515
Au 15.3231 13.3217 17.3366
Au 17.3558 11.2692 17.3396
Au 17.3452 13.3318 15.3434
Au 15.3537 11.2805 19.3279
Au 15.3285 13.3017 21.3126
Pd 17.3371 11.2721 21.3081
Pd 17.3303 13.2967 19.3181
Pd 15.355 11.299 23.2934
Pd 15.3574 13.3286 25.304
Au 17.3431 11.306 25.2889
Au 17.328 13.2905 23.3031
Au 15.3713 11.3365 27.2839
Au 15.3792 13.359 29.4091
Au 17.362 11.3434 29.3549
Au 17.3465 13.3567 27.3635
Au 15.3815 11.3285 31.4284
Pd 15.3686 13.2992 33.3896
Pd 17.3829 11.2792 33.3304
Au 17.3616 13.3352 31.4849
Au 15.3214 17.3592 5.19624
Au 17.3294 15.3574 5.19704
Au 15.3716 15.3728 7.17253
Pd 15.327 17.3609 9.20226
Pd 17.3345 15.3876 9.19911
Pd 17.3121 17.3626 7.15738
Au 15.3315 15.3899 11.2589
Au 15.2901 17.349 13.2875
Au 17.333 15.3636 13.2907
Au 17.3203 17.3493 11.2225
Au 15.2945 15.3478 15.3356
Pd 15.2807 17.3274 17.3342
Au 17.318 15.3294 17.3414
Au 17.3068 17.3376 15.3198
Au 15.3037 15.325 19.3194
Au 15.2913 17.3126 21.3092
Au 17.3185 15.3137 21.3008
Pd 17.3039 17.3272 19.3185
Au 15.3155 15.3014 23.3138
Au 15.3279 17.3086 25.368
Au 17.3315 15.3259 25.3653
Au 17.3228 17.3325 23.3412
Pd 15.362 15.3263 27.3845
Au 15.3519 17.3096 29.4728
Pd 17.3457 15.3384 29.4659
Au 17.3379 17.3114 27.4319
Au 15.3564 15.337 31.5242
Au 15.3249 17.3156 33.4928
Au 17.3532 15.2895 33.483
Au 17.3375 17.3167 31.5526
Au 15.2444 21.3752 5.24178
Au 17.2836 19.3598 5.18145
Au 15.2994 19.3471 7.16396
Au 15.2918 21.3082 9.22933
Au 17.3063 19.3311 9.18271
Au 17.2884 21.3423 7.13898
Au 15.2889 19.3264 11.2457
Pd 15.2898 21.2953 13.2892
Au 17.3108 19.336 13.2789
Au 17.3187 21.3154 11.2588
Au 15.2738 19.3245 15.3267
Au 15.2651 21.3129 17.3407
Au 17.293 19.3183 17.3225
Au 17.3023 21.3254 15.3107
Au 15.266 19.3087 19.3134
Au 15.2726 21.3183 21.3219
Au 17.3052 19.3222 21.3309
Au 17.2939 21.3308 19.3178
Au 15.3013 19.3251 23.3373
Au 15.3073 21.32 25.3688
Au 17.3209 19.3239 25.3846
Pd 17.3003 21.3056 23.3493
Au 15.3327 19.3159 27.4302
Pd 15.3375 21.2977 29.4861
Au 17.3224 19.3133 29.4998
Au 17.2972 21.3092 27.4469
Au 15.3203 19.3154 31.5398
Au 15.3075 21.3141 33.4653
Au 17.3249 19.3231 33.5004
Au 17.3033 21.3127 31.5348
Au 15.2647 25.2984 5.32098
Au 17.2579 23.3467 5.21419
Pd 15.2923 23.3077 7.24191
Au 15.3066 25.2852 9.27784
Au 17.3225 23.3079 9.2376
Au 17.2897 25.29 7.21772
Au 15.3002 23.276 11.2863
Au 15.3142 25.3079 13.3164
Au 17.3178 23.3017 13.295
Au 17.3403 25.3064 11.2932
Au 15.2932 23.2925 15.3228
Au 15.2923 25.3258 17.3535
Pd 17.2991 23.3305 17.3268
Au 17.31 25.3329 15.3378
Au 15.2704 23.3215 19.3484
Pd 15.2839 25.3354 21.3379
Au 17.2873 23.3283 21.3381
Au 17.2882 25.3537 19.3383
Au 15.285 23.3049 23.3222
Au 15.3038 25.2842 25.3424
Au 17.2922 23.2908 25.3734
Au 17.2891 25.3446 23.3341
Pd 15.3271 23.2777 27.4147
Pd 15.3299 25.2451 29.4275
Pd 17.289 23.2805 29.4761
Au 17.2839 25.2822 27.3988
Pd 15.3184 23.2711 31.4783
Au 15.318 25.2667 33.4378
Pd 17.2984 23.314 33.4113
Au 17.2929 25.2569 31.4712
Pd 15.3164 29.2879 5.46494
Pd 17.2652 27.3038 5.36915
Au 15.2893 27.2832 7.30552
Au 15.3124 29.3631 9.3031
Au 17.3252 27.3035 9.30078
Au 17.3216 29.3143 7.31567
Au 15.3253 27.332 11.3122
Au 15.3317 29.4179 13.3667
Au 17.3297 27.3702 13.3377
Au 17.3228 29.3877 11.3653
Au 15.3113 27.3745 15.3572
Au 15.2906 29.4649 17.3739
Au 17.2967 27.4039 17.3545
Au 17.312 29.4577 15.363
Au 15.2801 27.3876 19.3615
Au 15.2874 29.441 21.3455
Au 17.2886 27.4046 21.3392
Au 17.2858 29.482 19.3481
Au 15.3087 27.372 23.3331
Pd 15.3223 29.3906 25.3244
Au 17.2923 27.3725 25.3445
Pd 17.2883 29.4482 23.3383
Au 15.3214 27.3058 27.3241
Au 15.3088 29.274 29.2999
Au 17.2899 27.2714 29.3781
Pd 17.2877 29.3579 27.3231
Au 15.3192 27.2282 31.4473
Au 15.3583 29.2097 33.3932
Pd 17.3349 27.2545 33.3549
Au 17.2977 29.2424 31.3914
Au 17.4046 33.2384 7.39737
Au 17.419 31.3022 5.46841
Au 15.351 31.3832 7.2785
Pd 15.3022 33.2555 9.32432
Au 17.3143 31.3733 9.35614
Au 19.2796 33.3375 9.38188
Au 15.3231 31.424 11.3678
Pd 15.3641 33.3726 13.3934
Pd 17.3042 31.4424 13.3759
Pd 17.2857 33.3139 11.3423
Au 15.3332 31.4975 15.3944
Pd 15.2921 33.3977 17.362
Pd 17.2958 31.4988 17.3628
Au 17.2943 33.4449 15.3732
Au 15.2694 31.5067 19.3425
Au 15.2663 33.4466 21.343
Au 17.2738 31.5139 21.3438
Pd 17.2638 33.4078 19.3523
Au 15.3003 31.4682 23.344
Au 15.3163 33.3922 25.3529
Au 17.2715 31.4361 25.3492
Pd 17.2712 33.3946 23.3559
Pd 15.3094 31.3562 27.3156
Au 15.2919 33.2801 29.3791
Au 17.2667 31.3226 29.3162
Pd 17.2537 33.3006 27.3811
Pd 15.3079 31.1871 31.2817
Au 15.304 33.0461 33.1409
Au 17.2803 31.2159 33.3067
Au 17.2764 33.2004 31.3259
Au 19.3376 5.58673 5.54247
Au 19.345 5.34323 9.31335
Au 21.3227 5.4247 7.36897
Au 19.3095 5.21158 13.3301
Au 21.2962 5.27164 11.3144
Au 19.2795 5.18501 17.3652
Au 21.2921 5.16306 15.365
Pd 19.3039 5.23632 21.3047
Pd 21.3134 5.22852 19.3256
Au 19.3273 5.19527 25.2905
Au 21.3473 5.18985 23.292
Au 19.3636 5.29062 29.2708
Au 21.375 5.25375 27.2813
Au 19.4027 5.50929 33.0227
Au 21.3721 5.37927 31.1915
Au 19.3446 9.3579 5.31244
Au 21.3411 7.39909 5.38721
Pd 19.3526 7.43009 7.40092
Au 19.3541 9.35591 9.34522
Pd 21.3144 7.32397 9.37024
Au 21.3209 9.39632 7.28603
Pd 19.3405 7.24508 11.3488
Pd 19.3394 9.23619 13.366
Au 21.2862 7.16312 13.3642
Au 21.3023 9.28334 11.3801
Au 19.3186 7.14519 15.3706
Pd 19.3301 9.19819 17.3433
Au 21.3026 7.1246 17.3441
Au 21.2987 9.22888 15.3652
Au 19.309 7.13827 19.3167
Au 19.3154 9.21014 21.3068
Au 21.32 7.13112 21.3024
Au 21.3118 9.20897 19.3064
Au 19.3206 7.13402 23.297
Au 19.3312 9.2469 25.2854
Au 21.3408 7.16777 25.2835
Au 21.3077 9.22274 23.2897
Au 19.3501 7.19962 27.2548
Au 19.3488 9.32682 29.2595
Au 21.346 7.28393 29.2144
Pd 21.3137 9.28716 27.2609
Pd 19.3722 7.37478 31.1903
Au 19.3862 9.28291 33.2959
Au 21.3716 7.34379 33.1839
Au 21.338 9.35479 31.3089
Au 19.3287 13.3494 5.22125
Au 21.3356 11.3599 5.26927
Pd 19.3364 11.3865 7.23366
Au 19.3179 13.4062 9.22799
Au 21.3087 11.3954 9.282
Au 21.3076 13.3866 7.17263
Au 19.3451 11.3497 11.3371
Au 19.3519 13.3652 13.3265
Au 21.3115 11.3254 13.3773
Au 21.3102 13.4075 11.309
Au 19.3449 11.2873 15.3576
Pd 19.3334 13.3088 17.3321
Au 21.3206 11.3007 17.3293
Pd 21.3257 13.3366 15.3458
Au 19.3191 11.2702 19.3103
Au 19.3139 13.2941 21.3016
Au 21.3099 11.2816 21.2923
Au 21.3265 13.3212 19.3081
Pd 19.3193 11.2777 23.2935
Au 19.3136 13.326 25.3326
Au 21.2876 11.3057 25.3019
Au 21.298 13.3353 23.2971
Pd 19.3206 11.3251 27.3079
Au 19.3257 13.3632 29.4071
Au 21.3036 11.3557 29.3361
Au 21.2785 13.3632 27.3654
Au 19.3556 11.3377 31.41
Au 19.3674 13.2782 33.425
Pd 21.3496 11.3006 33.2787
Pd 21.3106 13.3333 31.4224
Au 19.3035 17.3618 5.17243
Au 21.3384 15.3681 5.1972
Au 19.3019 15.3788 7.14197
Au 19.3143 17.3577 9.1871
Au 21.3098 15.3925 9.22674
Au 21.3225 17.3752 7.1373
Pd 19.3269 15.3817 11.2575
Au 19.3404 17.3447 13.2777
Pd 21.3215 15.363 13.3106
Au 21.3252 17.3534 11.2695
Au 19.3466 15.3293 15.3236
Au 19.3252 17.3343 17.3191
Au 21.3335 15.3117 17.316
Au 21.3294 17.3431 15.3001
Au 19.3189 15.3131 19.3165
Au 19.3195 17.3323 21.329
Pd 21.3068 15.3374 21.3159
Au 21.3207 17.3242 19.3197
Au 19.3232 15.3385 23.3221
Au 19.32 17.355 25.3802
Au 21.2873 15.3678 25.3445
Pd 21.2946 17.3446 23.3388
Pd 19.3165 15.3538 27.4096
Au 19.3106 17.3199 29.489
Pd 21.2895 15.3574 29.4577
Au 21.2759 17.3606 27.4177
Au 19.3366 15.3114 31.5159
Pd 19.3211 17.303 33.4507
Au 21.3203 15.2731 33.456
Au 21.2928 17.3279 31.5487
Au 19.3102 21.3513 5.18158
Au 21.3527 19.3552 5.17466
Au 19.3098 19.3443 7.12193
Au 19.3255 21.3239 9.20371
Pd 21.3247 19.3406 9.20893
Au 21.3272 21.3165 7.15593
Au 19.3409 19.3384 11.2439
Au 19.3463 21.3411 13.2904
Pd 21.3333 19.3521 13.2889
Au 21.3246 21.3425 11.2813
Au 19.3426 19.3478 15.2958
Au 19.3231 21.3391 17.2994
Pd 21.3203 19.3463 17.3003
Pd 21.327 21.3529 15.2961
Au 19.3136 19.3268 19.3147
Au 19.2982 21.3171 21.3506
Au 21.3071 19.3275 21.3474
Au 21.3133 21.3357 19.3165
Pd 19.3099 19.3214 23.3603
Au 19.2973 21.2811 25.3843
Pd 21.2874 19.3236 25.3803
Au 21.298 21.3023 23.3661
Pd 19.2969 19.3197 27.4384
Au 19.2879 21.3052 29.4892
Au 21.2793 19.3233 29.4835
Au 21.2931 21.2819 27.4033
Pd 19.3025 19.324 31.5384
Au 19.2906 21.33 33.5058
Au 21.2809 19.3168 33.5181
Au 21.2813 21.3106 31.568
Au 19.2829 25.3226 5.23768
Pd 21.3294 23.3243 5.26763
Au 19.301 23.3217 7.16102
Pd 19.3038 25.2992 9.25881
Au 21.3007 23.3197 9.24234
Au 21.2925 25.3011 7.20208
Pd 19.3234 23.3146 11.2774
Au 19.3211 25.3204 13.3223
Pd 21.3181 23.3394 13.3255
Au 21.2791 25.3034 11.3284
Au 19.3298 23.3364 15.3135
Au 19.315 25.3627 17.3305
Au 21.319 23.3581 17.2974
Pd 21.3096 25.3505 15.3279
Au 19.3074 23.3502 19.3148
Au 19.3017 25.3668 21.3224
Au 21.3018 23.334 21.33
Pd 21.3078 25.3731 19.3177
Au 19.287 23.3109 23.3579
Au 19.2799 25.3392 25.3696
Au 21.2882 23.2906 25.3801
Au 21.2744 25.3487 23.3454
Au 19.2801 23.289 27.4213
Au 19.2749 25.2816 29.4375
Au 21.2872 23.2885 29.4525
Au 21.2682 25.3058 27.3786
Au 19.2972 23.3046 31.5167
Pd 19.3172 25.3127 33.362
Au 21.2868 23.3584 33.4685
Pd 21.2882 25.2918 31.4377
Au 19.2743 29.3 5.33631
Au 21.2862 27.3027 5.26802
Au 19.2946 27.288 7.24464
Au 19.3098 29.3197 9.37403
Au 21.2663 27.2904 9.32361
Au 21.2899 29.2836 7.31923
Pd 19.3023 27.3272 11.3471
Pd 19.2913 29.4327 13.3695
Au 21.2788 27.3497 13.362
Au 21.2625 29.3709 11.3982
Au 19.3083 27.3899 15.3453
Au 19.2977 29.4731 17.362
Au 21.3076 27.4061 17.351
Au 21.2746 29.4504 15.3744
Au 19.3099 27.4143 19.3336
Au 19.2841 29.4752 21.3332
Au 21.2887 27.4055 21.3059
Pd 21.2825 29.4679 19.3325
Au 19.2811 27.4017 23.3409
Au 19.2604 29.3993 25.3457
Pd 21.2572 27.3547 25.3481
Au 21.2599 29.4411 23.3416
Pd 19.2686 27.3162 27.3523
Au 19.2714 29.2864 29.322
Au 21.2671 27.2783 29.3876
Au 21.2542 29.3467 27.3229
Au 19.3069 27.2713 31.4328
Au 19.3094 29.2678 33.3534
Pd 21.2929 27.2954 33.3075
Pd 21.2811 29.2553 31.3516
Au 19.4582 33.1562 5.61033
Au 21.2884 31.2096 5.38503
Pd 19.3606 31.2608 7.44375
Au 21.2395 33.4101 11.3611
Pd 21.2869 31.3417 9.4375
Pd 21.3139 33.2507 7.55679
Au 19.2801 31.4344 11.3843
Pd 19.2451 33.3854 13.3549
Au 21.2527 31.4992 13.3889
Au 23.2955 33.3821 9.43312
Au 19.2665 31.5206 15.3719
Au 19.2619 33.4876 17.3722
Au 21.2751 31.523 17.3814
Au 21.2582 33.4768 15.383
Au 19.2836 31.5338 19.3436
Pd 19.2691 33.4167 21.3437
Au 21.2661 31.518 21.3289
Au 21.2822 33.4739 19.362
Au 19.2606 31.5044 23.3484
Au 19.2307 33.4313 25.3764
Au 21.2472 31.4973 25.3409
Au 21.2414 33.4694 23.342
Au 19.256 31.4154 27.3352
Pd 19.2576 33.2419 29.3888
Au 21.2727 31.3471 29.3162
Au 21.2429 33.3994 27.3783
Au 19.2846 31.2099 31.3036
Pd 19.2771 33.025 33.1453
Au 21.2896 31.2102 33.2939
Au 21.2731 33.2223 31.3347
Au 23.3479 5.59118 5.579
Au 23.2978 5.33878 9.33473
Au 25.3299 5.42382 7.41696
Au 23.306 5.21592 13.3551
Au 25.3134 5.29123 11.3746
Au 23.349 5.17606 17.3622
Au 25.3608 5.23675 15.3779
Pd 23.3632 5.25756 21.2998
Au 25.3951 5.25873 19.3214
Au 23.3725 5.25528 25.2968
Au 25.3611 5.26887 23.2931
Pd 23.3648 5.40095 29.2293
Pd 25.3323 5.40824 27.2353
Pd 23.3902 5.54368 32.9794
Au 25.3523 5.44294 31.1305
Au 23.3461 9.36522 5.34382
Pd 25.3388 7.44531 5.50363
Au 23.3164 7.43045 7.41683
Au 23.2926 9.37913 9.37712
Au 25.2883 7.33394 9.4189
Pd 25.2923 9.43428 7.37311
Au 23.2826 7.22721 11.3815
Au 23.2826 9.2683 13.3982
Au 25.2994 7.22202 13.4014
Au 25.277 9.34767 11.4312
Au 23.301 7.14642 15.3724
Au 23.3012 9.25443 17.3324
Au 25.3319 7.20286 17.3486
Au 25.3002 9.30246 15.3656
Au 23.327 7.14908 19.3106
Au 23.3071 9.23256 21.2848
Au 25.3363 7.21059 21.2858
Au 25.3061 9.28276 19.307
Au 23.3326 7.16998 23.2897
Au 23.2953 9.27907 25.2699
Pd 25.3007 7.28335 25.2513
Au 25.2941 9.30477 23.2764
Pd 23.3194 7.28588 27.229
Au 23.3032 9.37267 29.2388
Au 25.3024 7.3615 29.1722
Au 25.2706 9.35812 27.2113
Au 23.3433 7.40186 31.1762
Pd 23.3321 9.33686 33.2
Au 25.327 7.40998 33.1447
Au 25.288 9.4306 31.2698
Pd 23.3453 13.3877 5.31065
Au 25.3118 11.3889 5.30986
Au 23.3188 11.396 7.24106
Au 23.2998 13.4156 9.26923
Au 25.2811 11.4383 9.35439
Au 25.3126 13.4277 7.25245
Au 23.2846 11.3845 11.3734
Au 23.285 13.3936 13.3641
Au 25.2819 11.3755 13.4087
Au 25.29 13.4326 11.3709
Pd 23.288 11.3308 15.3622
Pd 23.3007 13.3385 17.3254
Au 25.2873 11.3565 17.326
Au 25.2848 13.3841 15.3552
Pd 23.3036 11.3128 19.3057
Au 23.2988 13.3685 21.2963
Au 25.2937 11.3548 21.2925
Au 25.2986 13.3807 19.3129
Au 23.2929 11.3215 23.2875
Au 23.2774 13.3676 25.3
Pd 25.2776 11.3823 25.2513
Au 25.2931 13.388 23.2779
Au 23.2846 11.3607 27.2854
Au 23.2701 13.3717 29.3977
Pd 25.2609 11.4164 29.3017
Au 25.2674 13.3947 27.3167
Pd 23.2964 11.3649 31.3321
Pd 23.3016 13.2919 33.3166
Au 25.2694 11.3487 33.2944
Au 25.2703 13.3471 31.3963
Au 23.371 17.3654 5.23122
Pd 25.3522 15.416 5.33843
Au 23.3252 15.4045 7.18886
Au 23.3216 17.3773 9.25159
Au 25.3055 15.3936 9.30192
Pd 25.3197 17.3706 7.27365
Pd 23.3048 15.3848 11.3119
Au 23.3114 17.3422 13.311
Pd 25.304 15.3846 13.3507
Au 25.3072 17.3566 11.3408
Pd 23.3006 15.3498 15.3272
Au 23.3123 17.3402 17.3137
Au 25.3099 15.3595 17.3325
Au 25.3234 17.352 15.314
Pd 23.3087 15.3412 19.3187
Au 23.2957 17.3168 21.3279
Pd 25.3184 15.3647 21.3021
Au 25.3359 17.3325 19.3279
Pd 23.279 15.3632 23.3062
Au 23.2629 17.3661 25.3454
Au 25.2792 15.381 25.303
Au 25.3046 17.3464 23.3012
Au 23.2591 15.3779 27.3848
Au 23.2712 17.3567 29.4613
Au 25.2781 15.3709 29.4082
Au 25.2789 17.3698 27.3651
Au 23.2773 15.3353 31.4905
Au 23.3038 17.3067 33.4956
Au 25.2996 15.3025 33.4079
Au 25.3009 17.352 31.506
Au 23.3623 21.3197 5.23759
Pd 25.3449 19.326 5.3305
Au 23.3403 19.3418 7.1967
Au 23.3198 21.3177 9.25783
Pd 25.3028 19.3503 9.2914
Pd 25.3042 21.3161 7.26891
Au 23.3219 19.3536 11.2945