1687
Atoms. Timestep: 21121
Au 22.0046 11.5009 9.83542
Au 11.7175 16.4314 6.5924
Au 19.9233 3.62715 24.8062
Au 24.9472 11.2215 15.2005
Au 27.9411 7.91107 27.5533
Au 11.0425 14.8091 29.6397
Au 7.01092 30.4212 24.0332
Pd 15.528 11.6755 22.6623
Au 25.5179 19.4032 35.745
Au 17.8409 18.4464 22.401
Pd 26.3745 26.9999 26.1732
Au 10.6788 29.4931 25.8898
Au 20.7281 12.3182 24.5705
Pd 16.9388 30.5369 18.854
Au 17.7558 11.3393 5.7625
Au 6.20493 11.6669 19.3571
Au 20.3904 5.45623 22.8431
Pd 24.0968 6.44018 16.1899
Pd 6.80815 17.6058 12.3426
Pd 7.99069 14.1084 15.5103
Pd 16.3446 21.0556 21.9758
Pd 22.3114 28.7989 13.7944
Au 9.2066 23.5588 6.54005
Pd 15.4342 27.5389 10.2291
Au 26.1607 30.052 10.2444
Au 18.75 35.1815 21.047
Au 21.0025 30.253 11.7771
Au 16.3868 17.1531 1.95986
Au 4.54713 19.6922 24.6627
Au 10.2988 25.4021 31.9279
Au 11.9687 9.11796 19.4862
Pd 18.2931 26.9443 15.6983
Au 17.5601 2.75995 16.7255
Au 11.6001 18.9442 10.7544
Au 13.7347 26.2255 4.55731
Au 11.5615 26.4573 6.08067
Au 10.233 6.41837 15.0074
Au 19.6315 31.6707 24.5473
Au 27.9052 16.1262 3.25679
Au 13.5363 25.4045 15.112
Au 8.20341 5.95967 12.1101
Au 13.5593 13.4173 25.8636
Au 3.97453 19.0491 9.05422
Au 25.0935 8.05174 32.3218
Au 16.1187 6.49824 19.468
Au 10.2754 7.40245 30.1663
Au 30.3448 6.49862 21.1893
Au 30.9929 8.40435 23.2116
Au 26.4986 10.0068 28.4695
Au 10.5743 24.1763 14.8752
Au 28.808 30.6096 20.3591
Au 9.16736 19.5 23.8758
Pd 12.6181 19.3427 5.47576
Au 9.30356 17.1043 8.42236
Au 5.25003 28.0134 20.3467
Au 21.0251 23.912 15.9262
Au 18.8317 17.1731 13.3285
Au 18.6203 13.1691 19.5753
Au 10.9299 33.2927 13.5956
Au 9.10427 5.74362 17.4909
Au 20.409 30.2804 22.1956
Au 9.96293 15.849 14.8815
Au 7.37286 17.866 6.64472
Au 21.9055 4.66653 15.6733
Au 10.6337 17.038 21.0126
Au 13.8163 11.2638 7.29174
Pd 26.5548 16.7556 11.667
Au 18.1612 19.2476 1.23968
Pd 10.0365 29.2296 20.1648
Au 20.3544 31.7004 30.7496
Pd 17.7155 30.0324 11.6272
Au 6.46969 26.6825 22.6638
Pd 9.41364 7.36811 19.8946
Au 17.2262 35.7053 13.6674
Au 12.5637 5.28112 14.0408
Au 5.37485 24.0075 22.743
Au 21.717 24.0601 26.055
Au 8.23849 17.5615 22.1938
Au 12.2871 24.3821 19.6233
Au 8.88803 23.1813 32.832
Au 30.671 28.894 16.0628
Au 9.53287 5.67798 22.0657
Au 28.3118 13.9318 4.97121
Au 28.2017 35.5587 19.6853
Au 18.2573 25.7622 18.4268
Au 9.38275 18.2633 13.6836
Au 29.1128 5.57031 26.703
Au 1.43778 22.7767 16.7304
Au 31.3329 34.5953 23.9801
Pd 27.0134 29.4572 12.9988
Au 5.7276 9.66831 26.9393
Au 13.9407 17.999 32.9645
Au 18.2725 33.4453 14.4383
Au 12.7792 10.7273 21.7195
Au 9.84141 32.9417 18.4123
Au 27.3491 27.5138 28.8953
Au 5.8602 23.8261 16.3934
Au 19.9253 34.4519 25.0263
Pd 9.14073 20.174 21.1431
Au 3.0601 21.4238 27.0285
Au 18.8752 9.24671 7.31177
Au 13.5746 6.90186 20.6397
Au 21.3199 29.7 25.7263
Pd 9.90681 16.3928 31.6628
Au 11.5869 22.0937 21.1054
Au 23.6463 27.2237 18.7479
Au 1.40873 22.1224 22.1024
Au 13.0605 31.3549 30.3348
Au 15.5736 35.3804 23.7216
Au 25.3806 15.1156 9.62171
Au 2.34999 24.735 15.1649
Pd 6.61181 19.7775 22.57
Au 26.5109 11.055 7.8914
Au 6.27208 21.9158 14.2466
Pd 17.1401 12.9675 15.7103
Au 14.8316 20.3941 34.3857
Pd 17.4399 19.4601 19.9987
Au 13.3058 21.785 6.51687
Pd 10.1754 27.8784 10.0145
Au 23.0956 25.9704 24.4447
Au 26.3367 12.0029 5.29816
Au 28.3306 11.657 31.5384
Pd 16.5851 21.8576 29.9074
Au 13.565 17.6419 28.3444
Au 27.3321 18.4108 1.98429
Au 8.41596 31.4849 20.3546
Au 20.9433 22.1079 37.5846
Au 34.4423 12.9157 14.3666
Au 6.48725 18.296 20.2118
Au 13.2232 12.082 4.57459
Au 29.6507 30.2057 22.9987
Au 4.14781 10.6615 17.5187
Au 11.8697 28.8681 30.2631
Au 17.355 5.24825 12.5235
Au 7.64081 20.2001 12.5277
Au 25.4797 17.8682 9.36567
Au 22.4898 35.6303 15.2149
Au 20.1286 12.8266 2.54721
Au 2.95391 16.0376 18.6802
Au 21.7619 3.72646 12.9643
Pd 9.62037 19.9698 28.5911
Au 7.57684 16.8946 27.3694
Au 22.0572 12.6848 7.1214
Pd 19.554 18.189 18.9014
Pd 22.1657 28.6736 20.7825
Au 14.3357 9.53691 5.13126
Au 27.0511 33.983 12.6606
Pd 26.6369 13.9147 32.0799
Au 35.0565 15.0842 22.1118
Pd 14.9098 10.9469 9.82216
Au 20.3663 36.9951 25.3435
Pd 26.428 20.6334 3.3216
Au 7.06618 16.4413 31.8129
Au 1.76016 17.7986 17.011
Au 16.9302 17.5819 17.8691
Pd 14.4144 24 12.8736
Pd 19.2537 24.8956 20.89
Au 11.6887 4.7551 16.6765
Au 20.7697 18.56 28.0657
Au 15.5091 27.3572 7.46333
Au 16.4048 25.1705 11.3322
Au 16.0141 15.882 10.0596
Au 20.7655 5.24344 10.7022
Pd 9.09607 10.1133 30.3159
Pd 18.6102 7.27023 11.173
Pd 11.8026 30.8336 12.3589
Au 17.3083 9.32453 9.8223
Au 16.2136 7.40992 27.5528
Au 5.96977 23.9777 9.84274
Au 3.72055 26.567 22.4316
Au 1.74279 14.8002 23.513
Au 22.4447 4.64741 29.6764
Au 8.09685 12.9279 21.3937
Au 11.5884 23.8613 7.99049
Pd 33.9061 20.4015 17.8994
Au 16.2969 2.74904 22.4176
Au 7.39962 7.41 26.1226
Pd 11.48 30.8914 17.8263
Au 5.323 16.6586 8.09709
Au 25.3419 7.98706 23.2201
Au 18.9331 3.1214 22.0445
Au 9.21332 23.0695 9.29816
Au 20.3122 24.8759 31.587
Au 24.4165 6.05846 25.2047
Pd 24.22 12.428 32.0001
Au 14.0655 22.3127 31.2338
Au 24.1243 4.44097 13.9304
Au 17.951 11.3226 17.6048
Au 20.2721 32.6372 7.47248
Au 16.3493 4.77392 26.8237
Au 13.511 7.96564 28.1582
Au 2.80655 18.5047 11.7871
Au 24.3951 13.7659 5.98811
Pd 7.07453 18.8815 25.3343
Au 17.7943 14.0424 9.15129
Au 5.67834 17.3407 23.5786
Au 5.22066 28.0747 12.1989
Au 6.65133 9.28777 24.4041
Au 7.5199 15.2387 7.45075
Au 4.65658 14.54 11.2736
Au 19.0327 9.85251 12.4788
Au 21.8022 15.5762 34.3682
Au 25.1243 28.9232 16.9429
Au 25.0495 22.1609 22.3692
Au 29.1655 36.0358 24.2413
Au 23.9414 1.8613 23.1478
Au 29.0522 26.8859 26.3832
Au 21.0651 33.7113 13.9164
Au 10.8587 11.8356 8.15493
Pd 10.7367 21.0183 15.852
Pd 15.9783 13.2037 11.2165
Au 12.8651 14.3433 18.5147
Au 19.9926 5.70068 13.4156
Au 18.3153 8.96735 28.7041
Au 15.1972 26.719 25.1518
Pd 4.94021 25.3501 20.3969
Au 9.44091 9.3263 18.1876
Au 22.1548 20.6963 29.275
Au 5.73438 16.1867 18.3052
Pd 32.7495 14.6041 18.136
Au 10.4503 4.0933 23.8936
Pd 20.4289 10.1307 26.3518
Au 9.72686 18.468 16.6045
Pd 5.68592 21.0824 26.6447
Au 4.18191 21.3694 22.6248
Pd 18.9207 25.2427 13.0103
Au 30.8579 7.11168 18.4161
Au 2.84247 17.6157 23.9804
Pd 26.2954 12.5744 20.4858
Au 10.1074 31.3886 8.27836
Au 22.5561 15.25 20.7472
Au 26.7388 7.88904 15.4014
Au 15.8618 7.35548 22.1431
Au 21.2563 15.1522 3.24846
Au 22.4472 2.95971 25.259
Au 27.329 21.1821 34.4384
Au 22.8622 26.8454 4.35847
Au 15.2964 15.5171 19.1418
Au 23.5516 12.7589 13.4872
Au 5.00582 28.9709 22.8647
Pd 27.0948 23.2193 9.75571
Au 12.2507 22.4547 13.5514
Au 7.41578 25.8359 25.2158
Au 9.52008 11.3399 27.8397
Au 7.40599 29.2201 21.5935
Au 19.4439 14.961 35.962
Au 11.2479 17.8623 33.538
Au 24.1874 23.982 9.13056
Au 23.1118 22.3861 6.9165
Au 15.3882 13.1553 5.89779
Au 3.57558 11.5886 20.0925
Pd 15.8167 11.3291 3.87147
Pd 34.1465 24.8109 21.6068
Au 3.13557 15.8268 25.8807
Pd 10.2716 9.18416 15.6966
Au 9.15307 22.8664 19.8719
Au 27.5482 25.7198 24.0842
Au 34.2182 29.7234 20.2887
Pd 18.0347 18.113 27.1148
Au 4.11742 25.4584 11.5079
Au 5.97098 15.0745 25.4899
Au 12.3426 21.7459 3.73863
Au 19.6802 19.9462 25.9131
Pd 5.44937 13.578 21.1396
Au 5.91002 10.9408 22.0316
Pd 20.1343 21.2382 15.8317
Au 20.4991 17.4501 7.13742
Au 4.93241 9.14817 19.7066
Au 13.0074 34.9395 14.4086
Au 15.2919 18.4733 26.3939
Pd 25.024 5.76133 29.3277
Pd 10.6732 12.7293 5.49304
Au 12.513 26.255 24.9881
Pd 12.7542 22.9079 26.8036
Au 31.0741 11.196 10.0862
Pd 16.3448 25.3135 5.75558
Pd 26.5223 31.6409 26.211
Pd 18.8925 24.6593 4.88693
Au 9.6076 30.4121 22.6337
Pd 11.6369 19.3194 20.1574
Au 24.5813 21.3719 1.41077
Pd 19.3912 29.1656 7.49815
Au 12.3106 15.2285 16.0023
Au 22.5105 9.17876 4.98169
Au 13.8737 16.5108 2.76119
Au 18.0663 33.1889 18.6721
Pd 14.1127 20.1252 8.8246
Au 6.96667 7.30367 18.557
Au 25.0499 32.0086 8.48966
Au 11.1924 28.2392 23.4651
Au 13.799 32.2555 16.6611
Au 12.7717 13.7993 6.82783
Pd 12.9993 7.41786 30.7413
Au 33.8957 22.5606 10.8349
Au 7.57238 10.0166 14.5959
Au 6.01847 12.2148 16.4138
Au 14.9298 22.5887 2.24723
Pd 17.0427 29.2665 16.3063
Pd 15.097 21.323 13.5521
Pd 17.322 13.174 34.9205
Pd 28.9361 31.4699 25.3561
Pd 17.6483 23.4787 22.5917
Au 14.9029 30.5763 32.2755
Au 5.40114 14.8754 15.8828
Au 13.7391 11.0176 18.7833
Au 7.76772 5.336 14.8022
Au 21.9123 20.8022 4.99588
Au 4.51133 13.7373 18.5406
Au 11.0653 31.8358 20.5907
Au 9.24553 31.4912 25.0559
Pd 24.3069 4.99104 18.7436
Au 24.3792 24.0234 20.3831
Au 15.0756 14.6962 16.218
Au 20.5341 16.3484 29.8246
Au 8.99384 30.3308 10.5369
Au 25.4227 30.3147 6.24019
Au 21.4462 20.0162 7.5013
Au 33.5315 25.1517 18.8299
Pd 3.29684 20.6785 13.3974
Au 12.2471 19.6754 35.3249
Au 15.5399 25.9419 36.8382
Au 9.87683 29.1563 28.5244
Au 8.52046 20.9428 26.2238
Au 26.2101 6.80709 17.8572
Au 14.7966 27.8374 32.3495
Au 26.8362 28.4889 31.7805
Au 16.6411 15.7112 4.3769
Au 27.8303 4.13285 24.763
Au 22.8082 34.3549 21.2484
Au 30.6932 29.4073 25.5827
Au 16.1881 33.9958 21.3014
Pd 20.5482 26.8229 8.39106
Au 22.9647 31.5795 13.2992
Au -0.00605535 20.5391 20.4023
Pd 28.4713 10.2628 26.2873
Pd 31.861 26.9728 25.6182
Au 8.95685 13.2374 13.0496
Au 26.548 15.9337 5.51844
Au 22.9708 31.3815 6.75787
Au 20.167 1.67882 17.0326
Au 3.64569 26.7383 13.8262
Au 2.58695 23.3223 12.771
Au 12.0711 8.18503 13.9004
Au 10.4759 19.8263 3.8038
Pd 7.23473 21.1734 10.0252
Au 17.4377 17.7613 6.19671
Au 14.3646 8.21825 18.2666
Au 3.36901 12.4111 22.7138
Au 23.7161 30.9629 26.971
Au 22.6713 20.1226 36.802
Au 11.5367 24.857 34.1895
Au 35.0742 16.5657 15.1324
Au 4.51321 17.5242 16.2126
Au 21.4699 13.7125 14.9283
Au 19.9912 17.0534 21.5409
Au 3.49439 9.80419 22.1316
Au 18.2486 4.89444 9.88943
Au 20.6862 12.3442 12.5501
Au 20.9265 27.1292 12.074
Pd 11.132 25.4533 10.1949
Au 15.2022 15.4974 32.5654
Pd 31.7055 15.9623 20.0868
Au 18.163 23.319 28.2729
Au 26.6339 5.38887 20.262
Pd 24.0032 13.6118 18.761
Au 10.655 28.7766 7.48112
Au 12.8911 24.8952 22.4876
Au 16.93 16.6044 15.2959
Pd 28.2247 18.1126 28.7473
Au 29.532 14.4643 7.38952
Au 9.19902 31.2186 13.2116
Au 3.27011 12.994 16.3271
Pd 9.04122 18.406 10.8746
Au 28.6464 5.85227 16.9857
Au 17.0641 8.90845 4.77771
Au 9.29959 9.28835 25.8291
Pd 12.2222 13.6667 9.66028
Pd 17.0188 19.3527 13.4821
Au 30.2571 20.3236 24.3211
Au 2.74561 24.1284 23.1728
Pd 34.126 17.4886 23.2492
Au 7.54644 9.40207 20.3622
Pd 21.3163 17.6673 4.24837
Au 32.252 15.1757 7.657
Pd 32.7793 15.2769 15.5106
Pd 19.9658 19.9196 21.0312
Pd 14.012 18.8486 13.1164
Au 12.3248 32.9657 8.84454
Au 26.827 4.01298 17.8494
Au 10.1736 10.768 13.5958
Au 9.78751 6.9871 27.521
Au 3.13554 26.9579 19.0953
Au 22.2943 5.79407 8.45644
Pd 13.8146 27.4881 22.7934
Au 6.89048 22.8067 31.0651
Pd 11.8788 31.1063 15.0993
Au 22.185 11.0007 15.0149
Au 21.2452 21.7694 24.4337
Au 27.4696 10.5944 15.8171
Au 30.7703 19.4487 9.06543
Au 23.5867 12.4277 21.1292
Pd 30.9614 22.3725 15.5261
Au 29.3865 27.7956 21.234
Pd 17.4628 15.6391 34.0067
Pd 14.9858 28.8236 20.6354
Au 9.76713 11.5655 32.4258
Au 16.4166 21.6998 36.2201
Au 6.26577 10.7654 10.0286
Au 10.978 12.9962 14.9398
Au 22.7153 23.01 30.6605
Au 9.86839 14.5865 19.8273
Au 8.37253 25.4935 10.2922
Au 24.7427 15.9719 17.6673
Au 23.8183 28.148 32.7702
Au 17.2316 10.0274 31.0454
Au 22.1456 10.102 12.3355
Au 17.8105 31.7658 31.8506
Au 19.2916 35.6928 18.2344
Au 16.1341 14.6054 13.5369
Au 11.5775 21.2809 9.01978
Pd 14.3122 29.6482 8.96354
Pd 24.1285 6.27393 21.2457
Au 19.8312 30.5584 19.607
Au 20.5279 23.1083 10.9467
Au 9.53392 22.0786 23.0673
Au 3.97411 13.7908 13.7983
Pd 1.46276 19.2894 22.3742
Au 7.58149 25.0662 20.4884
Pd 9.03048 18.1902 19.2535
Au 19.673 21.8726 8.65826
Au 15.3456 18.248 4.32737
Au 27.4983 20.9808 31.6912
Au 18.38 27.1392 32.0278
Au 7.26521 28.3955 16.7979
Au 5.44348 15.0975 28.099
Au 17.2527 19.0714 37.0867
Au 33.0916 31.1451 22.2822
Au 21.4023 12.878 19.2906
Au 29.656 14.7286 27.5925
Au 15.3353 32.9904 18.882
Au 30.1989 7.25254 28.7004
Pd 2.12358 25.069 20.6273
Pd 25.1036 9.24672 17.134
Au 22.4395 22.1646 -0.0686921
Au 17.4874 15.603 25.801
Au 13.5867 32.5055 13.4946
Pd 13.932 6.13962 26.1348
Pd 4.75386 21.6155 9.11588
Pd 7.35614 13.8478 18.2778
Pd 19.32 15.9394 5.19525
Au 19.5842 29.7782 32.6246
Pd 12.9132 9.47332 16.4064
Au 30.4333 26.5999 9.50048
Au 11.9777 17.931 15.1833
Pd 12.3641 4.80911 21.9317
Au 18.268 15.1159 11.6106
Au 23.5524 14.1986 2.31366
Au 3.55517 26.6561 16.4823
Au 24.3992 18.0546 26.3843
Pd 11.115 16.5999 18.1116
Au 17.4827 21.9013 1.65317
Au 17.1795 16.2351 36.7512
Au 33.62 14.2333 27.332
Au 25.3451 35.9959 12.5741
Au 20.5974 30.6586 5.66345
Au 5.054 17.641 26.5883
Au 4.91766 22.4072 11.8383
Au 21.399 24.1659 8.41723
Pd 16.2749 10.5612 12.0903
Au 12.7127 10.7436 27.0818
Au 4.00019 18.6396 18.7111
Pd 24.2747 8.67208 29.3863
Au 19.7335 22.533 13.5196
Pd 13.555 31.0882 19.5479
Pd 19.6031 11.9287 7.99448
Pd 18.4315 26.9441 6.31518
Au 9.02954 19.9976 8.33545
Pd 7.84687 27.6201 19.3483
Pd 13.0359 17.7701 22.2814
Au 13.8882 20.3507 21.0441
Au 18.3032 25.8805 36.081
Au 3.75328 23.0169 20.5922
Au 1.23161 22.8391 19.3831
Au 1.36254 25.2552 17.8526
Au 31.6571 21.7401 18.8762
Au 28.5414 32.1445 28.0892
Au 30.2617 30.8838 17.9794
Pd 23.3655 19.005 23.9296
Pd 15.4795 18.0297 21.1003
Au 11.6033 19.9399 22.8371
Au 24.6741 17.6367 19.9084
Au 23.6221 4.33383 27.2567
Pd 28.475 32.3129 16.6696
Au 31.66 18.1882 21.6907
Au 5.67839 17.3508 29.648
Au 12.7369 10.9637 14.1326
Au 19.8723 16.7984 32.5881
Au 25.0175 20.7108 25.2626
Au 19.6666 28.921 30.0848
Au 12.031 16.2857 26.5027
Au 19.6156 35.241 12.3472
Au 15.6658 32.1091 30.2423
Au 16.8728 20.9381 27.0206
Pd 32.584 17.3805 13.6667
Au 19.1187 32.3688 12.1214
Pd 10.8307 18.9719 31.0953
Pd 25.3324 7.52562 27.2609
Au 12.581 30.8158 7.21106
Au 8.47556 16.1302 17.4667
Au 4.69811 17.0539 10.6692
Au 23.3498 19.4107 3.24097
Au 27.5609 23.7019 33.0868
Au 19.3357 28.6822 13.5039
Au 11.4327 13.2632 27.4704
Au 12.7278 30.173 27.8621
Au 24.4335 11.2799 11.4091
Au 14.8395 19.1909 18.6797
Au 10.9488 6.21862 11.9717
Au 21.2318 36.272 20.1011
Pd 28.9026 19.4301 12.6356
Au 16.7838 32.2001 25.745
Au 24.2852 14.7997 33.249
Au 20.0195 23.6835 18.4441
Au 19.0298 27.984 34.5885
Au 11.1064 14.3307 24.7284
Au 12.1591 19.8374 27.6599
Au 15.6778 25.0762 32.4297
Pd 11.302 27.0513 14.5919
Au 30.2429 31.3013 14.7754
Au 17.2233 30.7973 23.4107
Au 6.18787 23.1372 18.9836
Au 8.93129 26.4346 15.7365
Au 34.3434 14.5697 24.648
Au 9.42439 14.0431 10.2426
Au 20.4525 10.8417 5.50334
Au 4.12668 11.1479 14.5752
Au 18.8091 17.675 35.0399
Au 24.0632 10.8927 6.38228
Au 5.74571 20.9051 16.8219
Pd 26.3287 19.4335 11.4752
Au 21.6981 31.7297 18.0498
Au 11.5901 21.382 29.9391
Au 3.16108 19.951 16.1243
Au 22.4479 18.1953 21.4374
Pd 31.018 26.8814 14.2744
Au 7.524 23.133 11.9511
Au 24.9268 30.27 24.4277
Pd 13.2267 20.3659 15.2059
Au 15.8562 25.314 3.08636
Au 1.30928 18.2082 19.6604
Pd 7.85808 24.2433 14.4814
Au 18.5621 10.7162 3.26756
Au 14.7657 5.09834 23.3136
Au 7.6735 28.1401 13.9406
Au 14.0808 22.8978 8.7973
Au 25.9077 19.0909 33.0197
Au 21.4751 30.5105 8.81261
Au 11.6017 33.7176 16.322
Au 35.4674 19.6561 22.2195
Pd 5.24166 12.4978 26.8521
Au 24.7541 10.4573 19.6675
Au 32.9043 10.2258 18.2674
Pd 14.7196 15.5696 21.8136
Pd 13.3472 20.7924 11.428
Au 23.5775 7.81291 18.93
Pd 9.57904 23.4372 30.1186
Au 19.5635 17.4907 37.5402
Pd 11.3733 7.37055 17.5346
Pd 21.6984 5.65148 25.472
Pd 19.7384 4.24044 17.4312
Pd 28.0465 18.5834 4.57661
Au 21.0923 16.8364 14.8314
Au 22.7863 6.74378 28.1004
Au 29.4087 34.0267 26.1292
Pd 10.0251 10.1987 21.0793
Au 11.8318 8.1821 25.954
Au 21.9013 34.9103 17.8113
Pd 29.524 26.6311 12.0525
Au 16.2875 9.45626 23.9898
Pd 23.2823 15.5644 13.8369
Au 17.1712 19.4809 24.7736
Au 7.23699 25.2244 7.81323
Au 9.90712 21.1191 11.2013
Au 31.4018 17.8098 6.81925
Au 25.5468 16.2037 1.91948
Au 21.7494 13.919 28.9508
Au 22.2693 10.9439 35.6755
Au 19.0664 11.5849 32.4924
Au 22.7726 16.2086 27.8911
Pd 14.1721 21.492 28.6453
Au 16.4983 11.4002 20.0471
Pd 6.9969 13.1192 11.0975
Au 22.9924 31.6049 29.6126
Au 12.3387 19.1944 17.5537
Au 5.30688 20.7092 20.1089
Pd 22.6138 7.21118 23.3525
Au 17.8113 33.6519 23.5017
Au 34.3645 12.4843 22.9834
Au 25.4564 13.6313 22.9583
Pd 19.7609 6.98794 8.77061
Au 33.759 26.9029 14.2196
Au 3.17549 16.8525 28.4182
Au 26.3627 4.95164 27.0368
Au 11.3213 7.70662 21.8065
Au 26.5723 19.9856 14.1886
Au 11.3095 5.14017 26.2963
Au 15.571 19.9991 31.7497
Au 10.2983 3.07919 18.4503
Au 18.6421 15.3488 2.41835
Au 29.4403 28.9 8.24904
Au 26.9438 20.2666 8.6743
Au 6.88856 18.4927 17.4407
Pd 17.4145 20.2767 17.5502
Au 22.3033 3.04448 18.0448
Au 31.3794 18.4861 11.4369
Au 15.9883 20.061 6.58918
Au 24.8706 18.7382 1.13091
Au 14.1335 9.4416 32.4138
Au 10.1492 14.4301 7.68127
Au 35.77 22.8439 26.4292
Au 15.621 8.01219 30.1853
Au 22.2406 2.14949 15.3383
Au 14.1996 12.4074 28.6253
Pd 10.7265 17.3822 28.8286
Pd 14.8887 27.7214 15.5971
Pd 10.0777 23.7201 12.0716
Pd 7.98632 24.3175 23.0694
Au 7.91011 29.4656 26.5409
Au 28.5848 18.1096 24.3275
Au 22.0155 10.1686 19.6398
Au 18.2507 14.9683 28.641
Au 32.8721 12.9275 11.6593
Au 24.2757 22.5697 4.01204
Au 18.3316 21.4292 38.1467
Pd 14.7447 15.8404 26.1492
Pd 16.3322 8.11982 32.7825
Au 15.9355 19.3295 28.9809
Au 15.6035 29.9767 6.49122
Au 23.9322 15.9988 4.27274
Au 7.18047 11.6844 31.5916
Pd 23.2347 26.3865 8.0208
Pd 13.6219 6.80336 16.0398
Pd 13.4511 13.8749 13.9618
Au 29.7172 20.0979 27.2368
Au 13.4752 15.9698 8.67455
Au 26.6603 16.4479 33.3005
Au 17.4758 21.404 15.141
Au 15.0807 23.4747 37.9548
Pd 18.8844 26.1935 29.3981
Au 12.0143 27.5506 27.5162
Au 11.6785 10.2371 5.92122
Au 32.9369 10.5177 14.6549
Au 25.7513 22.4629 7.45494
Au 15.475 22.4499 10.9674
Pd 20.5104 26.0054 3.10833
Au 10.4964 26.1694 29.3066
Au 32.0775 8.6221 20.4985
Au 17.8488 31.4136 7.00364
Au 22.0221 12.8109 33.6075
Pd 12.6026 16.672 30.9451
Au 8.35626 16.4458 24.7729
Pd 14.647 29.8237 17.5071
Au 22.368 8.6681 16.6046
Au 14.2868 24.0945 24.788
Au 25.6801 10.3557 31.126
Au 31.0484 21.0815 21.5007
Au 8.4082 24.8075 27.9493
Au 14.8249 20.9438 4.35108
Au 26.7773 13.7876 7.47968
Au 26.895 7.36988 10.916
Au 18.0511 26.9319 3.61767
Au 14.4059 26.097 20.3563
Au 30.8172 32.3563 21.4397
Au 22.1472 19.5418 0.784152
Pd 7.54415 15.7275 20.2851
Au 15.7854 17.0596 23.8981
Au 29.3882 27.939 30.6283
Au 13.769 32.7434 28.1316
Au 31.7572 8.6319 16.3191
Au 11.3842 9.43844 31.5541
Au 27.6711 30.1124 29.804
Au 7.90485 25.4708 30.7429
Au 22.6177 28.9573 28.5314
Au 15.0106 21.3311 16.8642
Au 22.7006 23.9222 36.2011
Au 10.4735 32.5424 10.8091
Au 20.4124 9.04337 22.099
Au 23.5136 17.4772 15.867
Pd 20.7912 26.4137 14.7346
Au 9.98871 25.8359 24.1758
Pd 7.61306 22.0861 28.576
Au 27.526 20.9069 28.7931
Au 24.7191 10.8477 23.1421
Au 14.7612 34.121 26.0299
Au 10.3647 3.19895 21.2233
Au 13.9211 26.0966 34.3444
Au 8.01897 8.90768 28.2464
Au 29.3611 28.441 18.6252
Au 20.6189 4.78904 27.7414
Pd 13.3889 19.3669 30.3218
Au 18.4401 11.7646 10.5441
Au 9.15212 15.9704 12.2099
Au 13.6993 6.78541 12.0533
Au 6.06385 26.3419 15.2541
Au 26.0516 25.4415 7.67477
Au 12.5642 11.6804 32.5786
Au 9.78187 26.0055 7.90978
Au 11.6639 23.884 5.27567
Au 11.7772 30.0859 9.76389
Pd 33.7291 24.8811 29.3137
Au 15.681 25.3139 22.672
Au 23.8815 30.1818 18.9852
Pd 26.7618 22.9106 18.902
Au 22.9403 27.3808 16.0512
Au 9.45218 32.2004 15.7899
Au 18.3035 7.38818 31.1098
Au 12.0973 27.3263 32.4359
Au 22.0933 29.4813 31.2281
Au 2.71414 21.0014 10.7846
Pd 15.6897 31.3432 21.1556
Pd 24.3863 20.5582 15.5703
Pd 11.3616 19.9344 13.2704
Au 8.5605 18.5746 32.7112
Pd 15.7327 21.634 19.4217
Au 18.3929 12.1358 22.1945
Pd 13.6967 21.6974 36.5161
Au 28.2941 28.5085 10.6601
Pd 28.4054 7.39347 19.3579
Pd 18.9227 10.308 24.0745
Au 26.7228 20.7941 16.9816
Au 18.3976 24.1605 15.4955
Au 13.8605 25.3404 10.2492
Au 23.7159 22.9488 24.6689
Au 11.5161 12.3717 19.9334
Au 9.99912 25.8315 19.3437
Au 9.37121 27.1381 26.6236
Au 22.2299 19.9449 19.4523
Au 13.2759 24.3423 36.235
Au 7.21901 16.9859 15.0655
Au 17.7502 24.1485 30.8814
Au 7.9188 7.74587 16.0332
Au 33.9355 22.1106 22.3717
Au 34.2932 28.14 25.7602
Au 10.9254 13.9184 32.2313
Au 14.8803 32.2149 7.84217
Au 15.5412 7.09061 6.07723
Pd 13.2853 13.2211 23.1147
Au 5.92845 28.0997 25.185
Pd 32.7813 24.513 25.1334
Au 15.4866 10.4628 16.7358
Au 15.7512 14.427 29.9672
Au 14.7323 19.5247 23.5225
Pd 26.8782 21.967 12.3086
Au 28.3376 15.8023 16.2063
Au 20.5709 22.0256 27.4933
Pd 28.0501 33.0937 20.9978
Au 30.1885 7.97656 25.915
Au 15.9697 9.36932 7.35349
Au 15.8328 27.8254 4.78187
Au 18.2191 21.7492 6.28987
Pd 14.5222 26.8287 12.7571
Au 18.6699 7.53837 20.5225
Au 34.5134 20.7297 27.6408
Au 13.3499 28.462 6.16434
Pd 22.7138 32.8177 15.8291
Pd 16.5797 24.2726 20.0769
Pd 21.5235 28.8845 18.2726
Au 20.6284 26.9737 25.053
Pd 16.1445 22.1024 24.442
Pd 24.3438 12.6722 8.68194
Au 15.2288 11.9251 14.1454
Au 12.6301 20.4332 32.7358
Au 25.1719 25.8969 16.6538
Au 27.0636 17.667 21.4138
Pd 12.6082 28.575 19.0948
Au 16.8294 11.7676 8.19688
Au 22.6467 35.295 12.3489
Au 2.15621 20.8863 24.4752
Pd 32.3105 28.936 18.3978
Pd 19.3088 10.4934 19.8985
Au 29.2019 25.4785 29.0703
Au 27.2243 30.3738 18.1079
Pd 35.7071 27.4083 21.2239
Pd 18.3161 16.6135 8.56588
Au 14.5227 19.153 36.8847
Au 6.87436 9.84142 17.5284
Au 11.4085 22.8126 32.239
Au 12.8785 3.66927 24.723
Au 27.0764 11.5951 24.245
Au 28.685 12.0477 28.2479
Au 17.0993 26.8257 20.7746
Au 24.2437 9.85791 9.00703
Au 23.7422 11.704 29.3378
Au 28.8008 12.4323 9.18089
Pd 15.5986 12.9437 18.1412
Pd 10.9186 9.54903 23.6543
Au 7.10895 6.48855 21.0843
Au 29.6228 6.11424 23.9556
Au 8.32091 18.1985 30.105
Au 13.698 5.27072 18.3688
Au 14.5255 8.90535 25.8525
Au 26.0331 22.4474 27.1793
Au 20.4157 28.1224 4.7569
Au 11.2115 16.2538 10.1528
Pd 14.0489 31.4423 25.6978
Au 25.9175 14.0652 3.58752
Pd 22.0985 12.0605 27.0466
Au 32.3321 29.3115 13.8902
Pd 26.6512 7.79589 30.1206
Pd 13.4511 12.4668 16.3903
Au 14.2684 6.00854 8.16888
Au 25.0736 23.0206 16.7581
Au 24.4365 29.6593 21.7721
Pd 8.10661 10.7682 11.9834
Au 9.89747 18.442 5.98648
Au 23.0344 13.784 11.0874
Au 29.991 13.5575 12.077
Au 22.5488 21.7155 17.2335
Au 10.5649 8.7473 7.87709
Au 12.6291 27.8923 11.2234
Au 14.1814 20.8958 25.8936
Au 32.8645 10.2922 23.2202
Au 4.90558 22.0282 29.0719
Au 11.7683 2.74009 14.7583
Au 26.2703 16.7444 36.0362
Au 11.3592 14.2435 12.3263
Au 19.7787 11.9862 35.1175
Pd 5.60865 9.78087 12.7336
Pd 24.1812 17.3146 34.339
Au 4.50144 12.5743 29.4271
Au 12.1491 7.30081 9.65304
Au 23.3 19.9267 34.0533
Au 31.1404 12.2755 7.53625
Au 15.5249 11.544 25.5736
Pd 23.2343 18.2656 6.00242
Au 15.6599 5.57044 10.445
Au 18.3004 24.494 2.2255
Au 7.98084 27.9215 8.49939
Au 18.3699 6.89422 6.18358
Au 17.3363 34.3028 11.1506
Au 22.6758 17.6789 8.71428
Au 13.8429 15.2075 11.5489
Au 11.2106 5.4116 19.5621
Pd 10.6189 23.2495 17.6533
Au 8.96598 10.0885 9.52747
Pd 19.5598 25.4898 10.3826
Au 15.0149 30.5374 14.7737
Au 24.3506 13.9368 27.5201
Au 23.6799 26.3925 12.8127
Au 8.28018 22.2779 16.5859
Pd 11.879 16.9694 12.6911
Au 31.7108 14.6943 25.4628
Au 24.7598 3.56806 21.1519
Au 30.4701 13.8577 16.3789
Pd 20.7507 19.152 23.4604
Au 20.3002 7.57461 27.3316
Au 20.5296 33.2617 22.4594
Au 31.6582 26.3455 30.1512
Au 20.5837 33.5126 19.7367
Au 27.096 19.4448 26.4662
Pd 25.9581 5.20549 23.0527
Pd 30.0432 16.4482 29.9503
Au 32.4956 30.9573 16.4128
Au 21.8304 9.48785 28.6653
Au 22.1103 14.5225 25.8636
Au 31.3649 21.5109 11.0308
Au 31.1883 26.4875 19.4862
Au 14.8114 13.9508 3.335
Pd 8.47982 13.6374 24.7536
Au 22.2763 10.1821 24.0984
Pd 18.667 22.5568 25.593
Au 2.41799 18.0836 14.3701
Au 22.5771 33.1423 8.82831
Au 20.3617 22.5943 21.8286
Au 35.9147 21.4562 16.1331
Au 33.0414 16.7679 30.1242
Au 6.31961 20.1231 30.5367
Au 20.2677 17.3849 1.56689
Pd 25.8685 11.8799 17.6839
Au 23.3551 9.07228 21.6186
Au 29.1694 24.7472 5.06824
Au 29.156 4.76292 19.4113
Au 31.5684 22.9355 23.3762
Pd 24.0942 12.5139 25.1674
Pd 21.5994 26.9327 30.0409
Au 9.41026 3.4883 15.9454
Pd 18.0184 8.57335 25.9486
Au 27.1398 6.78387 25.0981
Au 29.314 22.8999 20.0796
Pd 26.1445 18.4384 6.68002
Au 21.409 2.63073 22.65
Au 34.1782 17.4384 11.5227
Au 2.19626 16.6499 21.5743
Au 18.0235 29.3863 5.15289
Au 31.8535 25.8522 22.9459
Au 18.7209 9.0526 33.3556
Pd 24.6782 16.9385 31.4788
Au 34.0447 17.1487 20.6306
Au 25.1969 21.8328 32.9348
Au 33.1605 13.5427 20.7365
Pd 7.62874 20.7113 18.8796
Au 36.0982 25.1466 19.7852
Au 11.5492 32.1647 26.3908
Au 12.3744 23.1528 10.8953
Pd 13.2688 28.8644 25.3043
Pd 29.0453 22.1454 17.4253
Au 24.8309 29.5196 30.1642
Au 21.1302 7.418 6.54379
Au 7.19493 15.7957 10.1775
Au 26.8331 33.408 18.4466
Pd 23.2897 26.0145 34.5241
Au 26.6716 9.96774 10.4241
Pd 24.6611 21.3378 19.5552
Au 34.4182 26.5347 23.6942
Pd 22.4655 34.2987 24.0548
Au 16.6165 25.738 27.6853
Au 31.6241 12.8621 23.4647
Au 18.2889 20.4182 31.5205
Pd 23.4251 24.8041 14.9966
Au 18.6655 33.6614 29.756
Au 20.0444 9.52995 30.8327
Au 22.1091 35.3888 26.651
Au 27.4366 9.94177 18.8257
Pd 21.7284 9.86445 7.63576
Au 12.5122 34.1616 11.5006
Pd 24.6696 27.1739 28.1911
Au 15.4458 33.9278 14.917
Au 24.8031 20.4651 5.50135
Pd 13.1394 19.2131 2.87762
Au 22.029 28.5191 6.91981
Pd 29.0111 15.4713 32.3779
Au 16.3406 31.7407 10.0335
Au 7.9131 19.9117 15.2902
Au 15.6217 30.7321 27.8713
Au 22.1395 22.658 19.8184
Pd 19.5301 11.5255 15.0142
Au 30.6756 9.86016 27.905
Au 18.0681 31.1401 29.1074
Au 34.079 18.085 27.97
Pd 22.5306 24.0634 22.4176
Au 20.0295 24.3266 23.9268
Au 30.133 34.995 21.5585
Au 31.3369 18.5784 28.8336
Au 33.6123 16.8339 25.7465
Au 5.15221 28.8829 14.8605
Au 8.17472 20.6661 5.78914
Au 22.4277 28.2412 10.128
Au 23.2873 23.0321 11.7474
Au 10.0688 20.5911 33.5251
Pd 24.4331 14.5841 30.1612
Au 12.2846 23.9878 29.343
Pd 27.1446 29.2498 22.132
Au 19.1085 30.9843 16.9908
Au 27.9409 14.965 20.785
Au 21.6866 32.9674 11.3039
Au 26.943 34.1399 24.7357
Au 23.5991 23.9429 1.65977
Au 28.8568 35.0629 17.0046
Pd 10.7319 21.1744 6.40152
Pd 23.9187 35.9447 19.2734
Au 10.2809 22.4564 27.7019
Au 33.117 27.4005 21.075
Au 16.6294 13.9105 21.2105
Au 17.6412 16.4037 20.2588
Au 31.4794 11.2168 21.0903
Au 34.713 27.5593 18.6697
Au 16.9758 6.93529 8.47577
Au 31.0615 13.9972 9.69886
Au 35.662 18.8351 19.4124
Pd 15.9909 29.4294 25.4869
Au 25.3455 14.5327 12.4296
Au 16.5957 28.4434 13.6953
Pd 15.5293 23.4001 15.3106
Au 28.6441 25.5449 19.3563
Pd 32.1142 28.6491 23.3487
Au 24.5013 33.8586 13.9952
Au 14.0812 17.0791 17.0886
Au 5.37932 19.1826 14.2245
Au 12.7097 2.95014 19.8424
Au 25.7297 31.8403 28.886
Pd 27.2169 20.4764 23.6479
Pd 17.3244 34.902 16.5265
Au 18.4096 17.8214 3.56528
Au 6.52622 7.44767 13.6544
Pd 29.1274 33.3118 23.4175
Au 31.0012 33.2395 16.5762
Pd 4.91553 24.317 13.8428
Pd 12.8991 21.661 18.728
Au 14.1995 16.5146 14.3008
Pd 13.0892 24.9063 31.8432
Au 27.0115 31.676 23.2648
Au 21.4876 17.8961 12.2609
Au 24.8458 35.1865 23.1242
Au 31.1088 10.5281 25.2895
Au 30.2739 16.6199 9.10397
Au 34.1918 22.6793 19.6821
Au 16.8767 22.9941 4.14396
Pd 6.81948 30.2217 12.5615
Au 25.971 25.6915 19.1745
Au 20.0408 9.56536 9.91601
Au 20.703 30.865 28.1795
Au 25.0413 21.5404 10.2465
Au 16.2271 13.651 27.1552
Au 28.1935 24.3171 12.202
Au 6.66452 14.9891 13.1588
Pd 15.6448 14.1835 24.0529
Au 16.4867 26.9785 34.3736
Au 19.5204 13.6632 30.6293
Au 5.79393 26.318 27.2904
Pd 28.5978 29.5126 27.3059
Au 17.6092 23.9658 37.764
Au 8.81819 11.6326 16.3028
Au 21.5781 20.8495 12.04
Au 15.113 15.1375 35.3011
Au 13.1352 10.9102 24.4193
Au 13.3977 12.2763 11.7063
Au 29.0233 7.17455 31.0686
Au 10.7009 12.4753 22.606
Au 6.01928 19.9924 7.40129
Pd 17.4979 14.8686 17.7
Au 18.9339 14.7027 14.5726
Au 13.0302 4.84244 10.2857
Au 22.998 36.899 24.4566
Pd 16.2121 18.3389 8.87593
Pd 13.3573 13.9236 31.1139
Pd 10.8961 9.06608 11.4651
Au 11.937 31.1078 23.8574
Au 28.3356 18.2937 10.0516
Pd 6.99377 19.3768 28.0759
Au 17.9489 12.5672 13.0732
Au 27.5316 20.934 5.96399
Au 34.7735 25.432 26.5445
Pd 17.5259 9.58122 21.7139
Au 19.7659 8.50641 4.45609
Au 21.2094 33.615 28.7813
Au 14.0777 15.8094 5.33566
Au 6.84781 21.9259 24.2281
Au 15.3705 3.03961 25.0207
Au 29.3222 8.73506 11.4921
Au 13.4771 10.0074 29.8721
Au 24.0992 10.3328 27.0353
Au 25.1514 3.41022 25.0498
Au 12.4964 33.5242 18.871
Au 6.41513 12.3274 13.7174
Au 22.5033 6.73379 13.9943
Au 23.9631 24.7964 5.96869
Au 15.6069 19.8352 1.94982
Pd 25.1887 36.4257 15.2678
Au 17.3664 35.0157 25.9323
Pd 28.6088 11.2718 11.7562
Au 8.38352 15.5581 29.5384
Au 25.807 26.3974 33.3377
Au 22.3393 17.8592 32.4223
Au 20.0281 27.9775 27.576
Pd 23.937 20.0472 31.2821
Au 29.826 22.5293 32.1805
Au 30.3578 30.2989 29.1631
Pd 19.5572 19.4803 5.52725
Au 25.3495 16.8726 28.6076
Au 31.0996 10.9164 12.7426
Au 9.80529 4.17304 13.4023
Au 21.3078 18.9973 16.8921
Au 7.98034 12.4703 8.53441
Au 17.1875 23.032 12.9439
Au 4.53199 11.9575 11.7561
Au 22.5882 12.4882 4.27838
Au 21.8061 13.4859 36.253
Pd 9.11386 8.19499 13.2352
Pd 8.99772 23.5027 25.4908
Au 33.6334 21.7802 25.1409
Au 17.6963 20.2751 34.3483
Pd 20.0946 14.733 7.69358
Au 30.7088 11.6559 30.0044
Au 22.2345 19.4215 14.3932
Au 35.2652 14.9418 19.3917
Au 26.9938 14.645 28.1159
Au 29.4173 9.16585 21.1458
Pd 6.94312 15.0745 22.8217
Au 3.15978 23.5211 10.0777
Au 23.2543 5.8234 11.5
Au 25.9079 29.4285 27.5085
Pd 3.74312 24.3548 18.0307
Au 6.84227 11.327 28.9102
Pd 10.5639 11.7201 25.3096
Pd 17.8548 30.8267 14.3262
Au 18.2365 36.3381 23.6218
Au 20.7454 24.627 34.3625
Au 13.7362 26.525 17.7956
Pd 27.7808 25.8485 9.82403
Au 12.4429 28.7016 16.4013
Au 16.2042 32.292 12.707
Au 14.9261 29.6982 11.8686
Pd 17.8103 29.3928 21.1299
Pd 20.561 16.4892 10.0728
Au 17.2447 10.1676 14.6708
Pd 20.3232 6.79254 16.0201
Au 30.9526 16.6068 17.2198
Pd 14.3663 34.871 17.228
Au 31.0583 31.8013 26.9864
Au 29.4942 17.4752 19.7787
Au 31.3688 20.0426 13.782
Pd 30.6516 27.8412 28.1746
Au 16.4646 25.6647 14.0856
Pd 16.4129 28.1244 23.1081
Au 31.7537 23.918 20.7125
Pd 22.3759 31.5499 20.8791
Au 23.1347 6.78272 31.0538
Au 32.6384 22.4949 13.2848
Au 26.4897 12.7853 10.4839
Au 24.4587 3.56615 16.4008
Au 3.72533 22.4618 15.3791
Au 12.0507 5.811 28.7337
Au 24.3054 12.5591 35.0434
Au 29.3253 16.4935 5.6738
Au 31.1109 31.1546 12.2198
Au 17.4882 3.69883 19.276
Au 13.5247 15.0083 28.4989
Au 22.6156 14.9473 8.7316
Pd 17.9437 23.393 10.1082
Au 19.1922 3.42064 12.0822
Au 25.5331 18.076 3.96367
Pd 15.9006 19.7821 11.1337
Pd 21.1014 25.7415 6.06338
Au 30.7096 22.6711 5.82696
Au 2.6156 20.4801 20.3102