1687
Atoms. Timestep: 20446
Au 10.6249 6.36353 7.84419
Au 6.13918 9.31486 9.61067
Au 7.20978 7.31546 11.2446
Au 8.17355 4.70719 19.2995
Au 8.25712 5.19062 22.1549
Au 11.1837 7.36045 26.417
Au 11.9536 9.83078 32.0348
Pd 10.726 5.81432 14.1918
Au 9.75291 8.48686 6.26974
Au 11.684 4.3733 9.56904
Pd 8.34043 5.35045 12.8847
Au 6.17671 6.83571 13.7601
Au 7.20202 6.61733 17.5008
Pd 6.21427 8.64539 15.8611
Au 9.13605 2.85829 21.0947
Au 7.23528 7.10815 20.4225
Au 8.24199 10.1271 29.0594
Pd 7.49668 7.65667 23.2194
Pd 9.73103 11.2039 31.0856
Pd 13.5809 6.15181 27.2641
Pd 12.746 14.5749 32.739
Pd 8.97559 13.6799 32.2192
Au 3.00583 12.8362 9.03935
Pd 5.12632 8.83795 12.1619
Au 3.9915 10.8097 10.5479
Au 5.12733 10.6146 14.2727
Au 4.00181 12.6035 12.6753
Au 6.24381 9.06894 18.7101
Au 5.23644 11.0622 17.057
Au 6.38174 9.57241 21.5766
Au 5.36588 11.5461 19.8961
Pd 6.68001 10.1299 24.3369
Au 5.55915 12.0671 22.7275
Au 7.50227 12.5754 30.1779
Au 5.86656 12.6147 25.4869
Au 11.1749 12.2682 33.1905
Au 6.52589 16.2172 28.8012
Au 5.28322 13.2431 10.2129
Au 2.90125 14.6484 11.1094
Au 3.77068 18.1228 8.2731
Au 4.15602 13.0737 15.4583
Au 3.05184 15.1101 13.8795
Au 4.31558 13.5491 18.2583
Au 3.22742 15.5714 16.6472
Au 4.52095 14.0653 21.0741
Au 3.4531 16.0756 19.4386
Au 4.783 14.5931 23.8836
Au 3.7357 16.6091 22.2292
Au 5.13001 15.1524 26.61
Au 4.05817 17.1488 24.9971
Au 6.19295 17.5052 32.246
Au 4.42248 17.7031 27.7046
Pd 6.24603 18.5018 9.3859
Au 2.04882 17.1405 12.2934
Au 4.47218 20.6964 9.11038
Au 2.2357 17.6041 15.0079
Au 2.69236 19.7131 13.2234
Au 2.44374 18.0809 17.7667
Au 2.84008 20.1993 15.9344
Au 2.73096 18.612 20.5439
Au 2.91596 20.6946 18.6312
Au 3.08875 19.1972 23.2993
Au 2.89868 21.2555 21.3639
Au 3.01906 22.2406 26.9259
Au 2.90774 21.803 24.1608
Au 3.43895 19.7253 26.0278
Pd 5.36734 22.3773 28.2497
Au 6.99664 21.0748 10.2669
Pd 2.62544 19.2021 10.5298
Au 5.24665 23.2726 10.0423
Pd 3.50281 22.2875 14.1706
Au 3.35456 21.7734 11.4453
Pd 3.62323 22.7875 16.8883
Au 4.27194 24.8899 15.1317
Au 3.59562 23.3489 19.5992
Au 4.35944 25.4283 17.8583
Au 3.6031 23.8662 22.3511
Au 4.41578 25.9542 20.6068
Au 3.67749 24.2916 25.1602
Au 4.47466 26.3936 23.3928
Au 5.34075 24.057 30.2824
Au 3.89183 24.6078 27.9282
Au 11.575 22.8121 10.1121
Au 6.07997 25.8128 11.0072
Au 9.77018 24.9797 9.85188
Au 4.16637 24.3526 12.4098
Au 6.92764 28.3895 11.9631
Au 5.1135 27.5013 16.1169
Au 4.99621 26.9127 13.3636
Pd 7.74973 28.2915 20.1692
Au 5.25036 28.0558 18.8705
Au 5.34764 28.495 21.6485
Au 8.68746 32.5517 23.4383
Au 4.64083 26.6622 26.1909
Au 5.50035 28.7753 24.4321
Au 7.57909 30.4066 25.2151
Au 14.4983 33.4267 27.9482
Au 5.72318 19.5162 6.89117
Pd 7.29166 24.6131 8.69642
Au 8.42447 23.4585 6.38067
Au 7.95635 30.9029 13.0057
Au 8.07464 27.1605 9.60381
Au 5.88574 29.4433 14.3155
Pd 10.6085 31.6098 14.097
Au 7.05089 32.5716 18.2644
Au 11.2801 33.9848 12.535
Au 11.09 32.2483 21.9166
Au 11.9158 35.561 16.69
Au 7.28433 32.9207 20.9736
Au 9.7205 26.8062 31.9829
Au 20.006 30.813 28.633
Pd 13.216 31.979 29.8202
Au 12.8535 4.88429 7.0959
Au 9.55718 3.52681 14.5616
Pd 8.44387 7.91989 8.73264
Au 9.54164 5.04887 16.7674
Pd 11.882 6.22207 11.6699
Au 10.3608 3.12447 18.6961
Pd 12.4082 3.72066 14.1299
Au 10.5581 3.92464 23.1868
Au 11.8441 2.62219 21.1179
Au 15.0475 7.17385 29.3546
Pd 12.0746 5.06614 25.193
Au 9.00906 7.82453 27.92
Au 10.474 8.76609 29.9561
Au 12.6611 13.3678 35.1412
Au 12.7544 7.50559 30.8328
Au 11.9757 6.95807 5.45755
Au 5.12008 11.3722 8.10529
Au 9.89031 10.3299 8.28261
Au 8.59242 9.70667 10.8355
Au 10.8671 8.22659 9.9498
Au 8.24858 12.5298 6.63509
Au 9.64507 7.70844 12.491
Au 8.50243 7.18845 15.0632
Au 12.1375 8.06621 13.8532
Au 11.1375 10.0733 12.1086
Au 7.28456 4.85834 15.3324
Au 9.59553 7.01107 18.8584
Au 11.8532 5.33056 18.2202
Pd 10.8973 7.50618 16.4018
Au 10.5812 5.05147 20.6693
Au 9.73417 7.46681 21.734
Pd 12.055 6.18627 22.7401
Pd 12.0855 7.35902 20.1668
Au 9.67936 6.27758 24.3214
Au 8.83121 8.74065 25.4204
Pd 12.007 11.01 29.5084
Au 11.1948 8.58668 23.8896
Pd 10.4892 9.95998 27.4219
Au 9.69898 12.3663 28.5665
Pd 14.277 9.67735 30.4049
Au 12.0414 12.2328 26.9474
Au 11.2404 13.4691 30.6751
Au 10.4986 15.9802 31.7892
Pd 13.4842 12.0936 31.6195
Pd 12.796 15.8101 30.223
Au 7.44598 9.94978 7.1826
Au 6.08945 13.9001 7.59542
Au 7.54668 11.7628 9.22927
Au 6.36085 11.183 11.7977
Au 10.0983 12.128 10.4495
Au 8.6559 14.2892 8.79402
Pd 7.46651 9.19027 13.4162
Pd 7.58762 11.0189 15.5086
Pd 9.91335 9.54593 14.6715
Au 8.86585 11.5509 13.0153
Au 8.60152 9.02847 17.1667
Au 7.70188 11.4494 18.3207
Au 11.1177 9.40094 18.4425
Au 10.1275 11.3953 16.7503
Au 8.70037 9.45374 20.0112
Au 7.87033 11.9124 21.1454
Au 11.2652 9.81429 21.2668
Pd 10.2716 11.8262 19.5575
Au 8.91742 9.93114 22.8371
Au 8.1137 12.3992 23.9625
Pd 10.4078 11.0779 24.9344
Au 10.4747 12.2742 22.3698
Au 8.03589 11.1765 26.5489
Au 7.25793 13.6816 27.6701
Au 11.2827 14.697 28.101
Au 9.63921 13.5258 26.0482
Au 8.94098 14.8533 29.6914
Pd 8.28845 17.36 30.7393
Au 10.4907 14.7537 34.228
Au 10.5498 17.2014 29.2311
Au 8.15064 15.3188 6.19949
Au 10.1894 16.6798 4.81584
Au 3.945 15.3241 8.58039
Au 5.39062 15.0407 12.3424
Au 7.78459 13.6064 11.409
Au 6.48093 15.7021 9.75054
Pd 6.50401 13.0087 13.9077
Au 5.55505 15.4811 15.0737
Au 9.0756 13.3939 15.0963
Au 7.97172 15.4317 13.5046
Au 6.64914 13.4463 16.6754
Au 5.74601 15.9427 17.8375
Au 9.26355 13.8288 17.8934
Au 8.15803 15.861 16.2484
Au 6.83243 13.9182 19.4784
Au 5.99672 16.4249 20.6121
Au 9.46563 14.2722 20.6682
Au 8.39085 16.3052 19.0105
Au 7.05859 14.3995 22.2847
Au 6.30315 16.9025 23.4026
Au 9.69752 14.7279 23.4818
Au 8.65465 16.7567 21.7863
Pd 7.35891 14.8912 25.0659
Pd 6.64178 17.396 26.1663
Au 8.87097 16.0165 27.1692
Au 8.94386 17.2051 24.5883
Au 6.77293 15.0633 31.2835
Au 7.45247 19.8533 31.8672
Pd 9.63987 18.4808 32.8827
Au 8.17617 18.5246 28.2733
Au 7.92861 18.1055 5.7849
Au 5.92523 16.7377 7.18481
Pd 4.31764 17.0496 10.7571
Au 5.03616 19.6025 11.6561
Pd 6.83106 17.434 11.9126
Au 10.7656 20.2392 9.18405
Pd 4.49518 17.5214 13.4599
Au 5.18381 20.0954 14.4032
Pd 7.03235 17.8816 14.6262
Au 7.60084 19.9611 12.821
Au 4.67728 17.992 16.1849
Pd 5.30568 20.5943 17.1265
Au 7.25928 18.3535 17.358
Au 7.74332 20.4481 15.5649
Au 4.9131 18.4888 18.9349
Au 5.29255 21.129 19.8738
Au 7.56606 18.8151 20.1182
Au 7.78155 20.9638 18.3294
Au 5.25766 18.9659 21.6984
Au 5.23363 21.5938 22.6704
Au 7.94305 19.2623 22.8884
Au 7.74039 21.4442 21.1072
Au 5.6497 19.4378 24.4694
Pd 5.27778 21.9943 25.4664
Au 8.28309 19.6989 25.6774
Au 7.67828 21.8383 23.9243
Au 3.83645 20.2147 28.6618
Au 5.87401 18.7387 29.8465
Au 9.66583 21.313 32.6586
Au 7.42841 21.0179 29.3969
Au 1.90452 16.7198 9.64722
Au 10.1975 21.2583 6.61075
Au 7.78141 23.6133 11.2125
Au 8.61317 26.1786 12.1629
Pd 9.59144 21.4087 11.4563
Pd 12.3684 25.3348 11.0501
Au 5.8032 22.1819 12.6002
Pd 6.62547 24.7243 13.5718
Au 8.36108 22.5149 13.7762
Au 10.3755 23.9407 12.4052
Au 5.94402 22.6967 15.3807
Pd 6.74403 25.2641 16.3634
Au 8.47326 23.0404 16.596
Au 9.15725 25.0735 14.7755
Au 6.01344 23.2125 18.1364
Au 6.81278 25.7722 19.1459
Pd 8.50104 23.5393 19.3831
Au 9.28758 25.5926 17.6385
Pd 6.01694 23.6947 20.8975
Au 6.86948 26.217 21.9256
Au 8.50899 23.9743 22.165
Au 9.36202 26.0724 20.4322
Au 6.02708 24.1227 23.6892
Pd 6.16459 24.4408 26.4938
Pd 6.01359 19.9063 27.1982
Au 8.54664 24.326 25.0034
Pd 7.62317 23.8795 28.9261
Au 7.48832 25.4427 31.1341
Pd 7.46372 22.707 31.4919
Pd 9.8496 25.3523 29.7604
Pd 8.9919 22.4406 8.91446
Au 9.65973 22.2036 4.13654
Pd 10.9254 23.7887 7.54505
Au 8.92249 29.6886 10.5394
Pd 10.6316 27.5615 10.7971
Au 10.4014 24.8039 5.0116
Au 9.5113 28.7555 13.0805
Au 13.907 34.7698 12.3698
Au 11.2312 26.4958 13.3678
Pd 14.865 25.7396 12.3441
Au 7.45127 27.2555 14.521
Au 8.31691 29.7599 15.4443
Au 9.98748 27.621 15.7951
Au 11.924 29.0443 14.3176
Au 7.59585 27.8241 17.3805
Pd 8.54645 30.3251 18.3705
Au 10.1879 28.1191 18.6627
Au 11.253 32.9176 17.1103
Au 8.75282 30.7126 21.2227
Au 7.8492 28.6396 22.9803
Pd 9.41247 26.4228 23.2475
Pd 10.329 28.5133 21.518
Pd 6.96965 26.5365 24.7421
Pd 11.9009 32.964 27.2401
Pd 8.29635 25.9989 27.2587
Au 9.09263 28.1133 25.5334
Au 5.95815 26.1505 28.709
Au 10.2849 28.9348 30.3818
Au 12.0048 25.5296 33.2434
Au 11.2841 29.6173 26.3991
Au 6.44941 22.109 7.73677
Au 8.21019 19.8931 7.99651
Au 10.0508 28.4782 8.18904
Pd 9.27923 25.9693 7.29904
Au 13.249 27.8742 11.9211
Au 11.3301 27.2802 5.83579
Au 14.4431 36.7368 16.7431
Au 12.4631 32.6805 10.4756
Au 9.82305 32.0858 11.4419
Au 12.6679 28.8745 9.43037
Au 10.8691 35.1342 19.1396
Pd 16.9555 36.8061 15.6492
Au 13.081 31.184 15.4508
Au 13.161 36.4159 14.3864
Au 10.0239 34.275 14.9436
Au 6.10454 30.109 17.1034
Au 11.1415 30.5239 19.6763
Au 8.67939 32.244 16.1297
Au 6.20673 30.5401 19.91
Au 9.73331 31.8834 26.0343
Au 6.43317 30.9174 22.7031
Au 14.9509 35.0751 21.2546
Au 8.96748 34.5469 17.4187
Au 6.69997 28.2523 26.967
Pd 21.4666 31.0221 24.1737
Au 9.55272 32.7473 19.384
Au 8.10768 27.5846 29.5304
Pd 18.2577 32.8893 29.0758
Pd 14.626 28.0774 31.8138
Au 19.6627 34.2076 27.2477
Au 17.3604 4.04127 8.83818
Au 13.0643 6.63576 9.17967
Au 16.5854 6.97415 5.46233
Au 10.5962 3.93286 12.0993
Au 13.4672 3.96912 11.6209
Au 13.1119 2.87724 18.7298
Au 14.1403 3.27262 16.2942
Pd 13.3533 3.75637 23.1393
Au 14.6531 2.51404 21.0092
Au 14.8562 4.80143 25.1967
Au 16.1489 3.54862 23.0467
Au 17.9989 9.26657 33.4866
Au 16.3693 5.89711 27.2356
Au 14.1362 15.6642 34.9356
Au 14.2037 8.5129 32.8794
Au 10.2571 11.1153 5.60543
Au 12.291 9.57141 4.73024
Au 12.1701 8.76233 7.46099
Au 12.4555 10.6255 9.56758
Au 14.6541 8.87427 8.89072
Au 12.6874 11.4005 6.84682
Au 13.3607 8.51179 11.3384
Pd 13.662 10.3638 13.3959
Au 14.0189 6.03068 13.37
Pd 14.9919 10.76 10.9097
Au 12.9525 5.72152 15.8252
Au 13.3526 7.75445 17.7119
Pd 14.624 5.22191 18.1614
Au 14.5498 8.13243 15.2264
Au 13.3769 4.88621 20.6242
Au 13.5906 8.48104 22.2645
Pd 14.8833 5.99123 22.6725
Au 14.8954 7.21854 20.0837
Au 13.586 7.26273 24.8001
Au 12.7826 9.73201 25.8739
Pd 15.1084 8.37069 26.8444
Au 15.1541 9.60293 24.3046
Au 12.7377 8.52443 28.3764
Au 13.5511 13.3163 29.0547
Pd 15.7534 10.7351 32.4731
Pd 14.3101 10.8454 27.8995
Au 13.4411 10.8898 34.1075
Au 16.4497 14.2374 35.8577
Pd 16.4972 17.0413 35.6713
Au 15.0337 14.396 31.1954
Pd 10.3855 13.8996 5.31733
Au 12.5106 12.4094 4.26358
Pd 10.7634 12.9029 7.86321
Pd 11.2639 14.6203 10.0242
Pd 13.3719 13.2018 9.06581
Au 12.8878 14.1631 6.48809
Au 12.6649 12.4164 11.6752
Au 11.4292 11.9012 14.2164
Au 15.2 12.676 12.8827
Au 13.8928 14.8499 11.2247
Au 12.4091 9.88516 15.9334
Pd 12.6598 11.7588 17.9671
Au 14.9038 10.1512 17.1814
Pd 13.9474 12.237 15.4247
Au 13.6262 9.72841 19.6902
Au 12.8233 12.1852 20.7742
Au 15.1869 10.8584 21.7688
Au 15.1814 12.0843 19.1983
Au 12.7969 10.9827 23.3522
Pd 12.0388 13.4265 24.4433
Au 14.3775 12.1162 25.3583
Pd 14.4068 13.3219 22.8442
Pd 13.6251 14.5616 26.4941
Au 12.8869 17.029 27.6562
Au 15.1299 15.6572 28.6242
Au 15.2422 16.8941 26.0653
Au 14.2138 16.9086 32.425
Au 14.1884 18.4871 34.7486
Au 16.5215 19.8402 35.6014
Au 16.5333 18.3174 33.217
Au 9.96289 19.4497 4.4094
Au 12.4474 15.1979 3.92103
Au 10.6753 15.6696 7.41886
Au 9.09593 16.0466 10.9693
Au 13.2688 15.9433 8.62355
Au 12.6374 17.0362 6.04628
Au 10.3587 13.9452 12.5707
Au 10.586 15.7776 14.6481
Pd 12.9137 14.2724 13.7524
Pd 11.687 16.354 12.1297
Au 11.6781 13.7494 16.2889
Au 10.7952 16.2025 17.4167
Au 14.2137 14.0949 17.4695
Au 13.1921 16.1172 15.7912
Pd 11.8386 14.1731 19.0816
Au 11.0307 16.6315 20.1863
Pd 14.3939 14.5167 20.2978
Au 13.3838 16.5198 18.5861
Au 12.0678 14.6086 21.8862
Au 11.2991 17.0826 22.9994
Au 13.6593 15.7498 23.9713
Au 13.6364 16.9687 21.4085
Au 11.2881 15.8703 25.5637
Au 10.5651 18.3625 26.6884
Au 14.3422 18.14 29.8584
Au 12.9455 18.2398 25.1017
Au 11.9658 18.3317 31.4306
Au 11.8964 19.9227 33.7207
Au 16.5502 22.6664 35.5031
Pd 11.901 17.0751 33.9039
Pd 10.423 18.4623 6.98631
Au 12.2929 18.0615 3.4667
Au 8.45936 17.0941 8.35737
Au 8.82079 18.849 10.5571
Pd 11.0461 17.4202 9.57087
Pd 12.9331 18.8249 8.18652
Pd 9.4164 17.8004 13.0671
Pd 10.1631 20.3266 13.9524
Au 12.038 18.1383 14.1706
Pd 11.3877 19.2061 11.7082
Au 9.64519 18.2421 15.7702
Au 10.2816 20.7961 16.7316
Pd 12.2744 18.5677 16.933
Au 12.6873 20.6431 15.1027
Au 9.91947 18.6867 18.5292
Au 10.2526 21.2985 19.5141
Au 12.5754 19.0099 19.7131
Pd 12.7266 21.1235 17.9347
Au 10.2575 19.134 21.306
Au 10.1852 21.7185 22.3456
Au 12.9354 19.463 22.5533
Au 12.6537 21.5869 20.7656
Au 10.6159 19.5758 24.1172
Au 9.85432 20.8473 27.8501
Au 12.1208 19.5386 28.8721
Au 12.2793 20.7101 26.289
Pd 9.74616 19.7034 30.3909
Au 11.9473 22.7397 33.4808
Au 14.1965 21.2913 34.5771
Pd 12.0208 21.1635 31.1968
Au 12.212 22.6734 5.18316
Pd 12.4007 19.8271 5.6409
Pd 13.4749 24.1818 8.74638
Pd 14.294 23.2998 11.2406
Au 13.3006 20.6334 10.3678
Pd 12.6728 21.6419 7.77583
Pd 12.1934 21.7862 12.6092
Au 12.9436 24.3119 13.6196
Au 14.721 22.1483 13.7667
Au 19.4417 23.0443 13.7341
Au 10.9011 22.8547 14.9539
Au 11.7016 25.4566 15.9782
Au 13.3897 23.1651 16.1797
Au 15.4676 24.7399 14.9282
Au 10.9978 23.393 17.8014
Pd 11.8502 25.9605 18.8769
Pd 13.4393 23.666 19.0512
Au 14.1043 25.6942 17.2223
Au 11.0054 23.8523 20.5975
Au 11.0121 24.2039 23.4729
Pd 12.5569 21.944 23.709
Au 13.4667 24.0569 21.9394
Au 10.1285 22.0681 25.226
Au 7.70264 22.1876 26.7665
Au 12.1927 22.3646 28.6267
Au 12.4013 23.5751 26.0355
Au 9.78281 22.5195 30.1244
Au 9.67791 24.1165 32.3846
Au 14.2646 24.0468 34.404
Au 12.0464 23.9917 30.9532
Au 11.4331 23.5705 2.7457
Pd 12.9262 25.1265 6.29375
Au 11.7068 26.3173 8.52748
Pd 16.9993 25.6755 10.6341
Pd 20.1313 26.7141 9.35946
Au 14.5222 26.547 9.72012
Au 16.8544 23.6437 12.579
Au 14.5499 29.6012 13.5816
Au 17.1512 29.3028 14.0025
Au 16.1814 28.2575 11.5355
Au 11.6734 30.1982 11.7526
Au 16.4259 27.4077 15.9042
Au 13.8782 27.0399 14.6588
Au 22.2367 32.6547 22.0221
Au 10.765 30.2522 16.7312
Au 12.8237 28.4315 20.0581
Au 14.3919 26.118 20.1661
Pd 15.4271 29.9779 16.2197
Au 11.9062 26.3111 21.7283
Au 11.576 27.9444 24.1047
Au 13.2164 25.6876 24.3391
Au 13.8192 29.4458 25.0386
Au 10.7398 25.8441 25.797
Au 10.4549 27.4727 28.0607
Au 9.97945 23.7331 27.5052
Pd 12.9615 27.295 26.5965
Au 12.1624 26.9114 30.8337
Au 10.9906 30.9828 28.787
Au 14.4687 26.707 34.1991
Au 15.8823 30.5782 32.1527
Au 7.6979 20.8756 5.50121
Au 17.682 20.0025 0.959378
Au 14.422 21.0345 4.24325
Au 14.7729 29.8862 6.33549
Au 15.6997 36.6343 13.2138
Au 12.6332 25.7472 3.73589
Au 10.9293 30.9394 9.1087
Pd 13.4609 32.0892 12.8699
Au 14.5178 30.4887 10.96
Au 13.726 31.3002 8.48004
Au 15.1871 34.7119 15.025
Au 18.3831 36.1589 13.3083
Pd 15.7617 36.86 19.3261
Au 19.2023 30.1663 5.28786
Au 12.6368 33.7822 14.7835
Pd 14.0961 33.2104 17.0142
Au 13.7749 32.9921 22.8171
Au 12.5742 32.907 19.5376
Pd 12.5198 30.0555 22.5123
Au 16.4346 32.7653 21.6978
Au 10.0231 30.2328 23.7971
Au 11.17 34.1114 23.9022
Au 9.51182 34.4054 21.5627
Au 14.9709 32.132 25.3359
Au 13.545 30.8761 27.3869
Au 12.6569 29.8155 31.315
Au 15.8348 32.4996 30.2147
Pd 12.6623 28.7732 28.8563
Au 19.6813 30.3663 33.8972
Au 8.82074 29.7501 27.7813
Pd 19.038 7.63743 8.68995
Pd 14.5993 4.36354 9.14364
Au 19.9964 5.03607 9.05077
Pd 15.1931 3.59059 13.8289
Au 9.44712 5.84135 10.368
Pd 15.8495 2.82721 18.5819
Pd 16.8861 3.10368 16.1297
Pd 17.4316 2.46965 20.8582
Pd 18.5896 2.67493 18.4307
Au 17.6816 4.62303 25.1012
Au 18.9912 3.3945 22.9207
Au 16.505 8.20634 31.4224
Pd 17.8831 7.02123 29.2539
Au 15.6811 9.55705 34.8389
Au 20.84 9.09662 33.4232
Pd 14.2987 7.10612 6.77092
Au 22.1815 14.2164 3.10468
Pd 14.683 9.72992 6.16475
Au 15.1878 11.4882 8.16344
Au 16.3847 6.57468 8.45196
Au 17.4724 11.626 6.44121
Au 15.1885 6.35324 10.9288
Au 15.7448 8.46997 12.7567
Au 16.8476 5.82259 13.1754
Au 17.0145 8.60207 10.3153
Au 15.7337 5.53575 15.6882
Au 16.1815 7.56822 17.5677
Pd 17.3961 5.07146 17.9844
Au 17.3813 7.88682 15.0545
Pd 16.1537 4.78432 20.4767
Au 16.4474 8.31938 22.1342
Au 17.6926 5.81021 22.5329
Au 17.7307 7.08298 19.88
Pd 16.4021 7.07449 24.7072
Au 16.6624 10.6997 26.3434
Au 17.9224 8.17272 26.7441
Au 17.9854 9.44844 24.1577
Pd 16.5872 9.43694 28.8843
Au 15.8173 11.9377 29.9691
Au 18.0756 10.462 30.9613
Au 18.1835 11.7694 28.4038
Au 14.9691 13.1315 33.7997
Au 18.742 15.5767 36.6439
Au 8.27297 16.151 33.2667
Au 17.2875 12.9882 32.139
Au 14.8934 13.6961 3.17042
Au 14.6088 10.7096 3.58439
Au 14.9877 12.4895 5.56981
Au 15.7377 14.2605 7.66705
Au 19.0347 13.8317 6.83261
Pd 17.1237 14.128 4.99472
Au 16.0527 13.2958 10.2457
Au 16.6716 15.0749 12.32
Au 17.4711 10.6771 12.208
Au 18.3582 14.8675 9.30225
Au 16.1046 10.5155 14.6794
Au 16.4614 12.4931 16.6796
Au 17.7518 9.91416 17.0309
Au 17.6795 12.8173 14.1918
Au 16.4709 9.57653 19.549
Au 16.7482 13.1931 21.2576
Pd 18.0154 10.678 21.5958
Pd 17.997 11.8884 19.0278
Pd 16.7318 11.9653 23.7887
Pd 15.9712 14.44 24.8931
Au 18.2507 13.0579 25.8395
Au 18.3029 14.3187 23.2906
Au 15.8923 13.1985 27.4266
Au 16.6011 16.742 30.808
Au 17.4 14.2754 29.555
Au 17.4994 15.5463 27.0134
Au 16.4591 15.4809 33.3831
Pd 18.8508 18.3321 36.4883
Pd 21.0347 14.1244 37.3684
Au 18.8105 16.852 34.1404
Au 14.5917 16.4506 2.72475
Au 19.2285 17.8206 2.32639
Au 14.8975 15.5532 5.2769
Pd 15.1526 17.386 7.33053
Pd 17.4459 16.1845 6.76667
Pd 17.0117 17.0752 4.2118
Au 15.855 16.1723 9.80038
Au 14.4161 16.6837 13.2108
Au 18.7946 16.6694 11.3863
Au 17.9065 17.7247 8.95945
Au 15.4825 14.5927 14.8874
Pd 15.7707 16.4317 16.9358
Au 18.0203 14.846 16.134
Au 17.076 16.9994 14.2879
Au 16.7456 14.4214 18.6948
Au 15.9676 16.8604 19.8035
Au 18.3561 15.6243 20.7426
Pd 19.9494 18.0924 20.1879
Au 15.9972 15.6779 22.3653
Au 15.3184 18.1564 23.5251
Au 17.5955 16.8195 24.4481
Au 17.6916 18.1367 21.92
Pd 16.7129 17.9722 28.2728
Au 16.6288 19.5576 30.6353
Pd 18.9144 18.136 31.5857
Au 18.8686 20.9042 31.5245
Au 16.5303 21.1209 33.1032
Au 18.8907 21.091 36.4829
Au 21.1005 16.8487 37.3483
Au 21.1784 18.1496 34.9327
Au 14.5643 19.2563 2.18165
Au 16.668 17.6067 1.56131
Au 14.7108 18.3738 4.78673
Au 15.4233 19.131 9.35186
Au 17.1464 19.0505 6.31268
Au 19.4948 20.7135 2.92265
Au 13.5958 17.7305 10.7557
Pd 14.0526 19.5532 12.8192
Au 16.4833 18.2043 11.7575
Au 18.702 21.4206 11.6782
Au 14.6809 18.4452 15.295
Au 15.1705 20.9348 16.3199
Au 17.2748 18.7954 16.4277
Au 16.7094 20.0128 13.9179
Au 14.89 18.845 18.1134
Au 15.1088 21.3791 19.2168
Au 17.5492 19.2087 19.3618
Au 17.6465 21.2862 17.6424
Au 15.2667 19.3074 20.9957
Au 14.6753 20.578 24.7536
Au 16.8949 19.2544 25.7529
Pd 17.0893 20.5004 23.2333
Au 14.5026 19.37 27.3157
Pd 14.4038 20.9874 29.6614
Au 16.6743 25.1168 30.3581
Au 16.8001 20.818 28.104
Au 14.2406 19.7615 32.2292
Au 16.8178 25.4864 35.2392
Au 21.339 23.7948 34.8462
Au 18.9909 23.8396 36.3813
Au 11.988 20.8583 3.072
Au 15.9412 21.7349 1.94118
Pd 14.9084 20.291 6.84993
Au 15.1437 22.0345 8.92374
Au 17.3818 23.1402 9.86696
Au 16.9924 19.7375 3.60857
Au 15.9613 21.0641 11.4487
Au 17.2403 26.3396 13.4659
Au 19.1086 18.7724 13.1149
Au 19.3895 24.3714 11.1974
Au 17.1648 22.5304 15.125
Au 18.3315 23.7585 18.8972
Pd 24.9979 25.2526 19.0906
Au 16.6567 25.8081 18.1629
Au 15.8379 23.3957 17.4684
Pd 15.8484 23.8236 20.3576
Au 17.4462 21.6542 20.645
Au 18.1613 29.6919 16.718
Au 14.968 21.7792 22.1727
Au 14.8174 23.4244 24.5091
Au 17.0218 22.0911 25.5536
Au 15.6312 25.5926 22.8195
Pd 14.584 22.1966 27.0979
Pd 14.4158 23.7857 29.4475
Pd 16.6546 22.3511 30.5055
Au 16.8014 23.6304 27.9744
Pd 14.2967 22.5461 32.0185
Au 21.2634 28.6 35.3832
Pd 21.3277 22.35 37.1704
Au 16.6048 23.8831 32.9818
Pd 17.2351 22.3608 7.17181
Pd 16.7188 22.3677 4.5275
Au 14.69 23.0065 6.32676
Au 15.9979 24.8907 8.00251
Au 21.3095 24.1747 9.277
Au 19.1372 28.309 3.3073
Au 18.942 27.4198 11.6983
Au 22.7183 25.584 14.1742
Au 24.4927 33.5817 17.087
Au 20.5803 23.7292 6.25088
Au 18.1484 25.1603 15.8838
Au 19.9816 31.7617 17.2476
Au 17.7584 28.0747 18.9185
Au 16.9806 35.7368 10.9817
Au 12.5197 28.0965 16.9785
Au 16.9736 32.34 16.9536
Au 14.9528 28.1242 18.16
Au 15.6471 28.5708 20.7271
Au 14.0486 27.8413 22.7534
Pd 15.4692 27.1664 25.1802
Au 16.9775 26.4487 27.6448
Pd 18.8689 30.1314 23.8253
Au 14.6394 25.0651 26.8755
Au 12.228 25.262 28.3747
Au 14.4629 26.6593 29.2541
Pd 17.9688 29.0683 27.5958
Au 14.3428 25.3139 31.8401
Au 16.216 28.792 34.0828
Pd 19.1441 25.1474 33.8594
Au 16.7882 26.6056 32.7306
Au 17.025 26.7094 3.7558
Au 20.9752 24.2661 2.03628
Au 13.6883 27.537 7.24034
Pd 15.1716 33.1419 10.6657
Au 18.6134 22.6551 1.2453
Au 12.0984 29.7204 6.85808
Au 16.6659 24.2723 2.57788
Pd 17.9037 34.2536 15.2102
Pd 18.57 31.6222 14.7361
Pd 16.1273 27.1866 6.43829
Au 18.1918 29.689 10.0491
Pd 13.6398 35.2703 18.8402
Pd 19.9223 29.0721 7.85984
Au 20.9302 36.3456 18.3673
Au 18.2308 36.8986 18.1835
Au 14.2127 31.0409 20.6745
Au 13.4455 30.6034 18.0869
Pd 12.2042 34.7949 21.3885
Au 16.6101 29.8279 25.3591
Au 12.2094 31.7636 24.7735
Au 18.6111 31.6486 26.4465
Pd 16.2209 31.2938 27.7374
Pd 15.2242 28.6222 27.4589
Au 18.3333 31.9534 31.9034
Au 16.807 27.8347 30.0678
Pd 20.9789 34.9202 22.7127
Pd 14.9152 29.8963 29.7678
Au 21.0084 33.0758 29.7801
Au 18.887 22.4162 34.0359
Au 20.612 30.3745 31.2428
Au 15.6701 4.71535 6.6913
Au 23.6326 7.5451 7.27847
Au 18.4324 5.61048 6.87664
Au 17.9285 3.26502 13.6186
Au 16.2567 3.79657 11.3323
Au 19.6064 2.78938 15.9509
Au 20.6526 2.94084 13.4157
Pd 20.2559 2.35449 20.7379
Pd 21.3517 2.50052 18.2997
Au 19.2264 5.72356 27.1508
Au 20.554 4.47447 24.9725
Au 19.3806 8.00943 31.3454
Au 20.7566 6.82375 29.1929
Au 17.1953 11.7213 34.7181
Au 22.2826 10.2531 35.448
Au 19.6842 13.1845 4.01961
Au 24.528 18.6837 1.87931
Pd 16.8845 9.53119 4.64574
Au 19.5821 10.0422 7.63463
Pd 21.8384 8.89989 8.86357
Au 19.4478 10.6576 4.82108
Pd 18.0063 6.0048 10.6886
Pd 18.6064 8.11227 12.5536
Au 19.6201 5.47057 12.8953
Au 19.8354 12.3407 9.23145
Au 18.5136 5.30141 15.4761
Pd 19.0274 7.40111 17.3283
Au 20.2022 4.88058 17.7606
Au 20.2136 7.59228 14.768
Au 18.9708 4.63883 20.2928
Au 19.2798 8.1773 21.9477
Au 20.5632 5.66968 22.3682
Au 20.5803 6.95086 19.6707
Au 19.2449 6.91354 24.5829
Au 19.522 10.5381 26.2363
Au 20.8057 8.01642 26.6625
Au 20.8202 9.28683 24.0511
Au 19.4599 9.25161 28.8095
Au 19.6439 12.8395 30.4981
Au 20.9166 10.3356 30.8971
Pd 21.0236 11.6302 28.3423
Pd 19.5178 11.5617 33.0426
Au 18.7318 14.0403 34.277
Au 20.9817 12.5944 35.1707
Au 21.0902 13.9051 32.6316
Au 17.3073 15.0237 2.49308
Au 20.001 15.2811 2.06453
Pd 21.5351 14.5643 5.74442
Au 19.4707 19.4546 7.48754
Au 21.165 14.46 8.46596
Au 20.0162 16.6876 7.26456
Au 17.5116 11.0953 9.356
Au 18.5645 13.0513 11.5914
Au 21.3114 11.9433 11.5555
Au 21.2105 16.8755 9.78841
Au 18.9023 10.2161 14.5525
Pd 19.2664 12.2137 16.5088
Au 20.677 9.70191 16.6544
Pd 20.4665 12.4289 14.0187
Au 19.3152 9.4095 19.3016
Au 19.5494 13.0088 21.0762
Au 20.8239 10.512 21.4308
Au 20.8222 11.6784 18.8206
Pd 19.5432 11.7901 23.651
Au 19.8338 15.4407 25.3838
Au 21.0732 12.893 25.7764
Au 21.093 14.1601 23.1676
Pd 19.7424 14.1309 27.9519
Au 18.843 15.3397 31.7277
Au 21.1976 15.1988 30.1008
Au 21.2837 16.5046 27.563
Au 21.0881 15.3942 35.0194
Au 23.3779 15.3044 36.6018
Pd 18.7345 12.8241 36.6549
Pd 24.6374 11.3782 34.5669
Au 21.9437 17.2457 1.25313
Au 24.2087 16.0346 2.50957
Au 19.3084 15.7764 4.64282
Au 19.5293 18.5279 4.89581
Au 21.7651 19.9798 5.63768
Au 21.7305 16.8365 3.92295
Pd 19.7486 19.1923 10.4433
Au 21.0952 20.9346 12.9982
Pd 21.2348 16.9039 12.9331
Au 21.8005 19.3661 8.46406
Au 19.2842 15.0467 13.6422
Au 18.2867 16.7998 18.157
Au 22.321 14.0112 18.3744
Au 22.4629 16.5576 15.3924
Au 19.5269 14.1814 18.4838
Au 21.7756 19.0468 22.0615
Pd 21.0868 15.357 20.5909
Au 20.9826 16.4865 17.9611
Au 19.9486 16.7899 22.7783
Au 19.0841 17.9024 26.6884
Au 21.467 17.8366 24.9631
Pd 24.3341 20.5161 21.1404
Pd 18.942 16.5969 29.2004
Au 21.1879 20.7101 30.0359
Pd 21.1845 16.6836 32.4918
Au 21.2699 17.9818 29.9485
Au 18.8553 19.6326 34.065
Pd 23.4261 18.0651 36.5
Au 23.6101 19.3642 34.0664
Au 21.2467 20.9449 34.8747
Au 24.5496 21.3467 1.41383
Au 22.8423 19.6477 0.163797
Au 21.6716 21.7543 1.37329
Au 19.1921 21.3436 5.58064
Pd 22.4125 21.9522 7.47431
Au 21.9226 19.4166 2.86086
Au 17.6545 20.5107 9.19415
Au 21.4131 21.5386 10.2989
Pd 22.9853 26.5125 9.2619
Au 23.3276 28.2511 11.3741
Au 19.5919 17.1822 15.5231
Au 19.2241 20.5651 15.2211
Pd 21.7116 21.2792 16.9193
Pd 21.9467 23.0455 14.8728
Au 19.8365 19.2161 17.6052
Au 19.532 20.4948 21.8557
Au 24.9108 18.6786 18.9935
Au 21.3517 23.5862 18.5475
Pd 19.2371 19.1565 24.1888
Au 19.3043 20.831 26.4669
Pd 18.9905 19.3982 29.037
Au 21.3878 19.4223 27.4091
Pd 22.7903 21.8391 28.3752
Au 21.1951 22.3098 32.4012
Au 23.5744 22.15 33.7823
Au 21.6724 22.5382 26.1295
Pd 23.9831 24.0148 35.6246
Au 21.2101 19.6071 37.259
Au 24.0886 26.3983 37.0223
Au 23.8826 23.1598 38.0774
Au 20.2712 19.5281 0.524645
Pd 21.5971 22.2995 4.10957
Au 23.9987 23.1952 5.28297
Pd 19.7114 22.1156 8.32465
Au 26.0628 30.112 7.01729
Au 21.3315 28.2994 5.04212
Pd 21.0373 26.3178 6.93471
Au 21.5625 26.1274 11.5212
Pd 25.2707 24.8553 14.4771
Au 25.1755 27.7453 7.89826
Au 19.6094 22.9294 16.5577
Au 24.3642 27.2253 21.1178
Au 20.8988 25.3265 16.2067
Pd 23.7057 23.8372 16.7627
Au 21.5969 20.6496 24.2614
Au 17.2003 23.3254 22.8557
Au 21.8835 21.964 21.4391
Pd 24.7099 26.4295 16.4574
Au 17.098 24.896 25.3389
Au 19.0706 22.2049 28.946
Au 19.4399 22.3772 24.0609
Au 18.298 27.5576 25.256
Au 23.4863 23.4075 31.2208
Au 21.2204 23.6257 29.9206
Au 18.9345 23.6891 31.4748
Au 20.5073 25.4089 25.0017
Au 23.619 20.9555 36.4667
Pd 22.5077 26.2995 34.7989
Au 28.8859 25.8051 30.4662
Pd 23.9569 24.2098 28.735
Au 15.7505 32.0109 14.4668
Au 26.2664 31.7887 10.0417
Au 14.0546 23.4135 3.09249
Au 24.616 32.459 12.41
Au 25.8325 25.0906 6.30533
Au 22.6705 30.8747 11.4442
Pd 15.1432 25.1617 4.80738
Pd 19.1646 27.716 14.9793
Au 29.0466 30.5604 18.666
Au 21.4719 28.1582 13.3414
Au 22.498 27.812 15.8316
Au 18.3108 34.635 22.5771
Au 20.1493 27.6943 17.5068
Au 21.0696 35.5402 13.5177
Au 19.9783 25.8656 19.5255
Au 21.581 31.7763 19.556
Au 17.4087 25.9887 20.7578
Pd 15.4185 33.1176 19.2891
Au 16.9542 28.1479 23.0268
Au 20.3505 29.4898 26.121
Pd 20.645 28.0933 23.7908
Au 17.7152 30.3233 21.3286
Pd 19.1996 23.6752 26.6181
Au 17.6046 30.4227 29.9191
Au 21.537 24.9344 27.6297
Au 19.8703 26.998 27.3018
Au 19.0626 25.1294 29.05
Au 21.9656 24.9101 37.3135
Pd 24.297 24.9559 33.2098
Pd 21.6046 25.1382 32.4248
Au 19.0671 23.4007 3.7431
Au 22.0063 33.6812 11.7447
Pd 20.0133 31.6781 10.9281
Au 23.5306 23.551 2.49979
Pd 18.6871 27.5513 6.04688
Pd 15.4437 28.9727 8.8965
Au 20.7256 29.8806 15.4077
Pd 17.0667 31.3205 11.986
Au 14.2078 27.7696 4.59999
Au 16.5865 33.9361 12.7908
Au 19.6425 36.3317 15.8386
Au 16.3308 34.9622 17.5175
Au 21.5775 37.5346 22.5971
Au 13.4518 34.2958 25.5205
Au 16.8443 33.7813 26.7097
Pd 15.406 30.5213 23.024
Au 19.2051 37.0738 23.4567
Au 16.9245 36.8074 21.8856
Au 17.4161 32.4328 24.1631
Au 13.4696 35.8029 23.4079
Au 22.7878 31.1335 28.8929
Au 15.8502 34.7127 23.9863
Au 19.5699 28.2949 29.7382
Pd 18.2134 29.0165 32.1358
Au 24.0254 28.6162 35.2755
Au 21.9094 28.6724 28.2484
Au 22.373 30.1866 33.5109
Pd 19.1585 26.3925 31.5034
Au 23.0694 31.9359 31.4861
Au 26.6704 28.4451 33.5499
Au 14.4119 7.99354 4.19286
Au 26.0661 8.69975 7.59396
Au 24.7083 10.7472 4.78999
Au 21.5543 4.3487 11.2187
Au 18.9716 3.44605 11.0907
Au 22.303 2.53167 15.7882
Au 24.8587 3.22975 15.7143
Pd 23.1187 2.2542 20.6154
Au 24.0592 2.20781 18.139
Au 22.0967 5.59353 27.0386
Au 24.6822 3.21313 22.6532
Pd 22.2103 7.956 31.2218
Pd 23.55 6.7858 29.06
Pd 19.4868 10.403 35.4689
Au 23.6339 9.04993 33.3258
Au 25.2611 22.625 7.88523
Pd 16.9937 9.03478 7.39111
Au 19.0286 8.08521 5.75582
Au 21.557 9.22842 5.84805
Au 23.6332 10.1857 7.10656
Pd 21.099 12.0126 6.709
Au 20.6416 7.24072 10.874
Au 22.9973 9.03627 11.3992
Au 22.2408 6.46704 12.8789
Au 19.7307 9.82465 10.5438
Au 21.2957 5.00038 15.1957
Au 21.8796 7.20907 17.0754
Au 23.1154 4.67826 17.5539
Au 22.8654 8.49076 14.5844
Au 21.845 4.50803 20.1217
Au 22.1238 8.03275 21.8309
Au 21.8492 3.28163 22.783
Au 23.4171 6.79668 19.6642
Au 22.1171 6.76956 24.461
Au 22.3549 10.4046 26.1865
Pd 23.6173 7.92835 26.5732
Au 23.6594 9.15104 23.9954
Pd 22.285 9.16185 28.7266
Au 22.5102 12.7403 30.4602
Au 23.7399 10.2601 30.8417
Au 23.8572 11.5391 28.2933
Au 22.3704 11.4405 33.0077
Pd 23.3255 13.8168 34.1983
Au 26.0093 10.1409 32.4841
Au 27.3491 8.95345 30.31
Pd 26.0089 22.9492 3.33403
Au 26.7357 18.993 5.57823
Au 27.9823 23.3978 5.24159
Au 22.5287 17.4046 6.59069
Au 23.6311 15.1791 7.84165
Au 26.5551 15.002 4.02314
Au 22.5514 11.6853 9.0512
Au 23.088 14.0797 10.3774
Au 23.9751 11.7028 11.4982
Au 25.3329 18.8118 11.1071
Pd 20.984 9.66265 13.026
Pd 22.0745 12.0522 16.3708
Au 23.5584 9.8279 16.7848
Au 22.5983 14.0933 13.2949
Pd 22.1549 9.24657 19.1526
Au 22.354 12.8663 20.9713
Au 25.2225 11.5206 23.5528
Au 23.6477 10.3972 21.3842
Au 22.3603 11.652 23.5901
Au 22.6342 15.2464 25.3285
Pd 23.9226 12.7742 25.7264
Au 23.921 13.9919 23.1351
Au 22.5827 14.0044 27.9085
Au 23.5648 17.8589 31.5453
Pd 23.5109 15.098 31.6857
Au 25.0276 15.1237 26.9323
Pd 23.4216 16.5636 34.1127
Pd 25.6664 16.4946 35.6489
Au 27.8205 14.9503 34.9666
Au 25.7451 17.6596 33.1532
Au 25.9821 27.8616 5.23747
Pd 28.0379 17.2481 10.0995
Au 27.6763 25.9438 4.58034
Au 23.9536 20.5571 9.3421
Au 24.1815 18.1746 4.51399
Pd 26.119 21.5397 5.58877
Pd 23.8275 17.7169 9.02879
Au 22.3268 18.9257 11.2827
Pd 24.6711 15.8628 14.0837
Au 28.2699 13.0767 12.9728
Pd 20.6737 14.6648 11.3011
Au 20.849 14.4574 15.876
Au 23.8109 16.2511 17.9092
Au 23.617 20.8956 14.8251
Pd 23.6719 11.6367 18.8017
Au 22.2317 20.1954 19.4516
Pd 23.905 15.1497 20.56
Au 22.6558 17.5231 20.0456
Pd 22.6603 16.4679 22.7257
Au 25.9612 18.7006 25.4559
Au 23.6887 17.5803 26.6149
Au 23.7725 18.9598 23.847
Au 23.6251 16.3902 29.1706
Au 23.6474 20.6266 31.4451
Au 25.9366 19.0867 30.4536
Au 26.0763 17.4461 28.1493
Au 21.2544 19.4365 32.4586
Au 25.801 19.2137 35.786
Au 28.141 17.2538 36.4403
Au 26.0858 20.3274 32.9641
Au 26.5265 20.2649 3.15365
Pd 29.6228 28.3531 9.66302
Au 23.1756 24.5472 7.40756
Au 25.4214 25.2222 9.01363
Pd 24.6147 27.5531 13.666
Pd 23.5766 26.8029 6.0178
Au 23.9167 18.4124 13.5055