1687
Atoms. Timestep: 20837
Au 22.0813 21.8356 1.36761
Au 28.6555 20.5827 8.58864
Au 19.0092 29.2333 34.2792
Au 14.2918 3.11691 23.0367
Au 20.5331 18.723 32.5035
Au 21.1928 22.0257 10.4683
Au 8.67233 20.6297 13.777
Pd 23.3344 4.7981 10.6394
Au 26.4349 16.8614 20.9226
Au 8.28631 17.1673 24.7484
Pd 16.4664 12.2045 24.3749
Au 13.1012 25.8251 3.92064
Au 30.3822 22.1071 12.7114
Pd 21.0396 26.1022 8.40478
Au 4.36433 10.0105 13.9985
Au 6.60095 27.66 22.3784
Au 11.4542 26.4854 23.2092
Pd 28.8859 9.57792 27.5644
Pd 18.02 16.518 16.7437
Pd 15.2161 20.2415 3.64548
Pd 22.5173 17.9973 23.4861
Pd 30.8615 21.205 10.0703
Au 1.78057 16.2248 15.9676
Pd 12.4528 23.5404 14.6422
Au 15.2443 9.61196 15.2624
Au 24.9933 32.1169 27.2539
Au 14.463 16.3426 4.65577
Au 18.1919 1.585 20.5213
Au 10.5561 16.7718 15.7944
Au 26.8347 16.5728 32.9902
Au 10.8308 24.4021 21.3455
Pd 14.6096 22.4857 7.69151
Au 33.9668 10.8502 26.7673
Au 15.3126 12.4879 31.3751
Au 11.5402 27.9795 4.59168
Au 7.83376 21.4765 10.204
Au 14.9289 18.2244 33.5847
Au 22.4879 6.81579 12.1325
Au 14.7798 14.0304 23.366
Au 19.9351 7.23071 32.9632
Au 28.1223 18.9603 33.7507
Au 6.1645 18.645 19.8902
Au 21.2126 29.8011 4.97664
Au 8.02287 18.7515 3.47777
Au 23.0845 10.1867 17.6859
Au 20.6223 11.1476 35.6684
Au 28.684 22.4185 16.9299
Au 35.8982 20.7513 17.6537
Au 23.9883 18.0303 20.7502
Au 3.02099 24.2105 17.3402
Au 13.6374 25.9541 25.056
Au 5.24132 21.7946 5.924
Pd 20.3879 6.78527 18.3327
Au 13.9214 16.6883 8.60744
Au 19.8915 7.24832 5.72812
Au 21.1202 32.1078 13.859
Au 11.1552 16.8574 23.5452
Au 8.37009 18.0414 14.6723
Au 14.6633 23.9825 34.7809
Au 19.0872 15.4465 21.3175
Au 10.7861 9.15388 30.9369
Au 5.61615 24.4656 16.0986
Au 28.3825 12.5654 6.22299
Au 9.55328 33.4379 25.4239
Au 20.7434 32.7877 10.0746
Au 15.585 13.1417 12.5398
Pd 16.0431 28.3954 31.6159
Au 28.6518 23.7105 14.4988
Pd 21.1884 19.1687 20.6624
Au 16.4201 24.8733 3.20649
Pd 23.1459 27.5696 19.5273
Au 17.4433 14.3859 26.2878
Pd 16.5124 20.3412 20.596
Au 10.4556 25.5781 4.65485
Au 17.0445 8.49116 30.2821
Au 30.7572 20.3921 23.2471
Au 12.0841 29.6089 32.1188
Au 7.85324 12.4641 16.6349
Au 18.2058 4.79139 23.9092
Au 25.2762 12.5387 25.5979
Au 25.7677 19.1112 32.2379
Au 4.24136 15.1532 15.4085
Au 17.4711 22.8431 19.8712
Au 11.956 34.1036 15.3074
Au 8.38455 31.0076 26.2577
Au 26.9037 10.2051 6.34158
Au 6.6407 13.8357 14.7185
Au 9.93705 12.1728 18.4637
Au 23.3003 27.2872 34.0127
Pd 20.9052 19.2735 10.7212
Au 9.31902 29.6025 15.8254
Au 6.96624 17.9715 22.4531
Au 12.7068 19.3322 32.4587
Au 5.00488 23.9677 13.4499
Au 30.1848 16.5813 23.8451
Au 19.3857 8.62799 21.0525
Au 7.748 16.4326 20.3069
Au 5.06605 19.9044 17.3705
Pd 19.9643 26.3584 28.4112
Au 2.36494 14.861 13.5197
Au 9.04892 14.7059 4.77398
Au 23.7279 22.7898 36.3334
Au 31.9214 31.6332 20.6868
Pd 15.0278 15.17 10.7716
Au 12.6853 12.1729 24.1393
Au 26.241 22.9864 35.1513
Au 24.7299 16.6128 23.0523
Au 25.299 23.12 25.0938
Au 23.266 12.6907 5.17443
Au 27.571 8.13747 25.6888
Au 26.7467 33.3372 25.246
Pd 12.5048 23.1468 33.429
Au 29.4465 19.6488 12.1913
Au 7.41661 26.2624 10.3891
Pd 14.9359 22.1213 18.8542
Au 10.4849 16.0429 26.0816
Pd 23.4859 20.2237 19.1692
Au 19.4677 34.4979 14.1944
Pd 10.1756 14.5882 11.7171
Au 22.6702 32.0431 33.3421
Au 25.3937 14.7194 5.44922
Au 26.9151 15.8181 14.1257
Pd 24.0691 17.3621 29.0181
Au 16.7479 35.7114 22.7138
Au 22.0452 4.13077 8.33719
Au 30.1679 30.7562 13.7314
Au 31.2522 24.471 7.49231
Au 14.3021 14.2684 33.262
Au 22.414 26.1356 29.946
Au 28.937 6.1653 22.4099
Au 24.5688 17.027 1.98677
Au 21.4957 21.9369 21.0325
Au 34.8079 27.0504 19.7775
Au 28.1746 14.2117 10.154
Au 19.9941 25.6368 31.0162
Au 31.7729 27.3974 23.9275
Au 35.7989 23.4808 16.7442
Au 30.7714 21.6162 7.14391
Au 8.47002 8.58287 10.3572
Au 28.437 5.70809 24.8815
Pd 23.202 22.748 3.63569
Au 28.14 15.1847 16.5661
Au 19.0091 30.7494 6.15318
Pd 24.1657 16.4726 14.2716
Pd 35.8494 13.864 18.6364
Au 33.3773 24.5867 15.6148
Au 33.2624 13.2714 19.3072
Pd 13.8873 34.1089 29.9206
Au 19.1019 8.10612 8.59751
Pd 20.2781 6.01769 20.874
Au 19.7546 30.3598 21.1691
Pd 26.4395 17.4841 16.1714
Au 32.809 9.96088 29.0469
Au 15.1441 28.1985 15.6236
Au 28.2899 20.0272 30.7517
Pd 16.0011 27.1302 7.27838
Pd 16.929 30.4643 30.1142
Au 34.8062 9.97336 16.4492
Au 13.5997 27.8739 8.79701
Au 14.7555 14.4473 17.1384
Au 10.2671 30.131 20.4565
Au 27.3698 29.9917 7.1459
Au 26.7131 18.8613 7.63215
Pd 10.1412 10.0143 20.1257
Pd 25.9199 17.483 12.192
Pd 19.3728 17.7925 8.62911
Au 35.2339 18.1591 11.0901
Au 15.8375 5.75017 26.4991
Au 23.0385 27.8777 5.40133
Au 10.8874 21.8856 5.55024
Au 20.8737 5.51349 14.7589
Au 18.1239 10.6958 8.42912
Au 8.46027 23.5666 22.5766
Au 13.1331 26.0125 15.9189
Pd 21.4666 9.85893 29.2508
Au 15.6798 6.35792 9.51031
Au 21.6646 25.1518 33.0914
Pd 16.2225 8.77115 8.32944
Au 31.295 16.9002 7.74683
Au 32.8735 21.2616 14.0651
Au 23.5263 20.371 21.9116
Au 23.5846 16.0929 9.73442
Au 25.7017 19.922 29.5995
Au 22.9981 32.7655 30.7219
Pd 11.2057 7.16368 26.6809
Au 20.0678 20.0715 37.1168
Au 11.5472 6.9827 29.4299
Au 14.77 10.609 25.8243
Au 13.6507 21.332 10.1414
Au 22.7287 5.83458 26.7909
Au 20.0523 32.9475 20.2292
Au 17.5855 6.27371 21.4958
Au 12.4734 11.2222 18.7436
Pd 18.6113 19.2612 6.46244
Au 22.7681 15.3762 16.867
Au 32.2022 6.779 18.4127
Au 15.5969 23.0323 27.197
Au 10.4157 32.9854 20.4202
Au 27.9689 7.21081 11.1396
Au 9.9772 24.3822 13.9929
Au 27.7696 17.0246 18.5524
Au 4.60805 28.8664 23.7364
Au 12.4981 21.4762 20.3061
Au 16.7807 34.4095 13.3148
Au 21.2357 28.8563 7.45317
Au 26.5998 28.2488 30.051
Au 24.3567 34.7923 25.884
Au 25.1384 32.0064 32.269
Au 13.7231 28.3108 13.3818
Pd 2.76075 22.7367 19.8368
Pd 12.718 10.6414 15.5737
Au 27.1792 3.82818 17.6913
Au 8.4006 7.6639 13.5034
Au 6.20844 21.5186 12.8549
Au 10.3623 30.3819 24.2754
Pd 35.1876 13.1613 21.2079
Au 10.7461 33.6554 17.6713
Au 22.1352 29.1845 21.7462
Au 21.6511 29.5979 34.2048
Pd 12.8464 11.2607 30.7238
Au 19.5817 3.54292 21.8069
Pd 26.1684 23.847 32.4134
Au 8.21423 14.556 25.5181
Pd 9.57714 32.4239 15.2683
Au 8.68084 15.4788 22.5959
Pd 23.2176 8.41889 9.82425
Au 10.3403 11.653 31.8069
Au 8.07616 28.6696 8.74781
Pd 2.40287 18.9236 23.9964
Au 20.9854 12.008 11.6029
Au 32.8598 22.3806 8.61913
Au 10.8299 21.2237 10.5012
Au 10.0441 19.381 33.4133
Au 5.19509 12.5853 10.5704
Au 6.94852 20.6262 28.6325
Au 20.9473 25.8526 23.31
Au 16.2773 30.2492 24.5184
Au 8.30444 10.0035 22.6909
Au 31.2231 20.2485 16.9892
Au 10.2137 19.0014 25.5994
Pd 10.9752 25.944 26.0255
Au 24.4188 16.8052 31.5918
Au 4.3457 20.6907 19.8549
Au 28.5767 21.7964 19.7656
Au 9.36992 21.4385 23.9733
Au 20.7777 17.2507 16.3292
Au 19.9698 14.818 29.687
Au 23.5312 18.1832 36.6089
Au 8.52361 26.4266 31.925
Au 21.3863 30.595 24.6209
Au 27.0234 26.3403 11.2495
Pd 27.3976 29.1127 10.8417
Pd 24.2282 30.1807 22.9697
Au 21.0001 14.4225 5.61134
Pd 29.7271 7.06477 26.8346
Au 17.4051 20.0433 36.937
Au 16.4362 29.7892 19.1579
Au 27.1923 21.4213 32.9165
Pd 4.04543 23.4379 24.5713
Au 12.4834 32.0293 28.6898
Au 36.9287 18.637 16.3818
Au 27.541 27.1024 27.7358
Au 4.61079 18.955 12.3239
Pd 15.9229 19.8456 11.2669
Au 24.8124 5.98502 16.9629
Pd 19.3499 7.4 16.0037
Au 20.9188 17.8942 13.1314
Au 10.4528 13.8538 23.5605
Au 18.7105 22.3639 36.1294
Au 16.5224 3.81523 21.5841
Pd 33.106 15.4829 28.3889
Pd 7.84333 14.1521 18.7574
Au 21.383 23.9325 5.23981
Pd 15.1484 34.1328 21.1764
Au 25.7841 7.37032 9.51856
Pd 21.0014 10.8928 26.907
Pd 29.1253 6.83813 13.5603
Pd 17.6834 24.4496 31.5332
Au 4.48218 26.5018 17.5056
Pd 6.15843 27.1182 19.7996
Au 26.5004 14.5781 19.1083
Pd 16.2885 20.4105 26.5678
Au 7.96722 25.3982 5.81814
Au 24.5194 10.2674 4.82179
Au 12.1265 23.1348 8.67192
Au 23.2276 18.4647 33.6849
Pd 25.4323 14.871 16.3862
Au 16.1685 12.5122 7.8083
Au 29.8571 33.2147 21.5035
Au 18.6985 20.9302 10.8631
Au 22.1201 24.9967 19.0798
Au 10.0978 24.0389 6.93912
Pd 9.98562 21.4571 21.357
Au 23.7763 6.10781 8.3308
Au 20.421 27.0298 15.1317
Au 28.5214 18.7813 23.6807
Au 5.82187 31.0342 22.4693
Pd 25.7947 15.3815 25.3186
Pd 21.0703 16.5794 10.6477
Pd 16.1293 8.85625 17.6522
Pd 13.586 36.3304 20.0113
Pd 20.9188 15.53 8.15545
Au 24.2483 25.551 12.3452
Au 17.4113 23.2612 22.5341
Au 5.30427 17.0184 7.14971
Au 34.8598 26.4586 17.0324
Au 16.1258 17.5376 13.2374
Au 10.9688 19.1987 14.4503
Au 16.6857 18.2386 4.69098
Au 7.95987 20.8325 31.8194
Pd 17.2639 8.26865 10.8443
Au 18.7141 20.7493 22.2097
Au 36.7087 17.3565 20.105
Au 10.428 7.09963 11.8527
Au 28.5377 34.646 19.6591
Au 26.5333 4.87108 22.0214
Au 29.9168 30.314 11.0774
Au 26.1742 22.9954 15.5928
Pd 5.39793 13.5607 17.2357
Au 8.28478 23.6799 31.8311
Au 33.3194 12.4213 12.7849
Au 9.4946 7.72885 21.5287
Au 22.2652 10.6067 3.15269
Au 23.9916 6.58619 31.2536
Au 7.32233 24.0597 8.44911
Au 30.6782 22.9135 26.9543
Au 3.61317 16.9634 9.21422
Au 29.654 26.6776 29.4325
Au 31.5483 26.1945 11.8428
Au 29.2094 14.2134 19.0668
Au 8.60359 23.3232 19.9249
Pd 28.2719 32.5093 14.6305
Au 16.5944 29.3821 5.80483
Au 20.506 30.5891 11.6463
Pd 17.4733 12.9859 1.76474
Pd 12.9276 33.827 19.5344
Au 17.7981 8.87561 5.82293
Au 9.99539 16.7432 33.5303
Au 11.6413 7.85178 19.5015
Au 31.8734 13.683 15.0539
Au 6.86789 20.557 7.83683
Au 34.9936 16.8088 15.5351
Au 16.6769 11.8757 27.3683
Au 8.84727 19.0847 20.1126
Pd 15.197 15.6968 27.8509
Au 21.2499 27.6362 3.31196
Au 15.1064 25.2523 18.371
Au 7.49413 16.1561 9.37211
Au 11.166 29.4787 13.6152
Au 23.5954 30.3455 6.92622
Au 27.6432 32.1694 27.7713
Au 18.795 28.4698 4.40678
Au 18.9809 36.4502 21.5072
Au 18.6825 13.7574 4.06495
Au 25.6588 27.9923 18.2767
Au 10.1962 20.2664 28.1221
Au 22.6824 12.8722 25.8945
Au 21.4013 33.7004 16.1027
Au 11.7978 14.6708 8.67809
Pd 16.3662 2.56726 18.816
Au 2.80375 20.0217 26.6131
Pd 9.89724 19.1586 16.8531
Au 3.98682 26.2218 24.3137
Au 34.0319 24.8657 11.2204
Pd 32.2361 19.7042 11.8053
Au 23.3052 17.8298 11.9364
Au 23.6913 23.3307 33.6396
Au 24.5259 8.21081 6.78847
Pd 12.852 7.66965 31.8608
Au 30.0484 20.839 32.7309
Au 10.069 22.0988 33.1586
Au 32.9169 9.43058 24.6043
Pd 22.5313 15.7785 36.1258
Au 12.6353 25.7119 34.6218
Au 15.9589 12.9153 5.00682
Au 6.39891 23.7036 11.0087
Pd 7.85136 11.6314 11.016
Pd 28.3322 8.93943 23.0844
Au 29.9038 29.3345 24.0353
Au 22.409 9.79394 12.0882
Pd 17.6753 34.4604 20.0592
Au 19.9083 0.957081 22.5729
Pd 24.7922 23.6562 5.53424
Au 11.9674 4.92484 23.3403
Pd 19.8652 19.4926 15.1729
Pd 29.4011 26.0427 24.1025
Pd 8.6846 30.4718 13.2702
Au 9.88233 30.6106 8.64584
Au 31.1774 22.5938 18.3548
Au 27.858 10.8464 25.2868
Au 27.246 14.1104 21.6226
Au 2.97502 19.3612 10.2044
Au 16.667 4.52362 16.8439
Pd 17.4383 10.9245 3.6792
Au 15.2237 31.1911 9.79059
Pd 16.5674 18.3747 18.351
Au 26.167 6.62408 14.7154
Au 29.1241 15.1817 33.8342
Au 12.7403 6.59837 10.3964
Au 21.6209 35.2659 26.3595
Au 31.539 13.6408 26.7789
Pd 12.7524 5.40687 18.8981
Au 4.66357 23.8164 28.6002
Pd 21.281 19.1263 6.09193
Pd 7.21496 19.7299 24.6484
Au 18.2154 26.3663 21.8608
Au 19.2185 12.7143 28.1195
Au 21.9248 13.1506 28.4959
Au 20.4722 3.90537 10.4911
Au 20.0679 12.7753 21.3103
Au 31.091 25.1678 17.1385
Au 18.4401 18.2787 20.5156
Au 27.065 16.9406 3.22973
Au 26.8156 23.6609 20.6278
Au 8.92176 8.96702 25.4514
Au 14.0083 3.03534 20.2059
Au 21.2745 17.6581 37.9269
Au 28.508 15.6475 28.4476
Au 25.187 25.4317 34.5998
Au 15.9364 10.5315 22.2096
Pd 4.94649 17.3547 16.6164
Pd 6.0594 23.2912 20.7739
Au 27.8063 16.8036 35.5991
Au 31.3994 23.9275 10.3659
Au 33.9915 20.1479 9.77394
Au 13.1837 7.73492 15.0768
Pd 20.152 31.5879 27.1372
Au 19.8902 24.848 36.4953
Pd 22.1966 21.0811 32.8957
Au 30.456 22.6154 21.5407
Au 19.8543 28.4549 23.1937
Au 8.85138 15.3053 14.149
Au 28.6212 19.7612 18.0616
Au 19.4753 21.0428 19.5444
Au 18.9524 12.0244 25.5914
Au 27.2957 25.406 30.4603
Au 15.1262 12.02 2.59606
Au 25.4711 9.95004 8.66623
Au 25.2646 8.95063 16.1805
Au 15.1799 31.0098 22.1303
Au 13.8845 13.1375 14.6835
Pd 19.8421 10.4156 13.6299
Pd 13.9282 15.5805 13.2074
Au 9.06273 34.2897 22.552
Au 11.7931 26.4524 6.87823
Au 14.0455 18.5948 6.10188
Pd 6.57983 27.133 25.0053
Pd 17.3622 34.5965 16.008
Pd 24.3663 29.0491 15.8386
Pd 16.1171 14.9592 14.6791
Au 25.6169 11.4163 31.3668
Pd 26.065 11.164 23.2865
Au 28.1264 32.9031 17.4579
Au 30.113 8.99004 9.85252
Pd 7.3612 18.3446 17.4897
Au 15.8868 21.9729 36.0608
Au 34.8053 17.947 21.8615
Au 4.52806 30.9692 14.8573
Au 16.7379 15.8219 22.6233
Pd 8.47308 23.8336 25.3118
Au 23.1203 20.4926 11.7346
Au 33.5624 18.7353 26.1813
Au 25.1925 27.9045 23.9413
Au 29.0027 29.2517 28.6466
Au 5.69911 28.3109 10.1478
Au 8.99763 22.2539 29.5998
Au 7.33253 15.8073 16.4805
Au 29.9095 25.9576 5.32649
Pd 20.317 5.52316 25.7188
Au 11.6017 19.3183 5.11418
Au 23.266 15.3159 3.85022
Pd 22.2338 17.524 18.6902
Au 26.3558 29.6941 27.6754
Pd 34.2385 13.7831 26.4813
Pd 4.03488 12.5893 14.8984
Pd 10.5215 18.495 7.55255
Au 15.0961 13.3846 35.7828
Pd 15.9507 27.3785 20.4101
Pd 13.4875 27.6417 30.4839
Au 14.4127 30.3236 17.2966
Au 16.1735 36.7228 20.3211
Au 22.2763 23.3385 31.008
Au 4.36642 10.1908 11.3809
Au 19.0116 34.4441 11.5239
Au 27.2558 5.00483 12.9223
Au 20.0884 21.6198 5.76338
Au 23.0745 32.1002 11.6345
Pd 11.8386 15.9279 18.2352
Pd 15.5717 5.56121 23.6646
Au 15.3636 6.72244 31.8143
Au 29.5213 18.6984 6.80225
Au 21.5424 34.3142 12.3674
Pd 9.70909 31.1372 17.9308
Au 8.35834 16.0592 30.9561
Au 30.811 18.116 21.6965
Au 16.6827 22.4795 29.9126
Au 12.9858 10.9862 10.7163
Au 14.6941 25.7911 27.8323
Au 31.1342 24.5773 30.7251
Au 3.25988 20.2215 14.87
Au 18.9828 32.0326 15.7221
Au 27.5951 32.143 20.1194
Au 9.6628 17.3555 5.1022
Pd 19.3741 16.6985 6.02771
Au 14.9917 32.3958 25.7562
Pd 20.5924 27.0003 34.8192
Pd 31.7224 8.99879 20.0767
Au 24.8541 21.7307 1.87663
Au 14.6576 4.93304 11.5326
Au 9.68666 21.33 8.03502
Au 9.82172 20.8769 3.25917
Au 12.4611 28.6712 15.8799
Au 23.7872 33.2925 21.4904
Au 18.5576 25.0317 24.2746
Au 6.78182 24.9398 18.5134
Au 10.2255 14.4417 20.0747
Au 9.06839 12.7872 6.75381
Au 16.9125 10.1445 13.0236
Au 19.6341 23.8569 18.1783
Pd 17.8324 20.8295 4.46636
Au 15.56 25.9074 30.5656
Au 13.135 25.3471 31.9451
Au 16.4201 22.1819 9.71634
Au 24.7515 25.4471 19.9083
Au 13.9723 30.8535 14.5341
Au 16.3254 8.42877 27.6121
Au 1.93659 19.3194 12.7231
Pd 17.7241 27.6916 14.9441
Au 25.0563 6.94018 25.8381
Au 20.2166 33.2991 24.8871
Au 4.39193 13.5744 19.7939
Au 7.02855 31.9859 14.9355
Au 32.6101 26.085 9.19762
Au 17.648 21.6271 15.0374
Au 27.0643 14.5152 7.60815
Au 25.8146 25.6137 7.13023
Au 9.41067 28.4179 11.2488
Au 16.5352 15.986 33.1527
Au 11.1403 34.61 27.3653
Pd 21.115 12.8931 14.089
Au 23.8438 31.9792 16.5294
Au 15.5726 8.04667 24.8998
Au 22.8937 29.1149 12.4817
Au 15.7498 25.917 23.2146
Pd 15.9124 14.7006 3.02366
Au 31.032 29.1021 19.9086
Au 22.3175 22.9843 12.7908
Pd 20.1093 26.6249 18.1349
Au 17.9386 21.9852 7.35209
Au 2.16158 21.6041 24.3355
Pd 24.7202 18.6758 9.64518
Au 29.2042 25.056 21.4911
Au 25.6814 11.8069 34.0842
Au 26.2064 22.0211 18.198
Au 7.89508 32.057 19.6736
Au 29.9285 13.9178 22.096
Au 21.596 13.4234 2.8301
Au 21.297 31.6572 7.37802
Au 15.514 16.0289 25.1697
Pd 2.55531 18.6348 16.8681
Au 30.7167 27.1829 7.51917
Au 25.2884 10.8263 13.7827
Pd 5.91915 19.2722 14.7302
Pd 25.4067 28.3944 6.55552
Au 26.1352 2.83114 20.1234
Pd 15.0814 28.7964 11.0823
Au 34.1519 11.2978 10.4529
Pd 27.6179 10.0899 29.9887
Pd 8.42453 23.172 17.2706
Pd 6.56379 22.3703 24.0923
Pd 23.9558 19.0454 6.76568
Au 15.1318 35.1093 24.9462
Au 16.6073 34.3296 29.8526
Au 5.10531 29.0464 18.3363
Pd 28.1823 8.00567 15.816
Au 6.46222 14.7147 29.4276
Au 16.3607 15.1365 8.37636
Pd 24.7113 23.7269 29.7911
Au 13.9763 25.2276 8.06099
Pd 29.475 30.5717 21.5403
Au 20.4234 5.19834 28.5824
Au 11.0063 9.72972 22.7736
Au 34.2506 24.7339 21.1603
Au 7.51429 29.6192 24.08
Au 34.0988 8.7673 18.857
Au 17.4429 27.6508 24.3909
Au 8.45406 13.2802 30.7369
Au 13.0992 17.1128 26.3068
Au 23.6537 34.2478 28.4415
Pd 28.3833 17.2607 25.9781
Au 6.53639 25.1381 30.2998
Pd 14.231 27.721 18.1475
Au 23.3496 14.3487 7.43032
Au 23.4593 11.3974 9.7347
Au 14.792 9.6191 31.4918
Pd 8.81952 22.9017 12.1751
Au 15.6068 20.5021 31.4967
Au 17.2907 29.1959 22.0364
Au 23.72 29.9243 18.2831
Pd 19.959 28.2452 9.84305
Au 33.7618 27.5999 11.1743
Au 11.3108 12.1957 21.4008
Au 19.2157 12.0473 33.4282
Au 28.0987 7.28376 29.1057
Au 19.7992 18.0426 22.8741
Au 18.1408 6.4908 28.1926
Au 18.6035 12.9628 35.977
Au 28.3644 5.16029 15.5572
Au 14.0058 13.1375 9.2834
Au 22.1971 5.86432 6.18323
Au 36.107 11.5212 12.1658
Au 18.0073 19.6717 13.147
Pd 29.3832 30.7311 18.5954
Au 33.8039 18.1045 13.3213
Au 27.9059 31.7696 12.0551
Au 22.5683 31.1214 28.5651
Au 6.48119 10.1401 24.5729
Au 13.867 10.3344 8.25369
Au 15.3271 7.69868 5.9241
Au 12.9578 20.8665 15.0227
Au 35.1908 16.59 27.0308
Au 22.6575 10.6847 14.7165
Au 32.1215 8.40585 26.9118
Pd 17.9379 34.9364 24.9249
Pd 4.61364 29.2114 20.9661
Pd 10.1173 16.6864 9.80896
Pd 5.56981 21.9691 26.6093
Au 13.8226 30.2006 27.0918
Au 34.831 18.596 28.6914
Au 9.49926 8.40638 28.3306
Au 27.2038 9.86334 32.8181
Au 4.0695 13.9335 22.4581
Au 30.8875 20.2711 19.9693
Au 20.1302 2.88303 24.6216
Pd 29.1748 23.9302 29.0739
Pd 26.4677 30.6583 17.7788
Au 22.5495 25.1677 35.7043
Au 16.8819 23.4921 17.1893
Au 20.2333 11.5634 18.5192
Au 17.1365 15.2929 35.8644
Pd 25.7429 14.1725 32.0155
Pd 29.6439 27.7686 21.854
Pd 26.8131 19.2338 4.86931
Au 13.8714 27.6883 33.271
Au 6.68188 9.30449 12.3244
Au 32.6312 8.47272 16.4173
Au 21.8846 35.8938 14.758
Au 28.8523 28.6071 31.3276
Pd 18.7694 31.2711 23.4781
Au 33.373 15.7337 11.8268
Au 20.9361 24.0356 2.55918
Au 10.277 11.7852 15.6724
Au 23.9288 35.4372 19.5786
Au 29.6561 9.17621 12.4944
Pd 3.22005 15.2985 17.9484
Au 6.02586 30.7309 12.6141
Au 27.0981 5.72423 27.1548
Au 7.29722 29.5756 20.491
Au 32.2407 11.8644 31.087
Pd 14.6488 20.9997 28.7708
Au 8.60022 18.7505 29.878
Pd 16.768 32.4542 17.7101
Au 12.1922 12.6566 33.3613
Au 5.39588 32.599 16.9609
Au 1.26858 17.0832 18.6612
Au 18.13 5.19113 14.5277
Au 18.0553 6.03407 31.0745
Au 7.16142 21.244 3.97492
Au 31.9065 8.46475 13.7797
Au 15.2842 2.69349 15.3662
Au 13.7386 34.3317 27.2381
Au 18.2225 21.7205 27.8101
Au 23.1622 27.0162 14.5336
Au 18.642 10.6644 11.0115
Pd 20.2126 9.91198 6.69481
Au 25.7868 21.9555 27.6252
Au 12.5358 20.9195 3.02172
Au 5.95894 11.4952 21.8881
Au 28.18 21.2564 22.4752
Au 24.3479 19.6108 27.2404
Au 21.5892 3.40014 26.9888
Au 14.3204 19.6369 22.2748
Au 25.2659 34.7681 23.3193
Au 29.7077 11.7942 10.7468
Au 34.8704 23.2679 13.5151
Au 3.48481 25.3534 26.7447
Au 17.6207 27.4078 27.2227
Au 24.1997 24.4725 27.1694
Pd 10.6481 9.59552 17.4053
Au 16.7731 11.0027 35.3669
Pd 18.0318 13.7621 31.4816
Au 35.018 20.5177 12.4422
Au 22.38 26.507 27.0891
Au 7.11182 21.1179 19.0465
Au 14.8263 35.254 15.6356
Au 20.8751 1.54898 20.0905
Au 14.1966 14.5844 6.76797
Au 31.69 25.2071 25.4265
Au 19.8261 5.8609 12.2542
Pd 2.87419 21.4798 17.3021
Au 20.4725 7.9427 27.1064
Au 5.63541 30.5331 25.6122
Au 4.33952 19.0535 22.0617
Au 10.7598 17.5994 31.0896
Au 12.8355 11.1235 3.61954
Au 24.7601 20.846 34.2256
Au 10.664 18.3543 2.75676
Au 7.30048 14.2693 11.5561
Au 14.919 20.1104 16.7465
Pd 28.5442 31.7855 23.8427
Au 22.1624 7.65215 21.874
Au 25.2118 30.6594 20.4536
Pd 35.8055 21.2402 14.9899
Au 17.101 24.1097 14.1325
Au 22.1329 13.8002 9.92453
Au 27.5136 18.7976 10.3201
Au 30.2278 10.9592 29.4653
Au 21.8298 19.6431 25.9267
Au 30.92 8.00055 22.6207
Pd 21.8524 22.2868 18.3703
Pd 7.70676 11.9438 26.0433
Pd 29.8371 28.1782 14.8677
Au 20.9749 10.252 9.34536
Pd 10.8171 28.1819 8.88516
Au 3.41232 17.5184 14.317
Pd 16.0749 25.826 33.3055
Au 11.6458 28.7329 18.4462
Pd 25.1631 12.4519 20.8525
Pd 27.9495 22.9521 26.0427
Au 18.2864 11.807 6.03562
Au 9.82593 14.4135 16.7972
Au 4.10052 28.5137 15.8194
Au 14.0406 12.3073 21.4357
Au 13.6659 4.41245 25.3682
Au 27.5318 30.9412 30.1992
Au 18.9101 29.4552 28.5283
Au 28.6562 11.5337 22.4263
Au 20.9721 18.0966 35.3457
Au 29.0426 12.4496 27.316
Au 21.6041 29.5534 14.8997
Au 36.0179 19.3262 26.2262
Au 28.5996 16.7114 8.54485
Au 18.6173 11.0831 22.9591
Au 21.8778 16.8826 1.29906
Au 15.1604 23.4412 32.1076
Au 15.7537 17.4923 2.20611
Pd 8.90833 29.9404 28.7997
Au 11.9706 9.59778 28.6068
Pd 33.6127 24.3411 18.3602
Au 19.5666 18.6685 3.89362
Au 22.8642 6.68938 19.1813
Au 18.2491 4.18084 26.6428
Pd 24.2414 20.1954 4.18699
Au 35.5669 20.0041 20.3645
Au 12.0324 29.0504 22.3154
Pd 25.3726 28.0703 21.1071
Au 17.7885 32.3183 25.8463
Au 26.2863 12.3188 4.43976
Au 22.4203 29.9461 9.73648
Au 12.3031 21.7637 23.0753
Pd 21.2499 12.4908 7.52698
Au 30.2579 17.4717 34.669
Au 33.3453 23.4812 26.5008
Au 13.1555 21.7116 31.175
Pd 10.3452 27.1656 16.4902
Pd 25.3273 9.79271 25.6429
Pd 27.1763 12.7465 17.3101
Au 12.475 19.2146 24.2612
Pd 27.8366 29.4547 13.469
Pd 17.2866 19.0052 15.7356
Au 21.1998 8.1772 14.1073
Au 25.0114 27.3659 26.552
Au 11.8577 29.429 6.80692
Au 30.9079 19.1499 30.5127
Pd 11.4803 13.9613 6.03369
Au 4.9586 16.3506 21.3923
Au 9.86729 11.3843 24.4838
Au 2.71176 16.9462 11.7584
Pd 10.5805 30.862 11.2263
Pd 15.0616 22.6306 15.3247
Au 7.44753 9.56574 20.226
Au 32.6019 13.118 22.0131
Pd 15.0217 18.7211 24.9982
Pd 27.4998 13.3644 24.1976
Au 19.7748 7.08866 23.3456
Au 24.0219 5.80451 23.5448
Au 15.1655 23.478 24.3436
Au 21.6235 11.0807 32.8487
Au 11.0174 27.4843 33.3033
Au 18.6356 17.0646 14.1803
Au 21.6443 8.92988 34.4384
Au 17.01 17.8002 26.7632
Au 15.4069 34.6655 18.4406
Au 13.5999 3.44059 13.4807
Pd 13.0236 9.76394 20.9156
Pd 21.5895 14.4019 19.3383
Au 18.9641 23.4509 9.49078
Au 19.1066 14.8176 33.9495
Au 18.1103 7.13759 25.5514
Au 32.2056 30.9747 18.065
Au 11.2513 9.32168 7.47841
Au 5.72383 26.3862 28.0017
Au 23.7803 29.9333 25.9903
Au 25.3087 29.9918 9.10879
Pd 27.2625 29.4794 22.7601
Au 30.1322 8.40265 17.8457
Pd 22.5431 34.4991 23.8477
Au 16.5405 17.3241 10.0496
Pd 18.3986 7.92024 13.4372
Pd 11.3758 6.96858 16.9992
Au 8.04711 18.6221 27.1237
Au 16.4739 3.36639 13.0597
Au 14.536 6.43805 17.0969
Pd 28.2296 4.76098 19.9703
Au 7.25746 19.1416 11.9556
Au 23.4101 14.6509 1.24758
Au 14.0136 22.1792 12.708
Au 19.4341 21.6343 2.37797
Au 7.01871 28.1764 12.427
Au 14.0943 36.1344 22.6844
Au 30.7372 15.554 10.0106
Au 31.5508 14.3865 24.1784
Au 25.5305 27.932 13.4027
Au 7.04422 27.5757 17.0651
Au 27.8537 8.50183 8.30439
Au 15.0997 9.54938 3.75203
Au 33.6229 29.4276 19.9598
Pd 5.44473 16.4687 11.2453
Pd 22.3722 13.9675 22.0961
Au 3.571 30.8124 17.3204
Au 27.3989 6.52126 17.9017
Au 11.6195 29.4033 29.489
Au 13.6461 15.7947 2.0684
Au 22.4581 11.9172 20.0741
Pd 13.3122 24.0252 20.0461
Au 25.353 5.2028 19.4937
Au 20.6427 2.8348 15.2819
Au 9.46614 27.8838 6.37313
Au 27.6537 9.86475 10.6481
Au 18.3277 12.5927 12.8568
Au 6.16712 15.2551 23.7584
Au 26.27 7.9955 31.0529
Au 12.2826 17.9123 34.7528
Pd 10.6596 13.3112 26.2082
Au 16.6728 7.28182 15.5184
Pd 26.8343 27.4882 8.73563
Au 26.4582 24.8496 17.7736
Au 18.042 11.0395 20.2674
Au 26.2276 32.1469 22.5261
Au 16.9881 18.4831 23.0443
Pd 13.9108 27.7997 5.8241
Au 31.5818 15.3536 19.9102
Au 12.7381 19.8185 12.2686
Au 15.1591 10.5143 19.5091
Pd 17.0394 24.4787 35.8415
Au 14.9713 8.82916 33.9495
Au 29.3054 26.1101 32.117
Au 22.3275 20.5301 35.5519
Au 27.3382 24.7554 4.88765
Au 14.8845 31.9866 19.555
Pd 19.7745 24.2971 20.8172
Pd 25.1816 24.7527 22.5875
Au 9.80354 21.094 18.5956
Au 14.1956 30.2569 30.1489
Au 24.2017 12.423 2.66883
Au 11.7717 31.2965 16.0633
Au 17.6162 2.05111 23.3177
Au 8.76544 19.0224 9.57272
Pd 24.5493 21.7533 13.7967
Au 14.7869 10.4572 28.8061
Pd 32.946 22.46 20.4611
Au 9.16704 25.1283 29.4806
Au 20.1693 23.0816 23.1757
Au 27.3763 10.6012 15.7395
Au 31.1025 14.3716 12.4882
Au 32.641 22.8698 29.0202
Au 14.1338 23.7397 29.5399
Au 30.5477 33.0979 18.8337
Pd 19.9089 25.6194 10.8783
Au 21.3171 31.1386 17.2065
Au 14.3838 16.0522 35.2724
Au 26.9444 20.24 16.0063
Au 22.9722 25.5525 3.7856
Pd 24.0581 26.1645 17.1262
Pd 24.1113 20.1954 24.5345
Au 11.5698 15.8559 3.81303
Pd 21.7981 23.9942 28.3284
Au 11.2119 9.03063 10.0619
Au 19.2923 24.398 6.97856
Pd 4.8708 14.3793 12.8006
Au 19.5856 14.6368 1.48493
Au 33.5235 10.9064 20.602
Au 25.2498 12.2772 7.06205
Au 15.7001 10.4222 6.14846
Au 18.5256 17.5717 34.3424
Au 23.7299 18.0668 16.414
Pd 25.5022 22.0537 22.644
Au 27.5488 9.26789 18.3138
Au 28.2916 18.9727 20.7698
Au 36.1774 25.0378 18.9299
Pd 17.136 14.1583 29.0109
Au 15.0982 7.77278 22.1812
Au 13.9357 32.9792 16.806
Au 31.73 24.8981 22.7241
Pd 19.2789 12.0984 15.87
Pd 7.63817 23.0576 14.6694
Au 21.5582 23.2124 7.98757
Au 29.4621 10.571 7.75772
Au 9.40757 18.9791 22.8765
Au 16.8975 31.4689 7.68364
Pd 16.7254 22.1391 12.4489
Au 6.07958 19.2035 5.51883
Pd 11.2866 21.6076 25.7906
Au 6.01903 24.9579 22.9593
Pd 18.6775 15.4818 9.77448
Au 27.3503 21.3788 13.5557
Au 31.1156 17.2492 12.3034
Au 7.9179 9.91073 17.5714
Pd 5.94797 26.7295 14.6142
Au 31.9203 28.6271 13.0396
Au 28.3468 21.0359 5.92759
Au 7.82228 18.2141 32.3826
Au 25.8136 19.0889 18.3304
Pd 6.59862 14.0836 21.2131
Au 15.2892 32.2512 28.5753
Pd 10.8913 17.6596 28.1869
Au 32.1387 29.5205 22.3638
Au 19.2179 24.2094 26.9111
Pd 28.0558 11.1965 13.2207
Au 26.6319 14.3603 34.7376
Pd 28.7656 30.3351 26.2132
Au 29.3459 18.4364 28.3754
Au 12.24 28.363 25.0728
Au 17.3945 15.3357 12.2307
Au 24.8227 27.9937 10.7996
Pd 7.5086 25.293 13.0012
Au 36.4214 18.6613 13.8023
Au 35.9821 15.5699 22.1434
Au 7.02194 16.666 4.93281
Pd 29.5871 26.212 9.83024
Au 18.5837 28.2201 19.7416
Au 12.9378 17.0912 20.6412
Au 13.3609 5.72145 27.736
Au 27.6706 23.7687 23.4007
Au 30.1676 27.7439 26.4228
Au 24.0064 23.4768 17.3914
Au 25.7756 20.258 11.7387
Au 9.06574 7.71169 18.8441
Au 4.9323 25.4593 9.2805
Pd 24.6442 21.649 31.5833
Au 35.4232 22.5915 19.5027
Pd 22.9658 11.7188 30.6235
Au 15.0621 25.1991 5.57354
Au 11.0878 32.7602 23.3435
Au 4.88198 22.7251 8.45548
Au 17.8206 27.5275 11.3266
Au 19.0761 33.0648 7.89854
Au 12.815 27.6985 27.6525
Pd 18.2379 26.2074 8.88855
Pd 28.6342 30.2671 16.0473
Au 26.0261 4.46234 24.7471
Au 26.3069 34.5036 27.6655
Au 20.516 20.9615 13.073
Au 13.8414 29.3629 20.2585
Au 19.9316 22.841 32.3837
Au 22.3786 28.0191 24.534
Au 19.1366 17.3222 1.18249
Au 28.3335 28.224 17.831
Au 13.1427 9.27683 5.62676
Pd 21.4874 25.4456 13.1138
Au 14.0751 19.4678 19.3542
Au 19.855 5.39018 7.63335
Pd 16.9989 27.5126 17.5934
Au 21.7882 16.0547 28.0276
Pd 26.9009 28.1624 15.6958
Au 24.8081 7.1454 21.2798
Au 27.9113 18.4118 13.9461
Au 15.8477 5.67956 29.2891
Au 29.1923 25.249 26.667
Au 8.55125 12.1806 20.8585
Pd 20.7817 26.8989 20.7973
Pd 13.3366 23.5575 17.2109
Au 27.4991 16.8024 5.93203
Au 15.6529 17.6829 20.8445
Pd 29.0833 14.6909 25.6885
Au 7.24482 32.5404 24.2744
Pd 21.0408 29.1801 19.1062
Pd 32.38 10.6926 17.99
Au 23.5469 5.76707 14.4969
Pd 12.6938 23.9349 5.92338
Au 25.0817 9.47988 11.4264
Au 17.2461 20.9151 17.8619
Au 23.4055 32.3459 8.91905
Au 12.8353 13.4953 11.8545
Au 17.1696 16.8654 29.5581
Au 30.5299 21.8827 30.2725
Au 12.7288 18.3708 16.7666
Pd 30.1904 23.09 24.2824
Au 34.09 19.4313 15.8133
Au 14.7155 11.6794 17.0525
Au 4.97274 26.2086 11.9263
Au 6.69092 29.3058 14.9522
Au 25.8762 25.7155 15.1232
Au 22.7927 15.0592 12.2421
Au 29.4605 23.4225 5.72309
Pd 10.3576 21.8236 15.8232
Au 23.469 11.6242 22.8319
Au 12.4702 8.76473 12.565
Au 3.99848 14.9834 25.3511
Pd 16.5414 33.0269 23.4481
Au 4.23591 24.9774 19.7057
Au 31.4113 18.8842 14.5074
Au 23.1775 20.8198 8.88293
Au 23.3478 21.4454 29.1447
Au 30.7603 16.2045 27.1084
Au 21.4192 4.96896 23.328
Au 9.82355 32.4262 28.0815
Au 4.23453 21.053 28.8173
Au 22.5245 7.70504 16.5112
Pd 14.8387 18.3633 28.1266
Au 13.4544 13.796 3.95283
Au 19.204 2.19457 17.9499
Au 19.0925 29.3469 31.4252
Pd 11.3303 14.1373 14.2611
Pd 26.8127 13.9771 27.3017
Pd 22.6886 10.2861 24.9597
Au 10.9881 26.7018 30.756
Au 23.223 14.6573 30.3843
Pd 18.7193 14.1787 7.2294
Au 15.146 28.054 25.9452
Au 35.1169 22.155 22.2115
Au 30.7853 16.334 29.9916
Pd 11.3795 18.7555 19.0499
Au 5.32378 12.6255 24.4486
Au 19.475 18.4067 29.92
Au 29.2009 9.50479 20.5525
Au 5.2442 14.7628 8.9575
Au 14.5073 21.3055 33.7988
Au 34.4785 11.1909 23.0665
Au 19.7871 7.73034 29.9616
Au 25.7379 33.0426 29.8135
Au 31.7875 18.7749 32.9713
Au 8.82206 26.0392 23.8494
Au 10.5093 12.0352 10.7564
Au 35.256 17.095 24.3974
Au 31.5919 9.29063 31.3598
Au 7.828 17.8886 7.24675
Pd 26.1438 34.4275 20.7761
Au 5.04151 17.7321 24.3855
Pd 23.7221 24.2435 14.729
Au 6.417 11.8069 19.0862
Au 30.3406 17.6979 18.9249
Au 18.9735 33.9101 22.4988
Au 24.8211 30.5211 30.0803
Pd 17.9333 27.2782 29.998
Au 6.56334 11.9584 28.8908
Au 7.18085 20.8045 21.8781
Pd 11.7715 25.7236 9.604
Au 17.1338 15.5685 0.863908
Au 32.3677 13.3248 10.307
Au 24.2042 29.8328 33.5736
Au 21.1791 20.3831 23.3715
Au 18.7335 9.81742 28.1854
Au 14.9156 17.9763 30.8301
Au 7.30257 9.72164 27.4874
Au 11.9457 23.8907 11.7343
Au 33.1524 12.6468 28.6977
Pd 4.4929 28.5962 13.1831
Pd 11.081 23.3456 18.8158
Au 18.8708 29.5985 25.6822
Au 12.0426 18.6615 9.81559
Pd 19.4427 4.65975 16.9448
Au 33.6054 15.2891 17.3106
Au 2.90804 23.0464 14.9383
Au 12.8188 35.5934 17.4504
Au 16.9535 19.9838 34.2484
Au 12.5159 14.6318 27.6365
Pd 7.11292 30.5353 17.4197
Au 5.23784 31.4871 19.5639
Au 23.7507 11.101 27.7158
Au 18.8914 30.9687 18.5604
Pd 12.362 14.7804 21.977
Au 10.7901 24.5095 16.5023
Pd 16.852 8.54079 20.2496
Pd 17.025 5.87891 12.1581
Au 19.2796 30.6232 8.95581
Au 7.0861 14.8012 6.90615
Au 29.4807 11.1063 17.7355
Pd 18.0001 16.3565 3.35853
Au 15.5176 32.459 31.4278
Au 21.5285 35.0198 21.3855
Au 27.4118 11.9413 8.79746
Pd 23.691 31.1033 14.0764
Pd 6.62227 26.7585 7.71279
Au 8.83699 10.71 29.6921
Pd 9.91339 10.8579 27.2215
Au 22.5785 6.7071 33.4303
Pd 24.8946 20.449 36.8453
Au 32.7869 14.57 30.8417
Au 29.1456 28.8832 8.78732
Au 31.7748 11.0487 9.03436
Pd 21.2261 27.7667 32.2605
Au 19.6909 11.6366 2.32775
Pd 23.7571 9.69274 20.6906
Au 5.41269 24.5628 6.59816
Pd 23.238 11.1374 34.9585
Au 14.4812 13.1729 28.8794
Au 9.06751 13.8344 9.30657
Au 5.76015 19.5407 30.741
Au 30.4937 13.6079 32.1004
Au 25.9972 19.333 2.3508
Au 3.17189 12.3131 12.4271
Au 34.2142 9.87048 13.1941
Au 14.2908 10.8106 13.0726
Au 30.6215 25.6564 14.3964
Au 32.6129 18.237 23.6972
Au 8.95272 12.6538 13.3373
Au 13.4363 5.39664 30.4465
Pd 22.518 20.163 38.144
Au 17.3872 11.3505 30.0357
Au 20.5628 26.6035 5.66458
Pd 5.14889 22.7389 18.1693
Pd 26.4772 7.12667 23.4431
Au 8.26573 26.0377 26.9383