1687
Atoms. Timestep: 20701
Au 8.11886 9.77932 13.2861
Au 14.3029 11.9003 12.5823
Au 7.60446 9.68738 18.7015
Au 13.8846 12.7079 28.4325
Au 16.0008 7.56267 5.4979
Au 15.0541 13.475 22.5448
Au 2.01292 23.4607 22.2716
Pd 13.7758 5.9351 15.2615
Au 11.9893 7.15688 10.9559
Au 25.8376 10.8455 10.6172
Pd 13.678 10.0171 29.1966
Au 10.4388 16.4931 27.2262
Au 3.94363 16.0082 24.3495
Pd 13.5154 17.9595 6.11216
Au 10.7893 9.62818 10.4549
Au 9.85645 14.8123 7.22555
Au 19.5429 4.51121 28.9106
Pd 10.9447 7.81409 20.4938
Pd 13.2291 3.53965 24.0406
Pd 6.9372 11.0903 20.9044
Pd 13.5982 25.3958 17.4079
Pd 8.17444 20.1545 30.3751
Au 8.83477 7.6651 23.7555
Pd 3.72472 27.4305 22.2875
Au 15.7834 13.5287 19.018
Au 4.22142 24.4903 15.4297
Au 2.25176 13.1799 15.7878
Au 5.51949 15.7122 14.4046
Au 11.0856 9.21426 15.8617
Au 8.76682 15.0417 28.9203
Au 9.51015 12.3644 27.5242
Pd 20.4992 17.4932 35.4396
Au 10.2686 9.79635 22.6991
Au 16.0499 7.41872 30.3555
Au 25.0561 2.36038 15.9329
Au 5.8998 30.1839 18.6433
Au 14.4919 19.0196 15.8307
Au 11.9906 34.0939 26.6713
Au 12.5252 21.233 3.81393
Au 4.96631 27.7048 18.8849
Au 11.9486 12.4584 13.6667
Au 0.391541 19.3733 19.2612
Au 15.607 20.0891 18.3232
Au 0.513614 18.4576 14.621
Au 12.2471 14.4871 15.3292
Au 9.45814 7.22025 15.0268
Au 7.79767 18.3927 32.4833
Au 13.0931 21.4167 19.5659
Au 19.3686 13.6948 33.7599
Au 11.2018 14.0623 4.93486
Au 16.8205 37.9904 16.1266
Au 7.38266 10.4693 27.2622
Pd 6.30599 32.9122 19.2924
Au 13.8943 18.7841 3.5527
Au 13.3407 9.43455 11.836
Au 3.52687 22.1827 13.7648
Au 8.43734 13.283 32.5523
Au 1.12176 21.2867 21.0038
Au 9.61932 26.3995 7.62537
Au 0.867163 17.6379 17.139
Au 9.19583 9.96199 29.199
Au 9.83951 14.105 13.6747
Au 10.4556 29.7731 24.6362
Au 11.1315 26.4717 21.2725
Au 6.66931 12.9806 27.5166
Au 3.71697 19.3149 27.3562
Pd 11.832 31.0113 22.3989
Au 7.43892 28.7601 29.3662
Pd 16.0225 14.7895 16.2617
Au 5.46767 13.4803 20.4379
Pd 12.7927 31.5123 26.8641
Au 3.70268 11.7894 13.8181
Pd 13.0039 28.2484 30.2764
Au 8.77443 21.556 7.41861
Au 7.88256 21.6453 20.7715
Au 8.82345 34.178 23.248
Au 13.4937 20.4417 35.373
Au 10.0272 21.0287 28.2645
Au 1.55354 15.0463 17.8728
Au 2.30978 27.2778 18.9593
Au 21.4399 20.0079 35.8165
Au 9.49351 23.7752 27.6322
Au 8.9554 31.4445 22.8841
Au 6.80102 29.9581 12.9182
Au 18.5532 29.017 11.7379
Au 17.7921 36.1821 20.4111
Au 5.17472 21.765 26.506
Au 9.59481 11.5968 14.9321
Au 9.01614 19.2028 5.93998
Pd 26.7963 17.1531 13.59
Au 16.5629 34.7448 28.1257
Au 10.5401 21.6497 35.4706
Au 12.7033 23.0123 34.4765
Au 9.67692 19.1459 11.5239
Au 8.7003 19.6557 26.3342
Au 22.9494 24.0427 24.8347
Au 4.41095 21.1644 29.182
Au 12.6166 28.0308 17.7443
Pd 16.1939 18.6613 5.42699
Au 1.02822 21.1344 14.0914
Au 7.44049 30.9623 27.6765
Au 7.74301 22.1006 25.7225
Au 16.4009 24.5808 26.5491
Pd 13.89 21.0467 8.41861
Au 12.13 28.1294 26.0459
Au 12.9164 32.2034 16.8156
Au 21.0041 34.0915 23.2528
Au 17.0412 28.2187 26.2417
Au 23.8202 30.5514 26.1065
Au 20.9654 31.8584 21.6763
Au 9.88283 27.0964 23.8328
Pd 18.8667 23.5027 26.7929
Au 16.9214 16.5976 9.63725
Au 0.959325 15.6262 15.2476
Pd 14.7658 7.18939 11.2441
Au 12.1217 4.13121 16.9376
Pd 13.3846 23.0781 10.1983
Au 21.2092 4.64127 18.4696
Pd 20.228 9.84476 6.58558
Au 30.7368 14.5351 32.6872
Au 16.8057 10.7054 19.3164
Au 8.45177 26.4844 28.2766
Pd 16.8597 3.11482 21.3943
Au 22.9877 6.202 29.945
Au 19.958 5.71566 11.2726
Au 15.1812 12.7169 25.8462
Au 15.4316 14.556 31.544
Au 19.0598 9.19879 4.33086
Au 11.7084 20.2037 6.60822
Au 24.3135 5.21218 9.32274
Au 16.2095 14.0999 9.0307
Au 12.2105 17.9997 11.4713
Au 7.23511 19.9828 10.552
Au 14.0368 13.1229 7.66501
Au 3.889 15.2461 16.5766
Au 25.5681 12.6073 16.435
Au 13.6725 7.49465 6.73315
Au 9.40102 12.3369 9.24335
Au 21.4412 4.39992 9.24208
Au 20.8805 9.05422 15.857
Pd 15.1309 10.7683 33.4044
Au 14.8157 7.34523 21.944
Au 1.5833 16.8792 12.7003
Pd 7.73922 10.5093 23.3473
Pd 5.59837 11.5304 18.4726
Au 22.8358 3.21445 25.4857
Au 13.943 16.9091 31.3751
Pd 14.4172 16.0337 33.8716
Au 16.9977 12.5846 32.7175
Pd 9.1537 12.5451 21.8828
Au 14.9759 5.72396 28.0416
Pd 18.5219 16.9766 27.5938
Au 10.5379 18.853 31.5302
Au 12.196 25.8497 31.2746
Au 15.5938 31.9293 23.7729
Pd 18.0566 20.9585 19.6154
Pd 8.54009 14.845 23.5853
Au 25.4896 7.00334 14.5646
Au 11.5139 23.7384 4.1432
Au 14.6521 16.7728 11.6169
Au 12.5391 15.3751 6.83854
Au 10.1701 12.1542 6.60877
Au 8.70863 31.8767 13.0243
Pd 15.2668 5.04485 20.4566
Pd 7.42374 11.9769 16.5637
Pd 14.0633 14.1699 4.97926
Au 6.68892 22.2568 9.12159
Au 18.0874 1.2279 20.0471
Au 6.00326 15.388 28.4035
Au 12.0829 7.59983 13.8129
Au 2.62243 21.7106 26.9222
Au 9.72556 8.11249 18.0458
Au 9.60007 9.91947 8.10454
Au 10.6948 19.7281 23.8544
Pd 4.72636 18.3267 23.0966
Au 11.5208 14.2669 28.3775
Au 6.87601 14.7328 30.9162
Pd 12.1726 16.6258 24.8938
Au 3.55091 30.0751 22.8697
Au 21.3315 7.32448 31.8978
Au 9.56276 5.38192 17.0524
Au 13.6369 16.0004 22.5334
Au 13.6435 21.0575 22.3292
Au 2.84163 20.2743 18.9022
Pd 9.2623 22.6798 30.218
Au 18.6001 12.4754 36.0347
Au 13.404 13.9348 17.7203
Au 17.7688 32.2852 5.44996
Au 19.3921 18.454 2.01437
Au 3.42226 11.7667 20.579
Au 3.48224 17.7038 17.7236
Au 5.4918 9.04454 17.2731
Au 5.50869 29.4107 15.8817
Pd 11.3578 16.0464 17.8312
Au 1.69515 17.0158 19.7078
Au 7.55947 28.0488 14.539
Au 16.5592 14.8119 11.7416
Au 16.0972 11.1306 28.222
Au 11.7245 28.1808 32.7278
Au 11.7042 14.0138 9.09792
Au 17.9484 18.0104 7.37947
Au 8.18503 12.5281 25.1346
Au 11.0809 5.16718 19.4079
Au 15.1544 1.48268 19.5065
Au 12.459 18.0155 33.5529
Au 8.46434 15.3263 18.1479
Au 22.9722 12.1105 30.4671
Au 12.4476 18.7897 8.88006
Au 7.29518 6.25943 21.9563
Pd 5.20718 13.1631 15.4758
Pd 17.5305 24.2547 29.0416
Au 8.0743 14.9803 26.293
Au 6.59598 13.0778 22.8924
Au 3.0006 16.3285 21.9388
Au 17.7403 22.1969 22.2832
Pd 16.272 17.467 17.1549
Au 12.2533 25.6583 33.9689
Au 14.8607 27.404 22.1021
Au 10.1177 21.5524 4.97914
Pd 19.1402 15.6998 11.3811
Au 5.45648 17.9864 9.84884
Pd 9.7988 26.7617 13.7446
Au 9.21847 24.0271 20.1897
Pd 5.02662 26.3727 25.932
Au 3.28483 19.8521 24.7496
Pd 10.135 13.6039 16.9312
Au 6.01942 26.6678 16.5466
Au 18.6818 22.4601 14.1389
Pd 9.94615 21.4835 12.8952
Au 3.29355 26.8354 16.5111
Au 11.6511 29.5563 28.3621
Au 18.2513 8.58059 14.4834
Au 3.90995 13.6924 22.7413
Au 11.7698 9.38253 6.54523
Au 7.19566 24.5001 29.8122
Au 6.38708 22.225 31.0142
Au 11.1582 19.0081 35.6937
Au 4.8331 9.55916 20.1404
Au 5.52951 16.9029 31.8563
Au 14.548 23.9782 19.6762
Pd 14.9205 25.212 24.4107
Au 22.7059 28.497 27.5945
Au 19.3683 30.5151 28.9591
Au 17.2257 19.0472 26.0893
Au 19.8047 24.3124 35.5155
Au 16.0536 19.5655 36.2635
Au 17.2958 23.1194 33.3306
Au 0.500073 20.3165 16.6792
Au 4.88977 22.6117 11.2601
Au 7.70105 22.8508 11.7206
Au 5.03159 19.9976 12.1281
Pd 12.9746 31.5833 10.4321
Pd 12.5704 33.7458 14.5879
Au 5.86704 10.4383 14.8656
Pd 3.03051 17.2358 15.0564
Au 14.8242 20.022 27.0976
Au 9.45074 24.0482 13.8427
Au 11.9279 36.3118 14.5475
Pd 9.09415 17.6802 17.1519
Au 17.9056 33.2541 9.67789
Au 12.45 34.4665 19.8212
Au 3.0246 25.425 20.7099
Au 11.119 23.5217 32.1809
Pd 6.86174 17.7999 12.3051
Au 6.10061 23.0027 13.7983
Pd 9.41085 30.5707 29.5094
Au 7.92249 32.5328 25.2083
Au 7.76557 29.9042 25.2594
Au 13.3974 10.0775 14.6154
Au 9.44112 19.4917 21.3812
Pd 5.74063 14.2308 25.1682
Pd 6.63133 23.9391 16.5843
Au 21.0218 32.6668 29.6031
Pd 20.7657 25.9514 31.2609
Au 29.3327 30.1481 20.6221
Pd 11.4647 11.6762 29.3957
Pd 16.3732 32.0807 28.386
Pd 10.139 34.9213 16.1293
Au 15.0538 27.2084 8.91488
Pd 10.9305 28.4524 6.42657
Au 17.9134 29.6365 4.78051
Pd 14.88 28.7628 14.8179
Au 15.4958 25.9245 14.9921
Au 3.02203 14.6985 13.7392
Au 7.88087 28.6192 17.3136
Au 16.0997 37.157 11.8125
Pd 7.92482 30.6474 15.4334
Au 18.9874 23.8569 31.2372
Au 8.68201 28.4181 11.7429
Au 4.62262 24.9884 12.6898
Au 19.1153 36.3556 15.7524
Au 7.24344 22.0656 28.4183
Pd 9.28504 23.5096 17.4112
Au 5.354 18.5362 14.6112
Au 7.96361 33.3536 15.2655
Au 3.53812 25.2167 23.767
Au 16.6396 26.6825 28.375
Pd 15.4338 30.5787 26.2911
Pd 18.0773 29.4858 31.1484
Pd 7.90951 19.3629 23.7622
Pd 14.714 33.6006 18.5397
Pd 7.57473 17.3756 27.1582
Au 18.3505 32.3289 30.6354
Au 5.74016 25.9681 20.804
Au 22.1254 34.5164 20.7802
Au 11.5619 32.3117 29.1835
Au 15.8832 17.5013 23.1868
Au 3.37588 22.4566 24.3309
Au 15.0739 33.2873 9.61657
Au 17.9994 38.0974 13.6248
Pd 6.0972 14.1906 17.8749
Au 10.8761 30.0168 11.1304
Au 30.8221 20.2673 6.96898
Au 18.1572 34.6759 23.7361
Au 15.2245 28.2621 4.16559
Au 11.9248 25.769 5.99601
Au 7.44128 20.3338 13.3518
Au 18.2679 30.7263 26.4275
Pd 21.3997 30.9258 15.888
Au 12.0486 34.8818 12.0427
Au 13.7712 36.6171 18.7388
Au 11.7628 31.6829 13.125
Au 22.9919 32.4507 17.4768
Au 13.9823 29.7781 32.2985
Au 3.65277 24.1609 26.4132
Au 17.9935 26.8662 16.4241
Au 13.5364 35.8117 24.9869
Au 26.6733 16.5782 10.1977
Au 14.1434 35.7755 27.5359
Au 15.2532 35.3145 20.5869
Au 7.52237 30.9128 20.7428
Pd 25.3549 29.1995 13.9037
Au 24.5312 27.7977 21.3806
Au 2.02572 24.6798 17.9357
Pd 29.4724 10.7188 27.5572
Pd 14.0381 25.9597 26.8362
Au 13.2836 14.2112 20.4839
Au 23.3682 11.8564 3.92868
Au 24.4816 18.4674 12.8012
Au 19.7424 16.9848 9.05279
Au 6.25703 7.43888 19.6705
Au 17.6792 6.40547 28.4605
Au 20.3964 7.06113 29.2837
Au 8.26039 12.6539 19.0886
Pd 18.4937 10.2332 21.7398
Au 14.382 12.6094 15.3877
Au 21.8361 14.5265 29.0983
Au 20.1809 3.22336 26.6428
Au 19.5481 6.59096 19.8092
Au 21.467 7.42888 18.1449
Au 24.9374 15.805 36.2848
Au 11.2829 12.8847 33.2302
Au 13.9405 9.28449 4.72388
Au 22.0593 14.3052 4.5693
Au 17.264 17.7097 12.2263
Au 11.1971 5.15632 14.6614
Au 7.39877 7.07562 17.1848
Au 28.3255 19.1553 6.7093
Au 18.6056 9.82432 8.90798
Pd 11.2624 18.7962 4.41059
Au 10.7758 7.21149 25.6813
Pd 30.1587 7.78334 15.3406
Au 14.1852 2.73443 21.7658
Au 26.1939 4.34742 11.0216
Pd 12.0514 11.7413 16.3677
Au 3.79651 11.0357 16.4798
Au 11.9364 12.129 21.764
Au 14.7532 21.6803 12.1403
Pd 13.5634 6.18364 24.4838
Au 21.0245 18.2333 22.9648
Au 13.8621 11.3468 23.7954
Au 11.0305 7.10793 28.3905
Pd 5.29932 21.2232 20.0294
Au 18.6571 1.80954 17.4372
Au 25.303 3.936 19.2809
Au 9.93125 11.161 31.5756
Pd 22.905 14.8487 26.4826
Pd 14.7883 16.099 18.9983
Au 8.7838 19.7618 34.6654
Au 10.595 14.4614 25.4523
Pd 7.31404 21.6433 17.8889
Au 16.9559 14.949 34.2706
Pd 9.79333 16.4344 4.97535
Au 16.7404 21.5368 5.00182
Pd 11.9969 15.083 11.8525
Pd 6.46449 23.6235 19.5454
Pd 14.3144 6.11274 8.91766
Au 14.6365 5.37319 17.7224
Au 16.4477 9.47083 3.6684
Au 16.4666 8.3782 18.0079
Au 11.3025 9.65311 27.5254
Au 8.27081 22.1023 15.2588
Au 20.1827 8.47979 11.0237
Pd 25.7218 16.0464 22.267
Au 15.9189 9.82168 15.7221
Pd 7.5532 15.1278 12.6744
Au 20.6291 7.82327 8.44451
Au 8.89098 21.9097 23.3271
Au 16.5786 3.32269 18.4323
Au 16.6797 12.1861 16.7568
Au 32.6459 17.8779 27.5139
Pd 17.2 20.5022 34.0053
Au 31.754 7.90256 26.997
Pd 19.7154 12.5849 22.4669
Pd 11.7242 21.4366 30.5457
Au 15.926 2.34628 23.9425
Au 26.8048 8.42116 32.1197
Au 15.023 4.12089 25.8922
Au 8.22738 24.0113 32.3993
Au 5.58199 19.4959 31.016
Au 13.4888 14.8058 26.5618
Au 22.1523 23.6958 22.1882
Au 4.60034 20.5104 9.48005
Au 19.3349 20.7894 8.89905
Au 17.7823 26.1303 11.4636
Au 20.599 16.2902 3.27802
Au 8.43601 25.5117 11.7413
Au 9.71967 28.8914 8.91394
Au 2.183 22.5966 16.1556
Au 0.614822 19.347 12.0395
Pd 9.40564 11.9424 12.0687
Pd 10.9912 14.6667 22.4172
Au 5.50978 29.0687 21.403
Au 21.9315 9.47584 4.43743
Au 6.82188 24.5654 26.9799
Au 15.467 16.7307 14.354
Pd 14.0504 21.4678 14.7728
Au 17.8298 22.4118 36.093
Pd 5.48276 21.1395 15.488
Au 20.0008 17.4078 13.4527
Au 9.58179 16.9468 20.0166
Au 8.09626 12.4182 29.8747
Au 14.4478 30.0676 17.2547
Au 12.023 15.8141 35.2544
Au 7.30259 17.3724 29.9303
Au 9.29393 21.3682 32.5599
Au 14.002 13.2796 33.5212
Au 5.75321 26.5224 28.6604
Au 27.9975 13.7761 31.618
Au 11.8457 15.4807 32.5508
Au 27.0789 20.5728 34.7806
Pd 6.69607 17.0054 19.6856
Pd 7.33201 12.5689 13.7607
Au 17.48 16.077 5.49726
Au 8.24119 17.0336 7.38993
Au 4.26681 16.9242 12.3186
Pd 20.3034 14.7716 18.5078
Pd 13.9584 30.0856 12.5763
Pd 10.9448 9.98562 13.1668
Pd 14.0465 28.4298 6.70939
Au 6.15874 26.2291 23.4041
Pd 6.94077 25.4618 14.0817
Au 12.4415 16.3649 4.21958
Au 3.34697 29.3991 17.4485
Pd 30.8934 11.926 11.776
Au 6.07339 28.6958 27.062
Au 16.3312 10.2171 13.1453
Au 3.46691 13.1196 18.2415
Au 14.3304 25.9277 29.6278
Pd 10.0717 24.1223 34.5026
Au 4.85758 16.9849 26.6187
Au 6.57973 19.2647 21.3889
Au 11.9716 9.60408 24.8169
Au 14.6324 28.0112 24.8726
Au 3.86506 31.8102 18.4962
Au 16.2376 19.6589 31.4038
Au 6.65118 16.7856 24.5319
Au 21.3148 12.2944 14.046
Pd 21.646 20.5206 24.3834
Au 17.3111 21.8926 25.154
Au 16.497 22.3887 30.6955
Pd 17.7973 10.6029 34.2665
Au 23.8886 16.2568 5.58927
Pd 12.0174 20.7382 10.9396
Pd 8.53766 24.5583 24.7252
Pd 14.4429 31.5937 14.7076
Au 15.2263 21.0227 2.91261
Pd 4.27555 15.7028 19.3976
Pd 10.2344 31.1947 20.1932
Au 16.2558 31.9621 16.8269
Au 18.5973 11.5059 27.2684
Au 23.9277 14.6459 17.0989
Au 2.31498 14.2153 20.4628
Au 12.3947 22.682 12.8759
Au 6.25502 27.2143 11.9833
Au 12.6077 23.1158 23.9811
Au 3.18313 29.5734 20.1546
Pd 14.6287 22.6511 25.887
Pd 15.9686 31.5235 11.3109
Au 2.89496 18.6149 10.7119
Au 8.43326 30.8561 10.5391
Au 13.5672 17.8477 36.0887
Pd 13.2557 18.554 23.2888
Au 24.1081 21.0314 13.7295
Au 2.51928 21.1941 11.4237
Au 17.1147 29.697 23.9854
Au 10.1164 28.0238 30.3435
Au 7.66735 27.0734 25.5686
Au 17.7526 17.7938 34.6014
Au 14.9128 18.2959 29.2375
Au 15.9646 33.6733 30.552
Au 15.8983 16.7604 36.2129
Au 27.813 16.7472 7.64166
Pd 18.9095 13.1849 12.4436
Au 7.74536 14.6858 8.82975
Pd 19.4428 22.8338 5.1356
Pd 30.9181 16.7104 23.7409
Au 14.4458 23.3086 4.28367
Au 19.7274 27.5561 4.26811
Au 17.1373 23.3366 12.1115
Au 15.4148 27.5118 17.2428
Au 8.62103 25.8884 16.1658
Au 20.4842 36.9988 13.4234
Au 6.71552 33.2214 22.0339
Au 13.3202 30.4117 24.55
Au 16.3434 35.889 17.8605
Au 10.2646 35.6509 18.7804
Au 11.0755 33.5074 21.9336
Au 22.2503 34.9311 12.9117
Pd 24.2857 30.4337 16.1161
Au 11.9484 28.1648 12.906
Au 24.0706 20.4833 35.7297
Au 14.2714 27.0119 32.677
Au 11.0906 35.1593 24.239
Au 11.6009 30.4216 31.1184
Au 6.38758 19.5045 28.2624
Au 16.2149 26.518 19.683
Pd 7.56954 28.2582 20.0325
Au 17.3235 17.8959 19.6747
Au 21.4985 26.594 33.9212
Au 8.832 33.5809 20.3634
Au 3.59789 20.8616 22.0675
Au 12.3505 33.9629 9.38669
Au 18.6758 12.7916 9.67137
Au 27.869 11.2652 13.6683
Au 10.2253 16.1774 15.2987
Au 21.0643 30.1244 11.8197
Au 12.6368 30.4579 5.64741
Au 7.47872 19.4752 16.0714
Pd 18.8658 31.3945 17.6231
Au 17.6885 18.1336 14.9527
Au 9.97349 31.553 27.0277
Au 28.2687 13.1233 15.8794
Au 16.5495 33.0334 13.9486
Pd 31.5386 26.449 23.6343
Au 21.0108 37.5946 17.531
Au 5.21844 28.6308 24.403
Pd 21.297 25.1429 19.7717
Au 16.8666 29.4793 28.6535
Au 19.3869 38.9013 15.7973
Pd 20.5518 33.5208 16.2041
Au 8.43981 26.2617 21.6297
Au 7.79804 14.5557 15.6038
Au 12.2491 29.033 20.4041
Au 14.5977 23.5696 28.4587
Au 15.9899 31.0805 31.0965
Au 24.663 35.574 21.8182
Au 26.1015 15.8397 31.3045
Au 16.2966 24.951 21.9002
Pd 14.7887 28.8303 19.6196
Au 21.8318 35.7957 15.4633
Au 14.3688 28.4226 27.7589
Pd 19.1503 14.1389 4.69739
Pd 11.8142 6.78217 17.0004
Au 25.6218 11.2436 28.5479
Pd 11.9229 12.1072 19.023
Au 17.0797 10.0711 6.20465
Pd 26.9144 8.37708 21.9579
Pd 16.9891 11.9177 23.859
Pd 23.7223 5.76807 18.2724
Pd 18.467 3.7462 23.4952
Au 20.8331 4.83808 24.4682
Au 13.2673 7.69162 26.7885
Au 26.8741 10.1375 26.4072
Pd 16.3377 6.85718 15.847
Au 6.85465 8.81888 25.1944
Au 33.7635 7.38849 16.6064
Pd 30.368 9.70429 13.3344
Au 22.3634 13.9698 11.9896
Pd 14.0909 13.8683 10.6233
Au 20.5 14.8477 13.8573
Au 12.8919 9.51129 21.7477
Au 20.8247 7.27109 5.61367
Au 20.6225 11.8437 4.66538
Au 24.7084 8.06802 9.73147
Au 13.089 5.3625 12.6034
Au 18.3734 10.0523 16.8852
Au 17.9908 3.95294 12.236
Au 25.524 9.13094 12.6954
Pd 14.344 11.0387 17.7602
Au 19.7111 5.48657 7.44912
Pd 27.0799 7.41837 11.1551
Au 21.5777 13.9078 20.9607
Au 22.6927 1.83056 22.73
Au 11.4365 3.39043 21.7404
Pd 18.2712 8.25837 26.5162
Au 10.5169 14.2449 19.781
Au 20.1032 15.2128 26.0375
Au 11.4638 9.0452 30.4083
Pd 11.6789 7.47011 23.0871
Au 28.0636 23.3509 12.9248
Au 36.0592 19.4386 25.3727
Au 22.1393 4.72712 27.7951
Au 19.286 9.2358 19.2262
Au 22.4541 18.2503 33.4838
Au 19.7811 19.2582 33.5337
Au 19.4998 16.433 32.8551
Au 29.4041 9.93073 7.08027
Au 14.9454 7.94847 13.7876
Au 24.0471 21.7305 23.7475
Au 17.1666 23.0681 2.79023
Au 24.0527 17.8169 10.1334
Pd 26.2872 20.962 6.51201
Au 23.5905 14.1108 14.4074
Au 22.6977 11.5176 6.5134
Au 2.87432 19.3171 13.4258
Au 22.0968 18.5021 2.268
Au 5.88236 19.3011 25.5111
Au 5.66454 15.798 22.0937
Au 18.7829 14.6159 20.798
Au 13.7609 3.4236 14.4673
Au 20.3999 11.5646 20.0445
Au 20.162 26.7252 14.546
Pd 22.7482 3.55603 20.5242
Pd 30.4469 7.09686 24.817
Pd 8.14591 9.38786 15.9813
Pd 8.0948 17.1483 22.245
Au 22.8015 2.71361 13.9726
Au 16.6332 13.0099 13.9454
Au 18.1583 19.4661 17.3731
Au 14.6288 33.4433 26.1826
Au 29.2148 13.4585 27.5136
Au 17.4375 14.1709 26.2962
Au 8.05767 22.4284 34.6751
Pd 15.3426 15.2608 24.6467
Pd 9.89173 17.3691 33.9036
Au 28.4719 5.39759 25.8253
Au 27.4867 23.3786 5.46953
Au 21.7615 19.204 9.46546
Au 14.4007 10.3072 7.13754
Pd 12.1902 24.0822 26.539
Pd 25.8432 18.1937 5.90449
Pd 4.82321 27.2602 14.2503
Au 7.78021 25.8772 18.7183
Au 9.84661 16.7224 12.5841
Au 17.3085 22.1806 17.2538
Au 10.8294 25.6941 18.4283
Au 19.9432 28.4698 26.941
Pd 8.60949 6.1961 19.5465
Au 1.92569 18.8288 21.7262
Au 8.36554 8.54773 21.1069
Au 4.49729 22.3739 17.5893
Au 9.99724 10.5556 20.1689
Au 20.8837 11.745 11.2092
Pd 12.0066 25.364 13.0886
Au 16.6245 16.9616 32.3302
Au 25.569 15.3215 26.8606
Au 29.9467 5.29668 14.036
Au 20.3479 15.3684 23.3411
Pd 14.9945 34.2475 15.8415
Au 4.63511 17.6072 29.3135
Pd 13.0489 17.2339 27.5621
Au 18.0831 1.96764 25.4758
Au 15.5664 20.1371 24.1338
Au 4.85787 23.7256 28.7274
Au 9.33578 28.7918 27.2076
Au 16.9161 27.4996 33.0785
Au 9.97328 23.8266 6.50123
Au 23.2541 20.9911 2.87227
Au 27.7882 11.7811 8.34384
Au 13.2364 25.6448 3.48892
Au 18.7157 13.7057 15.9039
Au 27.4407 11.0125 17.5722
Au 3.08155 19.9578 16.0855
Pd 14.9743 19.1409 13.2059
Au 6.22281 16.9001 16.9641
Au 17.9466 22.7571 7.39167
Au 7.17256 12.9224 10.8437
Au 3.10629 22.9008 19.8283
Au 5.97867 21.3058 23.362
Au 19.5555 19.1667 20.8971
Au 9.60774 18.3614 28.9106
Au 27.3032 16.1791 35.0041
Au 8.05281 19.3331 19.0064
Au 5.98738 32.1154 16.7092
Au 23.9099 25.2445 20.6637
Au 4.85251 10.9843 22.6784
Au 10.0204 28.1564 19.0591
Pd 7.82139 17.1408 14.669
Au 19.0722 21.7 29.1296
Pd 15.3324 22.8399 23.2672
Au 21.3943 16.8472 27.7088
Au 20.5322 11.9154 29.4589
Au 10.9642 30.3076 17.6332
Au 34.9206 15.2113 25.2293
Au 13.4794 19.523 31.5416
Au 6.69094 20.7364 33.1728
Au 26.0804 18.9119 8.51559
Au 0.849007 22.2063 18.5081
Pd 9.83262 20.5187 16.7986
Au 10.3549 27.9909 16.139
Au 20.9472 13.7519 6.95888
Au 12.6874 16.9893 13.8955
Au 18.7036 31.747 14.9929
Au 22.2471 36.5679 22.5467
Au 26.1389 24.6177 18.93
Au 5.77672 23.8126 24.5827
Au 15.2194 16.4824 4.01824
Au 20.5496 27.2087 11.7323
Pd 12.3177 25.8732 24.404
Au 21.3693 25.8516 26.5506
Au 17.3216 27.7004 13.8058
Pd 16.902 29.3093 21.3563
Au 33.0494 24.5147 15.7351
Au 12.4168 28.2611 23.07
Au 15.1761 11.7318 30.8246
Au 16.5885 34.46 11.7839
Au 12.6071 20.7001 17.0051
Au 15.8619 31.2995 19.6236
Pd 15.5791 21.6338 20.6101
Pd 23.9831 13.2221 21.9662
Pd 6.16743 30.9932 23.352
Au 27.6273 24.3731 28.0044
Pd 18.6125 31.2781 20.2926
Au 12.6251 34.8432 17.0932
Pd 20.0215 19.0481 28.7099
Au 29.6749 25.3212 21.3669
Pd 18.5206 20.7498 3.19898
Pd 13.5505 16.1875 9.25355
Au 26.595 28.8701 7.34768
Au 16.9332 25.3366 7.83531
Au 18.315 26.9918 21.506
Au 14.7007 25.8986 5.74339
Au 7.81079 26.9581 9.55577
Au 30.8172 25.785 7.42968
Au 20.164 33.9569 11.2683
Au 19.1184 30.6266 7.24922
Au 19.8425 21.5959 16.4371
Au 5.88208 10.9637 12.192
Au 17.7995 24.3633 24.107
Au 12.3461 29.8236 15.2113
Au 13.0207 20.6105 25.0704
Au 11.6334 37.2217 17.0546
Au 12.2594 29.8808 8.27365
Au 10.3504 32.0728 15.5177
Au 24.0293 26.5107 25.92
Pd 14.4558 21.0945 29.5995
Au 15.2128 38.1774 14.0142
Pd 17.2017 29.5278 16.0567
Au 16.6979 20.6167 15.0183
Au 27.1324 11.2533 32.5878
Au 19.2594 16.3097 16.2724
Pd 19.964 24.4498 11.9251
Au 12.2313 19.226 29.1158
Au 11.3479 19.0262 26.4546
Pd 32.9258 13.5408 23.9425
Au 23.2881 23.486 30.026
Au 26.2474 11.6663 3.95396
Au 30.1939 27.5561 11.5161
Au 5.45848 19.5095 17.905
Pd 11.9857 23.2465 17.6999
Au 24.01 32.5108 8.94877
Au 24.251 30.3856 7.28145
Au 6.1822 24.8445 10.4023
Pd 16.9281 24.2287 5.25448
Pd 18.7561 35.3135 26.4282
Pd 4.76552 23.4884 21.9208
Au 10.6696 32.5322 24.6916
Pd 14.3175 35.6309 13.4226
Pd 19.2231 25.3279 6.24473
Au 11.3402 24.6195 8.72729
Au 15.6866 28.1864 30.6813
Au 10.6474 33.0608 18.201
Au 30.2496 19.9914 16.7097
Pd 7.59288 28.5597 22.9822
Au 10.9582 17.5324 6.95633
Au 26.5289 28.7587 29.5047
Au 14.821 24.5197 33.7226
Pd 19.326 34.1171 21.0946
Pd 16.687 21.9042 27.7958
Au 11.173 22.2758 15.2483
Au 29.9569 24.6997 30.0061
Pd 22.026 28.1901 24.888
Pd 20.4719 30.5876 31.4979
Au 30.0405 22.7548 32.049
Au 22.3169 22.694 35.4044
Au 24.4 11.9304 32.8971
Au 22.8416 6.06644 13.7931
Au 28.667 5.25617 10.6523
Au 20.3891 18.9069 15.9637
Au 15.6443 8.42131 27.876
Au 6.0382 8.56523 22.4633
Au 22.938 0.918107 20.1057
Au 11.7078 18.3471 16.092
Pd 17.1881 9.76628 31.6927
Pd 20.2732 2.42169 21.6025
Au 14.4675 8.71159 24.2731
Au 24.7278 6.37368 11.892
Au 12.4811 5.11732 26.6554
Au 11.0588 4.98128 24.1659
Au 14.7289 21.545 32.9431
Au 25.3814 1.32477 18.6948
Au 26.6545 14.6879 6.35404
Au 30.4817 17.3278 6.87282
Pd 9.35117 21.5666 10.1541
Au 20.8089 20.7219 1.62814
Pd 16.2138 4.17433 15.7798
Au 25.3438 7.67382 7.07419
Pd 14.6123 9.0466 19.7403
Pd 9.51397 14.5042 10.8809
Au 22.8332 8.38284 12.2921
Au 30.2004 14.6579 11.086
Au 32.4373 9.34627 15.2696
Pd 16.5181 12.1913 11.1276
Au 22.6189 6.12715 7.44773
Au 11.9776 11.2904 8.39714
Au 32.2336 15.3036 25.8592
Au 21.9854 13.29 24.1011
Au 20.4176 3.01536 11.3157
Au 13.4322 7.32543 29.5647
Au 15.8012 5.36621 13.3087
Au 20.887 5.94039 15.8787
Au 20.4923 10.7612 34.7902
Au 27.9516 11.6976 20.1874
Au 28.095 11.803 29.7034
Au 5.77369 11.3979 25.1839
Au 11.1087 21.8137 21.8484
Pd 29.6734 7.19473 12.1885
Pd 18.1216 14.5639 31.2237
Au 9.76355 14.765 34.2707
Au 18.2938 1.12047 22.8808
Au 23.7942 13.7685 35.0219
Au 23.7082 20.3892 5.44776
Au 27.5702 14.0767 3.95786
Pd 20.7844 9.86404 13.2948
Au 10.6076 23.7937 11.1991
Au 23.4715 7.27119 5.11395
Au 8.14908 17.0827 10.1151
Au 9.64095 19.2214 8.72494
Au 16.5286 14.0648 3.66923
Au 25.3407 20.0788 21.3627
Au 16.714 18.7081 2.8483
Au 17.6656 15.4808 18.4041
Pd 9.40187 10.0253 25.4936
Au 5.15191 13.6522 12.5188
Pd 17.8635 15.51 14
Au 17.2671 23.6096 19.7548
Au 23.1494 4.4634 15.938
Au 25.0287 2.57485 23.9202
Au 15.3468 22.3971 35.4169
Pd 12.3029 16.6895 20.2686
Au 23.9571 7.76918 32.1883
Au 25.5364 7.24589 30.0325
Au 17.744 5.72182 21.6981
Pd 21.2696 12.8377 27.0341
Au 18.5463 7.29257 31.1996
Au 16.0173 6.73536 25.6906
Au 18.814 25.6044 33.3363
Au 24.2038 19.4178 25.2536
Au 24.0905 12.2213 25.9127
Pd 23.5678 11.0587 23.4988
Pd 22.0309 19.418 26.7928
Au 14.7674 3.58425 11.6405
Au 24.6331 17.5287 20.3291
Au 32.67 11.0235 10.123
Au 31.2947 19.9586 13.9118
Au 23.637 14.0356 7.16484
Au 20.8803 11.4891 8.57214
Pd 20.3609 11.738 16.902
Au 28.8088 19.5296 9.48604
Pd 12.2405 19.8561 13.6129
Au 16.5323 13.4233 6.28789
Au 21.8087 21.9348 9.63233
Au 14.6241 22.5761 17.2826
Au 19.8466 21.6902 11.587
Au 14.2439 14.5448 13.371
Au 10.8547 17.2972 22.5451
Au 27.2498 17.8221 16.405
Pd 24.8506 6.80302 23.3737
Au 25.124 24.239 23.1106
Au 30.3135 17.561 26.2116
Au 8.38155 31.4261 18.0295
Au 26.5165 19.9515 30.2799
Pd 28.7655 26.8783 23.4208
Pd 24.3975 14.5129 24.2762
Au 17.6698 4.45697 26.4399
Pd 19.1177 14.1401 28.5204
Au 15.68 4.96699 23.3053
Au 7.94437 14.7634 20.8545
Pd 14.109 33.1439 12.3543
Au 14.3808 14.5163 36.0174
Au 17.7928 16.613 24.967
Au 23.3733 16.1619 2.97918
Au 18.647 4.16158 9.47591
Au 26.8796 24.1983 10.3109
Au 32.0321 7.32905 13.497
Pd 19.2633 19.9041 13.674
Au 33.7834 12.3587 12.303
Au 26.603 19.0731 11.2373
Au 32.1332 24.2766 18.4118
Pd 20.1289 28.9377 9.41512
Au 23.7591 25.3417 5.38609
Au 12.9682 31.4636 19.4699
Au 17.736 30.4348 9.59449
Pd 22.5506 21.1679 16.611
Pd 33.1855 20.5379 11.8789
Au 14.173 35.6398 10.6114
Au 14.7181 18.3582 20.8044
Au 21.3492 36.2757 10.7407
Au 27.6121 31.2354 22.4785
Pd 22.557 18.6375 17.679
Au 21.1531 10.1776 22.7465
Pd 11.895 23.8304 29.2396
Au 26.6751 18.5223 26.606
Pd 25.4695 31.4464 24.1106
Au 10.2696 26.0311 26.2661
Au 25.016 9.53532 33.8824
Au 13.4805 18.4118 18.4029
Pd 16.9148 26.9276 23.8295
Au 21.2571 13.1032 35.925
Au 24.735 22.6861 20.9416
Au 11.7423 26.5515 28.458
Au 12.6399 11.8135 5.57655
Pd 18.8582 20.407 6.1641
Au 21.1914 25.1872 4.36749
Pd 30.0202 26.4368 13.8377
Au 29.8786 33.1932 18.0559
Au 27.5233 18.8154 3.92372
Pd 18.7852 12.1335 6.85021
Au 12.8912 26.9542 15.193
Pd 31.4092 19.4737 24.5687
Au 19.5649 33.2824 7.34349
Au 10.5372 31.7246 8.80093
Au 11.3222 21.9674 8.55113
Au 22.6495 27.4324 19.3425
Pd 23.7271 21.785 26.5444
Au 28.2644 28.9622 27.5448
Au 23.6669 25.3497 17.8962
Au 25.98 11.9307 35.024
Pd 23.2721 26.2964 23.2767
Au 21.1075 26.9854 21.8666
Au 16.3381 24.7933 17.3906
Au 30.8618 20.1656 27.3498
Au 22.4693 16.9201 24.8655
Au 19.5996 36.5158 22.6086
Au 10.4216 24.3461 22.8318
Au 20.5938 16.5042 20.8115
Au 13.3976 26.456 19.8731
Au 10.6706 12.1107 24.1102
Pd 17.3259 19.4509 28.8047
Au 24.8073 19.8765 28.1579
Pd 23.9969 28.133 30.0477
Au 13.1611 28.545 10.5023
Au 27.8604 32.6319 24.8248
Au 15.2608 15.8381 6.97521
Au 23.6847 15.0431 9.90736
Au 18.0521 25.1069 14.0191
Au 20.2832 31.7299 9.65192
Pd 12.2381 27.1477 8.35655
Pd 18.6066 31.8537 12.1218
Au 25.5635 22.4783 28.609
Au 22.1882 22.758 4.7097
Au 10.2267 21.6035 19.2423
Au 6.96756 19.471 7.96014
Au 29.4531 30.6868 25.7178
Au 15.2377 33.3639 5.75618
Au 37.5228 17.0863 15.9612
Au 26.6708 31.0945 26.7169
Au 20.5949 36.7946 20.1529
Pd 21.346 30.407 18.717
Au 22.2692 28.4445 32.0269
Au 17.4702 33.5139 18.9748
Pd 30.1264 22.6511 20.7667
Au 26.1337 26.5572 24.0933
Pd 19.9998 17.6956 18.491
Au 22.2364 10.1487 32.2968
Au 22.7528 30.6178 23.5138
Au 13.5615 32.3459 31.2561
Au 29.8657 26.5969 27.9381
Au 23.5863 14.4933 31.8803
Pd 13.5143 24.902 22.1426
Pd 21.1335 24.0274 33.1834
Au 18.535 14.8818 7.78136
Au 19.7488 28.9152 16.8652
Pd 26.6699 29.105 16.9282
Au 22.4334 28.2448 14.3217
Pd 9.88347 29.6344 13.9026
Pd 7.36671 23.8863 22.2879
Au 34.9704 23.1169 9.20468
Pd 26.3573 21.7271 19.0419
Au 24.307 27.7374 6.6026
Au 9.87264 28.9975 21.7601
Au 13.5364 32.2337 7.5405
Au 28.0532 24.3177 23.5259
Au 28.3385 24.7652 15.1612
Au 25.7601 36.5168 18.3723
Au 4.69078 31.6835 21.058
Pd 22.1972 18.5864 20.369
Au 22.9865 30.692 13.6222
Au 25.5783 27.3066 18.8405
Au 8.10561 34.1769 17.7772
Au 18.8829 33.1581 28.076
Au 14.3943 9.01252 31.5613
Au 20.7441 23.9034 28.9439
Au 22.1187 35.0943 18.0695
Pd 21.6926 23.7258 16.9925
Au 25.2399 22.6653 34.7635
Au 19.9689 22.6007 24.0394
Au 19.6826 28.1685 32.7503
Pd 26.3789 17.3855 29.0659
Au 19.8083 16.3726 29.9256
Au 18.2967 17.3404 37.1585
Au 17.9308 11.7349 4.1676
Au 28.1465 7.56077 6.97714
Au 22.7878 8.84183 7.19645
Au 20.644 4.28344 13.651
Au 33.0388 9.92401 12.7472
Au 16.4352 1.50411 16.1074
Au 15.9522 8.22189 8.19431
Pd 26.4654 21.401 9.38284
Au 31.9033 18.4924 18.6164
Au 32.5307 5.81466 18.5525
Au 28.1731 20.771 32.2944
Pd 18.9035 3.89206 19.778
Pd 32.1023 18.3879 22.1096
Pd 23.4093 9.64395 14.5929
Au 22.2432 8.57272 34.3043
Au 25.8137 23.4736 7.705
Pd 20.413 7.22825 13.4981
Au 17.5629 7.33123 12.1566
Au 10.7443 16.5752 9.55157
Au 30.4832 12.8894 8.87288
Pd 12.9423 5.41143 21.8748
Au 9.92618 5.69196 21.8887
Au 25.8979 7.49708 17.431
Au 24.8467 15.812 12.2584
Au 24.6483 5.84269 27.6714
Au 23.3202 11.1132 12.1139
Au 15.2219 11.6784 4.68024
Au 18.7371 4.51887 17.0152
Au 26.5165 13.7251 21.3269
Au 23.1763 6.20974 20.8803
Au 19.9905 6.05769 26.7787
Au 16.9849 14.4606 36.9737
Au 26.8323 6.14277 8.84063
Au 32.1932 6.60118 22.6494
Au 19.5466 8.84145 33.2074
Pd 33.5333 15.9499 22.8747
Au 33.33 13.5375 16.4842
Pd 32.7882 16.4206 20.2938
Au 8.74658 8.10352 27.2031
Au 30.3371 8.58988 29.1275
Au 20.539 2.04584 24.2752
Au 33.9536 12.9765 26.4233
Pd 19.5801 11.4947 32.2466
Au 13.9479 33.4609 28.8055
Au 29.0714 14.3419 20.223
Pd 12.6385 22.9214 6.39053
Au 17.7042 27.6525 9.22004
Au 32.621 25.1217 12.6933
Au 26.3472 14.191 14.1494
Au 31.7933 11.2824 17.1648
Au 35.8276 19.1416 12.723
Au 26.0916 16.3692 3.83381
Au 24.8043 10.3901 8.15789
Au 20.9287 2.88345 16.1969
Au 27.4894 3.54449 14.8842
Pd 26.9301 9.8976 6.22023
Pd 27.527 23.351 20.9526
Au 34.9817 13.8413 14.1264
Au 12.0789 12.2388 26.4096
Pd 22.3158 6.73164 10.2786
Au 23.3492 7.53979 16.2094
Au 29.0419 15.3758 17.7364
Au 33.9985 7.90029 19.2721
Au 21.542 8.53643 20.6698
Au 22.9724 15.8999 22.1775
Pd 26.7108 12.8794 26.6454
Au 32.5274 22.3085 7.65181
Au 25.8085 6.64945 20.2255
Au 23.5952 24.3049 27.5208
Pd 9.39504 17.2652 24.8579
Au 20.1189 9.48371 30.593
Pd 17.1381 5.94156 18.7735
Pd 34.812 22.2895 16.0866
Au 23.4448 24.9795 34.6788
Au 17.9328 11.9287 30.1089
Au 20.0023 18.1213 25.5416
Pd 31.6734 11.956 14.4525
Au 15.1367 18.2479 8.22689
Au 14.892 30.1629 8.99297
Au 14.5642 19.4618 10.5899
Pd 18.9885 18.2376 4.62597
Pd 21.4129 14.0465 16.2411
Au 22.4689 25.5503 12.6668
Pd 11.8974 23.8951 20.3066
Au 31.4912 8.70077 11.003
Pd 16.1392 23.2751 14.8926
Au 16.2445 9.37561 10.5508
Au 31.9584 22.7557 30.0134
Au 34.3609 25.7192 10.4369
Pd 31.5498 8.50282 17.6574
Au 17.2176 26.9705 5.45577
Pd 25.6161 12.9195 30.7638
Au 11.8786 12.1272 11.0271
Pd 17.1415 8.11464 20.639
Au 27.6716 14.9326 12.0099
Au 32.3322 10.4912 27.4697
Au 23.9039 20.4716 19.0502
Au 25.7615 9.57651 24.0323
Au 24.9547 19.8169 16.4516
Au 7.71523 26.7543 31.1079
Au 23.5071 8.75995 25.1857
Au 23.1756 11.041 35.2011
Au 31.2137 18.0255 29.8831
Au 9.30486 16.1985 31.4881
Au 29.8433 27.9962 25.5724
Au 28.3008 12.2693 5.76506
Pd 27.5233 20.4987 16.6761
Au 30.034 10.3873 9.56012
Au 25.1022 16.3036 7.977
Pd 32.1586 16.4981 10.9462
Pd 15.3024 22.9498 7.01544
Au 34.895 26.4271 13.0605