1687
Atoms. Timestep: 20321
Au 9.94537 7.37418 9.55573
Au 8.52632 6.59513 11.8577
Au 9.46897 4.52277 13.3413
Au 8.1505 5.21558 18.0676
Au 8.16646 3.96135 23.3781
Au 8.58733 6.85131 27.0696
Au 9.17436 9.94069 30.755
Pd 9.10712 9.6274 8.16429
Au 7.65655 8.82484 10.4629
Au 6.78297 11.0347 9.03359
Pd 7.30489 5.95471 14.2012
Au 6.40702 8.12696 12.8133
Au 7.227 7.38293 16.5654
Pd 6.42675 9.63612 15.1104
Au 8.11991 5.21302 20.9691
Au 7.18037 7.40679 19.472
Au 7.26859 6.0789 24.7669
Pd 7.2898 7.45387 22.3743
Pd 7.79108 9.12894 28.4359
Pd 6.4652 8.33737 26.154
Pd 8.39947 12.2524 31.9969
Pd 6.96004 11.3725 29.8127
Au 8.23951 11.8379 6.80578
Pd 5.57062 10.3419 11.4264
Au 4.64379 12.5348 10.0031
Au 5.52651 11.858 13.7121
Au 4.61877 14.1102 12.2816
Au 6.30908 9.64543 17.9833
Au 5.46391 11.8968 16.5265
Au 6.31862 9.66775 20.8931
Au 5.42125 11.9183 19.4087
Pd 6.4369 9.72966 23.7714
Au 5.44641 11.9457 22.2938
Au 5.59372 10.564 27.5502
Au 5.51781 11.9789 25.1713
Au 6.1702 13.6343 31.1063
Au 4.8015 12.802 28.9221
Au 6.10699 14.9114 9.99926
Au 3.79051 16.4213 10.8755
Au 5.13971 17.1526 8.52136
Au 4.58547 14.1724 15.1072
Au 3.73421 16.4717 13.6918
Au 4.54027 14.2005 17.9503
Au 3.68433 16.5127 16.5066
Au 4.53085 14.2221 20.8221
Au 3.66002 16.5358 19.3549
Au 4.58175 14.2438 23.6956
Au 3.67362 16.5439 22.2212
Au 4.68674 14.2869 26.5494
Au 3.74007 16.5588 25.0792
Au 5.25412 17.5339 30.2044
Au 3.86766 16.6364 27.8831
Pd 7.62602 20.0853 9.82749
Au 3.03662 18.7501 12.2672
Au 5.22528 19.9625 8.39262
Au 2.98049 18.8266 15.056
Au 3.71614 21.1158 13.6515
Au 2.93613 18.8652 17.885
Au 3.66114 21.1961 16.4583
Au 2.92635 18.8728 20.7393
Au 3.61525 21.225 19.2734
Au 2.94754 18.8751 23.6088
Au 3.59358 21.2225 22.1395
Au 2.99758 18.8991 26.4428
Au 3.66218 21.2146 25.011
Au 3.13348 18.9261 29.1648
Pd 3.8263 21.2153 27.8512
Au 6.01406 22.2697 9.78925
Pd 3.82964 20.987 10.8737
Au 4.3704 24.4143 9.57502
Pd 4.52301 23.4602 15.0146
Au 4.5185 23.3784 12.1517
Pd 4.48521 23.5111 17.8444
Au 5.24954 25.8084 16.4214
Au 4.38878 23.5506 20.6882
Au 5.19673 25.8279 19.2855
Au 4.4112 23.5445 23.5283
Au 5.21057 25.8625 22.102
Au 4.48175 23.4997 26.4061
Au 5.2222 25.8328 24.9598
Au 4.80115 22.9654 31.1865
Au 3.48076 23.7346 28.9692
Au 7.41222 21.3211 7.31976
Au 5.01469 26.7498 10.8497
Au 7.17426 30.8624 9.574
Au 5.17838 25.7724 13.568
Au 4.98054 28.6863 12.7684
Au 5.99168 28.084 17.9644
Au 6.14811 28.1368 15.0799
Pd 6.08135 28.1608 20.7569
Au 6.87255 30.4797 19.4687
Au 6.00976 28.1784 23.5805
Au 6.87561 30.5032 22.2621
Au 4.1263 26.0293 27.5268
Au 4.87867 28.3377 26.1611
Au 4.4596 25.4546 32.238
Au 5.11128 27.799 31.0217
Au 6.47798 25.7716 8.44355
Pd 7.23168 28.0039 9.75769
Au 8.68145 27.0776 7.39864
Au 5.61507 31.565 11.6419
Au 5.05246 29.4043 10.2626
Au 6.6173 30.4306 16.7663
Pd 5.92759 30.8561 14.146
Au 7.74069 32.7755 20.868
Au 7.56217 32.7489 18.1273
Au 5.74824 30.6367 24.8629
Au 7.83347 32.1918 25.7576
Au 3.13699 26.2263 30.0251
Au 3.8283 28.5155 28.6905
Au 7.2431 29.2836 31.971
Pd 5.92131 30.0283 29.6331
Au 11.3559 8.17074 7.23886
Au 10.8302 5.25929 11.0521
Pd 12.2525 6.10561 8.7708
Au 10.956 6.70795 13.3616
Pd 12.3799 7.51063 11.0469
Au 10.3941 3.73892 17.221
Pd 11.7704 4.44509 14.8529
Au 10.3833 3.79157 21.8538
Au 11.7414 2.86753 19.5297
Au 9.46671 4.68916 25.6229
Pd 11.758 4.6056 24.1185
Au 9.99948 7.68614 29.3474
Au 10.853 5.51162 27.9005
Au 10.6534 10.8121 32.923
Au 11.4411 8.51848 31.6211
Au 10.5533 10.4237 5.91648
Au 12.8625 9.03775 5.10665
Au 10.6517 11.9903 8.10801
Au 9.19165 11.1636 10.4492
Au 11.5093 9.70375 9.5421
Au 9.68495 14.1712 6.61837
Au 10.0644 8.92369 11.8813
Au 8.70297 8.18899 14.2491
Au 12.52 9.07166 13.3469
Au 11.6794 11.3093 11.8751
Au 9.49706 5.85288 15.7117
Au 9.62507 7.49439 17.9971
Au 11.9229 5.98336 17.1425
Pd 11.0809 8.2481 15.6741
Au 10.4572 5.22896 19.5162
Au 9.62657 7.53092 20.8648
Pd 11.9413 6.0788 21.7789
Pd 12.0605 7.59496 19.4293
Au 9.60022 6.11877 23.2534
Au 8.71565 8.35142 24.6879
Pd 10.9785 6.93245 25.572
Au 11.1266 8.41819 23.2014
Pd 10.1316 9.16697 26.9915
Au 9.29382 11.4298 28.4
Pd 11.5535 10.0061 29.282
Au 11.7133 11.5204 26.9138
Au 10.7218 12.3253 30.6795
Au 9.7642 14.6256 32.112
Pd 12.0813 13.1591 32.9501
Pd 12.1965 14.7019 30.6907
Au 5.94153 13.2919 7.71977
Au 7.35469 15.6464 7.53891
Au 8.33437 13.4181 9.01488
Au 6.95344 12.6401 11.4123
Au 10.8185 13.5728 10.4229
Au 9.84363 15.7864 8.91904
Pd 7.85909 10.419 12.8329
Pd 7.91726 11.9735 15.1178
Pd 10.2562 10.5243 14.231
Au 9.38785 12.758 12.806
Au 8.76468 9.73747 16.5479
Au 7.85635 11.9965 17.9566
Au 11.2323 9.85595 17.9612
Au 10.3842 12.085 16.5281
Au 8.71334 9.7584 19.4125
Au 7.85106 12.0202 20.824
Au 11.2322 9.8874 20.8118
Pd 10.3585 12.1145 19.3686
Au 8.76778 9.79144 22.2899
Au 7.9025 12.0613 23.6901
Pd 10.2624 10.6804 24.6189
Au 10.3901 12.1369 22.2326
Au 7.86404 10.6117 26.0756
Au 7.00052 12.9008 27.4536
Au 10.8567 13.8317 28.3241
Au 9.41843 12.9562 25.9989
Au 8.43058 13.775 29.7654
Pd 7.51825 16.0553 31.1429
Au 11.8762 16.0687 33.1241
Au 9.93069 16.1437 29.7966
Au 9.52557 16.9984 6.40834
Au 11.6099 18.3515 5.27073
Au 3.85929 14.7689 8.7027
Au 6.1801 16.4856 12.3082
Au 8.52925 15.0246 11.3822
Au 7.5856 17.2713 9.88775
Pd 7.03624 14.2104 13.7085
Au 6.1305 16.5348 15.0992
Au 9.51722 14.3244 15.0962
Au 8.65298 16.5926 13.6906
Au 6.98516 14.2449 16.5183
Au 6.08251 16.566 17.9241
Au 9.49971 14.352 17.9403
Au 8.61212 16.6343 16.4947
Au 6.95571 14.2765 19.3724
Au 6.06752 16.5841 20.7705
Au 9.49651 14.3712 20.7636
Au 8.59124 16.6525 19.3245
Au 6.96546 14.3006 22.2301
Au 6.10618 16.5905 23.6282
Au 9.52436 14.3997 23.6162
Au 8.5919 16.6662 22.1593
Pd 7.04454 14.3389 25.0657
Pd 6.21168 16.6261 26.4547
Au 8.49843 15.2623 27.405
Au 8.64662 16.6794 24.9993
Au 6.03602 15.2046 28.8975
Au 7.40124 18.9588 31.2283
Pd 9.65434 17.5384 32.152
Au 7.64548 17.5422 28.8397
Au 9.4645 19.8314 6.25253
Au 7.33454 18.4915 7.37971
Pd 5.43548 18.7374 10.8765
Au 6.19177 21.0855 12.2595
Pd 7.8253 18.8226 12.2799
Au 9.81964 21.4201 8.82815
Pd 5.36195 18.8237 13.667
Au 6.09809 21.2023 15.0563
Pd 7.76763 18.9145 15.0614
Au 8.6479 21.1905 13.6364
Au 5.29719 18.8936 16.4672
Pd 6.05399 21.2566 17.8697
Au 7.73659 18.9679 17.867
Au 8.56022 21.2876 16.4396
Au 5.26064 18.9269 19.3022
Au 6.00554 21.3013 20.701
Au 7.72273 18.9905 20.706
Au 8.51822 21.342 19.2728
Au 5.26228 18.9263 22.1577
Au 6.03295 21.2996 23.5479
Au 7.74491 18.9936 23.5515
Au 8.51488 21.3598 22.1022
Au 5.31189 18.9292 25.0058
Pd 6.14925 21.2668 26.3827
Au 7.81687 18.9897 26.3918
Au 8.5738 21.3378 24.9629
Au 5.41652 18.9557 27.8176
Au 5.15186 20.4014 30.2072
Au 9.55491 20.4013 32.2046
Au 7.57282 20.4235 28.8199
Au 3.12402 18.725 9.53814
Au 9.74297 22.5769 6.36218
Au 6.72841 24.6847 11.038
Au 7.30045 27.0489 12.4801
Pd 8.42349 22.4893 11.2335
Pd 8.91372 25.8799 9.89165
Au 6.91313 23.5064 13.5734
Pd 7.66662 25.8225 14.9831
Au 9.40045 23.5745 14.9579
Au 9.14082 24.9489 12.5327
Au 6.87044 23.5642 16.4363
Pd 7.63741 25.8706 17.8551
Au 9.34391 23.6506 17.8322
Au 10.1548 25.9479 16.3372
Au 6.83002 23.5975 19.2793
Au 7.64258 25.9272 20.6631
Pd 9.32341 23.6712 20.6654
Au 10.1335 25.9961 19.2168
Pd 6.83216 23.6201 22.0955
Au 7.65188 25.9112 23.5271
Au 9.34379 23.6537 23.5133
Au 10.1447 25.9464 22.0919
Au 6.87752 23.5842 24.9594
Pd 6.69452 24.9955 27.3267
Pd 8.35595 22.7482 27.3612
Au 9.10927 25.0752 25.9373
Pd 5.98839 22.6831 28.7505
Au 6.93045 24.379 32.2576
Pd 7.32755 21.8278 31.1647
Pd 8.13707 24.1344 29.7673
Pd 8.17603 23.5806 8.71314
Au 10.2595 26.1461 5.32067
Pd 11.0518 27.2761 8.90405
Au 8.88092 31.7285 7.77517
Pd 9.54923 28.1246 11.2221
Au 14.7078 27.8843 5.84556
Au 7.42849 29.6945 12.0034
Au 8.37483 30.0193 14.651
Au 9.71446 27.5249 13.9714
Pd 10.0278 30.3787 12.605
Au 8.46253 28.1415 16.5359
Au 9.33787 30.7765 17.3633
Au 10.9764 28.3617 17.7213
Au 11.1927 29.8155 15.1836
Au 8.48766 28.303 19.2672
Pd 9.2945 30.5206 20.7773
Au 10.9473 28.2477 20.7141
Au 11.7362 30.5257 19.3045
Au 8.47468 28.2269 22.1466
Au 8.27976 29.6586 24.5509
Pd 9.90911 27.3764 24.4981
Pd 10.6921 29.7343 23.1147
Pd 7.44764 27.3112 25.9317
Pd 6.3184 27.5228 28.4832
Pd 8.87936 26.4748 28.3291
Au 9.69131 28.7823 26.9049
Au 5.62216 25.2228 29.8297
Au 6.52429 26.9495 33.2534
Au 9.07026 25.8928 33.2358
Au 9.87756 28.2096 31.7558
Au 3.6867 22.0913 8.45423
Au 5.74071 23.4404 7.33601
Au 13.0575 30.0989 5.62628
Pd 9.31846 29.3529 8.74243
Au 12.3343 32.4164 10.1107
Au 10.7917 28.6228 6.46047
Au 10.7762 33.1474 12.3601
Au 9.62908 31.7195 10.2995
Au 8.05465 32.2611 12.7406
Au 11.8657 34.1959 14.8189
Au 7.6183 32.6262 15.4634
Pd 8.65033 34.8823 19.3407
Au 11.7509 32.2827 17.0475
Au 9.74798 34.0463 16.921
Au 10.1032 32.7134 19.336
Au 9.93179 34.2629 21.6759
Au 11.4914 32.0434 21.761
Au 11.3088 35.2046 19.4325
Au 9.02812 32.0702 23.2055
Au 4.63685 30.7517 27.3568
Au 10.4817 31.2061 25.4806
Au 11.2549 33.5569 24.0948
Au 7.10746 29.796 27.1208
Au 8.00119 31.5609 30.5993
Pd 8.46715 29.0312 29.4737
Au 6.70371 32.2849 28.2509
Au 7.70177 26.7245 30.8521
Pd 9.44801 30.6969 32.7675
Pd 8.68143 28.4238 34.0775
Au 10.1979 32.9406 31.405
Au 13.6725 6.89932 6.51722
Au 13.8452 8.30537 8.71326
Au 15.3843 9.03847 6.24596
Au 13.1633 5.156 12.4753
Au 14.6068 5.97653 10.1379
Au 13.1318 3.44415 17.1737
Au 14.5294 4.16496 14.8444
Pd 13.1267 3.59484 21.8181
Au 14.4591 2.64747 19.5225
Au 13.168 5.38408 26.4451
Au 14.5046 4.3238 24.121
Au 12.2892 6.34795 30.16
Au 14.6329 6.25917 28.7476
Au 12.9454 9.38129 33.7822
Au 13.7323 7.17745 32.3954
Au 12.0376 12.7364 5.7419
Au 14.4959 11.2866 4.9195
Au 12.993 10.5412 7.24244
Au 13.1333 12.1372 9.52911
Au 15.453 10.6426 8.62358
Au 14.4914 12.9251 7.15016
Au 13.9845 9.87374 11.0056
Pd 14.1427 11.4618 13.2773
Au 14.7667 7.49821 12.4469
Pd 15.583 12.2542 10.9215
Au 13.3511 6.70952 14.7923
Au 13.5067 8.3532 17.0768
Pd 14.6913 5.75824 17.1265
Au 14.9565 9.14348 14.7319
Au 13.2767 5.08367 19.4834
Au 13.5176 8.41466 21.7457
Pd 14.6879 5.84557 21.8027
Au 14.8563 7.40438 19.4324
Au 13.3504 6.85714 24.1033
Au 12.5505 9.24812 25.5189
Pd 14.7729 7.7186 26.414
Au 14.96 9.25317 24.0779
Au 12.4061 7.75369 27.858
Au 13.137 12.3882 29.2079
Pd 13.8501 8.61076 30.1041
Pd 13.9847 10.0913 27.7931
Au 12.9978 10.8751 31.5384
Au 14.1627 14.5904 34.0295
Pd 14.4353 11.6812 33.799
Au 14.5085 13.2507 31.57
Pd 11.8296 15.5532 5.56135
Au 14.1708 14.0844 4.61019
Pd 12.1469 14.3514 8.03687
Pd 12.3127 15.9711 10.336
Pd 14.622 14.5367 9.43936
Au 14.2376 15.76 6.87057
Au 13.292 13.7159 11.8065
Au 11.8739 12.9001 14.1697
Au 15.7302 13.8303 13.1966
Au 14.7672 16.123 11.715
Au 12.6934 10.6615 15.6236
Pd 12.8519 12.2029 17.9307
Au 15.1423 10.7596 17.019
Pd 14.3181 13.0312 15.56
Au 13.6924 9.96298 19.3766
Au 12.8598 12.2333 20.7674
Au 15.1599 10.7999 21.7287
Au 15.3466 12.3076 19.3401
Au 12.7084 10.7738 23.1626
Pd 11.8677 13.018 24.5624
Au 14.1565 11.624 25.4606
Pd 14.3321 13.0855 23.1138
Pd 13.3035 13.8867 26.8717
Au 12.4052 16.1888 28.3277
Au 14.6971 14.7605 29.2269
Au 14.8974 16.2306 26.8705
Au 14.3065 16.1623 31.745
Au 13.9774 17.5744 34.1294
Au 16.222 16.1155 35.0305
Au 16.4207 17.6819 32.7404
Au 13.6394 19.625 3.9873
Au 13.8747 16.8839 4.31054
Au 11.9597 17.1939 7.7934
Au 10.0643 17.4095 11.3038
Au 14.3766 17.4328 9.17306
Au 14.0017 18.6299 6.56622
Au 11.0098 15.1616 12.7307
Au 11.1548 16.6771 15.0562
Pd 13.4594 15.2783 14.106
Pd 12.5092 17.5478 12.6683
Au 12.0261 14.419 16.4953
Au 11.1179 16.7075 17.8899
Au 14.4891 14.5172 17.8938
Au 13.6344 16.753 16.457
Pd 11.9908 14.4449 19.3284
Au 11.1081 16.7183 20.7104
Pd 14.491 14.5308 20.736
Au 13.6043 16.7733 19.2816
Au 12.0271 14.4546 22.1716
Au 11.1427 16.737 23.5548
Au 13.4771 15.3243 24.521
Au 13.6272 16.7807 22.1175
Au 11.0015 15.2931 25.9531
Au 10.105 17.6007 27.3853
Au 14.5415 17.6894 29.3622
Au 12.5879 17.6508 25.9333
Au 12.0634 17.6111 30.8207
Au 11.764 19.0088 33.1867
Au 16.0915 19.0911 35.1339
Pd 14.19 19.1026 31.7834
Pd 11.8014 20.0194 7.53171
Au 15.6443 21.048 2.76286
Au 9.74611 18.6297 8.75376
Au 10.0405 20.2525 11.3153
Pd 12.1468 18.8353 10.1454
Pd 14.1318 20.2777 8.82637
Pd 10.2628 18.9178 13.6886
Pd 11.0778 21.2934 15.0316
Au 12.7275 19.0119 15.08
Pd 12.4602 20.3825 12.7588
Au 10.2314 19.0029 16.4543
Au 11.0368 21.3599 17.8533
Pd 12.7043 19.0648 17.871
Au 13.5171 21.3662 16.4667
Au 10.2196 19.0331 19.2707
Au 11.0139 21.3956 20.6806
Au 12.7003 19.0929 20.6677
Pd 13.4906 21.4139 19.282
Au 10.2146 19.0466 22.104
Au 11.0565 21.3924 23.5277
Au 12.7384 19.0981 23.5069
Au 13.5288 21.4329 22.1003
Au 10.2694 19.0474 24.9498
Au 10.0172 20.4884 27.3838
Au 12.2833 19.0933 28.4147
Au 12.4884 20.5529 25.9414
Pd 9.82047 19.0204 29.8318
Au 11.7165 21.8901 33.1757
Au 13.8996 20.5131 34.1532
Pd 11.987 20.478 30.8206
Au 11.9027 23.9619 5.44749
Pd 13.5554 21.4511 6.01544
Pd 10.3948 24.8972 7.70239
Pd 10.6115 23.7615 10.1757
Au 12.2687 21.6056 10.3734
Pd 12.0649 22.7333 7.91634
Pd 10.8843 22.7004 12.6501
Au 11.605 25.1589 13.9623
Au 13.3 22.8276 14.0917
Au 13.2043 24.1438 11.6768
Au 11.8534 23.6705 16.3893
Au 12.6279 26.0129 17.829
Au 14.3054 23.7161 17.8672
Au 14.1316 25.2245 15.4607
Au 11.8208 23.6997 19.2688
Pd 12.63 25.9753 20.7021
Pd 14.3148 23.7171 20.7002
Au 15.1027 26.0034 19.3022
Au 11.8496 23.6922 22.0995
Au 11.5984 25.1275 24.4939
Pd 13.2891 22.8755 24.5059
Au 14.0774 25.1871 23.0771
Au 10.8111 22.8218 25.936
Au 10.5439 24.2146 28.3355
Au 12.2435 21.9462 28.3676
Au 13.0477 24.2777 26.9032
Au 9.75513 21.8662 29.8048
Au 9.48686 23.2738 32.1992
Au 13.8728 23.4205 34.1168
Au 11.949 23.3382 30.77
Au 12.4143 27.7247 4.44915
Pd 12.5298 26.3584 6.75156
Au 13.1049 28.8572 8.00875
Pd 11.5356 29.6892 10.2471
Pd 12.7787 25.1249 9.17649
Au 15.6811 30.8004 6.03559
Au 11.3464 26.1298 11.4012
Au 12.048 28.4451 12.763
Au 13.9988 26.6025 13.0171
Au 13.5162 27.5637 10.4509
Au 12.4428 27.4355 15.396
Au 13.3199 29.9636 16.996
Au 14.8707 27.6539 16.9357
Au 14.4384 29.2383 14.4528
Au 13.4226 28.2812 19.3082
Au 13.1688 29.7865 21.7116
Au 14.8661 27.4945 21.6911
Pd 14.5978 30.8316 19.4511
Au 12.3668 27.456 23.0863
Au 12.1289 28.9087 25.4586
Au 13.8307 26.6494 25.4721
Au 14.6195 28.996 24.0846
Au 11.3501 26.5413 26.8829
Au 11.1128 27.9912 29.2586
Au 12.7754 25.7118 29.2785
Pd 13.559 28.0911 27.8374
Au 10.3013 25.6234 30.7473
Au 11.2399 27.4824 34.1033
Au 11.6602 24.8307 33.1572
Au 12.5062 27.2008 31.6898
Au 8.03546 24.6965 6.2974
Au 14.0372 31.5707 8.0221
Au 11.3773 31.0163 7.83537
Au 13.5064 33.6157 12.5687
Au 14.1812 30.1949 10.368
Au 15.0976 32.848 10.3567
Au 12.5512 31.0678 12.4852
Pd 10.1215 32.2035 14.7871
Au 15.2405 31.2442 12.6656
Au 16.2523 33.87 12.7422
Au 13.3641 31.8887 14.8731
Au 12.9068 34.8228 17.2605
Pd 14.5679 32.614 17.2487
Au 14.6005 34.4279 15.0276
Au 12.9582 33.0789 19.5067
Pd 12.6813 34.5672 21.8384
Au 14.3255 32.368 21.8794
Au 14.1265 35.5588 19.6599
Pd 12.9147 31.2956 24.0942
Au 10.0167 33.6086 26.68
Au 11.9263 30.4114 27.8445
Au 12.6659 32.8159 26.4371
Au 9.27005 31.324 28.0534
Au 8.85767 33.7048 29.1736
Au 13.306 29.5829 30.2321
Au 11.4598 32.9463 28.992
Au 10.6615 30.547 30.3537
Pd 11.9932 29.7698 32.7189
Au 13.4673 28.9065 34.8312
Au 12.7885 32.0579 31.351
Pd 17.0754 9.9706 4.22365
Pd 16.1158 6.8903 7.83101
Au 17.8528 7.76433 5.5766
Pd 15.9197 4.97147 12.516
Au 17.3464 5.70268 10.1502
Pd 15.8635 3.29644 17.2075
Pd 17.2611 3.96806 14.8793
Pd 15.8445 3.36279 21.7982
Pd 17.1804 2.48088 19.5143
Au 15.9112 5.14604 26.4479
Au 17.2286 4.04604 24.127
Au 16.105 7.09812 31.0285
Pd 17.3808 6.02766 28.7308
Au 15.2182 8.04142 34.4832
Au 17.6812 7.98038 33.2957
Pd 16.62 12.6922 3.85999
Au 19.1229 11.4 3.16052
Pd 16.9051 11.4869 6.38428
Au 16.9851 13.0916 8.60456
Au 17.7511 9.17705 7.82849
Au 18.9655 13.014 5.26709
Au 16.2533 8.31315 10.1419
Au 16.4172 9.95272 12.4038
Au 17.543 7.23498 12.4497
Au 17.8894 10.7533 10.0895
Au 16.1105 6.46803 14.806
Au 16.3049 8.1191 17.0786
Pd 17.4414 5.53573 17.1414
Au 17.7444 8.87683 14.7382
Pd 16.0106 4.89661 19.4749
Au 16.2992 8.19431 21.7756
Au 17.4208 5.58984 21.809
Au 17.637 7.19693 19.4254
Pd 16.0931 6.61897 24.1153
Au 16.3964 10.1082 26.3732
Au 17.5176 7.45212 26.4122
Au 17.7302 9.02728 24.0687
Pd 16.2415 8.58392 28.6943
Au 15.4542 10.9535 30.0495
Au 17.7894 9.41566 30.9614
Au 17.926 10.9741 28.6567
Au 15.3382 9.46416 32.3315
Au 16.4905 13.1289 34.8675
Au 16.8206 10.227 34.6518
Au 16.9196 11.7821 32.4135
Au 16.2522 15.491 3.45453
Au 18.6612 14.2089 2.78021
Au 16.5842 14.3577 6.00521
Au 16.6877 16.0242 8.27681
Au 19.0325 14.6614 7.44086
Pd 18.6366 15.896 4.87835
Au 17.1377 14.6768 10.8346
Au 17.3122 16.2335 13.096
Au 18.0624 12.3659 12.3222
Au 19.1727 16.2694 9.67596
Au 16.5931 11.5576 14.6705
Au 16.7998 13.1232 16.9608
Au 17.9485 10.5117 17.0298
Au 18.2663 13.9503 14.5893
Au 16.519 9.77398 19.3991
Au 16.7868 13.1185 21.6746
Pd 17.9481 10.5726 21.7243
Pd 18.1663 12.1098 19.3363
Pd 16.5954 11.6368 24.0329
Pd 15.774 13.9472 25.4307
Au 18.0645 12.4978 26.3318
Au 18.2393 13.9744 23.9939
Au 15.5996 12.4712 27.7487
Au 16.8179 16.2797 30.2656
Au 17.0684 13.32 30.0923
Au 17.2284 14.8359 27.7778
Au 16.6088 14.7225 32.6296
Pd 18.3221 17.6367 35.9151
Pd 18.4979 14.7034 35.7578
Au 18.7017 16.2693 33.6035
Au 15.9318 18.2959 3.08731
Au 18.3112 17.0245 2.39357
Au 16.3017 17.2157 5.66106
Pd 16.4103 18.887 7.92658
Pd 18.7313 17.5418 7.08106
Pd 18.3234 18.7375 4.51218
Au 16.8158 17.6533 10.5432
Au 15.0022 17.6773 14.0166
Au 19.2531 17.8496 11.9462
Au 18.8545 19.171 9.34491
Au 15.9354 15.3981 15.4848
Pd 16.1325 16.8261 17.8469
Au 18.4348 15.4926 16.8748
Au 17.5788 17.8136 15.338
Au 17.0101 14.621 19.2898
Au 16.117 16.832 20.6782
Au 18.4558 15.47 21.6286
Pd 18.6658 16.9114 19.2386
Au 15.9437 15.3958 23.0801
Au 15.0682 17.6983 24.496
Au 17.3922 16.3047 25.4325
Au 17.5786 17.7644 23.0598
Pd 16.9969 17.764 27.903
Au 16.6677 19.1929 30.3437
Pd 18.9341 17.8124 31.2909
Au 19.1631 19.3067 28.9223
Au 18.5566 19.1934 33.7299
Au 18.226 20.6095 36.0539
Au 20.5907 19.1909 35.7345
Au 20.9027 20.6792 33.3468
Au 17.6924 22.518 1.66016
Au 17.9966 19.8109 1.99157
Au 15.9692 20.0577 5.30786
Au 16.5097 20.5599 10.1412
Au 18.3949 20.4177 6.75191
Au 17.9699 21.5683 4.13942
Au 14.5433 19.0465 11.5017
Pd 14.9448 20.525 14.1962
Au 17.0203 19.3152 12.8269
Au 18.948 21.0445 11.464
Au 15.2247 19.0579 16.4757
Au 15.976 21.4287 17.8694
Au 17.7394 19.1052 17.8297
Au 17.4486 20.662 15.6009
Au 15.1748 19.1136 19.2576
Au 15.9868 21.4503 20.6894
Au 17.687 19.1352 20.635
Au 18.4805 21.4397 19.1879
Au 15.214 19.1261 22.0812
Au 14.9255 20.6022 24.5059
Au 17.1989 19.2319 25.5167
Pd 17.3424 20.6332 23.0756
Au 14.7462 19.1656 26.9696
Pd 14.4496 20.5834 29.3867
Au 18.8412 20.7097 31.3237
Au 16.905 20.6668 27.9539
Au 16.3154 20.6019 32.7657
Au 16.0393 22.0455 35.1438
Au 20.5273 22.0862 35.7392
Au 18.5 22.0992 33.7483
Au 15.4819 22.9599 4.73836
Au 17.4926 24.4618 3.54084
Pd 15.9493 21.7506 7.41273
Au 14.4777 22.9772 9.43051
Au 18.3986 22.1971 8.86579
Au 17.9517 23.35 6.23534
Au 14.7225 21.8161 11.8732
Au 15.6765 24.4352 13.1536
Au 17.2476 22.1206 13.3306
Au 16.942 23.2615 10.9357
Au 15.7823 22.9623 15.5437
Au 16.5749 25.3486 16.9629
Pd 18.2694 23.0356 16.9413
Au 18.0338 24.728 14.6615
Au 16.8008 23.7373 19.2733
Pd 16.5323 25.2355 21.6572
Au 18.2012 22.9734 21.6229
Au 17.9822 26.2613 19.4075
Au 15.738 22.9347 23.0719
Au 15.5024 24.3782 25.4712
Au 17.1196 22.0942 25.4712
Au 17.9695 24.4839 24.0205
Pd 14.6819 22.0224 26.9179
Pd 14.4234 23.436 29.301
Pd 16.6074 22.0875 30.3319
Au 16.8823 23.5385 27.8638
Pd 14.1419 21.9737 31.7545
Au 16.0506 25.0052 35.0385
Pd 18.2026 23.5844 35.95
Au 16.2963 23.4926 32.7237
Pd 14.0023 25.5118 4.53503
Pd 16.3053 25.5364 5.87849
Au 14.1847 24.0724 6.88155
Au 14.8804 26.5446 8.20926
Au 16.5527 24.3075 8.34093
Au 18.9006 26.3086 5.20902
Au 15.6639 25.8332 10.7398
Au 15.9648 28.5238 12.0938
Au 17.8836 26.5059 12.4467
Au 18.1292 28.1414 10.2184
Au 16.2899 27.0308 14.6231
Au 16.0875 30.271 17.0793
Au 17.717 27.9629 17.0762
Au 17.3884 29.6337 14.6602
Au 16.2652 28.5509 19.4211
Au 16.0224 30.0674 21.8388
Au 17.741 27.7558 21.8583
Au 17.4111 31.0948 19.5501
Au 16.3404 26.7346 24.0778
Pd 16.0188 28.1898 26.4516
Au 17.7817 25.9425 26.4496
Pd 17.4657 29.2921 24.2053
Au 15.2537 25.8258 27.8342
Au 14.9549 27.2616 30.1695
Au 16.6256 24.9797 30.2166
Pd 17.4232 27.3707 28.8037
Au 14.1242 24.8732 31.6823
Au 13.8656 26.3606 34.046
Pd 18.2424 26.5223 35.7639
Au 16.3549 26.4301 32.5884
Au 16.3976 27.0269 3.65722
Au 18.1916 29.237 3.53902
Au 16.7487 32.1361 8.16261
Pd 16.8551 30.6133 10.4294
Au 17.3528 28.6257 5.88986
Au 18.2841 31.4463 5.83798
Au 15.8432 29.1771 8.31988
Pd 17.8972 31.6022 12.7206
Pd 19.1112 29.1452 12.5713
Pd 18.4439 29.9658 8.10127
Au 16.1875 32.16 15.0102
Pd 15.7489 35.0988 17.444
Pd 17.3809 32.8946 17.3732
Au 17.3775 34.6791 15.1745
Au 15.7698 33.3912 19.6369
Au 14.0444 33.8695 24.2003
Au 15.7086 31.6032 24.2169
Pd 15.4827 34.872 21.9811
Au 14.3208 30.4817 26.4512
Au 14.0692 31.9862 28.8176
Au 17.0779 30.7997 26.5492
Pd 15.4188 33.0347 26.5362
Pd 15.6996 29.655 28.7876
Au 15.4505 31.1487 31.1306
Au 17.1129 28.8351 31.1285
Pd 16.7967 32.2225 28.8702
Pd 14.7067 28.6887 32.4887
Au 14.2078 31.1072 33.5109
Au 16.0901 27.9551 34.8513
Au 16.8361 30.2261 33.4861
Au 19.6848 8.68555 3.54004
Au 18.8332 6.46401 7.85676
Au 20.4977 7.12377 5.60371
Au 18.6482 4.62697 12.5174
Au 20.0715 5.33204 10.2016
Au 18.5831 2.98813 17.183
Au 20.0099 3.63182 14.8498
Pd 18.5898 3.10909 21.7989
Pd 19.9461 2.24061 19.4994
Au 18.6428 4.84262 26.4625
Au 19.9856 3.77121 24.1154
Au 18.8694 6.75833 31.0189
Au 20.1177 5.63903 28.7329
Au 19.3553 8.89849 35.3511
Au 20.4337 7.51171 33.2431
Au 21.2163 13.2676 2.92155
Au 21.7121 10.4852 3.1044
Pd 19.4088 10.126 5.66915
Au 19.4057 11.6461 7.82176
Pd 20.4499 8.68578 7.85387
Au 21.5208 12.0221 5.34116
Pd 18.9865 7.99329 10.1442
Pd 19.1771 9.62559 12.4153
Au 20.2831 6.92413 12.4947
Au 20.6335 10.3207 10.1271
Au 18.8628 6.21509 14.8127
Pd 19.0765 7.89048 17.0862
Au 20.1982 5.26007 17.1293
Au 20.5116 8.61516 14.7734
Au 18.7604 4.6426 19.4696
Au 19.0747 7.98039 21.7601
Au 20.2053 5.34711 21.8012
Au 20.4284 6.98273 19.4268
Au 18.8452 6.34897 24.1232
Au 19.1913 9.83074 26.3679
Au 20.3111 7.13835 26.4164
Au 20.514 8.7519 24.0621
Au 19.033 8.25506 28.6945
Au 19.4748 11.8299 30.931
Au 20.5751 8.99739 30.9366
Pd 20.6984 10.5968 28.6448
Pd 19.3777 10.3148 33.1765
Au 18.8593 11.73 35.5668
Au 21.3732 10.6851 35.4312
Au 21.4588 12.199 33.1434
Au 20.8178 16.0387 2.73493
Au 23.3834 15.1599 3.33914
Pd 21.1241 14.8315 5.17781
Au 21.236 16.4131 7.50021
Au 21.5555 13.5764 7.69477
Au 23.3115 16.6645 5.67685
Au 19.591 13.2296 10.0042
Au 19.7611 14.7955 12.2289
Au 20.8345 11.9846 12.3876
Au 21.7118 15.2114 9.98501
Au 19.3861 11.2668 14.6889
Pd 19.5753 12.8676 16.9691
Au 20.7231 10.278 17.0426
Pd 21.0086 13.5947 14.6519
Au 19.3005 9.56649 19.3868
Au 19.5935 12.9016 21.6554
Au 20.7362 10.3437 21.7056
Au 20.9556 11.9171 19.321
Pd 19.3773 11.3728 24.0173
Au 19.7283 14.8815 26.3271
Au 20.8472 12.1638 26.3126
Au 21.0441 13.7218 23.9371
Pd 19.5875 13.358 28.6468
Au 19.1133 14.9023 31.1194
Au 21.5514 13.7283 30.7719
Au 21.6498 15.2646 28.3967
Au 18.9635 13.3322 33.4199
Au 20.7169 16.3241 35.6353
Pd 20.9211 13.5281 35.4682
Pd 21.1388 15.0536 33.2005
Au 20.5052 18.8242 2.51322
Au 23.0565 17.8746 3.15865
Au 20.7973 17.6422 4.97397
Au 20.9049 19.2876 7.28459
Au 23.4859 19.8399 8.31056
Au 23.0145 19.36 5.50196
Pd 21.4013 18.0027 9.73728
Au 21.3748 19.567 12.0052
Pd 21.7518 16.8128 12.2861
Au 23.817 18.7112 10.8246
Au 19.9295 16.3624 14.4614
Au 20.0742 17.8251 16.7641
Au 21.2024 15.1681 16.9295
Au 21.8515 18.5741 14.6393
Au 19.8345 14.4376 19.2778
Au 20.0996 17.7983 21.5853
Pd 21.2754 15.2495 21.5768
Au 21.5238 16.7767 19.2126
Au 19.9368 16.3708 23.9481
Au 19.4485 17.9081 26.4791
Au 21.8393 16.8185 25.9555
Pd 22.0194 18.3056 23.5608
Pd 19.2566 16.4262 28.8276
Au 21.2975 19.3592 30.8529
Pd 21.3649 16.5756 30.828
Au 21.5913 18.0987 28.4084
Au 20.9883 17.8435 33.3176
Pd 22.8836 20.6404 35.2193
Au 23.0148 17.8393 35.232
Au 23.3307 19.3268 32.8087
Au 20.1984 21.5884 2.25416
Au 22.7458 20.6126 2.99942
Au 20.4798 20.5147 4.75673
Au 20.5201 22.3037 7.10362
Pd 23.0466 22.574 8.26817
Au 22.6582 22.0405 5.41323
Au 21.0726 20.8422 9.53276
Au 21.2272 22.2462 12.3298
Pd 23.6774 20.2361 13.2049
Au 23.4701 21.4709 10.7622
Au 19.4999 19.7008 14.0904
Au 20.0804 20.6436 16.7994
Pd 23.2661 19.3795 18.8084
Pd 22.0974 21.4329 15.127
Au 20.2858 19.1816 19.1571
Au 19.7203 20.6663 21.6581
Au 21.992 21.0862 23.5689
Au 21.269 21.6695 19.2989
Pd 19.6335 19.3345 24.107
Au 19.4078 20.7845 26.5174
Pd 21.8361 19.6233 25.9812
Au 24.3205 21.3273 25.2799
Pd 21.5746 20.8945 28.408
Au 21.2867 22.1411 30.8348
Au 23.7533 20.8144 30.2897
Au 23.9403 22.3716 27.8651
Pd 23.2699 22.1036 32.825
Au 22.8476 23.4884 35.2491
Au 25.1741 21.99 34.8426
Au 25.7006 23.2981 32.4604
Au 19.7691 24.2483 1.88772
Pd 22.2909 23.3242 3.02318
Au 19.9856 23.4815 4.44674
Pd 19.8068 25.0016 7.56478
Au 22.7141 25.2779 8.43926
Au 21.9882 24.5873 5.83975
Pd 20.6162 23.4559 9.78017
Au 19.4663 24.244 12.2873
Pd 23.5288 22.902 13.3343
Au 22.9524 24.1906 10.9775
Au 19.6541 22.4534 14.5996
Au 19.4289 25.6282 17.0595
Au 21.0757 23.2809 17.0038
Pd 20.8743 24.9155 14.7779
Au 19.6936 23.9897 19.3678
Au 19.4159 25.4704 21.7784
Au 21.1679 23.0787 21.7309
Pd 20.8587 26.4847 19.5083
Au 19.5379 22.1724 24.0331
Au 19.3769 23.6844 26.4009
Au 21.7835 22.3776 25.9505
Au 20.8954 24.6681 24.0913
Au 19.1378 22.2145 28.8997
Au 18.8235 23.6048 31.2737
Au 23.3301 24.9169 32.8104
Au 21.509 23.7329 28.3031
Au 20.895 23.4869 33.3128
Pd 20.5322 24.945 35.629
Au 25.1893 24.7741 34.9179
Pd 20.891 26.2064 33.2659
Au 20.7849 28.5025 3.34898
Au 21.4071 25.8685 3.3617
Au 18.8788 26.731 2.56264
Au 17.5995 26.8533 7.87314
Au 20.7694 26.1187 10.0717
Au 21.4033 27.1814 5.76156
Pd 18.3502 25.3046 9.99411
Pd 20.7212 26.8184 12.6635
Au 23.1164 25.501 13.528
Au 23.048 26.9622 11.1431
Au 19.1893 27.3651 14.8271
Au 18.9134 30.5212 17.2287
Au 20.5717 28.2061 17.2467
Au 20.407 29.9575 14.9522
Au 19.1169 28.7835 19.5639
Au 18.845 30.3348 21.9376
Au 20.5795 27.9747 21.957
Pd 20.2268 31.3252 19.6515
Au 19.33 26.978 24.2841
Au 18.8205 28.495 26.5343
Pd 20.9133 26.0574 26.6131
Au 20.3031 29.6063 24.2654
Pd 19.1208 25.0806 28.7821
Au 18.9349 26.5185 31.1077
Au 21.2737 24.8573 30.7556
Au 20.2202 27.6387 28.773
Au 18.5047 25.0048 33.6281
Au 20.6268 27.7127 35.6145
Pd 22.9249 26.3557 35.0834
Pd 21.7491 27.3773 30.9995
Au 15.3758 29.4425 3.82155
Au 21.0304 31.9165 5.98846
Pd 20.0153 29.4533 5.73752
Au 17.8319 33.2739 10.467
Pd 22.788 28.0805 8.58666
Pd 19.4412 32.5732 8.16413
Au 20.0923 27.7907 8.00584
Pd 18.9999 34.0904 12.8935
Au 20.6215 31.8339 12.7956
Au 20.5694 33.6032 10.5566
Au 18.9654 32.3656 15.0974
Au 16.9646 35.8472 19.8053
Au 18.6039 33.6479 19.7563
Au 18.5769 35.417 17.572
Au 17.1438 32.6688 21.9863
Pd 16.8124 34.1241 24.3116
Au 19.9529 32.9203 22.0871
Au 18.2975 35.2068 22.1134
Au 18.5127 31.9155 24.3328
Au 18.1331 33.4097 26.6776
Au 20.8704 33.7883 26.8163
Au 19.5706 34.5084 24.4399
Au 18.4484 30.0072 28.8645
Pd 18.1491 31.4552 31.2264
Au 19.8256 29.3048 31.1478
Au 19.5082 32.6233 29.0251
Au 18.4325 29.2832 35.551
Pd 18.6291 27.927 33.3724
Au 19.5201 30.7503 33.526
Au 20.9009 31.9196 31.3463
Au 22.3476 7.80352 3.48149
Au 21.5659 5.95733 7.94182
Au 23.2443 6.58136 5.77317
Au 21.4445 4.32406 12.537
Au 22.9186 4.9762 10.2617
Au 21.3824 2.72573 17.1881
Au 22.8317 3.39013 14.8879
Pd 21.3578 2.86173 21.7791
Au 22.7483 1.97313 19.5056
Au 21.3934 4.55016 26.4251
Au 22.7563 3.5122 24.0735
Pd 21.6172 6.38791 30.9168
Pd 22.8558 5.34784 28.6221
Pd 22.1607 8.08403 35.273
Au 23.2405 6.85764 33.0733
Au 23.8031 12.4584 3.49819
Pd 24.302 9.80722 3.7078
Au 22.1446 9.31436 5.60148
Au 22.1998 10.8718 7.88419
Au 23.1837 8.16988 8.04548
Pd 24.1688 11.3711 5.98815
Au 21.7166 7.57069 10.2357
Au 21.9548 9.2874 12.4956
Au 23.1168 6.60909 12.5565
Au 23.4978 9.82978 10.2588
Au 21.6571 5.94137 14.8271
Au 21.867 7.66764 17.106
Au 23.0238 5.04493 17.1591
Au 23.3352 8.3402 14.8098
Au 21.582 4.40143 19.4756
Au 21.8834 7.74134 21.7464
Au 23.0084 5.12628 21.7883
Au 23.2438 6.76193 19.4503
Au 21.6443 6.0823 24.108
Au 21.9787 9.5041 26.3297
Pd 23.0865 6.85427 26.3486
Au 23.332 8.47942 24.0277
Pd 21.8015 7.89857 28.6257
Au 22.4456 11.0935 30.7875
Au 23.4426 8.40002 30.7832
Au 23.5827 10.0583 28.4955
Au 22.318 9.52748 33.0936
Pd 23.4023 12.4832 35.0703
Au 24.1683 9.94643 35.128
Au 24.4221 11.4022 32.7756
Pd 25.5617 17.0186 4.14113
Au 25.9433 14.2757 4.19735
Au 23.6598 13.982 5.82838
Au 23.822 17.0979 8.43809
Au 24.1474 14.3666 8.56226
Au 25.7876 15.8355 6.64296
Au 22.4794 12.5235 10.1498
Au 22.6243 14.1795 12.452
Au 23.7079 11.5204 12.5202
Au 25.0321 13.5109 11.0509
Pd 22.1576 10.962 14.75
Pd 22.3534 12.6005 17.0082
Au 23.5249 10.0246 17.0701
Au 23.8556 13.1955 14.7702
Pd 22.0914 9.34775 19.3954
Au 22.4188 12.7003 21.6224
Au 23.5766 10.1065 21.6963
Au 23.7605 11.7069 19.3353
Au 22.1947 11.1104 23.9901
Au 22.7334 14.257 26.0846
Pd 23.7863 11.718 26.1717
Au 24.0084 13.317 23.8293
Au 22.5708 12.6711 28.4532
Au 23.7993 15.3101 30.2173
Pd 24.6637 12.7804 30.3019
Au 24.9241 14.1817 27.8367
Pd 23.5972 13.9158 32.66
Pd 23.1452 15.1316 35.0729
Au 25.7821 13.4782 34.2642
Au 26.0548 14.9583 31.9656
Au 25.2571 19.7555 3.9519
Pd 27.654 18.7573 4.96773
Au 25.451 18.5091 6.52274
Au 26.179 18.6019 9.26884
Au 26.483 15.7757 9.42434
Pd 27.5387 20.1907 7.34603
Pd 24.1374 16.0427 10.9727
Au 24.1158 17.6387 13.3472
Pd 25.1945 15.1977 13.3954
Au 26.4226 17.3583 11.8151
Pd 22.7173 15.7837 14.719
Au 22.8748 17.5042 16.9031
Au 24.0578 14.8557 16.9998
Au 25.328 16.9638 15.7434
Pd 22.6465 14.2694 19.2835
Au 23.193 17.3489 21.3109
Pd 24.2256 14.8753 21.4654
Au 24.454 16.7075 19.0494
Pd 22.9345 15.8099 23.6867
Au 24.1219 18.2914 25.317
Au 25.1442 15.6691 25.3859
Au 25.3544 17.1704 22.9818
Au 23.975 16.7543 27.7534
Au 23.7869 18.0675 30.255
Au 26.2321 16.4647 29.5322
Au 26.3293 17.9947 27.0757
Au 23.455 16.5945 32.7293
Au 25.3227 19.1548 34.6938
Au 25.5172 16.2922 34.4749
Au 25.9198 17.7868 32.1483
Au 24.8523 22.5051 3.85173
Pd 27.2448 21.5437 4.85146
Au 25.073 21.1914 6.41675
Au 25.785 21.394 9.168
Pd 28.4034 20.1993 10.14
Pd 27.0855 22.9316 7.2428