1687
Atoms. Timestep: 20410
Au 8.17472 6.04437 8.67392
Au 7.92726 4.04972 15.4906
Au 6.45522 5.79876 14.3219
Au 7.02703 6.40067 16.8307
Au 4.67859 7.57431 22.9968
Au 6.49864 8.8223 27.1658
Au 8.61518 10.0341 31.0794
Pd 8.76684 8.74376 5.59699
Au 6.98256 8.33731 7.60945
Au 6.51588 10.3261 5.72422
Pd 8.16486 6.27285 12.3816
Au 7.57239 8.07752 10.3731
Au 7.20169 8.31713 14.0961
Pd 7.05985 10.1987 12.0839
Au 5.22543 8.2536 20.4872
Au 5.91696 8.92403 17.9369
Au 4.85556 9.41212 24.9791
Pd 4.90028 10.287 22.3527
Pd 6.81073 10.6668 29.1681
Pd 5.11084 11.2348 27.0586
Pd 9.06458 11.8364 33.175
Pd 7.14585 12.4389 31.3076
Au 8.32211 10.7515 3.75112
Pd 6.45689 10.3447 9.32856
Au 6.02447 12.3498 7.5071
Au 5.82272 12.3396 11.0096
Au 5.73883 14.4533 9.34236
Au 6.30634 10.4282 15.6641
Au 6.31743 12.409 13.728
Au 5.07586 10.99 19.7171
Au 5.51415 12.437 17.4587
Pd 4.86754 12.1756 24.4431
Au 4.70853 13.036 21.8104
Au 5.31453 12.9885 29.2653
Au 4.88332 13.963 26.6498
Au 7.56645 14.1579 33.474
Au 5.29894 17.3954 31.0315
Au 9.504 15.1486 5.42863
Au 7.62048 17.1533 5.67975
Au 9.56544 17.4358 3.85263
Au 6.12772 14.7801 12.0669
Au 6.08358 17.0144 10.2671
Au 5.7236 14.4605 15.614
Au 5.70464 16.7147 14.0263
Au 4.90168 14.346 19.4255
Au 5.21599 16.4252 17.6741
Au 4.6004 14.9297 24.0314
Au 4.56219 16.1294 21.5511
Au 5.64474 14.7122 31.457
Au 4.62364 16.7301 26.2668
Au 9.79782 15.8477 33.8112
Au 5.03273 15.7096 28.8725
Pd 10.0377 21.5538 6.8423
Au 6.11619 19.1777 8.4824
Au 7.91828 19.7777 4.23952
Au 5.75036 18.8698 12.2989
Au 5.75595 20.9672 10.5116
Au 5.35372 18.631 16.0693
Au 5.46613 20.7602 14.3838
Au 4.86173 18.3038 19.8495
Au 5.07726 20.4766 18.1845
Au 4.41354 17.8798 23.7375
Au 4.65643 20.116 22.055
Au 4.73691 18.4536 28.4955
Au 4.3597 19.5981 25.9581
Au 8.28147 18.1167 33.9666
Pd 4.98447 20.0858 30.6741
Au 7.37687 22.0088 5.97816
Pd 5.47894 21.8291 7.89989
Au 4.74036 24.4211 7.39256
Pd 5.54212 22.8352 12.602
Au 5.02131 23.6061 9.95375
Pd 5.26151 22.6033 16.4985
Au 5.2519 24.662 14.7197
Au 4.84413 22.2963 20.3607
Au 4.99678 24.4441 18.6507
Au 4.54973 21.8604 24.2766
Au 4.69712 24.0514 22.5658
Au 4.43048 21.2434 28.2175
Au 4.5334 23.5067 26.576
Au 4.86326 24.1295 32.8002
Au 4.59102 22.7534 30.523
Au 9.26721 24.1728 6.27595
Au 4.37341 26.2376 9.38891
Au 6.12635 28.3606 9.61195
Au 4.73397 25.4195 12.0293
Au 4.00088 28.0459 11.4413
Au 5.04174 26.5395 16.8814
Au 4.44411 27.2196 14.1287
Pd 4.88522 26.2393 20.8559
Au 4.87479 28.3747 19.1078
Au 4.58217 25.7199 24.8398
Au 4.72896 27.9625 23.0794
Au 4.57904 24.9792 28.9159
Au 4.51937 27.1562 27.2405
Au 6.76926 26.0559 33.1833
Au 6.56255 28.3073 31.6673
Au 4.21511 30.2606 9.77905
Pd 5.9114 32.3545 10.2403
Au 6.27974 30.5892 8.0729
Au 3.77051 29.8082 13.5705
Au 10.6411 34.517 11.7111
Au 4.15121 28.9924 16.243
Pd 4.747 32.2292 12.9043
Au 4.92031 30.147 21.2585
Au 4.64955 30.8364 18.1534
Au 4.5817 29.3486 25.5663
Au 6.28763 31.4251 26.0184
Au 4.71646 26.3429 31.2679
Au 4.5788 28.5144 29.619
Au 8.46366 30.2847 32.0587
Pd 6.36978 30.5135 30.088
Au 9.89518 6.41038 6.55305
Au 8.84584 4.31171 10.7276
Pd 10.5452 4.66998 8.65519
Au 9.62479 4.17515 13.3737
Pd 11.4876 4.34058 11.3055
Au 8.62849 4.47309 17.9958
Pd 10.5506 4.25198 16.0162
Au 6.8467 6.45946 21.7487
Au 9.29935 5.42665 20.3807
Au 6.21742 7.02725 25.1434
Pd 8.4749 6.35221 23.8559
Au 8.42189 8.21396 29.0588
Au 8.12833 6.44558 27.0221
Au 10.4154 9.47496 32.9222
Au 10.4053 7.70662 30.8524
Au 10.5886 9.2494 3.61852
Au 11.68 6.89699 4.49552
Au 11.4212 8.84029 6.32529
Au 9.55706 8.43477 8.40769
Au 11.976 6.9522 8.39112
Au 10.2568 11.1819 5.49367
Au 10.1205 6.64864 10.5032
Au 9.45326 8.66495 12.3882
Au 11.0912 6.4719 13.0929
Au 11.5429 9.00377 10.3917
Au 9.10171 6.44643 15.0026
Au 8.38989 8.78421 16.5838
Au 9.90896 6.73518 17.6805
Pd 10.6566 8.75707 14.8774
Au 7.65416 7.3143 19.3133
Au 7.35715 9.81571 20.7377
Pd 9.2051 7.87637 21.7079
Pd 9.63845 9.22386 19.2302
Au 7.00924 8.78837 23.2408
Au 7.12014 10.8353 25.2883
Pd 8.63798 8.51774 25.4535
Au 9.29007 10.2602 23.4291
Pd 8.87151 10.3847 27.42
Au 9.13115 12.2163 29.4673
Pd 10.7813 9.85039 29.2977
Au 11.3076 12.0165 27.6951
Au 11.0459 11.6256 31.3751
Au 9.62672 13.4804 35.1357
Pd 11.3816 11.2786 34.7224
Pd 11.5079 13.5526 33.2921
Au 7.79714 12.7714 5.45825
Au 9.79409 13.1095 3.58768
Au 8.38652 10.7612 7.48868
Au 7.91708 12.7364 9.33909
Au 11.1001 10.8885 8.30293
Au 9.84232 13.1469 7.32452
Pd 9.09895 10.4698 10.2834
Pd 8.46456 12.6716 12.059
Pd 10.8745 10.992 12.3112
Au 10.5687 13.0044 10.1983
Au 8.69456 10.6623 14.1844
Au 7.95059 12.6432 15.9914
Au 10.1649 10.9291 16.6361
Au 10.2747 12.8824 14.2908
Au 7.69771 10.9369 18.2064
Au 7.04738 12.8311 20.1231
Au 9.44665 11.6159 20.9671
Pd 9.58639 12.9347 18.4359
Au 7.08133 11.8718 22.7295
Au 7.04328 13.7929 24.8552
Pd 9.37794 12.3497 25.5202
Au 9.30881 13.6117 23.0436
Au 7.29559 12.7526 27.4033
Au 7.52321 14.6075 29.564
Au 11.5317 13.92 29.7383
Au 9.56754 14.3068 27.6267
Au 9.43419 14.0756 31.592
Pd 11.6976 15.108 35.5825
Au 13.5427 13.0071 35.2074
Au 11.7327 15.8806 31.7745
Au 11.5106 15.4494 3.64155
Au 12.3225 17.9097 4.46371
Au 7.52595 14.8201 7.37188
Au 8.11505 17.2975 8.4219
Au 10.2782 15.5159 8.36989
Au 10.2376 17.6891 6.47306
Pd 8.25672 15.1683 10.2998
Au 7.9106 16.9675 12.342
Au 10.1861 14.9384 12.2787
Au 10.0886 17.2552 10.5289
Au 7.99733 14.68 14.0381
Au 7.51522 16.619 16.0968
Au 9.77798 14.7587 16.3143
Au 9.82621 16.8576 14.3866
Au 7.33004 14.5206 17.9252
Au 6.87312 16.3239 19.9421
Au 9.13223 14.7207 20.442
Au 9.32064 16.5804 18.3446
Au 6.8069 14.7454 22.2418
Au 6.75704 16.6296 24.4308
Au 9.30831 15.5122 25.1549
Au 8.9709 16.559 22.5615
Pd 7.10727 15.6368 27.0098
Pd 7.25657 17.4348 29.1971
Au 9.75114 16.2772 29.7956
Au 9.33196 17.4061 27.2712
Au 7.76424 16.3856 31.8543
Au 7.86366 20.7624 33.6853
Pd 12.0601 17.6326 33.9805
Au 10.0688 18.121 32.0101
Au 9.42956 22.3419 4.28444
Au 10.4492 19.8706 4.61811
Pd 8.20942 19.5163 6.76063
Au 7.96923 21.2639 8.75537
Pd 10.0899 19.3826 8.7217
Au 11.8882 23.6778 7.08489
Pd 7.93903 19.1123 10.5417
Au 7.62742 20.9441 12.6032
Pd 9.82299 19.0574 12.615
Au 9.85128 21.1943 10.8116
Au 7.57371 18.8272 14.3928
Pd 7.2908 20.6667 16.4807
Au 9.45522 18.7212 16.5051
Au 9.52484 20.8903 14.7029
Au 7.12084 18.4951 18.1957
Au 6.84357 20.312 20.3345
Au 8.99791 18.367 20.398
Au 9.14057 20.5554 18.6181
Au 6.62147 18.0706 22.0331
Au 6.4762 19.8139 24.1434
Au 8.90068 18.4658 24.6854
Au 8.77159 20.1624 22.4273
Au 6.78165 18.4661 26.6242
Pd 6.92177 20.2109 28.8171
Au 9.41764 19.2323 29.4722
Au 8.93167 20.3275 26.8814
Au 7.39408 19.1415 31.5068
Au 5.40265 21.5288 32.8953
Au 10.466 19.8382 34.2748
Au 9.72389 20.9147 31.7047
Au 6.73073 24.6621 5.60929
Au 11.2792 24.5348 4.5199
Au 7.23506 23.8939 8.14877
Au 6.9042 25.7232 10.2182
Pd 9.83905 23.3654 8.95708
Pd 9.03316 26.0093 8.41394
Au 7.65317 23.0834 10.8109
Pd 7.38433 24.9163 12.9172
Au 9.55582 23.0522 12.8912
Au 9.55549 25.2244 11.0447
Au 7.3504 22.8042 14.7179
Pd 7.11701 24.6436 16.8477
Au 9.2323 22.7327 16.8339
Au 9.26901 24.9116 15.0266
Au 7.00985 22.4888 18.6006
Au 6.81257 24.2946 20.7358
Pd 8.90621 22.3747 20.6992
Au 8.99834 24.5786 18.9527
Pd 6.67615 22.0918 22.4628
Au 6.55536 23.7904 24.6732
Au 8.62203 21.8553 24.5206
Au 8.73696 24.122 22.8229
Au 6.43242 21.472 26.3392
Pd 6.54001 23.0421 28.5686
Pd 9.0994 22.0624 29.0983
Au 8.58463 23.4449 26.7075
Pd 7.20538 21.8363 31.0198
Au 9.99509 22.5729 33.9249
Pd 7.41251 23.3984 33.3219
Pd 9.30387 23.681 31.3912
Pd 6.4366 26.5391 7.57626
Au 10.2871 28.8321 5.9894
Pd 8.23709 28.6278 7.87561
Au 5.85794 30.0488 11.7684
Pd 8.75115 27.9106 10.497
Au 10.1481 30.5899 8.13106
Au 6.61079 27.4849 12.329
Au 6.31904 29.359 14.4188
Au 9.28922 27.0536 13.1813
Pd 8.53996 29.636 12.6649
Au 7.10289 26.7877 15.0644
Au 6.79439 29.0334 17.164
Au 9.00525 26.8052 17.1496
Au 9.06418 28.9342 15.3506
Au 6.89412 26.5419 18.9527
Pd 6.78023 28.2434 21.2107
Au 8.8112 26.3732 21.099
Au 8.84799 28.6329 19.2814
Au 6.66069 26.0151 22.9517
Au 6.55474 27.5846 25.2397
Pd 8.62836 25.7538 25.0491
Pd 8.58074 28.0472 23.3541
Pd 6.56785 25.3519 26.9621
Pd 6.62266 26.8003 29.2961
Pd 8.66126 24.9504 28.9417
Au 8.58717 27.2919 27.3413
Au 6.69875 24.5262 30.8591
Au 8.78638 27.9917 33.4917
Au 9.42888 25.2989 33.6838
Au 10.6773 28.5621 31.5121
Au 8.31895 30.7852 6.22891
Au 8.50326 26.7689 5.82598
Au 8.11697 30.6968 10.1136
Pd 8.27476 33.6985 10.7117
Au 7.38491 32.0804 12.5728
Au 10.1851 32.7339 6.63952
Au 6.13828 34.3789 12.1854
Au 6.37292 33.6111 14.7964
Au 8.02575 31.4425 15.0369
Au 8.55559 34.3398 13.4741
Au 5.01629 31.4438 15.5145
Pd 6.76495 32.3589 17.3873
Au 9.01898 30.9303 17.5535
Au 8.91179 33.6137 16.2513
Au 6.90013 30.5721 19.5055
Au 6.84894 32.1333 21.7462
Au 8.65922 30.2668 21.6267
Au 8.69799 32.6551 19.6389
Au 6.50347 30.0019 23.5319
Au 4.52205 30.7122 28.0019
Au 8.39675 29.6568 25.6489
Au 8.36839 32.0292 24.0792
Au 6.48531 29.0296 27.6615
Au 8.18685 32.5284 30.5116
Pd 8.50377 28.8028 29.7135
Au 6.23211 32.718 28.5116
Au 8.68658 26.4802 31.239
Pd 10.748 29.9345 33.7224
Pd 11.4509 27.2335 33.8071
Au 10.2835 32.2297 32.3365
Au 12.2661 5.02302 6.47537
Au 13.2351 4.51906 9.11436
Au 13.7902 7.38331 6.25974
Au 12.4026 4.13093 13.9426
Au 14.2152 4.20253 11.7543
Au 11.5259 4.69106 18.5224
Au 13.4989 4.29121 16.4881
Pd 10.7927 5.65759 22.5862
Au 12.7803 4.93143 20.8751
Au 10.3694 5.7802 25.6627
Au 12.8198 5.52442 24.4231
Au 10.1617 5.94261 28.791
Au 12.4068 5.3856 27.3109
Au 12.6836 8.82336 33.8923
Au 14.6411 7.17394 30.9302
Au 12.0339 11.5548 3.4334
Au 15.5271 7.77188 4.07053
Au 13.2636 9.25574 4.16712
Au 13.4802 9.34235 8.2792
Au 14.7828 6.85478 8.84067
Au 15.2909 9.73658 6.04883
Au 12.9812 6.61847 10.9981
Pd 12.6118 8.82981 12.8857
Au 13.9091 6.38098 13.6027
Pd 14.5101 8.97386 10.8075
Au 12.0067 6.43914 15.7381
Au 11.7123 8.79131 17.489
Pd 13.3945 6.68458 18.1039
Au 13.626 8.63148 15.4607
Au 11.3769 7.12434 20.0475
Au 11.3327 9.54799 21.6302
Pd 12.9592 7.30293 22.2938
Au 13.3717 9.05013 19.7556
Au 10.9072 7.89218 24.0413
Au 11.0878 10.1116 25.721
Pd 12.9914 7.70366 26.0452
Au 13.1219 9.58146 23.9105
Au 10.5937 7.99959 27.2928
Au 13.3482 11.6972 29.7971
Pd 12.5614 7.38974 29.1196
Pd 13.125 9.76524 27.8466
Au 12.7015 9.23043 31.1588
Au 14.3424 10.3826 35.162
Pd 15.0384 9.2176 32.6922
Au 13.3013 11.3648 32.9013
Pd 11.8657 13.4287 5.33469
Au 14.6789 11.8284 4.16741
Pd 12.972 11.1868 6.21639
Pd 12.536 13.3733 8.16402
Pd 14.8978 11.6891 8.13807
Au 14.4734 13.7271 6.17675
Au 12.9681 11.3318 10.2844
Au 12.4503 13.1804 12.3851
Au 14.2839 11.0778 12.7276
Au 14.4887 13.5319 10.2945
Au 12.3016 11.0016 14.7207
Pd 11.9376 13.0143 16.6791
Au 13.5255 10.874 17.3169
Pd 14.082 13.1131 14.7238
Au 11.567 11.2067 19.219
Au 11.5078 13.4642 21.1601
Au 13.3756 11.3847 21.5591
Au 13.5159 13.1509 19.2175
Au 11.4362 11.8842 23.5473
Pd 11.5667 13.8937 25.6218
Au 13.3386 11.7279 25.7647
Pd 13.5149 13.5448 23.5425
Pd 13.5277 13.7241 27.745
Au 13.743 15.7724 29.7195
Au 13.7374 13.7479 31.625
Au 15.6486 15.5492 27.6247
Au 13.5725 15.3557 33.7801
Au 15.4542 14.9078 36.0973
Au 17.6175 16.7504 36.0709
Au 15.6208 16.921 34.143
Au 14.0776 20.0916 4.75407
Au 14.2154 15.8726 4.40357
Au 12.2752 15.794 6.39348
Au 12.1917 17.5542 8.60438
Au 14.2736 15.6108 8.3681
Au 14.1824 17.8414 6.54113
Au 12.2599 15.2676 10.3657
Au 11.9962 17.1242 12.5493
Pd 14.1366 15.2943 12.5422
Pd 14.0626 17.4198 10.6236
Au 12.0381 14.9917 14.5143
Au 11.6551 16.8468 16.6112
Au 13.7824 15.0238 16.8102
Au 13.831 17.0938 14.744
Pd 11.5128 14.8883 18.6597
Au 11.2185 16.6403 20.721
Pd 13.5431 15.269 21.262
Au 13.4756 16.8732 18.8677
Au 11.4805 15.4081 23.271
Au 11.4619 17.3962 25.3354
Au 13.6213 15.5942 25.5879
Au 13.5091 17.3105 23.3296
Au 11.7287 15.937 27.7157
Au 11.9431 18.0142 29.8877
Au 13.9825 17.6447 31.8671
Au 13.7842 17.7238 27.6797
Au 13.6676 16.9401 36.0865
Au 12.8683 19.4672 35.863
Au 15.7152 18.7435 36.2246
Pd 14.5467 19.4678 33.8266
Pd 12.0936 21.9784 4.95695
Au 15.8976 22.1859 5.00894
Au 12.1475 19.7368 6.74445
Au 11.924 21.483 8.92607
Pd 14.013 19.6258 8.8064
Pd 13.955 21.8296 6.97956
Pd 11.9711 19.3283 10.7631
Pd 11.7025 21.1434 12.8723
Au 13.8153 19.2479 12.8133
Pd 13.7832 21.4164 10.9932
Au 11.6939 18.9792 14.7019
Au 11.4045 20.8089 16.8488
Pd 13.5409 18.9284 16.88
Au 13.5637 21.0705 14.9834
Au 11.3282 18.6638 18.6914
Au 11.0706 20.507 20.7212
Au 13.2304 18.7198 20.8888
Pd 13.2835 20.7843 18.9562
Au 11.0375 18.5225 22.7567
Au 10.9847 20.4083 24.8588
Au 13.5293 19.3566 25.4071
Au 13.0883 20.5877 22.9132
Au 11.485 19.3174 27.4405
Au 11.6519 21.067 29.6476
Au 14.0644 19.7361 29.8967
Au 13.646 21.2303 27.55
Pd 12.2792 19.8391 32.1635
Au 12.6468 21.6297 34.2946
Au 15.0256 21.3091 35.8281
Pd 14.391 21.6159 32.0476
Au 13.1112 26.6191 4.81091
Pd 13.8858 24.0236 5.2078
Pd 11.0926 26.2857 6.58684
Pd 11.6734 25.477 9.21628
Au 13.751 23.5973 9.163
Pd 13.733 25.7694 7.34613
Pd 11.6855 23.3084 11.0472
Au 11.4357 25.1699 13.1562
Au 13.5584 23.2381 13.1288
Au 13.5349 25.4483 11.2971
Au 11.4322 22.9878 15.0003
Au 11.1687 24.8819 17.125
Au 13.3088 22.9437 17.1247
Au 13.3236 25.1482 15.2647
Au 11.1404 22.6745 18.9524
Pd 10.9303 24.4921 21.0327
Pd 13.081 22.6427 20.9988
Au 13.0806 24.8294 19.2219
Au 10.8844 22.2856 22.7515
Au 10.7613 23.931 24.8751
Pd 13.0588 22.372 25.0289
Au 12.9248 24.4076 23.0906
Au 11.0615 22.2131 27.074
Au 11.2109 23.9301 29.3324
Au 13.8318 22.991 29.707
Au 13.1568 24.1455 27.2086
Au 11.8923 22.7652 31.8607
Au 12.0691 24.454 34.0558
Au 14.7204 23.4586 34.1784
Au 13.9747 24.7396 31.8568
Au 14.9709 28.6364 5.11661
Pd 12.9368 28.3813 6.87202
Au 10.8863 28.0647 8.68309
Pd 10.7074 30.0381 10.7513
Pd 13.5342 27.6209 9.47542
Au 12.8262 30.3219 8.87718
Au 11.4066 27.3814 11.333
Au 11.1755 29.3646 13.4376
Au 13.3122 27.3651 13.4129
Au 13.3482 29.5229 11.5753
Au 11.198 27.088 15.2751
Au 10.989 28.9777 17.407
Au 13.0814 27.0833 17.3709
Au 13.0535 29.3451 15.481
Au 10.9516 26.7248 19.2452
Au 10.7317 28.4937 21.4495
Au 12.8596 26.6445 21.3399
Pd 12.7791 28.913 19.5299
Au 10.7337 26.2233 23.1982
Au 10.5894 27.8615 25.4267
Au 12.822 26.1349 25.2417
Au 12.6314 28.4251 23.5396
Au 10.7165 25.502 27.0508
Au 10.7006 27.0461 29.2613
Au 13.243 25.9313 29.3927
Pd 12.7533 27.8137 27.3735
Au 11.3251 25.6075 31.6157
Au 13.4505 29.1539 33.916
Au 14.0616 26.3605 34.0545
Au 13.2965 27.6482 31.6674
Au 7.99776 32.6294 8.21358
Au 12.1204 30.8229 6.1489
Au 10.4714 32.8438 9.53566
Au 13.0122 34.2862 12.8003
Au 12.6329 32.1563 11.0265
Au 12.5942 32.832 7.81936
Au 10.1582 31.9953 12.6051
Pd 10.9577 33.8051 14.4632
Au 12.9953 31.6394 13.7021
Au 15.3112 33.5606 13.8821
Au 10.8736 31.3366 15.5351
Au 10.9909 33.062 17.8694
Pd 12.7978 31.1171 17.6104
Au 13.1327 33.4013 15.9085
Au 10.7635 30.8331 19.6684
Pd 10.1734 32.4394 21.9744
Au 12.4095 30.781 21.8756
Au 12.3305 33.0168 20.324
Pd 10.3951 30.1372 23.7606
Au 10.1058 31.7645 26.2752
Au 10.509 29.4206 27.715
Au 11.5915 32.4738 24.3134
Au 8.25377 31.0721 28.1525
Au 8.02139 33.3611 26.6385
Au 12.67 29.4347 29.5618
Au 9.94524 33.2518 28.6319
Au 10.3774 30.9155 30.0343
Pd 12.5782 30.7522 31.9223
Au 15.6372 30.7746 34.1001
Au 12.0373 33.0196 30.4908
Pd 14.0118 5.53724 4.416
Pd 15.9588 4.43381 9.51494
Au 14.9558 4.85974 6.90088
Pd 15.2854 4.16461 14.3254
Au 17.01 4.07543 12.082
Pd 14.6055 4.455 18.9353
Pd 16.3579 4.09798 16.86
Pd 14.8232 5.11033 22.5902
Pd 16.7101 4.68846 20.6062
Au 14.9254 5.53019 26.2663
Au 16.9172 5.119 24.3394
Au 14.4864 5.29035 29.0127
Pd 17.0619 5.59082 28.101
Au 16.5646 5.29095 30.7734
Au 17.6891 9.73639 31.8677
Pd 16.984 10.1881 3.96225
Au 18.2 7.61892 4.36899
Pd 16.5268 7.23263 6.63775
Au 16.33 9.2364 8.61899
Au 17.5654 6.6603 9.16673
Au 18.1112 9.5487 6.36618
Au 15.7855 6.45923 11.4155
Au 15.5385 8.60531 13.3565
Au 17.0335 6.29001 13.8677
Au 17.3915 8.71734 11.1675
Au 15.2496 6.41186 16.0384
Au 15.3245 8.72293 17.7273
Pd 16.5688 6.34841 18.4536
Au 17.2008 8.56038 15.6357
Pd 14.8106 6.7674 20.4192
Au 15.037 9.13796 22.0032
Au 16.8963 6.87492 22.221
Au 16.8459 8.69782 20.0482
Pd 14.9754 7.31894 24.169
Au 15.1391 9.50373 25.8982
Au 17.0704 7.31502 26.0102
Au 17.0917 9.18313 23.8922
Pd 15.0972 7.69558 28.0266
Au 15.2783 9.72208 29.9313
Au 17.2565 7.70697 29.9408
Au 17.2856 9.49102 27.8132
Au 16.8903 7.25014 32.6595
Au 16.1718 12.1442 35.7335
Au 16.9285 9.63888 34.5062
Au 15.8259 11.7519 31.9278
Au 16.3901 14.1394 4.17476
Au 18.6029 12.4709 3.88286
Au 16.7944 12.0593 5.97944
Au 16.5084 13.8696 8.18622
Au 17.9893 11.5122 8.44897
Pd 18.4395 14.2357 6.05339
Au 16.1487 11.2654 10.6103
Au 16.0525 13.2756 12.6608
Au 17.2783 10.759 13.1911
Au 17.9736 13.4755 10.565
Au 15.4239 10.7331 15.3026
Au 15.4426 12.8892 17.2447
Au 17.2884 10.7767 17.4622
Au 17.2896 12.8173 15.211
Au 15.355 11.0165 19.5404
Au 15.3977 13.2071 21.4572
Pd 17.1087 11.0304 21.7382
Pd 17.3155 12.9595 19.3814
Pd 15.2382 11.3796 23.7452
Pd 15.4494 13.4864 25.6563
Au 17.3029 11.3487 25.6945
Au 17.3221 13.1983 23.5563
Au 15.3548 11.5803 27.7733
Au 15.9326 15.7149 31.6182
Au 15.6764 13.6133 29.6866
Au 17.5606 13.4404 27.5914
Au 15.9181 13.8424 33.6744
Pd 17.5398 18.6786 33.9997
Pd 18.0594 14.0926 35.5007
Au 18.1062 15.8262 33.4924
Au 16.0614 18.169 4.54897
Au 18.1365 16.3928 4.29349
Au 16.2541 15.9727 6.30735
Pd 16.0625 17.7492 8.59771
Pd 18.1788 15.9713 8.37437
Pd 18.019 18.1221 6.53724
Au 16.1901 15.6173 10.4858
Au 15.917 17.3505 12.7586
Au 17.9243 15.358 12.7267
Au 17.9598 17.6533 10.7051
Au 15.8726 15.1849 14.7968
Pd 15.6361 17.0557 16.9555
Au 17.3737 14.9224 17.2093
Au 17.7268 17.2083 14.9574
Au 15.4868 15.0685 19.2118
Au 15.4939 17.1663 21.2408
Au 17.396 15.1005 21.3378
Pd 17.4302 17.0312 19.2031
Au 15.5031 15.341 23.4544
Au 15.6305 17.4454 25.4952
Au 17.5421 15.3288 25.4849
Au 17.5304 17.2268 23.3378
Pd 15.8846 17.6038 29.6094
Au 18.0104 19.4512 29.377
Pd 18.0993 17.6005 31.4196
Au 17.7664 17.4096 27.4403
Au 16.2172 19.5015 31.6457
Au 17.7861 20.5803 36.0524
Au 19.6749 18.5806 35.8546
Au 19.4534 20.4717 33.7709
Au 17.821 24.2205 5.2546
Au 17.9205 20.3366 4.79832
Au 15.9742 19.9641 6.76355
Au 15.8261 21.7202 9.04633
Au 17.8854 19.8356 8.8507
Au 17.8443 22.0642 7.02375
Au 15.8595 19.5227 10.8728
Pd 15.6625 21.3354 13.0905
Au 17.7472 19.4266 13.017
Au 17.7435 21.6067 11.1741
Au 15.6645 19.1689 14.9819
Au 15.4278 21.0379 17.1193
Au 17.519 19.0848 17.1238
Au 17.5406 21.2712 15.2301
Au 15.4102 18.9279 19.0178
Au 15.2383 20.8197 21.0432
Au 17.4739 19.0901 21.2225
Au 17.3626 21.0368 19.1942
Au 15.5132 19.2355 23.3168
Au 15.5839 21.2336 25.3959
Au 17.6775 19.299 25.3227
Pd 17.5213 21.1051 23.215
Au 15.8326 19.5164 27.5738
Pd 16.1136 21.4971 29.6718
Au 18.3284 21.4473 31.3351
Au 17.8559 21.3487 27.3485
Au 16.6826 21.3728 33.6465
Au 17.1764 23.2359 35.5761
Au 19.8093 22.4894 35.694
Au 18.7773 23.3307 33.2777
Au 15.7388 26.0405 5.38137
Au 17.6742 28.0128 5.63921
Pd 15.7863 23.9018 7.21564
Au 15.6303 25.6916 9.41105
Au 17.7317 23.7904 9.33176
Au 17.6854 25.922 7.4451
Au 15.6511 23.5118 11.264
Au 15.4484 25.401 13.4047
Au 17.5621 23.4347 13.3811
Au 17.5851 25.606 11.538
Au 15.4475 23.2012 15.2505
Au 15.2087 25.1298 17.3573
Pd 17.3372 23.1922 17.3542
Au 17.339 25.3629 15.523
Au 15.2175 22.9438 19.1981
Pd 15.0217 24.8221 21.2643
Au 17.2103 22.9747 21.2324
Au 17.099 25.1556 19.4232
Au 15.126 22.6598 23.0747
Au 15.0898 24.459 25.1654
Au 17.5814 23.0991 25.2126
Au 17.0838 24.916 23.2299
Pd 15.7192 23.1124 27.5004
Pd 15.8325 24.9465 29.5457
Pd 18.0848 23.3538 29.3422
Au 17.6265 25.0721 27.241
Pd 16.3893 23.4338 31.7578
Au 16.6921 25.304 33.846
Pd 19.1868 25.2084 35.0614
Au 18.3349 25.3179 31.3381
Pd 17.6139 29.7887 7.70116
Pd 19.8567 29.7253 5.94496
Au 15.6064 27.8534 7.57414
Au 15.4759 29.7564 9.63388
Au 17.579 27.733 9.65048
Au 17.0183 32.3831 7.3775
Au 15.4596 27.5755 11.5419
Au 15.2245 29.5544 13.633
Au 17.3639 27.5381 13.6644
Au 17.4131 29.6179 11.776
Au 15.1974 27.3661 15.4995
Au 14.9023 29.3159 17.5915
Au 17.0596 27.371 17.5884
Au 17.0927 29.5525 15.7188
Au 14.9374 27.0649 19.4522
Au 14.6341 28.9127 21.5959
Au 16.8525 27.1375 21.4814
Au 16.7294 29.3811 19.6367
Au 14.8533 26.6634 23.3767
Pd 14.6835 28.4723 25.4646
Au 17.009 26.842 25.2512
Pd 16.607 29.0424 23.5578
Au 15.1023 26.3192 27.2338
Au 15.0721 28.1232 29.3335
Au 17.6561 27.0185 29.2508
Pd 16.8772 28.7166 27.2537
Au 15.9507 26.7635 31.6224
Au 16.0499 28.1739 33.9107
Pd 18.5604 27.191 33.3053
Au 17.7656 28.9344 31.3597
Au 14.8674 30.6104 7.01385
Au 19.7218 31.6703 7.79232
Au 14.8964 32.5493 9.13767
Pd 12.7223 34.5116 9.94312
Au 17.5368 31.6373 9.87525
Au 15.1086 34.3898 11.1471
Au 15.3125 31.6976 11.78
Pd 17.7295 34.0998 14.9266
Pd 17.2472 31.5778 13.7817
Pd 17.524 33.5571 11.9551
Au 15.0037 31.4714 15.6884
Pd 14.1706 33.3193 18.4292
Pd 16.6484 31.6179 17.7906
Au 15.8522 33.9796 16.616
Au 14.4469 31.1005 19.8259
Au 13.4623 33.2373 22.8557
Au 14.3478 30.7575 23.7288
Pd 15.151 33.4775 21.0029
Au 12.4101 30.1476 25.7269
Au 12.2642 31.8669 27.9606
Au 16.321 30.9181 25.5934
Pd 13.9955 32.4367 25.7904
Pd 14.4934 30.2017 27.54
Au 14.2913 31.7553 29.7582
Au 16.7077 30.5118 29.3671
Pd 16.0243 32.5971 27.6896
Pd 15.1467 29.7395 31.6293
Au 14.7289 32.4154 32.2537
Au 18.2026 29.7334 34.0882
Au 16.5838 33.1554 30.3187
Au 16.6567 5.34796 4.74047
Au 18.6992 4.19594 9.79273
Au 17.6468 4.6828 7.22329
Au 18.0542 3.84992 14.6336
Au 19.7501 3.81761 12.3258
Au 18.5272 4.30174 18.5259
Au 20.253 4.07081 16.2611
Pd 18.8564 4.8132 22.3
Pd 20.7412 4.52857 20.164
Au 19.0553 5.174 26.1323
Au 21.0156 4.85704 24.0567
Au 19.1336 5.64535 29.9616
Au 21.0969 5.31336 27.9844
Au 19.7122 9.71164 33.7255
Au 19.4777 7.5732 31.883
Au 19.7759 9.93943 4.13393
Au 20.9005 7.30866 4.58081
Pd 19.2462 6.98552 6.90452
Au 19.1836 8.92969 8.90839
Pd 20.3762 6.42409 9.40983
Au 20.907 9.23119 6.57857
Pd 18.7159 6.30081 11.6489
Pd 18.919 8.50419 13.4846
Au 19.8913 5.9318 14.1536
Au 20.5559 8.52475 11.2971
Au 18.2535 6.04825 16.3726
Pd 18.5847 8.36826 18.0475
Au 20.5165 6.24479 18.0309
Au 20.2303 8.20021 15.9453
Au 18.7477 6.50474 20.1639
Au 18.9775 8.80968 21.8642
Au 20.9483 6.59789 21.9169
Au 20.8083 8.49823 19.7804
Au 19.0389 6.93413 24.0104
Au 19.2272 9.19555 25.7565
Au 21.1683 7.0166 25.8402
Au 21.1332 8.86044 23.6729
Au 19.231 7.3517 27.8763
Au 17.588 11.5545 29.7146
Au 19.4956 9.45108 29.7346
Pd 21.3353 9.19508 27.6532
Pd 19.7638 11.6391 31.6297
Au 18.0752 11.9288 33.8049
Au 21.7579 11.6472 33.5531
Au 21.8235 13.5523 31.4487
Au 20.2852 14.6771 3.9577
Au 21.4677 12.1785 4.05327
Pd 19.7706 11.8105 6.24485
Au 19.7748 13.7314 8.41414
Au 20.8553 11.1397 8.7402
Au 21.565 13.9892 6.24254
Au 19.0926 10.9017 11.0145
Au 19.1372 12.8635 13.141
Au 20.8811 10.6879 13.1972
Au 20.8657 13.0553 10.9582
Au 19.1455 10.7018 15.3432
Pd 19.2161 12.794 17.3021
Au 20.6539 10.4651 17.6923
Pd 21.0769 12.7494 15.191
Au 18.9034 10.7057 19.7199
Au 19.1833 12.9299 21.4826
Au 21.0697 10.7488 21.538
Au 21.0177 12.6888 19.4376
Pd 19.2024 11.0478 23.6192
Au 19.4328 13.1968 25.4792
Au 21.3191 11.0589 25.5004
Au 21.3061 12.9386 23.3528
Pd 19.4549 11.3301 27.6067
Au 17.831 15.5512 29.5212
Au 19.7103 13.4834 29.4965
Au 21.5546 13.2389 27.3638
Au 17.9168 13.6978 31.6475
Au 20.1854 15.9135 35.3251
Pd 20.0597 13.803 33.5526
Pd 20.0005 15.5897 31.4255
Au 19.9804 18.5527 4.53611
Au 22.0727 16.7768 4.20846
Au 20.1198 16.3472 6.2417
Au 19.9476 17.9864 8.63386
Au 21.67 15.8275 8.52137
Au 21.9535 18.3631 6.54639
Pd 19.8113 15.5948 10.6161
Au 19.7452 17.4138 12.879
Pd 20.9959 14.9614 13.0987
Au 21.677 17.6058 10.8146
Au 19.2478 14.8522 15.1979
Au 19.353 16.9403 17.2264
Au 21.1953 14.7457 17.2232
Au 21.1945 16.9377 15.209
Au 19.296 14.8954 19.2821
Au 19.4315 17.0149 21.2481
Pd 21.2863 14.8416 21.269
Au 21.3359 16.8363 19.2122
Au 19.4262 15.0936 23.3479
Au 19.6461 17.2134 25.2508
Au 21.5449 15.0956 25.2158
Pd 21.5158 16.9638 23.1232
Pd 19.6814 15.3376 27.3712
Au 20.2044 19.5138 31.1468
Pd 19.9434 17.4132 29.2842
Au 19.863 19.2853 27.1708
Au 20.1777 17.7163 33.285
Pd 21.6474 20.4615 35.4863
Au 22.2643 17.8134 35.0668
Au 22.2775 19.629 32.9829
Au 19.898 22.4179 5.11715
Au 21.9699 20.6347 4.9028
Au 19.8984 20.1994 6.81305
Au 19.795 21.8904 9.19375
Pd 21.8104 19.9618 8.98548
Au 21.8563 22.1968 7.22313
Au 19.8014 19.6838 11.0105
Au 19.6376 21.4796 13.3332
Pd 21.5708 19.4159 13.1786
Au 21.6757 21.6698 11.4138
Au 19.5843 19.2592 15.1624
Au 19.4234 21.1823 17.3251
Pd 21.3635 18.9713 17.2398
Pd 21.4329 21.2984 15.4716
Au 19.4271 19.0051 19.202
Au 19.485 21.0416 21.1626
Au 21.4824 18.9485 21.1477
Au 21.5042 20.9915 19.1685
Pd 19.5747 19.1062 23.1889
Au 19.709 21.1711 25.0972
Pd 21.7419 19.0545 24.967
Au 21.6264 21.0451 23.0413
Pd 20.0855 21.3795 29.0478
Au 20.4266 23.4627 30.9556
Au 22.2935 21.4926 30.7665
Au 21.9559 21.1405 26.7839
Pd 21.3539 22.238 33.3413
Au 21.735 24.351 35.0916
Au 23.5593 22.3749 35.0872
Au 23.0902 24.0556 32.6346
Au 19.8182 26.2035 5.53574
Pd 21.9191 24.3671 5.54363
Au 19.7924 24.0899 7.3508
Pd 19.6596 25.7681 9.65223
Au 21.7269 23.8634 9.59478
Au 21.8185 25.992 7.71295
Pd 19.648 23.6428 11.5036
Au 19.4662 25.5265 13.6807
Pd 21.5068 23.5004 13.7015
Au 21.5598 25.6256 11.8702
Au 19.4425 23.3781 15.5201
Au 19.2153 25.3839 17.6271
Au 21.2979 23.325 17.6127
Pd 21.2969 25.4906 15.8347
Au 19.2663 23.2086 19.4116
Au 19.1025 25.2691 21.4024
Au 21.5745 23.0487 21.0316
Pd 21.1485 25.4335 19.6543
Au 19.5097 23.0838 23.0416
Au 19.4934 25.1481 24.9225
Au 21.6868 23.1979 24.9095
Au 21.5258 25.1651 22.8529
Au 19.8047 23.2916 27.0352
Au 19.9466 25.4098 28.9785
Au 22.114 23.2985 28.5475
Au 21.6775 25.4028 26.7378
Au 20.7857 25.5539 32.7937
Pd 21.0208 28.142 33.6856
Au 23.1397 26.4456 34.0764
Pd 22.3768 25.4432 30.3036
Au 21.994 31.5148 6.15912
Au 21.9747 27.9772 5.82453
Au 19.6881 27.7997 7.73882
Au 19.5761 29.6769 9.79153
Au 21.6476 27.679 9.96438
Au 21.7871 29.6397 7.98974
Pd 19.493 27.643 11.7962
Pd 19.287 29.5988 13.8641
Au 21.3605 27.591 13.9888
Au 21.4934 29.5787 12.0332
Au 19.2202 27.5381 15.7849
Au 18.8711 29.6702 17.7977
Au 21.0218 27.6239 17.9369
Au 21.0896 29.6884 16.0411
Au 18.9234 27.4756 19.6588
Au 18.613 29.5281 21.6826
Au 20.9789 27.5771 21.5278
Pd 20.6335 29.821 19.9016
Au 18.9526 27.3212 23.3559
Au 18.752 29.2926 25.306
Pd 21.4236 27.2865 24.6881
Au 20.7757 29.6901 23.4368
Pd 19.4512 27.143 26.819
Au 19.3906 29.0839 28.714
Au 21.7697 27.5419 28.5982
Au 21.269 29.4035 26.5374
Au 20.1291 27.5722 30.9608
Au 20.0589 30.2224 32.2829
Pd 22.7177 27.737 31.6223
Pd 21.7332 29.8934 30.0944
Au 17.122 34.2359 9.35566
Au 21.9549 33.3274 8.12296
Pd 19.6632 33.424 9.78999
Au 19.5366 35.3178 11.6043
Pd 21.6862 31.4775 10.0087
Pd 21.6106 33.5766 11.6828
Au 19.491 31.5448 11.8289
Pd 19.7083 33.5358 13.534
Au 21.3289 31.5505 14.0001
Au 21.3495 35.6471 13.6157
Au 18.9982 31.6948 15.7788
Au 16.8723 33.9797 19.2103
Au 18.4558 31.7234 19.7606
Au 18.723 33.7638 17.4649
Au 16.3759 31.2304 21.7473
Pd 15.9907 33.0511 23.7859
Au 20.2714 31.945 21.8401
Au 17.9436 33.5846 21.7424
Au 18.2778 31.5383 23.7046
Au 17.9047 33.4007 25.7431
Au 20.5182 31.8267 25.2783
Au 19.8383 33.9533 23.7364
Au 18.4909 31.2252 27.258
Pd 18.5199 33.5951 28.5374
Au 21.1149 31.8199 28.0962
Au 20.3965 34.1546 26.6865
Au 17.4272 31.5309 32.2149
Pd 19.2125 31.4006 30.0184
Au 19.0889 33.5991 31.33
Au 20.9893 34.1461 29.5008
Au 19.3241 5.10462 5.01069
Au 21.4324 3.9064 10.0123
Au 20.3461 4.42276 7.48629
Au 21.9642 4.00453 13.93
Au 23.6641 4.05658 11.6155
Au 22.4625 4.25467 17.8662
Au 24.1869 4.16242 15.5195
Pd 22.9781 4.62176 21.8916
Au 24.6906 4.37901 19.3924
Au 23.0231 4.98149 26.0019
Au 24.912 4.6427 24.0139
Pd 21.3316 7.3343 29.8294
Pd 25.0588 5.21819 27.8153
Pd 21.6054 7.79276 33.5584
Au 23.3922 7.41636 31.6361
Au 22.5659 9.54761 4.33401
Pd 23.5875 7.00486 4.87612
Au 21.9865 6.71801 7.14511
Au 22.1913 8.70734 9.06217
Au 23.1883 6.06531 9.65667
Pd 23.8063 8.90624 6.78168
Au 21.5466 5.93349 11.9176
Au 21.8422 8.12212 13.7721
Au 23.8728 6.08742 13.5149
Au 23.4732 8.17192 11.5679
Au 22.1803 6.10378 15.7744
Au 22.5401 8.33145 17.628
Au 24.435 6.2532 17.3879
Au 24.1887 8.25284 15.3718
Au 22.7786 6.35483 19.7376
Au 23.0187 8.54289 21.5531
Au 25.0099 6.38244 21.5351
Au 24.8042 8.34592 19.3798
Au 23.0875 6.68842 23.7363
Au 23.2313 8.9223 25.5719
Pd 25.0622 6.86455 25.7064
Au 25.1443 8.6208 23.4205
Pd 23.1774 7.10814 27.7902
Au 21.5656 11.3962 29.495
Au 23.3736 9.23867 29.5591
Au 25.2459 8.97975 27.5253
Au 21.5511 9.54261 31.6253
Pd 23.8545 13.548 33.2792
Au 23.5872 9.60525 33.5336
Au 23.6084 11.4678 31.4748
Pd 23.3119 14.3429 4.17781
Au 24.2867 11.7184 4.21022
Au 22.6247 11.3954 6.4479
Au 22.651 13.2286 8.76103
Au 24.1723 10.9077 8.76428
Au 24.4443 13.4659 6.51463
Au 22.5292 10.7929 10.9858
Au 22.7793 12.8443 12.9991
Au 23.8877 10.3009 13.4303
Au 24.5243 12.9113 10.8219
Pd 22.2853 10.3127 15.5926
Pd 22.7495 12.4631 17.3905
Au 24.5842 10.3595 17.2792
Au 24.3737 12.3902 15.2445
Pd 22.8837 10.501 19.4539
Au 23.1744 12.6832 21.2673
Au 25.0875 10.4902 21.2604
Au 24.9822 12.4419 19.1681
Au 23.2281 10.7675 23.3839
Au 23.4346 12.9514 25.2181
Pd 25.3167 10.823 25.2772
Au 25.3416 12.6468 23.1133
Au 23.4147 11.114 27.3886
Au 21.8122 15.3672 29.2786
Pd 23.649 13.3053 29.3068
Au 23.6694 15.1134 27.1239
Pd 23.9278 15.4047 31.197
Pd 22.1162 15.6583 33.3209
Au 25.9421 15.4016 33.0897
Au 26.0141 17.3009 30.9604
Au 23.9439 18.7711 4.59961
Pd 25.2664 16.4376 4.37762
Au 23.5231 16.0931 6.39617
Au 23.6066 17.8365 8.74604
Au 24.5721 15.2126 8.88614
Pd 25.4877 18.0728 6.69893
Pd 22.7753 15.0683 11.0142
Au 22.9914 16.9702 13.1767
Pd 24.7527 14.7989 12.9683
Au 24.8097 17.025 11.153
Pd 22.9648 14.7656 15.0908
Au 23.1997 16.7314 17.1766
Au 24.8781 14.4153 17.1013
Au 25.0294 16.6683 15.1008
Pd 23.1289 14.594 19.2169
Au 23.4155 16.6736 21.0522
Pd 25.3377 14.5027 21.0344
Au 25.3252 16.3937 18.9906
Pd 23.42 14.8079 23.1002
Au 23.6543 16.9538 24.9422
Au 25.5566 14.8102 24.9594
Au 25.6061 16.6178 22.8372
Au 21.7845 17.216 27.1045
Au 22.0425 19.3159 28.9729
Au 23.9275 17.2385 29.0011
Au 25.7871 16.9763 26.8352
Au 22.0987 17.4431 31.1871
Au 24.3379 19.8014 34.7423
Au 24.23 17.5325 33.126
Au 24.1992 19.3723 30.8892
Au 23.9975 22.5753 5.40397
Pd 25.88 20.6439 5.16862
Au 23.8551 20.2851 6.99782
Au 23.7283 21.8529 9.46564
Pd 25.5018 19.7238 9.16551
Pd 25.825 22.0933 7.58608