1687
Atoms. Timestep: 21311
Au 21.0793 6.10653 13.7193
Au 9.67628 8.5954 13.544
Au 26.0323 5.67864 10.5202
Au 10.1034 6.07454 29.1491
Au 19.7812 3.86657 18.9428
Au 12.8991 19.2953 28.92
Au 14.1332 20.3203 26.7609
Pd 14.0485 9.71376 20.2445
Au 19.2297 5.98412 9.32465
Au 21.1981 9.62123 16.9177
Pd 11.0158 20.1356 30.7755
Au 25.5211 25.7637 27.6155
Au 4.05549 12.043 19.4321
Pd 29.5214 23.6224 18.0708
Au 10.1909 12.7871 4.9972
Au 1.57793 18.5938 20.6681
Au 25.6503 8.54395 31.4804
Pd 17.2375 4.4817 19.9947
Pd 17.3228 12.6614 31.0503
Pd 20.4933 8.30406 19.0984
Pd 11.6707 18.569 22.9344
Pd 19.2508 18.4946 18.6499
Au 15.0126 12.3827 20.448
Pd 13.0675 28.5205 9.96159
Au 13.6891 19.0493 17.6905
Au 5.15682 23.5946 29.9143
Au 9.24971 20.3267 19.2274
Au 17.3954 23.3005 3.697
Au 5.79329 17.0348 18.5831
Au 13.8657 9.77906 34.0801
Au 9.20181 15.2455 30.6125
Pd 9.80412 23.4144 21.9205
Au 15.4988 2.78636 18.6603
Au 14.7375 15.0057 34.5693
Au 9.21833 26.0141 24.0791
Au 9.28202 17.9669 4.96872
Au 5.16098 20.8298 29.8553
Au 4.38775 22.8223 11.9945
Au 17.7103 27.2337 9.49222
Au 12.8757 10.9007 22.4091
Au 9.84799 5.9982 14.8747
Au 5.32723 24.0152 20.6872
Au 6.97591 12.9009 15.016
Au 13.7467 10.0007 15.7249
Au 13.8563 6.80602 9.89153
Au 17.6694 12.9265 20.0757
Au 12.1243 25.3715 31.8849
Au 18.67 8.66365 34.1211
Au 20.1219 19.527 35.6019
Au 2.79944 14.1364 20.6666
Au 15.0901 35.508 22.1868
Au 3.59527 12.0156 22.2866
Pd 12.1454 15.4371 23.8385
Au 14.6067 16.4101 9.14143
Au 8.36076 14.2815 12.9636
Au 21.2202 20.2162 19.3378
Au 22.1653 18.1707 17.4506
Au 18.9428 21.7015 21.8859
Au 12.8616 26.6382 11.9959
Au 5.16179 16.877 21.2772
Au 27.8487 24.6587 33.4167
Au 12.314 11.9803 19.8765
Au 6.91306 27.0497 11.3484
Au 6.47041 28.3488 16.1738
Au 15.757 7.76027 21.5199
Au 20.0663 20.5061 26.474
Pd 10.9321 18.9065 17.6043
Au 4.29704 13.6209 14.6399
Pd 19.6863 25.3118 18.41
Au 16.1336 14.9694 15.0636
Pd 17.6088 23.2714 18.3498
Au 2.8998 24.2946 16.3775
Pd 12.3296 22.0508 28.9679
Au 10.1717 20.6755 4.01872
Au 7.99761 5.68342 19.9947
Au 6.0316 26.7632 13.9345
Au 12.4824 26.6872 29.3382
Au 6.30801 12.4794 20.9015
Au 10.0147 22.8585 19.2987
Au 9.07412 12.7248 29.2604
Au 20.3762 25.9859 26.2136
Au 17.5102 17.3283 22.8415
Au 11.4387 19.6034 15.0503
Au 11.5158 24.2358 12.2266
Au 15.2078 30.1768 17.6561
Au 7.68189 32.7874 16.3926
Au 13.4694 6.52443 16.7684
Au 12.3547 15.5348 7.7964
Au 20.9699 14.0108 16.3076
Pd 33.3913 18.5999 20.3969
Au 6.38522 26.7117 21.4613
Au 7.60538 24.6059 30.8649
Au 24.9438 26.5103 35.0807
Au 5.46633 9.85756 18.7475
Au 13.4071 26.273 20.3175
Au 7.20579 27.4781 31.4749
Au 10.4487 25.9183 26.5615
Au 10.9065 14.044 21.525
Pd 7.84717 10.0252 17.4244
Au 7.45771 22.3141 18.1501
Au 3.02489 16.4791 19.3489
Au 7.22428 5.8133 22.6684
Au 32.6384 29.8901 25.8345
Pd 24.1622 22.0009 30.4378
Au 8.03036 25.5655 28.3341
Au 8.37163 31.215 22.5184
Au 9.14434 18.1893 15.3921
Au 13.1664 35.4807 26.5164
Au 3.34784 23.619 25.5782
Au 21.3917 31.4707 14.9736
Au 9.72637 23.7606 32.6519
Pd 18.5451 28.2056 26.2712
Au 21.976 17.9898 2.78418
Au 15.5709 18.5808 7.68306
Pd 22.9374 9.33109 8.3882
Au 19.6729 11.238 26.702
Pd 17.2976 28.3513 6.8277
Au 11.8497 7.91726 8.40979
Pd 25.6635 18.2857 21.5632
Au 25.8661 6.51522 26.5085
Au 18.205 8.13834 7.83883
Au 20.9978 27.6124 28.373
Pd 21.1499 13.2326 28.2153
Au 23.5622 24.3142 32.5357
Au 9.80839 9.52385 25.7605
Au 8.00257 10.6479 27.7518
Au 5.88598 15.324 26.823
Au 22.5373 25.3274 3.23042
Au 17.0991 21.6718 10.3336
Au 13.186 14.4331 2.56469
Au 27.9778 27.2423 15.0294
Au 21.5731 16.5553 15.1334
Au 10.5983 28.8088 8.87959
Au 10.0903 25.2414 5.14599
Au 7.75706 22.8803 15.4531
Au 32.9595 22.1344 7.75303
Au 9.09102 12.5614 16.8111
Au 15.7938 19.4792 24.7397
Au 7.9813 10.3217 14.8363
Au 14.5165 4.38736 8.95951
Pd 23.3798 19.2854 20.7429
Au 23.1528 8.81646 32.4045
Au 9.10824 8.56265 8.54952
Pd 4.12922 18.9494 19.7391
Pd 12.3727 9.17053 17.8348
Au 18.4979 8.65188 21.0604
Au 9.36238 28.3267 33.1181
Pd 20.632 14.4082 30.9095
Au 26.6254 14.1822 34.4766
Pd 14.3426 12.2206 24.5675
Au 7.86306 10.0853 30.4527
Pd 19.8595 33.3656 13.4567
Au 17.0356 17.2151 29.8356
Au 7.48312 21.9464 20.8912
Au 7.89119 33.6187 23.7137
Pd 15.6981 24.9043 19.7018
Pd 12.9474 19.0636 20.3471
Au 18.024 7.72088 3.30592
Au 18.4833 27.0265 2.66481
Au 14.9516 12.6096 15.7371
Au 10.5539 19.8445 6.50052
Au 2.26951 18.874 17.8651
Au 8.46506 13.2563 7.62742
Pd 16.3345 1.72046 23.6637
Pd 22.9815 9.26404 23.0108
Pd 23.7934 27.2654 4.78218
Au 20.3504 14.9095 1.16806
Au 23.7994 19.0835 26.7289
Au 3.31583 14.0845 17.7741
Au 11.9226 7.78712 15.0351
Au 6.15234 18.2181 28.9708
Au 15.651 5.05672 15.2789
Au 9.69696 15.2495 6.07793
Au 7.76689 17.6446 20.6364
Pd 23.6344 14.5091 27.6135
Au 14.7465 5.20888 20.8564
Au 10.6703 5.66996 12.3527
Pd 9.23566 24.434 17.2486
Au 12.2198 3.56154 21.6474
Au 18.9438 11.3378 34.9025
Au 15.0543 5.2744 28.4571
Au 4.94559 8.23593 26.1504
Au 16.4843 15.514 27.4801
Au 20.6935 7.63592 32.5862
Pd 18.5193 26.4675 28.4165
Au 22.6939 23.1393 34.8223
Au 14.759 7.73779 14.5584
Au 14.0779 34.4527 28.9142
Au 22.2187 20.9031 2.89943
Au 5.65523 9.33239 15.9843
Au 16.9339 7.12781 16.3659
Au 12.762 5.16254 14.3729
Au 18.1553 24.5811 1.52433
Pd 9.81236 23.2889 27.6154
Au 10.3112 6.94792 26.4339
Au 6.08623 19.6044 21.7436
Au 15.9266 20.2236 12.4023
Au 4.87414 19.2277 17.033
Au 4.22172 28.7573 17.7606
Au 9.95604 15.8429 11.4329
Au 13.1398 9.55935 10.4381
Au 9.7322 16.6213 22.5241
Au 21.1812 7.89081 29.9289
Au 17.9387 2.10434 25.864
Au 22.2234 30.1708 27.8604
Au 15.2224 13.2641 12.9716
Au 28.8515 20.4016 34.7713
Au 4.76876 21.621 19.6359
Au 22.3325 10.13 25.9079
Pd 16.2336 13.0538 22.6758
Pd 12.3039 9.04674 27.4573
Au 4.94136 14.3649 22.3439
Au 8.87765 12.0112 25.1287
Au 11.8766 7.89026 30.1957
Au 31.0044 30.6021 23.2751
Pd 14.9604 12.3029 29.6645
Au 20.17 22.0561 34.4832
Au 15.348 32.8242 26.9588
Au 10.916 23.4168 3.46976
Pd 23.8695 16.1139 3.90422
Au 10.812 10.3703 15.55
Pd 11.429 27.8682 21.2457
Au 11.3292 25.9857 9.86323
Pd 9.42221 22.3623 30.293
Au 8.30202 18.7997 27.0967
Pd 11.6406 10.5173 5.7952
Au 9.21801 10.8208 6.8119
Au 12.5598 32.6987 23.0626
Pd 13.2656 10.3253 29.5616
Au 12.3471 9.71766 13.1385
Au 8.27503 32.4615 26.1775
Au 10.2225 10.7003 18.5596
Au 8.1739 8.86989 11.1112
Au 10.5078 16.2781 14.12
Au 13.1809 16.7052 32.9678
Au 20.6719 16.2878 33.0134
Au 6.19301 20.5149 27.225
Au 16.9455 23.0551 12.6944
Au 26.1934 21.089 35.353
Au 7.01818 17.2409 23.3321
Pd 19.3804 22.6932 11.3443
Au 7.92223 24.3027 25.8892
Au 10.7784 24.5761 29.6612
Au 5.89549 22.6122 25.4125
Au 13.361 20.4389 24.0369
Au 13.064 19.0985 34.4105
Au 26.0165 31.1016 31.7411
Au 5.8548 13.4011 12.3562
Au 11.3534 26.0448 16.5343
Au 13.5326 12.2622 6.25247
Au 0.767605 20.9061 21.9163
Pd 8.22293 25.2844 14.2775
Pd 16.6998 34.1213 20.1506
Au 5.25471 22.0038 22.841
Pd 9.99304 15.096 8.9213
Au 8.62929 21.3784 26.1084
Au 12.3785 35.5611 18.2088
Au 30.4114 29.9975 17.6684
Pd 17.0554 36.1523 24.2985
Au 17.4314 29.9699 16.1507
Au 4.94274 30.808 19.7639
Au 2.43832 14.1558 23.5273
Au 28.0232 21.3666 30.1293
Pd 18.1853 21.8184 1.51972
Au 10.3695 30.299 13.3421
Pd 3.24981 21.648 17.2843
Au 8.45667 17.7951 18.064
Au 9.62638 26.4075 31.2388
Au 12.1693 12.0817 17.0362
Au 18.2097 11.1122 22.2495
Pd 19.2979 22.0377 31.6982
Pd 11.8075 17.3132 9.9724
Au 26.0123 28.4945 31.0757
Pd 14.4365 21.7069 30.7935
Au 30.5977 22.1351 6.25208
Pd 11.1042 15.221 28.596
Pd 20.0384 29.778 17.2304
Pd 8.04882 13.6329 10.3592
Au 7.99183 33.9942 21.0422
Pd 25.0399 23.5889 15.8787
Au 12.8474 32.9646 25.8503
Pd 24.5479 29.5875 11.7134
Au 9.64587 4.59329 22.1255
Au 6.00307 18.0424 9.37852
Au 17.8592 18.6471 5.92904
Au 14.9073 23.5473 10.0335
Pd 13.4686 13.5843 22.3498
Au 10.6937 26.1692 33.963
Au 17.4218 24.4289 10.094
Au 16.3489 30.1392 22.8603
Au 18.8512 32.545 8.66358
Au 4.63383 11.8168 16.5914
Pd 5.77804 6.4325 27.9313
Au 5.04884 22.7577 9.3817
Au 8.10623 6.59553 12.7369
Au 3.80729 19.4012 27.9861
Au 10.1472 21.5528 16.7229
Pd 12.0443 23.5421 17.3967
Pd 29.8267 26.3636 24.7952
Pd 18.5763 14.7835 3.41899
Pd 12.0463 31.7851 15.0307
Pd 13.9381 22.9225 25.5544
Au 9.59925 32.7217 14.4198
Au 5.55877 20.4156 7.90893
Au 24.1151 35.2882 22.9176
Au 10.5865 17.8434 28.2874
Au 33.0372 19.977 26.6473
Au 12.8979 14.7778 30.907
Au 12.7875 28.4999 7.10869
Au 21.6636 35.3105 21.6256
Pd 12.967 7.13396 12.4603
Au 21.453 23.5774 7.25446
Au 19.0683 15.3817 14.868
Au 12.4375 24.322 27.4544
Au 15.113 27.6331 13.1755
Au 26.3113 22.7471 2.5986
Au 20.2566 19.0414 4.64178
Au 30.5881 25.283 10.8833
Pd 26.3277 26.5792 8.80938
Au 12.3265 33.2009 30.9368
Au 10.2986 23.6234 24.759
Au 22.2702 33.4575 8.77221
Au 19.3602 34.056 20.7432
Au 2.2093 21.8717 23.9432
Au 7.34685 24.4603 22.6841
Au 25.3903 18.3657 9.86573
Au 5.36815 21.4863 15.6317
Au 18.9057 2.46432 15.6261
Au 11.5667 25.3924 22.3256
Au 16.2824 28.7849 31.0638
Au 12.0513 30.4104 24.6759
Pd 19.6856 36.5027 17.1717
Au 33.698 29.8178 23.1043
Au 2.64265 16.5818 22.156
Pd 29.2713 9.15356 25.561
Pd 14.4207 28.4502 28.9339
Au 10.2328 11.1426 21.4201
Au 27.7859 13.0605 5.11829
Au 24.6441 18.6036 12.4329
Au 14.3758 16.6062 6.19444
Au 16.3245 15.2254 20.695
Au 11.657 11.5196 34.1876
Au 15.9493 6.47334 24.3069
Au 22.759 13.3502 4.73841
Pd 14.9546 13.7359 32.2414
Au 13.8914 2.83461 23.8263
Au 17.3708 5.58843 26.8056
Au 28.0363 17.756 26.4356
Au 29.5547 20.5749 21.9701
Au 21.6708 4.87941 21.2225
Au 15.8914 14.7945 30.0265
Au 25.2781 3.7543 26.2733
Au 10.3046 10.6949 11.6225
Au 21.157 16.1462 9.38122
Au 19.2465 27.3225 5.34853
Au 7.99804 9.89735 22.7903
Au 17.2769 4.73682 7.83323
Au 23.543 16.7111 8.13666
Au 24.7296 20.783 1.70811
Pd 13.3903 14.8807 14.2673
Au 10.6875 11.5115 27.3201
Pd 31.7372 12.7208 23.1479
Au 6.8352 9.98778 25.3476
Au 24.6567 9.13043 20.5797
Pd 18.3906 4.34063 24.5244
Au 7.52002 7.43747 15.3477
Au 7.8221 10.4002 20.1195
Au 4.09116 16.6242 28.2394
Pd 21.6223 11.6191 23.6415
Au 34.7737 23.9484 29.7509
Au 14.6787 18.363 22.2678
Au 13.1793 4.48167 11.6232
Pd 8.07774 16.4589 25.6972
Au 10.8238 4.43145 26.8743
Au 20.0858 7.77088 5.24629
Au 22.4643 15.4348 18.3827
Pd 5.36731 11.1412 13.939
Pd 27.9644 14.1651 17.3798
Au 15.9597 25.1813 34.3536
Au 23.4818 13.8619 23.0352
Pd 16.0731 21.4037 17.0915
Au 14.7432 22.9924 35.1248
Pd 5.44852 20.4569 10.6843
Au 25.1331 29.4355 8.83839
Pd 18.7818 5.73481 12.061
Pd 6.55515 17.2819 16.0103
Pd 17.4045 20.4351 7.98017
Au 17.4499 35.5939 13.1252
Au 19.4486 8.06517 15.2749
Au 10.8366 8.0593 10.9614
Au 4.20798 10.223 24.3385
Au 6.86236 25.5702 16.5758
Au 19.3355 6.40552 17.5487
Pd 14.6815 31.4633 24.4963
Au 25.4197 18.624 16.6573
Pd 10.0709 17.3965 7.64024
Au 18.146 9.56354 5.18031
Au 2.11987 24.8813 23.5157
Au 27.9859 8.16255 21.4486
Au 13.8285 19.1529 2.38219
Au 27.685 13.8653 12.6128
Pd 13.8514 24.3872 29.8863
Au 29.2861 6.06851 17.4586
Pd 22.2867 7.68797 20.9022
Pd 11.6526 33.1166 18.7113
Au 22.5317 3.44472 27.0966
Au 31.9937 27.1419 31.6286
Au 10.663 10.6028 30.3531
Au 5.68054 26.1916 29.561
Au 14.9735 15.7102 22.9679
Au 17.0521 18.0855 20.3008
Au 21.9344 34.859 27.0567
Au 26.9476 23.3513 10.8356
Au 26.2107 33.7715 16.1012
Au 8.54485 12.8591 22.541
Au 21.7178 25.9895 8.66534
Au 14.3038 32.4381 13.504
Au 15.0154 29.7008 6.1714
Au 7.62748 11.3945 12.2232
Au 11.4698 8.86767 20.4595
Pd 11.1334 13.0086 7.44706
Pd 23.1234 16.1366 24.5755
Au 13.5692 30.1611 12.1432
Au 21.5608 26.058 5.86479
Au 8.24089 30.3576 15.1376
Au 6.56005 19.3128 14.2358
Pd 7.80592 24.4763 19.7759
Au 7.72064 12.7436 31.5481
Pd 2.86304 15.0928 26.3924
Au 14.4296 22.682 18.7916
Au 6.65737 12.4393 18.1446
Au 26.3181 7.06539 19.4877
Au 15.3176 21.9011 14.4464
Au 25.4842 23.7526 34.5933
Au 15.3657 25.1289 24.5109
Au 16.382 22.0337 32.7648
Au 20.648 19.1441 32.9405
Au 12.5284 16.4796 21.4048
Au 26.395 15.1551 27.9134
Au 11.6435 19.1006 26.0335
Au 24.6388 15.9002 35.4425
Pd 6.64779 19.7295 19.0757
Pd 10.996 13.9865 18.4607
Au 17.1566 21.2934 5.44192
Au 20.3891 23.521 16.4582
Au 10.8252 31.6662 26.9245
Pd 23.0515 22.992 23.4829
Pd 9.96165 21.4236 10.9555
Pd 9.04823 8.16244 19.1774
Pd 9.74368 8.225 16.606
Au 23.0643 30.4376 21.8632
Pd 10.9335 27.9964 18.411
Au 12.7407 25.1676 5.46227
Au 13.2295 21.3494 16.2343
Pd 19.3512 16.46 5.56153
Au 3.68774 16.6779 16.7524
Au 2.91634 23.8218 19.0454
Au 4.27766 17.7963 14.4295
Au 18.043 20.7877 19.4965
Pd 6.51839 28.6183 19.0665
Au 2.85411 26.465 18.4267
Au 18.2778 7.62833 31.2281
Au 17.4998 11.6362 28.3987
Au 31.2295 25.2072 22.4246
Au 5.24826 24.1591 14.6592
Au 8.0455 22.0685 23.5862
Au 4.12149 28.2829 20.4551
Au 20.6677 10.799 4.64502
Pd 20.7682 9.95063 21.6653
Au 15.7781 12.9409 26.9622
Au 14.9957 22.4299 28.2755
Pd 25.6494 7.15118 22.2487
Au 28.0098 14.7715 9.88289
Pd 15.2182 28.0932 8.36589
Pd 10.4557 19.4714 9.22188
Pd 19.069 24.6087 13.2108
Au 10.835 15.7772 3.53804
Pd 7.40548 22.3581 10.5495
Pd 9.13281 26.1979 21.3418
Au 10.3244 31.9441 29.637
Au 16.468 10.4336 34.7434
Au 14.2343 30.1501 15.1074
Au 10.9783 6.40727 23.7547
Au 10.4499 23.6894 14.938
Au 8.07298 17.2186 13.0497
Au 10.9929 28.7751 26.6025
Au 23.4862 27.2157 18.1633
Pd 21.0486 27.1507 16.931
Pd 15.434 30.5891 20.2823
Au 10.7602 26.3733 13.9058
Au 32.8767 25.6568 12.3123
Au 23.8783 16.9853 28.4452
Pd 32.0447 23.6393 28.8167
Au 27.6312 15.0047 2.98949
Au 5.81755 8.09079 23.4992
Au 6.52286 24.5235 12.1992
Au 20.9187 24.0499 32.6727
Au 11.7231 29.592 29.1727
Au 30.686 22.293 30.9552
Au 8.27078 17.6159 33.0239
Au 6.30861 33.0934 18.9375
Au 7.69675 7.26738 29.5848
Au 19.4931 6.19292 20.3032
Pd 18.9834 30.6541 13.9523
Au 13.3609 26.0542 8.16551
Pd 15.9367 25.5141 3.15518
Pd 24.5398 11.7642 8.49235
Au 7.51626 18.0797 7.14529
Au 14.0105 10.004 4.42261
Au 17.2687 16.2691 18.1758
Au 17.7692 26.6004 19.7139
Au 13.3782 29.1634 33.4384
Au 12.3311 30.8238 8.36324
Au 1.43446 16.3893 24.4876
Au 9.21682 29.3997 30.6824
Au 7.956 20.5017 6.1863
Au 17.4002 31.3086 30.7315
Au 5.21017 23.6499 17.5624
Au 12.8336 34.4749 20.9555
Pd 13.94 22.0978 12.0465
Au 13.7545 25.631 17.784
Au 16.2767 8.44288 32.9535
Au 13.8879 26.8389 22.9449
Au 16.776 33.9489 29.1606
Au 6.72485 16.468 30.9785
Au 1.71709 18.9638 23.615
Au 23.8556 27.4368 10.1575
Pd 19.0806 26.7374 23.8173
Au 27.6095 27.3022 34.3752
Au 6.55977 30.0155 26.6553
Au 10.5929 34.4851 25.6215
Au 4.33512 13.5049 28.0295
Au 27.1695 18.942 7.86227
Au 19.7293 18.772 16.0837
Au 15.2273 13.7058 10.2135
Au 6.88503 14.4619 24.2961
Au 9.89353 27.5193 28.7755
Au 17.9379 16.0136 0.823021
Au 6.22993 30.8224 17.3784
Pd 17.6036 20.2387 14.7826
Au 27.0271 15.6247 5.57661
Au 5.43169 26.1433 18.8841
Au 23.956 22.2976 7.50547
Au 19.0173 25.6941 15.6468
Pd 17.3106 33.8978 22.8417
Au 8.24864 27.6439 26.3111
Au 4.28143 27.4566 23.0912
Pd 12.6935 30.9237 17.5206
Au 16.833 25.7389 22.1914
Au 8.65552 29.5151 17.679
Pd 9.01945 28.4267 23.0093
Au 11.066 10.5437 8.78073
Au 17.6969 15.0379 12.6386
Au 11.2773 30.6859 10.765
Au 16.683 16.4766 4.48395
Au 23.0953 28.4822 34.9274
Au 14.7518 35.8673 19.403
Au 16.053 26.3251 29.5016
Au 28.4755 34.2964 17.597
Pd 14.4356 24.2695 22.0475
Au 28.5658 34.7351 20.1988
Au 24.4367 28.0068 22.6505
Pd 8.27469 15.2462 15.4916
Pd 23.6317 9.46396 29.7751
Au 28.4639 6.00269 14.8452
Pd 15.093 19.3997 15.4452
Au 14.4952 3.13389 13.7447
Pd 24.8087 3.51972 19.1857
Pd 15.405 5.41551 18.1177
Pd 21.7744 7.65449 24.9184
Pd 20.3555 7.42016 22.6817
Au 29.6872 6.53562 25.7277
Au 11.4262 3.81851 24.296
Au 32.9866 32.0469 24.4495
Pd 18.7259 13.8049 26.8175
Au 16.3097 4.12103 22.7121
Au 32.3931 9.52046 19.8444
Pd 27.0942 10.9693 8.01546
Au 14.9709 10.6159 13.4175
Pd 10.6417 12.8884 10.2108
Au 27.2112 23.424 19.4295
Au 17.1908 3.45265 13.3849
Au 17.2152 30.4796 4.87793
Au 22.3384 20.6781 5.75223
Au 12.8709 18.5502 7.82938
Au 12.988 4.34206 19.0093
Au 28.7002 18.2667 14.4352
Au 24.5918 8.1308 24.7398
Au 13.5726 9.85731 7.65527
Pd 14.9362 9.2921 24.8762
Au 13.433 14.547 19.7566
Pd 11.2308 24.0378 7.5147
Au 24.3245 20.7896 22.79
Au 17.5491 12.5024 14.4762
Au 13.3558 8.18062 22.6552
Pd 13.364 19.157 31.6465
Au 18.4626 14.5674 22.435
Au 28.8969 14.0265 27.1922
Au 16.802 20.066 22.1777
Pd 11.764 13.881 26.2663
Au 23.3497 18.6741 14.8929
Au 18.959 1.69687 23.3309
Au 24.9303 13.8921 32.3943
Au 22.2831 2.70578 19.7206
Au 7.19776 22.8227 28.4137
Au 22.6705 20.4592 34.8922
Au 16.4172 30.0919 26.2069
Au 29.4875 9.63436 8.68754
Au 17.5669 12.6369 11.4448
Au 27.9432 28.9133 17.1296
Au 23.9715 25.0383 13.7998
Au 12.8474 19.6927 4.98269
Pd 26.3446 23.872 7.95062
Au 31.282 10.0138 22.6485
Au 16.4251 9.93961 3.07208
Au 12.3897 22.376 5.4226
Au 22.4865 19.3871 0.591352
Au 12.6627 14.7469 10.4752
Au 9.3465 18.5188 24.5617
Au 27.8344 12.5782 15.0647
Au 5.87167 9.07295 28.6415
Au 31.8706 8.89097 15.5495
Au 20.8108 24.7326 23.8971
Pd 18.4986 14.5463 29.3474
Pd 30.1088 11.5161 24.8097
Pd 2.87369 19.8495 15.3819
Pd 19.0407 16.1264 20.2678
Au 18.9998 25.3969 7.79599
Au 19.6923 3.48547 8.38599
Au 18.0997 23.8279 23.6031
Au 4.36493 30.2146 22.7432
Au 28.9819 16.2467 12.2762
Au 26.8669 22.6578 26.5705
Au 18.0714 26.7009 34.774
Pd 27.5952 22.4649 21.8451
Pd 20.4233 22.1189 24.115
Au 23.6024 5.43111 15.0239
Au 26.1468 21.2662 8.77841
Au 13.6073 23.8574 3.18778
Au 5.25443 10.0342 21.5894
Pd 9.80192 15.8431 19.865
Pd 14.946 14.2435 4.68957
Pd 17.0858 7.18847 19.2265
Au 6.85955 24.8647 9.54549
Au 8.96499 6.31924 10.1652
Au 16.6933 10.1674 19.8275
Au 10.7465 26.7079 7.22947
Au 25.4562 28.9163 33.6822
Pd 15.305 10.0142 27.5309
Au 6.67322 12.7463 26.6634
Au 15.5973 14.0388 18.1542
Au 6.69967 7.92392 20.7868
Au 25.2785 29.0554 17.1971
Au 23.8605 24.5156 5.9604
Pd 6.76199 19.8474 24.4946
Au 15.6617 20.4065 35.0372
Au 32.3548 17.8772 24.8844
Au 24.0434 26.9002 7.36098
Au 18.7174 19.1886 28.6418
Pd 26.3328 33.9295 23.7785
Au 6.01994 11.7446 29.3399
Pd 22.6163 32.0347 25.8761
Au 21.9732 5.50784 18.5963
Au 12.4131 22.8814 23.198
Au 20.5105 27.5398 35.3904
Au 14.2319 28.6809 24.8703
Au 3.36385 20.3205 21.9191
Au 32.1889 19.995 6.03911
Au 29.9026 19.5223 7.31189
Au 33.0011 15.759 26.7597
Au 21.7898 23.2964 9.96149
Au 15.5687 19.5153 29.746
Au 25.7308 14.4505 15.0193
Au 10.9503 14.0175 15.5072
Pd 8.87946 12.9895 19.7664
Au 7.7055 20.1211 16.5973
Au 17.2993 25.5523 5.4508
Au 8.42746 26.7613 18.5888
Au 34.2766 27.6814 19.0249
Au 10.5507 28.1498 11.5527
Au 31.5691 27.8081 18.7395
Au 2.0316 21.0717 19.5715
Au 25.5761 15.6916 23.1238
Au 14.8097 26.8533 5.80536
Au 10.3914 35.2365 20.1235
Au 20.3505 17.5367 0.446546
Au 6.53023 8.80499 13.2301
Au 17.5721 10.1555 12.4969
Pd 9.15418 25.7692 11.7965
Au 8.19811 5.33736 27.4296
Pd 14.2469 17.0272 29.9581
Au 28.6266 15.4139 32.8646
Au 29.0434 12.4946 21.9667
Au 15.0762 32.7021 21.9753
Au 19.8199 9.69574 24.3548
Au 4.01652 20.5075 25.3822
Au 5.65368 17.9621 26.1708
Au 27.3127 10.479 5.41641
Au 8.44318 7.61048 24.3143
Pd 16.1646 16.8202 25.1336
Au 5.53036 18.0262 12.0337
Au 11.6893 32.6774 12.5328
Au 4.4285 15.9472 24.472
Au 13.467 32.4726 10.482
Au 27.0744 30.7104 12.2115
Au 15.6194 27.9945 21.1915
Au 9.62953 14.6255 24.3119
Au 26.3725 23.1049 5.35711
Au 21.5842 20.7741 16.6608
Pd 24.1493 24.8088 29.9957
Au 13.5791 33.4928 16.5409
Au 20.2728 33.4545 25.3183
Pd 18.2983 27.6956 17.2302
Au 24.6272 18.0754 1.48502
Au 11.357 12.5348 23.9165
Au 14.6587 2.48203 21.2384
Au 15.7198 27.7874 15.8375
Au 8.81765 19.6942 22.1443
Au 10.8587 34.2166 16.3086
Pd 14.3525 24.0285 32.5772
Pd 24.3336 14.2244 20.4292
Pd 10.4802 18.2926 20.3789
Au 20.0546 26.5942 32.8478
Pd 7.96273 31.2692 19.7481
Au 6.56448 29.4656 21.5899
Pd 14.0336 8.81386 31.6179
Au 24.592 29.0373 19.8941
Pd 21.762 15.5269 6.38431
Pd 12.5182 17.2195 15.7377
Au 25.2658 17.6404 6.05162
Au 18.0349 27.9342 14.3133
Au 23.6051 21.0856 13.1083
Au 24.8144 13.5708 12.373
Au 8.96957 33.6484 18.5297
Au 19.7293 30.2008 29.048
Au 10.2929 32.6607 21.0777
Au 29.8047 20.1656 4.31382
Au 13.78 30.1816 30.9446
Au 13.8805 23.4747 7.61089
Au 10.5416 20.9268 23.9749
Au 2.77997 23.0216 21.6043
Au 24.5818 32.933 21.5296
Au 17.5817 36.3247 21.4778
Au 8.96624 28.7659 20.402
Au 20.7505 34.1784 15.9812
Au 26.2749 16.6244 33.34
Pd 13.0446 31.9892 28.7362
Au 8.96754 18.1285 30.5169
Pd 17.5172 29.9861 9.11254
Au 19.7148 19.3185 23.8156
Au 21.4827 2.43056 22.5194
Au 21.6366 25.932 30.5411
Pd 15.3917 18.8718 4.74025
Au 32.2019 17.7327 28.8824
Au 17.267 15.7306 34.7456
Pd 23.5776 16.5433 21.6326
Au 19.9399 24.7356 35.1997
Au 27.8845 7.56113 9.65356
Au 26.1336 16.057 11.6048
Au 8.61217 17.6168 10.0146
Pd 14.9217 23.7726 16.3268
Au 21.1891 27.5771 3.37113
Au 25.4585 26.4152 16.1906
Au 15.8707 20.4638 1.30023
Pd 13.1933 28.1927 16.8301
Pd 10.3266 34.6586 22.8136
Pd 15.3586 20.1476 19.5752
Au 21.1106 29.0755 33.2994
Pd 15.7614 30.5976 32.8745
Pd 20.2622 30.2063 21.3704
Au 23.7461 20.9678 10.1536
Au 29.0933 31.8716 19.2138
Au 27.3132 36.2201 16.0682
Au 31.8626 21.1374 12.0213
Pd 14.3855 18.3568 10.9632
Au 7.13851 22.6314 7.73955
Au 32.7755 25.3769 19.9271
Au 8.09814 25.8218 33.3479
Pd 24.1506 31.6064 19.1773
Pd 25.0274 17.319 30.9187
Au 12.7374 35.2552 23.8426
Au 27.4981 12.9839 32.1433
Pd 22.6811 29.6824 16.7388
Pd 20.1901 26.1202 21.3318
Au 13.4308 31.8893 33.0025
Au 9.35029 10.881 32.7384
Au 18.1993 20.341 33.8298
Au 4.22194 20.2999 13.1165
Au 9.50055 8.19025 31.3654
Au 23.4143 5.65759 25.745
Au 22.1399 17.5327 30.9083
Au 19.9884 11.3088 11.4239
Au 22.6672 9.01654 11.3898
Au 15.3467 8.35901 11.7966
Pd 7.86026 20.3451 29.4842
Pd 18.01 10.5972 9.43488
Au 19.1447 3.87298 21.8555
Au 20.0025 8.44512 12.4818
Au 22.8547 7.49832 27.7544
Au 19.8708 1.58702 20.4161
Au 9.62869 13.3141 34.0324
Au 28.3237 21.6674 24.5473
Au 12.578 12.1882 3.72587
Au 19.4474 17.8674 13.6459
Pd 15.0735 26.2796 10.3908
Au 20.5417 12.7867 2.78703
Pd 19.4705 19.0151 21.2422
Au 26.0325 6.99663 14.068
Pd 16.8436 14.2379 24.8687
Pd 15.7432 8.74468 9.10748
Au 8.91274 4.888 24.8382
Au 25.553 7.47359 29.0355
Au 26.2295 21.6546 17.6545
Pd 18.7317 17.6911 8.35425
Au 18.3209 9.18305 17.6543
Au 19.5905 21.6091 3.93567
Au 9.05945 14.1947 26.988
Au 19.9385 16.2573 17.4434
Au 24.3531 2.84716 14.7808
Au 8.80211 20.3713 32.3124
Au 15.7085 6.63209 30.9698
Au 18.908 7.00721 24.9976
Au 6.15082 11.9207 23.5834
Au 34.4456 12.6269 13.7919
Au 28.0986 6.09443 27.943
Au 8.80621 5.79316 17.4267
Au 17.5124 23.9279 28.4375
Pd 19.0655 24.8223 30.6713
Pd 19.5477 17.1089 30.5797
Au 16.2492 9.74013 30.1633
Au 32.8643 11.1831 25.0039
Au 13.3787 11.8203 27.1309
Au 15.4628 5.65116 12.6322
Au 20.9135 15.6853 12.54
Pd 19.7288 24.9444 3.88917
Au 19.954 35.6198 11.9545
Au 21.49 28.9489 5.71086
Au 16.6004 28.0287 4.20397
Au 23.5006 23.1987 1.95466
Au 20.6655 23.1115 1.91665
Au 29.2896 34.5527 15.0949
Au 8.7727 26.8483 9.32579
Au 19.0256 16.629 27.6796
Pd 10.2794 16.1617 16.994
Au 14.9404 16.7479 16.8543
Pd 13.5691 30.1678 26.9465
Au 19.5481 22.1629 14.1779
Au 20.7635 1.84429 17.5494
Au 34.9892 14.9682 14.9694
Au 6.00766 32.3086 21.7245
Pd 16.0955 25.5754 7.87755
Au 28.5882 11.3291 27.0705
Au 34.6912 12.5922 16.4696
Au 19.1115 10.0849 2.57471
Pd 17.4573 22.6169 35.2176
Au 17.2698 1.94691 21.0277
Au 19.1309 12.618 24.3489
Au 4.69093 10.9004 26.9804
Au 21.1403 15.2601 26.3202
Au 24.0836 23.1537 27.9278
Pd 27.4937 8.63769 27.4173
Pd 12.4225 23.4954 20.394
Au 11.8548 6.16689 21.1078
Au 32.932 14.8813 13.2354
Au 20.832 3.95054 10.7925
Au 28.4248 18.0959 21.2342
Au 16.0983 33.1925 9.21414
Au 17.2961 17.4601 15.3981
Pd 17.3575 8.77887 23.6288
Au 20.1537 13.3878 5.59609
Pd 9.70439 21.9086 8.22307
Au 19.7275 5.46808 6.64632
Au 20.5649 25.7581 1.44107
Au 27.3964 17.6101 23.7606
Au 23.8956 16.156 13.4843
Au 11.1388 21.01 21.2992
Au 23.6135 19.1436 32.5546
Au 24.7981 26.2448 20.5193
Pd 24.3547 8.15678 15.8762
Au 17.9645 32.0085 27.8332
Au 23.7875 10.6061 17.0484
Au 5.92509 15.6476 13.8577
Au 23.5975 19.4689 29.6237
Pd 34.6002 16.3848 24.6314
Pd 21.892 31.5848 30.2796
Au 12.0549 12.7714 29.3181
Pd 26.4129 19.7954 25.5869
Au 16.6345 3.20309 27.8956
Au 12.2455 16.7618 18.6314
Pd 19.6958 31.7308 19.1341
Au 19.2895 3.69395 27.7603
Au 29.1173 17.8971 33.5974
Au 13.6377 26.0572 14.9323
Au 11.3226 13.9471 12.7106
Au 25.5299 25.434 23.1232
Au 20.5514 2.74956 25.348
Pd 29.0545 26.4732 17.6408
Au 24.6359 9.46258 13.532
Au 15.003 15.7752 11.8868
Au 21.7871 28.8913 30.6192
Pd 21.5356 20.7741 22.083
Au 28.7138 24.1759 6.39629
Au 12.8563 31.545 20.6059
Au 19.6744 10.59 14.2217
Pd 30.471 21.2108 26.1291
Pd 24.8718 11.7611 19.387
Au 19.5927 36.078 25.8217
Au 16.8444 9.82729 15.3234
Au 22.3798 12.966 25.765
Au 26.3198 25.7547 5.91648
Pd 16.4152 24.0521 30.9356
Au 19.4564 17.5723 10.9763
Pd 30.1177 32.6343 21.4843
Au 26.371 10.3726 29.1518
Pd 26.8467 30.3675 19.3431
Au 7.21143 28.3354 28.9418
Au 25.8421 11.6032 33.7855
Au 5.66487 14.7181 16.6628
Pd 16.4538 25.4215 14.4836
Au 21.3342 30.7353 23.9493
Au 25.9352 19.9937 30.9533
Au 15.7864 35.5748 27.0326
Au 11.2366 6.75327 18.4403
Pd 26.8848 20.3467 3.64333
Au 18.3375 28.3334 21.6516
Pd 22.3942 27.6573 20.6317
Au 26.4629 29.8629 14.7978
Au 32.2277 12.3789 12.3528
Pd 17.4595 13.4763 8.76084
Au 12.3565 21.22 8.03079
Pd 29.1178 29.1851 24.4459
Au 32.5002 23.4672 10.4239
Au 26.09 35.688 18.3883
Au 3.1413 22.4133 14.4627
Au 18.8792 29.5971 23.9057
Pd 29.7622 22.7062 10.8955
Au 30.302 16.1182 26.0467
Au 16.7472 25.5035 17.2244
Au 22.0694 21.5432 32.4119
Pd 25.9398 22.7991 23.8747
Au 13.571 17.6104 24.7448
Au 11.4929 27.7244 24.0965
Au 28.6451 32.5312 27.9274
Au 28.1769 22.9318 35.5076
Au 23.8547 35.1425 20.0905
Au 16.7989 18.9288 17.5847
Au 26.4488 29.6963 24.5587
Au 16.942 18.8251 10.1231
Au 16.9612 11.604 17.4961
Pd 21.0419 10.1425 31.3572
Au 26.1595 28.47 28.3161
Pd 26.8195 28.1526 21.1792
Au 18.5203 31.4427 11.3782
Au 31.8196 28.0245 24.0584
Au 14.6956 24.6832 12.585
Au 15.7295 23.1671 1.62982
Au 10.8597 29.3564 15.9366
Au 16.1153 34.4851 17.3731
Pd 26.28 17.3525 3.45765
Pd 26.1606 28.292 6.42703
Au 13.7084 21.3748 33.3231
Au 19.4216 14.9553 7.80163
Au 7.87158 15.0191 18.2344
Au 8.62337 24.8612 7.39434
Au 32.8801 16.5172 22.24
Au 28.4823 26.7575 7.18441
Au 26.4379 16.0956 20.3157
Au 34.5637 17.8501 27.0599
Au 17.6659 25.5566 25.9297
Pd 21.9183 32.2418 17.5746
Au 24.3886 24.4312 25.4867
Au 8.91106 30.19 28.0158
Pd 20.3332 12.6408 21.4615
Au 31.9818 30.251 15.3726
Pd 10.8981 30.2753 22.2409
Au 36.6509 25.8177 22.7722
Au 34.4452 24.1846 14.8991
Au 30.3028 31.4179 25.9047
Au 31.1525 25.736 27.2617
Au 29.5611 14.4763 30.572
Pd 5.32349 14.5869 19.5305
Pd 29.4702 22.7911 28.3512
Au 12.4508 20.2313 10.7507
Au 20.076 34.893 9.36814
Pd 18.0414 34.2851 15.4185
Au 35.7719 21.8776 14.925
Pd 10.1919 32.3179 24.1862
Pd 10.0495 31.715 16.9471
Au 18.2298 11.6599 6.82705
Pd 24.2851 30.1921 29.6652
Au 33.7826 30.0161 20.3754
Au 16.7544 31.6181 7.15151
Au 10.8885 25.4746 19.3581
Au 15.7222 27.9604 33.8337
Au 22.2367 18.3607 23.0101
Au 34.083 22.5706 17.0373
Au 4.2748 29.1159 25.2633
Pd 8.95543 23.1745 12.7001
Au 31.7286 28.1982 29.0268
Au 15.1322 34.2323 24.6091
Au 2.91198 17.8933 25.9898
Au 28.7355 23.7132 13.1181
Au 36.5895 14.5701 17.2142
Au 19.4929 35.4166 23.2451
Au 21.3474 20.8289 11.4516
Pd 22.7632 25.5386 27.684
Au 6.30481 31.4405 24.3579
Au 27.7791 17.8253 31.1901
Au 17.5775 18.4816 35.6817
Pd 25.0275 11.21 31.3206
Au 18.2044 24.1177 33.1938
Au 13.9165 21.3614 21.4592
Au 11.339 18.3869 3.13742
Au 20.0804 13.205 13.4238
Au 22.605 3.89259 12.9956
Au 17.4749 6.6582 5.72281
Au 33.5171 10.1177 17.3261
Au 27.1233 10.6903 20.4944
Au 9.49165 23.9835 9.87283
Pd 19.8378 25.381 10.5609
Au 22.2267 24.9538 19.4527
Au 16.4753 5.93321 10.1056
Au 28.8784 27.8427 28.9492
Pd 27.4869 27.218 23.5531
Pd 25.0137 14.1083 25.2994
Pd 13.7765 7.23121 19.4397
Au 10.4746 15.7833 32.9599
Au 17.9265 13.1991 1.43055
Pd 13.2148 14.6651 16.9493
Au 6.73031 7.53481 17.9784
Au 22.6177 17.8681 5.49685
Au 29.4519 11.5778 6.81678
Pd 12.5281 6.33709 27.9348
Au 18.0973 3.62959 10.5352
Au 36.908 16.9014 18.5128
Au 10.0127 6.10749 7.6624
Au 24.0284 3.55482 21.8411
Au 27.6058 8.49419 7.13044
Au 14.9455 14.1546 7.49676
Au 12.8553 7.5066 25.3035
Au 31.1834 21.0747 9.28819
Au 16.9721 20.7161 27.3047
Au 13.1727 16.9527 27.3667
Au 14.3662 12.3175 34.5219
Au 22.3067 13.8257 11.1554
Au 28.9216 17.3679 3.11096
Au 22.5066 11.4743 12.7281
Pd 30.8968 17.2065 20.5288
Au 24.1607 32.7577 30.8135
Pd 32.213 15.0761 24.2826
Au 26.4058 18.2376 28.6108
Au 30.6976 14.6481 21.5244
Au 20.9869 14.4306 23.7176
Au 32.5367 25.5015 24.8754
Pd 15.7083 18.139 27.4561
Au 30.2439 30.4105 28.5063
Au 31.5691 13.3177 26.2966
Pd 20.0484 19.8736 1.82509
Au 19.836 28.0297 7.95231
Au 32.3026 18.9727 13.8566
Au 33.2636 16.7233 9.47414
Au 26.505 12.571 10.3858
Au 23.5709 4.62354 10.6485
Au 20.2571 9.9351 7.2335
Au 21.3761 6.59081 10.8842
Au 15.459 11.005 10.7226
Au 13.6143 5.45896 23.3162
Pd 28.2512 11.1766 17.8428
Pd 6.36409 26.1569 24.7319
Au 29.9924 7.66794 23.3083
Au 17.0603 13.0326 33.8213
Pd 20.3987 9.12536 9.82542
Au 19.0136 17.3976 2.85759
Au 21.5925 14.8724 20.9921
Au 35.7719 15.2105 22.5173
Au 24.6018 5.68238 17.5466
Au 30.3484 13.6715 13.9433
Pd 17.1329 21.6672 29.9872
Au 22.4346 13.8372 8.32349
Au 30.0757 16.7596 23.2652
Au 21.3332 28.1069 23.0116
Pd 7.52122 15.0565 21.3427
Au 18.5295 5.35034 14.8327
Pd 13.0041 11.7388 31.8739
Pd 30.2231 26.3336 13.3619
Au 27.8915 30.2427 29.8961
Au 21.1644 28.5756 25.7531
Au 20.3116 22.6803 19.0413
Pd 21.9381 11.6449 15.3379
Au 17.9864 34.0498 10.9435
Au 11.4486 34.0761 28.1884
Au 28.4391 21.0385 12.7999
Pd 19.2142 30.3653 6.72175
Pd 22.4128 28.8305 8.27905
Au 22.401 11.584 6.77913
Pd 23.9619 20.1856 18.3531
Au 32.1113 17.5275 18.1757
Pd 19.6894 20.7873 6.65535
Au 12.5455 16.8963 12.5268
Au 34.1341 24.8024 27.2337
Au 15.7364 11.4671 8.05349
Pd 31.8766 12.0571 20.6005
Au 8.44281 28.0893 13.3859
Pd 15.5943 22.2566 23.5003
Au 20.8061 28.7392 14.7387
Pd 17.5746 23.2229 15.5756
Au 19.5524 21.9331 28.8155
Au 26.9709 33.5215 11.517
Au 32.0171 22.8251 18.8859
Au 23.1067 3.34181 17.0983
Au 27.2524 24.5775 16.9633
Au 21.9975 15.1338 35.4308
Au 31.7811 8.72997 25.081
Au 30.477 25.1346 32.6853
Au 29.7453 27.6326 22.1222
Au 19.3435 6.47148 28.55
Au 35.2392 24.7746 24.8248
Au 15.4615 7.66935 4.27693
Pd 36.0358 20.744 17.5271
Au 34.0957 10.1439 14.6458
Au 7.86239 19.7116 11.7374
Pd 31.2952 13.0554 8.59215