1687
Atoms. Timestep: 20902
Au 11.4404 6.32971 9.35168
Au 9.2385 10.3272 6.79612
Au 12.7999 12.3844 19.7023
Au 10.426 5.04817 22.8046
Au 13.2979 4.44258 18.2112
Au 14.0114 4.36695 25.9351
Au 2.35259 17.6151 23.5965
Pd 14.8407 9.82592 13.7689
Au 6.45047 11.5817 10.3366
Au 13.6488 7.74359 5.84923
Pd 10.7582 7.50177 14.426
Au 4.11603 9.63317 16.7888
Au 9.02726 12.6043 13.4108
Pd 4.80439 19.0113 11.7926
Au 14.0625 6.86256 17.1814
Au 8.92875 6.51368 16.2006
Au 14.8802 2.27869 24.5564
Pd 10.9496 7.45233 18.4628
Pd 7.16575 13.0775 28.5576
Pd 12.8291 12.1616 25.532
Pd 9.12291 22.0094 29.5003
Pd 13.6611 20.8175 32.0251
Au 5.58824 8.05369 19.0282
Pd 6.84075 16.185 13.3655
Au 7.13997 8.62813 9.86063
Au 8.99042 15.7195 11.4534
Au 4.302 10.1871 19.8102
Au 8.57195 5.22817 20.7774
Au 6.58206 7.99449 16.5523
Au 8.92273 8.916 25.2674
Au 6.06199 11.5752 24.9199
Pd 9.03052 17.7453 24.0984
Au 8.56937 6.90891 23.441
Au 7.7315 13.5071 25.9433
Au 11.4178 4.8144 13.9322
Au 19.6674 24.8589 25.7656
Au 10.4569 13.6935 18.8307
Au 8.2747 8.44366 14.3895
Au 4.43753 14.0228 10.8314
Au 4.62651 23.8698 14.2836
Au 7.1296 7.4288 21.3478
Au 6.42383 10.4097 17.8137
Au 3.84954 17.1441 15.7519
Au 4.99968 11.8613 15.5392
Au 9.61335 5.05824 18.2887
Au 6.46628 13.2207 17.4457
Au 6.90218 9.40771 23.4024
Au 7.06348 18.3096 26.3155
Au 2.89727 15.366 24.8551
Au 5.21394 14.6317 21.1118
Au 10.8659 25.6832 21.6893
Au 4.41589 28.0124 22.4273
Pd 9.40549 17.9764 9.91187
Au 3.03312 14.7362 19.1466
Au 4.08231 14.4331 16.424
Au 2.3873 22.1302 18.9043
Au 1.71045 15.7805 16.9094
Au 10.5646 22.8092 22.4142
Au 2.63405 12.6646 12.8141
Au 4.59243 21.9801 21.1348
Au 5.34913 30.4986 21.8082
Au 8.55655 23.0245 24.3639
Au 5.30849 25.1131 21.092
Au 11.9942 24.8723 31.1729
Au 9.45833 18.3817 32.6902
Au 5.93432 23.6042 23.2643
Pd 11.7798 25.4795 26.2779
Au 1.55721 17.152 14.105
Pd 8.37655 15.1603 17.4392
Au 9.28616 24.8008 17.1747
Pd 7.76559 20.107 16.2126
Au 2.29106 15.3353 11.9846
Pd 4.88311 17.2791 20.6109
Au 3.7376 27.3807 14.3072
Au 6.54321 18.4322 23.1497
Au 4.42653 17.8906 7.56081
Au 6.6573 28.2894 18.1245
Au 6.5429 32.8427 21.0353
Au 3.79433 12.1953 18.077
Au 3.75548 22.6713 16.6506
Au 10.5934 21.4107 25.1506
Au 7.98639 20.2638 24.609
Au 10.3302 24.5757 10.4998
Au 6.48338 22.8762 8.7588
Au 11.1602 23.5332 5.07227
Au 3.67763 25.4725 16.3167
Au 4.86452 21.584 12.7545
Au 1.25975 21.1503 16.474
Au 6.38021 26.07 16.4688
Pd 1.44081 18.4559 16.3658
Au 9.47746 29.8284 27.8683
Au 6.53771 29.0903 23.7561
Au 14.4721 34.1857 26.0391
Au 2.05435 20.8825 21.3517
Au 2.31546 24.8977 18.5802
Au 17.007 35.0687 25.5099
Au 11.7051 28.3989 18.4589
Au 5.13721 20.5822 7.99937
Pd 9.90201 22.7749 13.0109
Au 10.7763 20.0957 8.63976
Au 13.5753 31.1111 29.8879
Au 9.67928 24.2869 2.95452
Au 6.62142 27.6498 20.7915
Pd 12.9252 25.7484 5.57423
Au 13.8378 31.7056 27.0949
Au 2.9807 23.531 11.9683
Au 12.9076 32.439 21.7235
Au 16.0221 30.9974 17.6445
Au 24.6395 35.2366 25.9264
Au 29.6389 30.8974 28.6755
Au 22.4596 19.8799 25.9225
Pd 18.9364 31.9253 28.3759
Au 18.0027 16.5922 3.38606
Au 15.0419 2.63024 13.7333
Pd 11.3365 13.2541 14.8293
Au 13.5337 7.28969 14.5178
Pd 12.2288 9.39782 13.1965
Au 13.9349 5.15343 12.8242
Pd 15.3842 11.739 11.9117
Au 11.9655 9.25367 21.1522
Au 16.0876 4.73163 16.778
Au 4.67155 16.6791 26.4642
Pd 13.0093 4.00379 23.3926
Au 7.97478 10.9698 26.9416
Au 17.1917 1.75113 23.3191
Au 16.3924 17.4142 35.0263
Au 10.7945 13.9795 33.2057
Au 14.8179 20.3611 3.49846
Au 6.19682 16.1899 10.7795
Au 14.1014 8.98396 11.2504
Au 7.03794 13.8598 14.8866
Au 10.7111 4.56309 11.3322
Au 4.72758 12.6243 8.42396
Au 4.98659 9.90792 8.85835
Au 5.91656 18.6794 14.4574
Au 14.8713 9.33167 16.4495
Au 10.6565 11.118 11.7365
Au 13.7435 4.43338 15.4324
Au 7.70193 10.3146 12.3828
Au 12.6855 2.92927 12.2959
Pd 12.6193 6.5123 22.2203
Au 13.117 11.1783 15.5302
Au 13.0363 9.62378 18.6281
Pd 17.5968 7.12082 17.9624
Pd 14.0216 13.7942 14.6785
Au 11.2138 7.75051 26.5602
Au 9.591 9.05336 28.2109
Pd 10.315 13.3761 26.2673
Au 8.08155 12.0526 21.7076
Pd 11.4056 10.3551 23.7836
Au 8.79348 11.5312 24.2954
Pd 18.2889 4.93875 28.0327
Au 9.73686 24.6237 29.5569
Au 19.8456 14.3535 35.3782
Au 12.8488 19.9224 25.8759
Pd 9.66473 19.038 26.4949
Pd 9.80582 16.2352 26.3744
Au 13.5842 5.65768 7.68836
Au 5.61685 9.18523 14.2922
Au 5.32771 11.7604 12.8658
Au 9.21325 12.8305 16.3558
Au 15.0038 13.1865 9.41587
Au 3.61794 11.4021 10.6513
Pd 12.1308 15.814 13.8812
Pd 7.074 9.87485 20.4721
Pd 8.91626 10.5357 9.62684
Au 7.54158 10.9603 15.256
Au 9.73221 9.57374 19.6162
Au 15.6421 15.845 20.5756
Au 19.6098 11.6635 18.6653
Au 10.9389 15.4177 16.6217
Au 9.12135 9.2369 16.9553
Au 13.6111 16.0775 16.351
Au 18.4224 17.2732 23.6757
Pd 10.0089 15.4071 8.79806
Au 13.3761 11.8283 22.6711
Au 7.26938 15.7196 27.4108
Pd 9.27563 9.49789 22.3501
Au 11.0193 16.7453 22.377
Au 13.8542 9.08643 22.9601
Au 7.51689 18.0188 30.9635
Au 16.8558 5.12644 30.4053
Au 10.7269 11.7135 31.7989
Au 9.32304 14.9411 24.0478
Pd 15.9985 22.7688 28.3122
Au 5.46211 20.9944 23.6231
Au 9.3545 15.8673 31.6079
Au 7.1019 14.0106 9.22336
Au 9.44719 18.9227 2.44487
Au 3.26565 10.3137 13.9455
Au 9.34036 13.1207 10.4454
Au 8.50112 17.9806 14.6112
Au 12.0991 19.0539 10.7947
Pd 17.0438 18.5618 19.6704
Au 10.1991 20.1906 14.3326
Au 9.66315 24.0304 19.8608
Au 15.4877 22.5431 16.3258
Au 6.48372 16.3768 16.018
Au 7.22414 25.2735 19.0114
Au 7.53663 16.5314 8.28388
Au 12.9481 12.0234 12.9476
Au 3.90856 19.8036 19.5448
Au 3.73403 21.5605 25.8584
Au 12.6694 15.3016 19.1417
Au 5.89698 17.6341 28.7742
Au 11.0675 11.1893 17.5804
Au 8.65446 13.3035 30.994
Au 7.6387 16.0933 22.0459
Au 8.2191 24.6519 22.0529
Pd 4.51749 18.8833 25.027
Pd 4.06205 19.2058 22.2464
Au 11.3376 14.025 30.507
Au 11.4028 16.8422 30.1717
Au 6.91678 16.0605 24.794
Au 11.2931 31.9449 28.4372
Pd 17.2849 24.8018 33.0608
Au 4.37384 24.3834 25.5603
Au 12.9181 24.1948 9.57608
Au 3.68913 16.8672 10.1351
Pd 11.1278 13.9653 12.2282
Au 3.3374 19.5079 9.61952
Pd 6.17493 18.503 9.44001
Au 7.86069 25.0516 9.31697
Pd 4.17458 16.848 13.0561
Au 12.7855 20.3265 18.4325
Pd 3.39997 19.4447 14.1275
Au 5.05233 9.32415 11.5765
Au 9.67079 22.6705 8.67376
Pd 5.90042 12.3368 19.8902
Au 4.60811 14.3209 13.694
Au 3.66128 19.9052 16.817
Au 7.08941 15.4187 30.1164
Au 3.33594 12.6315 20.8341
Au 3.24174 22.7697 23.4627
Au 11.3253 22.771 17.9983
Au 6.34567 19.807 20.724
Au 12.0413 12.5992 28.1493
Au 3.9908 13.4397 23.3633
Au 9.09679 17.7043 17.2237
Au 11.7755 18.064 27.7308
Pd 11.9591 15.3145 27.8776
Au 2.10965 17.9614 20.8787
Au 11.0396 20.9641 27.8925
Au 5.48755 25.7165 27.6867
Au 13.8038 17.4858 34.1274
Au 5.56366 20.2569 27.3693
Au 11.5 26.6806 28.9021
Au 4.93224 15.3529 8.22651
Au 7.96112 20.0429 4.43359
Au 1.41669 23.8214 16.2731
Au 9.30375 26.9606 19.6321
Pd 8.79372 24.0903 6.60523
Pd 2.45378 20.8473 11.858
Au 2.4023 12.1957 15.6784
Pd 8.24985 25.1646 12.1339
Au 7.72416 14.344 19.905
Au 14.0684 26.1868 24.8389
Au 7.84179 30.3904 16.5841
Pd 2.5016 22.1095 14.2809
Au 4.10037 22.1922 9.98351
Au 8.51219 29.3696 8.09845
Au 10.7591 28.915 21.1382
Au 2.93915 26.5888 20.7378
Pd 9.17301 29.6561 18.8844
Au 3.89986 26.0128 11.9494
Pd 5.87232 21.2046 18.2052
Au 11.7568 27.331 23.6432
Au 11.6198 25.6446 18.5395
Au 5.84979 18.4685 17.6646
Au 9.9752 23.5418 26.8381
Pd 17.4474 22.8758 25.9388
Pd 6.43684 26.3254 23.277
Au 7.84854 30.3409 25.852
Pd 9.20795 27.8317 29.63
Au 27.3825 29.2966 28.9308
Pd 10.2267 19.4207 30.2158
Pd 17.0351 30.7052 34.1905
Pd 8.07837 20.3662 8.62082
Au 17.123 25.832 8.09206
Pd 16.4812 28.2055 4.30424
Au 5.29363 28.614 12.5029
Pd 2.26876 25.05 14.0356
Au 15.7916 30.3285 6.07718
Au 6.40518 20.8389 10.6985
Au 8.24235 34.0664 15.9624
Au 4.91267 25.0483 9.31183
Pd 6.31185 26.6598 10.9508
Au 10.7327 28.0078 26.1615
Au 6.58612 27.4111 8.44763
Au 0.884269 19.8507 14.002
Au 9.63052 29.5926 23.9832
Au 3.19745 17.4154 18.408
Pd 9.74668 25.4615 24.4376
Au 1.35063 19.6026 18.8028
Au 8.86447 27.3586 22.518
Au 11.2603 30.8421 25.8573
Au 11.3609 33.9462 23.5234
Pd 11.8172 33.4952 26.2549
Pd 16.1254 26.8522 28.2845
Pd 7.0082 22.8461 20.3134
Pd 14.9323 29.4149 27.8265
Pd 8.33889 21.3906 27.0024
Au 25.4527 32.9575 29.5353
Au 5.27995 27.2007 25.471
Au 22.8923 32.9906 30.6845
Au 14.3906 22.112 34.4986
Au 15.5255 30.9256 31.8652
Au 2.00145 14.5967 14.5759
Au 6.22407 16.3502 5.96103
Au 2.06972 18.2504 11.7998
Pd 12.2238 22.2459 7.42748
Au 12.4054 30.2907 5.19886
Au 14.1891 26.9702 3.33876
Au 12.9907 35.0065 15.5449
Au 8.2146 22.7061 10.983
Au 10.8214 34.044 20.7465
Au 6.36739 25.1076 6.95161
Au 18.382 36.6297 15.9526
Pd 14.3773 33.0798 16.7107
Au 14.0451 34.5955 23.2565
Au 4.2753 28.2403 16.7513
Au 16.4903 33.6644 18.5097
Au 14.1732 32.2276 19.3141
Au 4.67403 26.4108 18.7353
Au 13.3969 33.6907 28.7413
Au 15.0198 30.8506 22.6273
Au 15.0269 28.996 33.6653
Au 8.69484 33.8249 22.4101
Au 4.36656 28.938 19.6999
Au 15.9383 34.422 28.3526
Au 8.86871 32.19 20.0477
Pd 21.413 33.9676 15.8408
Au 22.5454 37.1328 19.2819
Au 7.13324 25.0401 25.6085
Pd 23.7006 27.7821 26.6509
Pd 15.955 27.9814 25.6231
Au 12.2365 22.946 33.1849
Au 17.5148 13.5772 5.52471
Au 12.8722 3.96095 9.78824
Au 11.9216 6.91809 12.0087
Au 8.86145 6.43217 10.4284
Au 17.4667 1.83659 17.7888
Au 23.4001 3.17185 14.3774
Au 15.1343 2.30091 16.4556
Pd 17.9537 4.37242 18.6646
Au 13.2883 7.12128 19.7698
Au 15.4424 2.9957 19.122
Au 17.5999 1.97933 20.5551
Au 21.6694 5.25549 26.2495
Au 19.083 5.30966 25.4785
Au 17.1195 14.8566 35.5127
Au 16.3008 6.03073 25.8669
Au 9.48864 8.14132 8.38655
Au 22.3728 18.5524 3.78659
Au 12.1612 13.8649 9.68644
Au 11.5179 9.06892 9.98256
Au 16.6072 15.5795 10.7395
Au 15.5578 14.2186 3.80398
Au 16.2819 13.9602 13.1118
Pd 11.8549 16.2788 11.0242
Au 13.1847 11.3324 10.3134
Pd 14.5434 10.4915 20.7156
Au 17.4196 9.59816 14.5455
Au 20.9939 9.55339 15.0598
Pd 15.6257 5.82287 19.223
Au 6.9521 7.48001 12.2603
Au 9.0528 5.94688 13.1087
Au 17.5314 18.0239 26.3687
Pd 18.5462 5.38179 15.7718
Au 17.9194 13.8792 20.2906
Au 13.9463 4.53005 20.9416
Au 11.982 7.33244 29.1502
Pd 17.2127 16.0874 18.3186
Au 11.3696 5.01748 20.2063
Au 11.0776 7.76653 23.871
Au 11.0411 9.47479 30.4893
Pd 15.272 11.1254 25.0353
Pd 13.8793 6.70402 24.5215
Au 9.7078 11.641 29.0509
Au 13.1416 14.753 34.527
Pd 13.4062 29.8433 20.582
Au 15.4344 15.4472 33.2809
Pd 6.57539 13.7591 6.61097
Au 8.62598 12.5989 5.24627
Pd 9.1861 13.017 7.73442
Pd 14.2849 18.8067 8.85986
Pd 14.1689 15.7212 9.11707
Au 13.0715 18.2697 4.3083
Au 13.2455 12.9844 4.69108
Au 13.9196 14.4599 11.785
Au 13.8081 16.4199 23.494
Au 14.4483 17.2905 11.2659
Au 10.3413 10.5283 14.7482
Pd 11.9962 8.7874 16.3121
Au 19.635 14.5496 18.2652
Pd 16.173 14.9163 15.9544
Au 11.071 12.9818 23.5598
Au 14.5451 11.4876 27.762
Au 9.95278 14.3238 21.4634
Au 12.8159 13.3902 17.1239
Au 16.3474 11.8892 22.7248
Pd 16.613 10.7786 29.6546
Au 18.2939 16.5318 21.0102
Pd 15.886 8.46164 24.434
Pd 10.6207 10.7288 26.3248
Au 9.44268 14.4714 28.6335
Au 13.217 13.0274 32.3967
Au 13.1049 8.06595 31.5338
Au 12.7177 10.2708 32.9782
Au 3.69663 25.5334 23.2431
Au 17.0629 21.6277 34.8419
Au 18.2847 19.3005 34.2369
Au 12.5091 21.2084 4.75748
Au 10.7677 14.2845 4.53587
Au 12.2519 21.2191 12.9402
Au 16.3568 17.2178 8.03608
Au 14.4214 21.5901 8.97723
Au 16.8853 20.0267 7.86323
Au 14.5575 20.0753 11.4256
Au 7.57755 18.4186 11.9111
Pd 10.3941 20.1757 17.1586
Pd 14.295 22.4825 18.8977
Au 9.62753 20.3662 11.3809
Au 10.0615 16.4194 19.6477
Au 10.3557 17.8394 12.6573
Au 14.7278 17.4953 18.4585
Pd 5.13883 14.1066 25.7672
Au 8.80789 18.5656 21.4226
Pd 13.3491 17.1906 20.8838
Au 16.7324 21.4372 20.2627
Au 8.19096 7.33752 18.8635
Au 10.6414 20.7631 32.7718
Au 14.0476 16.7579 29.156
Au 5.038 14.8458 28.4182
Au 10.102 21.2794 20.1105
Au 13.6821 21.4704 28.1342
Au 5.32634 11.2836 22.2838
Au 15.1183 23.6848 24.345
Au 16.9252 25.4928 25.9618
Au 32.4023 15.2767 31.6091
Au 15.5845 12.9324 34.1916
Pd 6.2806 22.4156 25.7779
Pd 13.8858 23.3137 14.2361
Au 6.78308 18.89 6.59057
Au 6.99939 21.7427 6.43947
Au 7.59578 25.3239 4.48469
Pd 5.47449 15.5988 18.4575
Pd 14.3594 22.667 11.5881
Pd 9.82418 28.727 14.3529
Pd 5.54631 21.2585 15.2814
Au 13.1669 19.0533 22.9044
Pd 13.0773 25.9522 14.1689
Au 13.6206 18.9654 16.1216
Au 7.28755 23.3731 13.9453
Pd 19.353 20.3749 19.5853
Au 15.9065 17.7723 22.3841
Au 8.46518 22.2372 18.1237
Au 9.40603 15.3402 14.293
Au 13.3575 29.0278 25.4185
Pd 4.78094 23.6708 18.8768
Au 17.3279 20.4757 27.7506
Au 2.3661 20.2731 23.9808
Au 2.69047 15.4282 21.8263
Au 10.7109 29.9518 16.4898
Au 6.964 32.8211 17.9996
Au 18.6135 27.7768 24.9693
Au 8.28275 19.6561 18.8898
Au 15.2205 21.3605 25.8307
Pd 21.2319 15.2967 27.6037
Au 17.3632 32.8758 32.7079
Au 17.952 24.6137 28.3059
Pd 7.89098 19.565 28.796
Au 12.0683 25.3478 3.03475
Pd 19.1924 21.4157 7.04632
Pd 8.08021 22.7666 4.33622
Pd 11.1831 17.8828 15.3856
Au 13.6047 28.6387 10.0546
Pd 11.2859 24.851 7.53767
Pd 11.574 26.7267 9.5387
Au 13.3855 24.2032 16.8543
Au 14.6372 19.6012 20.4339
Au 20.2016 20.6618 16.9377
Au 8.62076 25.8403 14.7803
Au 14.791 22.8763 21.5951
Au 16.1882 31.668 29.0354
Au 24.4442 22.3449 17.187
Au 6.56922 23.4309 16.6327
Pd 12.4566 23.8586 20.4873
Pd 6.73885 28.3664 15.154
Au 14.3432 31.3347 14.6344
Au 6.03499 26.0614 13.6772
Au 12.2732 24.3795 23.7578
Pd 7.42304 23.6794 30.8601
Au 17.7021 28.7808 18.0237
Au 7.40877 17.13 19.479
Au 15.005 18.9552 27.689
Au 8.14757 21.3372 22.1608
Au 10.5988 19.932 22.9482
Au 9.07648 17.2148 28.8398
Au 7.13048 28.0596 27.6538
Au 15.6102 26.5634 34.4123
Au 7.24193 26.0675 29.6368
Au 16.2524 22.5978 2.8728
Pd 13.8875 26.3947 8.19947
Au 8.83544 15.2168 6.20911
Pd 17.24 30.3436 8.40191
Pd 23.8226 23.6182 14.5093
Au 10.075 26.1074 5.09956
Au 17.7884 28.2936 6.64444
Au 18.0515 25.0289 13.681
Au 18.9239 23.1525 20.1917
Au 22.6198 24.5122 17.1679
Au 9.2681 26.7236 7.71441
Au 12.7035 33.742 10.8002
Au 15.1418 27.4954 13.3481
Au 21.1689 32.3104 7.03707
Au 10.2928 31.658 22.2998
Au 7.36883 31.6963 23.4035
Au 12.7572 28.6905 14.7946
Pd 8.9119 27.7028 16.9089
Au 11.4136 31.2523 19.4115
Au 6.59826 30.6149 19.4628
Au 13.357 32.1886 24.4523
Au 16.9036 32.5814 26.5991
Au 9.46735 32.52 24.861
Au 9.06715 26.1265 27.3884
Au 22.2485 36.3448 24.9232
Pd 18.6129 33.6409 23.5003
Au 18.7522 27.1171 27.6431
Au 27.1743 30.0684 32.978
Au 18.5721 34.7994 27.7596
Au 15.2297 33.3895 30.8226
Au 7.46318 27.4858 5.93439
Au 17.3826 19.2986 2.94041
Au 25.4328 23.0553 4.38994
Au 12.3706 22.6602 2.46941
Au 7.11908 29.3689 10.506
Au 10.0749 21.4882 3.22582
Au 9.53019 30.0778 11.7986
Pd 17.7106 27.5538 12.2706
Au 26.2032 23.3621 10.3321
Au 7.66958 31.938 11.1528
Au 14.7658 28.4588 18.6764
Au 10.2556 32.7441 11.9989
Pd 22.2153 30.3437 22.0562
Au 4.73952 30.0712 14.6855
Au 6.36148 32.2463 15.293
Pd 16.243 29.5911 10.8586
Au 16.6186 35.3968 22.8255
Au 24.6344 36.1886 20.6786
Pd 16.0799 32.9429 24.0065
Au 11.6341 28.4038 12.0135
Au 2.70184 23.9015 21.0573
Au 12.2091 29.3769 28.0472
Au 19.0431 26.858 32.7121
Au 17.9802 35.9782 18.5324
Au 22.6614 33.5248 25.4111
Au 14.5517 24.5129 32.6247
Au 18.2926 31.7004 19.2645
Pd 16.3834 29.1171 29.972
Au 19.5388 35.8491 25.1505
Au 20.1087 32.9948 31.8659
Pd 11.1698 11.9346 5.94791
Pd 19.6545 9.61677 12.6129
Au 18.46 13.7876 15.0055
Pd 16.1974 7.70264 9.82292
Au 9.63883 8.50474 11.9078
Pd 21.6231 3.89757 18.6468
Pd 21.257 4.73864 15.5567
Pd 16.7538 4.41358 21.1904
Pd 24.1491 6.79556 21.6266
Au 23.6918 4.01661 25.0267
Au 22.0652 5.27412 21.0284
Au 15.5779 4.46549 28.064
Pd 27.2651 8.15193 24.7206
Au 15.7315 9.17345 27.022
Au 24.1014 8.1275 30.1899
Pd 21.1959 7.05118 11.0746
Au 24.0079 11.8068 9.78379
Pd 13.8058 16.7258 6.70799
Au 14.7711 16.3287 13.8261
Au 22.0034 12.2153 6.13997
Au 17.7796 10.1277 5.46925
Au 22.32 7.54038 6.56185
Au 20.4195 8.34227 8.68036
Au 20.927 5.78881 8.15129
Au 16.4228 4.96852 13.9448
Au 14.101 6.23253 10.4054
Au 16.0514 11.9736 15.2811
Pd 15.6199 7.34202 12.6932
Au 23.2289 7.57815 9.21194
Pd 20.0842 6.02106 17.9825
Au 25.8778 11.8061 23.3255
Au 18.4411 4.06355 23.203
Au 22.0948 8.42306 22.5412
Pd 10.7059 11.6732 21.1534
Au 12.1249 14.9948 25.0544
Au 14.447 8.92858 29.3734
Au 23.0113 8.7455 19.7913
Pd 12.2925 9.84812 28.1236
Au 16.5776 8.0524 30.8976
Au 23.6511 1.78365 23.3907
Au 13.2644 9.29932 25.6353
Au 16.5584 6.97883 28.4009
Au 18.6991 22.4897 32.7646
Au 12.9922 19.4032 29.7297
Au 18.3468 8.98743 28.5903
Au 16.2104 25.3753 3.30965
Au 19.5929 14.5921 4.17545
Au 21.4953 20.908 8.52441
Au 16.688 18.7674 10.3195
Au 17.2164 11.8465 7.6728
Pd 17.0731 14.5644 8.20733
Au 21.0458 18.2563 16.003
Au 13.0165 18.492 13.3977
Au 14.9295 11.6277 17.9395
Au 21.4177 18.3719 9.40577
Au 17.8917 19.5602 22.0605
Au 15.0942 13.2702 20.8661
Au 21.7753 16.3155 17.6742
Au 16.1121 17.7244 15.984
Au 22.4391 13.7662 18.0824
Au 16.9853 14.6881 22.8312
Pd 23.4449 10.7623 14.5037
Pd 19.7839 22.1961 24.7996
Pd 10.1128 7.27372 21.1221
Pd 13.8382 16.8248 26.3577
Au 11.9015 17.742 18.0127
Au 18.7318 15.1941 25.5454
Au 18.7396 14.3022 28.1742
Au 17.5171 11.3794 32.682
Au 15.1015 14.3505 18.3365
Au 14.2535 14.1718 26.8488
Au 7.41331 23.7638 28.0858
Pd 21.8351 22.54 33.0896
Pd 23.4587 11.0159 30.684
Au 21.7569 6.71521 30.6879
Au 17.2172 21.0765 5.04504
Au 21.6061 15.9984 2.99363
Au 13.7786 8.31665 8.54509
Pd 20.0248 23.7185 17.7571
Pd 13.3074 10.3312 5.10022
Pd 13.3462 26.2629 11.4617
Au 9.35179 18.2626 7.14836
Au 7.63891 20.7494 13.3933
Au 18.3215 20.3142 12.4514
Au 16.8317 21.7057 10.4943
Au 23.9721 13.439 24.0975
Pd 16.8793 24.6954 21.3185
Au 26.3689 15.5973 19.0739
Au 11.8658 17.3669 8.55556
Au 15.4559 20.6238 22.9574
Au 4.75657 16.3756 23.2866
Au 11.6378 17.7368 24.8706
Pd 18.1181 18.9759 17.2243
Au 20.1013 12.7513 33.2262
Au 22.8562 16.9995 25.8232
Au 16.3531 13.2706 28.6516
Au 15.2277 18.6923 24.9023
Pd 14.5697 24.5546 27.0497
Au 22.9814 26.3794 28.9634
Pd 21.926 19.1273 30.7358
Au 28.7678 8.96722 26.8964
Au 21.6158 18.2154 28.0762
Au 17.2365 17.3029 32.4518
Au 9.72791 23.2562 32.0878
Au 19.9566 10.099 33.657
Au 15.6513 26.1297 5.89316
Au 16.2355 16.0314 5.5907
Au 15.5546 24.2307 9.69524
Au 14.8203 21.5363 6.23952
Au 18.4732 17.478 11.8486
Au 23.7903 23.9958 11.7007
Au 10.6152 26.1754 12.9572
Pd 9.23436 22.3815 15.6182
Au 11.2176 24.0894 15.0595
Au 19.0724 22.4005 14.8792
Au 12.3837 21.5417 15.7699
Au 22.3241 21.5606 23.7406
Au 19.3099 24.3897 22.8892
Au 11.1012 26.7218 15.8961
Au 14.6158 20.6896 14.2177
Au 27.5361 24.9089 28.1221
Au 16.5615 26.2647 23.4715
Au 14.4608 25.4347 19.2845
Au 21.5704 32.3259 27.6842
Au 6.71464 13.7089 23.303
Au 17.3449 22.5684 23.0769
Pd 21.8226 24.1794 24.0114
Au 16.0866 15.48 30.5653
Pd 16.4427 24.5066 30.5069
Au 22.0504 24.7748 31.139
Au 19.4248 19.6535 29.5861
Au 11.2116 16.5279 33.6714
Au 17.4853 6.33439 32.6721
Au 25.1763 17.0755 33.8547
Au 19.5128 22.4305 27.7443
Au 24.8259 27.2133 4.92575
Au 8.4908 17.344 4.58169
Pd 14.0786 28.2676 5.74497
Au 11.8101 21.9113 10.3778
Au 13.3069 15.5849 4.30209
Au 10.5696 19.1831 4.83771
Au 20.3207 27.3484 6.6567
Au 20.5908 34.3917 8.97212
Au 22.6587 14.6919 22.0629
Au 9.09606 27.4198 10.3811
Au 16.5569 22.5494 13.41
Au 14.2441 25.4476 22.1459
Pd 14.4174 28.169 22.9051
Au 17.5133 29.6958 27.1611
Au 12.9063 27.2072 20.6538
Pd 21.9184 22.6568 26.3674
Au 20.3892 19.4568 23.9478
Au 15.5239 25.3238 15.1815
Au 19.1733 17.0636 28.3277
Au 8.14695 27.5876 25.2492
Au 21.2431 27.9246 21.2409
Au 15.5936 26.9796 31.6684
Pd 16.3264 26.4835 17.4662
Pd 24.9761 24.6806 27.2741
Pd 13.0408 21.7405 23.6681
Au 28.9159 24.3706 25.631
Pd 28.4222 29.4604 26.4729
Au 10.9916 25.4091 33.556
Pd 18.1523 26.2819 35.1906
Au 8.99931 25.9074 31.7541
Pd 13.1009 29.8446 7.72515
Pd 16.8642 22.7606 7.85231
Au 18.9933 22.8989 12.0736
Au 19.9062 29.9417 8.10922
Au 19.1093 24.2995 6.98174
Au 19.3259 28.612 4.29697
Au 19.2298 29.7541 13.4191
Au 23.0696 23.5272 28.8421
Au 19.9383 27.0408 14.0314
Au 23.0757 33.3878 8.62396
Au 18.1793 26.2687 19.402
Au 17.0809 20.5234 15.2784
Au 18.2351 31.0117 24.6995
Au 7.97275 27.8613 12.7643
Au 18.2593 27.982 9.4876
Au 19.65 33.1726 25.9182
Au 5.16106 30.7126 17.2487
Au 8.15078 29.8841 21.547
Au 20.4252 32.4355 21.6009
Pd 28.1827 26.9327 29.9189
Au 20.1423 29.9943 26.4407
Pd 21.4504 28.0904 9.01294
Au 16.6173 23.9437 18.745
Au 16.3862 15.9263 27.7514
Au 24.4068 21.6174 27.1522
Pd 15.5935 30.5755 25.2517
Au 21.833 28.9729 28.4425
Au 19.2245 24.6395 30.8824
Pd 17.6066 19.9028 31.7035
Au 14.1472 22.958 30.3899
Au 32.9075 21.3738 10.8464
Au 30.3424 24.9627 8.86259
Au 11.8401 32.4719 15.8263
Pd 5.77914 23.9134 11.5824
Au 25.1272 31.7151 8.29601
Au 7.87592 33.3933 13.3317
Au 21.2378 29.9218 5.76672
Pd 24.0161 28.6615 15.1413
Pd 21.1613 31.5596 12.4598
Pd 12.1718 24.005 12.3465
Au 7.22173 30.4882 13.401
Pd 17.8477 31.4979 22.0315
Pd 24.1646 28.1174 9.30331
Au 12.2127 32.45 8.57143
Au 16.1378 35.2872 16.2218
Au 13.4746 34.8197 20.5939
Au 29.5991 22.9126 23.1837
Pd 15.7366 33.1902 21.295
Au 13.6338 26.8917 16.8148
Au 23.4331 34.2556 28.3107
Au 25.0731 21.0255 36.2781
Pd 25.145 33.5574 21.1318
Pd 20.1466 29.2382 31.9379
Au 10.977 29.9257 30.3129
Au 19.5827 31.1857 33.6722
Pd 23.1701 32.6956 22.8147
Pd 12.7175 22.8784 26.0411
Au 22.221 31.1887 32.5838
Au 12.7418 19.9889 34.3921
Au 22.5319 17.3502 32.8847
Au 12.0524 14.2834 7.02943
Au 23.6582 11.128 4.35046
Au 22.4735 14.1052 10.4064
Au 17.4442 2.90588 12.3815
Au 21.7325 4.54164 12.634
Au 32.3392 6.15152 25.5737
Au 27.4152 8.09992 17.4744
Pd 17.0826 3.4275 25.715
Pd 26.5571 4.82348 21.0541
Au 15.0632 2.33657 21.8847
Au 28.2019 12.848 22.2107
Au 11.6045 5.44325 25.2025
Au 28.0886 5.41624 23.4941
Au 8.13411 20.6796 31.5493
Au 20.9885 4.82948 28.9798
Au 23.9587 16.3886 4.34707
Au 29.5423 15.1804 11.8747
Pd 14.4144 23.9956 7.17504
Au 7.01111 13.7838 12.0226
Pd 14.7976 14.0585 6.71807
Au 19.7993 10.6585 7.20586
Pd 17.1049 5.49514 11.2883
Pd 16.9517 9.56393 11.7762
Au 15.9145 4.90274 8.89889
Au 13.6537 11.694 7.45418
Au 15.1735 3.48284 11.093
Pd 17.4125 13.0097 17.5621
Au 27.9138 8.36833 8.91933
Au 22.515 4.76959 10.0483
Au 24.7934 7.22777 16.6354
Au 25.7165 16.8918 21.6581
Au 20.1027 7.09079 27.67
Au 22.6656 11.6943 25.9487
Au 18.6221 9.2462 19.7409
Au 19.9826 1.8745 19.3
Au 20.8419 11.3102 31.1531
Au 15.6321 4.65885 23.5878
Au 27.2553 3.76661 25.6802
Au 18.1079 8.13943 26.0176
Au 20.1071 3.16855 27.0759
Pd 15.6462 12.9069 31.4036
Pd 13.1607 11.3156 30.3071
Au 13.8961 6.89182 27.2693
Au 19.0368 6.74121 30.2069
Au 17.5286 8.85574 33.5862
Au 22.6467 22.8746 4.49708
Au 21.0999 23.6623 2.4922
Pd 11.1511 11.5784 8.65748
Au 9.73152 21.3592 6.23368
Au 15.1892 18.9031 5.92359
Au 19.9613 18.4068 2.43502
Au 12.6185 19.4408 6.82562
Au 18.0284 11.8035 13.0739
Au 26.2449 3.04999 13.7722
Au 18.8136 16.0009 6.69429
Au 17.3365 9.93102 17.4255
Pd 19.5449 17.5014 18.7737
Au 23.6232 12.1756 21.2881
Pd 15.697 10.4356 9.41399
Au 20.2883 18.4591 21.3027
Au 15.7126 8.58522 19.2689
Au 30.2515 14.6153 22.7435
Au 15.5926 20.1435 17.7892
Pd 12.7419 14.4762 21.8131
Au 19.8744 7.53263 32.6648
Au 15.3362 6.90532 21.8451
Au 25.292 9.88557 18.5663
Pd 18.7094 12.7994 24.144
Au 8.51202 11.8218 18.8883
Au 19.4225 2.1293 24.7944
Au 20.7175 15.3219 32.7292
Au 28.4564 15.9994 29.1666
Au 27.5867 10.5827 32.3476
Pd 13.1973 15.7468 31.8314
Pd 26.8496 15.4934 31.3109
Au 19.761 13.4875 7.00709
Au 27.0764 10.0294 6.7714
Au 21.7214 14.2897 13.0048
Au 28.7002 20.726 7.15747
Au 15.378 9.63427 6.75251
Au 24.5517 18.7595 5.61737
Pd 23.4258 19.1286 11.1443
Au 23.6982 21.6361 10.0108
Pd 12.2357 31.0733 10.9013
Au 27.8156 21.5824 14.4705
Au 16.1946 18.6513 13.211
Au 21.7346 19.0734 18.7899
Au 23.4107 16.512 12.4379
Au 24.0601 17.7033 18.067
Au 22.1508 20.4329 21.205
Au 19.7796 19.9265 26.6727
Pd 26.7225 7.36245 22.033
Au 21.3207 12.5426 23.0942
Au 21.1406 10.4163 20.9449
Au 11.3337 18.8751 20.4121
Au 17.7005 20.2728 24.7643
Pd 24.6074 22.3213 33.8152
Pd 20.6085 10.3593 24.3162
Au 19.2587 11.5299 28.9065
Pd 27.2929 18.0257 32.2035
Au 15.1359 7.77743 33.1838
Au 22.435 13.8709 34.5063
Pd 13.6631 28.2248 30.1071
Au 17.969 14.478 33.031
Au 21.3024 23.7362 35.8176
Au 24.1957 13.763 5.02584
Au 18.2764 6.26023 8.49255
Au 24.1072 20.7259 3.89652
Au 20.9096 16.2047 11.0497
Pd 19.8462 22.7113 4.79826
Au 32.5147 23.3128 8.9599
Au 27.3718 18.9769 15.0347
Au 18.4044 26.103 4.98851
Pd 26.2977 18.2439 19.3628
Au 21.6346 23.202 7.17982
Au 19.2953 26.3734 16.8868
Au 20.097 28.9657 15.9959
Pd 20.3235 25.3248 11.9612
Pd 19.7299 14.7793 22.5595
Au 23.1549 19.9452 16.5634
Au 16.672 13.431 25.8404
Au 23.5085 24.0906 19.8029
Au 20.8718 30.5703 19.5782
Pd 17.0189 29.0246 23.0389
Au 20.4028 16.5045 13.8554
Pd 19.8332 17.8683 32.0463
Au 21.4249 14.6552 24.8777
Pd 24.264 26.7233 32.1055
Au 11.6268 21.929 30.4822
Au 20.679 22.3821 30.4575
Au 20.8422 26.6311 23.7517
Pd 21.8695 30.9581 15.0794
Au 12.147 18.523 32.1868
Au 13.6432 27.1043 27.35
Au 13.2298 26.951 33.0598
Au 12.0409 19.8118 2.4061
Pd 18.7956 17.0048 9.25131
Au 19.2023 22.835 9.36684
Pd 18.9122 32.4442 8.37266
Au 27.5507 30.769 8.65544
Au 26.4251 23.566 7.20618
Pd 18.807 18.6278 14.5338
Au 11.671 27.759 6.97471
Pd 21.5045 23.2091 13.0804
Au 26.1233 14.137 6.87237
Au 24.427 26.036 15.5533
Au 15.3016 28.9255 15.9077
Au 17.4723 27.5382 15.0866
Pd 27.0437 22.2495 21.8647
Au 24.5683 15.1435 16.9206
Au 16.1115 27.4055 20.8298
Au 30.7119 16.286 24.749
Pd 20.3151 28.0992 18.6448
Au 28.6963 27.6208 32.8613
Au 19.8002 29.4253 23.0819
Au 24.6555 18.6035 31.5773
Au 24.8462 32.5458 26.732
Au 24.2837 23.4772 24.9131
Au 6.37446 21.5937 29.5756
Au 24.9836 20.879 24.2562
Au 21.0836 31.544 24.2608
Au 21.7524 16.3534 35.2229
Pd 21.0303 27.3633 26.3927
Au 24.6391 23.9866 31.7171
Pd 21.7091 27.0608 32.6895
Au 20.6851 34.2831 13.2279
Au 26.6636 25.2924 5.07283
Au 14.2853 24.3982 1.8534
Au 26.5723 16.4508 8.54754
Au 10.9403 16.8499 3.25019
Au 27.4322 27.5343 6.35007
Pd 21.1868 31.8258 9.80854
Pd 14.8004 32.2309 11.8778
Au 28.8323 33.6517 18.1175
Au 15.526 24.9467 12.4478
Au 24.4613 30.6242 24.1338
Au 10.6269 30.8546 7.07662
Au 27.3723 32.0908 22.3746
Au 13.9261 32.1416 6.62337
Au 25.2414 24.4325 22.426
Au 22.5819 32.1519 17.464
Au 25.2654 25.1221 17.9748
Pd 23.1674 32.9121 13.7172
Au 14.1289 25.5997 29.6429
Au 27.2975 31.9037 27.8874
Pd 24.0823 28.3924 22.4282
Au 26.987 31.3088 25.0861
Pd 12.6109 21.2386 21.0824
Au 20.943 18.8822 34.6531
Au 31.8402 30.2087 21.0466
Au 4.79723 23.024 27.942
Au 21.8139 20.9592 28.4807
Au 14.8247 18.1179 31.4884
Pd 25.7859 28.2857 24.9351
Pd 24.2646 29.2902 33.2725
Au 22.3694 25.7794 7.95024
Au 23.9657 24.7463 5.96002
Pd 24.7785 26.6406 20.2634
Au 31.1439 30.4477 11.5685
Pd 16.9261 23.7191 5.34645
Pd 9.68679 32.3132 17.4434
Au 28.3858 20.0148 9.80801
Pd 16.9402 32.2477 10.2162
Au 11.8184 27.929 4.11263
Au 12.3191 30.0187 23.1365
Au 15.7567 26.9257 10.4091
Au 18.284 34.1569 20.7651
Au 26.2942 23.8258 15.6613
Au 21.9193 36.8755 22.1666
Au 15.9695 35.7539 20.2618
Pd 23.6549 31.0595 28.9038
Au 16.1433 30.2271 20.2809
Au 24.0097 35.3764 23.176
Au 22.7416 28.9884 31.0514
Au 21.2432 35.2067 27.1256
Au 11.1605 27.5373 31.5326
Au 16.782 32.6655 15.508
Au 17.6688 34.6321 9.1719
Pd 19.9206 21.4517 34.9528
Au 22.5273 21.269 35.5525
Au 22.9079 30.4813 26.3029
Au 15.9594 24.1078 35.3182
Pd 17.9138 26.9131 30.278
Au 20.1638 24.6348 33.5215
Au 18.9843 28.7673 34.6569
Au 17.7221 8.95228 7.99015
Au 21.9163 13.2577 3.61893
Au 26.8329 12.1713 8.69087
Au 16.3105 7.24161 15.4875
Au 19.5394 7.96097 6.20089
Au 18.8799 11.5869 21.7187
Au 23.7065 6.64112 11.7938
Pd 20.7142 12.0312 13.9912
Au 27.8419 2.53247 21.0974
Au 28.6833 3.93455 18.8132
Au 25.1631 4.7646 27.1288
Pd 20.4459 9.86578 26.938
Pd 35.4089 14.5624 27.1509
Pd 16.7211 9.25543 21.8488
Au 14.427 6.21552 30.0157
Au 22.1417 17.9196 6.63633
Pd 24.6235 11.7094 7.02477
Au 15.9525 6.97319 7.12327
Au 11.1782 16.6525 5.94297
Au 11.7893 9.46113 7.11269
Pd 21.2816 12.1836 8.92401
Au 28.3729 6.8613 11.2625
Au 23.7251 16.7159 9.69659
Au 19.6168 3.12273 16.9156
Au 25.2569 9.62216 8.67619
Au 19.6671 4.91264 10.517
Au 20.9625 14.3097 15.7648
Au 20.3649 2.59612 14.2914
Au 26.3597 12.5108 14.7882
Au 24.9725 9.52493 21.4534
Au 29.5515 11.1226 20.5534
Au 21.3743 3.73997 23.4861
Au 27.6157 3.24738 16.2733
Au 24.7745 8.37345 23.8567
Au 22.0348 1.93944 25.5279
Pd 24.3124 4.40662 19.6557
Au 30.6295 6.19434 18.5683
Pd 29.8499 9.62872 23.9852
Au 29.7223 7.05998 24.9294
Au 29.8761 12.2936 31.6811
Au 19.327 8.76844 22.4167
Au 26.2839 2.96793 23.3643
Pd 21.1653 9.09506 29.4705
Au 27.6739 18.2034 34.9274
Au 33.3821 10.0799 29.4109
Pd 17.6869 18.308 5.53066
Au 21.4561 20.9619 2.87985
Au 31.3862 13.6804 10.428
Au 32.0444 16.2495 11.2093
Au 22.5757 9.99831 7.83984
Au 34.8536 19.0736 13.7855
Au 24.3805 3.97445 12.0306
Au 28.6471 14.651 14.6304
Au 18.9283 14.5425 12.3027
Au 25.2239 14.2379 9.64943
Pd 18.8208 10.4857 9.91521
Pd 25.8431 19.7288 17.206
Au 27.2216 13.6579 12.3239
Au 20.8486 18.6994 12.1196
Pd 22.2642 8.85281 12.8931
Au 14.5809 13.8303 24.0137
Au 25.9646 7.66684 10.5384
Au 22.7709 11.2623 18.9087
Au 20.1884 6.14398 22.6928
Au 17.9023 10.2277 24.2587
Pd 27.6507 10.8642 25.088
Au 27.7033 9.13198 19.9509
Au 22.7329 8.80266 25.6391
Au 34.3893 17.2111 31.0823
Pd 16.119 16.0577 24.9785
Au 27.9404 13.0821 30.0274
Pd 17.6453 6.74628 23.4465
Pd 32.9326 18.2324 20.8006
Au 13.1376 12.0726 34.8446
Au 22.0973 8.98116 32.1025
Au 28.6914 33.3709 15.2569
Pd 29.3535 23.1149 16.0683
Au 19.9417 25.7508 9.20615
Au 26.1322 21.1827 8.65897
Au 17.4538 12.7488 10.4833
Pd 19.0802 19.977 9.75376
Pd 20.205 17.2854 4.87243
Au 25.4996 18.4527 12.9185
Pd 22.8382 16.1752 15.0728
Au 35.0383 14.6817 21.8857
Pd 21.6762 11.7454 16.5091
Au 19.477 14.2905 9.59344
Au 23.3336 10.6593 23.5365
Au 36.2828 21.3524 15.0092
Pd 23.3129 21.6545 30.8207
Au 20.6427 24.6818 15.1445
Pd 25.0539 13.1513 18.977
Au 17.4936 16.2545 13.9838
Pd 21.0508 16.0023 20.362
Au 24.8396 9.33391 32.4582
Au 30.5006 11.7965 28.9154
Au 20.1225 12.6612 26.4286
Au 20.9255 13.2348 20.4254
Au 32.1411 20.751 33.388
Au 23.9865 23.5556 36.1231
Au 24.8123 12.146 28.1311
Au 24.1641 15.9338 31.1592
Au 28.2543 15.8039 26.0003
Au 22.5116 11.2436 33.4935
Au 34.3933 23.2093 26.5972
Au 28.2675 12.479 6.41778
Pd 27.3157 21.916 17.2686
Au 30.8346 21.0703 9.02744
Au 28.2526 24.5236 13.9221
Pd 30.2851 15.86 9.1794
Pd 18.5611 24.2551 2.97822