1687
Atoms. Timestep: 20451
Au 8.08983 6.18335 8.43008
Au 6.32351 6.08862 10.4409
Au 7.2085 4.90212 15.1894
Au 5.99825 5.34787 19.3947
Au 5.39874 6.58866 23.579
Au 5.27585 6.81524 27.6742
Au 5.29031 6.92038 31.5338
Pd 7.85264 8.19896 6.50763
Au 5.97596 7.99827 8.49911
Au 5.82183 10.0176 6.61941
Pd 6.83428 6.66067 13.0723
Au 6.39019 8.6992 11.1306
Au 6.40089 6.80732 16.9689
Pd 6.33737 8.69268 14.9036
Au 5.33205 7.40891 20.9783
Au 5.68188 8.97685 18.7248
Au 5.33529 8.50707 25.5597
Pd 5.08018 9.31573 22.908
Pd 5.33988 8.69994 29.5652
Pd 5.42291 10.5041 27.4959
Pd 5.48247 8.76818 33.4088
Pd 5.46803 10.6157 31.5163
Au 7.68109 10.2412 4.67866
Pd 6.25429 10.6785 9.15768
Au 4.70408 12.81 8.80898
Au 6.08786 10.6927 13.0024
Au 5.89636 12.6776 11.169
Au 5.78749 10.8419 16.6755
Au 5.73588 12.8496 14.7439
Au 5.22208 11.0838 20.7149
Au 5.36305 12.9673 18.6452
Pd 4.94811 11.258 24.8664
Au 4.97704 13.1381 22.7656
Au 5.4049 12.4868 29.5064
Au 4.85561 13.213 26.8597
Au 5.66992 12.4688 33.4509
Au 5.53846 14.4213 31.5674
Au 5.88021 15.1888 8.55871
Au 4.36511 14.7713 10.6381
Au 5.97112 17.3368 6.84076
Au 5.61526 14.9703 12.9432
Au 5.59359 17.1506 10.8025
Au 5.41214 14.9777 16.6845
Au 5.41456 17.0838 14.791
Au 5.09322 15.0707 20.7115
Au 5.18505 17.0722 18.7332
Au 4.89521 15.1657 24.8639
Au 4.97423 17.1339 22.8278
Au 4.91435 15.1667 28.88
Au 4.94076 17.1595 26.9492
Au 5.7913 16.409 33.4513
Au 5.03253 17.1007 30.9014
Pd 6.13427 19.3733 5.08873
Au 5.67154 19.2003 8.86736
Au 5.74098 21.2527 6.99449
Au 5.44444 19.1304 12.8322
Au 5.49402 21.1649 10.9073
Au 5.25648 19.1375 16.8141
Au 5.32876 21.1515 14.8963
Au 5.06611 19.139 20.8282
Au 5.16653 21.1574 18.8672
Au 4.97609 19.1423 24.9385
Au 5.04715 21.157 22.9356
Au 5.05997 19.139 29.0185
Au 5.06198 21.1066 27.031
Au 5.27878 18.9852 32.8525
Pd 5.28826 21.0492 31.0471
Au 5.79397 23.3491 5.28119
Pd 5.58352 23.221 8.99374
Au 5.57067 25.2994 7.13779
Pd 5.41674 23.1559 12.9703
Au 5.40148 25.1672 11.0561
Pd 5.29521 23.1581 16.9473
Au 5.29638 25.1393 15.023
Au 5.11743 23.1634 20.9707
Au 5.20557 25.1664 19.0221
Au 5.09703 23.1099 25.0086
Au 5.16133 25.1271 23.0446
Au 5.18032 22.9989 29.1
Au 5.16278 25.0142 27.1013
Au 6.71017 23.5981 33.6182
Au 4.77876 23.6786 31.7421
Au 5.73584 27.3214 5.3808
Au 5.42857 27.204 9.15313
Au 5.51221 29.1987 7.27462
Au 5.30519 27.1407 13.0943
Au 5.35951 29.1853 11.183
Au 5.24123 27.1516 17.0788
Au 5.28233 29.1969 15.1204
Pd 5.2877 27.1742 21.1225
Au 5.27694 29.1665 19.1631
Au 5.19027 27.0694 25.1318
Au 5.30719 29.1069 23.1946
Au 4.65488 25.6448 29.7792
Au 4.64946 27.6553 27.8528
Au 6.2199 26.1922 34.2578
Au 6.12642 28.2621 32.5102
Au 5.68012 31.1624 5.49828
Pd 5.50248 31.1296 9.2561
Au 5.62594 33.0058 7.37528
Au 5.36499 31.1909 13.1613
Au 5.54318 33.0221 11.1984
Au 5.32451 31.1347 17.172
Pd 5.50337 32.9761 15.1996
Au 5.38424 31.045 21.1732
Au 5.48512 32.8966 19.2031
Au 4.76858 29.6878 25.9648
Au 6.67118 31.6786 26.0175
Au 4.2797 26.279 32.381
Au 4.20985 28.2671 30.5052
Au 8.12372 30.1661 32.6026
Pd 6.15038 30.2041 30.5808
Au 9.98277 6.3772 6.45227
Au 8.47157 4.44515 10.4986
Pd 10.3652 4.58974 8.52419
Au 9.03207 4.97691 13.1486
Pd 11.0137 5.19322 11.1526
Au 8.04208 4.80022 17.7672
Pd 9.92692 4.74221 15.7799
Au 7.38341 5.84984 21.7954
Au 9.56754 5.27757 19.9888
Au 7.09448 6.36854 25.7673
Pd 9.11049 5.9906 23.9459
Au 7.10306 6.52868 29.6432
Au 9.05206 6.21832 27.7659
Au 7.16026 6.73135 33.374
Au 9.09185 6.38146 31.5987
Au 9.75754 8.39823 4.54563
Au 11.9015 6.65634 4.60283
Au 10.4123 9.12509 7.05384
Au 8.41841 8.92132 9.12599
Au 10.6748 7.13482 9.10809
Au 10.2346 11.0937 4.98903
Au 8.74437 6.98425 11.135
Au 8.35379 8.98422 13.0423
Au 10.7021 7.17163 13.1176
Au 10.423 9.187 11.0935
Au 8.6323 7.07745 15.0952
Au 7.9948 9.04679 17.035
Au 9.75409 6.89176 17.6141
Pd 10.2821 9.21789 15.0542
Au 7.73014 7.23328 19.3866
Au 7.27216 9.29651 21.0951
Pd 9.42237 7.63592 21.6854
Pd 9.56139 9.23459 19.3511
Au 7.44621 8.15864 23.6329
Au 7.40998 10.2944 25.5584
Pd 9.26305 8.09686 25.7452
Au 9.44735 9.97858 23.5792
Pd 7.31463 8.448 27.6284
Au 7.37492 10.4773 29.5321
Pd 9.2593 8.30371 29.6143
Au 9.38432 10.2481 27.6031
Au 7.34412 8.60118 31.5152
Au 7.45675 10.493 33.5971
Pd 9.24287 8.40725 33.532
Pd 9.40694 10.3669 31.621
Au 6.26084 12.7387 6.69079
Au 8.27377 12.9482 4.92472
Au 8.27502 10.9637 7.13666
Au 7.71491 13.0523 9.00592
Au 10.1519 11.198 9.07298
Au 9.93173 13.2034 7.00531
Pd 8.13631 10.9669 11.0718
Pd 7.83955 13.0091 12.9668
Pd 10.0727 11.1758 13.0138
Au 9.7995 13.1997 10.9579
Au 7.95591 10.9804 14.9392
Au 7.51388 13.0415 16.8514
Au 9.75947 11.1851 17.0556
Au 9.73237 13.1468 14.9787
Au 7.44829 11.1061 18.9025
Au 7.07832 13.1357 20.8489
Au 9.25328 11.3073 21.1074
Pd 9.35807 13.1904 18.9793
Au 6.97639 11.2467 22.9654
Au 6.84634 13.1866 24.9213
Pd 9.45384 12.1719 25.5602
Au 9.01312 13.2191 23.0181
Au 7.42425 12.3857 27.5241
Au 7.49961 14.365 29.5678
Au 9.49754 12.2884 29.5896
Au 9.54147 14.2293 27.563
Au 7.51798 12.4101 31.5759
Pd 7.59733 14.3508 33.544
Au 9.47974 12.3044 33.684
Au 9.60894 14.2579 31.6966
Au 7.92181 17.3544 4.97383
Au 9.86506 15.2791 4.91404
Au 7.82381 15.1351 6.70141
Au 7.68145 17.2298 8.94023
Au 9.63624 15.1978 8.94807
Au 9.69588 17.3056 6.95682
Pd 7.48494 15.0581 10.9059
Au 7.44069 17.1273 12.8621
Au 9.58111 15.1793 12.9094
Au 9.55428 17.2159 10.9677
Au 7.51383 15.0691 14.8781
Au 7.24578 17.1116 16.8607
Au 9.42756 15.1403 16.9617
Au 9.41359 17.1745 14.927
Au 7.18686 15.0825 18.8227
Au 6.98934 17.1119 20.8605
Au 9.10317 15.155 20.942
Au 9.19162 17.1344 18.9494
Au 6.89262 15.1369 22.8787
Au 6.86968 17.1095 24.9353
Au 8.93636 15.0971 24.9903
Au 8.98335 17.1066 22.9688
Pd 6.85956 15.1248 26.9213
Pd 6.94918 17.0667 28.9374
Au 9.64999 16.2384 29.6378
Au 8.9438 17.0296 26.9842
Au 7.67588 16.3165 31.6049
Au 7.7987 18.2667 33.6366
Pd 9.67639 16.2218 33.6321
Au 9.79038 18.2215 31.7281
Au 7.74239 21.4783 5.05863
Au 9.6332 19.4726 4.97985
Pd 7.8149 19.3525 7.05804
Au 7.55833 21.2591 9.04724
Pd 9.63127 19.3061 9.04866
Au 9.62445 21.4209 7.05095
Pd 7.51687 19.2009 10.9432
Au 7.34642 21.1622 12.9574
Pd 9.43373 19.1957 12.9655
Au 9.4937 21.2369 11.0493
Au 7.29503 19.1469 14.8967
Pd 7.20142 21.1458 16.9449
Au 9.24755 19.1588 16.973
Au 9.30529 21.1633 14.9976
Au 7.08586 19.1384 18.8939
Au 7.02254 21.1476 20.9615
Au 9.06477 19.1237 20.9752
Au 9.14011 21.1509 19.0211
Au 6.93376 19.116 22.9256
Au 6.97578 21.0953 24.9844
Au 8.98475 19.0767 24.9948
Au 9.04158 21.1124 22.9993
Au 6.94351 19.0819 26.9894
Pd 7.12146 21.0232 29.0171
Au 9.06477 18.9801 29.0089
Au 9.07549 21.0272 27.0386
Au 7.11892 19.0049 30.9648
Au 7.20921 20.9417 33.0363
Au 9.88263 20.1633 33.6903
Au 9.18464 20.9259 31.082
Au 7.59126 25.3951 5.20136
Au 9.60973 23.5104 5.11341
Au 7.63516 23.3559 7.13491
Au 7.46523 25.269 9.14729
Pd 9.53159 23.3137 9.12486
Pd 9.54812 25.3688 7.17829
Au 7.39888 23.2191 11.0515
Pd 7.31006 25.1767 13.0855
Au 9.36129 23.1934 13.0616
Au 9.42632 25.2374 11.1323
Au 7.24077 23.1655 15.0182
Pd 7.19853 25.1619 17.069
Au 9.20376 23.1548 17.0649
Au 9.26428 25.1768 15.1124
Au 7.10915 23.1467 19.0025
Au 7.10915 25.1138 21.0665
Pd 9.11255 23.124 21.0501
Au 9.18103 25.1393 19.1177
Pd 7.05995 23.1086 23.0115
Au 7.10959 25.0549 25.0781
Au 9.09259 23.0583 25.0494
Au 9.1425 25.0748 23.0774
Au 7.09095 23.0262 27.0672
Pd 7.23383 24.9231 29.084
Pd 9.20349 22.9418 29.0815
Au 9.18803 24.9863 27.1219
Pd 7.29389 22.9252 31.0341
Au 8.77687 25.457 33.8041
Pd 9.30582 22.8161 33.0988
Pd 9.34288 24.8184 31.1611
Pd 7.58244 29.2809 5.36239
Au 9.53645 27.3641 5.22996
Pd 7.57022 27.278 7.27243
Au 7.44104 29.18 9.27715
Pd 9.48845 27.2682 9.23511
Au 9.53565 29.2628 7.2776
Au 7.34605 27.1899 11.1771
Au 7.29495 29.1827 13.173
Au 9.33956 27.2119 13.1636
Pd 9.41444 29.2479 11.2414
Au 7.21382 27.1516 15.1126
Au 7.22675 29.1504 17.1453
Au 9.24336 27.1674 17.1506
Au 9.32533 29.2194 15.1861
Au 7.16786 27.1497 19.122
Pd 7.27253 29.1247 21.201
Au 9.20172 27.1234 21.1539
Au 9.28495 29.1622 19.1935
Au 7.17811 27.091 23.1327
Au 7.27478 29.0184 25.1881
Pd 9.21328 27.0109 25.1334
Pd 9.23005 29.1151 23.1959
Pd 7.22308 26.9489 27.1419
Pd 6.71019 27.5792 29.8275
Pd 9.29438 26.8616 29.1946
Au 9.31916 28.8961 27.2288
Au 6.77536 25.5733 31.7042
Au 8.1842 28.1019 34.4073
Au 10.8111 27.3856 33.8979
Au 10.7773 29.4126 31.8897
Au 7.50743 33.0769 5.53368
Au 9.50187 31.3007 5.3417
Au 7.55571 31.1671 7.38732
Pd 7.46101 33.1744 9.30401
Au 9.47525 31.3037 9.33842
Au 9.44303 33.2923 7.36661
Au 7.4178 31.1964 11.2433
Au 7.32698 33.2112 13.2145
Au 9.35822 31.3202 13.2271
Au 9.35164 33.3218 11.2884
Au 7.34562 31.1695 15.1843
Pd 7.31908 33.0774 17.2284
Au 9.32342 31.2653 17.2044
Au 9.25704 33.2736 15.2319
Au 7.33942 31.0867 19.1938
Au 7.31025 33.0034 21.2251
Au 9.26976 31.1605 21.2872
Au 9.23942 33.1784 19.2732
Au 7.20738 31.1345 23.2806
Au 4.26319 30.2242 28.6114
Au 9.29572 31.0316 25.2478
Au 9.25471 33.041 23.3422
Au 6.73355 29.5747 27.921
Au 8.07297 32.1661 30.7056
Pd 8.72061 29.536 29.9518
Au 6.1592 32.1798 28.667
Au 8.74581 27.5063 31.8577
Pd 10.1416 31.9964 32.5335
Pd 10.1915 29.9683 34.3622
Au 10.0883 33.9763 30.6616
Au 12.2479 4.80902 6.54326
Au 12.9902 5.29646 9.10301
Au 14.8971 5.59467 6.96123
Au 11.8285 4.68717 13.7689
Au 13.7799 4.7856 11.6967
Au 11.7307 4.98653 17.9563
Au 13.7011 4.88416 15.8992
Pd 11.1563 5.57689 22.1595
Au 13.0946 5.11675 20.3115
Au 11.066 5.89722 25.9236
Au 13.0749 5.5895 24.0857
Au 11.0968 6.13532 29.7618
Au 13.1002 5.88414 27.8787
Au 11.075 6.41637 33.4411
Au 13.1126 6.10748 31.713
Au 12.3452 9.30587 4.95556
Au 14.4755 7.48756 5.02058
Au 12.6223 7.35691 7.1063
Au 12.4085 9.37661 9.05041
Au 14.7163 7.52652 8.96162
Au 14.3034 9.54317 6.92086
Au 12.7321 7.33642 11.0404
Pd 12.3952 9.35277 13.0193
Au 13.5735 6.77213 13.6443
Pd 14.4468 9.52911 10.9454
Au 11.6868 6.77803 15.6806
Au 11.5485 9.04804 17.4965
Pd 13.5029 7.06108 17.7704
Au 13.4474 8.9502 15.5272
Au 11.4913 7.21596 19.7908
Au 11.3991 9.539 21.5852
Pd 13.1818 7.40196 21.9657
Au 13.4028 9.25909 19.6275
Au 11.2161 7.73274 23.8475
Au 11.3325 9.96716 25.6861
Pd 13.185 7.7393 25.8233
Au 13.2502 9.65729 23.7298
Au 11.2306 7.99815 27.7297
Au 11.3663 10.1523 29.622
Pd 13.2206 7.98685 29.7057
Pd 13.3036 9.90383 27.6649
Au 11.2239 8.24352 31.6111
Au 11.335 10.1793 33.6797
Pd 13.2048 8.11967 33.5933
Au 13.3402 10.0698 31.7213
Pd 11.8342 13.3357 5.00755
Au 13.956 11.5141 4.87965
Pd 12.1112 11.3386 6.98643
Pd 11.914 13.3491 8.95096
Pd 14.1204 11.5219 8.91674
Au 13.8424 13.4933 6.84871
Au 12.1363 11.3575 11.0062
Au 11.8213 13.3062 12.9719
Au 14.1149 11.473 12.9675
Au 13.9048 13.4617 10.9273
Au 11.9757 11.328 15.0279
Pd 11.5841 13.2572 17.0725
Au 13.4276 11.1691 17.3833
Pd 13.7477 13.3764 15.03
Au 11.4333 11.2855 19.2881
Au 11.2518 13.3179 21.1246
Au 13.3647 11.532 21.531
Au 13.3709 13.3104 19.2524
Au 11.4253 11.8946 23.5578
Pd 11.5066 14.0166 25.5528
Au 13.3696 11.8669 25.6097
Pd 13.4398 13.7284 23.4972
Pd 11.4522 12.099 27.5913
Au 11.5735 14.1272 29.6562
Au 13.4332 12.0089 29.6603
Au 13.5011 13.952 27.5938
Au 11.4816 12.1678 31.7506
Au 11.5758 14.1525 33.7495
Au 13.4694 12.0243 33.7495
Au 13.5622 14.0262 31.7907
Au 11.5859 17.4771 4.91272
Au 13.5888 15.5214 4.84573
Au 11.7259 15.3668 6.91962
Au 11.6218 17.3513 8.98345
Au 13.7361 15.4718 8.89155
Au 13.5733 17.5147 6.85794
Au 11.6999 15.3042 10.9408
Au 11.5439 17.2596 12.9628
Pd 13.6729 15.3647 12.9729
Pd 13.6003 17.3786 10.955
Au 11.5775 15.2317 14.9891
Au 11.3683 17.1987 17.0186
Au 13.4681 15.2776 17.0891
Au 13.4882 17.2785 15.0398
Pd 11.3175 15.2134 19.0429
Au 11.1591 17.1411 21.0312
Pd 13.2716 15.2721 21.1677
Au 13.3032 17.2172 19.0921
Au 11.1078 15.1706 23.0727
Au 11.0325 17.0562 25.0377
Au 13.5486 15.8476 25.5342
Au 13.1614 17.1673 23.1084
Au 11.6203 16.0972 27.6028
Au 11.7508 18.1354 29.7118
Au 13.6332 15.9972 29.6983
Au 13.6787 17.9738 27.6364
Au 11.6934 16.1356 31.7701
Au 11.7862 18.1183 33.7243
Au 13.6726 16.0362 33.7495
Pd 13.7495 18.0157 31.7581
Pd 11.5301 21.5566 5.10333
Au 13.4551 19.6234 4.92352
Au 11.568 19.4422 6.96055
Au 11.5363 21.3548 9.06396
Pd 13.5229 19.4116 8.97266
Pd 13.4731 21.5094 7.01605
Pd 11.5341 19.2892 11.0244
Pd 11.4207 21.222 13.0368
Au 13.4796 19.2997 13.0051
Pd 13.4651 21.3135 11.0482
Au 11.392 19.2142 15.0064
Au 11.2841 21.1673 17.0755
Pd 13.3455 19.2175 17.0885
Au 13.3781 21.2144 15.0816
Au 11.2309 19.1669 19.0393
Au 11.154 21.1499 21.0536
Au 13.1999 19.1793 21.0906
Pd 13.2541 21.1794 19.1151
Au 11.0788 19.1117 23.036
Au 11.1091 21.0666 25.0529
Au 13.1323 19.0703 25.0897
Au 13.1681 21.1361 23.0956
Au 11.0753 18.9838 27.0478
Au 11.1669 20.9196 29.0981
Au 13.8094 20.0353 29.7281
Au 13.1747 20.9804 27.0977
Pd 11.8691 20.1078 31.7513
Au 11.9933 22.0225 33.7248
Au 13.8761 19.993 33.7164
Pd 13.9468 21.9968 31.7556
Au 11.5291 25.4839 5.18663
Pd 13.4414 23.5824 5.1684
Pd 11.5155 23.4586 7.11789
Pd 11.4751 25.3329 9.16205
Au 13.4536 23.3881 9.08526
Pd 13.4674 25.4445 7.16834
Pd 11.4574 23.2669 11.1026
Au 11.3786 25.2206 13.1426
Au 13.4043 23.2257 13.1037
Au 13.4208 25.3023 11.1525
Au 11.3266 23.1768 15.0936
Au 11.2696 25.1783 17.1544
Au 13.3006 23.1867 17.1554
Au 13.3522 25.2284 15.1734
Au 11.2153 23.1537 19.1233
Pd 11.1993 25.1237 21.1254
Pd 13.2139 23.1488 21.1194
Au 13.2613 25.1831 19.1932
Au 11.1516 23.1021 23.0597
Au 11.1984 25.0282 25.1092
Pd 13.1914 23.0446 25.113
Au 13.2143 25.096 23.1237
Au 11.1804 22.9826 27.0986
Au 11.2643 24.8698 29.1611
Au 13.2794 22.8597 29.1438
Au 13.2679 24.9286 27.1565
Au 11.2818 22.8215 31.1601
Au 11.4171 24.6984 33.2483
Au 14.1214 23.9214 33.7343
Au 13.3768 24.7431 31.2063
Au 11.5056 29.3996 5.27714
Pd 13.4818 27.4826 5.29357
Au 11.4977 27.3503 7.21945
Pd 11.4581 29.3076 9.29101
Pd 13.4486 27.3515 9.21699
Au 13.4603 29.3866 7.27905
Au 11.4247 27.283 11.1965
Au 11.3677 29.3222 13.2193
Au 13.3853 27.3032 13.2113
Au 13.4089 29.3643 11.2589
Au 11.3329 27.2342 15.1875
Au 11.3172 29.2765 17.2132
Au 13.3062 27.2713 17.2135
Au 13.3284 29.3719 15.229
Au 11.2695 27.1843 19.1871
Au 11.2575 29.2029 21.2243
Au 13.2449 27.1866 21.1918
Pd 13.2579 29.3114 19.2244
Au 11.2062 27.1023 23.1534
Au 11.2656 29.0423 25.2046
Au 13.2566 27.0579 25.1757
Au 13.2552 29.1831 23.2362
Au 11.2752 26.9317 27.1714
Au 11.3698 28.8372 29.2344
Au 13.3397 26.8358 29.2012
Pd 13.3105 28.9847 27.2168
Au 11.3899 26.74 31.2657
Au 12.832 29.3373 33.8978
Au 13.4999 26.6547 33.3039
Au 13.4457 28.7364 31.3273
Au 11.4466 33.1986 5.5358
Au 13.4912 31.4172 5.38848
Au 11.4613 31.3263 7.36159
Au 11.4045 33.3932 9.32351
Au 13.4253 31.4293 9.33654
Au 13.4464 33.3703 7.37334
Au 11.4 31.3997 11.2823
Pd 11.3173 33.326 13.2636
Au 13.3576 31.4557 13.255
Au 13.3871 33.419 11.2918
Au 11.3209 31.3916 15.2336
Au 11.2423 33.3194 17.2501
Pd 13.2461 31.3859 17.2325
Au 13.2701 33.387 15.2505
Au 11.2655 31.3044 19.2393
Pd 11.2018 33.1327 21.3199
Au 13.2165 31.3 21.2525
Au 13.173 33.3105 19.2619
Pd 11.2763 31.1553 23.2815
Au 8.70932 33.5508 26.106
Au 11.3776 31.0053 27.2675
Au 11.3112 33.0922 25.3269
Au 8.73451 31.5497 27.9998
Au 8.16252 34.0435 28.753
Au 13.4022 30.8926 29.3531
Au 10.7496 33.6225 28.0526
Au 10.7432 31.4887 29.967
Pd 12.7393 31.3687 32.0524
Au 14.9288 31.1152 33.7692
Au 12.7178 33.4308 30.1691
Pd 16.7642 6.05701 4.97469
Pd 15.7849 5.01241 9.51954
Au 17.7161 5.2531 7.34414
Pd 15.595 4.9177 13.8398
Au 17.3962 4.8279 11.7817
Pd 14.895 4.87427 18.3581
Pd 16.6747 4.63901 16.3858
Pd 15.023 5.31942 22.1863
Pd 16.9047 5.03931 20.2048
Au 15.0695 5.61863 25.9822
Au 17.0366 5.33291 24.0353
Au 15.1182 5.88996 29.8274
Pd 17.1116 5.69392 27.8876
Au 15.1605 6.21557 33.5242
Au 17.197 5.91146 31.7524
Pd 16.0976 9.68951 4.85085
Au 18.3777 8.17873 4.62303
Pd 16.6032 7.8476 6.87775
Au 16.4061 9.76421 8.83113
Au 17.5418 7.06693 9.38261
Au 18.3075 10.0466 6.58661
Au 15.535 6.8547 11.5558
Au 15.3586 8.92905 13.4947
Au 17.422 6.95684 13.629
Au 17.3033 9.01468 11.4011
Au 15.4826 6.96244 15.7301
Au 15.3938 9.1019 17.5991
Pd 16.8444 6.80625 18.117
Au 17.3815 9.05506 15.5219
Pd 15.0305 7.07495 20.0448
Au 15.1726 9.36558 21.7934
Au 17.0381 7.1622 21.9411
Au 17.0293 9.08412 19.8297
Pd 15.1278 7.46487 23.9104
Au 15.2305 9.65894 25.706
Au 17.1434 7.46739 25.81
Au 17.1719 9.4288 23.723
Pd 15.1755 7.74528 27.7708
Au 15.3044 9.88158 29.6564
Au 17.2306 7.7373 29.7112
Au 17.2678 9.65937 27.6561
Au 15.2376 7.99403 31.6626
Au 15.3625 9.92992 33.6986
Au 17.3093 7.91638 33.6476
Au 17.3626 9.84969 31.7113
Au 15.6651 13.6708 4.71203
Au 17.7614 11.8711 4.57647
Au 16.0046 11.6963 6.74586
Au 15.8915 13.6274 8.80051
Au 18.1785 11.9319 8.65138
Pd 17.7304 13.8046 6.59557
Au 16.1964 11.6753 10.8568
Au 15.8983 13.5548 12.947
Au 17.2362 11.0464 13.3792
Au 18.0287 13.7874 10.7588
Au 15.3406 11.0703 15.4144
Au 15.367 13.2292 17.3061
Au 17.3133 11.1677 17.4588
Au 17.2919 13.1536 15.331
Au 15.3478 11.3011 19.511
Au 15.3479 13.4534 21.4417
Pd 17.1893 11.3511 21.619
Pd 17.2912 13.2934 19.3965
Pd 15.2782 11.5944 23.6167
Pd 15.4103 13.7316 25.5561
Au 17.2919 11.6049 25.5886
Au 17.3047 13.4931 23.4994
Au 15.366 11.8196 27.615
Au 15.5075 13.8968 29.686
Au 17.3982 11.7939 29.6565
Au 17.42 13.7351 27.5918
Au 15.4445 11.9214 31.7626
Pd 15.5735 13.9206 33.6765
Pd 17.4913 11.8309 33.629
Au 17.5318 13.8239 31.726
Au 15.4244 17.6882 4.77082
Au 17.4275 15.8151 4.58043
Au 15.6468 15.6374 6.72974
Pd 15.5822 17.5375 8.84345
Pd 17.6682 15.6881 8.70572
Pd 17.4653 17.7127 6.67814
Au 15.7335 15.5273 10.8803
Au 15.5644 17.3749 12.9891
Au 17.7866 15.5573 12.917
Au 17.6146 17.5103 10.8559
Au 15.5916 15.385 15.0648
Pd 15.4096 17.2868 17.1264
Au 17.3309 15.255 17.2717
Au 17.5177 17.3666 15.0864
Au 15.3491 15.298 19.2329
Au 15.2871 17.2702 21.1814
Au 17.3386 15.3978 21.348
Pd 17.3324 17.2861 19.2218
Au 15.4267 15.5896 23.4373
Au 15.5558 17.7329 25.5272
Au 17.4292 15.6287 25.5182
Au 17.4406 17.5166 23.3895
Pd 15.5393 15.8152 27.6097
Au 15.675 17.8635 29.6798
Pd 17.5538 15.7719 29.6469
Au 17.5656 17.6948 27.5621
Au 15.6325 15.9144 31.7657
Au 15.7672 17.9082 33.7189
Au 17.6753 15.8049 33.6822
Au 17.7022 17.7846 31.7009
Au 15.3606 21.6953 4.96414
Au 17.3256 19.793 4.75827
Au 15.449 19.5932 6.84682
Au 15.4529 21.4504 8.99025
Au 17.4936 19.5413 8.84346
Au 17.4215 21.6317 6.86211
Au 15.503 19.3977 10.9656
Pd 15.4437 21.2944 13.0708
Au 17.507 19.3827 13.0295
Au 17.4893 21.4069 11.033
Au 15.4297 19.2846 15.0903
Au 15.3312 21.232 17.15
Au 17.3774 19.2751 17.1622
Au 17.4115 21.301 15.1433
Au 15.2983 19.2262 19.1317
Au 15.244 21.1903 21.1425
Au 17.3282 19.2642 21.2065
Au 17.3178 21.2509 19.1812
Au 15.2461 19.2066 23.1566
Au 15.2222 21.1064 25.1306
Au 17.5554 19.616 25.445
Pd 17.3109 21.1972 23.1762
Au 15.6936 19.8735 27.6122
Pd 15.8469 21.9195 29.6847
Au 17.704 19.7586 29.6132
Au 17.6936 21.7212 27.5402
Au 15.8085 19.8984 31.7379
Au 15.9877 21.8909 33.6702
Au 17.8654 19.8021 33.6347
Au 17.8657 21.7862 31.6375
Au 15.4202 25.5791 5.16766
Au 17.3946 23.7109 4.99975
Pd 15.4366 23.5337 7.04897
Au 15.4561 25.4006 9.14657
Au 17.4851 23.4623 9.0626
Au 17.4672 25.5154 7.09816
Au 15.4451 23.3295 11.1084
Au 15.4133 25.2887 13.1864
Au 17.4461 23.3091 13.1507
Au 17.4905 25.3498 11.1965
Au 15.3804 23.2398 15.153
Au 15.3188 25.2451 17.2037
Pd 17.3433 23.2688 17.1998
Au 17.3796 25.2974 15.2295
Au 15.2744 23.2102 19.182
Pd 15.2479 25.1894 21.1879
Au 17.2778 23.212 21.2023
Au 17.2796 25.2675 19.2232
Au 15.2236 23.1251 23.1387
Au 15.2367 25.031 25.1628
Au 17.3024 23.0895 25.1544
Au 17.2576 25.1779 23.198
Pd 15.2516 22.9528 27.1427
Pd 15.3261 24.8223 29.1435
Pd 17.857 23.7784 29.5877
Au 17.3118 24.9783 27.1347
Pd 16.0004 23.8854 31.6889
Au 16.2168 25.8237 33.673
Pd 18.0736 23.7823 33.5191
Au 18.0482 25.7845 31.6023
Pd 15.5025 29.5155 5.39436
Pd 17.4892 27.5791 5.30256
Au 15.462 27.4444 7.20116
Au 15.456 29.3772 9.31171
Au 17.5008 27.3871 9.2579
Au 17.5183 29.4363 7.31706
Au 15.4404 27.3426 11.2398
Au 15.3839 29.4136 13.2585
Au 17.4277 27.3622 13.2641
Au 17.4576 29.411 11.3367
Au 15.3499 27.3295 15.2252
Au 15.2608 29.4005 17.231
Au 17.2962 27.3517 17.2413
Au 17.3251 29.4416 15.2542
Au 15.2546 27.2806 19.2235
Au 15.2235 29.3041 21.2279
Au 17.2335 27.2879 21.2333
Au 17.2091 29.4111 19.2249
Au 15.2491 27.1787 23.2058
Pd 15.252 29.1366 25.2406
Au 17.2504 27.1407 25.2079
Pd 17.1938 29.2899 23.2513
Au 15.279 26.9716 27.1662
Au 15.3267 28.8455 29.1941
Au 17.3662 26.8599 29.0919
Pd 17.25 29.0468 27.2139
Au 15.4245 26.7073 31.1946
Au 15.5981 28.5594 33.2813
Pd 18.331 27.7668 33.5001
Au 17.4813 28.721 31.1295
Au 15.5239 33.2426 5.62013
Au 17.585 31.4663 5.4902
Au 15.4838 31.3819 7.40967
Pd 15.4458 33.3573 9.33149
Au 17.4921 31.4355 9.38248
Au 17.5508 33.3632 7.45982
Au 15.4166 31.4661 11.3063
Pd 15.3414 33.3819 13.2571
Pd 17.3593 31.4598 13.2867
Pd 17.4269 33.3571 11.3069
Au 15.2932 31.4749 15.2443
Pd 15.172 33.3615 17.2245
Pd 17.2058 31.4858 17.2173
Au 17.2369 33.4489 15.2181
Au 15.1788 31.4214 19.2107
Au 13.2129 33.1738 23.3133
Au 15.1986 31.2725 23.2712
Pd 15.1081 33.2801 21.2638
Au 13.2897 31.1334 25.2899
Au 13.3739 33.0126 27.4368
Au 17.1497 31.2205 25.2904
Pd 15.1846 33.0873 25.3539
Pd 15.2668 31.0136 27.305
Au 15.3807 32.891 29.4442
Au 17.2809 30.91 29.2756
Pd 17.133 33.0265 27.3715
Pd 15.4517 30.6328 31.2643
Au 14.7532 33.1253 32.019
Au 17.6812 30.481 33.2074
Au 17.3976 32.5678 31.5423
Au 19.4375 5.6767 5.14412
Au 19.0854 4.8064 9.69216
Au 20.6422 4.97878 7.47292
Au 18.4431 4.47453 14.3332
Au 20.2126 4.43523 12.2254
Au 18.7744 4.74588 18.1993
Au 20.6513 4.59658 16.1025
Pd 18.988 5.15108 22.0116
Pd 20.9254 4.95547 19.9499
Au 19.1092 5.38669 25.9042
Au 21.0918 5.19531 23.8448
Au 19.1897 5.68748 29.8205
Au 21.1735 5.47689 27.8134
Au 19.2912 6.07325 33.492
Au 21.2627 5.78364 31.6743
Au 20.0865 10.4438 4.37357
Au 21.1063 7.81981 4.74546
Pd 19.3851 7.45818 7.11183
Au 19.2322 9.26863 9.1824
Pd 20.833 6.99026 9.40467
Au 21.1069 9.652 6.80859
Pd 19.2154 6.94545 11.5559
Pd 19.2831 9.07375 13.4204
Au 20.3704 6.51229 14.0657
Au 21.0497 9.10279 11.3031
Au 18.6101 6.58838 16.1313
Pd 18.8431 8.8672 17.8618
Au 20.7919 6.72206 17.8797
Au 20.6053 8.73561 15.8549
Au 18.9268 6.91102 19.9175
Au 19.0761 9.18199 21.7076
Au 21.0342 7.01924 21.7505
Au 20.9606 8.97883 19.6553
Au 19.1063 7.22192 23.8146
Au 19.2159 9.45837 25.6521
Au 21.1656 7.30149 25.7126
Au 21.1318 9.25025 23.5995
Au 19.2136 7.50724 27.7249
Au 19.3188 9.71179 29.6022
Au 21.2591 7.5981 29.6225
Pd 21.2466 9.51122 27.5705
Pd 19.3033 7.84841 31.6006
Au 19.4298 9.78585 33.6239
Au 21.3754 7.8096 33.5535
Au 21.3749 9.72922 31.6055
Au 19.4646 13.9823 4.37266
Au 21.8668 12.7063 4.26009
Pd 20.0376 12.2739 6.4316
Au 19.9612 14.099 8.56785
Au 20.9743 11.4452 8.99558
Au 21.8715 14.4691 6.37307
Au 19.1136 11.1631 11.2577
Au 19.1675 13.1489 13.2846
Au 21.1606 11.1695 13.2677
Au 20.9588 13.3097 11.1445
Au 19.2767 11.1355 15.3803
Pd 19.2439 13.1885 17.3645
Au 20.9067 10.9984 17.6082
Pd 21.1773 13.157 15.2929
Au 19.0528 11.1507 19.6025
Au 19.2138 13.3146 21.4489
Au 21.1145 11.2046 21.4917
Au 21.131 13.1758 19.414
Pd 19.2101 11.3885 23.5531
Au 19.3224 13.5343 25.5013
Au 21.2271 11.4338 25.5058
Au 21.2381 13.366 23.3994
Pd 19.3151 11.6213 27.5657
Au 19.4482 13.7126 29.5918
Au 21.3578 11.6439 29.5484
Au 21.34 13.5655 27.4871
Au 19.4496 11.7629 31.6729
Au 19.5968 13.7397 33.6197
Pd 21.5128 11.7191 33.4878
Pd 21.502 13.6656 31.5555
Au 19.2904 17.9089 4.50111
Au 21.2604 16.0108 4.19734
Au 19.4756 15.8541 6.44632
Au 19.5233 17.6404 8.67424
Au 21.8893 16.1887 8.6435
Au 21.3835 17.7669 6.3787
Pd 19.881 15.8363 10.767
Au 19.658 17.5492 12.9628
Pd 21.0856 15.2223 13.225
Au 21.7628 17.8432 10.884
Au 19.2687 15.1837 15.2734
Au 19.323 17.2556 17.2433
Au 21.2254 15.1547 17.2857
Au 21.238 17.2365 15.2361
Au 19.2776 15.2624 19.3217
Au 19.3597 17.3472 21.3074
Pd 21.2593 15.2887 21.3321
Au 21.3033 17.2227 19.2599
Au 19.3443 15.4525 23.3998
Au 19.4635 17.5551 25.4188
Au 21.3539 15.4827 25.3786
Pd 21.3713 17.3745 23.2977
Pd 19.453 15.6348 27.5196
Au 19.5897 17.6512 29.5526
Pd 21.4894 15.6114 29.5082
Au 21.4795 17.5421 27.3927
Au 19.6011 15.6987 31.6419
Pd 19.748 17.7099 33.5381
Au 21.6581 15.6372 33.5223
Au 21.6418 17.6175 31.5406
Au 19.3829 21.8213 4.82038
Au 21.3405 19.9109 4.55256
Au 19.4115 19.7005 6.65415
Au 19.4872 21.5143 8.92221
Pd 21.4385 19.53 8.70237
Au 21.4358 21.6277 6.77462
Au 19.5325 19.4827 10.9171
Au 19.4847 21.3839 13.1237
Pd 21.5368 19.5326 13.1167
Au 21.4614 21.4094 11.0584
Au 19.4709 19.3752 15.1321
Au 19.375 21.298 17.2014
Pd 21.3188 19.264 17.2314
Pd 21.4113 21.3694 15.2477
Au 19.3449 19.2654 19.2206
Au 19.3532 21.2485 21.2262
Au 21.3875 19.2778 21.2434
Au 21.3624 21.2607 19.2283
Pd 19.4511 19.4099 23.3179
Au 19.566 21.4445 25.3261
Pd 21.4951 19.4249 25.2886
Au 21.4805 21.3092 23.2069
Pd 19.5806 19.5902 27.4499
Au 19.7333 21.6385 29.4807
Au 21.6262 19.5541 29.4052
Au 21.6299 21.4531 27.2615
Pd 19.7427 19.6829 31.5707
Au 19.9159 21.6974 33.5266
Au 21.7971 19.6226 33.4779
Au 21.7827 21.5651 31.4557
Au 19.4996 25.6852 5.13308
Pd 21.4834 23.7645 5.03865
Au 19.4668 23.604 6.96926
Pd 19.4981 25.4259 9.18631
Au 21.4704 23.4469 9.08184
Au 21.5166 25.5387 7.14563
Pd 19.4876 23.3834 11.1389
Au 19.4494 25.3191 13.2672
Pd 21.4404 23.3445 13.2845
Au 21.4626 25.3248 11.322
Au 19.4131 23.3195 15.2312
Au 19.3364 25.3298 17.2659
Au 21.3521 23.3323 17.2888
Pd 21.3824 25.3446 15.3487
Au 19.3213 23.2852 19.2291
Au 19.2836 25.2851 21.2325
Au 21.377 23.2767 21.2029
Pd 21.2811 25.3624 19.2986
Au 19.36 23.2186 23.1907
Au 19.3772 25.1931 25.1451
Au 21.5824 23.3644 25.167
Au 21.3738 25.3113 23.168
Au 19.7003 23.5587 27.3627
Au 19.87 25.6447 29.3861
Au 21.7736 23.5224 29.2746
Au 21.7058 25.4562 27.1274
Au 19.9234 23.6733 31.4914
Pd 20.1618 25.6848 33.3402
Au 21.9627 23.6064 33.3582
Pd 21.9585 25.5424 31.2466
Au 19.588 29.5614 5.4046
Au 21.6179 27.6343 5.31774
Au 19.5278 27.4858 7.23524
Au 19.5205 29.3587 9.43011
Au 21.5105 27.355 9.38639
Au 21.6078 29.4052 7.45561
Pd 19.4726 27.3472 11.3446
Pd 19.3933 29.4405 13.3388
Au 21.4213 27.3403 13.4064
Au 21.4715 29.3633 11.4832
Au 19.3656 27.3797 15.2936
Au 19.2506 29.473 17.2704
Au 21.2894 27.4355 17.3595
Au 21.3202 29.4776 15.3702
Au 19.2568 27.3808 19.2609
Au 19.1551 29.4299 21.2479
Au 21.1988 27.4156 21.2663
Pd 21.1426 29.5382 19.2904
Au 19.2334 27.2914 23.2427
Au 19.1824 29.2362 25.2605
Pd 21.3708 27.3133 25.126
Au 21.0956 29.4547 23.288
Pd 19.3775 27.0823 27.0756
Au 19.4308 28.9288 29.019
Au 21.9263 27.4926 29.1126
Au 21.3907 29.2783 27.0681
Au 20.1241 27.6727 31.3957
Au 20.4903 29.631 33.2893
Pd 22.2111 27.5297 33.1153
Pd 22.1956 29.5044 30.9881
Au 19.6927 33.1831 5.81485
Au 21.7045 31.3842 5.63028
Pd 19.5908 31.3074 7.55876
Au 19.5573 33.3588 9.38406
Pd 21.5788 31.3206 9.5402
Pd 21.7215 33.1655 7.63573
Au 19.4543 31.4601 11.3744
Pd 19.3445 33.4045 13.2839
Au 21.3876 31.5109 13.3836
Au 21.5128 33.389 11.3531
Au 19.2646 31.5321 15.2751
Au 17.0565 33.4599 19.196
Au 19.0972 31.557 19.2038
Au 19.1132 33.5328 17.1961
Au 17.1245 31.4377 21.2248
Pd 17.026 33.2984 23.2831
Au 20.9566 31.642 21.2162
Au 18.9176 33.5513 21.1771
Au 19.0351 31.4631 23.2471
Au 18.8892 33.3936 25.3003
Au 20.9437 31.5157 25.2698
Au 20.7219 33.6798 23.1772
Au 19.1391 31.1846 27.2842
Pd 19.0616 32.9518 29.4209
Au 21.3885 31.2687 29.0128
Au 20.7359 33.4585 27.3278
Au 19.5407 30.7161 31.0106
Pd 19.8282 32.264 33.013
Au 22.5504 31.5703 32.659
Au 21.3269 33.1417 30.9277
Au 22.2119 5.34746 5.26213
Au 21.8659 4.49678 10.0051
Au 23.4304 4.67957 7.72366
Au 22.48 4.58405 13.9332
Au 24.1674 4.64978 11.6684
Au 22.871 4.77335 17.8519
Au 24.7485 4.76988 15.6617
Pd 23.0572 5.10045 21.7468
Au 25.0562 4.97116 19.6084
Au 23.1071 5.3066 25.7826
Au 24.9945 5.14776 23.7274
Pd 23.2198 5.6383 29.6814
Pd 25.1191 5.47924 27.6373
Pd 23.3586 5.95535 33.3884
Au 25.2771 5.69161 31.5038
Au 22.8363 10.0444 4.53062
Pd 23.9254 7.52338 4.91737
Au 22.3659 7.21189 7.1557
Au 22.672 9.22692 9.09916
Au 23.6666 6.62358 9.70139
Pd 24.2218 9.44218 6.84486
Au 22.0647 6.51142 11.9228
Au 22.3331 8.67355 13.7951
Au 24.3838 6.65698 13.6192
Au 23.9845 8.7212 11.6348
Au 22.6369 6.63108 15.799
Au 22.8161 8.85884 17.6034
Au 24.858 6.78246 17.5524
Au 24.6241 8.79982 15.5057
Au 22.9561 6.86069 19.6565
Au 23.0482 9.07627 21.5095
Au 25.026 7.01821 21.5212
Au 24.9518 8.95494 19.4179
Au 23.093 7.13339 23.6402
Au 23.1683 9.33719 25.5171
Pd 25.0832 7.27307 25.558
Au 25.0939 9.19477 23.43
Pd 23.1815 7.43913 27.5968
Au 23.2954 9.60169 29.49
Au 25.229 7.52117 29.4653
Au 25.1949 9.4289 27.4071
Au 23.3262 7.7217 31.5109
Pd 23.4467 9.71395 33.4363
Au 25.3949 7.73348 33.4057
Au 25.3633 9.66116 31.4495
Pd 23.7599 14.9447 4.37107
Au 24.5881 12.2176 4.44322
Au 22.8349 11.8174 6.68371
Au 22.7878 13.5647 8.96055
Au 24.5891 11.4458 8.85731
Au 24.6708 13.8956 6.74658
Au 22.9224 11.2863 11.0783
Au 23.0058 13.2489 13.1507
Au 24.3588 10.841 13.5156
Au 24.8076 13.3828 10.9676
Pd 22.6652 10.8689 15.5937
Pd 22.9768 13.0314 17.389
Au 24.8465 10.9468 17.3604
Au 24.7503 12.9648 15.319
Pd 23.0062 11.0562 19.4393
Au 23.1606 13.225 21.3276
Au 25.0782 11.1266 21.3238
Au 25.062 13.0688 19.2628
Au 23.1601 11.2708 23.4141
Au 23.2701 13.4019 25.3479
Pd 25.1986 11.3483 25.3263
Au 25.2103 13.2465 23.245
Au 23.2788 11.4952 27.437
Au 23.4044 13.5657 29.4631
Pd 25.3331 11.5523 29.3912
Au 25.3301 13.4319 27.3077
Pd 23.4261 11.648 31.4865
Pd 23.5745 13.6214 33.3867
Au 25.4925 11.6413 33.3795
Au 25.4912 13.5426 31.3963
Au 23.2317 17.9211 4.25424
Pd 25.7504 17.0066 4.57564
Au 23.8803 16.5904 6.55436
Au 23.8817 18.2167 8.85758
Au 24.7583 15.5764 9.07245
Pd 25.892 18.5366 6.85851
Pd 22.8905 15.358 11.162
Au 23.0939 17.256 13.2491
Pd 24.9514 15.1963 13.1288
Au 24.9815 17.3373 11.2976
Pd 23.089 15.1495 15.2199
Au 23.2245 17.1486 17.2182
Au 25.062 15.0232 17.2158
Au 25.1428 17.0896 15.1658
Pd 23.1809 15.1413 19.2802
Au 23.3115 17.1963 21.2239
Pd 25.2389 15.141 21.1927
Au 25.2828 17.0599 19.1623
Pd 23.2772 15.3084 23.2676
Au 23.3966 17.3878 25.2399
Au 25.3371 15.3172 25.2004
Au 25.3685 17.2041 23.1293
Au 23.3896 15.4821 27.3583
Au 23.5444 17.5147 29.3605
Au 25.4896 15.4693 29.3132
Au 25.4776 17.3775 27.184
Au 23.5575 15.5762 31.476
Au 23.7351 17.5764 33.4183
Au 25.6744 15.5499 33.3179
Au 25.6619 17.4987 31.3258
Au 23.417 21.8213 4.77722
Pd 25.2639 19.807 4.56144
Au 23.3592 19.6144 6.50841
Au 23.387 21.3632 8.88901
Pd 25.8418 20.1247 9.1874