1687
Atoms. Timestep: 20263
Au 5.69145 5.55796 7.50974
Au 5.63842 5.50633 11.3631
Au 5.60377 5.50318 15.3133
Au 5.57672 5.50887 19.3411
Au 5.60853 5.5207 23.3596
Au 5.59282 5.64924 27.2596
Au 6.36326 5.35358 31.2857
Pd 5.65354 7.4708 5.66591
Au 5.45355 7.40099 9.43198
Au 5.43945 9.40182 7.48173
Pd 5.50763 7.36616 13.3384
Au 5.37986 9.36261 11.3908
Au 5.41166 7.32309 17.3068
Pd 5.40619 9.30347 15.3107
Au 5.41363 7.32875 21.3497
Au 5.30875 9.27025 19.3212
Au 5.45537 7.40295 25.3033
Pd 5.40998 9.30272 23.3328
Pd 5.82097 7.28076 29.3927
Pd 5.5402 9.22835 27.3866
Pd 6.26778 7.26549 33.1525
Pd 5.78581 9.2175 31.2989
Au 5.54664 11.3197 5.58651
Pd 5.41806 11.3701 9.40931
Au 5.38968 13.3307 7.39614
Au 5.30678 11.3234 13.3215
Au 5.30845 13.3282 11.3552
Au 5.24734 11.2723 17.2962
Au 5.21282 13.2897 15.2791
Au 5.24009 11.268 21.343
Au 5.15698 13.2638 19.3167
Pd 5.37333 11.2483 25.3863
Au 5.1952 13.2486 23.3846
Au 5.45543 11.2245 29.3724
Au 5.30057 13.268 27.3863
Au 5.59405 11.3136 33.0127
Au 5.40985 13.323 31.2594
Au 5.5419 15.3349 5.54955
Au 5.31689 15.3264 9.34415
Au 5.40037 17.3382 7.36963
Au 5.22407 15.3126 13.2781
Au 5.25423 17.3371 11.2892
Au 5.12595 15.287 17.2948
Au 5.13824 17.3214 15.2749
Au 5.11245 15.2701 21.3469
Au 5.08584 17.3048 19.3166
Au 5.1944 15.2785 25.4123
Au 5.1133 17.2998 23.3757
Au 5.32571 15.3318 29.3448
Au 5.24153 17.3189 27.4
Au 5.56111 15.3166 33.0997
Au 5.37996 17.3374 31.3009
Pd 5.58783 19.3329 5.56262
Au 5.31768 19.3353 9.29794
Au 5.4196 21.3177 7.36184
Au 5.18335 19.3421 13.2688
Au 5.26437 21.3197 11.2826
Au 5.10967 19.3497 17.2965
Au 5.17244 21.3434 15.3048
Au 5.08683 19.3369 21.3351
Au 5.11883 21.3536 19.2987
Au 5.15672 19.3342 25.3907
Au 5.13137 21.3607 23.35
Au 5.31447 19.3454 29.3765
Au 5.24348 21.3504 27.4008
Au 5.5463 19.37 33.0939
Pd 5.47288 21.3663 31.2585
Au 5.57859 23.3097 5.5394
Pd 5.39639 23.3019 9.30776
Au 5.43263 25.2928 7.36841
Pd 5.28299 23.3027 13.3047
Au 5.29773 25.2605 11.3289
Pd 5.22434 23.3345 17.305
Au 5.23146 25.2873 15.3158
Au 5.13788 23.3543 21.3228
Au 5.19403 25.3368 19.3078
Au 5.20676 23.3529 25.3479
Au 5.21333 25.3387 23.3178
Au 5.35665 23.3414 29.3475
Au 5.30763 25.3249 27.3402
Au 5.60295 23.3441 33.0753
Au 5.44981 25.3035 31.2513
Au 5.63676 27.2535 5.55559
Au 5.35897 27.2276 9.35695
Au 5.46993 29.1655 7.42442
Au 5.2651 27.2485 13.3279
Au 5.34527 29.2355 11.3531
Au 5.22809 27.306 17.3159
Au 5.28689 29.3228 15.3084
Pd 5.30283 27.3416 21.3163
Au 5.29314 29.3319 19.3265
Au 5.28819 27.3048 25.3088
Au 5.3251 29.3175 23.3014
Au 5.4058 27.2688 29.2794
Au 5.38436 29.2364 27.2862
Au 5.63403 27.2831 33.0815
Au 5.48092 29.2318 31.2018
Au 5.659 31.0837 5.60228
Pd 5.50818 31.1271 9.37776
Au 5.64347 32.9581 7.4525
Au 5.38686 31.2661 13.2949
Au 5.58285 33.0504 11.2911
Au 5.35523 31.2908 17.3163
Pd 5.54746 33.0835 15.2973
Au 5.36719 31.2729 21.3126
Au 5.51887 33.1013 19.3137
Au 5.40315 31.2473 25.3199
Au 5.53222 33.0833 23.3202
Au 5.46314 31.1658 29.2224
Au 5.59186 33.075 27.3198
Au 5.69642 31.1514 33.0236
Pd 5.66697 32.9863 31.1236
Au 7.53216 5.6026 5.63187
Au 7.51076 5.39044 9.42755
Pd 9.46437 5.47262 7.4559
Au 7.44758 5.3576 13.3548
Pd 9.43032 5.3781 11.4026
Au 7.39853 5.35129 17.3354
Pd 9.36799 5.35156 15.3561
Au 7.42027 5.37322 21.3424
Au 9.35621 5.30761 19.3536
Au 7.45695 5.39876 25.3159
Pd 9.38694 5.39176 23.3006
Au 7.60267 5.274 28.9674
Au 9.54761 5.2828 27.1216
Au 8.23683 5.46154 33.1558
Au 9.49978 5.15577 30.8974
Au 7.45898 9.41034 5.42774
Au 9.44144 7.43762 5.40622
Au 7.53613 7.48767 7.51592
Au 7.39267 9.42958 9.4614
Au 9.48844 7.3635 9.45234
Au 9.47224 9.44097 7.35839
Au 7.4596 7.39326 11.3976
Au 7.35371 9.38734 13.358
Au 9.42231 7.30586 13.3865
Au 9.42595 9.39563 11.4284
Au 7.42659 7.36913 15.338
Au 7.30256 9.34161 17.3261
Au 9.37985 7.27799 17.3484
Pd 9.35379 9.34408 15.347
Au 7.40932 7.36109 19.3354
Au 7.3022 9.34273 21.3153
Pd 9.37907 7.31785 21.3103
Pd 9.33172 9.33775 19.3226
Au 7.44778 7.3747 23.3199
Au 7.37376 9.357 25.3059
Pd 9.46683 7.3276 25.2516
Au 9.37251 9.35506 23.3011
Pd 7.56315 7.39466 27.2137
Au 7.56568 9.35167 29.2495
Pd 9.5517 7.29658 29.0744
Au 9.47418 9.38419 27.2133
Au 7.93938 7.42068 31.1893
Au 7.5814 9.54305 33.3193
Pd 9.54337 7.69744 33.38
Pd 9.56066 9.53084 31.3246
Au 7.37516 13.3261 5.38692
Au 9.40565 11.3795 5.33859
Au 7.42508 11.3794 7.42186
Au 7.31035 13.3571 9.41147
Au 9.41328 11.4079 9.39754
Au 9.40221 13.3496 7.306
Pd 7.32855 11.3813 11.4125
Pd 7.23766 13.3437 13.3348
Pd 9.32801 11.3679 13.3815
Au 9.31487 13.3591 11.3854
Au 7.24643 11.3481 15.3172
Au 7.13888 13.3208 17.3208
Au 9.26711 11.351 17.3323
Au 9.23598 13.3487 15.3379
Au 7.19761 11.3246 19.3181
Au 7.12291 13.313 21.3234
Au 9.26396 11.3583 21.3019
Pd 9.19337 13.3415 19.3132
Au 7.23321 11.3406 23.334
Au 7.19229 13.3239 25.3502
Pd 9.32789 11.3736 25.2895
Au 9.2303 13.3455 23.3255
Au 7.32888 11.3307 27.3085
Au 7.32793 13.3499 29.2846
Au 9.4706 11.4078 29.2545
Au 9.33105 13.3593 27.268
Au 7.51413 11.3778 31.2512
Pd 7.41655 13.3323 33.1978
Au 9.4769 11.4551 33.3829
Au 9.44073 13.3935 31.3701
Au 7.37271 17.3341 5.38739
Au 9.32749 15.3254 5.30875
Au 7.38822 15.3326 7.39354
Au 7.28695 17.3475 9.36735
Au 9.35085 15.3468 9.36038
Au 9.35679 17.3458 7.28851
Pd 7.24551 15.3457 11.3514
Au 7.14919 17.3483 13.3013
Au 9.22716 15.3557 13.335
Au 9.27083 17.3659 11.3407
Au 7.1185 15.3252 15.3075
Au 7.05042 17.3194 17.3183
Au 9.17262 15.3212 17.3379
Au 9.16525 17.3407 15.3212
Au 7.06817 15.3035 19.3221
Au 7.02884 17.3085 21.3285
Au 9.15603 15.3117 21.3051
Au 9.12115 17.3074 19.3262
Au 7.08191 15.3048 23.343
Au 7.10812 17.3149 25.3517
Au 9.21885 15.3346 25.313
Au 9.14148 17.3121 23.3112
Pd 7.2321 15.3344 27.3343
Pd 7.29233 17.3382 29.3147
Au 9.35092 15.3668 29.3117
Au 9.24671 17.3399 27.3145
Au 7.39895 15.3533 31.2685
Au 7.35677 17.3473 33.2756
Pd 9.33957 15.3728 33.292
Au 9.37399 17.3654 31.384
Au 7.40435 21.3208 5.39212
Au 9.32247 19.3386 5.31693
Pd 7.41961 19.3272 7.40747
Au 7.3134 21.292 9.35713
Pd 9.34534 19.322 9.34496
Au 9.37691 21.3073 7.31564
Pd 7.23515 19.3294 11.3233
Au 7.16672 21.2912 13.3112
Pd 9.21461 19.3218 13.3188
Au 9.29774 21.2754 11.3311
Au 7.09073 19.3292 15.313
Pd 7.10473 21.3151 17.3192
Au 9.12441 19.3186 17.3347
Au 9.17253 21.2881 15.3195
Au 7.02826 19.33 19.3192
Au 7.05483 21.3423 21.3274
Au 9.11077 19.3155 21.3168
Au 9.12111 21.3188 19.3375
Au 7.05066 19.3249 23.3328
Au 7.11788 21.3375 25.3251
Au 9.17829 19.3306 25.3106
Au 9.14714 21.3297 23.2949
Au 7.17967 19.3345 27.3485
Pd 7.32535 21.341 29.3
Au 9.33309 19.3365 29.3237
Au 9.26399 21.3294 27.3135
Au 7.38541 19.3444 31.2652
Au 7.38705 21.3577 33.2502
Au 9.33217 19.3584 33.3398
Au 9.36326 21.3322 31.3438
Au 7.44547 25.2805 5.40568
Au 9.38802 23.3042 5.35302
Au 7.43309 23.2995 7.38942
Au 7.35342 25.2632 9.36921
Pd 9.3676 23.2648 9.3512
Pd 9.41691 25.2447 7.36149
Au 7.25314 23.2814 11.338
Pd 7.23418 25.2628 13.341
Au 9.24553 23.2583 13.3215
Au 9.33555 25.2387 11.3346
Au 7.14436 23.2977 15.3319
Pd 7.17012 25.3019 17.3303
Au 9.1571 23.2889 17.3404
Au 9.21749 25.2688 15.3397
Au 7.0953 23.317 19.3175
Au 7.14589 25.2968 21.3152
Pd 9.16086 23.3092 21.3143
Au 9.19805 25.2904 19.3409
Pd 7.13583 23.3242 23.3097
Au 7.20783 25.3075 25.2929
Au 9.22152 23.3101 25.2842
Au 9.22752 25.2927 23.2761
Au 7.23336 23.3226 27.3297
Pd 7.37044 25.291 29.2702
Pd 9.35752 23.3081 29.2986
Au 9.31233 25.2838 27.2807
Pd 7.44384 23.3314 31.213
Au 7.44218 25.2829 33.2231
Pd 9.34541 23.3111 33.2445
Pd 9.4031 25.277 31.2902
Pd 7.52338 29.1639 5.4872
Au 9.43264 27.1934 5.37338
Pd 7.48642 27.2083 7.43996
Au 7.41518 29.1539 9.41878
Pd 9.42306 27.2093 9.38661
Au 9.48605 29.1516 7.38687
Au 7.29685 27.2199 11.373
Au 7.2936 29.2437 13.3395
Au 9.30779 27.2546 13.3434
Pd 9.40131 29.2377 11.3749
Au 7.19368 27.2607 15.3313
Au 7.24498 29.2896 17.3196
Au 9.24977 27.2878 17.337
Au 9.33913 29.2998 15.3382
Au 7.18577 27.3017 19.3191
Pd 7.30072 29.2979 21.3086
Au 9.25995 27.3045 21.3093
Au 9.32564 29.3216 19.3223
Au 7.23561 27.3062 23.2918
Au 7.3291 29.2431 25.2823
Pd 9.3082 27.2651 25.2603
Pd 9.34695 29.2985 23.2864
Pd 7.33409 27.2511 27.2708
Pd 7.4355 29.1935 29.2056
Pd 9.41335 27.2318 29.2421
Au 9.40098 29.2294 27.2369
Au 7.47379 27.2467 31.2056
Au 7.50717 29.2345 33.2128
Au 9.40998 27.2423 33.293
Au 9.47546 29.1913 31.2366
Au 7.50529 32.9768 5.58986
Au 9.45347 31.1539 5.40386
Au 7.54511 31.0956 7.48301
Pd 7.48636 33.1383 9.37663
Au 9.47347 31.2462 9.42824
Au 9.44172 33.2 7.4142
Au 7.43441 31.205 11.3604
Au 7.37301 33.2574 13.3013
Au 9.38546 31.3509 13.3409
Au 9.38578 33.3038 11.357
Au 7.37573 31.2636 15.3149
Pd 7.36492 33.2094 17.3191
Au 9.36646 31.3848 17.3189
Au 9.31324 33.342 15.3126
Au 7.36595 31.27 19.3233
Au 7.3558 33.2723 21.3112
Au 9.36724 31.3662 21.3171
Au 9.31825 33.3434 19.3177
Au 7.39353 31.2454 23.2941
Au 7.39214 33.2529 25.2954
Au 9.40238 31.3363 25.2566
Au 9.34821 33.326 23.2928
Au 7.45225 31.214 27.2698
Au 7.49393 33.2183 29.2246
Pd 9.47207 31.2528 29.1939
Au 9.40655 33.3082 27.2551
Au 7.55107 31.1356 31.1115
Pd 7.56462 33.013 32.9746
Pd 9.46278 31.1808 33.1145
Au 9.45393 33.2175 31.1515
Au 11.4059 5.5729 5.55039
Au 11.4254 5.32612 9.38612
Au 13.3757 5.40321 7.38455
Au 11.3857 5.25967 13.3856
Au 13.3796 5.26003 11.3628
Au 11.3608 5.2565 17.3663
Au 13.3576 5.23258 15.3854
Pd 11.362 5.34571 21.3122
Au 13.3462 5.27007 19.3367
Au 11.4574 5.27739 25.1827
Au 13.3819 5.2672 23.2321
Au 11.5192 5.28448 29.1323
Au 13.4351 5.27919 27.2061
Au 11.1002 5.53494 33.0228
Au 13.2653 5.39226 31.266
Au 11.4136 9.39215 5.32695
Au 13.3845 7.39831 5.40267
Au 11.4287 7.41939 7.4076
Au 11.4444 9.40602 9.39823
Au 13.3843 7.30532 9.39301
Au 13.38 9.40627 7.30846
Au 11.4337 7.27582 11.4176
Pd 11.3784 9.31184 13.392
Au 13.3658 7.20689 13.3844
Pd 13.3782 9.31095 11.3908
Au 11.3764 7.22782 15.3708
Au 11.3254 9.28864 17.3415
Pd 13.3413 7.20905 17.3586
Au 13.3365 9.25268 15.3646
Au 11.3576 7.22999 19.3348
Au 11.3444 9.29187 21.2964
Pd 13.3666 7.23784 21.2888
Au 13.3361 9.24604 19.3196
Au 11.4036 7.25649 23.2647
Au 11.4245 9.33935 25.2541
Pd 13.4122 7.24953 25.2217
Au 13.3773 9.27662 23.2698
Au 11.4934 7.27636 27.1717
Au 11.4291 9.37221 29.2303
Pd 13.3521 7.32644 29.2502
Pd 13.3825 9.3246 27.2464
Au 11.2983 7.38828 31.2014
Au 11.5005 9.48534 33.3801
Pd 13.2402 7.34657 33.1725
Au 13.3391 9.3642 31.3351
Pd 11.3577 13.341 5.33331
Au 13.3583 11.3566 5.28458
Pd 11.4116 11.3913 7.30684
Pd 11.3847 13.371 9.30486
Pd 13.3795 11.3878 9.31032
Au 13.3559 13.354 7.22379
Au 11.3959 11.3751 11.3822
Au 11.3195 13.3602 13.3619
Au 13.3376 11.3236 13.3691
Au 13.3454 13.3708 11.312
Au 11.3082 11.3414 15.3524
Pd 11.2487 13.3483 17.3322
Au 13.2988 11.3203 17.3332
Pd 13.293 13.3435 15.3457
Au 11.2788 11.3505 19.3144
Au 11.2632 13.3608 21.303
Au 13.3282 11.3227 21.3127
Au 13.2694 13.3464 19.3194
Au 11.335 11.3722 23.3041
Pd 11.3311 13.3561 25.2879
Au 13.3731 11.3603 25.2689
Pd 13.3273 13.3379 23.2986
Pd 11.4154 11.3901 27.2436
Au 11.4145 13.3985 29.3318
Au 13.3806 11.3739 29.3141
Au 13.3801 13.3717 27.3009
Au 11.4694 11.4514 31.4159
Au 11.4082 13.4276 33.4358
Au 13.4419 11.3956 33.4318
Au 13.4105 13.4127 31.4801
Au 11.3106 17.3384 5.24306
Au 13.327 15.3251 5.22397
Au 11.3523 15.3482 7.23117
Au 11.3426 17.3613 9.29802
Au 13.3428 15.3693 9.2462
Au 13.3331 17.3435 7.17849
Au 11.3353 15.3618 11.329
Au 11.275 17.3543 13.307
Pd 13.3014 15.3578 13.3214
Pd 13.3102 17.3497 11.2706
Au 11.2588 15.3412 15.3362
Au 11.208 17.3251 17.3379
Au 13.2523 15.3281 17.3291
Au 13.2648 17.3396 15.3283
Pd 11.2112 15.3205 19.3154
Au 11.2084 17.2926 21.3044
Pd 13.2742 15.3185 21.308
Au 13.2446 17.3049 19.313
Au 11.2691 15.3161 23.3082
Au 11.2674 17.3324 25.3081
Au 13.3392 15.3194 25.3118
Au 13.2818 17.3118 23.3057
Au 11.3369 15.3538 27.3044
Au 11.3658 17.3615 29.3962
Au 13.3887 15.3812 29.4143
Au 13.3516 17.3371 27.3703
Au 11.3988 15.3974 31.4575
Au 11.3406 17.3843 33.3971
Au 13.372 15.4083 33.4602
Pd 13.3625 17.3801 31.4786
Pd 11.3268 21.3367 5.36257
Au 13.2872 19.3601 5.22541
Au 11.345 19.3291 7.24062
Au 11.3428 21.2822 9.29909
Pd 13.3186 19.3129 9.24024
Pd 13.317 21.3064 7.24376
Pd 11.3077 19.3227 11.3088
Pd 11.2632 21.2767 13.2999
Au 13.275 19.3284 13.2743
Pd 13.2969 21.2762 11.2709
Au 11.2228 19.3223 15.3177
Au 11.2155 21.2919 17.3477
Pd 13.246 19.3102 17.3366
Au 13.2638 21.2778 15.3122
Au 11.2009 19.3144 19.3278
Au 11.2114 21.3275 21.3059
Au 13.2503 19.3179 21.3025
Pd 13.2523 21.3053 19.3279
Au 11.2145 19.322 23.2987
Au 11.2755 21.3299 25.3007
Au 13.3085 19.3368 25.3301
Au 13.2799 21.336 23.2996
Au 11.3189 19.3394 27.3392
Au 11.3604 21.3285 29.3831
Au 13.3649 19.3535 29.4465
Au 13.3624 21.3399 27.3735
Pd 11.3643 19.3539 31.4224
Au 11.3354 21.3356 33.3646
Au 13.3214 19.3695 33.423
Pd 13.3627 21.3345 31.4489
Au 11.3743 25.2342 5.35188
Pd 13.2975 23.296 5.35728
Pd 11.3504 23.2839 7.3167
Pd 11.3643 25.2333 9.32185
Au 13.3133 23.2586 9.26114
Pd 13.3395 25.2342 7.29527
Pd 11.3213 23.2447 11.3091
Au 11.3094 25.2458 13.3248
Au 13.2953 23.2346 13.2918
Au 13.3262 25.2445 11.2934
Au 11.2472 23.2579 15.3246
Au 11.2603 25.2883 17.3478
Au 13.2698 23.2827 17.3462
Au 13.3133 25.2807 15.3313
Au 11.2275 23.3012 19.3518
Pd 11.2639 25.3018 21.3057
Pd 13.278 23.3139 21.2997
Au 13.2953 25.3142 19.3463
Au 11.2563 23.3154 23.2716
Au 11.3226 25.2839 25.2682
Pd 13.3304 23.3048 25.3066
Au 13.3198 25.3033 23.2694
Au 11.3398 23.3 27.3128
Au 11.3794 25.2622 29.3269
Au 13.4011 23.2938 29.4017
Au 13.3904 25.2661 27.3188
Au 11.3708 23.3013 31.3979
Au 11.355 25.2642 33.3547
Au 13.3592 23.3019 33.4051
Au 13.3982 25.2647 31.4304
Au 11.4091 29.1971 5.34815
Pd 13.3435 27.2168 5.37772
Au 11.401 27.1865 7.33485
Pd 11.416 29.2243 9.38505
Pd 13.3614 27.2304 9.31001
Au 13.3632 29.2103 7.3237
Au 11.3723 27.2497 11.3336
Au 11.3695 29.3392 13.3454
Au 13.3513 27.305 13.3339
Au 13.3775 29.3144 11.3438
Au 11.3243 27.3005 15.3457
Au 11.3597 29.3837 17.3382
Au 13.3311 27.3624 17.3444
Au 13.3584 29.4177 15.3424
Au 11.3116 27.329 19.3347
Au 11.3472 29.3877 21.3073
Au 13.3266 27.3563 21.3024
Pd 13.3404 29.442 19.3177
Au 11.3124 27.3107 23.2761
Au 11.3698 29.3283 25.2545
Au 13.3722 27.3319 25.2689
Au 13.361 29.4103 23.2915
Au 11.3846 27.2596 27.2479
Au 11.4307 29.2454 29.221
Au 13.4024 27.2619 29.307
Pd 13.3924 29.3443 27.2344
Au 11.4102 27.2292 31.3581
Au 11.4121 29.2695 33.2933
Au 13.3811 27.278 33.3802
Au 13.3946 29.259 31.331
Au 11.3867 33.0516 5.53229
Au 13.3713 31.2125 5.37907
Au 11.4151 31.2032 7.40589
Au 11.4077 33.3152 9.36506
Au 13.3829 31.3301 9.3748
Au 13.3807 33.2368 7.35659
Au 11.4081 31.368 11.3714
Pd 11.3691 33.3317 13.334
Au 13.3865 31.453 13.3454
Au 13.4033 33.3642 11.332
Au 11.3704 31.4503 15.3406
Au 11.3354 33.4174 17.3072
Pd 13.3456 31.4711 17.3166
Au 13.3657 33.4171 15.3223
Au 11.3631 31.4552 19.3015
Pd 11.3281 33.3398 21.3073
Au 13.3463 31.489 21.2942
Au 13.3329 33.4416 19.2883
Pd 11.3696 31.3984 23.2916
Au 11.3705 33.3734 25.262
Au 13.3853 31.433 25.2753
Au 13.342 33.4217 23.2938
Au 11.4145 31.3686 27.2364
Au 11.4191 33.3122 29.2536
Au 13.4093 31.3424 29.2229
Au 13.3997 33.3733 27.2754
Au 11.4261 31.2278 31.1858
Pd 11.3866 33.0784 33.0095
Au 13.375 31.2695 33.2301
Au 13.4047 33.2474 31.2345
Pd 15.3494 5.57729 5.57558
Pd 15.3507 5.36973 9.32639
Au 17.3244 5.4076 7.37646
Pd 15.3455 5.28059 13.3588
Au 17.3237 5.25909 11.3209
Pd 15.3134 5.28663 17.3695
Pd 17.2979 5.25738 15.3732
Pd 15.3138 5.28422 21.273
Pd 17.2793 5.26609 19.3105
Au 15.3336 5.24559 25.2438
Au 17.2783 5.19664 23.2705
Au 15.2776 5.33315 29.3046
Pd 17.2555 5.31872 27.3076
Au 15.2945 5.54264 33.0723
Au 17.3086 5.36632 31.2562
Pd 15.3522 9.3399 5.37689
Au 17.3225 7.37998 5.40758
Pd 15.3465 7.42086 7.41717
Au 15.3394 9.35821 9.35753
Au 17.3353 7.28733 9.36346
Au 17.3388 9.36378 7.29141
Au 15.3493 7.22512 11.3677
Au 15.3466 9.24131 13.3656
Au 17.3417 7.16828 13.3525
Au 17.343 9.26919 11.3607
Au 15.339 7.16558 15.3799
Au 15.3354 9.20694 17.3413
Pd 17.3139 7.17808 17.3494
Au 17.3439 9.19579 15.3541
Pd 15.3212 7.20907 19.3161
Au 15.3457 9.23755 21.2986
Au 17.2988 7.15395 21.2918
Au 17.3245 9.19694 19.3129
Pd 15.342 7.21267 23.2623
Au 15.3356 9.26992 25.2698
Au 17.2843 7.1766 25.2771
Au 17.3134 9.24176 23.2871
Pd 15.3082 7.27133 27.2658
Au 15.3263 9.32926 29.2767
Au 17.2977 7.26425 29.2657
Au 17.3125 9.26944 27.2779
Au 15.3006 7.36881 31.2427
Au 15.31 9.27466 33.3218
Au 17.3357 7.32847 33.241
Au 17.3253 9.3291 31.3582
Au 15.3395 13.3258 5.22336
Au 17.3326 11.3232 5.26693
Au 15.3542 11.3738 7.23296
Au 15.3506 13.3743 9.2393
Au 17.3367 11.3617 9.27103
Pd 17.3278 13.3503 7.18857
Au 15.3349 11.3405 11.3358
Au 15.3074 13.3533 13.3316
Au 17.3392 11.2929 13.3444
Au 17.3282 13.37 11.2728
Au 15.3248 11.2933 15.3492
Au 15.3048 13.3174 17.3321
Au 17.337 11.2585 17.3322
Au 17.3266 13.3161 15.337
Au 15.3347 11.281 19.3221
Au 15.316 13.3029 21.3085
Pd 17.3212 11.2669 21.3021
Pd 17.3169 13.2867 19.3115
Pd 15.34 11.3039 23.2899
Pd 15.348 13.3364 25.3038
Au 17.3217 11.3051 25.2926
Au 17.3158 13.2864 23.3006
Au 15.3499 11.346 27.2908
Au 15.3693 13.3818 29.4072
Au 17.3306 11.348 29.3632
Au 17.3319 13.3618 27.3643
Au 15.3473 11.3465 31.4311
Pd 15.3905 13.3661 33.3958
Pd 17.3361 11.2854 33.3296
Au 17.347 13.3525 31.4808
Au 15.3013 17.3312 5.18105
Au 17.3017 15.3244 5.18304
Au 15.348 15.3494 7.16334
Pd 15.3123 17.3406 9.19028
Pd 17.3126 15.3615 9.18853
Pd 17.2935 17.3333 7.14005
Au 15.3118 15.3732 11.2513
Au 15.2789 17.3348 13.2774
Au 17.316 15.3427 13.2823
Au 17.3062 17.3243 11.2097
Au 15.2788 15.3383 15.3292
Pd 15.2737 17.3183 17.3269
Au 17.3066 15.3144 17.3341
Au 17.2985 17.3172 15.3098
Au 15.2933 15.3215 19.3146
Au 15.2896 17.3114 21.303
Au 17.3113 15.3051 21.2951
Pd 17.3006 17.3133 19.3107
Au 15.3105 15.3054 23.3098
Au 15.3313 17.322 25.3579
Au 17.3264 15.3284 25.3607
Au 17.3239 17.33 23.3328
Pd 15.3611 15.346 27.3784
Au 15.3642 17.3467 29.4572
Pd 17.344 15.3571 29.4578
Au 17.344 17.3257 27.419
Au 15.3747 15.392 31.5163
Au 15.3509 17.3772 33.4847
Au 17.3676 15.3345 33.4781
Au 17.3555 17.356 31.5376
Au 15.2468 21.3425 5.21666
Au 17.27 19.3258 5.15573
Au 15.2919 19.3222 7.14678
Au 15.2961 21.287 9.20919
Au 17.2981 19.3033 9.16348
Au 17.2901 21.3113 7.11118
Au 15.2842 19.309 11.2312
Pd 15.296 21.2765 13.2744
Au 17.3077 19.3109 13.2645
Au 17.325 21.2864 11.2382
Au 15.2723 19.3102 15.3156
Au 15.2736 21.2991 17.3279
Au 17.2941 19.2984 17.312
Au 17.3106 21.2997 15.2969
Au 15.2686 19.3012 19.3041
Au 15.2859 21.3184 21.3047
Au 17.3111 19.3139 21.3193
Au 17.3052 21.3165 19.3026
Au 15.3094 19.3319 23.3245
Au 15.3262 21.3366 25.3475
Au 17.3324 19.3317 25.3685
Pd 17.3165 21.3071 23.3294
Au 15.3458 19.3414 27.411
Pd 15.3609 21.3305 29.4592
Au 17.3416 19.3407 29.4781
Au 17.3207 21.3276 27.4222
Au 15.3415 19.3599 31.5189
Au 15.3385 21.3575 33.4401
Au 17.3523 19.3673 33.4835
Au 17.3344 21.3444 31.5071
Au 15.2789 25.2596 5.27957
Au 17.2703 23.3081 5.17665
Pd 15.3049 23.2811 7.21372
Au 15.3353 25.247 9.25063
Au 17.3412 23.2732 9.20739
Au 17.3207 25.2462 7.17227
Au 15.3165 23.2505 11.2676
Au 15.3399 25.2746 13.3056
Au 17.3372 23.2693 13.2777
Au 17.3724 25.2623 11.2717
Au 15.3092 23.2718 15.3088
Au 15.3187 25.3163 17.3278
Pd 17.3176 23.311 17.3084
Au 17.3387 25.308 15.3174
Au 15.2901 23.316 19.326
Pd 15.3156 25.34 21.3035
Au 17.3091 23.3243 21.3131
Au 17.3164 25.3464 19.3081
Au 15.3097 23.3141 23.2952
Au 15.3397 25.3007 25.3081
Au 17.3194 23.3025 25.3443
Au 17.3214 25.3513 23.2987
Pd 15.3584 23.3014 27.3869
Pd 15.3725 25.2782 29.3921
Pd 17.3232 23.308 29.4449
Au 17.3213 25.304 27.3615
Pd 15.3571 23.3039 31.4442
Au 15.3731 25.2973 33.4011
Pd 17.3394 23.3476 33.3801
Au 17.3312 25.2964 31.4356
Pd 15.3342 29.2528 5.39065
Pd 17.303 27.2595 5.31277
Au 15.3308 27.2231 7.25227
Au 15.3652 29.2597 9.33264
Au 17.3664 27.2407 9.27101
Au 17.3492 29.2336 7.26903
Au 15.3634 27.2754 11.3119
Au 15.3734 29.3993 13.3385
Au 17.3696 27.3378 13.3181
Au 17.3744 29.3476 11.3495
Au 15.3455 27.3599 15.3298
Au 15.3328 29.4671 17.3275
Au 17.3327 27.3945 17.3193
Au 17.3537 29.4462 15.323
Au 15.3185 27.3912 19.3212
Au 15.3376 29.4553 21.295
Au 17.3269 27.4091 21.2973
Au 17.3299 29.4859 19.2987
Au 15.3514 27.3851 23.2892
Pd 15.3669 29.4115 25.2765
Au 17.3334 27.3889 25.2999
Pd 17.3337 29.4609 23.2893
Au 15.3657 27.3314 27.2823
Au 15.3632 29.3072 29.2504
Au 17.3352 27.3025 29.3351
Pd 17.3387 29.3804 27.2694
Au 15.3646 27.2776 31.4051
Au 15.3587 29.3177 33.3266
Pd 17.3567 27.3211 33.3093
Au 17.3427 29.2858 31.3444
Au 15.3645 33.0616 5.51639
Au 17.3499 31.2264 5.36758
Au 15.3616 31.2247 7.36953
Pd 15.3801 33.2503 9.3068
Au 17.3656 31.3297 9.34179
Au 17.3745 33.2185 7.33603
Au 15.3835 31.4068 11.3494
Pd 15.3858 33.3549 13.3144
Pd 17.3577 31.429 13.3339
Pd 17.3648 33.2932 11.3004
Au 15.3667 31.494 15.3315
Pd 15.3388 33.3987 17.2952
Pd 17.3393 31.4977 17.3014
Au 17.3367 33.4318 15.3002
Au 15.3242 31.5186 19.2876
Au 15.3318 33.4654 21.2861
Au 17.3254 31.5247 21.2911
Pd 17.319 33.4117 19.2872
Au 15.3506 31.4881 23.2951
Au 15.3616 33.4103 25.3082
Au 17.3265 31.4523 25.2913
Pd 17.3263 33.4066 23.3043
Pd 15.3631 31.3812 27.2581
Au 15.3767 33.3181 29.2843
Au 17.3282 31.3499 29.2548
Pd 17.329 33.3227 27.3049
Pd 15.3623 31.2349 31.2211
Au 15.3616 33.0809 33.086
Au 17.3429 31.2609 33.2503
Au 17.3343 33.235 31.2618
Au 19.2886 5.55211 5.55094
Au 19.2995 5.31699 9.32013
Au 21.2752 5.38856 7.37672
Au 19.2737 5.19362 13.3285
Au 21.2602 5.24572 11.313
Au 19.2581 5.17275 17.3508
Au 21.2756 5.14463 15.3447
Pd 19.2771 5.22815 21.2964
Pd 21.2875 5.21274 19.3149
Au 19.2708 5.19518 25.3108
Au 21.2977 5.17874 23.3058
Au 19.2996 5.29535 29.2971
Au 21.3171 5.24725 27.3028
Au 19.3418 5.52105 33.0403
Au 21.3146 5.3783 31.2114
Au 19.3042 9.32059 5.31133
Au 21.2983 7.35707 5.38886
Pd 19.3107 7.39972 7.40409
Au 19.3198 9.32878 9.34358
Pd 21.277 7.29403 9.36938
Au 21.2842 9.36158 7.28052
Pd 19.3043 7.22225 11.3488
Pd 19.3132 9.21348 13.3607
Au 21.2646 7.13656 13.3525
Au 21.2756 9.25302 11.3743
Au 19.2945 7.1276 15.3608
Pd 19.3129 9.1815 17.331
Au 21.2876 7.10282 17.3261
Au 21.2824 9.20193 15.3513
Au 19.2911 7.12686 19.3023
Au 19.2941 9.19954 21.3014
Au 21.2875 7.11484 21.3026
Au 21.2915 9.1877 19.2978
Au 19.286 7.12713 23.3008
Au 19.296 9.23879 25.2959
Au 21.2931 7.15535 25.3
Au 21.2746 9.2056 23.2964
Au 19.2973 7.19589 27.2763
Au 19.3053 9.3251 29.2738
Au 21.2968 7.27734 29.2316
Pd 21.2736 9.27514 27.2743
Pd 19.3189 7.38029 31.2064
Au 19.3397 9.28827 33.3039
Au 21.3224 7.34495 33.1979
Au 21.2972 9.35097 31.32
Au 19.2952 13.3141 5.20898
Au 21.2955 11.3216 5.25755
Pd 19.3031 11.3545 7.22775
Au 19.2913 13.3764 9.21982
Au 21.2791 11.3624 9.27492
Au 21.2721 13.3553 7.16036
Au 19.3188 11.3232 11.3324
Au 19.3325 13.3398 13.3188
Au 21.2918 11.2956 13.3688
Au 21.288 13.3755 11.3005
Au 19.3262 11.2661 15.3491
Pd 19.3198 13.2885 17.3231
Au 21.305 11.2753 17.3183
Pd 21.3123 13.3079 15.335
Au 19.3033 11.2547 19.3018
Au 19.3007 13.2788 21.2969
Au 21.2891 11.2606 21.2903
Au 21.3131 13.2958 19.301
Pd 19.2981 11.2668 23.2945
Au 19.2971 13.3181 25.3335
Au 21.2596 11.2896 25.3086
Au 21.2808 13.3155 23.2969
Pd 19.2915 11.3198 27.3157
Au 19.3062 13.364 29.4078
Au 21.2718 11.3473 29.344
Au 21.2586 13.3517 27.3678
Au 19.3191 11.3379 31.4169
Au 19.341 13.2866 33.421
Pd 21.3157 11.3014 33.2823
Pd 21.2867 13.3306 31.4225
Au 19.2783 17.3269 5.14747
Au 21.3007 15.3392 5.17404
Au 19.2752 15.3479 7.12697
Au 19.2962 17.3259 9.16969
Au 21.2845 15.3608 9.21353
Au 21.2993 17.3435 7.11416
Pd 19.3077 15.3528 11.2469
Au 19.3302 17.3134 13.2649
Pd 21.3092 15.3297 13.2986
Au 21.3144 17.3145 11.2528
Au 19.3345 15.3039 15.314
Au 19.3201 17.3081 17.3096
Au 21.3249 15.2817 17.3065
Au 21.3237 17.3063 15.2879
Au 19.3103 15.2928 19.3091
Au 19.318 17.3154 21.3211
Pd 21.2976 15.3131 21.311
Au 21.3173 17.2944 19.3114
Au 19.3155 15.3265 23.3177
Au 19.322 17.3515 25.3704
Au 21.2778 15.3532 25.3414
Pd 21.2931 17.3259 23.3312
Pd 19.3096 15.3538 27.4049
Au 19.3171 17.3328 29.4749
Pd 21.2797 15.3537 29.4527
Au 21.2771 17.3556 27.4073
Au 19.3309 15.3259 31.5078
Pd 19.3349 17.3345 33.4394
Au 21.3067 15.2796 33.4481
Au 21.2962 17.3368 31.5351
Au 19.309 21.3083 5.14559
Au 21.3402 19.3131 5.14067
Au 19.2971 19.3091 7.0951
Au 19.3285 21.2817 9.17385
Pd 21.3188 19.2937 9.18237
Au 21.3333 21.2624 7.11814
Au 19.3343 19.3008 11.2243
Au 19.352 21.3014 13.2721
Pd 21.3299 19.3062 13.2718
Au 21.3248 21.2864 11.2537
Au 19.3414 19.3148 15.2832
Au 19.3315 21.3098 17.2859
Pd 21.3207 19.3089 17.2893
Pd 21.3306 21.3073 15.2818
Au 19.3168 19.3038 19.3039
Au 19.3113 21.3032 21.3336
Au 21.3117 19.3035 21.3365
Au 21.3225 21.3053 19.303
Pd 19.3179 19.3131 23.3469
Au 19.3158 21.2844 25.3617
Pd 21.2959 19.3156 25.3653
Au 21.3127 21.2896 23.3466
Pd 19.311 19.3283 27.4196
Au 19.3139 21.3257 29.4625
Au 21.2928 19.331 29.4641
Au 21.3122 21.2865 27.379
Pd 19.3248 19.3505 31.5181
Au 19.3222 21.3636 33.4818
Au 21.2985 19.3396 33.4993
Au 21.3049 21.3324 31.5418
Au 19.3174 25.2762 5.19179
Pd 21.3503 23.266 5.22493
Au 19.3199 23.2762 7.11989
Pd 19.3348 25.2488 9.21969
Au 21.3121 23.2606 9.2017
Au 21.3202 25.2505 7.15161
Pd 19.3419 23.2697 11.2503
Au 19.3496 25.2807 13.3003
Pd 21.327 23.2864 13.3042
Au 21.2994 25.25 11.297
Au 19.3464 23.3018 15.2964
Au 19.341 25.3406 17.307
Au 21.3323 23.3218 17.2819
Pd 21.3295 25.3109 15.3082
Au 19.3257 23.3314 19.2946
Au 19.3303 25.3611 21.2901
Au 21.3216 23.3164 21.3068
Pd 21.3326 25.3521 19.2918
Au 19.3106 23.309 23.3303
Au 19.3136 25.3488 25.3313
Au 21.3132 23.2906 25.3498
Au 21.3053 25.3444 23.3089
Au 19.309 23.3041 27.3897
Au 19.3111 25.3066 29.3999
Au 21.3154 23.3055 29.4203
Au 21.3023 25.3164 27.3392
Au 19.3294 23.3362 31.4848
Pd 19.3452 25.3584 33.3239
Au 21.313 23.3926 33.4364
Pd 21.3213 25.318 31.4002
Au 19.3223 29.2778 5.2908
Au 21.3319 27.2747 5.22455
Au 19.331 27.2385 7.19209
Au 19.3371 29.2619 9.33579
Au 21.2929 27.2381 9.28287
Au 21.3121 29.2432 7.27416
Pd 19.3379 27.28 11.3194
Pd 19.3376 29.406 13.3377
Au 21.3094 27.3101 13.3335
Au 21.2944 29.3275 11.3556
Au 19.3449 27.3655 15.3175
Au 19.3395 29.464 17.318
Au 21.3386 27.3841 17.322
Au 21.317 29.4268 15.3359
Au 19.3444 27.4071 19.2969
Au 19.328 29.4788 21.2837
Au 21.3255 27.3986 21.2648
Pd 21.3254 29.4593 19.2871
Au 19.3203 27.4073 23.2962
Au 19.311 29.4111 25.2908
Pd 21.2989 27.3598 25.3002
Au 21.3099 29.4427 23.2853
Pd 19.3116 27.3341 27.3058
Au 19.3218 29.3097 29.2705
Au 21.3083 27.296 29.3427
Au 21.3054 29.3571 27.2679
Au 19.345 27.3061 31.3912
Au 19.361 29.3063 33.3026
Pd 21.3356 27.3265 33.2623
Pd 21.331 29.2794 31.2993
Au 19.3625 33.0222 5.5319
Au 21.3276 31.212 5.38603
Pd 19.3353 31.1879 7.38724
Au 19.3423 33.2806 9.29139
Pd 21.3077 31.2822 9.35308
Pd 21.3153 33.1174 7.38196
Au 19.3372 31.4018 11.3377
Pd 19.3156 33.3637 13.3006
Au 21.3055 31.4702 13.3356
Au 21.3001 33.3659 11.2729
Au 19.3185 31.5068 15.3216
Au 19.3133 33.4779 17.3051
Au 21.3272 31.5086 17.3284
Au 21.3216 33.4544 15.3266
Au 19.3314 31.5332 19.286
Pd 19.3263 33.4183 21.2825
Au 21.3232 31.5153 21.2659
Au 21.3421 33.4623 19.2964
Au 19.3167 31.5121 23.289
Au 19.3027 33.4419 25.3054
Au 21.3105 31.5022 25.2749
Au 21.3131 33.4671 23.2681
Au 19.3185 31.4306 27.2722
Pd 19.3213 33.2642 29.3226
Au 21.3312 31.3637 29.255
Au 21.3105 33.4085 27.3089
Au 19.3423 31.2407 31.2444
Pd 19.3415 33.0661 33.0755
Au 21.3467 31.2429 33.2336
Au 21.3388 33.2466 31.2657
Au 23.2978 5.5387 5.58861
Au 23.2581 5.30605 9.33637
Au 25.2798 5.38134 7.42937
Au 23.3024 5.19332 13.3232
Au 25.3315 5.27453 11.3218
Au 23.3298 5.15404 17.3431
Au 25.357 5.21115 15.3419
Pd 23.3163 5.23609 21.3104
Au 25.3465 5.22773 19.3324
Au 23.3183 5.23856 25.315
Au 25.3096 5.24192 23.3087
Pd 23.3102 5.38862 29.2482
Pd 25.2795 5.38573 27.2526
Pd 23.3361 5.53756 32.9968
Au 25.2988 5.42597 31.1484
Au 23.3028 9.32378 5.33041
Pd 25.2889 7.38823 5.49331
Au 23.2756 7.39323 7.41273
Au 23.262 9.34413 9.36851
Au 25.2679 7.30452 9.39979
Pd 25.2437 9.40545 7.34814
Au 23.2636 7.19506 11.3669
Au 23.2678 9.23246 13.3833
Au 25.3045 7.18352 13.3629
Au 25.261 9.30747 11.4172
Au 23.2933 7.11471 15.3461
Au 23.2813 9.2232 17.3205
Au 25.3003 7.16862 17.3426
Au 25.2809 9.26283 15.3504
Au 23.2963 7.12288 19.3084
Au 23.2754 9.20651 21.2885
Au 25.294 7.18055 21.2969
Au 25.2744 9.24818 19.3085
Au 23.2884 7.14834 23.3026
Au 23.2575 9.25758 25.2812
Pd 25.256 7.25712 25.2652
Au 25.2583 9.27452 23.2858
Pd 23.2727 7.26926 27.2449
Au 23.2647 9.35836 29.2503
Au 25.2567 7.34075 29.1869
Au 25.2333 9.33334 27.2224
Au 23.2966 7.39211 31.1909
Pd 23.2926 9.33102 33.2099
Au 25.2807 7.3964 33.159
Au 25.2498 9.41368 31.2808
Pd 23.2892 13.3659 5.28507
Au 25.2372 11.3818 5.26813
Au 23.2765 11.3658 7.2256
Au 23.2664 13.3839 9.25992
Au 25.2398 11.4053 9.34489
Au 25.2522 13.4129 7.23458
Au 23.2608 11.3483 11.366
Au 23.2715 13.3585 13.352
Au 25.267 11.3369 13.3952
Au 25.2756 13.3902 11.3573
Pd 23.2729 11.2977 15.3495
Pd 23.2877 13.3053 17.3163
Au 25.266 11.3183 17.3198
Au 25.2725 13.3447 15.3451
Pd 23.2827 11.2825 19.301
Au 23.2817 13.3387 21.2946
Au 25.2672 11.3205 21.2954
Au 25.2815 13.3429 19.3101
Au 23.2659 11.2959 23.2923
Au 23.2571 13.3444 25.3026
Pd 25.2489 11.3532 25.2582
Au 25.2732 13.3546 23.2802
Au 23.2546 11.3417 27.2931
Au 23.2481 13.3578 29.4001
Pd 25.231 11.3953 29.3091
Au 25.2458 13.3692 27.3202
Pd 23.2652 11.355 31.3383
Pd 23.2774 13.2884 33.3155
Au 25.2379 11.3376 33.3
Au 25.2475 13.3322 31.398
Au 23.3466 17.3349 5.20184
Pd 25.301 15.396 5.31019
Au 23.2862 15.3793 7.17137
Au 23.3137 17.3313 9.23096
Au 25.2969 15.3429 9.28687
Pd 25.3212 17.3094 7.25373
Pd 23.2921 15.3459 11.2972
Au 23.3074 17.2979 13.2946
Pd 25.2982 15.3403 13.3357
Au 25.3071 17.3034 11.3195
Pd 23.293 15.3131 15.3153
Au 23.3091 17.3003 17.3041
Au 25.3019 15.3187 17.3248
Au 25.3224 17.3049 15.3002
Pd 23.2995 15.3074 19.3125
Au 23.2922 17.2847 21.3217
Pd 25.3072 15.3271 21.3004
Au 25.3329 17.2898 19.3223
Pd 23.2678 15.3358 23.3039
Au 23.2602 17.3461 25.3381
Au 25.2663 15.3512 25.3022
Au 25.2999 17.3123 23.2969
Au 23.2475 15.3608 27.3822
Au 23.2696 17.3496 29.4508
Au 25.2644 15.3524 29.4057
Au 25.2742 17.3484 27.3577
Au 23.2638 15.3292 31.4856
Au 23.3005 17.3115 33.4819
Au 25.2843 15.296 33.4017
Au 25.2957 17.3437 31.4952
Au 23.3829 21.2514 5.20166
Pd 25.3722 19.2528 5.30496
Au 23.3463 19.2864 7.16482
Au 23.3238 21.2518 9.21939
Pd 25.3082 19.2868 9.26234