1687
Atoms. Timestep: 20243
Au 8.45573 5.91978 8.49266
Au 6.79823 5.73335 10.5645
Au 8.00906 4.56655 15.3157
Au 7.33587 4.65334 20.0253
Au 6.16256 6.36199 23.9306
Au 5.48418 7.84948 28.2021
Au 7.00693 7.67641 30.4922
Pd 8.02093 7.98427 6.58348
Au 6.29136 7.66767 8.64528
Au 5.98681 9.96463 6.84944
Pd 7.41958 6.27943 13.1935
Au 6.77361 8.29349 11.3204
Au 7.23355 6.48797 17.0417
Pd 6.87064 8.38878 14.9303
Au 6.20782 6.88249 21.2196
Au 6.31506 8.63293 18.7929
Au 5.46296 8.49489 25.5259
Pd 5.57297 8.98011 22.868
Pd 5.61597 9.8696 30.0793
Pd 5.27564 10.4892 27.3968
Pd 7.46539 9.65619 32.3039
Pd 5.91192 11.8186 32.0779
Au 7.78063 10.1838 4.82154
Pd 6.47028 10.2549 9.44012
Au 5.46011 12.4306 8.29762
Au 6.45518 10.4373 12.998
Au 6.12032 12.4255 11.1019
Au 6.23444 10.5386 16.6738
Au 6.05963 12.6121 14.6946
Au 5.64556 10.7799 20.663
Au 5.69652 12.6802 18.5866
Pd 5.10039 11.1101 24.7095
Au 5.21208 12.922 22.6182
Au 5.23373 12.4604 29.3909
Au 4.84796 13.1407 26.6983
Au 6.23602 13.7206 33.9888
Au 5.41847 14.3948 31.4315
Au 6.83657 14.8053 7.90796
Au 5.12107 14.625 9.98115
Au 5.06808 16.7791 8.30765
Au 5.86479 14.7393 12.7399
Au 5.66655 17.095 10.9438
Au 5.66324 14.7248 16.6395
Au 5.6093 16.8374 14.7261
Au 5.31421 14.8402 20.6011
Au 5.36621 16.8471 18.664
Au 4.99065 15.0274 24.7026
Au 5.10125 16.9573 22.7026
Au 4.87327 15.1113 28.7375
Au 4.9757 17.0402 26.7986
Au 5.7532 16.2799 33.4206
Au 5.00802 17.0256 30.8038
Pd 6.90012 17.0698 6.30854
Au 5.61821 19.2842 9.03847
Au 5.6035 21.418 7.19219
Au 5.52316 19.0385 12.9261
Au 5.47303 21.1426 11.0651
Au 5.38947 18.9177 16.7807
Au 5.38823 21.0044 14.9683
Au 5.18357 18.9452 20.7452
Au 5.25351 20.9624 18.8332
Au 5.04011 18.9867 24.8068
Au 5.1109 20.9907 22.8304
Au 5.0646 18.9907 28.888
Au 5.07789 20.939 26.9063
Au 5.25917 18.848 32.7904
Pd 5.2426 20.8767 30.9277
Au 7.50584 21.6477 5.24214
Pd 5.47971 23.2474 9.19736
Au 5.41773 25.3567 7.37411
Pd 5.39738 23.054 13.1217
Au 5.28482 25.0878 11.266
Pd 5.32907 22.9977 16.9967
Au 5.26853 24.9947 15.1669
Au 5.16219 23.0132 20.8914
Au 5.21887 25.0642 18.9784
Au 5.10918 22.9451 24.9039
Au 5.15258 24.9819 22.9629
Au 5.1343 22.8341 28.9781
Au 5.11095 24.8656 26.993
Au 6.54677 23.4701 33.526
Au 4.65847 23.5085 31.6092
Au 5.61518 23.5292 5.47215
Au 5.22503 27.147 9.40785
Au 5.2823 29.2163 7.61783
Au 5.16371 26.9618 13.338
Au 5.08705 28.928 11.5418
Au 5.22743 27.1076 17.0513
Au 5.2553 29.2234 15.0468
Pd 5.25232 27.0637 21.0674
Au 5.22112 29.0953 19.1382
Au 5.12418 26.9392 25.0429
Au 5.22474 29.0013 23.1312
Au 4.54321 25.4826 29.6645
Au 4.53986 27.5059 27.7563
Au 6.04176 26.054 34.1747
Au 5.94999 28.1185 32.434
Au 5.25286 33.0614 8.33184
Pd 5.12563 30.8988 9.79278
Au 7.20171 33.4428 6.58248
Au 5.375 32.9345 15.1702
Au 5.335 31.2678 13.0198
Au 5.23756 31.0994 17.1541
Pd 7.28563 33.2198 13.243
Au 5.29061 30.9745 21.1441
Au 5.38132 32.8546 19.199
Au 4.65238 29.5542 25.8881
Au 6.52677 31.5793 25.9782
Au 4.12598 26.1031 32.2688
Au 4.05926 28.0995 30.4061
Au 7.93299 30.0451 32.5601
Pd 5.97784 30.0672 30.5194
Au 10.2303 6.18099 6.45024
Au 9.00755 4.18149 10.5652
Pd 10.7788 4.39529 8.51211
Au 9.71364 4.71894 13.1926
Pd 11.563 5.02068 11.1166
Au 8.92753 4.47954 17.8838
Pd 10.7193 4.5382 15.7963
Au 8.26743 5.55448 22.3596
Au 10.1429 4.99972 20.3127
Au 7.33044 6.8928 26.4725
Pd 9.28756 5.94536 24.8233
Au 8.84483 6.92781 28.7702
Au 10.7413 6.15914 27.1047
Au 9.00724 7.42506 32.4371
Au 10.9325 6.79126 30.705
Au 9.8552 8.17586 4.57427
Au 12.0775 6.53625 4.52782
Au 10.64 8.89853 7.05086
Au 8.72628 8.61272 9.2391
Au 11.0489 6.94414 9.08215
Au 10.3426 10.8103 5.00108
Au 9.22457 6.71065 11.1993
Au 8.81177 8.74471 13.066
Au 11.251 7.01239 13.077
Au 10.8062 9.00984 11.0729
Au 9.26865 6.84777 15.0921
Au 8.53496 8.86924 17.0136
Au 10.3192 6.74731 17.6233
Pd 10.7527 9.10598 15.0089
Au 8.36698 6.95052 19.5164
Au 7.75923 9.08532 21.1582
Pd 9.9411 7.55896 21.8549
Pd 10.0036 9.09047 19.3883
Au 8.00621 8.12867 23.8549
Au 7.52892 10.2553 25.6289
Pd 9.48025 8.48099 26.3518
Au 9.81873 10.0857 23.7467
Pd 7.59724 9.32413 28.2223
Au 7.76322 11.4442 30.1538
Pd 11.1576 8.56432 28.5458
Au 9.69525 10.9618 28.1276
Au 9.3196 9.15684 30.397
Au 7.90051 11.6154 34.1034
Pd 9.62081 9.43054 34.0927
Pd 9.78012 11.259 32.1663
Au 7.12155 12.5933 6.16398
Au 9.04963 12.9702 4.29547
Au 8.4675 10.5881 7.33232
Au 8.04044 12.6731 9.09952
Au 10.4449 10.9971 9.07937
Au 9.96641 12.8987 6.93623
Pd 8.47585 10.7189 11.123
Pd 8.0921 12.8485 12.8692
Pd 10.4137 11.0538 12.9676
Au 10.0541 13.0957 10.9007
Au 8.3324 10.7963 14.8889
Au 7.82057 12.842 16.7963
Au 10.1529 11.0811 16.993
Au 9.98683 13.046 14.8934
Au 7.86226 10.8967 18.8822
Au 7.36076 12.9431 20.7952
Au 9.5793 11.1809 21.1301
Pd 9.64647 13.0553 18.937
Au 7.26531 11.0776 22.9638
Au 6.95611 13.0734 24.8582
Pd 9.54545 12.215 25.6169
Au 9.20694 13.1136 23.0031
Au 7.33161 12.278 27.5135
Au 7.40994 14.2422 29.4875
Au 9.9994 13.1248 30.0926
Au 9.52843 14.1519 27.5595
Au 8.09884 13.4682 32.1191
Pd 8.36826 15.3952 34.0661
Au 10.1263 13.1819 34.1561
Au 10.3425 15.1388 32.1934
Au 8.81519 17.2496 4.31684
Au 10.5998 15.2696 4.02238
Au 8.67241 15.0655 5.92456
Au 7.64821 17.286 8.95489
Au 9.6334 15.1551 8.74114
Au 9.59154 17.5112 6.90574
Pd 7.74268 14.9597 10.7755
Au 7.60834 17.0046 12.8333
Au 9.75159 15.1009 12.8249
Au 9.62526 17.1997 10.8691
Au 7.70383 14.8877 14.7883
Au 7.4221 16.9255 16.8064
Au 9.63541 15.0104 16.8989
Au 9.5628 17.0642 14.8852
Au 7.42417 14.8879 18.7635
Au 7.15674 16.9424 20.7907
Au 9.30823 15.0232 20.9004
Au 9.36446 16.9979 18.9059
Au 7.05885 14.9845 22.7971
Au 6.96592 16.9771 24.8434
Au 9.05211 15.0129 24.9526
Au 9.12801 16.9844 22.9234
Pd 6.8961 15.0201 26.8314
Pd 6.97056 16.9456 28.8541
Au 9.66811 16.0747 29.5956
Au 9.03129 16.9188 26.9483
Au 7.64378 16.1807 31.5241
Au 7.80697 18.0787 33.5978
Pd 10.5955 17.0798 34.0931
Au 9.81733 18.0048 31.6857
Au 9.41648 19.7238 5.05347
Au 11.3486 19.8149 3.33518
Pd 7.56053 19.5082 7.07956
Au 7.50726 21.3121 9.15243
Pd 9.57039 19.3795 8.99556
Au 9.51868 21.5375 7.12514
Pd 7.55842 19.1867 11.0014
Au 7.40407 21.1008 13.0307
Pd 9.52208 19.1379 12.9489
Au 9.50984 21.2384 11.0784
Au 7.422 19.0079 14.8966
Pd 7.29814 21.0037 16.9522
Au 9.37827 19.0395 16.9528
Au 9.39317 21.0817 15.0135
Au 7.2228 18.9677 18.8482
Au 7.11035 21.004 20.9013
Au 9.19557 18.9944 20.9357
Au 9.23638 21.0403 19.0008
Au 7.04301 18.9671 22.8457
Au 7.02593 20.9498 24.8963
Au 9.0822 18.9415 24.953
Au 9.11291 20.9886 22.9505
Au 6.99739 18.9375 26.9009
Pd 7.11155 20.8695 28.927
Au 9.11747 18.8249 28.9875
Au 9.08821 20.8891 26.974
Au 7.11844 18.8594 30.906
Au 7.09129 20.8229 32.969
Au 9.69281 20.0203 33.6616
Au 9.06958 20.8125 31.0209
Au 7.44349 25.5209 5.4093
Au 9.43552 23.6383 5.23604
Au 7.51022 23.4619 7.29885
Au 7.36666 25.3023 9.33152
Pd 9.47885 23.3752 9.22038
Pd 9.42874 25.4738 7.33261
Au 7.37627 23.2073 11.1804
Pd 7.28368 25.0872 13.2308
Au 9.3968 23.1594 13.1215
Au 9.40059 25.2488 11.2465
Au 7.29092 23.0607 15.0948
Pd 7.22417 25.0964 17.078
Au 9.26762 23.0832 17.0749
Au 9.28797 25.1554 15.1472
Au 7.17065 23.0345 18.9802
Au 7.11156 25.018 21.0156
Pd 9.1546 23.03 21.0154
Au 9.19432 25.0834 19.1047
Pd 7.09015 22.9795 22.937
Au 7.07688 24.9389 25.0017
Au 9.09113 22.9522 24.987
Au 9.12211 24.9981 23.0298
Au 7.072 22.89 26.979
Pd 7.13616 24.8145 28.9961
Pd 9.11275 22.8621 29.0066
Au 9.10835 24.9179 27.0537
Pd 7.19058 22.8071 30.9429
Au 8.60719 25.3439 33.7416
Pd 9.15204 22.7152 33.0241
Pd 9.20623 24.7412 31.0934
Pd 5.57487 27.4076 5.66031
Au 9.3166 27.5585 5.47498
Pd 7.40977 27.3559 7.52361
Au 7.22123 29.0919 9.63026
Pd 9.39814 27.3218 9.41358
Au 9.35335 29.3945 7.57469
Au 7.22779 27.096 11.4088
Au 7.27753 29.2594 13.1432
Au 9.32832 27.2509 13.2109
Pd 9.40879 29.3657 11.2904
Au 7.20743 27.1464 15.1254
Au 7.1686 29.1362 17.1283
Au 9.22072 27.1535 17.1534
Au 9.27504 29.2476 15.2022
Au 7.14215 27.0947 19.0932
Pd 7.20132 29.0645 21.1678
Au 9.15905 27.077 21.1238
Au 9.21757 29.1455 19.1781
Au 7.12693 27.0017 23.0779
Au 7.17519 28.9348 25.1335
Pd 9.13642 26.9541 25.0822
Pd 9.14536 29.0722 23.1643
Pd 7.12699 26.8511 27.0657
Pd 6.57334 27.4556 29.7535
Pd 9.16883 26.7907 29.1374
Au 9.20072 28.8335 27.1882
Au 6.63048 25.444 31.6199
Au 7.99471 27.9763 34.3529
Au 10.6362 27.2841 33.8631
Au 10.6061 29.3217 31.8652
Au 5.4757 31.4559 6.1595
Au 7.28725 29.4806 5.7274
Au 7.2746 31.2274 8.03238
Pd 7.63954 33.5667 9.41768
Au 9.56542 31.5363 9.42536
Au 9.63001 33.5786 7.58778
Au 7.44011 31.3747 11.1983
Au 5.55745 33.2184 11.088
Au 9.33057 31.3886 13.2687
Au 9.41315 33.4803 11.451
Au 7.27676 31.1915 15.168
Pd 7.19899 33.0731 17.2069
Au 9.23827 31.279 17.2037
Au 9.19243 33.3091 15.265
Au 7.24954 31.058 19.1784
Au 7.19205 32.9636 21.2236
Au 9.16652 31.1349 21.2702
Au 9.11319 33.1757 19.2659
Au 7.09739 31.0671 23.2516
Au 4.11326 30.0692 28.5292
Au 9.17261 30.9801 25.2254
Au 9.12148 33.0071 23.3359
Au 6.59909 29.4628 27.8634
Au 7.87776 32.054 30.6761
Pd 8.56496 29.441 29.9118
Au 5.98328 32.0546 28.6224
Au 8.58596 27.4019 31.8053
Pd 9.93499 31.895 32.5189
Pd 9.99134 29.8572 34.3344
Au 9.87048 33.8876 30.6623
Au 12.5396 4.69613 6.45031
Au 13.3941 5.21263 8.97357
Au 15.1618 5.59767 6.74114
Au 12.5528 4.55828 13.7043
Au 14.3813 4.7334 11.5402
Au 12.0411 4.72369 18.2557
Au 13.8413 4.56937 16.1867
Pd 11.126 5.30548 22.8195
Au 13.016 4.75027 20.8339
Au 12.4174 5.47107 25.1783
Au 14.1522 4.85883 23.2644
Au 12.8252 6.22838 28.8641
Au 14.5334 5.61029 26.904
Au 11.2587 7.17564 33.8862
Au 13.2784 6.63292 32.183
Au 12.4907 9.19272 4.83911
Au 14.652 7.50227 4.81529
Au 12.8918 7.26312 6.98096
Au 12.6969 9.27323 8.9504
Au 15.0205 7.53206 8.75792
Au 14.4805 9.54327 6.74441
Au 13.1634 7.25523 10.9223
Pd 12.7887 9.31402 12.9188
Au 14.0999 6.77536 13.4755
Pd 14.7399 9.5624 10.7648
Au 12.2579 6.70508 15.624
Au 11.9662 8.95455 17.4802
Pd 13.802 6.88448 17.9068
Au 13.8221 8.93839 15.4196
Au 11.9088 7.08813 19.9155
Au 11.7704 9.53732 21.6774
Pd 13.025 7.17049 22.4126
Au 13.7351 9.19807 19.6623
Au 11.1933 7.7552 24.3435
Au 11.4618 10.329 26.1452
Pd 14.5075 7.30394 24.6922
Au 13.1622 9.70786 24.1052
Au 12.847 7.92718 26.6127
Au 11.6624 10.826 30.1312
Pd 13.369 8.49971 30.2169
Pd 13.4408 10.2691 28.0834
Au 11.494 9.03697 32.1652
Au 11.8804 10.9516 34.1357
Pd 13.5861 8.69085 33.9708
Au 13.8085 10.6041 32.0981
Pd 11.8477 13.1277 4.90649
Au 14.0329 11.4959 4.72684
Pd 12.2641 11.2192 6.90706
Pd 11.9673 13.3369 8.79662
Pd 14.2515 11.5572 8.75627
Au 13.8282 13.5419 6.69599
Au 12.4019 11.3034 10.9141
Au 12.0347 13.2879 12.8682
Au 14.3818 11.5299 12.8066
Au 13.9904 13.5276 10.748
Au 12.3189 11.309 14.9308
Pd 11.8555 13.2128 16.9951
Au 13.6959 11.1311 17.3265
Pd 13.9822 13.4231 14.8958
Au 11.7522 11.2013 19.2853
Au 11.4866 13.2342 21.116
Au 13.6399 11.5373 21.585
Au 13.6017 13.2635 19.2246
Au 11.7008 12.0316 23.6816
Pd 11.6593 14.0793 25.6338
Au 13.5591 12.0898 25.8893
Pd 13.6962 13.8193 23.5963
Pd 11.8209 12.6298 27.9836
Au 12.1847 14.7604 30.0667
Au 13.8865 12.4377 29.9701
Au 13.945 14.2744 27.8497
Au 12.0626 12.8456 32.1786
Au 12.4899 14.818 34.1013
Au 14.2784 12.5337 34.0554
Au 14.3404 14.4448 32.0148
Au 11.536 17.6636 4.82024
Au 13.4449 15.5653 4.71242
Au 11.5347 15.352 6.68871
Au 11.5834 17.3986 8.83989
Au 13.6842 15.5383 8.69251
Au 13.5003 17.6048 6.74782
Au 11.752 15.3198 10.7821
Au 11.627 17.2393 12.8719
Pd 13.7728 15.4114 12.8286
Pd 13.6072 17.4279 10.8162
Au 11.7551 15.1903 14.9084
Au 11.5231 17.1191 16.9808
Au 13.6612 15.2649 17.0223
Au 13.5998 17.274 14.9649
Pd 11.5237 15.1259 19.0033
Au 11.3199 17.0396 21.013
Pd 13.452 15.2093 21.1616
Au 13.4573 17.1591 19.0735
Au 11.272 15.078 23.071
Au 11.1744 16.9609 25.045
Au 13.7685 15.8903 25.6297
Au 13.314 17.0693 23.1344
Au 11.7301 16.0236 27.6362
Au 11.8681 17.9504 29.7225
Au 14.3934 16.3248 29.9113
Au 13.9116 17.8979 27.7175
Au 12.5445 16.8228 32.1497
Au 12.2025 19.2397 34.2477
Au 13.8834 17.1777 34.4875
Pd 14.0573 19.0667 32.2808
Pd 11.4383 21.7831 5.11247
Au 13.4808 19.8625 4.84198
Au 11.5315 19.6031 6.87729
Au 11.5043 21.4272 9.06009
Pd 13.4866 19.4949 8.88922
Pd 13.428 21.6679 6.99734
Pd 11.542 19.3046 10.9472
Pd 11.466 21.2017 13.0294
Au 13.5211 19.3078 12.9343
Pd 13.4628 21.3574 11.0198
Au 11.4897 19.1566 14.9763
Au 11.3696 21.0988 17.0725
Pd 13.4502 19.1741 17.0679
Au 13.433 21.1943 15.0685
Au 11.3589 19.0732 19.0237
Au 11.2324 21.0552 21.0388
Au 13.3204 19.094 21.1022
Pd 13.327 21.1214 19.1192
Au 11.2045 18.9946 23.0313
Au 11.143 20.9525 25.0199
Au 13.2832 18.9537 25.1526
Au 13.2094 21.0536 23.0931
Au 11.1967 18.8531 27.0767
Au 11.0513 20.8675 29.03
Au 13.6055 20.1283 29.6784
Au 13.0971 20.9916 27.0392
Pd 11.64 20.0472 31.6793
Au 11.7678 21.9461 33.7252
Au 14.3064 21.016 34.2697
Pd 13.7304 21.9755 31.7473
Au 11.3537 25.6522 5.32395
Pd 13.3409 23.7868 5.21178
Pd 11.4244 23.5864 7.18819
Pd 11.4182 25.4142 9.25573
Au 13.4129 23.4828 9.11051
Pd 13.3729 25.5831 7.24307
Pd 11.4543 23.2979 11.142
Au 11.3846 25.2428 13.1912
Au 13.4192 23.2428 13.1191
Au 13.4017 25.363 11.2055
Au 11.3723 23.1481 15.1124
Au 11.282 25.1558 17.1683
Au 13.3368 23.1603 17.1685
Au 13.3598 25.2375 15.2071
Au 11.2598 23.0923 19.1211
Pd 11.1881 25.0814 21.1091
Pd 13.2303 23.106 21.1191
Au 13.2554 25.1683 19.2011
Au 11.1611 23.0288 23.029
Au 11.1372 24.9987 25.0603
Pd 13.1395 23.0478 25.0668
Au 13.1737 25.0963 23.0991
Au 11.1056 22.9477 27.0353
Au 11.1502 24.8331 29.1133
Au 13.1675 22.8811 29.0944
Au 13.1841 24.9314 27.1219
Au 11.1394 22.7688 31.0964
Au 11.2612 24.6257 33.1946
Au 13.9493 23.8274 33.7677
Au 13.269 24.7079 31.1921
Au 11.2868 29.5662 5.54429
Pd 13.3293 27.6465 5.42387
Au 11.369 27.481 7.37268
Pd 11.4335 29.4566 9.36797
Pd 13.3982 27.4504 9.2998
Au 13.3895 29.5137 7.39165
Au 11.4027 27.3628 11.2685
Au 11.3449 29.3747 13.2852
Au 13.375 27.3449 13.2733
Au 13.3921 29.4366 11.347
Au 11.3153 27.2521 15.2239
Au 11.2636 29.2914 17.2252
Au 13.284 27.2824 17.2386
Au 13.3089 29.4028 15.2859
Au 11.2334 27.1713 19.1819
Au 11.1783 29.1956 21.2053
Au 13.1944 27.1939 21.1799
Pd 13.1939 29.3314 19.2268
Au 11.1443 27.0815 23.1233
Au 11.1649 29.016 25.1837
Au 13.1772 27.0564 25.158
Au 13.1582 29.1903 23.2218
Au 11.1756 26.8963 27.1364
Au 11.2378 28.7793 29.2157
Au 13.2352 26.802 29.1952
Pd 13.1937 28.9618 27.2177
Au 11.2529 26.673 31.2324
Au 12.6419 29.2354 33.8941
Au 13.3634 26.5728 33.2932
Au 13.3058 28.6704 31.3317
Au 9.08045 31.5274 5.91247
Au 13.498 31.5074 5.55736
Au 11.454 31.5807 7.38518
Au 11.5066 33.5727 9.52173
Au 13.4057 31.5241 9.43759
Au 13.5016 33.4424 7.50529
Au 11.4193 31.5037 11.4064
Pd 11.3292 33.4134 13.3926
Au 13.3645 31.5116 13.3595
Au 13.4376 33.5134 11.4418
Au 11.2776 31.4276 15.2824
Au 11.1552 33.3531 17.2744
Pd 13.1961 31.421 17.2686
Au 13.257 33.4418 15.3435
Au 11.1696 31.3165 19.2315
Pd 11.0611 33.1398 21.3043
Au 13.1005 31.3235 21.2388
Au 13.0685 33.346 19.2694
Pd 11.159 31.1442 23.2663
Au 8.54084 33.4819 26.0937
Au 11.2406 30.9645 27.2636
Au 11.1604 33.0688 25.3341
Au 8.57598 31.4673 27.9737
Au 7.96142 33.9462 28.7376
Au 13.2486 30.8545 29.3705
Au 10.5628 33.5639 28.0588
Au 10.5676 31.4129 29.9565
Pd 12.5427 31.2842 32.062
Au 14.7132 31.027 33.799
Au 12.511 33.3734 30.1989
Pd 16.9598 6.14981 4.70657
Pd 16.1806 5.03944 9.30898
Au 17.9212 5.34674 7.08825
Pd 15.58 4.58225 14.0498
Au 17.2825 4.5817 11.8482
Pd 14.8326 4.53452 18.7695
Pd 16.5873 4.36136 16.6654
Pd 15.8867 4.44414 21.2743
Pd 17.6037 4.19028 19.2223
Au 16.2493 4.95563 24.9797
Au 18.0045 4.4965 22.9989
Au 15.1817 6.13926 30.2211
Pd 16.9832 5.69024 28.0633
Au 15.4192 6.65297 33.8893
Au 17.2943 6.05739 31.9948
Pd 16.2065 9.78509 4.62399
Au 18.509 8.33432 4.35126
Pd 16.7923 7.94158 6.61213
Au 16.5898 9.87954 8.58384
Au 17.8346 7.23214 9.07579
Au 18.4096 10.2273 6.31094
Au 15.9915 6.94643 11.2952
Au 15.7006 9.00259 13.2785
Au 17.3445 6.72511 13.6853
Au 17.5991 9.18769 11.0994
Au 15.5798 6.75669 15.8294
Au 15.6174 9.04185 17.5683
Pd 16.6408 6.55341 18.401
Au 17.4395 8.97753 15.4486
Pd 14.8503 6.76254 20.4531
Au 14.9563 9.14062 22.1607
Au 17.8749 6.35228 20.9141
Au 16.7093 8.79729 20.1136
Pd 16.2079 6.73297 22.8501
Au 15.1904 9.71824 25.9972
Au 16.9472 7.39776 25.965
Au 17.0257 9.27006 23.902
Pd 15.1597 7.94095 28.1472
Au 15.6133 10.1397 29.8941
Au 17.3718 7.80219 29.8609
Au 17.4029 9.64032 27.7567
Au 15.5424 8.33383 31.9543
Au 15.9963 10.2636 33.9513
Au 17.77 8.0803 33.8431
Au 17.842 9.94043 31.8011
Au 15.6121 13.7877 4.54921
Au 17.7768 12.0574 4.34829
Au 16.0613 11.8065 6.54311
Au 15.9088 13.7447 8.5984
Au 18.2622 12.1318 8.40379
Pd 17.72 13.9708 6.37384
Au 16.3499 11.807 10.6347
Au 16.0454 13.6807 12.7496
Au 17.4135 11.1673 13.1511
Au 18.1031 13.9788 10.555
Au 15.5509 11.1032 15.2693
Au 15.5427 13.2248 17.2141
Au 17.4922 11.1659 17.2994
Au 17.4042 13.2136 15.1615
Au 15.5923 11.2776 19.4521
Au 15.5534 13.4453 21.4619
Pd 17.0391 11.1395 21.799
Pd 17.4537 13.2749 19.3011
Pd 15.2882 11.5672 23.8343
Pd 15.6746 13.8154 25.7035
Au 17.4084 11.5145 25.6756
Au 17.3976 13.3866 23.585
Au 15.6488 11.9684 27.7988
Au 16.1554 14.0545 29.7801
Au 17.8996 11.7924 29.6686
Au 17.8826 13.6649 27.5795
Au 16.0974 12.1797 31.905
Pd 15.5234 14.9948 34.3964
Pd 17.1998 12.7982 34.3108
Au 17.3273 14.6886 32.3375
Au 15.3324 17.8181 4.67236
Au 17.3632 15.9868 4.41048
Au 15.5847 15.7497 6.55287
Pd 15.5417 17.6334 8.70099
Pd 17.6422 15.8244 8.50275
Pd 17.4072 17.8545 6.53202
Au 15.7492 15.628 10.6951
Au 15.6238 17.4373 12.868
Au 17.8863 15.6996 12.7671
Au 17.6154 17.6062 10.7114
Au 15.7421 15.4619 14.9344
Pd 15.5383 17.2927 17.0794
Au 17.4457 15.2658 17.1796
Au 17.6207 17.4476 15.0055
Au 15.5163 15.2703 19.2031
Au 15.4331 17.2117 21.2011
Au 17.5003 15.3487 21.3518
Pd 17.4449 17.2635 19.21
Au 15.6755 15.6176 23.5235
Au 15.8365 17.7066 25.6148
Au 17.7976 15.5672 25.5284
Au 17.658 17.487 23.4336
Pd 16.1059 15.9028 27.6952
Au 15.7789 18.6563 30.1245
Pd 17.4151 16.4937 30.1612
Au 17.5254 18.2107 27.9007
Au 15.6492 16.872 32.3945
Au 16.0905 18.8811 34.2868
Au 17.817 16.6794 34.2195
Au 17.876 18.5381 32.1416
Au 15.3202 21.9414 4.94248
Au 17.2394 19.976 4.69266
Au 15.4003 19.7313 6.78463
Au 15.421 21.5573 8.95432
Au 17.4606 19.6537 8.74193
Au 17.373 21.7927 6.82133
Au 15.5018 19.4659 10.8733
Pd 15.4642 21.3267 13.0432
Au 17.5401 19.4517 12.9606
Au 17.4842 21.4844 10.9934
Au 15.499 19.3003 15.0436
Au 15.3849 21.2195 17.1542
Au 17.4536 19.296 17.152
Au 17.4449 21.3355 15.1435
Au 15.3992 19.1903 19.1376
Au 15.2861 21.1468 21.165
Au 17.4128 19.2329 21.2406
Au 17.3528 21.2525 19.2115
Au 15.3683 19.1234 23.2151
Au 15.1659 21.142 25.0908
Au 17.5272 19.8424 25.5301
Pd 17.2884 21.242 23.163
Au 15.6069 20.0965 27.6513
Pd 15.7161 22.007 29.7057
Au 17.8827 20.3191 29.9033
Au 17.676 21.8877 27.605
Au 16.1404 20.7468 32.1721
Au 16.4467 22.7043 34.111
Au 18.3084 20.5805 34.0078
Au 18.2206 22.3913 31.9027
Au 15.3243 25.7612 5.22722
Au 17.3492 23.9256 5.01063
Pd 15.38 23.6972 7.06781
Au 15.4137 25.5013 9.19633
Au 17.456 23.5705 9.06722
Au 17.4252 25.6526 7.1463
Au 15.4334 23.3927 11.1178
Au 15.4137 25.3237 13.2317
Au 17.4527 23.3513 13.1688
Au 17.479 25.4112 11.2448
Au 15.4008 23.2508 15.1718
Au 15.3204 25.2547 17.2368
Pd 17.3591 23.289 17.2388
Au 17.3885 25.3243 15.2837
Au 15.2906 23.1981 19.2031
Pd 15.2227 25.2119 21.1881
Au 17.2697 23.2507 21.2156
Au 17.2717 25.3068 19.2569
Au 15.1972 23.1478 23.1207
Au 15.1808 25.0565 25.1508
Au 17.2598 23.1218 25.1535
Au 17.2107 25.2274 23.2107
Pd 15.1825 22.9925 27.1144
Pd 15.2512 24.8371 29.1348
Pd 17.8 23.8424 29.5908
Au 17.2625 25.0221 27.1323
Pd 15.8768 23.8614 31.7083
Au 16.0996 25.6956 33.7071
Pd 18.5334 24.3543 33.7817
Au 17.9698 25.7596 31.5824
Pd 15.4557 29.6214 5.49463
Pd 17.4428 27.7016 5.36684
Au 15.3941 27.5615 7.27801
Au 15.4304 29.4513 9.40686
Au 17.4783 27.466 9.33364
Au 17.4976 29.5123 7.40901
Au 15.4238 27.4029 11.3143
Au 15.3821 29.4568 13.342
Au 17.4288 27.3993 13.3392
Au 17.4545 29.4597 11.4276
Au 15.3473 27.3559 15.2824
Au 15.2375 29.4334 17.2795
Au 17.2947 27.3884 17.2988
Au 17.3283 29.4781 15.3363
Au 15.223 27.308 19.2396
Au 15.1393 29.3442 21.2266
Au 17.1801 27.3468 21.2546
Au 17.1737 29.4653 19.274
Au 15.1794 27.21 23.2015
Pd 15.1317 29.1628 25.2395
Au 17.1604 27.2034 25.2151
Pd 17.0715 29.3734 23.2518
Au 15.1924 26.9811 27.1683
Au 15.2021 28.8293 29.2114
Au 17.2923 26.9014 29.0969
Pd 17.1118 29.1077 27.2199
Au 15.3379 26.6715 31.212
Au 15.4411 28.4768 33.3009
Pd 18.1704 27.6432 33.4958
Au 17.3646 28.7314 31.1523
Au 15.5504 33.3089 5.73242
Au 17.5869 31.544 5.59177
Au 15.4851 31.4577 7.52935
Pd 15.4555 33.434 9.4524
Au 17.4978 31.4936 9.48776
Au 17.5555 33.433 7.5793
Au 15.4188 31.5236 11.4061
Pd 15.366 33.4391 13.3733
Pd 17.365 31.5027 13.3816
Pd 17.4412 33.4113 11.4093
Au 15.292 31.5155 15.3315
Pd 15.144 33.4114 17.2933
Pd 17.1953 31.5333 17.298
Au 17.246 33.4978 15.3161
Au 15.1121 31.4634 19.2393
Au 13.0351 33.2052 23.2901
Au 15.043 31.3245 23.254
Pd 14.9689 33.3351 21.258
Au 13.1481 31.1328 25.2857
Au 13.2032 33.0039 27.4645
Au 16.9377 31.3227 25.2751
Pd 14.9471 33.1603 25.3229
Pd 15.0958 31.0305 27.3148
Au 15.1858 32.8994 29.4998
Au 17.0849 30.9528 29.2904
Pd 16.8217 33.1448 27.3459
Pd 15.2858 30.5942 31.2969
Au 14.5251 33.0663 32.074
Au 17.4508 30.4231 33.2615
Au 17.1736 32.5794 31.6192
Au 19.6112 5.82646 4.89471
Au 18.9848 4.77056 9.62009
Au 20.6586 5.07853 7.3368
Au 18.3159 4.22993 14.4754
Au 20.0347 4.29754 12.2192
Au 19.3162 3.95669 17.1435
Au 21.0273 3.9229 15.0079
Pd 19.7532 4.28086 20.943
Pd 21.4923 4.11473 18.8519
Au 18.8225 5.176 25.8527
Au 20.6782 4.83999 23.6041
Au 19.0713 5.56466 29.8598
Au 20.9011 5.13722 27.6859
Au 19.4964 5.97122 33.5909
Au 21.2124 5.4281 31.5309
Au 20.1528 10.6813 4.1257
Au 21.221 8.0296 4.50172
Pd 19.5466 7.63556 6.82517
Au 19.4443 9.5059 8.84165
Pd 20.697 7.01168 9.28653
Au 21.2222 9.89081 6.52636
Pd 19.0366 6.80246 11.5135
Pd 19.1981 8.97692 13.3327
Au 20.1381 6.37095 14.0752
Au 20.8704 9.06329 11.176
Au 18.4034 6.39136 16.2843
Pd 18.4707 8.62691 18.0099
Au 21.2147 6.0445 16.8741
Au 20.2535 8.55486 15.8865
Au 19.5494 6.15383 18.9094
Au 18.8554 8.93697 21.7568
Au 20.6531 6.74061 21.5634
Au 20.6918 8.71222 19.5559
Au 18.8085 6.99324 23.777
Au 19.2094 9.23782 25.6436
Au 20.9775 6.95742 25.5661
Au 21.0127 8.90872 23.5086
Au 19.1634 7.33426 27.7026
Au 19.6265 9.53925 29.5528
Au 21.3023 7.24758 29.474
Pd 21.4022 9.14554 27.4186
Pd 19.5524 7.72625 31.6297
Au 18.9072 10.6327 34.2713
Au 20.5852 8.43194 34.1537
Au 20.7051 10.282 32.1549
Au 19.4438 14.2023 4.13784
Au 21.8978 13.0101 4.05628
Pd 20.0817 12.5202 6.1873
Au 20.0035 14.3464 8.37332
Au 21.0943 11.7272 8.69563
Au 21.9005 14.7462 6.21108
Au 19.2667 11.3809 10.9655
Au 19.259 13.283 13.0801
Au 21.1342 11.1822 13.0621
Au 21.0365 13.5299 10.9259
Au 19.3591 11.1408 15.1792
Pd 19.364 13.1907 17.179
Au 20.5737 10.751 17.6378
Pd 21.2499 13.1954 15.0706
Au 18.7785 10.8832 19.7127
Au 19.1501 13.0878 21.4945
Au 20.9851 10.8782 21.4413
Au 20.9358 12.9185 19.4309
Pd 19.1941 11.1385 23.5712
Au 19.5981 13.2906 25.4235
Au 21.4094 11.0579 25.3677
Au 21.322 13.0369 23.2991
Pd 19.6496 11.4012 27.4903
Au 19.0962 14.3332 30.1013
Au 20.7839 12.1198 30.0406
Au 20.8671 13.9258 27.8897
Au 19.0229 12.4995 32.2572
Au 19.5297 14.4812 34.1208
Pd 21.2152 12.2855 33.9528
Pd 21.2844 14.1589 31.9532
Au 19.2363 18.1153 4.36751
Au 21.2476 16.2367 4.0114
Au 19.4448 16.0292 6.23087
Au 19.4901 17.7629 8.50097
Au 21.9308 16.4487 8.53777
Au 21.3598 17.9371 6.22089
Pd 19.9465 16.0499 10.63
Au 19.7344 17.7015 12.8821
Pd 21.142 15.3602 13.0734
Au 21.8354 18.0593 10.8295
Au 19.3457 15.2486 15.1398
Au 19.3926 17.2711 17.1982
Au 21.2807 15.1343 17.1619
Au 21.2758 17.314 15.171
Au 19.3699 15.2114 19.2466
Au 19.4562 17.2874 21.3043
Pd 21.2333 15.0729 21.2924
Au 21.3216 17.1724 19.2378
Au 19.5063 15.2805 23.3738
Au 19.3538 17.845 25.6636
Au 21.0278 15.6996 25.6748
Pd 21.2163 17.4493 23.4505
Pd 19.196 16.096 27.9226
Au 19.6265 18.1515 29.8688
Pd 21.3495 15.9967 29.8226
Au 21.4109 17.7961 27.611
Au 19.5962 16.3415 32.0622
Pd 20.0509 18.4025 33.8487
Au 21.7639 16.1918 33.8058
Au 21.7919 18.0893 31.7371
Au 19.3306 22.018 4.78799
Au 21.3153 20.1263 4.47743
Au 19.3622 19.8581 6.54745
Au 19.4559 21.6274 8.8654
Pd 21.4036 19.6376 8.58386
Au 21.4034 21.7835 6.72804
Au 19.5178 19.5618 10.8136
Au 19.499 21.4485 13.1119
Pd 21.6051 19.6828 13.118
Au 21.4284 21.4697 11.0067
Au 19.5298 19.4634 15.1173
Au 19.4049 21.3442 17.2438
Pd 21.3375 19.306 17.2518
Pd 21.4511 21.4527 15.3103
Au 19.3912 19.2692 19.2371
Au 19.3565 21.2932 21.2529
Au 21.3548 19.288 21.2945
Au 21.3659 21.3052 19.3003
Pd 19.4385 19.5287 23.3889
Au 19.5981 21.5651 25.3683
Pd 21.4904 19.5449 25.3814
Au 21.496 21.3511 23.2217
Pd 19.6412 19.9159 27.6268
Au 19.9426 22.0254 29.5759
Au 21.7776 19.9017 29.5118
Au 21.748 21.6423 27.26
Pd 20.0338 20.26 31.7936
Au 20.4528 22.3338 33.6581
Au 22.2237 20.2052 33.5362
Au 22.1412 22.0436 31.4268
Au 19.4848 25.8561 5.16907
Pd 21.4672 23.9434 5.04544
Au 19.4353 23.755 6.96799
Pd 19.4822 25.5177 9.23175
Au 21.4473 23.55 9.08162
Au 21.5118 25.6643 7.18813
Pd 19.4785 23.4553 11.1487
Au 19.4543 25.3563 13.3291
Pd 21.4488 23.3899 13.3298
Au 21.4618 25.3772 11.3829
Au 19.431 23.3599 15.2825
Au 19.3481 25.3753 17.3377
Au 21.3716 23.3913 17.3903
Pd 21.3993 25.377 15.4384
Au 19.3267 23.3391 19.2862
Au 19.2547 25.3644 21.2886
Au 21.3586 23.3603 21.2889
Pd 21.2783 25.4488 19.4124
Au 19.334 23.2785 23.2176
Au 19.3117 25.284 25.1509
Au 21.6315 23.4318 25.0923
Au 21.3146 25.4575 23.2404
Au 19.7238 23.654 27.3215
Au 19.8262 25.6806 29.2817
Au 21.9764 23.7979 29.146
Au 21.7073 25.5331 26.9284
Au 20.2432 24.113 31.5326
Pd 20.5133 26.1069 33.35
Au 22.5196 24.2036 33.1663
Pd 22.1957 25.8929 30.9971
Au 19.5664 29.6371 5.47686
Au 21.6362 27.773 5.38599
Au 19.5167 27.5875 7.30882
Au 19.5201 29.4137 9.52713
Au 21.5136 27.4197 9.46931
Au 21.6198 29.4821 7.55505
Pd 19.4706 27.3937 11.4243
Pd 19.3974 29.4744 13.4298
Au 21.4322 27.3626 13.4987
Au 21.4786 29.3906 11.5862
Au 19.3756 27.4137 15.3755
Au 19.2511 29.5241 17.3605
Au 21.2956 27.492 17.4651
Au 21.3245 29.5119 15.468
Au 19.2441 27.4512 19.3367
Au 19.091 29.536 21.3085
Au 21.1608 27.5529 21.3718
Pd 21.1303 29.628 19.4028
Au 19.1423 27.4105 23.2709
Au 19.0091 29.3949 25.2558
Pd 21.2235 27.5304 25.152
Au 20.9964 29.659 23.3624
Pd 19.2805 27.2049 27.0719
Au 19.2797 29.081 29.0148
Au 21.7752 27.5651 28.8104
Au 21.1502 29.5644 27.0437
Au 19.9963 27.6545 31.2638
Au 20.2199 29.5208 33.2119
Pd 22.4166 27.8931 32.7768
Pd 21.8692 29.5579 30.6886
Au 19.7008 33.2619 5.9478
Au 21.6799 31.4306 5.70569
Pd 19.5911 31.3574 7.65637
Au 19.5836 33.4032 9.4755
Pd 21.5877 31.357 9.65438
Pd 21.7678 33.1773 7.73139
Au 19.4592 31.5033 11.4738
Pd 19.3502 33.4488 13.3814
Au 21.3892 31.541 13.48
Au 21.5187 33.4289 11.4568
Au 19.2679 31.5716 15.369
Au 17.0097 33.5179 19.2578
Au 19.073 31.6283 19.292
Au 19.1091 33.5868 17.2848
Au 17.0257 31.5135 21.2516
Pd 16.8314 33.3951 23.2727
Au 20.9139 31.7612 21.3265
Au 18.8487 33.6354 21.2513
Au 18.8928 31.6043 23.2859
Au 18.626 33.5534 25.301
Au 20.7766 31.783 25.3047
Au 20.638 33.8177 23.2787
Au 18.8764 31.3742 27.2512
Pd 18.6845 33.1241 29.3929
Au 21.0298 31.5758 29.0002
Au 20.4503 33.7177 27.3093
Au 19.3119 30.8551 31.0374
Pd 19.4978 32.2318 33.1781
Au 22.0722 31.5105 32.5149
Au 20.8219 33.3352 31.0369
Au 22.3041 5.51802 5.11588
Au 21.7191 4.48621 9.9132
Au 23.3966 4.78381 7.59451
Au 22.718 4.07329 12.8782
Au 24.3347 4.38791 10.7482
Au 23.2208 4.02839 16.7454
Au 24.9125 4.19981 14.6261
Pd 22.5147 4.68098 21.3844
Au 24.4222 4.50454 19.1608
Au 22.6922 4.80322 25.527
Au 24.4337 4.50618 23.3682
Pd 23.0023 5.10103 29.4184
Pd 24.746 4.76755 27.2865
Pd 22.138 6.22289 33.9236
Au 23.9681 5.68318 31.9364
Au 22.9075 10.3155 4.29498
Pd 23.9528 7.73969 4.77471
Au 22.3446 7.36135 7.01329
Au 22.5245 9.32884 8.95471
Au 23.504 6.70114 9.54026
Pd 24.1578 9.64512 6.69805
Au 21.8344 6.45947 11.8255
Au 22.0148 8.56652 13.7101
Au 24.4694 6.35587 12.7969
Au 23.7356 8.72459 11.4796
Au 22.8618 6.10162 14.8379
Au 22.5251 8.59157 17.3897
Au 24.3974 6.45428 17.1611
Au 24.3245 8.58074 15.2181
Au 22.5064 6.55198 19.3565
Au 22.8246 8.67197 21.3399
Au 24.619 6.47862 21.1798
Au 24.6413 8.51748 19.1805
Au 22.7895 6.66977 23.3899
Au 23.1895 8.82949 25.298
Pd 24.8447 6.59797 25.2527
Au 24.9759 8.58718 23.1577
Pd 23.0869 6.91504 27.3482
Au 22.4707 9.9032 29.9389
Au 24.093 7.59364 29.8357
Au 24.2609 9.52301 27.7729
Au 22.3342 8.00902 31.989
Pd 22.8957 10.0452 33.8371
Au 24.3826 7.67479 33.7797
Au 24.6171 9.74223 31.7562
Pd 23.7877 15.2605 4.23489
Au 24.6325 12.5425 4.24149
Au 22.9101 12.1014 6.43947
Au 22.8645 13.8362 8.76908
Au 24.509 11.6004 8.71112
Au 24.7187 14.1903 6.58891
Au 22.8345 11.3621 10.894
Au 23.0292 13.3256 12.9346
Au 24.0431 10.7439 13.4268
Au 24.8256 13.4972 10.8094
Pd 22.3143 10.6899 15.5442
Pd 22.6856 12.7789 17.3914
Au 24.5547 10.6414 17.2117
Au 24.4056 12.7858 15.3111
Pd 22.7859 10.7112 19.3317
Au 23.0696 12.8734 21.2213
Au 24.9305 10.644 21.1416
Au 24.8332 12.7433 19.1587
Au 23.1847 10.8187 23.2541
Au 22.7342 13.5306 25.6623
Pd 24.4633 11.3832 25.6664
Au 24.6659 13.1775 23.4682
Au 22.5862 11.7336 27.8387
Au 23.0594 13.7976 29.7847
Pd 24.7861 11.6174 29.7319
Au 24.8945 13.4186 27.5975
Pd 22.9798 11.9616 31.8689
Pd 23.4439 13.9884 33.6599
Au 25.1434 11.8023 33.6748
Au 25.2446 13.6397 31.6233
Au 23.2428 18.1581 4.14658
Pd 25.7889 17.2942 4.51223
Au 23.9074 16.8623 6.47119
Au 23.9136 18.457 8.82172
Au 24.8136 15.8165 8.96819
Pd 25.9154 18.7804 6.83447
Pd 22.9569 15.5547 11.0316
Au 23.133 17.3912 13.1886
Pd 24.9657 15.2947 12.991
Au 25.0138 17.5274 11.2406
Pd 23.1068 15.2011 15.0557
Au 23.1944 17.1376 17.1914
Au 24.8132 14.8471 17.2077
Au 25.0989 17.1239 15.1603
Pd 23.0264 14.9281 19.2657
Au 23.1269 17.106 21.3183
Pd 24.8953 14.9602 21.2914
Au 25.0687 16.8946 19.2364
Pd 22.9241 15.302 23.4576
Au 23.2459 17.4071 25.3856
Au 25.0086 15.2184 25.3986
Au 25.1535 17.0203 23.225
Au 23.1427 15.6129 27.6049
Au 23.5553 17.7369 29.4807
Au 25.3235 15.5065 29.4796
Au 25.3758 17.3534 27.2682
Au 23.509 15.8807 31.6715
Au 23.9632 18.0312 33.4729
Au 25.6394 15.8232 33.4104
Au 25.7188 17.7183 31.3215
Au 23.42 22.0268 4.76301
Pd 25.2963 20.0475 4.52424
Au 23.3483 19.7896 6.42668
Au 23.3532 21.4651 8.84077
Pd 25.8625 20.3372 9.21713
Pd 25.336 21.6151 6.80247