1687
Atoms. Timestep: 20419
Au 8.65484 6.70522 7.99198
Au 7.40748 5.8831 10.2782
Au 9.12761 5.18648 16.553
Au 9.18579 3.58141 18.7897
Au 7.88591 5.04781 22.6747
Au 8.18638 6.80875 26.872
Au 8.71031 8.93815 31.15
Pd 7.82424 8.9863 6.75306
Au 6.44132 8.02052 8.99962
Au 5.59543 10.1638 7.65676
Pd 8.41289 6.06744 12.7801
Au 7.36024 8.30488 11.6079
Au 8.24482 7.5118 15.1778
Pd 7.41268 9.84602 13.9737
Au 8.07666 5.66696 20.1089
Au 8.15598 7.37049 17.9933
Au 7.32763 7.1388 24.3625
Pd 7.27568 7.71203 21.7357
Pd 7.41252 8.74234 28.7453
Pd 6.90758 9.21456 26.1748
Pd 8.09552 10.9901 32.8478
Pd 6.69869 10.8042 30.5618
Au 6.93514 11.2888 5.58732
Pd 6.48264 10.51 10.2189
Au 4.62398 12.2994 10.8222
Au 6.43832 12.1138 12.8152
Au 5.47519 14.5971 11.7446
Au 7.31924 9.73951 16.7932
Au 6.47512 12.0762 15.6343
Au 7.30423 9.52326 19.6315
Au 6.49581 11.9521 18.5172
Pd 6.61759 9.76897 23.5051
Au 6.59916 11.6751 21.402
Au 6.28364 11.2617 27.9596
Au 6.01638 11.8137 25.3085
Au 6.1468 12.8639 32.3715
Au 5.70434 13.3666 29.7955
Au 4.0136 14.6112 9.43251
Au 4.52897 16.9827 10.5801
Au 4.44633 16.9328 7.96477
Au 5.61097 14.4349 14.5201
Au 4.86888 16.8697 13.3023
Au 5.70386 14.3408 17.3914
Au 5.04288 16.7291 16.125
Au 5.81897 14.1712 20.3455
Au 5.14856 16.5819 19.11
Au 6.02101 13.8142 23.2778
Au 5.29704 16.331 22.2597
Au 5.47631 13.9052 27.1064
Au 5.54449 15.9481 25.1914
Au 5.3193 15.4349 31.6351
Au 5.00178 15.9883 28.9747
Pd 8.12113 20.7503 8.60493
Au 4.35243 19.2875 11.922
Au 5.43457 19.2551 6.84251
Au 4.60055 19.1638 14.7467
Au 4.44802 21.5416 13.2885
Au 4.69626 18.9836 17.6987
Au 4.51604 21.3645 16.2742
Au 4.80851 18.7271 20.8866
Au 4.6342 21.1076 19.3963
Au 4.89209 18.4512 24.2101
Au 4.65798 20.7937 22.7229
Au 5.13273 18.1212 27.1937
Au 4.68134 20.5318 26.0811
Au 4.72308 18.0505 30.7259
Pd 4.95934 20.3992 29.0713
Au 5.53236 21.5608 8.23207
Pd 4.05848 21.8332 10.5832
Au 3.81416 23.6514 8.40954
Pd 4.93093 23.6781 14.8232
Au 4.11116 24.0886 12.1644
Pd 4.86454 23.4402 17.9173
Au 5.21574 25.7868 16.5378
Au 4.84531 23.1463 21.2053
Au 5.10171 25.4719 19.6886
Au 4.84396 22.8347 24.5434
Au 5.09626 25.1921 22.9847
Au 5.0488 22.7943 27.5454
Au 5.30764 25.1735 25.9113
Au 5.90249 22.889 32.2159
Au 4.31397 23.1562 30.1066
Au 7.64299 23.4535 7.76986
Au 4.01632 27.5718 7.91002
Au 6.11808 27.6444 9.58019
Au 4.43825 26.257 13.8834
Au 3.9928 25.8321 10.0145
Au 5.54372 27.8766 18.3212
Au 4.79639 28.4082 15.5891
Pd 5.49892 27.5572 21.4155
Au 6.00312 30.0147 20.042
Au 5.59625 27.5669 24.3274
Au 5.98391 29.9161 22.8369
Au 4.48841 25.4363 28.4934
Au 4.8175 27.7544 26.925
Au 5.37574 25.4213 33.1376
Au 5.58704 27.6775 31.6588
Au 5.67025 27.2543 5.80922
Pd 5.98203 29.3979 7.41031
Au 7.68016 29.0623 5.29844
Au 4.32554 28.0021 11.7221
Au 4.34798 29.6684 9.57126
Au 5.25855 30.4882 17.3311
Pd 6.85945 31.9905 12.915
Au 6.68293 32.2966 21.5511
Au 5.84499 32.5173 19.0308
Au 5.29543 30.1256 25.4295
Au 7.32767 32.0141 25.8353
Au 3.74886 25.7128 31.0445
Au 3.99795 27.9825 29.4974
Au 7.6085 29.5812 32.1778
Pd 6.0078 29.8568 30.0186
Au 10.0766 7.74199 5.79668
Au 9.60704 4.61318 9.42004
Pd 10.9664 5.51951 7.21806
Au 10.6317 4.65254 11.946
Pd 12.111 5.58178 9.73547
Au 10.557 2.90195 16.5332
Pd 11.9669 3.65586 14.2453
Au 10.2553 4.48059 21.2898
Au 11.8458 3.29822 18.9155
Au 9.30882 5.25555 24.9698
Pd 11.6895 5.09049 23.5902
Au 9.47653 7.0255 29.3484
Au 10.7033 5.7596 27.3291
Au 10.1729 9.31462 33.4794
Au 10.9205 7.35931 31.7978
Au 9.21388 10.0936 4.66514
Au 14.1076 9.8301 3.96861
Au 10.2801 10.2871 7.07231
Au 8.81756 9.24235 9.3401
Au 11.2032 7.92124 8.33195
Au 9.32477 12.6232 5.68629
Au 9.79829 7.00086 10.6073
Au 9.72936 8.46046 13.0166
Au 12.1128 6.99944 12.1143
Au 11.223 9.41396 10.7918
Au 10.5966 6.0315 14.3303
Au 10.6492 7.55072 16.6634
Au 12.0192 5.09638 16.6233
Pd 12.1437 8.46928 14.44
Au 10.5962 5.82316 18.9073
Au 9.65257 7.94499 20.3233
Pd 11.9841 6.6474 21.3258
Pd 12.1717 8.13324 19.0008
Au 9.67884 6.92024 22.8366
Au 9.0823 9.20047 24.6069
Pd 11.0231 7.34889 25.2017
Au 11.3465 9.08431 22.9773
Pd 9.78987 8.83182 27.2359
Au 8.99073 10.8276 29.0595
Pd 11.1908 9.09012 29.6581
Au 11.4616 10.9129 27.4463
Au 10.4304 11.0816 31.4493
Au 9.72193 13.0361 33.3519
Pd 11.8522 11.3611 33.8536
Pd 12.13 13.1555 31.8092
Au 5.52989 12.706 8.40001
Au 6.98581 13.8814 6.5352
Au 7.94935 11.5396 8.01796
Au 7.56735 13.0194 10.4422
Au 10.2481 11.7309 9.50224
Au 6.60844 15.3092 9.07126
Pd 8.76271 10.7614 11.7431
Pd 8.87906 12.1821 14.1781
Pd 11.2418 10.8187 13.1661
Au 10.248 13.072 11.8876
Au 9.77421 9.88161 15.3925
Au 8.89302 12.0646 17.0248
Au 12.2751 9.92584 16.8069
Au 11.3665 12.2515 15.5618
Au 9.76864 9.69983 18.2081
Au 8.95368 11.8173 19.8633
Au 11.3411 10.2588 20.4998
Pd 11.4403 12.0466 18.3822
Au 8.83885 9.96455 21.9572
Au 8.2014 11.9974 23.7171
Pd 10.7954 11.423 24.7932
Au 10.5665 12.2499 22.1801
Au 8.56897 11.3406 26.4029
Au 7.98717 13.4523 28.2133
Au 10.7337 12.9458 29.3185
Au 10.3502 13.5089 26.652
Au 8.3426 12.9185 30.9033
Pd 7.78038 14.9291 32.7817
Au 11.4621 15.0362 33.7697
Au 10.0957 14.9726 31.305
Au 9.02847 15.5103 5.7826
Au 10.3799 17.9121 5.76211
Au 6.64338 16.6138 6.59953
Au 7.09139 16.8005 11.4825
Au 9.23258 15.2524 10.5351
Au 8.82618 16.8523 8.30398
Pd 7.95848 14.4582 12.9317
Au 7.32343 16.7243 14.4695
Au 10.4355 14.5563 14.2816
Au 9.5535 16.8528 12.7895
Au 8.04131 14.3959 15.8247
Au 7.41481 16.613 17.5278
Au 10.55 14.4169 17.2222
Au 9.74638 16.7632 15.9067
Au 8.1206 14.245 18.7738
Au 7.48649 16.4388 20.6018
Au 10.6922 14.1251 20.0789
Au 9.85471 16.56 19.0075
Au 8.27542 13.9519 21.6616
Au 7.75209 16.0621 23.5677
Au 9.97944 14.2235 23.9918
Au 10.0621 16.2272 21.9473
Pd 7.69049 14.0463 25.5359
Pd 7.21088 16.12 27.4154
Au 9.82478 15.6122 28.5591
Au 9.48045 16.2441 25.8698
Au 7.50097 15.5574 30.1225
Au 7.03393 17.5562 32.0798
Pd 9.56719 16.9425 33.1752
Au 9.35099 17.6594 30.538
Au 7.24214 21.433 6.01024
Au 8.02452 18.892 6.57006
Pd 6.63743 18.3245 9.1275
Au 6.50262 20.7052 10.8251
Pd 8.78895 18.8083 10.7692
Au 10.2138 22.6237 8.05813
Pd 6.82515 19.0492 13.0218
Au 6.78088 21.2964 14.6849
Pd 9.20363 19.0498 14.4401
Au 8.77699 20.9868 12.5312
Au 6.95356 18.9429 16.0938
Pd 6.79422 21.1482 17.7425
Au 9.29407 18.9121 17.6475
Au 9.12668 21.2324 16.1821
Au 6.96547 18.824 19.232
Au 6.79101 20.9295 21.059
Au 9.31641 18.6933 20.8689
Au 9.03551 21.0389 19.4126
Au 7.03485 18.5624 22.5222
Au 6.80492 20.6587 24.4164
Au 9.57634 18.3405 23.9357
Au 9.04592 20.7863 22.7491
Au 7.30695 18.1968 25.5523
Pd 7.05193 20.4628 27.464
Au 9.06891 18.3619 27.7608
Au 9.25116 20.5569 25.9009
Au 6.85177 18.2759 29.3035
Au 6.41518 20.2317 31.3689
Au 8.94335 19.5544 32.5568
Au 8.70064 20.3456 29.8477
Au 4.18114 19.416 9.2429
Au 9.31702 23.3066 5.47172
Au 5.93387 23.6944 10.0104
Au 6.18935 25.8559 11.7358
Pd 8.51128 22.8479 10.4092
Pd 7.98837 25.5466 9.5291
Au 6.68081 23.0777 12.5807
Pd 7.04859 25.3683 14.3359
Au 8.96295 23.1927 14.243
Au 8.83582 25.028 12.1221
Au 7.10946 23.5234 16.4099
Pd 7.40029 25.6435 18.2011
Au 9.34781 23.4059 18.0288
Au 9.27144 25.3878 16.043
Au 6.9981 23.2391 19.5407
Au 7.26562 25.3141 21.3338
Pd 9.23494 23.1028 21.2359
Au 9.63663 25.503 19.8366
Pd 7.00714 22.9797 22.8912
Au 7.50305 25.2547 24.361
Au 9.43503 22.9851 24.3763
Au 9.72228 25.3137 22.8008
Au 7.22845 22.8934 25.9811
Pd 7.13495 24.7349 28.0398
Pd 9.04394 22.5184 28.0722
Au 9.35377 24.8821 26.4731
Pd 6.85104 22.4064 29.6347
Au 7.92893 24.7365 32.9162
Pd 8.48414 22.1776 31.9418
Pd 8.87501 24.3526 30.2678
Pd 5.76056 25.5098 7.87626
Au 9.48279 27.0543 5.12441
Pd 7.83591 27.3185 7.40311
Au 6.42674 29.8632 11.284
Pd 8.31011 27.7231 11.251
Au 9.90897 29.1252 6.95354
Au 6.54825 28.0418 13.4416
Au 6.88168 30.2728 15.1055
Au 9.17887 27.237 13.8758
Pd 8.67407 29.9152 12.8863
Au 7.36494 27.5591 16.1274
Au 7.79928 29.7586 17.8577
Au 9.65547 27.5345 17.8333
Au 9.53214 29.4267 15.6058
Au 7.77554 27.793 19.9354
Pd 8.33369 30.0142 21.5692
Au 10.1398 27.717 21.4139
Au 10.1846 29.7302 19.5081
Au 7.82842 27.6034 22.8446
Au 7.96022 29.5378 24.7804
Pd 9.75766 27.2121 24.8146
Pd 10.3318 29.6209 23.3273
Pd 7.48087 27.0778 26.4084
Pd 6.57427 27.3161 29.0374
Pd 9.22371 26.6481 28.6206
Au 9.69076 28.9248 26.9462
Au 6.29331 25.052 30.6141
Au 7.3057 27.329 33.7503
Au 9.9364 26.6737 33.5203
Au 10.316 28.8627 31.7614
Au 5.41879 23.4396 6.22291
Au 7.4179 25.2392 5.6116
Au 8.1854 29.4948 9.10484
Pd 6.35909 31.4447 9.14695
Au 8.54307 31.7639 10.7025
Au 8.00471 31.1996 6.97926
Au 4.79934 30.1306 13.4069
Au 7.36184 34.0298 14.6102
Au 9.07496 32.0399 14.6046
Au 8.95124 33.775 12.4594
Au 7.26505 32.4219 16.7694
Pd 7.86776 34.2717 18.6485
Au 9.97216 31.7194 17.2655
Au 9.3963 34.2409 16.3253
Au 8.44847 31.8764 19.5458
Au 9.02936 33.8851 21.2873
Au 10.625 31.7351 21.4685
Au 10.4737 33.9327 18.9476
Au 8.57895 32.0888 23.4144
Au 4.38902 30.2047 27.9493
Au 10.3483 31.3683 25.3321
Au 10.8867 33.631 23.4688
Au 6.98765 29.5676 27.4367
Au 7.99114 31.7867 30.4738
Pd 8.64646 29.2219 29.6008
Au 6.35532 32.0596 28.3422
Au 8.25511 26.9801 31.2454
Pd 9.67871 31.374 32.5393
Pd 9.30648 29.2002 34.1789
Au 10.0632 33.5178 30.8053
Au 12.3592 6.51915 5.12234
Au 13.5387 6.47063 7.47913
Au 14.9291 7.49414 5.19869
Au 13.407 4.43571 11.9608
Au 14.8726 5.3448 9.69574
Au 13.2844 2.6735 16.4972
Au 14.7415 3.44441 14.2452
Pd 13.0433 4.08824 21.277
Au 14.5662 3.09706 18.876
Au 13.1279 5.58823 25.9576
Au 14.4428 4.59226 23.609
Au 12.1669 6.2918 29.6465
Au 14.6278 6.16274 28.3062
Au 12.424 7.9315 34.1092
Au 13.6449 6.78156 31.9657
Au 11.6929 11.3091 4.80705
Au 15.9144 11.7949 3.63855
Au 12.5806 8.95427 6.0494
Au 12.6819 10.3695 8.50154
Au 15.0001 8.89108 7.5567
Au 14.1259 11.3106 6.23415
Au 13.5728 7.95621 9.83574
Pd 13.6238 9.43227 12.1954
Au 14.9088 6.8109 12.0441
Pd 15.089 10.3708 9.92705
Au 13.462 5.91995 14.3247
Au 13.5683 7.44684 16.7052
Pd 14.7992 4.95848 16.6508
Au 14.9905 8.34154 14.4108
Au 13.3925 5.59144 19.0386
Au 13.6569 8.88278 21.4392
Pd 14.7394 6.22699 21.3932
Au 14.9809 7.88265 19.1158
Au 13.407 7.19748 23.7112
Au 12.7348 9.53555 25.3462
Pd 14.866 7.7764 26.0826
Au 15.1184 9.45315 23.8361
Au 12.457 7.88793 27.5119
Au 12.9405 11.2509 29.8727
Pd 13.9504 8.41121 29.8092
Pd 14.1764 10.0888 27.6605
Au 12.6729 9.50553 32.0228
Au 13.5721 13.3796 34.3638
Pd 14.1506 10.0031 34.4255
Au 14.4195 11.7141 32.3684
Pd 9.22621 13.9811 8.13294
Au 11.3608 14.3196 4.99882
Pd 11.6961 12.7027 7.19285
Pd 11.7274 14.0696 9.55347
Pd 14.1693 12.7357 8.59464
Au 13.5907 14.6444 6.65954
Au 12.7206 11.7892 10.8844
Au 12.8099 13.1676 13.2824
Au 15.1768 11.8231 12.2862
Au 14.2546 14.1521 10.9447
Au 13.7166 10.8644 14.5542
Pd 13.8824 12.2965 16.9244
Au 15.1886 9.83649 16.8009
Pd 15.308 13.25 14.6663
Au 13.7938 10.4557 19.1131
Au 13.0357 12.5619 20.6771
Au 15.3551 11.1609 21.5795
Au 15.4399 12.7313 19.2265
Au 13.0307 11.3259 23.1458
Pd 12.56 13.6062 25.0052
Au 14.4704 11.7377 25.4892
Pd 14.7648 13.4774 23.2925
Pd 13.1633 13.0193 27.6582
Au 12.4882 14.9984 29.6501
Au 14.7356 13.4027 30.1414
Au 14.9559 15.0776 27.8789
Au 13.9245 15.1061 32.2329
Au 13.3082 16.9389 34.2005
Au 15.4431 15.3079 34.7839
Au 15.862 16.9571 32.5928
Au 12.353 19.7677 5.13961
Au 12.7029 16.7559 4.99446
Au 11.2335 15.7769 7.42394
Au 11.0654 17.2404 10.0669
Au 13.4953 16.1555 9.17146
Au 12.6717 18.174 7.40981
Au 11.8434 15.3766 11.9305
Au 12.0068 16.9216 14.232
Pd 14.3609 15.5131 13.3512
Pd 13.4725 17.5286 11.6728
Au 12.9519 14.6227 15.6786
Au 12.1936 16.7536 17.3959
Au 15.4601 14.6628 17.035
Au 14.4584 16.9932 15.7357
Pd 13.0914 14.3625 18.5525
Au 12.4052 16.4078 20.3343
Pd 14.7213 14.7905 20.8673
Au 14.7204 16.6801 18.7557
Au 12.3265 14.4949 22.4212
Au 11.7588 16.4453 24.2926
Au 14.3473 15.751 25.2371
Au 14.0455 16.7217 22.658
Au 12.1605 15.6439 26.9591
Au 11.6894 17.7034 28.9466
Au 14.3395 16.9492 30.0093
Au 14.0023 17.753 27.3091
Au 11.9156 16.9665 31.6922
Au 11.4543 18.8527 33.6741
Au 15.2725 18.6802 34.6114
Pd 13.834 18.827 32.1162
Pd 9.9642 20.7548 6.08191
Au 14.3841 21.5416 4.48233
Au 10.2852 19.183 8.27377
Au 10.4738 20.9257 10.3442
Pd 12.6953 19.4336 9.88861
Pd 12.3369 20.998 7.67189
Pd 11.1315 18.992 12.3413
Pd 11.0932 21.0975 14.1416
Au 13.496 19.154 13.9421
Pd 12.8199 21.0941 12.0017
Au 11.5364 19.0692 15.9855
Au 11.3788 21.1901 17.8369
Pd 13.8782 19.0614 17.5918
Au 13.4073 21.1642 15.845
Au 11.6384 18.8471 19.245
Au 11.3099 20.9361 21.0831
Au 14.0961 18.7276 20.6433
Pd 13.6049 21.1279 19.4582
Au 11.8299 18.5127 22.2922
Au 11.4724 20.6712 24.3105
Au 13.5592 18.6735 24.6053
Au 13.667 20.8341 22.678
Au 11.338 18.4706 26.2233
Au 10.9912 20.4277 28.2854
Au 13.6343 19.6681 29.4254
Au 13.2798 20.5434 26.7046
Pd 11.2841 19.6278 31.0104
Au 10.9886 21.4452 33.105
Au 13.4825 20.6706 34.167
Pd 13.2981 21.5043 31.527
Au 11.3894 25.126 4.99117
Pd 12.0085 22.5556 5.52824
Pd 9.69874 25.3001 7.26536
Pd 10.5838 24.7257 9.87831
Au 12.4717 22.762 9.78606
Pd 12.2815 24.4227 7.52657
Pd 10.7791 22.991 12.1049
Au 11.085 25.1169 13.8485
Au 13.0961 23.0962 13.8099
Au 12.8409 24.8637 11.5932
Au 11.2542 23.2237 15.9318
Au 11.5575 25.3733 17.7677
Au 13.532 23.2426 17.6786
Au 13.3798 25.2007 15.6019
Au 11.5722 23.3009 19.6967
Pd 11.9807 25.4586 21.3407
Pd 13.8476 23.2117 21.2308
Au 13.8743 25.3701 19.4476
Au 11.6485 23.0771 22.7877
Au 11.6108 24.9607 24.877
Pd 13.4948 22.7351 24.8945
Au 13.8585 25.0896 23.2984
Au 11.2778 22.6093 26.4957
Au 11.0873 24.4752 28.6582
Au 13.0648 22.3726 28.8412
Au 13.3631 24.5679 27.0864
Au 10.7503 22.2852 30.4168
Au 10.5546 24.0835 32.613
Au 13.0835 23.3136 33.6617
Au 12.8307 24.1864 30.9978
Au 11.5467 28.8395 4.75455
Pd 11.8068 27.0974 6.8052
Au 10.0856 27.3609 9.05954
Pd 10.4232 29.6097 10.6768
Pd 12.7026 26.5401 9.35405
Au 12.2352 29.273 8.46504
Au 10.9416 26.9139 11.6373
Au 11.3095 29.1183 13.3662
Au 13.2076 27.0108 13.3904
Au 13.0797 28.7151 11.1245
Au 11.4298 27.2939 15.6167
Au 11.8171 29.5243 17.297
Au 13.7052 27.3894 17.3293
Au 13.5704 29.2278 15.1334
Au 12.0358 27.5669 19.4707
Au 12.4018 29.5931 21.429
Au 14.1284 27.3822 21.4559
Pd 13.9373 29.6385 19.1159
Au 12.0728 27.3554 23.328
Au 12.0617 29.1603 25.3974
Au 13.8108 26.9473 25.4408
Au 14.2593 29.2578 23.5948
Au 11.5089 26.7859 26.998
Au 11.3848 28.5576 29.1585
Au 13.2117 26.4094 29.2442
Pd 13.6963 28.7498 27.5781
Au 10.9271 26.2677 30.884
Au 11.951 28.6698 34.0007
Au 12.6037 26.019 33.2379
Au 13.0234 28.2377 31.4841
Au 9.73356 30.8133 4.97885
Au 12.0493 31.016 6.37611
Au 10.2715 31.4591 8.4883
Au 10.766 33.4489 10.3168
Au 12.6194 31.3497 10.25
Au 12.5387 32.9959 8.22217
Au 10.8098 31.7379 12.4055
Pd 11.1215 33.8657 14.09
Au 13.5104 30.9764 12.8897
Au 12.9792 33.5137 11.9242
Au 11.733 31.3667 15.0717
Au 12.0573 33.6257 16.6986
Pd 13.8224 31.493 16.848
Au 13.8209 33.2196 14.5578
Au 12.1178 31.7596 19.0703
Pd 12.2325 33.8646 20.9941
Au 14.0297 31.8654 21.0395
Au 13.9481 33.7282 18.6422
Pd 12.5753 31.4762 23.5082
Au 9.52823 33.7233 26.083
Au 11.9593 30.9656 27.5148
Au 12.4455 33.2687 25.6821
Au 9.09706 31.445 27.8548
Au 8.45518 33.8396 28.6505
Au 13.5225 30.5443 29.7613
Au 11.1628 33.4567 28.2809
Au 10.737 31.1017 30.0388
Pd 12.3043 30.8319 32.2889
Au 13.9975 30.4537 34.351
Au 12.75 33.02 30.5385
Pd 16.4793 8.55927 3.18862
Pd 16.2839 6.34172 7.42385
Au 17.7127 7.19256 5.18776
Pd 16.1922 4.34766 12.0084
Au 17.6225 5.1823 9.70272
Pd 16.0589 2.62062 16.5222
Pd 17.5365 3.37515 14.3119
Pd 15.7969 3.69199 21.2474
Pd 17.2703 2.83945 18.9102
Au 15.8901 5.14132 25.983
Au 17.1848 4.12964 23.6341
Au 16.1362 6.73572 30.6527
Pd 17.4015 5.76621 28.3337
Au 15.0646 7.37353 34.2178
Au 17.6931 7.47166 33.0379
Pd 13.6793 13.1452 4.31816
Au 18.2193 10.5564 2.9765
Pd 16.5409 9.83902 5.43147
Au 16.5667 11.314 7.69164
Au 17.8512 8.60317 7.53728
Au 18.2281 12.0772 5.23344
Au 16.3703 7.72012 9.77973
Au 16.4513 9.24263 12.1387
Au 17.7232 6.66185 12.0535
Au 17.9183 10.1169 9.88236
Au 16.2559 5.78139 14.3627
Au 16.3966 7.31883 16.7298
Pd 17.5864 4.87017 16.6798
Au 17.8426 8.22455 14.4266
Pd 16.1385 5.32417 19.0307
Au 16.434 8.45544 21.4948
Au 17.4908 5.79398 21.4102
Au 17.7906 7.53515 19.1145
Pd 16.1583 6.75428 23.7469
Au 16.611 10.0136 26.1931
Au 17.6179 7.31112 26.0979
Au 17.9014 9.00612 23.8363
Pd 16.3662 8.36149 28.4186
Au 15.686 10.6035 30.0136
Au 17.926 8.96353 30.7545
Au 18.196 10.6052 28.5184
Au 15.42 8.94919 32.1791
Au 15.9636 12.1282 34.8191
Au 16.8074 9.4091 34.7185
Au 17.1735 11.0564 32.5492
Au 15.0528 15.5515 4.28448
Au 17.3779 14.2021 3.61647
Au 15.9201 13.4257 5.93217
Au 15.8785 14.9436 8.36221
Au 18.2378 13.6334 7.57977
Pd 17.3969 15.7835 5.8978
Au 16.6476 12.7771 10.008
Au 16.7529 14.2248 12.3751
Au 18.0493 11.638 12.2344
Au 18.2836 15.1393 9.97117
Au 16.5978 10.7575 14.5153
Au 16.8153 12.2404 16.8965
Au 18.0505 9.76775 16.8149
Au 18.2098 13.1519 14.6056
Au 16.6395 10.1603 19.2199
Au 17.0457 13.3491 21.6592
Pd 18.1386 10.6883 21.5792
Pd 18.2833 12.3618 19.2903
Pd 16.8641 11.6674 23.9261
Pd 16.2508 13.8425 25.6303
Au 18.4369 12.2156 26.2625
Au 18.6321 13.834 23.9963
Au 15.9155 12.2613 27.8367
Au 16.6969 15.4803 30.3906
Au 17.5122 12.7137 30.2876
Au 17.7352 14.3304 28.0421
Au 16.3376 13.813 32.6782
Pd 17.4846 17.1119 35.048
Pd 17.9177 14.1527 35.0337
Au 18.3788 15.7719 32.8885
Au 14.683 18.5929 4.32352
Au 16.9916 17.3562 3.58948
Au 15.0517 17.0312 6.63129
Pd 15.0715 18.4191 9.04505
Pd 17.4253 17.2441 8.28257
Pd 17.0069 18.83 5.94159
Au 15.8834 16.412 10.8078
Au 15.918 17.7922 13.2725
Au 18.3862 16.5677 12.3863
Au 17.5281 18.6449 10.6761
Au 16.8693 15.6341 14.7584
Pd 17.0035 17.0357 17.1529
Au 18.418 14.6467 16.9732
Au 18.4449 17.987 14.8295
Au 17.0756 14.9605 19.3331
Au 16.4022 17.0173 21.0469
Au 18.7617 15.5454 21.7281
Pd 18.684 17.1798 19.4271
Au 16.4966 15.6248 23.445
Au 16.1501 17.9322 25.5365
Au 18.0048 15.9542 25.838
Au 18.2627 17.8048 23.6705
Pd 16.7736 17.1095 28.1534
Au 16.2584 18.823 30.3935
Pd 18.6852 17.4491 30.6708
Au 18.6591 19.0605 28.4545
Au 17.8441 18.7841 32.9226
Au 17.2393 20.3865 35.0423
Au 19.5152 18.936 35.4978
Au 19.8359 20.6155 33.342
Au 16.4634 23.3106 3.77441
Au 16.7248 20.335 3.60652
Au 14.6803 19.9907 6.73592
Au 14.7037 21.3106 9.26401
Au 17.0556 20.2489 8.38478
Au 16.7541 21.7588 6.02974
Au 15.1161 19.724 11.4766
Pd 15.2286 21.2289 13.7411
Au 17.607 20.0356 13.1057
Au 17.1361 21.6735 10.8787
Au 15.9615 19.2502 15.6697
Au 15.7085 21.2333 17.5684
Au 18.5164 19.3791 17.2563
Au 17.6333 21.4191 15.4944
Au 16.3584 18.9754 19.0126
Au 15.8815 21.0075 21.0341
Au 18.1252 19.2124 21.2659
Au 18.0429 21.2474 19.2819
Au 15.8076 18.9394 22.9367
Au 15.4798 20.7481 25.0355
Au 18.0672 19.9894 25.8752
Pd 17.6869 21.0116 23.2957
Au 15.918 19.7844 27.734
Pd 15.6167 21.574 29.8898
Au 18.2003 20.7003 30.7859
Au 17.899 21.7447 28.1623
Au 15.8044 20.6575 32.5614
Au 15.5705 22.5023 34.6564
Au 19.1692 22.1043 35.4866
Au 17.8409 22.4904 33.0185
Au 14.0706 24.3172 4.81241
Au 16.1514 26.1068 4.16954
Pd 14.4265 22.844 7.02284
Au 14.5936 24.5357 9.256
Au 16.88 23.2012 8.59316
Au 16.5988 24.6532 6.30979
Au 14.8291 22.9295 11.5425
Au 15.1818 25.0282 13.3644
Au 17.2006 23.1423 13.2973
Au 17.0051 24.7619 11.0138
Au 15.429 23.2135 15.5822
Au 15.6582 25.2844 17.38
Pd 17.7358 23.3293 17.4
Au 17.4648 25.1617 15.2267
Au 15.8136 23.2573 19.3859
Pd 15.8841 25.2189 21.4478
Au 17.7477 23.13 21.4257
Au 17.6802 25.3515 19.3765
Au 15.6689 22.9131 23.2369
Au 15.5602 24.7272 25.4707
Au 17.4999 22.7421 25.4776
Au 17.6408 24.9408 23.6632
Pd 15.3112 22.5027 27.2139
Pd 15.1107 24.2838 29.3557
Pd 17.6275 23.4518 30.3378
Au 17.3803 24.462 27.6853
Pd 15.3421 23.3647 32.0186
Au 15.1585 25.1569 34.2047
Pd 17.6906 24.33 35.0801
Au 17.3936 25.217 32.5284
Pd 13.4562 26.8947 4.57226
Pd 21.1233 28.9086 3.57387
Au 14.3974 26.1445 6.97113
Au 14.8213 28.3065 8.76834
Au 16.8082 26.317 8.71192
Au 16.5704 27.8113 6.34355
Au 15.0012 26.6791 11.0834
Au 15.3615 28.8274 12.9517
Au 17.3765 26.8385 12.9772
Au 17.2162 28.3688 10.7661
Au 15.4973 27.1463 15.1934
Au 15.6947 29.3969 16.9763
Au 17.6182 27.2834 17.1503
Au 17.5902 29.0047 14.8543
Au 15.7581 27.4712 19.2465
Au 15.7581 29.6838 21.1915
Au 17.5364 27.4974 21.3814
Au 17.5813 29.5848 19.0013
Au 15.9432 27.0715 23.6466
Pd 15.8893 28.8731 25.8623
Au 17.6206 26.7348 25.9374
Pd 17.3225 29.4824 23.4584
Au 15.4627 26.5591 27.6361
Au 15.2955 28.3449 29.7834
Au 17.1452 26.2046 29.8476
Pd 17.5178 28.5127 28.1271
Au 14.8654 26.0795 31.5609
Au 14.6455 27.8683 33.8127
Pd 17.2209 26.9997 34.6636
Au 16.8905 27.9644 32.1046
Au 13.9916 28.9832 6.1691
Au 18.9317 29.1856 5.35338
Au 14.4914 31.0747 7.92359
Pd 14.8174 32.9794 9.83192
Au 17.0533 29.871 8.56317
Au 16.9263 32.4359 7.92858
Au 15.2801 30.4627 10.6773
Pd 15.6349 32.6583 12.4574
Pd 17.4827 30.5233 12.601
Pd 17.4438 32.0902 10.4617
Au 15.6676 31.1176 14.7162
Pd 15.8324 33.2989 16.4347
Pd 17.6634 31.3203 16.6155
Au 17.784 32.7946 14.2422
Au 15.7596 31.7207 18.7465
Au 13.9278 33.8301 23.1055
Au 15.5934 31.6957 23.292
Pd 15.6715 33.9586 20.6974
Au 14.1758 31.0662 25.7761
Au 14.0029 32.8674 27.9596
Au 17.012 31.417 25.6729
Pd 15.3051 33.5225 25.4538
Pd 15.7348 30.6573 28.0594
Au 15.5522 32.4601 30.2259
Au 17.3119 30.296 30.3276
Pd 16.8089 33.1923 27.8049
Pd 15.0967 30.0575 31.9526
Au 14.3769 32.521 32.6695
Au 16.6487 29.7311 34.2739
Au 17.0617 31.9649 32.5448
Au 19.2286 8.01148 3.04511
Au 19.0448 6.04602 7.45143
Au 20.492 6.85773 5.20503
Au 18.9748 4.14941 12.0237
Au 20.4003 4.9836 9.74811
Au 18.8329 2.50153 16.6139
Au 20.3284 3.20777 14.3611
Pd 18.5733 3.26747 21.3026
Pd 20.0212 2.42001 19.0251
Au 18.6504 4.66808 26.0287
Au 19.9886 3.68888 23.6721
Au 18.9038 6.32718 30.6937
Au 20.1611 5.2705 28.3641
Au 19.3412 8.44494 35.1648
Au 20.4183 7.08035 32.9907
Au 19.7939 12.8764 2.96608
Au 20.9122 10.1948 2.94177
Pd 19.3352 9.45406 5.2722
Au 19.4145 10.9685 7.5744
Pd 20.6252 8.34533 7.53406
Au 20.9889 11.7675 5.21903
Pd 19.1689 7.5222 9.79657
Pd 19.2914 9.07856 12.1529
Au 20.5191 6.51608 12.0873
Au 20.7389 9.89915 9.87997
Au 19.0564 5.6805 14.378
Pd 19.2298 7.28973 16.7199
Au 20.3924 4.80752 16.7038
Au 20.6811 8.1491 14.4527
Au 18.9089 4.91496 19.0705
Au 19.2278 8.03448 21.4819
Au 20.3108 5.36617 21.4265
Au 20.6103 7.09852 19.1053
Au 18.9279 6.28768 23.771
Au 19.4237 9.54502 26.1648
Au 20.4265 6.84109 26.1082
Au 20.7101 8.54658 23.8082
Au 19.1626 7.88978 28.4284
Au 19.874 11.3076 30.7654
Au 20.7046 8.54469 30.6922
Pd 20.9956 10.1385 28.4426
Pd 19.5788 9.799 32.9715
Au 18.6499 11.3867 35.0366
Au 21.2199 10.4573 35.2899
Au 21.5907 11.9857 33.0831
Au 19.2808 16.0458 2.96062
Au 21.687 14.9449 3.00012
Pd 19.7817 14.4432 5.20394
Au 19.7926 15.9803 7.5761
Au 21.0275 13.3365 7.57187
Au 21.6787 16.4409 5.41637
Au 19.5074 12.5114 9.92048
Au 19.6555 14.0225 12.2939
Au 20.9043 11.4714 12.2493
Au 21.1135 14.8762 9.98201
Au 19.4739 10.6585 14.525
Pd 19.6733 12.2118 16.8848
Au 20.8991 9.77807 16.8164
Pd 21.0815 13.028 14.5976
Au 19.46 9.75663 19.208
Au 19.8591 12.8579 21.6062
Au 20.9684 10.2533 21.5194
Au 21.131 11.9259 19.214
Pd 19.6722 11.1973 23.8866
Au 20.2821 14.4233 26.3299
Au 21.2515 11.7464 26.1856
Au 21.4727 13.3732 23.9019
Pd 20.0849 12.841 28.5469
Au 19.4302 14.6976 30.5162
Au 21.9021 13.5226 30.8343
Au 21.975 15.0494 28.6034
Au 19.0746 13.029 32.8228
Au 19.9694 16.0326 35.3457
Pd 20.5718 13.3266 35.2062
Pd 21.0431 14.9397 33.0344
Au 19.0556 19.0515 2.83053
Au 21.4923 17.7851 3.05142
Au 19.2944 17.6043 5.16859
Au 19.3566 19.062 7.57337
Au 21.7538 17.9605 7.94997
Au 21.5567 19.2501 5.46435
Pd 19.9147 17.4332 10.0007
Au 20.0097 18.8705 12.4209
Pd 21.2551 16.3463 12.3739
Au 21.832 19.4447 10.4133
Au 19.8193 15.5096 14.6635
Au 19.998 17.0324 17.0608
Au 21.3028 14.5765 16.948
Au 21.3871 17.8478 14.7592
Au 19.9273 14.534 19.3428
Au 20.4461 17.7158 21.8392
Pd 21.5819 15.0277 21.6528
Au 21.5402 16.7156 19.4217
Au 20.4422 16.0208 24.0589
Au 19.8513 17.9723 26.0531
Au 22.1764 16.5864 26.3508
Pd 22.2174 18.1573 24.1269
Pd 19.5286 16.3379 28.2761
Au 20.6722 19.4088 31.0001
Pd 21.3595 16.6257 30.7953
Au 21.3936 18.2748 28.5303
Au 20.3844 17.6735 33.2093
Pd 21.6066 20.8067 35.6257
Au 22.0694 17.9527 35.5207
Au 22.4267 19.5939 33.3194
Au 18.7936 22.0226 2.89103
Au 21.2738 20.6657 3.15041
Au 19.1081 20.5391 5.14623
Au 19.1809 22.0432 7.62344
Pd 21.5961 20.7444 7.99999
Au 21.4061 22.0777 5.60879
Au 19.443 20.5542 9.99468
Au 19.5189 22.0322 12.4712
Pd 21.8987 20.9153 12.8771
Au 21.6404 22.258 10.5223
Au 20.0572 20.3239 14.856
Au 20.0478 21.6983 17.3424
Pd 21.5717 19.4123 17.1132
Pd 21.9034 22.3326 15.3174
Au 20.3045 19.3812 19.5017
Au 19.9149 21.3397 21.5477
Au 22.1885 19.7789 21.859
Au 21.9644 21.5816 19.6776
Pd 20.0728 19.8456 23.9188
Au 20.0352 22.0063 26.247
Pd 21.6687 19.9544 26.3084
Au 21.9799 21.7129 23.9097
Pd 20.5717 20.9824 28.8206
Au 20.1754 22.5945 31.1978
Au 22.6938 21.5445 30.9379
Au 22.5485 22.6681 28.1867
Pd 21.8533 22.4577 33.4917
Au 21.1406 23.6586 35.9465
Au 23.6776 22.7715 35.4775
Au 23.8125 24.0195 32.4974
Au 18.586 24.8883 3.0686
Pd 21.0486 23.4782 3.34576
Au 18.9186 23.4649 5.27754
Pd 19.04 25.0339 7.73475
Au 21.4359 23.6006 8.1544
Au 21.2356 24.9159 5.77164
Pd 19.2633 23.5586 10.0911
Au 19.3583 25.0048 12.662
Pd 21.7091 23.7259 13.0172
Au 21.5111 25.1266 10.6851
Au 19.533 23.4336 15.0284
Au 19.5927 25.3078 17.295
Au 21.8065 23.761 17.7122
Pd 21.668 25.2445 15.3724
Au 19.7637 23.4311 19.5501
Au 19.42 25.3714 21.5991
Au 21.7155 23.5858 21.7772
Pd 21.4822 25.5758 19.7984
Au 19.6587 23.1085 23.6509
Au 19.6071 24.8732 25.8531
Au 22.0825 23.759 25.6173
Au 21.3326 25.5961 23.6481
Au 19.9714 23.7292 28.5213
Au 19.647 25.3621 30.7957
Au 22.2191 24.376 30.2627
Au 22.1512 25.525 27.6569
Au 19.9592 24.3272 33.4744
Pd 19.8421 26.0708 35.4513
Au 22.7522 25.3016 34.7605
Pd 21.8885 26.082 32.3723
Au 23.5206 30.0861 3.98758
Au 20.9624 26.2329 3.45711
Au 18.771 26.4089 5.30893
Au 19.0151 28.0042 7.87427
Au 21.3478 26.4846 8.32911
Au 21.2191 27.7152 5.89428
Pd 19.1985 26.5595 10.3236
Pd 19.5155 28.6423 12.6161
Au 21.5921 26.7364 13.0331
Au 21.5053 28.1935 10.6653
Au 19.5318 26.9644 14.9343
Au 19.5337 29.2316 16.9245
Au 21.483 27.2663 17.4329
Au 21.6174 28.7751 15.0813
Au 19.4642 27.4684 19.343
Au 19.2086 29.751 21.2196
Au 21.0457 27.6645 21.6671
Pd 21.1999 29.5935 19.1095
Au 19.1079 27.3295 23.6871
Au 18.7853 29.266 25.7889
Pd 20.988 27.4179 25.741
Au 20.4455 29.7822 23.6802
Pd 19.4219 26.4586 28.0837
Au 19.1332 28.1464 30.3655
Au 21.5627 27.1582 29.7086
Au 20.4656 29.0593 27.9106
Au 19.448 27.1217 33.0085
Au 19.2076 28.7989 35.1423
Pd 21.7069 27.7974 34.4886
Pd 21.527 28.8049 31.9696
Au 16.5615 30.4983 6.06834
Au 21.413 30.5252 5.64954
Pd 19.2726 30.9262 7.4214
Au 19.8228 32.6947 9.44427
Pd 21.4685 29.3626 8.14225
Pd 21.8307 32.0844 7.77412
Au 19.3638 29.993 10.1156
Pd 19.6925 31.9832 12.1305
Au 21.7925 30.2822 12.8218
Au 21.7165 33.5371 11.4323
Au 19.6433 30.8435 14.5998
Au 17.6518 33.6624 18.4777
Au 19.4372 31.6152 18.6473
Au 19.6204 33.2423 16.3605
Au 17.4025 31.9321 20.8889
Pd 16.8523 34.0509 23.1202
Au 20.1867 32.3442 21.1535
Au 18.4856 34.4515 20.9557
Au 18.5347 31.9328 23.3651
Au 18.1296 33.9218 25.4949
Au 19.9554 31.9024 25.6721
Au 19.842 34.291 23.2981
Au 18.5812 31.138 27.9787
Pd 18.3416 32.8476 30.1406
Au 20.1674 30.7492 30.2654
Au 19.6735 33.6646 27.8082
Au 18.6308 31.4522 34.6968
Pd 18.9086 29.8097 32.5745
Au 19.8302 32.4128 32.4514
Au 21.1597 33.3378 30.1951
Au 22.0182 7.68096 3.0545
Au 21.8369 5.78625 7.49064
Au 23.31 6.56942 5.24969
Au 21.8005 4.01427 12.0781
Au 23.2418 4.808 9.80262
Au 21.6587 2.42495 16.7409
Au 23.1453 3.12525 14.4377
Pd 21.3987 2.85255 21.3562
Au 22.8658 1.96087 19.113
Au 21.4496 4.24964 26.0322
Au 22.8223 3.30351 23.6927
Pd 21.6392 5.95576 30.6039
Pd 22.9218 4.92505 28.2872
Pd 22.024 7.81375 35.1104
Au 23.105 6.55046 32.8688
Au 22.6039 12.4008 3.00977
Pd 23.6818 9.90396 3.09128
Au 22.1149 9.16298 5.27169
Au 22.2325 10.7246 7.59131
Au 23.434 8.10834 7.57114
Pd 23.8297 11.4748 5.32814
Au 21.9658 7.31676 9.8215
Au 22.1374 8.93389 12.1908
Au 23.381 6.38427 12.1296
Au 23.5948 9.71615 9.93122
Au 21.8869 5.59828 14.4094
Au 22.0908 7.30473 16.7446
Au 23.2629 4.78607 16.7409
Au 23.5774 8.06203 14.4621
Au 21.7519 4.44352 19.0838
Au 22.0673 7.62225 21.4361
Au 23.1371 4.99519 21.4217
Au 23.4635 6.67409 19.0857
Au 21.7574 5.86679 23.768
Au 22.2259 9.09609 26.0943
Pd 23.2155 6.46444 26.0468
Au 23.5574 8.13029 23.7325
Pd 21.9349 7.4709 28.3511
Au 22.6342 10.7984 30.6955
Au 23.4501 8.06864 30.5886
Au 23.7734 9.66774 28.3235
Au 22.303 9.25085 32.9567
Pd 23.2052 12.5009 35.2476
Au 23.929 9.82653 35.199
Au 24.3387 11.3574 32.9538
Pd 23.9172 16.2668 3.86243
Au 24.9973 13.6419 3.78858
Au 22.7241 13.9661 5.32093
Au 22.8019 15.4945 7.78992
Au 23.9633 13.0307 7.69237
Au 25.1206 15.2533 6.13182
Au 22.3594 12.3004 9.95055
Au 22.5166 13.8484 12.3299
Au 23.7757 11.2926 12.2872
Au 24.101 14.5728 10.1112
Pd 22.3218 10.5449 14.5388
Pd 22.5382 12.1493 16.8612
Au 23.7766 9.7053 16.7945
Au 23.9564 12.8756 14.6078
Pd 22.3113 9.30229 19.143
Au 22.7273 12.4493 21.5209
Au 23.8492 9.85739 21.4381
Au 23.9985 11.5319 19.1534
Au 22.5249 10.7592 23.8093
Au 23.1102 13.9229 26.1632
Pd 24.0796 11.3093 26.0472
Au 24.3676 12.9181 23.7775
Au 22.8866 12.3469 28.4396
Au 23.9389 15.6473 30.8184
Pd 24.6673 12.9787 30.6793
Au 24.8166 14.4706 28.3925
Pd 23.6448 14.0292 33.0371
Pd 22.604 15.222 35.304
Au 25.255 14.4492 35.1822
Au 25.8308 15.8669 32.8896
Au 23.7936 19.0964 3.79476
Pd 26.2042 17.5059 4.72221
Au 23.9743 17.7893 6.22421
Au 24.0442 19.2957 8.74006
Au 25.1953 16.7725 8.5979
Pd 26.2528 19.0375 7.09782
Pd 22.9113 16.99 10.2521
Au 23.0555 18.4713 12.6507
Pd 24.2729 16.0518 12.4802
Au 25.3219 18.2796 11.0493
Pd 22.6992 15.3715 14.6667
Au 22.9058 16.9504 17.0329
Au 24.2041 14.467 16.9454
Au 24.4776 17.5627 14.8263
Pd 22.7852 14.1069 19.2756
Au 23.2903 17.1505 21.6799
Pd 24.4699 14.573 21.5312
Au 24.4687 16.2623 19.2907
Pd 23.2661 15.5092 23.9034
Au 24.0436 18.7259 26.324
Au 24.9875 16.0842 26.1482
Au 25.0837 17.5986 23.8832
Au 23.9406 17.1717 28.5838
Au 23.3274 18.6126 30.9159
Au 25.9634 17.9792 30.4335
Au 26.4194 18.1657 27.7488
Au 23.0904 16.8276 33.1517
Au 24.2093 19.854 35.5114
Au 24.7321 17.1295 35.3094
Au 25.2976 18.6408 33.0464
Au 23.6294 21.9216 3.85903
Pd 26.0513 20.3097 4.69537
Au 23.8417 20.5762 6.24353
Au 23.8719 22.0919 8.75974
Pd 26.3313 20.5829 9.57576