1687
Atoms. Timestep: 20848
Au 21.8965 10.4401 4.49684
Au 9.52989 16.9791 18.8951
Au 19.7435 12.0979 3.98271
Au 11.6026 6.5266 20.275
Au 14.638 2.87643 17.6458
Au 10.2036 13.5859 26.9937
Au 15.5585 23.5401 22.2951
Pd 19.076 16.7527 22.8161
Au 19.2784 2.72231 19.2906
Au 24.8271 13.1029 20.4159
Pd 16.546 16.5435 29.905
Au 22.1137 31.4698 22.2916
Au 5.9911 8.13552 20.2912
Pd 23.268 27.4972 19.611
Au 8.91133 18.2904 9.74521
Au 3.54148 14.3336 16.2084
Au 32.5241 12.0646 29.7149
Pd 22.1116 10.8795 18.643
Pd 11.7923 13.4436 29.2499
Pd 20.0316 22.8794 18.5116
Pd 7.35592 16.0621 25.0898
Pd 15.0936 23.5997 19.5729
Au 21.036 15.4347 18.5746
Pd 6.33969 30.7716 17.4837
Au 10.0909 11.1475 15.3192
Au 6.71253 27.2288 27.1489
Au 5.44919 11.3464 20.1932
Au 18.3107 25.9584 3.15453
Au 0.802256 18.1165 21.0707
Au 11.8922 10.4238 26.7016
Au 8.9108 10.7977 25.9593
Pd 8.26428 24.2993 9.97648
Au 20.6561 4.16049 26.7019
Au 12.7191 13.8715 35.1812
Au 12.0904 25.6586 19.8552
Au 11.7999 26.8597 3.44743
Au 5.06892 21.5985 29.2427
Au 16.4166 27.8408 14.6401
Au 21.1928 31.6217 18.1376
Au 4.70868 19.4326 12.9296
Au 16.3449 8.46333 9.56084
Au 0.528064 18.0611 23.7332
Au 3.61465 11.7023 17.3046
Au 14.4942 5.53378 16.4768
Au 16.6004 4.65503 18.0816
Au 20.7995 8.4655 18.1815
Au 26.3498 12.9727 33.4148
Au 16.7187 12.1186 34.1006
Au 11.8021 21.8983 30.4041
Au 7.46158 19.5159 22.9093
Au 13.9146 26.0403 24.3065
Au 3.10599 14.5358 26.7204
Pd 15.9225 19.3006 17.7079
Au 10.2812 18.8709 12.1378
Au 11.9547 20.931 12.0768
Au 17.9815 23.1335 20.8372
Au 17.8015 18.32 16.0818
Au 9.77784 33.2959 9.89792
Au 16.9922 29.6646 12.6033
Au 9.91871 11.1643 28.4727
Au 19.7839 15.3533 35.5568
Au 12.9343 10.6902 18.8093
Au 8.7467 13.522 11.4861
Au 16.0466 19.0285 8.85493
Au 8.84506 10.7302 23.2444
Au 20.8485 22.2726 29.3944
Pd 11.6313 18.804 19.1595
Au 8.64859 18.7097 14.1754
Pd 34.9081 17.4839 15.6468
Au 24.207 25.003 11.9543
Pd 9.14375 28.7599 10.1799
Au 4.71307 19.3456 22.4958
Pd 11.6965 22.945 27.8845
Au 14.3502 23.3458 4.67691
Au 7.51879 9.78659 15.4243
Au 7.15613 28.4873 8.23322
Au 18.9605 22.282 37.1866
Au 10.39 8.99617 21.7097
Au 7.1403 22.772 15.3216
Au 7.02081 24.4697 25.7571
Au 18.2411 31.3345 31.4069
Au 8.02755 12.5095 19.2667
Au 7.92225 21.8079 6.41417
Au 6.52662 22.8868 8.53986
Au 8.0061 25.4402 15.6945
Au 7.16898 24.2112 22.8681
Au 7.97393 6.24077 24.5457
Au 11.583 21.1131 7.05386
Au 23.1163 19.4665 17.0894
Pd 31.0422 23.7598 12.5081
Au 7.4341 31.5552 12.0201
Au 2.7999 18.6577 25.209
Au 19.7566 29.7442 21.9386
Au 9.30391 9.53912 13.1801
Au 14.0302 28.3226 13.0485
Au 16.3173 29.1659 31.7459
Au 10.184 19.8733 23.5877
Au 1.68848 16.2097 25.2235
Pd 12.2116 10.3368 13.6662
Au 4.88169 26.7642 12.2908
Au 3.85071 21.0894 24.7523
Au 11.4127 8.65225 11.5984
Au 25.2819 33.4213 20.4538
Pd 22.9129 15.9004 25.4917
Au 13.3492 29.703 25.4547
Au 4.4742 28.5586 20.8123
Au 2.27571 20.2786 13.7532
Au 14.9895 20.5491 36.08
Au 11.4852 31.0323 30.1502
Au 20.6051 24.574 7.79717
Au 11.5378 29.0545 32.1104
Pd 17.854 29.7071 24.2314
Au 24.7926 19.0047 4.74687
Au 17.5123 21.2719 1.7881
Pd 18.1711 5.91606 12.1526
Au 13.9947 17.9924 25.9564
Pd 19.574 24.1813 4.79517
Au 8.00269 11.973 13.661
Pd 15.0225 23.4985 14.8405
Au 30.8543 14.8735 25.4712
Au 14.8771 10.0496 4.69825
Au 13.7907 21.9894 26.3597
Pd 25.0964 15.1598 26.9792
Au 25.3181 19.8557 35.241
Au 9.66739 14.1505 14.991
Au 7.36424 16.2418 29.7811
Au 4.37053 19.8822 27.2723
Au 21.8916 19.3316 8.42652
Au 17.1813 25.2216 13.6546
Au 13.5289 17.0026 3.76552
Au 19.0929 23.0242 9.69446
Au 5.72271 14.2785 23.3988
Au 17.3472 33.4121 9.42663
Au 18.1273 13.0562 10.5877
Au 5.75534 24.5434 10.7672
Au 33.8353 24.7036 11.718
Au 12.9082 17.3195 15.8154
Au 16.5502 22.2562 27.0104
Au 7.2929 14.6577 13.686
Au 14.7055 14.8344 5.26658
Pd 18.6539 27.6824 20.7353
Au 22.9048 6.95395 28.9467
Au 7.8363 8.23278 18.1116
Pd 9.18638 10.5154 17.7351
Pd 18.7292 6.42877 17.7629
Au 18.8654 16.536 28.3084
Au 18.676 27.2646 31.8093
Pd 18.0154 14.4442 33.7382
Au 33.2766 17.4436 30.8642
Pd 11.4105 7.81496 14.2367
Au 7.21882 12.6218 21.9062
Pd 22.9261 33.6509 17.5411
Au 9.45777 17.1731 33.8009
Au 1.1868 19.6885 18.403
Au 8.28709 28.9588 12.7305
Pd 11.1417 22.1785 22.6937
Pd 9.08371 17.4276 23.5685
Au 13.0414 5.59714 10.068
Au 21.0259 25.6876 2.9665
Au 16.8766 13.2667 5.61315
Au 7.2312 12.6821 9.37124
Au 11.6871 17.3026 10.5031
Au 4.66052 19.411 10.0702
Pd 10.5568 6.27743 25.8589
Pd 29.6073 12.4548 25.2993
Pd 26.044 21.1531 5.69732
Au 18.755 18.8938 1.6556
Au 19.1733 20.2681 30.5738
Au 8.44125 19.4666 18.5049
Au 10.7077 3.38349 22.3442
Au 3.11609 17.1509 22.8404
Au 13.6772 7.94546 18.6497
Au 1.89794 13.4826 21.4306
Au 6.36239 21.3042 25.81
Pd 23.623 23.3557 23.0405
Au 12.9306 9.37944 21.1364
Au 8.08622 9.97792 20.3812
Pd 10.0986 23.9875 20.7669
Au 16.7755 4.00951 15.4694
Au 16.6177 16.4346 32.5792
Au 26.3407 4.02745 23.5076
Au 7.83149 14.9259 27.5171
Au 28.2348 8.74584 30.5884
Au 26.6599 8.71268 27.0491
Pd 19.3039 25.221 19.5834
Au 16.735 18.8074 34.4703
Au 16.5105 14.2102 17.726
Au 16.5672 25.8932 23.4482
Au 15.936 18.0282 2.72201
Au 6.32531 10.5461 17.7835
Au 15.2564 13.7413 15.1633
Au 4.57887 15.0154 13.7318
Au 30.1535 21.5549 9.12341
Pd 9.06083 18.1089 28.2779
Au 21.2535 9.15699 21.4075
Au 8.3146 15.1396 22.4086
Au 22.5388 14.3721 10.6294
Au 3.11048 18.9543 20.2237
Au 10.3861 35.0554 14.258
Au 21.481 18.1177 19.134
Au 10.7369 16.9612 14.2332
Au 7.61361 9.52484 28.0249
Au 14.7433 9.93089 28.2181
Au 5.43488 7.55299 17.3078
Au 16.3461 33.5051 29.7925
Au 20.8637 15.1708 15.7581
Au 26.8276 17.4643 35.2878
Au 4.10491 30.5236 19.0231
Au 15.3525 9.66349 17.4658
Pd 12.0112 16.0201 19.236
Pd 10.3625 12.946 17.563
Au 0.820231 15.6922 22.6039
Au 6.11132 16.9743 22.9513
Au 12.4881 8.06172 25.4685
Au 29.0857 26.1105 31.7011
Pd 17.046 14.3743 20.422
Au 11.3335 26.2718 32.8754
Au 7.27121 26.8822 24.3383
Au 16.5188 11.757 13.4208
Pd 23.0639 20.7091 3.6291
Au 7.03076 8.29663 12.2239
Pd 14.769 29.9452 15.0243
Au 10.5269 32.6254 7.55372
Pd 8.3897 16.5396 15.7132
Au 5.57898 24.9608 28.1089
Pd 4.39708 17.0377 15.9638
Au 11.8887 15.1339 8.76828
Au 20.726 35.3672 13.7646
Pd 15.7914 12.5853 27.0875
Au 18.9704 10.9615 14.57
Au 6.16464 31.4098 24.2684
Au 10.9756 12.6718 13.2157
Au 4.68754 16.9692 11.5665
Au 5.5874 13.2723 18.1391
Au 11.0035 19.0649 26.0198
Au 26.0181 9.76588 31.8266
Au 4.56783 24.0355 21.5992
Au 23.6471 13.7501 18.0997
Au 13.9989 29.8491 33.0142
Au 2.60889 25.9987 18.6404
Pd 21.9935 25.0701 18.6896
Au 16.7807 33.4973 26.8152
Au 11.4152 23.5231 33.0561
Au 6.31033 21.122 17.6014
Au 8.59674 12.8361 32.4472
Au 11.9708 17.9705 33.0361
Au 20.6271 31.5675 32.8482
Au 15.6377 19.9499 12.3416
Au 12.2914 24.8365 10.7737
Au 9.55118 17.9609 5.19823
Au 3.56058 20.9817 18.2133
Pd 9.35569 22.0982 8.68525
Pd 21.4367 30.8144 13.9459
Au 1.98539 23.973 20.7208
Pd 19.5195 8.21829 13.225
Au 4.39558 22.8465 16.1586
Au 18.453 36.0383 23.0617
Au 32.6528 26.2473 18.7094
Pd 17.4142 30.9421 21.7535
Au 25.9173 34.625 23.4468
Au 11.6525 32.8521 13.0209
Au 3.48898 17.2488 27.4406
Au 19.5887 22.8395 34.4067
Pd 15.2157 18.4878 5.43997
Au 10.7329 26.1427 6.54418
Pd 14.6381 28.3859 17.1383
Au 6.89759 17.0687 18.2188
Au 12.2773 20.2799 28.0783
Au 7.40319 10.7716 11.2067
Au 11.7265 23.3458 18.3652
Pd 24.1842 9.26068 28.3578
Pd 10.7031 11.4337 6.65474
Au 24.4475 27.4663 33.1277
Pd 7.34931 21.4529 30.5232
Au 24.8049 25.5242 5.66377
Pd 14.9984 8.05858 26.2295
Pd 15.236 33.7585 19.0524
Pd 12.5568 14.8796 14.3593
Au 11.8761 35.3404 16.4886
Pd 31.2918 24.9975 16.5991
Au 6.66086 33.4634 17.1205
Pd 28.4984 25.7073 15.9457
Au 2.27579 18.7627 16.0465
Au 8.43244 16.6396 12.19
Au 14.8653 16.3097 13.9363
Au 18.671 27.3702 12.8419
Pd 10.6191 16.8694 21.4429
Au 20.6229 18.6604 28.9343
Au 16.1139 29.9208 8.05973
Au 13.1128 35.2404 13.9774
Au 22.6485 27.2694 4.54598
Au 12.7327 7.35675 7.62877
Pd 10.6166 14.4616 31.5262
Au 3.56394 24.21 12.1065
Au 11.5577 9.80144 9.01096
Au 3.76963 12.2405 25.3721
Au 1.83668 21.4397 16.1793
Pd 14.2735 25.9077 21.5613
Pd 19.3322 21.3445 22.528
Pd 26.8811 10.0106 13.8145
Pd 12.098 30.3455 13.7607
Pd 9.44371 23.5956 26.5338
Au 15.3703 36.3665 18.3433
Au 5.9244 21.6746 10.9759
Au 22.5803 29.4198 32.8835
Au 6.78841 23.9325 17.7902
Au 30.1131 18.2478 17.7678
Au 8.1525 15.3952 32.1559
Au 15.7891 32.5002 7.32267
Au 17.6246 29.0559 27.1875
Pd 15.6168 6.33503 11.1663
Au 13.927 17.6315 18.4033
Au 19.9534 15.1038 9.93717
Au 8.52648 21.8327 24.4677
Au 15.264 36.7797 13.4468
Au 28.2136 20.8993 7.24241
Au 17.339 18.1852 13.5066
Au 35.8581 19.2044 11.2712
Pd 16.9958 24.5478 10.8307
Au 10.8375 31.3785 18.564
Au 8.40164 13.5311 24.818
Au 16.5897 36.565 15.8536
Au 13.2923 34.9465 23.7549
Au 2.83568 26.5068 21.2362
Au 7.49058 31.8093 26.5429
Au 28.9015 17.5039 10.6643
Au 7.53927 23.3076 12.5276
Au 10.312 8.6217 7.14641
Au 7.94026 29.2762 25.6727
Au 25.2419 31.6247 29.5452
Au 10.5079 32.1309 21.6562
Pd 27.8666 29.1635 16.9329
Au 24.0609 31.3492 13.2256
Au 2.91261 25.3731 23.5612
Pd 25.2359 17.0379 13.4138
Pd 11.6107 32.9927 28.3014
Au 9.6525 8.18478 16.1322
Au 27.3121 11.4813 9.54357
Au 23.7783 22.2344 12.3282
Au 16.2572 10.9107 10.7711
Au 10.0186 12.9448 22.2368
Au 13.0554 12.8784 26.905
Au 23.1988 10.5581 24.0077
Au 24.8435 19.3112 2.05514
Pd 26.6525 13.2933 25.4791
Au 12.181 4.08702 16.9849
Au 13.4459 5.77097 26.6169
Au 13.3374 23.1447 23.8705
Au 30.0984 21.3611 26.3965
Au 30.9322 10.0954 25.9546
Au 10.1239 15.6793 28.8804
Au 29.1296 12.9694 21.1854
Au 5.80132 12.8592 12.2517
Au 24.8885 11.5553 7.96303
Au 12.2394 22.3145 9.53219
Au 11.5178 3.82622 19.6542
Au 2.30581 17.1469 18.1109
Au 8.78481 6.92755 13.6825
Au 22.1782 19.2832 1.46427
Pd 9.49738 19.3565 20.9844
Au 14.6785 8.65319 23.4617
Pd 22.5484 21.7896 25.0731
Au 18.7644 13.4534 16.0428
Au 29.26 7.55646 26.0609
Pd 28.2653 12.4745 29.48
Au 4.67681 9.72853 15.818
Au 16.165 5.42589 26.4066
Au 4.53564 16.2668 25.1626
Pd 27.4436 15.8738 25.5789
Au 35.1041 27.611 22.5363
Au 14.1181 22.6815 29.219
Au 13.7039 8.24236 9.99434
Pd 2.61556 22.6645 22.9613
Au 20.9032 6.18609 16.127
Au 26.9179 13.4981 7.61129
Au 10.9343 12.2707 24.7538
Pd 16.6176 12.6444 8.36974
Pd 21.9707 19.4281 14.6533
Au 21.4652 22.2242 36.412
Au 14.3331 17.6352 31.6032
Pd 23.7794 31.4813 19.203
Au 19.0261 18.7646 26.531
Pd 6.19087 17.2443 13.8713
Au 32.2714 23.1124 10.1949
Pd 23.0726 16.4082 17.1878
Pd 6.92436 14.9517 20.0578
Pd 17.479 13.6727 3.04151
Au 12.3849 32.4717 10.3894
Au 19.9155 11.3558 20.3358
Au 20.8811 5.79716 13.1016
Au 14.6368 6.03885 23.9365
Au 7.36886 26.7624 17.9739
Au 7.68331 6.21184 16.2341
Pd 17.9089 33.5521 19.2738
Au 25.5605 20.5044 16.2775
Pd 14.438 14.3265 8.00328
Au 23.6357 6.58574 12.7386
Au 9.20768 26.2157 22.3055
Au 32.218 7.75977 26.3249
Au 18.1099 16.3408 2.45981
Au 34.7192 12.96 16.4154
Pd 14.7935 28.7842 27.7635
Au 32.9812 14.6268 30.4192
Pd 24.0945 17.5662 27.8684
Pd 9.52581 29.6495 20.6524
Au 20.9618 11.3329 25.4593
Au 24.2431 27.1274 30.4044
Au 12.6377 5.39554 14.4807
Au 16.6694 19.1432 31.5599
Au 9.88557 8.46228 24.5083
Au 8.90305 7.14094 20.3073
Au 18.9274 33.8339 30.8874
Au 17.8382 19.1093 4.17971
Au 16.7471 31.6655 14.5945
Au 5.53916 24.6668 14.1094
Au 15.4181 24.9822 6.92764
Au 18.9457 29.8781 19.0241
Au 12.3409 28.089 15.2938
Au 2.52444 18.7676 11.5042
Au 13.8884 5.15897 19.1153
Pd 7.04948 20.697 13.6004
Pd 22.6593 19.8596 35.8685
Au 27.7645 25.5535 7.86165
Au 21.7385 23.0482 2.98091
Au 6.53728 29.6021 10.5445
Au 11.7629 24.1205 3.65949
Pd 3.89227 21.4873 20.8804
Au 6.97228 24.1187 30.3171
Pd 4.49325 20.1719 15.5641
Au 4.09932 11.9554 22.6185
Au 6.1704 15.0444 16.1133
Au 14.4709 12.6726 29.3887
Au 15.2039 21.8893 17.0652
Au 16.6669 15.8583 35.4963
Au 15.9918 27.258 29.816
Au 19.2554 11.8824 30.2751
Au 31.0982 21.785 32.5832
Au 4.56966 29.7782 15.7473
Au 22.4922 15.0903 34.9842
Au 11.8933 17.5774 23.8536
Au 27.8188 24.6541 33.9335
Pd 16.9538 23.3063 5.32761
Pd 13.8227 4.47582 12.3066
Au 14.3242 28.0073 3.92051
Au 16.6549 20.8607 14.9195
Au 8.71895 31.7701 16.7704
Pd 23.3354 19.1267 33.3145
Pd 13.2757 25.7345 5.34262
Pd 9.91827 5.98285 22.6933
Pd 14.4392 10.9371 15.1761
Au 20.5332 33.2726 27.4469
Pd 10.8762 20.8566 17.5137
Au 13.9123 21.0351 14.0775
Au 14.6481 34.2822 9.32029
Pd 18.5111 10.6156 8.98317
Au 3.0173 14.3699 23.7189
Au 3.31758 28.3419 13.8491
Au 10.5083 11.3559 20.0108
Au 17.1123 29.5305 16.8282
Pd 10.2516 29.6635 15.9465
Au 1.2276 21.1593 20.6643
Au 8.03678 3.95384 22.9006
Au 20.8643 5.12182 29.2272
Au 29.4411 22.2897 34.8511
Au 14.6374 21.4617 8.58121
Au 6.35208 22.4591 20.1082
Au 5.61351 27.3032 15.0168
Au 25.5214 12.5806 14.1591
Pd 26.6478 14.2021 22.0689
Au 12.3837 14.7383 21.7564
Au 8.23493 19.0169 25.6873
Pd 15.702 4.78646 21.2282
Au 23.9185 14.7822 12.8864
Pd 13.747 32.5815 14.7621
Pd 13.7963 12.6787 13.0507
Pd 14.8196 30.3781 21.16
Au 8.82443 10.5678 8.48574
Pd 13.7208 19.4276 10.5437
Pd 9.75942 23.0666 16.1333
Au 9.30962 29.4852 30.2219
Au 13.9537 8.55126 30.5132
Au 22.2531 24.0966 13.7015
Au 16.609 2.53743 19.9316
Au 11.9582 13.3162 10.8002
Au 8.9657 8.6304 10.3775
Au 7.89921 33.4843 24.1846
Au 23.281 21.7459 15.1844
Pd 33.2159 23.9447 24.231
Pd 11.5253 30.0547 23.3832
Au 8.06214 33.6778 14.7948
Au 24.7638 35.2285 16.3561
Au 23.9892 17.46 35.3791
Pd 25.4659 24.6517 29.8807
Au 26.4635 11.7114 5.52662
Au 12.236 4.71325 24.4305
Au 13.0352 23.4827 7.09152
Au 18.5185 17.6573 36.3554
Au 12.1846 19.4336 21.7373
Au 28.1335 11.4121 31.9481
Au 7.00721 19.9438 28.2347
Au 5.65309 32.6364 19.4863
Au 7.41575 18.7381 30.7406
Au 17.4878 12.1318 21.9422
Pd 13.6097 27.1204 10.7166
Au 13.9557 37.0529 15.8999
Pd 16.7514 23.0641 8.16254
Pd 26.376 18.5103 11.6468
Au 16.8352 20.7163 6.56085
Au 15.3954 15.3192 2.71259
Au 12.5059 15.4543 25.9705
Au 26.2596 29.7926 24.4731
Au 23.8526 22.44 30.4358
Au 9.50361 25.4802 4.37097
Au 1.37278 22.6718 18.4956
Au 12.7017 21.5618 34.9203
Au 6.93919 18.8305 11.5598
Au 6.58273 31.4383 14.7803
Au 3.08421 25.7362 14.379
Au 24.7898 36.0098 21.1676
Pd 18.4212 20.9444 12.6597
Au 14.2087 33.6533 12.0282
Au 25.1192 3.83645 26.0309
Au 24.9345 23.0669 25.5736
Au 14.3817 32.8899 25.3057
Au 4.01718 23.5985 18.8429
Au 13.5748 14.9183 17.0962
Au 23.261 33.9614 14.4573
Pd 24.2137 27.1349 17.0992
Au 23.163 31.6944 31.6014
Au 5.30882 28.9874 25.4809
Au 4.7546 26.2691 25.4164
Au 4.78962 23.7006 24.4358
Au 26.5878 17.8715 8.95532
Au 7.75799 12.5536 16.3539
Au 20.4859 17.8561 10.2267
Au 9.43318 20.9875 27.3342
Au 13.5655 27.2429 31.6123
Au 24.3444 14.7656 3.5637
Au 11.547 25.071 15.7139
Pd 17.6831 18.6788 21.0159
Au 27.1043 14.3469 4.87083
Au 2.16609 24.3732 16.5454
Au 21.6063 29.6719 20.0399
Au 9.70315 21.6598 13.6938
Pd 15.2094 30.6961 23.6798
Au 18.1518 26.7419 34.5717
Au 6.40317 33.4063 21.8933
Pd 9.71442 28.8156 7.38992
Au 8.38213 32.1109 19.5887
Au 10.1399 31.0113 11.4221
Pd 14.2972 20.329 30.6919
Au 6.53912 15.0648 10.8348
Au 10.8571 7.02886 9.46868
Au 9.26627 19.6862 7.30342
Au 18.0481 25.4696 8.52615
Au 17.4143 19.9695 37.2514
Au 24.6266 30.0317 10.4637
Au 17.8962 27.1502 25.3891
Au 29.8974 28.6509 27.6595
Pd 13.5193 21.0924 19.1871
Au 25.0582 31.7708 22.739
Au 25.912 27.2018 20.7449
Pd 4.56145 15.7075 18.3744
Pd 18.1023 19.1131 23.6894
Au 30.5994 7.0141 28.3365
Pd 24.0285 10.0191 14.1125
Au 18.458 6.14271 14.8612
Pd 28.1132 9.17041 22.1836
Pd 19.3904 6.11321 25.3026
Pd 24.5027 6.03364 24.4924
Pd 20.9795 14.8337 23.7194
Au 33.0848 6.99229 23.6346
Au 9.70153 4.06709 24.799
Au 28.1109 24.0896 30.3313
Pd 7.3144 12.2482 27.6858
Au 9.8028 5.72411 18.0942
Au 31.5318 9.2195 9.76763
Pd 19.1581 8.55348 15.9508
Au 9.98789 13.0492 8.82689
Pd 14.7129 10.4707 8.54206
Au 27.4086 24.2364 18.2606
Au 15.762 6.22547 13.9542
Au 20.4606 20.7953 10.627
Au 14.253 22.2492 11.3681
Au 16.8529 21.4727 10.3203
Au 6.99109 5.75374 18.8895
Au 21.9554 11.0024 7.29091
Au 14.7744 14.8927 30.9402
Au 5.73055 10.3345 13.3989
Pd 18.441 5.13947 27.8735
Au 9.89262 14.4637 20.0329
Pd 14.1402 20.9548 5.94449
Au 25.1854 17.673 25.3488
Au 19.5605 13.9817 21.5805
Au 13.9622 2.67886 20.4318
Pd 18.8544 20.0704 33.2096
Au 22.0698 8.02195 14.4637
Au 30.5393 11.94 27.8473
Au 9.46024 26.3125 25.7465
Pd 12.205 7.25527 22.983
Au 24.6098 20.6826 19.1004
Au 23.4617 10.8629 21.2052
Au 25.7588 12.5875 30.8463
Au 23.1543 4.44002 27.7857
Au 10.1067 14.6115 34.1396
Au 15.3183 13.4599 35.99
Au 4.46444 22.8116 26.9731
Au 31.9243 8.38531 21.4441
Au 22.0863 12.8386 2.81766
Au 26.8396 29.8073 21.6482
Au 28.1782 16.8639 4.52403
Au 8.35022 12.7791 6.74935
Pd 21.1802 21.9091 8.19867
Au 22.0212 21.2361 22.4055
Au 19.7331 5.93293 7.6162
Au 12.8736 9.83653 6.54698
Au 19.4729 9.40021 3.56839
Au 12.0076 6.83548 16.8819
Au 12.1496 9.70031 16.4343
Au 23.4884 23.1085 20.1363
Au 10.5548 11.639 31.0973
Au 19.672 7.38079 5.41308
Au 14.1497 21.1789 21.9559
Pd 23.5675 8.94488 31.0694
Pd 23.5625 19.4853 23.8653
Pd 7.9811 8.0855 22.6081
Pd 15.2419 18.8175 23.2632
Au 19.6318 25.0707 16.936
Au 31.0476 5.78909 24.978
Au 9.38167 27.936 27.9559
Au 7.65972 27.2152 30.0077
Au 37.1544 18.8012 14.9592
Au 30.2909 20.9885 21.5966
Au 8.33176 25.3124 28.3033
Pd 23.1569 13.2781 25.0334
Pd 21.1146 20.6174 27.0343
Au 25.7341 10.7829 25.3801
Au 28.7873 23.4314 6.68883
Au 14.0799 22.294 2.30849
Au 3.06009 17.4199 13.7438
Pd 7.09345 26.9771 10.5837
Pd 10.8665 17.5301 7.74162
Pd 13.4648 17.171 21.2682
Au 10.7817 15.2958 12.1762
Au 6.11142 7.6906 14.6351
Au 16.3238 16.7913 27.2174
Au 9.80483 26.1268 11.33
Au 20.495 28.0166 33.9327
Pd 21.5634 13.376 30.9111
Au 9.85494 16.4657 26.1377
Au 11.4544 19.7994 14.7068
Au 12.5072 10.6757 29.5119
Au 26.1529 27.8957 15.371
Au 29.2791 18.4614 7.95568
Pd 13.685 24.6077 27.1906
Au 9.82281 17.3183 31.0802
Au 35.2466 22.1492 17.8851
Au 23.7025 24.9975 3.23582
Au 16.3464 21.6792 32.5621
Pd 21.6718 31.9604 25.3538
Au 5.10829 15.3396 28.5002
Pd 24.7058 29.1712 28.5991
Au 20.6952 17.8236 16.5773
Au 9.47345 23.0492 29.3971
Au 13.5117 27.5492 34.2793
Au 14.2793 33.884 27.9809
Au 9.1439 27.6511 32.189
Au 24.4206 28.6389 8.01222
Au 33.3995 22.1617 12.6798
Au 33.6932 14.9992 24.9665
Au 19.2187 23.5313 12.491
Au 14.8921 11.1726 22.6352
Au 29.6725 7.22174 9.9913
Au 12.3918 12.6197 15.7893
Pd 6.25385 10.0818 22.4697
Au 10.2704 23.1238 11.3437
Au 18.3746 31.5929 7.55177
Au 3.01551 27.5773 16.4275
Au 29.6733 28.1259 21.8483
Au 4.766 25.5349 16.8606
Au 33.7608 28.7338 18.7733
Au 2.64378 13.8322 18.7385
Au 23.1469 20.1575 28.7288
Au 13.5791 29.0915 8.44606
Au 9.11196 28.7897 23.2096
Au 10.2256 13.3954 4.75871
Au 14.6823 13.0535 10.3862
Au 24.9084 10.8024 18.7612
Pd 8.99414 26.5148 8.6671
Au 6.34206 13.4227 30.0727
Pd 16.6866 13.0678 31.5154
Au 33.3819 9.61524 24.7229
Au 30.4614 14.1596 29.3789
Au 11.6333 34.818 21.5944
Au 23.4548 11.5203 29.8675
Au 6.30633 29.0918 22.922
Au 5.68669 29.3954 13.1544
Au 33.1451 14.6185 12.7074
Au 10.8386 8.68056 18.8199
Pd 17.0767 4.82637 23.644
Au 4.03316 9.36712 18.7282
Au 13.811 36.1225 11.2124
Au 4.48544 12.6902 28.1028
Au 17.9717 36.072 13.4897
Au 35.1654 26.1651 14.7837
Au 11.0607 25.5659 28.0067
Au 4.51022 14.0645 20.8373
Au 20.2512 26.8299 5.8716
Au 14.2479 26.1676 15.0241
Pd 22.3543 23.6641 34.3711
Au 16.3998 35.2611 11.3659
Au 15.6652 26.4445 26.8382
Pd 25.0769 22.9191 17.5524
Au 13.8271 19.6617 3.23787
Au 18.0146 9.57113 21.0872
Au 6.81756 5.84497 21.6398
Au 18.8667 31.4171 26.0948
Au 9.11662 19.6096 32.6354
Au 19.3003 35.8379 15.959
Pd 12.772 27.1954 26.4633
Pd 28.5982 14.454 14.3158
Pd 8.77712 22.2289 18.7409
Au 20.9244 32.0354 30.0476
Pd 9.99453 27.1238 16.9173
Au 6.66362 30.0563 20.0596
Pd 13.0202 12.9335 31.6968
Au 20.734 34.1745 22.6287
Pd 20.3359 17.3686 7.44619
Pd 11.3919 27.7458 21.5154
Au 27.3735 15.2725 9.77564
Au 13.9555 30.5909 18.7061
Au 28.6694 23.8459 14.0322
Au 22.5764 16.5409 8.93188
Au 11.0126 32.7366 15.6751
Au 20.3407 30.199 28.1171
Au 16.0237 34.9521 23.5287
Au 26.7084 23.7006 4.66202
Au 16.7213 21.7264 29.8752
Au 10.7674 24.4399 8.59254
Au 17.4406 24.9793 30.8883
Au 8.65264 20.9488 11.0876
Au 27.4289 35.2269 21.189
Au 14.27 35.3027 21.243
Au 5.399 26.3763 22.5117
Au 17.2559 34.0709 16.6837
Au 29.6899 16.921 26.9771
Pd 16.0225 30.8378 29.2177
Au 13.8562 29.6334 30.306
Pd 15.4136 29.1629 10.5516
Au 16.0248 24.5009 28.6099
Au 16.424 12.4715 24.5355
Au 9.80414 30.9338 27.7762
Pd 18.5845 15.9959 17.3121
Au 30.1301 18.2996 30.3689
Au 13.5044 26.5563 29.0188
Pd 26.6653 21.7034 30.3988
Au 17.3601 21.5296 35.0507
Au 18.2514 3.53136 10.9146
Au 25.5286 11.1617 11.7409
Au 6.69742 18.7468 16.1045
Pd 11.8318 25.1331 22.617
Au 21.4857 33.187 12.5383
Au 25.857 25.2316 16.1417
Au 12.5004 11.7357 4.56751
Pd 13.0097 32.815 20.3261
Pd 9.37011 31.3092 24.5431
Pd 14.6293 24.2551 9.50558
Au 24.1209 22.2511 35.8425
Pd 4.93911 31.1434 21.7581
Pd 20.3056 29.4315 31.4192
Au 25.0768 25.8867 8.37843
Au 23.3628 33.7406 29.9297
Au 20.1336 29.8665 8.69903
Au 32.9174 27.1365 15.9945
Pd 18.3323 16.1016 11.9124
Au 9.97909 28.2436 4.79916
Au 34.0113 30.1021 21.6165
Au 13.7871 22.4928 32.3233
Pd 24.5485 25.1261 27.2748
Pd 21.8604 27.0031 31.7604
Au 20.8609 36.6659 18.5148
Au 23.1413 16.4755 32.7164
Pd 27.5928 28.0618 26.285
Pd 18.0003 21.1507 17.3125
Au 17.7486 24.4127 36.0935
Au 19.9064 14.1137 28.8058
Au 14.0509 11.8045 33.9353
Au 3.84175 9.36032 21.5478
Au 16.8784 7.183 22.0282
Au 26.8567 17.2619 27.7164
Au 35.2198 11.3048 23.5494
Au 14.0835 16.8069 9.36026
Au 25.9474 2.78079 13.4057
Au 23.4649 14.2911 15.4427
Pd 12.0475 24.6081 30.5356
Pd 17.2545 8.49888 4.95563
Au 18.6243 12.1524 27.0645
Au 25.194 4.90893 17.9079
Au 19.402 9.13369 31.1702
Au 16.5175 7.29028 16.5495
Au 15.1177 6.88653 28.6655
Au 20.3342 18.9161 21.6025
Au 12.7428 14.2337 3.51595
Au 12.1724 18.9004 5.52131
Pd 8.03719 26.9328 6.19875
Au 24.9452 16.2479 10.7165
Pd 12.5395 12.0563 21.6958
Au 34.9264 10.7442 18.1621
Pd 18.7633 18.56 18.5296
Pd 15.4688 9.59135 20.286
Au 6.41622 11.6917 24.6475
Au 32.5011 11.4184 16.9312
Au 16.857 16.9307 24.6033
Pd 14.5125 12.1541 6.35838
Au 14.2931 3.3477 14.8454
Au 17.4236 28.1454 4.5149
Au 14.3928 17.8996 28.915
Au 16.1851 16.6325 21.8083
Au 20.6746 4.99885 18.9482
Au 21.7858 12.7046 33.7897
Au 16.8796 11.311 29.277
Au 28.7483 6.79234 23.362
Au 13.5273 7.20921 12.5842
Au 27.5692 3.60116 15.5927
Au 16.8783 10.132 26.4409
Au 22.3947 6.40969 8.41451
Au 25.9928 15.2819 31.9109
Pd 15.484 24.0668 25.2465
Pd 21.4662 10.8113 31.7744
Au 6.42298 17.4019 27.2467
Au 36.8721 12.5162 18.6368
Au 16.6857 8.72865 30.0426
Au 23.1327 9.10459 8.79878
Au 15.6977 17.3092 11.4599
Pd 21.3805 22.0069 5.42902
Au 19.1286 23.5922 2.15227
Au 16.4791 22.7163 12.7941
Au 15.3308 27.7393 6.41507
Au 22.0914 24.6951 5.36642
Au 21.7032 15.2736 3.94161
Au 29.4542 32.9924 25.8694
Au 16.8373 30.504 5.5637
Au 21.1195 11.6857 28.2585
Pd 7.77328 17.4086 20.8993
Au 14.8723 12.3739 20.1785
Pd 11.7334 24.7087 25.4207
Au 29.4063 21.2188 14.3443
Au 11.1057 5.96998 12.1604
Au 35.6999 14.743 11.9261
Au 10.6758 29.1566 25.8672
Pd 11.2712 18.685 3.18679
Au 36.9248 11.3236 16.2406
Au 27.6061 11.8423 23.3042
Au 14.0841 8.12654 15.2431
Pd 14.7387 24.7244 30.9883
Au 13.1879 2.47988 23.1028
Au 13.3671 13.2551 24.1843
Au 5.63811 10.7893 29.424
Au 33.7923 17.9055 24.0972
Au 26.4724 8.06638 24.3529
Pd 29.1544 9.38295 28.1245
Pd 11.2144 21.8895 25.3838
Au 23.1144 18.8912 21.1743
Au 29.1001 9.46941 8.64101
Au 21.5711 8.47606 24.2517
Au 29.6307 22.9465 17.1483
Au 12.1855 29.5304 3.86349
Au 20.6684 12.591 11.6865
Pd 14.2967 7.0977 21.202
Au 27.2539 19.3638 3.62596
Pd 9.76016 15.1141 6.87949
Au 15.0911 6.0747 8.37817
Au 12.4163 28.1672 6.18909
Au 17.3666 23.7229 18.123
Au 30.4984 16.6655 6.19851
Au 14.1692 16.214 23.7085
Au 11.6187 20.6418 32.6919
Au 30.7495 18.9816 25.2522
Pd 24.9483 12.5068 23.2008
Au 23.6406 24.9141 32.1858
Au 28.1316 4.14125 12.9549
Au 5.3548 10.4153 26.7894
Au 23.7517 15.1798 30.0397
Pd 34.851 18.0102 18.3319
Pd 22.5024 29.6162 29.9091
Au 14.2387 15.1683 28.1918
Pd 28.4257 9.83282 24.8975
Au 25.7372 7.68567 29.8772
Au 16.131 14.331 12.4528
Pd 14.5933 34.5989 16.4371
Au 14.8524 3.59339 24.9325
Au 36.5422 16.6962 24.3197
Au 12.8886 23.3117 20.9447
Au 12.2449 13.8779 6.3017
Au 29.8182 18.3943 14.9039
Au 21.3134 3.69377 14.7836
Pd 36.5778 21.3758 15.3907
Au 23.1931 12.2271 12.7107
Au 21.1019 21.6533 13.2322
Au 16.2755 22.5383 37.3252
Pd 16.7914 20.9406 22.1256
Au 22.723 26.5673 7.24533
Au 16.601 25.5167 16.2768
Au 18.0546 14.9093 7.50805
Pd 22.096 28.4847 22.5719
Pd 24.4991 6.31612 20.2059
Au 15.584 25.8866 35.2752
Au 15.59 3.96009 10.131
Au 15.0703 14.0267 22.3067
Au 27.4266 22.7815 9.3058
Pd 9.41467 22.2657 31.9508
Au 26.0791 15.1419 15.1246
Pd 31.3651 19.2092 27.938
Au 34.2596 16.0426 28.4667
Pd 17.0257 32.5216 24.2584
Au 9.08655 33.65 12.3692
Au 25.6967 17.8223 32.9519
Au 2.30582 23.0421 14.1028
Pd 12.6727 26.6386 17.5278
Au 30.5766 32.5587 23.4843
Au 22.8324 27.1227 27.9219
Au 18.6778 31.7747 16.8657
Au 24.8212 3.41692 15.6941
Pd 26.9814 18.6392 6.33004
Au 23.5106 29.0597 15.036
Pd 32.2991 17.9425 15.9445
Au 27.6717 28.0276 11.6361
Au 20.8998 3.35406 11.9807
Pd 10.9429 15.5898 16.8137
Au 8.49376 31.0218 9.00069
Pd 22.3023 27.3856 25.0912
Au 31.5614 25.8416 10.8499
Au 20.1847 34.1665 17.9976
Au 13.9733 24.3098 17.1721
Au 21.1501 26.6092 20.9139
Pd 34.3409 16.9675 10.9242
Au 30.2496 14.8218 19.2696
Au 24.3426 25.5918 24.4384
Au 30.7822 12.9179 31.6897
Pd 28.4451 22.4548 32.444
Au 10.3269 18.3224 16.6829
Au 19.897 32.1562 20.5396
Au 30.8197 23.98 30.588
Au 27.3895 27.6607 23.3198
Au 23.5032 30.1257 24.349
Au 9.77999 27.2942 14.3036
Au 14.9213 35.4915 25.944
Au 12.4632 22.343 15.9077
Au 19.9016 16.5368 25.5172
Pd 31.6207 16.5572 28.9144
Au 18.3929 29.5663 33.4836
Pd 18.5695 23.5777 28.8385
Au 20.6299 19.5277 3.61607
Au 33.9767 20.2147 22.6466
Au 13.2023 26.1486 8.10277
Au 15.8358 16.5492 7.33497
Au 4.78969 22.1396 13.5194
Au 11.0596 28.4121 12.1484
Pd 33.2612 19.429 11.6671
Pd 22.605 25.5087 9.68801
Au 13.7426 32.4798 30.2071
Au 17.9675 18.9481 10.9667
Au 2.49063 15.978 20.4683
Au 10.4293 23.2368 5.84784
Au 37.2914 17.7298 19.5206
Au 21.7142 26.7865 16.2491
Au 34.5493 8.76413 22.2872
Au 29.9257 28.3569 24.6364
Au 15.9956 26.5801 32.6865
Pd 20.2645 35.9351 26.6889
Au 27.0628 28.0986 30.6482
Au 3.69446 28.1341 23.4834
Pd 25.1855 15.29 34.4597
Au 34.81 24.0503 26.5595
Pd 26.5404 23.5571 12.0476
Au 28.028 9.11927 11.2305
Au 26.9516 26.8693 18.0527
Au 28.1508 25.7073 20.794
Au 28.6791 19.3628 27.9991
Au 30.9262 20.0142 34.7021
Pd 17.8976 9.01454 18.3798
Pd 29.0208 23.131 20.0808
Au 12.1475 26.1588 13.1772
Au 12.0321 34.5299 8.82139
Pd 16.5994 31.3215 19.1889
Au 32.5614 10.2649 19.502
Pd 11.4996 28.8266 18.4556
Pd 7.94506 31.2814 22.2384
Au 19.9258 14.3281 2.19851
Pd 20.6437 29.6231 24.7041
Au 24.2936 32.8855 25.2188
Au 11.3417 30.6116 6.12846
Au 11.4284 35.002 11.4758
Au 24.7302 35.582 25.7612
Au 26.0715 18.8568 20.943
Au 34.3167 26.4173 24.8472
Au 7.62048 28.9836 15.5687
Pd 13.0666 18.2141 12.9585
Au 31.5113 18.1502 32.8073
Au 9.67878 26.9815 19.6337
Au 5.18474 26.0181 19.6654
Au 34.5169 21.438 10.3433
Au 26.3537 22.4024 23.5041
Au 10.5013 33.9982 19.301
Au 12.3726 23.3784 13.3759
Pd 15.4622 32.9253 21.7253
Au 16.0193 28.5914 34.4646
Au 36.0869 18.3781 21.9021
Au 12.0136 18.8594 30.3982
Pd 28.628 14.3599 23.7569
Au 27.9332 6.81564 28.52
Au 6.2537 19.6912 20.1937
Au 6.32725 17.3102 9.32418
Au 18.6945 13.5488 13.29
Au 17.3428 2.16598 17.3928
Au 18.0656 3.60861 25.7237
Au 34.209 7.6682 14.9936
Au 27.8982 8.9496 19.1136
Au 15.8276 25.8031 4.21812
Pd 23.3032 21.3767 9.65576
Au 28.8103 23.2908 22.7072
Au 23.4946 11.7151 16.2042
Au 22.1073 34.5839 25.0288
Pd 35.1918 15.9278 20.0061
Pd 32.4749 17.0374 26.3908
Pd 17.1211 9.89853 23.7142
Au 13.068 18.7366 35.8211
Au 27.1574 6.13017 16.3824
Pd 21.2359 12.9581 17.2352
Au 16.3168 3.80349 12.7459
Au 18.8588 21.6576 4.09968
Au 37.209 14.0799 16.3974
Pd 19.3289 5.52525 22.3899
Au 21.626 7.49815 10.9437
Au 31.8398 14.122 7.92829
Au 10.1537 11.1424 10.995
Au 22.4526 3.84355 17.153
Au 18.8612 3.66384 13.6859
Au 9.22692 15.6212 9.62622
Au 9.67148 20.1925 29.9674
Au 30.7812 13.36 15.6985
Au 20.6212 23.1886 23.8627
Au 12.1397 10.1293 23.6772
Au 7.03174 8.90031 25.1003
Au 25.4024 7.87925 15.0679
Au 33.8783 14.5915 9.82582
Au 28.401 14.1978 17.035
Pd 34.6122 10.3374 15.4623
Au 10.689 33.7583 23.9385
Pd 25.1862 15.0932 24.2439
Au 20.7711 14.0036 26.272
Au 29.9149 10.3623 20.5247
Au 15.0518 20.2839 28.0444
Au 36.2563 25.0305 21.4932
Pd 27.9676 18.5397 25.3911
Au 28.1142 19.9292 35.2067
Au 22.9192 17.9077 30.3449
Pd 22.1978 18.6379 5.65211
Au 18.0543 23.1909 15.3142
Au 22.7749 4.87869 10.7263
Au 30.7322 21.3844 6.32496
Au 26.0164 5.4788 13.9225
Au 22.8475 6.46701 18.0587
Au 20.9693 15.1419 12.8314
Au 34.4999 8.3599 19.577
Au 16.9093 11.581 16.3211
Au 16.3155 7.05228 19.3422
Pd 23.2304 8.63382 19.623
Pd 12.654 15.3722 32.9695
Au 34.3376 12.4371 11.5571
Au 10.9714 21.3878 20.1438
Pd 21.1826 12.7353 14.4919
Au 15.2437 8.30234 6.85
Au 26.954 11.278 20.6722
Au 34.555 10.0642 12.9017
Au 23.6456 15.6775 19.9556
Au 22.6972 16.884 14.5184
Pd 18.9348 16.3373 20.1263
Au 19.2589 14.5827 4.94145
Au 34.3861 13.2933 19.4252
Au 26.1638 23.3774 20.6085
Pd 4.70662 18.6169 18.0662
Au 17.1721 11.5906 19.1067
Pd 17.087 14.1238 28.8778
Pd 31.0884 21.0018 11.692
Au 26.6569 22.3795 34.8735
Au 22.3374 24.5278 25.746
Au 20.1421 25.0795 30.5259
Pd 27.279 13.858 19.3938
Au 6.40754 25.737 8.29856
Au 13.7029 28.4174 22.8344
Au 24.786 27.3477 10.801
Pd 11.1736 30.3997 8.93005
Pd 29.6091 24.2597 9.75206
Au 24.0811 22.9004 4.91477
Pd 21.8077 20.8553 19.8045
Au 31.3183 18.9311 9.76052
Pd 14.5964 31.0625 12.5974
Au 18.7631 20.1568 8.6089
Au 25.4697 22.4243 28.1134
Au 20.5764 8.48413 8.23678
Pd 29.6075 25.8663 18.5334
Au 3.21319 21.4389 11.4628
Pd 5.76604 13.965 26.1079
Au 29.8808 33.9456 21.2551
Pd 19.6191 27.5406 23.3723
Au 20.9317 18.287 32.33
Au 25.4296 29.066 18.8197
Au 29.1931 25.7517 23.53
Au 30.2492 4.04746 17.1467
Au 32.6939 21.1921 8.31409
Au 15.0948 14.3225 33.5632
Au 32.4954 14.0734 27.4351
Au 24.9061 29.5963 31.3736
Au 27.244 22.6528 15.9391
Au 28.6157 14.2138 27.3129
Au 32.141 19.9456 30.5762
Au 23.4746 3.88452 13.2482
Pd 31.3498 30.0576 22.5059
Au 25.8086 10.3588 16.2691
Au 13.5598 15.4024 11.7023
Pd 25.0392 17.7374 15.9809