1687
Atoms. Timestep: 20803
Au 21.5129 36.1295 26.8871
Au 12.0954 20.1 23.8358
Au 20.5655 25.2723 36.4712
Au 19.2275 31.0122 11.4529
Au 32.2224 19.8954 11.3328
Au 14.1238 33.8978 18.657
Au 17.7516 7.5399 7.42458
Pd 16.69 13.9149 28.7957
Au 24.0576 6.9626 19.0741
Au 10 15.2086 28.4062
Pd 18.9247 25.3014 17.1222
Au 17.7697 23.3368 0.901393
Au 4.89643 17.5271 24.0212
Pd 12.0114 22.2374 29.3224
Au 15.2557 2.46876 20.9299
Au 29.2951 11.3888 29.1948
Au 8.16626 13.4698 32.31
Pd 26.8288 18.3068 9.156
Pd 11.6434 10.5474 8.85749
Pd 24.1985 16.4627 6.8273
Pd 6.5452 12.6389 30.3217
Pd 6.37758 17.4103 20.0554
Au 10.2155 14.6811 10.0853
Pd 26.0224 29.8433 15.2649
Au 10.6604 4.91267 15.6731
Au 29.806 31.9747 13.7506
Au 16.9261 13.1067 12.6526
Au 20.894 18.5829 3.49799
Au 22.0817 11.926 6.56448
Au 19.0308 17.8433 29.7966
Au 4.53284 17.6335 12.386
Pd 18.3331 12.7332 14.9368
Au 33.26 29.3513 11.3436
Au 26.9604 16.0712 7.50957
Au 21.6065 34.2103 8.82526
Au 26.9301 10.0003 6.05332
Au 3.57471 11.3102 19.0487
Au 21.4732 29.1037 3.34976
Au 18.0152 13.6094 17.3873
Au 26.6268 26.3063 7.07162
Au 29.9755 11.58 16.6673
Au 11.7856 11.7965 29.7098
Au 21.756 32.4449 10.878
Au 12.6182 18.3393 17.0347
Au 18.7301 27.095 9.1403
Au 28.9093 4.5903 19.4903
Au 25.4356 9.50098 32.059
Au 24.0667 5.81127 28.1719
Au 13.1135 15.8313 25.9385
Au 30.5573 22.4525 7.82904
Au 6.1105 27.0688 22.8856
Au 13.722 22.8883 18.0748
Pd 15.4288 13.8428 16.17
Au 29.7031 13.0724 14.1569
Au 34.1413 25.4333 9.18441
Au 3.12939 8.75343 20.1571
Au 9.67844 26.2784 27.222
Au 17.0373 20.7609 0.322949
Au 8.43591 13.3376 17.2594
Au 12.3075 22.7017 5.12389
Au 21.7984 15.4838 13.8968
Au 14.6029 14.9736 18.8378
Au 10.6648 15.0016 16.7308
Au 14.6516 19.1325 24.6567
Au 33.5043 15.1774 24.4544
Au 10.4759 22.107 13.3429
Pd 23.3774 22.1786 11.6998
Au 33.661 28.1541 13.7575
Pd 10.6513 7.62041 15.0642
Au 26.2924 29.0655 30.196
Pd 20.2527 13.9813 6.33225
Au 3.45962 9.145 17.5184
Pd 19.6278 3.50999 20.1805
Au 34.2659 20.6718 20.4403
Au 15.7943 9.17407 18.4033
Au 10.7037 25.027 29.7407
Au 12.3511 14.5056 30.2169
Au 11.8542 25.7868 9.62394
Au 23.6411 24.8964 11.4562
Au 8.54471 7.29191 23.574
Au 32.1502 24.2584 16.5824
Au 6.85052 15.9726 7.90489
Au 19.9908 36.827 18.9986
Au 9.97568 17.8118 16.733
Au 30.7109 26.2417 28.3009
Au 21.5254 19.4439 0.76334
Au 6.34518 24.2021 15.4032
Au 4.76325 7.01613 18.3516
Au 12.3394 27.2164 25.3753
Pd 20.8231 23.3512 4.54484
Au 12.1522 6.14131 30.5312
Au 15.7484 32.5017 14.4014
Au 27.1988 25.8864 2.64415
Au 21.5229 19.5779 25.7579
Au 26.7648 7.52958 27.7764
Au 23.927 32.5876 9.01504
Au 30.445 30.9162 16.3252
Au 30.6734 18.0896 19.5049
Pd 18.0422 32.7908 27.2795
Au 9.55498 19.1725 6.45127
Au 14.3348 12.5636 29.5155
Au 12.9164 16.4043 32.0897
Au 19.6437 20.3385 36.6821
Pd 26.807 4.99508 14.3785
Au 6.05763 19.9752 13.4475
Au 15.3247 31.6618 20.4096
Au 22.8843 34.5057 25.002
Au 24.0689 34.9442 18.0849
Au 17.376 3.26468 13.8824
Au 10.769 5.91755 12.9583
Au 15.4547 24.1889 31.5784
Pd 7.46597 7.34305 19.0825
Au 27.1698 34.0182 21.2393
Au 12.4912 23.0593 10.7314
Pd 14.9086 18.1096 22.0906
Au 15.2241 14.0765 26.0805
Pd 14.9479 35.1538 14.5315
Au 8.5665 25.7752 22.5366
Pd 9.67067 22.4254 19.0838
Au 19.8165 30.2652 31.2146
Au 11.9742 6.03488 20.0882
Au 30.7335 13.5317 8.61844
Pd 21.6668 4.44252 16.3806
Au 28.0906 32.7928 24.3009
Au 34.5825 18.5664 12.0457
Au 35.6828 16.2397 13.2123
Au 15.4544 16.5561 24.4367
Au 19.7214 34.7415 28.3615
Au 19.7516 3.50887 12.6073
Au 19.5016 29.6139 20.2296
Au 9.05719 32.6145 17.1754
Au 10.8833 33.2189 28.0572
Au 16.9667 21.7105 3.03015
Au 34.7881 25.5511 13.6887
Au 17.966 27.9784 28.988
Au 6.24997 11.7293 18.0177
Au 22.1098 3.21832 14.0078
Au 25.6347 21.1514 12.8222
Au 10.2451 31.7426 19.7415
Au 5.68287 22.4733 12.2645
Pd 28.3802 23.7731 16.6214
Au 28.8977 9.24238 20.1743
Au 19.7259 6.4086 28.7304
Pd 31.9961 25.751 14.2159
Pd 27.8848 21.2922 17.5375
Au 19.639 15.4991 15.8643
Au 33.4612 10.2295 19.0998
Pd 22.4025 24.4248 30.1276
Au 28.8488 19.2799 28.4119
Pd 10.8385 10.3115 31.6798
Au 28.5929 6.98297 15.5753
Pd 29.5978 14.224 28.1418
Au 14.6537 21.0375 4.95592
Au 10.5952 23.6059 27.2563
Au 26.7337 32.3206 10.17
Pd 25.9699 32.2267 22.9
Pd 13.9293 20.6632 34.1277
Au 29.6014 18.712 9.77293
Au 16.8119 15.7455 8.92881
Au 18.3392 7.78762 14.6939
Au 24.363 22.6804 29.2389
Au 17.1228 14.2632 19.8041
Au 8.1929 25.1389 10.2785
Pd 20.8177 10.4808 32.1321
Pd 23.0061 35.7918 22.5055
Pd 16.1492 16.6211 5.14294
Au 8.24182 29.7683 19.955
Au 8.76275 14.1637 26.1001
Au 20.4748 27.4143 12.7807
Au 25.1113 32.2904 14.3103
Au 6.41199 15.3218 31.134
Au 14.0804 21.7834 24.9193
Au 13.3043 17.4896 34.9075
Au 15.1943 16.9765 2.69714
Pd 20.7454 19.7038 31.4828
Au 20.3548 23.1084 23.0149
Au 26.7575 10.0505 29.5068
Pd 8.91962 19.9651 12.7934
Au 18.8728 4.5116 22.582
Au 26.4437 13.2618 21.8684
Au 19.9659 9.02995 34.1796
Au 34.9267 21.6343 27.2597
Au 2.32211 13.6808 19.5654
Au 18.1872 25.5813 37.8604
Pd 23.1758 22.1068 34.2541
Au 26.106 20.4047 29.6273
Au 27.2819 15.8302 10.4554
Au 25.9418 30.1097 21.3579
Au 34.5068 16.2552 7.94874
Au 24.9291 11.778 30.7968
Au 13.2517 12.2661 25.2643
Au 26.3993 15.4505 17.1014
Au 32.2422 29.3112 23.0972
Pd 6.7964 21.5872 16.7422
Au 27.6258 5.73694 23.7148
Au 34.3815 14.3708 17.3492
Au 23.3081 33.5459 15.9298
Au 14.1009 10.5333 16.5699
Au 24.8954 23.6699 23.8375
Au 28.5422 20.8821 2.35686
Au 31.4475 22.4445 24.637
Au 16.6711 16.0269 17.473
Au 29.6312 27.2012 13.4998
Au 23.8879 30.3579 23.4237
Au 24.9858 34.8381 13.1544
Au 8.94278 16.7031 18.9591
Au 24.5985 18.4651 14.146
Au 21.7907 9.4038 26.5844
Au 9.27036 18.776 10.3187
Pd 7.69382 27.2535 12.0821
Pd 8.85308 13.0474 11.7105
Au 17.9796 13.3082 26.5139
Au 24.9044 9.72643 22.9092
Au 25.6757 27.4043 27.7886
Au 14.0111 6.31241 32.7474
Pd 31.6688 19.8833 8.46656
Au 16.6946 17.7737 13.2612
Au 33.7323 27.1017 22.8395
Au 15.7516 25.503 34.0328
Pd 13.0001 10.7368 27.5105
Au 21.4805 7.64173 10.0974
Pd 30.273 20.7408 26.6706
Au 9.34576 12.9771 29.9046
Pd 28.9773 24.6489 29.6524
Au 7.08136 17.9243 17.4053
Pd 13.1629 21.1373 7.41254
Au 3.15639 14.3449 15.5691
Au 7.37034 5.56567 21.81
Pd 17.9878 33.7787 22.0977
Au 22.202 4.15429 11.5167
Au 23.8371 9.07078 9.97843
Au 10.2497 28.098 34.0674
Au 9.66712 27.2695 20.4477
Au 16.9494 34.7475 25.11
Au 15.1166 11.904 14.3288
Au 23.5371 31.6822 25.8638
Au 32.3072 9.19358 13.6678
Au 13.0884 33.405 13.7021
Au 8.4173 17.0177 30.062
Au 7.43978 31.3141 22.1197
Pd 19.8051 33.2607 7.07447
Au 30.3005 24.7816 12.2368
Au 13.891 20.2219 19.2657
Au 19.0082 14.6782 21.8891
Au 25.1234 30.3463 27.8893
Au 33.5339 18.927 22.8655
Au 16.4049 24.9717 21.3411
Au 24.4046 16.9686 32.384
Au 22.4619 22.4047 0.479165
Au 30.1278 8.56016 11.9402
Au 19.6662 20.7109 9.53226
Pd 27.174 23.0298 22.7346
Pd 29.9441 26.9292 10.2658
Au 34.6398 18.9589 27.0752
Pd 6.82251 22.7576 30.8415
Au 15.5949 22.8403 34.4658
Au 6.8526 23.1015 18.8782
Au 23.4231 28.4414 21.1198
Pd 14.3957 17.6374 19.1908
Au 15.8694 24.7154 18.0222
Au 32.5205 27.6336 9.34058
Au 13.7592 10.3273 31.2413
Au 16.1597 19.4252 30.1786
Pd 28.1218 26.4569 27.682
Au 18.1267 26.6136 19.9988
Pd 27.803 25.9574 11.6403
Au 29.7082 24.3493 23.8321
Au 19.231 28.3416 2.2607
Au 8.72373 10.3863 22.1306
Au 30.6943 11.0729 9.68153
Pd 25.0458 7.37862 24.3712
Pd 22.5834 8.4864 12.4841
Au 2.3521 18.7097 16.5935
Pd 21.7522 16.8661 25.4172
Au 22.2373 2.54103 20.5433
Pd 16.7147 21.1053 10.2755
Pd 5.88157 10.4194 26.4997
Pd 16.3467 28.2709 34.2881
Au 4.7941 11.4452 24.088
Pd 12.0896 18.9517 33.0641
Au 37.2921 23.2884 17.052
Pd 21.3657 15.8832 22.868
Au 18.022 17.4735 3.38672
Au 17.0239 18.0196 0.877093
Au 6.46922 5.00527 19.2464
Au 4.83466 22.2336 20.3352
Pd 30.7364 11.1473 19.3742
Au 19.635 14.5042 1.72983
Au 21.2762 36.3378 10.3319
Au 13.6218 30.5461 9.62469
Au 29.1589 19.4811 21.5063
Au 22.374 14.266 2.4788
Pd 27.7565 11.4205 14.9077
Au 11.9359 16.2479 18.8325
Au 27.8529 4.69011 17.0038
Au 23.3061 16.5177 35.1338
Au 12.3059 15.2365 12.064
Pd 15.2058 14.96 30.9945
Pd 31.9097 27.1172 11.9373
Pd 26.9222 14.123 26.98
Pd 29.6774 23.7159 27.1079
Pd 12.9286 21.1665 12.8273
Au 9.915 10.2289 14.0039
Au 12.231 35.9135 18.7187
Au 7.85704 12.0921 27.7553
Au 21.4204 26.8094 16.0342
Au 16.6286 12.2117 31.0384
Au 19.3943 25.4097 14.3293
Au 29.1679 31.644 11.2411
Au 16.2011 14.1047 6.37193
Pd 32.2533 13.777 13.1853
Au 9.42259 35.0994 23.9534
Au 15.0006 22.7813 12.0048
Au 18.9188 13.4892 35.5813
Au 20.5311 31.9115 18.997
Au 27.3413 27.9682 25.3392
Au 16.5745 30.2031 24.7904
Au 19.9514 6.66897 17.0941
Pd 21.0262 13.0528 14.9624
Au 13.8417 27.2939 34.7856
Au 29.4932 21.8962 22.4002
Au 35.3646 24.9018 23.0563
Au 17.9547 31.8682 19.7307
Au 9.10574 34.0695 26.3635
Au 27.2604 14.3261 2.96811
Au 26.0901 28.0864 17.6032
Au 5.87008 29.4592 18.7467
Au 25.7232 15.7371 21.015
Au 26.0061 5.64376 26.0616
Au 22.2497 21.7614 27.6756
Au 27.8084 7.42814 18.1959
Pd 26.3279 18.6877 6.51179
Au 11.5032 28.5924 8.97192
Au 9.4235 34.4758 19.2005
Pd 3.05283 22.0776 13.0888
Pd 14.7121 9.17971 22.9078
Au 19.113 10.7766 35.9879
Au 18.9799 23.0415 37.3252
Au 24.902 21.9611 31.9216
Au 15.4732 11.7703 5.10918
Au 25.8287 13.4398 10.3283
Au 31.6383 17.2374 7.55073
Au 17.3331 10.3643 13.7859
Au 8.12379 27.7152 32.445
Pd 4.30609 18.1501 18.4018
Au 25.5034 34.8875 23.2109
Au 27.0677 22.2412 9.9492
Au 5.10679 19.2537 15.9727
Au 17.9095 36.4317 20.7927
Au 15.4039 19.674 2.3756
Au 7.21315 18.5589 34.4038
Au 24.3323 16.3611 25.4168
Au 22.5139 24.2344 24.9832
Au 24.9785 17.9247 1.19404
Au 29.9053 28.374 7.91459
Au 27.9457 23.2047 7.46471
Au 19.4669 7.88716 26.2693
Au 22.5234 31.0934 28.414
Au 13.1333 21.2722 2.80922
Pd 31.87 26.7501 18.0504
Au 14.8223 5.88738 28.3302
Pd 26.6688 28.0533 13.2064
Au 10.1564 35.3106 16.8436
Au 4.22345 15.7071 19.6422
Pd 23.2106 13.6747 34.4162
Au 22.8025 7.50709 7.6084
Au 4.28841 20.1906 11.4233
Au 34.409 27.8186 18.4992
Pd 25.5228 13.6564 19.0406
Au 32.3446 25.4893 20.6303
Au 24.8766 32.7775 20.2381
Au 27.3571 32.3886 27.1279
Pd 10.9532 28.1602 28.8158
Au 29.9754 25.9386 16.1062
Au 16.9796 14.0798 24.0178
Au 10.9948 12.8993 32.3232
Pd 14.6596 9.32533 13.2871
Pd 30.1763 6.07007 17.558
Au 34.2957 17.1345 17.5512
Au 16.0691 13.1981 9.85534
Pd 8.802 26.914 30.0594
Au 22.2451 31.4254 32.1152
Pd 21.7919 9.93104 8.31858
Au 25.0774 11.3072 15.2073
Pd 34.8904 23.9393 16.093
Pd 26.0435 23.6949 11.9218
Pd 15.0347 10.0848 25.4296
Au 10.4998 29.2843 18.4905
Au 24.8731 12.293 5.77303
Au 33.1341 17.5097 29.4955
Au 26.3827 11.6786 8.13722
Au 18.8464 27.7538 15.636
Au 7.90027 12.5337 20.1457
Pd 28.482 22.4926 12.5138
Au 17.1402 27.332 13.5365
Pd 17.2047 18.8837 27.7403
Au 24.5589 27.4596 15.3585
Au 34.2589 23.135 25.149
Au 26.3561 22.6804 3.71396
Au 16.1675 25.0301 2.2952
Au 15.1202 4.28259 12.7224
Pd 9.41094 22.6138 29.8982
Au 12.2119 19.5578 28.8287
Pd 21.0095 21.112 15.6267
Pd 27.3666 28.9029 6.87199
Au 26.9662 31.5567 29.5647
Au 7.61219 15.2612 12.9588
Au 16.8719 11.2116 16.5415
Au 8.40979 10.7667 16.3341
Au 16.6018 20.033 34.5315
Au 26.0275 29.6823 10.5995
Au 25.9321 34.4866 15.8205
Au 9.08111 14.3798 7.53888
Au 16.1091 15.5997 21.9548
Au 12.9731 31.1317 18.7134
Au 17.2152 9.30433 34.5681
Au 29.0754 10.0255 24.5919
Au 16.2105 21.4356 32.1197
Au 30.2798 24.4642 18.6036
Au 31.9764 21.7182 30.9578
Pd 22.4932 8.61276 24.0406
Pd 14.8084 13.3558 21.1185
Au 18.035 14.717 31.0824
Au 21.0164 17.972 36.368
Au 6.56811 22.9683 9.67814
Au 4.39924 8.96038 22.4854
Pd 17.3673 9.77806 22.4115
Au 9.17514 18.9956 32.6716
Pd 15.5208 11.0437 33.2628
Au 6.04496 9.21904 16.799
Au 16.4466 25.074 5.08371
Au 13.6044 18.9036 14.2033
Au 17.4333 3.81812 11.0846
Au 15.6074 22.4287 20.2617
Au 19.8379 0.973257 20.1457
Au 21.8071 18.4838 13.9602
Au 10.8368 32.2349 25.2389
Au 11.2259 14.1312 24.9523
Au 26.5099 11.8358 24.5138
Au 11.7073 34.798 25.7548
Au 31.6379 26.4724 7.10238
Pd 12.0025 15.1188 8.11128
Pd 15.4238 14.342 3.73984
Au 9.64275 14.401 34.3359
Au 17.3985 25.9483 26.941
Au 23.7077 36.0775 15.2073
Pd 16.7799 21.569 28.2292
Pd 21.404 26.7721 29.117
Pd 17.1763 16.0252 26.5172
Pd 18.8709 15.4822 28.5113
Au 14.1181 13.226 7.94143
Pd 12.5996 10.8627 14.2855
Au 23.3371 21.4983 25.0179
Au 29.6501 16.0995 9.15936
Pd 19.5413 12.4095 30.7883
Au 21.4699 37.624 14.877
Au 28.8694 15.5808 30.7472
Au 29.6094 18.3496 2.10709
Au 9.9133 23.4064 21.7572
Pd 18.2484 13.5268 8.07282
Au 35.9677 27.5691 15.1875
Au 22.5779 36.5598 19.8541
Au 20.8823 18.3887 11.1618
Au 13.1797 25.268 32.8168
Au 20.6756 10.332 19.4899
Au 20.0023 33.0725 31.611
Au 12.2931 14.5784 34.112
Au 29.7313 9.49761 14.7262
Pd 22.315 28.6111 14.3476
Au 22.1275 25.676 4.763
Au 28.2293 18.8591 4.35714
Pd 20.2036 13.1969 28.2197
Au 36.7591 21.7699 20.5631
Pd 11.0219 17.9056 30.7139
Pd 10.6534 26.2762 32.1834
Pd 17.0007 17.1347 19.9325
Au 32.8951 23.9524 7.25813
Pd 18.6692 20.5013 29.7891
Pd 22.242 12.1315 26.8087
Au 24.2525 28.9269 32.3254
Au 19.3379 29.9892 24.3347
Au 4.78546 23.8568 32.0278
Au 10.0548 15.3066 31.3934
Au 20.3786 22.5751 29.4517
Au 30.5096 15.8438 13.7417
Au 17.6632 31.5385 32.2085
Au 19.1256 22.7502 11.194
Pd 26.0815 19.9181 2.91994
Pd 15.1779 4.94045 25.7854
Au 16.8304 4.81785 20.6635
Au 36.6653 16.1095 18.3866
Au 21.3129 34.5427 17.8995
Pd 17.5353 17.9005 22.5028
Au 34.1445 24.4103 27.6301
Au 23.3382 2.22575 16.1818
Au 32.1959 15.7393 18.6929
Au 13.3201 8.09139 15.2618
Au 16.0019 35.6842 22.4814
Au 35.2976 16.9988 22.0406
Au 18.5182 8.78655 20.0141
Au 11.8844 17.2505 9.98903
Au 12.6231 6.59007 27.0048
Au 25.9594 17.2929 23.1918
Pd 12.7059 27.0115 30.4516
Au 6.34918 20.7298 32.7632
Pd 8.24841 32.6785 24.3025
Pd 20.1121 14.9407 26.1948
Au 32.9272 11.9125 8.12007
Au 11.7778 16.8541 14.515
Au 29.9153 21.859 29.1601
Au 22.9072 23.1884 18.9886
Au 29.1345 30.817 25.8531
Au 27.5038 21.1322 5.59602
Au 29.8746 28.6903 24.2883
Au 20.6541 23.5411 34.0548
Au 12.481 4.33173 28.44
Au 8.05213 19.6127 15.4091
Au 26.5021 9.31406 25.606
Au 18.6104 20.5679 16.7325
Pd 11.572 33.2761 17.7876
Au 4.24057 27.3263 18.4043
Au 27.5472 21.983 33.0948
Au 14.6605 30.1848 22.9047
Au 35.0987 18.3909 14.8772
Au 6.24176 20.0992 19.108
Au 10.9458 9.1806 19.2988
Au 25.9153 2.98804 16.4309
Pd 7.34982 29.3982 26.4739
Au 12.0132 17.552 6.78813
Au 33.8672 16.4358 27.0427
Au 14.4527 15.9131 13.838
Au 20.7603 14.9189 30.4055
Au 20.6798 32.4238 16.3066
Au 15.0556 4.05093 15.4341
Au 15.4533 6.71093 13.851
Au 32.811 15.8267 21.838
Au 30.0094 19.4399 17.0935
Au 15.5972 6.37539 22.9934
Au 20.542 36.6262 21.6256
Pd 22.3776 8.5526 33.2364
Au 23.7413 27.6139 3.66999
Au 19.0054 29.0449 33.8437
Au 24.807 20.7022 5.1935
Au 21.4285 22.3714 36.3464
Pd 16.3799 19.7505 20.4796
Au 28.0142 19.3691 33.8108
Au 33.5125 13.7381 26.8067
Pd 24.6995 17.974 29.859
Au 21.9682 29.4714 18.9036
Au 30.4181 16.9111 28.9031
Pd 6.09802 10.9801 21.669
Au 21.4037 14.1588 17.5166
Au 11.2956 12.5845 12.5751
Au 25.4988 33.4603 25.4529
Au 13.374 13.6391 5.44551
Au 6.93852 15.6574 24.6255
Au 9.30845 8.07131 12.4305
Au 31.8681 22.1093 5.3775
Au 19.8662 13.9027 33.0567
Pd 17.7968 11.2489 19.1878
Au 35.6834 24.4009 11.3413
Au 21.6269 23.0255 9.75535
Pd 19.4682 24.4548 8.94925
Pd 19.7045 16.8369 32.1961
Au 10.3605 27.7457 23.5813
Pd 10.4251 26.3659 17.5375
Au 16.9025 24.0546 10.4781
Pd 27.2075 19.9671 23.2176
Pd 10.8559 4.75593 26.1459
Pd 16.6406 25.511 24.1762
Pd 32.7106 18.9461 16.2032
Au 9.7508 9.47849 24.5307
Au 36.127 18.454 19.7302
Au 2.98786 23.3295 24.304
Pd 16.0188 8.62796 32.1281
Au 2.43775 16.3817 23.2719
Au 7.68851 21.7443 21.0235
Pd 25.1867 16.0594 27.8576
Au 12.0105 21.2491 26.5518
Pd 19.9309 5.32413 14.6341
Au 22.5642 31.2544 14.635
Au 27.2559 33.4442 12.6912
Au 24.8917 10.0439 4.30593
Au 18.4506 21.9782 34.8203
Au 27.8309 9.95168 12.6125
Au 4.70438 23.2691 29.251
Au 14.615 6.22085 19.3901
Au 8.49948 24.6786 31.7537
Au 34.9685 22.9049 9.15919
Pd 28.2926 20.4792 8.23544
Au 19.1722 20.6114 27.0381
Pd 19.1693 19.7961 14.1594
Au 3.36462 20.0576 20.1398
Au 28.2885 30.308 9.05081
Au 33.1979 21.6745 16.4655
Pd 22.3459 20.3724 9.70871
Au 2.11745 21.2168 15.6319
Au 19.6188 25.0929 25.3123
Au 8.05741 24.6425 28.7992
Pd 9.87981 28.5059 15.8362
Au 28.2033 23.5564 1.94333
Au 7.38075 17.5758 22.6001
Au 15.56 2.2997 25.4116
Au 33.0151 24.5381 11.6357
Au 16.9985 36.6377 15.4616
Au 17.4585 3.59076 26.9321
Au 20.2097 8.49118 6.56509
Au 21.9279 20.8257 5.0959
Au 10.0481 27.3401 10.8799
Au 20.3039 18.3011 23.5317
Au 25.0262 25.1995 4.13751
Au 8.57985 24.096 17.0504
Pd 23.7447 13.8558 20.9359
Au 11.439 25.7465 34.79
Au 23.0582 5.89412 23.4921
Au 34.0392 24.9924 18.5342
Au 8.26942 10.8412 31.2949
Au 5.64274 17.9373 9.90746
Au 19.621 9.41836 24.1091
Au 21.7792 29.3901 25.634
Au 8.49048 22.5289 11.4448
Au 24.4325 23.0061 9.38199
Au 32.0874 18.2493 13.6721
Pd 12.9912 5.06629 24.2434
Pd 19.903 28.9511 7.42752
Pd 18.5448 23.3291 27.2308
Pd 5.35984 22.75 25.7908
Au 16.0718 24.2199 28.6306
Au 30.4138 19.8095 24.0847
Au 27.801 30.3198 17.1857
Au 26.1468 15.5831 30.3533
Au 2.44914 12.845 24.3746
Au 12.9054 13.7743 14.4875
Au 21.1871 21.4181 2.59339
Pd 20.1077 34.16 25.5528
Pd 19.4258 29.7193 13.933
Au 8.58911 16.5447 35.5777
Au 18.6177 25.9041 1.67623
Au 21.4861 13.1605 12.159
Au 4.92085 18.2669 26.6799
Pd 34.3468 25.8822 25.3101
Pd 17.4289 30.7653 22.2107
Pd 29.8102 21.5685 19.6543
Au 15.9109 9.93958 29.5927
Au 18.3941 23.9119 3.54783
Au 29.6816 15.7986 2.95124
Au 21.6323 5.27426 30.201
Au 21.113 36.5414 24.3404
Pd 32.8823 20.346 25.485
Au 27.9513 7.17177 12.9572
Au 8.92896 30.136 24.4187
Au 9.43024 15.6996 23.5248
Au 21.5941 17.9913 33.6997
Au 24.1608 20.2997 0.468581
Pd 8.122 26.3503 15.6157
Au 13.6235 20.4525 10.2148
Au 34.5561 26.9672 11.354
Au 12.5005 9.61986 24.7499
Au 3.26275 16.6902 28.5309
Pd 18.979 18.6632 18.7704
Au 4.06064 12.5492 13.8274
Pd 9.89292 26.8004 13.6307
Au 27.1396 4.12316 21.5062
Au 3.96881 20.981 17.6441
Au 3.27705 11.3975 21.6978
Au 19.9821 31.8771 21.7785
Au 16.4261 5.70868 31.8455
Au 16.2349 28.0502 8.27845
Au 25.9887 19.3388 32.1253
Au 6.50028 7.68862 26.2488
Au 16.6533 20.9244 25.6846
Au 7.9596 30.1689 17.095
Au 29.0863 26.9974 5.6086
Au 6.48918 6.58329 16.4066
Pd 16.6024 20.4885 23.0325
Au 12.9933 36.2028 21.5018
Au 26.215 12.3224 12.797
Au 5.5691 9.40538 19.505
Au 27.5465 27.6317 9.32324
Au 21.3358 20.2951 18.3401
Au 3.29259 11.1931 26.3269
Au 11.6611 36.5529 23.7382
Au 18.4326 16.0201 6.69441
Au 28.649 28.95 11.5895
Au 30.9082 10.4717 26.6769
Au 34.5034 10.2965 14.8891
Au 9.96032 18.7907 35.336
Au 25.375 26.4547 32.764
Pd 6.20894 20.2644 29.9869
Au 19.1472 18.0258 8.73001
Pd 14.8972 17.602 27.0834
Au 14.3524 18.5629 5.83983
Au 19.0732 5.34961 31.1361
Au 13.1633 8.09699 17.915
Au 14.8603 25.6805 13.316
Au 23.8425 4.79352 20.8277
Au 17.7791 9.71347 5.79319
Au 18.5085 11.4507 33.4192
Au 18.0806 14.8536 4.30316
Pd 20.946 15.6354 11.2293
Au 14.8925 18.461 32.8101
Au 7.30672 13.7692 9.62078
Au 16.9867 4.62101 29.4029
Au 8.55877 29.3203 28.8679
Au 19.7403 2.70314 15.4052
Au 18.4685 28.2175 22.298
Au 21.3558 23.9451 15.5376
Au 17.356 28.8499 31.6946
Au 25.0072 2.47233 21.2014
Pd 23.1738 18.3331 23.4105
Au 13.0651 10.9159 19.118
Au 1.1206 21.1641 20.8532
Pd 16.1171 7.87013 20.8043
Au 8.31685 9.97993 19.2266
Au 9.16743 31.0476 14.8199
Au 23.0912 28.4438 27.95
Au 18.1105 12.3575 5.37563
Au 11.1699 16.2228 36.1537
Au 30.7383 8.36443 9.3237
Pd 27.4673 10.7937 22.1319
Pd 15.0547 27.1245 31.9867
Pd 31.5819 15.0056 4.65823
Au 29.396 22.5549 4.29044
Pd 3.18127 14.0638 22.0687
Au 35.0728 26.2859 20.6659
Pd 20.5233 8.06769 30.9424
Au 7.69379 21.2672 25.7133
Pd 12.4587 28.3136 16.9858
Pd 7.25776 17.904 12.0995
Au 13.8564 27.7703 10.0626
Au 29.507 24.5562 21.1795
Au 14.2527 25.0988 10.7064
Au 4.58065 14.538 29.3295
Au 33.0786 26.8686 27.4843
Au 12.3935 25.7756 27.7988
Au 20.1924 34.5719 12.0381
Au 33.1801 16.1236 12.2863
Au 21.0278 19.4114 28.6324
Au 22.8848 24.3412 2.48536
Au 18.324 29.9829 17.6619
Au 22.1311 12.8016 32.0446
Au 15.9539 23.5434 25.965
Au 7.88932 23.1268 23.5793
Au 25.4041 24.1388 1.57962
Au 22.7055 31.1999 20.9315
Au 27.6749 32.3396 15.2492
Pd 25.7768 21.2015 7.7072
Au 22.0615 22.1666 31.6966
Pd 22.2311 26.6541 26.1098
Au 8.26447 20.987 34.8099
Au 16.0838 3.71197 23.2346
Au 7.56447 8.64875 14.4538
Pd 25.0384 28.2611 8.40335
Au 19.1346 1.18334 17.5782
Au 16.3444 18.3269 10.1304
Pd 12.4506 18.716 21.3384
Au 35.109 22.3986 18.3911
Au 5.14186 16.0639 16.7552
Au 34.3863 22.0014 11.7703
Au 20.4905 15.898 3.94894
Pd 21.4527 31.879 24.0792
Au 32.5774 12.7396 10.6872
Au 32.3004 22.3038 27.4506
Au 8.70992 8.15716 16.8786
Pd 26.295 18.519 27.6936
Pd 20.9498 6.34179 32.7925
Pd 19.4891 3.75687 28.879
Au 17.1356 35.2678 27.8255
Pd 20.7392 34.2245 22.8674
Pd 34.4149 20.2656 9.73004
Au 24.2912 8.16894 26.8432
Au 22.635 12.322 19.0932
Au 19.6598 17.1609 21.0169
Au 19.4595 17.1916 13.5488
Pd 25.1234 20.3926 10.2051
Au 26.4159 5.50597 11.4664
Au 24.3904 15.7794 14.764
Au 6.77002 14.9053 18.6944
Pd 26.3586 13.8591 14.9339
Pd 33.5454 21.3875 7.35473
Au 7.14235 27.133 27.9222
Au 24.5595 13.3585 25.8599
Pd 23.7646 23.5119 14.0775
Pd 31.7652 10.6693 24.1611
Au 16.9936 8.21735 24.6507
Au 22.1125 6.57534 26.1474
Au 4.88116 20.7802 27.6136
Au 5.4724 27.4936 25.8018
Au 15.8612 6.05471 10.8495
Au 2.49759 25.3047 17.8822
Au 22.1564 13.9955 24.6916
Au 5.91103 26.6158 13.9428
Au 16.5879 29.3877 15.5028
Au 15.736 20.5345 7.681
Pd 6.31797 25.6482 17.8146
Pd 10.9267 18.8226 19.2447
Au 31.0999 16.8437 16.4935
Au 25.7363 27.5206 20.2841
Au 26.0335 8.85782 20.1622
Au 20.6416 26.2553 33.8636
Au 19.7498 11.0599 21.9395
Au 6.53734 27.0961 20.2016
Au 23.336 9.64576 19.1032
Au 8.82573 20.0705 18.0609
Pd 19.3462 18.2714 5.65851
Au 31.4704 16.1838 31.2309
Pd 25.1511 14.1138 7.78733
Au 5.8538 17.298 29.1623
Pd 16.8555 19.4289 4.86676
Pd 2.72081 23.2273 21.6038
Au 29.6951 5.1644 22.0949
Au 12.5726 28.3333 32.7582
Au 22.1977 7.78286 28.8013
Pd 12.4017 26.6172 12.3108
Au 16.811 21.3304 36.9594
Au 18.2166 7.16074 22.3701
Au 19.0815 20.5775 24.2101
Au 14.7158 36.3473 17.2092
Au 22.4903 5.30669 9.13835
Au 27.5044 21.8628 27.6043
Au 32.5502 9.72428 10.9676
Au 19.2685 20.9546 4.65539
Au 26.1375 21.6354 25.1179
Au 23.3034 22.1365 16.5802
Au 18.3696 2.68888 24.5334
Au 32.4419 15.3609 9.72396
Au 20.7847 29.7085 16.3849
Pd 26.0604 8.0868 11.205
Pd 13.3641 16.2145 4.64219
Au 11.8726 20.0065 5.26444
Au 8.13751 7.80583 28.6698
Au 18.3648 31.0925 6.61956
Au 11.0403 3.21026 23.9005
Au 21.2742 29.4703 22.5167
Pd 25.1059 24.5805 30.9492
Au 31.8002 8.96232 20.7876
Au 11.5045 18.8226 12.3356
Au 24.0625 26.6436 6.33158
Au 27.6288 24.6518 5.1343
Au 20.3215 29.3879 28.5736
Au 23.3912 18.2098 27.3984
Au 24.5784 4.17471 12.7974
Au 17.2812 33.1361 8.02254
Pd 19.5805 26.3598 4.29623
Au 33.8103 11.4421 12.6646
Pd 27.9305 29.0087 19.6681
Au 29.0359 28.2523 29.5371
Au 29.6172 17.9638 32.076
Au 25.0066 6.54578 8.98523
Au 17.1101 22.2589 5.66631
Pd 12.4362 18.5554 26.1965
Au 26.9741 16.6256 14.4862
Au 27.5621 29.3821 27.5875
Au 13.1183 18.6022 3.35429
Pd 12.6804 24.0003 13.3511
Au 23.4748 33.1157 22.793
Au 30.3557 20.527 32.8124
Au 25.4513 23.798 33.8711
Au 15.7767 30.8076 7.95664
Au 16.8759 30.431 12.9817
Pd 14.0979 25.4603 23.3235
Pd 28.7261 22.0739 24.9702
Au 20.3772 24.4294 20.5171
Au 24.7175 20.6705 27.3239
Au 19.9025 4.48194 10.054
Au 3.2965 13.861 26.8883
Au 22.8957 23.1426 21.9586
Au 30.0943 8.89208 17.6639
Pd 12.5083 13.5114 19.7269
Au 8.68447 25.8846 34.26
Pd 29.8613 19.8038 12.6454
Au 13.1752 8.49864 8.161
Au 5.97825 13.5891 15.6378
Au 33.0552 11.2599 21.6413
Au 19.6774 17.1522 1.2696
Au 26.3515 21.7571 0.926441
Au 17.3857 2.27159 19.2188
Au 21.3136 25.9749 10.1916
Pd 30.0109 20.2581 6.23133
Au 15.8385 32.7809 23.2556
Au 27.2038 16.8175 32.8272
Au 20.1858 22.7814 17.8087
Au 19.7907 13.0049 19.7514
Pd 18.1565 30.1604 9.12973
Pd 14.2279 25.933 7.99704
Au 10.4455 21.8894 6.97709
Pd 8.1734 28.6442 22.3363
Au 21.4146 25.3025 18.2005
Au 21.1469 10.6716 29.1355
Pd 5.0505 6.77059 20.9214
Au 28.8224 29.6264 14.5885
Au 11.4209 30.8294 16.3502
Au 24.5452 32.1627 11.6691
Au 30.3936 31.3039 23.5373
Au 31.7201 23.0072 21.5709
Au 36.0869 15.8514 15.7986
Pd 5.32998 15.6469 26.9089
Au 21.3833 2.35872 18.05
Au 24.861 15.5179 2.28467
Au 23.7315 11.7518 11.6293
Pd 14.443 7.55054 30.3755
Au 30.4553 13.4848 30.5595
Au 23.4661 34.682 10.8127
Au 2.40243 22.8731 18.9588
Pd 14.3628 8.43167 10.6659
Pd 17.8289 2.10395 21.8347
Au 10.9338 3.94269 18.3408
Au 19.577 22.6293 13.9552
Au 10.4045 16.7245 25.8339
Au 16.9593 27.4119 17.6052
Pd 23.0522 32.1522 18.2094
Au 11.2398 24.7214 19.6362
Pd 22.1622 10.8489 13.7256
Au 3.15669 23.5844 27.0876
Pd 32.1061 20.1815 18.6217
Au 23.3394 30.089 10.0658
Au 26.9477 25.295 21.0346
Au 16.2383 21.8714 17.6341
Pd 14.26 33.8973 21.439
Au 31.6207 14.2326 15.9253
Au 28.5328 9.51244 27.4191
Au 2.56068 18.8098 24.5629
Au 19.041 19.9191 21.5236
Pd 36.1877 20.3729 13.1978
Au 15.3476 12.3502 18.5162
Pd 26.196 17.362 18.9562
Au 18.9117 24.3425 6.2552
Au 36.1356 22.3582 23.095
Pd 22.4891 10.5644 21.6663
Au 20.6109 22.3865 25.5958
Pd 19.7669 27.5371 31.2178
Au 18.6416 36.0203 23.4859
Au 13.3644 15.6922 16.5025
Au 33.5745 21.6175 23.0146
Au 22.2965 29.1942 30.4902
Pd 15.0666 36.2661 19.8717
Au 32.0822 29.4758 18.1305
Au 32.4614 22.3313 9.7763
Au 20.2377 10.5582 4.82088
Pd 12.2793 12.9481 9.95214
Au 23.3839 19.7233 32.7334
Au 19.1845 15.774 18.6306
Au 15.3485 19.9595 12.3507
Au 20.0374 32.1436 29.1486
Au 20.4404 2.23417 22.5735
Au 33.7656 26.5055 16.1357
Au 34.5853 13.8441 9.20046
Au 10.9741 15.1458 5.63888
Au 20.8364 31.2531 8.57694
Pd 21.2855 16.7101 28.3452
Au 27.9944 6.81705 20.9462
Pd 19.6626 11.0391 26.4703
Au 18.3395 28.4987 11.4813
Au 27.5513 24.6544 32.2931
Au 33.3868 18.0293 20.122
Au 19.132 29.0891 4.79051
Au 27.574 12.9532 17.1973
Au 7.88942 16.7193 27.1133
Pd 11.8141 33.8479 20.3644
Pd 25.9718 10.7115 10.5605
Au 11.8863 26.8486 6.97829
Au 22.9132 27.7477 11.5693
Au 14.9756 27.8759 24.626
Au 6.17793 29.5792 24.0716
Au 23.4603 27.332 18.0865
Au 23.0884 30.2968 7.36205
Au 27.235 19.2661 13.8219
Au 19.4622 17.7467 26.6631
Au 13.9858 29.2855 20.4287
Pd 23.9979 21.8582 2.65182
Au 14.0902 15.3521 9.89866
Au 21.3436 26.5946 2.27245
Pd 13.3812 32.3123 24.1667
Au 32.2254 17.6795 24.9046
Pd 29.7711 15.1051 6.58811
Au 30.2544 14.3797 11.3228
Au 30.2226 10.7027 22.0935
Au 32.7425 14.5484 7.03162
Au 14.6082 23.4474 3.7191
Au 11.1022 20.75 31.2972
Pd 5.62282 24.9895 27.3228
Pd 16.6818 18.0281 7.38116
Au 19.3737 9.09324 9.1964
Au 5.8163 25.1078 11.4963
Pd 18.5162 16.3036 36.5825
Au 22.4288 33.209 30.1355
Pd 23.2626 14.3666 10.5498
Pd 25.4174 18.1404 34.5478
Au 28.5575 21.29 14.9755
Pd 15.34 6.96043 8.44314
Au 11.3325 12.7194 7.15987
Au 21.1446 28.0034 35.7322
Au 10.7889 33.2935 15.1308
Au 10.4745 24.563 6.26824
Au 33.6559 20.5251 13.9236
Au 22.3819 16.906 1.5444
Au 14.1987 20.4254 16.5002
Pd 25.6954 28.1895 23.2156
Au 8.65188 16.639 5.92091
Au 9.67444 23.4781 34.4052
Au 17.8538 5.7531 12.8743
Au 20.0904 2.54733 26.5515
Au 20.2983 13.0234 3.78767
Au 30.0564 13.9217 18.273
Au 18.5769 27.3662 35.8879
Pd 21.6815 30.1899 12.3094
Au 18.2898 9.83646 31.2329
Au 9.5303 7.61992 20.9379
Au 25.3536 4.33292 23.5497
Pd 19.524 36.3161 16.4546
Au 20.0743 24.7315 31.5351
Au 19.3572 11.6654 12.5158
Au 27.6326 10.0634 17.3214
Au 16.8665 17.0115 31.887
Au 31.6856 24.0299 29.4271
Au 22.7903 14.1601 5.21524
Au 6.76514 10.0766 29.1363
Au 4.21762 25.97 15.9599
Au 32.4639 19.4313 5.66245
Pd 22.6614 33.5434 13.1846
Au 28.7948 32.8745 17.5919
Au 24.1467 1.80301 18.7053
Au 6.32298 25.8151 32.9211
Pd 35.4059 20.3656 24.7859
Pd 17.3663 21.5812 12.9828
Pd 25.5382 6.55785 21.8663
Au 21.0355 7.90613 14.6396
Au 25.5138 15.1786 34.2474
Pd 9.02732 6.86942 26.239
Au 12.2866 27.3163 19.7984
Au 34.4474 23.4705 21.0035
Au 28.8452 16.7028 18.0532
Pd 7.38202 18.4501 25.1364
Au 28.9866 12.7296 23.7507
Au 6.97391 23.3005 33.6589
Au 6.88265 20.3045 10.7003
Au 14.2882 7.46562 25.1061
Au 2.84103 21.1914 25.8383
Au 29.62 28.3684 17.5152
Au 23.2341 20.261 29.9692
Au 13.2746 25.7933 17.8199
Au 13.4352 28.3433 27.7991
Au 9.93111 7.9523 30.7028
Au 21.3799 17.3474 18.7107
Au 5.81123 6.88957 23.6825
Au 14.8721 29.7863 32.5565
Au 14.8069 22.7932 9.15892
Pd 9.23837 5.14514 19.9467
Au 29.9574 7.92431 22.709
Pd 28.441 12.3202 11.1492
Au 17.7851 23.1169 15.8499
Au 29.6507 17.6356 26.2254
Au 27.1101 11.7825 4.02491
Au 2.38196 10.2059 23.9376
Pd 18.0062 23.0782 24.3755
Au 10.1467 25.0919 24.6797
Au 21.1997 19.3537 7.43875
Pd 18.0318 22.561 21.7045
Au 27.3148 19.2013 0.657599
Au 12.036 26.0672 15.2322
Au 13.2044 25.2301 5.34463
Au 22.888 6.79805 16.6472
Au 27.2538 24.2323 25.8948
Au 24.4172 29.6604 12.968
Au 33.3454 20.2559 29.0905
Au 12.1376 29.3101 11.5639
Au 31.1029 29.6401 12.9766
Pd 10.9946 19.6965 14.9477
Pd 18.6748 13.996 10.6747
Au 19.3655 36.6728 13.672
Au 20.592 26.3022 7.10638
Pd 17.3942 18.4393 25.0692
Au 34.6391 12.6301 19.6012
Au 16.3975 19.0876 17.8817
Au 8.81502 33.6867 21.6741
Au 23.2679 16.764 11.9783
Au 34.8675 11.652 17.0547
Pd 16.7654 29.205 19.9179
Au 19.6591 8.87726 12.3313
Au 27.2 25.7118 23.7191
Au 27.4036 18.6162 16.5503
Pd 26.979 16.8817 25.6951
Au 10.6878 6.731 17.8479
Pd 3.84795 27.9317 23.7238
Pd 10.1324 14.7158 13.972
Au 28.2949 7.14418 10.0613
Au 8.26298 23.7452 7.69517
Au 10.9655 8.78412 27.0228
Pd 16.7026 25.5957 15.5449
Au 18.9658 18.3416 34.683
Au 30.529 6.77843 20.0764
Au 36.6485 24.3315 19.5308
Pd 22.2997 26.765 31.7675
Pd 5.71671 19.813 21.8835
Au 12.4546 23.7868 7.84094
Pd 25.3089 25.2758 18.7645
Au 27.6252 19.9528 11.2052
Pd 16.0368 28.4422 27.109
Au 21.8513 4.28142 27.691
Au 20.1881 32.354 13.6463
Au 21.3838 9.16683 17.0352
Pd 14.7825 22.0503 29.8246
Au 20.4459 18.4236 16.3461
Pd 22.5736 5.92302 13.7861
Au 18.553 9.12584 17.2414
Pd 15.4794 10.6737 20.6906
Au 28.7622 12.1463 26.5038
Au 2.80205 16.4712 25.9434
Au 13.7813 24.5649 20.6316
Au 18.4285 7.44141 32.7311
Au 28.4949 20.3565 31.0416
Au 10.4388 31.0461 29.6606
Au 29.9031 30.8674 19.0817
Au 23.0344 9.71684 30.8506
Au 31.6384 12.4402 28.273
Au 24.7952 30.0754 19.0038
Au 21.2644 24.0563 12.4427
Au 19.4933 11.1902 7.43717
Pd 20.397 23.8973 1.7211
Au 24.7787 16.3824 9.52493
Au 12.8374 29.7857 30.3115
Pd 18.1178 31.6895 15.5137
Pd 14.9549 3.25121 27.9755
Au 6.1184 25.0108 24.5399