1687
Atoms. Timestep: 20175
Au 6.7407 6.67721 8.67538
Au 4.94369 6.8161 10.6937
Au 5.58865 5.52772 15.3465
Au 5.54966 5.53772 19.3513
Au 5.58382 5.55143 23.3702
Au 5.63931 5.59223 27.2899
Au 5.7028 5.62273 31.1051
Pd 6.79709 8.6696 6.76498
Au 4.86715 8.73119 8.74687
Au 4.956 10.664 6.82557
Pd 5.5119 7.35632 13.3263
Au 5.34989 9.39578 11.3864
Au 5.39359 7.35403 17.3165
Pd 5.40471 9.31525 15.2928
Au 5.39013 7.3597 21.3554
Au 5.29329 9.30256 19.3201
Au 5.44176 7.40399 25.3386
Pd 5.38865 9.32472 23.3443
Pd 5.56031 7.47041 29.2069
Pd 5.44652 9.37788 27.2712
Pd 5.71322 7.48998 32.9826
Pd 5.55066 9.40971 31.1599
Au 6.83848 10.6569 4.91112
Pd 5.42306 11.3644 9.39822
Au 5.43946 13.3136 7.33929
Au 5.32427 11.3534 13.3085
Au 5.34209 13.3448 11.3245
Au 5.24677 11.2949 17.2742
Au 5.22834 13.3169 15.2509
Au 5.22615 11.2992 21.3353
Au 5.15523 13.2931 19.2894
Pd 5.33431 11.3452 25.3173
Au 5.17515 13.3177 23.3317
Au 5.35966 11.3645 29.2619
Au 5.25907 13.3617 27.3204
Au 5.60967 11.3197 33.0711
Au 5.38733 13.3278 31.2761
Au 5.5918 15.3511 5.51686
Au 5.36228 15.3301 9.28784
Au 5.45961 17.3532 7.31381
Au 5.25492 15.3332 13.2355
Au 5.29835 17.3541 11.2315
Au 5.13749 15.3168 17.2555
Au 5.16383 17.35 15.2232
Au 5.1062 15.3203 21.2979
Au 5.09206 17.3451 19.2636
Au 5.17319 15.3466 25.3601
Au 5.10609 17.3497 23.3287
Au 5.3034 15.353 29.3442
Au 5.22905 17.3439 27.3885
Au 5.54138 15.3233 33.1076
Au 5.36318 17.3442 31.3081
Pd 5.6776 19.306 5.46134
Au 5.37779 19.3519 9.22866
Au 5.506 21.2944 7.24376
Au 5.22326 19.3718 13.2067
Au 5.32106 21.3403 11.2012
Au 5.12936 19.3892 17.2377
Au 5.20658 21.3888 15.2437
Au 5.09084 19.3752 21.2836
Au 5.13535 21.3939 19.2435
Au 5.15161 19.3561 25.3683
Au 5.13399 21.3758 23.3125
Au 5.30466 19.3519 29.3817
Au 5.23453 21.3501 27.3985
Au 5.53271 19.3548 33.1197
Pd 5.46531 21.351 31.2894
Au 5.6917 23.264 5.39387
Pd 5.47359 23.2722 9.16738
Au 5.5309 25.2528 7.20437
Pd 5.33237 23.3316 13.2136
Au 5.35548 25.212 11.151
Pd 5.25227 23.3908 17.2593
Au 5.26382 25.318 15.2277
Au 5.15291 23.3747 21.2819
Au 5.22114 25.393 19.3087
Au 5.19844 23.3385 25.3237
Au 5.22246 25.3243 23.2836
Au 5.34477 23.3168 29.3719
Au 5.27874 25.2706 27.3363
Au 5.6065 23.2983 33.1413
Au 5.43785 25.2468 31.3178
Au 5.75912 27.1969 5.36985
Au 5.43637 27.1918 9.16795
Au 5.57214 29.1223 7.21315
Au 5.28797 27.1456 13.0942
Au 5.39589 29.1768 11.1355
Au 5.19356 27.3071 17.264
Au 5.18408 29.1675 14.9124
Pd 5.35561 27.4238 21.3892
Au 5.41039 29.5172 19.5353
Au 5.2719 27.2273 25.2696
Au 5.3792 29.3925 23.4423
Au 5.33936 27.1604 29.3137
Au 5.30331 29.0411 27.2493
Au 5.66222 27.2136 33.1673
Au 5.40469 29.1142 31.2496
Au 5.8044 30.9962 5.34166
Pd 5.60617 31.069 9.12442
Au 5.7474 32.8716 7.16529
Au 5.43058 31.273 12.969
Au 7.381 33.1921 13.0524
Au 4.43043 31.721 15.3473
Pd 6.28935 33.6369 15.4292
Au 5.49932 31.3897 21.5423
Au 4.18534 29.8314 17.2396
Au 5.4597 31.2852 25.5992
Au 5.5957 33.115 23.6048
Au 5.20886 30.8418 29.1615
Au 5.65988 33.092 27.7601
Au 5.67534 31.3096 32.7557
Pd 5.46702 32.9585 30.6227
Au 8.71817 6.6698 6.70706
Au 6.82453 4.89194 10.727
Pd 10.7113 4.83837 6.85167
Au 7.40519 5.37238 13.3585
Pd 9.4164 5.34721 11.4123
Au 7.37931 5.36847 17.3568
Pd 9.33503 5.3595 15.3654
Au 7.39365 5.40005 21.355
Au 9.33398 5.32492 19.3745
Au 7.44914 5.43027 25.3168
Pd 9.36389 5.42302 23.3151
Au 7.51863 5.44881 29.186
Au 9.43527 5.38312 27.2341
Au 7.55464 5.60109 32.9609
Au 9.46596 5.43031 31.1438
Au 8.75775 8.70947 4.81915
Au 10.7148 6.76494 4.84408
Au 8.74309 4.79508 8.77829
Au 7.39403 9.36132 9.39419
Au 9.43322 7.31789 9.3581
Au 9.44798 9.34522 7.33676
Au 7.46031 7.39508 11.3828
Au 7.35396 9.38925 13.3479
Au 9.40334 7.30398 13.3936
Au 9.42211 9.36983 11.3978
Au 7.414 7.38471 15.3489
Au 7.29048 9.36169 17.3254
Au 9.36102 7.28985 17.3611
Pd 9.34401 9.35014 15.3483
Au 7.38839 7.38511 19.345
Au 7.28042 9.37043 21.3184
Pd 9.35568 7.34204 21.3224
Pd 9.31431 9.35623 19.3281
Au 7.42122 7.40512 23.3279
Au 7.34288 9.40087 25.2949
Pd 9.42236 7.36911 25.2793
Au 9.34993 9.38252 23.3055
Pd 7.50322 7.45439 27.2421
Au 7.43743 9.44838 29.184
Pd 9.47975 7.41841 29.1766
Au 9.42973 9.42892 27.2222
Au 7.57261 7.51242 31.1071
Au 7.50176 9.42336 33.198
Pd 9.43832 7.4743 33.1334
Pd 9.46656 9.4611 31.2337
Au 7.3924 13.3105 5.36986
Au 9.43675 11.3592 5.29418
Au 7.46207 11.357 7.40621
Au 7.33971 13.3523 9.3798
Au 9.42332 11.3673 9.37343
Au 9.43058 13.3333 7.28936
Pd 7.35085 11.3623 11.3765
Pd 7.2612 13.3481 13.3021
Pd 9.33112 11.3568 13.3606
Au 9.33105 13.3451 11.3566
Au 7.25114 11.3586 15.3025
Au 7.14123 13.3401 17.2989
Au 9.25979 11.364 17.3278
Au 9.24021 13.3525 15.3171
Au 7.18642 11.3491 19.3095
Au 7.11435 13.3492 21.2975
Au 9.24976 11.3823 21.2964
Pd 9.18753 13.3622 19.2987
Au 7.21524 11.38 23.3137
Au 7.17769 13.392 25.3042
Pd 9.30728 11.4112 25.2761
Au 9.22008 13.3808 23.3055
Au 7.29399 11.4161 27.2524
Au 7.29422 13.3896 29.2662
Au 9.42447 11.4312 29.2393
Au 9.31239 13.3986 27.2547
Au 7.45261 11.393 31.2215
Pd 7.40502 13.3464 33.1974
Au 9.39029 11.3865 33.3144
Au 9.4066 13.3921 31.3562
Au 7.45214 17.3093 5.32952
Au 9.37924 15.2899 5.28079
Au 7.43604 15.3333 7.36047
Au 7.33453 17.3557 9.32087
Au 9.38399 15.3413 9.33594
Au 9.41792 17.3298 7.2495
Pd 7.27757 15.3549 11.3116
Au 7.17695 17.3678 13.2568
Au 9.2439 15.3594 13.3044
Au 9.30266 17.374 11.3076
Au 7.13575 15.3423 15.2717
Au 7.06164 17.3473 17.2743
Au 9.17545 15.3365 17.3114
Au 9.17732 17.3574 15.2865
Au 7.06929 15.3339 19.2876
Au 7.02986 17.349 21.2846
Au 9.15197 15.3429 21.2791
Au 9.12284 17.3333 19.2916
Au 7.07628 15.3579 23.3011
Au 7.10133 17.3507 25.3287
Au 9.21099 15.3731 25.2952
Au 9.13889 17.3457 23.2869
Pd 7.21391 15.3733 27.3146
Pd 7.27616 17.3497 29.3149
Au 9.33276 15.3831 29.3094
Au 9.23626 17.3598 27.3112
Au 7.37752 15.3635 31.2702
Au 7.34665 17.339 33.2898
Pd 9.32923 15.3677 33.2922
Au 9.36456 17.3622 31.3918
Au 7.51235 21.2794 5.28755
Au 9.41735 19.3016 5.2538
Pd 7.49215 19.3144 7.33342
Au 7.38384 21.2846 9.27181
Pd 9.39981 19.3187 9.29596
Au 9.46255 21.2837 7.24026
Pd 7.27938 19.3468 11.2693
Au 7.20291 21.3186 13.2531
Pd 9.23957 19.3415 13.2804
Au 9.34353 21.2843 11.2768
Au 7.11151 19.3605 15.264
Pd 7.11896 21.3574 17.2722
Au 9.13017 19.3469 17.296
Au 9.18557 21.3206 15.2799
Au 7.03595 19.3644 19.2701
Au 7.06256 21.367 21.286
Au 9.11176 19.3433 21.2829
Au 9.12056 21.3542 19.3011
Au 7.05134 19.353 23.3011
Au 7.11453 21.344 25.3115
Au 9.17342 19.3498 25.3013
Au 9.14627 21.3457 23.2729
Au 7.17053 19.3465 27.3455
Pd 7.31514 21.3309 29.3192
Au 9.32376 19.3349 29.3361
Au 9.25759 21.3267 27.3267
Au 7.37416 19.3348 31.284
Au 7.38874 21.3206 33.2889
Au 9.3337 19.3329 33.3651
Au 9.36156 21.3076 31.3732
Au 7.56953 25.2311 5.26435
Au 9.50594 23.2644 5.25408
Au 7.52822 23.2669 7.2677
Au 7.43551 25.2337 9.22888
Pd 9.43877 23.2524 9.26525
Pd 9.5154 25.2158 7.25033
Au 7.31576 23.2795 11.2424
Pd 7.28402 25.271 13.2429
Au 9.27501 23.2813 13.2681
Au 9.38756 25.237 11.2442
Au 7.16727 23.3395 15.2765
Pd 7.17423 25.3593 17.2917
Au 9.15269 23.3375 17.3057
Au 9.20969 25.3235 15.2982
Au 7.10474 23.3641 19.2847
Au 7.15652 25.3454 21.3101
Pd 9.1546 23.3446 21.2903
Au 9.16963 25.3563 19.3178
Pd 7.14267 23.327 23.282
Au 7.20943 25.2673 25.2895
Au 9.22078 23.3 25.2876
Au 9.22387 25.3071 23.2875
Au 7.22412 23.3025 27.3409
Pd 7.35155 25.2426 29.3068
Pd 9.35154 23.2827 29.3366
Au 9.31294 25.2404 27.3193
Pd 7.43745 23.2969 31.2578
Au 7.45643 25.2276 33.2821
Pd 9.35208 23.2665 33.29
Pd 9.39365 25.2436 31.3372
Pd 7.66599 29.0913 5.29885
Au 9.56926 27.1407 5.24064
Pd 7.58583 27.1705 7.28361
Au 7.48955 29.125 9.24787
Pd 9.49506 27.191 9.26603
Au 9.58939 29.112 7.24355
Au 7.35891 27.1882 11.2126
Au 7.31373 29.2347 13.1359
Au 9.31411 27.278 13.258
Pd 9.41528 29.2496 11.2427
Au 7.18567 27.2996 15.2433
Au 7.04215 29.3895 17.2788
Au 9.16732 27.3876 17.3145
Au 9.24485 29.3421 15.2862
Au 7.15393 27.3892 19.3169
Pd 7.36826 29.3802 21.4476
Au 9.23975 27.3479 21.3292
Au 9.20644 29.4074 19.3354
Au 7.26152 27.3321 23.3569
Au 7.34744 29.2446 25.4258
Pd 9.31105 27.2487 25.3343
Pd 9.36502 29.3032 23.4128
Pd 7.3164 27.1541 27.2859
Pd 7.35613 29.042 29.2061
Pd 9.40387 27.1776 29.2923
Au 9.40514 29.2117 27.3549
Au 7.44565 27.1865 31.244
Au 7.4144 29.291 33.1312
Au 9.34532 27.2692 33.305
Au 9.41517 29.1965 31.2233
Au 7.64356 32.9111 5.36097
Au 9.59426 31.1026 5.23719
Au 7.65258 31.0369 7.27117
Pd 7.5445 33.0671 9.14104
Au 9.52712 31.2163 9.27644
Au 9.51731 33.1672 7.25208
Au 7.41628 31.2421 11.1308
Au 9.15535 33.3076 15.1894
Au 9.33213 31.3175 13.2146
Au 9.42335 33.265 11.1899
Au 7.19907 31.2176 15.1583
Pd 5.87146 31.8781 17.5312
Au 9.15777 31.3941 17.3082
Au 7.86521 33.6935 17.5521
Au 7.44062 31.5392 19.5728
Au 7.45833 33.343 21.6209
Au 9.4119 31.4011 21.4976
Au 9.48675 33.4613 19.6066
Au 7.44999 31.2821 23.5114
Au 7.4169 33.261 25.5783
Au 9.42707 31.3318 25.4447
Au 9.40399 33.3536 23.5243
Au 7.47481 31.2251 27.5289
Au 7.75683 33.4353 29.4116
Pd 9.59102 31.3153 29.2878
Au 9.52682 33.3564 27.3611
Au 7.44237 31.117 30.8622
Pd 7.43991 33.255 32.3701
Pd 9.25802 31.2943 32.948
Au 9.76787 33.3456 31.2182
Au 12.6611 4.97845 5.0433
Au 11.3969 5.2553 9.44775
Au 13.4131 5.29366 7.5121
Au 11.3668 5.26025 13.408
Au 13.3717 5.24703 11.405
Au 11.3327 5.26466 17.384
Au 13.3333 5.23323 15.4087
Pd 11.3365 5.36672 21.3373
Au 13.3166 5.28015 19.3634
Au 11.3774 5.33049 25.2615
Au 13.3255 5.29635 23.2917
Au 11.4208 5.3788 29.2261
Au 13.3695 5.32899 27.2659
Au 11.3632 5.58953 33.0369
Au 13.3493 5.41495 31.2311
Au 11.4146 9.38737 5.28918
Au 13.4295 7.44411 5.35023
Au 11.4716 7.33567 7.36582
Au 11.4352 9.35277 9.3748
Au 13.3819 7.27218 9.42026
Au 13.3908 9.37641 7.3186
Au 11.3981 7.26963 11.4092
Pd 11.3611 9.30283 13.3896
Au 13.3408 7.20353 13.3961
Pd 13.364 9.2886 11.3937
Au 11.3537 7.22996 15.3847
Au 11.3092 9.29611 17.3507
Pd 13.3178 7.21242 17.3778
Au 13.3173 9.24867 15.3744
Au 11.3357 7.24305 19.3515
Au 11.3244 9.30898 21.3082
Pd 13.3355 7.25162 21.3187
Au 13.3164 9.25315 19.3356
Au 11.3693 7.28158 23.2953
Au 11.3922 9.36725 25.2729
Pd 13.3628 7.27745 25.2675
Au 13.3498 9.29383 23.2916
Au 11.4273 7.32513 27.2307
Au 11.4283 9.41882 29.2232
Pd 13.3746 7.35981 29.2379
Pd 13.3711 9.35235 27.2477
Au 11.4012 7.4476 31.1903
Au 11.3819 9.38456 33.2965
Pd 13.3464 7.41701 33.1852
Au 13.3733 9.41054 31.3323
Pd 11.4028 13.3111 5.3291
Au 13.3916 11.3258 5.29533
Pd 11.4089 11.3469 7.30702
Pd 11.3953 13.344 9.29631
Pd 13.377 11.3499 9.31565
Au 13.3748 13.3143 7.2343
Au 11.393 11.3458 11.3658
Au 11.3203 13.3492 13.3457
Au 13.3267 11.308 13.3687
Au 13.3466 13.3469 11.3101
Au 11.2994 11.3404 15.3484
Pd 11.243 13.3561 17.323
Au 13.285 11.3221 17.3386
Pd 13.2853 13.3388 15.3416
Au 11.2663 11.3637 19.3162
Au 11.2526 13.3817 21.2951
Au 13.3117 11.3357 21.3205
Au 13.2581 13.3566 19.3173
Au 11.3175 11.3949 23.3049
Pd 11.3148 13.3859 25.2794
Au 13.3541 11.3841 25.2716
Pd 13.3123 13.359 23.296
Pd 11.3909 11.4219 27.2397
Au 11.3893 13.4048 29.3296
Au 13.3761 11.4031 29.3108
Au 13.365 13.3936 27.2974
Au 11.404 11.4096 31.3908
Au 11.3534 13.3797 33.4095
Au 13.3745 11.3486 33.4019
Au 13.3733 13.3862 31.4767
Au 11.3795 17.2968 5.2123
Au 13.3761 15.2835 5.21849
Au 11.3921 15.3232 7.21893
Au 11.3821 17.3519 9.27693
Au 13.3631 15.345 9.24515
Au 13.3805 17.3142 7.1679
Au 11.352 15.3534 11.3136
Au 11.2893 17.3606 13.285
Pd 13.3042 15.3496 13.314
Pd 13.3295 17.3431 11.2617
Au 11.2604 15.3442 15.3166
Au 11.2071 17.3407 17.3126
Au 13.2451 15.3347 17.3187
Au 13.264 17.346 15.3143
Pd 11.2061 15.3378 19.2982
Au 11.2027 17.3173 21.2827
Pd 13.2633 15.3376 21.2982
Au 13.2353 17.3224 19.2958
Au 11.2598 15.3442 23.2947
Au 11.2598 17.3556 25.3022
Au 13.3263 15.3414 25.3068
Au 13.2707 17.3338 23.2954
Au 11.3244 15.3742 27.3032
Au 11.3579 17.364 29.4033
Au 13.3744 15.3797 29.418
Au 13.3437 17.3463 27.3746
Au 11.3807 15.3863 31.4571
Au 11.3375 17.3643 33.4083
Au 13.3443 15.3732 33.4552
Pd 13.3548 17.3649 31.4878
Pd 11.4286 21.3024 5.30288
Au 13.3643 19.3211 5.19658
Au 11.4149 19.3071 7.20216
Au 11.4008 21.2757 9.25356
Pd 13.3613 19.3021 9.22289
Pd 13.3882 21.288 7.21109
Pd 11.3406 19.3281 11.2803
Pd 11.2819 21.2967 13.2692
Au 13.2858 19.3383 13.2593
Pd 13.3255 21.2837 11.2489
Au 11.2289 19.3418 15.2907
Au 11.2081 21.3242 17.3181
Pd 13.2371 19.3307 17.3159
Au 13.2576 21.3048 15.2916
Au 11.1953 19.3397 19.2989
Au 11.199 21.355 21.2812
Au 13.2361 19.3405 21.2842
Pd 13.232 21.3344 19.306
Au 11.2078 19.344 23.2834
Au 11.2689 21.3353 25.3035
Au 13.2994 19.3495 25.3303
Au 13.2625 21.3512 23.2909
Au 11.3128 19.3463 27.3478
Au 11.3588 21.3162 29.4102
Au 13.363 19.3476 29.4624
Au 13.3587 21.3359 27.3919
Pd 11.3639 19.339 31.4419
Au 11.3409 21.3032 33.3987
Au 13.3249 19.3443 33.4432
Pd 13.3628 21.3181 31.4786
Au 11.4988 25.1992 5.26412
Pd 13.4025 23.2685 5.30776
Pd 11.4384 23.263 7.24891
Pd 11.4291 25.226 9.24858
Au 13.3682 23.2572 9.22414
Pd 13.4268 25.2213 7.2415
Pd 11.3598 23.2531 11.2606
Au 11.3126 25.2764 13.2811
Au 13.2998 23.2609 13.2671
Au 13.3489 25.2615 11.2562
Au 11.24 23.2992 15.2955
Au 11.2119 25.3522 17.3253
Au 13.2396 23.3223 17.3249
Au 13.2808 25.3226 15.3108
Au 11.2021 23.3431 19.3259
Pd 11.2323 25.333 21.2966
Pd 13.249 23.3378 21.2853
Au 13.2449 25.3494 19.3286
Au 11.2414 23.3291 23.2655
Au 11.3131 25.2697 25.2996
Pd 13.3172 23.3003 25.3208
Au 13.293 25.3033 23.2803
Au 11.3376 23.2829 27.3434
Au 11.3778 25.2343 29.3825
Au 13.3994 23.2781 29.4408
Au 13.3851 25.2418 27.3604
Au 11.3683 23.2779 31.4414
Au 11.3199 25.262 33.3906
Au 13.3484 23.287 33.4408
Au 13.3815 25.2542 31.4846
Au 11.5425 29.1642 5.23679
Pd 13.4645 27.2011 5.31014
Au 11.4991 27.1624 7.24117
Pd 11.4722 29.2121 9.28865
Pd 13.4149 27.2312 9.25701
Au 13.4481 29.2038 7.25621
Au 11.3932 27.2623 11.263
Au 11.3316 29.3508 13.2922
Au 13.3311 27.3317 13.3057
Au 13.3863 29.3183 11.3
Au 11.2678 27.3528 15.3191
Au 11.2507 29.4321 17.3285
Au 13.2643 27.4005 17.3276
Au 13.2904 29.4398 15.3261
Au 11.2371 27.3881 19.3219
Au 11.2967 29.3859 21.3491
Au 13.2731 27.3587 21.3071
Pd 13.2673 29.4425 19.3162
Au 11.2922 27.3054 23.3189
Au 11.3763 29.2959 25.36
Au 13.3612 27.3012 25.3204
Au 13.3293 29.3729 23.3463
Au 11.382 27.2247 27.3146
Au 11.4483 29.2109 29.2953
Au 13.4045 27.2244 29.372
Pd 13.4148 29.2956 27.3148
Au 11.3753 27.2308 31.4155
Au 11.3039 29.3333 33.3064
Au 13.3397 27.2769 33.4248
Au 13.4113 29.2084 31.4084
Au 11.4959 33.0336 5.41494
Au 13.4872 31.209 5.30652
Au 11.4986 31.1838 7.29239
Au 11.4484 33.294 9.25332
Au 13.4211 31.3221 9.31396
Au 13.4479 33.2318 7.29024
Au 11.4142 31.3459 11.283
Pd 11.3099 33.2853 13.2665
Au 13.3417 31.4428 13.3187
Au 13.3883 33.3415 11.2911
Au 11.257 31.4445 15.3122
Au 11.1611 33.3629 17.3053
Pd 13.2504 31.4634 17.3102
Au 13.2763 33.3715 15.3122
Au 11.2783 31.4401 19.3398
Pd 11.397 33.3496 21.5017
Au 13.2962 31.4462 21.3465
Au 13.2314 33.3973 19.3039
Pd 11.3881 31.3769 23.4389
Au 11.4595 33.3809 25.3873
Au 13.4244 31.3883 25.3622
Au 13.3845 33.4052 23.4056
Au 11.4901 31.3476 27.3266
Au 11.5868 33.3497 29.2844
Au 13.4621 31.2988 29.3133
Au 13.503 33.3653 27.3421
Au 11.4815 31.1919 31.2648
Pd 11.4557 32.8774 33.2386
Au 13.4607 31.1483 33.3492
Au 13.4292 33.1784 31.3856
Pd 15.2884 5.49074 5.57781
Pd 15.3807 5.33082 9.40419
Au 17.3026 5.36151 7.40241
Pd 15.3284 5.26999 13.3955
Au 17.3273 5.23004 11.3783
Pd 15.2851 5.28723 17.399
Pd 17.2751 5.24676 15.4114
Pd 15.2691 5.29776 21.3188
Pd 17.2432 5.2681 19.3499
Au 15.2886 5.27584 25.2908
Au 17.2434 5.21091 23.3078
Au 15.3139 5.35624 29.2814
Pd 17.2708 5.33588 27.3036
Au 15.3342 5.56288 33.074
Au 17.3326 5.39258 31.2522
Pd 15.4021 9.33168 5.39165
Au 17.3079 7.31163 5.43936
Pd 15.3395 7.36515 7.4302
Au 15.3389 9.31797 9.37105
Au 17.3326 7.25258 9.39117
Au 17.3451 9.31389 7.31965
Au 15.3458 7.20942 11.4018
Au 15.3321 9.22786 13.3828
Au 17.332 7.1518 13.3885
Au 17.339 9.24171 11.3846
Au 15.3168 7.16088 15.4028
Au 15.3148 9.20439 17.3597
Pd 17.2886 7.17257 17.3796
Au 17.3275 9.18418 15.3783
Pd 15.2922 7.21222 19.345
Au 15.3208 9.24486 21.321
Au 17.2671 7.15748 21.3246
Au 17.3009 9.19534 19.3364
Pd 15.3033 7.2269 23.2997
Au 15.3192 9.28909 25.2786
Au 17.275 7.1928 25.2855
Au 17.2957 9.25307 23.3002
Pd 15.3087 7.2936 27.266
Au 15.3387 9.36251 29.2684
Au 17.3175 7.29327 29.2574
Au 17.3155 9.29502 27.2733
Au 15.3402 7.40386 31.2354
Au 15.3633 9.33322 33.3295
Au 17.3595 7.36306 33.2422
Au 17.3498 9.36523 31.3528
Au 15.3703 13.2826 5.23332
Au 17.3629 11.2887 5.28439
Au 15.3732 11.3402 7.25667
Au 15.3593 13.3409 9.25438
Au 17.3421 11.3227 9.29426
Pd 17.3461 13.3109 7.20838
Au 15.3302 11.3107 11.345
Au 15.3015 13.3354 13.3367
Au 17.3301 11.2722 13.3623
Au 17.3278 13.3413 11.2906
Au 15.3104 11.2842 15.3597
Au 15.292 13.3172 17.3358
Au 17.3198 11.2528 17.3483
Au 17.3152 13.3048 15.3481
Au 15.3173 11.2846 19.3337
Au 15.301 13.3159 21.3102
Pd 17.3036 11.2746 21.3127
Pd 17.3013 13.2909 19.3177
Pd 15.3228 11.3201 23.2972
Pd 15.3349 13.3577 25.3009
Au 17.3136 11.3254 25.2922
Au 17.303 13.3027 23.3002
Au 15.3434 11.3722 27.2868
Au 15.365 13.3981 29.4064
Au 17.3396 11.3762 29.3569
Au 17.3293 13.3827 27.3593
Au 15.3604 11.3742 31.4314
Pd 15.3608 13.3456 33.389
Pd 17.3663 11.3225 33.3322
Au 17.3537 13.3707 31.4807
Au 15.3502 17.2896 5.17489
Au 17.329 15.2779 5.19056
Au 15.3747 15.311 7.17222
Pd 15.3362 17.3174 9.19378
Pd 17.3234 15.3292 9.2058
Pd 17.3192 17.297 7.14896
Au 15.3176 15.3529 11.2583
Au 15.2808 17.3314 13.2758
Au 17.311 15.3276 13.2926
Au 17.3116 17.3072 11.22
Au 15.2719 15.3342 15.3277
Pd 15.263 17.3282 17.3175
Au 17.2937 15.3159 17.3359
Au 17.2885 17.3186 15.3106
Au 15.2804 15.3322 19.3099
Au 15.275 17.3299 21.2925
Au 17.2967 15.3188 21.292
Pd 17.2847 17.3261 19.304
Au 15.2969 15.3246 23.3044
Au 15.3203 17.3373 25.3547
Au 17.3175 15.3459 25.3555
Au 17.3101 17.3463 23.3255
Pd 15.3521 15.3598 27.3767
Au 15.3569 17.3424 29.4645
Pd 17.3434 15.3673 29.4565
Au 17.3381 17.3346 27.4181
Au 15.3571 15.3757 31.5191
Au 15.3412 17.3499 33.4896
Au 17.3607 15.3247 33.4762
Au 17.3506 17.3454 31.542
Au 15.3244 21.3115 5.19459
Au 17.3146 19.2892 5.15121
Au 15.34 19.2956 7.14004
Au 15.3368 21.2814 9.19801
Au 17.3201 19.2839 9.16915
Au 17.3367 21.2912 7.1087
Au 15.3018 19.3062 11.2275
Pd 15.2981 21.2928 13.2632
Au 17.3049 19.3136 13.2656
Au 17.3375 21.2897 11.2366
Au 15.2647 19.3241 15.3058
Au 15.2524 21.325 17.3123
Au 17.2777 19.313 17.3038
Au 17.2959 21.3171 15.2893
Au 15.2514 19.3213 19.2888
Au 15.2619 21.3379 21.2913
Au 17.2924 19.3304 21.309
Au 17.2807 21.3348 19.2906
Au 15.2934 19.3486 23.3163
Au 15.3138 21.3402 25.3518
Au 17.3216 19.3408 25.3654
Pd 17.2986 21.3162 23.3234
Au 15.34 19.3433 27.4189
Pd 15.3594 21.321 29.4819
Au 17.3384 19.3354 29.4868
Au 17.316 21.3225 27.4312
Au 15.3397 19.3453 31.5348
Au 15.3384 21.3405 33.4624
Au 17.3532 19.3491 33.4905
Au 17.3351 21.3311 31.5252
Au 15.3811 25.2503 5.24563
Au 17.3428 23.2931 5.16537
Pd 15.3762 23.2707 7.19097
Au 15.3845 25.2551 9.22578
Au 17.3779 23.2763 9.20035
Au 17.387 25.2533 7.16024
Au 15.3367 23.2649 11.2511
Au 15.3316 25.301 13.288
Au 17.3333 23.2872 13.2688
Au 17.3897 25.2805 11.2599
Au 15.2898 23.3006 15.2933
Au 15.2777 25.343 17.3117
Pd 17.2901 23.331 17.2966
Au 17.3154 25.3277 15.3045
Au 15.2555 23.3406 19.3105
Pd 15.2744 25.3459 21.2991
Au 17.2802 23.3334 21.3054
Au 17.2777 25.3535 19.3007
Au 15.286 23.3189 23.2952
Au 15.3255 25.2818 25.3325
Au 17.3085 23.2946 25.3518
Au 17.2948 25.3399 23.3061
Pd 15.3535 23.2882 27.4111
Pd 15.3743 25.2514 29.4351
Pd 17.326 23.2891 29.4679
Au 17.3221 25.2774 27.3872
Pd 15.3531 23.2908 31.4793
Au 15.3678 25.2761 33.4409
Pd 17.348 23.3244 33.4052
Au 17.3474 25.2621 31.4699
Pd 15.4469 29.2655 5.3557
Pd 17.399 27.2779 5.30144
Au 15.4112 27.2289 7.21996
Au 15.4088 29.2703 9.30524
Au 17.4124 27.2611 9.25997
Au 17.4272 29.2577 7.26289
Au 15.3793 27.2933 11.2895
Au 15.3528 29.4133 13.3222
Au 17.3634 27.3586 13.3047
Au 17.3935 29.3694 11.3412
Au 15.3072 27.3849 15.3142
Au 15.2674 29.4709 17.3181
Au 17.2872 27.399 17.3114
Au 17.321 29.4518 15.3141
Au 15.2606 27.3941 19.3137
Au 15.2755 29.423 21.3169
Au 17.2801 27.3907 21.307
Au 17.2553 29.4621 19.3141
Au 15.3165 27.3597 23.3125
Pd 15.3607 29.3622 25.3303
Au 17.3201 27.3552 25.3284
Pd 17.2961 29.4196 23.3207
Au 15.3692 27.2901 27.3343
Au 15.3871 29.2542 29.3232
Au 17.3524 27.2605 29.3772
Pd 17.3451 29.3347 27.3172
Au 15.3793 27.2332 31.4625
Au 15.417 29.2261 33.4034
Pd 17.4014 27.2579 33.3568
Au 17.3791 29.2295 31.4006
Au 15.4627 33.0797 5.49327
Au 17.4592 31.2653 5.37629
Au 15.434 31.235 7.34112
Pd 15.4058 33.2486 9.29168
Au 17.4108 31.3455 9.34362
Au 17.4391 33.2404 7.35675
Au 15.3843 31.4077 11.3307
Pd 15.3484 33.3324 13.3041
Pd 17.3519 31.432 13.3251
Pd 17.3773 33.2862 11.3048
Au 15.3146 31.4868 15.3213
Pd 15.2603 33.3641 17.2991
Pd 17.2647 31.4785 17.3207
Au 17.298 33.4095 15.2979
Au 15.2343 31.4924 19.3024
Au 15.2419 33.4323 21.3279
Au 17.2373 31.4863 21.336
Pd 17.1908 33.3961 19.3526
Au 15.3208 31.437 23.3473
Au 15.3976 33.3882 25.3726
Au 17.3138 31.4082 25.3378
Pd 17.2698 33.3768 23.3445
Pd 15.3923 31.333 27.3344
Au 15.4044 33.2752 29.3973
Au 17.3475 31.3021 29.3223
Pd 17.3327 33.2848 27.3762
Pd 15.4012 31.1719 31.3126
Au 15.4126 33.0025 33.1972
Au 17.3918 31.1874 33.3273
Au 17.3667 33.1779 31.3489
Au 19.2854 5.49508 5.59258
Au 19.2829 5.27685 9.35505
Au 21.2696 5.33685 7.41988
Au 19.2637 5.16857 13.3791
Au 21.2439 5.21062 11.3541
Au 19.2302 5.16334 17.3924
Au 21.2579 5.12332 15.3914
Pd 19.249 5.23051 21.3292
Pd 21.2648 5.20428 19.3493
Au 19.2713 5.20567 25.3184
Au 21.2894 5.18121 23.3215
Au 19.3149 5.31739 29.2975
Au 21.3236 5.26233 27.3093
Au 19.3591 5.55205 33.0449
Au 21.3288 5.40582 31.2161
Au 19.3004 9.25739 5.33994
Au 21.2966 7.29885 5.42456
Pd 19.3063 7.34833 7.43601
Au 19.3203 9.28736 9.37211
Pd 21.2692 7.24948 9.40486
Au 21.282 9.30982 7.31008
Pd 19.296 7.1909 11.3833
Pd 19.3037 9.19036 13.3899
Au 21.2518 7.10926 13.3903
Au 21.2692 9.21789 11.406
Au 19.2779 7.11199 15.3985
Pd 19.2933 9.17193 17.358
Au 21.2684 7.0895 17.3609
Au 21.2684 9.18274 15.3818
Au 19.265 7.12207 19.3337
Au 19.276 9.20193 21.318
Au 21.2729 7.11352 21.3223
Au 21.2752 9.18189 19.3189
Au 19.2729 7.13517 23.3161
Au 19.294 9.25663 25.2967
Au 21.295 7.1677 25.304
Au 21.2685 9.21416 23.3022
Au 19.3064 7.21763 27.2741
Au 19.3185 9.3526 29.2681
Au 21.308 7.30119 29.2313
Pd 21.2811 9.296 27.2704
Pd 19.3354 7.40895 31.2057
Au 19.3612 9.32212 33.3029
Au 21.3395 7.3778 33.1978
Au 21.3139 9.37944 31.3147
Au 19.3151 13.2691 5.22469
Au 21.2963 11.2636 5.28318
Pd 19.3096 11.3061 7.25318
Au 19.2959 13.3377 9.24399
Au 21.2785 11.3199 9.30265
Au 21.2762 13.307 7.1849
Au 19.3166 11.2914 11.3578
Au 19.3251 13.3184 13.3383
Au 21.2832 11.2702 13.3954
Au 21.2841 13.3438 11.3253
Au 19.3131 11.2506 15.3708
Pd 19.3055 13.283 17.3352
Au 21.2909 11.2649 17.3382
Pd 21.3007 13.2932 15.3533
Au 19.2861 11.2533 19.3167
Au 19.2872 13.2877 21.3001
Au 21.2774 11.2644 21.2982
Au 21.3 13.2957 19.3094
Pd 19.2878 11.2792 23.2976
Au 19.2931 13.3368 25.3283
Au 21.26 11.3068 25.3047
Au 21.2745 13.3284 23.294
Pd 19.2959 11.3432 27.3098
Au 19.3158 13.3864 29.4004
Au 21.2859 11.3723 29.3347
Au 21.2653 13.3726 27.3576
Au 19.3395 11.3685 31.41
Au 19.3658 13.3124 33.4184
Pd 21.3393 11.3313 33.2753
Pd 21.3082 13.3553 31.4119
Au 19.2983 17.2798 5.15408
Au 21.3095 15.2878 5.18812
Au 19.2883 15.306 7.14627
Au 19.3037 17.2949 9.18657
Au 21.2849 15.3228 9.23661
Au 21.3038 17.2984 7.13079
Pd 19.3061 15.326 11.266
Au 19.3228 17.3026 13.2754
Pd 21.3004 15.3103 13.3162
Au 21.3092 17.2905 11.2696
Au 19.323 15.2951 15.3246
Au 19.3052 17.3132 17.3101
Au 21.3117 15.2784 17.3144
Au 21.3111 17.3006 15.2962
Au 19.296 15.2988 19.3106
Au 19.3037 17.3288 21.3143
Pd 21.2874 15.3226 21.3083
Au 21.3036 17.3019 19.3088
Au 19.3056 15.342 23.3123
Au 19.3155 17.3652 25.3627
Au 21.277 15.3698 25.3313
Pd 21.2862 17.3393 23.3209
Pd 19.3102 15.3707 27.3972
Au 19.3199 17.3391 29.4719
Pd 21.2921 15.372 29.4412
Au 21.2815 17.3678 27.3958
Au 19.3418 15.3373 31.5031
Pd 19.343 17.3285 33.4349
Au 21.3335 15.2979 33.4385
Au 21.312 17.3447 31.5261
Au 19.3457 21.2797 5.14402
Au 21.3475 19.2646 5.1454
Au 19.3176 19.2749 7.10391
Au 19.346 21.269 9.17893
Pd 21.3195 19.2645 9.19488
Au 21.3448 21.233 7.12308
Au 19.3356 19.2885 11.2336
Au 19.3457 21.3067 13.2727
Pd 21.3202 19.2986 13.2801
Au 21.3224 21.2768 11.2602
Au 19.3284 19.3196 15.284
Au 19.3125 21.3233 17.2788
Pd 21.3055 19.3154 17.2877
Pd 21.3173 21.3128 15.2808
Au 19.2989 19.317 19.2965
Au 19.2923 21.3147 21.3238
Au 21.2994 19.3154 21.3263
Au 21.3064 21.3162 19.2942
Pd 19.3053 19.3249 23.3376
Au 19.3086 21.2854 25.3575
Pd 21.2942 19.3238 25.3532
Au 21.304 21.2966 23.3351
Pd 19.3087 19.3316 27.4172
Au 19.3171 21.3153 29.4689
Au 21.3018 19.3325 29.4565
Au 21.3166 21.2836 27.371
Pd 19.3286 19.3424 31.5201
Au 19.3365 21.3426 33.4887
Au 21.3192 19.3313 33.4934
Au 21.3225 21.318 31.5399
Au 19.3823 25.2832 5.1902
Pd 21.3768 23.2462 5.22357
Au 19.3603 23.2684 7.11934
Pd 19.3692 25.2614 9.21515
Au 21.3259 23.2533 9.20384
Au 21.3593 25.2532 7.14962
Pd 19.3519 23.277 11.2492
Au 19.3462 25.2956 13.2923
Pd 21.3199 23.2921 13.3024
Au 21.309 25.2592 11.2929
Au 19.3305 23.3156 15.2894
Au 19.3119 25.3486 17.2998
Au 21.3141 23.3321 17.2751
Pd 21.3132 25.3209 15.3023
Au 19.3007 23.3415 19.2861
Au 19.3015 25.3559 21.2903
Au 21.3059 23.3216 21.2976
Pd 21.3079 25.354 19.2881
Au 19.2941 23.3084 23.3265
Au 19.3054 25.3316 25.3392
Au 21.3103 23.2863 25.3428
Au 21.2926 25.3373 23.3055
Au 19.3108 23.2896 27.396
Au 19.3261 25.277 29.4181
Au 21.3291 23.2878 29.4198
Au 21.3079 25.2998 27.3397
Au 19.3452 23.3107 31.5007
Pd 19.3842 25.314 33.3497
Au 21.3495 23.3612 33.442
Pd 21.3501 25.2868 31.4089
Au 19.4242 29.3248 5.30701
Au 21.3983 27.302 5.23149
Au 19.3981 27.263 7.19196
Au 19.3917 29.2896 9.3431
Au 21.3332 27.257 9.28038
Au 21.3946 29.2776 7.28592
Pd 19.3592 27.3017 11.3144
Pd 19.3417 29.4233 13.3301
Au 21.3066 27.3222 13.3271
Au 21.3354 29.3523 11.3545
Au 19.32 27.373 15.31
Au 19.2761 29.4478 17.339
Au 21.3022 27.3802 17.3274
Au 21.273 29.42 15.3547
Au 19.2985 27.395 19.3044
Au 19.2707 29.4474 21.3109
Au 21.2968 27.3851 21.2708
Pd 21.2658 29.4356 19.3206
Au 19.2945 27.3843 23.3089
Au 19.2953 29.3784 25.3137
Pd 21.2907 27.3433 25.3028
Au 21.2816 29.4243 23.2923
Pd 19.315 27.304 27.3266
Au 19.3384 29.2718 29.3051
Au 21.3242 27.2689 29.3528
Au 21.303 29.3339 27.2786
Au 19.3774 27.2625 31.4208
Au 19.4081 29.2487 33.3481
Pd 21.3789 27.2836 33.2826
Pd 21.3585 29.2422 31.3225
Au 19.4683 33.0756 5.5979
Au 21.4484 31.2792 5.4388
Pd 19.4207 31.2193 7.41615
Au 19.411 33.2883 9.31758
Pd 21.4073 31.3022 9.37017
Pd 21.4353 33.1433 7.44475
Au 19.3863 31.4233 11.3402
Pd 19.3406 33.354 13.3036
Au 21.3286 31.4801 13.3566
Au 21.4334 33.3589 11.2688
Au 19.2762 31.4974 15.3436
Au 19.137 33.4995 17.4208
Au 21.1647 31.5194 17.4649
Au 21.0825 33.5471 15.5345
Au 19.2072 31.5118 19.3647
Pd 19.2168 33.4081 21.3538
Au 21.2597 31.4971 21.2924
Au 21.1814 33.4948 19.4169
Au 19.268 31.4783 23.3178
Au 19.2672 33.4101 25.335
Au 21.2843 31.4807 25.2843
Au 21.2638 33.4476 23.2813
Au 19.3132 31.3945 27.3078
Pd 19.3261 33.2234 29.3734
Au 21.3354 31.3331 29.2782
Au 21.2884 33.3801 27.3278
Au 19.3705 31.1937 31.2958
Pd 19.3797 33.0064 33.1452
Au 21.387 31.1958 33.2701
Au 21.3485 33.2098 31.3025
Au 23.2937 5.48074 5.63215
Au 23.2488 5.26064 9.38141
Au 25.2728 5.32936 7.47478
Au 23.2849 5.16224 13.3659
Au 25.3189 5.23451 11.3659
Au 23.3122 5.13532 17.3809
Au 25.3412 5.18382 15.3795
Pd 23.3052 5.22962 21.3323
Au 25.3352 5.21184 19.3591
Au 23.3184 5.2447 25.3256
Au 25.3055 5.23904 23.3231
Pd 23.3196 5.40923 29.2543
Pd 25.2839 5.39687 27.2603
Pd 23.3519 5.57072 33.0013
Au 25.3125 5.45177 31.1528
Au 23.3013 9.26749 5.36263
Pd 25.2844 7.33172 5.53238
Au 23.2705 7.34168 7.45043
Au 23.256 9.29963 9.40084
Au 25.2595 7.25938 9.43898
Pd 25.2392 9.35471 7.38211
Au 23.2521 7.15707 11.4046
Au 23.2568 9.20335 13.4154
Au 25.2913 7.15119 13.3986
Au 25.2517 9.27005 11.4499
Au 23.2782 7.09126 15.3818
Au 23.2684 9.20843 17.3455
Au 25.2892 7.14907 17.37
Au 25.2704 9.23869 15.3778
Au 23.283 7.11273 19.3325
Au 23.2675 9.20565 21.2996
Au 25.2884 7.174 21.3113
Au 25.2674 9.23777 19.3243
Au 23.285 7.15151 23.3121
Au 23.2602 9.26994 25.2807
Pd 25.2579 7.26336 25.2695
Au 25.2576 9.27741 23.2891
Pd 23.2791 7.28485 27.2465
Au 23.2773 9.38098 29.2442
Au 25.268 7.36032 29.1858
Au 25.2419 9.34817 27.2172
Au 23.3113 7.41944 31.1896
Pd 23.3135 9.36249 33.2026
Au 25.3 7.42874 33.1549
Au 25.2691 9.43924 31.2707
Pd 23.2892 13.3101 5.3077
Au 25.2356 11.3263 5.29725
Au 23.2746 11.3152 7.25376
Au 23.2636 13.3423 9.28612
Au 25.2342 11.3617 9.37419
Au 25.2489 13.3638 7.26005
Au 23.2542 11.3128 11.3945
Au 23.2624 13.3338 13.3744
Au 25.2578 11.3081 13.4211
Au 25.268 13.3561 11.3817
Pd 23.2618 11.2781 15.3734
Pd 23.2762 13.296 17.3298
Au 25.2571 11.3034 17.3371
Au 25.2628 13.3256 15.3628
Pd 23.2721 11.2772 19.3139
Au 23.2744 13.3428 21.2959
Au 25.2637 11.3191 21.2996
Au 25.2744 13.3377 19.3161
Au 23.2631 11.3043 23.2921
Au 23.2608 13.3601 25.293
Pd 25.2543 11.3643 25.2511
Au 25.2744 13.362 23.2731
Au 23.2639 11.361 27.284
Au 23.2656 13.3797 29.3849
Pd 25.2483 11.4159 29.2948
Au 25.2596 13.3863 27.3033
Pd 23.2856 11.3809 31.3263
Pd 23.3063 13.3137 33.3013
Au 25.266 11.3659 33.284
Au 25.2737 13.355 31.3779
Au 23.3421 17.2779 5.21188
Pd 25.2964 15.3413 5.32881
Au 23.2847 15.3303 7.19274
Au 23.3081 17.2938 9.24976
Au 25.2902 15.3032 9.30853
Pd 25.3122 17.2612 7.26974
Pd 23.2854 15.3156 11.3187
Au 23.2969 17.2804 13.3084
Pd 25.288 15.3166 13.3533
Au 25.2972 17.2744 11.3358
Pd 23.2818 15.2993 15.3288
Au 23.2967 17.2984 17.3074
Au 25.2919 15.3102 17.3323
Au 25.3108 17.2923 15.3092
Pd 23.2891 15.3083 19.3148
Au 23.2848 17.2945 21.313
Pd 25.3032 15.3316 21.2944
Au 25.3249 17.292 19.3183
Pd 23.2657 15.3478 23.2945
Au 23.2642 17.3595 25.3214
Au 25.2746 15.3655 25.2847
Au 25.3019 17.3247 23.2794
Au 23.2583 15.3785 27.3661
Au 23.2874 17.3629 29.4331
Au 25.2869 15.3713 29.3826
Au 25.2905 17.3634 27.3331
Au 23.2891 15.3489 31.4682
Au 23.3331 17.3223 33.4668
Au 25.3199 15.3169 33.3793
Au 25.3274 17.3584 31.4706
Au 23.3751 21.2008 5.19983
Pd 25.3551 19.1906 5.30927
Au 23.3388 19.2394 7.17595
Au 23.3169 21.2224 9.22741
Pd 25.2967 19.2489 9.27523
Pd 25.3047 21.1965 7.23091