1687
Atoms. Timestep: 20140
Au 5.70632 5.54411 7.50941
Au 5.65177 5.49346 11.3627
Au 5.61599 5.49065 15.313
Au 5.58679 5.49723 19.3416
Au 5.61807 5.50896 23.3628
Au 5.6711 5.54891 27.2843
Au 5.73593 5.57671 31.1008
Pd 5.66808 7.45656 5.66518
Au 5.46678 7.38763 9.43098
Au 5.45251 9.38815 7.48024
Pd 5.51935 7.35354 13.3375
Au 5.39143 9.34983 11.3891
Au 5.42133 7.31091 17.3057
Pd 5.41587 9.29155 15.3087
Au 5.41968 7.3167 21.3497
Au 5.31526 9.25873 19.3185
Au 5.47055 7.36032 25.3343
Pd 5.41278 9.28094 23.3432
Pd 5.58946 7.4257 29.2043
Pd 5.47158 9.33389 27.2707
Pd 5.74473 7.44379 32.9794
Pd 5.57766 9.3663 31.159
Au 5.55952 11.3057 5.58459
Pd 5.4296 11.3572 9.40702
Au 5.40111 13.3175 7.39326
Au 5.3167 11.3115 13.3186
Au 5.31845 13.3163 11.3517
Au 5.25499 11.2616 17.2923
Au 5.22115 13.2794 15.2744
Au 5.24349 11.2556 21.3404
Au 5.16208 13.2555 19.3093
Pd 5.35433 11.3015 25.3202
Au 5.18904 13.275 23.3405
Au 5.38205 11.3232 29.2639
Au 5.27616 13.3213 27.3252
Au 5.63404 11.2828 33.0668
Au 5.40689 13.2945 31.2748
Au 5.55308 15.3216 5.54623
Au 5.32681 15.3144 9.33995
Au 5.41014 17.3262 7.36487
Au 5.2325 15.3023 13.2727
Au 5.26252 17.3268 11.2832
Au 5.1319 15.2798 17.2861
Au 5.14453 17.3141 15.2659
Au 5.11162 15.2818 21.3188
Au 5.08767 17.3087 19.2969
Au 5.1847 15.3074 25.3696
Au 5.11039 17.314 23.3483
Au 5.3183 15.3217 29.3458
Au 5.23862 17.3132 27.3925
Au 5.55986 15.3028 33.0973
Au 5.3768 17.3276 31.2991
Pd 5.59754 19.3209 5.55744
Au 5.32592 19.3251 9.29136
Au 5.42768 21.3075 7.35486
Au 5.1898 19.3345 13.2598
Au 5.27068 21.3119 11.2736
Au 5.1129 19.3486 17.2816
Au 5.17652 21.3399 15.2921
Au 5.08686 19.3424 21.3163
Au 5.12019 21.3537 19.284
Au 5.15581 19.3302 25.3813
Au 5.13152 21.3568 23.3405
Au 5.31188 19.3357 29.3718
Au 5.24167 21.3415 27.3954
Au 5.54506 19.3588 33.0926
Pd 5.46976 21.355 31.2553
Au 5.58658 23.2995 5.53213
Pd 5.40264 23.294 9.29863
Au 5.43902 25.2847 7.35912
Pd 5.28735 23.2978 13.2934
Au 5.30221 25.2548 11.318
Pd 5.22665 23.332 17.2925
Au 5.23388 25.2832 15.3043
Au 5.13832 23.3496 21.3133
Au 5.19471 25.3316 19.2984
Au 5.2055 23.3447 25.3419
Au 5.21243 25.3306 23.3113
Au 5.3533 23.3306 29.3435
Au 5.30441 25.3148 27.3357
Au 5.5982 23.3328 33.072
Au 5.44453 25.2924 31.2476
Au 5.64342 27.2454 5.54623
Au 5.36362 27.2214 9.34614
Au 5.47486 29.1592 7.41363
Au 5.26771 27.2435 13.317
Au 5.34804 29.23 11.3424
Au 5.22882 27.3002 17.3066
Au 5.2876 29.3168 15.2992
Pd 5.30192 27.3337 21.3095
Au 5.29193 29.3242 19.3194
Au 5.28504 27.295 25.3039
Au 5.32188 29.3081 23.2962
Au 5.40044 27.258 29.2755
Au 5.379 29.2258 27.282
Au 5.6266 27.2721 33.0779
Au 5.47339 29.2208 31.1982
Au 5.6644 31.0773 5.59131
Pd 5.51125 31.1213 9.36705
Au 5.64689 32.9519 7.44143
Au 5.38767 31.2599 13.2855
Au 5.58409 33.044 11.2815
Au 5.35381 31.2832 17.3089
Pd 5.54621 33.076 15.2897
Au 5.36384 31.2637 21.3071
Au 5.51543 33.0923 19.308
Au 5.39764 31.2369 25.3156
Au 5.52662 33.0731 23.3158
Au 5.45555 31.1549 29.2186
Au 5.58417 33.0642 27.3161
Au 5.68692 31.1402 33.0204
Pd 5.65715 32.9751 31.1204
Au 7.54766 5.58926 5.6322
Au 7.52489 5.37798 9.42801
Pd 9.47912 5.4606 7.45716
Au 7.46027 5.34599 13.3552
Pd 9.44357 5.36708 11.4039
Au 7.40936 5.34075 17.3368
Pd 9.37919 5.34166 15.3582
Au 7.4287 5.36463 21.3456
Au 9.36516 5.29985 19.358
Au 7.48161 5.39136 25.3096
Pd 9.39672 5.39068 23.3049
Au 7.55025 5.40695 29.1794
Au 9.46656 5.34625 27.2254
Au 7.58761 5.55644 32.9562
Au 9.49612 5.38997 31.1366
Au 7.47266 9.39694 5.42709
Au 9.45611 7.4251 5.40689
Au 7.55 7.4748 7.5158
Au 7.40487 9.4173 9.4606
Au 9.50151 7.35207 9.4531
Au 9.4851 9.42911 7.35847
Au 7.47195 7.38136 11.3974
Au 7.3642 9.37601 13.3571
Au 9.43359 7.29538 13.3875
Au 9.43722 9.38478 11.4285
Au 7.43708 7.35811 15.338
Au 7.31053 9.3312 17.3251
Au 9.38855 7.26873 17.3503
Pd 9.36299 9.33415 15.3473
Au 7.41664 7.35154 19.3363
Au 7.30374 9.33322 21.3159
Pd 9.3837 7.31223 21.3134
Pd 9.33739 9.32924 19.3236
Au 7.45005 7.36748 23.3223
Au 7.36687 9.36162 25.2932
Pd 9.45005 7.33452 25.2726
Au 9.37359 9.34957 23.3015
Pd 7.53121 7.41435 27.2377
Au 7.46196 9.40812 29.1823
Pd 9.50669 7.3805 29.1708
Au 9.45306 9.39307 27.219
Au 7.60143 7.47018 31.1031
Au 7.52585 9.38488 33.194
Pd 9.46341 7.43631 33.13
Pd 9.48862 9.42503 31.2304
Au 7.38699 13.3131 5.38498
Au 9.41823 11.3672 5.33807
Au 7.43718 11.3668 7.42051
Au 7.32086 13.3454 9.4091
Au 9.42443 11.3968 9.39691
Au 9.41311 13.3382 7.30473
Pd 7.33915 11.3698 11.4108
Pd 7.24667 13.3333 13.3318
Pd 9.33752 11.3577 13.3807
Au 9.32444 13.3488 11.3837
Au 7.25504 11.3376 15.3151
Au 7.14558 13.3119 17.3166
Au 9.27412 11.3417 17.3312
Au 9.24376 13.3394 15.3356
Au 7.20248 11.315 19.3155
Au 7.12762 13.3129 21.3078
Au 9.26882 11.3511 21.2973
Pd 9.19999 13.3347 19.3074
Au 7.23436 11.3413 23.316
Au 7.19304 13.3541 25.3091
Pd 9.32676 11.3765 25.276
Au 9.23547 13.3476 23.31
Au 7.31403 11.3771 27.2537
Au 7.31116 13.356 29.2662
Au 9.44364 11.397 29.2374
Au 9.32794 13.3656 27.2553
Au 7.47384 11.3575 31.2183
Pd 7.42063 13.32 33.1908
Au 9.40564 11.3567 33.3099
Au 9.41976 13.3657 31.352
Au 7.38274 17.3221 5.38377
Au 9.33808 15.3138 5.30672
Au 7.39861 15.3208 7.39067
Au 7.2958 17.3372 9.36295
Au 9.36026 15.3365 9.35808
Au 9.36583 17.3356 7.28547
Pd 7.25449 15.3353 11.3476
Au 7.15664 17.3399 13.2953
Au 9.23518 15.3467 13.3318
Au 9.27869 17.3572 11.3368
Au 7.12592 15.3167 15.3023
Au 7.05656 17.3165 17.3071
Au 9.17976 15.3148 17.3318
Au 9.17219 17.3345 15.3148
Au 7.07406 15.3021 19.309
Au 7.03383 17.3172 21.3071
Au 9.163 15.3127 21.291
Au 9.12807 17.3072 19.3141
Au 7.08677 15.3221 23.3127
Au 7.10939 17.3199 25.3369
Au 9.2229 15.3414 25.2996
Au 9.14723 17.3166 23.2981
Pd 7.22659 15.341 27.3178
Pd 7.28723 17.3287 29.3101
Au 9.34474 15.3578 29.3058
Au 9.24561 17.3352 27.31
Au 7.39149 15.3404 31.2624
Au 7.35435 17.3337 33.2717
Pd 9.33435 15.3541 33.2806
Au 9.36825 17.3526 31.3788
Au 7.41267 21.3105 5.38654
Au 9.3311 19.3282 5.31311
Pd 7.42834 19.3169 7.40269
Au 7.32042 21.2838 9.35042
Pd 9.353 19.3135 9.34055
Au 9.38413 21.2987 7.31053
Pd 7.24243 19.321 11.3169
Au 7.17234 21.286 13.3018
Pd 9.22116 19.3156 13.3124
Au 9.30395 21.2691 11.3246
Au 7.09668 19.3249 15.3029
Pd 7.10888 21.3141 17.3063
Au 9.13052 19.317 17.3243
Au 9.17798 21.2851 15.3101
Au 7.03289 19.3327 19.3035
Au 7.05737 21.3415 21.3162
Au 9.11605 19.3173 21.3051
Au 9.12546 21.3185 19.327
Au 7.05326 19.3267 23.3199
Au 7.11732 21.331 25.3193
Au 9.17971 19.3271 25.3053
Au 9.14886 21.3263 23.2889
Au 7.17753 19.327 27.3435
Pd 7.32221 21.3314 29.2966
Au 9.32953 19.327 29.3207
Au 9.26197 21.3214 27.3109
Au 7.38181 19.3337 31.2618
Au 7.38348 21.3472 33.2476
Au 9.32754 19.3458 33.3361
Au 9.35878 21.3223 31.3414
Au 7.45224 25.272 5.39809
Au 9.39512 23.2955 5.3471
Au 7.44012 23.2911 7.38235
Au 7.35863 25.257 9.36032
Pd 9.37354 23.2584 9.3445
Pd 9.42252 25.238 7.3543
Au 7.25853 23.2757 11.3289
Pd 7.23791 25.2588 13.3308
Au 9.25033 23.2545 13.3129
Au 9.33993 25.2343 11.3263
Au 7.14836 23.2949 15.3208
Pd 7.1721 25.2984 17.3208
Au 9.16068 23.287 17.3309
Au 9.22054 25.2659 15.3309
Au 7.09745 23.3144 19.3071
Au 7.14605 25.2907 21.3085
Pd 9.1625 23.3054 21.3079
Au 9.19919 25.2863 19.3342
Pd 7.13589 23.3181 23.3034
Au 7.20563 25.2992 25.2887
Au 9.22015 23.3031 25.281
Au 9.22628 25.2861 23.2723
Au 7.23078 23.3138 27.3259
Pd 7.36594 25.2813 29.2672
Pd 9.35364 23.2992 29.2964
Au 9.30874 25.2755 27.2784
Pd 7.43937 23.3214 31.2101
Au 7.43589 25.2728 33.2204
Pd 9.33991 23.3016 33.2425
Pd 9.39745 25.2679 31.2883
Pd 7.52882 29.1573 5.47791
Au 9.43817 27.1866 5.36567
Pd 7.49185 27.202 7.43111
Au 7.41885 29.1488 9.40905
Pd 9.42726 27.2045 9.37842
Au 9.49029 29.1464 7.37838
Au 7.30045 27.2152 11.3632
Au 7.2952 29.2388 13.3305
Au 9.31042 27.2509 13.335
Pd 9.40374 29.2336 11.3666
Au 7.19544 27.2564 15.3221
Au 7.24462 29.2836 17.3125
Au 9.25057 27.2835 17.3302
Au 9.3395 29.2951 15.3313
Au 7.18565 27.2957 19.3122
Pd 7.29841 29.2902 21.3036
Au 9.25856 27.2982 21.3051
Au 9.32395 29.3155 19.3176
Au 7.23341 27.2982 23.2871
Au 7.32464 29.2341 25.2787
Pd 9.30468 27.2572 25.2576
Pd 9.34323 29.291 23.2834
Pd 7.32967 27.2418 27.2676
Pd 7.42897 29.1838 29.2029
Pd 9.40774 27.2231 29.2402
Au 9.39528 29.2211 27.2349
Au 7.4673 27.2368 31.2028
Au 7.49861 29.2244 33.2103
Au 9.40246 27.2331 33.2913
Au 9.46781 29.1824 31.235
Au 7.50958 32.9715 5.57973
Au 9.45773 31.1485 5.39491
Au 7.54908 31.0902 7.4732
Pd 7.48806 33.1329 9.36731
Au 9.47578 31.2419 9.41998
Au 9.44418 33.1956 7.40567
Au 7.43611 31.1997 11.3514
Au 7.37229 33.2514 13.2938
Au 9.38535 31.3463 13.334
Au 9.38558 33.2991 11.3497
Au 7.37525 31.2574 15.3077
Pd 7.36197 33.2021 17.3135
Au 9.36429 31.3789 17.3138
Au 9.31083 33.3364 15.3071
Au 7.36338 31.2625 19.318
Au 7.35078 33.2638 21.3072
Au 9.36304 31.3591 21.3137
Au 9.31372 33.3365 19.3139
Au 7.38893 31.2366 23.2903
Au 7.38514 33.2436 25.2924
Au 9.39632 31.3282 25.2544
Au 9.34181 33.3181 23.2903
Au 7.44555 31.2045 27.2669
Au 7.48496 33.2084 29.2223
Pd 9.46421 31.2441 29.1923
Au 9.39832 33.2997 27.2535
Au 7.54244 31.1256 31.1091
Pd 7.55393 33.003 32.9723
Pd 9.45302 31.1717 33.1131
Au 9.44407 33.2086 31.1502
Au 11.4214 5.56124 5.55249
Au 11.4393 5.31553 9.38842
Au 13.3903 5.39305 7.38777
Au 11.3976 5.2502 13.3885
Au 13.3923 5.251 11.3665
Au 11.3701 5.2487 17.3711
Au 13.3676 5.22493 15.3906
Pd 11.3679 5.34342 21.3214
Au 13.3515 5.26568 19.3469
Au 11.4085 5.30019 25.2496
Au 13.356 5.27393 23.2755
Au 11.4492 5.34335 29.2162
Au 13.397 5.29939 27.2533
Au 11.3881 5.55184 33.0327
Au 13.3717 5.38099 31.2237
Au 11.4271 9.38066 5.32783
Au 13.3989 7.38765 5.40509
Au 11.4424 7.40836 7.40915
Au 11.4563 9.39568 9.39919
Au 13.397 7.2958 9.39573
Au 13.3925 9.39638 7.31021
Au 11.4458 7.26584 11.4195
Pd 11.3885 9.30234 13.3934
Au 13.3763 7.19833 13.3879
Pd 13.389 9.30195 11.3929
Au 11.3861 7.21885 15.3736
Au 11.3329 9.28012 17.3435
Pd 13.3484 7.20188 17.3642
Au 13.3451 9.24434 15.3677
Au 11.3639 7.22317 19.3395
Au 11.348 9.28419 21.3014
Pd 13.3631 7.23279 21.3058
Au 13.3408 9.23785 19.3261
Au 11.3965 7.25399 23.285
Au 11.4149 9.33698 25.2676
Pd 13.3881 7.25135 25.2569
Au 13.3724 9.27061 23.2837
Au 11.4533 7.29268 27.2227
Au 11.4491 9.38577 29.2198
Pd 13.3962 7.32865 29.2312
Pd 13.391 9.32418 27.2427
Au 11.4241 7.41201 31.1859
Au 11.3994 9.35327 33.2932
Pd 13.3648 7.38441 33.1814
Au 13.3885 9.38113 31.3298
Pd 11.369 13.33 5.33279
Au 13.3705 11.3463 5.28559
Pd 11.4233 11.3806 7.30703
Pd 11.3946 13.3612 9.3043
Pd 13.3902 11.3787 9.31136
Au 13.3662 13.3446 7.22404
Au 11.4061 11.3654 11.3825
Au 11.328 13.3512 13.3611
Au 13.3466 11.315 13.3706
Au 13.3544 13.3624 11.3123
Au 11.3165 11.3324 15.3527
Pd 11.2559 13.3401 17.3302
Au 13.306 11.3118 17.3352
Pd 13.3005 13.3355 15.3459
Au 11.2853 11.342 19.3143
Au 11.2686 13.3556 21.298
Au 13.3316 11.3152 21.3161
Au 13.2751 13.3395 19.3186
Au 11.337 11.3666 23.303
Pd 11.3304 13.3561 25.2802
Au 13.3722 11.3579 25.2689
Pd 13.3287 13.3347 23.2962
Pd 11.4091 11.3908 27.2379
Au 11.4017 13.3777 29.3278
Au 13.3897 11.376 29.3096
Au 13.3778 13.3676 27.2972
Au 11.4179 11.3813 31.3885
Au 11.3594 13.3605 33.4032
Au 13.3826 11.3247 33.399
Au 13.3776 13.3667 31.4744
Au 11.3198 17.3282 5.24096
Au 13.337 15.3154 5.22348
Au 11.3618 15.3382 7.22979
Au 11.3505 17.3527 9.29552
Au 13.3514 15.3609 9.24551
Au 13.3412 17.335 7.17703
Au 11.3437 15.3529 11.3274
Au 11.282 17.3472 13.3034
Pd 13.3089 15.3502 13.3204
Pd 13.3172 17.3425 11.2686
Au 11.266 15.3335 15.3333
Au 11.2145 17.3208 17.3314
Au 13.2586 15.3219 17.3267
Au 13.271 17.334 15.325
Pd 11.2179 15.3158 19.3092
Au 11.2137 17.2923 21.2957
Pd 13.278 15.3153 21.3037
Au 13.2495 17.302 19.3078
Au 11.2728 15.3161 23.2998
Au 11.2698 17.3299 25.3046
Au 13.3389 15.3163 25.3086
Au 13.2838 17.3097 23.3018
Au 11.3357 15.3476 27.3026
Au 11.3613 17.3493 29.3948
Au 13.3787 15.3613 29.4156
Au 13.3496 17.3276 27.3718
Au 11.384 15.3711 31.4501
Au 11.3319 17.3655 33.39
Au 13.3398 15.365 33.4464
Pd 13.3493 17.3595 31.4766
Pd 11.3342 21.3279 5.35847
Au 13.2951 19.3514 5.22304
Au 11.3526 19.3205 7.23734
Au 11.3491 21.2754 9.29438
Pd 13.3252 19.3059 9.23752
Pd 13.3233 21.2995 7.24022
Pd 11.3144 19.3159 11.3047
Pd 11.2687 21.2723 13.2936
Au 13.2807 19.3231 13.2705
Pd 13.3022 21.2711 11.2666
Au 11.2288 19.318 15.3113
Au 11.2203 21.2901 17.3398
Pd 13.2509 19.3074 17.3311
Au 13.2683 21.2749 15.3066
Au 11.2062 19.3134 19.3195
Au 11.2142 21.3255 21.3
Au 13.2532 19.3161 21.2978
Pd 13.2553 21.3035 19.3229
Au 11.2176 19.3203 23.2936
Au 11.2753 21.3241 25.299
Au 13.3086 19.3315 25.3299
Au 13.2804 21.3321 23.2977
Au 11.3179 19.3319 27.3385
Au 11.3566 21.3196 29.3819
Au 13.3599 19.342 29.4472
Au 13.3599 21.3324 27.3741
Pd 11.3582 19.3422 31.4198
Au 11.3291 21.3247 33.3625
Au 13.3113 19.354 33.4199
Pd 13.3562 21.3239 31.4485
Au 11.3801 25.2273 5.34586
Pd 13.3035 23.289 5.35298
Pd 11.3562 23.277 7.31124
Pd 11.369 25.2284 9.31512
Au 13.3183 23.2534 9.25621
Pd 13.344 25.2289 7.28979
Pd 11.3263 23.2401 11.3027
Au 11.3129 25.2428 13.3175
Au 13.2994 23.2315 13.2862
Au 13.3298 25.2412 11.2874
Au 11.2514 23.2555 15.3171
Au 11.2622 25.2855 17.3415
Au 13.2727 23.2807 17.3409
Au 13.3155 25.2785 15.3258
Au 11.23 23.2987 19.3456
Pd 11.2635 25.2971 21.3021
Pd 13.2786 23.3106 21.2969
Au 13.2956 25.3111 19.3429
Au 11.2562 23.3104 23.2688
Au 11.32 25.2772 25.2666
Pd 13.3286 23.299 25.3064
Au 13.318 25.2983 23.2682
Au 11.3369 23.2925 27.3117
Au 11.3745 25.2543 29.3259
Au 13.3962 23.2858 29.4018
Au 13.3862 25.2595 27.3188
Au 11.3654 23.2923 31.3967
Au 11.3481 25.2555 33.3537
Au 13.352 23.2924 33.4045
Au 13.3915 25.2567 31.4305
Au 11.4134 29.1918 5.34059
Pd 13.3479 27.2116 5.37167
Au 11.4053 27.1813 7.32776
Pd 11.4187 29.2205 9.37771
Pd 13.3645 27.2268 9.30378
Au 13.366 29.2065 7.31714
Au 11.3754 27.2461 11.3264
Au 11.3704 29.3358 13.339
Au 13.353 27.3025 13.3282
Au 13.3787 29.3117 11.338
Au 11.3257 27.2973 15.3394
Au 11.3584 29.3793 17.3337
Au 13.3308 27.3594 17.3405
Au 13.3575 29.4149 15.3381
Au 11.3108 27.3244 19.3306
Au 11.3439 29.3818 21.3046
Au 13.3242 27.3517 21.3006
Pd 13.3375 29.4378 19.3152
Au 11.3095 27.3044 23.274
Au 11.3647 29.3214 25.253
Au 13.368 27.3261 25.2684
Au 13.3563 29.4048 23.2905
Au 11.3798 27.2523 27.2467
Au 11.4238 29.2378 29.2202
Au 13.3962 27.255 29.3071
Pd 13.386 29.338 27.2342
Au 11.4033 27.2211 31.3574
Au 11.4032 29.2614 33.2928
Au 13.3728 27.2703 33.3804
Au 13.3864 29.2518 31.3313
Au 11.3893 33.0477 5.52414
Au 13.374 31.2089 5.3722
Au 11.4177 31.1993 7.39818
Au 11.4083 33.3117 9.35833
Au 13.3838 31.3273 9.3688
Au 13.3815 33.2339 7.35016
Au 11.4087 31.3645 11.365
Pd 11.3673 33.3276 13.3287
Au 13.3853 31.4502 13.3409
Au 13.4022 33.3614 11.327
Au 11.3687 31.4462 15.3357
Au 11.3315 33.4122 17.3037
Pd 13.3423 31.4673 17.3137
Au 13.3624 33.4135 15.319
Au 11.3593 31.4497 19.2984
Pd 11.3222 33.3335 21.3052
Au 13.3411 31.484 21.2927
Au 13.3275 33.437 19.2866
Pd 11.364 31.3918 23.2898
Au 11.3629 33.3663 25.261
Au 13.3785 31.427 25.2749
Au 13.3348 33.4161 23.2932
Au 11.4072 31.3613 27.2355
Au 11.4099 33.3046 29.2531
Au 13.401 31.3358 29.2231
Au 13.391 33.367 27.2756
Au 11.4172 31.22 31.1853
Pd 11.3758 33.0703 33.0092
Au 13.3649 31.2623 33.2306
Au 13.3945 33.2405 31.2351
Pd 15.3645 5.56753 5.5796
Pd 15.3641 5.36122 9.33098
Au 17.3384 5.39957 7.38189
Pd 15.3565 5.27332 13.3644
Au 17.3357 5.25244 11.3272
Pd 15.3196 5.28168 17.3788
Pd 17.306 5.25224 15.3821
Pd 15.3016 5.28395 21.3012
Pd 17.2764 5.26403 19.3288
Au 15.3159 5.25364 25.275
Au 17.2727 5.19749 23.2901
Au 15.3355 5.32737 29.2707
Pd 17.2923 5.31407 27.2901
Au 15.3519 5.52922 33.0683
Au 17.3477 5.36363 31.2431
Pd 15.3653 9.33043 5.37953
Au 17.3364 7.37137 5.41197
Pd 15.3597 7.41181 7.42064
Au 15.3507 9.34984 9.36039
Au 17.3472 7.28002 9.36838
Au 17.3506 9.35608 7.29509
Au 15.3606 7.2171 11.372
Au 15.3558 9.23361 13.3694
Au 17.3511 7.16194 13.3589
Au 17.3528 9.26236 11.3651
Au 15.3472 7.15855 15.386
Au 15.3412 9.19898 17.3484
Pd 17.3175 7.17231 17.3605
Au 17.3505 9.18913 15.3608
Pd 15.3215 7.20251 19.3301
Au 15.3443 9.2301 21.3109
Au 17.2943 7.14818 21.3094
Au 17.3258 9.18995 19.3236
Pd 15.329 7.20857 23.2867
Au 15.3392 9.26677 25.2715
Au 17.2969 7.17465 25.2741
Au 17.3168 9.2382 23.2911
Pd 15.3296 7.26846 27.2568
Au 15.3535 9.33594 29.2655
Au 17.3327 7.26837 29.2503
Au 17.3304 9.27331 27.2687
Au 15.3562 7.3739 31.2309
Au 15.3731 9.30655 33.3274
Au 17.3699 7.33385 33.2387
Au 17.3576 9.34093 31.3521
Au 15.3502 13.3168 5.22444
Au 17.3441 11.3151 5.26961
Au 15.3653 11.3653 7.23485
Au 15.3598 13.3665 9.24038
Au 17.3465 11.3547 9.27398
Pd 17.3374 13.3431 7.19048
Au 15.3443 11.3327 11.338
Au 15.3152 13.3459 13.333
Au 17.347 11.2863 13.3483
Au 17.3361 13.3637 11.275
Au 15.3323 11.2855 15.3524
Au 15.3107 13.3105 17.3337
Au 17.3417 11.2518 17.3378
Au 17.3326 13.31 15.3398
Au 15.3388 11.2734 19.3271
Au 15.3187 13.2985 21.309
Pd 17.3238 11.2627 21.3062
Pd 17.3205 13.2822 19.3138
Pd 15.3413 11.3003 23.2928
Pd 15.349 13.335 25.3013
Au 17.3285 11.306 25.2897
Au 17.3186 13.2852 23.2998
Au 15.3575 11.3479 27.2854
Au 15.3704 13.3777 29.4074
Au 17.3464 11.3549 29.358
Au 17.3369 13.363 27.3619
Au 15.3665 11.352 31.4312
Pd 15.3588 13.3295 33.3872
Pd 17.3664 11.3013 33.3336
Au 17.3516 13.3538 31.4835
Au 15.3098 17.323 5.18044
Au 17.3109 15.3169 5.18403
Au 15.3568 15.3415 7.16357
Pd 15.3193 17.3338 9.18948
Pd 17.3203 15.3553 9.18956
Pd 17.3009 17.327 7.14015
Au 15.3193 15.3663 11.2514
Au 15.2849 17.3292 13.2759
Au 17.3221 15.3373 13.2834
Au 17.3121 17.3191 11.2096
Au 15.285 15.3322 15.329
Pd 15.2782 17.3144 17.3245
Au 17.3109 15.3102 17.3346
Au 17.3029 17.3134 15.3092
Au 15.2973 15.3173 19.3133
Au 15.2919 17.3091 21.3002
Au 17.3137 15.303 21.2945
Pd 17.3032 17.311 19.3094
Au 15.3116 15.3031 23.3076
Au 15.3303 17.3174 25.3575
Au 17.3274 15.3269 25.3595
Au 17.3243 17.3279 23.3319
Pd 15.3589 15.3398 27.3781
Au 15.3551 17.3308 29.4606
Pd 17.342 15.352 29.4597
Au 17.3405 17.3198 27.4208
Au 15.3531 15.3634 31.5171
Au 15.3277 17.3495 33.4786
Au 17.3491 15.3151 33.4755
Au 17.3409 17.3375 31.5398
Au 15.2531 21.3355 5.21409
Au 17.2769 19.3191 5.15489
Au 15.2986 19.3153 7.14509
Au 15.3013 21.2818 9.20622
Au 17.3037 19.2982 9.16244
Au 17.2953 21.3062 7.10922
Au 15.2898 19.3037 11.2289
Pd 15.3001 21.2731 13.2707
Au 17.312 19.3073 13.2629
Au 17.329 21.283 11.2359
Au 15.2768 19.3066 15.3124
Au 15.2765 21.2971 17.3241
Au 17.2969 19.2963 17.31
Au 17.3132 21.2978 15.2943
Au 15.2714 19.2992 19.3007
Au 15.2867 21.3159 21.3028
Au 17.3118 19.3121 21.3181
Au 17.3061 21.3149 19.3009
Au 15.3096 19.3287 23.3233
Au 15.3244 21.331 25.3484
Au 17.3301 19.3272 25.3696
Pd 17.3151 21.3039 23.3297
Au 15.3421 19.3325 27.4133
Pd 15.355 21.3209 29.461
Au 17.3332 19.3288 29.4814
Au 17.3156 21.3202 27.4249
Au 15.3305 19.3439 31.5197
Au 15.3289 21.345 33.4392
Au 17.3367 19.3491 33.4812
Au 17.3245 21.3326 31.5088
Au 15.2835 25.2543 5.27518
Au 17.2751 23.3028 5.17396
Pd 15.3098 23.2758 7.21001
Au 15.3388 25.2434 9.24587
Au 17.3448 23.2698 9.20436
Au 17.324 25.2427 7.16854
Au 15.3203 23.247 11.2634
Au 15.3421 25.2725 13.301
Au 17.3396 23.2674 13.2746
Au 17.3744 25.2604 11.268
Au 15.3118 23.2698 15.3046
Au 15.3192 25.3143 17.3246
Pd 17.3184 23.3097 17.3061
Au 17.3391 25.3068 15.3146
Au 15.2909 23.3138 19.3233
Pd 15.314 25.3366 21.3024
Au 17.308 23.322 21.3126
Au 17.315 25.3446 19.307
Au 15.3084 23.31 23.2951
Au 15.3362 25.2956 25.3087
Au 17.3159 23.2975 25.346
Au 17.3181 25.3478 23.2994
Pd 15.3544 23.2948 27.3882
Pd 15.3664 25.2713 29.3933
Pd 17.3163 23.3002 29.4473
Au 17.3158 25.2984 27.3634
Pd 15.3497 23.295 31.445
Au 15.3649 25.2892 33.4018
Pd 17.3297 23.3378 33.3805
Au 17.323 25.2891 31.4374
Pd 15.3371 29.2494 5.38509
Pd 17.3059 27.2562 5.30852
Au 15.3338 27.2194 7.2471
Au 15.3665 29.2575 9.32737
Au 17.368 27.2387 9.26687
Au 17.3505 29.2316 7.26451
Au 15.3651 27.2733 11.3069
Au 15.3728 29.3974 13.3345
Au 17.3696 27.3367 13.3149
Au 17.3739 29.3466 11.3459
Au 15.3454 27.3581 15.3262
Au 15.3303 29.4645 17.3252
Au 17.3309 27.3931 17.3176
Au 17.3515 29.445 15.3208
Au 15.3165 27.3883 19.3194
Au 15.3332 29.4515 21.2943
Au 17.3234 27.4064 21.2972
Au 17.3259 29.4837 19.2981
Au 15.3476 27.3808 23.289
Pd 15.361 29.4066 25.2768
Au 17.3281 27.3848 25.301
Pd 17.3281 29.4575 23.2899
Au 15.3601 27.3258 27.2831
Au 15.3556 29.3014 29.2514
Au 17.3278 27.2968 29.337
Pd 17.3314 29.3759 27.2709
Au 15.3567 27.2707 31.4061
Au 15.3493 29.3109 33.3278
Pd 17.3476 27.3144 33.3109
Au 17.3336 29.2801 31.3464
Au 15.3655 33.0595 5.51045
Au 17.351 31.2246 5.3627
Au 15.3626 31.2224 7.36396
Pd 15.3793 33.2485 9.302
Au 17.3649 31.3287 9.33789
Au 17.3737 33.2175 7.33161
Au 15.3827 31.405 11.3452
Pd 15.3831 33.3529 13.3112
Pd 17.3553 31.4279 13.3314
Pd 17.3622 33.2924 11.2973
Au 15.3639 31.4918 15.3288
Pd 15.3339 33.3956 17.2938
Pd 17.335 31.4959 17.3005
Au 17.3323 33.4304 15.2989
Au 15.3195 31.5152 19.2864
Au 15.325 33.4614 21.2859
Au 17.3193 31.5218 21.2913
Pd 17.3127 33.4093 19.2873
Au 15.3441 31.4836 23.295
Au 15.3533 33.4054 25.3088
Au 17.3189 31.4484 25.2924
Pd 17.3184 33.4032 23.3053
Pd 15.3552 31.3759 27.2588
Au 15.3669 33.3125 29.2855
Au 17.3191 31.3451 29.2566
Pd 17.3196 33.3184 27.3066
Pd 15.3528 31.2289 31.2224
Au 15.3505 33.0747 33.0877
Au 17.3322 31.2552 33.2525
Au 17.3235 33.23 31.2641
Au 19.3031 5.54436 5.55713
Au 19.3122 5.31091 9.32711
Au 21.2885 5.38292 7.38436
Au 19.2835 5.18911 13.3372
Au 21.2711 5.24196 11.322
Au 19.2609 5.17069 17.3648
Au 21.2825 5.14294 15.3562
Pd 19.2794 5.22702 21.3086
Pd 21.294 5.21206 19.3242
Au 19.2954 5.1922 25.3026
Au 21.3158 5.17773 23.3032
Au 19.3298 5.29488 29.2856
Au 21.3412 5.24829 27.2959
Au 19.3684 5.52109 33.0389
Au 21.3369 5.38151 31.2077
Au 19.3165 9.31337 5.31577
Au 21.3112 7.35082 5.39521
Pd 19.3231 7.39294 7.40964
Au 19.3301 9.32281 9.34856
Pd 21.2879 7.28928 9.3765
Au 21.2951 9.35634 7.28612
Pd 19.3145 7.2168 11.3556
Pd 19.3209 9.20816 13.3673
Au 21.2726 7.13306 13.3615
Au 21.2842 9.24875 11.381
Au 19.3006 7.12285 15.3705
Pd 19.3165 9.17619 17.34
Au 21.2922 7.1004 17.3362
Au 21.2881 9.19841 15.3595
Au 19.2922 7.12273 19.315
Au 19.2985 9.19611 21.3065
Au 21.2972 7.11405 21.3059
Au 21.2972 9.18571 19.3033
Au 19.2964 7.12567 23.3024
Au 19.3102 9.24162 25.2904
Au 21.3131 7.15799 25.2935
Au 21.2868 9.20782 23.2941
Au 19.3226 7.1995 27.2652
Au 19.3264 9.33127 29.2674
Au 21.317 7.28218 29.2265
Pd 21.2909 9.28101 27.2687
Pd 19.3438 7.38322 31.2024
Au 19.3628 9.29736 33.3042
Au 21.3417 7.35074 33.1967
Au 21.3144 9.35843 31.3177
Au 19.3052 13.3074 5.21164
Au 21.3062 11.3159 5.26201
Pd 19.3133 11.3482 7.23141
Au 19.2996 13.3711 9.22268
Au 21.2879 11.358 9.27974
Au 21.2808 13.3505 7.16398
Au 19.3271 11.3178 11.3368
Au 19.3389 13.335 13.3222
Au 21.2983 11.2918 13.3747
Au 21.2948 13.3719 11.3044
Au 19.3318 11.2609 15.3549
Pd 19.3241 13.2847 17.3265
Au 21.3101 11.2728 17.3235
Pd 21.3173 13.3053 15.339
Au 19.3071 11.2507 19.3066
Au 19.3045 13.2776 21.2976
Au 21.2958 11.261 21.2911
Au 21.3177 13.2953 19.3029
Pd 19.3046 11.267 23.2934
Au 19.303 13.3202 25.3311
Au 21.2708 11.2944 25.305
Au 21.2871 13.318 23.2956
Pd 19.3042 11.3247 27.311
Au 19.3152 13.3694 29.4065
Au 21.2863 11.3549 29.3407
Au 21.2672 13.3572 27.3655
Au 19.3387 11.3487 31.414
Au 19.3563 13.2956 33.4237
Pd 21.3316 11.3099 33.2831
Pd 21.2993 13.3389 31.4223
Au 19.286 17.3209 5.14835
Au 21.3091 15.334 5.17661
Au 19.2833 15.3423 7.12879
Au 19.3023 17.3214 9.17048
Au 21.2912 15.3571 9.21616
Au 21.3058 17.3396 7.11569
Pd 19.314 15.3482 11.2488
Au 19.3346 17.3102 13.2655
Pd 21.3141 15.3273 13.3011
Au 21.3191 17.312 11.2542
Au 19.3391 15.3003 15.3158
Au 19.3231 17.3063 17.3097
Au 21.3286 15.2808 17.3082
Au 21.3269 17.3052 15.2889
Au 19.3135 15.2911 19.3098
Au 19.3196 17.3148 21.3206
Pd 21.3013 15.3143 21.3108
Au 21.3196 17.2948 19.3115
Au 19.3182 15.3267 23.3168
Au 19.3218 17.3504 25.3707
Au 21.282 15.356 25.3404
Pd 21.2948 17.3272 23.331
Pd 19.3122 15.3548 27.4042
Au 19.3136 17.3281 29.4774
Pd 21.285 15.3582 29.4527
Au 21.2778 17.3565 27.4081
Au 19.3325 15.3247 31.5097
Pd 19.3243 17.3226 33.4383
Au 21.3153 15.2856 33.4501
Au 21.2957 17.3361 31.5371
Au 19.3143 21.3036 5.14451
Au 21.3462 19.309 5.14131
Au 19.3029 19.3045 7.09491
Au 19.3324 21.2786 9.17256
Pd 21.3233 19.2914 9.18272
Au 21.3373 21.26 7.11763
Au 19.3386 19.2977 11.2238
Au 19.3545 21.2998 13.2707
Pd 21.3328 19.3051 13.272
Au 21.3273 21.2853 11.2531
Au 19.3442 19.3131 15.2825
Au 19.3325 21.309 17.2847
Pd 21.3223 19.309 17.2892
Pd 21.3317 21.3073 15.2813
Au 19.318 19.303 19.3032
Au 19.3104 21.302 21.3335
Au 21.3121 19.3042 21.3366
Au 21.3222 21.3058 19.3029
Pd 19.3171 19.3117 23.3471
Au 19.3124 21.2807 25.3636
Pd 21.2947 19.3151 25.3663
Au 21.3106 21.289 23.3478
Pd 19.3068 19.3234 27.4222
Au 19.3059 21.3174 29.4658
Au 21.2886 19.3278 29.4667
Au 21.3075 21.2832 27.3815
Pd 19.3141 19.3386 31.5199
Au 19.3098 21.3511 33.4814
Au 21.2904 19.3326 33.5
Au 21.2959 21.3251 31.5444
Au 19.3206 25.273 5.189
Pd 21.3538 23.2634 5.22364
Au 19.3234 23.2731 7.11776
Pd 19.3366 25.2471 9.21683
Au 21.3142 23.2594 9.20039
Au 21.3219 25.2492 7.14958
Pd 19.344 23.2681 11.2483
Au 19.3499 25.2802 13.2981
Pd 21.3276 23.2865 13.3031
Au 21.2996 25.2501 11.2953
Au 19.347 23.3012 15.2947
Au 19.3397 25.3401 17.3059
Au 21.3315 23.3223 17.2814
Pd 21.3283 25.3115 15.3072
Au 19.3247 23.3307 19.294
Au 19.3273 25.3595 21.2906
Au 21.3192 23.3161 21.3076
Pd 21.3298 25.3523 19.2921
Au 19.3076 23.3065 23.3316
Au 19.3084 25.3451 25.3334
Au 21.3085 23.2882 25.3522
Au 21.3007 25.3429 23.3108
Au 19.3031 23.2983 27.3927
Au 19.3034 25.3006 29.4026
Au 21.3077 23.2998 29.4235
Au 21.2954 25.3126 27.3423
Au 19.3201 23.3277 31.487
Pd 19.3355 25.3509 33.3254
Au 21.3029 23.3848 33.4376
Pd 21.312 25.3121 31.4027
Au 19.3234 29.2762 5.28699
Au 21.3333 27.2735 5.22193
Au 19.3325 27.2368 7.18873
Au 19.3366 29.2616 9.33251
Au 21.2927 27.2382 9.28057
Au 21.3116 29.2433 7.2714
Pd 19.3378 27.2795 11.3165
Pd 19.3355 29.4059 13.3358
Au 21.3077 27.3109 13.332
Au 21.2923 29.3284 11.3537
Au 19.3432 27.3653 15.3159
Au 19.3357 29.4634 17.3174
Au 21.3354 27.3846 17.3218
Au 21.3134 29.4275 15.3354
Au 19.341 27.406 19.2969
Au 19.3226 29.4769 21.2845
Au 21.3207 27.398 21.2661
Pd 21.3203 29.4591 19.2878
Au 19.3153 27.4048 23.2976
Au 19.304 29.4081 25.2926
Pd 21.2922 27.3574 25.3027
Au 21.3032 29.4412 23.2872
Pd 19.3046 27.33 27.3081
Au 19.3131 29.3055 29.273
Au 21.2996 27.2919 29.3458
Au 21.297 29.3543 27.2708
Au 19.3359 27.3004 31.3936
Au 19.3507 29.3008 33.305
Pd 21.3254 27.321 33.2648
Pd 21.3209 29.2753 31.3025
Au 19.3617 33.0221 5.52764
Au 21.3268 31.2122 5.38295
Pd 19.3346 31.1877 7.38345
Au 19.3398 33.2807 9.28852
Pd 21.3053 31.2832 9.35075
Pd 21.3126 33.1184 7.37917
Au 19.3349 31.4019 11.3354
Pd 19.3113 33.3637 13.2993
Au 21.3016 31.4712 13.3347
Au 21.2958 33.3671 11.2716
Au 19.3144 31.5065 15.3206
Au 19.3073 33.4771 17.3053
Au 21.3216 31.5089 17.3288
Au 21.3157 33.4551 15.3266
Au 19.3257 31.5319 19.2864
Pd 19.3187 33.4165 21.2838
Au 21.3161 31.5146 21.2674
Au 21.3347 33.4621 19.2978
Au 19.3094 31.5098 23.2904
Au 19.2935 33.4391 25.3076
Au 21.3018 31.5002 25.2774
Au 21.3042 33.4659 23.2706
Au 19.3097 31.4271 27.2744
Pd 19.3107 33.2605 29.3254
Au 21.321 31.3606 29.2582
Au 21.3 33.4062 27.3121
Au 19.3319 31.2363 31.2473
Pd 19.3296 33.0615 33.0789
Au 21.3351 31.2386 33.2372
Au 21.3269 33.2433 31.2696
Au 23.3112 5.53349 5.59669
Au 23.2697 5.30277 9.3457
Au 25.2918 5.37832 7.43897
Au 23.3117 5.19224 13.3336
Au 25.342 5.27385 11.3318
Au 23.3389 5.15435 17.3514
Au 25.3677 5.21243 15.3501
Pd 23.3321 5.23705 21.3112
Au 25.3612 5.2301 19.3353
Au 23.339 5.24068 25.3112
Au 25.3283 5.24568 23.3074
Pd 23.3297 5.39347 29.2453
Pd 25.2978 5.39165 27.2511
Pd 23.3542 5.5434 32.9963
Au 25.316 5.43313 31.1476
Au 23.3141 9.31904 5.33673
Pd 25.3007 7.38449 5.50137
Au 23.287 7.38899 7.42022
Au 23.2713 9.34081 9.37534
Au 25.2779 7.30262 9.40847
Pd 25.2536 9.4027 7.35536
Au 23.2729 7.19256 11.3756
Au 23.2749 9.23037 13.391
Au 25.3134 7.18362 13.3713
Au 25.2692 9.3065 11.4247
Au 23.3006 7.11369 15.3552
Au 23.2885 9.22285 17.3262
Au 25.3113 7.17046 17.3476
Au 25.2893 9.2637 15.3563
Au 23.3063 7.12361 19.3124
Au 23.2866 9.20901 21.2885
Au 25.309 7.18461 21.2967
Au 25.2855 9.25155 19.3102
Au 23.3052 7.15154 23.2999
Au 23.2725 9.26326 25.2776
Pd 25.2724 7.26301 25.2632
Au 25.272 9.28049 23.2842
Pd 23.2905 7.27441 27.241
Au 23.2795 9.36521 29.2481
Au 25.2725 7.34805 29.1853
Au 25.2471 9.34059 27.2206
Au 23.3134 7.39835 31.1894
Pd 23.3074 9.33845 33.2094
Au 25.2959 7.40444 33.1587
Au 25.2634 9.42187 31.28
Pd 23.2982 13.3616 5.28934
Au 25.2469 11.3784 5.27413
Au 23.2859 11.3621 7.23104
Au 23.2738 13.3812 9.26434
Au 25.2478 11.4036 9.35098
Au 25.2601 13.4109 7.23948
Au 23.2681 11.3457 11.3719
Au 23.2771 13.3571 13.3562
Au 25.2739 11.337 13.4006
Au 25.2818 13.3899 11.3619
Pd 23.2791 11.2966 15.3548
Pd 23.2931 13.3058 17.319
Au 25.2739 11.3206 17.3228
Au 25.2784 13.3462 15.3483
Pd 23.2901 11.2839 19.3032
Au 23.2883 13.3418 21.2945
Au 25.2774 11.3255 21.2951
Au 25.2885 13.3468 19.3109
Au 23.2763 11.3005 23.2904
Au 23.2656 13.35 25.3008
Pd 25.2602 11.3602 25.2566
Au 25.2816 13.3606 23.2793
Au 23.2669 11.3485 27.2904
Au 23.2585 13.3654 29.3986
Pd 25.2426 11.4034 29.3079
Au 25.2552 13.3767 27.3188
Pd 23.2783 11.3632 31.3375
Pd 23.2892 13.2964 33.3169
Au 25.2499 11.3458 33.3002
Au 25.2577 13.3405 31.3978
Au 23.3532 17.3317 5.20409
Pd 25.3082 15.3937 5.31394
Au 23.2932 15.3763 7.17461
Au 23.3187 17.3298 9.233
Au 25.3026 15.3425 9.29043
Pd 25.3263 17.3089 7.25622
Pd 23.2975 15.3443 11.3004
Au 23.311 17.2978 13.2963
Pd 25.3029 15.3414 13.3386
Au 25.3109 17.3043 11.3218
Pd 23.2972 15.313 15.3176
Au 23.3119 17.3017 17.3049
Au 25.3066 15.3218 17.3261
Au 25.3256 17.3074 15.3016
Pd 23.3038 15.3094 19.3131
Au 23.2948 17.2876 21.3216
Pd 25.3126 15.332 21.3001
Au 25.3362 17.2939 19.3225
Pd 23.2729 15.3397 23.3031
Au 23.2628 17.3496 25.338
Au 25.2727 15.3577 25.3014
Au 25.3034 17.3175 23.2966
Au 23.2536 15.3665 27.3813
Au 23.2725 17.3535 29.4515
Au 25.2719 15.3599 29.4051
Au 25.2782 17.3542 27.3577
Au 23.2721 15.3361 31.4858
Au 23.3047 17.3157 33.4841
Au 25.2926 15.3036 33.4033
Au 25.3005 17.3499 31.4961
Au 23.3868 21.2498 5.20189
Pd 25.3766 19.2522 5.30652
Au 23.3508 19.2849 7.16593
Au 23.3265 21.2516 9.21955
Pd 25.3115 19.2876 9.26383
Pd 25.3264 21.2502 7.22853