1687
Atoms. Timestep: 20162
Au 5.70321 5.54499 7.51381
Au 5.65083 5.49617 11.3684
Au 5.61719 5.49565 15.3205
Au 5.59035 5.50486 19.3513
Au 5.62422 5.51913 23.3744
Au 5.68019 5.56154 27.2978
Au 5.74777 5.59187 31.1161
Pd 5.66422 7.45628 5.66831
Au 5.46484 7.38895 9.4352
Au 5.44954 9.38826 7.48294
Pd 5.51948 7.35683 13.3431
Au 5.39051 9.35164 11.3928
Au 5.42366 7.31647 17.3132
Pd 5.41697 9.29528 15.3141
Au 5.42454 7.32481 21.3594
Au 5.31874 9.2646 19.326
Au 5.47816 7.371 25.3459
Pd 5.41894 9.28945 23.3527
Pd 5.59985 7.43892 29.2175
Pd 5.48058 9.34497 27.2819
Pd 5.75747 7.46023 32.9935
Pd 5.58902 9.38058 31.1712
Au 5.55571 11.3046 5.58586
Pd 5.42757 11.3577 9.409
Au 5.39828 13.3169 7.39358
Au 5.31663 11.3136 13.322
Au 5.31725 13.3169 11.3531
Au 5.25702 11.2654 17.2976
Au 5.22163 13.2812 15.2776
Au 5.24798 11.2617 21.3477
Au 5.16476 13.2592 19.3143
Pd 5.36163 11.3103 25.3293
Au 5.19415 13.281 23.3474
Au 5.39182 11.335 29.2741
Au 5.284 13.3304 27.3334
Au 5.64623 11.2977 33.0783
Au 5.41745 13.3067 31.2844
Au 5.55004 15.3194 5.54459
Au 5.32462 15.3138 9.33948
Au 5.4075 17.3243 7.36232
Au 5.2316 15.3025 13.2736
Au 5.26046 17.3256 11.2819
Au 5.13262 15.2812 17.2888
Au 5.1434 17.3136 15.2663
Au 5.11448 15.2851 21.3234
Au 5.08822 17.3095 19.2991
Au 5.18999 15.3135 25.3757
Au 5.1131 17.3171 23.3522
Au 5.32648 15.3309 29.3533
Au 5.24403 17.3193 27.3978
Au 5.57097 15.3147 33.1067
Au 5.38515 17.3366 31.3063
Pd 5.59501 19.3175 5.55302
Au 5.3231 19.3227 9.28805
Au 5.42486 21.304 7.34971
Au 5.18713 19.3325 13.2578
Au 5.26713 21.3087 11.2695
Au 5.11117 19.3472 17.2813
Au 5.17281 21.3369 15.2894
Au 5.08697 19.3429 21.3179
Au 5.11766 21.3519 19.2831
Au 5.15834 19.3332 25.3845
Au 5.13129 21.3572 23.3415
Au 5.31746 19.3418 29.3767
Au 5.24414 21.3448 27.3982
Au 5.55345 19.3678 33.0993
Pd 5.4753 21.3612 31.2597
Au 5.58429 23.2951 5.52557
Pd 5.39886 23.29 9.29283
Au 5.43551 25.2802 7.35197
Pd 5.28243 23.2935 13.2884
Au 5.29659 25.2497 11.3115
Pd 5.22199 23.3283 17.2891
Au 5.22737 25.278 15.2986
Au 5.13538 23.3476 21.3119
Au 5.18933 25.3276 19.2944
Au 5.20511 23.3454 25.3424
Au 5.20955 25.329 23.3093
Au 5.35613 23.3344 29.3459
Au 5.30442 25.3161 27.3358
Au 5.60358 23.3397 33.0754
Au 5.44758 25.2971 31.2491
Au 5.64078 27.2406 5.53851
Au 5.35807 27.216 9.33862
Au 5.46982 29.1538 7.40591
Au 5.26018 27.2375 13.3096
Au 5.34014 29.2238 11.334
Au 5.22129 27.2947 17.3003
Au 5.2784 29.3105 15.2909
Pd 5.29653 27.33 21.3051
Au 5.28393 29.3188 19.3125
Au 5.2824 27.2938 25.3014
Au 5.31658 29.3049 23.2912
Au 5.40098 27.2603 29.2747
Au 5.37702 29.2256 27.2787
Au 5.63011 27.2783 33.0776
Au 5.47453 29.2248 31.1958
Au 5.65958 31.0732 5.58494
Pd 5.50373 31.1155 9.35878
Au 5.64038 32.9478 7.43493
Au 5.3775 31.2532 13.2764
Au 5.57363 33.0378 11.2727
Au 5.34362 31.2769 17.3001
Pd 5.53442 33.0694 15.2801
Au 5.35583 31.2586 21.2998
Au 5.50473 33.0861 19.2991
Au 5.39289 31.2345 25.3098
Au 5.51887 33.0688 23.308
Au 5.45416 31.1563 29.2137
Au 5.58014 33.0635 27.3089
Au 5.68878 31.1462 33.0158
Pd 5.65623 32.9785 31.1134
Au 7.54357 5.58889 5.63555
Au 7.52235 5.37976 9.4321
Pd 9.47552 5.46115 7.45992
Au 7.45975 5.34975 13.3609
Pd 9.44142 5.36973 11.4076
Au 7.41093 5.34691 17.3444
Pd 9.37895 5.34648 15.3636
Au 7.43277 5.37337 21.3552
Au 9.36707 5.30711 19.3654
Au 7.48845 5.40268 25.321
Pd 9.40134 5.4004 23.3141
Au 7.55993 5.42083 29.1926
Au 9.47385 5.35862 27.2364
Au 7.60036 5.57307 32.9707
Au 9.50661 5.40489 31.149
Au 7.46889 9.39633 5.42841
Au 9.45187 7.42468 5.40833
Au 7.54689 7.47541 7.51831
Au 7.40284 9.41839 9.46269
Au 9.49891 7.35358 9.45522
Au 9.48202 9.42955 7.35919
Au 7.4707 7.38393 11.4012
Au 7.3641 9.37902 13.3606
Au 9.43276 7.29891 13.391
Au 9.43583 9.38706 11.4303
Au 7.43794 7.36283 15.3434
Au 7.31264 9.33636 17.3303
Au 9.3898 7.27459 17.3556
Pd 9.36366 9.33854 15.3506
Au 7.41994 7.35874 19.3437
Au 7.30841 9.34092 21.3232
Pd 9.38736 7.32074 21.3207
Pd 9.34047 9.33608 19.3287
Au 7.45597 7.37724 23.3317
Au 7.37437 9.37192 25.3023
Pd 9.45658 7.34565 25.2816
Au 9.37937 9.35917 23.3086
Pd 7.53996 7.42672 27.2488
Au 7.47213 9.42132 29.1929
Pd 9.51615 7.39423 29.1813
Au 9.46167 9.40533 27.2277
Au 7.61292 7.48528 31.1156
Au 7.53887 9.40127 33.2054
Pd 9.47602 7.45317 33.1416
Pd 9.50025 9.44025 31.2401
Au 7.38376 13.3114 5.38422
Au 9.41476 11.3665 5.33756
Au 7.43425 11.3666 7.42117
Au 7.31886 13.3456 9.40919
Au 9.42232 11.3978 9.39716
Au 9.41049 13.3379 7.3037
Pd 7.33804 11.3713 11.4125
Pd 7.24633 13.335 13.3331
Pd 9.33725 11.3605 13.3822
Au 9.32319 13.3502 11.3836
Au 7.25596 11.3409 15.3183
Au 7.14731 13.3153 17.3196
Au 9.27608 11.3467 17.3344
Au 9.24445 13.3426 15.3369
Au 7.20583 11.3204 19.3206
Au 7.13176 13.3185 21.3126
Au 9.2734 11.3586 21.3023
Pd 9.203 13.34 19.3103
Au 7.24037 11.3494 23.3231
Au 7.2 13.3626 25.3156
Pd 9.33419 11.3868 25.2828
Au 9.2413 13.3557 23.3147
Au 7.32282 11.3881 27.2622
Au 7.32079 13.3675 29.2739
Au 9.45385 11.4104 29.2454
Au 9.33656 13.3768 27.2615
Au 7.48519 11.3716 31.2281
Pd 7.43348 13.3343 33.1997
Au 9.41926 11.373 33.3185
Au 9.43156 13.38 31.359
Au 7.38031 17.3193 5.38071
Au 9.33535 15.312 5.30442
Au 7.39599 15.3196 7.38906
Au 7.29353 17.3361 9.3607
Au 9.35823 15.3366 9.35648
Au 9.36358 17.3342 7.28257
Pd 7.25305 15.3355 11.3472
Au 7.15524 17.3399 13.2943
Au 9.23455 15.3482 13.3313
Au 9.27706 17.3572 11.3346
Au 7.12599 15.3182 15.3032
Au 7.05661 17.3176 17.3075
Au 9.18114 15.3181 17.3327
Au 9.17184 17.3358 15.3139
Au 7.0762 15.3054 19.3116
Au 7.03593 17.3202 21.3091
Au 9.16671 15.3182 21.2936
Au 9.12968 17.3103 19.3145
Au 7.09136 15.3278 23.317
Au 7.11401 17.3257 25.3404
Au 9.22951 15.3499 25.3037
Au 9.15123 17.3221 23.3
Pd 7.23386 15.3497 27.3234
Pd 7.29451 17.3376 29.3151
Au 9.35411 15.3696 29.3112
Au 9.25227 17.344 27.3134
Au 7.40168 15.3523 31.2697
Au 7.36525 17.3454 33.2781
Pd 9.34749 15.3687 33.2867
Au 9.37854 17.3646 31.3833
Au 7.41054 21.3068 5.38152
Au 9.32902 19.3256 5.30912
Pd 7.42575 19.3145 7.3988
Au 7.31749 21.2811 9.34599
Pd 9.35071 19.3121 9.33701
Au 9.38177 21.2964 7.30609
Pd 7.23996 19.3196 11.314
Au 7.16917 21.2838 13.2983
Pd 9.21945 19.3153 13.3096
Au 9.30137 21.2675 11.3205
Au 7.09479 19.3241 15.3012
Pd 7.10606 21.3126 17.3039
Au 9.12989 19.3178 17.3226
Au 9.17551 21.2841 15.3066
Au 7.03242 19.3334 19.3032
Au 7.05631 21.3419 21.3152
Au 9.11732 19.32 21.3048
Au 9.12403 21.3188 19.3244
Au 7.05503 19.3296 23.3212
Au 7.11855 21.3339 25.3201
Au 9.18331 19.3327 25.3065
Au 9.14934 21.3287 23.2876
Au 7.18192 19.3328 27.3464
Pd 7.32639 21.3374 29.2991
Au 9.33614 19.3357 29.3236
Au 9.26509 21.3268 27.3116
Au 7.38916 19.3425 31.2665
Au 7.39112 21.3564 33.2512
Au 9.33782 19.3576 33.3398
Au 9.36555 21.3311 31.3435
Au 7.44996 25.268 5.39193
Au 9.39298 23.2925 5.34211
Au 7.43717 23.2877 7.37678
Au 7.35449 25.2531 9.35423
Pd 9.37052 23.2559 9.33951
Pd 9.41945 25.2352 7.34914
Au 7.25455 23.2724 11.3238
Pd 7.23213 25.2546 13.3247
Au 9.24674 23.2522 13.3079
Au 9.33574 25.2313 11.3206
Au 7.14366 23.2918 15.3163
Pd 7.16616 25.2947 17.3151
Au 9.15694 23.2852 17.3261
Au 9.21517 25.2626 15.3246
Au 7.09373 23.3125 19.3037
Au 7.14184 25.2886 21.3044
Pd 9.16019 23.3053 21.3042
Au 9.19417 25.2838 19.328
Pd 7.13434 23.3184 23.3018
Au 7.20403 25.2998 25.2866
Au 9.22003 23.3053 25.2793
Au 9.22318 25.2857 23.268
Au 7.23199 23.3169 27.3262
Pd 7.3675 25.2851 29.2668
Pd 9.35664 23.3048 29.2966
Au 9.30866 25.2781 27.2761
Pd 7.44378 23.3279 31.2121
Au 7.44066 25.2803 33.2208
Pd 9.34684 23.311 33.2435
Pd 9.40108 25.2746 31.2874
Pd 7.52504 29.154 5.47208
Au 9.43496 27.184 5.3606
Pd 7.48789 27.198 7.42482
Au 7.41281 29.1442 9.40238
Pd 9.42288 27.2014 9.3729
Au 9.48581 29.1436 7.37346
Au 7.29424 27.2104 11.3563
Au 7.28676 29.2335 13.3224
Au 9.30421 27.247 13.328
Pd 9.39734 29.23 11.3602
Au 7.18783 27.2515 15.3149
Au 7.23554 29.2786 17.304
Au 9.24333 27.2796 17.322
Au 9.33085 29.2907 15.3222
Au 7.17877 27.2918 19.3057
Pd 7.29149 29.2867 21.2962
Au 9.25254 27.2954 21.2978
Au 9.31505 29.3113 19.3077
Au 7.22913 27.2965 23.2824
Au 7.32088 29.233 25.2732
Pd 9.30177 27.2572 25.2526
Pd 9.33727 29.2888 23.2752
Pd 7.32856 27.2431 27.2647
Pd 7.42849 29.1863 29.1987
Pd 9.40824 27.2269 29.2369
Au 9.3929 29.2222 27.2287
Au 7.46937 27.2419 31.2011
Au 7.50143 29.2315 33.2065
Au 9.40644 27.2414 33.2885
Au 9.469 29.188 31.2299
Au 7.50427 32.9681 5.57451
Au 9.45341 31.1462 5.39042
Au 7.54342 31.0864 7.46747
Pd 7.48047 33.1287 9.36144
Au 9.46973 31.2387 9.41471
Au 9.43818 33.1926 7.40134
Au 7.42766 31.1949 11.3438
Au 7.36145 33.2462 13.2848
Au 9.377 31.3423 13.3257
Au 9.37809 33.2954 11.3434
Au 7.36484 31.2521 15.2981
Pd 7.35025 33.1971 17.3032
Au 9.3535 31.3745 17.3026
Au 9.29985 33.3324 15.2968
Au 7.35378 31.2577 19.3086
Au 7.34097 33.2597 21.2973
Au 9.35385 31.3556 21.3028
Au 9.30207 33.3331 19.302
Au 7.38223 31.2335 23.2821
Au 7.37895 33.2418 25.2831
Au 9.39069 31.3272 25.2449
Au 9.33323 33.3159 23.2786
Au 7.4424 31.2047 27.26
Au 7.48235 33.2106 29.2134
Pd 9.46244 31.2472 29.1842
Au 9.39359 33.3006 27.2425
Au 7.54258 31.1301 31.1028
Pd 7.55469 33.01 32.9635
Pd 9.45476 31.1798 33.1053
Au 9.44318 33.2141 31.1396
Au 11.4166 5.56078 5.55391
Au 11.4361 5.31694 9.3906
Au 13.386 5.39352 7.38839
Au 11.3956 5.25372 13.3919
Au 13.389 5.25317 11.3682
Au 11.37 5.25451 17.3762
Au 13.3656 5.22914 15.3936
Pd 11.37 5.35171 21.3284
Au 13.3512 5.27206 19.3517
Au 11.4133 5.31084 25.2584
Au 13.358 5.28252 23.282
Au 11.457 5.3565 29.2263
Au 13.4021 5.31037 27.2614
Au 11.3991 5.56782 33.0444
Au 13.3799 5.39465 31.2332
Au 11.423 9.38044 5.32741
Au 13.3938 7.38763 5.40456
Au 11.4387 7.40885 7.40991
Au 11.4537 9.39709 9.39947
Au 13.3935 7.29716 9.39599
Au 13.3887 9.39706 7.30933
Au 11.4435 7.26829 11.4212
Pd 11.3875 9.30574 13.3948
Au 13.374 7.20165 13.3894
Pd 13.3867 9.30426 11.3929
Au 11.3855 7.2235 15.3768
Au 11.334 9.28584 17.3467
Pd 13.3478 7.20742 17.3673
Au 13.3444 9.24876 15.369
Au 11.3654 7.23025 19.3446
Au 11.3516 9.29253 21.3064
Pd 13.3649 7.24063 21.3104
Au 13.3421 9.24467 19.3291
Au 11.4007 7.2636 23.2919
Au 11.4215 9.34806 25.2743
Pd 13.3926 7.2616 25.2632
Au 13.3765 9.27999 23.2884
Au 11.4605 7.30491 27.2312
Au 11.4588 9.39947 29.2278
Pd 13.404 7.34147 29.2388
Pd 13.3983 9.33625 27.2489
Au 11.4345 7.4268 31.1956
Au 11.4123 9.3702 33.3018
Pd 13.3759 7.40043 33.19
Au 13.3993 9.39617 31.3366
Pd 11.3658 13.3293 5.33082
Au 13.3665 11.3462 5.28368
Pd 11.4203 11.3811 7.30616
Pd 11.3926 13.3621 9.30305
Pd 13.3876 11.3801 9.31015
Au 13.3634 13.3451 7.22185
Au 11.4046 11.3675 11.3825
Au 11.3276 13.3539 13.3609
Au 13.3456 11.3182 13.3703
Au 13.3529 13.3644 11.3108
Au 11.317 11.3366 15.3541
Pd 11.2577 13.3449 17.3315
Au 13.307 11.3173 17.3365
Pd 13.3009 13.3395 15.3455
Au 11.2882 11.3487 19.3175
Au 11.2731 13.3631 21.3011
Au 13.3352 11.3234 21.3192
Au 13.278 13.3461 19.32
Au 11.3428 11.3761 23.3081
Pd 11.3379 13.3667 25.2849
Au 13.379 11.369 25.2736
Pd 13.3346 13.3442 23.2994
Pd 11.4179 11.4032 27.2443
Au 11.4122 13.3914 29.3332
Au 13.3998 11.39 29.3149
Au 13.387 13.3803 27.3013
Au 11.4299 11.3967 31.3953
Au 11.3734 13.377 33.4089
Au 13.3959 11.3419 33.4046
Au 13.39 13.3825 31.4785
Au 11.3174 17.3267 5.23753
Au 13.3341 15.315 5.2203
Au 11.3595 15.3379 7.22746
Au 11.3488 17.3526 9.2927
Au 13.3495 15.3618 9.24308
Au 13.3391 17.3349 7.17369
Au 11.3424 15.3542 11.3257
Au 11.2813 17.3486 13.3013
Pd 13.3084 15.3529 13.3186
Pd 13.3161 17.3438 11.2657
Au 11.2665 15.3366 15.3328
Au 11.2156 17.3239 17.3304
Au 13.2602 15.3266 17.3263
Au 13.2714 17.337 15.323
Pd 11.2206 15.321 19.3102
Au 11.2172 17.2976 21.2963
Pd 13.2826 15.3227 21.305
Au 13.2522 17.307 19.3071
Au 11.2785 15.3243 23.3025
Au 11.276 17.3385 25.3067
Au 13.3466 15.3272 25.3113
Au 13.2895 17.318 23.3027
Au 11.3444 15.3592 27.3065
Au 11.3711 17.3615 29.3979
Au 13.3899 15.3756 29.4186
Au 13.3587 17.3397 27.3737
Au 11.3962 15.3858 31.4545
Au 11.3455 17.3809 33.3931
Au 13.3542 15.3823 33.4491
Pd 13.3623 17.3751 31.4783
Pd 11.3321 21.326 5.35411
Au 13.2928 19.3504 5.21898
Au 11.3506 19.3193 7.23362
Au 11.347 21.2743 9.29025
Pd 13.3235 19.3061 9.23387
Pd 13.3211 21.2988 7.23607
Pd 11.3128 19.3158 11.3013
Pd 11.2669 21.2719 13.2895
Au 13.2801 19.3245 13.2671
Pd 13.3007 21.2713 11.2624
Au 11.2282 19.3192 15.3085
Au 11.2193 21.2905 17.3362
Pd 13.252 19.3103 17.3286
Au 13.2679 21.2759 15.3025
Au 11.2074 19.3161 19.3179
Au 11.2146 21.3275 21.2972
Au 13.2564 19.3212 21.2964
Pd 13.2562 21.3059 19.3193
Au 11.2209 19.3255 23.2933
Au 11.2779 21.3289 25.2979
Au 13.3147 19.3401 25.33
Au 13.283 21.3367 23.2952
Au 11.3242 19.3406 27.3398
Au 11.3628 21.3282 29.3826
Au 13.37 19.3547 29.448
Au 13.3659 21.3408 27.3733
Pd 11.3684 19.3544 31.4219
Au 11.3387 21.3364 33.3635
Au 13.3255 19.3703 33.42
Pd 13.3664 21.3367 31.4481
Au 11.3772 25.2255 5.34129
Pd 13.3009 23.288 5.34856
Pd 11.3538 23.2753 7.30678
Pd 11.3659 25.2267 9.31039
Au 13.3161 23.253 9.25185
Pd 13.3412 25.2281 7.28543
Pd 11.3238 23.2388 11.2979
Au 11.3093 25.2408 13.3117
Au 13.2978 23.2314 13.2814
Au 13.3275 25.2406 11.2827
Au 11.2487 23.2542 15.3119
Au 11.2578 25.2831 17.3343
Au 13.2716 23.2808 17.3354
Au 13.3131 25.2774 15.3195
Au 11.2277 23.2982 19.3405
Pd 11.2596 25.2957 21.2955
Pd 13.2781 23.3119 21.2917
Au 13.2924 25.3096 19.335
Au 11.2554 23.3118 23.2651
Au 11.3183 25.2783 25.2622
Pd 13.33 23.3028 25.3029
Au 13.3156 25.2983 23.2615
Au 11.3388 23.297 27.3101
Au 11.3764 25.2594 29.3235
Au 13.4018 23.294 29.4003
Au 13.3867 25.2626 27.3146
Au 11.3714 23.3012 31.3964
Au 11.3544 25.2656 33.3519
Au 13.361 23.3041 33.4028
Au 13.3964 25.2656 31.4275
Au 11.4095 29.1901 5.33633
Pd 13.3444 27.2106 5.3673
Au 11.4018 27.1796 7.32332
Pd 11.4144 29.2185 9.37314
Pd 13.3615 27.226 9.29946
Au 13.3622 29.2054 7.31303
Au 11.3713 27.244 11.321
Au 11.3645 29.3328 13.3319
Au 13.35 27.3012 13.3225
Au 13.3754 29.3104 11.3333
Au 11.3199 27.2942 15.3315
Au 11.3498 29.3752 17.3228
Au 13.3258 27.3567 17.3313
Au 13.3525 29.4123 15.3299
Au 11.304 27.3209 19.3211
Au 11.3348 29.378 21.2929
Au 13.3179 27.3486 21.2898
Pd 13.3287 29.4338 19.302
Au 11.3043 27.3025 23.2661
Au 11.3595 29.3204 25.244
Au 13.3636 27.3249 25.2602
Au 13.3466 29.4005 23.2769
Au 11.3782 27.2541 27.2415
Au 11.4229 29.2415 29.2133
Au 13.3963 27.2594 29.3017
Pd 13.3816 29.3387 27.2245
Au 11.406 27.2281 31.3536
Au 11.4063 29.2707 33.286
Au 13.3789 27.282 33.3746
Au 13.3878 29.2595 31.3233
Au 11.3843 33.0461 5.52074
Au 13.3694 31.2078 5.36821
Au 11.413 31.1973 7.39418
Au 11.4027 33.309 9.35391
Au 13.3799 31.3257 9.36462
Au 13.3768 33.2324 7.34651
Au 11.4032 31.3618 11.3593
Pd 11.3603 33.3245 13.3216
Au 13.381 31.4481 13.3348
Au 13.3977 33.3592 11.3224
Au 11.3604 31.4424 15.3261
Au 11.3196 33.4096 17.2905
Pd 13.334 31.4643 17.3017
Au 13.356 33.4111 15.3107
Au 11.3479 31.446 19.2845
Pd 11.3108 33.3315 21.2904
Au 13.3281 31.4802 21.2752
Au 13.3141 33.4355 19.269
Pd 11.3554 31.3895 23.2769
Au 11.3552 33.366 25.2468
Au 13.3698 31.4256 25.2597
Au 13.3227 33.4155 23.2746
Au 11.4026 31.3623 27.2245
Au 11.4066 33.3086 29.24
Au 13.3977 31.3401 29.2104
Au 13.3835 33.3692 27.2581
Au 11.4171 31.2264 31.1757
Pd 11.3765 33.0793 32.9971
Au 13.3669 31.273 33.2189
Au 13.3927 33.2484 31.2199
Pd 15.3588 5.56751 5.57846
Pd 15.3598 5.36233 9.3309
Au 17.3329 5.40009 7.38
Pd 15.3529 5.27596 13.3655
Au 17.3309 5.25371 11.3264
Pd 15.3172 5.28626 17.3814
Pd 17.3017 5.2548 15.3827
Pd 15.3011 5.29038 21.3055
Pd 17.2736 5.26843 19.3309
Au 15.318 5.26227 25.2808
Au 17.2721 5.20382 23.2937
Au 15.3407 5.33855 29.278
Pd 17.2944 5.32281 27.2952
Au 15.3602 5.54301 33.0769
Au 17.353 5.3748 31.2495
Pd 15.3602 9.33081 5.37748
Au 17.3302 7.37185 5.40938
Pd 15.3551 7.4124 7.41932
Au 15.3471 9.35113 9.35895
Au 17.3425 7.28109 9.36651
Au 17.3458 9.35695 7.29247
Au 15.3571 7.21907 11.3718
Au 15.3536 9.2366 13.369
Au 17.3473 7.16415 13.3581
Au 17.3492 9.26418 11.3632
Au 15.3448 7.16239 15.387
Au 15.3404 9.20402 17.3494
Pd 17.315 7.17612 17.361
Au 17.348 9.19245 15.36
Pd 15.3209 7.20831 19.3327
Au 15.3459 9.23749 21.3134
Au 17.2936 7.15395 21.3113
Au 17.3251 9.19515 19.324
Pd 15.3309 7.2166 23.2908
Au 15.3437 9.27665 25.2755
Au 17.2989 7.18263 25.2776
Au 17.3185 9.24557 23.2929
Pd 15.3344 7.27906 27.2623
Au 15.3616 9.34852 29.2708
Au 17.3378 7.27882 29.2549
Au 17.3353 9.2832 27.2719
Au 15.3646 7.38706 31.2378
Au 15.3844 9.32285 33.3332
Au 17.3781 7.34746 33.2445
Au 17.366 9.35428 31.3564
Au 15.3465 13.317 5.22134
Au 17.3394 11.3157 5.26637
Au 15.3616 11.3661 7.2326
Au 15.3573 13.368 9.23795
Au 17.3431 11.3562 9.2713
Pd 17.3339 13.3441 7.1872
Au 15.342 11.3348 11.3364
Au 15.3142 13.349 13.3313
Au 17.3447 11.2891 13.3463
Au 17.3339 13.366 11.2723
Au 15.3316 11.2896 15.352
Au 15.3116 13.3159 17.3333
Au 17.3409 11.2565 17.337
Au 17.3318 13.3141 15.3378
Au 15.3401 11.28 19.3282
Au 15.3224 13.3065 21.3103
Pd 17.3253 11.2696 21.3067
Pd 17.3217 13.2886 19.3131
Pd 15.3455 11.3094 23.2954
Pd 15.3562 13.3461 25.304
Au 17.3333 11.3153 25.2914
Au 17.323 13.2941 23.3005
Au 15.3653 11.3598 27.2893
Au 15.3813 13.3922 29.4103
Au 17.3549 11.3677 29.3609
Au 17.3452 13.3752 27.3637
Au 15.3778 11.3676 31.4354
Pd 15.3726 13.3472 33.3899
Pd 17.3781 11.3179 33.3366
Au 17.3638 13.3699 31.4852
Au 15.3071 17.3229 5.17647
Au 17.3076 15.3173 5.18014
Au 15.3542 15.3421 7.16033
Pd 15.3176 17.3349 9.18606
Pd 17.318 15.3569 9.18616
Pd 17.2984 17.3278 7.13611
Au 15.3179 15.3684 11.2488
Au 15.2845 17.3318 13.273
Au 17.3212 15.3405 13.2805
Au 17.3108 17.3214 11.206
Au 15.2853 15.3361 15.3271
Pd 15.28 17.3191 17.3225
Au 17.3119 15.3155 17.3327
Au 17.3035 17.3174 15.3062
Au 15.3002 15.3238 19.3131
Au 15.2965 17.3167 21.2999
Au 17.3175 15.311 21.2941
Pd 17.3063 17.3176 19.3076
Au 15.3178 15.3128 23.3089
Au 15.3385 17.3288 25.3584
Au 17.3352 15.3386 25.3604
Au 17.3309 17.3381 23.3317
Pd 15.3688 15.3531 27.3802
Au 15.367 17.3459 29.4612
Pd 17.3537 15.3673 29.4604
Au 17.3514 17.3341 27.4209
Au 15.3662 15.3798 31.5185
Au 15.3429 17.3676 33.4783
Au 17.3638 15.3335 33.4752
Au 17.3547 17.3548 31.5386
Au 15.2506 21.3352 5.20962
Au 17.2742 19.3195 5.15036
Au 15.2965 19.3155 7.14107
Au 15.2997 21.2824 9.20197
Au 17.302 19.2995 9.15821
Au 17.293 21.3069 7.10456
Au 15.2888 19.3052 11.2252
Pd 15.2998 21.2747 13.2666
Au 17.3119 19.3101 13.2591
Au 17.3281 21.2848 11.2315
Au 15.2775 19.3095 15.3091
Au 15.2778 21.2998 17.3201
Au 17.299 19.301 17.3069
Au 17.3144 21.3009 15.2902
Au 15.2742 19.3041 19.2984
Au 15.2898 21.3207 21.2994
Au 17.3169 19.3199 21.3163
Au 17.3094 21.32 19.2972
Au 15.3154 19.3371 23.3225
Au 15.3305 21.3395 25.3465
Au 17.3393 19.3393 25.3689
Pd 17.3215 21.3124 23.3272
Au 15.3519 19.3451 27.4132
Pd 15.3657 21.3343 29.4596
Au 17.3462 19.3453 29.4801
Au 17.3262 21.3335 27.423
Au 15.3445 19.3608 31.5189
Au 15.3448 21.3633 33.4362
Au 17.3529 19.3686 33.4776
Au 17.3402 21.3519 31.5055
Au 15.2803 25.2541 5.27048
Au 17.2721 23.3031 5.16895
Pd 15.3074 23.2758 7.20551
Au 15.3366 25.2436 9.24141
Au 17.343 23.2709 9.19963
Au 17.3212 25.2432 7.16349
Au 15.319 23.2478 11.2589
Au 15.3412 25.2731 13.2961
Au 17.3397 23.2695 13.2699
Au 17.3734 25.2618 11.2633
Au 15.3119 23.2711 15.2996
Au 15.3186 25.3144 17.3178
Pd 17.3204 23.3127 17.3011
Au 17.3403 25.3087 15.3094
Au 15.2918 23.3157 19.3178
Pd 15.3126 25.3366 21.2942
Au 17.3115 23.3265 21.3076
Au 17.3169 25.3462 19.3002
Au 15.3105 23.3138 23.2903
Au 15.3362 25.2977 25.3024
Au 17.3222 23.3057 25.3419
Au 17.3195 25.3503 23.2916
Pd 15.36 23.3028 27.3854
Pd 15.3709 25.2788 29.3894
Pd 17.3278 23.3146 29.4437
Au 17.3204 25.3054 27.3575
Pd 15.3602 23.3085 31.4421
Au 15.3725 25.3007 33.3965
Pd 17.3484 23.3594 33.3749
Au 17.3344 25.3032 31.4323
Pd 15.3329 29.2489 5.38046
Pd 17.3022 27.2563 5.30324
Au 15.3307 27.2192 7.24256
Au 15.3637 29.2571 9.32305
Au 17.3658 27.2393 9.26194
Au 17.347 29.2317 7.25931
Au 15.3634 27.2734 11.3025
Au 15.3713 29.3969 13.3297
Au 17.3697 27.338 13.3104
Au 17.3726 29.3472 11.3414
Au 15.3441 27.3576 15.32
Au 15.3265 29.4622 17.3156
Au 17.3321 27.3934 17.3109
Au 17.3523 29.4454 15.3161
Au 15.3129 27.3859 19.309
Au 15.324 29.4466 21.2783
Au 17.3216 27.4051 21.2862
Au 17.324 29.4812 19.2869
Au 15.342 27.378 23.2773
Pd 15.3505 29.4022 25.2618
Au 17.3244 27.3838 25.2893
Pd 17.3183 29.4522 23.2713
Au 15.3572 27.3265 27.2752
Au 15.3526 29.3056 29.2407
Au 17.3291 27.3027 29.3291
Pd 17.3211 29.3736 27.2548
Au 15.3599 27.2797 31.3992
Au 15.3553 29.3257 33.3164
Pd 17.3515 27.3255 33.3018
Au 17.3341 29.2902 31.3331
Au 15.3603 33.059 5.50616
Au 17.3462 31.2245 5.35735
Au 15.3587 31.2217 7.35956
Pd 15.3754 33.2473 9.29789
Au 17.3619 31.3286 9.33299
Au 17.3692 33.2172 7.3265
Au 15.3801 31.404 11.3408
Pd 15.3802 33.351 13.3067
Pd 17.3545 31.4277 13.3272
Pd 17.3597 33.2916 11.293
Au 15.3612 31.4901 15.3223
Pd 15.3289 33.3942 17.284
Pd 17.3344 31.4949 17.2937
Au 17.3317 33.4287 15.2943
Au 15.3109 31.5121 19.2712
Au 15.3068 33.4612 21.26
Au 17.3091 31.517 21.2703
Pd 17.3092 33.4079 19.2761
Au 15.3272 31.4784 23.272
Au 15.3395 33.4069 25.2848
Au 17.297 31.4434 25.2632
Pd 17.2888 33.4045 23.2644
Pd 15.3466 31.377 27.2414
Au 15.3596 33.3194 29.2642
Au 17.3109 31.351 29.2364
Pd 17.3052 33.3229 27.2777
Pd 15.3517 31.2382 31.2077
Au 15.3505 33.087 33.0702
Au 17.3384 31.2747 33.2319
Au 17.3163 33.2438 31.2381
Au 19.2963 5.5447 5.55354
Au 19.3064 5.31134 9.32434
Au 21.2817 5.38314 7.37989
Au 19.2779 5.18998 13.3358
Au 21.2645 5.24176 11.3185
Au 19.256 5.17297 17.3648
Au 21.2759 5.1432 15.3541
Pd 19.2762 5.23093 21.31
Pd 21.2887 5.21359 19.3233
Au 19.2947 5.19827 25.3056
Au 21.3128 5.1811 23.3039
Au 19.3322 5.30334 29.2897
Au 21.341 5.25412 27.2981
Au 19.3737 5.53194 33.0447
Au 21.3396 5.38989 31.2113
Au 19.3106 9.31417 5.31215
Au 21.3042 7.3516 5.39076
Pd 19.3173 7.39348 7.40627
Au 19.3254 9.32379 9.34531
Pd 21.2818 7.28947 9.37255
Au 21.2894 9.35704 7.28207
Pd 19.3094 7.21771 11.353
Pd 19.3169 9.21004 13.3647
Au 21.2668 7.13341 13.3583
Au 21.279 9.24947 11.3771
Au 19.2963 7.12478 15.369
Pd 19.3138 9.17933 17.3385
Au 21.2874 7.10154 17.334
Au 21.2835 9.19966 15.3561
Au 19.2894 7.12616 19.3148
Au 19.2976 9.20098 21.3062
Au 21.2942 7.1167 21.3049
Au 21.294 9.18807 19.3008
Au 19.2957 7.13089 23.3036
Au 19.3121 9.2485 25.2914
Au 21.3126 7.16271 25.2939
Au 21.2859 9.2119 23.2928
Au 19.3248 7.20718 27.2677
Au 19.3315 9.34092 29.2699
Au 21.3194 7.28951 29.2284
Pd 21.2928 9.28749 27.269
Pd 19.349 7.39335 31.2065
Au 19.371 9.31054 33.3074
Au 21.3471 7.36105 33.1996
Au 21.3196 9.36821 31.3194
Au 19.301 13.3081 5.20773
Au 21.301 11.3167 5.25792
Pd 19.3088 11.3493 7.22787
Au 19.2963 13.3726 9.21912
Au 21.2834 11.3591 9.27577
Au 21.2768 13.3515 7.15995
Au 19.3235 11.3196 11.3336
Au 19.3367 13.3379 13.319
Au 21.2943 11.2935 13.3707
Au 21.2916 13.3738 11.3003
Au 19.3292 11.2639 15.3523
Pd 19.3232 13.2891 17.324
Au 21.307 11.2753 17.32
Pd 21.3147 13.3082 15.335
Au 19.3061 11.2554 19.3051
Au 19.3059 13.2841 21.296
Au 21.2945 11.2649 21.2883
Au 21.3165 13.2994 19.2991
Pd 19.3062 11.2736 23.293
Au 19.3078 13.3294 25.331
Au 21.2722 11.3003 25.3037
Au 21.2881 13.324 23.293
Pd 19.3091 11.3339 27.312
Au 19.3241 13.3826 29.4073
Au 21.2911 11.3641 29.341
Au 21.272 13.3662 27.3645
Au 19.3474 11.362 31.4159
Au 19.3693 13.3128 33.4238
Pd 21.3399 11.3222 33.2838
Pd 21.3084 13.352 31.4219
Au 19.2829 17.3215 5.14387
Au 21.3055 15.3347 5.17225
Au 19.2802 15.3434 7.12481
Au 19.3002 17.3231 9.16625
Au 21.2884 15.3588 9.21197
Au 21.303 17.3407 7.11104
Pd 19.312 15.3506 11.2451
Au 19.3339 17.3135 13.2616
Pd 21.3121 15.3303 13.2969
Au 21.3174 17.3146 11.2497
Au 19.3384 15.3044 15.3125
Au 19.3243 17.3117 17.3065
Au 21.3278 15.2852 17.3041
Au 21.3265 17.3095 15.2846
Au 19.3148 15.2973 19.3073
Au 19.3237 17.3231 21.3186
Pd 21.3024 15.3205 21.3073
Au 21.321 17.3013 19.3078
Au 19.3227 15.3357 23.3157
Au 19.3303 17.3627 25.3699
Au 21.2866 15.365 25.3382
Pd 21.2994 17.3364 23.3282
Pd 19.3211 15.3675 27.4041
Au 19.3266 17.3443 29.4761
Pd 21.2949 15.3716 29.4515
Au 21.2875 17.3698 27.4062
Au 19.346 15.3418 31.5089
Pd 19.3402 17.342 33.4348
Au 21.3298 15.3044 33.4473
Au 21.3116 17.3548 31.5339
Au 19.3115 21.3042 5.13932
Au 21.3433 19.3096 5.13615
Au 19.3005 19.3056 7.09015
Au 19.3307 21.2803 9.16756
Pd 21.3214 19.2932 9.1777
Au 21.3349 21.2612 7.11202
Au 19.3376 19.3002 11.2194
Au 19.3548 21.303 13.2661
Pd 21.3325 19.3087 13.2674
Au 21.3264 21.288 11.2478
Au 19.345 19.3174 15.2785
Au 19.335 21.3141 17.2807
Pd 21.3237 19.3148 17.2851
Pd 21.3329 21.312 15.2766
Au 19.3214 19.3099 19.3002
Au 19.3162 21.3102 21.3305
Au 21.3165 19.3132 21.3335
Au 21.3262 21.3133 19.2991
Pd 19.3244 19.3225 23.3455
Au 19.3225 21.2936 25.3616
Pd 21.3038 19.3284 25.3644
Au 21.3188 21.3009 23.3453
Pd 19.3191 19.3389 27.421
Au 19.3204 21.3356 29.4628
Au 21.3038 19.3454 29.4636
Au 21.3215 21.3006 27.3794
Pd 19.329 19.3567 31.5159
Au 19.3271 21.3717 33.4748
Au 21.3081 19.3525 33.4931
Au 21.3116 21.3436 31.5382
Au 19.3173 25.2736 5.18323
Pd 21.3508 23.2642 5.2176
Au 19.3209 23.274 7.11232
Pd 19.3347 25.2484 9.21126
Au 21.3125 23.2612 9.19443
Au 21.3193 25.2504 7.14313
Pd 19.3433 23.2703 11.2431
Au 19.3505 25.2829 13.2931
Pd 21.328 23.29 13.2978
Au 21.2988 25.2525 11.2892
Au 19.3488 23.3049 15.29
Au 19.3432 25.3438 17.3009
Au 21.3349 23.328 17.2768
Pd 21.3305 25.3158 15.3022
Au 19.3291 23.336 19.2896
Au 19.3325 25.3639 21.2846
Au 21.3262 23.325 21.304
Pd 21.3361 25.3583 19.2879
Au 19.315 23.3152 23.3276
Au 19.3146 25.3525 25.3264
Au 21.3205 23.3027 25.3497
Au 21.3107 25.3518 23.3063
Au 19.3144 23.3127 27.3888
Au 19.3156 25.3166 29.3967
Au 21.3234 23.3209 29.4193
Au 21.3073 25.3284 27.3368
Au 19.3388 23.3511 31.4824
Pd 19.3618 25.3811 33.3161
Au 21.3216 23.4077 33.4281
Pd 21.3349 25.343 31.3953
Au 19.3191 29.2766 5.28084
Au 21.3296 27.2744 5.21525
Au 19.3294 27.2375 7.18279
Au 19.3341 29.2624 9.32665
Au 21.2905 27.2398 9.27386
Au 21.3082 29.2443 7.26441
Pd 19.3369 27.2812 11.3111
Pd 19.336 29.4075 13.331
Au 21.3083 27.3138 13.3262
Au 21.2909 29.3303 11.347
Au 19.3457 27.368 15.3115
Au 19.3399 29.4652 17.3135
Au 21.3408 27.3895 17.3183
Au 21.3162 29.4306 15.3309
Au 19.3455 27.408 19.2907
Au 19.3233 29.4753 21.2722
Au 21.3294 27.403 21.2609
Pd 21.329 29.4631 19.2861
Au 19.317 27.4055 23.2862
Au 19.296 29.404 25.2724
Pd 21.2996 27.3635 25.2928
Au 21.3076 29.4417 23.2746
Pd 19.3062 27.3353 27.2973
Au 19.3067 29.31 29.256
Au 21.3115 27.3101 29.3362
Au 21.2947 29.3563 27.2513
Au 19.346 27.3154 31.3853
Au 19.3456 29.3101 33.2916
Pd 21.3628 27.3697 33.2472
Pd 21.3185 29.2912 31.2846
Au 19.3564 33.0224 5.52139
Au 21.3221 31.2129 5.37581
Pd 19.3306 31.1881 7.37726
Au 19.3362 33.281 9.28248
Pd 21.3023 31.2844 9.34357
Pd 21.3083 33.1192 7.37175
Au 19.3332 31.4026 11.33
Pd 19.3105 33.3635 13.2949
Au 21.3014 31.4729 13.3288
Au 21.293 33.3682 11.2646
Au 19.3163 31.507 15.3169
Au 19.3101 33.4755 17.3018
Au 21.3275 31.5108 17.3269
Au 21.3175 33.4554 15.3229
Au 19.3287 31.5316 19.2805
Pd 19.3168 33.4153 21.2722
Au 21.3241 31.5161 21.2645
Au 21.3425 33.4609 19.2976
Au 19.296 31.5046 23.264
Au 19.2399 33.4477 25.2407
Au 21.2875 31.495 25.2445
Au 21.3059 33.4656 23.2603
Au 19.281 31.4217 27.2378
Pd 19.2952 33.2717 29.2903
Au 21.2916 31.367 29.2104
Au 21.1905 33.4399 27.1927
Au 19.3273 31.2512 31.2224
Pd 19.3311 33.0914 33.0409
Au 21.3088 31.2474 33.2203
Au 21.324 33.267 31.2232
Au 23.3036 5.53421 5.59075
Au 23.2623 5.30213 9.34063
Au 25.2839 5.37786 7.43254
Au 23.3039 5.19097 13.3292
Au 25.3335 5.27169 11.3257
Au 23.3318 5.15364 17.3483
Au 25.3592 5.20982 15.3446
Pd 23.3268 5.2379 21.3095
Au 25.3542 5.22857 19.3314
Au 23.3365 5.24391 25.3112
Au 25.3235 5.24634 23.3051
Pd 23.3301 5.39933 29.2469
Pd 25.296 5.39513 27.2505
Pd 23.3576 5.55174 32.9986
Au 25.3175 5.43925 31.1481
Au 23.3077 9.31982 5.33216
Pd 25.2934 7.38512 5.49581
Au 23.2802 7.3891 7.4152
Au 23.2654 9.34099 9.37067
Au 25.2707 7.30166 9.40283
Pd 25.2475 9.40269 7.35058
Au 23.2661 7.19197 11.3709
Au 23.269 9.23029 13.3862
Au 25.3058 7.18155 13.3655
Au 25.2628 9.30568 11.4192
Au 23.2941 7.11295 15.3509
Au 23.2833 9.22291 17.3217
Au 25.3044 7.16832 17.3422
Au 25.2827 9.26208 15.3501
Au 23.3012 7.12374 19.3092
Au 23.2832 9.21034 21.285
Au 25.3039 7.18404 21.2926
Au 25.28 9.25025 19.3043
Au 23.3022 7.15353 23.298
Au 23.2715 9.26671 25.2756
Pd 25.2699 7.26508 25.2607
Au 25.2686 9.28115 23.2797
Pd 23.2902 7.27901 27.2407
Au 23.2817 9.37145 29.2477
Au 25.2731 7.35279 29.1842
Au 25.2466 9.34385 27.2177
Au 23.3164 7.40569 31.1904
Pd 23.3131 9.34766 33.2098
Au 25.3001 7.41199 33.1583
Au 25.2666 9.42839 31.2784
Pd 23.2939 13.3621 5.28511
Au 25.2419 11.3785 5.26991
Au 23.2809 11.3627 7.22682
Au 23.27 13.3823 9.26006
Au 25.2428 11.4038 9.3464
Au 25.256 13.4113 7.23523
Au 23.2633 11.3465 11.3672
Au 23.2735 13.3589 13.3514
Au 25.2684 11.3368 13.3949
Au 25.2778 13.391 11.3572
Pd 23.2744 11.2974 15.3498
Pd 23.2899 13.308 17.3136
Au 25.2684 11.3198 17.316
Au 25.274 13.3471 15.3421
Pd 23.2863 11.2851 19.298
Au 23.2862 13.3447 21.2892
Au 25.273 11.3253 21.2885
Au 25.2841 13.3472 19.3033
Au 23.2744 11.3032 23.2866
Au 23.2659 13.3546 25.2971
Pd 25.2582 11.3619 25.2518
Au 25.2784 13.3617 23.2723
Au 23.2681 11.3536 27.2884
Au 23.2631 13.3737 29.3966
Pd 25.2443 11.4085 29.3049
Au 25.255 13.3802 27.3141
Pd 23.2835 11.3719 31.3367
Pd 23.2974 13.3081 33.3149
Au 25.2559 11.3542 33.2979
Au 25.2628 13.3478 31.3945
Au 23.35 17.3321 5.19915
Pd 25.3045 15.3938 5.30935
Au 23.2898 15.3771 7.17016
Au 23.3162 17.3315 9.22817
Au 25.2992 15.3438 9.28587
Pd 25.3231 17.3098 7.2511
Pd 23.2947 15.3464 11.2959
Au 23.3095 17.3011 13.2916
Pd 25.2999 15.3437 13.3336
Au 25.3085 17.3067 11.3169
Pd 23.295 15.3161 15.3126
Au 23.3113 17.3066 17.2998
Au 25.3034 15.3242 17.3195
Au 25.3238 17.3114 15.2964
Pd 23.3023 15.3134 19.3077
Au 23.2956 17.294 21.3165
Pd 25.3095 15.3341 21.2922
Au 25.3342 17.2986 19.3157
Pd 23.2732 15.3449 23.2981
Au 23.2671 17.3586 25.3338
Au 25.2715 15.3608 25.2945
Au 25.3025 17.322 23.2889
Au 23.2579 15.3748 27.3781
Au 23.2834 17.3674 29.4483
Au 25.2754 15.3664 29.4007
Au 25.2814 17.3613 27.3515
Au 23.2821 15.3492 31.4832
Au 23.3235 17.3378 33.4773
Au 25.3011 15.3138 33.3985
Au 25.3114 17.3634 31.4913
Au 23.3839 21.2505 5.1959
Pd 25.3735 19.2526 5.3008
Au 23.3482 19.286 7.16048
Au 23.3245 21.2535 9.21356
Pd 25.3091 19.2893 9.25816
Pd 25.3238 21.2513 7.22212
Au 23.3222 19.3013 11.2663