1687
Atoms. Timestep: 20207
Au 5.71305 5.5402 7.51004
Au 5.65715 5.4916 11.3637
Au 5.61949 5.49116 15.3148
Au 5.58808 5.5001 19.3446
Au 5.617 5.51402 23.3677
Au 5.6683 5.556 27.2912
Au 5.73185 5.58585 31.1091
Pd 5.67547 7.45155 5.66463
Au 5.47277 7.3846 9.43069
Au 5.45914 9.38398 7.47868
Pd 5.52373 7.35262 13.3377
Au 5.39655 9.34768 11.3879
Au 5.4237 7.31217 17.3069
Pd 5.41918 9.29137 15.3083
Au 5.41979 7.32005 21.3526
Au 5.31648 9.26049 19.3194
Au 5.46859 7.36574 25.3392
Pd 5.41182 9.28476 23.3459
Pd 5.58604 7.43328 29.2109
Pd 5.46895 9.33982 27.2753
Pd 5.74054 7.45366 32.9868
Pd 5.57397 9.37455 31.165
Au 5.5668 11.3005 5.58196
Pd 5.43541 11.3539 9.40453
Au 5.40774 13.3131 7.38957
Au 5.32089 11.3101 13.3167
Au 5.32345 13.3136 11.3484
Au 5.25725 11.2619 17.2915
Au 5.22431 13.2783 15.272
Au 5.24358 11.2579 21.341
Au 5.1632 13.2563 19.308
Pd 5.35252 11.3059 25.3228
Au 5.18809 13.2777 23.341
Au 5.37895 11.3298 29.2681
Au 5.27375 13.3262 27.3275
Au 5.63069 11.2909 33.0725
Au 5.40395 13.3012 31.2789
Au 5.56064 15.3159 5.5413
Au 5.33266 15.3105 9.3355
Au 5.41699 17.321 7.35918
Au 5.23656 15.2999 13.2689
Au 5.26751 17.3232 11.2781
Au 5.13397 15.2792 17.2833
Au 5.14751 17.3121 15.2617
Au 5.11165 15.2829 21.3174
Au 5.08868 17.3084 19.2939
Au 5.18289 15.3106 25.37
Au 5.10944 17.3155 23.3468
Au 5.31566 15.3267 29.3481
Au 5.23638 17.3163 27.3929
Au 5.5571 15.3093 33.1013
Au 5.3741 17.3323 31.3013
Pd 5.6054 19.3144 5.55059
Au 5.33189 19.3201 9.28516
Au 5.43479 21.301 7.3475
Au 5.19373 19.3311 13.2544
Au 5.27567 21.307 11.267
Au 5.11482 19.3468 17.2772
Au 5.17933 21.3367 15.2865
Au 5.08684 19.3423 21.3133
Au 5.121 21.352 19.2797
Au 5.15412 19.3316 25.3799
Au 5.13055 21.3567 23.3377
Au 5.30945 19.3386 29.3722
Au 5.23939 21.3429 27.3942
Au 5.5422 19.3635 33.0945
Pd 5.46697 21.3578 31.2556
Au 5.59492 23.2917 5.5236
Pd 5.40874 23.2875 9.29101
Au 5.44606 25.2768 7.35037
Pd 5.29118 23.2929 13.2866
Au 5.30687 25.2484 11.3102
Pd 5.22835 23.3288 17.2869
Au 5.23621 25.2784 15.2976
Au 5.138 23.348 21.3092
Au 5.19501 25.3283 19.2932
Au 5.20361 23.3445 25.3393
Au 5.2111 25.329 23.3076
Au 5.35065 23.3319 29.3424
Au 5.30184 25.3145 27.3334
Au 5.59483 23.3355 33.072
Au 5.44129 25.2936 31.2463
Au 5.65121 27.2361 5.53641
Au 5.36899 27.2135 9.33726
Au 5.48068 29.1499 7.40364
Au 5.27072 27.2371 13.3091
Au 5.35132 29.2221 11.3336
Au 5.22958 27.2954 17.3003
Au 5.28851 29.3104 15.292
Pd 5.30095 27.3305 21.3049
Au 5.29099 29.3196 19.3137
Au 5.28268 27.2934 25.3005
Au 5.31962 29.3052 23.2919
Au 5.39729 27.2578 29.2731
Au 5.37593 29.2244 27.2788
Au 5.62287 27.2732 33.0764
Au 5.46961 29.2208 31.1957
Au 5.67046 31.0669 5.58036
Pd 5.51458 31.1121 9.35713
Au 5.65014 32.9418 7.4304
Au 5.38841 31.2519 13.2773
Au 5.58452 33.0348 11.2722
Au 5.35265 31.277 17.3021
Pd 5.54477 33.0684 15.2817
Au 5.3615 31.2593 21.3017
Au 5.51273 33.0865 19.3014
Au 5.39451 31.2343 25.3114
Au 5.52323 33.0692 23.3105
Au 5.4519 31.1539 29.2153
Au 5.58042 33.0622 27.3118
Au 5.68265 31.1402 33.0177
Pd 5.6529 32.9744 31.117
Au 7.55506 5.58427 5.63346
Au 7.53081 5.37522 9.42955
Pd 9.48575 5.45675 7.45926
Au 7.46447 5.34545 13.3575
Pd 9.44838 5.36556 11.4065
Au 7.41131 5.3425 17.3401
Pd 9.3819 5.3424 15.3619
Au 7.42812 5.36851 21.3506
Au 9.36516 5.3027 19.3633
Au 7.47887 5.39726 25.3165
Pd 9.39428 5.39535 23.3121
Au 7.54629 5.41482 29.1878
Au 9.46255 5.35289 27.2341
Au 7.58348 5.56638 32.9647
Au 9.49232 5.39859 31.1453
Au 7.48007 9.39186 5.42615
Au 9.46346 7.42014 5.40774
Au 7.55664 7.47089 7.51603
Au 7.41073 9.41427 9.45987
Au 9.50728 7.3493 9.45429
Au 9.4918 9.42512 7.35831
Au 7.47703 7.37961 11.3981
Au 7.36837 9.37501 13.357
Au 9.43746 7.29484 13.3895
Au 9.44214 9.38295 11.4288
Au 7.44029 7.35856 15.3396
Au 7.31264 9.33223 17.3262
Au 9.39011 7.27034 17.3536
Pd 9.36599 9.33444 15.3486
Au 7.41762 7.35417 19.3393
Au 7.30348 9.3363 21.3187
Pd 9.38257 7.31596 21.3187
Pd 9.33801 9.3316 19.3265
Au 7.44865 7.37213 23.3273
Au 7.36459 9.36669 25.2979
Pd 9.44697 7.34016 25.2796
Au 9.37173 9.35407 23.3065
Pd 7.52819 7.421 27.2444
Au 7.45859 9.41532 29.1883
Pd 9.50306 7.38799 29.1786
Au 9.44989 9.39943 27.2253
Au 7.59767 7.47882 31.1105
Au 7.52284 9.39361 33.2005
Pd 9.46074 7.44514 33.1371
Pd 9.48579 9.43287 31.2369
Au 7.3946 13.3076 5.38188
Au 9.42583 11.362 5.33671
Au 7.44382 11.3626 7.4186
Au 7.32671 13.3419 9.40635
Au 9.43034 11.3937 9.39582
Au 9.42012 13.3337 7.30243
Pd 7.34413 11.3675 11.4093
Pd 7.25076 13.3316 13.3297
Pd 9.34154 11.3565 13.3803
Au 9.32943 13.3463 11.3819
Au 7.25821 11.3372 15.3144
Au 7.1476 13.3119 17.3155
Au 9.27599 11.3426 17.3321
Au 9.24679 13.3388 15.3347
Au 7.20346 11.3164 19.3162
Au 7.1274 13.3148 21.3083
Au 9.26826 11.354 21.2999
Pd 9.20065 13.336 19.3079
Au 7.23307 11.3448 23.3186
Au 7.19107 13.358 25.3114
Pd 9.32432 11.3814 25.2805
Au 9.23399 13.3509 23.3123
Au 7.31126 11.3827 27.2578
Au 7.30832 13.3617 29.27
Au 9.44074 11.4037 29.2429
Au 9.32539 13.3708 27.2592
Au 7.47076 11.3647 31.2239
Pd 7.41822 13.3272 33.1956
Au 9.40376 11.3645 33.3154
Au 9.41764 13.3721 31.3567
Au 7.39086 17.3158 5.37874
Au 9.34625 15.3079 5.30341
Au 7.40544 15.316 7.38669
Au 7.30182 17.3328 9.35836
Au 9.36636 15.3326 9.35499
Au 9.37333 17.33 7.28134
Pd 7.25951 15.3323 11.3442
Au 7.1607 17.3372 13.2915
Au 9.23929 15.3447 13.3294
Au 9.28396 17.3536 11.3331
Au 7.12897 15.3153 15.2997
Au 7.05851 17.3154 17.3042
Au 9.18162 15.3146 17.3305
Au 9.17527 17.3328 15.3121
Au 7.07494 15.3025 19.3077
Au 7.03372 17.3178 21.3056
Au 9.16259 15.3144 21.2913
Au 9.12889 17.3072 19.3127
Au 7.08563 15.3244 23.313
Au 7.10763 17.3222 25.3371
Au 9.22102 15.3448 25.3016
Au 9.14615 17.3183 23.2983
Pd 7.22425 15.345 27.3198
Pd 7.28472 17.3327 29.3119
Au 9.3424 15.3627 29.3092
Au 9.24349 17.3386 27.3118
Au 7.38893 15.3461 31.266
Au 7.35216 17.3394 33.2746
Pd 9.33277 15.3605 33.2845
Au 9.3665 17.3574 31.3815
Au 7.42138 21.3031 5.37997
Au 9.34014 19.3212 5.30822
Pd 7.43549 19.311 7.39694
Au 7.32675 21.278 9.34428
Pd 9.35953 19.3082 9.33578
Au 9.39222 21.2919 7.305
Pd 7.24756 19.3169 11.3119
Au 7.17646 21.2819 13.2965
Pd 9.22544 19.3123 13.3084
Au 9.30952 21.2642 11.3194
Au 7.09963 19.3223 15.2988
Pd 7.11075 21.3117 17.3022
Au 9.13249 19.3155 17.3214
Au 9.18106 21.282 15.306
Au 7.03381 19.3319 19.3005
Au 7.05728 21.3408 21.3134
Au 9.11596 19.3174 21.3037
Au 9.1263 21.3171 19.3242
Au 7.05233 19.3275 23.3184
Au 7.11562 21.3317 25.318
Au 9.1781 19.3288 25.3054
Au 9.14789 21.3264 23.2875
Au 7.1754 19.3293 27.3436
Pd 7.31976 21.3336 29.2967
Au 9.32745 19.3301 29.3222
Au 9.25999 21.3229 27.311
Au 7.37933 19.3375 31.2634
Au 7.38104 21.3511 33.2485
Au 9.32592 19.3506 33.3382
Au 9.35682 21.3254 31.3423
Au 7.46096 25.2635 5.39021
Au 9.4045 23.2873 5.34113
Au 7.44754 23.2839 7.37525
Au 7.36475 25.25 9.35296
Pd 9.38023 23.2518 9.33846
Pd 9.43021 25.2303 7.34772
Au 7.2637 23.2701 11.3226
Pd 7.24159 25.2535 13.3244
Au 9.25456 23.2498 13.3076
Au 9.34503 25.2282 11.32
Au 7.15115 23.291 15.3155
Pd 7.17348 25.2947 17.3156
Au 9.1624 23.2842 17.3269
Au 9.22302 25.2617 15.3259
Au 7.09813 23.3122 19.3031
Au 7.14551 25.2885 21.3048
Pd 9.16223 23.3041 21.3053
Au 9.19944 25.2837 19.3305
Pd 7.1348 23.3174 23.3008
Au 7.20364 25.2985 25.2863
Au 9.21845 23.3031 25.2798
Au 9.22491 25.2849 23.27
Au 7.22853 23.3144 27.3247
Pd 7.36318 25.2819 29.2659
Pd 9.35131 23.3007 29.2963
Au 9.30643 25.2756 27.2771
Pd 7.43663 23.3235 31.2101
Au 7.43289 25.2749 33.2198
Pd 9.3379 23.3046 33.2428
Pd 9.39493 25.2695 31.2877
Pd 7.53614 29.1481 5.46895
Au 9.44656 27.1781 5.35859
Pd 7.49855 27.1937 7.42282
Au 7.42337 29.141 9.40065
Pd 9.43273 27.1974 9.37147
Au 9.49592 29.1388 7.37095
Au 7.30473 27.2085 11.3557
Au 7.29713 29.2324 13.3235
Au 9.31333 27.2454 13.329
Pd 9.40649 29.2272 11.36
Au 7.19728 27.2513 15.316
Au 7.24444 29.2787 17.3069
Au 9.25115 27.2796 17.3256
Au 9.33992 29.2901 15.3259
Au 7.18538 27.2922 19.3076
Pd 7.29673 29.2869 21.2993
Au 9.25739 27.2957 21.3018
Au 9.32266 29.3119 19.3135
Au 7.23167 27.2962 23.2838
Au 7.32194 29.2323 25.2755
Pd 9.30242 27.2561 25.2554
Pd 9.34086 29.2889 23.2803
Pd 7.32696 27.2412 27.2653
Pd 7.42563 29.1833 29.2005
Pd 9.40485 27.2233 29.2388
Au 9.39223 29.2202 27.2326
Au 7.46401 27.2375 31.2014
Au 7.49499 29.2252 33.2084
Au 9.39961 27.2348 33.2902
Au 9.46449 29.1828 31.2332
Au 7.51388 32.9627 5.56977
Au 9.46301 31.1409 5.38679
Au 7.55354 31.0817 7.46403
Pd 7.48903 33.1248 9.35854
Au 9.47799 31.2352 9.41284
Au 9.44575 33.189 7.39809
Au 7.43775 31.1922 11.3434
Au 7.37107 33.2443 13.286
Au 9.38508 31.3406 13.3278
Au 9.38456 33.293 11.3428
Au 7.37479 31.2513 15.3011
Pd 7.35936 33.1966 17.3069
Au 9.36242 31.3744 17.3087
Au 9.30824 33.3313 15.3011
Au 7.36145 31.2579 19.3126
Au 7.34726 33.2597 21.3017
Au 9.36015 31.356 21.3097
Au 9.31019 33.3327 19.3088
Au 7.38606 31.2336 23.2861
Au 7.38121 33.2411 25.288
Au 9.39284 31.3265 25.2513
Au 9.33777 33.3155 23.2861
Au 7.44207 31.203 27.2636
Au 7.48066 33.2073 29.2188
Pd 9.46039 31.2437 29.1898
Au 9.39401 33.2984 27.2501
Au 7.53852 31.1254 31.1065
Pd 7.54948 33.0032 32.9692
Pd 9.4492 31.1725 33.1107
Au 9.43968 33.2086 31.1471
Au 11.4285 5.55639 5.555
Au 11.445 5.31285 9.3915
Au 13.3967 5.38925 7.39104
Au 11.401 5.24995 13.3925
Au 13.3964 5.24947 11.3709
Au 11.3708 5.25066 17.3767
Au 13.3688 5.2258 15.3964
Pd 11.3656 5.34728 21.3291
Au 13.3491 5.26838 19.3555
Au 11.4044 5.30572 25.259
Au 13.3513 5.27829 23.2861
Au 11.4456 5.35077 29.2253
Au 13.3933 5.30574 27.263
Au 11.386 5.56085 33.0401
Au 13.37 5.389 31.2313
Au 11.4346 9.37574 5.32826
Au 13.4059 7.38296 5.40714
Au 11.449 7.40449 7.4108
Au 11.4621 9.39278 9.39989
Au 13.4025 7.29295 9.39839
Au 13.3993 9.39235 7.31143
Au 11.4504 7.26427 11.4218
Pd 11.3922 9.30175 13.3948
Au 13.3793 7.19803 13.3917
Pd 13.3937 9.30017 11.3947
Au 11.3884 7.21962 15.3771
Au 11.3341 9.28175 17.3466
Pd 13.348 7.20397 17.3703
Au 13.3471 9.2451 15.3709
Au 11.3631 7.22602 19.3452
Au 11.3464 9.28799 21.3068
Pd 13.3598 7.23686 21.3143
Au 13.3391 9.24105 19.332
Au 11.3934 7.25878 23.2927
Au 11.4118 9.34258 25.2745
Pd 13.3841 7.25699 25.2661
Au 13.3689 9.27569 23.2915
Au 11.4496 7.29916 27.2311
Au 11.4463 9.39284 29.2265
Pd 13.3938 7.33576 29.2387
Pd 13.3883 9.33039 27.2499
Au 11.4216 7.42007 31.193
Au 11.398 9.36116 33.2992
Pd 13.364 7.3925 33.1876
Au 13.3874 9.38833 31.3356
Pd 11.3771 13.3244 5.33116
Au 13.3786 11.341 5.28569
Pd 11.4302 11.3764 7.30646
Pd 11.4009 13.3577 9.30275
Pd 13.3963 11.3755 9.31155
Au 13.374 13.3397 7.22303
Au 11.4111 11.3634 11.3823
Au 11.3321 13.3498 13.3602
Au 13.3504 11.3142 13.3714
Au 13.3598 13.36 11.3114
Au 11.3193 11.3325 15.3535
Pd 11.2575 13.3408 17.3307
Au 13.3067 11.3134 17.3379
Pd 13.3032 13.3354 15.3461
Au 11.2854 11.3443 19.317
Au 11.2678 13.3583 21.3004
Au 13.3296 11.3191 21.3214
Au 13.275 13.3417 19.321
Au 11.3349 11.3709 23.3079
Pd 11.3282 13.3608 25.2844
Au 13.3695 11.3633 25.2751
Pd 13.3268 13.3387 23.3007
Pd 11.4064 11.3968 27.2437
Au 11.3997 13.3835 29.3325
Au 13.3881 11.3823 29.3151
Au 13.376 13.373 27.3021
Au 11.4163 11.3882 31.394
Au 11.3585 13.3674 33.4076
Au 13.3824 11.3319 33.4037
Au 13.3771 13.3727 31.4788
Au 11.329 17.3215 5.23768
Au 13.3465 15.3089 5.22181
Au 11.3696 15.3331 7.22722
Au 11.3575 17.3479 9.29211
Au 13.3586 15.3566 9.24345
Au 13.3506 17.3285 7.17415
Au 11.349 15.35 11.325
Au 11.2865 17.3446 13.3006
Pd 13.3133 15.3485 13.3188
Pd 13.3236 17.3387 11.2657
Au 11.2691 15.3327 15.3319
Au 11.2164 17.3202 17.3298
Au 13.2602 15.3223 17.3268
Au 13.2743 17.3325 15.3231
Pd 11.2184 15.3169 19.3094
Au 11.2134 17.2934 21.2959
Pd 13.2773 15.3176 21.3059
Au 13.2501 17.3024 19.3079
Au 11.2714 15.3191 23.3019
Au 11.2682 17.3327 25.3064
Au 13.3372 15.3203 25.3121
Au 13.2828 17.312 23.3036
Au 11.3337 15.3521 27.3061
Au 11.3599 17.3534 29.3975
Au 13.3779 15.3661 29.4193
Au 13.3486 17.3312 27.3745
Au 11.3828 15.3766 31.4539
Au 11.3311 17.3711 33.3929
Au 13.3398 15.3712 33.4497
Pd 13.349 17.3643 31.4793
Pd 11.3443 21.3199 5.35418
Au 13.3062 19.3432 5.22045
Au 11.3613 19.3138 7.23327
Au 11.3566 21.2691 9.28955
Pd 13.3336 19.2997 9.23369
Pd 13.3333 21.2914 7.23643
Pd 11.3203 19.3115 11.3007
Pd 11.2734 21.2682 13.2893
Au 13.286 19.3196 13.2671
Pd 13.309 21.2655 11.2622
Au 11.2321 19.3157 15.3082
Au 11.2222 21.288 17.3369
Pd 13.2529 19.3061 17.3295
Au 13.2717 21.2719 15.3035
Au 11.2071 19.3129 19.3179
Au 11.214 21.325 21.2986
Au 13.253 19.3166 21.2978
Pd 13.256 21.3025 19.3214
Au 11.2167 19.3214 23.2937
Au 11.2739 21.325 25.299
Au 13.3076 19.3335 25.3312
Au 13.2796 21.3325 23.2977
Au 11.3163 19.3344 27.3399
Au 11.355 21.322 29.3829
Au 13.3591 19.3454 29.449
Au 13.3588 21.3343 27.3748
Pd 11.3571 19.3462 31.4218
Au 11.3279 21.3287 33.3638
Au 13.3111 19.3588 33.4217
Pd 13.3555 21.3273 31.4495
Au 11.3895 25.2188 5.34056
Pd 13.3141 23.2801 5.34938
Pd 11.3649 23.2693 7.30618
Pd 11.3755 25.2216 9.30949
Au 13.3261 23.2465 9.25158
Pd 13.3518 25.2217 7.28517
Pd 11.3322 23.2343 11.2975
Au 11.3166 25.2379 13.3125
Au 13.3038 23.2269 13.2819
Au 13.3345 25.2358 11.2828
Au 11.2544 23.2518 15.313
Au 11.2633 25.2824 17.3379
Au 13.2741 23.2783 17.3382
Au 13.3174 25.275 15.3223
Au 11.2306 23.2969 19.343
Pd 11.2627 25.2953 21.2999
Pd 13.2781 23.3097 21.2958
Au 13.2953 25.3091 19.3407
Au 11.2551 23.3099 23.2676
Au 11.3182 25.2768 25.2654
Pd 13.3272 23.2994 25.3061
Au 13.3165 25.2976 23.2671
Au 11.3351 23.2934 27.3115
Au 11.3723 25.2553 29.3253
Au 13.3949 23.2877 29.4021
Au 13.3844 25.2601 27.3181
Au 11.3638 23.2948 31.397
Au 11.3462 25.2581 33.3535
Au 13.3511 23.2958 33.4049
Au 13.39 25.2588 31.4301
Au 11.4195 29.1849 5.33419
Pd 13.3548 27.2051 5.36686
Au 11.4119 27.1741 7.32186
Pd 11.4221 29.2149 9.3719
Pd 13.3688 27.2217 9.29913
Au 13.3693 29.2019 7.31226
Au 11.3792 27.2405 11.3208
Au 11.3712 29.3311 13.3341
Au 13.3547 27.2986 13.3242
Au 13.3797 29.3081 11.334
Au 11.3269 27.2931 15.3349
Au 11.3573 29.3757 17.3299
Au 13.3303 27.3567 17.3376
Au 13.3565 29.4119 15.3349
Au 11.3101 27.3216 19.3275
Au 11.3416 29.3795 21.3017
Au 13.3225 27.3501 21.2987
Pd 13.3353 29.4357 19.3127
Au 11.3076 27.303 23.2719
Au 11.3618 29.3203 25.2509
Au 13.3657 27.3257 25.2671
Au 13.3534 29.4037 23.2886
Au 11.3773 27.2521 27.2454
Au 11.4206 29.238 29.2184
Au 13.3939 27.2559 29.3061
Pd 13.383 29.338 27.2326
Au 11.4008 27.2223 31.3563
Au 11.4001 29.2628 33.2911
Au 13.3708 27.2726 33.3794
Au 13.3836 29.253 31.3297
Au 11.3912 33.043 5.51739
Au 13.3766 31.2052 5.36693
Au 11.4203 31.1941 7.39184
Au 11.4076 33.3072 9.35283
Au 13.3839 31.324 9.36458
Au 13.3808 33.2313 7.34568
Au 11.4087 31.3599 11.3598
Pd 11.3647 33.3236 13.3237
Au 13.3835 31.4473 13.3375
Au 13.3996 33.3589 11.3233
Au 11.3669 31.4423 15.3313
Au 11.3278 33.4089 17.2994
Pd 13.3393 31.465 17.3107
Au 13.3585 33.4113 15.3157
Au 11.3564 31.4468 19.2947
Pd 11.3181 33.3311 21.3015
Au 13.3375 31.4824 21.2903
Au 13.3231 33.4351 19.2837
Pd 11.3605 31.39 23.2869
Au 11.3585 33.3649 25.2579
Au 13.3748 31.4263 25.2728
Au 13.3303 33.4149 23.2906
Au 11.4035 31.3606 27.2331
Au 11.4057 33.3044 29.2504
Au 13.3974 31.3361 29.2212
Au 13.3868 33.3666 27.2733
Au 11.4135 31.2205 31.183
Pd 11.3717 33.0713 33.0063
Au 13.3614 31.2638 33.2284
Au 13.3907 33.2411 31.2326
Pd 15.3711 5.563 5.58279
Pd 15.3691 5.35818 9.33544
Au 17.3439 5.39528 7.386
Pd 15.3585 5.27281 13.3705
Au 17.3386 5.25007 11.3332
Pd 15.3169 5.28311 17.3882
Pd 17.3025 5.25139 15.3927
Pd 15.2959 5.2871 21.3135
Pd 17.268 5.26538 19.3441
Au 15.3119 5.25886 25.2858
Au 17.2678 5.20134 23.3025
Au 15.3341 5.33443 29.2786
Pd 17.2913 5.32004 27.2983
Au 15.3519 5.53762 33.0744
Au 17.3481 5.37116 31.2493
Pd 15.3729 9.32537 5.38143
Au 17.3435 7.36656 5.41528
Pd 15.366 7.4077 7.42352
Au 15.3564 9.34657 9.36253
Au 17.3521 7.27623 9.37251
Au 17.3577 9.35113 7.29801
Au 15.3646 7.21519 11.3761
Au 15.3587 9.23311 13.3726
Au 17.3521 7.16116 13.3657
Au 17.3567 9.2601 11.3686
Au 15.3473 7.15948 15.3925
Au 15.3397 9.20146 17.3547
Pd 17.3124 7.17419 17.3722
Au 17.3492 9.19081 15.3675
Pd 15.3175 7.20575 19.3399
Au 15.3403 9.23474 21.3197
Au 17.2881 7.15244 21.3221
Au 17.3208 9.19428 19.3339
Pd 15.3243 7.2134 23.2972
Au 15.3362 9.27243 25.2795
Au 17.2945 7.18007 25.2829
Au 17.3134 9.2435 23.3002
Pd 15.3273 7.27456 27.2649
Au 15.3525 9.34252 29.2714
Au 17.3326 7.27506 29.2564
Au 17.3298 9.27922 27.2748
Au 15.3558 7.38142 31.2369
Au 15.3736 9.31387 33.3323
Au 17.3711 7.34146 33.2436
Au 17.3585 9.34754 31.3566
Au 15.3601 13.3105 5.22458
Au 17.354 11.3087 5.27198
Au 15.3729 11.3605 7.23569
Au 15.367 13.3625 9.23983
Au 17.3534 11.3507 9.27542
Pd 17.3478 13.3362 7.19112
Au 15.3494 11.3307 11.339
Au 15.3192 13.3449 13.3329
Au 17.3496 11.2862 13.3505
Au 17.3426 13.3611 11.2744
Au 15.3339 11.2863 15.355
Au 15.3112 13.3121 17.3359
Au 17.3398 11.2548 17.3438
Au 17.3343 13.3106 15.3416
Au 15.3368 11.277 19.3327
Au 15.3171 13.3021 21.3138
Pd 17.3208 11.2672 21.3139
Pd 17.3191 13.2852 19.3187
Pd 15.3386 11.3053 23.2997
Pd 15.3474 13.3398 25.3064
Au 17.3274 11.3113 25.2959
Au 17.3174 13.2896 23.3053
Au 15.356 11.3537 27.2912
Au 15.3702 13.3831 29.4116
Au 17.3469 11.3607 29.3623
Au 17.3371 13.3679 27.366
Au 15.3667 11.3583 31.4357
Pd 15.3598 13.3359 33.3906
Pd 17.368 11.3079 33.3371
Au 17.3528 13.3595 31.4866
Au 15.3227 17.3138 5.17966
Au 17.3256 15.3067 5.18551
Au 15.3668 15.3348 7.16217
Pd 15.3289 17.3275 9.18641
Pd 17.3308 15.3487 9.18754
Pd 17.3155 17.3162 7.13876
Au 15.326 15.363 11.2495
Au 15.2903 17.3263 13.2736
Au 17.3274 15.3352 13.2821
Au 17.3211 17.3136 11.2063
Au 15.2879 15.3316 15.3286
Pd 15.2799 17.314 17.3242
Au 17.3118 15.3109 17.3365
Au 17.3062 17.3117 15.3086
Au 15.2974 15.3189 19.3154
Au 15.2915 17.3107 21.302
Au 17.313 15.3057 21.2983
Pd 17.3036 17.3118 19.311
Au 15.3104 15.3066 23.3113
Au 15.3296 17.3205 25.3601
Au 17.3274 15.3308 25.363
Au 17.3241 17.3304 23.3344
Pd 15.3585 15.3441 27.3817
Au 15.3551 17.3349 29.463
Pd 17.3429 15.3567 29.4625
Au 17.341 17.3234 27.423
Au 15.3535 15.3687 31.5202
Au 15.3286 17.3549 33.4808
Au 17.3508 15.321 33.4778
Au 17.342 17.3422 31.5416
Au 15.2657 21.3255 5.21233
Au 17.2937 19.3057 5.15552
Au 15.3106 19.3063 7.14219
Au 15.3109 21.2742 9.20229
Au 17.3155 19.2894 9.15863
Au 17.3075 21.2962 7.10644
Au 15.2977 19.2982 11.2253
Pd 15.3051 21.2688 13.2673
Au 17.3174 19.3033 13.2605
Au 17.3355 21.2775 11.2327
Au 15.2803 19.3042 15.3103
Au 15.2781 21.2953 17.3225
Au 17.2984 19.2952 17.3098
Au 17.3157 21.2952 15.2928
Au 15.2721 19.2989 19.3006
Au 15.2865 21.3158 21.3026
Au 17.3119 19.3129 21.3192
Au 17.3064 21.3143 19.3007
Au 15.309 19.3302 23.3245
Au 15.3237 21.3324 25.3491
Au 17.3302 19.3295 25.371
Pd 17.3148 21.3048 23.3302
Au 15.3418 19.3353 27.415
Pd 15.3546 21.3237 29.4618
Au 17.3337 19.3323 29.4826
Au 17.3156 21.3225 27.4254
Au 15.3307 19.348 31.5212
Au 15.3291 21.3492 33.4399
Au 17.338 19.354 33.4822
Au 17.3249 21.3362 31.5091
Au 15.2914 25.2477 5.2721
Au 17.2846 23.2951 5.1726
Pd 15.3194 23.2678 7.20671
Au 15.3441 25.2384 9.24212
Au 17.351 23.2646 9.20136
Au 17.3286 25.2394 7.16589
Au 15.326 23.2417 11.2594
Au 15.3444 25.2691 13.2978
Au 17.3422 23.2643 13.2723
Au 17.3765 25.258 11.2657
Au 15.3141 23.2668 15.302
Au 15.3193 25.3123 17.3227
Pd 17.3188 23.3083 17.3051
Au 17.3391 25.3053 15.3132
Au 15.2909 23.3125 19.3221
Pd 15.3128 25.3357 21.3013
Au 17.3074 23.3219 21.3124
Au 17.314 25.3439 19.3063
Au 15.3075 23.3101 23.2948
Au 15.3346 25.2959 25.3081
Au 17.3153 23.2986 25.3459
Au 17.3167 25.348 23.2988
Pd 15.3534 23.2963 27.3883
Pd 15.3651 25.273 29.3927
Pd 17.316 23.3027 29.4471
Au 17.3147 25.2997 27.3627
Pd 15.3491 23.2979 31.4451
Au 15.364 25.2921 33.4012
Pd 17.33 23.3415 33.3802
Au 17.3224 25.2917 31.4366
Pd 15.34 29.2468 5.38123
Pd 17.3087 27.2546 5.30573
Au 15.3379 27.2156 7.2436
Au 15.3674 29.2555 9.3241
Au 17.3692 27.2376 9.26469
Au 17.3508 29.2315 7.26208
Au 15.3669 27.2703 11.3037
Au 15.3718 29.3957 13.3322
Au 17.3689 27.3359 13.3135
Au 17.3725 29.3466 11.3445
Au 15.3451 27.3559 15.3239
Au 15.328 29.4631 17.3233
Au 17.3291 27.3924 17.3167
Au 17.349 29.4448 15.3198
Au 15.3149 27.387 19.3179
Au 15.3303 29.4506 21.2928
Au 17.3212 27.4062 21.2964
Au 17.3229 29.4836 19.2972
Au 15.3454 27.3804 23.2879
Pd 15.358 29.4065 25.2755
Au 17.326 27.3853 25.3001
Pd 17.325 29.4577 23.2889
Au 15.3579 27.3264 27.282
Au 15.3529 29.3023 29.2499
Au 17.3262 27.2984 29.3358
Pd 17.3288 29.3768 27.2696
Au 15.355 27.2726 31.405
Au 15.3468 29.313 33.3262
Pd 17.3464 27.317 33.3096
Au 17.3316 29.2819 31.3448
Au 15.3648 33.059 5.50666
Au 17.3509 31.2253 5.36005
Au 15.3626 31.2212 7.36039
Pd 15.3766 33.2477 9.29931
Au 17.3629 31.3294 9.33624
Au 17.371 33.2187 7.3298
Au 15.3808 31.4038 11.3428
Pd 15.3791 33.3521 13.309
Pd 17.352 31.4283 13.3303
Pd 17.3582 33.2933 11.2961
Au 15.3608 31.4906 15.3268
Pd 15.3293 33.3948 17.2918
Pd 17.3311 31.4961 17.2995
Au 17.3273 33.4311 15.2979
Au 15.3157 31.5143 19.2845
Au 15.3202 33.4608 21.284
Au 17.3153 31.522 21.2902
Pd 17.3076 33.4097 19.2863
Au 15.3404 31.4832 23.2934
Au 15.349 33.4053 25.307
Au 17.3153 31.4489 25.2911
Pd 17.3137 33.4037 23.3041
Pd 15.3518 31.3761 27.2572
Au 15.3633 33.3131 29.2836
Au 17.3162 31.3462 29.2551
Pd 17.3158 33.3191 27.3051
Pd 15.3498 31.23 31.2205
Au 15.3471 33.0759 33.0853
Au 17.3296 31.2569 33.2506
Au 17.3205 33.2312 31.2623
Au 19.3094 5.53953 5.56127
Au 19.3162 5.30637 9.33191
Au 21.2951 5.37748 7.38733
Au 19.2795 5.18562 13.3488
Au 21.2673 5.23511 11.3329
Au 19.2484 5.16908 17.3842
Au 21.2619 5.13684 15.3838
Pd 19.2722 5.22933 21.3241
Pd 21.2826 5.21158 19.3446
Au 19.2947 5.19719 25.311
Au 21.3156 5.18164 23.3118
Au 19.3307 5.30161 29.2919
Au 21.3425 5.25416 27.3019
Au 19.3703 5.52905 33.0437
Au 21.3391 5.38861 31.2126
Au 19.3258 9.30732 5.32039
Au 21.3189 7.34556 5.40054
Pd 19.3292 7.38732 7.41429
Au 19.3357 9.31782 9.35271
Pd 21.2916 7.28176 9.38322
Au 21.3041 9.34716 7.29336
Pd 19.3163 7.21331 11.362
Pd 19.32 9.20869 13.3739
Au 21.262 7.13141 13.3778
Au 21.2845 9.2458 11.3876
Au 19.2933 7.12362 15.3844
Pd 19.3098 9.18009 17.3522
Au 21.2774 7.10238 17.3583
Au 21.2798 9.20112 15.3736
Au 19.2828 7.12596 19.3313
Au 19.2945 9.20094 21.3171
Au 21.2941 7.11767 21.3175
Au 21.2921 9.18992 19.316
Au 19.2937 7.13052 23.3126
Au 19.3101 9.24699 25.2968
Au 21.3143 7.16299 25.2995
Au 21.2872 9.21237 23.3007
Au 19.323 7.2053 27.2713
Au 19.3278 9.33739 29.2716
Au 21.3191 7.28842 29.231
Pd 21.2928 9.28631 27.2728
Pd 19.3454 7.39032 31.2069
Au 19.3651 9.30428 33.3078
Au 21.3445 7.35799 33.2005
Au 21.317 9.36477 31.3211
Au 19.3217 13.2956 5.21593
Au 21.3243 11.3025 5.27053
Pd 19.3236 11.3407 7.23491
Au 19.3105 13.3645 9.22243
Au 21.2973 11.3511 9.28306
Au 21.3025 13.3343 7.16648
Au 19.3317 11.3156 11.3388
Au 19.3429 13.3338 13.3229
Au 21.2988 11.2916 13.3794
Au 21.3035 13.3668 11.3041
Au 19.3304 11.263 15.3606
Pd 19.3232 13.2865 17.3316
Au 21.3068 11.2756 17.3331
Pd 21.3175 13.305 15.3438
Au 19.3038 11.2548 19.3153
Au 19.3037 13.2813 21.3034
Au 21.2954 11.265 21.2981
Au 21.3175 13.2979 19.3089
Pd 19.3038 11.2717 23.3001
Au 19.3038 13.3246 25.3352
Au 21.2726 11.299 25.3091
Au 21.2886 13.3217 23.2996
Pd 19.3054 11.33 27.3152
Au 19.3169 13.3745 29.4093
Au 21.2887 11.3603 29.3436
Au 21.2695 13.3618 27.368
Au 19.3407 11.3547 31.4172
Au 19.3587 13.3018 33.4261
Pd 21.3345 11.3165 33.2856
Pd 21.302 13.3445 31.4243
Au 19.3083 17.3033 5.15167
Au 21.3408 15.3084 5.18389
Au 19.3011 15.3292 7.12866
Au 19.3169 17.3107 9.16723
Au 21.309 15.3442 9.21353
Au 21.3294 17.32 7.11449
Pd 19.3233 15.3428 11.2465
Au 19.34 17.3065 13.2641
Pd 21.3183 15.3239 13.302
Au 21.3264 17.306 11.2524
Au 19.3414 15.2994 15.3171
Au 19.3243 17.3058 17.3112
Au 21.3291 15.2809 17.3117
Au 21.3288 17.3035 15.2904
Au 19.3134 15.2929 19.3136
Au 19.32 17.3165 21.3229
Pd 21.3026 15.3166 21.3141
Au 21.3206 17.2954 19.3137
Au 19.3188 15.3299 23.3203
Au 19.3228 17.3534 25.3726
Au 21.284 15.3596 25.3425
Pd 21.2965 17.3296 23.3325
Pd 19.3136 15.3589 27.4067
Au 19.3151 17.3323 29.4789
Pd 21.2873 15.3629 29.4542
Au 21.2798 17.3601 27.409
Au 19.3345 15.3299 31.5116
Pd 19.3265 17.328 33.4394
Au 21.3182 15.2914 33.4514
Au 21.2979 17.341 31.5379
Au 19.3273 21.2926 5.14496
Au 21.366 19.2924 5.14451
Au 19.3199 19.2909 7.09303
Au 19.3394 21.273 9.16982
Pd 21.3308 19.285 9.17998
Au 21.3422 21.2576 7.1159
Au 19.3458 19.292 11.221
Au 19.3572 21.297 13.2695
Pd 21.3353 19.3026 13.272
Au 21.3292 21.2837 11.2527
Au 19.3465 19.311 15.2822
Au 19.3331 21.3081 17.2848
Pd 21.323 19.3085 17.2905
Pd 21.3321 21.3068 15.282
Au 19.3186 19.3031 19.3043
Au 19.3105 21.3025 21.334
Au 21.3131 19.3051 21.3374
Au 21.3224 21.306 19.3036
Pd 19.3177 19.3133 23.3482
Au 19.3129 21.2824 25.3638
Pd 21.2963 19.3175 25.3666
Au 21.3114 21.2903 23.3477
Pd 19.3078 19.3264 27.423
Au 19.3066 21.3205 29.4658
Au 21.2904 19.3317 29.4668
Au 21.3088 21.2858 27.381
Pd 19.3156 19.3429 31.5205
Au 19.3112 21.3556 33.4813
Au 21.2928 19.3378 33.5
Au 21.2975 21.3291 31.5438
Au 19.3227 25.273 5.18707
Pd 21.3546 23.2661 5.22222
Au 19.328 23.2699 7.11582
Pd 19.3376 25.2468 9.21547
Au 21.3147 23.2603 9.20031
Au 21.3212 25.2523 7.14923
Pd 19.3462 23.2662 11.247
Au 19.3493 25.2801 13.2977
Pd 21.3271 23.2869 13.3037
Au 21.2982 25.2521 11.2958
Au 19.3472 23.3002 15.2942
Au 19.3384 25.3401 17.3057
Au 21.3307 23.3228 17.282
Pd 21.3264 25.3128 15.308
Au 19.3242 23.3306 19.294
Au 19.326 25.3599 21.2904
Au 21.3189 23.3169 21.3076
Pd 21.3282 25.3534 19.2925
Au 19.3072 23.3073 23.3314
Au 19.3075 25.3462 25.3327
Au 21.3089 23.2898 25.3514
Au 21.2998 25.3441 23.3102
Au 19.3032 23.3004 27.3921
Au 19.303 25.3028 29.4015
Au 21.3084 23.3026 29.4223
Au 21.2952 25.3145 27.3409
Au 19.3206 23.331 31.4863
Pd 19.3356 25.3543 33.3242
Au 21.3042 23.389 33.4364
Pd 21.3123 25.3151 31.401
Au 19.3233 29.278 5.28503
Au 21.3327 27.277 5.22068
Au 19.3326 27.2381 7.18732
Au 19.3348 29.2636 9.33167
Au 21.2907 27.2414 9.28086
Au 21.3096 29.2469 7.27107
Pd 19.3365 27.2806 11.316
Pd 19.3327 29.4073 13.3356
Au 21.3051 27.3132 13.3328
Au 21.2892 29.3316 11.3542
Au 19.3411 27.3659 15.3159
Au 19.3324 29.4645 17.3173
Au 21.3327 27.3864 17.3224
Au 21.3098 29.4301 15.336
Au 19.3386 27.4066 19.2967
Au 19.3194 29.4779 21.284
Au 21.3184 27.3995 21.266
Pd 21.3167 29.4612 19.2881
Au 19.3132 27.4055 23.297
Au 19.3014 29.4091 25.2916
Pd 21.2908 27.3589 25.3017
Au 21.3003 29.443 23.2867
Pd 19.3031 27.3313 27.307
Au 19.3112 29.307 29.2715
Au 21.2989 27.294 29.344
Au 21.2951 29.356 27.2694
Au 19.335 27.3028 31.392
Au 19.3493 29.303 33.3033
Pd 21.3253 27.3239 33.2628
Pd 21.3197 29.2774 31.3005
Au 19.3592 33.0253 5.52655
Au 21.3247 31.2162 5.38248
Pd 19.3323 31.1902 7.3822
Au 19.3358 33.2832 9.28804
Pd 21.3018 31.2868 9.35092
Pd 21.3089 33.1222 7.37928
Au 19.3314 31.4039 11.3351
Pd 19.3063 33.3658 13.2991
Au 21.2973 31.4743 13.3352
Au 21.2908 33.3706 11.2721
Au 19.3102 31.5082 15.3205
Au 19.3019 33.4788 17.3051
Au 21.317 31.5116 17.3292
Au 21.3102 33.4583 15.3271
Au 19.3214 31.5333 19.2862
Pd 19.3136 33.418 21.2834
Au 21.3118 31.5168 21.2674
Au 21.3292 33.4649 19.2982
Au 19.3055 31.5109 23.2897
Au 19.2893 33.4405 25.3066
Au 21.2984 31.5021 25.2766
Au 21.2993 33.4683 23.2703
Au 19.3066 31.4284 27.2732
Pd 19.3077 33.2619 29.324
Au 21.3187 31.3624 29.2567
Au 21.2966 33.4082 27.3111
Au 19.3297 31.2379 31.2455
Pd 19.3272 33.0629 33.0769
Au 21.3336 31.2405 33.2352
Au 21.3247 33.245 31.2679
Au 23.3216 5.53373 5.59719
Au 23.27 5.29143 9.35313
Au 25.3032 5.36547 7.43551
Au 23.2768 5.17908 13.3739
Au 25.285 5.24351 11.3935
Au 23.3189 5.14896 17.3812
Au 25.3315 5.19923 15.3969
Pd 23.3327 5.23938 21.3191
Au 25.3656 5.23054 19.3403
Au 23.3409 5.24568 25.317
Au 25.3308 5.24946 23.3128
Pd 23.3323 5.39976 29.25
Pd 25.3008 5.39705 27.2556
Pd 23.3574 5.55072 33.0002
Au 25.3194 5.43983 31.1515
Au 23.3314 9.30569 5.35152
Pd 25.3188 7.38159 5.51702
Au 23.2953 7.37769 7.42982
Au 23.2766 9.33119 9.38446
Au 25.2666 7.28098 9.43221
Pd 25.278 9.37579 7.38059
Au 23.2596 7.18499 11.3949
Au 23.2649 9.23069 13.4062
Au 25.2761 7.17944 13.4151
Au 25.2604 9.29983 11.439
Au 23.2768 7.11419 15.3863
Au 23.2827 9.22588 17.3414
Au 25.308 7.16978 17.3627
Au 25.2826 9.26429 15.374
Au 23.3022 7.12579 19.3252
Au 23.2878 9.21234 21.295
Au 25.312 7.18612 21.3007
Au 25.288 9.25325 19.3165
Au 23.3071 7.15527 23.3052
Au 23.2751 9.26766 25.2814
Pd 25.2755 7.26741 25.2672
Au 25.2753 9.28351 23.2873
Pd 23.293 7.27983 27.2453
Au 23.2825 9.37097 29.2511
Au 25.2758 7.35396 29.1889
Au 25.2505 9.34559 27.2234
Au 23.3164 7.40501 31.1929
Pd 23.3107 9.34536 33.2123
Au 25.2996 7.4115 33.1618
Au 25.2669 9.42817 31.2826
Pd 23.3418 13.3242 5.30522
Au 25.3053 11.3245 5.31223
Au 23.3094 11.3408 7.24222
Au 23.2952 13.3655 9.26357
Au 25.2716 11.3849 9.35578
Au 25.3104 13.3678 7.24743
Au 23.2736 11.3412 11.3749
Au 23.2788 13.3536 13.3608
Au 25.2706 11.3322 13.4111
Au 25.285 13.384 11.3667
Pd 23.2758 11.2968 15.3652
Pd 23.2933 13.3064 17.3249
Au 25.2754 11.3218 17.3298
Au 25.279 13.3441 15.3533
Pd 23.2906 11.2869 19.3106
Au 23.2908 13.3445 21.298
Au 25.2812 11.3281 21.2981
Au 25.2921 13.3482 19.3134
Au 23.279 11.3042 23.294
Au 23.2687 13.3539 25.3028
Pd 25.2638 11.3642 25.2586
Au 25.2855 13.3637 23.2805
Au 23.2699 11.3534 27.293
Au 23.2615 13.3705 29.4003
Pd 25.2461 11.4088 29.3098
Au 25.2586 13.3812 27.32
Pd 23.2814 11.3692 31.3398
Pd 23.2925 13.3027 33.3184
Au 25.2537 11.3525 33.3021
Au 25.2611 13.3463 31.3991
Au 23.3838 17.3039 5.21062
Pd 25.3556 15.3478 5.32677
Au 23.3272 15.3474 7.17523
Au 23.3256 17.3235 9.23096
Au 25.3063 15.3392 9.29046
Pd 25.327 17.3107 7.25376
Pd 23.3037 15.3382 11.3011
Au 23.3126 17.2954 13.2983
Pd 25.3034 15.339 13.3426
Au 25.31 17.3049 11.3255
Pd 23.2982 15.3113 15.3212
Au 23.3131 17.3012 17.3069
Au 25.3089 15.321 17.328
Au 25.3262 17.3066 15.3043
Pd 23.3057 15.3104 19.3159
Au 23.2972 17.289 21.3225
Pd 25.3165 15.3336 21.3004
Au 25.3391 17.2939 19.3224
Pd 23.2758 15.3426 23.3048
Au 23.2656 17.3526 25.3383
Au 25.2764 15.3611 25.3017
Au 25.307 17.3195 23.2958
Au 23.2565 15.3706 27.3823
Au 23.2751 17.3579 29.4517
Au 25.2751 15.3648 29.4056
Au 25.2814 17.358 27.3572
Au 23.2751 15.3416 31.4867
Au 23.3078 17.3214 33.4843
Au 25.2962 15.3098 33.4038
Au 25.3036 17.3552 31.4959
Au 23.3839 21.2576 5.20034
Pd 25.368 19.2682 5.30427
Au 23.3539 19.2835 7.16475
Au 23.3252 21.254 9.22053
Pd 25.3081 19.2924 9.26568
Pd 25.3211 21.26 7.23042
Au 23.3245 19.2976 11.2722