1687
Atoms. Timestep: 20773
Au 16.1716 2.08077 13.7931
Au 6.79269 7.63491 16.3271
Au 20.7571 9.59111 18.8483
Au 20.2148 8.28822 23.8882
Au 9.98643 9.51001 30.087
Au 8.50907 19.9523 25.5169
Au 5.98014 16.4913 20.379
Pd 15.4052 6.99694 13.0634
Au 27.1051 12.7492 30.839
Au 18.0311 20.7998 21.8002
Pd 15.1367 20.9693 34.725
Au 23.7287 25.3853 33.0036
Au 16.0398 13.4113 15.5817
Pd 22.5979 30.3815 14.2709
Au 16.7004 4.68554 13.0589
Au 10.3168 18.8016 17.3759
Au 31.2218 9.06733 24.2764
Pd 23.2691 8.65203 19.9748
Pd 10.4155 31.4351 21.0311
Pd 6.23226 24.4548 12.3103
Pd 15.5409 20.9494 25.279
Pd 24.6356 23.0849 5.55245
Au 9.16021 6.26974 16.0218
Pd 5.79459 26.6106 16.1305
Au 11.2435 36.2487 22.8418
Au 21.0383 33.7587 11.0278
Au 17.0102 19.659 10.0356
Au 14.3652 8.88269 7.025
Au 3.19607 16.5454 16.6498
Au 8.35932 26.5518 32.5343
Au 9.73034 7.75335 27.8966
Pd 20.8416 31.5857 9.41958
Au 31.2503 12.1444 30.9805
Au 18.4484 11.1568 18.3166
Au 11.5119 31.6672 9.31847
Au 18.9939 23.2998 10.2939
Au 10.9049 9.20419 24.1978
Au 24.5311 35.7161 18.2882
Au 27.0189 18.7588 10.5475
Au 15.3111 23.6856 35.5595
Au 9.59679 12.0438 15.5687
Au 19.5426 14.1744 18.5518
Au 11.6321 28.7869 9.75373
Au 17.398 10.2391 33.6797
Au 29.5078 10.8285 12.8045
Au 10.9949 19.1445 26.2353
Au 33.6755 19.804 24.4784
Au 31.7678 21.9533 29.9287
Au 29.3241 7.91428 22.8324
Au 15.8209 30.8936 23.4476
Au 30.4044 32.0248 18.1597
Au 1.49575 18.6931 19.5228
Pd 14.7464 15.735 4.29835
Au 7.18741 22.5449 16.7369
Au 1.92994 13.3973 18.7943
Au 19.197 18.5447 2.27486
Au 16.3987 22.3838 10.25
Au 12.4307 19.667 15.629
Au 9.68366 32.3408 11.335
Au 18.5463 9.25864 20.4139
Au 24.1845 18.5342 24.6304
Au 13.4422 31.1642 7.45872
Au 18.0565 6.65107 14.4846
Au 27.5643 4.45612 16.7083
Au 10.7286 28.4741 14.1026
Au 16.0092 9.26575 22.4462
Pd 19.6193 14.6638 6.26693
Au 10.8076 12.2978 6.97798
Pd 8.63673 33.7748 20.1746
Au 21.2357 26.4608 17.7986
Pd 13.9608 17.2754 6.35284
Au 6.02914 30.9106 24.2967
Pd 14.3319 8.93777 24.8071
Au 24.8686 24.7982 13.1094
Au 31.5772 7.58364 15.479
Au 5.94881 26.4058 20.2114
Au 16.4154 17.0207 32.8072
Au 9.88935 18.8711 14.2899
Au 10.137 6.8218 25.3543
Au 6.12609 11.754 28.8995
Au 24.0952 27.7537 31.4432
Au 6.58369 10.8785 19.4474
Au 15.9756 10.7698 5.87752
Au 23.1658 32.4878 12.6942
Au 22.0746 34.9398 13.244
Au 3.32581 21.9877 21.9995
Au 18.3935 3.83984 26.6358
Au 11.1591 26.8486 7.76949
Au 27.7246 23.3098 32.4771
Pd 29.41 20.867 16.7439
Au 3.22452 24.6363 26.7954
Au 17.8506 17.3386 35.7355
Au 21.8447 35.9672 17.8048
Au 27.0076 7.22422 23.8797
Au 17.8526 28.2411 11.9936
Au 25.2235 24.0189 27.8308
Au 5.78482 30.7749 21.6371
Au 11.9275 27.9354 24.6364
Pd 5.39203 17.0505 22.9308
Au 10.5252 21.6086 27.2571
Au 20.0566 10.9672 15.0006
Au 16.0205 8.43102 15.2562
Au 28.1316 30.2956 17.8793
Pd 14.6589 16.2457 28.6429
Au 14.1171 28.854 22.7119
Au 19.6644 23.8746 34.0076
Au 7.68082 19.7796 17.3428
Au 23.8474 19.8162 33.9496
Au 13.1678 35.2799 25.7361
Au 23.1052 13.9259 17.5825
Au 4.22559 28.6098 24.643
Pd 7.9725 31.2113 20.0538
Au 30.8278 15.1858 9.98747
Au 9.8736 32.6937 23.3673
Pd 15.6493 9.87172 12.7067
Au 14.8563 21.6199 37.3931
Pd 16.4626 14.8242 12.0533
Au 10.5673 28.0726 16.9549
Pd 10.3993 30.6542 16.1269
Au 24.779 28.9572 28.7112
Au 15.2758 11.3427 17.8146
Au 14.8072 8.40023 27.4446
Pd 16.0756 15.3539 34.8739
Au 12.3694 8.29126 19.468
Au 14.1344 5.93798 10.7387
Au 8.85888 35.0617 22.6676
Au 21.194 13.5576 34.251
Au 31.7509 14.0365 19.7509
Au 0.814828 22.4737 22.3964
Au 19.031 12.3984 4.52999
Au 28.438 29.9997 22.307
Au 11.6848 5.16607 15.6061
Au 9.90287 36.1484 20.3525
Au 22.6593 12.3401 11.997
Au 16.8588 33.199 13.9976
Au 24.4348 17.9882 9.18533
Au 19.3546 30.3081 11.2019
Au 9.53805 17.4803 8.93874
Au 23.3085 19.3793 -0.199107
Au 29.1905 6.60455 16.0693
Pd 7.652 14.4284 28.9456
Au 2.74804 12.7879 22.9778
Au 25.7077 11.4556 5.12663
Pd 16.8344 20.9803 16.9807
Pd 24.6752 20.8663 1.57174
Au 3.10059 18.228 23.9937
Au 29.7308 23.7243 16.2457
Pd 16.5491 21.4104 32.4524
Au 33.3397 16.7714 29.084
Pd 14.9856 17.2468 22.8299
Au 12.6438 36.1559 20.4882
Pd 23.4536 24.2886 10.6505
Au 10.4574 13.6167 33.9687
Au 10.5156 33.7349 15.9257
Au 15.8799 23.6914 20.7179
Pd 25.554 30.6984 8.66747
Pd 11.5826 23.4229 25.014
Au 10.5904 7.95794 21.7657
Au 10.7302 31.2604 28.5746
Au 18.1765 19.2019 7.53898
Au 18.6123 19.6775 4.88965
Au 9.37857 17.3307 6.25302
Au 24.9645 12.1446 13.3999
Pd 13.896 6.27552 25.8306
Pd 13.887 13.6544 18.9735
Pd 17.3103 27.2737 4.05195
Au 17.2785 14.7396 4.70076
Au 16.7595 7.58232 29.1955
Au 6.12629 17.1098 14.2288
Au 2.44416 27.8036 22.6707
Au 6.94541 28.9026 9.42496
Au 5.40507 26.1751 25.6027
Au 6.69463 12.0682 22.1045
Au 5.66958 30.1493 18.9691
Pd 29.8606 27.3452 21.6942
Au 22.6504 2.18864 24.8422
Au 10.7756 14.1921 24.8215
Pd 13.3277 25.5039 12.4678
Au 9.23087 23.2722 5.21539
Au 20.2228 6.98471 33.219
Au 34.1238 14.4809 27.5654
Au 11.7485 9.62077 7.59263
Au 21.3592 23.4011 31.9706
Au 23.9672 14.022 24.1357
Pd 21.9307 6.25747 25.0153
Au 22.0732 16.0916 33.2833
Au 16.8907 2.59813 11.1938
Au 9.15898 23.4055 22.9106
Au 17.4824 12.965 6.70967
Au 7.79121 9.57394 28.4208
Au 21.0508 3.64868 21.2794
Au 9.31006 21.9054 7.55125
Au 22.44 22.094 2.45232
Pd 4.4915 19.3531 21.8818
Au 7.9999 7.78947 13.7741
Au 5.82118 16.1223 27.622
Au 8.48228 23.1351 13.1427
Au 3.64108 15.9082 13.966
Au 5.08773 9.51366 17.3729
Au 4.06774 17.8496 19.0535
Au 14.5347 3.64819 12.0357
Au 18.5079 9.88942 31.0928
Au 25.3853 15.6184 17.3072
Au 22.63 16.1508 25.3596
Au 21.1338 35.4187 27.5527
Au 4.96647 12.6475 24.4167
Au 30.1602 29.9484 20.2276
Au 8.72341 28.4123 7.2943
Au 31.5291 9.70247 17.2066
Pd 12.7814 23.5072 14.3254
Pd 8.12915 6.75333 21.0161
Au 5.87008 22.3748 14.0787
Au 24.8734 3.28435 20.7185
Au 9.89271 11.649 25.083
Au 9.92118 33.3886 29.8075
Pd 8.35102 30.1999 27.8938
Au 16.1147 11.9682 10.8982
Au 31.2075 14.5925 32.2632
Au 18.8975 2.77925 19.6438
Pd 29.1994 19.431 14.4407
Au 11.9857 5.70432 21.0956
Pd 7.57394 24.1587 20.7082
Au 8.0377 26.2002 24.9373
Pd 8.64766 19.3716 31.0946
Au 4.61851 20.3553 12.7408
Pd 11.5472 21.8828 5.74959
Au 21.1462 18.9244 18.7479
Au 10.9761 21.5368 14.1958
Pd 14.3828 16.2822 20.2818
Au 8.13159 32.3373 15.8178
Au 29.3934 22.5506 18.8179
Au 27.4628 12.7047 12.3468
Au 10.0438 10.6782 18.1382
Au 19.1669 16.973 4.8276
Au 4.94857 14.3654 22.172
Au 32.171 10.4935 22.0128
Au 10.89 22.8115 3.17838
Au 17.0396 12.2994 28.283
Au 31.399 15.9111 21.7848
Au 15.8674 31.5227 27.8384
Pd 26.934 25.3813 7.92829
Au 16.4447 31.1426 32.349
Au 4.78674 29.8084 27.0162
Au 3.23706 19.3533 26.3706
Au 13.8025 31.267 31.9716
Au 23.2081 20.4443 26.51
Au 24.6066 19.7246 36.6296
Au 13.6372 24.7003 16.6659
Au 22.2152 29.0871 6.18377
Au 18.487 17.2544 14.279
Au 9.25131 24.7028 8.49908
Pd 15.7674 8.19989 10.5018
Pd 21.649 31.7391 19.7291
Au 5.47535 28.8656 11.7393
Pd 11.8546 19.3626 12.3642
Au 20.1078 19.5496 23.5404
Au 25.0966 14.1433 36.5965
Au 26.4223 34.8981 11.0914
Pd 5.05924 14.1532 29.4413
Au 13.2235 31.5959 22.7598
Au 6.77589 24.0311 9.6694
Au 23.6351 11.9654 3.35833
Au 19.4867 18.3361 21.1961
Pd 9.99118 29.4447 19.2294
Au 11.2348 25.4859 17.7988
Pd 12.4064 29.7195 20.8281
Au 25.447 17.8313 20.115
Au 7.02741 16.6618 11.2223
Au 12.8779 29.709 15.2288
Au 5.10945 25.1168 28.5638
Pd 12.5856 10.8526 25.4933
Pd 22.7653 7.71911 12.6191
Au 14.5774 18.5924 30.0001
Pd 9.85789 24.1674 31.0183
Au 25.4891 18.5867 2.94408
Pd 9.58498 15.3887 11.0163
Pd 17.4422 25.2283 30.1338
Pd 11.5758 9.65033 10.3679
Au 9.94293 32.1749 18.2942
Pd 13.473 21.7925 23.5921
Au 10.7559 25.3877 4.12031
Pd 26.565 21.1775 5.85537
Au 9.18624 8.82445 11.4209
Au 23.5899 17.0709 1.32704
Au 6.71289 21.5714 8.56339
Au 23.8821 32.2556 26.4111
Pd 11.1544 10.3969 20.7803
Au 13.9848 8.97279 17.1277
Au 20.1824 25.1016 5.33916
Au 11.0414 31.3475 31.424
Au 14.8228 26.4428 3.22097
Au 18.2824 20.8338 1.00037
Pd 12.4281 12.3423 32.5313
Au 20.358 26.3173 15.0882
Au 11.8318 11.9026 23.0607
Au 11.6683 5.75905 27.4056
Au 12.4264 27.6708 3.18024
Pd 18.2877 32.8021 11.4476
Pd 6.67165 26.6264 10.7501
Pd 20.9842 8.43827 31.1354
Pd 22.6548 23.0113 26.8276
Pd 24.4915 34.0967 23.6543
Au 17.7338 24.7776 35.8712
Au 5.49003 12.6904 17.6012
Au 13.2341 17.8864 26.8859
Au 4.20735 11.3326 15.5582
Au 22.0797 24.6372 1.20747
Au 11.3786 24.2983 6.8243
Au 18.6123 25.2515 27.4599
Au 16.8832 29.0113 21.1495
Pd 26.8004 4.40247 24.4763
Au 26.9113 20.048 16.0538
Au 21.7551 4.19064 15.5301
Au 20.0487 9.39038 26.4126
Au 11.6194 34.7276 13.5098
Au 14.9629 29.0761 3.40135
Au 20.227 22.8477 0.564214
Au 33.6974 12.6121 10.9231
Pd 11.4563 24.5606 10.0039
Au 10.7536 29.8344 26.2622
Au 17.7616 20.5304 27.433
Au 13.2097 26.9365 33.4558
Au 7.52423 23.9778 32.3691
Au 18.0149 15.5366 16.6364
Au 17.2392 27.2518 31.856
Au 26.3713 9.86459 31.1842
Au 13.0609 14.1307 7.26351
Au 14.3 7.10403 21.4802
Au 22.9921 31.2264 7.61148
Au 25.8214 34.1182 26.0551
Au 21.3216 26.3488 33.7185
Pd 15.2341 24.5447 14.4372
Au 15.2259 27.8116 5.75875
Au 6.15494 21.7723 21.7801
Pd 28.7622 13.5092 19.2717
Pd 27.58 10.9939 28.7114
Au 7.96336 15.3476 8.71913
Au 25.6497 9.94535 8.86582
Au 28.406 25.8299 10.1253
Au 22.0806 6.95614 6.03866
Au 13.4009 20.0381 6.1335
Au 12.4353 24.8171 31.8443
Au 23.9182 4.44283 25.6188
Au 6.7569 21.7805 11.4117
Pd 9.3793 20.7532 12.1903
Au 15.2213 12.4698 8.13972
Au 22.6227 8.94555 24.9124
Au 4.34909 10.754 22.4599
Au 31.2858 27.5568 28.5419
Au 31.8922 14.3753 29.5069
Au 10.2017 28.8173 29.8086
Au 32.8954 11.8343 28.9048
Au 1.86402 16.1167 18.9488
Au 16 16.0932 14.6939
Au 16.2597 20.6716 12.4613
Au 8.83821 8.29687 17.8118
Au 10.0693 4.34199 17.8187
Au 9.09358 13.5035 13.087
Au 12.9558 29.3689 5.28447
Pd 11.6785 14.8543 9.43555
Au 3.55107 16.5674 26.241
Pd 20.6148 22.166 22.6321
Au 17.5358 15.7761 22.4152
Au 23.6715 3.40827 11.2801
Pd 23.972 15.4293 19.6654
Au 12.0642 20.3883 3.51804
Au 4.51086 28.5807 21.0638
Au 3.10939 13.7343 16.4411
Pd 30.1216 22.2662 27.6357
Au 29.6383 12.9761 7.30301
Au 2.67728 22.1961 17.7079
Au 9.50671 18.0802 11.5782
Pd 13.2408 27.3064 17.2699
Au 31.7869 12.6986 9.02343
Au 21.2892 9.5344 6.57698
Au 3.13272 15.4551 23.7917
Pd 7.52333 10.5035 16.9025
Pd 20.8169 18.7752 13.9778
Au 29.8237 21.5984 32.3361
Au 9.97742 19.0947 33.4485
Pd 34.0325 20.6486 17.391
Au 6.72663 13.8063 20.0196
Pd 6.60852 14.5951 13.4154
Au 17.9016 5.56998 7.70788
Pd 34.109 12.152 15.5971
Pd 27.3703 11.2356 14.741
Pd 19.2399 25.9214 12.3665
Au 15.3838 32.7895 11.6966
Au 19.6072 20.0645 16.8699
Au 12.9527 5.78242 13.1908
Au 11.4228 13.0036 20.3972
Au 6.54053 28.3552 23.1862
Au 18.9874 7.07949 18.52
Pd 15.7427 23.265 30.7552
Au 7.84716 22.1598 27.4509
Pd 12.6092 26.6419 22.2386
Au 21.3235 17.609 11.4779
Au 20.2006 23.7724 18.7313
Au 26.3498 8.6993 19.1811
Au 25.1389 13.1727 15.8673
Au 17.9936 19.5397 18.9986
Pd 29.443 23.6583 12.9954
Au 28.3742 33.2754 25.8584
Pd 19.4833 15.7274 29.4578
Pd 19.4496 25.6772 31.9093
Au 15.9724 14.1922 30.1
Au 25.1223 11.8726 35.0456
Au 16.0743 2.50329 23.3123
Au 8.30421 13.0218 17.842
Au 15.8545 20.8335 19.926
Au 6.01787 11.9328 12.5311
Au 11.8133 22.2 11.5036
Au 14.1015 10.1836 9.41004
Au 23.7957 23.7659 30.434
Au 7.26304 19.9346 28.8664
Au 21.356 12.7945 2.23148
Au 7.73255 33.584 24.8502
Au 20.1009 30.4713 4.68825
Au 3.69359 18.5033 14.7133
Au 7.81386 11.2302 10.6296
Pd 20.1358 30.2872 15.2084
Pd 22.5631 7.50501 22.5262
Au 28.8701 30.9277 13.1041
Au 19.5565 36.4061 22.6235
Au 10.6263 27.1942 34.0967
Au 4.32047 26.4886 12.0133
Pd 4.30595 14.9512 18.7629
Au 10.2724 28.1548 21.7297
Pd 9.23596 19.9044 19.7779
Au 18.3182 11.9957 9.06372
Au 4.59627 17.7029 12.0802
Au 16.4373 5.01245 21.9493
Au 15.0263 19.7939 27.6027
Au 13.5623 21.963 20.8831
Au 4.1007 23.704 24.1563
Au 17.8983 18.9356 31.2941
Au 35.5988 21.6234 19.4715
Au 22.9411 11.1624 8.70611
Au 30.9257 18.0615 28.1852
Au 3.20966 26.4527 16.2141
Au 25.8139 11.7725 23.478
Pd 5.65386 17.7342 16.9232
Pd 29.5207 9.40173 15.1151
Au 22.8845 22.1708 -0.0973583
Au 17.254 16.3668 25.1395
Au 13.8619 27.1268 14.6465
Pd 8.89477 12.0271 20.2625
Pd 17.7612 26.0121 6.48131
Pd 12.4283 7.00803 23.6754
Pd 16.5644 17.4128 5.39981
Au 14.4098 23.36 25.6887
Pd 11.8964 21.9967 8.53234
Au 34.0056 23.3468 12.1973
Au 13.8446 33.7532 21.1815
Pd 12.6892 11.0808 18.5808
Au 13.3201 11.2992 11.8016
Au 12.9267 7.61742 9.04365
Au 8.26289 17.4265 16.0212
Au 16.4641 23.9732 16.8459
Pd 11.9459 17.3608 10.4014
Au 21.2307 16.9598 3.05928
Au 20.9474 11.2387 31.363
Au 33.0162 13.9904 24.9594
Au 24.6434 29.2502 15.7137
Au 16.0449 26.5334 12.9259
Au 6.33786 26.047 30.7891
Au 15.7384 29.9393 8.3598
Au 28.9414 15.4816 8.05058
Pd 10.6985 7.18889 13.9378
Au 21.7268 19.99 21.3629
Au 9.27168 28.3966 24.367
Pd 27.2057 16.076 27.0398
Au 14.2366 17.5912 16.2631
Pd 12.1362 29.082 32.3266
Pd 13.3485 11.4426 6.60134
Pd 12.743 32.3453 16.5737
Au 10.3673 11.7825 11.4461
Pd 3.96245 25.1267 18.362
Pd 15.7743 27.217 29.4908
Au 19.4089 20.8375 32.8398
Au 24.0041 12.8829 27.1188
Au 9.28899 22.5556 10.2057
Au 9.46383 29.1178 32.4583
Au 4.68195 23.5746 16.3439
Au 31.1157 17.2733 14.1035
Au 19.4527 20.8563 29.9981
Au 34.6575 16.9531 10.5456
Pd 24.1643 18.0252 27.2076
Pd 9.12108 26.77 19.2916
Au 13.1777 8.37365 14.5188
Au 28.0312 18.2973 28.1897
Au 10.4414 10.4457 27.5233
Pd 23.0947 32.6905 21.8049
Au 24.2704 26.7517 17.325
Au 9.89497 13.504 27.4106
Au 7.51849 28.6519 20.594
Au 23.7876 10.105 22.4209
Au 10.1729 18.5254 23.4931
Au 18.9041 34.3247 26.421
Au 8.98623 23.7294 25.5872
Au 8.99841 30.7531 13.6904
Au 22.255 35.2762 22.3808
Au 10.6717 21.1435 24.2192
Pd 21.8929 19.1769 9.30319
Au 15.2192 31.3825 15.2515
Pd 21.586 17.4792 28.277
Pd 18.7194 4.21077 17.2274
Au 11.1578 30.1919 11.9359
Au 6.40843 29.9844 13.9409
Au 19.5426 30.3951 20.7545
Au 26.0899 22.3266 3.40352
Au 24.225 17.0116 29.6237
Au 20.4248 35.5583 20.2333
Au 13.8636 19.0959 20.5779
Au 6.11736 30.3952 29.2449
Au 20.1219 6.29701 16.1518
Au 21.897 25.4943 12.738
Au 9.1541 15.038 20.1326
Au 15.3797 28.1408 10.6726
Pd 33.6617 17.9986 12.7497
Au 16.1922 33.3078 19.7764
Au 21.364 13.7472 25.0898
Au 19.8416 22.7977 27.3026
Au 19.2055 20.6601 38.1597
Au 3.4269 22.0296 26.4723
Au 6.62454 24.4414 23.3972
Au 25.7161 23.9115 34.0867
Pd 22.5282 30.9711 17.0263
Au 30.7982 29.2073 8.87557
Au 18.927 18.2859 28.7538
Au 6.31745 27.7191 28.3592
Au 11.4775 31.9743 14.0197
Au 29.5667 31.1009 24.896
Au 13.7524 17.9571 13.6409
Au 27.984 12.9804 4.94822
Au 8.13095 17.5457 18.8918
Au 20.2127 30.0042 29.302
Au 16.5905 10.0117 8.44836
Au 3.62368 21.2308 15.2323
Pd 15.7318 18.2314 8.02197
Au 14.0334 36.0193 23.113
Au 1.87213 20.9053 24.4002
Au 7.25274 23.7632 6.98911
Au 7.15823 21.9806 24.3812
Pd 30.9465 21.8685 14.622
Au 17.1082 22.4243 14.4584
Au 21.5768 21.5224 34.3892
Pd 19.2345 32.8125 15.3927
Au 12.6706 25.0957 2.22526
Au 5.1073 20.614 17.4557
Pd 20.9697 33.3853 17.5984
Au 25.8876 13.5557 3.1928
Au 17.1598 12.7705 23.1345
Au 5.51436 29.3501 16.3649
Au 9.27597 30.1431 9.62199
Au 16.5619 8.23613 32.0075
Au 22.1264 29.0597 9.01008
Au 14.0259 33.0994 9.39504
Au 23.2269 34.9756 25.8986
Pd 6.64476 24.8978 18.0708
Au 27.763 22.0166 25.7127
Au 32.1849 25.629 21.1884
Pd 16.0685 26.7087 16.0766
Pd 17.9735 28.7142 9.28477
Au 22.8919 5.62589 20.4787
Pd 9.10987 27.713 27.3398
Au 26.7122 15.9835 29.8435
Pd 25.4978 3.60635 18.1403
Pd 32.9487 16.8305 19.6695
Pd 29.4699 11.6388 17.0289
Pd 16.9248 8.08002 6.57566
Au 26.5856 15.3056 20.2227
Au 9.60754 12.0813 31.9696
Au 28.3569 25.4618 30.2981
Pd 4.2837 9.69494 20.019
Au 9.53271 13.2816 22.5167
Au 30.6969 32.7664 20.7356
Pd 26.1987 24.2574 10.4676
Au 8.10073 17.8652 21.665
Pd 14.2261 20.1658 17.6445
Au 18.539 25.7273 17.4016
Au 11.6151 18.1601 5.003
Au 12.4881 29.8959 18.0057
Au 17.4895 11.9872 13.4051
Au 23.6514 9.2273 4.77353
Au 17.2813 25.2105 22.7755
Au 14.3024 8.10073 30.5324
Au 7.50805 15.1707 22.4819
Au 8.45257 10.7527 13.364
Pd 18.678 11.6941 25.9756
Au 17.1704 10.7663 15.8274
Pd 14.1449 13.7151 10.2927
Au 25.8244 19.1629 29.3809
Au 14.9378 31.0196 20.7272
Au 6.34666 19.4135 19.9406
Pd 25.091 7.84006 21.7259
Au 20.8005 35.5304 24.8019
Au 33.1319 25.8578 27.5664
Au 16.96 15.8142 19.6257
Pd 20.036 9.90309 9.0561
Au 25.3653 14.4775 12.0019
Au 6.50057 9.19439 21.7735
Au 22.3575 3.74557 29.9751
Au 11.9295 7.62692 29.3907
Au 23.2556 15.0957 3.3134
Au 25.716 5.25744 22.1663
Au 15.1292 18.5198 37.9673
Au 29.7899 10.7724 8.96683
Au 12.8563 26.4632 5.49623
Au 26.4828 19.9086 13.2519
Au 26.7836 14.5387 6.71356
Au 9.78385 21.5327 17.4618
Pd 19.7548 30.9942 17.8035
Au 30.9434 7.17627 18.2441
Au 16.3687 24.1781 8.13941
Au 27.3837 23.8199 5.65873
Au 17.2704 24.0459 12.286
Au 11.9496 15.0424 32.2021
Au 18.1936 9.25504 13.6099
Au 33.8 23.2523 18.2405
Au 21.885 9.93773 29.0001
Au 25.2894 10.8871 20.234
Au 12.8725 22.2345 35.4957
Pd 5.69733 15.3023 24.8786
Pd 23.7095 33.3464 17.388
Pd 13.8888 23.4112 9.55297
Pd 7.79034 11.7348 26.7696
Au 15.7159 33.7517 23.0692
Au 27.3064 12.6103 21.3682
Au 16.7936 13.4014 18.374
Au 19.2272 11.8724 35.4422
Au 34.1647 12.004 26.5664
Au 22.5256 31.5366 4.91253
Au 25.8446 18.6867 32.1645
Pd 12.4432 17.3588 22.0384
Pd 15.397 18.3475 25.2073
Au 17.6103 13.6982 36.8578
Au 22.3987 26.4587 8.01519
Au 20.7752 5.11917 7.71198
Au 10.8025 25.8897 26.3849
Pd 13.7702 25.4044 7.78114
Pd 18.9702 4.17731 11.7594
Pd 9.95302 5.64511 22.9536
Au 15.325 25.8632 18.6046
Au 8.98048 10.5063 22.6908
Au 30.4655 10.4457 28.7751
Au 15.8619 26.5759 34.3278
Au 7.92015 17.8697 27.0664
Pd 15.0419 25.7308 31.8416
Au 9.06884 26.1403 13.7999
Au 8.01475 19.5307 7.08296
Au 20.7381 11.0754 24.2729
Au 26.186 9.04224 6.23653
Au 18.0967 28.0328 14.676
Pd 13.4769 30.2003 25.1636
Au 8.75529 11.9014 29.3766
Au 19.0418 17.1035 18.6781
Au 18.0786 25.9284 9.81496
Au 28.9747 10.6307 31.0731
Pd 17 16.6766 30.1181
Au 17.7145 8.29323 24.9875
Pd 13.8885 24.7468 29.6317
Au 21.3043 3.23413 12.6804
Au 12.4396 23.8069 27.4843
Au 24.5818 5.02925 30.7234
Au 19.6175 19.8511 35.5774
Au 8.61949 9.18388 25.8249
Au 16.5523 19.3324 2.85523
Au 35.6318 16.1807 13.2628
Au 23.4932 5.77442 8.11983
Au 19.3795 33.7982 8.88061
Au 16.655 27.9113 23.7128
Au 31.6348 19.4442 15.8402
Au 6.81274 17.7455 8.7033
Pd 4.40372 12.521 20.2198
Au 9.99207 22.3348 20.5989
Au 19.0969 35.2795 17.931
Au 11.1211 33.9711 21.1865
Au 21.2252 10.7891 4.18333
Au 7.62778 13.2244 24.499
Au 21.6603 30.3799 25.4638
Au 2.97262 17.1081 21.4373
Au 18.9932 15.883 37.7362
Au 21.4032 22.9171 11.7055
Au 20.23 4.57289 31.6107
Au 15.961 26.998 8.28583
Au 24.3056 8.58711 17.4197
Au 12.9849 19.135 24.1183
Pd 23.6598 16.339 11.1607
Au 7.53571 25.3832 27.4375
Pd 15.2255 18.1879 35.2682
Au 34.1162 21.1928 21.9275
Au 10.871 14.5318 15.107
Au 14.3754 33.9411 27.7924
Au 11.8753 10.4318 16.0448
Au 12.6917 32.8637 29.885
Au 3.56824 20.5056 19.6865
Au 27.0921 34.4025 23.6301
Au 18.3647 1.99734 24.7151
Pd 13.8137 2.32264 21.7333
Au 11.2811 6.95592 11.2586
Au 8.77229 16.3317 13.5413
Au 16.7553 16.8673 10.1214
Au 7.364 30.8439 11.4573
Au 27.1452 24.5105 15.2814
Au 4.52811 20.8213 24.1984
Au 20.3888 12.1204 7.08052
Au 16.8843 14.331 9.32351
Au 16.4857 35.5238 18.1888
Pd 20.9917 24.9695 25.7542
Au 26.3085 33.5555 18.7564
Au 20.6443 32.4745 6.74753
Pd 28.8018 20.124 23.734
Au 31.8554 28.3563 11.223
Au 7.51048 28.5121 30.6692
Au 24.4817 6.62539 24.1957
Au 20.8296 28.2609 31.6903
Au 14.3545 23.1616 33.1149
Au 18.003 31.5112 8.95139
Pd 11.4869 32.2702 25.5122
Pd 22.235 22.5092 20.3636
Pd 8.39896 21.0449 14.871
Au 13.277 19.6974 36.4519
Pd 15.5839 18.0547 18.5633
Au 20.9174 21.3399 14.7787
Pd 24.7644 15.6903 31.9486
Au 24.7683 26.2014 9.20658
Pd 28.1219 10.8075 19.6748
Pd 8.0685 15.1509 26.3048
Au 35.9349 21.6248 14.0859
Au 12.4013 33.957 23.6058
Au 14.048 35.0794 11.8654
Au 34.4226 25.1312 14.1548
Au 2.6356 26.2869 24.8461
Au 12.5738 24.6995 34.6201
Au 12.8766 29.9937 29.8016
Au 22.8479 23.1632 14.1697
Au 9.97779 16.961 31.0561
Au 7.5148 21.8545 19.3505
Au 15.9876 35.0943 25.5217
Au 12.3731 2.92381 17.0388
Au 26.8403 27.6681 29.9415
Au 27.6224 32.5719 9.42458
Au 5.78211 13.5073 26.8961
Au 19.4221 28.3808 16.9802
Au 29.4525 17.8619 9.3435
Pd 24.4938 27.1675 22.0546
Au 4.24757 28.033 14.2814
Pd 26.6989 28.0322 17.1896
Au 13.1229 9.42954 22.4026
Au 14.1476 12.0843 30.3286
Au 16.044 25.3883 25.1557
Pd 20.0902 21.0116 3.02069
Au 28.8043 19.8385 19.1017
Au 13.8168 26.2959 27.4446
Pd 20.6854 28.0741 24.3215
Au 27.9851 3.85477 26.8358
Au 18.5941 10.2173 6.45915
Au 17.4803 21.822 3.48428
Au 14.7247 13.1184 13.1741
Pd 15.0595 29.1587 16.7444
Au 18.2666 1.79748 15.7349
Au 27.5134 21.3302 28.4176
Au 7.24658 13.8659 10.8772
Pd 14.2818 32.7813 25.2822
Pd 21.5479 16.0687 18.3757
Pd 10.9323 26.9054 11.7913
Au 22.8337 30.0294 30.7134
Pd 16.4125 22.6261 23.2842
Pd 23.2358 17.5298 13.513
Au 13.3961 12.9211 16.3565
Au 6.74376 21.4972 31.1147
Au 22.6709 26.2948 23.8774
Au 15.5776 19.5657 14.9805
Pd 13.7943 30.4604 10.2242
Au 15.455 6.70157 8.31952
Au 25.6956 32.4527 11.4763
Au 8.20974 26.3789 22.0996
Pd 30.2827 28.6567 13.3659
Pd 22.6152 11.2965 20.0479
Au 19.9888 22.6919 36.4529
Au 26.8622 32.6479 13.9967
Pd 32.0001 21.8689 20.0643
Pd 16.5642 4.02403 15.6238
Au 12.868 14.4701 22.3154
Au 12.3103 9.78983 31.4293
Au 18.6445 26.7425 34.2525
Au 14.1642 6.04129 28.6176
Au 31.1479 24.4829 18.634
Au 29.0426 14.0783 26.5084
Au 24.7812 22.6657 19.0249
Au 27.9598 15.6625 10.7893
Au 24.3608 16.3519 22.2845
Au 25.7972 18.5031 0.368715
Pd 10.2381 6.7129 19.2813
Pd 20.5398 13.2416 13.5769
Au 4.19357 13.3585 13.8542
Au 31.4357 12.9071 27.0217
Au 16.2454 16.0212 37.5486
Au 18.6151 3.47352 22.4961
Au 15.7666 4.15793 25.3934
Au 17.0557 22.9778 26.2865
Au 20.9902 26.3979 2.95124
Au 11.9222 14.0011 12.0021
Pd 17.8967 34.957 21.0115
Au 33.7183 19.5102 19.8521
Pd 16.6438 17.6919 27.543
Au 31.5566 19.7181 13.0574
Pd 18.571 5.64978 28.5787
Pd 11.0339 13.2566 17.7209
Au 23.7271 8.70899 7.44911
Au 20.8094 14.5328 16.0357
Au 24.3605 31.8991 19.5957
Pd 18.1535 7.38841 22.4434
Au 11.846 3.20378 19.7534
Au 14.5917 23.1201 12.2013
Au 27.5447 15.0622 13.6036
Au 21.9011 16.0601 5.72948
Au 16.8138 2.19581 17.9535
Au 18.9233 27.3456 22.2357
Au 10.1353 14.2941 30.1668
Au 28.4048 12.6439 24.0314
Au 13.3888 13.5156 25.2556
Au 18.5431 10.4404 22.8644
Au 26.7331 13.5673 28.2691
Au 6.73048 12.4267 15.1145
Au 31.0322 6.22611 23.8015
Pd 14.8816 15.7533 26.1091
Pd 29.2022 11.3227 26.5159
Au 11.2273 20.2154 31.1821
Au 20.5841 5.96282 13.042
Au 6.27988 15.5089 31.4321
Au 25.3035 6.09828 19.4793
Au 16.5191 10.6156 24.8786
Pd 29.8305 17.352 3.92166
Au 21.5294 7.6653 8.84388
Au 15.4155 23.8772 2.85392
Au 11.0643 29.7761 7.28146
Au 25.3039 6.67823 12.2883
Au 19.8381 27.8019 5.19327
Au 19.8147 27.1074 7.87731
Au 14.8059 9.41153 19.9064
Au 25.6717 2.57075 26.2055
Pd 4.35776 27.7799 18.3417
Au 6.18474 9.69846 14.6442
Pd 1.10294 21.3528 19.9391
Au 21.9394 33.1434 24.2983
Au 31.8632 7.75538 21.8081
Au 19.9587 15.7203 20.9593
Au 6.50777 31.8666 26.7457
Pd 12.5122 32.2061 19.3989
Au 33.1378 28.6071 18.2463
Au 24.9802 2.66688 23.5339
Au 29.4206 13.0207 29.2061
Pd 13.2869 27.3926 30.456
Au 13.6182 3.87188 26.9588
Au 27.4893 35.1955 13.6476
Au 26.794 15.815 35.4761
Au 34.0292 27.2557 16.0439
Au 25.5809 24.8195 20.7347
Pd 28.2151 9.78555 24.5661
Pd 17.2423 15.0553 27.7205
Au 24.0423 31.3946 23.8807
Au 20.403 5.81155 22.7984
Au 9.85415 23.6881 15.6207
Au 30.3492 19.8025 5.13114
Au 15.2701 35.6434 14.2465
Au 19.6293 14.7609 3.18262
Pd 12.1415 8.33203 26.5769
Au 23.1334 11.5052 6.0899
Pd 17.5803 18.4733 23.4513
Au 8.42416 30.3213 22.5942
Au 17.8877 25.191 14.7499
Au 18.5673 29.8631 23.384
Au 31.7191 21.883 25.2663
Au 27.2244 11.2222 33.4098
Au 22.5629 18.2214 35.9124
Au 22.1757 28.8398 3.54177
Pd 12.695 15.3883 17.2314
Au 18.9239 23.5626 24.4996
Au 32.2894 17.2821 8.72331
Au 29.4878 10.5883 22.2789
Au 22.0374 25.899 30.9624
Pd 19.8158 13.4251 22.7715
Pd 17.7268 22.107 34.8337
Au 15.2761 14.7403 23.6549
Pd 20.4856 3.89176 24.6096
Au 17.826 4.04796 30.5476
Au 27.4487 18.2735 25.2871
Pd 27.9062 16.8336 5.71652
Au 19.8733 3.25586 29.0391
Au 24.3773 16.1477 7.06029
Au 12.6739 17.8345 18.4562
Au 16.483 22.6432 5.87704
Au 35.9298 24.7413 19.2126
Au 10.2249 15.9274 22.6585
Pd 19.0445 12.3499 32.8701
Au 30.8389 19.245 31.9788
Au 29.0893 14.8528 34.2927
Au 25.8083 13.1926 18.732
Pd 13.8385 30.8841 12.8824
Au 24.2983 19.2487 11.5749
Au 15.3265 26.6712 21.3838
Au 16.0756 19.9658 5.75489
Pd 15.5926 29.9335 30.1665
Pd 29.3593 15.7631 15.4172
Au 23.7614 22.5915 32.972
Au 14.9444 13.2308 5.31362
Au 14.4822 10.8833 14.9141
Au 22.9919 24.5911 18.7319
Pd 23.2084 18.1447 31.8254
Au 20.6284 2.27512 17.5162
Pd 28.3491 30.1657 8.46596
Au 34.6761 26.663 20.9004
Pd 22.8474 27.0986 10.8446
Au 23.529 29.8073 21.1288
Au 33.7804 11.4215 24.0198
Au 17.6646 22.6858 18.9225
Pd 19.1222 33.0069 19.586
Au 23.09 27.0993 19.8082
Au 35.6844 16.061 18.185
Au 19.5048 31.9857 24.7216
Au 21.1836 3.52277 9.95807
Pd 18.7024 12.9191 16.2048
Au 19.9075 29.9081 7.49042
Pd 33.3889 25.915 18.5925
Au 16.8297 35.123 12.0906
Au 22.9904 18.5664 6.91063
Pd 13.1832 19.0768 8.59315
Au 13.9114 34.502 18.5371
Pd 18.7481 14.692 34.6472
Au 23.485 20.2846 14.0655
Au 13.2055 28.3339 12.3165
Au 18.0577 31.6067 6.18161
Au 26.039 20.279 23.9674
Pd 23.0673 14.5317 13.6121
Au 32.2073 20.3949 27.5209
Au 20.6687 20.1362 27.6864
Au 27.1716 8.33369 26.6339
Pd 11.8513 23.215 19.0252
Au 21.5708 29.172 18.8857
Au 10.299 34.7909 25.1653
Au 32.6245 28.4205 26.1207
Au 28.9406 31.2695 27.714
Au 15.2862 33.9039 16.3255
Au 14.2342 18.4109 3.96191
Au 21.8738 21.6611 17.658
Au 23.4443 21.196 7.084
Au 1.5592 23.5539 24.8453
Pd 24.7826 11.5125 29.4168
Au 11.6408 33.9697 27.6177
Pd 17.6796 22.8361 28.9128
Au 19.3028 34.5773 13.2371
Au 26.0501 32.334 21.8723
Au 19.4287 28.579 2.68402
Au 19.9124 21.2461 19.7617
Au 17.6013 28.8514 6.50375
Au 23.3469 35.3207 15.6225
Pd 22.293 13.9784 7.47327
Pd 8.59752 30.9537 30.5312
Au 3.76683 27.335 27.2593
Au 34.0737 20.7003 12.3887
Au 7.16693 19.1635 12.612
Au 11.8875 23.5732 22.3284
Au 34.4859 14.5162 20.1807
Au 28.6038 20.6432 9.21132
Au 28.1221 8.80548 8.32973
Au 36.0793 18.8638 18.5704
Au 28.7699 15.3354 21.7394
Pd 10.4591 25.7416 23.6332
Au 31.0586 11.8453 24.3553
Au 18.6852 26.4276 24.9738
Pd 24.2555 29.2662 18.4436
Au 26.697 31.7592 24.513
Pd 21.9428 32.9549 15.1584
Au 31.4171 22.1415 11.9605
Au 14.1393 16.1956 9.03147
Au 17.5094 30.3224 16.2915
Au 29.4551 13.0981 14.4909
Au 24.6801 20.9522 31.1429
Pd 21.4633 11.7116 26.8661
Pd 21.4717 28.1217 21.7022
Au 8.49356 28.4653 12.0886
Au 6.06307 19.765 15.0491
Pd 17.9405 30.7439 13.5579
Au 34.776 29.2211 20.1579
Pd 9.14351 23.9727 18.4579
Pd 16.9733 28.0775 18.2848
Au 13.4701 15.1493 14.5595
Pd 13.1871 31.4885 27.5084
Au 29.9466 29.0413 26.6765
Au 27.6601 13.6222 16.4786
Au 28.0083 32.7145 16.6357
Au 27.0334 20.0543 21.425
Au 30.5037 17.3533 6.59663
Au 32.9272 15.381 12.1101
Au 15.8721 32.5458 7.51267
Pd 16.5238 30.527 11.1205
Au 32.6037 30.9219 19.8438
Au 18.7431 13.3541 11.4156
Au 8.63377 34.515 17.6245
Au 20.8993 12.4612 9.87333
Au 19.477 6.59199 26.2178
Au 15.4501 30.6014 5.62983
Au 1.74868 19.6985 21.9941
Pd 16.6205 6.43896 26.6722
Au 17.4221 19.3274 33.9417
Au 28.5514 6.20073 27.9983
Au 7.52025 17.1365 29.694
Pd 21.4839 18.5208 25.6834
Au 21.9248 20.6816 36.935
Au 11.8894 15.4988 19.8314
Au 27.4259 8.8052 13.1535
Au 20.0778 14.7419 31.9646
Au 14.7501 10.275 32.4443
Au 11.9966 12.2634 14.0345
Au 35.2426 12.9523 22.2367
Au 12.7724 16.3011 24.498
Au 17.9534 16.3903 7.54158
Pd 31.4404 19.3634 18.4502
Au 19.6619 20.5737 9.87757
Au 14.8802 1.73302 16.2174
Au 25.7461 29.586 22.847
Pd 17.3569 18.191 16.5694
Pd 23.4511 11.5099 24.8172
Pd 9.58833 4.48196 20.5218
Au 6.55246 26.9973 13.5031
Au 19.7108 5.9329 9.98673
Pd 24.777 10.4197 15.4116
Au 6.57915 9.28422 12.0228
Au 23.922 13.7727 1.22596
Au 36.1685 18.9145 13.4404
Pd 12.3508 12.4953 27.5808
Au 29.6999 12.8443 10.7935
Au 23.7027 34.5353 10.8977
Au 26.0183 7.01829 8.10688
Au 7.334 23.7732 29.7015
Au 20.9274 1.72103 14.8982
Au 19.5486 7.49981 6.84068
Au 13.8321 11.753 20.9602
Au 26.3003 11.0951 26.3417
Au 14.8301 19.1326 32.6246
Au 8.72645 26.0588 16.6099
Au 2.47708 14.5149 21.0617
Au 21.5779 13.4556 4.79381
Au 13.9403 3.69199 14.6834
Au 9.60038 20.2834 4.97221
Pd 28.7839 23.1025 10.4276
Au 17.6866 32.1212 21.8546
Pd 30.0709 23.8759 21.1351
Au 11.5506 20.1967 21.7559
Au 30.8928 26.5177 26.0325
Au 26.2268 6.53507 29.3029
Au 18.3467 34.2461 23.7049
Pd 24.019 14.1619 34.1173
Au 31.115 16.8192 30.6804
Au 17.809 18.2102 38.4535
Pd 13.5237 28.3732 7.8445
Au 24.3662 20.8539 16.8404
Au 27.6602 10.5816 10.6564
Au 16.3213 2.44904 20.6489
Au 25.6525 27.0193 11.6481
Au 22.7102 2.78956 19.25
Au 10.4766 25.1799 20.8022
Au 14.2756 4.48595 20.2328
Au 16.7943 8.93636 18.0308
Au 23.214 2.69008 27.5744
Pd 23.5284 2.49892 13.9478
Pd 8.7857 26.3332 29.6954
Au 28.2761 25.451 20.0213
Au 22.0556 15.7659 30.4416
Pd 20.2367 8.24463 11.4036
Au 21.8282 7.60399 27.4058
Au 30.7581 18.6495 20.9172
Au 31.5702 20.5547 22.722
Au 31.1298 19.1216 24.9988
Au 34.9298 24.1157 26.2964
Pd 6.70969 19.4018 23.4447
Au 13.1729 26.6181 10.0286
Au 24.1221 7.8045 10.0382
Au 29.2375 22.9354 30.1499
Pd 7.34583 32.7909 22.3427
Au 15.3781 20.0551 22.6895
Pd 14.6707 13.672 27.8518
Pd 18.8854 18.9129 11.9994
Au 26.4065 31.7531 27.2935
Au 22.548 8.4158 33.4007
Au 14.9317 28.6888 32.4089
Pd 20.1144 23.71 3.07572
Au 2.31216 23.6962 20.0276
Au 7.06963 27.8382 18.0546
Au 18.5659 25.9953 2.08732
Pd 24.5151 32.167 15.1008
Pd 11.7736 16.9041 7.63214
Au 11.1707 9.73898 13.1847
Pd 19.1196 8.87787 16.5018
Au 28.1007 15.6534 24.4065
Pd 4.46625 25.1414 14.2428
Au 25.4952 22.1443 14.7311
Au 31.1755 30.7547 22.5635
Au 25.1011 12.6577 7.83709
Pd 27.6226 29.1888 24.8011
Au 20.6164 20.607 7.18105
Pd 11.9126 27.3775 19.6267
Au 32.5903 19.3034 30.0166
Pd 16.4191 29.834 25.8048
Au 6.99816 12.935 31.1447
Au 35.3242 25.039 16.6654
Au 29.5874 7.19168 13.4191
Au 29.7218 4.73748 18.239
Au 23.5524 27.968 13.325
Au 15.8543 5.73295 30.7969
Au 24.5529 22.1923 21.8356
Au 25.8392 20.1469 8.25399
Au 20.4319 25.109 22.9962
Au 32.5505 9.17025 19.6248
Au 21.0621 6.0826 29.5754
Au 21.0785 12.0252 17.6759
Pd 17.7377 24.5147 4.18449
Au 31.5978 9.06734 13.1934
Au 29.751 19.6642 2.5309
Pd 8.78995 25.0957 11.2361