1687
Atoms. Timestep: 21265
Au 16.5067 10.5473 4.23991
Au 4.85061 17.1561 10.2144
Au 23.4171 3.8029 17.5502
Au 26.0477 14.5501 26.3616
Au 6.88101 10.8474 25.5556
Au 11.0901 24.4827 27.8633
Au 8.3329 26.0288 27.7011
Pd 20.5656 13.9103 12.3483
Au 24.7897 3.51887 24.3449
Au 18.0331 19.2065 19.7242
Pd 17.7242 23.6244 28.7734
Au 21.6841 33.4037 30.5381
Au 15.8417 10.3039 19.3596
Pd 29.9153 21.8359 6.63823
Au 23.1513 7.6812 6.55625
Au 10.6744 10.3671 12.0101
Au 25.2425 6.3399 24.4323
Pd 20.5222 7.91635 21.3937
Pd 6.80787 30.7352 17.5639
Pd 8.55314 24.9825 10.4693
Pd 11.6991 21.6089 30.6879
Pd 23.6941 26.4293 10.0024
Au 13.0253 11.7023 8.22423
Pd 9.97072 26.9957 23.319
Au 19.0091 21.8853 22.6773
Au 8.7665 29.6881 13.0894
Au 11.5294 23.8965 2.34319
Au 19.1426 15.7041 3.8796
Au 7.96989 9.51666 17.4973
Au 11.8811 11.0094 30.2771
Au 10.1638 11.1549 18.4699
Pd 14.971 21.0645 8.83599
Au 25.9875 10.0411 31.6393
Au 17.9348 12.2862 15.6361
Au 11.0332 30.5311 14.3756
Au 18.9366 19.6073 3.03073
Au 11.9094 10.4646 22.9717
Au 22.2307 34.8142 12.9588
Au 21.9428 26.7422 7.87547
Au 3.42301 26.8646 19.311
Au 23.4374 7.16416 27.4631
Au 10.6758 22.0433 26.2375
Au 13.5987 20.4179 12.4872
Au 27.3992 5.92762 26.0786
Au 31.6904 9.72676 11.4072
Au 15.8114 13.6642 30.5097
Au 28.0911 11.3589 30.3861
Au 19.5437 26.0287 36.2969
Au 17.9964 13.9732 34.9711
Au 7.61377 28.3382 18.5083
Au 22.3099 27.5884 12.4415
Au 13.4222 19.9768 29.2911
Pd 12.1745 14.0093 9.42228
Au 6.04087 16.0267 7.9907
Au 4.9008 10.8706 19.699
Au 9.95567 24.3867 21.6066
Au 6.97946 31.691 12.3486
Au 11.0884 15.7113 13.4681
Au 16.5188 29.5294 18.3149
Au 7.38905 15.8362 19.4421
Au 28.2968 13.0822 25.9914
Au 9.02108 19.8415 16.4836
Au 12.7514 16.9839 6.24099
Au 13.034 8.93116 12.1532
Au 5.78971 26.3993 10.7571
Au 8.23941 15.7112 14.6976
Pd 27.0346 18.0928 14.7245
Au 17.4594 7.47645 9.48842
Pd 13.8711 31.4122 14.7747
Au 20.3254 19.5346 14.0582
Pd 5.85172 23.0671 13.6563
Au 6.41436 20.119 20.2755
Pd 8.50129 15.6813 22.1295
Au 15.1382 30.2503 3.89749
Au 26.5194 7.57121 10.6175
Au 12.7011 15.5045 27.3121
Au 10.5225 16.1727 31.8639
Au 11.2579 13.2529 12.1851
Au 10.5864 13.8575 22.384
Au 6.9958 19.1444 30.2763
Au 15.1428 25.6928 34.9788
Au 8.60884 7.00206 18.6773
Au 8.65682 21.8922 10.0473
Au 11.3652 32.8614 15.8061
Au 11.9794 34.7506 22.496
Au 3.65948 16.1464 16.7476
Au 16.8045 4.09752 15.9242
Au 10.1127 18.855 10.16
Au 28.0002 27.6139 24.8856
Pd 23.1624 15.6368 19.386
Au 2.92953 12.7885 23.7076
Au 9.39028 17.8692 36.2985
Au 22.4253 31.4684 16.0508
Au 16.2919 2.47687 18.2102
Au 11.5761 30.2238 16.9991
Au 24.9296 14.552 36.0015
Au 14.3239 10.9847 34.308
Au 14.3679 35.5213 21.4446
Pd 7.79906 17.4502 16.7292
Au 3.99323 25.8282 24.7744
Au 15.3918 13.1002 10.4438
Au 22.332 2.76113 25.1827
Au 24.5266 27.6609 17.1715
Pd 23.9419 20.0488 18.3635
Au 22.2223 34.6845 27.9735
Au 27.8451 31.3861 22.9074
Au 4.27816 15.3894 19.296
Au 15.8329 31.5038 30.6901
Au 22.5258 35.0398 25.2576
Au 32.9385 16.6633 22.3374
Au 8.90769 19.8625 34.57
Pd 16.8633 19.7633 24.9473
Au 24.0203 11.9441 22.6438
Au 12.3016 34.3441 25.1796
Pd 24.5691 11.6321 9.82707
Au 18.4478 14.2532 31.9469
Pd 27.3845 18.1379 17.3274
Au 12.4928 6.90743 16.326
Pd 10.6656 30.8473 11.6203
Au 27.2427 29.4677 20.9439
Au 8.28864 14.8884 6.82323
Au 28.707 10.9531 27.7156
Pd 15.8037 18.1116 32.8743
Au 13.4862 6.938 25.2955
Au 8.5647 17.0232 8.7382
Au 8.51591 23.6012 26.4797
Au 18.3449 9.32917 30.7247
Au 36.2372 14.5327 16.7285
Au 10.4287 26.0498 25.8163
Au 15.3535 13.1094 4.97928
Au 21.4358 30.0184 13.6638
Au 15.1628 10.279 12.8951
Au 14.524 30.8232 22.1292
Au 30.4117 6.86137 14.8871
Au 4.94047 28.9881 18.4813
Au 15.7992 25.9006 3.974
Au 9.74954 27.6808 5.81347
Au 4.60509 14.5094 10.3505
Au 14.2697 24.6006 1.97855
Au 25.5506 6.55302 13.3855
Pd 21.9977 14.6952 27.9586
Au 3.13441 14.7219 21.8511
Au 28.6846 11.9102 4.8885
Pd 12.1171 20.2447 21.8757
Pd 27.7601 16.1711 9.87954
Au 11.6937 12.5784 24.6657
Au 23.5449 28.08 26.9732
Pd 13.8603 11.981 31.8454
Au 38.305 18.7167 19.5697
Pd 21.0012 6.71016 18.7875
Au 6.50877 16.8416 28.5915
Pd 24.7091 21.2007 14.8244
Au 16.9421 17.6226 35.3462
Au 6.41148 15.0745 16.9385
Au 20.328 15.5503 29.9741
Pd 19.5123 13.3174 21.8698
Pd 8.04233 29.0565 22.8453
Au 10.004 5.91104 16.6744
Au 13.5508 32.5015 26.6212
Au 10.1365 23.773 8.54514
Au 20.7031 14.4873 9.68096
Au 5.82506 18.7536 8.1677
Au 24.6836 12.7212 7.25439
Pd 14.1007 8.29437 20.5146
Pd 25.0595 4.91306 22.0149
Pd 11.097 28.2589 12.5697
Au 23.5529 14.2848 9.26285
Au 6.97607 16.2886 24.2417
Au 9.87066 21.0731 23.5761
Au 12.1437 18.09 20.3084
Au 9.14937 14.0459 9.32555
Au 16.4272 10.2867 22.2059
Au 9.59013 13.9009 19.6117
Au 7.45443 23.998 20.3696
Pd 22.7914 22.4519 33.7873
Au 23.7299 2.4543 15.0196
Au 3.04072 20.6314 25.9868
Pd 5.06489 20.4132 14.541
Au 10.5616 8.66969 17.214
Au 21.8282 6.25796 29.7042
Au 16.6135 12.8069 25.1355
Au 6.27561 19.9142 16.9484
Au 16.5484 17.5402 23.3714
Au 17.6782 6.35417 30.412
Pd 21.4203 15.4705 35.0992
Au 12.5051 28.9943 33.2001
Au 20.3634 2.45037 21.0582
Au 13.0656 18.1474 17.6781
Au 20.2056 18.0214 5.1242
Au 15.5682 7.46957 13.67
Au 16.2427 2.30308 20.9766
Au 10.5862 10.1922 7.513
Au 23.0109 19.5028 13.4233
Pd 7.8298 21.1908 25.4444
Au 10.711 7.62748 11.631
Au 8.55873 8.91983 12.8607
Au 7.47842 26.5375 8.49639
Au 15.4021 5.78484 9.20893
Au 10.7298 20.3689 14.2199
Au 17.7175 13.0098 3.59436
Au 16.4501 7.67435 21.5208
Au 25.1193 15.6711 31.5646
Au 34.4039 11.2498 18.1966
Au 21.6841 16.1248 25.4024
Au 32.4021 28.6843 23.5879
Au 8.78699 12.1253 26.9366
Au 35.3399 23.0271 24.637
Au 14.0422 25.7891 21.1566
Au 18.9738 8.20902 17.402
Pd 19.9815 17.9935 16.4075
Pd 3.5734 13.2634 12.5805
Au 8.23331 18.6055 19.1529
Au 13.8674 9.00898 15.0483
Au 12.0073 9.90418 19.9255
Au 27.2092 34.0543 15.5541
Pd 11.8024 26.2165 32.1147
Au 3.75493 26.6495 22.0889
Au 19.6608 16.2406 27.3908
Au 14.9811 5.52838 11.8155
Pd 19.7607 23.5691 4.16312
Au 8.38864 11.6357 7.99773
Pd 15.2463 23.7398 14.9815
Au 9.43174 15.3337 17.1812
Pd 9.06738 18.4974 32.2301
Au 5.42894 22.3851 18.9223
Pd 5.50732 17.3207 15.233
Au 19.5674 13.4198 28.0751
Au 5.9642 27.5415 23.7046
Pd 27.0284 16.2797 29.4712
Au 2.07806 22.7007 18.5837
Au 26.287 20.703 17.0131
Au 33.9523 20.753 18.7298
Au 15.4043 8.49452 5.63818
Au 14.0049 14.2861 17.3556
Au 9.10826 22.2765 33.1677
Au 20.2125 13.7043 36.6964
Au 8.68885 25.0917 6.33189
Au 25.07 7.75085 22.1201
Au 23.8364 19.4486 31.8636
Au 9.68359 30.3453 29.5735
Pd 16.5916 29.7816 6.05479
Au 21.1553 28.2517 23.2183
Au 10.5011 24.821 34.0677
Au 10.4119 15.4789 35.9037
Au 14.7162 28.5753 34.848
Au 8.91202 13.9274 31.1509
Au 14.4333 30.9594 33.0916
Au 17.3264 20.616 17.573
Au 16.5556 31.2089 8.47867
Au 12.9311 9.43182 6.60586
Au 8.67112 11.751 13.2002
Pd 11.1421 21.4622 6.00752
Pd 24.1756 29.6893 13.8163
Au 6.21922 29.0227 12.3081
Pd 14.4351 11.4463 24.1063
Au 2.43484 21.5141 23.4052
Au 25.767 32.8922 21.9595
Au 29.8729 32.9847 21.8236
Pd 10.4073 25.0668 16.8552
Au 5.95918 25.3771 15.5378
Au 11.8893 16.7881 3.44948
Au 9.98813 13.5722 14.8932
Au 15.4698 18.7361 18.6451
Pd 7.93849 21.4269 14.5607
Au 12.7247 20.0333 26.4875
Pd 12.5315 24.0816 22.563
Au 18.4244 6.22944 22.6993
Au 5.80501 24.8502 22.9136
Au 16.805 36.3114 20.2713
Au 10.3465 23.8573 24.2071
Pd 25.1334 16.3189 24.3334
Pd 28.1274 7.39103 12.8242
Au 13.7324 33.2715 30.567
Pd 5.52966 21.5611 26.7934
Au 27.4446 12.9841 16.855
Pd 6.33496 16.1215 12.8897
Pd 12.6345 26.7889 16.7011
Pd 9.10537 19.7889 5.4977
Au 14.8341 35.5699 26.8368
Pd 10.4375 10.3453 25.5772
Au 16.0167 33.1765 13.8793
Pd 23.9982 18.1232 11.3299
Au 24.1966 4.15978 12.6582
Au 13.077 19.2096 2.49002
Au 17.0858 9.42176 7.73384
Au 23.4415 32.4562 13.7114
Pd 8.80258 14.3852 12.2958
Au 11.8892 4.66071 18.1005
Au 20.4228 21.8708 9.11196
Au 14.1633 33.319 23.2139
Au 13.5359 34.0891 14.579
Au 19.9725 9.28252 12.5927
Pd 10.0431 24.0115 31.3572
Au 22.1901 9.2945 14.1034
Au 14.189 3.54718 19.53
Au 4.7623 14.6275 14.6405
Au 13.0419 22.4728 10.0995
Pd 17.3309 24.633 10.6819
Pd 19.378 31.1223 23.2902
Pd 13.0225 9.67294 25.5705
Pd 26.2795 29.0715 23.4768
Pd 16.3146 25.9515 28.0339
Au 18.2511 32.1162 29.4494
Au 5.19995 18.5027 12.6026
Au 20.8874 15.3297 22.9481
Au 5.17096 19.0829 27.7836
Au 32.2881 22.9735 7.07271
Au 16.5137 15.4188 18.0903
Au 15.5805 34.0092 16.4005
Au 19.3345 23.3859 17.5115
Pd 18.7686 8.47071 25.9593
Au 21.5361 21.8486 18.3924
Au 28.9506 13.632 14.2001
Au 16.0455 24.1694 26.113
Au 18.1644 34.0368 18.6293
Au 25.879 29.6344 7.32885
Au 16.8242 28.4633 8.47137
Au 33.7963 17.5263 10.6098
Pd 12.8439 28.5775 14.6811
Au 12.7867 34.4759 28.1816
Au 9.04901 18.2643 28.7886
Au 16.7268 30.5184 34.7683
Au 17.3947 29.4437 29.6654
Au 11.7329 18.1757 12.2802
Au 10.3706 32.938 26.4013
Au 24.9916 19.2917 36.544
Au 6.19519 21.3632 9.1369
Au 3.05564 11.0216 21.6757
Au 17.6481 34.6595 12.3253
Au 27.3914 18.9408 28.863
Au 28.1038 30.4812 25.6726
Pd 19.0784 16.737 24.7828
Au 26.5182 24.4843 5.68409
Au 9.24069 9.46101 9.91951
Pd 30.0986 9.8302 20.3466
Pd 30.0794 13.2938 28.2241
Au 11.1482 14.6101 5.08746
Au 24.2 14.2705 13.8647
Au 23.0785 21.6754 8.70754
Au 18.3324 14.398 13.7388
Au 6.31769 21.0006 11.9984
Au 14.085 21.7939 33.9766
Au 17.4624 3.93507 27.4673
Au 7.14041 15.5466 10.4645
Pd 14.4498 26.2972 14.8289
Au 5.97525 11.3778 17.1701
Au 28.8676 6.26846 10.3436
Au 4.78382 10.8098 23.7993
Au 27.2844 20.7042 31.1497
Au 18.9044 22.0504 33.0477
Au 7.07323 20.4171 32.6558
Au 27.3214 3.25006 21.4539
Au 14.9271 13.5506 19.9963
Au 24.6012 22.1069 2.08523
Au 12.8297 18.5631 14.7811
Au 16.0917 5.05431 20.9843
Au 17.0935 17.4073 9.98284
Au 24.2561 6.21453 10.8818
Au 26.9611 27.1272 6.43891
Pd 11.3175 29.3592 7.42519
Au 7.42785 7.53973 21.7081
Pd 30.1624 22.8127 19.2694
Au 18.242 3.57085 22.4052
Au 20.3681 10.6736 21.665
Pd 20.4554 12.152 19.4069
Au 7.8824 11.8789 10.6261
Au 3.19919 23.3173 25.5397
Au 4.44676 19.9626 22.2861
Pd 23.6491 14.5841 33.6471
Au 35.235 26.0357 18.6841
Au 10.5103 26.3625 29.7267
Au 19.4777 9.17527 9.9203
Pd 3.73831 18.9024 16.6157
Au 28.4568 13.9961 11.383
Au 24.1973 15.4226 6.76407
Au 10.2457 6.27777 13.9958
Pd 3.17074 12.9677 19.6595
Pd 18.628 18.7425 26.6827
Au 20.464 24.3495 29.3044
Au 7.41128 31.7713 22.8995
Pd 20.9775 23.3588 24.0505
Au 16.3247 9.63091 16.5779
Pd 11.8082 22.5126 20.6178
Au 26.4229 21.7073 4.12157
Pd 32.1389 16.9225 25.5814
Pd 24.652 17.0165 13.787
Pd 25.2271 14.2725 17.8926
Au 14.7815 26.7478 7.62753
Au 21.6061 23.1403 15.9523
Au 12.1773 10.7662 16.3793
Au 14.9122 15.5437 9.22826
Au 13.6451 17.5756 25.6733
Au 23.666 6.51654 17.7293
Pd 23.3143 32.7292 23.8754
Au 10.476 28.6074 31.5024
Pd 13.9242 32.9023 20.3014
Au 23.4307 13.4278 4.84305
Au 10.5038 20.388 19.2519
Au 27.3219 4.56216 23.7826
Au 15.7643 17.7133 1.83038
Au 15.0642 19.6155 16.031
Pd 31.0693 18.3465 32.5487
Au 29.6824 32.4098 24.5727
Pd 17.7682 15.0695 29.3144
Pd 16.9193 29.6339 23.0291
Au 13.6941 6.86419 28.4627
Au 30.6242 25.1028 30.7341
Au 9.26076 9.19854 23.0284
Au 15.6639 24.5385 30.4576
Au 24.1423 19.5206 22.6527
Au 1.59867 15.2267 19.7063
Au 16.5438 31.0363 15.8812
Au 22.9663 13.1385 11.5961
Au 21.1559 31.3962 32.98
Au 7.05067 28.7028 27.7297
Au 21.8782 11.476 6.14524
Au 18.6637 33.8367 24.2087
Au 15.1102 29.6164 10.3954
Au 9.83092 16.9563 5.27929
Au 14.235 13.3896 12.9111
Pd 5.9939 26.2495 18.3207
Pd 23.5065 10.5736 30.8347
Au 33.0519 29.8962 21.1277
Au 29.6401 29.9394 10.321
Au 4.50065 17.2672 23.3749
Au 11.8141 32.9785 10.2421
Pd 10.7915 16.808 22.8221
Au 3.63101 16.8736 28.589
Pd 14.5875 19.1012 21.2584
Au 17.7292 19.6965 14.853
Au 16.8743 6.76307 7.01169
Au 21.3793 9.22442 26.8114
Au 17.9032 20.4354 28.7327
Au 12.0195 12.5044 33.9337
Au 7.96983 25.581 24.5672
Au 6.21567 12.0809 28.0619
Au 23.5336 32.4062 28.8205
Au 7.25162 23.8257 8.35872
Au 31.1232 18.6074 23.1086
Au 19.3208 36.4509 19.1744
Au 23.2358 19.8429 34.5002
Pd 7.85851 23.0704 23.3688
Pd 20.1124 7.49243 14.7487
Au 5.10154 11.9387 10.5065
Au 18.1017 19.884 5.657
Au 9.07633 25.9711 19.302
Pd 20.3802 4.58228 23.9296
Pd 12.6497 25.029 8.48564
Pd 15.1644 6.74899 16.3675
Pd 13.0254 19.6976 7.21599
Au 19.9934 28.4362 29.3337
Pd 12.896 19.6396 9.97556
Au 29.7525 27.0299 6.61276
Au 9.34793 30.3993 18.6302
Pd 18.3203 3.82389 19.7058
Au 10.7454 15.6604 7.62871
Au 17.7003 11.8879 6.18408
Au 5.97667 27.6765 20.7647
Au 17.6415 22.2603 9.37394
Pd 8.59318 30.7398 27.1036
Au 12.1746 26.4573 1.91602
Au 13.3734 13.3034 29.2122
Au 35.4151 11.8714 20.6918
Au 28.4804 22.6305 16.8035
Au 12.3972 31.9052 7.47334
Au 9.63946 9.44261 30.8926
Au 1.89713 20.3223 15.156
Au 24.3153 19.2927 8.73152
Pd 24.0595 8.86381 9.84691
Au 13.3002 20.5818 19.246
Au 6.12089 28.3898 16.0686
Pd 25.5455 9.86993 23.6278
Au 17.7076 24.293 0.186914
Pd 16.7824 32.3542 22.9683
Pd 20.0055 11.7608 10.5832
Pd 21.7735 35.7643 17.9964
Au 21.9451 4.9541 11.2124
Pd 8.35292 24.21 14.9753
Pd 6.08326 26.7256 26.2518
Au 20.9692 28.7309 32.4381
Au 11.0421 17.7811 34.1225
Au 9.8988 23.3387 19.0195
Au 12.6888 22.3208 28.1274
Au 6.27013 10.5707 12.4304
Au 27.7945 21.0621 11.7732
Au 21.0927 17.154 37.3577
Au 28.9477 27.6717 14.0378
Pd 17.2439 21.8475 26.6058
Pd 14.2924 23.418 19.8405
Au 2.04419 19.7072 20.9053
Au 20.5249 19.4126 18.6347
Au 19.5501 7.93617 28.7321
Pd 26.2673 25.6977 16.433
Au 35.154 18.9671 26.4116
Au 10.5302 14.1655 26.6751
Au 7.89581 26.2627 21.8623
Au 14.2987 16.5465 34.6708
Au 16.413 15.4909 33.3302
Au 24.6186 27.1765 29.4511
Au 8.22412 27.8902 30.0066
Au 11.4563 32.1877 19.1318
Au 21.1556 31.3989 19.7711
Au 14.3314 16.3487 19.449
Pd 21.1903 25.7411 3.07092
Au 14.8636 35.0011 18.7916
Pd 27.3828 25.1522 23.4857
Pd 31.2558 7.4587 17.6853
Au 14.5082 28.0944 5.26217
Au 10.1771 26.5843 8.21465
Au 12.0317 28.9248 29.3003
Au 30.7227 25.5137 19.5056
Au 22.746 15.0616 37.4162
Au 13.5251 29.1127 24.0764
Au 15.7149 23.0867 35.9023
Au 11.2991 32.5033 29.1034
Au 11.1799 21.201 3.25767
Au 12.2552 25.7676 13.3221
Au 7.19881 20.2773 22.9997
Au 17.719 31.2564 25.3095
Pd 27.3141 22.2458 6.95622
Au 23.1414 35.2424 22.6115
Au 25.1985 21.7553 35.2887
Au 13.6844 31.124 28.9245
Au 23.2137 24.7086 29.9757
Au 12.0937 10.0007 32.8359
Au 16.1619 15.4577 12.006
Au 16.3393 29.0175 32.6739
Pd 20.2665 24.9306 6.38192
Au 27.9657 27.9425 11.1229
Au 17.3083 26.2448 24.7784
Au 9.11922 26.4107 32.2651
Au 4.23072 24.3087 17.5077
Au 28.7877 22.9072 26.1273
Au 2.17509 24.7389 20.3526
Au 21.9264 11.4459 3.41553
Au 9.61958 19.0506 21.5683
Au 27.3246 33.2719 25.6504
Au 8.67659 22.1883 6.82945
Au 4.01769 22.3087 11.3622
Pd 15.8789 14.2921 15.2465
Au 11.8696 28.1936 4.0475
Au 7.05065 10.626 22.138
Au 8.87246 32.121 16.5535
Au 3.87057 27.0348 16.6274
Pd 30.6887 21.246 21.9103
Au 14.0059 24.6703 28.0182
Au 23.0008 29.9961 18.3055
Pd 15.9067 30.7305 12.7439
Au 14.0747 32.7957 11.968
Au 1.60686 23.0784 16.0202
Pd 15.0375 31.1782 24.7969
Au 20.7041 15.6283 1.68229
Au 19.3412 4.33335 14.972
Au 11.9598 31.985 21.8986
Au 10.7506 23.0833 13.8938
Au 16.4091 22.1939 23.9082
Au 18.8474 26.5338 1.59735
Au 6.43488 23.5869 28.4357
Au 24.5153 33.8416 26.6047
Pd 12.128 31.5002 24.5746
Au 24.7297 28.4238 20.0333
Au 22.3014 22.4542 28.5125
Pd 20.4403 14.9579 20.0458
Pd 4.23353 13.3907 17.1371
Au 31.9019 5.03587 16.7848
Pd 14.9891 24.5239 23.59
Au 19.0933 16.3361 33.8147
Pd 21.7815 4.00546 13.8641
Pd 25.51 6.53668 19.7394
Pd 23.0219 8.06552 20.1737
Pd 28.2402 8.22309 15.516
Au 32.1296 11.9943 15.8713
Au 11.1735 5.64883 28.5618
Au 22.1964 25.2029 36.3867
Pd 5.81286 15.3166 21.713
Au 17.9224 7.56611 12.2156
Au 29.269 17.6639 25.4758
Pd 34.573 18.9308 16.9359
Au 4.65195 14.7242 24.2506
Pd 19.3545 24.7822 15.1183
Au 29.9452 20.8391 32.1657
Au 1.35653 17.598 16.3491
Au 19.0568 16.0205 11.3733
Au 30.6169 15.9086 10.0592
Au 18.4553 17.3354 1.70989
Au 25.1792 10.1083 20.7344
Au 27.0365 11.819 22.0069
Au 14.592 8.47936 33.4113
Au 20.0098 10.2088 15.6236
Pd 15.5394 5.5855 26.3044
Au 14.8752 16.7458 16.2983
Pd 15.4178 8.14987 11.0233
Au 21.9565 25.3651 22.4968
Au 16.3429 17.3411 26.1529
Au 11.3328 7.90886 27.115
Pd 22.617 13.326 18.3684
Au 22.1198 28.9266 20.7268
Au 24.2948 24.3563 32.4159
Au 13.7534 8.87223 17.8561
Pd 16.5937 17.2669 20.6531
Au 31.9292 17.6752 6.47865
Au 5.56624 17.6568 18.3001
Au 30.2722 8.65276 24.8389
Au 17.9156 2.80175 24.9589
Au 7.55786 17.7214 6.39222
Au 24.9306 12.1176 34.5357
Au 19.5441 34.5891 29.2711
Au 25.9694 11.1278 5.22794
Au 24.5572 34.4544 11.6809
Au 32.7193 21.9262 12.881
Au 29.4219 16.205 12.6878
Au 11.1381 21.1066 11.5952
Pd 23.9028 25.1633 12.3507
Au 19.7933 16.7325 13.9454
Au 25.1965 16.7546 9.07494
Au 11.3036 24.5579 6.22305
Au 13.1047 25.7646 4.27402
Au 13.5284 17.3775 22.9455
Au 17.7386 17.368 7.06371
Au 29.9557 17.8522 18.2899
Au 8.57312 8.54055 25.8979
Au 27.0746 7.82109 18.066
Au 9.99117 11.6903 32.2643
Pd 10.6444 20.4949 28.537
Pd 33.6142 18.7117 24.2847
Pd 8.32604 19.8369 8.18422
Pd 16.2892 12.7077 33.0938
Au 16.4249 33.7129 20.7384
Au 29.7035 5.00378 21.9015
Au 22.3031 13.5423 21.2412
Au 19.3001 29.6558 20.9311
Au 34.8171 16.4295 25.5432
Au 19.9014 22.2915 14.0057
Au 18.4547 30.6497 32.0212
Pd 17.5744 14.7727 20.6078
Pd 16.2384 23.2907 33.0773
Au 18.831 16.0763 36.5213
Au 24.8229 17.9923 6.49392
Au 19.926 15.7656 6.70649
Au 4.56135 12.5958 25.9445
Pd 12.7229 23.1338 4.53478
Pd 26.2182 13.9345 9.40644
Pd 7.66849 11.2417 19.582
Au 12.5783 24.2081 15.4998
Au 12.1805 9.27202 9.51804
Au 25.071 12.688 31.9066
Au 13.5081 26.6266 29.9798
Au 13.1184 15.0138 36.574
Pd 17.906 24.3561 34.7422
Au 14.3165 35.7968 24.2329
Au 3.02629 20.1653 12.6351
Au 8.27023 11.5651 29.8981
Au 19.4182 10.8733 4.28401
Au 14.338 32.4112 9.23415
Pd 16.7592 25.9796 32.8117
Au 11.6669 17.9483 28.0383
Au 19.925 10.747 28.7454
Au 10.9245 23.7276 11.252
Au 20.4894 12.8144 30.8306
Pd 5.25084 16.6225 26.2251
Au 9.34853 8.9731 20.2362
Pd 19.099 19.0458 23.6446
Au 28.7562 9.26921 10.873
Au 5.24692 21.1833 29.6009
Au 17.4072 6.81011 27.727
Au 19.7039 18.2113 29.3547
Au 5.09659 21.9568 24.1393
Au 14.9429 18.1881 8.48061
Au 35.2412 15.1341 14.3514
Au 33.692 19.0148 8.2003
Au 21.9805 22.6819 6.20089
Au 22.4878 20.5862 20.658
Au 23.9606 24.2493 14.9306
Au 15.8058 13.4239 7.71881
Pd 5.82078 22.3699 21.6526
Au 3.28513 24.9904 14.9877
Au 18.8979 32.4701 20.9828
Au 3.43142 22.4453 28.0998
Au 23.8796 19.2766 2.04214
Au 15.1869 11.1236 29.4911
Au 26.5876 17.2068 26.7787
Au 1.90875 17.1275 21.6568
Au 25.8259 14.3637 22.5491
Au 18.9996 32.438 9.31846
Au 24.9153 20.4165 29.5246
Au 13.7797 20.7433 4.77932
Au 18.3643 9.28489 20.2202
Au 16.3678 7.36272 24.3391
Pd 19.8232 17.2268 9.02813
Au 9.2826 22.9019 29.0434
Pd 12.1006 15.2122 33.9372
Au 29.2361 18.1235 30.6964
Au 25.6016 2.31366 17.0093
Au 17.9411 27.9695 27.3499
Au 23.887 9.95464 27.8414
Au 16.1845 30.8103 27.5255
Au 4.94344 27.1106 13.7663
Au 30.6667 17.0498 20.8481
Au 14.1069 3.50749 22.2113
Pd 14.383 19.8269 23.9623
Au 26.1786 3.49155 14.3358
Au 11.6339 19.0267 24.1646
Au 11.0937 8.79483 14.3563
Au 19.4782 35.5349 16.5849
Au 31.5686 25.4466 10.6328
Au 10.8525 22.2953 35.2429
Au 10.5889 18.5291 7.4185
Au 22.5529 23.1171 0.777415
Au 7.6602 24.1822 17.6416
Pd 20.9292 26.269 31.191
Au 16.9999 36.1819 17.528
Au 12.8938 30.2952 5.36714
Pd 29.5137 10.494 22.9191
Au 26.6453 24.6773 8.41258
Au 6.51559 8.72116 19.5715
Au 24.9497 4.85924 26.7655
Au 20.6444 30.9171 30.3333
Au 14.1737 29.5822 16.8692
Au 11.6516 29.5432 19.8876
Pd 15.9267 33.604 25.398
Pd 26.4895 9.49322 13.9258
Pd 4.00325 20.0478 19.0747
Au 12.1528 17.4308 36.6198
Pd 19.1655 24.6751 22.3767
Au 20.9457 23.0795 21.0146
Pd 11.6644 13.6911 31.4703
Au 25.1565 31.1133 19.4622
Pd 35.0799 18.3738 22.1209
Pd 12.4302 21.8329 24.115
Au 31.8757 10.8265 8.88767
Au 15.5956 33.3138 28.343
Au 8.92909 29.3423 16.0457
Au 33.4872 28.0498 19.1789
Au 8.31082 27.5588 11.239
Au 15.0734 28.3353 28.3166
Au 13.6798 27.5828 18.9985
Au 21.1019 25.825 10.6875
Au 12.4387 27.0089 27.4125
Au 16.6235 32.6507 10.8467
Au 23.2278 32.8678 21.0475
Au 16.4089 7.79851 18.6279
Au 34.8062 25.6585 23.7309
Au 29.1257 30.1026 18.2821
Au 5.97778 24.0136 25.6207
Au 17.3458 17.876 16.8887
Au 34.9135 16.2637 20.4094
Pd 13.5841 29.6077 26.6311
Au 9.21653 20.7439 30.8605
Pd 15.9602 28.2747 20.7353
Au 6.99753 17.854 21.7424
Au 21.3989 12.1142 26.3932
Au 15.3431 27.3457 23.2416
Pd 8.81504 20.0807 12.2886
Au 34.5118 23.5106 22.1471
Au 9.8783 19.4181 26.2334
Pd 28.6358 27.452 19.7761
Au 17.8971 11.9939 30.1987
Au 13.1536 11.5615 11.0294
Au 13.5663 21.9155 2.14918
Au 17.8713 15.0386 8.76198
Pd 10.3805 28.77 9.93026
Au 20.2643 13.4225 4.97059
Au 26.1609 26.2675 19.0901
Au 3.25351 24.02 22.8187
Pd 16.0458 32.2797 18.3956
Pd 25.7345 19.7929 26.8778
Pd 15.3489 23.0185 3.97728
Au 29.268 28.3187 27.2707
Pd 18.5265 19.7199 31.3144
Pd 14.2249 29.5723 7.67646
Au 21.0441 15.498 17.4742
Au 18.5568 27.8424 31.7594
Au 18.9517 25.4322 26.986
Au 17.6273 6.88047 15.4138
Pd 18.1127 21.1643 12.2867
Au 16.2176 22.2997 1.41982
Au 13.96 27.665 12.23
Au 7.24667 22.5334 30.9234
Pd 30.0934 32.6489 19.0603
Pd 11.8039 7.91889 21.878
Au 18.551 27.4865 22.3914
Au 31.5475 31.1891 23.0565
Pd 33.2215 25.215 20.3909
Pd 14.4276 17.6494 4.15832
Au 20.2453 21.5707 37.417
Au 11.5979 7.94468 29.9635
Au 16.4249 20.6266 33.1382
Au 12.5238 11.293 13.7851
Au 15.6458 27.3278 16.9924
Au 24.6963 17.806 28.8224
Au 35.1419 20.9156 12.4183
Au 28.9406 16.2699 15.5297
Au 18.5736 8.91966 23.1458
Au 26.1667 13.8923 5.11615
Pd 12.0827 12.8793 20.1376
Pd 21.806 7.76188 11.2159
Au 15.977 15.1965 36.3459
Au 24.4872 8.0379 30.0868
Au 8.55266 16.5999 34.0715
Au 21.483 5.52045 16.2016
Au 26.4138 14.2507 33.728
Au 16.7552 25.6624 21.7763
Au 16.1294 21.9587 6.52729
Au 12.4994 17.0853 9.14314
Pd 13.4167 28.4225 21.5504
Au 19.6531 10.3957 7.37487
Pd 20.6987 20.8507 34.9444
Au 36.9345 21.085 19.2795
Pd 10.2256 10.1262 28.3138
Pd 25.7926 15.5717 20.1853
Au 20.87 3.94858 18.6219
Au 31.3547 9.3739 15.7217
Au 29.5054 29.2644 23.2449
Pd 19.8851 6.38859 9.98547
Au 21.9393 8.29138 16.6706
Au 18.1153 31.9084 6.46208
Au 23.9172 18.1487 20.3243
Au 25.9818 17.3483 2.0353
Au 17.6298 11.751 9.06269
Au 20.0794 27.497 14.6727
Au 7.93764 14.2681 28.6204
Au 34.0123 9.72342 16.0014
Au 6.94486 14.9494 32.7404
Au 30.1268 3.30538 17.8254
Au 27.3718 13.4867 28.5668
Au 17.556 14.9595 26.4173
Au 21.3168 10.6118 34.4683
Pd 15.8931 21.0961 19.8939
Pd 31.8866 7.80502 20.2636
Au 4.95019 9.03913 21.7641
Au 24.2874 10.1386 15.6113
Au 18.9253 11.41 35.5611
Au 9.94875 11.4322 21.2899
Au 13.46 4.36092 27.465
Pd 24.6107 23.2389 7.23007
Au 29.4922 4.98811 12.7422
Au 11.0678 26.2888 10.7345
Au 9.15774 32.8813 11.1557
Au 25.2906 14.5343 2.32104
Au 20.077 33.7829 11.5118
Au 18.177 27.6 19.3913
Au 2.55172 12.9638 15.1102
Au 26.2344 6.90198 28.2668
Pd 6.94966 30.6471 14.7996
Au 1.73142 14.4543 17.2165
Pd 7.73704 27.488 14.1084
Au 23.4005 31.4127 26.2966
Au 24.865 2.15409 21.9089
Au 37.0546 16.4969 18.5705
Au 9.98351 33.1257 23.5961
Pd 13.2036 21.5487 15.0008
Au 31.3226 15.8041 27.7977
Au 29.6403 11.8749 18.2832
Au 27.7664 21.5842 33.7675
Pd 20.645 17.8198 31.912
Au 20.6274 7.34701 24.1725
Au 21.011 23.5686 32.0227
Au 18.4587 24.3373 31.5248
Au 33.9952 23.7452 26.8053
Au 33.1927 14.6531 24.1427
Pd 26.1559 5.22098 17.2361
Pd 10.2186 15.7525 29.0374
Au 22.2132 27.2436 18.4594
Au 32.1742 13.0135 18.4395
Au 18.9203 16.7828 18.8656
Au 31.5289 25.4272 7.88023
Au 22.2853 34.4402 15.676
Au 13.6497 14.9874 4.2508
Pd 5.04295 12.7073 21.7327
Au 21.7998 12.0201 14.1515
Pd 11.7304 20.2573 16.7972
Au 4.39443 17.7413 20.7257
Au 20.4549 31.0498 11.3139
Au 20.7218 32.6534 14.1085
Au 33.4036 21.7438 28.7512
Au 18.6117 23.6225 37.2546
Au 9.13736 7.65551 28.7933
Au 24.4665 35.4983 17.2322
Pd 18.526 11.6561 23.5874
Au 26.1937 18.1939 31.3535
Au 34.8295 13.8511 18.8757
Au 22.5953 3.71898 22.5779
Au 16.6951 32.6045 32.9631
Pd 30.737 15.6997 32.1487
Pd 18.4505 23.7053 24.8713
Au 14.3274 21.9145 22.097
Pd 27.9123 16.318 32.4048
Au 14.9034 6.64828 31.2391
Au 13.224 22.5008 7.29946
Pd 25.3376 22.8457 12.6233
Au 20.0541 3.61182 26.4598
Au 33.396 24.4809 12.5774
Au 3.27225 22.1611 20.8419
Au 4.37853 19.8143 10.297
Au 22.7592 16.7616 30.361
Au 7.54471 9.72819 28.057
Pd 21.2589 15.1638 32.4061
Au 30.2398 18.2924 28.1239
Au 15.3954 22.1907 28.6371
Au 27.4468 13.9751 31.181
Pd 8.802 18.2369 24.022
Au 31.2241 14.9872 6.8157
Au 12.1807 34.8859 19.7417
Au 7.474 18.782 14.2608
Pd 18.8531 35.1285 21.5919
Pd 23.5146 15.6106 16.3591
Au 27.7583 32.0031 20.1126
Au 10.9306 21.1171 8.65722
Au 2.32156 18.872 23.7435
Au 16.2354 26.369 1.34303
Pd 9.6772 14.121 33.659
Au 15.3909 16.1118 6.30408
Pd 30.541 20.6993 11.2714
Au 26.8441 24.0763 33.2759
Pd 26.3208 28.0571 15.0295
Au 21.718 31.3272 8.87054
Au 29.6719 16.8232 34.3761
Au 13.0931 15.3661 11.4606
Pd 25.8082 24.1924 20.8346
Au 26.6833 29.0171 18.1903
Au 29.5114 6.06338 24.4129
Au 9.9503 33.8032 20.8677
Au 23.2432 1.05481 17.4994
Pd 21.9587 14.1289 7.09016
Au 21.4379 29.2418 7.12389
Pd 28.3934 15.0063 21.6375
Au 17.1998 35.5544 14.8663
Au 29.3053 10.3792 8.4025
Pd 17.2575 17.7014 4.28133
Au 11.5993 32.9567 13.0173
Pd 11.9329 22.95 32.8992
Au 18.3719 32.0604 12.9401
Au 10.4617 27.2656 15.0818
Au 14.9274 31.8473 6.34768
Au 27.7478 15.4899 24.3797
Pd 19.5637 13.1119 7.70268
Au 33.9913 12.3647 25.2681
Au 25.9651 21.586 9.19792
Au 30.055 13.1208 31.2507
Pd 23.1579 29.986 11.2146
Au 19.689 28.4767 12.1244
Au 20.922 32.8312 25.3258
Au 21.1283 20.439 32.363
Au 35.8411 19.8586 14.7837
Au 19.1022 30.0063 8.19342
Au 18.6006 27.067 10.0284
Au 28.7837 32.3437 14.0073
Au 10.3649 25.8156 3.96063
Au 9.54969 10.894 15.6313
Pd 30.3476 11.3644 25.5271
Au 12.0889 30.9819 31.2587
Pd 20.4906 20.3132 27.8076
Au 22.6232 32.7443 11.0402
Au 32.7994 25.8794 17.6055
Au 28.4728 25.8535 4.49074
Au 15.5952 26.6739 10.1621
Au 22.3133 24.2544 8.45903
Au 25.2224 31.7395 11.8335
Pd 24.4036 23.3449 4.59389
Pd 21.1262 30.1684 25.2726
Au 13.1301 17.2799 32.3091
Au 28.9513 18.9412 13.0435
Au 1.56122 20.1062 17.8534
Au 17.7355 21.8856 4.02046
Au 31.9938 9.45548 22.5138
Au 28.2946 18.3002 3.18034
Au 33.245 7.08086 15.8328
Au 37.3954 19.6917 21.8721
Au 23.695 18.3971 25.1827
Pd 24.6457 25.1883 23.0007
Au 26.5863 18.6708 24.5084
Au 25.7588 35.5628 21.6239
Pd 29.9795 24.7144 24.218
Au 28.0371 30.0738 15.5798
Pd 30.8696 22.0197 24.6094
Au 26.4137 19.1826 10.3807
Au 15.2098 23.8801 8.89686
Au 17.1587 25.1167 16.7188
Au 16.2503 12.5539 17.7294
Au 26.3921 19.3438 19.6128
Pd 15.6396 5.17421 29.0466
Pd 27.0229 31.8336 17.4299
Au 8.58266 28.9899 7.98288
Au 7.13219 13.1093 15.033
Pd 28.646 26.1789 29.2758
Au 29.0516 20.1048 23.9339
Pd 6.94436 30.2668 20.3754
Pd 16.0286 25.8643 19.2438
Au 8.15393 30.3671 10.4261
Pd 25.9878 31.7706 27.3954
Au 33.0856 26.1259 25.7631
Au 23.9625 20.9593 11.2087
Au 26.9099 33.903 12.7614
Au 27.5291 18.2542 35.6608
Au 26.1193 15.7475 15.8052
Au 28.9707 24.4793 6.99889
Au 1.8467 25.3195 17.6178
Pd 21.1089 27.3525 5.29594
Au 32.4759 24.2876 28.934
Au 17.5079 23.6409 13.2871
Au 22.9882 33.1646 18.3609
Au 22.0265 11.9054 8.84752
Au 21.3248 17.4406 20.401
Au 9.59282 25.6505 13.0262
Au 10.4406 17.8564 17.7171
Pd 17.3887 9.92689 27.966
Au 19.2812 33.2408 31.8127
Au 25.7068 8.55816 26.1246
Au 7.35047 18.5971 26.3485
Pd 19.7159 22.7865 27.2396
Au 14.7779 17.7851 36.9456
Au 14.8083 11.7438 15.4549
Au 23.9811 10.1453 7.39055
Au 2.21382 16.0507 24.1767
Au 13.6888 11.6632 18.3504
Au 17.636 9.59421 14.2145
Au 22.581 8.06654 32.0196
Au 22.7977 10.9852 20.041
Au 15.1062 10.9613 6.65569
Pd 31.9316 18.939 16.6474
Au 23.1648 19.9344 27.402
Au 18.2169 0.921662 22.2966
Au 12.2894 22.751 17.8062
Pd 23.7123 12.8225 15.9606
Pd 31.0017 14.0098 25.692
Pd 12.0367 4.60719 15.2631
Au 11.2158 28.6223 25.3612
Au 30.1395 4.06206 15.1138
Pd 21.733 17.9347 23.0942
Au 18.0502 13.501 11.0888
Au 14.825 20.0248 0.708814
Au 31.3826 18.1372 11.8423
Pd 11.4818 5.51905 23.27
Au 28.1826 11.4081 12.7607
Au 15.5261 28.8172 14.5461
Au 22.4347 6.46998 8.86429
Au 12.5867 26.6066 34.644
Au 33.812 8.20036 18.2324
Au 23.3191 16.554 2.12495
Au 11.8545 15.5262 18.6377
Au 24.8058 14.8237 28.931
Au 16.1641 12.9323 22.4192
Au 18.5032 26.2129 29.5846
Au 8.51112 16.2254 26.7466
Au 18.0448 18.3616 12.4631
Au 21.039 8.94825 5.48395
Au 3.65738 15.9937 12.4478
Pd 37.159 19.2777 17.2493
Au 28.0876 34.6799 20.5776
Pd 32.3257 11.6989 20.7871
Au 15.3289 8.37978 26.7888
Au 27.1544 27.9727 30.5231
Au 26.0676 11.2984 26.8427
Au 28.3874 25.0792 18.116
Pd 19.4009 21.0908 25.2347
Au 31.1254 21.5875 27.4535
Au 22.5717 28.7595 30.3101
Pd 12.3298 27.0884 6.56683
Au 22.8062 25.3143 5.29315
Au 30.3899 12.3643 6.98078
Au 25.2075 1.03487 19.4548
Au 25.9243 12.9053 11.9261
Au 11.4066 5.26439 25.9221
Au 6.33879 28.6887 9.5849
Au 14.6269 4.87358 14.3992
Au 21.7386 9.05816 8.49649
Au 20.0267 7.35238 31.4805
Pd 27.5545 7.85486 24.006
Pd 14.1898 30.3371 19.4809
Au 30.9721 23.9424 21.8229
Au 13.351 21.4351 36.4544
Pd 25.6512 19.0361 4.16955
Au 23.0535 5.24607 20.0984
Au 33.0278 16.1788 12.8422
Au 25.9712 17.4966 22.0228
Au 20.2556 29.1091 18.2308
Au 30.9198 5.30487 19.4306
Pd 10.7945 16.8567 25.6259
Au 21.5793 20.8239 2.02412
Au 29.9296 14.7498 19.2881
Au 19.1781 29.2841 34.3676
Pd 11.3199 18.6876 30.6984
Au 17.7957 14.8738 23.4002
Pd 9.77148 6.35856 21.2049
Pd 30.1251 22.7896 14.5299
Au 29.3523 26.7209 22.4284
Au 29.4379 20.8294 29.4338
Au 23.5756 23.8306 25.0141
Pd 30.1616 11.9121 10.6607
Au 13.1749 30.2665 12.4409
Au 8.11746 32.6298 19.2581
Au 23.814 25.0078 2.44239
Pd 15.7798 21.3546 13.8177
Pd 19.2576 11.7429 13.2826
Au 18.2022 8.70369 5.39623
Pd 26.2459 12.3195 14.6241
Au 32.9287 12.1077 11.1216
Pd 11.2617 30.622 27.2153
Au 27.2073 18.6515 7.8829
Au 26.1875 25.428 30.7092
Au 22.2614 10.4489 11.328
Pd 23.4747 17.1326 35.6969
Au 11.6233 19.0335 4.81622
Pd 19.0108 16.9753 21.8373
Au 25.8683 19.4955 33.8677
Pd 26.3638 25.5274 11.0581
Au 6.25026 13.457 30.5591
Au 27.9466 19.9903 5.50832
Au 27.4009 17.2467 5.50119
Au 22.9224 2.49728 19.9796
Au 16.0726 19.875 10.9947
Au 15.4392 2.95819 26.0202
Au 32.2732 11.9469 27.3738
Au 27.5543 31.2914 8.78063
Au 28.6937 20.4185 18.294
Au 27.8461 10.3773 24.9942
Au 19.9368 21.7789 30.1197
Au 29.33 9.2865 17.7099
Pd 22.9344 18.2218 4.48358
Au 22.5725 6.5627 13.5478
Au 19.1552 29.3708 5.34061
Pd 12.7283 13.7513 15.0011
Pd 17.0101 27.1843 6.00197