1687
Atoms. Timestep: 20309
Au 9.94234 5.92612 10.9518
Au 7.6867 7.26863 11.91
Au 6.50754 6.68222 14.2474
Au 8.51132 4.8408 18.2519
Au 8.5448 4.93292 21.1505
Au 8.92154 5.68732 25.9861
Au 9.52785 8.88159 29.5263
Pd 11.2389 6.74651 8.63994
Au 8.90486 8.01453 9.48234
Au 7.89949 10.1661 8.04922
Pd 5.52282 8.70624 12.835
Au 4.42146 10.7411 11.4272
Au 7.48918 6.95799 16.7638
Pd 6.56215 9.14497 15.348
Au 9.52017 2.8067 19.7379
Au 7.55387 7.08409 19.6242
Au 7.63514 4.90186 23.7465
Pd 7.69997 7.27571 22.4597
Pd 8.12628 7.98079 27.294
Pd 6.78253 7.11877 25.0711
Pd 8.72367 11.1676 30.7812
Pd 7.27584 10.2032 28.634
Au 4.60279 13.6122 7.73236
Pd 6.68584 9.38202 10.4737
Au 5.56652 11.4227 9.02827
Au 5.49591 11.2135 13.938
Au 4.40884 13.3191 12.5325
Au 6.57017 9.2484 18.1617
Au 5.58562 11.4158 16.7224
Au 6.6641 9.40127 20.9892
Au 5.66126 11.5703 19.5323
Pd 6.82025 9.54118 23.8178
Au 5.76395 11.7064 22.3431
Au 5.89454 9.32936 26.4195
Au 5.86856 11.7943 25.1604
Au 6.45006 12.4479 29.9022
Au 5.08836 11.5675 27.7516
Au 5.77562 14.1203 10.1047
Au 3.39965 15.4527 11.0675
Au 4.39071 19.0701 8.56727
Au 4.53865 13.5657 15.3122
Au 3.489 15.7146 13.874
Au 4.63091 13.7491 18.1031
Au 3.59157 15.927 16.6647
Au 4.73639 13.9041 20.9115
Au 3.70601 16.1095 19.4662
Au 4.86184 14.0165 23.7337
Au 3.83107 16.2341 22.277
Au 5.03889 14.0954 26.5611
Au 3.98513 16.3149 25.0944
Au 5.64867 17.3492 30.0443
Au 4.24561 16.4411 27.839
Pd 6.84479 19.3648 9.77009
Au 2.56878 17.8531 12.4565
Au 5.05171 21.5551 9.66526
Au 2.67557 18.1037 15.2174
Au 3.2301 20.3166 13.6908
Au 2.78258 18.318 18.0064
Au 3.35962 20.5773 16.4848
Au 2.90154 18.4694 20.8036
Au 3.46974 20.7826 19.2603
Au 3.03472 18.5625 23.6213
Au 3.5676 20.902 22.0622
Au 3.96074 21.0111 27.684
Au 3.72678 20.9567 24.8895
Au 3.2212 18.6491 26.4015
Pd 6.13185 22.2606 28.6038
Au 7.56154 21.8525 10.9007
Pd 3.20412 20.0016 10.9211
Au 5.77401 24.0215 10.8349
Pd 4.03722 22.7568 14.9112
Au 3.88841 22.4592 12.1026
Pd 4.18808 23.0007 17.7102
Au 4.75086 25.2024 16.0874
Au 4.23926 23.2333 20.5084
Au 4.87344 25.452 18.8984
Au 4.33973 23.2972 23.3103
Au 3.51577 27.249 23.739
Au 4.50702 23.279 26.1772
Au 5.14699 25.5451 24.6676
Au 5.80581 23.591 30.881
Au 4.36332 24.2084 28.6914
Au 12.0493 23.6531 10.9165
Au 6.5269 26.4543 11.9924
Au 10.2844 25.8471 10.7978
Au 4.62619 24.9038 13.2819
Au 7.24256 28.9264 13.1128
Au 5.45675 27.6582 17.207
Au 5.34144 27.3353 14.4069
Pd 5.60284 27.9099 19.9637
Au 6.174 30.1539 18.3143
Au 5.62785 28.2165 22.6802
Au 6.13015 30.4458 21.0738
Au 4.82364 26.4377 27.205
Au 5.29627 28.496 25.427
Au 7.24124 30.3236 26.4335
Au 11.8499 32.3138 25.9424
Au 6.3264 20.5598 7.35602
Pd 7.79769 25.4859 9.62499
Au 8.96143 24.5498 7.23224
Au 7.94674 31.3956 14.2321
Au 8.50362 27.9651 10.7142
Au 6.06464 29.7701 15.5152
Pd 10.3359 31.6531 15.4213
Au 8.43424 30.1117 16.7278
Au 10.9696 34.8519 16.925
Au 5.95767 30.7672 23.8768
Au 14.1455 31.7426 21.0689
Au 9.8515 34.157 25.995
Au 10.3655 29.0872 31.5638
Au 16.0554 32.2438 28.291
Pd 11.4693 33.3548 28.3906
Au 12.5663 7.5372 6.34895
Au 10.995 3.95059 12.3927
Pd 12.2334 4.68377 10.1062
Au 11.1115 6.32967 13.4511
Pd 12.4814 7.14013 11.1087
Au 10.7623 3.44435 17.3506
Pd 12.082 4.1729 14.9309
Au 10.86 3.57981 21.9879
Au 12.2165 2.64118 19.6261
Au 9.81956 3.56979 24.5383
Pd 12.332 4.50927 24.1668
Au 10.3612 6.60576 28.1677
Au 11.2164 4.40534 26.7315
Au 12.5545 10.831 33.6487
Au 11.8059 7.56896 30.3626
Au 10.2252 8.83647 7.14199
Au 6.81682 12.3392 6.78278
Au 10.3771 11.4362 8.03163
Au 9.1307 10.6299 10.5197
Au 11.4525 9.30319 9.60385
Au 9.28977 13.573 6.64059
Au 10.1581 8.50505 11.9785
Au 8.87959 7.72741 14.3821
Au 12.6564 8.77752 13.3529
Au 11.6898 10.9541 11.8921
Au 9.72829 5.48701 15.773
Au 9.93961 7.19083 18.0479
Au 12.2289 5.76344 17.1525
Pd 11.3099 7.95742 15.7081
Au 10.9261 5.07325 19.6058
Au 10.0315 7.33715 20.9301
Pd 12.3859 5.95839 21.7979
Pd 12.4331 7.46153 19.4026
Au 10.0606 5.93773 23.3427
Au 9.17173 8.19321 24.7222
Pd 11.4712 6.8317 25.5874
Au 11.5497 8.2999 23.1741
Pd 10.6171 9.11874 26.9527
Au 9.75841 11.3981 28.3078
Pd 12.0592 10.0711 29.1439
Au 12.1509 11.5316 26.7249
Au 11.1826 12.3608 30.6259
Au 10.3034 14.6772 31.8871
Pd 12.6787 13.3442 32.7069
Pd 12.6522 14.7796 30.3774
Au 3.43345 12.8553 10.027
Au 6.94532 14.9597 7.58139
Au 8.06658 12.7777 9.09535
Au 6.8002 11.9588 11.5474
Au 10.6385 13.0761 10.3751
Au 9.49726 15.2032 8.89717
Pd 7.89435 9.87422 12.9749
Pd 7.99338 11.5192 15.2085
Pd 10.362 10.1497 14.2787
Au 9.33526 12.2762 12.8314
Au 8.98134 9.37187 16.6281
Au 8.06619 11.6638 18.0142
Au 11.4961 9.64581 17.9374
Au 10.5317 11.7983 16.5084
Au 9.04175 9.49618 19.4638
Au 8.16211 11.8013 20.8349
Au 11.5851 9.76726 20.7664
Pd 10.6274 11.9456 19.3117
Au 9.16535 9.63037 22.3111
Au 8.2703 11.9157 23.6633
Pd 10.6798 10.5881 24.5323
Au 10.7245 12.048 22.1363
Au 8.2903 10.4563 26.0554
Au 7.43032 12.7484 27.3963
Au 11.2313 13.803 28.1506
Au 9.80954 12.8703 25.8605
Au 8.8279 13.6933 29.7512
Pd 7.95327 16.0006 30.9393
Au 12.4201 16.1494 32.8369
Au 10.3081 16.0983 29.5368
Au 8.96124 16.4039 6.40177
Au 10.8936 17.8943 5.21807
Au 4.59283 16.2384 8.66054
Au 5.87642 15.744 12.3901
Au 8.28631 14.4227 11.3988
Au 7.13771 16.555 9.90798
Pd 6.94008 13.6237 13.7974
Au 5.9853 15.9735 15.1551
Au 9.50518 13.9241 15.0653
Au 8.44547 16.0583 13.6479
Au 7.0364 13.8147 16.5805
Au 6.08911 16.1647 17.9491
Au 9.6372 14.1024 17.8777
Au 8.5644 16.2613 16.4275
Au 7.13869 13.9825 19.3918
Au 6.20257 16.3198 20.7528
Au 9.74 14.2388 20.6607
Au 8.6861 16.4338 19.2224
Au 7.23669 14.1081 22.2058
Au 6.32966 16.4056 23.5684
Au 9.8203 14.3234 23.4753
Au 8.78564 16.5547 22.0179
Pd 7.36975 14.1973 25.0083
Pd 6.50938 16.4742 26.37
Au 8.84193 15.129 27.2782
Au 8.89552 16.5917 24.8359
Au 6.40327 14.9695 28.8325
Au 7.74484 18.7712 31.0836
Pd 10.0951 17.4706 31.9313
Au 7.93942 17.3938 28.6154
Au 8.57586 19.2316 6.21925
Au 6.59646 17.7671 7.4427
Pd 4.8944 17.8434 10.9638
Au 5.59726 20.3053 12.1399
Pd 7.37839 18.1418 12.217
Au 11.3304 21.1308 9.79746
Pd 4.98886 18.1195 13.7182
Au 5.71686 20.5856 14.9611
Pd 7.50064 18.3961 14.9834
Au 8.14735 20.5916 13.4027
Au 5.08946 18.3558 16.4926
Pd 5.85519 20.8313 17.7554
Au 7.62677 18.6232 17.7619
Au 8.28515 20.8739 16.2227
Au 5.19988 18.5609 19.2881
Au 5.9453 21.0549 20.554
Au 7.74351 18.8071 20.5605
Au 8.40605 21.1211 19.0427
Au 5.31907 18.6797 22.0928
Au 6.07369 21.1347 23.3548
Au 7.8649 18.887 23.3586
Au 8.51516 21.307 21.8433
Au 5.47033 18.7311 24.9002
Pd 6.2641 21.1154 26.1466
Au 7.99024 18.9035 26.1733
Au 8.68235 21.2936 24.6501
Au 5.58012 18.8113 27.7184
Au 5.44404 20.11 30.0821
Au 9.88125 20.2722 31.9882
Au 7.81608 20.1737 28.6537
Au 2.50389 17.6232 9.77117
Au 10.742 22.3472 7.31507
Au 8.31303 24.3064 12.0587
Au 9.05204 26.7822 13.1863
Pd 10.1215 22.1177 12.1671
Pd 12.7585 26.1775 12.0091
Au 6.33807 22.7797 13.33
Pd 7.09096 25.2144 14.501
Au 8.89696 23.057 14.5843
Au 10.8627 24.5926 13.3094
Au 6.4939 23.0644 16.1883
Pd 7.2357 25.519 17.3757
Au 9.05381 23.3593 17.4854
Au 9.62569 25.5135 15.7607
Au 6.62344 23.311 19.0153
Au 4.89354 25.6856 21.7734
Pd 9.17201 23.5872 20.3208
Au 7.3238 25.7614 20.2372
Pd 6.71939 23.5104 21.8343
Au 7.40748 25.9813 23.07
Au 9.29769 23.7442 23.1395
Au 9.87034 26.0459 21.5704
Au 6.91444 23.4705 24.667
Pd 6.71209 24.5302 27.2317
Pd 8.47641 22.4696 27.1497
Au 9.13543 24.7745 25.7549
Pd 8.17062 23.8429 29.528
Au 7.78535 25.1649 31.8303
Pd 7.56586 21.5583 31.0152
Pd 10.2135 25.4249 30.485
Pd 9.54158 23.3467 9.67852
Au 10.1847 23.5311 4.8878
Pd 11.4705 24.8529 8.42192
Au 9.25382 30.4046 11.8383
Pd 11.0512 28.3682 11.9349
Au 10.8654 26.0396 5.96262
Au 9.79043 29.2552 14.284
Au 10.9293 32.9944 18.8964
Au 12.1516 25.7918 17.1381
Pd 11.5629 27.0961 14.4402
Au 7.79624 27.6516 15.6143
Au 10.3114 27.9555 16.9097
Au 9.78135 25.8129 18.7206
Au 12.2221 29.6087 15.6914
Au 7.94094 27.9937 18.5231
Pd 8.56915 30.5531 19.6317
Au 10.4378 28.2999 19.933
Au 10.8725 30.4174 18.0731
Au 8.03637 28.3086 21.3474
Au 7.85055 28.8495 24.1417
Pd 9.76388 26.9618 24.24
Pd 10.3709 29.1498 22.6713
Pd 7.29807 26.741 25.7866
Pd 10.884 31.2264 29.957
Pd 8.7333 26.1885 28.179
Au 9.25722 28.4495 26.6518
Au 6.28906 25.9168 29.5842
Au 13.0784 32.5412 30.7191
Au 9.81769 26.7186 32.8068
Au 11.2782 30.1 27.5369
Au 7.01299 23.068 8.4472
Au 8.80031 20.8511 8.54063
Au 10.454 29.4654 9.42831
Pd 9.7458 26.9887 8.3641
Au 11.288 31.8249 10.59
Au 11.6167 28.5214 7.04152
Au 11.6719 33.9426 14.3958
Au 12.8893 33.4903 12.0131
Au 9.03611 33.9186 15.1653
Au 13.5714 29.9375 5.70061
Au 9.04538 34.9459 18.9579
Pd 13.7124 34.6698 16.1512
Au 12.5393 32.3002 16.6213
Au 11.643 35.7385 19.5105
Au 6.83712 32.6113 19.5659
Au 8.60942 32.6672 17.511
Au 10.8614 31.2151 20.9674
Au 16.9757 36.7425 20.0366
Au 6.61353 32.9694 22.3365
Au 9.27427 31.9644 27.4637
Au 8.42549 31.0249 22.5052
Au 10.0548 35.6554 21.6428
Au 7.80577 32.5604 24.903
Au 6.76709 28.1643 28.0737
Pd 13.4381 31.4996 28.3163
Au 8.38864 34.7737 23.5172
Au 8.77952 29.7765 29.035
Pd 18.5509 33.6889 31.0562
Pd 12.4641 30.5033 32.4806
Au 15.7106 33.3312 30.8705
Au 11.6237 9.66289 4.99655
Au 13.8101 7.94998 8.76422
Au 15.0917 8.71071 6.27615
Au 13.4618 4.86981 12.5503
Au 13.5075 5.49074 7.82722
Au 13.5261 3.27694 17.2217
Au 14.8509 3.99824 14.8673
Pd 13.6247 3.5143 21.8338
Au 14.9478 2.56275 19.5386
Au 13.754 5.3594 26.4051
Au 15.0661 4.32097 24.0565
Au 12.6495 5.3313 28.9451
Au 15.2114 6.32168 28.6101
Au 10.9945 9.85287 31.6989
Au 14.0956 6.33804 31.0646
Au 11.6624 12.2557 5.72789
Au 14.072 10.8588 4.8657
Au 12.8173 10.1268 7.28179
Au 12.9912 11.7843 9.47723
Au 15.3581 10.3964 8.54624
Au 14.2237 12.5586 7.03376
Au 14.0192 9.61862 10.9731
Pd 14.2384 11.2555 13.1904
Au 14.9466 7.33019 12.3962
Pd 15.5665 12.05 10.777
Au 13.5889 6.50835 14.7805
Au 13.7945 8.20758 17.0069
Pd 15.0217 5.65902 17.0828
Au 15.1749 9.02274 14.6208
Au 13.7039 4.96532 19.4724
Au 13.9045 8.35955 21.6446
Pd 15.1356 5.82949 21.7215
Au 15.2268 7.36142 19.3265
Au 13.8261 6.8335 24.0336
Au 12.9964 9.2235 25.4017
Pd 15.266 7.76966 26.2526
Au 15.3719 9.28429 23.8885
Au 12.9246 7.76239 27.7911
Au 13.5741 12.4894 28.943
Pd 14.3995 8.73892 29.9257
Pd 14.4558 10.1737 27.5764
Au 13.5782 11.0279 31.2808
Au 14.7981 14.8041 33.6775
Pd 15.0452 11.9538 33.4969
Au 15.0112 13.448 31.2052
Pd 11.3138 15.0705 5.53288
Au 13.6271 13.6939 4.53019
Pd 11.8459 13.8757 7.97375
Pd 12.0734 15.5115 10.2188
Pd 14.4479 14.1886 9.27891
Au 13.8092 15.3789 6.74142
Au 13.2203 13.3921 11.7052
Au 11.9113 12.5902 14.1217
Au 15.7788 13.6671 13.0057
Au 14.6481 15.8016 11.5182
Au 12.8753 10.4417 15.5697
Pd 13.0693 12.0864 17.7985
Au 15.3993 10.6979 16.856
Pd 14.4502 12.8786 15.4114
Au 14.0067 9.90347 19.251
Au 13.1597 12.2082 20.6044
Au 15.5027 10.8318 21.5155
Au 15.609 12.3445 19.1135
Au 13.0832 10.7354 23.0069
Pd 12.2272 13.0069 24.3414
Au 14.5549 11.6801 25.1988
Pd 14.66 13.1435 22.8303
Pd 13.6679 13.9538 26.555
Au 12.7344 16.2246 27.9703
Au 15.0894 14.9138 28.8029
Au 15.2061 16.3754 26.4036
Au 14.7783 16.3095 31.3092
Au 14.5706 17.6687 33.7337
Au 16.9556 16.3427 34.546
Au 16.9314 17.8663 32.1782
Au 10.5143 20.7229 5.0041
Au 13.1966 16.5444 4.23098
Au 11.4762 16.7148 7.71718
Au 9.73469 16.8413 11.2039
Au 14.0257 17.0291 8.99794
Au 13.3941 18.2318 6.45359
Au 10.865 14.7153 12.645
Au 11.0458 16.3387 14.8992
Pd 13.418 14.9981 13.9472
Pd 12.2804 17.1285 12.4781
Au 12.1074 14.2137 16.3626
Au 11.1707 16.537 17.7026
Au 14.6554 14.4975 17.6525
Au 13.6309 16.6273 16.1952
Pd 12.2 14.3745 19.1521
Au 11.2776 16.6807 20.4825
Pd 14.7407 14.6162 20.4549
Au 13.7553 16.8092 18.9762
Au 12.2991 14.4592 21.9496
Au 11.3622 16.7426 23.2893
Au 13.7707 15.3947 24.1716
Au 13.8372 16.8931 21.7639
Au 11.3137 15.26 25.7087
Au 10.3626 17.5399 27.0919
Au 14.8768 17.81 28.8763
Au 12.8218 17.6946 25.537
Au 12.4475 17.6247 30.4724
Au 12.2147 18.9864 32.8772
Au 16.7287 19.171 34.6593
Pd 14.5718 19.169 31.3415
Pd 11.0984 19.5312 7.47348
Au 15.0746 18.0681 2.92995
Au 9.13984 18.0319 8.68083
Au 9.38373 19.6379 11.0282
Pd 11.7002 18.3381 9.9831
Pd 13.6149 19.84 8.72303
Pd 9.92819 18.4419 13.4807
Pd 10.6863 20.8975 14.6599
Au 12.4821 18.7517 14.7405
Pd 11.896 19.9348 12.2826
Au 10.0673 18.6869 16.2422
Au 10.8682 21.156 17.5081
Pd 12.6503 18.9695 17.5275
Au 13.2521 21.2154 15.9664
Au 10.2038 18.8885 19.0306
Au 10.9857 21.3829 20.3146
Au 12.7729 19.154 20.2804
Pd 13.4443 21.4557 18.7767
Au 10.3 19.0328 21.8185
Au 11.1175 21.4787 23.1162
Au 12.871 19.2098 23.0736
Au 13.5758 21.6132 21.558
Au 10.4254 19.0458 24.6266
Au 10.2111 20.3601 27.1037
Au 12.5389 19.0884 28.0391
Au 12.6336 20.5504 25.5309
Pd 10.1225 18.9065 29.5827
Au 11.9789 21.8096 32.898
Au 14.3412 20.4986 33.7816
Pd 12.2545 20.4415 30.4908
Au 12.6494 23.8574 6.0606
Pd 13.0062 21.0407 6.22085
Pd 13.9444 25.2045 9.64401
Pd 14.503 23.9658 12.1543
Au 13.8034 21.4435 11.0479
Pd 13.2286 22.6509 8.54272
Pd 12.6267 22.4015 13.4333
Au 13.3237 24.8848 14.601
Au 15.1547 22.7548 14.7043
Au 17.0272 24.3022 13.3511
Au 11.4396 23.341 15.8854
Au 14.8211 26.2428 18.5224
Au 14.0468 23.724 17.246
Au 15.8893 25.2975 15.8619
Au 11.6351 23.6295 18.8087
Pd 12.3665 26.0894 20.0589
Pd 14.2237 23.9277 20.0606
Au 17.492 26.9307 17.4437
Au 11.7685 23.8375 21.6258
Au 11.6194 24.9977 24.2046
Pd 13.3586 22.8976 24.0594
Au 14.0342 25.2154 22.6143
Au 10.9164 22.6996 25.6238
Au 10.5777 24.0785 28.0896
Au 12.3419 21.9086 28.032
Au 13.033 24.3129 26.5803
Au 9.92249 21.7148 29.5758
Au 9.59031 23.1147 31.9772
Au 14.0874 23.2992 33.8769
Au 11.9944 23.271 30.5088
Au 12.7829 19.4014 3.95187
Pd 13.3724 26.3809 7.13586
Au 12.2388 27.3525 9.51808
Pd 14.1596 28.8393 8.18827
Pd 16.4132 25.4807 10.7955
Au 15.1171 31.4013 7.38421
Au 15.129 26.4652 13.2806
Au 13.9454 27.3942 15.7965
Au 18.6008 25.9572 15.0066
Au 17.6751 26.9673 12.6595
Au 9.90241 32.7841 12.8182
Au 13.6062 30.8703 18.6073
Au 15.3585 28.9496 17.6183
Au 18.8038 29.2017 14.5133
Au 12.7758 28.2382 18.3297
Au 12.7739 29.3927 20.9579
Au 14.5708 27.5014 21.1739
Pd 15.3192 32.3074 16.8942
Au 12.1761 27.1962 22.6462
Au 11.7641 28.7698 25.0924
Au 13.6701 26.7815 25.1955
Au 14.092 29.0782 23.5115
Au 11.2312 26.4802 26.686
Au 10.7916 27.8558 29.1402
Au 12.6571 25.7167 29.0488
Pd 15.7048 28.5117 26.3369
Au 11.8632 28.1892 33.7924
Au 12.282 27.0204 31.496
Au 11.653 24.6593 32.9464
Au 14.3812 28.4895 32.8042
Au 8.26431 22.0445 6.12534
Au 16.4636 26.7889 3.34005
Au 12.103 25.0137 3.6212
Au 17.9348 31.8329 6.81875
Au 12.0611 36.5125 15.0661
Au 12.4211 22.2352 3.72485
Au 12.4373 30.9426 8.12465
Pd 14.0726 32.6451 14.394
Au 13.5244 28.7062 13.1777
Au 15.1801 34.8285 10.3199
Au 15.7676 35.5313 17.5656
Au 18.5074 36.4071 17.8025
Pd 16.0709 33.8639 19.6494
Au 18.929 35.2114 15.2974
Au 16.7404 28.1445 19.8291
Pd 12.7323 36.2268 22.1038
Au 12.0204 33.6716 21.3632
Au 13.8536 36.4802 24.5826
Pd 12.3371 31.1359 23.3677
Au 8.98367 33.2741 21.0189
Au 9.79422 30.6957 25.0213
Au 10.3429 33.0033 23.4923
Au 12.5386 35.0185 26.5108
Au 14.0857 34.1858 28.7482
Au 12.918 29.453 30.1377
Au 17.5078 31.2234 30.3726
Au 15.3074 35.7069 26.8214
Pd 13.2984 28.2199 27.6676
Au 16.5757 29.8643 33.9172
Au 8.3258 27.5209 30.5451
Pd 16.5272 9.6093 4.11498
Pd 16.0565 6.62892 7.79415
Au 17.4763 7.48207 5.47159
Pd 16.1883 4.83025 12.5027
Au 14.7742 5.67702 10.1781
Pd 16.2574 3.22804 17.1905
Pd 17.5715 3.91916 14.8275
Pd 16.356 3.37783 21.7517
Pd 17.6514 2.47696 19.4865
Au 16.4899 5.19867 26.3049
Au 17.7912 4.12279 24.0165
Au 16.6399 7.32207 30.8326
Pd 17.912 6.10527 28.5459
Au 13.3164 8.5472 32.456
Au 18.2903 8.34475 32.9453
Pd 15.9947 12.3663 3.70414
Au 18.2907 11.0883 2.79354
Pd 16.6359 11.2196 6.20032
Au 16.8592 12.8619 8.37183
Au 17.6635 9.0264 7.63633
Au 18.5123 12.7734 4.86087
Au 16.3283 8.16257 10.029
Au 16.5571 9.85728 12.2395
Au 17.7288 7.19296 12.3273
Au 17.9274 10.6652 9.85463
Au 16.3648 6.39373 14.7323
Au 16.6091 8.09634 16.9397
Pd 17.7781 5.52841 17.0374
Au 17.982 8.87995 14.5588
Pd 16.4326 4.87585 19.4026
Au 16.6936 8.24614 21.5912
Au 17.8762 5.6604 21.6744
Au 18.0077 7.23935 19.2605
Pd 16.5763 6.67976 23.9598
Au 16.8251 10.2155 26.0932
Au 18.0165 7.54703 26.2023
Au 18.1499 9.13892 23.8234
Pd 16.7417 8.70902 28.4362
Au 15.935 11.0859 29.7891
Au 18.2274 9.67623 30.6216
Au 18.3393 11.1809 28.2788
Au 15.8467 9.59395 32.2565
Au 17.1739 13.4769 34.4387
Au 17.489 10.6359 34.2722
Au 17.3914 12.0612 31.9912
Au 15.5013 15.2033 3.27066
Au 17.7791 13.9319 2.38687
Au 16.1731 14.0736 5.79059
Au 16.4001 15.7193 8.02661
Au 18.778 14.4289 7.0357
Pd 18.0419 15.6291 4.47622
Au 17.0985 14.4724 10.5849
Au 17.3695 16.0757 12.8306
Au 18.1842 12.3134 12.0696
Au 19.0427 16.0411 9.273
Au 16.789 11.5065 14.469
Au 17.029 13.1372 16.7157
Au 18.2323 10.5627 16.7972
Au 18.467 13.9429 14.3129
Au 16.8428 9.81755 19.1932
Au 17.0865 13.2397 21.3563
Pd 18.2954 10.6916 21.4523
Pd 18.4366 12.231 19.0472
Pd 16.9621 11.7462 23.7278
Pd 16.1147 14.0856 25.0365
Au 18.4336 12.6869 25.9273
Au 18.567 14.1778 23.5782
Au 15.9992 12.6049 27.4043
Au 17.2321 16.5263 29.6645
Au 17.4751 13.5729 29.6177
Au 17.5797 15.0707 27.2471
Au 17.1501 14.9982 32.102
Pd 19.1237 17.8621 35.3991
Pd 19.3256 15.0558 35.2307
Au 19.3127 16.5818 32.948
Au 17.3488 16.7682 2.03051
Au 19.4382 18.5654 2.02045
Au 15.7278 16.912 5.43742
Pd 15.9333 18.54 7.69619
Pd 18.2678 17.2591 6.67334
Pd 17.5981 18.4753 4.13742
Au 16.6271 17.3263 10.2735
Au 14.8752 17.4092 13.7712
Au 19.2998 17.6251 11.5336
Au 18.5107 18.8621 8.92361
Au 16.0163 15.2814 15.2452
Pd 16.237 16.9236 17.4842
Au 18.6506 15.5664 16.5602
Au 17.5662 17.6997 15.0857
Au 17.2257 14.777 18.9675
Au 16.3317 17.062 20.2688
Au 18.7408 15.721 21.2022
Pd 18.8383 17.2201 18.795
Au 16.2279 15.5561 22.6603
Au 15.2956 17.8604 23.9922
Au 17.7029 16.5514 24.8749
Au 17.8327 18.051 22.4772
Pd 17.3046 18.0132 27.2683
Au 16.9834 19.3846 29.7523
Pd 19.3484 18.117 30.564
Au 19.4057 19.6345 28.1704
Au 19.0822 19.401 33.1059
Au 18.8905 20.6678 35.6229
Au 21.2633 19.3864 36.3613
Au 21.2652 20.9449 34.0914
Au 14.6697 20.9316 2.6408
Au 16.9472 19.6511 1.68571
Au 15.2871 19.7465 5.14705
Au 16.1307 20.1462 9.95443
Au 17.8126 20.0884 6.37305
Au 16.5868 22.4918 1.45373
Au 14.2176 18.6395 11.2631
Pd 14.4358 20.247 13.5478
Au 16.8415 18.9289 12.5474
Au 18.7177 20.4733 11.1952
Au 15.089 19.0453 16.0394
Au 15.887 21.5841 17.2494
Au 17.7496 19.3608 17.3271
Au 17.0272 20.572 14.8174
Au 15.2413 19.2684 18.7908
Au 16.074 21.7727 20.0075
Au 17.8891 19.5275 20.058
Au 18.6489 22.0133 18.4501
Au 15.3648 19.3708 21.551
Au 15.0429 20.7393 23.9643
Au 17.4044 19.498 24.8591
Pd 17.4869 20.9516 22.3993
Au 14.9624 19.2849 26.4578
Pd 14.6476 20.6598 28.9358
Au 19.1002 20.9434 30.6806
Au 17.0319 20.8861 27.3594
Au 16.6854 20.6933 32.2675
Au 16.4902 21.9682 34.7796
Au 21.0573 22.1907 36.504
Au 18.8439 22.207 33.2543
Au 14.9147 22.5657 4.91763
Au 12.7714 27.5193 4.66116
Pd 15.502 21.3649 7.43622
Au 15.6903 22.98 9.75558
Au 18.0427 21.7028 8.63015
Au 17.2172 21.3204 3.8338
Au 16.3175 21.7668 12.2769
Au 20.4325 23.6363 15.0322
Au 18.8912 22.0753 13.4448
Au 18.2183 23.3081 10.9284
Au 17.7763 23.1757 15.908
Au 20.7825 23.9566 19.6383
Pd 23.8373 23.7176 18.4475
Au 18.6979 26.0288 19.7376
Au 16.7337 24.1698 18.4651
Pd 16.3439 25.4968 21.0025
Au 18.2108 23.4426 20.8823
Au 16.5164 28.0484 15.1403
Au 15.7673 23.1187 22.447
Au 15.395 24.5771 25.0307
Au 17.0643 22.3574 24.8708
Au 17.7338 24.8862 23.4037
Pd 14.7007 22.1181 26.4645
Pd 14.3723 23.4833 28.9758
Pd 16.7102 22.2187 29.8594
Au 16.6944 23.7376 27.437
Pd 14.3428 21.9797 31.3952
Au 16.2604 24.7315 34.9064
Pd 18.6826 23.4491 35.6952
Au 16.4462 23.4908 32.3975
Pd 14.5701 25.3547 4.80296
Pd 16.8839 24.1039 3.60919
Au 15.1348 24.1881 7.2815
Au 15.9033 26.7378 8.35103
Au 17.6781 24.5207 8.41047
Au 14.7501 28.9255 3.37801
Au 20.1769 27.4953 12.362
Au 22.1096 25.9427 18.0182
Au 24.1327 29.0566 13.6987
Au 17.5471 28.2042 10.1525
Au 19.491 24.821 17.3961
Au 21.5185 28.9728 14.3088
Au 18.4028 30.0138 20.8411
Au 16.8487 31.5518 14.2515
Au 18.2164 27.4809 22.1495
Au 14.6414 34.3091 21.8439
Au 16.5759 29.7972 22.8881
Au 16.3968 31.0797 19.1379
Au 16.0191 27.0884 23.7233
Pd 16.5217 31.143 25.6071
Au 17.3655 26.2998 26.1338
Pd 14.9858 31.9901 23.6357
Au 15.0282 26.0152 27.6084
Au 17.1116 27.5692 28.7056
Au 16.4209 25.0466 29.9597
Pd 19.4604 27.9318 27.249
Au 14.0543 24.802 31.4935
Au 13.7686 26.0933 33.9883
Pd 18.6025 24.987 33.392
Au 16.1708 26.2902 32.5475
Au 18.8 24.1992 1.64198
Au 21.8649 24.9145 4.45286
Au 14.659 33.9476 7.89025
Pd 11.9135 30.9684 13.1808
Au 17.0885 25.6967 5.9187
Au 14.0083 32.3589 9.86049
Au 16.3014 30.4116 5.05484
Pd 17.344 31.7496 11.4906
Pd 14.7716 30.1653 15.1862
Pd 14.7984 27.7253 10.7752
Au 14.1228 35.4465 13.4857
Pd 14.3684 36.2491 19.8876
Pd 18.7133 34.4649 19.7506
Au 17.1553 37.1288 15.6188
Au 13.1061 36.8783 17.5917
Au 11.0397 35.7262 24.1866
Au 13.5518 33.8191 18.8069
Pd 15.7995 34.6023 24.2865
Au 13.8555 30.4233 25.8673
Au 13.0169 33.9073 23.9928
Au 17.3136 33.7832 26.4006
Pd 14.5244 33.1014 26.21
Pd 15.3994 29.6931 28.9587
Au 15.0309 30.8315 31.5798
Au 14.7217 27.3016 30.1768
Pd 18.3138 37.2867 22.6089
Pd 16.8276 28.7306 31.3495
Au 18.8202 31.2655 34.9948
Au 16.0233 27.4438 35.0273
Au 17.2524 32.2804 32.9394
Au 18.9007 8.33694 3.25776
Au 18.7947 6.4218 7.74523
Au 20.1548 7.11272 5.42642
Au 18.8851 4.60634 12.4151
Au 17.4928 5.59742 10.0777
Au 18.9593 2.98644 17.1274
Au 20.2769 3.63912 14.7522
Pd 19.103 3.19654 21.7256
Pd 20.3934 2.28836 19.4599
Au 19.2244 4.94079 26.2977
Au 20.5597 3.90446 24.0001
Au 19.3232 6.78948 30.8177
Au 20.6557 5.71968 28.5458
Au 19.9537 9.3295 34.9054
Au 20.8443 7.41517 33.088
Au 20.3083 13.0177 2.65049
Au 20.8418 10.2352 2.9657
Pd 19.0898 9.91421 5.32141
Au 19.3257 11.5207 7.46588
Pd 20.4195 8.73656 7.62958
Au 21.1376 11.9326 5.13816
Pd 19.0756 8.00072 9.97163
Pd 19.3437 9.65739 12.1895
Au 20.4727 6.97841 12.2777
Au 20.7112 10.3927 9.84358
Au 19.1183 6.23277 14.6643
Pd 19.3844 7.94478 16.8874
Au 20.5242 5.30998 16.9822
Au 20.7531 8.68462 14.5241
Au 19.1753 4.6881 19.3573
Au 19.474 8.09829 21.5445
Au 20.6656 5.47015 21.651
Au 20.7901 7.07365 19.2297
Au 19.3403 6.46957 23.9432
Au 19.6091 9.93525 26.1033
Au 20.8193 7.2552 26.2277
Au 20.9412 8.88813 23.8343
Au 19.4904 8.33101 28.4832
Au 19.8652 12.2418 30.4061
Au 20.9163 9.00031 30.8122
Pd 21.051 10.6248 28.443
Pd 19.8296 10.785 32.7004
Au 19.5452 12.1956 35.1529
Au 21.9168 10.9512 35.7288
Au 21.8726 12.532 33.5361
Au 19.8859 15.782 2.3295
Au 22.4719 14.8678 2.66221
Pd 20.6262 14.7167 4.82909
Au 20.8873 16.3781 7.0951
Au 21.4446 13.6072 7.38045
Au 22.788 16.6417 4.8618
Au 19.6077 13.1582 9.66332
Au 19.9157 14.7779 11.8918
Au 21.0075 12.0562 12.0791
Au 21.7355 15.2817 9.64401
Au 19.6248 11.328 14.4236
Pd 19.8466 12.9714 16.6608
Au 21.0129 10.3724 16.7634
Pd 21.2764 13.691 14.3072
Au 19.6214 9.66786 19.138
Au 19.8896 13.0726 21.3176
Au 21.0764 10.485 21.4351
Au 21.2177 12.05 19.0109
Pd 19.7406 11.5181 23.7118
Au 20.0826 15.2107 25.7832
Au 21.1874 12.2507 26.0446
Au 21.3505 13.8616 23.6228
Pd 19.9365 13.7135 28.0977
Au 19.567 15.2696 30.4303
Au 21.9029 14.0735 31.1918
Au 21.9553 15.6093 28.8198
Au 19.5071 13.7158 32.8339
Au 21.4531 16.5743 36.1566
Pd 21.6409 13.8016 35.9189
Pd 21.6667 15.3483 33.7115
Au 27.0089 19.376 4.35607
Au 22.0488 17.6077 2.39007
Au 20.1422 17.4795 4.51621
Au 20.3804 19.1429 6.82098
Au 23.0079 18.327 7.17138
Au 22.2772 19.3644 4.58571
Pd 21.1406 18.0301 9.38522
Au 21.3295 19.6523 11.6958
Pd 21.9804 16.8868 11.899
Au 23.1982 20.0168 9.48386
Au 20.1622 16.3706 14.1309
Au 20.2687 17.9962 16.384
Au 21.4777 15.3027 16.5422
Au 22.1735 18.516 14.1672
Au 20.0452 14.6266 18.9151
Au 20.3761 18.201 21.0326
Pd 21.5279 15.4118 21.2317
Au 21.6417 16.9698 18.8349
Au 20.2873 16.7136 23.4155
Au 19.7594 18.2954 25.6835
Au 22.0976 17.164 26.4487
Pd 22.2378 18.6623 24.1175
Pd 19.6313 16.7904 28.066
Au 21.4894 19.7075 31.5373
Pd 21.6982 16.8984 31.3891
Au 21.7483 18.4583 29.0152
Au 21.4816 18.1316 33.9285
Pd 23.487 21.0162 35.7931
Au 23.6981 18.2155 35.7349
Au 23.7539 19.8 33.3745
Au 21.5112 20.3375 2.08252
Au 22.189 22.1807 4.58243
Au 19.7627 20.3359 4.24719
Au 20.0143 21.9756 6.56722
Pd 22.4549 21.0167 7.05509
Au 23.9402 23.8216 2.87695
Au 20.6481 20.8326 9.16516
Au 23.0083 22.962 9.51122
Pd 23.3246 21.596 11.7751
Au 23.6113 26.7223 9.25605
Au 19.4974 19.2529 13.8
Au 19.6284 20.9047 16.0225
Pd 22.2774 20.0584 16.4872
Pd 21.5655 21.3366 14.0247
Au 20.4756 19.6963 18.5964
Au 19.9469 21.2259 20.8633
Au 22.3663 20.1281 21.7985
Au 23.294 25.2686 20.4834
Pd 19.8621 19.7718 23.296
Au 19.4572 21.1587 25.7645
Pd 21.8206 20.0161 26.6614
Au 21.8561 21.4947 24.2817
Pd 21.5087 21.2838 29.1544
Au 21.2587 22.5155 31.6871
Au 23.7404 21.4301 30.9356
Au 21.482 22.8637 26.7723
Pd 23.4998 22.5771 33.4589
Au 23.2853 23.7786 35.9182
Au 25.7208 22.5514 35.1408
Au 30.5359 22.195 33.1907
Au 14.3729 23.7838 2.49048
Pd 19.5144 23.1047 4.07535
Au 19.0866 21.4618 1.75542
Pd 22.2447 23.773 7.03095
Au 24.6482 26.1414 4.0524
Au 21.394 23.1287 2.11561
Pd 19.7397 24.7376 12.6869
Au 20.2735 23.5656 8.96431
Pd 24.0372 26.193 13.7051
Au 24.4924 24.8881 11.1709
Au 21.3675 22.5861 17.3264
Au 25.282 29.455 17.1173
Au 22.861 24.5342 15.8622
Pd 22.7293 23.8032 13.2039
Au 21.899 22.9796 21.8836
Au 21.1042 27.2463 20.159
Au 24.5657 22.6801 21.0058
Pd 25.0201 25.7128 16.9554
Au 19.4431 22.6379 23.2978
Au 19.0195 24.0337 25.8627
Au 21.3339 24.3823 24.319
Au 19.6247 26.6349 24.6049
Au 19.0993 22.4949 28.297
Au 18.8175 23.7624 30.8389
Au 21.1924 24.0965 29.307
Au 21.0156 25.6997 26.9018
Au 21.0356 23.726 34.2137
Pd 20.8529 24.9437 36.5944
Au 25.4751 25.3196 35.1583
Pd 23.4424 24.1927 31.0469
Au 19.5235 33.2727 8.63698
Au 26.3321 29.5044 10.0832
Au 13.9843 26.5006 2.42117
Au 22.4383 27.4801 3.57466
Au 18.7088 27.1103 7.76797
Au 17.4232 29.2594 2.80535
Pd 15.33 27.8481 5.7994
Pd 23.058 30.4723 16.043
Au 25.9542 27.565 15.1402
Au 21.4103 26.1736 14.324
Au 20.3041 27.5177 16.492
Au 20.4007 31.3977 13.7256
Au 17.537 30.364 16.734
Au 16.3442 29.2891 12.6087
Au 19.2149 28.8388 18.5757
Au 16.8903 32.1911 21.5533
Au 22.2702 30.4039 23.2535
Pd 19.1407 31.7443 18.6714
Au 18.0621 28.8832 25.0107
Au 19.2552 31.7463 25.9077
Pd 22.2501 28.3758 27.5922
Au 20.7937 28.2262 22.6939
Pd 18.7513 25.3319 28.4337
Au 18.5348 26.5594 31.0056
Au 20.8567 26.8896 29.4806
Au 19.2515 29.1064 29.874
Au 20.9764 25.2959 31.8568
Au 18.4472 26.1696 35.8933
Pd 23.2265 25.3262 33.5512
Pd 20.6848 28.0406 32.0474
Au 19.1113 25.8372 3.94751
Au 20.5793 28.436 9.74391
Pd 19.0754 29.8144 11.8543
Au 16.9209 29.3059 7.5567
Pd 19.703 24.7154 6.38589
Pd 15.7501 30.2636 9.89793
Au 22.6802 27.5239 11.7697
Pd 12.9999 29.7668 10.5911
Au 18.6205 33.4891 13.2016
Au 20.9318 34.71 10.5092
Au 16.2993 34.3027 15.1093
Au 19.6542 37.03 20.2573
Au 21.492 34.5862 19.9025
Au 15.6827 38.0264 17.9028
Au 17.3161 34.8801 22.0412
Pd 17.9421 32.8846 23.8535
Au 19.7405 32.5027 21.2962
Au 16.6679 37.0782 24.8303
Au 19.3799 30.6088 23.2881
Au 15.4792 36.8976 22.3963
Au 20.1431 34.2936 26.6222
Au 20.9917 37.0244 23.5331
Au 17.847 30.1111 27.7031
Pd 18.8522 32.7196 28.5009
Au 18.9989 30.2109 32.4888
Au 20.4176 37.0087 26.1069
Au 20.6291 27.6406 36.78
Pd 18.3516 27.7146 33.5522
Au 18.1962 28.8476 36.0091
Au 20.1599 32.6916 33.148
Au 21.5719 7.65366 3.22737
Au 21.5338 6.05465 7.67025
Au 22.985 6.61512 5.35816
Au 21.6089 4.34205 12.3834
Au 20.1917 5.36999 10.0306
Au 21.7134 2.76042 17.1142
Au 23.0266 3.40558 14.752
Pd 21.8712 2.99281 21.7047
Au 23.1672 2.05281 19.4518
Au 22.0081 4.69385 26.2789
Au 23.354 3.6879 23.9767
Pd 22.0789 6.43442 30.7467
Pd 23.433 5.50765 28.4818
Pd 22.4128 8.12908 35.2557
Au 23.5392 6.95974 32.9936
Au 22.858 12.1354 2.88456
Pd 23.5319 9.54184 3.17278
Au 21.9235 9.23639 5.34885
Au 22.2491 10.9075 7.55436
Au 23.2897 8.21417 7.59341
Pd 23.9052 11.2449 5.28989
Au 21.822 7.67428 9.91532
Au 22.1332 9.36395 12.176
Au 23.2572 6.66352 12.2735
Au 23.6156 9.91033 9.86269
Au 21.8824 5.99855 14.6241
Au 22.161 7.74896 16.867
Au 23.3187 5.1052 16.9775
Au 23.5518 8.40577 14.5076
Au 21.9789 4.48401 19.3471
Au 22.279 7.87431 21.5348
Au 23.4676 5.26565 21.6381
Au 23.5906 6.85806 19.2339
Au 22.1529 6.23351 23.9438
Au 22.4035 9.61356 26.1417
Pd 23.6138 7.01368 26.2022
Au 23.7647 8.61882 23.8397
Pd 22.2515 7.99926 28.4763
Au 22.4721 11.2847 30.8508
Au 23.685 8.62581 30.7544
Au 23.8254 10.2911 28.4293
Au 22.3905 9.68402 33.1804
Pd 24.056 12.722 35.4239
Au 24.3602 9.98908 35.393
Au 24.3467 11.6107 33.0116
Pd 27.751 16.7133 4.89433
Au 24.9783 15.8423 3.41277
Au 23.2639 13.9184 5.1026
Au 23.5916 15.6281 7.36909
Au 24.332 12.9648 7.48689
Au 27.3327 14.6292 3.33376
Au 22.5771 12.5882 9.78412
Au 22.8499 14.2442 12.0414
Au 23.9033 11.573 12.1325
Au 24.6041 14.662 9.77105
Pd 22.4072 11.0421 14.4201
Pd 22.6311 12.6968 16.6622
Au 23.8072 10.0975 16.7552
Au 24.1386 13.2385 14.3775
Pd 22.4039 9.45619 19.1321
Au 22.7007 12.8178 21.3333
Au 23.9054 10.2127 21.4447
Au 24.0238 11.7883 19.028
Au 22.5505 11.2308 23.752
Au 22.8064 14.4861 25.9945
Pd 24.0111 11.908 26.0528
Au 24.2017 13.4789 23.6518
Au 22.5979 12.8842 28.4381
Au 24.1654 15.9159 30.6915
Pd 24.3877 13.2488 30.5444
Au 24.5258 14.912 28.1345
Pd 24.0915 14.2906 33.076
Pd 23.8517 15.4497 35.5096
Au 26.2859 14.1352 34.7808
Au 26.3868 15.7404 32.4573
Au 24.5773 18.5163 3.25144
Pd 29.437 20.125 5.45414
Au 25.9193 14.8688 5.81006
Au 25.4616 19.3097 8.04868
Au 26.1294 16.5847 8.20864
Pd 24.8255 21.9982 7.67585
Pd 23.7952 17.2959 9.65851
Au 23.9959 18.9186 11.9153
Pd 24.8215 16.3034 12.031
Au 26.3041 18.3399 10.5121
Pd 23.089 15.8626 14.2751
Au 23.2572 17.4653 16.5542
Au 24.3773 14.8669 16.6403
Au 25.0235 17.9704 14.2709
Pd 22.8385 14.3607 18.9449
Au 23.2098 17.581 21.2681
Pd 24.3723 15.0134 21.2724
Au 24.5577 16.5247 18.9294
Pd 23.0316 16.0551 23.5969
Au 24.3307 19.344 25.8573
Au 24.717 16.6061 25.7241
Au 24.9232 18.2481 23.3998
Au 24.2614 17.6149 28.2583
Au 23.9769 18.66 30.814
Au 26.5016 17.3929 30.0257
Au 26.5551 19.1071 27.5735
Au 23.934 17.0155 33.2445
Au 25.968 19.7538 35.0886
Au 26.1432 16.9284 34.97
Au 26.2383 18.544 32.6017
Au 28.537 22.3993 4.48394
Pd 27.0881 20.9846 6.53047
Au 25.3324 17.6191 5.73495
Au 24.9475 24.6117 8.21529
Pd 27.9544 20.2598 9.13767
Pd 24.4109 23.7811 5.50609
Au 25.5753 21.0901 10.2944