1687
Atoms. Timestep: 21048
Au 19.4093 28.6769 4.52905
Au 18.5504 10.1808 4.36162
Au 14.4829 16.5989 34.4011
Au 22.2208 8.71691 15.6807
Au 28.0898 4.87295 24.6062
Au 4.97554 12.0743 10.8876
Au 5.71645 21.3716 22.5329
Pd 28.7057 11.7772 19.0903
Au 19.8572 34.3569 28.365
Au 11.1774 7.34247 20.9154
Pd 22.4905 26.0345 14.4339
Au 8.42398 29.9427 8.4309
Au 21.1101 15.9654 14.892
Pd 9.33325 30.4341 15.0182
Au 23.5393 5.11314 12.6982
Au 10.652 16.0656 15.7316
Au 7.62564 27.0997 22.3084
Pd 24.5998 10.0293 27.5185
Pd 7.99231 19.6811 21.8388
Pd 14.0991 11.9849 4.42981
Pd 17.6587 16.9684 22.1344
Pd 31.0453 15.2652 9.9747
Au 23.1863 3.97566 20.672
Pd 28.1856 30.2389 14.5896
Au 12.2887 19.8381 5.73283
Au 10.6559 33.3636 20.9267
Au 21.5555 16.5833 3.5439
Au 16.2275 7.13836 30.571
Au 10.9574 16.1997 19.8781
Au 10.4561 18.4137 32.0046
Au 11.6287 28.1248 15.6714
Pd 26.3285 25.9712 17.283
Au 24.6124 6.59419 30.6462
Au 21.1026 9.78959 27.6829
Au 15.1683 35.7614 11.1509
Au 8.19503 17.9692 6.47579
Au 29.1201 11.1332 21.7744
Au 24.8462 18.0294 12.8347
Au 19.3976 21.5665 9.13255
Au 15.0839 23.0509 23.2859
Au 18.9926 7.18265 31.1423
Au 12.2577 14.8697 17.859
Au 22.9555 10.4105 7.92075
Au 6.90757 16.5541 30.7823
Au 28.1837 15.2459 30.1923
Au 19.3899 6.84235 21.6483
Au 26.8538 12.5707 21.0774
Au 20.7354 4.94187 24.2328
Au 18.7353 25.5021 35.583
Au 9.29974 27.7601 6.63589
Au 17.1274 36.3235 15.5573
Au 2.67304 24.9653 20.0823
Pd 32.6789 22.917 25.0474
Au 24.71 34.1781 13.9457
Au 7.21044 21.9692 12.2531
Au 21.0687 29.7416 9.45819
Au 14.861 14.3908 36.1347
Au 18.1606 32.6719 10.1039
Au 11.2662 13.7328 27.5436
Au 10.8694 18.8178 15.5183
Au 32.3901 20.9976 27.435
Au 4.50337 15.5123 17.0646
Au 22.2941 7.54258 12.4155
Au 24.6962 26.8427 21.8143
Au 17.0587 17.3119 1.36219
Au 5.64514 20.5962 16.0398
Pd 15.1715 14.8687 10.8678
Au 18.7169 4.47089 11.5792
Pd 17.312 34.5594 19.8176
Au 14.1377 29.7565 15.9946
Pd 18.1884 27.5306 16.4182
Au 5.92669 18.9791 31.7273
Pd 22.3296 18.0607 28.3824
Au 17.9813 25.5162 8.48237
Au 30.5611 8.24793 16.1109
Au 19.2972 15.9072 38.0181
Au 15.6469 17.6402 27.2996
Au 15.1727 19.4314 22.3528
Au 22.9526 11.2086 29.2957
Au 12.8218 24.6462 22.6191
Au 25.1622 25.2339 34.0545
Au 6.51436 27.9046 24.7018
Au 23.3317 28.1295 19.799
Au 28.6756 28.0836 11.1277
Au 22.6403 30.0926 23.846
Au 30.3532 13.996 17.8681
Au 0.15535 18.2289 16.6539
Au 14.241 17.1503 9.14987
Au 23.5236 11.7721 34.0686
Pd 12.7653 24.0653 14.9014
Au 1.21915 20.6901 20.6977
Au 3.78027 12.0181 25.191
Au 16.6331 12.0938 32.4549
Au 7.87471 27.5471 27.0225
Au 9.94772 16.2222 34.1562
Au 23.6352 15.3799 27.7941
Au 5.69181 18.3033 25.6945
Au 9.60569 15.7062 31.4142
Pd 13.8617 27.2459 29.8905
Au 9.75343 20.1603 24.3997
Au 14.3412 21.0054 1.85187
Au 19.775 29.819 34.5516
Au 26.1091 23.4902 15.1613
Pd 14.4128 3.96457 14.9091
Au 23.7689 6.32432 19.4708
Au 30.3966 28.6779 31.715
Au 23.348 26.436 32.4403
Au 17.6902 33.6391 22.5991
Au 26.4061 6.24298 12.536
Au 29.1581 29.3197 23.7035
Au 31.0102 28.2177 21.9903
Pd 13.6444 12.8396 25.9626
Au 31.1082 7.34562 18.6521
Au 12.6755 35.3824 14.8711
Pd 17.9215 21.0816 36.5975
Au 12.9666 8.20973 27.136
Pd 24.8615 18.9318 37.7006
Au 22.9735 31.8278 13.5477
Pd 30.9016 16.7842 5.03036
Au 22.9298 20.5566 19.1665
Au 30.4905 23.1025 18.0255
Au 28.6194 23.6889 13.855
Pd 25.7798 15.9609 34.295
Au 6.77483 17.8033 28.2192
Au 31.9089 21.1782 22.2239
Au 24.9818 20.9345 14.0464
Au 16.2412 23.5632 7.00252
Au 30.2088 9.11488 13.3901
Au 14.8806 25.452 13.6685
Au 26.8156 10.6191 17.5103
Au 28.6635 10.4159 31.3475
Au 28.253 18.0402 9.37856
Au 30.257 31.2489 22.115
Au 35.2158 17.4354 21.9917
Au 13.7117 23.5461 28.1147
Au 31.9076 12.63 6.99411
Au 20.5752 18.6576 26.4698
Au 26.6361 16.9008 2.88939
Au 21.1853 27.0927 10.6557
Au 27.021 6.96152 23.3932
Pd 13.0965 32.6452 15.9103
Au 14.8944 8.29231 13.6881
Au 20.1441 31.4862 11.4403
Pd 26.0127 23.4376 18.1508
Pd 23.2552 10.4021 10.8007
Au 29.9218 17.1927 11.4611
Au 21.5262 11.3726 15.6104
Pd 15.0268 15.2815 25.8785
Au 30.9529 18.5489 20.5555
Pd 9.14905 20.9351 14.2553
Au 14.9937 26.9943 22.9759
Pd 7.1115 20.3538 24.6162
Au 24.5634 16.3465 36.8146
Au 10.7775 30.4786 9.83326
Au 22.3675 19.4535 34.0416
Pd 11.4959 22.3041 6.66204
Pd 28.7605 29.2479 20.8512
Au 5.9811 10.0047 20.7178
Au 20.4443 34.0545 10.6877
Au 9.5557 16.9203 11.3932
Au 21.2554 22.7833 20.2657
Au 12.5194 16.5421 2.3405
Au 37.3686 14.825 18.9865
Pd 6.52395 12.4057 13.3065
Pd 30.479 12.1957 23.896
Pd 4.40098 13.8007 23.2713
Au 16.828 15.3639 12.9656
Au 32.1222 10.4546 25.3012
Au 13.1811 20.9805 11.2661
Au 10.5844 21.9882 4.11735
Au 6.16734 20.9834 19.9733
Au 10.81 18.3233 7.53253
Au 14.394 29.6951 21.6979
Au 17.9002 35.1429 11.1442
Pd 31.3395 16.0777 26.9316
Au 14.4692 14.7758 4.29693
Au 6.69615 13.916 17.1627
Pd 7.47526 28.6349 17.914
Au 26.3321 16.4742 7.85124
Au 27.9059 13.8106 13.9945
Au 30.1815 22.2022 28.9308
Au 19.9945 24.3241 9.97137
Au 22.9357 9.09214 25.5121
Au 12.3412 5.56774 27.772
Pd 17.3783 12.5521 19.5174
Au 21.7206 11.7298 31.8593
Au 14.7388 2.60214 17.1887
Au 8.86531 20.7046 27.4389
Au 4.84628 21.0314 8.6985
Au 21.2869 2.49174 24.7994
Au 16.0236 22.8049 2.83064
Au 17.5197 8.88831 20.8116
Au 28.6064 8.59784 18.3785
Pd 13.4594 23.9888 7.28088
Au 15.9185 17.2733 3.92043
Au 32.4231 12.6367 16.408
Au 14.7844 36.6203 20.3784
Au 32.3633 20.8258 13.7099
Au 12.5946 13.511 6.07718
Au 6.74316 15.9774 7.52037
Au 12.6921 19.0781 33.7959
Au 10.3491 23.348 34.4185
Au 17.092 28.9678 21.5386
Au 25.1861 35.626 23.7468
Au 17.9235 30.9502 23.3133
Au 21.9775 15.5672 37.2461
Au 30.1502 22.1875 6.75134
Au 25.2531 28.6892 17.8384
Au 22.7255 33.5342 18.0268
Pd 11.4396 15.0699 4.26395
Pd 20.9486 5.56706 19.6158
Au 18.3117 11.2159 6.99985
Au 21.5152 14.9497 7.49611
Au 14.7597 23.0031 16.4736
Au 13.1478 32.4422 28.3517
Pd 19.6328 10.7123 20.078
Au 15.084 24.5512 20.9256
Au 20.0264 28.8197 27.4124
Au 10.533 10.7995 22.5184
Pd 14.7557 13.0407 18.8049
Au 24.2366 6.71606 16.8125
Pd 25.0451 28.7631 26.2883
Au 5.16944 19.251 18.2459
Pd 14.1371 22.4638 19.0851
Au 8.73599 8.87054 21.2048
Pd 14.4609 18.3277 1.96385
Au 11.9627 3.17542 22.8058
Au 15.0059 5.34263 10.0069
Pd 19.9465 4.176 21.6128
Au 11.8025 26.3392 24.5952
Au 25.3502 18.4271 1.08353
Au 3.05753 23.8612 12.1926
Au 6.99476 25.4082 28.7386
Au 10.7787 20.5975 22.0163
Au 13.9033 14.2245 28.2035
Au 20.3226 17.956 33.2321
Au 28.9298 16.7451 14.1254
Au 9.56223 7.69368 18.6997
Au 33.0398 8.83 23.2357
Au 4.84459 25.4453 18.4873
Pd 15.2854 30.2825 13.3139
Au 22.7683 37.5172 20.3199
Au 4.87621 12.1951 15.4703
Au 18.4921 18.5835 37.6172
Au 13.211 28.5403 32.0685
Au 34.686 14.4567 25.4411
Au 22.3013 10.9028 20.8852
Au 14.3162 21.4851 33.3173
Au 10.1732 28.9837 17.708
Au 22.342 23.82 3.18119
Au 11.6194 22.7502 12.7654
Pd 26.4493 28.119 13.2929
Pd 28.0291 21.1799 10.7261
Au 25.5272 11.9421 9.78128
Pd 22.1893 8.93071 22.8433
Au 9.50982 11.6573 27.5496
Au 16.2909 28.8916 30.5038
Au 28.4434 33.1146 20.9031
Pd 15.7682 17.6973 14.9122
Au 4.84498 20.5483 29.65
Au 28.3202 11.185 12.9247
Au 36.98 22.2708 17.3181
Au 9.0699 22.6842 25.5253
Pd 20.4699 29.6733 6.81824
Au 14.6965 10.2127 25.8183
Pd 24.8524 8.30485 11.6222
Au 22.7128 17.0734 0.98328
Au 3.85252 19.4742 14.096
Au 12.1606 18.097 29.8435
Au 11.2643 17.9773 25.0222
Pd 22.6147 21.1204 31.9709
Pd 12.0432 18.1901 17.8721
Au 17.3942 28.6462 6.60207
Pd 10.7926 31.6823 16.7807
Au 21.4924 12.0796 3.07964
Pd 8.10825 22.4458 29.5844
Pd 34.2512 26.0614 18.2915
Pd 19.0196 35.8016 21.4385
Au 11.6803 31.0036 21.8697
Pd 13.7066 11.173 31.8922
Au 27.9984 11.0545 5.8923
Pd 11.9542 16.0849 22.6099
Au 15.7308 31.1513 5.68696
Au 18.285 12.2369 2.47158
Au 15.6876 27.1821 4.60097
Au 29.9419 29.7169 29.2196
Pd 27.2793 18.8709 6.6403
Au 12.0049 4.13527 13.5509
Au 28.0656 23.751 5.86653
Au 15.3917 29.9082 19.1237
Au 17.946 31.5029 13.1412
Au 18.4809 21.805 1.77742
Pd 7.19275 24.2934 17.4616
Au 29.0592 14.0066 22.0597
Au 16.0049 33.0908 11.9263
Au 21.4679 19.3247 17.054
Au 19.9017 33.7365 17.9015
Pd 24.9258 18.0974 27.9684
Pd 12.1063 4.42247 16.2854
Pd 21.3084 8.37636 20.2313
Pd 25.4941 24.9782 10.6464
Pd 15.9014 32.4244 14.8908
Au 20.7456 21.8479 17.7743
Au 10.5061 26.5964 22.1302
Au 5.81438 8.33066 22.7858
Au 27.0205 9.86792 20.4074
Au 15.1439 34.8972 13.7762
Au 13.03 13.8373 2.30202
Au 18.229 28.9771 14.0748
Au 5.58308 30.6148 17.7613
Pd 12.9374 11.6645 20.7352
Au 23.6251 13.3435 20.5552
Au 28.1304 24.1785 34.1464
Au 17.2416 6.25827 17.4405
Au 31.7267 27.8802 14.1069
Au 13.0542 7.05042 9.21602
Au 11.974 22.6629 9.4433
Au 25.046 10.8349 22.1384
Pd 18.4292 30.2825 8.67774
Au 12.5382 28.9996 27.6658
Au 32.5176 25.6526 24.3801
Au 9.05654 9.45477 31.5691
Au 3.26971 14.1821 10.5296
Au 18.5675 22.1394 19.6571
Au 7.0629 29.727 22.6184
Au 22.6494 35.6002 24.6594
Au 21.0295 18.5508 -0.45816
Au 16.4283 17.4101 24.624
Au 30.7805 24.0941 33.2671
Au 26.0369 32.9484 23.6398
Au 2.96575 18.0852 25.028
Pd 14.5658 28.8279 6.46435
Au 15.9213 21.889 11.6648
Au 4.65172 16.3856 9.5213
Pd 27.6463 18.5456 12.1828
Pd 24.573 33.9997 25.8426
Au 6.69709 16.6139 18.367
Au 0.0414083 20.5678 18.0129
Au 2.88932 14.0934 15.3925
Au 15.4965 10.1375 22.8796
Au 4.14938 22.1414 27.3264
Au 15.1822 34.1326 21.6068
Au 36.4997 12.7224 20.6936
Au 7.10192 22.5785 15.0104
Pd 19.0935 26.4568 6.03395
Au 18.4508 30.9654 5.73792
Au 10.5073 22.7902 28.2393
Au 2.69878 20.8891 18.1659
Au 9.04083 26.2618 17.197
Au 28.4221 20.2018 25.2529
Au 27.7471 25.7923 9.43203
Au 33.1078 25.6346 14.6321
Au 14.2178 3.96277 21.463
Au 22.4618 4.56453 17.6264
Au 30.7602 23.7729 23.4559
Au 11.1385 13.2565 15.9833
Au 18.178 16.1356 15.2096
Au 18.9765 23.624 6.81655
Au 15.5826 10.7231 6.61012
Pd 11.2069 9.45032 17.2225
Au 7.6207 14.8252 32.9309
Pd 16.5528 25.1753 16.2287
Au 8.1845 31.1951 17.3745
Au 29.1 15.5565 3.35218
Pd 22.7712 20.1051 12.4014
Au 11.4825 27.847 8.05512
Au 12.3855 14.7235 34.7417
Au 28.6003 7.72939 11.6631
Pd 21.4487 6.93589 26.5438
Au 34.7926 20.4381 22.7199
Au 16.1487 20.604 18.4417
Au 33.49 16.4175 9.16795
Pd 19.8795 13.8444 31.2258
Au 11.7812 4.25708 25.2758
Au 25.0318 4.10315 17.6929
Au 7.83453 15.0582 12.8607
Pd 13.2527 21.8284 21.7332
Pd 28.9876 29.8425 26.6515
Au 26.479 30.808 27.5325
Au 20.594 9.4495 11.0043
Pd 36.0842 23.5865 21.7914
Au 25.1589 11.159 24.9257
Pd 31.6612 29.2879 27.1084
Au 10.6907 10.2175 19.7597
Pd 28.0052 20.7649 27.9241
Pd 14.3536 16.4775 13.0003
Pd 16.745 27.9184 9.35512
Au 17.8057 34.2698 13.7684
Au 24.3951 24.1741 25.4204
Au 14.4667 10.4586 17.5472
Au 16.314 4.64768 25.6556
Au 5.22324 23.0583 10.5433
Au 9.32846 11.7053 9.86602
Pd 33.7274 22.9083 14.9399
Au 22.0134 30.0889 21.1022
Pd 10.8801 13.3223 8.16155
Au 8.57691 9.19965 9.3732
Au 14.5506 37.1327 15.7569
Au 24.476 7.20008 14.1906
Au 14.7893 34.1819 18.9814
Au 21.5657 17.7275 19.3451
Pd 13.3557 19.1799 14.4144
Au 20.3656 9.81769 8.20958
Pd 10.1629 31.0698 12.5536
Pd 8.49854 29.7786 25.1133
Au 24.436 12.0637 31.488
Au 12.2238 16.4506 32.5464
Au 17.9033 15.1763 25.8921
Au 24.6122 7.02477 7.74758
Au 12.3795 13.7792 31.9169
Au 28.5529 17.9884 4.45214
Au 16.3139 25.7892 34.2919
Au 26.3322 15.835 28.2818
Au 19.7019 13.3094 11.5487
Au 15.1548 21.4768 35.9894
Au 19.2637 7.87737 16.0751
Au 18.4267 16.9991 27.7267
Au 24.8012 22.0178 30.6321
Au 18.8818 30.2607 29.5224
Au 7.20159 11.2395 16.2694
Pd 2.85379 25.9552 22.5369
Pd 7.90801 19.2987 18.8619
Au 25.6583 30.371 31.9924
Au 30.9522 17.7634 8.81788
Au 17.3323 14.8603 3.84801
Au 12.645 7.76902 12.0877
Pd 21.1028 25.1487 33.8783
Au 11.4252 4.6701 20.6706
Pd 15.6755 23.6898 32.4536
Au 28.5369 13.0204 4.05302
Au 32.1074 30.1639 20.5332
Au 7.81659 11.0146 29.7081
Au 24.726 19.1377 30.621
Au 25.7622 29.1671 20.6645
Au 6.41944 12.8415 21.7873
Au 24.8271 20.5439 21.341
Au 23.9955 23.0084 20.081
Au 22.6176 8.00829 9.61857
Au 25.3659 5.20251 28.5049
Au 8.78137 28.7482 20.3398
Au 16.0321 6.17961 14.9527
Pd 6.23801 17.1188 13.4571
Pd 19.8151 14.4726 16.6551
Au 18.8423 36.2494 18.0991
Au 13.1004 30.0434 8.49257
Au 7.04938 23.0422 27.2868
Pd 9.79186 29.1587 22.8064
Pd 15.9513 26.2982 6.98714
Pd 8.85135 27.8274 15.0944
Pd 6.71184 12.0384 25.1192
Au 14.7885 15.3325 32.0348
Pd 22.5026 18.2069 36.5543
Au 33.7005 19.0387 9.01921
Au 23.2436 3.90848 23.4202
Pd 7.44038 10.4247 23.0204
Au 20.4728 4.48639 27.3033
Au 32.077 21.4584 19.5036
Au 1.64546 23.3311 21.9607
Au 3.63899 22.3719 20.2388
Pd 6.15615 24.5628 12.8129
Au 19.7709 16.5826 1.0165
Au 27.1853 12.7276 31.3896
Au 24.0383 31.0318 19.1718
Au 27.113 18.8478 17.6579
Au 9.5288 23.5258 8.59227
Au 14.709 1.84886 19.8893
Au 13.2775 11.5817 23.4922
Au 30.4757 11.5286 5.1111
Pd 32.5829 18.5548 23.0976
Au 10.5526 17.6683 4.78599
Au 25.5242 11.2034 7.07087
Pd 26.5299 16.5787 19.0574
Au 23.5655 20.696 9.56383
Pd 33.5198 27.5845 22.7884
Pd 17.5367 14.3736 36.6436
Pd 12.0753 22.9641 17.3184
Au 16.4206 8.74751 16.1442
Pd 17.1288 16.8226 35.5444
Pd 15.3911 19.9554 25.0236
Au 21.1467 37.0559 22.4622
Au 24.561 34.4518 29.1024
Au 15.275 28.4901 27.891
Au 5.5966 30.408 13.2303
Au 8.30528 31.3693 10.7353
Au 29.995 14.6841 12.4933
Au 21.6725 27.3902 5.24741
Au 20.3479 32.206 8.50297
Pd 24.9648 20.3731 33.1451
Pd 18.8528 17.6361 19.789
Au 10.6625 13.3743 19.8674
Au 25.8317 15.0218 21.0896
Au 28.3077 24.3448 19.338
Pd 12.7147 33.3086 22.8624
Au 12.6781 9.21356 22.126
Au 13.4595 19.3176 26.6949
Au 17.2559 31.6207 31.3392
Au 34.3034 11.5106 13.9386
Au 18.1727 24.8779 27.5744
Au 26.2895 11.6038 14.8915
Au 7.2866 25.2938 25.5301
Au 16.2597 26.7236 26.1319
Au 17.4896 22.0023 16.5416
Au 10.0222 18.9711 34.5781
Pd 16.8866 29.4855 3.97897
Au 21.2448 35.2351 19.9509
Pd 16.083 26.2785 31.4209
Pd 30.5892 16.7138 22.6772
Au 6.86246 22.928 8.13398
Au 2.04233 18.567 22.485
Au 3.43808 27.5273 20.2595
Au 21.3414 24.651 5.59106
Au 13.8596 35.8041 23.0473
Au 22.2184 14.2402 22.7069
Au 26.5369 7.11727 20.6475
Au 10.4175 31.6446 24.145
Au 24.2322 11.8913 16.8286
Au 12.1718 19.4896 3.04958
Au 11.8831 21.9103 1.87265
Au 22.5859 34.2077 12.2501
Pd 29.8452 17.0905 28.9949
Au 23.8058 22.2282 17.0669
Au 33.486 12.4031 23.798
Au 30.0444 27.1082 9.0119
Au 17.4949 12.3081 29.5805
Au 14.6808 24.4404 4.81381
Au 8.90175 13.8086 25.9893
Au 19.8356 27.8142 30.3717
Pd 4.0102 26.0374 13.7425
Au 22.9196 4.43512 26.1641
Au 25.5833 20.2216 11.4735
Au 12.1867 25.8287 12.7499
Au 15.8714 27.8807 14.7663
Au 37.0848 17.5471 17.508
Au 13.7816 19.8073 19.7969
Au 4.74446 22.2499 13.5252
Au 15.6573 12.9659 2.34882
Au 16.3822 30.9961 28.5022
Au 19.2753 11.9654 26.8919
Au 21.4797 31.7568 34.6755
Pd 23.266 16.1233 20.8246
Au 9.31848 33.4265 18.4547
Au 10.1915 5.3594 23.0958
Au 15.6811 27.7422 17.4347
Au 19.5714 33.1336 20.6186
Pd 36.3628 19.5774 20.7374
Au 32.0924 20.6572 30.2547
Au 28.665 32.5847 26.2991
Pd 15.7791 30.3422 8.35305
Au 9.15401 28.5106 10.6169
Au 11.9059 12.2864 10.5157
Pd 26.6227 13.6524 7.68441
Au 32.5618 18.0727 11.3252
Au 12.6936 9.67416 33.855
Au 25.4835 36.6214 21.2432
Au 10.7112 23.2711 21.4859
Au 29.8028 14.9417 24.5163
Au 30.1299 12.8461 9.09589
Au 21.7044 36.0159 17.4315
Au 17.4312 20.3548 29.2391
Pd 7.30747 17.5821 23.5393
Au 30.7218 31.1201 24.9922
Au 26.0013 3.77317 22.8685
Pd 22.0121 25.6286 20.65
Pd 25.0434 13.3313 23.1743
Au 17.9389 18.1083 13.0898
Pd 13.0492 35.8597 17.8332
Au 33.0652 13.681 9.16315
Pd 20.8114 11.0745 34.3145
Pd 12.8377 20.134 23.9998
Pd 23.8444 17.5824 32.6695
Pd 7.32645 20.4929 7.09851
Au 5.64502 15.188 28.773
Au 19.9726 20.7659 33.3774
Au 20.3585 35.225 25.8872
Pd 17.8395 8.76559 8.20488
Au 7.12244 24.4236 31.2902
Au 18.1318 24.5101 2.04251
Pd 21.999 29.5817 11.9773
Au 24.0051 22.5097 11.6771
Pd 22.6084 31.9454 10.5238
Au 35.3262 15.5293 17.3404
Au 5.21294 14.007 26.2773
Au 16.5437 23.6062 18.6881
Au 21.0261 30.5153 32.0781
Au 24.3208 14.994 18.3862
Au 7.41189 9.98034 27.1006
Au 26.1513 16.6011 31.6147
Au 28.4219 12.6813 16.4368
Au 11.9662 17.2419 35.6245
Pd 28.5538 15.5112 26.8076
Au 19.6309 22.8119 35.1533
Pd 15.9864 36.4552 18.0015
Au 35.0298 19.4272 11.2494
Au 28.7962 7.76896 25.2806
Au 12.364 12.2806 29.6515
Pd 5.10408 22.5223 17.885
Au 25.473 33.2923 18.3099
Au 19.6661 35.1724 15.5982
Au 19.5804 12.71 4.85034
Pd 19.7574 20.9965 15.3703
Au 34.2507 22.3383 17.691
Au 18.2824 14.1103 21.5866
Au 27.177 6.21181 26.8182
Au 19.169 12.1398 36.2689
Au 20.5261 10.4223 24.9157
Au 16.5069 13.0423 26.8968
Au 10.055 8.85836 26.9572
Au 27.9648 13.0347 10.9851
Au 6.3326 18.1402 10.9381
Au 29.0855 16.6461 6.98893
Au 21.4607 5.45476 10.757
Au 7.78209 9.74351 18.6801
Pd 27.1373 22.1224 20.7707
Au 30.513 10.8543 17.2331
Au 25.1377 9.2713 9.05775
Au 28.8961 26.684 17.7736
Au 34.8741 10.7076 22.1386
Au 21.2264 10.1843 5.31816
Au 30.2957 10.4868 7.60851
Au 30.3307 19.7775 10.5477
Au 16.6973 16.5141 38.1129
Au 8.13888 13.6291 7.99708
Au 27.8631 22.3868 36.2527
Pd 9.67084 24.6445 23.8167
Pd 27.4221 25.8846 14.8851
Pd 7.79199 24.1843 10.5903
Pd 12.0473 30.5647 14.526
Au 15.2259 32.0035 17.514
Au 29.5197 26.3926 23.6727
Au 23.9052 4.44368 15.2304
Au 22.9192 18.2728 14.6247
Au 5.45882 9.67149 25.1799
Au 19.3558 13.5621 8.81761
Au 25.5794 27.7761 30.705
Pd 34.691 21.7908 20.3607
Pd 27.455 13.2903 28.537
Au 8.93237 5.68687 20.4096
Au 25.5419 13.9517 12.72
Au 29.074 6.2034 16.8865
Au 29.1281 11.1989 28.6989
Pd 23.7733 15.653 14.4061
Pd 28.1794 23.0496 8.57577
Pd 7.74588 21.6859 17.5682
Au 21.6657 19.654 24.0745
Au 22.8086 31.1418 7.89142
Au 11.9886 15.0947 25.2042
Au 14.1137 37.2238 13.1643
Au 29.4015 31.1469 16.7853
Pd 8.86346 21.6444 20.0951
Au 21.0601 15.909 29.1452
Au 6.44123 29.5205 10.5929
Au 3.93003 12.8853 17.8293
Au 26.5913 22.2215 3.95561
Au 26.3946 24.5948 36.3071
Pd 10.7175 28.4506 13.1205
Au 11.6904 21.4212 15.135
Au 35.0522 24.3557 13.1151
Au 19.5706 20.9817 6.31879
Au 21.0269 25.4298 31.0956
Pd 22.4737 34.5333 27.3989
Au 10.1211 8.15 23.427
Pd 22.5115 32.8894 20.7916
Au 7.86262 6.69563 22.6254
Au 1.48977 16.5572 20.7315
Au 4.81859 25.717 24.334
Au 9.74004 21.8113 10.9633
Au 4.96634 14.6057 19.7739
Au 24.2761 9.05335 5.85357
Au 31.7453 23.4754 30.7696
Au 22.0403 12.1052 18.3771
Au 26.6972 31.1609 16.8973
Au 14.9883 13.1734 30.4716
Au 18.8163 23.4328 14.5924
Au 8.37006 7.06883 14.3915
Pd 7.80506 14.2397 19.7341
Au 11.3793 28.2454 30.002
Au 23.3912 9.85081 13.5433
Au 7.03377 13.6365 30.5966
Au 23.3916 23.9485 9.249
Au 18.7043 6.02837 25.8836
Au 22.215 27.5738 22.4825
Au 17.1631 17.032 17.6758
Au 21.2683 28.027 24.9967
Au 33.0838 15.2522 11.7337
Au 33.1503 23.9817 19.7324
Au 11.5781 28.9022 20.2942
Au 4.92083 24.6896 26.8996
Au 24.35 9.30183 30.909
Pd 13.8963 30.0951 29.7558
Au 10.1 4.8176 18.0559
Pd 23.9756 32.158 27.8417
Au 27.2122 18.2029 29.5869
Au 11.6877 25.5792 17.2544
Au 17.8258 27.565 28.4877
Au 22.7057 18.7775 21.5728
Au 13.9886 11.5545 35.8042
Au 1.15762 20.2094 15.3412
Au 21.6737 22.417 37.2923
Au 19.0891 1.78471 20.4235
Pd 5.90979 18.5075 8.26117
Au 31.6263 11.8991 27.7082
Au 9.02305 26.3775 12.5443
Au 5.13733 11.3665 27.3205
Au 18.4696 9.37758 29.5281
Au 8.60014 19.4755 11.8546
Au 26.9653 17.6278 36.1902
Au 14.7774 18.781 6.9381
Au 19.7456 18.7456 29.137
Au 16.8094 12.3595 4.7935
Pd 25.6858 27.0501 7.90804
Au 2.00168 21.7137 13.3191
Au 20.8823 18.7681 2.21056
Pd 31.6611 20.3694 8.14282
Au 29.1652 13.6417 6.67813
Au 13.2872 22.077 4.20558
Au 24.535 20.0137 5.72057
Au 22.9992 6.58331 24.3424
Au 17.3896 37.3946 20.0803
Au 19.7847 5.16285 16.8658
Pd 8.03105 29.3242 12.8616
Pd 20.5796 13.2486 20.3203
Pd 28.029 29.261 18.3411
Au 11.7248 24.1847 26.2138
Pd 14.4448 25.2989 18.2307
Au 3.80911 16.6326 14.6634
Pd 10.9897 11.2595 31.9746
Au 22.639 27.5647 27.1968
Pd 8.10382 19.2368 16.138
Pd 11.0408 33.1382 14.0865
Au 22.1178 24.3638 18.2388
Au 10.8778 18.9211 27.6367
Au 6.14377 26.7613 16.3418
Au 9.94921 17.9252 22.5275
Au 17.8773 23.3143 22.2616
Au 28.832 17.4269 31.7672
Au 15.3966 33.5058 27.4831
Au 29.5287 19.6931 30.065
Au 17.6753 19.4539 26.5503
Au 29.8259 6.77281 27.5784
Au 25.1711 25.4 13.334
Au 15.5138 10.9105 14.6164
Au 23.4148 11.9473 5.50961
Au 18.7363 10.6491 15.5089
Au 9.38182 26.2679 9.18054
Au 19.8045 32.6294 30.5828
Au 26.7156 8.90803 13.5789
Pd 20.5653 20.128 36.0667
Au 17.0635 1.97603 18.6694
Pd 28.2352 21.5901 18.3212
Au 10.4555 6.23535 12.8941
Au 23.7449 16.5584 30.183
Au 13.6036 8.19058 16.4402
Pd 16.6155 12.7103 8.90573
Au 19.0008 29.0388 11.2719
Au 28.4858 32.0459 28.9455
Pd 20.7267 23.69 27.0676
Au 15.3711 10.1796 33.9472
Au 35.2031 10.6317 19.4249
Au 25.2392 29.8896 15.1034
Au 17.8071 19.0469 15.8352
Pd 18.8579 15.0438 19.1123
Au 37.2865 21.3271 22.6669
Au 23.3892 13.18 11.0726
Au 15.9403 21.7876 21.0046
Pd 19.9746 30.4901 25.2688
Pd 31.7885 14.2289 22.5363
Pd 22.8501 29.9938 16.9556
Au 7.96686 17.5909 33.0192
Pd 30.3129 14.4208 15.188
Pd 21.1625 15.3664 10.317
Au 14.4236 5.42614 12.5961
Au 16.013 20.105 31.6798
Au 24.5539 23.5069 5.14583
Au 31.2952 27.708 11.3977
Pd 25.795 22.4295 9.6029
Au 19.585 4.67022 8.92894
Au 24.8161 9.44194 15.8822
Au 1.49833 17.774 14.2037
Pd 22.5495 21.5959 22.2551
Pd 4.83253 18.8437 23.093
Au 24.1303 35.5514 19.1966
Au 28.8143 19.5865 35.4456
Pd 17.7941 19.934 10.7485
Pd 25.7755 7.99339 28.7053
Au 6.39234 21.7672 31.5783
Au 30.572 11.8478 14.275
Au 12.07 6.63018 18.24
Au 20.3005 12.1446 22.658
Au 24.4702 29.544 28.9546
Au 15.4513 15.0523 15.2457
Au 14.8376 16.5907 22.1147
Au 16.9338 6.17794 20.6312
Au 29.4231 26.5615 33.1791
Au 14.3657 1.55585 22.5436
Pd 21.5794 7.17761 17.6903
Pd 14.0614 12.9398 16.1713
Au 4.75174 28.0501 22.6842
Au 25.5825 17.7758 21.5787
Au 11.6811 15.3801 29.6735
Au 20.2358 11.8343 29.4278
Au 12.8497 14.7063 14.451
Au 21.688 33.2323 32.4947
Au 16.9137 23.5395 35.8131
Au 26.7455 20.1992 23.0707
Pd 29.3478 21.5861 15.7406
Au 19.1032 16.2499 8.14888
Pd 23.2973 18.193 10.457
Au 32.6031 24.4457 16.9632
Pd 14.5937 22.0286 30.3875
Pd 20.4447 9.13124 13.7687
Au 21.0564 9.3671 30.5635
Au 0.760979 22.5932 16.4492
Au 3.67282 19.5428 20.5908
Pd 18.0275 15.2067 10.5006
Au 9.76788 20.8286 8.28044
Au 22.3564 5.5531 8.29419
Au 11.8934 28.53 5.3392
Au 7.78792 32.0335 13.3409
Au 21.1948 25.8051 8.04366
Au 23.7681 27.4484 12.2644
Au 14.4579 32.6308 7.60093
Au 36.4793 17.5408 14.7455
Au 12.991 31.0435 5.92822
Au 8.52259 18.3172 26.0161
Au 23.5878 14.1674 25.371
Au 13.4768 9.04578 7.40743
Au 21.6878 6.15842 14.9735
Pd 11.1898 19.8538 12.8571
Pd 14.3829 26.4998 11.2483
Au 3.77463 19.2529 27.4749
Au 26.9808 8.34197 31.0657
Au 16.6183 32.0375 25.5548
Au 24.2306 12.7022 2.95465
Au 13.5455 17.0141 19.7313
Pd 15.5345 5.71787 23.142
Au 10.0199 13.6616 33.2436
Au 20.3465 5.79688 6.64086
Au 5.89466 25.3068 8.84207
Au 22.7523 11.6534 26.365
Au 19.554 20.9951 25.2185
Au 26.4442 5.48296 15.3484
Au 38.174 19.6587 18.7199
Au 14.4091 13.1089 33.6966
Pd 34.3929 14.9814 22.7861
Au 9.68446 4.71919 15.1126
Pd 18.7295 17.3546 3.50952
Au 31.0533 23.464 14.9033
Au 14.0184 9.36507 4.87216
Au 24.2922 33.6448 31.6557
Au 17.0687 10.3783 27.3867
Pd 7.36105 15.8065 10.1111
Au 30.3235 25.2156 28.9092
Au 20.5062 20.1132 20.1949
Au 26.2169 8.62758 25.7991
Pd 20.6784 31.7819 22.836
Au 13.5358 6.91813 29.8861
Au 29.8492 19.6304 32.9376
Au 20.6974 21.0774 27.7335
Au 16.3096 17.3733 11.0438
Au 23.7717 29.3666 9.87348
Pd 24.7388 12.8111 27.9179
Pd 19.1098 16.6025 30.8108
Au 10.1861 20.5481 30.1385
Au 17.0231 30.6115 34.007
Au 11.674 17.1246 13.2988
Au 7.29089 31.01 19.8887
Au 26.6667 7.13354 9.77599
Au 2.09105 19.3902 12.0238
Pd 9.31497 11.9276 17.8546
Au 12.7266 10.6581 15.3257
Pd 33.5105 19.3199 20.6426
Au 15.9999 19.0233 36.9975
Au 22.7534 16.8286 16.967
Au 16.9212 17.1876 32.7687
Au 27.9193 11.2599 8.61427
Au 36.4326 19.8842 13.5019
Au 14.15 8.13629 24.1644
Au 31.7127 16.6338 13.8037
Pd 28.2626 14.5628 19.4979
Au 23.1999 35.3746 21.9034
Au 8.56654 11.6916 20.6399
Au 31.5449 15.3355 7.27865
Au 32.3812 10.0306 15.1371
Pd 24.4091 35.1245 16.5332
Pd 11.427 21.1984 26.2399
Au 8.46132 18.3761 9.13763
Pd 26.4882 18.7478 14.8416
Au 20.3778 7.03307 28.9282
Au 32.6773 13.6741 13.8459
Pd 14.1251 27.4409 8.67724
Au 14.5544 12.2299 10.6524
Au 23.5314 13.1293 8.29407
Au 13.2325 26.4199 6.20741
Au 17.2656 16.5632 6.12659
Au 24.2491 21.383 24.4188
Au 36.3682 20.313 25.1392
Pd 26.5149 33.4938 27.5895
Au 25.3647 5.21975 24.9658
Au 18.5164 19.1989 31.6711
Au 35.406 24.4707 16.3052
Pd 4.82475 16.2292 24.2769
Au 27.3018 15.4312 5.31383
Au 10.9169 34.4845 16.56
Au 19.365 24.7346 20.3145
Pd 9.53747 24.6263 30.1602
Pd 16.9013 18.0104 8.4904
Au 26.1721 25.7691 5.28233
Au 30.977 14.1497 4.78516
Au 2.58452 14.2063 21.424
Au 18.721 19.2963 0.763528
Pd 21.3113 11.9746 9.78602
Au 9.75867 13.0587 30.1913
Pd 26.8464 31.3764 19.6498
Au 16.6087 31.7653 20.826
Pd 18.8105 19.8088 18.0985
Au 27.7818 20.8802 13.6016
Au 30.2301 19.3645 27.3417
Au 17.0017 3.79861 16.3561
Pd 9.16977 27.1607 24.6638
Au 23.6208 31.4621 33.2043
Au 27.9565 14.9322 32.8584
Au 4.72329 10.9886 22.9571
Au 19.1204 15.6176 33.3892
Pd 20.4921 15.9185 21.1831
Au 14.6728 22.2792 9.17556
Pd 23.3127 29.085 31.6688
Au 24.962 23.7138 2.45613
Au 23.2676 33.1109 23.4596
Pd 23.0751 19.8527 1.04911
Au 24.9207 32.6774 11.6076
Pd 27.2936 30.9387 22.2632
Au 24.0524 22.1188 7.36869
Au 5.42058 23.2478 29.4627
Au 10.7674 27.0326 27.0532
Au 15.0525 15.5987 1.76315
Pd 5.74814 17.8733 16.0118
Au 37.3003 19.8661 16.0637
Au 22.2026 22.4124 34.5078
Au 8.86053 12.8135 23.3225
Pd 27.6312 25.8518 12.1969
Au 18.7125 22.5437 11.8577
Au 19.9343 20.0493 12.5681
Au 30.973 9.23091 27.6714
Au 30.7777 22.4535 9.56479
Au 22.4312 20.9161 15.0748
Au 13.4512 23.9992 2.32151
Au 30.1642 24.6472 7.91846
Au 29.0345 6.11476 19.6712
Au 17.8079 19.858 20.9421
Pd 29.0493 27.6596 13.8355
Au 21.7637 25.3034 25.0907
Pd 27.135 15.1029 23.631
Au 11.5121 31.4216 26.5672
Au 25.6926 16.4775 25.7339
Au 21.1455 22.438 13.2333
Au 20.4918 30.4403 14.1796
Au 11.6264 32.8223 11.1032
Au 23.1093 31.6349 30.4512
Pd 11.6757 22.8837 30.6099
Pd 4.78862 27.7844 9.44013
Au 19.61 23.3287 29.4729
Au 20.3902 33.1643 13.5496
Au 15.437 27.3243 20.0996
Au 4.31117 28.5087 14.9765
Au 32.0342 10.9749 21.9346
Au 26.0558 30.6851 9.84623
Au 16.0563 18.0712 19.9832
Au 25.4373 23.6591 28.1586
Au 3.2903 26.3522 16.3489
Pd 26.6396 21.1656 16.2378
Au 2.78585 23.9268 17.5335
Au 10.2096 20.6042 17.4548
Pd 9.22797 24.9265 27.3223
Au 27.4289 35.0558 22.4082
Pd 30.0133 28.6592 16.1693
Au 34.7071 19.3446 27.2348
Au 32.7705 21.0217 10.8171
Au 16.0305 10.2724 3.41155
Au 32.3486 23.4742 12.5516
Au 13.4715 10.4413 12.6895
Pd 14.155 3.64617 24.2093
Pd 13.2295 20.5527 17.1604
Au 10.6507 30.2715 7.01874
Au 10.9196 19.2031 10.2332
Pd 26.3925 23.3615 32.2507
Au 4.59014 17.7727 29.6402
Pd 16.2475 23.2245 14.1668
Pd 31.0142 20.3035 24.5863
Au 19.3492 12.2045 17.7494
Pd 13.0489 30.7428 24.2034
Au 32.4786 18.443 28.6619
Au 20.7138 21.1163 0.126539
Au 16.9533 20.8035 7.88648
Au 15.9088 10.1928 30.4859
Au 11.1289 12.3832 25.0668
Au 20.8779 23.898 22.6723
Au 9.099 15.5533 5.80026
Pd 28.8629 20.4347 8.24494
Au 18.7511 3.23567 25.5577
Au 22.4895 14.4913 1.90069
Au 6.52704 15.6717 21.7302
Au 32.2915 27.343 16.8976
Au 27.1638 25.4873 29.3068
Au 23.7805 15.8403 11.6632
Au 10.5362 24.5899 11.0256
Pd 15.7645 25.7258 28.717
Au 17.2975 32.5004 7.52864
Au 35.4315 14.003 12.9106
Au 11.3111 30.8286 29.3266
Pd 20.6183 23.0747 32.1971
Au 19.2427 30.4648 20.6067
Au 17.7272 9.8222 18.2719
Au 19.7842 15.485 5.39754
Au 16.7538 17.6587 30.0042
Au 16.565 14.8669 23.5029
Au 10.638 6.96202 16.034
Au 29.9939 6.39893 23.33
Au 14.3515 8.4679 32.0262
Au 17.721 19.6743 23.6038
Pd 17.0421 22.0765 24.7874
Au 35.1437 13.044 18.3341
Au 16.6267 11.8389 16.8984
Au 12.595 23.5738 32.9026
Pd 9.43252 17.4314 17.7357
Pd 27.4412 9.70699 23.4871
Pd 13.0913 8.96997 19.4063
Au 6.28907 32.0355 15.5311
Au 15.0054 7.9249 21.5155
Pd 3.89618 17.4282 12.0326
Au 24.6597 24.9749 30.4524
Au 35.3176 16.8435 11.9426
Au 30.2751 19.7623 18.0284
Pd 19.0855 17.5463 24.6831
Au 17.295 13.0868 14.5158
Au 17.1265 21.5357 33.9458
Au 19.5719 9.49115 22.4747
Au 1.84604 16.2596 16.6888
Au 21.588 2.20614 22.0481
Au 32.8137 14.4457 18.9397
Au 24.363 18.1633 19.0997
Au 23.5782 23.3653 14.1633
Au 29.7791 12.8656 30.9711
Au 7.28882 26.4148 19.342
Au 18.2601 24.0983 33.1655
Au 28.6133 7.00042 14.2866
Au 25.8332 32.1601 29.9341
Au 22.0622 22.0015 5.3393
Pd 25.3327 29.0391 23.5337
Au 12.6351 21.0404 28.6665
Pd 21.4762 17.4988 8.50662
Au 11.7679 10.8883 6.05489
Au 19.0124 14.3089 28.4637
Au 26.6322 25.6124 26.4456
Au 23.6537 25.5766 6.78798
Pd 31.9185 25.6558 21.6821
Au 11.6556 25.6154 34.2857
Au 21.7653 32.66 25.6095
Pd 17.5304 26.1323 18.7718
Au 13.3596 34.3352 9.64145
Au 29.1028 17.3806 18.8822
Au 27.0134 35.1386 19.5902
Au 21.6171 15.0195 18.7041
Au 19.625 15.1746 23.6398
Au 20.8214 28.2283 15.9601
Au 7.21652 10.4872 11.356
Au 3.82406 13.0391 13.0893
Au 33.8035 12.9225 21.0292
Pd 3.31804 21.8224 15.755
Pd 3.76563 17.1058 19.0635
Au 24.7928 30.0855 12.3233
Au 8.46484 22.2042 22.8294
Pd 32.1186 23.7181 27.5281
Au 21.8251 12.7648 36.1969
Au 4.98312 24.2485 15.6188
Au 22.5085 13.9745 16.2361
Au 17.7745 4.34579 27.889
Au 25.5543 14.1133 15.809
Pd 19.1862 20.0783 3.84144
Au 26.3075 32.0322 13.8384
Au 29.2705 12.941 26.3521
Au 23.9717 26.8791 24.6657
Pd 19.7548 21.3507 22.5156
Au 5.2936 25.8928 21.2182
Pd 8.40735 20.1481 32.4171
Pd 19.4709 15.7482 12.7678
Au 13.7403 32.0652 20.4706
Au 14.0306 21.8308 13.7551
Au 33.1461 25.3627 29.3312
Pd 20.4536 9.71639 17.687
Au 13.0119 27.8371 18.2138
Au 16.7329 30.5257 10.9095
Au 30.3413 25.0923 25.9844
Pd 25.9975 27.8446 10.6053
Pd 16.8142 19.7697 2.67259
Au 22.0053 7.027 31.2592
Pd 16.1291 10.3418 12.0155
Au 12.2161 11.9164 18.0924
Pd 21.7784 16.8698 23.4963
Au 30.0984 22.2624 26.1157
Au 33.9721 18.5763 13.6518
Au 20.8908 4.37143 13.1462
Pd 19.5291 30.259 16.915
Au 12.7607 34.9896 12.2248
Pd 26.3817 16.1568 14.1159
Au 9.73162 23.7608 18.6332
Pd 25.3108 22.3071 37.3977
Au 8.4891 15.1445 28.8267
Au 21.4874 11.5702 12.6676
Au 12.328 24.3522 19.7134
Au 21.1562 24.9598 36.5738
Au 34.0366 12.3805 11.3373
Au 6.01538 18.1766 20.701
Au 27.4285 22.6313 29.8396
Au 11.717 16.4927 9.73215
Au 28.2592 33.196 18.1162
Au 22.5808 13.8607 30.2675
Au 3.25806 23.2987 24.9214
Au 14.4295 5.6282 17.1262
Pd 21.0477 27.8036 32.7827
Au 17.6714 11.4689 22.0392
Au 23.1081 22.4983 0.911339
Pd 11.1051 7.62289 29.0777
Pd 21.5948 15.9248 31.8994