1687
Atoms. Timestep: 21471
Au 31.1078 31.9018 23.3449
Au 20.9936 31.1498 12.1359
Au 28.9648 23.4449 31.7045
Au 22.4184 8.80692 16.1893
Au 13.8112 11.8374 22.8727
Au 15.8228 33.0921 16.2786
Au 20.1028 13.3139 3.92774
Pd 26.3985 9.20546 19.6922
Au 15.5564 15.5128 12.6575
Au 10.5748 18.7392 31.3731
Pd 13.7158 6.30036 26.5531
Au 20.9251 27.2692 20.7145
Au 17.3466 13.4858 12.967
Pd 4.05923 15.8088 13.137
Au 15.3293 12.7106 11.2412
Au 15.9001 29.1752 26.2838
Au 8.89831 21.8729 26.9662
Pd 22.1356 2.39569 20.1052
Pd 16.7126 5.4639 17.8298
Pd 18.0775 16.6178 12.4844
Pd 18.0613 21.6562 27.3014
Pd 17.6328 23.4088 17.2987
Au 23.5518 24.1824 8.97633
Pd 18.6811 26.8044 22.2261
Au 16.2202 12.1077 8.68589
Au 28.9971 12.1569 22.5323
Au 8.11897 27.681 7.55322
Au 16.6166 6.85594 12.4994
Au 14.1832 30.2497 11.2142
Au 33.5942 12.2319 20.528
Au 5.03888 7.00734 23.1505
Pd 15.8302 18.0582 13.6047
Au 28.1202 20.284 7.002
Au 18.2655 7.21658 19.6095
Au 14.1502 29.0818 32.6513
Au 10.2281 14.9851 5.72725
Au 6.49042 22.8986 25.8561
Au 37.3069 17.3434 17.8269
Au 25.8492 12.6616 26.2193
Au 25.6226 9.43489 31.7798
Au 8.48664 11.5868 27.3775
Au 5.33338 15.0275 21.4868
Au 31.0402 18.8635 14.4202
Au 18.1484 22.3879 14.3395
Au 21.0859 15.3619 8.95356
Au 21.4355 11.9381 24.0677
Au 30.217 14.5756 23.0055
Au 29.7793 17.0648 24.1172
Au 22.8538 27.9 31.1531
Au 12.4835 8.83637 16.4245
Au 20.726 6.77021 31.5184
Au 10.5093 4.09427 21.8048
Pd 20.5806 16.7819 32.2814
Au 21.9508 14.1557 11.6682
Au 19.9875 22.5692 25.2248
Au 11.3575 26.684 23.6656
Au 8.72208 20.7819 31.5942
Au 16.2248 6.93534 9.83347
Au 4.21014 26.7118 21.1788
Au 9.15073 6.25623 13.3498
Au 21.6744 25.7853 2.73627
Au 11.102 4.25492 24.5447
Au 13.935 20.2578 12.7814
Au 5.9239 17.2797 23.2695
Au 22.6939 14.2723 3.41269
Au 28.2425 15.839 8.91431
Pd 30.1773 27.377 19.7794
Au 32.7423 26.723 13.5005
Pd 16.6607 10.8492 12.5758
Au 26.5696 34.1615 14.9131
Pd 26.6575 28.1661 10.0098
Au 8.28215 13.7513 29.1852
Pd 7.29298 30.2257 22.8788
Au 27.892 28.6411 12.4264
Au 8.71712 12.6879 31.7742
Au 25.948 21.2057 28.444
Au 20.8607 16.035 35.9685
Au 16.4007 20.1861 11.7561
Au 6.79303 9.50517 27.6908
Au 19.6483 3.02266 27.6772
Au 23.5511 11.3976 16.5723
Au 25.7049 21.3402 21.141
Au 19.7709 24.0843 4.23087
Au 7.46938 34.1947 20.206
Au 24.1421 30.3219 32.2329
Au 31.9549 18.1375 17.6139
Au 13.8507 6.51527 12.0954
Au 17.3262 8.29135 7.47027
Au 18.3859 17.25 22.366
Pd 13.167 26.6685 7.38606
Au 13.1772 34.7468 24.853
Au 14.2474 15.8709 18.7348
Au 26.3169 10.4718 17.0874
Au 13.3346 20.0506 33.0093
Au 27.8038 16.1229 33.5651
Au 22.9209 27.9909 6.55662
Au 7.2527 18.7739 6.89171
Au 11.2455 6.08317 11.5087
Pd 15.4977 22.1987 26.4201
Au 13.4261 5.53827 15.2744
Au 22.8864 24.3283 13.6212
Au 14.5467 10.3175 25.099
Au 22.939 32.2753 24.2437
Pd 14.5861 7.25832 17.2275
Au 12.2546 16.229 24.1222
Au 32.6268 21.3906 22.6215
Au 35.4403 15.7865 15.4663
Au 31.0998 25.1089 10.6368
Au 18.5022 14.257 18.5135
Au 19.507 11.5243 30.8314
Au 15.9631 32.4613 28.9852
Pd 20.4004 5.52473 24.3422
Au 34.7229 26.5268 20.4021
Au 11.5237 29.5452 23.6744
Pd 24.8891 13.454 20.2888
Au 12.5728 8.97841 23.6114
Pd 23.5595 18.5622 8.23076
Au 18.1014 26.1295 17.3835
Pd 2.45643 21.0803 18.0558
Au 3.97236 27.9316 18.7506
Au 24.6913 8.40518 17.6382
Au 23.0597 23.774 3.76824
Pd 32.9366 15.304 14.2843
Au 33.7948 25.6776 29.4476
Au 29.279 19.6406 25.3132
Au 32.7148 24.0012 6.64112
Au 21.0943 28.2108 8.61072
Au 16.1206 20.0463 32.1688
Au 33.0878 23.7151 24.5916
Au 18.7676 7.62101 33.2391
Au 29.246 28.7851 14.9118
Au 24.4144 30.6216 22.5447
Au 28.7894 21.204 15.8354
Au 26.1858 17.4333 3.90258
Au 20.2618 34.4573 27.82
Au 23.3762 16.9457 31.842
Au 36.3441 14.7828 17.7102
Au 23.6224 34.2329 10.2443
Au 24.2385 27.029 16.0633
Au 16.6036 23.1171 21.9135
Pd 25.4381 27.1862 18.5449
Au 27.3412 9.5738 7.87083
Au 5.45682 29.1778 21.0684
Pd 28.3608 14.7695 12.8512
Pd 24.8884 11.8579 7.01294
Au 28.2683 30.9209 29.6251
Au 20.7007 16.581 11.7372
Pd 21.8729 23.5412 27.2533
Au 22.7994 6.85987 24.8342
Pd 16.6021 17.2635 8.25846
Au 34.846 13.1637 15.9132
Pd 23.4659 26.9051 9.07223
Au 25.902 16.154 17.078
Au 17.1405 25.306 19.8412
Au 32.2465 17.038 28.565
Pd 7.14998 23.428 8.64395
Pd 8.44915 22.3841 29.4915
Au 23.7074 6.60798 11.4242
Au 5.51509 11.0542 13.5604
Au 10.4078 26.9509 5.99077
Au 15.3267 24.8786 26.9945
Au 30.0402 32.1369 17.9437
Au 2.86657 24.4289 14.7776
Pd 24.9564 12.3567 14.5108
Pd 13.8607 21.1427 7.81485
Pd 9.15179 14.5249 13.8784
Au 29.126 22.9444 34.6078
Au 23.1964 4.96874 20.662
Au 13.9678 23.8265 6.68657
Au 16.8374 29.5761 9.23452
Au 28.2873 7.71336 11.2638
Au 11.5003 32.4164 14.7688
Au 5.77624 25.5331 26.1543
Au 6.35846 21.957 15.6678
Pd 20.8124 16.6828 21.3936
Au 20.0644 8.84392 14.5513
Au 15.1961 22.9536 28.9799
Pd 9.54213 16.9468 7.39038
Au 16.4303 14.9426 10.1358
Au 31.8374 12.3394 22.5
Au 7.49945 10.909 30.0306
Au 23.8609 9.29255 11.7039
Au 7.08605 19.6535 22.0442
Au 5.01856 15.023 24.5519
Pd 9.12833 6.0531 23.8922
Au 27.1601 11.8953 19.9666
Au 24.0483 13.5546 28.4997
Au 16.0361 35.6106 25.5443
Au 28.642 4.18396 16.5839
Au 33.1712 6.67845 17.1239
Au 31.9272 23.0682 17.4726
Au 24.5548 21.5273 34.1315
Au 26.2244 15.4568 10.828
Pd 12.2059 21.1574 23.3506
Au 31.7202 27.8348 15.8529
Au 26.9085 9.20458 29.3063
Au 21.8842 24.7559 20.5087
Au 10.9183 14.9591 28.104
Au 16.9291 10.9356 29.5803
Au 18.4328 34.1235 11.4064
Au 27.1235 20.2731 17.781
Au 17.3974 18.0138 27.8361
Au 10.7413 19.3788 24.9099
Au 26.9513 30.578 14.4067
Au 20.6275 35.464 12.2439
Au 19.3439 30.076 33.4619
Au 25.4953 30.0933 29.7517
Au 32.7258 21.613 30.8729
Au 25.8243 29.275 20.5893
Pd 12.2886 28.5731 12.6462
Pd 18.8783 18.6906 7.95189
Au 23.6414 4.02251 25.7736
Au 8.05736 11.9477 17.3978
Au 9.20557 34.2894 15.8107
Au 7.52223 11.6898 7.43296
Pd 33.7017 20.3694 28.2201
Au 7.74007 22.1476 17.9649
Au 32.6208 28.6102 24.1447
Au 22.4262 20.2907 35.4353
Pd 27.9582 13.9722 27.535
Au 26.5401 5.47184 15.7479
Pd 28.9487 27.4707 27.9724
Au 8.13112 14.3639 7.52488
Pd 22.8347 16.2008 26.9513
Au 13.7932 12.9087 18.5685
Pd 12.7692 11.8707 12.0703
Au 19.2048 19.7975 29.1984
Au 13.7136 8.16945 9.47391
Pd 19.0808 23.9182 31.0916
Au 21.8386 1.83224 22.9357
Au 30.03 12.0296 19.9919
Au 5.96383 10.7136 19.039
Au 8.30786 16.4795 27.8274
Au 9.17748 29.4343 28.0808
Au 5.41268 8.78648 15.7846
Au 20.6646 33.7362 25.1372
Au 13.1325 30.4777 21.6845
Au 11.5877 12.6729 20.3164
Au 25.1909 7.20961 29.8217
Au 8.38515 22.6642 22.3084
Pd 30.3771 25.6162 14.9763
Au 24.4187 16.2386 29.4223
Au 23.2702 30.6549 20.1004
Au 12.6677 30.2336 30.6667
Au 21.4109 31.4502 32.2023
Au 17.7946 12.9705 5.5936
Au 26.7914 20.9412 14.1334
Au 26.8873 23.7165 27.3777
Au 19.0447 30.1372 7.62121
Au 34.7484 16.8074 21.3048
Au 15.776 27.6928 18.5718
Pd 24.2022 24.2622 16.3731
Pd 21.8973 29.3312 22.2533
Au 26.0048 15.9422 6.06903
Pd 15.5767 16.514 36.0429
Au 25.0933 34.7432 30.1931
Au 4.44709 29.1223 16.1982
Au 31.0227 17.0731 31.4673
Pd 13.4337 27.6287 30.4039
Au 4.83674 15.7124 31.678
Au 27.7003 23.7162 14.5175
Au 19.1703 13.9897 36.9095
Au 12.8174 15.7341 34.4461
Pd 24.9693 21.8429 4.2439
Au 22.0545 11.7694 29.6746
Pd 14.3871 10.6165 13.806
Au 27.7873 26.6077 7.83977
Au 13.3667 5.50218 9.6202
Au 17.836 21.4647 36.2575
Au 21.498 15.0394 5.82663
Pd 27.4492 17.8103 21.2537
Pd 13.872 33.2131 10.5874
Au 8.13856 20.1378 4.79061
Pd 10.9269 28.2784 21.2729
Au 25.7542 13.195 17.6541
Pd 13.1363 19.7346 21.3407
Pd 26.4598 16.7515 13.348
Pd 20.7154 19.4042 21.38
Au 11.0076 13.8897 30.58
Pd 12.806 23.6503 30.0363
Au 30.1506 15.3724 28.7233
Pd 20.5932 5.68189 20.0601
Au 15.6293 21.5145 2.72224
Au 15.2303 6.27911 19.8236
Au 11.7893 12.7203 9.67774
Au 11.7272 13.5382 22.9346
Pd 25.8086 21.5873 6.86081
Au 7.3724 16.8948 8.9699
Au 34.5393 29.2515 20.0442
Au 10.3527 27.8633 25.937
Au 20.3576 20.7121 14.929
Au 22.0182 28.1778 4.04409
Pd 12.6007 17.1291 16.989
Au 28.5472 14.3401 20.4801
Au 24.6234 6.75454 8.81102
Au 36.8583 18.6091 20.3782
Au 8.61312 17.9852 23.7199
Pd 30.1223 14.8982 25.9452
Pd 23.6203 21.3543 8.73749
Pd 11.4543 13.9148 25.6079
Pd 15.1119 21.092 23.462
Pd 15.3952 9.65642 22.458
Au 16.6266 29.0319 11.8329
Au 18.6036 24.3042 23.5331
Au 5.25408 8.95101 21.0757
Au 27.6233 18.6319 34.6536
Au 13.4525 2.75758 14.5705
Au 8.00684 30.7883 13.2202
Au 22.6134 23.2032 18.2743
Au 7.80529 8.67807 20.2105
Pd 24.4727 25.7433 6.77203
Au 22.8434 34.6978 28.7762
Au 33.9327 24.9543 18.2795
Au 11.7835 15.2124 8.09896
Au 22.5682 33.7232 12.6524
Au 24.1672 2.6359 21.8218
Au 27.2744 20.8825 23.3339
Au 22.74 9.55651 22.8502
Pd 22.3657 25.5046 11.1416
Au 21.5486 32.1104 21.7922
Au 30.5623 12.3784 24.9411
Au 11.5816 10.8014 18.4196
Au 17.6375 13.7849 2.57723
Au 29.2145 32.6163 27.5527
Au 3.05324 13.779 22.069
Au 27.8632 26.5082 14.3409
Au 8.57247 22.2295 6.53202
Au 32.2765 21.408 25.7294
Au 16.2392 24.0563 31.5291
Au 32.0755 16.9103 25.7147
Au 6.31531 11.6862 9.95706
Pd 28.6464 18.5796 9.04094
Au 13.6113 31.0922 6.75393
Au 17.6376 31.4009 23.7095
Pd 15.1353 31.6428 8.82787
Pd 15.599 37.2122 18.6641
Au 6.84149 5.82512 25.207
Au 7.01532 7.86976 13.7757
Au 24.874 20.0399 24.9949
Au 17.0305 10.1088 34.8232
Au 5.61951 7.90264 18.4328
Au 32.4605 11.1258 12.2993
Au 3.58366 18.0579 24.9365
Au 13.7513 14.2331 21.0756
Pd 22.0869 4.35037 18.2174
Au 14.1129 32.8066 13.2252
Au 14.9502 6.64454 7.52573
Au 17.1077 19.42 3.70926
Au 7.69535 12.5803 12.2257
Au 22.2242 37.0687 21.6295
Au 10.5979 23.1439 34.7174
Au 34.8679 22.1105 26.5404
Au 27.148 33.8613 26.0138
Au 23.6799 23.225 6.39671
Au 37.0687 20.1646 22.6284
Au 10.4788 22.0326 18.2467
Au 16.6629 14.6679 37.6609
Au 25.1812 35.0676 27.4715
Au 9.83101 22.7852 9.07256
Pd 25.8228 7.77097 12.9028
Au 16.9133 10.8659 26.8336
Pd 19.7767 14.2973 13.8644
Au 7.48925 23.6944 13.875
Au 18.4732 1.19224 16.5218
Pd 24.5204 6.33339 22.6812
Au 16.2381 32.0113 11.3542
Au 12.7843 11.7046 30.4246
Au 15.7774 1.10209 16.7885
Pd 21.6872 16.5012 29.7182
Au 29.6435 18.1153 29.4486
Au 23.9457 23.2728 28.9568
Au 11.495 18.117 33.9283
Pd 17.524 23.9809 28.8002
Au 24.6698 36.0178 21.8867
Au 12.2824 9.40382 32.0931
Au 4.63944 19.7231 11.6457
Pd 17.5139 2.28767 21.1808
Pd 25.3701 6.14047 25.3579
Au 36.6785 16.4026 25.4749
Au 31.0979 5.17308 16.7482
Pd 23.632 17.438 20.4952
Au 14.1333 14.331 24.0311
Pd 30.3911 22.3398 11.0083
Au 13.6647 16.8661 21.5916
Pd 21.896 10.4706 7.34517
Pd 18.7518 21.3484 8.75566
Pd 10.1955 9.80332 26.459
Au 13.5256 23.3863 16.9979
Au 24.2707 19.2669 3.67489
Au 30.7202 24.9828 32.924
Au 16.5654 33.8559 9.41759
Au 13.0649 25.6937 25.6001
Au 9.38393 5.29298 26.4748
Pd 18.4376 8.50654 4.85081
Au 24.4443 29.8203 15.7001
Pd 25.8546 25.5939 9.38527
Au 15.5864 4.44147 10.8596
Au 22.5236 23.1118 35.3041
Au 18.4735 15.4363 4.53621
Au 8.31455 29.7468 25.5237
Au 32.8106 15.4818 11.6675
Pd 14.9578 17.1756 25.4305
Au 20.6895 22.7855 13.1114
Pd 12.6848 27.596 15.2016
Pd 16.7281 34.9348 18.1347
Au 22.7768 35.0706 26.0566
Au 13.878 18.3575 35.1511
Au 22.7957 11.6918 21.0285
Au 30.4817 16.4751 13.158
Au 4.26469 12.4048 24.0687
Au 22.7621 13.1933 7.89031
Au 17.9849 22.0651 19.6099
Au 16.3222 14.7366 7.29277
Au 25.9853 19.894 9.08088
Au 16.2014 25.9887 22.3748
Au 20.2005 8.70063 23.5379
Au 23.39 7.84948 31.7695
Au 18.5709 12.922 25.9186
Au 32.639 8.56476 12.9858
Au 6.1024 13.2811 30.818
Pd 14.8886 2.18308 12.2811
Pd 16.2458 6.24224 15.2634
Au 23.6823 15.1638 35.6919
Au 11.2258 25.7952 30.7238
Au 14.1633 29.0991 8.5184
Au 28.4378 9.07435 13.6754
Pd 17.1585 26.8069 27.6766
Au 21.2421 32.9401 29.9667
Pd 23.4182 19.3636 32.8669
Au 19.8313 7.50455 28.9449
Au 32.1234 27.6613 10.899
Au 7.68088 9.19561 17.4746
Au 30.6912 20.455 8.84863
Au 16.8654 36.3993 20.9098
Au 19.8515 6.4473 5.83404
Au 28.1325 17.595 6.38772
Au 16.953 22.9355 10.1489
Au 3.56855 20.6501 9.04736
Au 16.3742 2.47185 24.1297
Au 8.85862 30.4026 18.2269
Au 15.647 18.6795 22.3012
Pd 3.70641 20.831 24.9308
Pd 9.02641 19.5522 17.8009
Au 16.3627 17.8575 33.8268
Au 15.7642 35.4683 14.5628
Au 22.186 12.8367 14.19
Pd 9.09272 26.4593 20.0932
Pd 22.8355 24.4445 24.7822
Pd 24.1359 19.1441 30.1704
Pd 5.26119 24.4027 16.2864
Au 32.0113 10.1074 9.74673
Pd 19.2028 25.2665 1.86378
Au 32.1251 25.5738 20.3443
Au 30.608 12.8126 27.7534
Pd 20.6143 14.7202 25.6745
Au 34.4749 24.8317 26.9196
Au 29.9368 16.7412 21.2434
Au 15.008 14.2066 1.96906
Au 12.5651 17.8717 2.46466
Pd 7.57262 10.1626 25.038
Au 35.443 23.9493 16.2363
Au 24.9719 16.072 22.3291
Au 27.3333 30.3302 22.7543
Au 5.87884 12.2179 28.2977
Au 25.3487 29.8967 11.566
Au 6.92464 12.9951 20.1657
Au 22.0757 16.6118 16.6741
Au 36.8923 15.9101 20.0843
Pd 25.2456 10.8107 21.8472
Au 27.4665 32.7916 12.7732
Au 20.2178 13.0038 6.8664
Pd 17.4107 15.4358 14.8574
Au 33.1678 13.069 10.6408
Pd 19.2346 6.65321 22.1137
Pd 14.6597 9.64254 30.746
Pd 10.8403 6.04692 19.6012
Au 3.48945 15.9213 26.696
Pd 16.3512 16.831 20.3905
Pd 7.30102 19.0605 11.0471
Au 24.7444 22.8384 26.1453
Au 30.3586 29.8521 21.5459
Au 6.6183 12.7457 25.6213
Au 5.85819 15.5888 15.5565
Au 6.891 24.6219 20.7922
Au 33.1382 22.8105 10.9471
Au 29.1833 10.736 28.9895
Au 5.54714 30.5805 14.1579
Pd 9.03789 31.5707 15.7565
Pd 22.3696 15.0599 33.4403
Au 15.4218 9.66192 16.1818
Au 20.9332 23.2096 2.03339
Au 33.4115 31.1684 24.5775
Pd 5.84956 27.0175 16.9345
Au 9.9521 23.3037 31.75
Au 27.3704 7.03364 8.65411
Au 9.21804 32.004 26.8913
Au 25.1142 21.304 11.6444
Au 2.46342 14.5075 24.6018
Au 23.647 12.7651 34.1585
Au 13.8887 3.45096 25.5593
Au 31.5358 26.3805 28.2862
Au 4.12649 17.5593 15.6359
Au 21.9884 18.7591 28.3966
Pd 18.4029 13.8012 8.6591
Au 12.6549 23.239 9.1199
Pd 14.3956 25.6471 20.2352
Pd 33.0116 9.39426 17.2781
Au 8.92082 12.5829 9.7101
Au 17.2281 8.77704 14.3515
Au 19.728 24.1853 15.542
Au 17.9664 19.4964 20.9397
Au 34.9293 28.352 22.6072
Au 10.5867 19.0125 3.84181
Au 26.5351 26.1289 28.9576
Au 6.49018 17.3787 33.2346
Au 11.8932 11.3157 24.9117
Au 9.69443 29.9692 8.79303
Au 9.16146 11.022 19.782
Au 16.5191 31.8387 26.362
Pd 11.7542 33.0801 26.6224
Au 8.32899 32.8988 22.3845
Au 18.3625 25.4864 33.1073
Au 21.0802 16.6158 3.70458
Au 26.5831 23.0834 32.9814
Au 27.5645 28.6312 24.9982
Au 18.9494 12.2758 34.816
Au 9.15899 8.93591 28.8697
Pd 24.7737 21.586 18.5072
Au 10.686 16.936 13.2584
Au 22.3402 27.1134 26.3724
Au 17.9847 8.29198 26.9391
Au 12.7668 7.83674 19.1968
Au 34.954 21.2457 20.9888
Au 21.464 13.4399 35.588
Au 12.6689 13.8011 5.84689
Au 32.1218 30.3171 19.3727
Au 20.2176 23.6738 10.4027
Au 10.1498 16.6847 25.8916
Au 12.0495 28.7096 28.199
Pd 32.2996 15.1209 9.00659
Au 11.3676 22.3464 15.8051
Au 22.2178 26.1827 33.0906
Au 22.2825 8.15863 9.40797
Au 17.4169 14.793 35.034
Pd 20.0978 3.61421 12.0022
Au 15.9522 16.1015 23.0881
Au 26.6489 31.4449 27.3972
Pd 16.8489 10.4618 5.7324
Au 23.088 29.7785 13.3336
Au 20.6153 20.0677 23.9678
Pd 15.2158 4.53236 13.5167
Au 33.4784 22.3608 15.2026
Au 18.9396 17.2848 34.4404
Au 31.4656 28.6874 26.8041
Au 28.0495 20.3555 20.4298
Au 36.1547 14.7615 23.4048
Au 22.2811 3.33305 28.0235
Au 22.0854 32.3891 27.3106
Au 11.5867 25.7043 21.0171
Pd 14.4357 16.6191 1.09715
Au 24.6704 12.0521 4.04734
Au 15.0259 12.4565 6.24181
Pd 4.6528 25.085 18.9659
Pd 31.3331 21.6021 28.4319
Au 16.6839 11.6387 18.0652
Pd 24.0771 14.1255 5.72235
Au 27.8234 6.01352 13.4116
Pd 28.4424 18.6825 13.8235
Pd 17.9891 3.9262 15.9531
Pd 6.28766 20.7332 30.1363
Pd 10.4578 27.3129 8.63057
Au 5.84246 27.8911 14.2094
Au 34.4082 23.8958 8.85854
Au 15.3262 23.2684 19.3329
Pd 28.4531 12.0683 17.5544
Au 15.2273 3.76167 16.3878
Au 15.485 0.934808 19.4425
Pd 16.0371 12.6325 33.9211
Au 7.94306 15.8575 21.9159
Pd 31.4855 23.1861 8.75916
Au 9.78231 8.87084 23.8459
Au 9.25435 12.2315 24.4796
Au 15.7562 30.7537 13.9408
Au 5.02996 22.4212 18.1736
Au 31.1191 13.5736 12.9349
Au 11.3767 32.8371 21.8899
Au 9.68176 9.76426 31.4215
Au 14.5374 11.1325 35.4773
Au 32.8674 20.0921 10.4827
Pd 30.4518 16.5398 7.62596
Au 10.9759 27.9213 18.4748
Pd 12.4411 19.8985 5.77753
Au 32.25 12.3849 8.30413
Au 21.2631 20.1452 7.60039
Au 17.4714 21.7667 30.4935
Pd 20.3921 32.764 16.3094
Au 20.2312 32.622 7.818
Au 16.1992 28.4448 30.0437
Au 3.32265 27.0421 13.9754
Pd 6.06122 17.8001 13.489
Au 17.0463 36.9535 16.3469
Au 11.081 7.49242 30.6229
Au 27.2422 18.2289 23.973
Au 35.3053 8.06204 17.7091
Au 28.2883 28.0827 21.6979
Au 26.3381 10.4648 12.4442
Au 15.0982 7.6618 24.4206
Au 25.6253 18.9806 19.6112
Au 24.4394 30.6742 6.65545
Au 29.3272 21.4211 13.2363
Au 20.3451 30.4565 14.7077
Au 8.30088 6.47194 18.4355
Pd 24.3184 25.4314 30.8189
Au 27.824 25.5585 19.0186
Au 11.6484 25.0427 15.4995
Au 15.8192 22.7393 12.7336
Au 16.4353 3.11919 26.8572
Au 22.9874 2.10003 17.1016
Au 18.1764 5.74397 8.03811
Au 8.18756 28.9319 20.5118
Au 24.9602 14.5076 32.2866
Au 21.1336 25.5025 8.24843
Au 12.4434 17.9401 26.5159
Pd 20.601 23.8833 33.2492
Pd 22.5321 32.1478 14.7978
Pd 18.4483 14.9281 21.1114
Pd 9.34815 23.8092 19.9444
Au 11.3119 6.97802 25.2705
Au 35.0135 29.2101 25.2602
Au 32.461 28.152 21.235
Au 35.7803 23.8942 11.2556
Au 12.9325 2.9852 22.9886
Au 31.1238 17.4622 10.0646
Au 22.0609 15.5498 14.2052
Pd 26.396 14.301 29.9127
Pd 30.1212 27.0391 12.7035
Au 13.3051 24.2652 34.8537
Au 16.1868 20.4834 14.64
Au 30.05 4.74598 14.3317
Au 7.06799 32.9231 14.6505
Pd 30.6979 22.9733 14.9956
Pd 30.0636 18.8535 19.4888
Pd 23.5754 22.764 20.8399
Au 27.1371 27.8486 33.5627
Au 3.19615 21.9224 22.5222
Au 29.5041 9.8219 24.4685
Au 25.2005 35.0602 17.1847
Au 24.7855 22.6123 23.4685
Pd 27.2331 25.7447 31.5941
Au 20.0103 8.55013 7.38958
Au 9.04743 28.2495 23.3146
Au 18.9355 5.63536 27.1592
Au 16.8527 33.7968 22.1132
Au 28.8525 9.5017 16.385
Pd 7.13043 12.9903 14.9698
Au 10.1834 24.1473 5.12181
Au 17.9632 13.1931 32.2652
Au 6.15987 6.47077 20.6193
Au 20.3855 3.84107 21.9327
Pd 23.1762 28.6758 18.2593
Au 8.54335 9.94688 9.26015
Pd 11.4672 30.4035 19.4154
Au 15.2769 15.1971 33.4806
Au 11.4171 22.2114 6.81626
Au 6.39995 13.5306 5.66617
Au 11.1099 24.859 7.56398
Au 12.6025 12.9608 34.6457
Au 14.3472 25.4224 14.9051
Au 27.6445 22.616 4.98145
Au 10.6337 12.9553 16.7944
Au 20.989 32.4726 19.095
Au 5.9263 21.2395 7.47108
Au 26.9683 34.6096 22.2281
Au 21.8178 2.30962 14.2609
Pd 14.0685 13.7399 8.59
Au 25.3378 25.2901 24.387
Au 10.024 32.2034 10.5123
Au 9.16128 13.1611 21.7732
Au 28.5734 29.3158 8.46764
Au 18.3737 24.056 35.4598
Au 30.9983 10.3241 26.7536
Au 37.1587 22.5846 17.7757
Au 25.5626 28.0677 23.1424
Au 30.1491 29.4268 10.9102
Au 26.5633 14.3869 14.9807
Au 20.9931 25.6196 22.9722
Au 19.6498 27.576 26.8923
Au 15.3569 30.8961 31.0421
Pd 10.1725 8.47972 18.3393
Au 29.0454 9.58836 19.1354
Pd 34.8637 21.4312 23.9614
Au 21.4441 19.2284 4.62054
Au 28.8413 22.8505 29.0375
Au 28.9847 25.3362 21.3763
Au 9.34848 35.1376 18.5078
Au 10.537 14.3799 33.2795
Au 9.53439 9.01519 13.3877
Au 22.7337 14.1896 30.8389
Au 22.2592 12.0575 5.15402
Pd 26.2799 13.1313 12.2184
Au 24.8067 9.69575 14.6849
Au 7.82451 18.1972 31.1295
Au 8.82967 12.4585 5.1669
Au 2.38392 19.5612 15.7282
Au 12.9668 18.2273 14.5433
Au 15.9206 25.0426 34.2644
Au 4.56376 26.244 23.8094
Au 5.582 16.8927 11.072
Au 17.4663 2.64035 11.8466
Pd 28.2644 21.4538 9.54105
Au 12.9596 4.86533 20.9194
Au 18.5879 32.8221 29.4498
Pd 26.1911 26.4746 21.0297
Au 33.2909 10.7742 14.8952
Au 9.72883 35.023 21.4723
Au 34.3412 23.6934 22.1906
Au 16.0553 8.88557 19.8384
Au 28.3849 11.4288 26.5014
Au 21.1513 3.07208 25.3436
Pd 33.3353 17.5699 15.4379
Pd 14.5314 29.9796 28.6333
Pd 32.0891 21.1931 13.0395
Au 20.4936 3.02282 16.529
Pd 14.7175 30.4101 24.0147
Au 23.3454 31.6039 10.9826
Pd 5.81812 17.306 26.3697
Au 8.21545 20.5431 8.78086
Pd 12.5659 25.9368 12.8895
Pd 26.4546 13.1604 22.4243
Au 8.42157 25.1169 6.9396
Au 11.2276 4.57684 13.9288
Au 14.2258 36.6826 16.4113
Au 14.0815 17.5105 32.4606
Au 25.9005 22.7812 9.42153
Au 13.0674 23.1342 13.7727
Au 27.8674 30.853 10.8211
Au 29.2021 7.67515 22.8475
Au 23.4857 25.665 35.361
Au 19.8626 26.475 10.6008
Au 32.71 25.9342 8.61947
Au 34.9077 17.0159 13.1444
Au 19.6717 19.9877 18.9269
Au 10.7102 13.9564 11.8429
Au 35.987 21.3037 15.6067
Au 23.8901 30.1079 27.3385
Au 25.7034 24.4341 4.64277
Pd 24.5085 20.7067 15.8787
Au 17.7495 22.5734 33.3487
Pd 34.4624 16.8023 26.9453
Au 4.88978 19.8183 17.1411
Au 26.0854 4.46697 21.1674
Au 11.7963 13.136 14.2765
Pd 29.0023 26.9257 16.9281
Au 24.2402 6.94865 15.1292
Au 14.7995 21.1837 5.25983
Pd 16.0105 31.0422 21.6789
Au 13.4817 28.9192 17.3698
Au 35.1975 19.2877 11.6554
Au 20.3823 31.0274 24.0476
Au 13.273 11.5917 16.1502
Pd 22.2286 22.5992 15.6151
Au 22.6385 13.0498 18.5777
Au 17.9635 24.2555 26.2656
Au 5.48512 13.677 8.16428
Pd 17.4777 30.2504 19.3905
Pd 13.675 25.1819 32.1396
Pd 21.8689 25.6732 15.9259
Au 27.0188 21.2505 35.1933
Pd 26.585 28.7405 27.6622
Pd 19.053 21.7049 22.2769
Au 16.1153 13.1663 28.0511
Au 28.4033 31.6919 24.9791
Au 14.0028 34.4772 17.954
Au 19.0092 16.9034 29.7546
Pd 24.6717 27.0505 11.5055
Au 12.7095 9.00214 26.5896
Au 34.9714 21.9154 12.8688
Au 13.4845 15.7992 3.89443
Pd 14.3568 7.97473 14.3251
Pd 17.306 22.251 4.87961
Au 24.1293 33.363 21.5696
Au 24.3423 5.43403 27.9103
Pd 30.0256 20.8841 30.6525
Pd 33.0402 24.1572 31.6737
Au 28.7594 12.0301 12.5237
Au 30.5452 7.67789 20.4878
Au 4.62015 16.053 18.0599
Au 21.1883 11.958 26.9476
Au 6.18444 25.8614 28.9668
Au 26.4662 10.4309 5.47111
Au 22.4589 18.8765 15.0753
Au 4.8286 16.3173 8.31334
Au 15.0632 35.6935 23.0513
Au 14.9783 8.97928 11.7265
Pd 10.4589 8.66065 20.9879
Pd 21.1288 5.91507 10.908
Au 21.3768 22.1779 5.34355
Au 18.3264 15.2965 27.3989
Au 25.2516 6.6941 19.9127
Au 14.7134 30.336 19.3445
Au 13.3076 28.0792 20.0727
Au 23.8819 34.7534 14.8229
Au 18.1562 30.6144 30.9938
Au 18.612 31.8158 9.92985
Pd 25.1192 24.4358 19.1774
Au 33.126 15.1056 17.0946
Pd 28.1074 30.4886 16.939
Au 7.46515 25.9722 11.9701
Pd 18.5309 10.9917 7.87153
Pd 10.0587 10.2888 16.2504
Au 5.11327 18.3641 31.1167
Au 10.7175 15.4516 21.0812
Au 16.1425 19.6351 25.8256
Pd 16.4861 17.043 5.65309
Au 13.8406 7.49181 21.7436
Au 14.1714 10.1139 18.4321
Au 16.4987 11.8348 15.1104
Au 9.75555 31.6708 24.2888
Au 19.9812 17.2766 14.3233
Au 10.9549 31.2671 28.82
Au 23.8329 14.3176 16.0548
Au 28.52 24.2734 9.64026
Au 2.94796 18.2915 13.155
Au 11.9275 19.7302 17.2689
Au 20.2088 10.037 9.7188
Au 11.3091 6.61353 22.4334
Au 25.5209 18.0505 11.108
Pd 5.84017 21.8434 23.3901
Pd 10.5912 16.2564 3.33147
Au 18.2578 5.07019 10.7095
Au 11.1997 3.48079 19.0827
Au 13.0881 32.5058 19.6298
Au 13.488 2.18245 17.7909
Au 6.31309 28.1068 24.7178
Pd 26.1344 9.78678 26.6722
Au 13.1406 18.9749 30.3064
Au 19.5969 18.702 2.61399
Au 11.7254 29.1903 7.16157
Au 30.2105 19.5004 11.5466
Au 25.0152 32.4246 16.164
Au 7.63609 10.7436 22.2178
Au 27.6985 12.2318 7.5763
Au 20.3608 17.1523 24.2886
Pd 7.39508 8.02451 23.0079
Au 33.1315 7.79158 19.5793
Pd 24.9737 19.1754 13.5428
Au 28.941 13.2408 29.9783
Au 28.2152 10.5354 10.2615
Au 21.2389 17.5106 6.8843
Au 4.77036 20.0094 14.3514
Pd 12.7806 11.3925 7.39173
Au 24.4114 5.56482 17.5511
Au 11.3151 20.3358 13.9521
Au 9.63305 18.3335 9.76696
Pd 11.7095 34.7423 19.6743
Au 32.8881 28.5944 29.3244
Au 29.6831 21.3539 18.3202
Au 27.7608 28.2755 30.2934
Au 18.4356 35.8218 13.7497
Au 3.53246 22.0491 15.7837
Pd 17.7228 28.9715 14.4731
Pd 24.9868 22.8142 14.1006
Au 7.12857 21.0613 12.9992
Au 27.8043 28.4153 18.899
Au 12.0677 21.8135 11.4969
Au 3.21942 17.7332 10.2786
Au 29.4603 5.71549 18.7644
Au 29.6059 20.8946 4.80233
Pd 13.867 19.1999 9.93993
Au 7.16601 19.2672 15.5146
Pd 21.2362 8.62598 11.8219
Au 11.8255 27.7985 32.5982
Au 11.2325 23.8382 23.2363
Au 29.3855 24.8987 27.2802
Au 21.9435 28.5667 15.7307
Au 13.4284 31.7738 16.9833
Au 3.29668 26.41 16.6012
Au 14.4686 18.5968 7.24043
Pd 16.3154 22.2588 7.54188
Au 6.35159 20.1796 32.7682
Au 13.8309 26.8723 34.2163
Au 8.93678 25.3721 9.61807
Au 9.77564 25.4417 13.6229
Pd 24.8827 27.7795 25.8059
Pd 13.465 20.9387 28.4368
Au 11.3954 11.4257 5.00372
Pd 14.5185 27.4316 27.7308
Au 13.1865 28.5442 25.5755
Au 33.0128 12.2451 26.1387
Pd 8.90228 14.0968 26.4937
Au 23.4646 20.4046 6.0347
Au 30.4533 18.9817 6.50828
Au 26.8738 4.74495 18.5582
Au 27.6384 15.6184 22.827
Au 25.4546 25.7267 33.5481
Au 33.2457 12.1973 17.8629
Pd 9.36463 16.039 30.4022
Au 15.8733 13.9219 16.7591
Au 20.0742 8.18676 17.5019
Au 28.4776 14.8671 6.39106
Pd 15.9559 24.2238 24.3849
Au 31.5031 14.3532 20.4635
Au 11.0858 17.8808 22.258
Au 27.014 19.9958 4.43713
Pd 9.46736 20.8714 11.2534
Pd 23.384 16.4106 10.3529
Au 15.8038 34.8161 11.8274
Au 30.818 30.801 15.641
Au 16.6487 29.7581 33.1478
Au 32.8394 27.7241 18.471
Pd 27.4725 23.4865 24.4651
Au 5.54473 24.1959 11.019
Pd 18.2879 28.0315 32.0132
Au 10.9648 32.9108 17.4877
Pd 18.5137 27.534 8.22295
Au 28.7 32.5622 15.3677
Au 36.503 19.922 17.9981
Au 26.2841 5.92698 10.9109
Pd 6.81381 13.3839 23.0715
Au 22.3453 10.1408 13.8071
Au 36.8777 17.3605 22.889
Au 11.0294 7.09035 27.939
Au 37.4532 21.3906 20.1344
Pd 17.4425 27.7167 5.58582
Au 11.1314 22.2571 25.5838
Pd 18.0296 6.83952 24.6377
Au 34.5744 22.0911 18.1251
Au 29.3438 13.671 15.2594
Pd 14.0447 16.0273 6.58384
Au 16.3356 7.68245 32.065
Pd 29.5251 19.2731 22.4564
Au 30.3319 29.2242 17.7949
Au 11.552 35.5896 16.9155
Au 26.5462 27.0414 5.31269
Au 12.3916 35.3662 22.2972
Pd 3.20442 24.798 12.1895
Au 34.302 19.021 19.6523
Au 27.3448 22.8696 11.8526
Au 21.4798 22.941 22.791
Pd 23.8131 11.9841 12.1472
Au 7.50765 15.0522 32.2659
Au 16.1599 17.9022 30.3735
Au 17.8599 19.5448 23.6538
Au 25.2583 34.5432 12.4494
Au 20.4235 4.86784 29.4691
Au 30.3235 7.13547 13.0738
Au 19.5582 27.1243 15.3287
Au 24.3837 14.8643 12.9511
Au 25.4641 28.1519 7.60193
Pd 17.3634 14.6399 29.9642
Au 32.3425 6.25921 14.5949
Pd 13.1749 13.9433 32.1997
Au 15.6152 21.2244 17.5851
Au 21.1007 29.9084 26.5441
Au 9.04141 21.0835 15.4438
Au 8.06714 28.0782 10.1778
Au 29.0243 23.9406 16.9979
Au 22.9735 25.9869 18.4115
Pd 34.0365 19.7645 16.8968
Pd 29.456 24.3765 12.6406
Au 12.5959 8.67987 6.9446
Au 18.9524 35.9691 25.9885
Au 19.2892 24.1921 20.9357
Au 18.4477 36.9907 18.7217
Au 17.7278 16.0394 32.2244
Au 36.9481 22.8769 22.4202
Au 20.1916 28.2956 6.02565
Au 31.1719 31.4336 26.0266
Au 11.6517 33.9503 11.8747
Pd 25.5825 30.405 25.1123
Au 22.9264 21.065 13.4234
Au 20.3857 10.758 21.5741
Pd 12.9823 36.8796 18.8145
Au 16.8045 28.7148 23.5819
Pd 25.5298 28.2215 13.7682
Au 6.86338 6.60978 16.2045
Au 20.9005 6.07339 8.25006
Au 23.6762 13.3684 22.9527
Au 20.6138 27.5661 17.9595
Au 11.136 11.8078 32.6147
Pd 19.2069 14.347 11.2206
Pd 12.1527 8.83354 11.7181
Au 25.7136 11.5684 9.74019
Au 3.01648 18.2612 18.2902
Pd 32.1827 16.6545 22.7204
Au 18.0123 28.7923 17.1367
Pd 25.963 17.1647 8.56884
Pd 22.0469 6.90289 13.6582
Au 25.3956 3.95665 23.7535
Pd 10.918 19.7526 19.8227
Au 13.5486 13.7876 28.9234
Au 16.2883 13.5489 22.2345
Au 19.6332 34.1248 22.6214
Au 33.7722 25.5474 11.1735
Au 27.1065 33.659 28.8393
Au 20.1292 22.2539 17.4662
Au 10.7784 15.6079 15.7387
Pd 31.2479 23.8939 29.8859
Au 28.1717 25.3273 34.0446
Au 13.6647 7.16841 31.6565
Au 10.8884 24.2417 11.3162
Au 30.0331 29.5355 24.2321
Au 22.8973 11.0776 9.82349
Au 18.9272 15.9574 7.10458
Au 22.5245 36.4948 16.8529
Pd 20.9485 22.0274 20.1992
Au 33.742 14.4787 22.1713
Au 17.7946 23.1319 2.40408
Au 18.1666 0.532492 19.1357
Pd 32.9248 25.0608 15.6901
Au 15.5497 25.2061 17.3995
Au 29.7287 8.54248 9.18873
Au 27.0909 29.6207 6.17397
Au 32.6158 14.6829 27.3085
Au 19.3863 10.2288 33.2092
Au 23.6954 8.79362 20.5533
Au 19.0192 19.3979 26.1001
Au 9.22206 5.05084 15.92
Au 8.39204 16.6056 11.8296
Pd 11.1432 30.0746 16.697
Au 19.6342 3.13716 19.2981
Au 10.1752 10.9583 11.5301
Au 15.6478 22.9765 35.9077
Pd 29.1911 6.83815 15.7384
Pd 9.34414 16.7745 33.047
Pd 9.05959 23.7799 16.086
Au 15.5981 20.8149 20.5569
Au 35.0795 26.5863 24.845
Pd 19.9435 12.0231 18.24
Au 15.5407 20.4602 34.9353
Au 27.3642 22.8367 19.284
Au 35.9023 23.813 19.9403
Pd 6.50284 18.3973 28.6998
Au 20.2423 17.1381 27.1269
Au 8.43783 24.6497 33.4543
Au 27.1965 5.89623 23.1835
Au 31.5376 20.6404 16.2421
Au 7.12369 31.4594 20.2654
Au 20.5383 13.2681 20.5308
Au 26.3491 23.6226 30.1676
Au 13.6556 25.2674 22.8815
Au 14.4086 4.1518 28.197
Au 4.97514 11.7252 21.5377
Au 26.3931 22.6644 16.6379
Au 35.8473 12.3457 18.6873
Au 23.6665 23.8581 32.9281
Au 6.06983 21.5365 10.3111
Pd 22.8799 27.0344 13.5807
Au 11.5929 3.6276 16.4212
Pd 27.4688 16.4309 28.5392
Au 10.6915 10.9571 22.3814
Au 34.1227 19.7372 14.1423
Au 23.5223 35.6425 19.3199
Au 19.2206 29.1161 10.6448
Pd 11.239 30.4327 26.2369
Au 4.25058 14.4121 29.177
Au 4.41976 19.4421 22.5709
Pd 14.6072 21.7379 10.3365
Au 20.2466 34.9413 17.9424
Au 32.5971 18.5978 8.04702
Au 8.14612 23.2417 11.2827
Au 21.6921 5.5896 26.9845
Au 20.8013 25.3032 35.4204
Au 22.7391 14.9034 21.0095
Au 15.8008 30.3157 16.7688
Au 22.6347 4.37184 12.6395
Au 31.2687 23.8388 22.2484
Pd 15.7169 25.6447 12.5829
Pd 11.9238 17.3951 19.5866
Au 19.5653 36.7093 21.3313
Au 13.9003 24.1629 11.3612
Pd 11.7974 17.2711 5.56127
Au 31.167 22.2984 32.9178
Au 6.04746 23.2327 28.7789
Au 12.3082 23.9198 19.2902
Au 15.7589 26.9227 32.2339
Au 12.9771 3.95953 11.9663
Pd 11.2167 25.3349 33.412
Au 25.7911 32.6402 10.5721
Au 22.3128 9.66225 25.4802
Au 21.1423 35.1049 14.9615
Pd 19.0462 11.4411 13.8977
Au 13.6682 20.928 15.514
Pd 14.7867 28.0746 13.4985
Pd 15.3627 8.56931 26.9593
Au 21.7396 30.484 6.80363
Au 18.2439 11.8853 10.6936
Au 13.0078 16.4835 29.1822
Pd 16.2167 17.6639 10.8438
Au 4.2379 22.184 27.1174
Au 17.4348 32.2269 7.50925
Au 20.501 4.7024 14.3899
Pd 26.3437 23.9914 21.7645
Pd 19.1727 25.7763 6.28208
Au 8.12701 14.9082 4.16529
Pd 20.6749 8.4131 20.412
Au 13.4002 5.58286 23.8533
Pd 12.5554 32.1142 24.1993
Au 22.6052 17.5628 34.7195
Au 11.9378 31.3174 12.2058
Au 32.3449 10.3305 24.2885
Pd 18.8834 28.2178 29.3445
Au 25.1622 5.08028 13.3469
Pd 10.0627 11.6058 29.5999
Au 9.42526 33.0546 13.1787
Pd 18.1532 19.9955 34.0433
Au 23.8335 11.0774 27.3311
Au 8.47506 7.77265 26.172
Au 11.1126 35.1581 14.1935
Au 20.1191 21.781 34.8807
Au 23.6697 16.7502 2.77291
Au 10.0902 27.4728 15.6813
Au 34.2395 8.23823 15.1777
Au 21.4104 8.53124 33.444
Au 27.5393 16.0734 25.6433
Au 22.9924 29.5754 24.7302
Au 11.3706 9.92388 9.28122
Au 6.38081 26.0825 9.18308
Pd 25.4239 15.3813 27.0878
Au 22.7449 22.6855 11.1464
Au 2.01278 19.9304 11.1188
Pd 4.52496 24.1664 21.9546
Pd 21.6343 6.21414 16.3035