1687
Atoms. Timestep: 20690
Au 7.58504 17.9359 7.14873
Au 10.6274 17.421 6.64288
Au 13.8523 5.85816 19.9507
Au 14.6268 4.24206 24.5651
Au 13.2777 5.06397 17.0947
Au 16.423 6.17502 32.1434
Au 15.2969 5.61026 26.9059
Pd 7.20354 14.6389 10.3713
Au 8.33923 7.75952 10.1298
Au 21.0161 7.04546 9.87974
Pd 12.9056 5.80961 22.9076
Au 12.6232 5.90887 25.5529
Au 5.41736 9.40588 23.5004
Pd 4.77797 22.9777 15.791
Au 14.4974 8.02903 12.5528
Au 14.6945 15.9658 1.65331
Au 26.1771 6.47095 26.8779
Pd 16.3408 7.15441 20.1157
Pd 16.0771 10.3957 26.9733
Pd 7.57308 7.75645 24.0042
Pd 15.0938 12.6611 27.9828
Pd 15.6102 15.5113 34.5534
Au 15.4596 4.45949 9.42792
Pd 7.80457 18.3666 16.8006
Au 10.4344 19.8441 12.9835
Au 4.25712 19.274 15.3635
Au 5.87464 10.9691 13.0929
Au 6.97348 12.0744 15.3595
Au 12.5404 4.20707 14.4392
Au 15.4264 5.30806 22.1571
Au 15.7923 10.8205 34.9721
Pd 18.1908 9.27976 28.0559
Au 18.2601 2.93157 19.3252
Au 15.2931 17.7448 28.1878
Au 16.8784 3.18317 23.5214
Au 10.6841 22.3683 24.6247
Au 9.47217 9.51577 24.735
Au 5.47946 25.1577 14.4415
Au 2.82104 15.8548 9.72116
Au 5.54265 19.2186 10.4199
Au 4.825 8.18194 16.5318
Au 8.90712 5.83408 12.1599
Au 8.2403 18.9005 21.4472
Au 2.80278 14.1878 19.0325
Au 7.5703 12.3089 8.90581
Au 9.05961 5.31752 17.2139
Au 12.3578 16.2358 31.7691
Au 10.7224 14.832 29.8213
Au 21.3966 15.1927 31.923
Au 9.14251 13.0068 13.8606
Au 13.7223 33.041 29.6276
Au 10.351 6.81573 24.0591
Pd 10.6661 26.0405 15.4657
Au 4.97902 17.0529 8.43833
Au 10.7032 15.2236 14.1586
Au 8.7939 25.1328 29.5612
Au 2.50595 17.4238 26.2244
Au 5.10794 15.6532 18.6412
Au 2.96619 16.6866 20.0018
Au 7.51674 18.5888 27.3632
Au 6.31515 16.7304 30.09
Au 8.77697 15.7549 5.75036
Au 14.0134 21.0596 31.1353
Au 8.39267 20.2437 14.8038
Au 4.16112 17.1966 28.4515
Au 6.89731 11.7016 28.0892
Pd 12.7969 21.0228 20.0984
Au 4.02355 9.31116 21.0976
Pd 7.77818 19.3772 12.0228
Au 5.0796 25.6271 24.8947
Pd 7.73446 19.0914 24.3844
Au 8.7495 18.2722 4.68397
Pd 10.1746 18.2181 23.6224
Au 3.29191 25.7213 16.4408
Au 3.55597 16.3592 23.9142
Au 5.25775 21.1066 23.5483
Au 11.5842 21.5868 27.3185
Au 11.8134 24.3109 26.1576
Au 7.41923 15.0006 20.3147
Au 2.05319 22.9405 16.5348
Au 14.1246 17.5183 33.4422
Au 12.0394 10.9075 24.3377
Au 7.19673 21.5443 21.5403
Au 7.70622 29.2194 15.0189
Au 11.0287 30.1829 19.0829
Au 3.46577 19.6387 27.4193
Au 8.85332 16.4801 28.6519
Au 2.46403 16.6389 12.248
Au 4.28151 21.5487 9.37712
Pd 16.7078 19.6476 20.8085
Au 15.097 30.6311 29.8262
Au 5.1333 26.5477 27.6761
Au 13.1268 24.761 33.2448
Au 4.87035 25.9978 11.8036
Au 5.46031 28.1113 23.967
Au 11.1608 24.0771 28.7657
Au 7.1345 26.9963 25.9275
Au 2.76067 24.2364 14.2874
Pd 11.073 24.5119 9.29505
Au 10.0329 30.4218 13.8737
Au 9.56488 29.5944 29.4021
Au 5.02569 21.7009 19.7476
Au 9.63795 20.7154 22.7979
Pd 18.8493 31.4722 11.4451
Au 16.2223 25.6129 24.3819
Au 13.8246 30.433 18.8964
Au 12.4409 32.5334 17.6877
Au 13.2257 35.2166 17.3589
Au 18.1179 36.1221 22.3641
Au 22.5095 33.7072 26.2425
Au 7.3317 21.3932 28.3913
Pd 27.0273 31.7154 26.2984
Au 13.3648 18.6208 6.58775
Au 8.72502 7.06859 14.6757
Pd 9.43328 20.0754 6.68965
Au 10.8254 8.95134 14.6796
Pd 11.7778 17.4203 12.9668
Au 13.5666 6.0281 10.8122
Pd 14.8287 8.54871 6.79146
Au 19.7889 10.0399 33.0095
Au 21.2585 11.417 25.2288
Au 15.2163 15.561 31.645
Pd 17.6733 7.11192 17.4234
Au 22.897 18.4334 37.0639
Au 19.0637 2.69949 25.0664
Au 8.73936 14.3269 26.9967
Au 12.2805 9.59047 31.7749
Au 12.8122 14.9057 3.24323
Au 13.4427 22.9825 1.33408
Au 17.6191 7.82073 12.7599
Au 10.8249 16.6541 3.98455
Au 7.05676 15.229 7.76707
Au 6.94458 20.3366 5.88659
Au 9.81544 4.55265 14.3424
Au 5.06057 16.3771 11.0636
Au 22.4312 14.7218 20.2825
Au 12.337 8.60733 10.9642
Au 16.8271 8.26491 25.4874
Au 11.1156 6.32734 15.8407
Au 19.8401 6.68267 21.7195
Pd 14.9277 6.90482 24.3116
Au 14.6971 5.46682 13.4278
Au 8.98358 11.1741 18.834
Pd 16.0568 12.0671 18.0965
Pd 12.2588 7.33273 18.1142
Au 15.9471 7.94962 34.1389
Au 9.74749 8.57526 31.0712
Pd 18.3667 14.5366 34.1244
Au 20.3381 12.8139 35.5704
Pd 5.39484 16.9844 16.342
Au 13.2802 3.64604 21.4587
Pd 13.6504 11.29 29.842
Au 16.9355 24.5184 33.4059
Au 16.3726 15.948 37.1327
Au 10.7422 27.207 28.9586
Pd 13.965 23.5346 20.4564
Pd 13.4857 13.7183 32.4789
Au 20.8303 10.229 20.1034
Au 11.1179 21.5651 2.66169
Au 13.1039 24.535 11.2287
Au 13.5624 18.2562 0.944322
Au 11.03 14.1984 5.29078
Au 8.20706 22.7454 6.01208
Pd 18.7891 11.2078 18.3322
Pd 11.2918 12.2526 17.8442
Pd 9.74854 18.6813 8.93266
Au 3.79753 14.1456 11.85
Au 17.9772 6.63437 27.2708
Au 3.95652 10.0293 18.3208
Au 9.91682 8.26838 12.1972
Au 10.0333 6.62634 19.373
Au 15.6406 4.69181 15.911
Au 11.7815 13.316 12.2603
Au 13.3807 10.5717 27.149
Pd 9.76871 17.5899 11.2974
Au 19.863 5.10655 26.2299
Au 14.1017 13.0427 35.0142
Pd 14.7014 8.25097 22.0237
Au 4.29562 13.0066 14.4453
Au 17.716 7.98311 30.6193
Au 14.0401 8.8681 19.4321
Au 23.2085 13.3459 31.1511
Au 18.2674 19.8825 28.2418
Au 6.87276 11.7488 23.818
Pd 15.8162 20.2529 29.3691
Au 13.7102 19.5729 36.6409
Au 8.16204 8.73727 19.6477
Au 11.2861 29.8037 6.43495
Au 13.4543 20.1904 3.02304
Au 3.08164 11.7395 20.1329
Au 6.83206 10.0342 10.682
Au 12.0533 12.4097 7.16083
Au 9.91191 22.3552 8.15081
Pd 19.4588 23.7173 12.8392
Au 6.47722 13.8767 13.0385
Au 2.87831 19.4761 19.6192
Au 14.7138 22.85 13.1306
Au 15.8281 7.8415 28.5995
Au 3.56421 23.5337 23.8382
Au 11.8716 20.3167 8.02369
Au 9.33437 23.4726 3.68594
Au 12.1934 12.9868 27.9698
Au 4.79716 11.2559 25.4068
Au 17.2981 7.44345 22.6771
Au 6.35689 26.008 30.3721
Au 16.2042 7.42079 15.1004
Au 14.0088 16.9124 36.3398
Au 6.92815 9.13939 15.0797
Au 7.25107 7.30227 17.1724
Pd 9.72742 14.0395 19.1221
Pd 10.6101 18.2073 27.3967
Au 18.4768 17.3008 38.0968
Au 5.52099 12.3885 10.793
Au 3.39405 14.4245 21.7416
Au 20.6918 26.5484 30.0459
Pd 23.7185 24.5787 33.4839
Au 11.9835 22.1545 32.7705
Au 13.4413 25.3985 18.5531
Au 15.504 23.9386 7.81826
Pd 12.3411 21.6016 12.6237
Au 3.02986 18.4783 10.3372
Pd 6.07118 28.206 10.6594
Au 4.517 23.237 12.5619
Pd 8.56542 21.9524 12.7221
Au 2.5708 17.1947 14.9058
Pd 9.33605 13.6625 7.34625
Au 3.31127 15.0284 16.4753
Au 16.6877 25.7106 15.0576
Pd 10.0994 16.5899 16.5333
Au 4.07624 13.6518 24.3273
Au 10.8984 29.5338 24.5142
Au 8.93 7.12946 21.7832
Au 7.1648 8.10448 12.5537
Au 11.142 9.5444 19.4326
Au 6.44596 15.9293 27.4729
Au 4.71773 22.1237 28.2239
Au 9.13981 22.9884 27.0542
Au 6.90097 9.62941 25.8585
Au 13.3228 15.2235 24.8548
Au 17.82 12.1032 28.6499
Pd 11.1615 18.8022 21.13
Au 6.44477 23.2717 30.3786
Au 16.1048 21.8171 27.1886
Au 8.69476 15.8911 31.403
Au 10.5073 26.4714 32.9944
Au 12.8002 25.3616 35.7013
Au 16.5124 33.0729 30.2352
Au 8.57012 10.3597 13.3214
Au 9.07832 29.5146 7.93429
Au 7.06151 24.2202 12.3939
Au 6.38383 21.7085 11.0894
Pd 12.6213 34.4678 12.0272
Pd 13.2104 26.2337 15.63
Au 3.63176 20.7908 11.8156
Pd 4.51221 18.4148 12.7934
Au 6.61309 18.2699 14.3619
Au 14.8414 28.2743 14.777
Au 3.37231 26.807 13.8747
Pd 3.09568 18.3257 22.0889
Au 5.32838 27.6823 15.4837
Au 18.0259 31.1744 16.7296
Au 3.19431 21.0901 21.8769
Au 4.38802 24.5824 29.2971
Pd 7.88051 24.8181 7.86984
Au 7.91414 26.1555 15.5286
Pd 9.28013 28.5467 26.7578
Au 6.39491 22.4232 7.9501
Au 14.8934 22.649 33.2575
Au 9.47853 15.8695 9.01427
Au 9.578 16.7057 20.1448
Pd 10.7914 10.8873 26.7843
Pd 5.15102 17.9012 26.0465
Au 22.7102 27.8921 28.6721
Pd 13.2616 28.4367 28.666
Au 34.7543 28.4436 25.2854
Pd 6.28125 7.76508 21.5729
Pd 13.8583 28.8166 31.3892
Pd 3.0567 21.5074 14.3838
Au 17.5143 32.6603 7.48236
Pd 13.7292 30.3606 13.3738
Au 5.75491 30.1254 16.6659
Pd 9.10049 28.1988 19.3908
Au 17.2767 17.2147 4.79202
Au 7.40326 17.4123 9.79878
Au 13.901 31.4789 27.5159
Au 5.13595 28.7357 13.0859
Pd 7.37164 25.9414 10.2824
Au 7.3024 18.0112 32.3835
Au 18.0198 35.3186 14.0009
Au 8.3636 23.3457 10.0973
Au 12.2199 32.3184 20.5411
Au 3.28962 19.3922 24.563
Pd 11.749 19.6856 25.3126
Au 2.19739 22.0677 19.4383
Au 6.51237 27.1965 20.2632
Au 6.3108 29.7872 19.3294
Au 15.2839 28.8857 33.705
Pd 11.1928 22.6808 21.6988
Pd 18.15 27.9513 29.184
Pd 8.49888 11.836 25.9499
Pd 16.1903 32.3724 23.2797
Pd 12.0642 7.55941 21.0687
Au 22.7084 29.4796 21.1098
Au 6.18602 13.4449 26.1413
Au 25.5621 30.3244 24.3509
Au 3.64883 24.3362 26.78
Au 17.9352 29.8922 33.5258
Au 7.99792 18.8134 30.0223
Au 7.33307 30.2989 9.71633
Au 8.36164 30.4281 17.5117
Pd 9.58521 27.7534 13.6239
Au 9.60379 27.5221 6.07016
Au 15.7164 31.0051 6.39616
Au 11.2766 34.5927 19.1793
Au 9.72485 30.8924 10.7775
Au 16.0243 29.4024 17.4677
Au 9.76707 25.8306 11.4869
Au 24.7729 32.8243 27.3149
Pd 19.9624 29.6543 15.3971
Au 14.6045 35.6784 25.6533
Au 9.24626 28.4191 22.1535
Au 22.6826 36.0456 19.2907
Au 17.2071 33.2205 25.6593
Au 8.657 30.7124 20.3837
Au 11.7681 27.2336 26.2433
Au 11.1571 32.3894 28.303
Au 8.792 27.381 31.076
Au 25.1718 32.056 14.8552
Au 9.01202 22.5229 30.3003
Au 23.178 32.9213 16.7252
Au 6.75807 29.3573 21.9825
Pd 29.6319 25.6285 14.8295
Au 28.8898 32.1924 21.3647
Au 4.51124 11.7242 22.4005
Pd 27.9907 21.4631 29.57
Pd 14.0536 20.0027 27.1123
Au 20.5933 21.2579 27.2343
Au 22.1637 21.8361 2.02624
Au 18.6829 7.39079 4.00938
Au 16.2081 12.9113 5.23803
Au 11.8862 10.9813 9.58961
Au 18.9153 2.38706 22.0252
Au 26.1239 4.06086 22.0567
Au 25.8074 9.01168 12.139
Pd 19.6306 4.64234 23.4849
Au 11.2914 4.3651 12.0098
Au 14.4566 6.05903 30.2534
Au 21.173 8.21879 34.3577
Au 23.8433 18.7436 21.89
Au 19.7797 8.83951 17.5914
Au 17.4242 18.0137 30.1607
Au 11.986 6.99171 30.9073
Au 20.6176 9.2643 2.77096
Au 18.2369 24.9636 1.57467
Au 21.0582 14.3522 4.49345
Au 13.2863 10.0921 14.2305
Au 15.6198 7.33286 9.23701
Au 17.0817 26.1138 3.87229
Au 15.8762 13.6414 2.58258
Pd 14.656 11.4222 7.2289
Au 13.472 7.52559 15.3032
Pd 16.3558 14.9054 18.2557
Au 16.3288 2.4937 17.3531
Au 22.5887 15.595 6.34152
Pd 24.0529 4.97807 26.0355
Au 15.0216 7.10173 17.6151
Au 16.9243 10.1397 23.1521
Au 9.29088 10.853 16.1037
Pd 12.9597 10.3614 21.6888
Au 18.7544 10.0813 25.381
Au 19.1329 5.7156 19.1169
Au 20.2445 5.34785 14.3195
Pd 4.65917 10.6415 15.6408
Au 14.1183 3.1572 18.9566
Au 23.5076 13.079 25.2337
Au 15.8206 13.0619 30.5192
Pd 13.5021 14.2976 29.8845
Pd 20.3719 10.9937 27.842
Au 8.22432 10.7206 30.3107
Au 18.8639 14.6381 36.9239
Pd 9.30022 23.9383 16.7786
Au 20.4995 19.2617 37.9781
Pd 12.6917 23.2521 7.33707
Au 11.171 18.7944 2.24351
Pd 9.41322 10.3379 10.3991
Pd 5.81601 20.9761 13.6957
Pd 14.2414 15.9307 9.21889
Au 16.7047 20.4044 9.90301
Au 11.379 19.4578 4.83065
Au 16.7905 14.6705 9.34531
Au 12.7545 6.18764 28.1794
Au 11.9771 26.5698 12.9925
Au 10.8388 6.36788 10.2994
Pd 14.0283 12.7847 13.7937
Au 17.8786 4.83252 21.3603
Pd 9.34205 13.6899 16.4566
Au 18.1495 11.5118 10.3395
Au 14.9299 21.3646 21.9723
Au 16.2323 10.3377 29.8601
Au 7.15849 12.999 18.1463
Au 19.8881 15.7015 20.4039
Pd 11.654 21.8522 30.1595
Au 27.9124 11.3784 21.6394
Pd 18.8722 12.585 26.2675
Pd 9.63292 11.8822 23.3148
Au 13.6725 2.50204 16.4194
Au 20.4309 23.9062 36.6649
Au 17.4721 3.91664 26.9386
Au 15.9772 18.4194 35.1667
Au 8.77671 16.8176 25.6635
Au 12.9191 27.4625 33.6261
Au 19.0125 15.0824 25.5388
Au 11.0576 24.1152 1.78046
Au 17.3109 16.173 2.06662
Au 16.7773 28.406 10.2528
Au 19.0809 17.553 0.423692
Au 13.5424 21.3124 5.58899
Au 12.6801 32.9303 9.71974
Au 7.67763 20.3509 8.94112
Au 6.06912 23.7886 22.924
Pd 5.89895 14.3835 16.1347
Pd 17.0672 13.0021 22.2549
Au 7.39021 22.9569 15.0597
Au 5.27015 19.646 7.77559
Au 8.06646 16.5228 22.724
Au 5.51916 18.2619 23.3862
Pd 6.08581 10.6158 20.188
Au 9.77691 14.3904 21.8345
Pd 7.06241 17.5704 19.4313
Au 14.3109 16.3604 20.0039
Au 15.6885 10.6521 20.7605
Au 20.7179 16.3724 27.23
Au 12.558 8.3267 23.8126
Au 7.42205 6.10863 19.6309
Au 2.88486 17.6695 17.5004
Au 6.18984 15.8399 24.676
Au 10.757 5.13801 21.5904
Au 4.68859 26.1094 22.1986
Au 24.043 15.8028 32.7368
Au 20.8377 15.468 34.8408
Au 16.6043 13.3889 36.009
Pd 7.85503 9.84592 22.2125
Pd 11.89 16.2325 21.4941
Au 17.4718 24.5431 6.16494
Au 5.49082 24.0246 9.94698
Au 8.93782 28.2972 10.7283
Pd 15.9973 21.4901 16.7482
Pd 12.5761 23.4756 4.00459
Pd 8.15911 12.3564 11.5145
Pd 4.8222 15.8654 13.9033
Au 5.27083 16.4697 21.4
Pd 11.711 25.157 20.8901
Au 4.87415 14.3312 9.08892
Au 3.94578 23.7319 18.2901
Pd 26.309 14.592 11.4592
Au 12.4332 20.5747 22.8774
Au 8.39818 14.1525 24.2781
Au 2.00016 19.2334 13.2828
Au 9.47622 25.7477 26.9637
Pd 9.83311 20.3025 28.8667
Au 12.0834 13.3095 22.9806
Au 6.65586 10.1804 17.5646
Au 8.88326 7.43201 26.3539
Au 7.3102 26.4374 22.963
Au 6.22179 24.3992 20.2343
Au 5.87704 20.4566 26.1865
Au 9.2714 20.3389 26.1746
Au 13.7837 19.3276 16.3425
Pd 16.6189 19.2472 26.2408
Au 10.8435 24.291 31.4893
Au 5.77382 23.1169 25.7132
Pd 14.1503 8.08016 26.5401
Au 18.3679 13.7995 1.48555
Pd 8.96169 20.817 4.06031
Pd 12.9232 34.8315 14.6636
Pd 11.7588 20.9205 17.5559
Au 10.8824 22.1321 5.55799
Pd 10.6402 23.3204 11.6793
Pd 6.75448 22.9689 17.8426
Au 17.0785 28.247 24.8987
Au 8.69258 9.61412 27.915
Au 17.9898 18.0218 14.2097
Au 9.4348 14.9102 11.8088
Au 9.38319 24.4595 13.8339
Au 9.19164 25.9189 21.0243
Au 18.4075 26.2884 11.1496
Au 3.34584 21.7748 25.8019
Pd 13.4122 29.4482 25.8144
Pd 12.2422 24.0568 13.8735
Au 5.77303 25.5075 17.3244
Au 9.68807 33.0991 21.0245
Au 5.5053 19.4723 29.1797
Pd 21.5397 23.8751 32.07
Au 26.9755 17.3918 10.9525
Au 2.28134 14.6573 14.0275
Au 14.6675 23.9367 15.6409
Au 7.35738 14.1527 29.4016
Au 10.4821 22.0739 14.8743
Au 13.8675 22.4789 28.5208
Au 22.5186 29.0775 33.8434
Au 11.3902 29.9068 27.4758
Au 11.2547 15.535 27.0481
Au 28.5017 14.2779 3.75827
Pd 15.4241 19.3424 4.98123
Au 8.17069 25.4009 5.26136
Pd 18.4824 30.2954 6.11767
Pd 28.1753 19.9541 8.64886
Au 10.649 31.7556 8.42867
Au 28.8238 26.2538 7.73956
Au 23.5723 28.033 15.4572
Au 16.7865 32.998 10.1728
Au 15.3117 26.7503 17.1189
Au 10.276 33.5362 10.8339
Au 12.6228 28.2367 17.4831
Au 16.5774 28.6838 31.2771
Au 16.7411 31.7612 27.8724
Au 13.5495 31.0086 23.5404
Au 7.88114 29.2289 24.5221
Au 23.1946 27.9993 5.69924
Pd 10.8835 24.8782 23.5174
Au 11.8098 27.7478 20.1287
Au 7.10218 20.8411 31.5384
Au 18.0743 34.4743 27.926
Au 27.2033 34.3533 25.3785
Au 7.65821 27.4994 28.5866
Au 6.79496 24.4818 27.8049
Au 18.5669 23.4986 23.9811
Pd 11.2286 30.1715 21.8315
Au 18.4032 29.6886 26.9549
Au 27.3634 34.2725 22.5954
Au 14.5659 27.0475 26.464
Au 8.71542 23.2381 19.7272
Au 15.2028 35.0288 12.9393
Au 16.2961 17.8676 0.091299
Au 19.2336 22.3477 5.83596
Au 23.1674 25.7788 10.2269
Au 13.1971 36.2078 20.1021
Au 13.2683 30.8947 7.85348
Au 4.50964 28.0938 18.0384
Pd 14.2538 33.8127 19.6784
Au 19.2086 21.6348 10.5419
Au 11.2535 32.5775 23.1832
Au 20.2872 27.0697 16.2137
Au 9.73533 32.556 18.3024
Pd 20.7734 31.7275 16.7568
Au 13.6913 36.2966 23.0187
Au 8.9387 31.1761 23.0779
Pd 16.0762 24.1686 22.101
Au 22.3794 31.3799 27.9331
Au 15.5716 36.1614 21.1463
Pd 20.7808 35.617 14.2129
Au 10.8089 26.0139 18.2336
Au 3.66235 21.012 17.3939
Au 16.351 22.2392 19.5387
Au 13.3332 25.553 28.3668
Au 13.3434 25.6986 24.3878
Au 32.9322 30.7535 20.9477
Au 20.0427 28.0638 34.1784
Au 19.1952 21.032 20.1228
Pd 14.4545 33.0564 25.234
Au 15.8376 29.1081 27.7116
Au 18.3582 30.9239 24.2847
Pd 18.293 14.6706 4.21039
Pd 17.9273 10.1171 15.9015
Au 10.4649 9.3865 22.2039
Pd 17.1048 9.66527 8.43535
Au 12.94 7.25062 8.43518
Pd 24.3032 5.62603 28.7025
Pd 18.9798 7.67453 15.1409
Pd 24.5402 8.3889 28.1987
Pd 21.3011 7.41949 19.3837
Au 14.9133 8.54379 31.4106
Au 19.5456 10.0085 30.2662
Au 13.7744 6.78872 32.9258
Pd 22.345 6.9545 27.5898
Au 15.9896 2.89245 20.9121
Au 26.8572 11.2754 31.4913
Pd 23.7555 8.58444 6.09629
Au 19.9052 8.28378 7.53078
Pd 10.2196 13.1535 9.82782
Au 21.1203 19.773 10.505
Au 20.1897 4.82011 8.47391
Au 21.6383 9.66015 10.9766
Au 19.2158 9.77886 5.16852
Au 11.9522 15.669 10.8624
Au 15.0401 9.72509 16.5232
Au 13.1397 13.3648 9.74918
Au 13.8354 3.54209 11.6567
Au 15.1787 13.3498 20.3622
Pd 7.33503 16.5664 12.4202
Au 21.2848 7.88412 4.99956
Pd 22.7654 6.33061 14.8517
Au 25.4655 11.7584 19.2352
Au 29.809 7.08486 13.1834
Au 24.5719 10.1884 9.93643
Pd 22.0072 4.35433 27.7068
Au 7.83712 15.7063 17.6611
Au 22.417 18.8774 12.801
Au 13.4531 11.4742 19.182
Pd 15.5083 16.8713 25.5831
Au 10.7653 15.6798 24.0954
Au 27.2327 19.0005 30.3323
Au 16.3224 4.81972 18.7765
Au 24.7865 16.1562 20.9394
Au 13.6606 20.2584 34.0914
Au 14.2241 22.0348 37.4231
Au 12.1335 11.7294 33.6427
Au 24.6259 14.0782 7.12455
Au 9.77685 11.0347 7.80759
Au 25.3139 16.8482 6.58842
Au 12.9372 25.7478 2.64299
Au 22.45 11.4826 1.69963
Pd 21.3938 18.8875 3.4569
Au 20.5158 26.4493 9.30173
Au 13.8893 10.2405 4.93401
Au 13.5625 12.9704 4.90996
Au 22.6805 22.0343 10.0867
Au 13.0399 17.5779 26.3866
Au 11.6099 4.40666 19.1628
Au 23.5695 9.21974 19.8498
Au 10.5313 8.5462 8.73783
Au 14.2387 14.9962 22.3504
Au 18.7003 18.6168 10.6601
Pd 27.5401 8.25503 14.0727
Pd 27.2746 17.5203 17.4913
Pd 11.1537 10.7424 12.4539
Pd 12.7604 16.7876 29.0718
Au 19.0936 15.6972 17.9024
Au 20.5735 13.2474 18.5661
Au 16.6885 14.4111 26.7192
Au 9.99654 17.6677 33.0835
Au 16.2617 12.2364 15.3423
Au 25.8685 13.6021 21.139
Au 11.9541 18.0772 34.9466
Pd 22.8498 15.697 25.5463
Pd 20.1461 18.8813 31.3908
Au 16.9897 5.39315 29.47
Au 23.4397 24.9011 5.64223
Au 15.8494 18.3851 2.58464
Au 20.9931 3.80719 10.8567
Pd 12.0554 32.2732 14.8609
Pd 23.4207 14.0605 2.58081
Pd 13.5532 25.5205 8.56765
Au 17.1034 21.8123 12.2574
Au 9.92937 20.9033 10.5119
Au 17.1792 20.7303 3.10749
Au 13.8618 30.5779 16.1264
Au 24.2113 25.7816 23.9845
Pd 13.751 12.1101 16.432
Au 7.90288 15.5158 14.8672
Au 10.9494 13.2746 25.4841
Au 6.13583 14.0937 22.5941
Au 7.93578 12.4 21.1106
Au 18.101 13.4989 19.7195
Pd 19.1695 12.102 23.5661
Au 16.0041 19.8413 32.5528
Au 21.9183 15.7676 17.7856
Au 18.2727 13.9543 11.6189
Au 16.5347 12.2008 24.9716
Pd 25.3197 22.6369 26.2393
Au 14.7176 24.2087 26.3438
Pd 19.9213 21.2206 35.345
Au 28.3792 7.68237 27.9125
Au 11.7602 15.9609 18.5787
Au 16.9281 17.2245 32.762
Au 9.05025 22.374 33.0854
Au 8.24085 24.8207 32.1899
Au 23.6587 24.1355 2.93911
Au 20.9748 13.7455 1.73946
Au 20.8712 17.6124 7.94053
Au 15.423 24.8161 2.19829
Au 18.3277 19.6663 5.48269
Au 25.3332 23.8515 13.4579
Au 11.3277 23.237 19.0212
Pd 15.6615 30.7436 9.18421
Au 16.5358 31.7536 19.0055
Au 18.5363 29.3759 13.1594
Au 11.0145 19.1952 15.6346
Au 12.0004 23.8539 16.543
Au 13.4091 23.4334 23.0647
Au 13.9586 18.8053 21.2151
Au 12.3392 13.8478 20.3273
Au 27.5546 28.0887 31.548
Au 9.95054 18.7115 18.3442
Au 12.026 28.6631 14.7827
Au 16.5013 14.5559 13.7914
Au 5.44707 7.97775 19.1141
Au 8.76081 23.6396 22.4659
Pd 5.15024 18.901 18.2121
Au 18.9382 15.0767 22.8101
Pd 13.8518 12.7133 25.5378
Au 19.5213 16.7876 32.8787
Au 19.426 21.7458 37.9586
Au 9.96997 20.885 19.9601
Au 24.5503 15.646 30.0857
Au 20.9269 23.7714 29.3449
Au 4.4237 12.5671 17.521
Au 20.7762 24.2783 2.37438
Au 10.3979 24.768 6.62056
Pd 20.9746 26.075 11.9621
Au 7.24795 27.6567 8.22239
Au 17.882 20.0083 0.61045
Au 13.2248 21.6486 15.2302
Au 16.7174 28.7711 7.55539
Au 31.1441 30.1142 12.9339
Au 25.9677 15.2571 16.3851
Au 5.39516 19.3204 20.9442
Au 17.2593 14.9349 6.69629
Au 18.7504 27.0377 20.1572
Pd 21.0412 22.8575 19.2413
Au 23.3417 28.7319 23.7896
Au 21.7694 29.076 17.4219
Pd 21.498 27.4293 19.6264
Au 35.4761 22.4416 18.2128
Au 18.4561 23.9561 20.157
Au 13.2145 8.64211 29.1471
Au 17.6534 21.9933 22.0318
Au 13.4263 21.9898 25.3487
Au 12.5455 26.4439 30.9
Pd 21.6865 20.1545 20.6501
Pd 18.1228 20.6309 30.9768
Pd 9.57127 26.9891 24.4824
Au 25.6251 21.7008 18.5872
Pd 28.4089 32.1071 18.561
Au 12.5601 19.4751 29.2101
Pd 15.398 26.9928 29.442
Au 24.1253 28.3149 19.0279
Pd 12.0622 26.94 10.2986
Pd 15.4227 16.934 6.95333
Au 15.0488 22.2907 3.29329
Au 9.70358 26.7267 8.68528
Au 15.5056 25.9294 10.4422
Au 16.5533 28.7694 4.86803
Au 16.3807 30.6759 14.6053
Au 36.3887 25.156 16.4402
Au 10.4881 34.0368 13.614
Au 25.1046 22.7913 4.93413
Au 21.4066 25.1146 14.4345
Au 7.38805 20.3052 19.035
Au 11.917 32.0086 25.6854
Au 7.16784 27.0028 12.9282
Au 16.1261 25.4471 19.7132
Au 18.0206 35.7319 25.1462
Au 8.16196 25.6332 18.5121
Au 17.877 36.3548 19.7278
Au 24.0242 29.3446 12.9627
Pd 20.1141 27.2854 27.3534
Au 18.9963 26.0674 25.1733
Pd 19.3645 34.1783 20.6779
Au 14.9795 19.8169 18.758
Au 20.3613 12.855 30.003
Au 21.1546 13.9945 24.0359
Pd 17.0881 29.2963 20.0974
Au 25.0525 27.1511 29.684
Au 15.964 22.4579 24.3876
Pd 18.3699 22.5119 28.6798
Au 15.9218 31.1927 32.2657
Au 24.9234 21.7244 2.31916
Au 30.1784 23.2114 15.7454
Au 4.0231 26.0479 19.5838
Pd 16.576 24.1125 17.4609
Au 27.875 31.1766 15.9982
Au 22.4539 28.2143 8.47063
Au 17.6057 28.2736 15.5456
Pd 14.0645 28.8135 6.25999
Pd 24.1209 30.3822 17.0678
Pd 6.29554 20.6959 16.4593
Au 18.1277 30.6956 30.0919
Pd 16.0251 34.9565 23.5732
Pd 21.2499 26.3922 6.63607
Au 14.7022 34.7296 10.2792
Au 25.6312 35.9591 23.7064
Au 10.8194 34.275 16.3538
Au 30.3901 20.2803 25.8394
Pd 8.06727 24.5928 24.9479
Au 1.72643 19.7601 16.0151
Au 25.8701 32.5194 17.5319
Au 25.62 23.6344 30.4195
Pd 21.5545 33.067 14.3801
Pd 15.8206 30.6617 25.4276
Au 13.7188 29.1369 21.5154
Au 30.3813 28.846 31.2299
Pd 27.5394 30.0227 20.2639
Pd 15.1747 26.3405 34.7635
Au 28.6103 26.823 24.2631
Au 13.8434 23.9791 30.7474
Au 14.5853 18.1353 30.778
Au 19.7803 13.4755 9.19008
Au 30.9864 9.49881 12.3417
Au 14.223 17.3932 11.5672
Au 20.7201 6.17804 16.8926
Au 18.3231 4.54078 16.6155
Au 27.4221 5.66005 17.5778
Au 21.7606 3.51027 25.1652
Pd 17.2515 5.49988 24.7387
Pd 24.1272 7.74521 25.4983
Au 19.9289 7.26952 29.0957
Au 17.5369 5.24447 13.8995
Au 16.4781 3.345 12.0884
Au 26.383 7.13864 29.6686
Au 11.4737 8.31069 26.3835
Au 26.7339 5.81963 14.8842
Au 24.4586 16.638 1.81922
Au 23.3883 20.6032 4.26372
Pd 16.1771 30.3999 11.9122
Au 19.3076 22.3391 1.16277
Pd 19.2834 5.83396 11.6991
Au 19.5074 5.91726 6.09731
Pd 16.4188 19.4606 7.43729
Pd 18.1614 13.3724 16.7863
Au 22.5021 9.02502 8.45096
Au 22.7332 18.1774 5.81376
Au 16.2713 9.54519 11.0701
Pd 12.1087 19.2811 10.8688
Au 22.9072 5.10311 9.42026
Au 22.1332 5.91331 12.2104
Au 33.8891 19.9948 11.4874
Au 19.7847 18.353 19.3649
Au 18.6885 8.48377 20.1211
Au 26.4662 4.6261 24.7473
Au 9.70805 8.38772 17.224
Au 28.3764 5.5527 22.9089
Au 18.6441 7.51412 33.2256
Au 18.8871 12.6837 14.1683
Au 26.3145 9.26027 26.2333
Au 8.85946 13.1389 31.3573
Au 11.5384 12.4798 30.9568
Pd 18.2197 17.7108 21.707
Pd 17.0467 9.83059 32.6142
Au 13.6507 9.3163 34.0613
Au 19.5095 4.54399 28.813
Au 15.9086 21.1342 35.4416
Au 28.0175 22.6942 4.601
Au 20.9779 20.2014 5.94416
Pd 19.9445 15.1393 7.05025
Au 10.6214 25.7528 4.04084
Au 16.7037 10.327 5.74723
Au 15.0829 5.87234 7.04721
Au 12.0364 27.9275 4.64157
Au 15.6762 10.9844 3.21133
Au 15.9857 9.89974 13.9159
Au 20.9486 11.7675 3.85721
Au 14.7833 14.7149 15.7846
Pd 11.9225 6.68776 13.1334
Au 13.9544 22.538 18.0022
Pd 14.2867 18.9229 9.20416
Au 22.9798 23.7477 25.1944
Au 14.6391 9.95068 24.5672
Au 28.1039 7.69032 19.3862
Au 10.421 7.55602 28.7105
Pd 12.6665 16.97 15.5498
Au 16.1798 13.2439 33.2005
Au 21.9119 11.0062 22.5793
Au 26.2514 9.35826 20.5811
Pd 22.156 17.7121 33.2848
Au 17.9867 17.0863 27.4218
Au 23.5486 3.70914 21.0471
Au 18.115 9.26545 35.2264
Au 34.4322 14.5639 20.98
Au 27.0401 12.0721 34.1521
Pd 23.1451 21.047 25.6962
Pd 16.0418 24.3976 28.7875
Au 17.4665 4.73399 7.51962
Au 25.8521 18.5571 8.75895
Au 22.3684 12.0046 9.64931
Au 33.9266 14.8605 15.6797
Au 19.6881 11.3645 1.38786
Au 26.971 16.5551 2.67061
Pd 12.0938 17.478 8.87618
Au 21.0002 19.6395 14.9982
Pd 14.1585 28.0708 11.8177
Au 20.0182 10.8458 8.40726
Au 23.5137 17.2149 8.50592
Au 14.5769 12.1787 22.9094
Au 25.4931 19.5143 16.7773
Au 12.0334 14.4051 16.271
Au 12.8642 17.6426 23.5455
Au 16.4055 18.627 16.3937
Pd 18.3847 11.0764 20.9688
Au 22.4538 17.4468 19.8549
Au 20.4979 20.5879 17.6365
Au 5.25895 13.2607 20.0981
Au 27.6581 22.3539 22.5815
Pd 23.1452 22.3634 30.3541
Pd 21.8806 10.9425 31.394
Au 22.4123 13.8498 36.8456
Pd 19.6323 25.8741 32.5139
Au 18.0861 14.7443 31.3502
Au 10.5445 17.8028 30.3163
Pd 12.8469 34.1156 27.1944
Au 10.9947 10.2576 29.4034
Au 22.7564 20.2933 28.537
Au 18.1816 12.0164 3.53231
Au 11.4614 12.0703 14.9179
Au 27.3237 22.4596 9.33024
Au 16.485 17.467 9.56332
Pd 26.767 21.4983 6.7889
Au 30.9019 16.5234 11.8803
Au 25.4658 10.59 5.15106
Au 27.1703 22.707 11.9072
Pd 31.6289 27.396 14.2301
Au 16.323 21.8733 5.74023
Au 18.1934 31.4431 21.5252
Au 15.3962 35.4361 15.5935
Pd 23.5064 26.5915 12.9733
Pd 32.4357 18.3622 26.7035
Au 3.67213 23.7164 21.1402
Au 17.0036 17.4751 19.0028
Au 31.7582 19.0945 15.5623
Au 24.314 23.8787 17.5699
Pd 17.2517 16.0394 15.9696
Au 17.2171 16.4232 11.9753
Pd 9.54388 12.4709 28.7336
Au 22.162 18.5798 26.3328
Pd 19.4568 32.0818 28.0552
Au 19.532 20.048 22.802
Au 26.2312 23.2003 33.1422
Au 16.3916 14.8671 24.0405
Pd 20.9634 32.0037 21.2148
Au 8.32155 19.8609 33.8756
Au 29.1245 24.9667 26.3785
Au 9.82507 20.1917 31.6877
Au 13.0003 15.9535 5.91039
Pd 26.5625 25.2973 9.07548
Au 21.8227 17.3328 1.11995
Pd 17.9371 33.9559 18.2981
Au 17.8262 36.0858 16.6235
Au 23.4984 19.3177 1.82629
Pd 15.0761 24.3528 4.9497
Au 7.16348 27.9507 17.5159
Pd 34.4987 17.1676 24.553
Au 32.3341 21.6697 15.3255
Au 17.0252 33.0123 12.871
Au 9.13652 32.3443 15.4852
Au 18.5878 28.6968 22.5468
Pd 27.4307 16.2964 24.3498
Au 26.8462 16.4248 31.3856
Au 21.4721 21.6241 12.6128
Au 25.56 20.9891 31.2647
Pd 31.2323 25.7817 25.0847
Au 18.5258 25.7183 22.4738
Au 14.5331 25.7288 13.2709
Au 30.5828 22.2401 30.3283
Au 20.8439 21.8735 24.5397
Au 25.4087 28.9526 21.6241
Au 7.824 21.8862 24.4647
Au 20.9641 24.7166 23.6748
Au 14.4926 28.03 23.8416
Au 16.3356 22.6935 30.8552
Pd 23.1294 24.0552 22.1804
Au 26.7409 29.0354 28.8861
Pd 29.8061 30.3196 25.3502
Au 23.722 34.726 14.7204
Au 27.0853 33.1937 10.7264
Au 14.9082 33.098 8.12909
Au 19.2053 16.1036 9.75841
Au 12.5126 22.1196 9.92345
Au 14.2379 28.2151 8.95094
Pd 16.6084 27.5309 12.8518
Pd 10.9665 30.5335 16.4752
Au 17.5038 24.0084 26.438
Au 19.4945 26.9073 3.08467
Au 11.8078 27.4525 22.8802
Au 18.3435 30.6262 8.97011
Au 23.4184 26.8485 21.642
Au 22.0151 26.3464 3.79784
Au 30.2265 20.4657 19.7174
Au 21.413 33.8386 28.6923
Au 24.007 19.613 19.2146
Pd 13.8948 33.6725 22.4505
Au 27.2302 23.6347 28.0349
Au 20.4437 29.5524 28.8474
Pd 21.0438 30.2655 23.2105
Au 19.6846 34.1344 16.1555
Pd 12.6128 18.4809 18.75
Au 22.6704 16.1086 22.7323
Au 33.214 31.53 17.6075
Au 12.2304 19.0984 32.1125
Au 31.2598 17.9388 29.2237
Au 21.3424 25.7185 34.7284
Pd 17.8831 26.5147 17.6615
Pd 21.392 32.9774 23.7552
Au 20.6988 23.9062 10.3776
Au 22.9986 32.122 8.30426
Pd 25.7049 26.3871 20.3635
Au 29.9148 23.3138 12.817
Pd 11.9924 27.3825 7.4319
Pd 11.4573 29.0705 12.0055
Au 26.0166 31.2623 12.1592
Pd 23.9901 25.2146 15.2978
Au 14.5945 27.101 4.12702
Au 12.2923 30.6769 29.9908
Au 17.8146 23.9481 10.0039
Au 23.229 25.0065 19.6661
Au 23.5002 36.6295 21.8231
Au 33.7539 26.1905 26.3437
Au 9.38021 31.186 25.9879
Pd 14.0017 26.0908 21.6646
Au 23.819 33.4285 19.4684
Au 30.3191 27.136 19.5573
Au 20.4611 35.633 23.586
Au 25.105 33.0861 24.4712
Au 22.7095 19.9051 31.5534
Au 22.0112 34.4105 21.4708
Au 20.017 36.1021 18.2794
Pd 19.5386 19.0399 25.8038
Au 21.9157 26.6932 25.1834
Au 22.6748 26.3439 17.3952
Au 15.1942 23.8769 35.7111
Pd 20.5712 21.2059 29.9829
Au 20.29 23.8878 26.4872
Au 24.5466 28.4462 32.1415
Au 17.8807 9.52104 2.63751
Au 25.9959 9.25058 7.59427
Au 32.3596 11.9152 12.1982
Au 21.5121 8.66527 15.5073
Au 26.166 14.0438 2.40913
Au 21.8208 5.66139 30.0558
Au 16.8667 5.67056 5.02007
Pd 30.5219 14.7477 13.8994
Au 22.0272 11.1189 34.1189
Au 26.5647 7.76969 9.81204
Au 24.0203 10.3923 24.5167
Pd 23.3628 9.05916 32.8406
Pd 22.7458 13.6892 33.9948
Pd 21.9264 6.24564 25.0041
Au 20.604 18.3876 35.3932
Au 28.3743 18.9865 12.7001
Pd 23.1875 8.66707 13.2218
Au 13.4298 15.363 13.4266
Au 11.7583 14.9212 8.0118
Au 24.6678 13.0855 13.9893
Pd 10.7236 11.8371 20.8286
Au 17.3383 2.63853 14.7793
Au 21.7862 13.0243 7.11682
Au 20.8356 14.8545 11.6883
Au 24.7345 5.43848 16.7532
Au 17.3462 12.3529 7.78265
Au 23.814 3.8749 11.6935
Au 28.2947 8.23919 22.1844
Au 26.8436 17.7206 14.815
Au 21.5241 2.61145 22.7196
Au 26.2462 6.65601 21.3784
Au 20.9492 16.4181 37.3661
Au 24.8458 6.41983 12.9002
Au 32.3521 10.8111 18.9354
Au 9.91674 10.8823 32.3943
Pd 24.4123 8.42751 22.6398
Au 30.7291 9.22712 28.9487
Pd 24.9917 18.349 32.2352
Au 14.6061 11.1908 32.4046
Au 24.8573 20.2486 36.6619
Au 21.0418 7.90128 31.6276
Au 18.587 19.3398 33.6615
Pd 18.9601 14.5164 28.3544
Au 12.6964 15.3906 34.4691
Au 30.7108 8.10403 26.4212
Pd 14.4592 20.5858 11.395
Au 28.7901 25.3164 5.05211
Au 33.9635 19.2229 14.0247
Au 27.3222 10.4078 9.91765
Au 30.2333 11.8526 13.8469
Au 30.1769 13.7311 8.42286
Au 17.3874 7.62166 6.66666
Au 23.4813 13.9302 11.6207
Au 14.2302 9.65539 9.22541
Au 21.0903 10.5937 13.6869
Pd 16.397 18.9461 12.1966
Pd 20.076 29.5279 20.5046
Au 32.7074 15.5034 10.1092
Au 12.2538 9.8239 16.9065
Pd 20.5622 14.2491 15.9686
Au 24.4868 14.2512 18.5537
Au 29.9138 18.046 17.2588
Au 19.2366 18.1151 16.6976
Au 20.4989 3.46602 17.9269
Au 22.7563 11.9634 28.722
Pd 18.2205 11.8135 34.232
Au 26.0772 11.911 11.8992
Au 25.3663 12.5478 29.5481
Au 28.7913 23.1041 34.1814
Pd 20.816 17.8282 21.8922
Au 24.2357 11.9357 35.6711
Pd 20.3849 8.4191 26.7149
Pd 34.1099 19.0401 22.3295
Au 18.4581 32.198 32.2434
Au 15.647 17.4283 22.7964
Au 32.8803 22.5875 31.8073
Pd 22.5355 19.7864 8.20807
Au 29.1694 27.7424 13.1033
Au 19.0633 24.619 15.8679
Au 20.7251 21.9907 8.18247
Pd 26.6073 27.8173 8.04264
Pd 18.7587 18.5547 2.88246
Au 19.8941 21.1571 3.45275
Pd 13.4139 19.2929 13.6148
Au 30.9222 13.8461 11.1242
Pd 15.2472 17.2519 14.266
Au 18.238 6.64772 9.2138
Au 20.4637 13.017 21.3444
Au 30.3032 23.1953 5.95484
Pd 22.811 12.0596 19.8288
Au 19.7826 28.6267 7.78473
Pd 28.2145 19.8892 21.3973
Au 15.5187 12.1578 9.75764
Pd 24.3048 16.49 11.0322
Au 25.0768 15.1775 23.6378
Au 27.9612 22.7361 25.2259
Au 21.9344 19.3536 23.8
Au 24.1752 14.1875 27.6418
Au 22.7392 12.7507 17.0459
Au 10.8289 20.4813 34.4691
Au 27.1129 18.8334 35.7982
Au 18.9399 23.376 31.2679
Au 32.1383 13.4046 25.6399
Au 20.5925 18.6699 28.6657
Au 30.7737 24.0801 32.6337
Au 25.0007 12.9773 9.55593
Pd 30.8586 24.6298 8.20892
Au 23.3472 14.9269 15.6058
Au 26.6644 11.9208 7.49016
Pd 24.9688 18.1378 4.12671
Pd 17.1519 33.4055 15.5943
Au 28.0511 23.8101 7.16173