1687
Atoms. Timestep: 20214
Au 5.70356 5.54969 7.50475
Au 5.64924 5.49761 11.3578
Au 5.61345 5.49351 15.3082
Au 5.58435 5.49867 19.3368
Au 5.61573 5.50899 23.3579
Au 5.66893 5.54743 27.2794
Au 5.73383 5.57386 31.0959
Pd 5.66562 7.46272 5.66112
Au 5.46434 7.39256 9.42693
Au 5.45027 9.39373 7.47684
Pd 5.51702 7.35706 13.3333
Au 5.38926 9.3541 11.3857
Au 5.41903 7.3131 17.3015
Pd 5.41376 9.29442 15.3052
Au 5.41748 7.31744 21.3455
Au 5.31319 9.26021 19.315
Au 5.46847 7.35963 25.3301
Pd 5.41083 9.28095 23.3396
Pd 5.58748 7.42356 29.2001
Pd 5.46973 9.33251 27.2672
Pd 5.74278 7.4403 32.9751
Pd 5.57588 9.36348 31.1555
Au 5.5574 11.312 5.58189
Pd 5.4276 11.3621 9.40429
Au 5.39924 13.3232 7.39125
Au 5.31475 11.3151 13.3158
Au 5.31666 13.3206 11.3496
Au 5.25308 11.2638 17.2895
Au 5.21941 13.2823 15.2723
Au 5.24168 11.2564 21.3376
Au 5.1604 13.257 19.3072
Pd 5.35264 11.3008 25.3174
Au 5.18747 13.275 23.3384
Au 5.38044 11.3211 29.2611
Au 5.27472 13.3199 27.323
Au 5.63243 11.2793 33.0639
Au 5.40552 13.2917 31.2727
Au 5.55139 15.3279 5.54489
Au 5.32517 15.3194 9.33863
Au 5.40864 17.3319 7.36425
Au 5.23091 15.3059 13.2713
Au 5.26109 17.3312 11.2825
Au 5.13037 15.2821 17.2847
Au 5.14315 17.317 15.2652
Au 5.11018 15.2826 21.3174
Au 5.08636 17.3102 19.2963
Au 5.18339 15.3068 25.3682
Au 5.1092 17.314 23.3477
Au 5.3171 15.3196 29.3445
Au 5.23755 17.3117 27.3918
Au 5.5588 15.2993 33.096
Au 5.37585 17.3247 31.2985
Pd 5.59617 19.3272 5.55753
Au 5.32465 19.3301 9.29139
Au 5.42659 21.3132 7.35558
Au 5.18858 19.3382 13.2599
Au 5.26963 21.3162 11.2743
Au 5.11174 19.3508 17.2817
Au 5.17553 21.3429 15.2929
Au 5.08581 19.3432 21.3164
Au 5.11929 21.3552 19.2848
Au 5.15487 19.3295 25.3814
Au 5.13072 21.3568 23.3414
Au 5.31106 19.3335 29.3719
Au 5.24098 21.3401 27.3962
Au 5.54433 19.3553 33.0927
Pd 5.46915 21.3521 31.2561
Au 5.58573 23.3058 5.53348
Pd 5.40178 23.299 9.30007
Au 5.43836 25.2904 7.3612
Pd 5.28654 23.3014 13.2948
Au 5.30158 25.2591 11.3202
Pd 5.2259 23.3342 17.294
Au 5.2333 25.2862 15.3065
Au 5.13766 23.3504 21.3149
Au 5.19419 25.3331 19.3007
Au 5.20496 23.344 25.3434
Au 5.21203 25.3307 23.3136
Au 5.35284 23.3284 29.3451
Au 5.30411 25.3133 27.338
Au 5.59777 23.3292 33.0735
Au 5.44429 25.2896 31.2498
Au 5.64293 27.2517 5.549
Au 5.36317 27.2264 9.34894
Au 5.47455 29.1648 7.41711
Au 5.26732 27.2471 13.3198
Au 5.34783 29.2343 11.3459
Au 5.22848 27.3024 17.3096
Au 5.28744 29.3197 15.3029
Pd 5.30166 27.3344 21.3125
Au 5.29183 29.3256 19.3231
Au 5.28488 27.2943 25.3069
Au 5.32186 29.3081 23.2999
Au 5.40036 27.2559 29.2784
Au 5.37908 29.2244 27.2858
Au 5.62663 27.2685 33.0809
Au 5.47357 29.2179 31.2019
Au 5.66413 31.0835 5.59554
Pd 5.5112 31.1263 9.37115
Au 5.64711 32.9577 7.44619
Au 5.38767 31.2634 13.2899
Au 5.58419 33.0482 11.2864
Au 5.35388 31.2853 17.3133
Pd 5.54645 33.0788 15.2946
Au 5.36397 31.2643 21.3115
Au 5.51571 33.0937 19.3131
Au 5.39786 31.2362 25.32
Au 5.52697 33.0731 23.3209
Au 5.4559 31.1528 29.2231
Au 5.58461 33.0627 27.3212
Au 5.68731 31.1366 33.0248
Pd 5.65782 32.9723 31.1255
Au 7.54492 5.59516 5.62758
Au 7.52228 5.38264 9.42313
Pd 9.4765 5.46574 7.45232
Au 7.45773 5.3493 13.3504
Pd 9.44098 5.37086 11.399
Au 7.40688 5.34272 17.3319
Pd 9.37671 5.3441 15.3532
Au 7.42629 5.36518 21.3406
Au 9.36272 5.30091 19.353
Au 7.47936 5.39046 25.3047
Pd 9.3944 5.39034 23.2998
Au 7.5481 5.40464 29.1744
Au 9.46435 5.34448 27.2203
Au 7.58552 5.55281 32.9513
Au 9.49398 5.38681 31.1316
Au 7.47033 9.40306 5.42369
Au 9.45352 7.43095 5.40276
Au 7.54753 7.48013 7.51173
Au 7.40267 9.422 9.45716
Au 9.4991 7.35654 9.4489
Au 9.48282 9.43432 7.35501
Au 7.46959 7.38535 11.3932
Au 7.36207 9.37935 13.3536
Au 9.43126 7.29849 13.3833
Au 9.43505 9.38859 11.425
Au 7.43477 7.36076 15.3338
Au 7.30844 9.33318 17.3216
Au 9.38629 7.27049 17.346
Pd 9.36089 9.33661 15.3437
Au 7.4144 7.3528 19.332
Au 7.30174 9.33379 21.3123
Pd 9.3815 7.31261 21.309
Pd 9.33535 9.33031 19.3199
Au 7.44791 7.36732 23.3181
Au 7.36498 9.36075 25.2897
Pd 9.44797 7.33347 25.2683
Au 9.37164 9.34923 23.2979
Pd 7.52919 7.41276 27.2334
Au 7.46016 9.40585 29.1787
Pd 9.5047 7.37803 29.1665
Au 9.45122 9.39132 27.2154
Au 7.59948 7.4672 31.0988
Au 7.52406 9.38117 33.1904
Pd 9.46147 7.43247 33.1257
Pd 9.48685 9.42184 31.2268
Au 7.38509 13.3193 5.38292
Au 9.41612 11.3732 5.33529
Au 7.43512 11.3722 7.41777
Au 7.31905 13.3502 9.40703
Au 9.42242 11.4014 9.39412
Au 9.41123 13.3435 7.30263
Pd 7.33719 11.3739 11.408
Pd 7.24492 13.3368 13.3297
Pd 9.33558 11.3608 13.3779
Au 9.32266 13.3527 11.3816
Au 7.25312 11.3403 15.3123
Au 7.14387 13.3139 17.3144
Au 9.27223 11.3435 17.3284
Au 9.24203 13.3419 15.3335
Au 7.20062 11.3163 19.3126
Au 7.12601 13.3135 21.3057
Au 9.26702 11.3515 21.2944
Pd 9.19833 13.3358 19.3052
Au 7.23261 11.3412 23.3132
Au 7.19154 13.3532 25.307
Pd 9.32507 11.3754 25.2731
Au 9.23392 13.3473 23.3078
Au 7.31239 11.3756 27.2509
Au 7.30976 13.3537 29.264
Au 9.44204 11.3946 29.2345
Au 9.3265 13.3639 27.2531
Au 7.47226 11.3544 31.2155
Pd 7.41931 13.3162 33.1887
Au 9.40411 11.3527 33.307
Au 9.4184 13.3624 31.3499
Au 7.3812 17.3282 5.38311
Au 9.33634 15.3198 5.30532
Au 7.39693 15.3263 7.38931
Au 7.29434 17.342 9.36228
Au 9.35861 15.3411 9.35667
Au 9.36434 17.3409 7.28477
Pd 7.25289 15.3394 11.3462
Au 7.15523 17.3434 13.2947
Au 9.2336 15.3499 13.3303
Au 9.27727 17.3611 11.3361
Au 7.12436 15.3195 15.3009
Au 7.0552 17.3185 17.3064
Au 9.17823 15.3166 17.3303
Au 9.17081 17.3371 15.3141
Au 7.07257 15.3034 19.3076
Au 7.03258 17.3178 21.3063
Au 9.16158 15.3131 21.2895
Au 9.12677 17.3083 19.3134
Au 7.0854 15.322 23.3113
Au 7.10827 17.319 25.3361
Au 9.2216 15.3403 25.2981
Au 9.14605 17.3162 23.2973
Pd 7.22534 15.3394 27.3164
Pd 7.28622 17.3264 29.3094
Au 9.34353 15.3553 29.3044
Au 9.24455 17.3334 27.3092
Au 7.39034 15.3374 31.261
Au 7.35345 17.3299 33.2711
Pd 9.33323 15.3501 33.2792
Au 9.36729 17.3493 31.3781
Au 7.41156 21.3166 5.38724
Au 9.3298 19.3342 5.3131
Pd 7.42704 19.3223 7.40271
Au 7.31934 21.2886 9.35112
Pd 9.35173 19.3181 9.34054
Au 9.38304 21.304 7.31121
Pd 7.24118 19.3252 11.3169
Au 7.17131 21.2894 13.3025
Pd 9.21994 19.3189 13.3124
Au 9.3029 21.273 11.3252
Au 7.09548 19.3276 15.3029
Pd 7.10792 21.3161 17.3071
Au 9.12936 19.3188 17.3242
Au 9.17698 21.2876 15.3108
Au 7.03177 19.3341 19.3035
Au 7.05652 21.3421 21.3169
Au 9.11501 19.3177 21.3051
Au 9.12454 21.3196 19.3277
Au 7.05227 19.3266 23.3199
Au 7.11658 21.3301 25.3201
Au 9.17878 19.3261 25.3053
Au 9.14807 21.3259 23.2896
Au 7.17666 19.3253 27.3435
Pd 7.32156 21.3291 29.2973
Au 9.32871 19.3245 29.3207
Au 9.26129 21.3196 27.3116
Au 7.38103 19.3306 31.2618
Au 7.3829 21.3435 33.2483
Au 9.32681 19.3419 33.3361
Au 9.35818 21.3191 31.3421
Au 7.45155 25.2782 5.40014
Au 9.3942 23.3015 5.34846
Au 7.43923 23.2966 7.38373
Au 7.35797 25.2618 9.3624
Pd 9.37267 23.263 9.34586
Pd 9.42183 25.2433 7.35634
Au 7.25768 23.2798 11.3304
Pd 7.2373 25.2622 13.3329
Au 9.24951 23.2577 13.3142
Au 9.33928 25.2382 11.3284
Au 7.14756 23.2976 15.3222
Pd 7.17155 25.3004 17.3229
Au 9.15993 23.2888 17.3323
Au 9.21995 25.2684 15.3331
Au 7.09674 23.3157 19.3086
Au 7.14559 25.2912 21.3107
Pd 9.16185 23.3058 21.3093
Au 9.19869 25.2873 19.3363
Pd 7.1353 23.318 23.3049
Au 7.20527 25.2983 25.2909
Au 9.21961 23.302 25.2825
Au 9.22588 25.2857 23.2745
Au 7.23028 23.3121 27.3274
Pd 7.36567 25.279 29.2694
Pd 9.35318 23.2967 29.2979
Au 9.30843 25.2737 27.2805
Pd 7.43895 23.3183 31.2116
Au 7.43568 25.269 33.2225
Pd 9.33954 23.2976 33.2439
Pd 9.39723 25.2646 31.2904
Pd 7.52844 29.1635 5.48134
Au 9.43761 27.1926 5.36837
Pd 7.49136 27.2074 7.43385
Au 7.41858 29.1535 9.41248
Pd 9.42678 27.209 9.38115
Au 9.48996 29.1516 7.38178
Au 7.30001 27.2193 11.366
Au 7.29499 29.2422 13.3341
Au 9.31 27.2541 13.3378
Pd 9.40348 29.2375 11.3701
Au 7.19506 27.2591 15.325
Au 7.24448 29.2856 17.3162
Au 9.25022 27.2853 17.3331
Au 9.33931 29.2976 15.3349
Au 7.18533 27.2969 19.3152
Pd 7.29835 29.2907 21.3073
Au 9.2583 27.2985 21.3079
Au 9.32385 29.3165 19.3212
Au 7.2332 27.298 23.2901
Au 7.32467 29.2332 25.2824
Pd 9.30452 27.2561 25.2605
Pd 9.34322 29.2906 23.287
Pd 7.32955 27.2402 27.2705
Pd 7.4291 29.1814 29.2065
Pd 9.40766 27.2206 29.2431
Au 9.39536 29.2192 27.2385
Au 7.46727 27.2337 31.2057
Au 7.49884 29.2206 33.2139
Au 9.40247 27.2291 33.2942
Au 9.46799 29.1791 31.2386
Au 7.50962 32.9774 5.58432
Au 9.45762 31.1545 5.39895
Au 7.54897 31.0956 7.47729
Pd 7.48819 33.1377 9.37223
Au 9.47568 31.2464 9.42413
Au 9.44417 33.2008 7.41045
Au 7.43605 31.2038 11.3556
Au 7.37245 33.2547 13.2987
Au 9.38532 31.3494 13.3382
Au 9.38573 33.3029 11.3546
Au 7.37527 31.2601 15.312
Pd 7.36221 33.204 17.3185
Au 9.36434 31.3806 17.3181
Au 9.31101 33.3388 15.3121
Au 7.36348 31.2637 19.3223
Au 7.35111 33.2643 21.3123
Au 9.36319 31.3594 21.3181
Au 9.31402 33.3376 19.319
Au 7.3891 31.2363 23.2946
Au 7.38555 33.2426 25.2975
Au 9.39655 31.3271 25.2587
Au 9.3422 33.3177 23.2954
Au 7.44582 31.2028 27.2713
Au 7.48549 33.2061 29.2273
Pd 9.46452 31.2416 29.1967
Au 9.39879 33.2979 27.2585
Au 7.54283 31.1226 31.1134
Pd 7.55459 32.9992 32.9774
Pd 9.4535 31.1677 33.1175
Au 9.44459 33.2054 31.1552
Au 11.4187 5.5669 5.54759
Au 11.4367 5.31981 9.38349
Au 13.3876 5.39785 7.38278
Au 11.395 5.2531 13.3835
Au 13.3897 5.25441 11.3615
Au 11.3677 5.25024 17.366
Au 13.3651 5.22695 15.3855
Pd 11.3655 5.34359 21.3164
Au 13.3491 5.26635 19.3418
Au 11.4062 5.29895 25.2445
Au 13.3536 5.27322 23.2704
Au 11.447 5.34069 29.2111
Au 13.3948 5.29725 27.2482
Au 11.386 5.54787 33.0277
Au 13.3696 5.37745 31.2187
Au 11.4248 9.38636 5.32431
Au 13.3964 7.39315 5.40081
Au 11.44 7.41335 7.40492
Au 11.4541 9.4 9.39565
Au 13.3945 7.2999 9.39141
Au 13.3902 9.40123 7.30663
Au 11.4434 7.26943 11.4152
Pd 11.3863 9.30527 13.3898
Au 13.3739 7.20105 13.3836
Pd 13.3868 9.30538 11.3893
Au 11.3839 7.22108 15.3692
Au 11.3308 9.28169 17.3399
Pd 13.3462 7.20324 17.3598
Au 13.343 9.24641 15.364
Au 11.3617 7.22404 19.3351
Au 11.346 9.28438 21.2977
Pd 13.361 7.23278 21.3013
Au 13.3387 9.23853 19.3224
Au 11.3944 7.25346 23.2806
Au 11.413 9.33575 25.2639
Pd 13.386 7.24994 25.2525
Au 13.3704 9.2699 23.28
Au 11.4513 7.29074 27.2184
Au 11.4473 9.38313 29.2161
Pd 13.3942 7.32582 29.2268
Pd 13.3892 9.32207 27.2391
Au 11.4221 7.40867 31.1815
Au 11.3976 9.34918 33.2896
Pd 13.3628 7.38018 33.177
Au 13.3868 9.37756 31.3261
Pd 11.3671 13.3358 5.33065
Au 13.3683 11.3518 5.28271
Pd 11.4212 11.3857 7.30419
Pd 11.3928 13.3656 9.30215
Pd 13.3881 11.3829 9.30846
Au 13.3643 13.3495 7.22185
Au 11.4041 11.369 11.3796
Au 11.3262 13.3542 13.359
Au 13.3447 11.3177 13.3676
Au 13.3526 13.3659 11.3101
Au 11.3146 11.3346 15.3498
Pd 11.2542 13.3417 17.328
Au 13.3041 11.3132 17.3322
Pd 13.2988 13.3376 15.3437
Au 11.2834 11.3429 19.3114
Au 11.2669 13.3558 21.2958
Au 13.3298 11.3152 21.3131
Au 13.2735 13.3402 19.3163
Au 11.3353 11.366 23.3001
Pd 11.3289 13.3549 25.278
Au 13.3705 11.3565 25.2659
Pd 13.3271 13.334 23.294
Pd 11.4075 11.3889 27.235
Au 11.4003 13.375 29.3256
Au 13.3881 11.3732 29.3067
Au 13.3764 13.3655 27.295
Au 11.4163 11.3779 31.3856
Au 11.3581 13.3563 33.401
Au 13.3811 11.3204 33.396
Au 13.3762 13.3631 31.4722
Au 11.3183 17.334 5.24021
Au 13.3352 15.3211 5.22199
Au 11.3602 15.3433 7.22834
Au 11.3491 17.3571 9.29479
Au 13.3497 15.3651 9.24402
Au 13.3397 17.34 7.17624
Au 11.3421 15.3567 11.3259
Au 11.2806 17.3502 13.3027
Pd 13.3073 15.3531 13.3189
Pd 13.3158 17.3461 11.2678
Au 11.2645 15.3359 15.3318
Au 11.2132 17.3224 17.3306
Au 13.2571 15.3233 17.3252
Au 13.2696 17.3361 15.3242
Pd 11.2164 15.3167 19.3077
Au 11.2125 17.2925 21.2949
Pd 13.2766 15.3153 21.3021
Au 13.2482 17.3027 19.307
Au 11.2714 15.3156 23.2982
Au 11.2687 17.3286 25.3038
Au 13.3376 15.3149 25.307
Au 13.2827 17.309 23.301
Au 11.3344 15.3457 27.3011
Au 11.3603 17.3466 29.394
Au 13.3775 15.3584 29.4141
Au 13.3486 17.3255 27.371
Au 11.3828 15.3676 31.4487
Au 11.331 17.3614 33.3893
Au 13.3386 15.3607 33.4449
Pd 13.3484 17.3559 31.4758
Pd 11.333 21.3337 5.35912
Au 13.2937 19.3571 5.22297
Au 11.3514 19.3256 7.2373
Au 11.348 21.2798 9.29502
Pd 13.3239 19.3102 9.23743
Pd 13.3222 21.3044 7.24083
Pd 11.3131 19.3196 11.3047
Pd 11.2676 21.2753 13.2943
Au 13.2795 19.326 13.2704
Pd 13.3011 21.2746 11.2672
Au 11.2276 19.3204 15.3112
Au 11.2193 21.2917 17.3405
Pd 13.2498 19.3088 17.331
Au 13.2673 21.277 15.3072
Au 11.2051 19.3143 19.3194
Au 11.2134 21.3256 21.3006
Au 13.2522 19.3161 21.2977
Pd 13.2545 21.3042 19.3235
Au 11.2167 19.3198 23.2935
Au 11.2746 21.3228 25.2996
Au 13.3077 19.33 25.3297
Au 13.2797 21.3313 23.2983
Au 11.317 19.3299 27.3384
Au 11.356 21.3168 29.3826
Au 13.3591 19.3391 29.4471
Au 13.3593 21.3301 27.3747
Pd 11.3574 19.3387 31.4198
Au 11.3285 21.3206 33.3632
Au 13.3105 19.3496 33.4198
Pd 13.3556 21.3203 31.4492
Au 11.3793 25.2331 5.34787
Pd 13.3025 23.2946 5.35429
Pd 11.3553 23.2821 7.31258
Pd 11.3683 25.2328 9.31714
Au 13.3174 23.2577 9.25752
Pd 13.3433 25.2338 7.29178
Pd 11.3255 23.2438 11.3041
Au 11.3123 25.2458 13.3196
Au 13.2986 23.2343 13.2875
Au 13.3291 25.2447 11.2894
Au 11.2506 23.2578 15.3185
Au 11.2617 25.2871 17.3436
Au 13.2719 23.2821 17.3422
Au 13.3149 25.2806 15.3279
Au 11.2293 23.2996 19.347
Pd 11.2631 25.2972 21.3042
Pd 13.278 23.3106 21.2983
Au 13.2951 25.3117 19.3449
Au 11.2556 23.3098 23.2702
Au 11.3197 25.2759 25.2687
Pd 13.3281 23.2975 25.3077
Au 13.3176 25.2975 23.2703
Au 11.3364 23.2905 27.3131
Au 11.3742 25.2515 29.328
Au 13.3958 23.2828 29.4032
Au 13.3859 25.2573 27.3208
Au 11.365 23.2888 31.3981
Au 11.3479 25.2513 33.3558
Au 13.3517 23.288 33.4059
Au 13.3913 25.253 31.4326
Au 11.4131 29.1975 5.34395
Pd 13.3474 27.2171 5.37434
Au 11.4048 27.1864 7.33046
Pd 11.4184 29.2249 9.38112
Pd 13.364 27.231 9.30648
Au 13.3656 29.2114 7.32051
Au 11.375 27.2498 11.3291
Au 11.3701 29.3388 13.3425
Au 13.3526 27.3053 13.331
Au 13.3784 29.3152 11.3415
Au 11.3253 27.2996 15.3422
Au 11.3582 29.3808 17.3373
Au 13.3304 27.3608 17.3432
Au 13.3573 29.4169 15.3416
Au 11.3105 27.3252 19.3334
Au 11.3438 29.3819 21.3082
Au 13.3239 27.3516 21.3034
Pd 13.3374 29.4385 19.3188
Au 11.3093 27.3038 23.2768
Au 11.3647 29.3201 25.2566
Au 13.3678 27.3246 25.2712
Au 13.3563 29.404 23.294
Au 11.3797 27.2503 27.2496
Au 11.4239 29.2351 29.2237
Au 13.3961 27.252 29.3099
Pd 13.3861 29.3358 27.2377
Au 11.4033 27.2175 31.3602
Au 11.4035 29.2571 33.2963
Au 13.3729 27.2659 33.3832
Au 13.3866 29.2482 31.3348
Au 11.3893 33.0534 5.52888
Au 13.3738 31.2144 5.37623
Au 11.4175 31.2044 7.40226
Au 11.4083 33.3161 9.36314
Au 13.3836 31.3314 9.37292
Au 13.3816 33.2388 7.35491
Au 11.4086 31.3682 11.3692
Pd 11.3675 33.3306 13.3337
Au 13.3852 31.4529 13.3451
Au 13.4023 33.3649 11.3319
Au 11.3687 31.4484 15.34
Au 11.3317 33.4138 17.3088
Pd 13.3423 31.4687 17.318
Au 13.3625 33.4156 15.324
Au 11.3594 31.4506 19.3027
Pd 11.3226 33.3336 21.3103
Au 13.3413 31.484 21.297
Au 13.3278 33.4377 19.2916
Pd 11.3642 31.3912 23.2941
Au 11.3633 33.365 25.266
Au 13.3787 31.4255 25.2791
Au 13.3352 33.4153 23.2983
Au 11.4075 31.3593 27.2398
Au 11.4104 33.3018 29.2581
Au 13.4013 31.3329 29.2274
Au 13.3915 33.3647 27.2806
Au 11.4176 31.2165 31.1895
Pd 11.3764 33.0662 33.0141
Au 13.3653 31.2579 33.2348
Au 13.3951 33.2368 31.24
Pd 15.3618 5.57275 5.57467
Pd 15.3615 5.36516 9.32591
Au 17.3357 5.40401 7.3768
Pd 15.354 5.27586 13.3594
Au 17.3331 5.25551 11.3221
Pd 15.3172 5.28284 17.3737
Pd 17.3035 5.25391 15.377
Pd 15.2993 5.28374 21.296
Pd 17.274 5.26433 19.3237
Au 15.3136 5.25203 25.2699
Au 17.2704 5.1964 23.2849
Au 15.3333 5.32434 29.2656
Pd 17.29 5.31156 27.285
Au 15.3498 5.52486 33.0633
Au 17.3455 5.35973 31.238
Pd 15.3629 9.33579 5.37588
Au 17.3338 7.37652 5.40758
Pd 15.3573 7.41642 7.41631
Au 15.3484 9.35379 9.35674
Au 17.3448 7.28378 9.36394
Au 17.3483 9.36057 7.2914
Au 15.3582 7.22033 11.3676
Au 15.3537 9.23617 13.3657
Au 17.3487 7.16431 13.3544
Au 17.3506 9.26543 11.3614
Au 15.3449 7.16041 15.3815
Au 15.3391 9.20016 17.3446
Pd 17.3153 7.1733 17.356
Au 17.3484 9.19081 15.357
Pd 15.3193 7.203 19.3257
Au 15.3423 9.22991 21.3072
Au 17.2921 7.1478 21.3049
Au 17.3238 9.19027 19.3199
Pd 15.3269 7.20768 23.2823
Au 15.3372 9.26518 25.2678
Au 17.2948 7.17286 25.2696
Au 17.3148 9.23712 23.2873
Pd 15.3275 7.26615 27.2524
Au 15.3517 9.33292 29.2618
Au 17.3306 7.26516 29.2458
Au 17.3285 9.27082 27.2649
Au 15.3543 7.37018 31.2265
Au 15.3714 9.3021 33.3237
Au 17.3679 7.32925 33.2343
Au 17.3558 9.33697 31.3483
Au 15.3482 13.3222 5.22219
Au 17.342 11.3203 5.26661
Au 15.3632 11.37 7.23191
Au 15.3579 13.3705 9.23815
Au 17.3445 11.3585 9.27099
Pd 17.3355 13.3477 7.18819
Au 15.3423 11.336 11.3351
Au 15.3134 13.3485 13.3307
Au 17.3451 11.2887 13.3453
Au 17.3343 13.3668 11.2727
Au 15.3304 11.2873 15.3494
Au 15.309 13.3117 17.3314
Au 17.3398 11.2528 17.3348
Au 17.3309 13.3117 15.3375
Au 15.3369 11.2739 19.3241
Au 15.3171 13.2983 21.3067
Pd 17.322 11.2623 21.3031
Pd 17.3188 13.2826 19.3114
Pd 15.3396 11.2994 23.2898
Pd 15.3475 13.3334 25.299
Au 17.3268 11.3042 25.2866
Au 17.3171 13.2841 23.2974
Au 15.3558 11.3456 27.2825
Au 15.369 13.3746 29.4051
Au 17.3448 11.3516 29.355
Au 17.3355 13.3604 27.3596
Au 15.365 11.3482 31.4282
Pd 15.3575 13.325 33.3849
Pd 17.3648 11.2966 33.3305
Au 17.3503 13.3498 31.4812
Au 15.3082 17.3284 5.1796
Au 17.3092 15.3222 5.18245
Au 15.3551 15.3462 7.16203
Pd 15.3179 17.3379 9.18864
Pd 17.3187 15.3592 9.18798
Pd 17.2994 17.3316 7.13927
Au 15.3177 15.3696 11.2499
Au 15.2835 17.3319 13.2751
Au 17.3206 15.3397 13.2818
Au 17.3107 17.3223 11.2087
Au 15.2835 15.3341 15.3274
Pd 15.2769 17.3157 17.3236
Au 17.3095 15.3112 17.333
Au 17.3016 17.3151 15.3083
Au 15.2959 15.3178 19.3117
Au 15.2907 17.3089 21.2993
Au 17.3123 15.3026 21.2929
Pd 17.302 17.3113 19.3085
Au 15.3103 15.3022 23.306
Au 15.3292 17.3158 25.3567
Au 17.3261 15.3251 25.3579
Au 17.3231 17.3268 23.331
Pd 15.3577 15.3374 27.3765
Au 15.3541 17.3276 29.4597
Pd 17.3408 15.3487 29.4581
Au 17.3395 17.3173 27.4199
Au 15.3519 15.3595 31.5156
Au 15.3268 17.3449 33.4778
Au 17.348 15.3104 33.4739
Au 17.3399 17.3334 31.5389
Au 15.252 21.3409 5.21468
Au 17.2756 19.3244 5.15473
Au 15.2973 19.3201 7.14496
Au 15.3003 21.2859 9.20679
Au 17.3024 19.3021 9.16226
Au 17.2942 21.3108 7.10976
Au 15.2886 19.3071 11.2288
Pd 15.2991 21.2757 13.2713
Au 17.3108 19.3098 13.2628
Au 17.328 21.2861 11.2364
Au 15.2756 19.3085 15.3122
Au 15.2756 21.2983 17.3246
Au 17.2958 19.2973 17.3098
Au 17.3123 21.2995 15.2948
Au 15.2704 19.2997 19.3005
Au 15.2859 21.3157 21.3033
Au 17.3108 19.3117 21.3179
Au 17.3052 21.3152 19.3013
Au 15.3086 19.3278 23.3231
Au 15.3237 21.3293 25.3489
Au 17.3292 19.3253 25.3694
Pd 17.3144 21.3027 23.3302
Au 15.3413 19.3301 27.4132
Pd 15.3543 21.3178 29.4615
Au 17.3324 19.3255 29.4813
Au 17.315 21.3176 27.4254
Au 15.3298 19.34 31.5196
Au 15.3283 21.3404 33.4398
Au 17.336 19.3444 33.481
Au 17.3239 21.3285 31.5093
Au 15.2827 25.2598 5.27715
Au 17.2741 23.3081 5.17521
Pd 15.3089 23.2805 7.21129
Au 15.3381 25.2475 9.24784
Au 17.3439 23.2737 9.2056
Au 17.3232 25.2473 7.17047
Au 15.3195 23.2503 11.2646
Au 15.3415 25.2751 13.303
Au 17.3388 23.2698 13.2758
Au 17.3737 25.2636 11.2699
Au 15.3111 23.2717 15.3059
Au 15.3187 25.3156 17.3266
Pd 17.3177 23.3108 17.3073
Au 17.3386 25.3086 15.3165
Au 15.2902 23.3143 19.3246
Pd 15.3136 25.3363 21.3044
Au 17.3074 23.3216 21.3138
Au 17.3146 25.3449 19.3089
Au 15.3079 23.3091 23.2963
Au 15.3359 25.2939 25.3107
Au 17.3154 23.2957 25.3472
Au 17.3177 25.3466 23.3013
Pd 15.3539 23.2924 27.3895
Pd 15.3662 25.2681 29.3953
Pd 17.3159 23.2968 29.4486
Au 17.3155 25.2958 27.3653
Pd 15.3493 23.2911 31.4463
Au 15.3648 25.2846 33.4038
Pd 17.3294 23.333 33.3817
Au 17.3229 25.285 31.4394
Pd 15.3368 29.2548 5.38844
Pd 17.3054 27.2614 5.31115
Au 15.3333 27.2242 7.24976
Au 15.3662 29.2615 9.33075
Au 17.3675 27.2426 9.26951
Au 17.3501 29.2362 7.26783
Au 15.3646 27.2766 11.3096
Au 15.3726 29.4001 13.338
Au 17.3691 27.3392 13.3175
Au 17.3736 29.3498 11.3493
Au 15.345 27.36 15.3289
Au 15.3302 29.4657 17.3287
Au 17.3305 27.3941 17.3203
Au 17.3513 29.4468 15.3243
Au 15.3162 27.3888 19.3222
Au 15.3332 29.4512 21.2978
Au 17.3231 27.406 21.2999
Au 17.3258 29.484 19.3016
Au 15.3474 27.3798 23.2917
Pd 15.361 29.4049 25.2803
Au 17.328 27.3829 25.3037
Pd 17.3281 29.4563 23.2933
Au 15.3599 27.3234 27.2858
Au 15.3557 29.2983 29.2548
Au 17.3278 27.2935 29.3396
Pd 17.3315 29.3733 27.2743
Au 15.3567 27.2668 31.4089
Au 15.3495 29.3064 33.3312
Pd 17.3477 27.3097 33.3136
Au 17.3338 29.2761 31.3498
Au 15.3654 33.0648 5.51504
Au 17.3508 31.2298 5.36672
Au 15.3625 31.2271 7.36799
Pd 15.3793 33.2525 9.3068
Au 17.3648 31.3325 9.34197
Au 17.3736 33.222 7.33633
Au 15.3825 31.4083 11.3494
Pd 15.3832 33.3555 13.3161
Pd 17.3552 31.4304 13.3355
Pd 17.3623 33.2955 11.3021
Au 15.3639 31.4937 15.3331
Pd 15.3341 33.3968 17.2987
Pd 17.3351 31.4969 17.3047
Au 17.3324 33.4322 15.3038
Au 15.3196 31.5157 19.2907
Au 15.3253 33.4612 21.2908
Au 17.3194 31.5214 21.2955
Pd 17.313 33.4096 19.2922
Au 15.3444 31.4826 23.2993
Au 15.3537 33.4037 25.3138
Au 17.3191 31.4465 25.2966
Pd 17.3188 33.4021 23.3102
Pd 15.3555 31.3734 27.263
Au 15.3675 33.3094 29.2904
Au 17.3194 31.3418 29.2608
Pd 17.3201 33.3158 27.3115
Pd 15.3532 31.2251 31.2266
Au 15.3511 33.0702 33.0925
Au 17.3326 31.2504 33.2566
Au 17.3241 33.226 31.269
Au 19.3004 5.5493 5.55202
Au 19.3096 5.3145 9.32192
Au 21.2858 5.38703 7.37913
Au 19.2809 5.19129 13.332
Au 21.2685 5.24466 11.3167
Au 19.2584 5.17149 17.3596
Au 21.2799 5.14423 15.3509
Pd 19.277 5.22644 21.3034
Pd 21.2916 5.21197 19.3189
Au 19.293 5.1902 25.2974
Au 21.3135 5.17625 23.2979
Au 19.3276 5.29146 29.2804
Au 21.3389 5.24537 27.2907
Au 19.3662 5.51639 33.0338
Au 21.3347 5.37721 31.2025
Au 19.3141 9.31838 5.31202
Au 21.3087 7.35563 5.39069
Pd 19.3206 7.39721 7.40519
Au 19.3279 9.32639 9.3448
Pd 21.2854 7.29266 9.37196
Au 21.2928 9.36046 7.28232
Pd 19.3121 7.21968 11.351
Pd 19.3188 9.21034 13.3635
Au 21.2702 7.13503 13.3569
Au 21.2819 9.25143 11.3772
Au 19.2983 7.12434 15.3659
Pd 19.3144 9.177 17.3362
Au 21.2899 7.10101 17.3316
Au 21.286 9.19969 15.3556
Au 19.29 7.12285 19.3104
Au 19.2965 9.19554 21.3027
Au 21.295 7.11327 21.3013
Au 21.2952 9.18563 19.2995
Au 19.2942 7.12438 23.2979
Au 19.3083 9.23963 25.2866
Au 21.311 7.1558 25.289
Au 21.2849 9.20634 23.2902
Au 19.3206 7.1968 27.2607
Au 19.3246 9.32785 29.2636
Au 21.315 7.27857 29.2219
Pd 21.289 9.2781 27.2649
Pd 19.3418 7.37912 31.1979
Au 19.3611 9.29249 33.3004
Au 21.3398 7.34572 33.1921
Au 21.3127 9.35407 31.3139
Au 19.3032 13.3124 5.2093
Au 21.3041 11.3207 5.25892
Pd 19.3112 11.3526 7.22838
Au 19.2977 13.3747 9.22035
Au 21.2858 11.3614 9.27665
Au 21.2789 13.3547 7.1616
Au 19.3251 11.3207 11.3338
Au 19.3371 13.3372 13.3198
Au 21.2964 11.2938 13.3715
Au 21.293 13.3746 11.302
Au 19.3299 11.2624 15.3518
Pd 19.3224 13.2854 17.3241
Au 21.3083 11.2734 17.3204
Pd 21.3156 13.3066 15.3365
Au 19.3052 11.2509 19.3035
Au 19.3029 13.2771 21.2952
Au 21.294 11.2602 21.2879
Au 21.3161 13.2952 19.3005
Pd 19.3029 11.2657 23.2904
Au 19.3015 13.3182 25.3288
Au 21.2691 11.2922 25.3019
Au 21.2855 13.3165 23.2932
Pd 19.3025 11.322 27.3079
Au 19.3138 13.366 29.4042
Au 21.2847 11.3512 29.3376
Au 21.2657 13.3543 27.3631
Au 19.3372 11.3445 31.4109
Au 19.355 13.2907 33.4214
Pd 21.3301 11.3048 33.28
Pd 21.298 13.3345 31.4199
Au 19.2844 17.326 5.14744
Au 21.3073 15.3389 5.17494
Au 19.2816 15.3467 7.12716
Au 19.3009 17.3251 9.16954
Au 21.2896 15.3606 9.21447
Au 21.3043 17.3438 7.11473
Pd 19.3124 15.3512 11.2472
Au 19.3333 17.3124 13.2645
Pd 21.3125 15.3293 13.2993
Au 21.3177 17.3148 11.2532
Au 19.3376 15.3018 15.3141
Au 19.3218 17.3071 17.3087
Au 21.3271 15.2813 17.3064
Au 21.3256 17.3065 15.2879
Au 19.3121 15.2912 19.3081
Au 19.3184 17.3142 21.3196
Pd 21.2999 15.3135 21.3091
Au 21.3184 17.2947 19.3105
Au 19.3169 15.3254 23.3151
Au 19.3207 17.3483 25.3697
Au 21.2807 15.3538 25.3387
Pd 21.2937 17.3257 23.33
Pd 19.3109 15.352 27.4026
Au 19.3126 17.3246 29.4765
Pd 21.2838 15.3545 29.451
Au 21.2767 17.3535 27.4071
Au 19.3314 15.3205 31.5081
Pd 19.3234 17.3177 33.4374
Au 21.3142 15.2805 33.4484
Au 21.2947 17.3316 31.5362
Au 19.3132 21.3087 5.14502
Au 21.3448 19.3139 5.14106
Au 19.3016 19.3089 7.09469
Au 19.3313 21.2823 9.17304
Pd 21.322 19.2949 9.18244
Au 21.3362 21.2642 7.11807
Au 19.3374 19.3007 11.2236
Au 19.3535 21.302 13.2711
Pd 21.3317 19.3071 13.2717
Au 21.3263 21.2881 11.2535
Au 19.343 19.3146 15.2822
Au 19.3316 21.3099 17.2852
Pd 21.3212 19.3096 17.2889
Pd 21.3308 21.3087 15.2817
Au 19.317 19.3031 19.3029
Au 19.3097 21.3014 21.334
Au 21.3111 19.3033 21.3363
Au 21.3213 21.3057 19.3033
Pd 19.3162 19.3103 23.3468
Au 19.3117 21.2786 25.3641
Pd 21.2937 19.3128 25.366
Au 21.3099 21.2875 23.3482
Pd 19.306 19.3206 27.422
Au 19.3053 21.3138 29.4663
Au 21.2878 19.3241 29.4664
Au 21.3069 21.2802 27.382
Pd 19.3133 19.3344 31.5197
Au 19.3092 21.3462 33.482
Au 21.2897 19.3275 33.4997
Au 21.2954 21.3206 31.5448
Au 19.3198 25.2782 5.1909
Pd 21.3529 23.2684 5.22479
Au 19.3225 23.2775 7.11896
Pd 19.3359 25.2508 9.21873
Au 21.3133 23.2629 9.20154
Au 21.3212 25.2535 7.15145
Pd 19.3432 23.271 11.2494
Au 19.3493 25.2825 13.3
Pd 21.3268 23.2886 13.3042
Au 21.299 25.2529 11.2971
Au 19.3463 23.3027 15.2958
Au 19.3392 25.341 17.3078
Au 21.3308 23.323 17.2825
Pd 21.3277 25.3129 15.3091
Au 19.3241 23.3308 19.2952
Au 19.3269 25.3589 21.2925
Au 21.3186 23.3153 21.3087
Pd 21.3293 25.3522 19.2939
Au 19.307 23.3051 23.3327
Au 19.3081 25.343 25.3353
Au 21.308 23.286 25.3533
Au 21.3003 25.3414 23.3126
Au 19.3026 23.2956 27.3939
Au 19.3032 25.2971 29.4045
Au 21.3072 23.2961 29.4246
Au 21.2951 25.3096 27.3441
Au 19.3197 23.3234 31.4883
Pd 19.3354 25.346 33.3273
Au 21.3025 23.3797 33.4388
Pd 21.3118 25.3077 31.4046
Au 19.323 29.2812 5.2903
Au 21.3327 27.2785 5.22452
Au 19.3319 27.2412 7.19133
Au 19.3363 29.2652 9.33583
Au 21.2922 27.2417 9.28314
Au 21.3112 29.2475 7.27469
Pd 19.3373 27.2825 11.3192
Pd 19.3353 29.4082 13.3391
Au 21.3073 27.3129 13.3346
Au 21.292 29.3312 11.357
Au 19.3428 27.3668 15.3186
Au 19.3356 29.4642 17.3208
Au 21.3351 27.3853 17.3244
Au 21.3132 29.4289 15.3387
Au 19.3407 27.4061 19.2995
Au 19.3226 29.4763 21.2879
Au 21.3205 27.3972 21.2686
Pd 21.3202 29.4591 19.2912
Au 19.3151 27.4034 23.3002
Au 19.3041 29.406 25.296
Pd 21.2921 27.3552 25.3053
Au 21.3033 29.4397 23.2905
Pd 19.3045 27.3272 27.3107
Au 19.3132 29.3019 29.2764
Au 21.2995 27.2881 29.3483
Au 21.2971 29.3513 27.2741
Au 19.3359 27.2961 31.3962
Au 19.3509 29.2958 33.3084
Pd 21.3254 27.3159 33.2675
Pd 21.3211 29.2708 31.3058
Au 19.3616 33.0271 5.53234
Au 21.3266 31.2171 5.38692
Pd 19.3344 31.192 7.38744
Au 19.3398 33.2844 9.29322
Pd 21.3052 31.2867 9.35474
Pd 21.3127 33.1225 7.38381
Au 19.3348 31.4049 11.3395
Pd 19.3114 33.366 13.304
Au 21.3015 31.4733 13.3387
Au 21.2959 33.3699 11.2763
Au 19.3144 31.5081 15.3248
Au 19.3075 33.4779 17.3101
Au 21.3217 31.5096 17.3328
Au 21.3159 33.4565 15.3313
Au 19.3258 31.5321 19.2906
Pd 19.3191 33.4159 21.2887
Au 21.3162 31.5138 21.2715
Au 21.335 33.462 19.3026
Au 19.3096 31.5084 23.2945
Au 19.294 33.437 25.3124
Au 21.3021 31.498 25.2814
Au 21.3045 33.4644 23.2754
Au 19.31 31.4243 27.2785
Pd 19.3112 33.2569 29.3302
Au 21.3213 31.3569 29.2623
Au 21.3005 33.4032 27.3169
Au 19.3323 31.2321 31.2513
Pd 19.3302 33.0566 33.0836
Au 21.3355 31.2335 33.2412
Au 21.3275 33.2389 31.2742
Au 23.3085 5.53807 5.59145
Au 23.267 5.30598 9.3404
Au 25.2891 5.38203 7.43365
Au 23.3091 5.19404 13.3283
Au 25.3395 5.27617 11.3265
Au 23.3364 5.15475 17.3461
Au 25.3652 5.21332 15.3447
Pd 23.3297 5.23607 21.3059
Au 25.3588 5.22959 19.33
Au 23.3367 5.23827 25.3059
Au 25.3259 5.24378 23.3021
Pd 23.3275 5.38965 29.2401
Pd 25.2956 5.38834 27.2458
Pd 23.3521 5.53821 32.991
Au 25.3139 5.42843 31.1423
Au 23.3117 9.32366 5.33288
Pd 25.2982 7.38889 5.49678
Au 23.2845 7.39289 7.41567
Au 23.269 9.344 9.37148
Au 25.2755 7.30562 9.40383
Pd 25.2514 9.40643 7.35149
Au 23.2705 7.19504 11.3709
Au 23.2727 9.23213 13.3871
Au 25.311 7.1852 13.3667
Au 25.2671 9.30877 11.4207
Au 23.2983 7.11478 15.3506
Au 23.2864 9.22324 17.3223
Au 25.3091 7.17065 17.3429
Au 25.2872 9.26457 15.3523
Au 23.3041 7.12333 19.3077
Au 23.2846 9.20803 21.2846
Au 25.3068 7.18342 21.2921
Au 25.2835 9.25105 19.3063
Au 23.303 7.14985 23.2953
Au 23.2706 9.26087 25.2738
Pd 25.2703 7.26041 25.2586
Au 25.2701 9.2786 23.2803
Pd 23.2884 7.2713 27.2364
Au 23.2777 9.36139 29.2442
Au 25.2705 7.34405 29.1808
Au 25.2453 9.3373 27.2167
Au 23.3114 7.39383 31.1848
Pd 23.3057 9.33322 33.2056
Au 25.294 7.39902 33.1541
Au 25.2616 9.41713 31.2761
Pd 23.2962 13.3663 5.28692
Au 25.2448 11.3829 5.27096
Au 23.2838 11.3661 7.2279
Au 23.272 13.3844 9.2619
Au 25.2458 11.4066 9.34781
Au 25.2583 13.4147 7.23701
Au 23.2661 11.3482 11.3687
Au 23.2753 13.3588 13.3538
Au 25.272 11.3386 13.3974
Au 25.28 13.3922 11.3594
Pd 23.2772 11.2977 15.3517
Pd 23.2914 13.3061 17.3165
Au 25.272 11.3208 17.3196
Au 25.2767 13.3471 15.3458
Pd 23.2882 11.2836 19.3
Au 23.2867 13.3408 21.292
Au 25.2757 11.3243 21.2919
Au 25.2869 13.3463 19.3084
Au 23.2745 11.2988 23.2873
Au 23.2641 13.3475 25.2983
Pd 25.2585 11.3576 25.2534
Au 25.28 13.3587 23.2768
Au 23.2653 11.3454 27.2873
Au 23.2571 13.3616 29.3962
Pd 25.241 11.3994 29.3047
Au 25.2537 13.3734 27.3163
Pd 23.2767 11.3586 31.3344
Pd 23.2878 13.2911 33.3144
Au 25.2484 11.3404 33.297
Au 25.2563 13.3357 31.3954
Au 23.3516 17.3364 5.20309
Pd 25.3064 15.3982 5.3122
Au 23.2915 15.3803 7.17289
Au 23.3173 17.3331 9.23196
Au 25.3009 15.3456 9.28863
Pd 25.3247 17.3127 7.25514
Pd 23.2959 15.3469 11.2986
Au 23.3097 17.2996 13.2953
Pd 25.3013 15.343 13.3368
Au 25.3095 17.3067 11.3207
Pd 23.2957 15.3141 15.3159
Au 23.3106 17.3021 17.3038
Au 25.3051 15.322 17.3243
Au 25.3243 17.3083 15.3005
Pd 23.3024 15.3091 19.3114
Au 23.2936 17.2865 21.3206
Pd 25.3112 15.3308 21.2983
Au 25.3349 17.2934 19.3214
Pd 23.2715 15.338 23.3014
Au 23.2617 17.3472 25.337
Au 25.2714 15.355 25.2996
Au 25.3022 17.3156 23.2955
Au 23.2523 15.3633 27.3796
Au 23.2714 17.3496 29.4505
Au 25.2706 15.3558 29.4034
Au 25.2772 17.3509 27.3566
Au 23.2709 15.3315 31.4841
Au 23.3038 17.3103 33.483
Au 25.2915 15.298 33.4015
Au 25.2995 17.3451 31.4951
Au 23.3857 21.2545 5.20229
Pd 25.3753 19.2567 5.30615
Au 23.3495 19.2889 7.16562
Au 23.3254 21.2548 9.21994
Pd 25.3102 19.2907 9.26345
Pd 25.3253 21.254 7.22888