1687
Atoms. Timestep: 21332
Au 4.35123 11.0577 15.0906
Au 11.9454 12.9674 14.5553
Au 4.82964 13.312 10.7403
Au 17.4131 7.84843 28.6382
Au 13.1562 3.87738 10.8729
Au 19.9896 15.9093 29.498
Au 17.0994 17.791 25.7462
Pd 14.0658 6.43408 10.6594
Au 13.4774 8.51036 5.48325
Au 20.5089 6.19466 11.567
Pd 13.0456 9.80079 28.969
Au 6.29993 8.85724 25.4729
Au 7.471 11.5977 22.4468
Pd 11.4062 14.02 9.45495
Au 14.5685 12.0427 18.9443
Au 11.4019 7.39454 6.7608
Au 24.5833 4.5692 20.5129
Pd 14.1768 10.8615 23.9399
Pd 12.2873 16.0445 25.0224
Pd 4.90758 10.5726 21.8651
Pd 14.2961 24.7779 21.8661
Pd 9.76678 15.4574 25.6751
Au 8.20547 8.77048 15.9206
Pd 2.93071 19.4164 19.5519
Au 14.1028 7.70776 15.1784
Au 5.80559 12.11 18.9069
Au 0.066998 16.0505 17.7754
Au 8.36807 18.8752 9.04959
Au 11.8295 12.0554 19.8938
Au 8.64989 10.2429 24.6064
Au 16.5141 5.485 24.6821
Pd 17.9734 9.07219 26.3331
Au 15.2475 6.0079 22.3999
Au 9.37426 13.5855 27.9613
Au 20.5159 8.74114 25.2245
Au 6.24519 26.1223 18.8276
Au 16.1245 12.6663 23.2027
Au 7.87044 28.147 18.7488
Au 11.018 12.8431 4.95864
Au 0.951766 23.8068 16.2831
Au 4.9217 12.1533 8.34214
Au 3.98436 15.6866 12.1022
Au 7.72082 23.2265 16.0249
Au 3.75132 17.8763 10.4562
Au 8.51935 9.95617 13.4589
Au 9.75496 5.2859 13.6937
Au 8.69249 13.0231 30.8212
Au 11.4044 11.1942 24.4222
Au 19.8819 10.686 34.081
Au 4.58207 18.5007 12.9109
Au 15.0635 32.553 30.5146
Au 10.1335 11.2053 26.9039
Pd 9.43761 25.0789 13.2021
Au 8.58701 14.2511 4.95266
Au 9.05623 12.6946 13.8153
Au 6.51037 27.7128 16.28
Au 3.80162 12.6921 23.2825
Au 6.54994 25.8328 21.4703
Au 7.78829 29.1863 12.0693
Au 2.83587 24.9837 24.3459
Au 8.4002 10.9724 29.0562
Au 7.05809 14.324 14.8611
Au 16.6058 24.694 23.7178
Au 9.21532 25.6225 22.7847
Au 2.039 16.2371 19.4243
Au 7.21135 11.6131 26.5706
Pd 8.23885 25.7659 25.5774
Au 1.01884 18.2635 20.9582
Pd 8.6779 17.3442 11.2603
Au 3.17954 15.5483 26.6749
Pd 10.0821 26.5633 27.2495
Au 5.32003 23.1406 14.4639
Pd 4.53893 27.0606 22.9034
Au 8.10799 27.6752 9.7189
Au 4.88892 13.3926 26.3206
Au 8.97201 32.3703 19.5125
Au 8.39853 23.7725 32.1681
Au 9.60399 26.0834 29.9825
Au 2.24003 16.9067 23.0649
Au 0.598067 22.8392 18.8012
Au 17.5023 23.7537 33.9755
Au 10.1826 16.4489 23.0665
Au 5.2059 24.5595 29.238
Au 9.73237 31.0396 12.3581
Au 12.3554 29.4241 7.86049
Au 7.74878 31.2258 27.9283
Au 3.05809 17.9931 25.4796
Au 10.5085 19.1057 7.30874
Au 5.5027 17.545 8.33939
Pd 24.8786 17.4721 11.3576
Au 12.95 31.0258 31.6034
Au 5.7248 19.5985 26.661
Au 6.53455 24.1762 27.001
Au 3.30492 22.6963 16.1549
Au 4.72215 22.2187 27.6577
Au 20.0239 31.7415 31.7435
Au 4.96862 26.8569 27.695
Au 9.47033 29.9879 9.93083
Pd 9.10892 14.7652 10.4967
Au 9.02497 26.0441 7.72871
Au 5.27322 25.9119 25.2032
Au 7.40215 31.8532 22.6938
Au 17.0988 30.7639 21.6409
Pd 22.1993 17.9926 11.7238
Au 14.6507 33.295 26.1349
Au 17.7547 35.1505 18.8779
Au 19.6907 32.2679 28.9766
Au 20.6837 37.66 21.1247
Au 11.8497 25.8894 31.4956
Au 28.2267 31.5863 23.7224
Au 10.8402 23.3151 31.0885
Pd 24.5345 27.8623 28.8293
Au 11.0005 18.6265 10.239
Au 7.91947 16.2224 8.52153
Pd 9.485 9.38334 10.8498
Au 10.0678 7.96246 17.8602
Pd 17.6119 19.9726 10.3641
Au 13.5923 6.4839 19.9499
Pd 15.8769 8.97191 6.87902
Au 26.3397 7.70742 23.8019
Au 17.2996 12.7782 17.7589
Au 14.3487 22.0008 28.1613
Pd 20.5542 1.95213 16.2755
Au 21.6555 11.9056 35.8345
Au 11.8031 5.47757 17.9725
Au 15.3429 9.53948 26.9444
Au 10.9232 12.1095 32.2134
Au 9.89256 7.13417 9.00483
Au 13.6177 14.4888 11.364
Au 16.6795 5.74029 10.7002
Au 18.2992 23.7705 13.0816
Au 9.08213 8.96186 7.02046
Au 11.4273 20.4437 3.46279
Au 15.6916 9.77463 14.3668
Au 6.54193 16.5289 13.0471
Au 22.8859 15.8874 13.1055
Au 12.1915 5.6393 8.80578
Au 6.75838 5.73802 20.0205
Au 16.167 6.43551 7.872
Au 10.217 8.56388 22.9123
Pd 18.0539 11.3701 21.6748
Au 13.4902 5.4828 28.1362
Au 6.07098 7.00712 16.1816
Pd 14.902 4.03757 26.4277
Pd 14.3253 8.45099 21.9631
Au 21.5614 9.94456 29.4966
Au 16.4007 13.9082 28.0185
Pd 18.8925 18.5872 34.3541
Au 26.5746 7.69761 28.4475
Pd 7.00173 10.0189 20.1869
Au 27.5687 5.58208 25.0773
Pd 19.9882 17.5118 26.62
Au 10.9978 11.7441 29.493
Au 11.3799 27.3706 33.6751
Au 13.4214 22.4555 20.8329
Pd 16.3953 17.618 17.6997
Pd 18.7206 6.40205 26.406
Au 24.4597 10.075 11.7836
Au 12.7589 22.863 5.26954
Au 15.4486 18.9381 8.76506
Au 8.91548 11.5814 6.02314
Au 13.1079 14.1111 3.84313
Au 9.36998 28.5824 16.5708
Pd 18.8263 5.58532 29.0088
Pd 6.72866 15.8405 6.16497
Pd 16.9048 16.6509 4.64882
Au 11.6949 15.177 6.33435
Au 22.8143 7.85678 23.8958
Au 5.92257 15.7291 22.0468
Au 8.77191 6.00377 16.394
Au 3.97818 17.7451 28.1896
Au 13.3743 4.92547 15.5835
Au 12.7573 8.00073 17.4975
Au 13.6398 17.8456 26.7503
Pd 8.45832 7.79036 20.9063
Au 6.51117 12.9114 28.7552
Au 8.94575 12.9849 24.9222
Pd 15.757 6.6959 26.8552
Au 1.31513 21.2605 21.067
Au 25.2747 6.72679 26.1693
Au 9.74662 5.81975 22.2535
Au 17.6998 15.3942 18.311
Au 13.8464 24.8522 27.6798
Au 1.49149 18.2873 17.3873
Pd 10.2822 21.8987 28.5373
Au 9.57927 17.3242 33.4507
Au 7.86034 13.337 17.335
Au 14.7772 26.7023 3.58984
Au 6.79238 10.5008 7.40365
Au 4.63916 15.6756 14.8688
Au 7.54116 19.0294 13.4135
Au 5.84576 9.00709 14.3884
Au 5.91903 20.1733 8.29632
Pd 4.94705 23.8186 19.6619
Au 0.516343 16.8753 15.2171
Au 6.48865 20.715 15.3953
Au 13.8569 23.2966 12.0296
Au 16.896 10.3413 24.2404
Au 6.99118 19.5124 30.7943
Au 6.78389 8.75023 11.791
Au 12.7287 16.5845 2.47592
Au 6.97261 8.97086 22.9052
Au 10.9554 6.25902 24.7138
Au 10.9603 6.41294 27.4611
Au 4.10735 15.231 24.2004
Au 7.19799 13.3823 9.2799
Au 16.6743 20.1782 29.6533
Au 7.89096 20.9604 17.7636
Au 10.7901 4.12932 15.8659
Pd 1.89636 13.6585 18.2976
Pd 15.8611 17.0012 28.096
Au 11.6057 16.8933 31.6211
Au 2.53626 22.4233 23.2572
Au 3.32728 12.2667 20.2689
Au 13.3647 23.8364 30.1765
Pd 15.1852 27.1113 25.5094
Au 12.4918 25.4782 35.392
Au 10.2882 27.5543 24.4648
Au 10.6138 15.4881 3.77173
Pd 15.0694 14.5763 17.6551
Au 2.57316 13.0111 15.6104
Pd 12.4833 27.9962 13.4595
Au 2.09434 15.0839 13.9754
Pd 3.66422 19.961 16.8392
Au 4.20899 9.67848 19.44
Pd 5.66702 18.1798 15.4638
Au 5.99765 21.1104 12.5609
Au 21.7753 23.2747 9.91963
Pd 11.2003 16.5071 18.8948
Au 2.31554 23.8204 20.7099
Au 6.95471 25.6037 30.914
Au 7.08499 6.27194 22.6324
Au 6.19935 11.3611 12.7732
Au 8.78776 12.0164 11.2757
Au 8.16534 18.1869 26.0662
Au 6.26322 22.3813 30.4275
Au 11.7344 15.85 27.6744
Au 5.94889 9.84962 17.3278
Au 9.78205 19.0827 23.8543
Au 5.10733 15.2628 28.4728
Pd 8.9921 25.8756 20.0299
Au 6.77568 17.8582 28.5001
Au 21.8063 30.8539 29.8557
Au 5.70586 16.9169 30.7033
Au 15.7154 24.7352 32.1015
Au 12.7072 21.3673 32.7108
Au 21.2635 26.5429 32.8364
Au 4.53058 13.3499 13.5646
Au 7.32368 18.4599 6.5046
Au 7.10872 23.6512 12.4425
Au 10.1542 21.0638 9.31987
Pd 14.4661 29.3597 14.7264
Pd 7.44587 21.3104 10.2065
Au 0.308196 20.0537 19.0072
Pd 7.42299 18.3404 17.4317
Au 14.8919 19.4991 16.4219
Au 17.7459 29.9601 9.12928
Au 14.5767 33.7262 15.3687
Pd 3.85527 20.6546 14.3364
Au 9.78564 25.544 10.4331
Au 14.2336 26.784 15.5699
Au 2.9128 19.4908 22.4684
Au 14.033 26.6349 33.5945
Pd 11.5958 17.7691 4.96843
Au 10.2408 21.7341 5.62029
Pd 5.30017 24.6993 16.8124
Au 1.96848 17.4978 12.7241
Au 12.3079 21.062 29.9987
Au 7.55403 8.54906 9.19072
Au 13.1748 14.625 19.5585
Pd 7.53722 16.1428 24.3077
Pd 4.04055 21.6254 21.1074
Au 21.6487 34.4808 28.7395
Pd 10.5601 28.46 31.1064
Au 25.554 32.4709 23.927
Pd 12.4486 6.59862 22.4403
Pd 10.8971 24.8857 25.0607
Pd 10.5001 29.5186 14.3835
Au 15.5513 26.1955 6.05995
Pd 14.6143 29.6727 9.5097
Au 11.5658 32.6293 10.8985
Pd 16.6748 30.76 11.4591
Au 18.3372 16.0717 11.4208
Au 11.4137 11.4328 10.3849
Au 10.8693 30.8789 17.1028
Au 12.9165 25.6149 5.30633
Pd 12.3121 28.6257 16.3517
Au 14.8029 21.6253 30.8935
Au 11.8995 22.4167 7.74136
Au 5.33133 23.1133 10.4493
Au 9.5741 30.7446 26.1648
Au 8.03187 30.8098 17.4375
Pd 7.27046 14.6795 26.6929
Au 12.0787 21.1147 11.3664
Au 12.8054 33.7435 17.7483
Au 5.64642 29.4905 18.0955
Au 17.4268 22.0962 27.8187
Pd 5.54571 28.583 25.5501
Pd 19.4253 24.4947 32.2451
Pd 5.6409 11.1378 24.4332
Pd 12.3468 34.393 27.3442
Pd 5.61159 13.179 21.3833
Au 15.1295 29.8684 30.2747
Au 1.60549 20.2086 24.7106
Au 21.0305 36.369 23.49
Au 6.94803 17.7627 32.8798
Au 19.3788 28.6385 25.5247
Au 5.64129 19.4493 21.5211
Au 11.8128 33.347 15.2769
Au 12.9695 24.7305 14.3851
Pd 6.35876 18.7633 10.8423
Au 14.7847 20.2773 11.116
Au 25.5684 22.6045 3.69066
Au 16.4492 33.3929 11.9712
Au 6.64442 22.7919 8.10396
Au 23.338 26.6302 11.1763
Au 11.4187 16.2124 11.3697
Au 16.2561 35.5975 24.1154
Pd 17.7109 30.648 14.1311
Au 12.3963 31.173 13.3888
Au 9.83474 30.9707 21.7447
Au 9.93685 29.6451 19.4096
Au 21.7755 32.3221 27.1042
Au 12.1052 27.069 29.0204
Au 3.56672 24.68 27.0092
Au 16.8162 28.9228 26.9151
Au 6.94099 30.9024 25.3266
Au 21.1594 14.8799 15.0146
Au 9.96689 33.3141 26.7312
Au 18.4346 33.9251 22.8283
Au 5.97404 29.5799 22.921
Pd 30.8701 32.6683 17.8295
Au 29.8551 31.3164 30.2238
Au 4.0904 27.1864 17.7773
Pd 18.3173 18.0519 28.9252
Pd 15.9962 23.8046 29.3311
Au 18.3817 19.4583 31.7667
Au 19.4624 17.6193 4.12002
Au 18.3023 9.96138 5.79877
Au 24.6574 15.771 3.07564
Au 8.54559 10.5632 17.9869
Au 23.2987 4.55648 26.5231
Au 24.1467 12.3741 34.8331
Au 12.0981 3.88762 13.4112
Pd 22.2187 8.68447 21.3909
Au 9.93385 14.6779 15.6856
Au 17.67 12.1345 33.362
Au 21.9379 11.5231 18.2822
Au 17.4278 16.9865 23.1799
Au 21.312 6.50268 17.4679
Au 21.4165 14.0087 30.7802
Au 15.8711 10.0034 29.8713
Au 17.3948 19.3023 0.89798
Au 20.0969 7.46513 4.42768
Au 16.2065 17.8584 11.3678
Au 10.8002 9.35809 15.3779
Au 5.151 14.8292 8.20091
Au 29.9265 29.4836 10.5411
Au 15.4572 9.68271 4.06942
Pd 13.3279 11.2771 4.6454
Au 19.4352 2.2874 23.5645
Pd 16.9498 10.5434 19.1593
Au 19.3175 7.56495 30.6797
Au 23.5657 8.75486 6.89459
Pd 11.1945 7.59284 20.293
Au 10.3777 7.89797 13.0633
Au 22.4488 5.36916 21.9391
Au 19.0156 16.4924 16.0864
Pd 14.726 7.69171 29.1324
Au 21.441 12.4019 25.6678
Au 19.8488 3.72877 26.2376
Au 8.23951 8.98539 27.1626
Pd 14.7458 19.3186 24.5892
Au 14.6809 3.57301 23.8093
Au 25.2841 13.2687 16.0518
Au 13.8755 8.69889 31.5085
Pd 15.593 12.2367 25.8855
Pd 23.3427 15.3957 22.1247
Au 16.1029 17.7315 30.7596
Au 12.6995 13.7204 28.9576
Pd 6.9774 19.6562 24.1553
Au 15.7875 19.8016 27.0654
Pd 15.8945 12.8601 10.7866
Au 10.3391 18.0005 2.62618
Pd 11.3093 9.48612 8.51083
Pd 10.434 18.5393 21.1159
Pd 13.6376 7.94374 8.31755
Au 16.2853 21.4526 20.5314
Au 8.56807 6.77761 11.3113
Au 18.0809 15.4751 6.90547
Au 24.0832 8.78359 28.6622
Au 10.2019 21.6701 16.759
Au 11.8779 7.99868 10.721
Pd 21.623 16.93 17.0739
Au 10.8197 14.4671 20.9697
Pd 9.11259 19.508 15.6074
Au 19.8642 15.0219 4.84853
Au 10.1062 11.9061 22.2055
Au 12.2061 4.30001 26.0767
Au 15.2325 12.2003 16.1088
Au 28.5757 9.61941 28.5232
Pd 12.4009 22.7493 35.0159
Au 26.0286 10.4486 27.4389
Pd 14.8107 16.6211 24.5434
Pd 14.603 11.9659 28.39
Au 19.8372 10.8639 27.2367
Au 23.4586 17.2813 36.1641
Au 21.2401 5.42383 27.9786
Au 10.6103 24.5759 33.6915
Au 15.0288 14.0739 30.4382
Au 17.0794 21.339 25.061
Au 20.9076 22.3137 21.7484
Au 10.4642 24.4442 5.91928
Au 20.0314 18.5707 1.60521
Au 14.801 23.8986 16.4268
Au 13.5359 15.2405 8.45556
Au 16.8572 26.1085 14.3791
Au 19.698 31.4663 7.90161
Au 4.34267 20.5738 10.4572
Au 1.49132 22.0924 14.1228
Pd 11.9302 15.7379 13.975
Pd 12.4156 18.1764 23.2987
Au 10.9534 26.5834 15.1993
Au 12.6287 21.961 1.55515
Au 3.77953 26.1539 20.3584
Au 10.791 17.374 16.239
Pd 8.03095 19.2429 19.9681
Au 5.02074 17.8102 23.6335
Pd 3.07645 17.8305 15.1716
Au 18.9543 20.3226 21.2178
Au 15.903 8.03576 19.4717
Au 12.9778 10.7408 33.3383
Au 11.2199 20.9159 22.1183
Au 14.7978 12.85 33.1612
Au 7.21006 21.9572 25.4836
Au 8.53104 19.8362 33.1138
Au 17.1019 12.2831 30.6957
Au 4.51195 24.2653 22.3739
Au 25.2137 16.1622 27.1693
Au 12.0546 16.208 34.1751
Au 21.1643 18.8668 36.173
Pd 6.17907 15.8048 17.1257
Pd 7.00719 13.9209 12.1594
Au 13.7001 12.5605 9.26767
Au 4.87361 25.2574 12.6315
Au 10.2147 27.957 11.908
Pd 16.3398 21.6361 15.6496
Pd 16.6121 28.4399 13.0249
Pd 17.9539 18.6591 6.20123
Pd 11.1143 13.5444 12.1077
Au 4.26119 26.4802 15.1318
Pd 13.0378 27.6022 10.6533
Au 9.4226 16.674 6.26243
Au 2.80824 24.6946 18.0825
Pd 25.0375 13.3757 6.76888
Au 6.05698 21.9352 22.8566
Au 6.30777 17.1663 19.6582
Au 3.17104 14.7106 21.5454
Au 7.51403 26.4303 28.2838
Pd 8.31 23.8078 29.2855
Au 4.16349 17.4586 17.8945
Au 4.35277 14.6841 19.0087
Au 10.6516 8.72573 25.9138
Au 9.21988 23.5246 26.6888
Au 7.3262 24.7808 9.71886
Au 12.9562 27.8805 23.7165
Au 4.28294 20.5322 24.5877
Au 12.5768 15.2783 16.6105
Pd 26.0482 19.275 29.6307
Au 9.64438 20.761 26.0891
Au 10.648 19.5182 31.5086
Pd 14.4681 15.1317 34.6233
Au 18.2226 12.9263 5.56629
Pd 12.9547 18.2051 14.944
Pd 10.742 23.5286 21.3096
Pd 10.2875 24.0027 15.5177
Au 15.7326 7.04744 5.02991
Pd 5.49249 22.1112 17.5349
Pd 12.5958 29.3054 19.0048
Au 20.6351 31.3211 18.0333
Au 11.2059 13.9052 23.6724
Au 31.6382 15.6189 17.7215
Au 3.79592 8.74234 16.5097
Au 9.274 19.2757 4.83119
Au 7.62531 29.9256 14.7814
Au 18.3997 25.7844 19.1655
Au 11.8031 32.9764 22.177
Pd 16.2499 26.2394 27.9576
Pd 16.3562 33.0791 20.2907
Au 10.2911 17.9832 13.4692
Au 10.1031 33.4271 17.3917
Au 11.4106 9.63524 31.2214
Pd 14.2811 16.2975 32.2453
Au 22.6136 24.6391 16.7263
Au 3.54556 22.6227 12.3733
Au 12.0663 25.3066 19.9091
Au 9.19596 19.3889 28.6554
Au 12.7247 32.5866 29.252
Au 15.0362 26.5787 36.2903
Au 12.3297 20.2366 27.372
Au 6.49037 28.9715 28.266
Au 13.4884 18.884 31.8091
Au 34.1612 19.7112 9.43884
Pd 17.2248 20.6882 7.78443
Au 8.20658 16.8873 3.98437
Pd 19.1949 21.2729 1.0878
Pd 24.9369 19.9909 7.5174
Au 14.1259 24.2492 7.44848
Au 15.0499 17.7506 1.41102
Au 32.3604 28.9065 11.8589
Au 25.7356 29.2668 17.1091
Au 8.07706 23.5207 21.3698
Au 23.2504 37.4816 22.1246
Au 9.55525 22.7436 23.8964
Au 14.6992 31.0966 27.8918
Au 14.6616 34.5006 28.6302
Au 8.14837 28.2608 21.4576
Au 9.64105 32.4967 24.1361
Au 22.9968 37.5659 19.3079
Pd 21.7964 32.8347 20.1323
Au 25.7565 32.0056 10.5723
Au 15.2796 22.3106 33.4719
Au 13.2057 29.3712 33.8049
Au 23.0512 34.9184 18.2533
Au 7.1481 27.3074 23.7549
Au 4.75439 23.183 24.9941
Au 21.4225 26.9002 23.4683
Pd 15.1855 31.7131 13.6569
Au 23.2148 25.8615 30.2285
Au 27.6136 23.126 35.5559
Au 19.6813 34.3957 30.5561
Au 5.58526 16.7581 26.1421
Au 10.7879 27.7435 9.15327
Au 20.2807 17.1966 6.7984
Au 24.1909 11.2311 9.25206
Au 12.2357 20.0972 19.6429
Au 13.0422 31.8142 8.74301
Au 13.5597 24.2523 2.9372
Au 2.76437 24.4944 14.2537
Pd 18.9584 32.6208 20.0687
Au 26.4081 15.8664 15.6627
Au 13.9489 24.791 24.7172
Au 19.9621 24.4528 17.3499
Au 15.8248 32.0595 8.97508
Pd 26.9519 33.9836 19.4444
Au 11.2033 27.2992 6.48193
Au 7.15862 30.5015 20.2848
Pd 26.1378 31.5671 18.4317
Au 19.0857 34.5283 27.5862
Au 11.3984 30.232 24.1745
Pd 16.1552 28.2537 7.87165
Au 1.12768 21.0988 16.7184
Au 12.2677 10.1999 21.9531
Au 14.8888 29.7259 23.0243
Au 16.8059 19.7933 22.8316
Au 18.6208 23.6359 25.3901
Au 22.1592 35.4355 20.7334
Au 20.3181 26.2513 30.2614
Au 23.2928 24.7688 23.9339
Pd 8.67618 29.6369 23.7509
Au 9.41134 31.9521 15.0707
Au 17.6424 32.6647 30.8744
Pd 11.3359 12.1143 7.56802
Pd 14.7704 6.2047 17.5176
Au 20.3835 15.773 19.2579
Pd 11.2923 6.74156 15.4798
Au 10.9635 5.44953 11.2471
Pd 23.3811 6.61315 15.4248
Pd 15.0536 17.7734 22.1158
Pd 23.8354 9.67363 18.9957
Pd 20.4563 6.91179 22.7983
Au 26.6625 5.06861 27.5873
Au 18.1429 15.7344 27.3285
Au 26.0466 9.90213 30.2628
Pd 19.7722 9.40919 22.5501
Au 13.5121 12.93 21.8623
Au 29.8398 11.6644 30.4053
Pd 23.1073 13.0725 11.2489
Au 23.2864 8.66579 9.79491
Pd 13.6303 17.3989 10.1686
Au 26.0708 20.0602 4.71211
Au 18.7875 8.75315 19.9601
Au 6.73209 13.1503 6.6125
Au 20.1302 15.751 2.21513
Au 18.3967 13.032 11.8451
Au 18.0039 6.30693 21.5505
Au 16.6757 7.84585 16.6707
Au 22.073 13.6649 20.2099
Au 13.7799 5.95342 6.56216
Pd 13.7327 11.9472 12.4927
Au 18.1305 8.12326 11.4068
Pd 26.6781 4.09667 13.5609
Au 26.9111 12.7262 22.2993
Au 26.8264 3.08274 15.9974
Au 21.7589 3.59493 24.1247
Pd 22.6896 7.44824 26.8
Au 13.4272 9.50261 19.6242
Au 20.1627 20.414 18.7607
Au 13.5834 11.6252 30.9289
Pd 11.7945 13.3886 26.3411
Au 20.2857 28.4261 18.1798
Au 30.217 9.12789 26.3886
Au 23.0633 2.48247 17.2821
Au 23.0993 11.3239 21.0644
Au 14.2484 15.0032 26.8945
Au 14.6703 26.3266 30.1873
Au 12.6256 14.2311 31.727
Au 26.4433 8.49056 5.75192
Au 13.4265 9.1399 12.7857
Au 31.774 23.1509 23.8047
Au 12.4615 19.1138 1.30272
Au 17.6112 11.3014 3.42445
Pd 24.2673 18.1653 4.16521
Au 18.1552 14.1203 9.37979
Au 19.8753 3.80379 13.8543
Au 2.34783 20.0946 12.1818
Au 30.067 20.9924 6.38905
Au 3.01442 20.1323 27.1368
Au 10.0244 11.8847 16.1835
Au 14.8647 19.221 19.5116
Au 17.3808 4.25009 27.2349
Au 24.4094 12.4005 18.4871
Au 24.2993 21.9587 17.5901
Pd 19.3328 8.34573 16.9574
Pd 30.8756 11.5919 12.3531
Pd 5.04612 13.3684 16.5641
Pd 16.0673 23.9775 26.3644
Au 17.9562 15.5484 20.9693
Au 16.3281 12.4195 13.6717
Au 12.4592 22.9394 23.4886
Au 4.92712 20.062 29.2645
Au 26.2983 15.3635 22.6434
Au 22.6462 20.9925 19.8647
Au 2.34826 22.4891 25.9743
Pd 12.9117 17.6058 20.5607
Pd 18.4767 15.8207 34.3969
Au 28.7791 6.86023 27.1138
Au 20.1608 27.2967 4.59307
Au 12.9981 17.7149 7.38447
Au 13.6218 10.5395 7.33244
Pd 24.285 22.0028 10.8243
Pd 20.5983 11.5018 5.76884
Pd 12.3409 25.0308 17.0708
Au 12.6609 22.3607 15.8032
Au 11.2814 22.9524 13.1941
Au 17.5986 19.1284 15.7056
Au 14.8843 29.2023 17.5227
Au 18.3903 31.3048 23.9149
Pd 2.65231 15.5912 16.7109
Au 6.37343 13.6762 24.1111
Au 7.07997 11.4964 15.4338
Au 7.77639 17.8845 22.3107
Au 10.4552 9.00645 28.6875
Au 12.7052 12.6522 17.1587
Pd 5.4904 19.6917 18.7519
Au 7.74441 15.3538 32.2027
Au 22.4468 10.1818 26.8546
Au 18.9283 10.6566 10.5454
Au 14.9884 16.5779 15.6394
Pd 17.1322 28.7484 24.0953
Au 10.9228 18.1451 26.1801
Pd 21.3467 12.7266 33.2798
Au 24.2309 6.02375 28.6193
Au 18.1974 22.5403 22.7017
Au 8.39214 14.2826 22.302
Au 7.39171 21.3677 28.1884
Au 12.3552 29.8624 29.2201
Au 11.66 25.2595 8.22441
Au 15.6539 16.5695 7.2756
Au 16.1485 10.9278 8.84769
Au 21.6277 29.0849 6.13385
Au 15.4627 19.05 13.7668
Au 23.9436 19.541 10.0002
Au 8.94658 16.3998 20.4541
Pd 14.2767 16.6369 12.9124
Au 6.63025 21.6643 20.131
Au 19.3813 22.0308 8.9154
Au 9.02545 11.1894 8.7252
Au 19.5042 24.7459 21.3122
Au 6.11973 15.9298 10.4669
Au 20.0385 21.3974 24.524
Au 10.4084 14.9942 30.1133
Au 24.8474 26.9144 34.7728
Au 10.469 13.8507 18.2899
Au 11.995 30.0245 10.7747
Au 24.9627 25.4044 21.8396
Au 3.36825 11.4042 17.63
Au 9.72957 21.5634 19.6807
Pd 9.42182 20.1463 11.8573
Au 20.1716 22.1064 27.2693
Pd 12.2476 19.8814 16.9368
Au 27.7979 24.1646 30.7763
Au 16.5636 14.7986 32.6513
Au 13.5475 31.8958 24.0809
Au 27.4946 15.8119 33.6452
Au 12.0042 22.8385 26.4303
Au 5.49315 7.85404 21.0082
Au 27.5739 20.4057 7.18313
Au 6.88243 25.4586 14.6029
Pd 18.1178 19.1792 12.9222
Au 9.32635 22.9199 11.2374
Au 22.4897 17.1896 2.09159
Au 8.78355 16.061 17.8033
Au 12.3824 29.889 21.6569
Au 21.0299 30.8329 24.8217
Au 26.0468 27.7995 21.3123
Au 5.45759 28.2839 20.5134
Au 17.6665 16.8683 2.00928
Au 25.7968 25.4908 24.7369
Pd 10.0548 18.9997 18.279
Au 26.8367 31.6975 21.2948
Au 17.6034 27.9887 21.3127
Pd 15.1583 29.3028 20.2822
Au 34.124 29.6905 20.7253
Au 14.6345 21.6035 18.1097
Au 16.1154 5.43924 29.2688
Au 19.1702 28.3418 14.3817
Au 13.5145 17.4918 17.8504
Au 11.9014 33.9594 24.7927
Pd 22.5579 25.5926 14.0993
Pd 20.6778 18.4251 30.4422
Pd 7.02675 24.2636 23.8047
Au 30.9234 26.8237 29.7144
Pd 27.3316 29.5059 19.725
Au 15.5094 27.0013 22.7943
Pd 13.2029 24.0788 32.9141
Au 19.6458 29.0211 22.8383
Pd 13.7377 27.064 8.06676
Pd 10.7324 16.4978 8.65097
Au 26.9153 28.8704 7.3361
Au 16.3844 25.4752 8.73262
Au 21.5663 23.627 19.4098
Au 16.8142 21.6456 2.34267
Au 20.6792 30.204 13.0921
Au 35.4012 25.3946 13.2144
Au 22.9932 29.0507 17.8226
Au 19.9123 34.5131 13.9721
Au 17.3762 28.2885 18.5603
Au 0.355077 14.2813 15.9647
Au 17.7539 30.069 31.7863
Au 14.5824 26.4488 12.751
Au 24.2504 24.4322 19.2742
Au 13.9693 35.7132 25.5916
Au 10.4876 33.477 13.0822
Au 13.2798 33.7168 12.9639
Au 23.3106 25.943 26.5251
Pd 14.3757 28.2169 28.0944
Au 15.9854 32.8638 23.1436
Pd 21.2322 33.8481 22.7451
Au 17.2653 20.2711 18.2609
Au 22.5549 14.2324 17.5491
Au 14.3928 21.9232 25.4735
Pd 20.3717 28.9212 9.01906
Au 12.1331 20.4643 24.6899
Au 9.39354 28.9499 28.6562
Pd 24.2401 11.9862 25.7044
Au 17.2743 24.8071 36.5256
Au 19.9581 10.0683 3.45799
Au 34.0246 24.4226 19.571
Au 8.76645 21.8251 13.9348
Pd 11.9237 25.6078 12.1018
Au 32.8662 26.2075 12.1973
Au 22.2895 30.626 8.18281
Au 5.89914 27.9481 13.6105
Pd 14.1668 22.4171 9.49472
Pd 17.3707 33.4924 25.4378
Pd 3.02273 21.9285 18.7054
Au 10.2923 31.5613 28.7408
Pd 16.0711 31.0563 25.349
Pd 13.7023 26.9273 18.3131
Au 7.36693 26.406 11.9284
Au 15.366 30.7254 32.8741
Au 10.8304 27.1048 18.317
Au 29.2117 22.5656 17.3493
Pd 8.61287 27.4999 14.166
Au 9.33033 14.0046 7.55972
Au 25.9968 26.0774 30.1762
Au 24.9158 20.475 24.981
Pd 23.31 30.0636 27.6687
Pd 17.6901 25.4786 30.4047
Au 15.7629 26.5153 20.0344
Au 26.3003 25.5074 32.8789
Pd 22.1476 33.2426 31.123
Pd 15.8813 28.0589 32.2724
Au 29.1189 28.9033 29.207
Au 13.889 29.5359 25.7144
Au 20.026 21.8022 32.0733
Au 15.2995 12.5668 3.27766
Au 26.0216 2.40681 21.107
Au 22.7024 19.5522 17.3456
Au 21.2446 8.88085 18.8388
Au 16.5408 7.67813 31.2024
Au 18.325 4.04055 19.8175
Au 13.902 20.1551 22.08
Pd 13.7585 6.02813 24.8611
Pd 20.4758 6.52602 20.1157
Au 24.073 11.6077 28.8329
Au 23.4354 13.2999 13.9165
Au 9.9297 9.97063 20.2646
Au 18.9171 1.74395 20.975
Au 7.55972 15.2105 29.5652
Au 20.9303 1.83503 19.0557
Au 30.6396 12.7304 8.06061
Au 20.0322 12.8319 3.27018
Pd 20.8916 24.5359 12.1876
Au 15.8288 15.5849 9.94728
Pd 18.0873 8.18994 14.3717
Au 20.209 5.535 6.8107
Pd 18.7945 14.7325 13.8133
Pd 6.53085 10.9058 10.1333
Au 22.3449 6.53473 5.53151
Au 20.5633 12.8949 10.044
Au 22.9485 7.86497 12.6892
Pd 16.8881 14.549 15.6458
Au 20.9284 4.43275 9.23415
Au 14.011 3.85179 21.1935
Au 33.1117 17.504 22.7782
Au 20.6087 24.2146 23.7008
Au 20.4166 8.97204 12.656
Au 13.1218 7.9048 26.8937
Au 16.9729 8.81506 21.959
Au 12.7552 6.46116 13.109
Au 16.2942 16.5524 36.0053
Au 29.5145 13.8646 21.6187
Au 30.7409 11.2802 22.2468
Au 17.2032 2.89043 24.9569
Au 16.6329 14.7848 25.1085
Pd 20.1583 10.0948 15.1547
Pd 18.5375 13.1467 26.1096
Au 21.2095 5.95908 25.2283
Au 20.1833 8.05816 27.9841
Au 23.5733 19.8854 36.8917
Au 24.6972 17.1897 8.52772
Au 28.0664 21.8469 4.71883
Pd 20.222 15.8862 9.32563
Au 14.6858 21.5048 6.99629
Au 15.9246 3.19128 10.7606
Au 18.6822 11.6893 8.00128
Au 16.7765 22.4987 10.0439
Au 13.576 13.2336 6.47078
Au 19.8423 13.8923 17.298
Au 15.2762 15.4084 2.70462
Au 17.2237 18.2642 20.3995
Pd 8.65944 12.4659 19.9774
Au 16.0737 10.2773 11.6972
Pd 12.6186 20.1572 5.90367
Au 27.2731 21.5912 25.6928
Au 26.1595 6.00848 18.929
Au 26.0916 5.68874 16.0194
Au 8.84151 17.4583 30.7766
Pd 14.8983 9.75601 17.31
Au 20.8546 14.0481 37.2226
Au 28.3378 11.6885 26.5074
Au 27.5684 7.51004 14.6995
Pd 25.3954 15.6084 31.9756
Au 20.6298 14.7195 27.0708
Au 26.2812 4.72167 22.7779
Au 18.429 15.0703 36.9982
Au 34.1869 21.8862 24.2242
Au 25.1191 10.8581 32.7806
Pd 24.8657 16.9733 29.6421
Pd 15.8234 19.8364 32.7652
Au 13.743 10.0041 10.1934
Au 25.4302 11.452 13.8659
Au 28.6968 16.4227 5.691
Au 32.5514 14.4952 8.89921
Au 21.8021 19.1929 3.74307
Au 22.446 11.6934 3.63068
Pd 16.2391 14.8525 12.5864
Au 23.8711 22.5541 8.07257
Pd 11.7186 23.535 10.2572
Au 16.5379 19.0283 3.437
Au 24.9446 17.5431 14.089
Au 14.2925 14.2135 14.3955
Au 25.1196 14.9085 12.0302
Au 9.23571 15.4058 13.1234
Au 22.4246 16.6143 25.9043
Au 22.0782 26.3736 18.7318
Pd 18.8122 12.5045 15.2418
Au 29.3765 22.6631 21.8954
Au 30.7424 18.5367 23.9077
Au 1.13913 19.4715 14.5701
Au 26.9461 21.7527 30.3057
Pd 30.559 16.0302 27.7958
Pd 22.3031 10.5096 23.8369
Au 20.9685 9.18014 32.0364
Pd 18.6561 19.8576 26.7471
Au 18.982 4.92475 24.0132
Au 17.3931 22.423 31.4101
Pd 18.9568 32.3636 12.5631
Au 17.2499 11.3372 27.8206
Au 18.5574 24.7485 27.8431
Au 18.8533 22.9531 3.44578
Au 14.8281 4.69981 12.8153
Au 28.2844 27.4383 9.33117
Au 25.0772 14.4439 9.35348
Pd 27.8576 20.9831 11.2509
Au 26.3995 22.036 9.08139
Au 21.3779 10.7171 8.38453
Au 25.3342 24.8016 16.7567
Pd 24.8684 20.1019 15.4417
Au 19.2833 25.4929 2.71735
Au 16.4658 35.5435 26.909
Au 13.3229 31.3187 16.128
Pd 21.6096 22.1151 17.2321
Pd 35.9514 15.4249 14.9397
Au 9.22864 33.7074 21.7872
Au 12.9435 15.6572 22.3465
Au 27.3472 29.9565 9.85404
Au 28.9449 33.7558 21.4662
Pd 18.8333 21.3664 14.3554
Au 20.0898 17.1615 13.5413
Pd 11.2227 24.4465 28.5108
Au 26.6147 13.6425 24.931
Pd 25.9817 30.2895 28.3024
Au 11.9238 25.6172 22.7036
Au 16.452 19.2977 35.5009
Au 8.18723 16.9112 15.2195
Pd 14.2204 31.8083 21.3678
Au 25.5532 21.0107 35.0544
Au 26.6739 23.1775 18.5027
Au 15.3283 22.3747 22.9775
Au 15.98 13.5895 7.9183
Pd 17.8285 24.6105 5.20545
Au 24.7098 25.2426 3.79758
Pd 21.2208 29.8661 15.7532
Au 32.1867 29.5577 14.4561
Au 22.9851 26.6171 5.61201
Pd 19.0659 17.9996 18.3477
Au 22.5168 25.0348 7.82119
Pd 31.5003 15.9694 25.0478
Au 22.8463 27.7873 8.56144
Au 21.1002 33.7669 11.506
Au 18.4165 27.1143 9.34208
Au 22.1431 28.3883 25.6443
Pd 30.2722 18.5509 28.8696
Au 26.6211 18.9523 26.6099
Au 21.4879 19.7601 22.3881
Au 27.8697 15.0983 26.8861
Pd 19.7158 29.0544 30.197
Au 20.395 27.3738 20.7705
Au 16.7898 24.1508 20.913
Au 35.7776 22.8058 26.1034
Au 28.0879 25.5712 26.1651
Au 25.4618 29.8782 22.9372
Au 8.83371 21.4471 30.8155
Au 21.6093 18.3519 19.6167
Au 16.878 23.2921 18.1846
Au 19.2283 18.8338 24.1217
Pd 18.5991 27.2769 32.2527
Au 25.8332 17.9449 34.2261
Pd 21.9789 23.7034 31.3004
Au 20.9197 26.092 9.89857
Au 26.4833 31.5613 15.3774
Au 17.8268 17.4063 8.91215
Au 17.1755 16.9143 14.0397
Au 8.53551 25.8765 16.8825
Au 23.0016 31.9752 10.3912
Pd 18.7124 26.7902 16.6213
Pd 18.6004 30.0717 16.7281
Au 19.0081 27.4681 28.0333
Au 31.11 22.9461 7.91891
Au 3.92129 17.3166 20.9521
Au 14.0093 16.4367 5.0316
Au 26.5099 30.4186 25.6246
Au 22.4664 29.3307 10.9572
Au 33.3963 19.4797 20.3847
Au 28.4144 31.3403 28.0122
Au 31.577 29.3424 30.4994
Pd 22.2341 33.2641 16.1451
Au 25.4646 30.1516 32.8042
Au 11.0279 34.3711 19.8589
Pd 24.5397 32.9893 20.2959
Au 18.429 36.7302 22.6225
Pd 16.6202 21.5091 12.6814
Au 22.6431 10.3459 33.7861
Au 27.3239 33.0607 26.2545
Au 11.5936 18.1929 29.1561
Au 30.2541 22.5318 34.6339
Au 21.3807 23.6798 34.0716
Pd 13.3968 27.398 21.0234
Pd 18.0301 21.1366 33.9133
Au 22.1736 22.2184 12.6101
Au 18.977 29.2522 6.52179
Pd 25.4359 21.4536 20.1184
Au 34.1463 24.0666 11.1609
Pd 18.8018 24.3223 10.3615
Pd 7.50424 23.7478 18.6601
Au 29.9901 29.3173 19.1755
Pd 24.1925 27.466 23.6261
Au 15.0643 23.1146 1.04776
Au 14.344 31.6541 18.6903
Au 18.2126 32.65 9.96219
Au 23.2785 31.8373 22.3793
Au 32.5054 30.6505 17.0191
Au 25.3554 38.1819 20.488
Au 15.5888 33.9461 17.8222
Pd 18.7238 26.4233 23.2671
Au 23.7615 30.8033 15.5821
Au 23.405 31.7911 18.1358
Au 13.9364 34.5892 22.9995
Au 21.4004 35.4476 26.1727
Au 23.4044 19.5121 34.2817
Au 22.7489 30.9052 32.48
Au 16.3646 35.3915 21.4343
Pd 29.728 22.5759 26.5584
Au 24.6354 27.629 32.0499
Au 28.1099 23.6888 24.1341
Au 18.026 29.0137 34.2458
Pd 23.1862 19.1144 29.6011
Au 16.7252 13.8535 35.2591
Au 10.2028 21.881 33.4081
Au 22.1352 9.28021 4.71185
Au 20.5677 8.43902 9.86844
Au 24.8333 10.4284 4.53239
Au 12.0933 4.15036 23.3227
Au 28.6281 11.0856 7.16716
Au 17.0633 3.6599 22.2913
Au 20.5612 19.9045 5.96094
Pd 29.4603 20.0481 9.03744
Au 23.5928 13.9386 32.6923
Au 25.7561 3.19461 18.4297
Au 34.8085 23.0733 28.6643
Pd 23.9838 5.50557 24.1084
Pd 24.3981 15.1213 24.6574
Pd 20.4841 10.9066 20.4867
Au 20.7174 16.3199 35.7947
Au 33.4391 22.4265 9.15533
Pd 15.7084 7.47106 12.7442
Au 11.1495 10.7586 12.9879
Au 12.7542 18.7682 12.3798
Au 26.9009 12.0607 5.21265
Pd 15.4532 8.13621 24.5089
Au 18.1666 6.46819 18.5466
Au 22.4995 15.7717 7.4941
Au 27.5187 6.44785 9.56816
Au 18.333 1.75935 18.2228
Au 18.8215 3.95956 11.0227
Au 15.7975 14.3108 5.26748
Au 24.0473 3.0446 22.7879
Au 26.62 16.7657 24.9267
Au 21.9477 4.27221 19.4303
Au 29.0893 10.0642 24.1241
Au 14.1502 17.9341 34.5216
Au 22.3794 5.16214 13.382
Au 28.1774 4.63346 17.7087
Au 18.2028 9.64675 32.1774
Pd 30.2195 13.8244 26.2071
Au 23.202 16.2116 19.3322
Pd 33.5912 19.1167 24.7712
Au 19.3351 20.6257 29.4971
Au 22.0184 7.24892 29.8748
Au 27.5071 9.64019 22.024
Au 30.9802 18.0527 31.5801
Pd 18.7393 10.0066 29.5785
Au 7.79709 28.1068 30.5949
Au 33.2634 15.9872 27.445
Pd 15.3243 23.6517 4.982
Au 26.9045 34.6244 15.0701
Au 36.1079 20.8282 15.1809
Au 35.2989 15.2567 11.7185
Au 25.8426 10.5988 7.21055
Au 28.3369 17.6609 8.10277
Au 18.1442 7.20176 6.2507
Au 20.5765 8.50577 6.93018
Au 20.7691 7.15591 14.6376
Au 22.2514 2.38212 14.1495
Pd 26.733 13.8644 13.7628
Pd 28.3487 30.2781 17.1563
Au 28.2044 8.56963 7.92978
Au 13.8604 13.7679 24.4667
Pd 17.4635 10.3933 16.2095
Au 21.4413 20.498 10.5406
Au 36.0621 22.0011 17.698
Au 29.8547 13.4296 18.7615
Au 27.6527 4.34096 20.394
Au 29.161 17.2789 25.9481
Pd 22.5502 14.4701 35.237
Au 30.4059 16.6183 9.63472
Au 25.8202 13.3542 27.5556
Au 27.2706 25.8527 35.3777
Pd 12.9764 10.8252 26.4905
Au 25.5869 3.83398 25.3524
Pd 23.6068 2.14364 19.918
Pd 33.8538 27.186 21.2081
Au 21.8454 27.5444 28.3097
Au 12.3434 13.375 34.2262
Au 27.5601 14.8956 20.1416
Pd 23.2254 11.3972 6.41842
Au 14.3319 21.4694 3.57657
Au 25.0066 26.632 13.3975
Au 15.8768 11.5554 5.95003
Pd 24.0387 24.2086 12.3453
Pd 22.2419 20.4307 8.01477
Au 27.8254 26.2766 6.86537
Pd 17.8108 24.0259 15.7492
Au 28.8777 8.55925 10.6223
Pd 10.0622 24.1348 18.3212
Au 16.7469 4.3026 17.4124
Au 30.0682 8.49891 21.6349
Au 28.9706 25.3509 11.0215
Pd 28.3403 15.1367 17.4807
Au 19.0591 20.2506 3.63025
Pd 27.7281 17.4506 28.4868
Au 7.42494 7.78271 18.4446
Pd 22.277 8.92071 16.3404
Au 22.8454 15.682 10.282
Au 32.8865 13.642 25.9983
Au 21.8039 14.5086 24.2237
Au 18.5741 13.691 23.1259
Au 22.7307 21.8856 24.0117
Au 8.1438 28.4219 26.2201
Au 19.4893 13.4176 35.0289
Au 24.3699 21.2375 30.6239
Au 23.2476 14.1565 26.9833
Au 10.182 14.6356 32.9363
Au 29.1614 29.3192 31.9775
Au 22.3863 13.8314 5.50622
Pd 24.6415 17.7092 16.9664
Au 22.6767 10.3815 13.89
Au 17.7159 14.2802 3.1376
Pd 26.7326 15.439 7.39607
Pd 8.33724 20.9305 7.26352