1687
Atoms. Timestep: 20741
Au 24.7213 23.0674 2.61035
Au 22.7792 24.9243 1.90054
Au 18.4515 15.73 33.396
Au 28.6537 18.2982 18.2316
Au 25.9352 16.214 33.866
Au 5.68539 13.514 24.3324
Au 8.20337 7.60873 26.6103
Pd 26.0544 19.7009 26.7127
Au 12.8072 26.4621 26.6176
Au 29.9565 23.1086 29.1363
Pd 31.1419 29.7887 11.4864
Au 10.5547 33.5365 16.404
Au 27.152 20.7629 32.1985
Pd 10.4627 28.9421 23.9434
Au 10.816 3.33342 18.6172
Au 6.0015 12.2028 11.0871
Au 13.6344 8.56158 33.4724
Pd 18.0441 6.63507 11.9423
Pd 12.8697 15.2682 5.96103
Pd 15.0495 21.6649 5.29999
Pd 15.0193 9.67349 17.1785
Pd 18.3026 27.644 4.24677
Au 17.0285 18.263 24.0466
Pd 22.2913 35.4382 21.4059
Au 23.0384 28.9557 7.64474
Au 22.4134 27.6893 24.9776
Au 15.6237 28.6631 4.606
Au 11.0445 3.70705 15.6576
Au 5.08399 8.22351 13.9568
Au 8.34891 32.0279 27.9262
Au 6.34336 26.2087 24.6309
Pd 25.299 29.9435 8.97438
Au 27.735 18.2798 30.6034
Au 15.3223 6.48922 23.2287
Au 5.35135 19.0438 20.5625
Au 21.6391 8.50018 6.00251
Au 8.56119 7.86392 10.8655
Au 15.1411 33.3226 24.9675
Au 18.7121 35.2077 12.595
Au 12.9479 23.8645 32.9872
Au 15.15 1.50705 21.1345
Au 4.10315 22.9454 25.9306
Au 19.874 9.35853 7.91601
Au 16.9102 31.0848 31.0951
Au 25.9164 6.91419 25.6932
Au 6.85854 12.1257 28.7342
Au 30.4865 9.58085 19.4112
Au 22.9307 17.0463 12.3893
Au 20.2958 6.68573 16.9039
Au 3.02629 24.6957 17.037
Au 28.771 22.8171 20.4988
Au 3.75744 26.2321 14.7473
Pd 6.41251 19.5233 8.67869
Au 10.8777 34.1344 23.6919
Au 3.1236 14.8233 15.2387
Au 20.2836 36.4022 14.3385
Au 8.16262 32.6088 23.2485
Au 17.1826 35.3717 26.655
Au 16.8046 36.4664 17.1238
Au 16.4992 14.7262 11.7551
Au 22.7107 14.2005 25.545
Au 2.27988 14.3416 17.7453
Au 28.9871 13.4523 6.70045
Au 31.7623 13.6941 6.79143
Au 21.8271 11.1142 7.00255
Au 7.05944 11.6595 13.4404
Pd 22.5893 8.20266 11.4482
Au 14.7281 22.6497 11.2968
Pd 15.6387 29.0367 22.0682
Au 14.6386 31.6307 18.2116
Pd 9.58021 18.2375 11.9878
Au 10.88 25.2582 34.1452
Pd 8.24634 13.5643 17.839
Au 27.9428 33.3405 16.7956
Au 18.8699 16.4445 23.0806
Au 3.50314 16.8277 16.9787
Au 7.01382 18.1659 25.8989
Au 3.54739 25.2642 12.1874
Au 11.4979 10.3536 20.3394
Au 2.97275 14.686 23.2381
Au 34.1249 15.3226 20.8985
Au 8.48519 21.5298 31.9235
Au 21.605 28.1098 12.6648
Au 27.2727 24.3153 3.58509
Au 18.9816 30.2378 25.8794
Au 22.9991 30.5655 22.1354
Au 14.0375 15.2922 27.4766
Au 5.96877 30.2984 21.3123
Au 29.7822 19.5172 32.0795
Pd 30.1554 24.9365 19.5978
Au 17.9109 2.15511 24.9269
Au 14.0728 21.9064 34.7596
Au 13.3757 35.2679 23.7649
Au 12.1749 15.4133 25.4914
Au 11.5003 29.0679 31.2945
Au 28.4149 30.5981 16.0043
Au 8.68854 16.7088 30.7381
Au 14.3517 30.1126 30.9517
Pd 9.21398 22.9558 29.6949
Au 13.4504 10.8968 32.1839
Au 22.4098 6.61239 7.83756
Au 11.6836 19.9189 25.6601
Au 31.976 27.2194 10.8602
Pd 16.3795 8.1825 19.1326
Au 11.4445 21.9463 35.0848
Au 25.8549 30.5502 28.0166
Au 12.5097 5.30751 29.1028
Au 8.37733 35.005 24.1796
Au 18.7477 11.578 23.1835
Au 28.2288 5.15661 11.5179
Au 18.3838 27.7824 20.8379
Pd 8.60929 12.7737 11.4843
Au 30.0349 7.05027 10.805
Au 20.2576 25.758 13.5004
Pd 14.5255 4.89027 27.3127
Au 13.9586 28.953 35.2229
Pd 31.0778 21.2866 15.8188
Au 20.6183 33.5014 13.8471
Pd 6.56367 19.1581 13.2609
Au 26.7553 23.6677 32.2364
Au 25.4808 15.4156 5.78373
Au 16.4948 16.1265 9.23242
Pd 22.2799 16.388 27.2249
Au 6.59643 22.7778 33.4471
Au 5.6037 20.3173 15.6484
Au 14.7159 24.9242 21.615
Au 17.9529 16.2219 25.7321
Au 25.64 5.23096 10.7945
Au 2.63354 23.1607 19.3737
Au 18.1572 13.9346 4.80766
Au 36.7209 14.1476 15.0772
Au 10.0854 28.6321 8.3122
Au 27.6257 33.5375 26.5732
Au 24.1167 3.56827 12.1816
Au 6.50683 26.7854 14.221
Au 15.6046 23.9812 3.56772
Au 20.5651 27.6879 22.8745
Au 32.1389 26.9793 8.03875
Au 8.7252 26.9184 23.0263
Au 25.3603 8.53994 20.5711
Pd 6.59072 20.9187 19.0601
Au 26.808 3.17838 18.8673
Au 21.8664 30.9625 19.7489
Pd 24.0539 18.0952 34.7299
Pd 27.8691 7.31048 13.0673
Au 20.0853 11.8222 16.3141
Au 26.6024 10.2694 17.729
Pd 24.3484 6.48872 19.1068
Au 30.3922 12.6042 15.0667
Pd 7.04196 9.14632 22.2414
Au 12.9683 32.9195 28.6657
Pd 21.873 23.6165 11.9578
Au 9.17325 4.88458 17.1408
Au 4.63198 16.4368 19.5169
Au 10.109 24.2085 22.8758
Pd 13.7949 27.1918 6.5001
Pd 26.6646 26.5046 26.4065
Au 9.30085 9.28614 24.3682
Au 15.3415 26.1778 27.4351
Au 23.6893 10.6528 5.06762
Au 14.8445 27.7486 17.5635
Au 21.7957 33.4828 8.49808
Au 30.0691 7.47402 22.8007
Pd 24.2393 4.44644 14.9876
Pd 15.4611 14.0834 29.3632
Pd 15.4347 29.6512 9.42901
Au 12.082 14.154 11.4336
Au 18.0222 7.79997 26.2062
Au 5.2067 23.612 18.4671
Au 9.0559 13.6177 14.1743
Au 16.6546 10.8272 18.9977
Au 8.84227 8.71874 19.9776
Au 4.80336 23.5993 21.0802
Au 6.68442 9.13823 25.0719
Pd 31.1264 14.3688 24.8518
Au 11.1596 6.76748 11.0723
Au 11.0359 6.44605 15.5399
Pd 13.104 32.3324 15.9766
Au 17.3919 19.501 13.1099
Au 19.8587 21.7762 30.2836
Au 28.8748 20.6366 29.8059
Au 12.2656 15.6407 8.60569
Au 21.8873 24.8222 36.3402
Au 19.5899 22.6384 23.533
Pd 17.4444 9.29992 23.8386
Au 14.6056 4.43169 19.0168
Au 32.0592 9.14466 23.6306
Au 23.9616 24.3421 10.2995
Au 11.876 17.0256 11.1251
Au 22.6158 8.73368 24.843
Au 15.5114 6.79084 12.7799
Au 14.2689 18.1654 9.58213
Au 33.1507 16.0423 5.68686
Pd 18.5188 4.34992 13.5386
Au 9.57295 16.8273 9.43035
Au 10.9774 20.0458 16.6695
Au 4.81065 28.8041 15.3073
Au 17.7763 21.0251 6.54137
Au 13.1313 3.07376 14.0614
Au 13.2405 10.368 10.2901
Au 15.6294 2.47245 26.5599
Au 12.2496 19.5031 33.5474
Au 12.4342 30.0106 22.1326
Au 20.7304 25.5274 29.4626
Au 9.01235 30.9812 25.3204
Au 27.436 12.5241 30.7638
Au 25.6262 22.8613 5.24588
Au 20.246 37.2442 21.5687
Au 36.0614 18.8874 24.3089
Pd 10.5128 16.6926 14.1621
Pd 16.9485 13.0834 9.51524
Au 8.35902 23.5431 7.14689
Au 28.2228 10.9659 15.5868
Au 5.46992 14.4587 29.7578
Au 20.1582 30.3849 21.8854
Pd 23.804 17.8654 20.9696
Au 9.91425 13.132 22.3236
Au 29.066 30.0523 29.0836
Au 13.0134 22.3725 7.00418
Pd 13.1201 12.5359 15.5561
Au 21.9785 0.909001 16.4849
Pd 24.9496 31.9657 30.2394
Au 9.10967 19.8924 26.5971
Pd 7.32871 24.3416 22.3265
Au 7.14936 6.76543 13.031
Pd 20.8441 25.3952 3.85307
Au 29.0074 14.2941 19.4886
Au 15.2992 17.3636 16.8449
Pd 23.7019 10.705 22.046
Au 7.28843 29.9415 18.9071
Au 19.7783 12.3633 8.75519
Au 8.34122 15.1755 7.5937
Au 3.7681 17.1535 22.0471
Au 18.0531 24.9232 12.0141
Au 10.5598 15.8735 23.3105
Au 18.4974 10.2531 33.6203
Au 10.6759 28.071 10.9238
Au 9.66679 5.58333 19.7778
Au 18.8153 4.53924 16.248
Au 3.92502 25.6731 26.3542
Pd 28.0388 23.8708 6.28464
Au 17.483 27.4744 18.1599
Au 17.4875 19.0889 26.6765
Au 23.4051 4.25655 28.3202
Au 7.88728 24.4547 31.8553
Au 25.1702 33.3444 27.9443
Au 11.3237 9.76989 30.886
Au 6.53987 25.9155 19.2163
Au 17.6019 29.8646 11.3618
Au 16.517 13.0936 2.89591
Au 19.3824 31.9976 6.48942
Pd 31.4077 17.1813 7.11065
Pd 25.3656 26.8945 17.8199
Au 24.0401 17.8892 3.69749
Pd 19.3163 4.46578 24.6008
Au 5.4161 18.2479 32.6656
Au 16.2756 11.9295 12.5911
Au 22.4191 35.2462 24.429
Pd 8.20014 20.1826 16.888
Au 14.0664 4.45034 24.6843
Au 4.3746 18.0511 14.6593
Au 24.7046 11.0101 7.74271
Au 17.6399 18.7634 29.5078
Pd 12.9024 24.1384 23.5848
Au 20.3638 2.82902 17.9006
Pd 21.1104 9.11188 30.0268
Au 30.7852 10.2767 16.6042
Au 16.7163 13.4165 15.058
Au 15.9353 35.808 12.535
Au 6.97587 19.6097 28.3528
Pd 21.1332 25.8208 26.7474
Pd 20.8325 13.4609 5.90267
Au 3.42972 12.4953 24.9197
Pd 7.58255 27.9992 20.8223
Au 29.3133 8.02567 17.4496
Pd 15.895 28.5416 24.7427
Pd 21.7527 29.3723 26.88
Pd 22.5972 32.6693 29.1582
Au 7.12576 28.542 12.0351
Pd 8.04938 19.4171 21.4917
Au 14.7381 36.1487 21.6762
Pd 13.8475 15.1284 15.8894
Au 3.9569 19.3758 12.3823
Au 17.1668 20.9193 3.89321
Au 13.2626 12.6047 6.31975
Au 25.7732 31.7548 16.1832
Pd 26.8197 7.65829 18.4309
Au 9.01931 5.34404 11.7441
Au 35.6586 22.105 15.2159
Au 6.28048 21.4658 21.7768
Au 17.5849 36.8604 14.5248
Au 27.3703 7.6423 10.4289
Pd 10.6475 8.68664 26.6619
Au 20.7022 10.1299 10.3749
Au 16.0468 18.4849 2.79175
Au 19.726 9.8849 25.3746
Au 12.8177 22.454 21.4209
Pd 18.5484 20.5418 17.3078
Pd 27.9883 23.5298 18.0369
Pd 16.4613 13.3969 20.1208
Pd 28.8342 28.1965 27.0553
Pd 25.2059 32.0596 22.8437
Au 15.3707 33.5245 27.6391
Au 9.03906 19.5402 9.51276
Au 12.7312 9.81565 14.9688
Au 16.3358 9.98953 26.4233
Au 11.8393 25.0228 5.93702
Au 10.7329 9.21305 9.74968
Au 10.2333 33.3706 19.3551
Au 6.81668 26.7347 30.7318
Pd 18.8889 11.7966 20.2105
Au 33.0182 25.7574 27.1413
Au 25.8478 5.34929 27.815
Au 23.3428 12.3077 33.2815
Au 12.4944 28.5512 13.3366
Au 21.5757 24.1309 8.9478
Au 9.08355 19.2703 14.4572
Au 30.9427 6.35405 16.0256
Pd 17.2389 34.6658 10.4443
Au 18.5897 26.9811 30.3747
Au 32.2319 30.2458 19.0527
Au 1.44563 18.7982 20.9342
Au 3.61279 12.2833 18.9347
Au 15.1858 10.993 14.8004
Au 17.6176 30.6834 21.2836
Au 20.8372 29.3994 33.2745
Au 26.4093 14.0919 7.96531
Au 15.5117 24.9819 18.4064
Au 32.8919 17.6388 19.8706
Au 31.6853 14.6817 20.0058
Au 19.3973 32.1977 30.8851
Pd 20.2576 30.1978 4.63284
Au 18.5429 14.4216 1.68044
Au 14.1882 15.5901 10.6231
Pd 24.2374 18.4613 30.1581
Pd 25.0036 26.0514 28.5163
Au 9.59762 15.3551 11.9612
Au 20.7993 12.8824 11.2582
Au 13.7347 5.0073 12.028
Au 23.8771 8.82252 29.675
Au 4.64565 13.4334 27.3634
Au 18.1104 32.7633 26.6905
Au 22.9618 2.1534 14.1849
Au 17.4571 10.6235 8.33948
Pd 12.7505 16.453 18.4776
Au 4.06483 27.1801 17.3173
Au 21.6128 9.0959 17.3855
Au 3.38741 9.52819 15.5188
Au 24.3625 20.4717 36.2162
Au 26.4251 22.1054 25.1542
Au 32.9032 30.7406 21.6401
Au 32.0287 12.8699 27.4114
Au 10.1509 9.16962 15.5242
Au 14.5377 4.16315 21.8352
Au 13.4997 19.1052 17.9067
Au 4.65849 18.15 10.173
Au 21.2366 13.5173 1.40321
Au 27.7756 14.5582 4.53849
Au 11.5296 28.4994 18.3164
Pd 9.19684 20.8355 19.4129
Au 8.10762 17.6461 33.3224
Pd 18.451 27.1695 15.6236
Au 28.6226 5.1003 22.3583
Au 25.8544 2.53836 13.9095
Pd 15.2946 14.3736 5.13942
Au 4.52256 27.8789 12.7185
Au 1.67152 16.9171 24.3549
Au 29.5342 10.0025 22.0672
Pd 19.881 25.0453 34.3934
Au 31.1471 5.26703 21.3728
Au 13.8847 19.9596 20.4421
Au 24.4319 3.84068 20.3432
Pd 9.97217 19.0745 31.7938
Au 23.2734 5.96996 13.0335
Au 23.0765 15.391 2.50653
Au 11.8029 18.3434 8.25798
Pd 3.00633 19.4994 16.4247
Pd 24.6383 4.1917 17.7276
Au 23.5424 20.6813 20.2905
Au 11.5086 24.9497 28.7354
Pd 34.5398 17.4504 7.72993
Au 18.2262 3.05805 27.4645
Pd 16.8844 3.54321 20.3054
Au 25.2106 9.66766 10.4183
Pd 25.797 19.5786 24.1304
Pd 17.9434 29.7222 5.85405
Pd 16.4067 30.2997 13.7745
Au 10.1436 25.2124 10.4096
Au 30.0794 16.8479 10.9978
Au 6.46044 15.8126 31.9899
Au 16.5702 14.0596 26.8077
Au 17.9977 22.1621 21.423
Au 15.1837 21.2501 13.6191
Pd 23.4782 17.468 9.46697
Au 24.5078 34.7312 22.8108
Pd 18.4842 17.8874 3.81481
Au 20.523 21.3471 6.85884
Au 12.9106 23.7313 14.2945
Au 20.5256 2.5928 25.9957
Au 13.7794 24.0245 9.10425
Au 10.3605 12.8245 19.4486
Pd 14.9114 18.5631 14.4213
Au 30.6794 20.7989 27.7226
Pd 8.01649 11.3852 19.6009
Pd 20.9052 32.0428 26.4948
Au 20.7665 11.4482 31.721
Au 21.041 11.9442 26.6864
Au 10.8818 12.2634 32.0177
Au 32.9759 24.4867 7.25073
Au 11.4223 28.0764 33.8268
Au 16.0505 20.1139 10.6524
Au 18.6821 37.1382 19.3629
Au 30.4215 11.5276 8.08625
Au 18.2877 30.3728 33.4294
Au 7.33176 19.1786 31.0777
Au 21.4811 17.395 7.44177
Au 15.9023 27.2939 34.3996
Au 5.57905 30.3622 13.3396
Au 22.1888 18.7124 14.8662
Au 19.0242 11.5497 6.23412
Pd 4.80367 21.2963 28.0591
Pd 8.00542 11.6889 24.3103
Au 29.4693 21.0399 18.0026
Au 27.4663 25.8254 19.4187
Au 2.15322 22.1738 16.6778
Au 4.55524 13.3444 13.6026
Pd 8.89326 21.9418 22.0654
Au 19.3357 21.2341 26.1259
Pd 6.11496 25.9886 11.5225
Au 30.3897 11.5421 10.8882
Au 12.976 28.8188 4.63968
Au 11.1831 21.7915 23.5772
Au 33.4073 19.3997 24.3127
Au 20.7117 30.7586 28.9279
Au 3.10756 20.2694 26.0917
Au 28.5102 26.7636 24.4155
Au 32.583 28.2259 25.9904
Au 8.09652 10.4625 9.91517
Au 19.876 19.1355 31.1507
Au 15.5857 33.8407 8.3309
Au 25.0466 11.1752 24.3417
Pd 10.5032 16.5553 6.67518
Pd 14.3131 13.6217 32.0464
Au 12.4598 31.8693 20.0434
Au 16.9353 26.9747 13.4094
Au 13.7954 24.5079 30.1385
Pd 7.52962 22.1015 27.4617
Pd 23.3239 26.8587 5.93696
Pd 7.6634 23.2908 19.7547
Pd 11.7044 9.33661 12.3494
Au 19.4799 12.1512 36.1825
Pd 13.3829 15.4463 22.9428
Au 26.2174 33.5511 9.48413
Au 22.7215 5.4312 10.4642
Pd 8.04905 6.98153 15.7717
Au 3.44771 15.2719 25.7745
Au 36.6379 20.1215 13.0323
Au 2.61237 23.7998 14.3452
Au 23.7086 28.6098 19.7661
Pd 5.51243 24.2802 13.6599
Au 6.12923 11.822 17.7887
Au 22.6178 25.2826 33.8329
Au 31.811 8.04453 12.6703
Au 19.1903 29.7325 16.3803
Au 15.2372 28.4989 11.9912
Au 5.52218 7.83056 16.5618
Au 5.5091 18.6186 17.8089
Au 35.8639 16.9222 19.7078
Pd 18.6541 4.73618 29.7102
Au 11.7735 4.15505 26.7274
Au 31.3979 19.8869 7.92485
Pd 26.9121 14.8881 29.4744
Au 9.01782 26.9543 15.5959
Pd 24.959 22.0555 22.6911
Pd 33.8619 11.1373 23.4659
Pd 14.7365 26.5553 8.86807
Au 21.8538 5.05557 26.2471
Pd 14.3701 21.6575 18.0996
Pd 7.07766 20.1189 33.7294
Au 19.1394 29.7872 19.068
Au 31.0115 18.5857 22.6638
Au 17.3793 33.1856 29.3433
Au 3.84496 28.3622 21.7338
Au 22.7199 35.3167 14.5874
Au 25.4475 26.0561 14.7081
Au 19.545 22.72 13.3526
Au 27.6644 32.7207 14.1168
Pd 15.3101 31.0609 28.6631
Pd 14.7478 9.0733 24.2162
Au 12.4559 21.5843 12.7773
Au 34.1844 15.3496 23.8435
Au 19.0329 6.87061 14.4746
Pd 22.3045 30.8749 9.34603
Au 18.2592 16.5463 13.0685
Au 6.2792 17.0847 29.455
Au 13.1245 27.0824 10.9774
Au 18.6937 14.0427 21.7417
Au 23.5406 16.1591 32.4813
Au 33.3587 28.559 17.1655
Au 3.44891 21.896 30.2719
Au 24.7308 36.777 15.4907
Au 31.2025 27.5374 23.8105
Au 15.4289 30.5002 33.4155
Pd 21.7853 26.1297 10.8337
Au 8.49582 29.9598 22.4516
Pd 5.76143 18.9764 23.216
Pd 25.7169 17.2422 22.9251
Au 23.3086 13.5999 12.3514
Au 4.88352 14.4467 17.3722
Au 9.89025 30.2079 19.8635
Au 8.22066 27.265 9.90744
Au 21.652 19.8485 34.7441
Au 20.025 2.01728 23.1785
Au 16.7695 29.5948 35.499
Au 11.3911 24.219 25.7945
Au 23.5494 6.14372 24.2181
Au -0.0728141 18.3763 22.9795
Au 17.5705 1.48936 22.2473
Au 10.9572 31.7187 27.316
Pd 33.2294 15.7886 17.955
Au 25.0558 25.8415 32.6296
Au 28.4759 6.48412 24.7944
Au 31.4397 18.589 17.274
Au 29.285 22.3706 31.8781
Au 14.6705 6.79656 17.5506
Au 6.50644 21.7964 30.1023
Au 31.0747 25.5465 29.0436
Pd 11.8934 34.5696 21.1622
Au 24.563 17.4534 14.7171
Au 25.7776 29.2794 11.564
Au 9.27053 23.076 33.9593
Au 5.19586 23.7978 31.3095
Au 30.514 26.3134 26.3367
Au 10.3138 19.3955 6.0076
Au 29.1466 4.04046 19.9908
Au 26.2282 9.92136 5.72439
Au 29.1528 24.9021 31.0104
Au 23.1324 11.2047 11.0012
Au 30.2096 22.0811 24.7687
Pd 28.3966 21.1227 9.70959
Au 11.6211 31.4576 24.5075
Au 12.1865 5.07384 20.6984
Au 13.3158 20.1851 23.1048
Au 26.1022 21.9639 19.8157
Pd 29.1382 14.6946 13.8807
Au 30.6433 23.6019 17.2359
Au 24.8087 17.2874 25.7474
Pd 15.8438 24.0309 13.5203
Au 2.99935 21.0468 14.2989
Au 8.84569 29.957 10.3888
Pd 33.2077 17.1475 15.5517
Au 34.2889 17.7602 22.3428
Au 17.5176 24.761 37.8938
Au 19.4926 32.3467 19.5955
Au 18.9806 14.9515 10.3329
Au 26.4665 18.1999 16.5612
Au 16.9467 32.0811 9.82758
Au 13.7188 29.3238 19.7291
Au 20.8188 23.3178 21.0328
Pd 9.12845 10.6391 21.8912
Au 29.5516 14.3086 30.2059
Au 26.7194 3.35184 21.6366
Pd 13.9041 9.24423 19.5615
Pd 22.4574 22.6597 23.0595
Au 36.4627 17.4994 12.4362
Pd 17.3874 20.9904 31.0971
Au 30.8233 18.6443 29.504
Pd 16.0494 11.6456 24.3528
Pd 17.4232 18.4429 32.3382
Pd 19.3073 5.4421 27.06
Pd 17.3078 22.1367 12.0225
Au 16.6095 5.9918 15.1712
Au 11.5434 29.1896 26.505
Au 21.9146 21.3692 27.4334
Pd 13.2321 17.7737 26.7254
Au 7.91428 7.01566 23.8359
Au 20.2099 24.0049 1.71833
Pd 33.299 22.7478 17.478
Au 10.4678 21.9225 14.843
Pd 22.3272 20.0379 2.70883
Au 17.4493 17.996 21.1276
Au 8.53436 32.0935 17.7532
Au 10.952 25.4109 18.309
Au 29.4723 18.0158 8.66561
Au 30.2172 5.95155 13.334
Au 6.56684 28.8171 28.8895
Au 31.3491 24.7322 24.1926
Au 20.9129 0.534961 19.0451
Au 32.7371 21.9575 23.4479
Pd 14.3157 11.9053 19.7519
Au 27.3271 15.9163 17.8735
Pd 15.1463 31.4724 11.6549
Au 24.4705 35.8033 12.6675
Au 24.8846 13.2075 29.4113
Au 23.1551 2.00322 18.6972
Pd 11.3062 4.93424 13.1918
Au 20.8918 24.0289 31.9753
Au 19.3435 14.3168 15.4059
Au 25.4621 11.9997 12.7051
Pd 14.1037 19.7354 7.11882
Au 32.6248 13.4495 22.5445
Au 22.6091 10.6192 15.43
Au 25.5808 10.7554 28.5948
Au 14.9116 19.2383 33.914
Au 15.9282 20.118 16.4418
Au 13.6586 5.36161 15.3037
Au 19.831 18.0239 33.7587
Au 26.2895 12.5532 5.69449
Au 9.33613 26.0315 7.68322
Au 21.4469 21.6041 9.77823
Au 16.5209 4.59969 11.2604
Au 9.06672 25.5889 20.5539
Pd 20.1319 27.5792 17.812
Au 32.1623 13.0455 9.52145
Au 35.0879 24.5191 16.317
Au 31.3643 22.1315 19.5735
Au 26.532 17.9729 5.49433
Au 17.0815 4.1208 22.9598
Au 21.2423 24.0485 6.20558
Au 21.705 35.3559 12.0291
Au 15.155 19.1948 31.0389
Au 20.7175 15.4128 12.6148
Au 20.7091 25.4759 16.3279
Pd 3.85711 27.1 24.0829
Pd 18.1993 24.5676 14.8319
Pd 16.498 12.5108 6.54115
Pd 11.4046 32.8086 13.9455
Au 20.0253 33.5113 28.5571
Au 28.8679 14.1796 16.6128
Au 19.3099 10.0312 28.0529
Au 21.7293 28.4813 30.6241
Au 34.0828 10.1316 13.8959
Au 18.2607 33.7996 8.06225
Au 26.2895 20.134 29.2934
Pd 21.2017 5.19458 14.7301
Pd 22.2471 20.2809 29.8923
Au 13.3253 26.3259 34.5312
Au 24.7884 16.8161 18.5827
Au 33.1423 11.3588 11.5908
Au 13.51 2.75235 28.3041
Pd 32.8958 23.6862 11.8064
Pd 21.3481 15.0505 22.0665
Pd 8.36618 15.4688 15.8926
Au 12.5792 17.6345 15.8331
Au 16.0081 26.6871 2.7948
Au 19.368 2.24268 20.3844
Au 24.0613 37.2883 18.0373
Au 32.1579 30.3018 24.3276
Pd 23.0163 24.1402 27.7898
Au 6.34208 30.8518 24.1142
Au 12.9318 28.8 8.59241
Au 14.6378 8.7769 8.39807
Au 23.9391 22.1344 8.59571
Au 32.8133 20.8649 10.5062
Pd 14.9479 31.4229 21.1287
Au 2.03201 17.7543 26.9356
Au 30.9849 7.44452 25.5239
Au 6.39458 22.2473 8.68323
Au 22.4534 18.6889 32.3245
Pd 17.5689 19.0656 34.9404
Au 6.70826 22.7199 24.4062
Pd 21.0126 30.7438 14.446
Au 15.9698 7.06012 10.0531
Au 11.2153 26.1911 13.341
Au 12.6994 30.4966 33.34
Au 23.9495 22.347 14.3226
Au 5.89314 15.8252 26.9681
Au 25.2118 25.9482 2.95712
Au 29.1985 9.33233 9.18406
Au 27.0893 8.45368 15.6226
Au 16.5117 35.5658 19.724
Au 15.5654 21.6148 26.7546
Au 30.2748 25.1963 7.30824
Au 18.9555 23.4308 7.80567
Pd 7.03915 17.9053 15.8122
Au 11.1387 21.6457 32.361
Au 19.7736 16.1067 5.74755
Au 16.1942 23.8035 28.4439
Au 32.5741 17.9185 9.44412
Au 5.351 10.8629 23.5055
Au 32.2298 8.06801 17.9067
Au 10.4864 32.0268 21.9412
Au 15.7483 16.431 30.9646
Au 19.4123 36.9344 16.8159
Au 26.1658 35.5136 17.3908
Au 6.337 16.7925 8.51856
Au 12.6699 11.0174 17.7536
Au 16.0459 11.614 33.0835
Pd 27.0126 33.8482 23.9293
Au 8.32599 18.0573 7.28326
Pd 19.8811 32.4001 24.1052
Au 19.4695 20.6635 36.292
Au 16.857 22.6185 17.7898
Au 13.7863 27.4481 29.6972
Au 25.2918 13.9572 32.0924
Au 15.9829 23.4127 31.5073
Au 3.03382 22.5314 12.0024
Au 34.4371 21.6946 12.8281
Au 15.4211 6.71293 32.8126
Pd 15.7191 27.1305 20.1903
Au 16.8068 4.81261 25.5922
Au 14.5999 16.9624 7.18999
Au 12.8989 2.19122 22.7125
Au 2.17059 24.7737 24.5353
Au 19.8524 20.3001 3.88625
Au 13.9585 21.4479 32.0839
Au 17.0327 16.4115 6.03269
Au 32.8548 20.0735 21.3964
Au 15.8019 17.4132 11.9629
Pd 32.1947 25.6278 13.55
Au 7.94921 14.7301 23.2986
Au 29.2387 19.7262 3.44969
Pd 25.1134 15.2653 16.1921
Au 24.9612 20.1608 6.69556
Au 5.52297 26.2778 21.7374
Au 22.6369 15.5317 5.24301
Au 4.10709 17.9256 25.1101
Au 24.2178 24.9284 22.8139
Au 17.0114 6.82113 30.6851
Pd 11.2312 30.3075 15.0504
Pd 22.643 27.2361 28.4192
Pd 21.0436 28.027 15.2221
Au 9.78414 13.0412 27.7807
Pd 16.5658 11.2925 21.7055
Au 8.06061 18.3497 18.9878
Pd 16.7141 28.3796 32.0756
Au 32.0898 30.6966 16.1705
Pd 27.2523 16.1892 14.9713
Pd 21.5806 32.7102 11.2036
Au 23.8954 21.7713 11.4148
Au 8.96176 31.7407 15.089
Au 18.5031 31.8007 14.6311
Au 26.0326 22.1875 34.3575
Au 17.7242 31.951 17.3633
Au 19.3096 25.3475 22.2422
Au 13.1861 28.6631 24.504
Au 28.0625 21.7918 27.2995
Au 26.7762 28.0846 28.6989
Au 13.1655 23.8814 19.1825
Au 14.2872 33.9659 20.1488
Au 20.5041 18.7169 17.2195
Au 34.3767 9.55872 16.7092
Au 19.5116 20.5039 11.497
Au 3.55945 15.9658 28.4227
Au 7.55466 29.2543 14.7103
Au 23.7105 15.2214 7.95773
Pd 17.3401 24.7937 20.4172
Au 9.20307 8.87195 28.9499
Pd 25.9547 23.4981 15.9051
Au 17.6679 15.5904 19.4563
Au 10.7852 22.0645 27.5018
Au 1.66886 22.1332 24.79
Pd 36.8847 22.727 12.8635
Au 23.0069 25.6736 13.5442
Au 15.1621 16.4297 25.0496
Pd 17.4991 25.3747 35.3546
Au 14.6609 12.9946 35.9946
Au 34.1101 14.5578 15.2089
Au 17.8491 22.7166 2.11117
Au 23.4326 24.5761 4.49499
Pd 27.2402 13.7591 11.695
Au 23.3245 13.4473 23.1096
Au 19.1158 22.8283 19.0748
Au 5.84475 25.2623 16.3906
Pd 16.7343 26.6158 22.6782
Pd 14.4238 26.2733 24.246
Pd 16.7692 32.8441 19.7187
Au 2.7956 25.7651 22.0231
Pd 26.5749 28.5501 20.0098
Pd 27.7448 18.5334 10.6091
Au 16.4584 16.5979 28.1474
Au 10.9182 18.5066 19.0075
Au 14.453 28.7396 27.1609
Au 28.6377 17.0816 3.92642
Pd 24.4814 31.7796 10.7774
Au 15.4096 34.135 17.5418
Au 18.241 14.3526 7.5208
Au 9.88871 13.7113 25.1098
Pd 24.0389 29.9113 24.5833
Pd 23.7063 34.3021 10.3595
Au 29.704 26.1658 21.9432
Au 22.5951 26.4115 18.4677
Pd 25.7896 25.5792 5.6425
Pd 11.4574 10.7086 23.042
Au 10.0816 30.8841 29.7498
Au 11.1747 15.2933 16.4939
Au 17.6689 16.5538 36.0297
Au 9.1235 10.0995 12.3399
Au 15.8668 16.7349 33.8862
Au 20.5779 7.31095 9.78213
Au 9.48558 20.3069 29.4231
Au 18.1009 6.71903 23.5776
Au 23.6983 15.8057 29.6134
Au 19.2825 0.663379 16.8215
Pd 15.975 16.0242 14.3931
Pd 24.6255 7.6747 14.6933
Au 7.81815 16.7632 13.4948
Au 17.4154 13.8694 36.6013
Au 13.4531 17.1717 32.354
Au 24.3227 6.19411 29.8359
Au 19.7478 6.77397 7.09555
Au 14.6854 11.9209 27.613
Au 15.9382 36.1762 24.159
Au 14.4489 13.972 13.4276
Pd 18.5214 16.5242 30.6637
Au 31.2563 22.5232 8.37587
Pd 25.0326 29.5567 17.6647
Au 35.2109 21.5557 24.9071
Pd 14.4114 6.6659 20.4398
Pd 19.0811 10.0498 18.1281
Au 18.5763 9.18252 30.995
Au 12.1472 5.56159 17.9022
Au 21.1032 12.0993 21.8114
Pd 20.4566 14.8774 3.5319
Au 15.3186 14.9443 18.1233
Au 13.0724 23.2829 4.3782
Au 31.4054 18.8625 14.6219
Au 11.5232 22.528 10.4264
Au 35.8292 21.4354 10.5641
Au 19.6291 20.1471 14.7653
Au 10.6335 12.6984 16.6468
Au 16.4124 20.145 19.2562
Au 4.62015 18.404 27.6707
Au 10.8038 17.1556 33.5669
Au 32.5311 10.3803 21.2479
Au 5.45577 10.8236 20.4636
Au 7.76083 13.5262 31.0144
Pd 5.27983 16.7177 12.4283
Pd 13.1555 3.07566 17.0719
Au 10.2191 7.93954 22.2218
Au 18.0544 7.52839 33.0966
Au 21.1929 17.9918 22.6026
Au 19.4929 23.2233 10.5838
Au 7.73097 21.6565 14.2969
Pd 23.2371 12.933 20.4433
Au 18.1362 14.4366 29.0308
Au 12.5353 20.6228 4.97242
Au 10.7598 30.7544 12.2899
Au 20.6042 8.7085 32.8491
Au 22.0435 29.4326 17.5285
Au 22.6588 12.8319 8.89427
Au 22.741 9.21523 8.80896
Au 26.0362 17.3629 28.3198
Pd 15.5031 22.6185 20.374
Au 9.79821 7.45908 13.3367
Pd 6.80659 14.401 12.8227
Au 27.4026 31.337 21.1514
Au 29.5756 16.7802 20.7952
Au 33.2018 18.9528 6.04291
Au 11.111 27.6958 28.8878
Pd 10.0567 11.571 8.38972
Au 31.4645 16.0488 28.9798
Au 10.996 20.942 8.11459
Au 23.3294 9.80992 19.486
Pd 21.8032 33.751 19.0312
Au 22.7187 8.07959 21.8306
Au 35.2448 19.5456 19.9535
Au 34.0924 22.3003 20.4518
Au 26.7839 29.0576 25.1993
Au 14.8218 28.3814 14.8448
Pd 32.1482 10.7823 25.7564
Pd 19.2181 20.6473 33.3961
Au 19.9724 23.3934 27.9287
Au 17.2638 14.0854 24.0961
Au 11.028 15.7272 27.9841
Au 29.6116 25.353 4.7065
Au 28.0953 12.2316 21.0417
Au 12.5629 18.0025 5.60158
Pd 14.8296 11.4721 8.31361
Au 24.4786 4.2382 25.7759
Pd 13.7506 15.0322 34.2738
Au 6.89275 24.4193 29.2421
Au 23.5856 34.7543 17.2504
Au 29.3178 26.6658 9.5768
Au 26.0474 16.1363 3.16232
Au 33.6197 28.4842 22.9334
Au 13.1202 17.3953 35.1776
Au 24.6435 20.303 1.34738
Pd 27.8702 9.57579 19.9877
Au 28.3335 20.1139 24.9944
Au 26.808 18.7757 13.7821
Au 29.8483 14.3944 27.4716
Au 21.4401 11.7366 18.6743
Pd 3.79034 25.7453 19.5721
Pd 18.3342 25.7419 27.7669
Au 19.2877 18.8226 6.22151
Pd 19.8617 14.4053 26.8731
Au 23.8791 14.6286 34.6299
Au 29.5558 16.4937 23.7114
Pd 18.1207 29.7777 8.6744
Au 24.0403 14.2089 18.3229
Au 27.3156 20.6316 5.22341
Au 18.7309 8.92719 5.51747
Au 11.5151 19.7161 10.7084
Au 25.3552 24.2951 18.4958
Au 22.3814 18.3617 25.272
Pd 26.4479 27.3676 9.69729
Au 19.8106 23.4529 37.15
Au 27.7796 31.2414 23.7793
Au 24.5812 7.21662 9.35905
Pd 19.6603 18.4975 25.2766
Au 35.4982 24.0758 11.0832
Au 19.7684 34.9432 20.4033
Au 10.0823 26.8832 26.2825
Pd 7.95703 28.4659 25.2274
Pd 24.6371 20.5865 4.02205
Au 30.1292 27.5435 12.8676
Au 27.6292 27.0441 4.35366
Au 10.5253 22.3331 5.74984
Au 35.4809 23.9008 18.8682
Pd 23.8836 11.9301 26.7611
Au 25.3321 17.8373 11.5007
Pd 29.5946 29.4059 24.7517
Au 30.2559 21.1153 22.1291
Pd 25.3136 23.9465 12.7138
Au 30.1762 32.4485 15.0738
Au 28.362 3.79573 13.7951
Au 26.1326 8.00515 28.3962
Pd 15.102 24.081 25.5227
Au 19.8316 28.1306 28.2856
Au 10.1942 6.17557 27.7886
Au 5.13129 26.5084 28.618
Au 20.2798 13.5444 24.204
Pd 18.9573 7.58054 18.9794
Au 19.5897 27.6483 25.502
Pd 27.6747 28.3082 17.6178
Au 22.0748 37.2204 16.3345
Au 15.4842 35.1572 15.0663
Pd 18.0453 21.266 9.26366
Au 22.8156 32.724 15.4697
Pd 23.9422 25.8308 26.0323
Au 26.6763 18.9376 2.9385
Au 4.62883 22.7942 15.763
Au 8.61148 24.9721 24.9154
Au 17.4393 21.9214 14.9937
Pd 28.3208 5.39785 17.8818
Au 34.9392 25.8738 20.7821
Au 21.8081 25.3007 23.8771
Au 16.3043 15.6112 22.0153
Pd 12.1034 26.3754 31.6096
Au 12.4458 17.5827 21.17
Au 24.2849 32.4201 8.11543
Au 23.7786 20.8077 25.4426
Au 35.8881 16.814 14.9599
Au 27.8994 26.5333 7.11263
Au 13.9065 31.8178 9.01692
Au 26.1383 28.788 15.3315
Au 31.3021 17.8624 4.42699
Au 13.8199 9.8294 29.5491
Pd 19.6311 13.9919 31.4163
Au 16.4786 21.3777 33.5553
Pd 23.5504 31.8896 17.8951
Au 14.4477 35.6303 26.2893
Au 21.7563 7.20716 19.329
Au 25.5797 27.9212 7.12529
Au 18.8878 29.1035 13.729
Au 28.6123 28.9689 10.989
Au 17.6773 23.4157 26.1912
Pd 21.2783 30.0882 24.3056
Pd 21.4728 36.4135 18.8424
Au 17.2166 6.23886 20.9582
Au 20.3519 30.246 11.5413
Au 15.0207 23.2006 15.9405
Au 5.33721 21.677 13.0161
Au 26.4757 19.5496 34.7399
Au 20.1498 35.0552 23.1639
Au 14.2172 10.6648 34.9257
Au 24.9817 30.512 6.27042
Au 26.5595 8.7906 8.14536
Pd 21.1238 28.2448 20.2771
Au 11.7087 14.2406 14.0484
Au 4.62488 24.3856 23.6535
Pd 6.16243 28.4249 23.2011
Au 18.6027 36.7022 24.6261
Pd 31.5211 14.9605 15.8642
Au 30.5347 22.393 11.0147
Au 20.7694 9.63147 20.2706
Au 20.1669 16.871 15.1284
Au 25.7776 19.6522 21.5138
Au 23.998 20.6913 33.6029
Pd 16.349 29.7464 19.179
Pd 21.3092 32.9043 21.8346
Au 10.0008 14.0961 9.50283
Au 10.9606 11.6845 10.9957
Pd 31.2236 28.1027 28.3204
Au 29.0599 33.3019 22.2468
Pd 12.6271 33.8943 18.1139
Pd 22.4563 13.6924 28.2108
Au 27.5566 11.2718 7.79333
Pd 19.3679 24.9916 24.9357
Au 28.7292 27.8403 15.1786
Au 22.2014 31.5918 6.54951
Au 19.921 34.5724 10.1126
Au 6.74147 27.8802 17.0782
Au 31.6708 9.31727 10.3441
Au 24.4546 15.291 21.3539
Au 12.4596 12.8561 8.89208
Pd 13.7975 26.0229 4.16846
Au 25.5132 14.949 24.3529
Au 19.386 4.92842 19.3295
Au 5.93266 13.643 19.7111
Au 23.7913 24.4434 7.22841
Au 20.7526 15.2487 29.3741
Au 20.7552 17.1836 10.2825
Au 6.05729 8.41695 19.6705
Pd 4.72084 19.376 30.1977
Au 23.8582 23.3078 32.5659
Au 15.7108 3.8952 16.5465
Au 12.9861 24.091 35.8721
Pd 17.5721 25.6318 32.5506
Au 18.4929 23.1206 32.7569
Au 16.7047 0.329771 16.9207
Au 7.62361 12.8513 8.86293
Au 23.5713 22.9511 35.2854
Au 15.1962 15.5264 36.4618
Au 18.2311 9.20907 21.1028
Au 32.7803 10.8921 18.3988
Au 20.9417 16.3799 31.9086
Au 12.7805 7.21203 13.4749
Pd 23.0891 27.788 32.8885
Au 32.96 11.9056 15.5954
Au 24.8404 13.7327 3.75457
Au 12.6307 30.0806 28.8771
Pd 13.3333 16.5207 13.3491
Pd 14.4959 13.7846 25.1545
Pd 24.8763 6.14238 21.853
Au 13.1935 26.6003 19.3316
Au 13.117 2.12843 25.5756
Pd 12.2114 13.1959 23.8653
Au 11.7006 19.1206 13.7084
Au 19.082 19.9079 19.9714
Au 28.8927 11.7109 18.2841
Pd 4.48925 10.7523 13.2831
Au 13.6245 20.9557 9.46628
Au 28.3097 25.4158 28.3343
Au 15.5115 11.6661 30.4094
Au 8.55994 10.6956 26.8717
Au 21.2296 20.5886 24.3504
Au 24.8938 8.44246 23.4378
Au 20.102 12.4196 29.1973
Au 21.979 13.1369 35.8252
Au 12.637 12.6426 34.0852
Au 0.787855 20.9385 22.5274
Au 5.81569 16.2394 24.1312
Au 21.2428 17.4869 3.63695
Au 33.5895 20.3825 15.8539
Au 29.1345 22.4027 4.17874
Pd 22.8892 30.5712 12.5304
Au 17.2569 27.49 36.9773
Pd 27.6684 12.7542 28.1231
Au 10.8709 23.7709 8.11376
Au 30.5468 29.9388 14.1574
Au 33.5004 13.1255 25.1847
Au 29.9455 32.2853 25.0481
Pd 16.2865 14.0888 34.208
Au 29.831 32.5439 27.8387
Au 23.2134 19.1772 17.8043
Pd 11.2435 30.8726 9.41682
Au 7.97774 32.1174 20.543
Au 33.7394 12.663 20.2083
Au 22.3818 9.65715 27.5087
Au 30.3259 19.6388 10.8577
Au 26.892 3.64148 16.1201
Au 24.025 22.0147 17.7493
Au 18.149 18.1413 10.6937
Au 8.87703 4.8937 14.363
Au 26.3331 14.2057 19.832
Pd 20.681 4.82231 8.84175
Pd 1.87101 16.581 19.2247
Au 28.7726 19.6246 15.6747
Au 11.3059 3.77471 24.1029
Pd 34.8596 12.6907 13.4156
Au 32.2882 13.5462 13.1345
Au 15.3048 19.1932 28.1589
Au 34.2804 13.3232 17.6313
Au 22.4865 18.6833 36.9071
Au 29.9071 16.7961 31.3764
Pd 5.79923 10.4577 15.5899
Au 15.837 33.7881 22.3665
Au 24.4256 8.70213 17.1916
Au 10.5863 24.2243 31.5826
Pd 7.98798 20.2519 24.0866
Au 3.11075 18.8853 18.9904
Pd 15.7736 9.17388 31.6573
Pd 30.7663 12.1625 20.4482
Au 25.3867 34.1899 14.9465
Au 11.0456 20.1575 21.2505
Au 20.3521 14.0313 19.5612
Pd 20.388 18.3089 12.7675
Au 9.24607 22.3598 25.2713
Au 20.756 27.6643 5.29666
Au 8.34147 20.882 7.17686
Pd 34.5998 18.2319 17.5696
Pd 26.8012 9.71535 13.1002
Au 28.4022 8.03601 26.9663
Pd 10.0741 10.3305 18.0155
Au 14.8918 1.62715 15.4721
Pd 17.2635 31.5083 23.8393
Au 28.1797 18.5953 22.5984
Au 34.4067 13.7566 10.9754
Au 26.8521 13.3347 14.6864
Pd 25.129 19.7957 9.52411
Au 7.20042 17.8524 10.8578
Pd 26.4532 12.9879 17.346
Au 18.2179 28.9473 23.4493
Pd 21.6894 21.3875 32.3232
Au 15.0639 25.9243 36.6139
Au 28.1578 20.0752 20.2552
Au 22.3798 19.3903 10.9821
Au 25.0633 11.241 31.2863
Au 4.09869 16.7473 30.8971
Au 13.4871 11.2364 25.1277
Au 35.4062 10.8113 21.2439
Au 6.52785 13.3076 15.5173
Au 32.3411 18.2884 12.0782
Au 13.0261 15.0263 30.0698
Au 14.8342 17.8373 22.4436
Au 7.53799 9.31013 17.5251
Pd 29.2725 27.7044 19.7613
Au 25.8731 6.14181 16.4831
Au 20.474 29.6769 7.22904
Pd 14.8061 8.04623 15.1435