1687
Atoms. Timestep: 20461
Au 9.91213 7.05648 9.52943
Au 8.52411 6.27552 11.865
Au 9.49849 4.23845 13.3598
Au 8.19952 4.97653 18.1185
Au 8.28941 3.83471 23.4929
Au 8.74063 6.81573 27.1188
Au 9.35571 10.0221 30.7254
Pd 9.0474 9.2798 8.10372
Au 7.62822 8.46415 10.4475
Au 6.72745 10.6166 8.98672
Pd 7.32669 5.64832 14.2326
Au 6.39955 7.78602 12.828
Au 7.2636 7.10358 16.5886
Pd 6.44141 9.31719 15.1122
Au 8.20234 5.03001 21.0397
Au 7.25859 7.18848 19.5003
Au 7.39999 5.9792 24.8398
Pd 7.395 7.29329 22.4053
Pd 7.95391 9.11914 28.4304
Pd 6.60621 8.26035 26.1762
Pd 8.58337 12.3568 31.9118
Pd 7.12908 11.384 29.7573
Au 8.14316 11.4686 6.71953
Pd 5.52981 9.95628 11.4144
Au 4.61447 12.0679 9.96489
Au 5.50509 11.4916 13.6893
Au 4.56035 13.6838 12.251
Au 6.37009 9.39398 17.9816
Au 5.4949 11.6152 16.4966
Au 6.41762 9.47449 20.8819
Au 5.49717 11.6966 19.3662
Pd 6.55827 9.588 23.7541
Au 5.5542 11.7729 22.2374
Au 5.74017 10.5049 27.5244
Au 5.64439 11.8505 25.1061
Au 6.33467 13.6611 30.9998
Au 4.94903 12.7619 28.8474
Au 5.83365 14.4603 9.84152
Au 3.66883 15.9932 10.8772
Au 4.82535 19.373 8.22966
Au 4.57959 13.8686 15.0518
Au 3.69082 16.1673 13.619
Au 4.58399 13.9557 17.8801
Au 3.70156 16.2594 16.4076
Au 4.61154 14.0256 20.7347
Au 3.71367 16.3247 19.2351
Au 4.68875 14.0882 23.5922
Au 3.75428 16.3718 22.0864
Au 4.81314 14.1687 26.4363
Au 3.84568 16.4178 24.935
Au 5.43448 17.4597 30.0497
Au 4.00198 16.5174 27.7379
Pd 7.23559 19.5686 9.59076
Au 2.96228 18.4769 12.1899
Au 4.30054 21.9964 8.14773
Au 2.98722 18.5849 14.9191
Au 3.82997 20.839 13.3462
Au 2.97685 18.6508 17.7164
Au 3.74285 20.9575 16.177
Au 2.99019 18.69 20.5594
Au 3.69079 21.0201 19.0082
Au 3.03542 18.7254 23.4287
Au 3.67142 21.053 21.8907
Au 3.11069 18.767 26.2701
Au 3.74823 21.0719 24.7875
Au 3.28706 18.8065 28.997
Pd 3.94597 21.0603 27.6194
Au 6.44254 22.1654 9.62037
Pd 4.04867 20.6515 10.5401
Au 4.81587 24.3779 9.39598
Pd 4.66875 23.1826 14.6658
Au 4.77154 23.0562 11.8104
Pd 4.57538 23.272 17.5061
Au 5.38625 25.54 16.0346
Au 4.46062 23.3559 20.3643
Au 5.27981 25.6155 18.877
Au 4.45737 23.3776 23.2602
Au 5.21171 25.6535 21.764
Au 4.53151 23.348 26.186
Au 5.18668 25.6499 24.7294
Au 5.84591 23.8209 30.8467
Au 4.44333 24.5742 28.6238
Au 10.9539 23.9392 10.0548
Au 5.49841 26.7088 10.7229
Au 9.20531 26.1926 9.97352
Au 5.51693 25.4357 13.1874
Au 8.36198 29.4656 13.6775
Au 6.12293 27.8876 17.4576
Au 6.28625 27.7814 14.6456
Pd 6.06302 27.9055 20.309
Au 6.91561 30.2154 18.9345
Au 5.89557 27.9284 23.242
Au 6.75436 30.1826 21.7834
Au 5.00624 26.8683 27.2453
Au 5.6341 29.1496 25.8554
Au 6.33404 27.5574 31.8314
Au 6.8888 29.8835 30.5554
Au 6.73103 20.865 7.11424
Pd 6.88956 25.9584 8.50037
Au 8.3511 25.1848 6.26936
Au 9.18911 31.8088 15.2036
Au 7.5242 28.3586 9.85073
Au 7.10019 30.1535 16.1269
Pd 11.6529 31.7981 16.5937
Au 7.82121 32.4464 20.4155
Au 7.941 32.4798 17.6371
Au 6.29458 31.4596 24.5668
Au 8.31229 33.2567 25.4288
Au 4.91832 28.2585 29.5984
Au 5.48485 30.5292 28.2356
Au 9.0296 31.5007 31.4575
Pd 7.54002 32.1551 29.1977
Au 11.2807 7.84725 7.18115
Au 10.831 4.97183 11.041
Pd 12.2181 5.81542 8.73127
Au 10.9681 6.43776 13.3428
Pd 12.3615 7.24183 10.9998
Au 10.4246 3.51092 17.2591
Pd 11.7919 4.20045 14.8625
Au 10.4542 3.63067 21.9102
Au 11.768 2.65995 19.5763
Au 9.60653 4.62429 25.7169
Pd 11.8476 4.4856 24.1528
Au 10.1694 7.73399 29.3767
Au 11.0093 5.5222 27.9844
Au 10.8396 11.0136 32.8668
Au 11.6181 8.67537 31.6339
Au 10.4433 10.076 5.82183
Au 12.727 8.69581 5.00779
Au 10.5598 11.669 8.00211
Au 9.14134 10.8234 10.3799
Au 11.4564 9.40367 9.47074
Au 9.56157 13.8352 6.48211
Au 10.0498 8.61884 11.8424
Au 8.71433 7.89118 14.2369
Au 12.5421 8.80486 13.2843
Au 11.666 11.0031 11.7816
Au 9.52708 5.59385 15.7254
Au 9.68332 7.24997 17.9955
Au 11.9684 5.75471 17.1327
Pd 11.1185 7.98675 15.6409
Au 10.5165 5.02638 19.5433
Au 9.71732 7.34364 20.8659
Pd 12.0234 5.91418 21.781
Pd 12.1456 7.38216 19.4018
Au 9.70796 5.99098 23.2927
Au 8.8463 8.24679 24.688
Pd 11.1096 6.8588 25.5885
Au 11.2457 8.27907 23.1704
Pd 10.2848 9.12556 26.9618
Au 9.45999 11.4151 28.3178
Pd 11.7273 10.0457 29.223
Au 11.8801 11.4636 26.7974
Au 10.9184 12.3966 30.5653
Au 10.0386 14.6817 31.9724
Pd 12.3785 13.3041 32.8211
Pd 12.4428 14.7341 30.4869
Au 5.89227 12.8131 7.66509
Au 7.23409 15.214 7.42321
Au 8.23608 13.0528 8.92816
Au 6.88645 12.2721 11.3392
Au 10.7605 13.2329 10.2915
Au 9.75833 15.4163 8.75629
Pd 7.83623 10.0859 12.7928
Pd 7.93044 11.6431 15.0672
Pd 10.2674 10.2206 14.1692
Au 9.35751 12.4134 12.7115
Au 8.80669 9.45191 16.5218
Au 7.91974 11.7426 17.894
Au 11.3124 9.59837 17.9121
Au 10.439 11.78 16.456
Au 8.80164 9.5394 19.3794
Au 7.95585 11.8254 20.7487
Au 11.3464 9.69309 20.7503
Pd 10.4641 11.8876 19.279
Au 8.88274 9.62517 22.251
Au 8.02897 11.9135 23.6036
Pd 10.4029 10.5652 24.5418
Au 10.5225 11.9648 22.1249
Au 8.0066 10.5283 26.0263
Au 7.14728 12.8314 27.3554
Au 11.0402 13.7961 28.1542
Au 9.56986 12.8595 25.8711
Au 8.60732 13.7717 29.6339
Pd 7.74461 16.0341 30.9978
Au 12.2215 16.1498 32.9087
Au 10.14 16.1047 29.5953
Au 9.35473 16.6907 6.27553
Au 11.3732 18.2641 5.20084
Au 4.93961 16.6596 8.48922
Au 6.09384 16.0238 12.1943
Au 8.40418 14.6218 11.2369
Au 7.42633 16.7807 9.73889
Pd 7.00988 13.8265 13.6373
Au 6.12738 16.2195 14.9712
Au 9.53223 13.9679 14.9981
Au 8.61711 16.1733 13.5502
Au 7.0125 13.9572 16.4284
Au 6.12785 16.3123 17.7852
Au 9.5721 14.0859 17.8215
Au 8.64371 16.33 16.3387
Au 7.03124 14.0505 19.2668
Au 6.14449 16.3806 20.6181
Au 9.61102 14.1692 20.6262
Au 8.67014 16.4136 19.1544
Au 7.07222 14.1247 22.1095
Au 6.2072 16.43 23.463
Au 9.65959 14.2445 23.4592
Au 8.69897 16.4805 21.9728
Pd 7.17085 14.2031 24.932
Pd 6.33823 16.4983 26.278
Au 8.65963 15.1741 27.2267
Au 8.77521 16.5356 24.7964
Au 6.20296 15.1454 28.7521
Au 7.61642 18.8685 31.0432
Pd 9.93407 17.5208 31.9538
Au 7.81383 17.448 28.6422
Au 9.0686 19.5656 6.15502
Au 7.04441 18.0215 7.23728
Pd 5.27158 18.2377 10.7876
Au 6.33102 20.7195 12.001
Pd 7.71331 18.3304 12.1031
Au 11.6561 21.2565 9.92326
Pd 5.34285 18.4947 13.5141
Au 6.17957 20.8904 14.7929
Pd 7.77938 18.5815 14.862
Au 8.76406 20.8213 13.3792
Au 5.32971 18.6227 16.2888
Pd 6.12663 21.0023 17.6018
Au 7.78736 18.6972 17.6552
Au 8.6423 20.9771 16.1639
Au 5.31661 18.7033 19.1076
Au 6.07333 21.09 20.4362
Au 7.79428 18.7704 20.4835
Au 8.5901 21.081 18.9938
Au 5.3368 18.7441 21.9559
Au 6.09826 21.1226 23.2972
Au 7.83384 18.8193 23.3221
Au 8.58135 21.1482 21.824
Au 5.40719 18.78 24.8057
Pd 6.22858 21.1201 26.1431
Au 7.92943 18.8513 26.1594
Au 8.63615 21.18 24.6878
Au 5.54654 18.8276 27.6212
Au 5.33268 20.2625 30.0043
Au 9.7967 20.3234 31.9771
Au 7.70934 20.2789 28.5981
Au 2.89376 18.2283 9.56855
Au 11.1207 22.6384 7.50389
Au 7.06706 24.5831 10.9207
Au 7.66179 27.1048 12.294
Pd 8.75482 22.3299 11.0415
Pd 11.6248 26.3488 11.3981
Au 7.11788 23.1376 13.2955
Pd 7.86634 25.5187 14.6466
Au 9.56177 23.225 14.6712
Au 9.41789 24.7663 12.3513
Au 6.98195 23.2801 16.1261
Pd 7.73703 25.6183 17.4898
Au 9.43188 23.3448 17.527
Au 10.2949 25.6014 16.0551
Au 6.898 23.3558 18.9606
Au 7.64551 25.6565 20.347
Pd 9.36869 23.4148 20.3594
Au 10.1903 25.6755 18.9143
Pd 6.86162 23.4029 21.8084
Au 7.58148 25.709 23.2451
Au 9.34866 23.4693 23.2064
Au 10.1132 25.7391 21.7683
Au 6.87708 23.4175 24.7007
Pd 6.72227 24.7411 27.125
Pd 8.41498 22.5644 27.1076
Au 9.09826 24.8618 25.6483
Pd 6.06329 22.4618 28.5452
Au 7.91373 25.3371 31.8861
Pd 7.50615 21.6685 30.9524
Pd 8.20336 23.9351 29.5044
Pd 8.59794 23.7755 8.63346
Au 10.6783 24.0585 5.13629
Pd 10.6629 25.3828 7.68029
Au 8.34708 30.5624 11.2067
Pd 9.94261 28.519 11.3483
Au 10.3531 26.7849 5.3499
Au 10.8005 29.5393 15.0993
Au 10.0621 34.0649 16.7464
Au 10.089 27.1565 13.7132
Pd 12.2514 28.8243 12.7832
Au 8.61729 27.8806 16.0572
Au 9.43985 30.219 17.5423
Au 11.0841 27.9556 17.4751
Au 13.3606 29.5465 16.5059
Au 8.48378 27.9382 18.9216
Pd 9.29325 30.2037 20.4062
Au 10.9521 28.006 20.3503
Au 11.9551 30.2438 18.9201
Au 8.37843 27.9705 21.8127
Au 7.98578 29.3369 24.2896
Pd 9.77775 27.1624 24.2188
Pd 10.3858 29.543 22.8982
Pd 7.35859 27.0321 25.7085
Pd 7.17879 28.3985 28.1339
Pd 8.85973 26.2283 28.0627
Au 9.5198 28.5659 26.6333
Au 6.47382 26.083 29.5481
Au 8.43235 29.1513 32.7449
Au 10.0654 26.9617 32.8143
Au 10.7727 29.2633 31.3385
Au 6.30226 23.5863 7.20528
Au 9.16198 21.079 8.52519
Au 9.61913 29.8796 8.93189
Pd 8.94315 27.5512 7.60396
Au 10.5066 31.0893 12.7742
Au 10.9595 29.0991 6.66604
Au 11.3441 33.3996 14.3395
Au 12.6452 32.7435 11.943
Au 12.9821 31.155 14.2038
Au 13.9278 32.0826 9.5682
Au 11.0181 36.1827 18.361
Pd 8.90575 34.657 19.222
Au 12.6138 33.9481 18.0971
Au 12.2545 35.5608 15.914
Au 10.3341 32.4324 19.0227
Au 9.12151 34.3149 22.007
Au 10.8848 32.0295 21.7456
Au 9.85136 36.6361 20.7899
Au 8.52798 31.8058 23.0398
Au 6.1378 32.8242 26.9577
Au 10.1093 31.0092 25.2636
Au 10.7114 33.5192 24.1416
Au 7.78484 30.7438 26.7733
Au 9.67219 33.7692 30.0336
Pd 9.26168 30.0173 29.0858
Au 8.14939 34.4135 27.8629
Au 8.62626 27.6634 30.4501
Pd 10.6226 30.752 33.5517
Pd 12.2219 28.587 33.6231
Au 12.7279 32.2843 34.2655
Au 13.5937 6.59946 6.45036
Au 13.7802 8.04046 8.64262
Au 15.2136 8.80577 6.18082
Au 13.1622 4.90739 12.4516
Au 14.5725 5.73456 10.0829
Au 13.1434 3.21075 17.1928
Au 14.5239 3.92502 14.8305
Pd 13.1777 3.42481 21.8463
Au 14.4653 2.422 19.5555
Au 13.2656 5.31543 26.4615
Au 14.5756 4.1913 24.1347
Au 12.4543 6.45614 30.2448
Au 14.7222 6.2513 28.7449
Au 13.1074 9.68527 33.774
Au 13.8973 7.41471 32.4868
Au 11.8628 12.4317 5.6099
Au 14.2432 11.0077 4.7807
Au 12.8798 10.2445 7.13716
Au 13.0833 11.8399 9.39783
Au 15.4009 10.4019 8.50121
Au 14.3803 12.6384 6.98515
Au 13.9802 9.61547 10.9123
Pd 14.1929 11.1775 13.1705
Au 14.7784 7.27171 12.3646
Pd 15.6091 11.9777 10.7754
Au 13.3805 6.47372 14.7474
Au 13.5833 8.11632 17.0162
Pd 14.7246 5.52505 17.0941
Au 15.028 8.90579 14.6354
Au 13.3256 4.87197 19.481
Au 13.6295 8.23985 21.6928
Pd 14.7591 5.66977 21.7836
Au 14.9405 7.18454 19.3796
Au 13.4555 6.73183 24.0828
Au 12.6937 9.15941 25.4553
Pd 14.8928 7.63676 26.3669
Au 15.1007 9.11457 23.9964
Au 12.5526 7.74906 27.8544
Au 13.3343 12.4042 29.0487
Pd 14.0066 8.68956 30.0762
Pd 14.1485 10.0641 27.6932
Au 13.1981 11.0111 31.4468
Au 14.5573 14.7924 33.7855
Pd 14.7249 11.9185 33.6959
Au 14.7665 13.3535 31.3722
Pd 11.6641 15.3355 5.43023
Au 13.8973 13.8815 4.5131
Pd 12.0623 14.0417 7.86753
Pd 12.2801 15.5896 10.165
Pd 14.6028 14.203 9.25655
Au 14.0926 15.5381 6.71896
Au 13.2944 13.3728 11.6653
Au 11.8958 12.5612 14.0665
Au 15.8179 13.5068 13.0438
Au 14.806 15.717 11.5423
Au 12.7561 10.3784 15.5483
Pd 12.9585 11.9258 17.8334
Au 15.2642 10.5066 16.9178
Pd 14.407 12.7106 15.4426
Au 13.8158 9.73817 19.3
Au 13.0057 12.0334 20.6471
Au 15.3167 10.6158 21.6234
Au 15.513 12.0754 19.2223
Au 12.8527 10.6224 23.0604
Pd 12.0274 12.891 24.4071
Au 14.3285 11.5192 25.3138
Pd 14.5088 12.9266 22.9426
Pd 13.4931 13.8137 26.6633
Au 12.6063 16.1315 28.0682
Au 14.9286 14.7539 28.9614
Au 15.1104 16.1444 26.5639
Au 14.5967 16.2463 31.419
Au 14.4158 17.6794 33.8052
Au 16.7627 16.3524 34.6266
Au 16.7837 17.8121 32.2572
Au 11.0546 21.1678 5.1292
Au 13.6356 16.9229 4.26486
Au 11.8181 16.9285 7.64745
Au 9.98483 16.9523 11.1235
Au 14.2879 17.0989 9.02845
Au 13.8079 18.5268 6.52216
Au 10.9717 14.7644 12.5876
Au 11.1652 16.2871 14.8958
Pd 13.4873 14.8797 13.9573
Pd 12.4852 17.0923 12.4883
Au 12.094 14.0861 16.3723
Au 11.1951 16.4249 17.7064
Au 14.6174 14.2161 17.7464
Au 13.6986 16.3874 16.2724
Pd 12.1132 14.2082 19.1791
Au 11.23 16.5081 20.5057
Pd 14.6694 14.3345 20.559
Au 13.7378 16.5262 19.069
Au 12.1802 14.2796 21.9964
Au 11.285 16.5791 23.3242
Au 13.6585 15.1906 24.2834
Au 13.7959 16.6116 21.8712
Au 11.168 15.183 25.7421
Au 10.2633 17.4934 27.1379
Au 14.7539 17.683 28.987
Au 12.7519 17.5312 25.6377
Au 12.3016 17.6 30.5391
Au 12.0992 19.0073 32.9173
Au 16.6302 19.2218 34.6682
Pd 14.4642 19.1281 31.4036
Pd 11.5139 19.7933 7.52643
Au 13.367 19.9412 4.14681
Au 9.5144 18.2496 8.59936
Au 9.7269 19.7575 11.0082
Pd 12.0104 18.4388 9.99826
Pd 13.9659 19.9943 8.88171
Pd 10.2052 18.4713 13.4653
Pd 11.1975 20.9337 14.7376
Au 12.7048 18.6003 14.8186
Pd 12.2079 19.9125 12.373
Au 10.2696 18.683 16.2209
Au 11.1366 21.0564 17.5418
Pd 12.7817 18.7672 17.6054
Au 13.6534 21.018 16.1173
Au 10.2983 18.7788 19.0254
Au 11.1022 21.162 20.3594
Au 12.8182 18.8775 20.3831
Pd 13.6117 21.1512 18.9138
Au 10.3121 18.852 21.843
Au 11.1226 21.227 23.2005
Au 12.8676 18.9475 23.1959
Au 13.6148 21.2638 21.7193
Au 10.3799 18.9013 24.6757
Au 10.1231 20.3515 27.1052
Au 12.4388 19.0128 28.0947
Au 12.5796 20.4273 25.5965
Pd 10.0036 18.934 29.5876
Au 11.9681 21.8324 32.8896
Au 14.2862 20.5349 33.7932
Pd 12.18 20.4187 30.5112
Au 13.0712 24.295 6.54943
Pd 13.4728 21.4125 6.50025
Pd 13.0066 25.5945 9.09305
Pd 13.3205 24.0901 11.4129
Au 14.1064 21.4358 11.267
Pd 13.5594 22.8676 8.89308
Pd 11.1079 22.4355 12.3973
Au 11.8368 24.8446 13.7104
Au 13.4939 22.5229 13.7499
Au 15.6967 24.241 12.7842
Au 12.004 23.3121 16.0619
Au 12.7685 25.6848 17.4558
Au 14.4593 23.4015 17.4615
Au 14.2878 24.9509 15.1187
Au 11.9182 23.4206 18.9126
Pd 12.6627 25.772 20.2912
Pd 14.3862 23.531 20.2716
Au 15.2359 25.7569 18.824
Au 11.8756 23.5091 21.7311
Au 11.5673 24.9536 24.1521
Pd 13.3175 22.7394 24.1153
Au 14.0208 25.0549 22.6584
Au 10.8582 22.6593 25.6169
Au 10.5927 24.0584 28.0407
Au 12.3191 21.8378 28.0282
Au 13.0471 24.1755 26.5315
Au 9.8768 21.736 29.5459
Au 9.61445 23.1418 31.9436
Au 14.1356 23.3713 33.7805
Au 12.0318 23.2331 30.4629
Au 13.0324 22.8435 4.14556
Pd 12.6442 27.0231 6.67954
Au 11.3319 27.8022 9.02853
Pd 13.6248 28.1389 10.4805
Pd 15.3526 25.8601 10.4954
Au 13.2031 29.6852 8.05703
Au 13.9935 26.5445 12.7864
Au 14.7682 28.8881 14.1789
Au 16.5258 26.6233 14.2335
Au 16.1098 28.2796 11.8706
Au 12.5496 27.244 15.098
Au 14.3673 31.6891 17.906
Au 15.1115 27.2747 16.5123
Au 15.7016 31.1357 15.4994
Au 13.5964 28.018 18.8362
Au 12.7518 29.7576 21.539
Au 14.6282 27.444 21.3284
Pd 13.1968 32.2722 20.3159
Au 12.2114 27.3013 22.7684
Au 11.9223 28.771 25.1632
Au 13.7232 26.5561 25.0867
Au 14.3366 28.9684 23.7488
Au 11.2865 26.3894 26.5624
Au 11.0286 27.8011 28.9658
Au 12.7756 25.6154 28.9477
Pd 13.4636 27.9872 27.4737
Au 10.3294 25.4573 30.4857
Au 13.7888 27.9714 35.6315
Au 11.7596 24.6933 32.8602
Au 12.5035 27.0454 31.3897
Au 8.69726 22.4407 6.11391
Au 15.031 24.5658 3.22925
Au 14.3529 28.7994 5.6012
Au 11.8523 30.3793 10.4372
Au 15.1866 31.4348 7.18342
Au 12.689 25.7196 4.22701
Au 14.3318 30.5204 11.8509
Pd 13.5508 34.8727 13.5164
Au 15.2305 32.7528 13.2803
Au 16.2314 35.3925 13.2703
Au 13.8947 33.3576 15.7039
Au 13.7444 36.5558 18.1587
Pd 15.4313 34.3169 17.9131
Au 14.9781 35.9844 15.7188
Au 11.4184 34.493 20.5374
Pd 11.3714 35.8559 22.9029
Au 13.0683 33.7026 22.719
Au 12.5048 37.0345 20.624
Pd 12.5032 31.2247 23.9278
Au 10.5158 34.7876 26.556
Au 11.6799 30.1859 27.572
Au 12.3148 32.6776 26.3293
Au 9.8892 32.382 27.6995
Au 11.2147 33.0446 32.2292
Au 13.2198 29.3841 29.8592
Au 12.0744 34.0535 28.7296
Au 11.4274 31.6341 29.9608
Pd 12.9772 30.8146 32.1328
Au 14.3879 30.2122 34.4665
Au 13.6158 33.2515 30.9398
Pd 16.7125 9.70652 4.05869
Pd 16.0246 6.66058 7.74267
Au 17.5628 7.53205 5.42356
Pd 15.8936 4.74434 12.4676
Au 17.2891 5.51048 10.0641
Pd 15.8473 3.04886 17.2145
Pd 17.2199 3.72063 14.8494
Pd 15.874 3.17469 21.8201
Pd 17.1546 2.22299 19.5489
Au 15.9887 5.05165 26.4463
Au 17.2842 3.88628 24.1416
Au 16.1728 7.17648 31.0033
Pd 17.4374 5.96788 28.7152
Au 15.3562 8.44919 34.5663
Au 17.7277 8.18678 33.2603
Pd 16.2552 12.4942 3.73583
Au 18.5758 11.2073 2.89028
Pd 16.7785 11.2468 6.19848
Au 16.9821 12.8091 8.40991
Au 17.6997 8.9918 7.65463
Au 18.749 12.8165 5.00686
Au 16.2405 8.11064 10.0212
Au 16.4811 9.73113 12.2714
Au 17.5458 7.02674 12.3496
Au 17.935 10.5472 9.91434
Au 16.1273 6.23692 14.7428
Au 16.3806 7.87893 16.9997
Pd 17.4538 5.27999 17.0999
Au 17.8175 8.64132 14.6297
Pd 16.0425 4.66439 19.4615
Au 16.4093 8.00569 21.7063
Au 17.4785 5.38844 21.7877
Au 17.7072 6.9504 19.3653
Pd 16.1915 6.47389 24.08
Au 16.559 10.0094 26.2555
Au 17.6296 7.33269 26.3601
Au 17.8732 8.85999 23.9824
Pd 16.3608 8.55629 28.6138
Au 15.6378 11.0046 29.9077
Au 17.8956 9.47232 30.8438
Au 18.096 10.9338 28.4942
Au 15.5073 9.64978 32.2773
Au 16.9055 13.4629 34.587
Au 17.0631 10.564 34.567
Au 17.1411 11.9555 32.2209
Au 15.8304 15.4138 3.42565
Au 18.1112 14.1213 2.60823
Au 16.4057 14.1388 5.8623
Au 16.6172 15.7324 8.11395
Au 18.9786 14.399 7.22265
Pd 18.3544 15.7391 4.76712
Au 17.215 14.3385 10.6506
Au 17.5037 15.8315 12.9319
Au 18.1938 12.1164 12.1675
Au 19.2272 15.9288 9.47514
Au 16.7203 11.3052 14.5419
Au 16.9798 12.845 16.8391
Au 18.0853 10.253 16.9181
Au 18.488 13.6532 14.4547
Au 16.6529 9.54539 19.3026
Au 16.9894 12.927 21.522
Pd 18.1112 10.367 21.6136
Pd 18.351 11.8691 19.2118
Pd 16.7864 11.4855 23.8908
Pd 15.9818 13.8304 25.1975
Au 18.2889 12.3822 26.1406
Au 18.4892 13.8135 23.7955
Au 15.7985 12.4251 27.5488
Au 17.0848 16.3564 29.8054
Au 17.3063 13.3593 29.8276
Au 17.477 14.772 27.4645
Au 16.9379 14.9117 32.2372
Pd 18.9907 17.8964 35.379
Pd 19.1012 15.0503 35.2856
Au 19.1357 16.5109 32.9946
Au 15.6389 18.6561 3.22824
Au 17.7229 17.0462 2.45319
Au 16.063 17.1115 5.58504
Pd 16.2455 18.6566 7.89999
Pd 18.5617 17.3343 6.98808
Pd 17.9989 18.7067 4.60365
Au 16.8389 17.2413 10.4011
Au 15.0444 17.1949 13.856
Au 19.5026 17.402 11.7464
Au 18.7885 18.8459 9.26507
Au 16.0575 15.0039 15.3333
Pd 16.2602 16.497 17.6463
Au 18.6898 15.1716 16.752
Au 17.7055 17.3096 15.2466
Au 17.2197 14.3896 19.1383
Au 16.3269 16.6532 20.4412
Au 18.7159 15.2824 21.4345
Pd 18.9045 16.6969 19.0452
Au 16.1541 15.2365 22.837
Au 15.2576 17.5628 24.1722
Au 17.6481 16.1759 25.1094
Au 17.8226 17.6036 22.7422
Pd 17.2013 17.7698 27.4148
Au 16.8936 19.25 29.828
Pd 19.2285 17.9621 30.6173
Au 19.3413 19.391 28.2258
Au 18.9954 19.371 33.0749
Au 18.8408 20.7655 35.499
Au 21.1848 19.4492 36.2144
Au 21.2427 20.938 33.9173
Au 15.4354 21.6986 3.21825
Au 17.8731 20.6171 2.62979
Au 15.8014 20.201 5.48647
Au 16.4212 20.1462 10.224
Au 18.1854 20.2991 6.89235
Au 17.8747 22.1728 4.80693
Au 14.4771 18.5832 11.3643
Pd 14.7178 20.0351 13.7305
Au 17.0684 18.7087 12.7264
Au 18.992 20.3485 11.5709
Au 15.2458 18.6815 16.2027
Au 16.1481 21.1215 17.4775
Au 17.822 18.7749 17.5882
Au 17.2561 20.1614 15.1013
Au 15.306 18.8636 18.9741
Au 16.1075 21.2663 20.2717
Au 17.9309 18.9842 20.3512
Au 18.6779 21.2425 18.7584
Au 15.3895 18.9722 21.7609
Au 15.0278 20.5064 24.1007
Au 17.3566 19.1906 25.0265
Pd 17.4954 20.593 22.6143
Au 14.8876 19.0989 26.5681
Pd 14.5928 20.5499 28.9784
Au 19.0862 20.82 30.6413
Au 17.0074 20.6771 27.4275
Au 16.6326 20.6706 32.2669
Au 16.4805 22.0883 34.6801
Au 21.02 22.2996 36.2636
Au 18.8476 22.2222 33.1084
Au 15.4262 23.1798 5.5769
Au 14.6969 27.2899 3.3516
Pd 15.9031 21.6646 7.85652
Au 15.9942 23.1158 10.2371
Au 18.346 21.8286 9.20466
Au 17.9322 23.6106 7.13112
Au 16.5989 21.5888 12.6266
Au 18.1379 24.2967 14.1704
Au 19.1187 21.7243 13.9489
Au 18.4651 23.2797 11.5696
Au 15.9597 22.6422 15.1418
Au 16.8471 24.9979 16.5303
Pd 18.5023 22.7406 16.4894
Au 18.6635 25.5327 19.4682
Au 16.9306 23.501 18.7842
Pd 16.4466 25.2154 21.1904
Au 18.1981 22.99 21.1102
Au 16.2759 29.4513 17.6462
Au 15.7649 22.845 22.6079
Au 15.4503 24.3254 25.0119
Au 17.1461 22.0966 24.9562
Au 17.8806 24.5285 23.4638
Pd 14.7176 21.956 26.4948
Pd 14.4428 23.3684 28.9026
Pd 16.7296 22.1047 29.8338
Au 16.8349 23.5362 27.3736
Pd 14.3345 21.9468 31.3744
Au 16.3204 24.9702 34.6679
Pd 18.6745 23.6286 35.4387
Au 16.4911 23.5107 32.2724
Pd 15.0722 26.0599 5.65848
Pd 17.0297 26.2546 2.48498
Au 15.4809 24.6423 7.99295
Au 14.8603 27.4007 8.13003
Au 17.9787 25.0072 9.4242
Au 17.4576 25.0184 4.73683
Au 17.7876 26.0265 11.9304
Au 17.061 30.5666 13.0759
Au 17.6371 28.914 15.2082
Au 17.253 27.6543 9.49538
Au 18.1998 27.2058 17.2911
Au 17.259 32.091 17.7145
Au 19.1611 29.8184 17.4373
Au 18.5828 31.5575 15.2942
Au 15.0555 30.0051 20.0588
Au 14.859 31.4357 22.4733
Au 16.7021 29.1603 22.2146
Au 15.9808 32.6204 20.1241
Au 16.1333 26.727 23.5831
Pd 15.8519 28.1835 26.0094
Au 17.5747 25.9821 25.9053
Pd 16.4528 30.6174 24.6572
Au 15.183 25.7964 27.4287
Au 14.9296 27.2228 29.8452
Au 16.5599 24.9539 29.7683
Pd 17.2999 27.4038 28.3107
Au 14.1644 24.7783 31.3289
Au 13.9335 26.2261 33.7205
Pd 18.6691 25.0629 33.0786
Au 16.3056 26.3646 32.232
Au 16.9944 27.9187 4.62655
Au 21.794 28.2079 8.68497
Au 17.3353 32.8182 6.34722
Pd 14.8327 34.2133 11.0959
Au 16.5951 29.1725 7.02502
Au 18.7155 34.0335 8.47898
Au 15.6222 29.9142 9.49772
Pd 18.0038 33.2258 13.0809
Pd 19.8674 31.0551 12.9166
Pd 16.5598 32.0986 10.8837
Au 16.7197 33.8107 15.4986
Pd 16.4699 36.8598 18.0413
Pd 18.2046 34.724 17.7868
Au 17.6973 36.4086 15.5994
Au 14.1882 34.8741 20.3559
Au 12.9214 35.1231 25.111
Au 14.6631 32.8908 24.8818
Pd 14.1068 36.2655 22.7877
Au 14.0942 30.3986 26.1527
Au 13.862 31.8591 28.5669
Au 16.2293 32.0616 27.0789
Pd 14.4823 34.2446 27.2716
Pd 15.6113 29.6082 28.4041
Au 15.385 31.0137 30.8021
Au 17.0545 28.8164 30.7669
Pd 16.0315 33.3917 29.4777
Pd 14.6728 28.6196 32.2974
Au 15.1143 32.4282 33.0516
Au 16.1688 27.845 34.5831
Au 16.82 30.2443 33.1648
Au 19.1373 8.4391 3.28327
Au 18.7271 6.35123 7.7385
Au 20.2195 7.10367 5.44948
Au 18.5839 4.40515 12.4451
Au 19.9739 5.17291 10.0838
Au 18.5224 2.69978 17.191
Au 19.9042 3.33393 14.8169
Pd 18.5885 2.881 21.8335
Pd 19.8693 1.91854 19.5538
Au 18.7079 4.70134 26.4697
Au 20.0268 3.55747 24.1552
Au 18.87 6.7455 31.0086
Au 20.1479 5.51514 28.7438
Au 19.4684 9.24066 35.2521
Au 20.3684 7.52246 33.2636
Au 20.6189 13.1314 2.85629
Au 21.1161 10.3254 3.09558
Pd 19.2285 9.93135 5.39632
Au 19.4395 11.4421 7.58329
Pd 20.4269 8.61496 7.71804
Au 21.3503 11.9313 5.31494
Pd 18.9748 7.83963 10.0196
Pd 19.2499 9.41677 12.2855
Au 20.2723 6.7019 12.3732
Au 20.6995 10.1759 9.98502
Au 18.858 5.96164 14.7348
Pd 19.1371 7.61627 17.0039
Au 20.1758 4.94987 17.0854
Au 20.5734 8.33623 14.6643
Au 18.7643 4.3662 19.4579
Au 19.1763 7.75167 21.6977
Au 20.2403 5.08615 21.7985
Au 20.4704 6.6741 19.3755
Au 18.937 6.16236 24.098
Au 19.3518 9.67179 26.2725
Au 20.415 6.95304 26.3964
Au 20.6549 8.51639 24.007
Au 19.122 8.1589 28.6392
Au 19.6604 11.9207 30.6896
Au 20.6058 8.9388 30.9173
Pd 20.8331 10.4463 28.5717
Pd 19.4825 10.5227 32.9855
Au 19.2413 12.1407 35.2628
Au 21.5822 10.8828 35.7757
Au 21.6355 12.3958 33.5378
Au 20.2139 15.9511 2.63149
Au 22.7502 15.0199 2.96859
Pd 20.8927 14.7489 5.08651
Au 21.1148 16.36 7.38482
Au 21.5936 13.5242 7.61051
Au 23.0518 16.6712 5.21624
Au 19.6997 12.9879 9.81505
Au 20.0138 14.5114 12.0725
Au 20.9944 11.7477 12.2732
Au 21.8708 15.1202 9.92086
Au 19.5397 11.0058 14.5695
Pd 19.7901 12.5801 16.8497
Au 20.8542 9.96853 16.9429
Pd 21.2797 13.2975 14.5391
Au 19.4236 9.29861 19.2957
Au 19.8099 12.671 21.5241
Au 20.8936 10.0731 21.6233
Au 21.1336 11.6168 19.2219
Pd 19.5777 11.1707 23.898
Au 20.0487 14.7522 26.0655
Au 21.0754 11.941 26.2083
Au 21.31 13.4515 23.8271
Pd 19.8418 13.3192 28.3758
Au 19.4133 15.0712 30.5406
Au 21.7641 13.8616 31.1523
Au 21.8813 15.3069 28.7335
Au 19.286 13.6105 32.9489
Au 21.2814 16.5799 36.0902
Pd 21.3788 13.7612 35.8933
Pd 21.4639 15.2562 33.6817
Au 19.8381 18.7611 2.44933
Au 22.3717 17.816 2.78862
Au 20.4683 17.5714 4.87365
Au 20.7019 19.2174 7.1972
Au 23.2657 18.3324 7.58844
Au 22.5999 19.4788 5.06259
Pd 21.3694 17.9257 9.69373
Au 21.5752 19.4639 12.0096
Pd 22.1366 16.6381 12.2084
Au 23.4433 19.9385 9.92449
Au 20.2804 15.9922 14.3418
Au 20.4234 17.4857 16.6351
Au 21.5149 14.8399 16.8055
Au 22.3338 18.1653 14.5029
Au 20.0694 14.185 19.1415
Au 20.4053 17.6172 21.354
Pd 21.5469 14.9608 21.4724
Au 21.7666 16.4944 19.1212
Au 20.2908 16.1834 23.7114
Au 19.6906 17.9253 25.8245
Au 22.0848 16.7507 26.2819
Pd 22.2566 18.1774 23.8868
Pd 19.5167 16.5113 28.1884
Au 21.4456 19.5566 31.4443
Pd 21.5513 16.7119 31.3573
Au 21.646 18.1543 28.9887
Au 21.3602 18.0799 33.8474
Pd 23.4583 21.0481 35.5781
Au 23.5786 18.2324 35.5964
Au 23.7146 19.773 33.1852
Au 20.0261 22.7874 3.11193
Au 21.8355 20.6342 2.66543
Au 20.048 20.4903 4.69132
Au 20.2963 22.1456 7.03348
Pd 22.7955 21.2003 7.40399
Au 22.1778 22.4234 4.82951
Au 20.9014 20.8192 9.52027
Au 21.0384 22.3792 11.9289
Pd 23.5607 21.522 12.3326
Au 22.8943 22.8331 9.81091
Au 19.6878 18.8583 14.0361
Au 19.7768 20.2346 16.3817
Pd 22.4252 19.7116 16.8195
Pd 21.6869 20.9624 14.3712
Au 20.5273 19.0163 18.927
Au 19.9182 20.7742 21.1108
Au 22.3219 19.6576 21.5578
Au 20.3669 23.3896 19.2567
Pd 19.8356 19.3437 23.4687
Au 19.4817 20.8312 25.8243
Pd 21.7779 19.5938 26.6317
Au 21.9346 20.9918 24.2288
Pd 21.5611 21.0113 29.0515
Au 21.3146 22.4091 31.4843
Au 23.8007 21.3269 30.7151
Au 21.6649 22.4447 26.6561
Pd 23.534 22.5626 33.2087
Au 23.2803 23.7919 35.6563
Au 25.7468 22.5526 34.8101
Au 28.097 23.238 33.2946
Au 17.4817 23.5252 2.448
Pd 22.3757 25.1791 4.2961
Au 20.0815 24.4064 5.4793
Pd 20.1247 25.9576 7.78697
Au 22.293 24.2466 7.19298
Au 22.1714 27.0414 6.25101
Pd 20.363 23.6958 9.42382
Au 20.829 23.7758 14.5109
Pd 23.4602 23.05 14.8242
Au 22.9178 24.4039 12.5225
Au 21.326 22.3654 16.8004
Au 21.0495 27.5631 17.1461
Au 24.5312 26.4698 20.3983
Pd 20.0244 24.9889 16.9811
Au 22.0342 22.4913 21.8012
Au 21.2936 27.3533 21.8714
Au 24.3981 21.451 20.5812
Pd 18.4931 26.9318 21.9651
Au 19.5885 22.2754 23.4152
Au 19.2646 23.742 25.8177
Au 21.6814 23.904 24.2484
Au 19.9891 26.1662 24.2647
Au 19.1889 22.2727 28.24
Au 18.9003 23.6774 30.6538
Au 21.3515 23.8713 29.0788
Au 21.3221 25.3816 26.7057
Au 21.0591 23.7567 33.9374
Pd 20.8506 25.0699 36.2197
Au 25.4169 25.2499 34.8486
Pd 23.5529 24.1007 30.7698
Au 19.1946 28.6856 7.83807
Au 18.4786 30.3779 5.67207
Au 19.5744 25.4924 3.1171
Au 19.8351 27.1334 10.3432
Au 22.1813 25.6777 9.81198
Au 19.5947 27.294 5.28425
Pd 20.3688 25.1479 12.1369
Pd 18.9236 28.3813 12.7733
Au 19.5165 26.5818 14.7376
Au 22.243 25.9967 15.0211
Au 20.554 29.2044 14.9263
Au 20.064 32.509 17.5523
Au 21.9371 30.2873 17.2478
Au 21.4126 31.9521 15.0786
Au 16.9074 27.7284 19.7603
Au 17.6188 31.8183 22.318
Au 19.4642 29.5501 22.0747
Pd 17.8369 30.3616 19.8827
Au 18.2328 28.3741 24.4482
Au 17.9741 29.7937 26.8759
Pd 19.6679 27.5841 26.7401
Au 19.2257 31.01 24.523
Pd 18.9459 25.1602 28.2291
Au 18.6625 26.5448 30.6602
Au 21.0398 26.7197 29.1908
Au 19.4338 28.9657 29.1926
Au 21.0556 25.2333 31.5566
Au 18.5131 26.4153 35.3988
Pd 23.2605 25.3098 33.22
Pd 20.7709 28.0317 31.6936
Au 17.5067 26.493 7.00803
Au 19.9522 32.3954 6.70622
Pd 16.1047 33.5063 8.7035
Au 17.484 34.7546 10.8663
Pd 21.6139 27.4542 12.8187
Pd 20.5409 30.8871 8.81786
Au 18.3725 29.913 10.6121
Pd 18.9426 35.8195 13.1822
Au 20.7679 33.7248 12.967
Au 20.1744 35.2224 10.7818
Au 19.4864 34.2333 15.3693
Au 15.2341 37.3768 20.4712
Au 16.9379 35.2213 20.2106
Au 19.1667 37.3235 17.9137
Au 15.8224 34.112 22.5756
Pd 15.6904 35.4619 24.9767
Au 18.5558 34.4986 22.423
Au 16.8377 36.7015 22.6728
Au 17.427 33.2973 24.7785
Au 17.2445 34.6726 27.1985
Au 20.0213 35.0619 27.0568
Au 18.4324 35.9073 24.8622
Au 17.7883 31.2175 29.302
Pd 17.5608 32.5118 31.6317
Au 19.2156 30.3321 31.7196
Au 18.819 33.8074 29.3826
Au 22.943 28.2127 33.5023
Pd 18.4092 27.8998 33.0846
Au 20.4427 29.232 34.1151
Au 20.4073 32.7583 31.3661
Au 21.8397 7.67132 3.28828
Au 21.413 5.87634 7.77524
Au 22.9505 6.43977 5.51473
Au 21.2993 4.0364 12.4591
Au 22.699 4.72433 10.1297
Au 21.2512 2.35772 17.2107
Au 22.6332 2.98876 14.8533
Pd 21.3183 2.55747 21.8426
Au 22.6088 1.55884 19.5722
Au 21.4561 4.34252 26.4762
Au 22.7881 3.21183 24.1605
Pd 21.5758 6.30017 30.9445
Pd 22.8778 5.17607 28.7008
Pd 21.9881 8.15537 35.4206
Au 23.0333 6.84905 33.1927
Au 23.1866 12.2834 3.1403
Pd 23.784 9.63031 3.31789
Au 22.0346 9.19406 5.47176
Au 22.3075 10.7658 7.73996
Au 23.2131 8.00965 7.80063
Pd 24.0905 11.2215 5.52299
Au 21.6955 7.4163 10.0601
Au 22.0198 9.02204 12.3602
Au 23.0457 6.28614 12.4186
Au 23.5489 9.61492 10.1002
Au 21.6056 5.61781 14.7422
Au 21.8946 7.31278 17.0285
Au 22.946 4.62485 17.1175
Au 23.3613 7.9505 14.6989
Au 21.5398 4.04179 19.4825
Au 21.9601 7.42129 21.7122
Au 23.007 4.75601 21.8174
Au 23.2426 6.33467 19.4138
Au 21.7289 5.8128 24.1211
Au 22.1368 9.25839 26.2984
Pd 23.1835 6.58563 26.3862
Au 23.4634 8.12474 24.0239
Pd 21.8613 7.74153 28.6298
Au 22.3644 11.1253 30.9206
Au 23.3267 8.39369 30.8913
Au 23.6008 9.95467 28.5529
Au 22.1405 9.62571 33.2788
Pd 23.7523 12.6562 35.4579
Au 24.0839 9.95192 35.4792
Au 24.2202 11.5234 33.0884
Pd 25.263 15.6786 3.8967
Au 25.7264 12.9999 3.93195
Au 23.5024 13.9094 5.37634
Au 23.7418 15.549 7.72919
Au 24.3784 12.8213 7.82391
Au 26.0635 14.669 6.27341
Au 22.5979 12.353 10.0338
Au 22.8812 13.9234 12.3246
Au 23.8504 11.1858 12.3952
Au 24.6584 14.4231 10.1431
Pd 22.3109 10.6243 14.64
Pd 22.5667 12.2316 16.9087
Au 23.631 9.59631 16.9792
Au 24.1075 12.7716 14.6597
Pd 22.1867 8.98929 19.3242
Au 22.6377 12.3631 21.5484
Au 23.7101 9.69919 21.6478
Au 23.9155 11.2826 19.2618
Au 22.4017 10.8 23.9335
Au 22.8684 14.0877 26.1281
Pd 23.9288 11.4696 26.1973
Au 24.2013 12.9676 23.8269
Au 22.5988 12.6108 28.5317
Au 23.9767 15.7428 30.6508
Pd 24.3913 13.0889 30.6428
Au 24.6234 14.6346 28.237
Pd 23.852 14.1798 33.0774
Pd 23.6308 15.4334 35.4576
Au 25.9733 14.0398 34.8229
Au 26.129 15.5864 32.4282
Au 24.8944 18.3531 3.74207
Pd 27.2649 19.2276 4.80244
Au 25.5735 17.3976 6.1965
Au 25.7666 19.0078 8.60034
Au 26.2984 16.2785 8.67008
Pd 27.4871 20.8571 7.16371
Pd 23.97 17.1405 10.0729
Au 24.179 18.7096 12.4004
Pd 24.9017 15.9661 12.4276
Au 26.5147 17.8454 11.0378
Pd 23.1427 15.4504 14.587
Au 23.3089 17.0194 16.8788
Au 24.3722 14.3676 16.9316
Au 25.1225 17.4986 14.7198
Pd 22.8764 13.9133 19.2038
Au 23.3354 17.0941 21.4319
Pd 24.4353 14.5129 21.468
Au 24.7021 16.1479 19.1818
Pd 23.1321 15.5669 23.7501
Au 24.161 18.8133 25.7376
Au 24.8926 16.1516 25.8244
Au 25.1532 17.6352 23.433
Au 24.0861 17.3182 28.175
Au 23.9182 18.5445 30.6766
Au 26.2813 17.1718 29.8902
Au 26.4408 18.7001 27.3925
Au 23.7798 16.9613 33.1491
Au 25.8708 19.7351 34.8637
Au 25.9562 16.8759 34.8592
Au 26.184 18.4743 32.43
Au 24.3842 20.9673 3.58315
Pd 26.6992 21.8812 4.73373
Au 25.0541 20.1419 6.12362
Au 25.24 21.759 8.56504
Pd 28.1867 19.8549 9.63569
Pd 26.9828 23.5198 7.21526
Au 25.91 20.573 11.0262