1687
Atoms. Timestep: 20329
Au 9.6346 6.99477 9.78987
Au 8.32332 6.22047 12.1529
Au 9.36239 4.2003 13.6265
Au 8.16897 4.98187 18.3469
Au 8.35709 3.82128 23.6514
Au 8.78956 6.80543 27.255
Au 9.37318 9.9893 30.8554
Pd 8.69431 9.19461 8.38275
Au 7.35622 8.39031 10.7595
Au 6.38067 10.5182 9.31515
Pd 7.19808 5.59714 14.5462
Au 6.20361 7.71996 13.1678
Au 7.16448 7.10548 16.8554
Pd 6.27919 9.3105 15.4045
Au 8.22178 5.04356 21.2235
Au 7.21993 7.20735 19.7237
Au 7.44546 5.95757 24.996
Pd 7.39855 7.30716 22.5895
Pd 7.97542 9.09368 28.5748
Pd 6.62769 8.22906 26.335
Pd 8.57279 12.3051 32.0567
Pd 7.12253 11.3428 29.9107
Au 7.71471 11.3514 7.00619
Pd 5.26864 9.87458 11.7745
Au 4.28448 11.9678 10.3422
Au 5.27826 11.4687 14.0024
Au 4.27248 13.6437 12.5828
Au 6.27678 9.4161 18.2388
Au 5.34915 11.6379 16.779
Au 6.37167 9.49622 21.1009
Au 5.41076 11.727 19.614
Pd 6.54256 9.59384 23.9431
Au 5.50107 11.7908 22.4559
Au 5.73762 10.4612 27.6881
Au 5.60752 11.8463 25.3002
Au 6.30782 13.6103 31.1632
Au 4.92358 12.7079 29.0172
Au 5.46166 14.3831 10.149
Au 3.32383 15.9467 11.2295
Au 4.38149 19.2892 8.51265
Au 4.3826 13.8898 15.3538
Au 3.443 16.1873 13.9444
Au 4.45878 13.9918 18.1531
Au 3.53544 16.2974 16.7057
Au 4.53067 14.0546 20.9761
Au 3.60122 16.3629 19.4982
Au 4.62607 14.0979 23.8061
Au 3.66852 16.3929 22.3129
Au 4.75573 14.1561 26.6295
Au 3.76549 16.4179 25.1315
Au 5.31319 17.445 30.1866
Au 3.91349 16.5043 27.913
Pd 6.82176 19.5069 9.81168
Au 2.6746 18.4944 12.5399
Au 3.91205 21.9241 8.45448
Au 2.77904 18.623 15.2431
Au 3.62703 20.8577 13.6561
Au 2.82494 18.6975 18.0043
Au 3.59789 21.005 16.4643
Au 2.86708 18.7246 20.8015
Au 3.58664 21.0764 19.2583
Au 2.92365 18.7359 23.6228
Au 3.58758 21.0889 22.0882
Au 2.99792 18.7598 26.4283
Au 3.6577 21.0748 24.9374
Au 3.14617 18.7984 29.1385
Pd 3.81822 21.0785 27.769
Au 6.12312 22.1225 9.85388
Pd 3.79266 20.618 10.8596
Au 4.43101 24.2932 9.6851
Pd 4.51231 23.2122 14.9705
Au 4.53167 23.0404 12.1273
Pd 4.4843 23.3373 17.7745
Au 5.28736 25.6013 16.3224
Au 4.40842 23.4256 20.5734
Au 5.2634 25.7155 19.1075
Au 4.41939 23.4132 23.3945
Au 5.24066 25.7373 21.9123
Au 4.47522 23.3618 26.2637
Au 5.22168 25.6988 24.7697
Au 4.69157 22.854 31.0205
Au 3.39961 23.615 28.783
Au 10.6699 23.9484 10.1458
Au 5.08252 26.6572 11.0463
Au 8.81286 26.1255 10.0654
Au 5.28763 25.4498 13.511
Au 5.87085 28.9799 12.4057
Au 6.13797 27.9887 17.678
Au 6.16427 27.8447 14.8852
Pd 6.14831 28.0341 20.4942
Au 6.98335 30.3254 19.0816
Au 6.01707 28.042 23.3392
Au 6.90097 30.3418 21.9559
Au 4.05816 25.9021 27.2966
Au 4.82461 28.2074 25.901
Au 4.28222 25.3569 32.003
Au 4.94133 27.7038 30.7731
Au 6.25838 20.7847 7.34549
Pd 6.44377 25.8787 8.71222
Au 7.91994 25.1075 6.4468
Au 8.233 29.5091 13.8905
Au 6.98217 28.2767 9.97977
Au 7.07807 30.2561 16.2926
Pd 9.30254 31.8383 15.3728
Au 7.80635 32.5656 20.4975
Au 7.92423 32.5518 17.673
Au 5.71203 30.4984 24.5802
Au 7.7559 32.0702 25.5278
Au 3.0031 26.1218 29.7602
Au 3.70964 28.3989 28.4022
Au 7.02725 29.2027 31.7581
Pd 5.76197 29.9285 29.3736
Au 10.011 9.98968 6.05753
Au 10.6244 4.92702 11.2788
Pd 11.9313 5.7685 8.93733
Au 10.8072 6.42709 13.5524
Pd 12.1233 7.22499 11.186
Au 10.4081 3.52265 17.4486
Pd 11.7123 4.21084 15.0379
Au 10.5135 3.65686 22.0569
Au 11.8243 2.71299 19.7191
Au 9.68164 4.62623 25.8523
Pd 11.9146 4.53024 24.2738
Au 10.2182 7.7241 29.4908
Au 11.0867 5.53033 28.09
Au 10.8544 10.9608 32.9889
Au 11.665 8.65227 31.7285
Au 12.2856 8.6295 5.19256
Au 10.9191 7.78289 7.40908
Au 10.1651 11.6015 8.22635
Au 8.83622 10.772 10.6365
Au 11.143 9.36812 9.68147
Au 9.07757 13.7292 6.7207
Au 9.81954 8.59093 12.0793
Au 8.55668 7.87172 14.4945
Au 12.3547 8.8243 13.4473
Au 11.4068 11.0009 11.9716
Au 9.4488 5.59816 15.9555
Au 9.62715 7.28245 18.1905
Au 11.9221 5.79632 17.2864
Pd 11.0066 8.01554 15.8222
Au 10.5283 5.06498 19.7069
Au 9.71234 7.38179 21.0336
Pd 12.0492 5.97052 21.9097
Pd 12.1257 7.44727 19.5343
Au 9.7418 6.00835 23.4399
Au 8.85981 8.25599 24.8391
Pd 11.1498 6.89315 25.7086
Au 11.2506 8.32906 23.3016
Pd 10.3002 9.14443 27.092
Au 9.44718 11.4145 28.4626
Pd 11.7389 10.0653 29.3391
Au 11.8639 11.5097 26.9292
Au 10.8938 12.3885 30.7008
Au 9.94432 14.6702 32.1018
Pd 12.3099 13.2887 32.9437
Pd 12.3753 14.7526 30.6341
Au 5.48037 12.6915 7.9974
Au 6.76775 15.1125 7.70313
Au 7.8511 12.9718 9.19689
Au 6.59371 12.2161 11.6372
Au 10.4203 13.1971 10.5016
Au 9.33545 15.3419 8.97445
Pd 7.61428 10.0496 13.0719
Pd 7.75049 11.6517 15.3099
Pd 10.0869 10.2294 14.3775
Au 9.10858 12.4012 12.9414
Au 8.68963 9.47529 16.742
Au 7.81642 11.7811 18.1121
Au 11.2338 9.65644 18.0676
Au 10.3039 11.8276 16.6353
Au 8.7449 9.57771 19.5748
Au 7.8968 11.8638 20.9461
Au 11.3142 9.75555 20.8902
Pd 10.3881 11.9504 19.4412
Au 8.86126 9.65914 22.424
Au 7.99037 11.938 23.7855
Pd 10.3879 10.6028 24.686
Au 10.4759 12.0176 22.2773
Au 7.99749 10.525 26.1868
Au 7.11323 12.8171 27.5236
Au 10.9931 13.8198 28.3051
Au 9.5321 12.8833 26.0303
Au 8.56193 13.7562 29.7881
Pd 7.63926 16.0283 31.13
Au 12.0669 16.1403 33.0622
Au 10.0487 16.1188 29.7402
Au 8.83228 16.5819 6.5041
Au 10.7982 18.1457 5.39523
Au 4.5101 16.5789 8.81338
Au 5.79539 15.987 12.4729
Au 8.08262 14.583 11.4801
Au 7.03539 16.7154 9.98838
Pd 6.77085 13.8144 13.8987
Au 5.9302 16.2503 15.2286
Au 9.33835 13.9971 15.2005
Au 8.36689 16.1752 13.7698
Au 6.86151 13.9934 16.6676
Au 6.00483 16.3612 18.0228
Au 9.45817 14.1499 18.0046
Au 8.48938 16.3913 16.5413
Au 6.94213 14.0952 19.4845
Au 6.06286 16.4242 20.8341
Au 9.53846 14.2288 20.7983
Au 8.57564 16.4813 19.3438
Au 7.01049 14.1574 22.3102
Au 6.13692 16.4541 23.6592
Au 9.60017 14.2852 23.6265
Au 8.62834 16.5323 22.1524
Pd 7.11384 14.2179 25.1199
Pd 6.2585 16.505 26.462
Au 8.59134 15.1864 27.3958
Au 8.70145 16.5652 24.9716
Au 6.13007 15.1212 28.9227
Au 7.44932 18.8928 31.1669
Pd 9.77264 17.529 32.0867
Au 7.70687 17.4629 28.7919
Au 8.54392 19.4746 6.35659
Au 6.56205 17.9279 7.48914
Pd 4.92659 18.1801 11.0838
Au 6.12903 20.7261 12.2616
Pd 7.40769 18.2968 12.3328
Au 11.2471 21.2385 10.0511
Pd 5.104 18.5159 13.7912
Au 6.02426 20.932 15.0392
Pd 7.58743 18.6326 15.0799
Au 8.61102 20.879 13.5851
Au 5.16932 18.6701 16.5478
Pd 6.02056 21.0626 17.8349
Au 7.66598 18.7656 17.8623
Au 8.52457 21.0507 16.3652
Au 5.20306 18.7571 19.3425
Au 6.00521 21.1551 20.6416
Au 7.70869 18.8352 20.6748
Au 8.51907 21.161 19.1867
Au 5.24425 18.7829 22.1589
Au 6.04061 21.1623 23.4717
Au 7.75785 18.8612 23.4967
Au 8.53796 21.2131 22.0024
Au 5.31567 18.7953 24.9786
Pd 6.15266 21.1382 26.2918
Au 7.83854 18.8741 26.3235
Au 8.58878 21.2134 24.8519
Au 5.4311 18.8341 27.7745
Au 5.14284 20.2872 30.1427
Au 9.57027 20.3482 32.1165
Au 7.56144 20.3266 28.7359
Au 2.51042 18.1808 9.94196
Au 10.6701 22.5918 7.63163
Au 6.73914 24.524 11.1244
Au 7.44709 26.8976 12.4891
Pd 8.50609 22.3292 11.2106
Pd 11.2522 26.349 11.4469
Au 6.94245 23.1729 13.5432
Pd 7.73193 25.5597 14.9104
Au 9.44047 23.2957 14.8796
Au 9.19546 24.7198 12.504
Au 6.8764 23.3382 16.3679
Pd 7.70589 25.7187 17.7064
Au 9.36974 23.4328 17.7306
Au 10.2062 25.6872 16.2732
Au 6.85168 23.4408 19.1719
Au 7.68372 25.7562 20.5213
Pd 9.36135 23.5003 20.5446
Au 10.21 25.7904 19.102
Pd 6.85149 23.4727 21.9797
Au 7.66883 25.7763 23.3701
Au 9.36634 23.5214 23.3786
Au 10.1848 25.8049 21.9503
Au 6.8851 23.4543 24.8295
Pd 6.6534 24.8787 27.1732
Pd 8.32698 22.6367 27.2402
Au 9.08727 24.9566 25.7946
Pd 5.9451 22.5692 28.6317
Au 6.77337 24.295 32.0953
Pd 7.26153 21.7417 31.0725
Pd 8.04537 24.0354 29.6399
Pd 8.24033 23.7306 8.79407
Au 10.1858 23.9844 5.26801
Pd 10.3167 25.3485 7.77015
Au 7.72053 30.6182 11.3597
Pd 8.99271 29.8173 8.93808
Au 9.97454 26.7332 5.45018
Au 9.38027 28.5386 11.3889
Au 10.1435 31.1179 12.7664
Au 9.86835 27.1804 13.89
Pd 13.2645 28.0594 10.4725
Au 8.62088 28.0091 16.2441
Au 9.49537 30.3415 17.6468
Au 11.1268 28.128 17.6352
Au 11.111 29.8326 15.218
Au 8.55572 28.0603 19.083
Pd 9.36212 30.3401 20.5773
Au 11.0183 28.0994 20.564
Au 11.9273 30.3715 19.1855
Au 8.50796 28.0741 21.9586
Au 8.24028 29.5235 24.3407
Pd 9.89825 27.2498 24.3499
Pd 10.6879 29.5939 22.9734
Pd 7.40943 27.1887 25.751
Pd 6.21235 27.4148 28.2671
Pd 8.79225 26.3711 28.183
Au 9.60486 28.6746 26.7518
Au 5.50715 25.1186 29.6356
Au 6.30606 26.8708 33.0449
Au 8.85981 25.8177 33.098
Au 9.6646 28.1342 31.6146
Au 5.87808 23.5172 7.44554
Au 8.72466 21.0214 8.69795
Au 10.4676 29.1143 6.66366
Pd 8.47691 27.4524 7.69025
Au 10.9823 31.4641 7.93549
Au 12.0455 28.3647 4.50287
Au 9.5464 32.148 10.179
Au 11.8037 32.7445 11.4121
Au 11.7502 28.7993 12.7269
Au 13.2984 31.9321 9.24095
Au 10.21 34.0288 16.855
Pd 8.74558 34.69 19.0831
Au 11.9074 31.9732 16.8551
Au 11.6394 32.9243 14.2878
Au 10.2735 32.5651 19.1748
Au 9.90273 34.0934 21.5014
Au 11.4994 31.8939 21.6496
Au 11.3818 35.0937 19.3556
Au 8.97843 31.9131 22.9794
Au 4.53533 30.6287 27.0536
Au 10.3904 31.0874 25.3332
Au 11.1675 33.4191 23.9824
Au 7.0137 29.6847 26.8905
Au 7.79265 31.4765 30.3916
Pd 8.31383 28.9387 29.2895
Au 6.56268 32.1806 27.9941
Au 7.54372 26.6349 30.6725
Pd 9.18564 30.6358 32.6088
Pd 8.42084 28.362 33.91
Au 9.94998 32.8752 31.2599
Au 13.2219 6.55096 6.61882
Au 13.4546 8.02042 8.79872
Au 14.7908 8.78083 6.31702
Au 13.0042 4.91111 12.6085
Au 14.3255 5.72917 10.2172
Au 13.1438 3.27205 17.3216
Au 14.4575 3.98603 14.9423
Pd 13.248 3.50049 21.9521
Au 14.5356 2.5266 19.6432
Au 13.3358 5.37427 26.5539
Au 14.6489 4.28468 24.2037
Au 12.5323 6.45986 30.3179
Au 14.7969 6.32447 28.808
Au 13.1515 9.62908 33.8612
Au 13.9745 7.39762 32.5311
Au 11.3901 12.3599 5.79597
Au 13.7464 10.9572 4.91358
Au 12.4781 10.2041 7.31165
Au 12.7367 11.824 9.55878
Au 15.0408 10.4116 8.60963
Au 13.9497 12.6115 7.10271
Au 13.7107 9.62893 11.0504
Pd 13.9792 11.2287 13.2878
Au 14.582 7.30388 12.4735
Pd 15.3076 12.0197 10.8645
Au 13.2636 6.51287 14.8799
Au 13.5078 8.18792 17.1268
Pd 14.687 5.61714 17.1854
Au 14.8818 8.97558 14.7207
Au 13.3468 4.95416 19.593
Au 13.6219 8.3258 21.7909
Pd 14.7911 5.77703 21.8557
Au 14.9328 7.29854 19.4514
Au 13.486 6.80725 24.1812
Au 12.7024 9.22715 25.5647
Pd 14.923 7.73195 26.4415
Au 15.0932 9.22096 24.0687
Au 12.5939 7.79436 27.9505
Au 13.3123 12.4503 29.1813
Pd 14.0479 8.73569 30.1562
Pd 14.1575 10.1432 27.7937
Au 13.2003 11.0188 31.5576
Au 14.4096 14.7654 33.9706
Pd 14.6825 11.9028 33.8035
Au 14.7297 13.3863 31.5152
Pd 11.1291 15.226 5.63791
Au 13.3812 13.8365 4.64184
Pd 11.634 13.9766 8.05228
Pd 11.9121 15.5642 10.3252
Pd 14.225 14.1997 9.37034
Au 13.6205 15.4851 6.86521
Au 13.0041 13.3926 11.8093
Au 11.6926 12.5981 14.2333
Au 15.5736 13.5882 13.1154
Au 14.483 15.7565 11.6387
Au 12.6189 10.4348 15.6874
Pd 12.8604 12.0133 17.9484
Au 15.1668 10.6101 16.982
Pd 14.2474 12.7995 15.539
Au 13.7697 9.83098 19.3928
Au 12.9463 12.1149 20.756
Au 15.2774 10.7288 21.6837
Au 15.4401 12.194 19.2724
Au 12.8294 10.7012 23.1726
Pd 11.984 12.9506 24.5444
Au 14.3046 11.6133 25.4183
Pd 14.4561 13.0239 23.0371
Pd 13.4458 13.8777 26.8041
Au 12.5363 16.1679 28.2297
Au 14.8838 14.8112 29.1227
Au 15.0442 16.2093 26.7245
Au 14.4901 16.2565 31.634
Au 14.1725 17.6574 34.0465
Au 16.4966 16.3115 34.9572
Au 16.604 17.8033 32.6259
Au 10.49 21.0854 5.28878
Au 13.0282 16.7787 4.43293
Au 11.3469 16.851 7.83395
Au 9.64099 16.9234 11.3136
Au 13.8759 17.0866 9.15722
Au 13.2805 18.4309 6.67597
Au 10.6978 14.7726 12.7754
Au 10.9614 16.3408 15.0624
Pd 13.2588 14.9436 14.083
Pd 12.1844 17.1164 12.6236
Au 11.9439 14.1633 16.5149
Au 11.0751 16.5154 17.8605
Au 14.5037 14.3352 17.8248
Au 13.5401 16.4962 16.3813
Pd 12.0214 14.2935 19.3115
Au 11.1488 16.5854 20.6559
Pd 14.5831 14.4298 20.6404
Au 13.6386 16.6327 19.176
Au 12.1114 14.3452 22.1297
Au 11.2112 16.6287 23.48
Au 13.5908 15.2603 24.4184
Au 13.7099 16.6826 21.9932
Au 11.1043 15.2245 25.9008
Au 10.1764 17.5237 27.2997
Au 14.6633 17.6965 29.2132
Au 12.6756 17.5752 25.8012
Au 12.1749 17.6129 30.7129
Au 11.8663 19.0047 33.0975
Au 16.2765 19.2062 35.0502
Pd 14.2802 19.1244 31.6661
Pd 11.0311 19.7325 7.68213
Au 12.7126 19.799 4.29372
Au 9.07257 18.1843 8.79493
Au 9.35173 19.7246 11.1753
Pd 11.6146 18.4168 10.1459
Pd 13.5234 19.9742 9.00283
Pd 9.94338 18.4827 13.6423
Pd 11.0755 21.0332 14.9023
Au 12.4995 18.674 14.9423
Pd 11.8763 19.9296 12.4936
Au 10.1227 18.7697 16.3913
Au 11.0547 21.1623 17.7091
Pd 12.6727 18.8796 17.7341
Au 13.5419 21.1478 16.2561
Au 10.2082 18.8675 19.1907
Au 11.0587 21.2434 20.5311
Au 12.7448 18.9647 20.5202
Pd 13.5554 21.2618 19.0763
Au 10.2427 18.9163 22.0061
Au 11.0924 21.2722 23.3773
Au 12.7957 18.9956 23.3525
Au 13.593 21.3173 21.9029
Au 10.3054 18.9376 24.8421
Au 10.0094 20.3904 27.2742
Au 12.3326 19.0338 28.2802
Au 12.4966 20.4514 25.7907
Pd 9.86424 18.9628 29.7363
Au 11.6796 21.8339 33.0953
Au 13.967 20.5203 34.0727
Pd 11.9968 20.4302 30.7075
Au 12.6409 24.2397 6.62893
Pd 12.9544 21.3428 6.61493
Pd 12.74 25.6378 9.14573
Pd 13.0728 24.1731 11.4732
Au 13.732 21.4816 11.3673
Pd 13.1391 22.8612 8.98692
Pd 10.9179 22.4907 12.5258
Au 11.6345 24.916 13.8436
Au 13.318 22.6714 13.8549
Au 15.4856 24.4299 12.8311
Au 11.9292 23.4423 16.2358
Au 12.7354 25.8186 17.6736
Au 14.3975 23.5488 17.6362
Au 14.1615 25.142 15.2613
Au 11.8906 23.5213 19.1003
Pd 12.6908 25.8361 20.5427
Pd 14.3749 23.5883 20.499
Au 15.1649 25.8671 19.1192
Au 11.8913 23.5583 21.9324
Au 11.6024 25.0004 24.3449
Pd 13.3043 22.7577 24.3253
Au 14.1044 25.0641 22.8945
Au 10.8002 22.7055 25.7947
Au 10.4664 24.116 28.2091
Au 12.1725 21.8551 28.2424
Au 12.9798 24.175 26.7599
Au 9.69184 21.783 29.7052
Au 9.36008 23.1889 32.1162
Au 13.7689 23.3668 34.0734
Au 11.8125 23.2509 30.6805
Au 12.4509 22.7462 4.25095
Pd 12.3843 27.0181 6.7938
Au 10.8593 27.7401 9.04574
Pd 12.8817 29.3997 8.10518
Pd 15.1516 25.9581 10.4896
Au 12.5165 30.6957 5.82387
Au 13.689 26.5612 12.817
Au 14.0338 28.9821 14.0869
Au 16.2858 26.8515 14.3037
Au 15.6437 28.4176 11.8537
Au 12.3502 27.2852 15.2986
Au 13.6604 29.8134 16.9063
Au 15.0304 27.4892 16.7701
Au 16.3436 29.4563 15.165
Au 13.5386 28.1336 19.1659
Au 13.199 29.6627 21.6206
Au 14.8994 27.401 21.537
Pd 14.7505 30.7163 19.4692
Au 12.3819 27.3257 22.953
Au 12.0601 28.8035 25.3514
Au 13.7657 26.5497 25.3477
Au 14.5422 28.9241 24.0115
Au 11.2795 26.4375 26.7538
Au 10.9664 27.9042 29.1478
Au 12.6244 25.6257 29.1781
Pd 13.4155 28.0195 27.7547
Au 10.1523 25.5291 30.6414
Au 10.9619 27.4003 34.0162
Au 11.4562 24.731 33.1083
Au 12.2796 27.1097 31.6286
Au 8.20422 22.3662 6.29258
Au 16.6769 23.1619 2.26065
Au 14.3179 27.2188 3.38872
Au 11.3624 30.183 10.3068
Au 14.8603 31.1168 7.15541
Au 12.2313 25.6342 4.28888
Au 13.6008 30.6617 11.7666
Pd 14.048 33.2121 12.6844
Au 15.9965 31.0499 12.8821
Au 16.6235 33.7892 12.9765
Au 13.8892 31.5829 14.7962
Au 12.939 34.5381 17.1596
Pd 14.7774 32.4618 17.2814
Au 14.7352 34.2094 15.1122
Au 13.0524 32.9388 19.4409
Pd 12.6432 34.4055 21.816
Au 14.3302 32.2405 21.9058
Au 14.0888 35.4535 19.7297
Pd 12.853 31.1893 24.0326
Au 9.89951 33.5007 26.5278
Au 11.7858 30.3281 27.7507
Au 12.5562 32.717 26.3871
Au 9.13051 31.2272 27.8826
Au 8.67584 33.6152 28.9831
Au 13.0973 29.523 30.1838
Au 11.2851 32.865 28.8916
Au 10.4581 30.4734 30.2288
Pd 11.7164 29.6929 32.6404
Au 13.1209 28.8465 34.8158
Au 12.5373 31.9941 31.3018
Pd 16.1868 9.65035 4.14041
Pd 15.6788 6.64094 7.85018
Au 17.1097 7.49247 5.49282
Pd 15.7456 4.79832 12.5628
Au 17.0484 5.54845 10.1388
Pd 15.8616 3.16631 17.2832
Pd 17.1663 3.83858 14.9041
Pd 15.9573 3.30901 21.8655
Pd 17.2413 2.3939 19.5765
Au 16.0574 5.16048 26.4782
Au 17.3656 4.04121 24.1438
Au 16.2565 7.25548 31.0429
Pd 17.5071 6.08666 28.7172
Au 15.427 8.39061 34.6035
Au 17.809 8.25202 33.2865
Pd 15.7046 12.4485 3.81042
Au 17.9951 11.1362 2.89768
Pd 16.3266 11.2348 6.25628
Au 16.5875 12.8385 8.44872
Au 17.3192 8.99887 7.69527
Au 18.2312 12.8008 4.9778
Au 15.9566 8.13485 10.0988
Au 16.253 9.79476 12.3257
Au 17.357 7.11166 12.3915
Au 17.6148 10.6015 9.92706
Au 16.0204 6.33048 14.8115
Au 16.319 8.00474 17.0424
Pd 17.4291 5.43233 17.13
Au 17.6827 8.76797 14.6403
Pd 16.0748 4.80411 19.5118
Au 16.4074 8.14497 21.7343
Au 17.5218 5.56173 21.794
Au 17.7212 7.12902 19.3702
Pd 16.2219 6.60059 24.1149
Au 16.5499 10.1374 26.317
Au 17.653 7.47384 26.3678
Au 17.8587 9.01409 23.9766
Pd 16.3983 8.67013 28.6734
Au 15.6494 11.0858 30.0114
Au 17.9447 9.59883 30.9028
Au 18.1002 11.0839 28.5578
Au 15.5431 9.68162 32.3528
Au 16.7593 13.4133 34.824
Au 17.0553 10.5525 34.6576
Au 17.1452 12.0153 32.3558
Au 15.2649 15.4027 3.48019
Au 17.4858 14.0686 2.59435
Au 15.9223 14.136 5.90992
Au 16.1898 15.7503 8.17483
Au 18.5159 14.4302 7.16838
Pd 17.8092 15.7413 4.70792
Au 16.8788 14.404 10.6808
Au 17.2208 15.9484 12.9476
Au 17.9319 12.2116 12.1593
Au 18.8234 16.0041 9.41956
Au 16.5479 11.4074 14.5754
Au 16.859 12.9854 16.8507
Au 18.0054 10.4126 16.896
Au 18.2834 13.7962 14.424
Au 16.6251 9.6897 19.3194
Au 16.9168 13.0656 21.5473
Pd 18.0713 10.5332 21.5862
Pd 18.2913 12.0366 19.1607
Pd 16.7355 11.6183 23.9374
Pd 15.9232 13.9391 25.3036
Au 18.2314 12.5396 26.1931
Au 18.39 13.9704 23.8197
Au 15.7757 12.5272 27.6635
Au 17.0116 16.3618 30.1145
Au 17.294 13.4529 29.9779
Au 17.4282 14.8791 27.6145
Au 16.8471 14.9157 32.5253
Pd 18.5983 17.9023 35.8188
Pd 18.8109 15.0108 35.6991
Au 18.9624 16.5014 33.5021
Au 14.9157 18.4397 3.31747
Au 17.1127 17.0823 2.41334
Au 15.5541 17.0789 5.66902
Pd 15.7865 18.6559 7.98128
Pd 18.068 17.3491 6.93029
Pd 17.4524 18.7422 4.56543
Au 16.4679 17.303 10.4604
Au 14.7862 17.2878 13.9321
Au 19.1555 17.5464 11.7015
Au 18.3463 18.8985 9.21885
Au 15.8747 15.1331 15.3867
Pd 16.1419 16.6561 17.692
Au 18.5359 15.3584 16.7079
Au 17.4955 17.4892 15.2422
Au 17.1226 14.5361 19.1493
Au 16.22 16.7548 20.5068
Au 18.6176 15.4553 21.4321
Pd 18.7856 16.8852 19.0335
Au 16.0718 15.344 22.9216
Au 15.1774 17.6262 24.3174
Au 17.562 16.2829 25.2349
Au 17.7268 17.7073 22.8369
Pd 17.1408 17.757 27.713
Au 16.7443 19.2241 30.1993
Pd 19.093 17.9281 31.153
Au 19.2209 19.3146 28.7569
Au 18.7256 19.3923 33.6064
Au 18.3887 20.8152 35.9499
Au 20.8287 19.628 35.5497
Au 21.0102 21.069 33.168
Au 16.968 24.6982 4.65088
Au 19.2279 18.787 2.18998
Au 15.1972 20.0573 5.57618
Au 16.0256 20.203 10.2981
Au 17.6807 20.3238 6.89608
Au 17.172 21.715 4.51792
Au 14.1277 18.628 11.4683
Pd 14.4495 20.1447 13.8053
Au 16.762 18.8307 12.7782
Au 18.6062 20.4662 11.5517
Au 15.0969 18.819 16.2701
Au 16.0401 21.2597 17.6165
Au 17.7156 18.9745 17.6018
Au 17.0541 20.3583 15.1249
Au 15.2157 18.9821 19.0669
Au 16.0843 21.347 20.4569
Au 17.8172 19.0839 20.41
Au 18.6144 21.3932 18.9629
Au 15.3049 19.0362 21.8856
Au 14.9656 20.5047 24.3079
Au 17.2998 19.1609 25.2933
Pd 17.4455 20.5556 22.823
Au 14.8124 19.1001 26.7881
Pd 14.4438 20.5379 29.2452
Au 18.8476 20.7986 31.1947
Au 16.8882 20.6209 27.7823
Au 16.3679 20.6602 32.6644
Au 16.0686 22.0827 35.0788
Au 20.6322 22.4904 35.5355
Au 18.517 22.2592 33.6411
Au 14.9131 23.0064 5.57768
Au 18.9126 24.5785 1.89798
Pd 15.4175 21.6165 7.93805
Au 15.6052 23.1682 10.3179
Au 17.9043 21.9335 9.26651
Au 17.405 23.369 6.99015
Au 16.3036 21.739 12.6823
Au 17.8435 24.5276 14.2612
Au 18.9016 21.9823 13.9296
Au 18.1294 23.5378 11.6354
Au 15.7251 22.8143 15.2267
Au 16.6765 25.2581 16.7348
Pd 18.1367 22.8876 16.5754
Au 19.5347 25.3988 16.3028
Au 16.8391 23.6168 19.0403
Pd 16.5954 25.1635 21.4494
Au 18.3375 22.9617 21.3426
Au 17.9743 26.1954 19.2113
Au 15.8033 22.8327 22.8418
Au 15.4401 24.284 25.2923
Au 17.0509 22.0099 25.2826
Au 17.9233 24.4537 23.7786
Pd 14.6096 21.929 26.7639
Pd 14.257 23.3495 29.2006
Pd 16.5148 22.0684 30.2185
Au 16.6719 23.4712 27.7452
Pd 14.0901 21.9388 31.6623
Au 15.867 24.9564 35.0323
Pd 18.1791 23.6998 35.8861
Au 16.1763 23.4925 32.6611
Pd 14.6885 25.92 5.67825
Pd 19.0302 26.3149 3.93881
Au 15.093 24.5618 8.01076
Au 14.8164 27.4022 8.15528
Au 17.5813 25 9.36079
Au 16.7265 27.6247 4.64576
Au 17.5632 26.3263 11.8805
Au 18.0792 28.9373 13.0709
Au 21.8892 26.9025 12.5045
Au 17.2827 27.8466 9.53974
Au 19.4933 26.7896 13.8602
Au 16.7795 30.495 17.5066
Au 18.0232 27.8253 16.8622
Au 18.9641 30.1515 15.4626
Au 16.3479 28.4504 19.2962
Au 16.059 29.9651 21.8813
Au 17.7767 27.7148 21.7373
Au 17.62 31.1746 19.9289
Au 16.2425 26.6883 23.9125
Pd 15.8614 28.1554 26.39
Au 17.5254 25.9205 26.2992
Pd 17.3726 29.242 24.2849
Au 15.0777 25.76 27.7358
Au 14.7204 27.2096 30.1288
Au 16.3239 24.9109 30.1509
Pd 17.155 27.3555 28.743
Au 13.8881 24.7868 31.6373
Au 13.5643 26.2714 34.0609
Pd 18.3001 25.09 33.5611
Au 15.9764 26.3485 32.5984
Au 14.4816 24.4444 3.2515
Au 19.197 28.0098 6.10312
Au 14.438 28.7509 5.75018
Pd 15.6306 32.3711 10.5632
Au 16.8784 29.1947 7.14419
Au 17.2815 31.5692 8.48071
Au 15.2534 29.8648 9.51331
Pd 18.6064 31.7005 13.2057
Pd 20.8129 29.41 13.4742
Pd 17.7113 30.3134 10.7658
Au 16.7111 32.2517 15.2654
Pd 15.668 35.1001 17.5746
Pd 17.5873 33.234 17.6735
Au 17.438 34.9195 15.4169
Au 15.8117 33.3235 19.7758
Au 13.9808 33.7467 24.2553
Au 15.6532 31.5171 24.3213
Pd 15.404 34.7746 22.1482
Au 14.2049 30.414 26.4321
Au 13.9087 31.9198 28.8265
Au 16.9929 30.7214 26.7156
Pd 15.3474 32.9336 26.6695
Pd 15.5095 29.6131 28.8007
Au 15.2151 31.1052 31.1936
Au 16.8063 28.8027 31.1735
Pd 16.6874 32.1222 29.0687
Pd 14.397 28.631 32.494
Au 13.8612 31.0627 33.5172
Au 15.6782 27.844 34.9078
Au 16.4383 30.1671 33.5673
Au 18.5917 8.36573 3.29578
Au 18.3831 6.36481 7.77856
Au 19.7709 7.0737 5.435
Au 18.4489 4.51299 12.4869
Au 19.7446 5.25852 10.105
Au 18.5556 2.88532 17.2039
Au 19.8708 3.52326 14.8214
Pd 18.689 3.08882 21.8141
Pd 19.9758 2.16475 19.5164
Au 18.7796 4.86653 26.4327
Au 20.1173 3.79381 24.086
Au 18.9517 6.87051 30.9873
Au 20.2191 5.67674 28.6754
Au 19.501 9.27443 35.3104
Au 20.4618 7.67648 33.2186
Au 19.9888 13.0453 2.70735
Au 20.5469 10.2323 2.97353
Pd 18.7483 9.90457 5.37776
Au 19.0176 11.4665 7.53316
Pd 20.0485 8.64377 7.66259
Au 20.8352 11.8908 5.15114
Pd 18.6949 7.90655 10.0219
Pd 19.0287 9.53331 12.2526
Au 20.0927 6.85024 12.3533
Au 20.3827 10.2636 9.89118
Au 18.7612 6.11818 14.7439
Pd 19.0947 7.81119 16.9816
Au 20.1695 5.18404 17.0616
Au 20.4522 8.53653 14.6082
Au 18.815 4.5785 19.4488
Au 19.1947 7.97003 21.6536
Au 20.3022 5.34922 21.7377
Au 20.5163 6.94216 19.3213
Au 18.9756 6.36057 24.0633
Au 19.3191 9.82469 26.2429
Au 20.4437 7.15102 26.3277
Au 20.6592 8.74646 23.9208
Au 19.1451 8.30485 28.6237
Au 19.6903 12.0501 30.8082
Au 20.6458 9.08657 30.8662
Pd 20.8068 10.5915 28.5075
Pd 19.5463 10.6303 33.1006
Au 19.1127 12.1053 35.5454
Au 21.5866 11.1069 35.3896
Au 21.7151 12.5583 33.0723
Au 19.5544 15.8788 2.44116
Au 22.0966 14.8961 2.66114
Pd 20.3423 14.7114 4.88929
Au 20.625 16.3403 7.15257
Au 21.1372 13.5204 7.41081
Au 22.5021 16.5963 4.86157
Au 19.339 13.063 9.74029
Au 19.7053 14.6422 11.9763
Au 20.7395 11.8935 12.1433
Au 21.4711 15.1529 9.68856
Au 19.3785 11.1678 14.5018
Pd 19.6864 12.7758 16.7446
Au 20.7987 10.2095 16.8505
Pd 21.0827 13.4922 14.3749
Au 19.4303 9.51925 19.2383
Au 19.719 12.8654 21.4113
Au 20.8862 10.3374 21.5127
Au 21.1274 11.8788 19.086
Pd 19.4991 11.3396 23.8332
Au 19.9611 14.9279 26.1377
Au 20.9558 12.0944 26.1099
Au 21.1337 13.6383 23.658
Pd 19.8234 13.4854 28.4886
Au 19.3551 15.0511 31.0125
Au 21.8406 13.9905 30.6582
Au 21.9542 15.4211 28.2468
Au 19.2216 13.6098 33.3516
Au 21.022 16.743 35.4839
Pd 21.2473 13.9407 35.3705
Pd 21.437 15.3907 33.0842
Au 21.4547 20.4739 2.2191
Au 21.7214 17.6557 2.42042
Au 19.9112 17.5422 4.61237
Au 20.1864 19.1515 6.88814
Au 22.7843 18.236 7.19709
Au 22.1634 19.3659 4.6385
Pd 20.9191 17.9371 9.43707
Au 21.1893 19.5493 11.7318
Pd 21.7928 16.7231 11.9395
Au 22.9531 19.8861 9.55892
Au 20.0228 16.1865 14.2265
Au 20.1967 17.7336 16.5239
Au 21.377 15.0817 16.5904
Au 22.0587 18.2881 14.1731
Au 19.9574 14.3751 18.9976
Au 20.3113 17.8388 21.3618
Pd 21.3818 15.2137 21.2294
Au 21.5703 16.7069 18.8413
Au 20.1665 16.3858 23.7415
Au 19.6331 17.8458 26.2857
Au 22.1796 16.8807 25.8025
Pd 22.3362 18.3479 23.438
Pd 19.4665 16.4572 28.6733
Au 21.3407 19.6251 30.7066
Pd 21.5712 16.8063 30.6975
Au 21.7143 18.2127 28.2775
Au 21.2068 18.2061 33.1609
Pd 23.0924 21.3348 34.9574
Au 23.286 18.4921 35.0651
Au 23.4912 19.9115 32.6451
Au 14.6591 21.4695 3.21957
Au 16.8284 20.1009 2.2717
Au 19.6292 20.4455 4.36647
Au 19.8048 22.069 6.64745
Pd 22.315 20.9761 6.95253
Au 21.9145 22.2014 4.48715
Au 20.4056 20.7919 9.1431
Au 20.5951 22.4028 11.4241
Pd 23.1785 21.6361 11.9149
Au 22.4942 22.6719 9.40189
Au 19.4357 19.1131 14.0086
Au 19.5938 20.5696 16.4047
Pd 22.1375 19.8457 16.4073
Pd 21.4875 21.1701 14.0013
Au 20.4394 19.2889 18.8999
Au 19.9195 20.6059 21.3959
Au 22.6305 20.5321 20.8634
Au 21.5319 21.8983 18.5706
Pd 19.7772 19.2543 23.8838
Au 19.3738 20.7145 26.3295
Pd 21.8599 19.5975 25.8643
Au 21.9367 21.0197 23.4324
Pd 21.4639 21.0335 28.2592
Au 21.1326 22.4671 30.6833
Au 23.606 21.3166 30.1398
Au 21.5341 22.4422 25.7899
Pd 23.2608 22.7343 32.5511
Au 22.88 24.1261 34.918
Au 25.3607 22.9525 34.3256
Au 27.5818 24.4917 33.4744
Au 18.9935 21.7142 1.97395
Pd 21.2573 23.2307 2.12159
Au 19.3618 23.3562 4.20181
Pd 19.5103 25.0737 6.36337
Au 21.9599 23.805 6.76605
Au 23.9662 25.2745 5.48207
Pd 19.9336 23.7135 8.86565
Au 20.5556 24.1961 13.4904
Pd 22.553 24.3893 11.6061
Au 24.0317 26.605 10.4703
Au 20.8687 22.9467 15.9487
Au 20.5333 26.7443 18.4419
Au 22.5872 24.4393 17.2672
Pd 22.0176 25.8435 15.038
Au 19.6269 23.9601 18.7433
Au 19.5918 25.5116 21.4505
Au 21.1921 23.0578 21.6596
Pd 22.6192 27.4309 20.0884
Au 19.4634 22.1103 23.8298
Au 19.0956 23.6307 26.2904
Au 23.4094 23.4063 23.5755
Au 20.7097 24.6307 24.1377
Au 18.981 22.2072 28.767
Au 18.6304 23.6567 31.1838
Au 21.1995 23.8764 28.2035
Au 22.786 24.9152 26.0588
Au 20.7891 23.8952 33.1149
Pd 20.3907 25.2952 35.4036
Au 25.0655 25.6943 34.1597
Pd 23.3401 24.125 30.069
Au 21.2914 27.8501 4.20377
Au 23.6351 26.6015 3.2589
Au 21.4993 25.1047 4.13051
Au 17.1564 26.3521 7.01596
Au 21.9845 25.4579 9.10041
Au 21.7347 26.6866 6.55279
Pd 20.0261 25.4637 11.0373
Pd 24.2907 25.8268 13.2055
Au 26.0818 24.2264 14.7113
Au 26.7145 25.7834 12.0009
Au 20.7368 28.1068 15.9664
Au 19.5423 31.2908 17.8377
Au 21.4554 29.4458 18.411
Au 21.7419 30.7269 15.8546
Au 19.0998 28.8797 19.5604
Au 18.9076 30.3159 22.2187
Au 20.6456 28.148 21.9032
Pd 20.6036 31.4408 20.2953
Au 19.1032 26.9924 24.1023
Au 18.6826 28.442 26.652
Pd 20.3217 26.1574 26.6253
Au 20.2005 29.5631 24.5911
Pd 18.7534 25.0784 28.718
Au 18.4041 26.5047 31.134
Au 22.42 26.3594 28.5581
Au 19.9807 27.5985 29.0656
Au 20.8694 25.2976 30.6219
Au 17.9539 26.4823 35.839
Pd 22.975 25.5116 32.4483
Pd 22.096 27.7838 31.0229
Au 16.6167 26.0074 2.4067
Au 21.4163 29.4495 6.57457
Pd 19.3971 29.6022 8.55833
Au 18.2107 33.0558 10.8778
Pd 19.6195 26.7721 8.53421
Pd 19.8396 32.3693 8.90554
Au 19.8138 28.2263 10.9464
Pd 19.2298 34.3936 13.3082
Au 21.235 32.3746 13.5256
Au 20.7818 33.8708 11.1364
Au 19.4593 32.9285 15.5933
Au 16.8601 35.8059 20.0691
Au 18.6834 33.6865 20.1606
Au 18.3727 35.9111 17.8442
Au 17.1247 32.6378 22.26
Pd 16.764 34.0507 24.5915
Au 19.9221 32.9979 22.5533
Au 18.1517 35.2115 22.4963
Au 18.4644 31.8586 24.6458
Au 18.1017 33.308 27.0196
Au 20.8975 33.6544 27.3672
Au 19.5229 34.4569 24.925
Au 18.3107 29.9093 29.1006
Pd 17.9766 31.2728 31.4882
Au 19.6488 29.014 31.5042
Au 19.4358 32.4793 29.4428
Au 20.088 28.0515 35.2817
Pd 18.044 27.9067 33.5308
Au 19.2084 30.3148 33.8191
Au 20.7103 31.5473 31.8245
Au 21.3082 7.59578 3.20576
Au 21.0748 5.91587 7.7518
Au 22.5045 6.41784 5.42627
Au 21.1851 4.21507 12.4522
Au 22.4901 4.85995 10.0941
Au 21.3075 2.62756 17.1611
Au 22.6266 3.26618 14.7988
Pd 21.4329 2.85094 21.7507
Au 22.7338 1.8844 19.4704
Au 21.5354 4.58048 26.3651
Au 22.8761 3.52725 24.0155
Pd 21.6511 6.44808 30.8596
Pd 22.9577 5.37978 28.5731
Pd 22.1 8.38424 35.2895
Au 23.138 6.99115 33.0757
Au 22.5651 12.1795 2.88377
Pd 23.2546 9.55917 3.10877
Au 21.5607 9.17277 5.33996
Au 21.9016 10.7949 7.56951
Au 22.8351 8.06214 7.66665
Pd 23.5995 11.1968 5.2657
Au 21.4223 7.52983 9.99329
Au 21.8091 9.20651 12.2563
Au 22.8782 6.50707 12.34
Au 23.2431 9.74611 9.9309
Au 21.5233 5.86085 14.6989
Au 21.8779 7.60739 16.9523
Au 22.9641 4.9593 17.0331
Au 23.2573 8.24186 14.5861
Au 21.6122 4.34234 19.4051
Au 22.0167 7.75511 21.6063
Au 23.0843 5.11701 21.6824
Au 23.314 6.71368 19.293
Au 21.7874 6.10628 24.0143
Au 22.1258 9.45744 26.1724
Pd 23.2401 6.84893 26.2518
Au 23.5279 8.46247 23.8716
Pd 21.8915 7.91238 28.532
Au 22.4413 11.2143 30.6855
Au 23.4096 8.50007 30.7327
Au 23.655 10.0506 28.3601
Au 22.2613 9.75619 33.071
Pd 23.7448 12.9294 35.0946
Au 24.1662 10.2092 35.2467
Au 24.3229 11.6686 32.8279
Pd 24.6291 15.6237 3.42099
Au 25.106 12.9412 3.53004
Au 22.9612 13.8599 5.07334
Au 23.2672 15.5172 7.39453
Au 23.9483 12.8518 7.53271
Au 25.5601 14.6304 5.80393
Au 22.2661 12.436 9.8307
Au 22.6058 14.0664 12.0967
Au 23.6214 11.3939 12.1877
Au 24.2908 14.5125 9.84497
Pd 22.1657 10.8678 14.4994
Pd 22.4953 12.519 16.7374
Au 23.6022 9.94604 16.8441
Au 23.9494 13.0329 14.4437
Pd 22.2454 9.32729 19.2193
Au 22.5915 12.6949 21.3459
Au 23.7743 10.1187 21.5004
Au 23.9976 11.7011 19.1005
Au 22.3462 11.055 23.7759
Au 22.7433 14.1463 25.8265
Pd 23.9112 11.6023 25.9679
Au 24.1351 13.193 23.5664
Au 22.5903 12.6662 28.2757
Au 24.1113 15.7736 30.2596
Pd 24.4638 13.1062 30.3538
Au 24.605 14.5293 27.8785
Pd 23.9248 14.3406 32.6992
Pd 23.47 15.6779 35.0192
Au 25.9667 14.4513 34.5205
Au 26.2303 15.8261 32.1329
Au 24.264 18.3259 3.18076
Pd 26.7729 18.9386 3.98817
Au 25.0975 17.2938 5.6495
Au 25.2256 19.0379 8.14116
Au 25.7759 16.371 8.2477
Pd 26.9032 21.3029 6.53187
Pd 23.5358 17.1634 9.7434
Au 23.8219 18.8159 12.0197
Pd 24.6087 16.152 12.1184
Au 26.0871 18.0949 10.5859
Pd 22.9333 15.6424 14.3216
Au 23.2054 17.2751 16.5444
Au 24.3109 14.6955 16.6862
Au 24.9204 17.7403 14.416
Pd 22.8217 14.2285 18.9631
Au 23.0793 17.495 21.0061
Pd 24.3547 14.9125 21.1546
Au 24.5867 16.5336 18.8658
Pd 22.9183 15.6925 23.3661
Au 24.6015 18.7034 25.3099
Au 24.794 15.9438 25.3387
Au 25.0385 17.4031 22.8683
Au 24.3243 17.2353 27.7539
Au 23.8474 18.5126 30.2064
Au 26.4702 17.2335 29.6518
Au 26.7819 18.6541 27.2247
Au 23.6891 17.0877 32.6859
Au 25.5791 20.1489 34.4607
Au 25.7501 17.291 34.5375
Au 26.0025 18.6789 32.0944
Au 23.9901 21.0755 3.05529
Pd 26.5147 21.6174 3.88226
Au 24.7263 19.9683 5.51374
Au 24.6514 21.6768 7.99534
Pd 27.6142 20.1299 8.98897
Pd 26.5125 24.3261 6.57598