1687
Atoms. Timestep: 21146
Au 22.4958 30.5292 31.7219
Au 22.7292 28.4777 7.18101
Au 13.5661 30.2082 31.2879
Au 25.8662 12.5088 26.103
Au 20.2817 3.39254 17.2339
Au 21.5342 23.4938 10.5511
Au 9.38105 15.4503 19.1011
Pd 22.6751 23.1083 14.9787
Au 21.6208 11.3103 24.1133
Au 8.27468 14.2298 27.6242
Pd 10.9921 13.0776 27.4113
Au 13.7974 17.4692 16.7257
Au 29.4355 20.5732 25.0972
Pd 6.81323 12.061 21.1579
Au 15.3685 14.7812 11.5913
Au 12.6208 32.4289 22.4714
Au 6.10174 19.8022 23.5976
Pd 24.9053 5.09667 23.2108
Pd 29.9023 10.3901 19.023
Pd 18.0021 27.2236 2.13178
Pd 21.257 23.7616 24.5287
Pd 15.0338 18.0484 19.1299
Au 11.5309 13.5922 4.01998
Pd 18.9392 29.6224 22.1866
Au 17.2039 7.52423 8.94823
Au 23.6049 12.7921 19.5281
Au 11.4374 31.6415 17.2412
Au 21.42 5.80593 16.5597
Au 15.8999 24.5319 6.55007
Au 18.4152 2.16101 15.6932
Au 10.1762 14.9156 25.6382
Pd 9.53954 16.4298 6.92423
Au 33.0626 8.42322 16.2785
Au 19.8566 6.29194 21.4388
Au 18.0814 10.6304 26.9236
Au 15.1939 6.45852 10.4501
Au 6.74141 24.5944 7.99378
Au 36.3194 21.3051 11.9121
Au 14.582 9.21694 22.9947
Au 27.6349 19.5674 30.4224
Au 24.5243 14.8473 35.5411
Au 10.2814 12.9567 23.4663
Au 20.2021 31.8734 23.3997
Au 25.1651 21.4624 8.1003
Au 31.7911 19.6642 6.69648
Au 22.6734 5.02374 30.3785
Au 33.6609 12.8699 22.9451
Au 31.5674 15.0434 18.5201
Au 33.7888 22.3932 30.3633
Au 4.33673 16.3947 11.3391
Au 7.97477 15.45 34.8273
Au 5.56201 15.6555 17.6956
Pd 16.4623 15.6038 23.6712
Au 26.6104 17.9869 2.45102
Au 23.2128 19.4748 11.7245
Au 6.0329 25.2442 18.1316
Au 12.9201 20.8328 26.7638
Au 6.89325 14.9202 15.4429
Au 18.3312 12.9434 28.268
Au 11.1256 13.5028 18.6113
Au 10.746 4.91931 14.467
Au 6.93726 9.31196 20.4758
Au 21.4749 21.9195 2.74226
Au 8.00797 25.9813 9.96761
Au 22.9492 15.3232 3.37198
Au 16.7906 13.3366 13.434
Pd 32.816 26.7809 26.2292
Au 28.0997 24.5564 10.2738
Pd 22.2224 23.5051 18.0466
Au 16.8739 34.3065 21.222
Pd 30.0731 25.4092 11.902
Au 7.28618 24.586 20.6202
Pd 10.4336 21.6511 27.5448
Au 24.9459 34.9641 19.4244
Au 24.9761 15.929 30.1459
Au 17.2764 10.1316 29.5134
Au 9.44604 9.26469 31.4354
Au 18.4863 16.7139 16.0303
Au 11.9909 10.561 23.0282
Au 24.8055 17.4227 25.2052
Au 26.4801 15.3245 27.5026
Au 16.1268 18.3039 15.131
Au 22.5474 3.72398 12.5128
Au 10.0604 28.4758 22.9053
Au 19.8958 20.2861 35.7384
Au 28.4302 8.14375 17.5615
Au 14.1943 6.27471 20.1688
Au 14.9577 4.54057 17.7932
Au 18.1582 19.1653 31.9308
Pd 16.4459 19.083 5.63722
Au 18.3524 33.4159 8.76971
Au 10.6921 21.2076 22.8456
Au 24.2716 32.3618 19.7078
Au 14.5501 10.5469 32.951
Au 31.7643 12.2823 18.0643
Au 25.4355 23.702 6.3262
Au 17.0125 5.75363 14.5422
Au 14.7171 6.51047 22.8071
Pd 9.75572 13.7482 33.8714
Au 12.0986 4.31069 16.7704
Au 17.4895 31.8365 23.0954
Au 12.0208 7.27976 30.2228
Au 12.411 34.863 23.7985
Pd 17.712 15.0296 21.5282
Au 15.338 9.79105 27.6004
Au 20.075 31.2045 32.9503
Au 26.2176 27.3229 19.1105
Au 34.1967 27.341 24.0293
Au 11.1169 13.2845 12.77
Au 20.4439 10.9352 29.0304
Au 22.0292 24.1 27.3399
Pd 19.7005 1.33633 20.8943
Au 34.7214 24.9704 25.5367
Au 4.48527 22.7806 17.5619
Pd 13.3236 21.4413 22.0828
Au 18.3565 12.1304 17.6944
Pd 18.4718 20.8762 4.10399
Au 20.6 26.1842 25.8887
Pd 9.04244 23.5495 9.04326
Au 20.0475 28.4546 24.3724
Au 12.3261 1.83648 21.2848
Au 15.5161 14.3563 4.39595
Pd 29.7021 16.0713 14.1173
Au 36.253 24.8739 14.6422
Au 33.9879 10.9731 21.0553
Au 23.2936 27.7254 14.4323
Au 15.0673 33.8888 27.0215
Au 20.739 21.9309 28.9201
Au 24.6593 14.8701 13.0971
Au 12.9 9.01182 34.3398
Au 23.0474 22.6148 5.14779
Au 24.182 26.9573 34.6912
Au 8.83016 10.7728 19.1913
Au 23.3665 17.5833 7.25103
Au 16.4961 22.4813 24.097
Au 25.4941 5.74311 30.1503
Au 30.8112 26.7904 30.543
Au 24.5061 31.7553 12.6047
Au 32.0544 25.912 15.9949
Au 16.8103 13.5764 35.7762
Pd 21.2634 34.6397 23.7574
Au 24.9156 3.45058 13.6746
Au 12.3765 19.4094 18.0259
Pd 17.4081 5.50879 11.7454
Pd 30.0806 30.1147 16.5638
Au 34.1346 20.5752 28.4669
Au 25.9609 10.1366 10.34
Pd 31.6267 17.2897 27.5232
Au 25.6747 7.49238 24.3077
Pd 18.0423 14.6378 18.6918
Au 27.2381 20.7874 13.8581
Pd 28.8504 27.1409 10.0308
Au 20.2736 14.1253 32.6502
Au 8.94931 28.9741 20.1434
Au 22.143 9.50979 7.27978
Pd 9.6189 33.8441 20.2374
Pd 5.12124 27.4879 16.7428
Au 17.9138 10.7727 5.26828
Au 4.08052 26.0891 12.401
Au 21.3195 16.9597 1.91443
Au 19.5707 22.3212 31.2976
Au 33.9052 28.8192 14.0087
Au 13.1203 30.756 12.6387
Pd 23.3829 13.2566 33.5689
Pd 18.4345 19.2693 13.9236
Pd 5.50079 16.5799 13.8879
Au 22.6949 24.6023 34.6323
Au 30.0762 19.953 31.9321
Au 26.9696 33.4826 11.7445
Au 16.2674 25.6439 16.4701
Au 23.5977 8.30067 19.7428
Au 15.9373 21.7046 5.58159
Au 7.79274 29.843 22.5132
Au 13.8783 26.3736 30.5757
Pd 30.0737 19.312 20.8596
Au 26.704 3.68303 20.842
Au 25.8761 21.6292 29.4367
Pd 26.6987 21.1593 5.97692
Au 21.1953 20.3908 5.33697
Au 35.7404 14.2617 21.4363
Au 20.4695 13.7834 29.7164
Au 23.7151 7.87991 14.7631
Au 5.99977 19.12 20.8626
Au 6.24122 18.035 25.6415
Pd 15.8285 12.3335 29.0477
Au 30.8436 7.10103 16.8552
Au 15.8165 16.6445 26.2442
Au 6.45543 17.8821 16.1289
Au 16.2912 9.65136 7.05658
Au 26.3345 20.8314 17.8922
Au 33.5882 29.8517 19.476
Au 13.294 12.8021 31.6828
Au 27.9951 11.3876 20.9664
Pd 9.46996 29.2907 25.5254
Au 35.8705 24.0447 12.056
Au 25.9123 7.13376 18.9595
Au 17.4968 32.498 11.3416
Au 6.37205 21.8957 21.6818
Au 26.6334 11.5081 30.5862
Au 22.7938 30.8556 10.0389
Au 25.8293 32.7928 24.3602
Au 3.38299 26.9118 14.7702
Au 3.47866 25.141 16.6843
Au 21.8729 35.2403 12.5622
Au 18.391 30.6354 4.7758
Au 8.11355 18.069 34.3678
Au 22.7292 27.9936 18.925
Au 27.163 15.3527 32.2741
Au 27.5467 34.1716 19.2712
Pd 7.14351 22.6703 13.4722
Pd 12.7432 13.1303 22.33
Au 23.7971 6.6407 28.3066
Au 15.187 7.15098 13.0083
Au 13.629 28.0261 7.84256
Au 9.02452 14.1778 5.41756
Pd 27.1323 9.59012 26.3905
Au 14.5909 22.917 1.1891
Au 30.7735 24.2909 14.2981
Au 18.3455 21.3713 33.7011
Pd 22.948 12.1157 29.3327
Au 17.7619 3.30488 13.2734
Pd 30.4702 23.989 23.4162
Au 13.0995 3.40547 14.4143
Pd 5.43174 24.9804 14.8066
Au 17.5022 18.8448 17.7462
Pd 27.3658 18.5711 5.02632
Au 10.533 16.3756 34.7166
Au 14.8015 9.30329 11.2362
Pd 19.2136 22.2076 23.6044
Au 18.7011 8.20901 25.6407
Au 28.4226 16.9853 16.3641
Au 5.89314 27.4913 13.9988
Au 2.35542 13.8714 22.947
Au 8.48527 26.5268 18.9302
Au 18.5865 17.3437 26.5136
Au 14.7748 35.8856 24.8893
Au 12.6278 21.0724 12.7183
Au 1.99911 21.0592 18.6457
Au 18.453 9.08819 34.8634
Au 6.92902 23.0748 10.6448
Pd 22.5538 28.5759 26.3155
Au 20.171 25.8385 23.1729
Au 5.9568 27.8154 19.3688
Au 11.2891 26.0995 31.9863
Au 11.795 30.1122 26.8971
Au 29.1568 13.4788 13.902
Au 21.8365 34.0943 26.2914
Au 30.1071 24.6724 32.1344
Au 33.1062 25.0521 11.2868
Au 30.0763 11.7361 9.25314
Au 11.005 19.9685 10.7168
Pd 27.9966 27.5119 26.229
Pd 32.8538 24.9178 23.701
Au 24.4406 14.5743 5.59914
Pd 20.6092 18.8082 33.0427
Au 15.4157 21.499 28.4368
Au 12.9289 34.0677 16.1618
Au 32.5196 21.9384 14.5323
Pd 8.23875 19.7697 26.8317
Au 12.7283 22.0973 29.1098
Au 29.4548 26.7014 14.5765
Au 27.7812 19.8009 33.3314
Au 24.1898 10.288 30.9011
Pd 24.7393 21.2406 15.4545
Au 20.9333 9.92124 35.5273
Pd 22.0873 13.8156 12.5754
Au 25.694 15.4564 3.216
Au 24.5841 12.8277 3.71682
Au 16.7529 10.753 22.1303
Au 31.1797 22.8781 12.0653
Pd 32.3302 24.6282 30.4356
Pd 13.001 18.9613 8.88365
Au 17.9965 25.2514 8.77251
Pd 13.6749 19.4169 28.995
Au 16.2385 16.3387 17.3187
Pd 9.42502 25.7755 22.8922
Pd 31.6078 6.13686 21.251
Pd 16.8913 16.8637 31.0622
Au 4.18434 17.7891 22.8213
Pd 14.0159 20.6388 35.5355
Au 21.2947 30.8552 25.6839
Pd 26.4249 6.6254 21.6274
Au 22.4028 31.3817 7.37747
Au 24.2354 7.73891 9.95656
Au 8.2222 10.4739 10.0038
Au 15.3374 25.1795 35.2891
Pd 16.608 18.9486 2.9995
Au 6.84823 20.2615 10.194
Au 26.7682 30.3884 25.6678
Au 20.481 29.2501 11.2264
Au 14.9177 20.0434 17.1265
Au 31.9329 25.9495 6.2914
Pd 27.1601 31.3478 13.2325
Au 29.1792 15.4282 6.24269
Au 29.1274 20.3083 6.58367
Au 32.2482 26.728 13.1814
Au 4.69416 23.7745 20.1693
Pd 31.8702 24.2159 26.0363
Pd 14.9336 10.6572 4.91515
Pd 25.3188 18.9472 19.584
Pd 15.1536 33.6305 23.334
Pd 22.8093 21.9898 22.6688
Au 24.2977 35.6127 14.8393
Au 5.24905 27.613 23.9608
Au 8.77899 7.62183 19.2805
Au 19.4261 5.86251 24.2133
Au 17.8384 11.4518 15.1059
Au 18.8214 25.237 6.08626
Au 18.4569 27.9089 4.73212
Au 2.86712 24.2124 14.1571
Pd 24.9307 19.9723 1.02611
Au 21.1504 32.454 30.3629
Au 26.2807 14.0365 7.58972
Au 14.2595 11.0307 20.7966
Au 21.002 34.2899 16.6682
Au 28.6607 12.8932 7.16764
Au 30.4853 28.1305 27.0898
Au 19.9194 27.8174 18.7328
Pd 17.1932 22.6414 0.301314
Au 8.78866 27.1502 27.0047
Au 24.3817 6.23974 12.523
Au 9.28391 15.5419 23.015
Au 22.613 20.2648 7.91784
Au 35.6372 25.4489 20.0222
Au 4.61504 18.938 27.8406
Au 28.136 25.259 19.3086
Au 12.4187 24.8826 4.80596
Au 23.2889 22.4901 29.5967
Au 25.3188 26.2031 23.5808
Au 28.3238 23.0914 24.6259
Au 13.2827 13.3564 10.4225
Pd 18.6391 21.8927 20.7035
Au 30.1252 29.6132 10.0136
Au 15.2189 36.4711 27.4915
Pd 14.6327 17.5248 4.24321
Pd 6.65872 25.1385 12.4362
Au 9.07091 17.4456 21.0134
Au 6.92715 8.91333 17.6382
Au 17.2841 10.0661 32.5448
Au 14.6935 13.0244 34.1434
Au 12.4497 12.8554 25.1687
Au 27.6252 17.8433 10.2403
Au 1.96834 12.9548 28.1543
Au 13.5448 10.2053 25.583
Pd 17.4105 2.4907 22.2463
Au 18.2535 29.3587 7.06647
Au 7.52879 9.08057 29.1677
Au 26.5271 16.2844 6.1347
Au 9.28309 13.8096 16.491
Au 20.2053 27.333 6.92806
Au 24.0918 20.6426 24.6541
Au 22.6777 34.3735 29.0203
Au 11.2608 30.9384 24.3348
Au 15.9978 16.2884 2.16692
Au 30.3086 31.2501 23.087
Au 13.9861 14.7535 17.3631
Au 28.4097 7.20316 24.7676
Au 23.4161 29.8138 20.7428
Au 21.346 27.0378 9.36657
Pd 17.3884 14.0808 16.0651
Au 7.84135 13.9263 31.8793
Pd 27.8702 29.8864 18.2893
Au 8.98141 22.5541 34.073
Au 28.7608 7.04858 14.8756
Pd 30.091 10.8112 14.0459
Au 24.6373 26.8885 12.2311
Au 16.5024 19.0784 27.3988
Au 13.8988 14.4227 7.94282
Pd 22.5888 17.4098 30.4752
Au 25.3575 9.0288 21.9051
Au 24.8942 20.0305 27.3302
Au 26.5438 7.00514 27.0294
Pd 10.8246 27.092 20.4956
Au 16.9658 36.4232 15.235
Au 17.3857 5.3773 22.0254
Au 10.4393 26.8809 11.2546
Pd 7.87047 11.3885 16.7478
Pd 28.9859 5.64743 26.9473
Au 31.2698 25.7256 28.1821
Au 21.4833 8.27019 9.48522
Pd 20.4316 13.7421 10.3173
Au 13.3934 25.3397 24.8374
Pd 17.9056 14.4831 2.82826
Au 18.8589 11.8277 30.9765
Pd 27.556 20.2177 8.8195
Pd 9.7276 24.4451 27.6504
Pd 11.8011 11.5842 29.6605
Au 8.97587 23.8709 18.0547
Au 23.5272 30.5522 14.983
Au 34.6694 11.6269 18.5796
Au 17.2083 16.4882 4.67339
Au 6.39532 25.1169 23.1768
Au 13.3632 5.47226 31.8037
Pd 20.1327 15.3762 4.02963
Au 15.2683 20.4863 25.5028
Pd 29.183 12.0535 16.432
Au 22.0317 6.09691 19.6756
Au 21.1393 24.568 30.002
Au 28.1959 16.2885 3.89669
Au 3.58329 25.573 23.7134
Au 30.3822 5.39721 23.7468
Pd 5.35527 23.2105 27.565
Au 18.2631 36.6039 20.7433
Pd 13.4247 15.418 2.80934
Pd 17.2957 28.183 16.9655
Au 7.4863 29.7973 27.3724
Au 19.9759 22.2516 26.3257
Au 21.7748 12.0289 31.7087
Au 25.0606 10.4078 14.7619
Au 3.01724 17.2112 29.2368
Au 22.138 17.3872 16.315
Au 11.1317 18.1428 15.6965
Au 15.5009 12.0151 11.293
Au 15.1156 23.2086 16.9844
Au 12.8061 22.169 17.6615
Au 15.0527 14.4642 27.6803
Au 13.6981 28.8902 28.6705
Au 16.9463 5.75847 25.5372
Au 34.3241 19.3226 15.4375
Au 27.9763 22.1989 31.1858
Pd 9.47521 8.94386 17.0031
Pd 18.2033 12.2745 10.3017
Au 31.5987 7.83158 23.3817
Au 29.3321 8.27409 27.3444
Au 29.5911 22.1609 9.75559
Au 26.6639 7.66377 11.4056
Pd 18.7471 34.2677 23.1278
Au 14.8522 23.3564 26.2149
Pd 27.4213 14.1201 29.8955
Au 23.2562 7.18188 22.2101
Au 24.0429 30.1381 5.59616
Au 11.2993 8.89073 19.0162
Au 31.2341 16.9887 7.27748
Au 13.5859 34.9849 28.983
Au 22.2723 15.0473 17.9821
Au 28.0752 31.6398 15.7849
Au 4.6302 22.0247 9.70012
Au 6.72433 21.9496 8.00851
Au 25.4191 10.4322 24.3308
Au 14.3291 35.8934 22.1283
Au 21.9956 21.1633 16.6005
Pd 19.6063 5.5866 18.7129
Pd 20.5831 18.3691 7.35596
Au 27.6631 16.7692 25.5134
Au 22.4189 33.4915 10.6855
Au 9.76494 11.8264 14.6489
Pd 6.73478 29.6539 15.3063
Pd 20.3583 17.296 14.256
Pd 30.4217 23.1381 20.4825
Pd 7.20364 25.2152 27.8586
Au 21.8965 4.86416 27.345
Pd 28.8616 22.9142 5.42059
Au 27.5424 23.454 27.8968
Au 29.1577 16.7845 21.363
Pd 10.0434 8.33618 29.0107
Au 17.3583 22.505 26.8063
Au 33.0744 16.3065 25.1505
Au 13.3606 25.0903 7.51308
Au 18.2053 31.8855 15.343
Pd 18.8654 17.4826 22.1486
Au 30.2908 16.7041 9.79592
Au 30.3935 18.405 18.3028
Au 16.0153 33.7941 29.6544
Au 18.0378 14.3931 30.9631
Au 23.8984 27.2479 4.96619
Au 3.6308 16.878 31.9828
Au 18.8917 0.681999 26.0637
Au 34.8986 27.6803 18.4593
Pd 29.7942 10.9527 27.4347
Au 28.4478 27.58 3.67175
Au 19.1165 1.26979 18.2864
Pd 22.6908 21.5848 26.8781
Au 24.7227 30.5342 27.7356
Pd 16.3964 8.08253 30.9524
Pd 13.0189 11.3017 12.1373
Pd 10.1438 8.50215 23.7424
Au 19.3877 5.93772 27.12
Pd 24.1876 27.8625 28.467
Pd 15.719 33.2623 15.89
Au 33.9493 22.4462 26.5407
Au 29.2867 32.2138 18.4384
Au 13.4694 23.3419 35.9129
Au 11.8358 20.9124 15.4964
Au 7.8654 27.3831 24.4105
Au 24.6251 27.8197 16.8923
Au 35.1839 14.9104 24.018
Au 27.5381 29.1609 8.76186
Pd 24.8903 30.5183 8.23883
Pd 19.2896 1.27537 23.5857
Au 16.9599 0.995911 20.1449
Au 27.8692 24.619 14.1433
Au 22.1067 33.9998 19.187
Pd 2.28638 23.8393 18.7879
Au 12.7677 14.2028 29.3262
Au 28.9741 15.89 18.8147
Au 8.83809 31.1582 16.4831
Au 11.4876 26.697 6.59411
Au 0.868785 20.427 16.2846
Au 22.76 9.38195 28.5811
Au 26.0775 4.45369 18.1117
Au 27.7193 27.6407 16.7824
Au 4.79699 22.2027 14.8562
Au 12.5402 16.9792 29.8291
Pd 14.0562 21.0719 10.1933
Au 4.25309 19.2451 10.0832
Pd 19.4965 35.647 25.7712
Pd 28.2581 25.7225 23.8073
Au 23.3386 10.7544 5.14007
Au 18.771 6.9596 16.3769
Au 27.8355 29.3735 11.5305
Au 17.4983 36.5426 18.0497
Au 22.1235 29.5399 29.0477
Au 16.8359 27.0489 6.96029
Au 32.98 24.9961 20.9681
Au 8.2536 9.44246 25.9698
Au 2.43425 14.8837 30.3272
Au 18.641 25.0512 0.6144
Au 1.59432 15.4885 27.6841
Au 10.1154 33.5221 22.8389
Pd 15.8625 30.9928 29.5702
Au 13.5661 31.5655 15.2896
Au 15.9708 27.4622 28.3454
Au 30.9253 21.0918 4.63713
Au 26.8616 28.7673 28.4543
Au 16.5551 26.9601 13.9278
Au 18.8609 11.6212 35.8733
Au 2.32752 16.2704 24.2332
Pd 17.0341 18.1248 24.345
Au 12.1593 16.6643 7.66576
Au 24.8142 29.7399 30.3586
Au 18.6155 8.8811 21.6714
Au 4.20335 11.8746 13.4386
Au 28.5241 3.39335 18.8536
Au 36.3813 19.2631 23.5408
Au 5.98198 9.92463 13.0089
Au 30.8809 25.1476 18.7474
Au 28.1447 29.0323 14.4462
Au 2.49846 21.0588 14.0616
Au 6.11898 22.8212 24.6228
Pd 28.0261 14.2783 21.1078
Au 8.61021 24.6447 14.6102
Au 18.8126 16.4759 33.2074
Au 28.1208 15.2939 9.01688
Au 18.9253 25.121 31.4231
Pd 20.4843 18.771 11.9779
Au 23.0086 27.8305 31.195
Au 23.7966 21.9126 34.0254
Pd 33.3561 21.2541 8.24988
Au 24.5199 34.4238 12.3795
Au 13.1991 25.2541 16.399
Pd 10.1279 8.49465 10.2045
Au 31.3354 10.4293 11.4785
Au 27.8745 6.86801 29.2653
Au 20.5964 35.0362 21.2039
Au 13.4622 18.8736 14.3252
Au 21.5673 13.9719 24.6443
Au 20.0484 4.56938 29.5717
Au 22.8498 33.4231 14.4288
Au 24.1105 35.1243 24.3803
Pd 11.437 20.5017 3.7924
Au 26.2612 24.2912 1.57935
Au 17.5959 23.9905 11.9472
Pd 4.31491 11.8245 27.3447
Pd 30.3714 27.5073 17.3186
Au 12.6583 7.47084 10.7215
Pd 30.0097 28.1967 12.3976
Au 25.5982 11.8526 6.09087
Pd 30.8299 22.2885 7.28848
Pd 4.86533 18.5196 18.2546
Pd 10.3299 22.8859 29.9315
Pd 9.34223 31.4307 19.1069
Au 3.63338 26.2798 19.0509
Au 21.0738 31.5772 15.5946
Au 12.1015 28.0656 25.0352
Pd 18.3754 7.89101 19.1875
Au 3.99738 10.1187 25.1978
Au 14.7337 21.3948 14.8334
Pd 16.5688 25.8564 30.3554
Au 3.18875 11.9081 15.8887
Pd 29.1799 25.0049 16.58
Au 14.9546 3.19962 28.7352
Au 18.1816 3.36493 25.0712
Au 16.9219 21.1554 10.8614
Au 7.13037 14.8159 7.33034
Au 29.799 12.3484 22.8642
Au 4.88884 25.7808 28.6799
Au 9.79724 13.5472 29.8182
Au 16.8491 5.76309 19.4213
Au 28.3783 26.7266 31.4921
Pd 22.8787 10.1568 21.9612
Au 7.97121 19.9121 19.0555
Pd 16.7184 19.6658 20.3901
Au 28.0012 9.76971 15.3583
Au 19.2589 16.1046 6.54877
Au 15.6056 29.4651 33.3604
Pd 16.0116 28.6939 9.12928
Au 18.1511 29.7064 19.5277
Au 8.25606 21.1198 24.4675
Au 15.3518 30.7944 10.9122
Pd 20.5751 24.6825 8.24096
Au 32.0783 23.3268 9.50787
Au 10.1473 18.0728 18.5259
Au 29.8569 21.4667 22.5231
Au 21.6227 11.1935 11.7537
Au 25.3142 28.078 25.8994
Au 28.7756 5.25792 16.9542
Au 9.26539 4.68509 23.5509
Au 25.3058 14.4865 21.7176
Au 20.6464 29.7096 8.52903
Au 36.2326 18.603 12.3356
Au 13.0123 20.5824 1.51213
Au 10.5103 5.79871 28.1623
Pd 29.6628 23.9692 29.5938
Au 23.4565 17.2415 35.1408
Au 7.96549 20.0741 6.4663
Au 29.3055 13.1107 19.0287
Au 16.0641 7.43626 17.4463
Au 10.6186 7.23724 12.6743
Au 18.2989 11.8564 7.70255
Au 8.76238 18.2217 24.3291
Au 36.6184 16.448 19.777
Au 31.5254 27.1752 10.2822
Au 17.7928 17.0834 19.7035
Pd 19.7402 31.1512 28.1154
Pd 21.3188 20.7648 24.6208
Pd 24.1163 19.0872 16.8703
Pd 10.197 21.2394 17.9937
Au 2.00034 18.4896 14.9457
Au 22.4304 23.3984 32.1014
Au 32.0018 22.7051 28.54
Au 23.0491 15.7469 10.6996
Au 12.7372 16.64 19.3938
Au 24.0546 20.1154 5.70209
Au 20.3063 11.1015 21.6674
Pd 20.4642 27.3679 30.3763
Pd 17.9153 29.3129 29.1636
Au 18.15 27.8532 31.6301
Au 22.0606 19.5122 14.4374
Au 22.2635 3.30889 15.2516
Au 6.24542 21.0012 29.0667
Pd 31.9281 19.7841 22.7953
Pd 25.4892 21.318 21.0496
Pd 19.3462 29.9179 16.9386
Au 20.3975 19.4984 30.3828
Au 5.34861 10.3117 15.87
Au 33.4966 15.6473 21.9237
Au 32.1868 31.5929 17.8011
Au 21.4846 22.4655 35.7769
Pd 16.6456 25.1592 27.1842
Au 18.5612 30.4135 25.5913
Au 17.0781 35.0064 10.505
Au 23.4726 7.50503 30.9992
Au 14.3301 18.2377 1.52769
Au 35.8692 12.8284 16.3185
Pd 9.70489 18.5415 5.0949
Au 19.1963 25.2787 3.37099
Au 31.9014 15.4481 29.4585
Au 14.676 11.8871 23.7017
Au 19.3004 14.4807 35.2144
Pd 17.0623 34.327 25.2022
Au 5.99215 8.27664 24.9052
Pd 16.145 34.0558 18.547
Au 18.4336 18.1127 29.1325
Au 2.04528 18.4906 17.7438
Au 7.13148 17.4497 6.56096
Au 20.8759 29.2479 13.9847
Au 16.9176 20.6998 36.1349
Au 23.1361 24.4604 12.7176
Au 22.6751 29.2236 3.48014
Au 15.1965 4.35998 12.8247
Au 23.6858 25.9558 26.2018
Au 15.7717 24.1225 14.3169
Au 29.3126 31.7798 11.495
Au 28.1807 24.9864 3.32155
Pd 8.44736 6.81195 24.8922
Au 15.6227 28.5561 30.8312
Au 21.1459 27.1213 4.29283
Au 13.4193 18.4699 21.4286
Au 30.3278 27.6899 7.82859
Au 11.5378 23.8727 22.8047
Au 25.0491 13.4543 28.643
Au 28.7158 33.0646 21.7412
Au 25.4312 34.0393 28.6875
Au 28.7615 20.2204 11.4412
Au 21.24 3.39282 19.8405
Au 17.7456 27.0615 22.9556
Au 26.2047 16.728 34.6119
Au 20.4977 17.379 35.3339
Pd 10.5142 8.10997 26.4195
Au 24.2531 3.84952 28.5391
Pd 22.0867 29.939 23.153
Au 30.2347 24.9747 8.4399
Au 13.5932 32.6089 30.0738
Au 21.9574 36.7694 25.335
Au 6.73884 23.4724 32.508
Au 9.61813 29.1352 28.7592
Au 7.56342 8.30414 22.8373
Au 30.2802 16.3887 25.3447
Au 23.1108 19.7333 3.11112
Pd 19.4199 21.3147 17.7963
Au 6.82367 9.51168 31.7891
Au 8.32708 21.5379 31.6002
Au 5.49458 12.9336 16.8594
Au 4.95214 15.6082 24.484
Au 8.49433 23.1031 6.37036
Au 15.9492 26.6273 32.9147
Au 5.19076 25.0875 10.0921
Au 4.82568 26.3789 21.4182
Au 15.8305 3.18158 15.2626
Pd 35.041 26.5288 12.9579
Au 21.4309 0.855965 25.1314
Au 19.1682 27.7384 36.2818
Pd 33.7972 22.356 11.7951
Au 28.8438 20.3593 16.917
Au 21.8415 24.5861 3.18403
Au 30.6957 14.3589 8.30198
Au 12.1095 9.86685 31.6925
Au 27.5117 16.8677 29.987
Au 20.6722 12.938 19.3187
Pd 24.4247 11.9199 11.9802
Pd 18.6611 22.8529 35.8973
Pd 25.4007 29.9155 10.8006
Au 26.8705 3.81708 15.5902
Pd 21.067 21.3655 33.3931
Au 14.3069 26.7559 5.56585
Pd 18.1266 12.6153 33.5342
Au 18.4404 25.0414 14.5521
Pd 7.16353 16.038 11.6784
Pd 24.0654 12.8331 24.0377
Au 26.6236 22.9006 3.92982
Au 17.604 17.9629 7.77167
Au 15.5276 29.3925 18.7345
Au 15.5212 18.3774 35.9378
Au 30.6236 27.9762 5.15438
Au 9.06024 21.9988 20.4443
Au 17.3244 34.0237 13.6524
Au 22.3212 12.976 21.9751
Au 26.5581 26.6588 33.4353
Au 15.838 12.8414 18.6372
Au 15.4262 36.2714 19.7806
Au 31.4856 19.8334 16.0427
Au 21.6671 19.2731 18.4309
Au 6.64132 12.2352 14.4328
Au 24.2942 22.301 2.53332
Au 19.0101 26.5338 33.9352
Au 27.21 21.6306 1.62949
Pd 28.5157 32.5366 24.7211
Au 5.29865 18.736 33.244
Pd 33.9757 14.5104 12.0487
Au 16.5415 26.0944 4.25445
Au 24.5179 8.68058 26.6129
Au 14.9144 1.52289 22.1423
Pd 26.8778 31.6906 20.164
Au 20.9628 8.16496 18.0533
Au 20.2637 21.25 0.245293
Pd 25.5788 29.1521 13.4333
Au 14.9169 30.9099 22.8272
Au 33.7415 11.6866 11.757
Au 20.2123 32.1611 18.2374
Au 12.7433 6.88708 27.153
Pd 19.2442 17.1485 9.80618
Au 27.4863 10.8633 18.0207
Au 15.4543 32.0565 31.9577
Au 5.53783 10.1624 22.777
Pd 8.43374 19.8448 22.0025
Pd 21.1008 12.4238 34.6218
Pd 26.8775 10.4702 12.8142
Au 23.8618 25.2868 29.6767
Pd 31.6928 18.7687 25.1668
Pd 29.271 18.9355 14.6396
Au 26.0932 13.6582 33.8903
Au 20.1145 23.8522 33.7082
Au 16.8861 36.2892 23.1368
Au 26.0746 14.7924 24.6309
Pd 21.3201 20.8248 10.1768
Au 18.1116 12.5165 20.5265
Au 19.0405 25.9726 20.6409
Au 17.3055 21.9324 13.6522
Pd 19.881 19.107 16.2993
Pd 13.0517 23.442 14.3479
Au 7.32347 17.3316 18.8788
Au 27.7022 8.81185 20.2379
Pd 27.4269 26.8108 21.5772
Pd 23.4871 18.4924 32.7509
Au 20.0129 14.3325 16.8134
Au 19.7203 3.73332 22.3625
Au 5.89223 13.6374 26.1578
Au 6.22675 13.5001 29.5983
Au 5.71646 11.9175 31.9903
Au 14.2832 1.48146 19.4264
Au 23.5868 23.2771 20.4139
Au 7.27772 19.9615 14.0855
Au 15.0402 33.6817 11.8801
Au 8.3432 14.0433 13.3712
Pd 12.9605 16.0886 14.5847
Pd 20.1296 16.9401 18.2051
Au 26.3515 23.185 19.2322
Au 32.9739 22.7935 19.3431
Au 19.7493 2.99977 27.3371
Au 16.9441 27.126 19.414
Au 20.9924 23.8952 0.675354
Au 19.5848 34.3005 11.407
Au 21.5313 27.1925 35.0586
Au 17.8514 30.7383 9.32701
Pd 31.1807 22.371 31.3398
Au 36.3169 15.6943 16.9886
Pd 29.6717 28.342 22.6025
Au 10.5239 11.8401 5.92039
Pd 14.6085 11.3128 8.65832
Pd 10.6036 9.26623 14.6554
Au 9.84977 17.8522 30.2058
Au 17.4019 16.2945 35.672
Au 16.3759 10.9533 35.003
Pd 8.3139 11.3801 12.4759
Au 14.3527 5.58135 15.3296
Au 21.0253 8.20235 15.2946
Au 29.6708 21.8911 14.8248
Au 10.1748 26.2633 16.7666
Au 27.4975 26.7406 12.4082
Au 12.6882 35.2082 26.4753
Au 15.9496 12.5113 6.54994
Au 13.0593 32.2144 10.3804
Au 10.8941 25.9722 14.0933
Au 3.04422 14.2056 17.352
Au 28.5034 17.7476 7.55156
Au 14.1822 20.2132 3.86804
Au 27.0134 15.2238 14.6436
Pd 14.5625 14.4089 24.8587
Pd 11.1331 17.7072 12.9641
Au 7.67337 13.3423 18.6819
Au 10.7276 11.2955 17.151
Au 14.0039 15.6325 21.928
Au 14.468 8.43594 8.64395
Au 5.12748 16.5897 20.4269
Pd 26.7011 16.7647 22.9114
Au 6.34373 13.6022 33.986
Au 9.26538 13.1157 8.03767
Au 15.3806 26.0229 9.08234
Au 34.8 17.118 10.5999
Au 23.7944 21.1398 18.7074
Au 12.6537 23.7943 31.2854
Au 26.7608 5.5067 13.5473
Au 11.5825 11.3364 20.3057
Pd 12.9283 25.1912 20.7923
Au 26.9516 4.81633 25.3844
Pd 26.0289 26.7515 14.717
Au 29.6732 17.8155 12.1441
Au 31.1081 8.26082 14.3367
Au 30.0022 18.1837 5.11405
Au 7.37508 14.9501 20.9796
Pd 6.35307 20.6188 16.7874
Au 19.7167 9.93936 13.7078
Au 12.919 22.2355 5.48887
Au 10.3966 23.1228 4.37869
Pd 8.80222 19.2998 16.4206
Au 26.1006 26.0709 27.9536
Au 27.3662 29.2925 31.1918
Au 29.7835 21.1102 29.3582
Au 25.5085 32.7094 15.0271
Au 22.8448 21.8158 0.269797
Pd 16.7194 21.6134 18.5952
Pd 20.6643 28.5486 32.7933
Au 10.5037 22.7208 13.4993
Au 15.9862 31.8198 25.3208
Au 16.404 20.6584 8.20783
Au 6.81336 12.3158 8.56661
Au 13.4807 4.06702 22.1863
Au 31.9222 28.9738 24.4576
Pd 13.1047 29.3684 10.1918
Au 15.2802 14.7093 30.4409
Pd 22.4323 10.3392 14.2043
Au 9.77523 19.5157 32.765
Au 19.47 36.7486 16.1875
Au 23.8581 14.5659 26.2549
Au 13.3911 15.5673 5.48498
Au 30.0964 30.875 13.8451
Au 15.6737 32.9598 9.22639
Au 15.1657 17.2109 12.5707
Pd 8.55356 23.2409 22.826
Au 11.9128 32.9963 27.833
Au 5.59212 21.1566 31.775
Au 22.265 19.2 0.574782
Au 25.5752 24.1934 9.05574
Pd 21.9083 32.1527 21.3115
Pd 14.1743 8.95883 19.0002
Au 12.5789 22.83 2.86657
Pd 29.3134 18.5478 26.8398
Au 13.4151 27.9481 32.7204
Au 32.1474 10.5748 23.2076
Pd 11.3083 14.3431 6.6777
Au 15.5303 13.8043 1.6446
Au 26.0037 29.9673 16.0314
Au 12.0462 13.5498 15.751
Au 25.0338 11.7552 21.6956
Au 26.8255 19.3446 25.2145
Au 22.8977 13.0285 10.0312
Pd 16.0923 25.3506 24.3515
Au 12.8868 3.97854 19.4944
Au 21.8486 17.7622 4.56399
Au 32.7928 15.7143 9.58936
Pd 29.2283 15.9513 28.0722
Au 22.1786 15.0375 15.0227
Au 12.1045 26.6116 22.8036
Au 33.2036 25.8089 8.6616
Pd 15.5229 19.8664 12.7258
Pd 12.0851 12.2801 8.19978
Au 28.1709 28.2952 6.25897
Au 34.759 23.4458 9.48094
Au 9.22897 24.346 31.9125
Au 16.8098 31.6992 6.99008
Pd 20.3409 23.7594 16.1589
Au 10.6553 34.0516 17.7859
Pd 12.9358 22.351 24.5707
Au 11.5871 29.6203 19.7664
Pd 23.6681 14.8011 8.16025
Au 23.6262 24.4745 0.984525
Au 23.7734 12.7258 14.5306
Au 16.4834 2.16334 17.8185
Pd 13.531 12.0499 27.6473
Au 32.333 18.1551 11.2865
Au 30.053 9.65018 21.7541
Au 8.12101 7.14383 27.4569
Au 34.1089 17.0008 13.2626
Pd 27.7496 15.6175 11.8923
Au 9.06841 16.3673 32.4378
Pd 3.77668 16.9128 16.1558
Au 26.3863 24.8469 25.6027
Au 31.2747 16.8542 16.3962
Pd 17.6989 16.652 13.3669
Au 27.8615 9.67745 29.0633
Pd 36.2789 17.511 14.9051
Au 25.3141 23.9678 14.4902
Au 15.0164 28.0885 11.7255
Au 10.6258 18.9473 7.64684
Au 18.2126 34.3364 16.4612
Pd 3.04724 16.3331 18.8538
Au 33.8058 28.0493 11.222
Au 20.4929 13.5021 7.14143
Au 21.1014 27.8777 21.5308
Pd 23.2426 10.2855 9.80612
Au 11.2436 15.2132 21.1451
Au 11.7544 22.4435 20.2081
Au 7.08917 18.3399 28.8969
Au 21.8302 28.7609 16.4994
Au 20.8466 8.17128 33.5275
Au 27.2212 22.6257 15.976
Au 24.4867 24.7677 3.84347
Au 10.6639 3.94348 21.3571
Au 25.956 26.7932 2.68203
Pd 31.3542 17.0329 22.927
Au 33.5688 25.3714 18.2462
Pd 16.9015 7.49089 27.8797
Au 8.35758 8.6509 12.3329
Au 19.3526 24.3901 27.776
Au 12.4324 9.47457 28.0986
Au 8.88498 21.8153 15.5878
Au 25.5628 28.1596 7.16835
Au 29.4127 28.8498 29.5545
Pd 25.205 17.1479 11.5944
Pd 21.8588 26.9045 12.0501
Au 25.7408 9.01841 16.9468
Au 21.7374 16.4531 25.615
Au 25.8417 34.9804 16.9045
Au 18.842 34.3686 19.143
Au 11.3883 21.5918 35.0944
Au 24.6606 28.882 23.2107
Au 20.5726 22.0174 7.71009
Au 23.8684 35.7958 27.0842
Au 5.72257 19.4198 7.82434
Pd 10.3328 29.0246 17.4884
Au 24.7277 16.8678 15.0815
Au 12.8417 5.70306 12.8582
Pd 13.8454 27.837 20.4928
Au 11.6821 28.1895 30.3809
Pd 32.0064 20.7238 10.4706
Au 12.4184 10.0657 9.83168
Au 31.6152 12.6083 15.3979
Au 24.4427 5.10009 20.3433
Au 13.8826 30.7081 20.3622
Au 13.4333 22.4721 33.4637
Pd 14.8001 23.8045 4.07988
Pd 14.6442 27.6994 16.5964
Au 25.5802 16.6151 8.83515
Au 11.0179 19.7574 20.5174
Pd 30.8189 9.88939 16.5182
Au 27.2696 21.0508 23.1165
Pd 19.9474 33.8718 28.3052
Pd 20.5914 6.43989 31.6112
Au 31.6158 14.3481 23.8606
Pd 11.4422 15.856 17.1397
Au 18.2388 7.22532 32.9174
Au 12.9673 4.97009 29.2298
Au 20.5603 36.4137 18.6313
Au 36.9838 20.1349 14.4016
Au 17.7569 25.3619 36.318
Au 22.5883 18.3316 23.4247
Au 12.3685 18.4423 5.55023
Pd 24.0646 30.5659 25.1503
Au 36.2427 25.4474 17.3444
Au 16.4319 9.96466 24.8898
Au 6.10887 27.4974 11.1751
Au 29.9153 22.4749 26.9026
Au 19.5342 12.4839 3.74383
Au 16.6061 16.3273 9.72259
Au 26.6816 22.147 10.4971
Pd 14.3861 23.856 22.758
Au 16.5043 1.34705 24.5943
Au 20.3545 19.439 2.64678
Au 18.0939 20.3466 1.3352
Pd 21.4644 25.9643 32.5492
Au 14.6323 27.583 23.1709
Au 24.2078 5.22534 15.3951
Au 30.6179 26.6291 24.6956
Au 26.0837 17.8678 32.2098
Au 7.87446 22.4815 26.9443
Au 21.7701 1.85524 22.6494
Au 23.9992 17.2333 27.8414
Au 4.02122 11.8741 21.2684
Au 12.1997 24.754 12.1058
Pd 10.6745 33.3953 25.4589
Au 19.4545 6.87038 10.4796
Au 13.6643 5.25098 24.8927
Au 7.03862 27.725 29.1096
Pd 25.0808 12.1033 8.867
Pd 16.5671 14.7922 33.2364
Pd 12.757 3.83885 26.8302
Au 10.6045 20.0946 25.3736
Au 33.0309 18.4442 8.73509
Pd 12.0275 7.05716 15.1833
Au 17.5945 35.1546 27.7804
Au 32.2389 13.1384 10.1851
Au 27.8273 18.5907 18.7457
Pd 11.0972 18.8541 27.9364
Au 8.0886 11.4679 33.3024
Au 7.40561 18.7087 31.5856
Au 26.4135 6.48624 16.2431
Au 21.994 25.103 5.94528
Au 20.6004 29.7765 35.2216
Au 26.6615 8.15777 8.75057
Au 36.7689 19.0258 20.8743
Au 31.3428 28.5645 14.8337
Au 28.7222 14.0104 26.2294
Au 12.36 14.4738 34.3497
Au 22.0584 21.6912 12.7598
Au 19.7151 23.7405 19.0302
Au 26.9959 12.7078 23.2051
Au 8.16868 13.4499 10.6812
Pd 24.8865 32.6322 10.1145
Au 11.5355 3.40901 23.9938
Pd 32.7307 7.10034 18.7777
Au 4.42237 12.498 23.9842
Au 23.4308 25.3945 10.1679
Au 27.2424 28.3482 23.7873
Au 18.0063 20.0213 22.698
Pd 6.69013 29.7677 24.8866
Au 8.08028 24.7528 25.2967
Au 4.74544 18.9411 30.5668
Pd 16.2327 21.7454 2.83586
Au 23.837 22.0306 10.3726
Au 21.1655 15.7484 8.64206
Au 8.6156 31.3674 13.8893
Au 25.4555 2.80051 26.3141
Au 16.0676 22.152 21.4028
Au 34.151 20.2176 24.8619
Au 9.0928 7.05535 14.9118
Au 18.6496 17.1441 2.33416
Au 29.0263 30.3244 20.8813
Pd 13.1893 29.7365 17.4138
Pd 10.2258 10.3378 8.15629
Au 13.1444 34.9096 18.7102
Au 9.98602 19.9496 13.7245
Pd 17.5074 15.61 28.5761
Au 20.7799 10.1544 26.3529
Au 7.73294 23.2667 29.5972
Au 9.02852 20.3283 29.3777
Au 14.7336 24.0399 29.1554
Au 8.75977 18.4774 11.5228
Pd 21.3061 25.7642 14.4569
Au 29.6425 22.844 2.87582
Au 11.2844 14.8161 31.7404
Au 19.2327 27.2436 12.9088
Pd 24.6134 2.4247 19.1492
Au 18.9679 19.8737 9.3989
Pd 25.8485 24.4431 11.8513
Pd 9.82111 15.6215 11.7925
Au 10.4024 21.1277 6.14516
Au 19.1515 18.3038 4.86821
Au 25.6111 24.989 21.0403
Pd 10.6707 10.108 12.204
Au 5.7136 20.7719 26.2612
Au 19.6266 31.7818 7.04694
Au 26.2006 2.78124 23.6491
Pd 19.9897 30.0209 30.5991
Pd 18.9665 22.8263 2.25575
Au 7.16055 13.4622 23.4755
Pd 15.0609 7.7168 25.6477
Au 10.8891 5.58732 25.4899
Pd 11.7016 24.6069 18.5065
Au 33.6816 13.6197 25.8116
Au 14.9844 35.8383 16.9435
Au 30.8539 14.5315 21.1842
Pd 24.6713 23.1992 17.1427
Au 21.8755 5.94249 13.7837
Pd 17.3611 14.4754 26.0948
Au 10.7648 30.535 10.0735
Pd 26.6783 16.52 20.1896
Au 4.10604 14.562 28.2439
Au 11.3409 6.29986 19.9513
Au 2.48575 13.8864 20.1595
Au 33.3869 17.8295 29.435
Au 19.3738 14.7284 14.1281
Au 14.8131 17.4892 7.27624
Au 32.5627 8.69597 21.0476
Au 22.292 4.56941 22.1435
Au 23.3529 34.3003 21.8043
Au 26.9024 24.6571 30.243
Au 12.6266 11.1297 14.812
Au 23.6564 25.4657 15.9022
Pd 21.6475 9.37152 31.1233
Au 26.0852 19.7404 11.53
Au 11.8695 32.5095 19.7715
Pd 14.3893 10.3332 30.1908
Pd 21.1001 8.52463 20.7673