1687
Atoms. Timestep: 20891
Au 12.0502 34.9808 25.5466
Au 15.1108 13.265 5.53775
Au 24.0175 33.3069 26.1369
Au 16.7262 15.9177 29.8391
Au 23.0578 5.81408 22.6097
Au 22.0231 36.4131 14.9168
Au 14.9172 14.5929 18.0962
Pd 13.8618 5.83354 20.7118
Au 18.0124 3.88631 17.8084
Au 13.9169 17.0512 18.0041
Pd 6.43307 24.1814 27.341
Au 12.2071 28.299 11.2994
Au 17.1537 7.2274 17.5235
Pd 12.3894 19.6294 11.4267
Au 16.506 21.0043 25.4887
Au 34.878 16.2448 25.3701
Au 9.66829 13.33 28.1629
Pd 23.3191 7.02711 19.9926
Pd 20.8658 7.18843 8.67267
Pd 20.5043 10.4388 17.3701
Pd 15.689 12.5424 22.5692
Pd 11.1027 7.64369 25.2137
Au 28.3246 15.8977 5.60399
Pd 19.7011 17.2219 13.9774
Au 9.54843 7.11841 18.5416
Au 23.9179 16.7271 29.8476
Au 6.66638 19.786 13.921
Au 16.5263 7.88007 22.6254
Au 9.81273 20.133 6.27683
Au 31.3981 9.52534 30.0163
Au 14.5891 10.6648 35.7873
Pd 17.5377 14.4195 18.3253
Au 32.5547 11.9272 30.3859
Au 9.64993 8.25515 22.299
Au 16.672 19.6951 12.7157
Au 24.0227 8.02209 5.46474
Au 7.41625 12.0455 10.5347
Au 20.4091 19.8174 12.7086
Au 11.6674 13.4783 33.2398
Au 33.7266 8.33415 16.5058
Au 5.85277 11.6391 22.0485
Au 15.7726 14.2188 13.3267
Au 36.5621 23.361 14.4765
Au 11.8035 18.122 2.68575
Au 33.9081 12.1881 23.0313
Au 25.4262 5.48533 21.4299
Au 33.8829 8.6039 19.2625
Au 13.7031 9.04339 30.2127
Au 34.1502 8.43857 26.8635
Au 8.14389 21.5146 19.0218
Au 5.64949 17.7322 24.5686
Au 5.30249 8.40199 24.0365
Pd 16.8824 10.329 34.3085
Au 19.5244 15.7329 10.2
Au 22.1129 33.9578 11.3489
Au 8.62183 12.695 24.5526
Au 10.1988 26.9993 31.9981
Au 18.8665 7.88375 12.3846
Au 6.80385 20.551 30.2516
Au 12.6663 14.4899 24.0274
Au 18.3671 24.9017 2.2399
Au 8.63892 24.6561 29.0856
Au 13.3543 15.3285 6.19204
Au 5.50171 26.7527 26.9872
Au 35.3698 14.9414 23.0828
Au 29.6658 14.6091 12.6186
Pd 27.4092 25.1593 23.6655
Au 28.7176 27.4056 9.76152
Pd 28.1899 12.3201 12.667
Au 21.1123 30.5026 29.1359
Pd 19.5095 22.9398 10.4266
Au 8.13559 10.9033 15.1465
Pd 11.9002 8.80145 28.0765
Au 27.7158 10.963 33.0282
Au 14.8744 17.1529 31.7803
Au 12.7269 8.06856 32.7244
Au 12.6861 11.3888 28.868
Au 17.2438 22.6227 1.36963
Au 15.5591 14.1492 3.02693
Au 15.5895 18.3372 25.5364
Au 12.1711 5.19758 25.0703
Au 5.626 23.4037 10.1524
Au 31.6296 19.7197 3.67699
Au 3.70581 14.4255 12.5257
Au 28.4889 13.252 24.2979
Au 19.7694 32.0618 14.6705
Au 13.6707 17.4059 11.3855
Au 19.9666 13.1431 13.9708
Au 23.074 28.5185 25.0022
Pd 19.3916 21.3568 8.18145
Au 12.3416 27.7258 25.5179
Au 8.06202 20.9287 16.2857
Au 21.9015 16.9478 22.1885
Au 13.174 9.43948 25.709
Au 37.8019 16.7663 16.8876
Au 11.0036 23.7745 10.1042
Au 32.4461 6.75829 20.6101
Au 9.73078 18.1153 8.02464
Pd 9.46711 21.5966 24.1461
Au 18.0644 20.9825 21.1383
Au 27.8892 22.3529 25.3355
Au 5.96358 24.5647 21.866
Au 17.704 21.7067 36.6206
Pd 16.2952 5.26233 21.5254
Au 9.29463 8.75614 26.9171
Au 7.68709 15.4811 24.5669
Au 22.4712 21.7828 19.1685
Au 37.8328 21.2974 16.1833
Au 18.0383 13.4427 1.76207
Au 7.04767 6.79278 17.2216
Au 20.4866 24.6687 29.7188
Pd 19.7258 7.90614 18.3759
Au 28.1287 27.013 19.3145
Au 10.425 16.5438 29.4313
Pd 30.6817 9.04536 25.6299
Au 8.81021 25.4441 21.8678
Pd 19.994 26.5978 31.6282
Au 14.5804 27.7582 15.2051
Pd 12.0366 17.6502 9.17404
Au 26.6717 14.0051 26.1999
Au 7.35311 7.0194 19.9867
Au 32.387 15.4096 12.1432
Pd 23.8568 3.88384 14.4626
Au 27.3191 34.3202 21.8853
Au 28.5965 14.7827 21.8268
Au 35.4749 19.6081 11.6142
Au 9.24454 25.3432 8.60746
Au 11.5167 22.7288 25.5989
Au 29.0164 12.2339 7.62285
Au 22.4465 8.39337 17.6231
Au 15.9519 26.2268 9.64965
Au 12.7032 26.2423 16.6239
Au 14.9752 20.4793 27.9436
Au 26.2477 28.1274 5.69729
Au 32.7746 14.671 29.9314
Au 26.4888 3.83549 13.7556
Au 36.0784 19.1911 16.9143
Au 25.4344 30.8476 16.6355
Au 19.8359 26.8966 6.2834
Au 7.59908 24.1451 34.2429
Pd 15.9886 27.5034 22.5827
Au 32.4136 9.73347 10.9203
Au 12.6227 17.5517 15.58
Pd 16.3078 21.0433 3.43954
Pd 23.5539 19.7998 2.97431
Au 38.5744 19.2015 17.8391
Au 26.6231 10.1198 12.5662
Pd 31.2922 21.3036 23.0674
Au 30.1794 11.5033 31.6351
Pd 11.2507 11.9978 23.6059
Au 33.4114 11.9771 9.8239
Pd 18.2025 24.6707 15.0628
Au 26.3677 31.7241 22.3054
Au 28.3706 27.369 25.272
Au 25.4558 12.0575 31.7913
Pd 6.6928 23.3689 17.3175
Pd 7.07079 21.9115 25.7402
Au 25.7899 17.2514 5.84932
Au 7.26083 19.6329 27.2647
Au 24.0687 22.0786 7.96726
Au 12.2413 25.652 35.8901
Au 23.2448 32.6654 9.071
Au 12.8512 35.7879 18.8535
Pd 30.924 13.478 22.9673
Pd 24.5065 12.6971 5.26646
Pd 14.2387 18.6491 13.6605
Au 25.6822 31.5366 25.0226
Au 7.37508 12.1166 34.8432
Au 5.21604 24.5869 15.4471
Au 19.6352 12.6635 18.8798
Au 24.7946 7.84155 29.5942
Au 3.54384 18.5427 18.0396
Au 10.5029 34.7021 23.2855
Au 14.0845 19.7086 8.98054
Pd 31.2881 19.825 18.4441
Au 23.0932 10.7377 21.8915
Au 31.7086 13.5654 32.4186
Pd 19.1442 29.4012 7.21694
Au 18.6858 3.76549 15.0156
Au 31.1346 26.1966 21.0453
Au 25.9296 14.8522 36.365
Au 15.8742 9.91626 10.6773
Au 10.4445 23.3711 19.9184
Au 8.2775 26.7396 33.9979
Pd 24.639 20.994 28.6523
Au 18.3411 18.7236 26.0438
Au 23.1209 6.87399 25.3488
Au 14.4938 33.6618 19.7197
Au 20.1382 12.421 3.29155
Au 35.5323 12.361 14.2705
Au 38.1033 18.8687 15.1127
Au 12.5458 26.2233 33.188
Au 29.4998 22.9856 27.9922
Pd 14.3447 21.7626 32.4266
Au 32.6125 12.2822 25.4744
Au 32.9415 6.21939 14.9737
Au 25.8221 33.4413 15.2967
Au 5.21296 13.9336 20.4423
Au 25.7159 11.8822 24.5276
Au 19.5392 24.6199 12.6536
Au 29.8708 17.8411 33.9342
Au 5.62843 16.5617 30.1507
Au 15.7138 33.4783 15.0544
Au 17.9532 33.9687 13.31
Au 13.7096 35.4213 14.3531
Au 14.4289 31.8196 28.9563
Au 24.108 21.0068 16.8886
Au 30.7461 22.7646 25.3829
Au 16.8115 15.8521 10.2314
Pd 17.2177 17.794 14.8435
Pd 31.2086 16.8269 9.85763
Au 12.0209 14.1889 29.2813
Au 16.6036 3.53776 23.7091
Au 18.1598 30.9026 18.9112
Au 17.2741 16.0156 26.9828
Pd 21.1055 19.7861 4.19341
Au 5.4743 10.2686 26.5949
Au 27.7963 29.748 19.2422
Au 25.9523 15.5705 28.2937
Pd 14.8886 10.0563 32.3992
Au 29.7004 10.9141 19.1617
Pd 32.7017 26.4393 23.5746
Au 6.30248 14.8963 12.9078
Pd 19.6829 23.6649 17.296
Au 12.8395 10.3397 11.2656
Pd 12.1088 20.2496 14.0116
Au 10.2292 8.90321 33.3595
Au 11.816 5.58321 19.091
Pd 20.8055 34.3096 13.8301
Au 17.0439 14.8284 22.3287
Au 25.5697 22.6782 5.57014
Au 8.17463 16.5769 31.608
Au 7.36821 15.5779 15.3287
Au 7.93719 33.0193 16.1824
Au 3.18564 17.102 12.8468
Au 15.9342 19.5278 33.0161
Au 21.4843 27.7456 15.5566
Au 7.39401 27.4896 31.5594
Au 19.2218 15.0723 28.8162
Au 6.38304 23.3125 30.2828
Pd 24.4714 29.9302 23.1597
Au 28.689 20.3457 23.5386
Au 11.5479 25.8704 21.3391
Au 14.189 29.3994 12.8824
Au 22.4747 27.3023 33.1077
Au 20.9899 26.319 8.666
Au 23.3595 35.4391 23.8351
Au 31.4151 16.1791 31.9282
Au 21.5295 20.4942 1.39739
Au 24.4513 12.9811 15.6428
Au 15.1313 25.821 24.642
Pd 17.7571 32.0459 16.4835
Pd 35.2492 22.3816 12.1971
Au 37.1469 16.5276 14.1943
Pd 11.7373 14.8541 35.7539
Au 13.6825 20.4923 25.5867
Au 3.95496 17.5332 26.7547
Au 23.956 25.9677 19.7948
Pd 7.18823 22.0699 32.5963
Au 6.45475 18.4619 18.9226
Au 30.0182 17.6093 19.4363
Au 24.2977 19.1404 26.2304
Au 10.5846 13.9968 25.6887
Pd 26.2235 29.0529 21.4063
Au 22.1792 15.4951 24.6995
Pd 19.3098 17.8203 2.90024
Au 24.9196 14.8793 6.88484
Au 16.036 8.80249 3.97936
Au 9.91137 19.186 23.06
Au 22.2028 15.6786 9.7678
Pd 17.7057 20.1878 28.3027
Pd 8.69616 20.2943 9.07407
Au 3.8586 19.6648 13.8075
Pd 15.2505 25.9821 33.8715
Au 26.9768 6.79066 28.2317
Pd 30.4927 22.3588 10.0019
Pd 28.1099 5.66547 14.9823
Pd 9.68318 28.2791 25.7672
Au 2.38217 21.1698 12.1964
Pd 9.05581 15.8852 26.9895
Au 28.756 19.3065 31.7668
Pd 28.9646 12.0559 21.7631
Au 8.86129 17.3008 5.50917
Au 8.95943 12.0339 6.35686
Au 11.5841 18.0248 5.477
Au 2.72767 18.8438 24.6918
Pd 25.0553 10.4473 14.9341
Au 17.2878 14.8245 6.2961
Au 5.44243 27.9549 24.4988
Au 10.0476 27.1249 6.23912
Au 25.9456 28.8035 9.95316
Au 31.5313 7.66361 12.2636
Pd 20.2209 27.0149 11.326
Au 26.7875 14.2352 11.469
Au 35.1816 16.6766 12.2529
Au 31.3645 17.671 16.7988
Au 8.08099 12.858 13.0599
Pd 24.361 23.6833 18.3159
Pd 22.6878 13.3513 3.33432
Pd 23.4841 16.8437 19.9559
Pd 14.3679 22.9907 24.8558
Pd 26.122 26.3254 21.2901
Au 12.9778 25.7193 9.71315
Au 15.4859 34.7122 12.3629
Au 5.01978 14.7025 28.3301
Au 32.3295 18.4507 20.7002
Au 25.1161 12.168 10.2908
Au 9.27343 32.2965 18.5061
Au 7.94329 22.1122 13.3961
Au 18.3603 5.78206 19.6845
Pd 24.746 17.5644 3.44205
Au 30.2133 28.6448 20.3544
Au 32.934 6.18106 17.8914
Au 14.4262 16.6786 8.96357
Au 20.2618 33.3128 9.39012
Au 35.7721 17.7963 23.0688
Au 29.5871 25.042 30.1377
Au 15.8544 17.9985 28.294
Pd 18.0608 17.4275 5.35085
Au 21.4762 22.6262 34.099
Au 34.8369 10.9093 26.3901
Au 30.2997 8.32155 9.72528
Au 18.4611 27.9833 9.46429
Au 33.7482 20.0395 27.5036
Au 9.8345 26.3211 16.4664
Au 23.2815 29.1883 30.1466
Au 12.8216 33.9765 12.0671
Au 25.195 10.1797 33.8659
Au 33.1479 17.0256 23.1235
Au 31.3341 18.7468 27.8001
Au 12.8756 26.8858 5.16027
Pd 24.5133 27.5478 7.83432
Au 5.04012 20.0014 6.81274
Au 8.37883 33.7898 13.6445
Pd 8.25743 28.4795 15.4265
Pd 9.26027 27.3535 29.4818
Au 16.4741 28.543 33.5045
Au 6.55183 16.8558 27.2934
Au 29.3566 7.95678 28.7751
Au 11.0504 6.25746 27.6793
Au 18.1937 10.042 19.0828
Au 31.3123 12.9673 28.2365
Au 11.6343 11.9691 9.44633
Au 2.07318 19.774 22.0903
Pd 17.9948 15.496 3.53199
Au 27.4307 12.8452 19.7504
Au 20.7716 17.1052 5.18836
Au 25.1164 19.8332 6.86414
Au 11.441 12.1534 16.1646
Au 17.3258 22.9176 8.76641
Au 18.2373 15.2437 15.4559
Au 27.491 31.4709 14.6014
Au 14.8457 25.6723 36.6394
Au 23.373 13.369 0.625595
Au 24.3847 25.148 32.3234
Au 8.30196 22.3037 21.7871
Au 18.7579 10.0485 32.3403
Au 15.249 24.5018 16.25
Au 6.53274 26.5701 13.8755
Pd 27.8068 16.7447 12.8309
Au 12.6275 21.8632 30.0763
Pd 27.1859 26.4654 7.70294
Au 19.1231 29.4978 15.0341
Au 20.8184 6.28735 11.2012
Pd 33.9786 12.5745 28.182
Au 23.4286 25.1097 8.718
Au 9.97774 14.4105 22.8934
Au 21.4737 9.16534 20.0677
Pd 7.73379 15.0179 29.2872
Au 24.5895 19.3335 19.1261
Au 19.806 34.2191 21.109
Au 17.4606 16.885 32.7639
Pd 31.2317 22.8733 30.0143
Au 19.3164 25.6731 19.7616
Au 13.2181 19.0389 32.7855
Au 11.8916 30.2474 9.02751
Pd 15.5937 16.4306 4.94888
Pd 20.5772 7.51834 28.1794
Au 34.7307 24.5608 23.7079
Au 24.6237 11.6668 2.58131
Pd 14.345 14.9025 21.728
Au 20.9679 22.9138 24.4458
Pd 32.3356 18.1335 5.9419
Au 25.0728 20.2474 23.7443
Pd 30.1272 17.6189 7.46038
Pd 27.0114 21.5576 13.0964
Pd 10.7692 25.8359 27.7238
Au 21.5705 32.3931 27.2492
Au 21.4017 23.2394 8.4269
Au 32.4248 7.01728 25.3554
Au 26.5112 19.0718 8.96734
Au 14.5009 29.4768 21.6832
Au 20.9698 5.29511 26.6193
Pd 18.6943 8.3266 4.3998
Au 33.5893 27.2057 19.7488
Pd 33.2368 10.7701 15.5397
Au 30.1649 27.342 12.4378
Au 34.9076 26.7103 22.035
Au 19.9692 22.7873 1.18294
Au 23.1665 31.3669 21.0112
Au 27.0917 21.8041 2.67964
Pd 17.8649 26.0788 34.4369
Au 19.1945 24.2107 7.11896
Pd 12.1643 22.8913 3.03251
Pd 10.7904 33.3996 16.426
Au 31.985 17.0672 25.6586
Au 14.6048 15.842 26.8872
Au 18.2074 17.2173 21.7715
Au 30.4268 5.82299 19.0033
Au 6.16788 13.1191 15.211
Au 20.6756 13.5108 0.880343
Au 32.2456 25.6651 13.0271
Au 21.1429 15.2389 12.3584
Au 10.3137 22.0348 15.0596
Au 11.8357 35.9161 16.292
Au 5.79787 13.8524 30.9101
Au 21.3073 16.9625 28.364
Au 20.5597 8.18655 15.6563
Au 34.2991 22.2927 22.3531
Au 19.9803 21.9703 31.7983
Pd 6.09589 9.3885 19.4519
Pd 12.2509 19.3007 18.7331
Au 18.376 10.6553 29.8346
Au 27.8137 11.8958 30.3537
Au 9.42481 19.0759 3.65247
Au 22.5525 6.11754 6.76295
Pd 9.00465 30.7931 20.9445
Au 14.6297 36.3758 16.7333
Pd 15.0404 9.87366 23.6871
Au 19.2106 7.79606 30.6155
Au 15.044 28.6268 6.22461
Au 9.01636 13.4822 15.5959
Au 22.6958 23.0607 1.06463
Au 10.9491 36.1409 20.9524
Au 22.9467 4.34356 20.1636
Au 22.5384 37.0526 17.4805
Au 5.76994 26.1086 8.80144
Au 17.3543 5.27779 13.1872
Au 22.1706 7.51509 30.3767
Au 4.40206 27.1157 15.6828
Au 20.0287 22.8735 19.9141
Pd 3.61172 12.5481 14.524
Pd 20.7587 15.2669 2.9325
Au 16.2054 23.8274 32.4298
Au 11.0342 15.7037 4.30709
Au 10.8639 30.1889 18.9245
Pd 7.96252 23.9394 23.988
Pd 25.4242 17.3599 37.7564
Pd 28.6308 13.4388 28.031
Pd 9.57426 20.9094 26.6337
Au 18.822 6.77596 25.9661
Pd 34.4774 14.986 14.2488
Au 23.4583 22.3751 23.4504
Au 12.0728 13.4282 21.4304
Pd 13.6236 12.5271 31.315
Au 29.5665 32.8228 21.8427
Au 23.8206 14.036 29.1873
Au 18.778 20.3737 1.80349
Au 7.70314 31.0133 14.3978
Pd 16.7609 8.73067 25.4956
Au 27.0223 21.723 7.985
Au 14.8782 33.3986 10.1342
Au 15.1783 28.5807 25.1791
Au 9.38386 29.2241 32.9834
Au 5.42721 18.8499 11.6242
Au 5.35963 21.645 28.1267
Au 15.0079 7.08301 31.9065
Au 33.253 9.63453 24.6324
Pd 27.8561 5.43214 22.9175
Au 14.259 30.9056 7.5959
Au 31.0765 15.4567 5.48262
Pd 15.3852 11.1968 29.6546
Au 30.6466 14.2933 25.9241
Pd 4.17955 9.68751 21.5525
Pd 8.50244 30.9679 25.3616
Pd 16.0771 19.0417 21.1239
Au 7.152 30.6601 17.3718
Pd 16.1336 28.5025 29.6085
Pd 5.54567 16.4406 17.2353
Au 27.0869 21.8589 27.9372
Au 31.4189 30.7728 21.7179
Au 13.9642 27.259 27.8189
Au 12.0938 9.23707 23.1987
Au 2.95971 18.9838 10.8736
Au 16.704 17.2962 7.6708
Au 10.9788 12.0788 30.8239
Au 12.266 30.1936 14.578
Pd 10.9653 24.658 14.7089
Pd 7.16742 13.8524 26.786
Au 16.5031 8.88976 30.5328
Au 33.058 18.3302 11.5538
Au 25.0206 33.3912 20.6393
Pd 15.2449 35.3728 21.91
Au 8.28218 29.8069 30.612
Au 34.3714 13.7333 11.6662
Au 28.7798 22.1792 17.8121
Au 7.59213 14.8638 10.4628
Au 17.5318 36.3546 12.0347
Au 30.0033 11.6603 25.9714
Au 21.5313 5.77499 18.2986
Au 25.9661 12.6001 28.5483
Au 16.8 34.6577 25.1914
Au 29.9753 6.5387 26.493
Pd 17.229 31.3038 13.8574
Au 5.06097 7.25053 21.4504
Pd 19.8341 19.6155 30.1527
Pd 23.429 15.5934 37.2263
Au 22.1582 27.1114 3.65504
Au 13.7039 17.5498 20.6059
Au 11.3884 28.4684 28.028
Au 22.7035 26.5233 30.6098
Au 30.078 25.68 23.578
Au 15.312 22.012 17.3384
Au 30.1384 17.7981 30.1046
Au 14.674 13.8906 29.1386
Au 6.20715 17.9368 21.7848
Au 8.21009 22.8166 10.3023
Au 15.4696 14.439 31.7778
Au 21.7139 24.7315 18.8571
Pd 21.6877 24.4867 32.2456
Au 19.1077 27.6921 36.2328
Au 17.4198 31.998 25.3347
Au 16.433 34.3158 17.6379
Au 26.2029 8.97312 24.4216
Au 9.02597 32.4909 23.1738
Au 15.1414 21.4502 35.0745
Au 14.5706 27.564 31.7227
Pd 28.6723 30.3332 21.8157
Au 22.0962 10.6917 14.8547
Au 16.2952 23.459 38.0372
Au 15.6668 5.22587 18.654
Au 13.9712 12.1338 17.3142
Au 35.1722 15.3574 18.3407
Au 25.1302 7.83042 12.5862
Au 17.9668 13.857 8.79376
Au 25.0506 16.697 17.792
Au 32.3041 15.8725 19.2002
Au 5.45663 13.4983 33.6779
Au 5.04209 29.3093 22.2031
Pd 31.3661 9.12524 20.39
Au 14.5969 34.3745 26.7566
Au 22.9735 24.9096 34.7943
Au 24.7597 4.86892 11.9488
Au 20.094 18.4895 36.5188
Pd 21.771 15.9388 0.449776
Au 28.6512 15.9502 26.6708
Au 35.2439 25.3017 15.7842
Pd 31.1513 21.2444 12.3504
Au 21.9157 20.4776 7.32711
Au 13.6519 33.8657 16.9898
Pd 9.33665 7.19995 15.7424
Au 32.418 29.3951 16.2148
Au 13.6624 16.5121 29.394
Au 31.5553 29.5073 13.5895
Au 14.2541 13.5221 36.3341
Au 31.2768 8.1882 15.0157
Au 17.9635 8.28656 28.1725
Au 24.1574 25.0091 11.7846
Au 9.31794 22.392 30.939
Pd 16.2371 7.27352 11.6709
Au 27.8217 24.2045 6.38604
Au 8.99799 24.3296 5.84631
Pd 13.5997 25.1396 14.2415
Pd 24.3313 21.267 21.1464
Au 11.2577 13.3897 5.96695
Pd 21.873 28.5622 7.33877
Au 16.5881 18.3093 3.12518
Pd 13.5619 29.2949 29.6428
Pd 7.27524 9.66168 28.7992
Pd 20.1873 20.9966 37.6829
Pd 21.6337 22.4168 3.39705
Au 4.06391 26.6145 22.6924
Au 33.3996 20.9225 10.481
Au 10.3716 25.4066 24.9021
Pd 26.1342 9.41346 31.4243
Au 4.6505 19.9231 23.0881
Au 12.9689 13.7546 3.83015
Pd 19.3866 15.1702 33.86
Au 2.86554 21.538 24.2099
Pd 17.6552 22.2952 15.9388
Au 23.7142 10.1922 12.4793
Au 23.8993 18.2885 15.8802
Au 13.5035 6.84054 26.7858
Au 8.73627 28.5088 18.1208
Au 23.5523 28.6458 14.0056
Au 2.8271 16.1679 24.5213
Au 8.57182 19.633 32.1375
Au 3.50719 24.9624 20.6721
Au 32.0327 21.1549 8.10144
Pd 30.6827 29.3774 10.8658
Au 10.7786 27.59 34.7088
Pd 7.72013 20.2242 11.4754
Au 23.7901 15.5043 2.02468
Au 27.599 24.0907 15.987
Au 17.3234 25.0392 22.8861
Pd 14.3157 26.1912 7.35679
Au 13.5984 16.2586 3.27994
Au 25.5691 29.0452 26.1098
Au 5.63531 25.1621 24.7378
Pd 6.01971 13.0989 24.2902
Au 22.6963 23.9794 13.8826
Au 8.13555 9.20044 17.3231
Au 26.8349 18.3003 23.6882
Au 24.9053 26.8891 3.7218
Au 31.3575 24.8324 27.9362
Au 21.1792 11.195 12.2298
Au 18.7505 12.4414 16.3297
Au 7.07604 18.4607 7.37136
Au 16.1755 25.8495 13.8199
Au 26.9509 19.7507 26.0686
Au 17.1745 26.876 7.26316
Au 11.3474 19.2894 25.2845
Pd 24.4977 19.8078 33.9367
Au 32.4958 24.9372 18.5905
Au 9.8202 10.3478 11.2327
Au 24.3525 32.5765 11.5607
Au 16.254 6.34438 27.3122
Au 22.625 13.2204 13.709
Au 23.047 5.58598 9.54322
Au 7.84142 29.2303 23.3657
Au 21.029 27.6535 28.9227
Au 26.1249 29.1763 14.293
Au 18.2993 15.0427 12.6589
Pd 25.5927 18.3644 28.4064
Pd 20.6427 31.9332 17.1938
Pd 22.4919 34.1884 21.4033
Pd 3.55913 17.5193 22.4086
Au 22.1149 11.8515 19.4587
Au 24.5153 19.5737 31.0589
Au 36.1003 24.4062 21.2944
Au 33.6253 8.66477 13.7157
Au 5.20243 13.6937 10.2821
Au 29.1033 9.443 21.6355
Au 26.0549 11.5011 7.67268
Pd 21.5371 26.6342 21.1696
Pd 21.7095 31.2905 10.7106
Au 15.1262 22.8659 29.8933
Au 15.8394 21.4457 10.4728
Au 35.077 10.5338 17.5816
Au 7.10562 28.9116 26.2568
Pd 33.1758 14.7898 27.0218
Pd 14.9575 20.1167 23.3109
Pd 21.6174 23.0996 36.6864
Au 4.4476 12.6982 26.4524
Au 7.71225 34.4495 18.4226
Au 23.3436 3.80013 17.2828
Au 31.5555 18.9709 32.1209
Au 30.0329 31.3787 19.4898
Pd 28.391 22.8277 33.1648
Au 31.5898 13.1588 7.17615
Au 26.4912 26.7273 27.3213
Au 20.1276 10.207 27.7766
Au 30.4135 21.3985 32.0659
Au 13.1711 9.54624 16.6658
Pd 10.1225 16.2258 15.45
Au 27.5306 6.07366 25.5987
Au 10.5359 16.6395 24.5715
Au 8.46231 9.66678 31.2461
Au 19.0994 8.39676 23.7754
Pd 16.6516 26.3565 20.2523
Au 22.4201 20.9677 25.7211
Pd 19.8369 16.0244 26.1393
Au 13.9182 14.9503 34.0487
Au 5.90323 24.0155 12.8696
Au 11.2959 9.08766 9.32016
Au 29.206 27.496 6.32893
Au 20.3908 18.634 39.109
Au 11.1724 25.0638 4.35605
Au 19.7441 26.4496 17.2026
Au 9.80269 5.9028 21.0006
Au 11.0712 30.6216 26.0765
Au 4.5447 28.0568 12.9472
Au 22.6 36.8177 21.3752
Au 15.4325 10.8343 15.4144
Pd 15.9885 16.8179 12.7004
Au 31.1556 27.2127 18.1192
Au 12.2924 28.9397 6.72234
Au 9.6998 5.75557 23.8147
Au 33.583 25.6801 10.6177
Au 16.6517 33.0408 27.6934
Au 6.36786 11.3711 17.3054
Au 19.9561 36.7779 16.8865
Au 23.1218 25.694 16.7493
Au 32.8926 27.991 11.8111
Au 28.1566 14.8571 3.08784
Au 22.8151 19.0975 28.5599
Au 25.8856 23.4746 33.6856
Au 20.7623 35.7381 23.2098
Pd 9.21923 15.3902 12.8215
Au 26.4848 14.4546 17.1251
Pd 26.4923 22.4245 22.997
Au 15.5528 26.3655 4.79037
Au 34.3696 18.8745 25.2325
Au 28.8591 20.3533 34.2414
Au 5.65281 15.749 8.50296
Au 19.6566 9.68052 34.8751
Au 23.8152 18.0541 0.783789
Au 16.1303 13.5207 26.8844
Au 30.2851 24.9382 5.46108
Pd 16.9652 23.7212 25.2182
Au 5.96478 25.2008 32.2917
Au 10.6391 21.3416 17.8274
Au 11.2043 17.6017 13.2095
Au 5.63151 21.831 15.2831
Au 21.59 17.8716 8.12306
Au 21.7171 27.5635 35.631
Au 5.67618 28.2913 10.4855
Au 3.22507 12.2871 21.7204
Au 23.136 18.3637 5.63753
Pd 30.5343 10.4804 16.4603
Au 13.4875 11.1858 21.9323
Au 18.3084 29.4712 25.8661
Pd 23.3436 21.1688 5.20066
Au 31.106 10.7804 23.3675
Au 6.7225 31.3871 22.2859
Au 24.5882 31.3921 14.0223
Au 25.2005 6.26144 7.42499
Au 29.8152 6.73264 21.4654
Au 16.5752 11.9337 18.1088
Pd 21.058 8.58905 25.66
Pd 21.0553 29.3719 26.6522
Pd 31.2074 23.3656 13.8371
Au 19.0492 15.8432 0.905771
Pd 13.2519 18.3005 27.2681
Au 9.34761 26.6385 13.7059
Pd 13.0761 13.5488 26.7915
Au 3.24997 23.5948 11.5657
Pd 3.02157 21.235 18.971
Pd 28.3733 13.5077 32.5778
Au 12.723 20.3024 6.56202
Au 17.8938 10.6189 2.92012
Au 9.7017 31.8028 9.48976
Au 22.6991 18.1923 37.6639
Au 27.7086 26.1886 4.57361
Au 23.9062 13.4332 26.4695
Au 28.0893 21.1842 10.5582
Au 30.6693 5.71726 16.3457
Au 17.1863 26.4651 31.8649
Au 21.6199 8.75447 6.57169
Au 21.8285 29.4183 22.6036
Au 34.702 11.3077 20.2034
Au 19.1488 23.4618 38.0895
Au 18.7244 12.6809 22.9766
Au 21.3058 31.1603 7.87255
Au 17.1281 34.0096 20.3713
Au 26.4057 19.1545 11.8788
Pd 23.9213 29.8635 11.6847
Au 20.6373 13.2895 24.9373
Pd 21.3531 22.3179 12.2493
Au 5.06317 23.181 19.5412
Au 19.148 12.8238 27.1916
Au 3.17307 17.6484 15.5692
Pd 22.1009 31.9177 13.2506
Au 14.4089 14.7661 11.0383
Au 13.7085 10.0715 8.56411
Pd 16.9876 20.0848 8.20933
Au 18.4205 17.8089 11.783
Au 32.8859 18.5597 8.58913
Au 16.1322 28.7853 11.0103
Au 11.6874 7.27464 17.0451
Pd 15.627 29.1595 19.2061
Au 25.1418 5.47496 26.5915
Au 33.8254 23.2128 17.0473
Au 9.44329 7.79765 29.382
Pd 24.8544 23.592 28.0519
Pd 24.6396 18.5034 21.7445
Pd 9.96535 15.6516 33.5521
Au 20.936 29.0565 31.4357
Pd 27.6793 29.7954 24.2315
Pd 21.4118 8.56411 13.0628
Au 29.7551 20.5223 29.3946
Au 24.0057 22.3493 35.3499
Au 10.03 33.1752 25.7016
Au 10.8234 23.0022 28.341
Pd 6.04628 20.6758 9.38447
Au 17.861 7.35406 14.8715
Au 26.7374 33.5041 26.4834
Au 16.2912 7.64132 20.0101
Pd 21.1423 10.9832 33.0818
Pd 25.8027 24.0757 8.23467
Au 6.29369 25.9133 29.5874
Au 12.3041 10.8042 33.0307
Pd 31.7936 19.867 25.3388
Pd 26.1644 14.6866 14.0337
Au 24.4544 10.5461 29.6016
Au 21.2757 3.50568 14.3084
Au 3.38676 13.6069 24.0082
Au 7.76971 9.69257 33.8881
Au 13.8445 7.87658 10.186
Au 20.0749 10.4861 5.18406
Au 10.1577 18.3367 27.4728
Au 8.85564 14.5604 5.67341
Au 10.234 33.5048 11.5622
Au 4.12955 15.1129 15.1729
Pd 12.0383 32.5553 24.1075
Pd 5.46709 12.2641 12.5712
Au 14.4489 18.0558 1.47204
Au 26.0633 27.5998 23.8096
Au 22.702 9.26025 34.4423
Au 23.1675 23.5794 30.2677
Au 11.7919 33.2011 19.1197
Au 13.1095 29.9973 24.0213
Au 20.5417 25.5264 36.9703
Au 12.2707 32.809 9.68258
Pd 13.2923 27.3219 23.0235
Au 33.4311 24.6811 21.1039
Pd 22.122 26.5156 13.0621
Au 11.3504 20.3725 8.92708
Pd 31.5498 12.4735 11.7762
Pd 13.2728 16.9809 24.8327
Au 12.3599 9.26229 35.1787
Au 16.7509 14.4647 34.2197
Au 25.9696 16.2245 22.0479
Pd 7.14827 23.8659 7.94167
Au 6.55091 11.4545 32.2537
Au 15.2118 15.935 15.5223
Au 23.5428 34.1696 13.8843
Au 10.4171 27.4874 23.2447
Au 32.297 23.3339 6.35133
Au 15.3791 24.8222 27.2007
Au 23.4151 12.8732 8.12053
Au 19.5277 27.0794 3.42258
Au 15.0635 19.5247 18.685
Au 15.5829 21.7705 20.1585
Au 26.115 8.81006 7.07598
Au 24.4821 22.2624 2.91117
Au 26.0753 24.3895 3.45022
Pd 15.6211 25.7914 29.7177
Pd 11.6184 7.99849 20.2896
Au 16.3333 16.1039 1.48918
Au 25.5096 6.66625 10.0782
Au 15.595 36.3168 19.3508
Au 25.4934 4.59994 18.9202
Au 8.29296 19.4461 20.9154
Pd 27.4027 11.3119 26.6048
Au 8.02038 22.108 28.4183
Au 20.6998 24.7195 4.70453
Au 4.77227 25.5606 18.1297
Au 33.8426 17.3596 27.6225
Au 16.6096 32.2282 8.45644
Au 14.3669 6.50653 29.3311
Au 23.3216 10.9448 17.2192
Au 18.0267 18.4661 19.3782
Pd 15.7393 20.7141 14.964
Au 25.1499 8.13149 26.8061
Pd 25.8002 26.122 9.94488
Au 25.1969 17.2435 35.2412
Au 7.90162 13.9002 32.6824
Au 30.7486 22.2193 4.48347
Au 7.07938 8.37023 14.8544
Pd 9.44929 19.7228 13.5951
Au 20.8278 6.16247 24.0925
Au 21.2855 18.9347 15.3162
Au 13.8861 7.49927 18.6173
Pd 13.0789 21.9795 10.3943
Au 25.1124 27.6257 31.4962
Au 24.7481 19.7374 36.636
Au 37.4141 19.1603 21.3495
Au 27.0131 12.3834 3.64962
Au 32.7375 13.0286 14.1282
Pd 23.8585 32.7792 23.2378
Pd 18.9048 27.09 22.0269
Au 17.3921 19.7328 17.0744
Au 28.3263 24.0457 9.35268
Au 28.6641 23.7218 3.72738
Au 14.283 23.977 11.8092
Au 19.1678 4.07106 24.335
Au 29.7265 14.9278 7.85001
Pd 5.05768 16.3326 11.0123
Au 16.2953 15.1513 36.8708
Pd 28.3182 17.3591 17.4004
Au 15.8501 22.5968 22.6873
Au 13.5426 29.9963 26.9676
Au 29.2386 18.1975 25.3069
Au 16.0217 6.66977 9.02358
Au 14.0359 21.686 4.56072
Au 5.02285 15.2477 25.6617
Au 24.1566 20.8045 0.61607
Pd 22.3055 16.4984 17.4422
Au 19.542 22.173 29.0163
Au 10.7765 18.1559 20.6219
Au 23.5854 8.13458 8.32813
Au 11.6206 25.1613 7.17227
Pd 13.1161 20.443 16.5028
Pd 26.5444 16.8082 15.5622
Au 5.71276 28.3906 17.6958
Pd 13.3874 30.9449 19.6904
Au 30.1316 15.0646 34.0529
Au 34.9236 25.1931 12.9859
Pd 6.96746 9.0675 22.0179
Au 37.0085 20.85 13.5474
Au 16.892 30.7159 6.13496
Au 23.1846 12.6918 23.8232
Au 17.7529 23.9999 30.1258
Au 24.3402 17.2539 32.5979
Au 32.9997 15.4045 16.6275
Pd 12.2562 17.0621 34.2922
Au 19.5587 3.95057 12.2573
Au 22.9404 10.542 9.77374
Au 30.5284 25.0544 10.8716
Pd 13.7894 27.8878 34.8896
Au 35.2302 25.2717 18.7101
Au 36.471 23.2462 17.3655
Au 20.1269 29.3582 17.5632
Pd 21.1224 17.9467 10.9344
Pd 12.5694 12.9131 12.054
Au 21.8035 12.5668 5.89603
Au 29.3486 25.2552 14.0849
Au 9.92991 14.4913 31.0546
Au 14.4387 26.7797 11.9728
Pd 26.8821 20.0422 21.4002
Au 6.83201 28.4037 28.8577
Pd 10.8575 29.3558 30.6031
Au 8.13222 26.4399 27.0982
Pd 23.1117 15.6817 4.65281
Au 21.9748 30.3406 15.4481
Au 35.1731 21.3239 15.551
Au 33.8975 16.1799 9.93944
Pd 6.96205 10.4876 24.3921
Au 29.2387 21.7684 14.6615
Au 18.0691 16.8 35.538
Au 4.56358 27.506 20.154
Au 30.9304 11.0685 9.11284
Pd 27.4147 19.1543 14.5683
Au 6.75762 29.4552 20.0845
Pd 19.7695 11.0054 21.0311
Au 22.7887 33.1801 18.7671
Au 20.0163 24.3844 22.1365
Pd 28.668 18.2749 10.3298
Au 17.257 21.3619 30.8678
Pd 25.6803 28.8147 29.0488
Au 24.8019 24.7235 23.2994
Au 15.046 21.751 7.19498
Au 16.4942 29.4941 8.43235
Au 25.0156 35.7463 21.8461
Pd 17.6374 26.661 11.8006
Au 17.1947 18.5864 30.6035
Au 36.783 21.8059 21.3452
Au 19.3888 25.0928 24.787
Pd 27.5983 11.2197 10.0802
Au 17.0343 31.1645 29.8013
Au 22.1953 21.0081 30.5023
Au 18.4989 22.3281 23.3985
Au 3.54519 25.509 13.5997
Au 30.4256 13.6814 19.7919
Au 19.1578 14.9486 20.4721
Au 21.3628 34.4625 16.6017
Au 28.4955 9.5965 8.16882
Au 16.1068 23.7075 3.93354
Pd 25.4378 6.42995 23.9826
Au 34.3781 13.0416 16.5346
Pd 26.8833 9.60892 28.7668
Au 7.77113 28.3463 12.166
Au 29.5344 20.5701 26.6424
Au 4.46845 22.944 25.8715
Au 12.76 11.3714 4.84141
Au 16.0321 23.1585 13.8241
Au 16.3606 27.707 35.9863
Pd 36.7197 20.8918 18.86
Pd 23.2528 22.7229 10.4053
Au 16.1169 18.5401 10.3276
Au 15.3325 31.6854 17.854
Au 8.07154 24.3244 14.935
Au 12.6894 34.2999 21.6431
Au 21.0694 15.962 35.9074
Au 24.1569 28.3369 16.6491
Au 31.9393 14.1846 9.65774
Au 28.0729 32.8584 24.1168
Au 6.56413 23.1293 5.33619
Pd 20.7004 31.6947 19.8975
Au 22.1067 11.2871 1.61993
Au 20.4348 18.2469 0.507799
Pd 6.07043 30.2866 12.3608
Au 22.2418 22.2221 28.0635
Pd 26.4741 30.8883 12.0441
Au 16.8738 16.8884 17.4721
Au 32.5021 15.9382 7.61248
Au 24.7164 14.8137 9.644
Au 14.7054 32.1015 12.7524
Au 7.92379 18.043 29.4015
Pd 5.54715 20.9319 18.0726
Pd 11.1515 9.41318 30.8717
Au 20.2175 3.77496 19.6075
Au 18.8082 5.52323 28.3663
Pd 33.0092 17.3207 14.09
Au 27.1337 24.9149 31.5628
Pd 30.5224 17.3847 12.3987
Pd 22.8474 6.26079 13.165
Au 22.7035 10.4276 4.2135
Pd 12.4557 7.67763 14.5743
Au 11.0314 10.6743 20.9671
Au 12.8572 25.1098 26.2084
Au 25.7125 31.4241 9.43646
Au 20.3548 9.63009 2.62195
Au 15.395 20.6276 37.6649
Au 16.7667 29.5246 16.6872
Au 13.3856 15.7406 13.6086
Pd 29.9742 20.1635 20.9937
Au 11.6596 27.6166 18.9138
Au 9.65856 25.8536 19.1263
Au 7.14683 15.8841 20.0808
Au 27.1241 28.632 16.7934
Au 18.4162 6.21273 8.0069
Au 28.9397 23.2212 12.2046
Au 29.7706 24.7582 18.7927
Pd 27.6765 7.08343 8.58551
Au 20.8787 13.5057 32.3242
Au 27.1241 12.2842 15.2282
Au 14.9658 11.5579 12.7027
Pd 26.3113 16.7641 10.5662
Au 18.5283 31.791 21.6192
Au 21.5743 7.83637 4.13331
Au 20.411 22.0551 5.76065
Au 28.0805 8.69009 26.4875
Au 26.3214 15.2927 33.468
Au 18.3574 3.53374 21.5785
Au 21.6159 15.0977 30.2927
Au 8.80928 6.17676 26.3503
Au 9.13633 11.0183 8.73974
Pd 8.60851 31.379 11.949
Au 30.0676 12.627 14.6463
Au 14.1638 7.27902 24.1863
Au 9.44318 25.3062 36.091
Pd 22.7587 9.08741 27.9496
Pd 30.1542 15.9884 23.9646
Pd 12.452 14.6231 8.98023
Au 9.19917 28.0759 20.8439
Au 23.6023 14.7178 21.8596
Pd 9.82449 13.7038 8.35324
Au 27.8036 25.7805 11.7599
Au 30.0328 14.0478 30.4329
Au 28.8348 12.8137 17.3497
Pd 12.4925 31.3893 17.0291
Au 18.5333 16.7133 38.1529
Au 11.1428 20.4632 31.921
Au 30.1979 15.2851 17.4191
Au 28.1833 15.4299 19.258
Au 8.41964 24.8451 31.7606
Au 28.8369 26.443 16.689
Au 24.6316 12.4378 20.3208
Au 18.6236 34.5812 15.8842
Au 21.768 20.0457 33.1299
Au 21.0932 16.1277 38.5564
Au 27.3889 24.5574 28.6791
Au 31.4607 10.4098 13.5471
Au 28.9113 28.9003 14.6223
Au 7.10171 26.25 16.6993
Pd 20.9218 28.994 9.77884
Au 13.8036 12.1329 24.55
Pd 35.671 13.9274 20.6526
Au 21.9961 27.5704 18.4962
Au 36.6764 14.4102 15.9623
Au 25.5438 33.3122 17.9623
Au 23.5899 28.6923 5.31977
Pd 12.5141 24.966 19.0418
Au 6.15088 18.5228 31.9053
Au 2.08448 17.4923 20.1482
Pd 9.97012 29.3835 13.4252
Au 32.1031 23.8224 23.2784
Au 30.4323 20.0542 6.03015
Au 4.7657 18.3157 8.95987
Au 33.5348 9.58767 21.9098
Au 31.1749 26.6961 25.8617
Au 33.7392 27.4428 14.4001
Au 19.9646 15.176 17.6481
Au 14.2284 7.71199 7.37558
Au 33.8731 17.9798 18.3881
Pd 5.172 21.5126 12.1494
Pd 19.2806 27.0849 13.9321
Au 9.38471 23.7067 17.2931
Au 10.7556 20.9415 20.9432
Pd 19.6214 13.0678 11.0576
Au 29.4928 6.22224 11.1175
Au 12.6245 18.6703 22.9147
Au 18.1588 29.0518 31.3875
Au 17.328 27.0056 16.0493
Au 22.2285 4.04141 11.8329
Pd 16.0171 31.5231 20.5879
Au 9.74613 22.5917 7.90193
Au 27.0677 7.76928 21.8949
Au 21.2415 29.2481 12.7609
Pd 18.6502 6.00636 22.5233
Au 16.8621 12.873 11.0605
Pd 16.2472 24.3327 6.71688
Pd 20.9365 10.9044 8.03263
Au 12.1766 23.5087 16.822
Au 3.54288 21.4789 9.76316
Au 20.6993 13.5488 8.57265
Pd 12.5643 22.7468 7.91904
Au 2.67824 13.6797 19.3443
Au 17.6307 12.866 4.39877
Au 28.3545 10.543 24.0554
Pd 25.5776 27.9722 18.9596
Pd 18.9152 12.3585 6.77037
Au 4.81366 13.7691 17.6178
Pd 11.8766 16.1855 22.0991
Au 25.1933 12.4579 12.9582
Pd 11.1452 28.6057 16.4238
Au 29.492 10.7116 28.5195
Au 16.7634 28.6127 13.7811
Au 21.9919 11.2033 25.9397
Pd 25.7944 34.2923 24.1064
Au 12.789 10.4846 14.1214
Pd 19.9783 19.1864 21.8804
Au 10.246 21.333 11.4163
Pd 13.0044 23.131 21.2986
Au 21.3865 13.6011 37.5729
Au 15.1432 8.81287 27.8788
Au 11.1307 27.5101 8.72463
Au 28.0039 16.4205 35.3355
Au 27.4218 16.6467 8.06036
Au 9.80713 26.6458 10.9895
Au 26.5413 21.2978 35.1841
Au 20.1957 12.663 29.8255
Au 23.0839 6.36297 28.0401
Au 26.7552 21.5348 15.9251
Au 33.5524 20.5684 13.3541
Au 9.94381 18.5176 10.9421
Pd 15.247 8.06583 15.6092
Au 26.004 19.9666 4.35282
Au 11.627 8.13038 11.9969
Pd 7.66997 24.0485 19.7436
Pd 17.4573 12.6556 20.5532