1687
Atoms. Timestep: 21369
Au 11.6489 19.2691 13.0893
Au 11.4348 21.8004 13.8437
Au 9.48451 14.2601 25.3633
Au 30.1814 11.5529 17.2751
Au 12.4514 15.1349 33.6299
Au 5.33904 12.829 27.7402
Au 14.1866 10.1887 30.8442
Pd 20.8203 8.27232 28.7444
Au 25.4955 6.5541 31.1684
Au 27.8958 32.8256 24.6771
Pd 21.8468 27.1191 24.2074
Au 8.80493 21.2238 18.1208
Au 26.0601 17.4407 21.9171
Pd 12.122 32.8475 18.9034
Au 9.69181 8.57918 10.2894
Au 10.8946 22.19 16.6289
Au 15.8275 7.74343 29.741
Pd 17.6433 9.87597 16.4948
Pd 15.9521 19.0799 12.1801
Pd 9.17549 10.2378 8.20389
Pd 15.4013 15.1473 23.8167
Pd 11.5978 21.0508 11.1154
Au 13.1206 12.7275 12.968
Pd 11.7591 25.901 18.9716
Au 21.6957 34.5599 9.96934
Au 27.1208 35.2607 25.7539
Au 10.1692 24.3187 6.98659
Au 21.6747 7.03814 19.0839
Au 8.12288 7.76187 17.0132
Au 9.95576 27.4994 29.0278
Au 4.51145 10.4667 15.0702
Pd 18.6271 30.7879 12.5732
Au 28.7078 10.2259 24.8159
Au 5.22908 12.9918 20.6892
Au 6.22382 16.9435 10.1792
Au 19.4714 14.2372 3.18178
Au 4.01497 12.2553 13.1287
Au 30.5556 28.8761 18.9782
Au 22.2854 21.4829 3.80386
Au 17.387 23.2515 33.149
Au 21.239 6.43603 25.8319
Au 21.319 17.9706 26.9901
Au 12.4196 17.2115 9.68733
Au 11.8829 17.7358 33.9155
Au 29.2647 4.84311 20.0081
Au 11.4997 9.82377 30.8292
Au 28.7208 3.34752 25.5981
Au 27.1769 7.30641 26.7631
Au 20.042 16.1265 33.6571
Au 7.1071 27.1176 19.1888
Au 19.1737 32.3896 28.6694
Au 6.97019 19.6119 13.7789
Pd 12.2774 25.3347 8.71683
Au 6.88123 19.3658 8.81126
Au 9.63734 12.5704 9.46791
Au 22.5764 24.4594 19.9186
Au 14.9141 14.1652 17.769
Au 19.8266 20.2626 19.4448
Au 17.7246 35.2728 13.7721
Au 10.1641 10.9598 11.774
Au 26.8079 14.6813 25.829
Au 11.7338 12.9108 7.81756
Au 16.9443 17.5621 5.59117
Au 31.1875 22.8449 8.68822
Au 18.8941 17.4353 7.82239
Au 8.2533 8.86553 12.5808
Pd 24.5465 12.0621 6.85917
Au 13.881 19.5561 10.1574
Pd 11.7383 30.1611 14.8732
Au 2.14572 26.0081 17.0455
Pd 6.65273 27.403 11.2297
Au 6.07634 24.4797 28.7032
Pd 2.10632 14.682 15.9236
Au 20.4769 26.4679 16.0715
Au 14.1165 13.1177 25.1571
Au 9.7788 18.1566 19.9554
Au 16.6746 27.7505 26.3826
Au 5.24041 22.0564 29.712
Au 15.5344 4.41486 26.0327
Au 8.0175 18.6005 32.9315
Au 27.0203 19.205 19.5733
Au 8.73456 6.92935 14.4745
Au 19.69 20.3926 3.64868
Au 28.973 31.2215 12.738
Au 20.3004 34.0126 16.7429
Au 5.90552 24.8986 17.7128
Au 7.74595 8.6066 28.4234
Au 9.57407 31.4991 16.1368
Au 30.3863 21.0945 29.4543
Pd 32.7276 21.4304 12.6896
Au 16.774 4.73507 19.0445
Au 11.0943 18.3716 26.4778
Au 12.4466 37.3024 21.0937
Au 4.4614 21.0121 15.8545
Au 13.9376 29.5364 24.9707
Au 24.4878 27.0617 33.428
Au 3.88432 23.5924 26.8397
Au 11.3509 31.0615 23.168
Pd 19.0489 15.889 20.1925
Au 11.8482 14.8429 29.1431
Au 14.7817 6.05973 14.707
Au 23.2529 19.536 25.4057
Au 31.886 27.8529 11.256
Pd 11.5504 11.1146 14.317
Au 9.78299 16.3969 32.665
Au 35.617 18.6838 29.3795
Au 6.8329 12.1208 22.8984
Au 20.5352 36.4834 18.1941
Au 6.13874 23.7833 22.0569
Au 24.0018 6.79463 7.08979
Au 13.3377 29.3359 22.1283
Pd 6.40718 9.36371 22.2464
Au 20.8562 11.741 3.71651
Au 14.5385 30.9759 15.1405
Pd 19.6717 2.34905 22.1476
Au 15.7378 23.3929 35.3416
Pd 29.3492 11.3539 14.4431
Au 19.4422 28.0237 4.99714
Pd 7.39848 24.6029 6.85665
Au 36.3139 21.4554 26.1389
Au 23.0647 14.0838 5.76071
Au 26.0953 1.65741 19.7842
Pd 23.7623 28.3715 28.1178
Au 16.9949 21.4027 31.0803
Au 21.9122 26.6454 5.25035
Au 11.3068 35.4697 19.3105
Au 16.4759 32.1907 28.0231
Au 33.1777 8.08505 19.9165
Au 10.8219 27.8481 9.27664
Au 10.5976 14.4562 17.3199
Au 37.6432 17.0556 25.3588
Au 10.3927 18.4241 10.8357
Au 18.9673 35.9562 25.3953
Au 28.1106 10.6313 9.97617
Au 9.37017 27.9784 11.7102
Au 27.5466 17.2582 10.8573
Au 18.6158 27.5712 31.448
Au 24.2783 26.1844 4.13551
Au 1.88459 20.7462 23.7228
Au 21.5244 6.49174 9.2708
Pd 5.46016 15.6233 21.7295
Au 7.71467 10.5793 10.4917
Au 30.7922 18.2931 6.41616
Pd 27.0492 15.8847 29.7539
Pd 16.846 13.8845 6.03195
Au 18.2235 15.4278 10.4477
Au 29.743 34.7237 24.9335
Pd 24.8676 15.1763 20.76
Au 37.3434 18.0155 20.0437
Pd 7.03077 11.4817 15.6845
Au 17.4363 31.7973 30.6619
Pd 25.6888 22.3149 6.89905
Au 3.35081 13.89 25.9468
Au 2.40489 22.4711 13.129
Au 2.91251 21.2138 18.4172
Pd 19.237 14.4789 8.02853
Pd 15.8812 33.0387 25.3186
Au 10.3276 8.71907 18.4539
Au 17.7846 34.2355 23.7239
Au 17.7817 28.4325 7.4628
Au 20.0817 23.8907 15.3181
Au 21.7374 29.3664 5.28845
Au 24.501 4.15744 12.3223
Pd 14.7472 12.8142 15.3246
Pd 25.4993 6.01444 22.8657
Pd 7.21853 24.6383 26.249
Au 21.1966 18.4099 2.649
Au 28.8506 21.1675 31.9237
Au 4.43596 28.7195 15.5801
Au 9.05859 6.45533 19.4107
Au 5.45431 12.1909 10.6853
Au 7.39727 11.1661 20.3924
Au 6.71243 27.3274 16.4983
Au 4.46986 25.9575 15.4611
Pd 27.9657 19.258 22.1145
Au 2.47494 17.1566 14.5052
Au 1.44711 12.9083 17.855
Pd 6.07061 21.9806 18.0477
Au 13.1728 27.6011 7.35864
Au 31.1402 13.574 27.2157
Au 35.5169 23.9085 25.1194
Au 2.73901 19.7293 13.5326
Au 21.2341 25.3735 34.8526
Au 7.88882 14.0439 27.8385
Pd 23.6713 18.0364 23.1075
Au 11.0953 29.1729 31.1248
Au 23.2555 1.70115 19.1324
Au 20.2923 19.9031 22.3702
Au 20.6195 18.7505 9.99888
Au 21.9803 1.22325 21.534
Au 9.07308 8.9994 21.0626
Au 11.2602 27.6564 13.834
Au 27.624 19.3199 13.1182
Pd 5.30512 18.3724 21.1695
Au 11.5389 12.9929 5.1
Au 2.93159 14.4768 21.1446
Au 13.0119 15.4964 16.5627
Au 11.2387 16.3104 12.7421
Au 20.5772 3.72394 26.4266
Au 2.24593 12.0276 15.3578
Au 12.9379 12.7031 10.2223
Au 19.3527 16.4145 25.9302
Au 20.5632 26.6005 12.995
Au 24.732 22.5292 26.4575
Au 16.6663 26.7037 9.43198
Au 23.3067 13.5296 32.1956
Au 33.6303 21.0549 8.76823
Au 20.7753 29.9214 18.5935
Au 21.2927 12.0112 25.2909
Pd 6.78662 19.7158 16.5782
Pd 8.84236 16.0907 11.3337
Au 7.9488 14.1371 16.163
Au 17.4779 3.88868 12.1497
Au 11.7133 16.4115 21.531
Au 12.779 25.3708 27.3097
Pd 11.2244 23.0515 27.1933
Au 15.6869 18.1008 19.7006
Au 21.1741 17.6917 24.2534
Au 9.5796 23.3445 11.6454
Pd 23.6868 22.5466 11.3379
Au 13.0938 8.86304 19.1821
Pd 26.9832 31.375 22.5489
Au 4.31139 16.4545 19.511
Pd 9.62914 32.592 25.0465
Au 7.0929 29.0286 23.1622
Pd 19.4432 30.7903 10.0096
Au 30.5854 12.0396 20.0586
Au 9.23407 20.6455 9.63607
Pd 9.25443 8.90762 26.1189
Au 8.35852 23.1023 8.85155
Au 25.7609 14.4808 6.57598
Au 23.6676 13.6516 24.917
Au 16.6914 8.75037 21.2473
Au 27.3037 19.8273 9.64645
Au 8.23863 5.55302 24.8779
Au 27.6282 3.59998 28.0887
Au 13.3645 35.0508 17.4808
Au 9.81672 12.2782 20.9726
Au 14.5062 10.4871 21.022
Au 18.399 22.9943 19.1209
Pd 18.0174 12.7046 9.75569
Au 20.4185 17.3445 16.4037
Au 18.1019 21.1124 24.8766
Au 13.1584 5.84082 26.1815
Au 11.5032 25.0398 33.8923
Au 22.7539 29.0621 33.2765
Au 9.5738 12.7488 29.5602
Au 11.827 30.0087 28.6642
Au 15.4093 24.5517 16.2378
Au 16.3145 20.7493 10.0175
Au 13.1586 23.4591 14.9673
Pd 34.2107 21.2667 14.8873
Pd 25.2705 25.3806 15.9918
Au 6.16267 16.5667 7.54548
Pd 22.3189 4.33059 18.4836
Au 5.96111 32.603 15.0509
Au 34.4676 23.2314 27.5534
Au 14.7272 32.7934 11.059
Pd 8.65003 21.3786 26.3679
Au 23.6699 27.0732 22.4209
Au 9.7278 5.49512 16.8502
Au 13.3281 14.8817 3.92589
Au 12.4192 12.7888 21.7235
Pd 18.4277 13.2512 19.6626
Au 11.3035 7.41071 20.7991
Pd 30.4079 10.6333 22.5858
Au 21.8062 8.4613 7.21891
Au 10.6921 13.7143 11.9419
Au 24.5222 30.51 9.73021
Au 19.5877 20.3708 30.6369
Pd 16.8037 16.7406 30.5583
Pd 23.7869 8.16983 9.26249
Au 3.09731 24.9343 22.1835
Pd 16.4755 28.8414 14.4002
Au 24.395 19.4738 18.497
Pd 14.4114 31.6005 8.51851
Pd 20.5066 33.5904 24.5639
Pd 17.3464 23.9219 14.3263
Au 4.66384 27.1154 22.9275
Pd 8.08824 19.223 21.7628
Au 9.02592 25.8277 9.04173
Pd 15.6672 16.7674 17.2103
Au 5.10936 19.4119 11.0381
Au 19.6815 18.1272 5.11652
Au 4.2344 17.2994 12.4017
Au 24.4097 32.7801 29.0799
Pd 21.3768 9.2327 9.88037
Au 7.08947 6.8317 21.3721
Au 24.2555 28.345 5.7325
Au 5.30574 17.4264 30.2798
Au 20.3026 29.5759 7.61286
Au 22.6266 13.3927 13.4738
Pd 7.36055 16.7934 20.2251
Au 26.227 7.02168 8.85719
Au 16.6839 15.7858 8.03375
Au 23.6668 16.1638 13.0558
Au 14.3008 26.4076 18.093
Pd 19.3687 28.2922 20.2573
Pd 21.5772 26.7218 10.3292
Pd 20.0745 15.4941 28.4091
Pd 22.8764 34.6351 23.5051
Pd 25.2512 29.6172 32.3184
Au 15.6357 25.4179 27.5248
Au 12.5305 22.7627 7.16542
Au 2.73918 19.2589 25.935
Au 18.0176 6.95192 19.7996
Au 10.0175 21.6453 6.89401
Au 21.4754 21.3724 9.074
Au 16.4435 37.7647 20.8514
Au 10.4596 31.8337 30.4216
Pd 26.8946 5.86494 18.4323
Au 27.9587 10.0479 16.429
Au 27.7426 3.17496 18.3405
Au 18.5395 11.9114 35.6711
Au 9.42737 28.3013 4.82497
Au 13.8967 27.6855 4.67991
Au 14.2836 29.9315 6.23159
Au 24.1574 2.96882 21.3609
Pd 13.4205 27.5015 10.0288
Au 3.36577 30.3013 21.4194
Au 17.215 25.2352 30.994
Au 10.6452 22.4975 34.1463
Au 5.13857 17.8004 26.2028
Au 20.7711 11.1965 28.0492
Au 15.2791 31.3689 32.2002
Au 22.8648 22.2266 35.0753
Au 14.9024 15.9067 5.89114
Au 31.4841 12.8346 31.1871
Au 31.7505 22.7024 23.681
Au 24.844 8.70956 22.534
Au 16.7733 27.8868 19.1662
Pd 33.3285 16.3717 9.19282
Au 16.5757 28.6947 5.07498
Au 4.58506 23.2822 11.3422
Pd 35.3902 20.2789 23.6195
Pd 16.8542 23.0927 26.5269
Au 12.1007 19.959 5.97793
Au 35.0581 15.3839 16.1678
Au 16.549 12.1023 17.6021
Au 22.3507 3.47048 14.1008
Au 15.0589 14.3995 34.0892
Au 10.346 35.8078 21.9739
Au 14.4242 6.4492 9.79516
Au 11.3479 17.1461 18.0457
Pd 17.9085 17.3117 15.5089
Au 13.6471 17.6919 12.271
Au 18.2786 2.79046 17.4763
Au 1.55591 13.6954 13.3858
Au 26.3234 25.0249 33.1819
Au 28.8482 27.409 29.9694
Au 25.1128 36.0684 22.6337
Au 25.6463 11.6453 18.0013
Au 16.6917 23.5117 10.0268
Au 15.4401 3.43943 21.21
Au 19.5726 8.85324 21.1512
Au 4.65618 13.102 15.8927
Au 15.8325 12.8012 8.23827
Au 20.0774 3.24807 12.676
Au 7.51656 32.7454 20.2406
Pd 21.2485 8.31747 14.4207
Au 18.4674 16.7729 35.9721
Pd 20.4107 25.3574 27.717
Au 22.0629 11.1595 31.7284
Au 27.954 2.74008 15.6131
Pd 12.7256 17.4315 5.1104
Au 6.75757 16.7523 13.0876
Au 10.7275 33.0715 14.1561
Au 29.3034 21.38 23.0554
Pd 28.7064 14.9259 27.8606
Au 34.5345 16.5677 11.5718
Au 4.31083 27.7724 12.8785
Au 16.9043 6.41325 11.1987
Pd 6.85444 22.1345 15.4216
Au 13.5805 10.8571 5.21417
Au 12.2029 7.71554 10.742
Au 12.5057 8.34978 8.07312
Pd 11.4141 19.5171 15.798
Pd 14.3532 5.24813 23.6103
Au 22.2873 22.2472 25.2903
Au 12.4531 19.664 29.8067
Pd 31.6445 18.9349 12.6635
Au 11.2078 12.6902 27.2977
Pd 15.946 6.09507 21.6445
Au 29.8382 4.36863 22.7069
Pd 26.1887 20.4652 32.3457
Pd 18.1747 23.0241 5.33163
Pd 16.6496 30.805 7.14288
Au 1.19242 23.2379 17.8309
Au 19.4409 7.04405 7.46528
Au 13.6698 14.1788 31.4204
Au 26.0656 15.117 32.3315
Au 9.96108 15.9551 27.3786
Au 8.96713 12.2794 13.8302
Pd 25.3133 29.2224 22.8835
Au 18.9492 26.5072 35.5418
Pd 6.35336 26.3477 8.69244
Au 23.5026 11.7104 4.38179
Au 19.4285 33.0564 14.0961
Au 25.3818 9.36061 25.8683
Au 28.4609 17.9628 4.97032
Au 20.5066 7.63661 23.5841
Pd 25.6918 17.7913 25.3155
Au 34.753 21.3995 29.5018
Pd 0.857074 17.1302 16.7553
Pd 14.7283 33.5733 19.5179
Au 30.3124 17.8818 25.1788
Au 33.6539 17.1862 28.1258
Au 0.598357 20.1266 17.6598
Au 20.3924 10.2162 16.404
Au 7.97392 25.0733 23.6888
Au 12.6715 19.0936 24.3226
Au 24.4975 35.7244 25.3686
Au 20.1644 11.4991 21.2004
Au 19.1104 29.7429 29.6806
Au 20.1276 18.7415 34.3798
Au 18.675 19.8769 11.8372
Au 4.1465 28.2474 25.5624
Au 19.0494 24.3145 21.482
Au 25.3527 18.5221 14.7117
Au 17.7023 18.0745 10.1623
Pd 22.6361 23.9359 27.3158
Pd 15.9882 6.99521 24.7379
Au 30.4865 28.7786 21.8471
Au 29.9281 28.0057 13.4184
Au 9.08051 15.6121 29.9991
Au 10.5116 15.6837 4.61635
Pd 1.8247 21.6056 15.6792
Au 14.231 21.6941 31.5225
Pd 4.89761 26.0292 26.8362
Au 16.4726 29.9507 17.0768
Au 30.2869 22.9345 6.10848
Au 21.0337 26.2958 21.3307
Au 32.7576 27.2934 25.6768
Au 9.16931 26.092 17.9583
Au 4.5966 19.1359 18.3439
Au 30.6354 23.3129 31.8343
Au 28.6298 28.1057 17.1465
Au 20.9899 10.2295 12.5001
Au 27.4328 13.0855 33.6258
Au 3.40126 29.5895 18.8047
Au 29.7358 8.08147 26.1872
Pd 13.5721 18.4858 17.2635
Pd 17.5196 14.1996 29.1021
Au 15.9044 30.8146 12.5495
Au 25.113 18.289 11.9457
Au 10.8416 19.0579 22.4114
Pd 13.3553 19.1698 32.277
Pd 9.02855 19.2757 7.1341
Pd 7.21194 19.3402 19.2422
Pd 21.9214 23.1834 13.384
Au 10.5555 20.5574 28.1689
Pd 18.5595 18.4074 20.9188
Au 17.5422 24.7949 7.62787
Au 17.7134 14.3705 24.9446
Pd 15.6583 13.4709 12.8788
Au 9.37425 5.94249 22.2664
Au 27.3988 15.271 4.53631
Au 7.07777 22.9829 12.9083
Au 13.8087 28.8592 13.5644
Pd 11.4444 20.1394 18.4179
Au 11.4615 26.6497 4.16831
Au 19.6378 17.8531 29.4053
Au 29.8864 14.2354 33.0009
Au 20.339 35.757 22.9782
Au 9.90636 30.362 9.92987
Au 16.4121 15.0128 15.108
Au 9.72815 29.4377 7.31054
Au 31.7055 16.6686 11.3467
Pd 18.0787 11.5347 28.7704
Au 16.6985 6.66682 27.3222
Au 21.5512 28.9444 16.0579
Pd 17.9434 13.5893 33.6543
Au 23.0605 25.7946 17.3891
Pd 16.9327 32.5265 18.2725
Pd 17.3441 5.81394 13.9752
Pd 16.4011 24.9693 19.186
Au 22.0664 15.4837 15.2962
Pd 20.9919 24.7019 25.1429
Pd 12.9596 10.2967 28.3109
Au 12.3023 36.5148 23.5827
Au 26.4078 33.8667 21.3829
Au 15.4994 27.2556 29.6869
Au 12.1887 31.8029 10.4453
Au 19.3072 28.034 9.79467
Au 22.0299 5.69003 28.2759
Au 25.2725 29.18 13.4874
Au 26.5634 21.9215 22.0035
Pd 16.828 25.5866 34.2938
Pd 11.6809 10.2175 25.7297
Au 21.1348 12.699 19.0358
Au 32.558 24.1983 21.5142
Au 24.6203 22.7876 23.7517
Pd 21.1287 30.8958 14.1841
Au 32.9327 11.847 26.1096
Au 10.1937 7.84348 29.552
Au 16.6596 16.9048 22.1611
Au 22.2892 18.6546 29.4972
Au 19.9384 3.8402 29.1507
Au 28.4612 30.7711 26.3954
Au 16.4342 18.9457 36.878
Au 12.5936 32.7441 28.9486
Au 9.91323 25.5546 26.8388
Au 12.7984 31.4818 31.3983
Pd 24.0051 28.031 11.1427
Au 10.4699 33.1327 20.9647
Pd 7.74531 17.3458 15.4789
Pd 13.0846 7.88155 29.6265
Au 10.6334 21.2482 4.0804
Au 6.79924 21.6007 10.6257
Au 6.96579 30.179 15.6736
Au 5.18014 14.2051 8.82411
Au 26.0373 26.9944 26.4572
Au 3.48266 11.1088 17.6177
Au 17.2683 14.3581 36.069
Au 11.6525 24.359 21.495
Au 14.0638 13.2579 6.23564
Au 4.52635 31.1532 16.7615
Au 14.6543 7.75062 12.2475
Au 18.4649 36.284 16.291
Pd 28.7162 18.2175 17.7097
Au 21.7264 20.5549 33.2541
Au 19.7905 11.2975 33.3932
Au 23.1055 17.1958 10.3357
Au 23.9438 20.5745 16.0477
Au 21.3446 16.3614 7.08038
Au 4.27567 11.0922 22.4961
Au 23.7403 19.2581 31.9229
Pd 17.0765 29.5602 10.2675
Au 21.9847 13.8151 8.27109
Au 20.3622 30.7716 24.3447
Au 5.69546 15.1272 25.9687
Au 2.65891 16.4662 26.1436
Au 33.0576 27.212 18.5018
Au 11.5942 10.4 9.48717
Au 22.3023 18.8599 5.04819
Au 14.3989 20.7879 7.48285
Au 18.8075 20.9598 33.2769
Au 32.181 16.0593 6.77562
Au 16.3374 19.7017 21.7731
Pd 31.2541 18.2624 9.11189
Au 8.53541 33.7716 22.7455
Au 1.70586 15.5126 18.8045
Au 5.51635 30.2653 13.4816
Au 12.3145 14.9323 26.2684
Pd 29.0477 14.3143 19.9011
Au 22.6357 36.6601 21.7019
Au 27.7772 22.9685 17.817
Pd 15.0049 33.1863 16.5204
Au 8.37028 23.6482 17.1651
Au 4.56698 23.4467 14.4439
Pd 18.1893 27.9951 12.2707
Au 29.4646 11.0949 7.5327
Au 22.7879 15.4719 22.7299
Au 9.48029 33.6416 18.1605
Au 23.3344 30.329 7.32344
Au 22.4598 15.0122 34.541
Au 15.5415 27.8198 11.7243
Au 16.8111 22.0837 7.6082
Au 28.8333 25.4311 31.9276
Pd 6.0037 12.0635 18.1427
Au 25.9147 12.0261 25.8913
Au 30.1934 8.73747 17.4801
Pd 26.3284 22.9553 28.6121
Pd 32.3044 11.9124 28.8386
Au 31.1071 6.56777 15.8901
Pd 15.6806 21.1338 33.6963
Au 23.3682 4.70188 30.3994
Pd 24.3805 0.211691 21.1192
Pd 6.91995 12.1951 30.021
Pd 16.5956 9.35564 26.0489
Pd 22.7953 6.08837 13.8967
Au 27.4464 15.271 8.67121
Au 8.80322 21.1875 32.2325
Au 30.3563 35.4295 22.4073
Pd 6.26142 17.2713 17.6874
Au 10.63 4.43678 26.4451
Au 26.1508 31.1701 11.7686
Pd 29.2031 15.2008 11.1413
Au 15.7154 16.5296 35.7102
Pd 16.3831 18.92 7.89077
Au 32.5277 23.0522 29.816
Au 5.69859 25.4681 12.9269
Au 21.8289 18.2854 12.4617
Au 26.8564 12.3617 8.26921
Au 26.2172 8.61859 11.2685
Au 11.0831 21.0055 25.3697
Au 27.5086 8.35566 31.1428
Au 27.158 4.02758 13.2916
Au 24.9295 5.79124 28.2159
Pd 14.985 12.6152 22.6784
Au 30.2505 14.907 30.0385
Pd 20.7235 19.3939 7.28006
Au 27.6258 28.7206 12.402
Au 17.2444 10.5849 33.5791
Au 17.21 19.0583 29.3269
Pd 16.8911 4.41744 23.6099
Au 32.7886 27.9963 23.0381
Au 29.3315 20.8499 17.7216
Au 22.0523 4.78564 11.5093
Pd 23.8946 16.7002 5.57756
Au 31.3509 19.143 17.5895
Au 5.71849 9.47274 17.2742
Au 23.2808 1.90389 26.0299
Au 20.0012 4.76311 23.526
Au 27.819 27.1017 8.49453
Au 6.66781 8.80222 14.8267
Au 21.9611 23.8665 31.3318
Au 16.148 11.0814 5.99257
Au 0.642208 18.1782 12.722
Au 29.1207 27.5319 6.35621
Au 25.9998 21.2684 14.3302
Au 7.04616 32.2539 17.5469
Pd 13.8443 23.1521 22.5236
Au 28.1325 6.39243 21.9882
Au 36.4718 21.0714 13.4424
Au 28.0009 25.6379 12.8844
Au 25.3635 15.5307 10.7895
Au 6.97485 8.53291 19.4106
Au 16.7125 11.7677 24.4639
Au 31.3259 31.5521 18.9323
Au 20.195 13.1366 29.8318
Au 26.4307 4.44775 20.7451
Au 27.2184 24.2731 23.2673
Pd 6.91692 22.6195 24.5473
Pd 18.7216 20.3663 8.8072
Pd 7.78529 18.795 11.3208
Pd 10.9191 25.7787 11.0895
Au 9.21361 30.0272 24.5491
Au 35.7465 16.5797 13.874
Au 12.4738 13.8915 19.2591
Au 13.827 12.9922 27.8658
Au 28.3213 8.72932 8.00601
Au 23.6955 23.0406 8.61932
Au 30.5518 12.2692 24.7701
Pd 24.4549 13.677 27.469
Pd 8.23226 13.779 31.7589
Au 9.50251 24.0654 32.2415
Au 22.5226 35.6943 16.4239
Au 26.2736 22.5669 9.67285
Au 2.81454 17.1557 21.6419
Pd 29.829 23.6149 14.0035
Pd 21.1358 10.1977 23.3218
Pd 9.12504 20.8353 12.4987
Au 15.5377 35.6121 15.374
Au 14.7903 17.3423 3.30495
Au 11.7216 5.72322 28.558
Au 16.7448 35.1039 20.8753
Au 29.9163 13.9985 22.6087
Pd 12.1881 23.8055 31.6625
Au 16.5756 29.2848 31.2841
Au 15.8544 26.3165 3.6204
Au 33.0496 8.99434 11.5691
Au 22.6559 28.2141 13.5636
Au 30.6314 27.7452 8.68171
Pd 16.4387 30.4402 25.7533
Au 8.63202 23.4626 28.1751
Au 33.2791 12.7773 19.6783
Au 12.3604 32.4249 16.2589
Au 14.586 16.6528 32.6104
Pd 17.5039 16.5742 27.918
Au 1.89172 24.3044 15.0887
Pd 22.6524 33.7532 18.3495
Au 18.1156 12.2173 4.32048
Au 1.94138 22.6026 20.5304
Au 14.5881 18.6622 34.6655
Au 23.8892 23.0564 29.6026
Au 5.90716 19.4249 28.3694
Au 28.9962 29.8015 8.12646
Au 33.3345 23.1595 10.5534
Au 30.8 7.48461 12.2291
Au 17.6227 33.7996 16.0472
Au 4.31667 27.206 18.1226
Au 27.6632 22.7045 12.5684
Au 24.5883 23.522 13.9467
Pd 11.2438 14.0842 14.6101
Au 8.0384 18.2658 30.1923
Au 28.4745 21.6377 15.2814
Au 13.6819 16.3658 19.1748
Au 23.3826 16.8347 2.81446
Au 14.9892 20.5808 29.0943
Au 32.6456 8.03755 14.172
Au 9.69606 28.3936 22.2644
Au 34.5663 19.6937 31.6386
Au 6.89262 27.8646 13.8607
Au 29.4186 30.013 28.8324
Au 6.36722 18.9525 6.26472
Au 19.0827 16.1915 23.1154
Au 10.8732 16.6444 24.3917
Pd 21.8016 19.5837 17.4607
Au 10.462 4.8999 14.2558
Pd 10.6605 25.7616 23.5493
Au 27.7796 20.8824 34.4741
Au 32.6359 19.4804 24.9362
Au 16.6456 26.1645 24.1823
Au 27.6158 10.8063 30.0782
Au 19.3292 26.1243 23.5846
Au 13.0723 23.7468 17.8046
Au 23.3439 28.9447 18.0671
Au 17.8177 3.7025 27.4503
Pd 7.69925 14.1244 21.0508
Au 12.451 6.3425 13.1628
Au 4.4766 25.8589 10.5326
Au 13.2641 2.90089 19.6576
Au 4.46945 23.3881 19.7728
Au 19.9441 18.999 14.2404
Au 18.6275 18.2021 32.0219
Au 18.1846 20.1633 6.09155
Au 23.7877 12.7914 19.9636
Au 20.7257 15.9945 9.80129
Pd 25.3643 22.7348 16.6624
Au 3.93987 19.7681 30.3078
Au 23.7373 34.1927 20.9359
Pd 19.0501 7.75516 9.97716
Au 24.886 21.7768 4.39788
Au 1.78644 21.7873 26.2495
Au 6.43808 13.6095 13.8323
Au 7.98913 20.9451 29.2285
Au 25.6927 22.5939 34.2401
Au 10.114 21.0143 20.6447
Pd 12 27.1397 21.3766
Pd 28.8966 19.6196 27.4305
Pd 18.0645 28.8177 24.334
Au 22.4333 3.02371 28.4205
Pd 14.4173 8.09271 27.2342
Au 12.7374 3.50625 25.0362
Pd 12.268 12.2436 30.0095
Au 20.1292 32.5036 19.1127
Pd 27.1087 8.01277 24.0776
Pd 18.8547 25.9221 19.2937
Au 18.5367 17.2433 12.7519
Au 10.2462 28.2488 19.4452
Au 12.6001 22.1384 20.0882
Au 31.255 25.7124 23.6706
Au 4.98767 31.6534 19.4283
Au 23.0425 30.998 31.3761
Au 7.79546 31.4961 26.7588
Au 28.8037 26.4735 22.4269
Au 20.2888 27.9575 33.7775
Au 16.7811 32.2612 20.9762
Au 6.16459 29.5534 18.2214
Au 23.2735 4.55975 26.1281
Au 34.7145 13.0897 24.3779
Au 24.7087 15.8805 15.5552
Au 10.9227 14.1497 31.6681
Au 19.7731 26.6008 7.39362
Au 24.8351 14.7844 3.7847
Pd 28.2795 11.9163 21.5898
Au 3.4085 18.0695 28.3277
Pd 20.6618 29.1706 12.0501
Au 20.4315 13.4992 5.7007
Au 2.88259 26.0956 24.8031
Au 8.35328 25.5263 29.9232
Pd 32.9547 16.7918 13.9664
Au 29.819 25.1975 8.00374
Au 12.6512 18.6622 20.2693
Pd 12.6253 27.4326 29.5434
Au 30.6206 26.0567 26.5333
Au 16.6852 7.49752 8.68534
Au 17.2169 20.3985 19.1138
Au 7.99262 27.2803 6.80346
Pd 25.731 24.3253 11.5994
Au 6.15569 20.7342 22.8098
Au 21.153 34.8686 20.3426
Au 13.8416 17.9556 7.54868
Pd 19.1976 31.2092 16.6704
Pd 20.8767 27.9375 28.5087
Pd 13.4925 24.9101 3.44466
Au 7.85668 29.4107 20.4254
Pd 26.2177 31.5284 19.9614
Pd 32.9982 11.8038 11.646
Au 11.6727 8.02619 27.264
Au 10.4636 26.4834 31.5486
Au 18.8248 30.4879 5.51883
Au 18.7643 16.8924 2.92892
Pd 14.9466 23.8957 12.9105
Au 12.6488 22.289 2.47229
Au 20.0168 23.0645 3.25319
Au 8.48429 18.7717 27.3751
Pd 26.1967 29.5988 27.2389
Pd 22.4573 10.7913 14.7716
Au 32.8986 29.7652 17.6892
Au 29.0126 32.7273 15.0761
Pd 27.0085 29.3328 9.8442
Pd 22.357 8.04315 21.5724
Au 9.24406 18.72 17.2549
Au 4.84295 10.2238 19.9285
Au 15.7755 23.2066 29.3967
Au 6.51255 10.9662 12.9921
Au 32.3154 21.559 27.4859
Au 25.8069 1.78588 17.0051
Au 9.02706 27.3679 25.0126
Au 22.9738 8.35874 24.4073
Au 25.7093 17.8411 33.2192
Au 10.9184 8.67226 13.1349
Pd 8.6581 16.1847 17.8874
Pd 18.6452 10.0757 13.9755
Au 14.296 14.9156 21.3238
Au 22.833 9.9605 29.3987
Au 19.7241 10.2341 30.5285
Au 25.8231 8.40238 28.8424
Au 10.9038 15.0765 9.59012
Au 24.4694 20.1277 34.4846
Au 10.9688 34.7572 16.2991
Au 15.9941 19.623 16.7952
Pd 6.05063 31.1437 21.7607
Au 28.6055 7.47729 10.3557
Pd 15.6521 10.1885 28.4551
Au 35.1257 24.4461 20.2264
Pd 18.386 9.64574 23.5799
Pd 21.7539 15.2973 30.6079
Au 15.9653 9.58567 18.699
Au 18.5525 10.5258 19.0782
Au 25.6081 17.7585 9.01202
Pd 17.6784 11.8705 12.2692
Au 17.3953 12.3546 14.952
Au 5.59153 23.6687 8.72175
Au 28.3241 31.7523 10.1294
Au 33.6238 18.8396 10.4401
Au 36.4118 18.6521 11.791
Au 28.0393 19.3762 24.8401
Au 18.1038 30.4247 19.2405
Au 36.4364 14.6536 22.6475
Au 7.71533 11.1965 27.756
Au 10.2857 10.2841 28.2679
Au 21.1828 28.7736 31.1538
Au 13.1049 10.6672 23.4326
Au 15.5008 12.4426 29.8914
Pd 1.88291 15.9669 11.9984
Pd 25.5621 12.3801 31.2876
Au 10.1466 22.4153 30.1751
Au 32.1186 15.4768 32.0376
Au 21.3684 8.36732 31.5619
Au 17.5032 8.68177 6.3932
Au 11.0211 11.4735 18.7288
Pd 13.9705 19.8225 14.5505
Au 23.786 10.9662 24.0926
Au 9.26025 12.3755 6.58406
Au 2.45859 18.4713 10.7447
Au 13.3763 8.8331 14.4024
Au 26.38 24.8211 8.07068
Au 22.7305 8.55855 16.7588
Au 26.7283 9.01896 14.0996
Au 26.2605 1.57121 22.5795
Pd 6.40241 26.8715 24.853
Au 11.9985 16.9286 2.70607
Pd 9.30427 18.1111 13.5049
Au 15.3138 29.9904 20.2795
Au 11.0686 8.74005 23.3162
Au 20.4101 24.4608 5.67612
Au 8.39675 33.8305 15.6205
Pd 21.415 7.43177 11.8658
Au 32.5233 14.67 15.652
Au 29.1793 5.04057 14.6894
Au 25.8528 10.561 20.6278
Pd 4.72377 29.9954 23.738
Au 18.0465 12.3363 31.3684
Au 30.6988 25.3539 29.9049
Au 33.9515 26.6589 21.0109
Au 26.9984 32.5037 17.0401
Au 22.751 20.7295 23.0223
Pd 30.458 16.9798 33.5926
Pd 22.8762 17.8641 34.2663
Au 27.3167 24.0818 15.0251
Au 24.0316 25.2072 24.8756
Au 24.938 20.4355 29.6865
Au 29.9614 33.4598 17.4829
Au 27.761 25.5367 17.4259
Au 7.09946 12.1787 8.38189
Pd 8.82631 15.1043 13.7944
Au 24.0771 6.84746 11.626
Pd 12.7427 14.9051 23.5433
Au 1.72858 17.8194 23.9278
Au 24.5748 32.9172 13.4395
Au 26.3128 29.705 16.6333
Au 22.3332 13.9225 3.09336
Au 26.1937 26.9731 20.8728
Au 4.27034 15.4855 28.213
Au 15.5976 24.1442 5.24989
Pd 19.231 12.4402 23.6218
Au 26.6276 24.3469 26.0593
Au 28.6458 17.7943 8.216
Au 27.5922 10.1659 27.3755
Au 29.435 17.1666 13.1488
Pd 12.3388 29.9213 8.44459
Pd 14.5823 34.0939 27.437
Au 4.99431 18.2494 15.0349
Pd 31.6591 17.1702 29.9978
Au 21.7911 9.56587 33.9373
Au 36.5573 20.7576 16.2203
Pd 10.3586 31.043 12.4913
Au 30.4767 10.2454 30.1088
Au 24.098 32.7976 8.19595
Au 9.85249 12.0422 16.3222
Au 8.76993 17.2131 8.82397
Au 30.9544 25.6786 12.7337
Au 9.13236 6.47351 27.4236
Pd 27.4478 28.8916 24.6991
Au 36.4554 15.8953 18.3929
Au 29.5747 23.7198 25.0952
Au 18.7166 5.39361 16.6208
Pd 15.5069 21.9771 14.9951
Au 34.0377 27.7923 16.1068
Au 24.3356 35.5427 14.4309
Au 13.2447 26.2631 12.5414
Pd 10.5581 17.8347 29.1803
Pd 26.0657 12.6081 4.6729
Au 30.6175 32.2208 25.7756
Au 14.9341 20.4851 2.70138
Au 13.4584 21.237 16.7585
Au 25.7627 27.2944 18.0404
Pd 25.2341 11.1352 28.6722
Au 14.8861 8.80566 6.97332
Pd 24.2395 28.5009 25.2417
Au 32.7216 27.5507 13.8117
Pd 29.5554 26.0564 15.2843
Au 25.8651 36.1919 19.9604
Au 33.0237 8.07809 17.0734
Au 20.2638 14.1788 21.7368
Pd 19.0973 33.6064 21.4989
Au 14.1131 22.8944 27.0869
Au 6.81411 7.65724 26.0748
Au 8.1093 31.9105 13.707
Au 12.0061 5.98261 22.9754
Pd 14.8393 5.01609 12.1632
Au 21.9101 31.6717 16.845
Pd 34.5914 22.9026 22.7563
Au 23.8662 31.0457 27.069
Au 22.0077 29.5009 9.81696
Pd 21.4841 21.0318 15.0485
Au 13.173 34.3423 14.6242
Pd 20.7138 23.1055 33.5147
Au 22.3542 27.6775 7.79556
Au 2.42308 25.133 19.4917
Au 16.8755 32.0848 9.53801
Au 24.7305 29.3805 20.3231
Pd 23.9596 8.51179 13.9846
Au 25.5135 20.058 23.8712
Au 12.6013 20.4544 34.6256
Au 22.0647 28.8906 20.8137
Pd 23.9043 22.1079 32.3293
Au 2.37528 23.4844 24.3825
Au 21.5955 32.077 8.93363
Au 28.6499 26.8377 19.7471
Au 28.5211 21.6402 20.2326
Au 25.3919 33.8665 18.7711
Au 17.1115 25.449 11.936
Au 23.82 30.7369 15.1698
Au 21.0384 15.9001 1.75856
Au 12.4967 5.3182 15.9278
Pd 11.0209 24.9003 29.3861
Au 10.0738 14.2717 22.7306
Pd 20.5562 20.1418 25.2228
Au 24.9435 30.2478 29.6599
Au 29.2144 5.57499 27.3025
Au 19.479 24.2214 12.5662
Au 18.2414 24.1646 28.7132
Au 19.2332 33.5331 9.81614
Au 19.2379 23.0959 31.1664
Pd 10.6718 26.8719 6.76965
Pd 13.4492 32.194 24.3349
Au 9.10402 18.8932 24.5683
Au 31.5721 20.7399 10.3834
Au 28.1635 6.82292 13.0318
Au 15.7248 22.2999 20.6329
Au 33.9263 14.5334 26.9322
Au 31.3456 21.5892 15.3879
Au 23.9053 9.05865 19.2984
Au 35.6399 22.8228 18.0841
Au 33.8887 10.4354 13.8427
Pd 8.87681 31.1918 22.0968
Au 17.8893 22.1607 16.386
Au 13.9806 24.6341 20.2304
Pd 20.691 24.482 18.0444
Au 17.7331 37.324 18.6105
Pd 29.7009 19.2408 15.1477
Au 25.1965 35.0023 11.9046
Au 19.4838 8.08914 17.9167
Au 13.2035 26.1952 15.4302
Au 21.838 2.85428 23.8946
Au 31.0588 29.6052 26.6253
Pd 28.7515 16.3466 31.7257
Pd 16.148 35.2988 17.9352
Au 12.4713 23.5898 11.7868
Au 15.3998 17.62 14.6375
Pd 30.8175 23.2833 11.5071
Au 25.8156 21.7666 19.2745
Pd 11.3793 30.446 20.5282
Pd 31.1299 27.7086 28.5151
Au 10.9564 4.54245 20.4257
Pd 20.2553 34.4389 27.2061
Au 18.4862 32.4713 25.9731
Au 25.7346 24.2717 5.10187
Au 28.8331 29.8906 15.1043
Au 20.3911 20.3393 27.9752
Au 33.7182 14.3312 13.0273
Au 30.767 33.8064 20.2681
Au 11.2258 23.8173 4.46987
Pd 8.60981 22.9632 5.07064
Au 28.2877 13.843 13.2974
Au 22.634 11.9384 11.1128
Au 6.66237 29.3011 25.8927
Au 21.7382 24.8669 8.06812
Au 18.6013 7.48903 30.5586
Au 15.6314 26.6731 6.6532
Au 20.9429 22.4186 20.6708
Pd 2.32998 27.1109 14.5906
Au 24.5038 31.347 17.9121
Au 13.8458 11.4837 18.5448
Au 4.08681 19.1477 23.5155
Pd 18.3143 18.7131 23.7485
Au 32.8137 25.4569 28.1513
Au 24.9618 3.84105 18.4538
Au 11.3815 10.4831 6.65261
Au 21.1418 16.9382 36.137
Au 16.0233 19.0183 32.0085
Au 16.3481 8.42381 14.3898
Au 28.7745 5.91409 24.688
Au 19.6885 4.75404 19.0275
Au 13.8189 15.1919 14.0011
Pd 32.783 29.1444 20.4545
Au 13.4767 5.46279 20.6693
Au 18.7969 15.6073 5.52713
Au 11.7308 28.2202 24.0788
Pd 15.5472 28.2656 23.2172
Pd 20.7946 22.9081 28.9602
Pd 15.1731 7.12848 19.3453
Au 11.8911 29.1312 11.5579
Au 25.7589 14.7135 17.9688
Pd 2.63686 19.899 21.1837
Au 20.7083 3.50005 16.3422
Au 17.2384 19.8578 14.4093
Au 36.5443 20.3667 18.934
Pd 20.8115 17.6646 19.0672
Au 26.5063 17.0972 6.54591
Au 27.6739 35.1115 17.7824
Au 22.9939 11.2503 17.5932
Au 3.6061 16.6006 16.9866
Au 7.99115 16.6533 25.578
Au 12.7452 3.33187 22.3161
Au 10.3933 3.99151 23.8024
Au 35.2926 15.7019 24.7804
Au 23.3265 8.1099 27.2983
Au 3.68966 20.9341 27.8461
Au 7.05199 21.5811 7.04955
Au 21.3573 6.21701 16.4191
Au 26.7066 20.0941 16.842
Au 16.4529 27.1297 16.5721
Pd 26.4439 26.7428 6.00203
Au 13.8101 28.949 31.6616
Pd 32.7463 12.4025 16.9617
Au 23.0298 10.6256 21.3255
Au 21.8282 29.2802 26.1622
Au 30.3951 20.9752 25.5454
Au 21.7994 33.1647 29.1669
Pd 21.1753 17.3912 21.6314
Au 17.4122 34.6027 27.2094
Au 35.8096 13.9057 20.1381
Pd 9.16661 26.6627 15.2546
Au 9.15811 29.3445 14.2498
Au 37.1868 18.7408 14.4368
Au 15.6725 3.32063 14.0711
Au 24.0539 5.36548 9.47551
Au 18.8337 7.98896 25.7701
Au 18.2689 26.4343 14.5302
Au 16.6466 7.19478 17.0171
Au 17.3968 11.3596 21.6425
Au 35.0455 12.0453 21.8514
Pd 19.4928 5.46153 11.2508
Pd 9.36007 11.5812 25.7428
Au 37.1358 22.2314 23.6552
Au 13.8754 2.97492 16.2674
Pd 27.0172 14.6291 15.5076
Au 26.9112 10.5264 32.8004
Au 18.0852 17.6264 18.2855
Au 32.4577 8.37971 22.6493
Au 24.62 14.6754 29.9965
Au 33.84 17.8091 23.0516
Pd 2.71929 19.1088 16.4163
Au 11.3582 27.6624 16.7754
Au 30.4556 10.5912 27.2882
Au 11.648 27.8081 26.7608
Pd 7.05986 24.9093 15.1543
Au 9.23036 23.2717 14.5628
Pd 21.1388 9.32422 26.102
Pd 28.0599 17.1032 26.5163
Au 23.283 36.297 19.0689
Au 3.82659 13.9125 18.3542
Au 21.3063 17.8414 31.8712
Pd 28.2684 33.0639 19.4304
Au 13.1103 28.5873 19.2501
Au 9.27956 31.1151 18.9583
Au 3.01207 21.0807 10.9407
Pd 19.9121 30.8366 21.3122
Pd 21.3392 16.0564 4.41982
Au 25.6189 6.19776 13.799
Pd 20.5298 2.24925 19.2992
Au 18.877 7.71669 15.3497
Pd 13.0692 31.7624 13.0252
Au 30.8326 18.9839 22.6452
Au 28.3703 24.4465 10.2594
Au 32.8543 16.9934 16.9801
Pd 28.4597 35.461 20.492
Au 13.0176 25.2499 6.01504
Pd 20.2219 21.4767 35.5739
Au 15.4857 30.9746 23.0964
Pd 18.7859 23.8226 35.3313
Au 8.93718 29.9827 29.5235
Au 32.4392 19.1596 15.1902
Au 15.3564 12.8628 3.96164
Au 25.0006 9.67179 31.0552
Au 9.16466 23.4488 21.9257
Au 12.1388 9.94833 16.7101
Au 36.6549 17.6497 22.943
Au 14.539 25.1065 10.4533
Au 32.5548 23.7929 13.9426
Au 6.01041 6.82 23.7234
Au 17.229 16.2418 33.4759
Au 13.0436 3.78322 13.8107
Pd 28.9286 30.8297 17.7498
Au 16.7804 9.24291 11.5202
Au 28.2915 22.7194 7.81994
Pd 13.3188 15.1184 11.3392