1687
Atoms. Timestep: 21031
Au 31.8113 20.1873 16.4313
Au 11.1713 16.3052 22.7136
Au 18.9912 22.678 14.3885
Au 22.7118 18.9297 22.4571
Au 15.809 7.04862 10.0493
Au 24.1316 30.2611 28.6698
Au 21.0541 9.61122 21.0019
Pd 13.068 32.745 15.968
Au 30.959 5.56368 14.8902
Au 7.0967 15.5366 30.5674
Pd 26.5807 31.2485 29.4582
Au 5.38636 21.5106 8.19425
Au 24.7809 23.3289 20.6529
Pd 9.50408 33.0065 22.7347
Au 20.6124 14.5514 25.704
Au 22.1687 24.7765 32.8533
Au 5.40281 11.6872 7.03714
Pd 18.9864 6.84827 7.54218
Pd 3.61087 13.4928 7.85087
Pd 19.3377 33.7627 12.5849
Pd 17.3068 1.82073 22.6713
Pd 7.46168 18.4417 13.4056
Au 16.8637 24.3858 10.2484
Pd 32.9468 13.6128 18.9276
Au 10.1276 6.0719 9.61136
Au 17.1975 18.8559 8.56489
Au 4.1641 23.8262 25.9786
Au 25.3895 9.0157 5.81103
Au 17.7639 11.7075 10.6158
Au 19.9617 22.226 36.77
Au 4.36222 19.9546 27.479
Pd 29.9513 12.6632 15.945
Au 32.1981 11.2694 9.25301
Au 8.40698 25.2884 7.1994
Au 21.3113 24.8892 8.84486
Au 29.5367 9.57944 18.1276
Au 11.7986 28.8081 34.1023
Au 27.269 14.329 5.10624
Au 32.2787 22.2393 28.9551
Au 35.0812 28.4327 13.3151
Au 7.89668 25.4523 32.4242
Au 13.9911 12.2679 23.9846
Au 18.5949 10.6855 3.21112
Au 14.2836 10.1176 6.41997
Au 3.40344 29.682 13.0131
Au 32.309 14.2312 21.443
Au 4.67578 19.5464 31.946
Au 15.9109 4.12271 16.7831
Au 17.2683 24.5929 32.5442
Au 26.9892 24.3529 10.8853
Au 29.2247 31.2814 29.5504
Au 10.8754 19.5024 3.06529
Pd 21.4973 20.4974 28.7443
Au 23.3167 27.2611 9.28561
Au 38.1535 15.9755 18.5323
Au 7.43963 13.7817 23.0822
Au 7.91441 32.9604 25.1437
Au 4.30717 20.7888 18.2892
Au 2.25036 25.5752 14.3959
Au 27.0234 16.8329 8.10584
Au 37.557 16.0759 14.566
Au 24.0378 14.3095 14.2106
Au 8.1504 10.4975 12.4266
Au 15.2364 24.5484 30.5956
Au 11.2713 10.104 31.5647
Au 15.4767 35.917 15.3536
Pd 32.3233 29.6706 16.7709
Au 34.3576 31.3413 16.6402
Pd 23.0001 4.90878 19.7574
Au 21.8198 17.0619 26.5928
Pd 33.5899 30.4993 14.2826
Au 7.46562 9.99348 6.92337
Pd 22.1571 12.8493 5.05953
Au 14.4357 13.4188 13.6068
Au 12.8842 11.167 9.30012
Au 13.6788 29.4416 32.0192
Au 18.3707 4.22967 6.43079
Au 21.8917 2.28449 24.184
Au 12.9413 11.541 15.1252
Au 15.7951 16.2785 35.6751
Au 36.4086 11.0508 19.3243
Au 13.1569 16.4092 24.8417
Au 20.3379 22.3867 4.32221
Au 10.4905 21.5128 33.9499
Au 13.5122 24.7855 23.8833
Au 25.3386 27.041 7.29552
Au 22.5735 9.11939 25.0845
Au 17.3478 3.79384 13.3029
Au 11.3037 29.8096 24.4926
Pd 5.11632 18.1663 10.2933
Au 13.3882 5.34476 23.5728
Au 22.2972 28.9078 20.9677
Au 23.1953 19.9776 4.21647
Au 21.2665 24.2264 35.3159
Au 15.9836 16.4696 25.6451
Au 28.3123 30.1239 12.9936
Au 33.5 22.9356 9.82785
Au 22.0989 25.1375 15.6192
Pd 15.6322 34.0409 25.0961
Au 4.86409 25.5106 10.4357
Au 19.2496 2.97941 11.1725
Au 10.038 32.5583 19.9126
Au 17.5064 15.4327 37.7711
Pd 19.2107 2.3012 24.7296
Au 23.9271 23.1328 15.8191
Au 27.8698 23.8869 18.2911
Au 5.9272 28.9341 26.6656
Au 28.1868 10.3581 15.9085
Au 18.4834 11.3818 7.92501
Au 6.02695 9.77994 14.025
Au 8.56346 17.964 35.5243
Pd 12.9762 14.3133 22.2957
Au 28.6512 25.3649 12.8826
Au 6.96299 23.2929 25.2843
Pd 11.5575 22.9098 24.1467
Au 16.2818 18.1018 30.4774
Pd 13.0303 34.901 14.2927
Au 3.03206 15.1139 21.9506
Pd 8.31246 14.6344 20.4297
Au 20.4464 27.441 9.05214
Au 8.15487 7.68926 13.2705
Au 6.60146 8.2418 16.3366
Pd 18.1998 16.3348 7.21195
Au 32.4075 32.0778 18.3845
Au 19.1068 14.4043 32.5886
Au 28.3637 12.1872 18.0974
Au 11.1896 14.6285 19.9315
Au 32.3898 14.3431 24.1547
Au 20.532 4.94438 18.3087
Au 30.0376 22.5504 16.0338
Au 6.16641 8.81742 11.3914
Au 22.8382 11.4945 30.1153
Au 28.2687 24.6625 15.6056
Au 36.8163 27.3066 17.723
Au 38.6161 23.4433 18.734
Au 9.18508 11.1001 30.0158
Au 25.6384 11.5591 17.331
Au 33.9833 26.8014 11.3572
Au 6.15546 24.1497 8.3638
Au 14.3927 31.4752 9.76183
Pd 20.4986 31.3599 30.893
Au 36.217 28.0224 22.9887
Au 28.8191 14.5768 32.7012
Pd 28.3247 14.0133 24.0727
Pd 26.957 3.47254 16.1124
Au 5.40729 10.15 21.1882
Au 33.2306 18.7871 20.7789
Pd 34.7866 25.7307 16.7356
Au 5.68583 32.3434 20.2308
Pd 25.7277 12.5537 30.0531
Au 36.5832 13.2216 22.7492
Pd 27.7068 19.9239 23.223
Au 20.8313 20.3357 2.61092
Au 28.785 27.6881 33.0157
Au 19.3029 7.87649 29.258
Pd 29.9906 28.0103 17.8791
Pd 15.2355 32.1176 23.1971
Au 14.035 15.0662 15.8488
Au 20.6634 2.31323 19.3222
Au 23.0341 8.51989 4.48515
Au 29.4552 24.7359 29.7607
Au 21.9976 25.9599 11.2503
Au 3.85206 16.0807 17.2048
Pd 14.4814 12.6382 17.0351
Pd 19.2634 22.9617 9.36395
Pd 11.2359 16.1471 15.8545
Au 2.28214 21.6329 11.55
Au 5.66431 23.7398 22.8314
Au 3.66945 27.0337 12.6355
Au 27.1992 27.4426 20.4916
Au 4.19545 26.8862 26.3288
Au 8.58355 33.5719 27.6788
Au 34.4321 21.0759 22.0294
Au 14.322 21.3158 19.3929
Pd 16.808 28.3243 19.5058
Au 6.94775 18.184 31.1594
Au 34.3818 21.6795 27.0783
Pd 20.8583 27.5494 15.9007
Au 17.6104 5.02466 10.7104
Au 24.4745 34.0135 22.8338
Au 26.6882 8.08263 28.2603
Au 11.8738 30.4111 29.8666
Au 18.8471 9.25741 6.19749
Au 18.1051 32.9166 30.3496
Pd 17.0011 31.6751 25.3469
Au 20.5973 24.5269 13.3139
Au 19.157 0.693574 17.5496
Au 34.5397 18.8739 26.4885
Au 3.73941 16.1749 7.22889
Au 21.1697 12.9875 28.1744
Au 13.7037 9.64003 32.8041
Au 23.9923 17.8284 25.0168
Au 28.4269 19.6311 11.9065
Pd 11.2776 3.57485 18.61
Au 27.9424 12.2854 26.2066
Au 19.3192 9.45699 11.3461
Au 5.09021 28.6036 20.1181
Au 29.7838 4.61773 19.8549
Au 12.7186 9.01637 19.6664
Au 30.644 31.8968 20.4759
Au 33.7614 18.2955 8.81673
Au 19.7496 18.2362 22.6341
Au 27.0438 25.8459 5.5712
Au 13.5398 37.0996 19.083
Au 28.9083 26.3283 10.3473
Au 19.1244 24.7663 4.82415
Au 24.1222 7.43117 29.2374
Au 34.0018 10.1519 16.195
Au 14.7318 18.8137 35.0271
Pd 7.99707 18.7254 23.9583
Pd 10.6019 9.89989 21.433
Au 25.3702 13.8435 34.7218
Au 21.4025 11.0463 23.3278
Au 33.9932 19.1988 23.8401
Au 31.1613 23.5119 31.4562
Pd 20.6955 23.3088 6.8005
Au 25.6957 8.93962 15.2846
Au 18.2418 34.3274 25.4664
Au 24.8226 30.5238 31.4114
Pd 13.2726 3.77829 20.5915
Au 18.6106 13.1467 37.1143
Pd 19.9295 34.4897 22.1215
Au 6.12098 22.2748 27.6362
Pd 11.4079 19.0622 31.5859
Au 14.6478 20.1865 8.28776
Pd 10.8614 30.8186 21.8709
Au 12.8593 9.37536 27.3798
Au 20.3616 17.0643 5.49723
Pd 29.2705 29.5249 20.266
Au 13.0901 9.31109 11.5042
Au 22.9213 20.5802 11.985
Au 19.5625 25.6459 33.5884
Au 6.27945 30.7236 24.7225
Au 9.42262 31.0899 15.2955
Au 16.4333 6.02523 14.4519
Au 16.779 32.9087 27.7793
Au 24.6084 11.9711 32.4411
Au 11.3417 20.9764 12.3418
Au 14.0667 23.3161 26.0809
Au 9.58614 27.1518 33.5799
Pd 30.7123 12.0238 11.4108
Au 31.0453 30.6896 13.39
Au 21.4661 28.7548 11.2573
Au 12.6421 19.1994 20.0846
Au 30.6993 19.7861 28.9352
Au 34.6804 21.5482 12.9103
Au 10.7488 33.3849 14.6654
Au 12.0052 26.218 33.2122
Au 9.54802 22.7928 11.3867
Au 27.9274 9.64289 22.0999
Au 32.1627 15.2748 14.7662
Pd 5.51202 18.1262 17.8737
Pd 26.8192 11.7987 23.5798
Au 18.2993 17.5112 14.4296
Pd 8.33633 23.9251 27.9828
Au 24.9566 21.7847 13.6295
Au 7.72487 28.0458 24.6208
Au 29.3463 25.8961 19.847
Pd 14.7051 18.833 25.0673
Au 7.81878 17.7657 10.8073
Au 26.0432 24.4096 13.696
Au 15.3893 18.1429 20.2143
Au 18.3175 20.0851 37.4789
Pd 16.433 20.6798 23.8952
Au 7.09988 18.9854 28.2737
Pd 34.7507 18.8475 12.5806
Au 26.1848 26.9428 9.83627
Au 9.43398 15.1599 17.8177
Au 10.7908 8.76015 29.2869
Au 25.2297 5.85539 27.0379
Pd 23.2088 7.78777 20.1056
Pd 22.5325 20.2197 6.9773
Au 3.57025 25.6664 23.9898
Pd 12.5322 23.4811 33.7547
Au 13.5306 19.0057 3.19046
Pd 13.7583 19.3411 29.6376
Pd 22.6167 6.68358 17.6537
Pd 7.96726 27.2984 27.31
Au 20.8101 23.3917 28.4886
Pd 20.0746 25.4995 26.2928
Au 31.3379 16.3791 19.5407
Pd 23.5947 19.2495 35.5316
Au 15.6436 24.7188 7.84635
Au 16.3526 13.4975 9.0278
Au 10.2482 26.043 30.8073
Au 8.76926 9.48078 27.7609
Pd 14.3327 6.12186 7.76586
Au 20.5542 13.1086 2.98252
Au 15.0104 35.7227 12.6814
Au 16.9102 25.1382 25.8744
Au 27.8001 15.4548 26.1304
Au 22.48 2.25627 14.8269
Pd 31.6879 22.554 18.1416
Au 23.0692 11.8005 21.3713
Au 16.9223 12.7424 12.9818
Au 29.957 4.28465 17.1137
Au 17.8473 23.4065 6.82825
Pd 20.496 13.0539 35.1671
Pd 23.0364 22.4747 5.53209
Pd 36.8585 15.9309 23.7105
Pd 31.9707 13.3424 28.3303
Pd 30.6445 23.7905 13.6433
Au 32.749 7.81258 15.4182
Au 5.76937 30.3642 11.8131
Au 11.6365 22.5926 36.1551
Au 22.2375 29.6685 8.60381
Au 21.5344 17.3458 18.0831
Au 2.85596 24.3817 11.988
Au 18.0337 34.912 20.2159
Au 8.71224 8.34362 10.5874
Pd 21.6294 6.24056 4.08788
Au 9.22004 21.524 21.3578
Au 31.2005 19.2031 8.22133
Au 14.2968 22.6384 36.5016
Au 13.8524 29.7868 23.4504
Au 38.4237 26.6529 22.221
Au 13.8946 34.5764 23.0678
Au 23.103 12.291 34.6184
Pd 11.7994 3.33653 13.8531
Au 18.982 23.2277 25.2807
Au 24.9155 13.687 22.4883
Au 19.9373 31.964 14.4794
Au 4.98485 11.8104 18.9542
Au 13.4429 17.7512 15.7279
Au 11.1676 12.3778 4.15765
Au 33.1252 25.5413 9.15202
Au 10.3721 32.1914 25.452
Au 27.1001 20.1008 14.4802
Au 34.3069 24.2535 27.8802
Au 10.5746 23.399 29.5633
Au 23.7235 19.0798 14.1952
Pd 17.782 33.9329 15.7502
Au 8.5847 13.0586 10.0885
Au 13.6986 14.0998 8.87508
Pd 20.0081 12.4201 20.8996
Pd 21.4053 8.37321 15.7237
Au 17.4334 18.4446 35.4772
Au 12.8136 20.1405 36.8224
Au 9.89998 21.356 31.3213
Au 20.0771 3.05147 13.7883
Au 26.9153 6.98556 25.4153
Au 24.656 3.95895 14.7489
Au 7.98414 9.50486 20.3679
Au 13.9504 31.8073 28.6007
Pd 16.6982 26.0794 17.3986
Au 25.6609 28.2563 16.6524
Au 21.9264 8.09846 27.7394
Au 10.454 16.4838 6.20569
Au 18.5281 30.8134 28.8662
Au 17.136 11.1662 20.419
Au 15.082 22.8004 32.8357
Au 10.1885 13.7184 22.3864
Au 22.7796 34.4598 28.2044
Au 24.4842 34.0235 20.0843
Au 19.6976 30.0869 9.54389
Au 15.2811 23.8083 12.528
Au 16.6118 6.20464 21.7673
Au 25.6662 25.1194 16.4297
Au 10.8767 18.6743 15.0244
Pd 31.0239 17.4439 17.0203
Au 18.151 1.15751 13.0808
Pd 24.6763 25.7369 11.7334
Au 13.8908 33.7031 11.3364
Au 3.8813 16.396 24.3651
Pd 17.0758 12.0273 17.8009
Au 26.3863 16.9211 18.4183
Au 16.2728 18.6929 3.86016
Au 32.8827 12.7771 16.3386
Pd 19.7432 11.2536 33.2914
Au 31.2854 8.96431 25.0967
Au 12.448 32.1703 23.6263
Au 19.3254 29.1449 20.7615
Pd 17.7237 17.2259 27.9409
Au 31.5786 19.7568 22.8086
Au 6.93097 31.4766 27.2807
Au 21.0699 12.733 7.57592
Pd 25.9955 8.5629 12.5461
Pd 25.5115 13.5192 25.4009
Au 32.0689 6.00495 17.3474
Au 22.1632 8.11483 10.4251
Pd 5.75618 14.5053 19.4903
Au 22.5772 35.6805 21.4405
Pd 24.3796 18.0052 20.4889
Au 27.7613 29.778 31.4014
Pd 30.319 24.9973 17.5496
Pd 18.1247 21.9609 16.9428
Pd 15.8512 10.242 31.3077
Au 22.0027 33.5012 13.5676
Au 11.9472 14.0396 17.2674
Au 6.40017 18.7666 33.8604
Au 27.6506 19.363 7.12724
Au 24.6335 8.43601 26.6471
Au 11.2453 17.6233 36.6301
Pd 15.2966 30.8077 14.885
Au 14.5083 24.5781 17.0344
Pd 14.1519 21.2096 12.7048
Au 16.5993 20.7818 6.13543
Au 8.83836 14.1577 32.2384
Au 18.977 6.30888 4.85837
Au 13.4672 32.6395 18.749
Au 18.9888 18.1861 3.22814
Pd 24.8443 31.3205 25.8758
Au 13.2554 24.0671 19.442
Pd 18.6693 30.2646 23.4989
Pd 25.5381 31.6755 18.7753
Au 19.5327 8.39656 26.4918
Au 10.1688 20.1172 36.2722
Au 14.0864 16.4646 18.2446
Au 19.537 20.2573 15.3896
Au 25.7959 18.8108 27.5202
Au 23.8792 20.3959 9.43729
Au 33.6052 18.0529 18.1396
Au 10.0972 11.8625 14.3072
Au 11.9764 6.03576 19.5687
Au 5.67488 28.9868 14.1898
Au 24.0755 13.08 27.9502
Au 17.5026 13.073 22.3732
Au 31.3184 29.9358 28.5862
Au 36.8213 21.6065 15.0964
Au 32.4916 19.7261 13.5317
Pd 15.9645 8.61745 15.195
Pd 18.771 14.7103 13.9542
Au 3.14043 20.1789 29.8301
Au 4.54339 15.4334 9.66368
Au 9.99678 18.5545 12.2958
Au 16.7911 6.85308 17.1377
Pd 3.37547 19.0548 24.8267
Au 20.4647 15.0478 37.0693
Pd 14.8767 17.1968 22.7474
Au 20.9659 15.7716 7.94542
Au 8.57882 19.9292 4.48437
Au 13.2009 19.8382 10.5517
Au 24.5274 10.7381 11.8863
Au 7.51676 29.2176 10.0305
Au 12.3785 4.47931 9.0194
Au 21.0655 30.9905 19.4538
Au 20.5184 33.7517 19.5766
Au 11.1739 24.8921 9.99999
Au 20.4964 22.5105 33.2194
Au 27.8718 27.8553 25.7121
Au 35.867 16.7251 16.601
Pd 9.55426 27.3373 8.78325
Pd 18.5713 15.3313 16.6637
Au 14.0663 6.32125 21.1372
Au 18.3585 24.2546 27.994
Au 33.1971 31.3789 21.0978
Pd 21.0526 15.4653 34.2686
Pd 21.3366 16.4475 23.7972
Pd 17.6976 11.1783 29.4849
Pd 14.7929 19.0829 17.7254
Au 11.106 13.3114 9.24062
Pd 20.1562 10.3308 28.5203
Au 36.3686 21.8953 18.3868
Au 25.0869 16.0544 27.007
Pd 9.26079 30.4702 31.0259
Au 25.604 20.2348 25.0229
Au 14.2273 27.7489 34.1765
Au 21.9434 24.6966 4.38217
Au 11.0181 28.4843 31.605
Pd 21.2112 28.2911 18.5972
Au 24.9742 33.8988 17.3003
Au 21.0459 31.6839 11.7261
Au 23.3721 10.1454 16.4324
Au 11.8936 22.5711 27.3874
Au 18.4744 23.4715 34.8705
Au 16.0771 12.57 27.5544
Au 13.0448 8.68098 14.5427
Au 36.1709 25.8124 12.6269
Pd 27.4807 8.25951 9.17961
Au 28.9799 18.1915 9.5634
Au 29.2599 23.6027 8.95107
Pd 20.6015 10.7922 25.871
Au 17.4768 19.6904 21.4709
Pd 20.4412 26.0593 29.0501
Pd 29.9864 25.1611 27.1487
Pd 14.2125 22.9421 14.8411
Au 27.1357 12.8623 15.4605
Pd 32.3552 16.8869 22.6138
Pd 22.4232 29.5317 30.8155
Au 10.342 35.0237 28.9491
Au 15.4924 33.6736 30.0614
Au 21.6829 23.2026 10.9244
Au 17.8788 16.887 33.0222
Au 34.3343 26.2853 23.7736
Au 30.1043 13.7831 19.8227
Au 29.3708 30.7775 26.8336
Au 20.0063 0.652794 15.0433
Pd 19.5566 11.8073 5.37185
Pd 15.151 10.4513 25.832
Au 27.434 7.83524 17.22
Au 36.0413 17.3751 19.3933
Au 31.8793 20.8647 31.2059
Pd 21.1936 26.941 31.53
Au 23.2834 29.0497 33.289
Au 26.7598 19.7979 17.9413
Au 19.5138 5.47627 12.7954
Au 4.86452 10.3745 9.28771
Au 24.6172 24.0704 3.78229
Au 16.012 13.6298 36.3043
Au 13.9754 8.62217 8.79841
Au 20.2614 21.4026 12.2231
Au 16.5346 1.10922 17.9909
Au 21.0431 21.5411 26.1302
Pd 18.4259 29.5522 26.3553
Au 23.6127 4.26618 25.4285
Pd 9.1826 19.0668 30.0868
Pd 23.9413 27.1689 31.4766
Au 34.495 11.9425 14.1497
Au 18.7047 12.194 27.0446
Au 26.9055 27.5238 12.3333
Au 11.8184 20.9878 22.1149
Au 30.8324 14.7138 17.3435
Au 15.1464 29.3613 8.32437
Au 23.1832 24.1689 18.3225
Au 28.5843 28.8494 28.7106
Au 22.7995 25.0309 30.116
Au 12.1881 11.9584 6.70474
Au 14.9469 10.4936 28.7204
Au 7.36799 29.3852 29.0452
Pd 9.91828 26.2902 20.9145
Au 14.2664 28.4425 14.0355
Au 26.4857 29.6812 27.2578
Au 29.8588 29.5132 24.2466
Au 33.272 17.8933 15.4083
Au 7.65175 26.9684 13.9967
Au 18.641 34.7594 28.2892
Au 14.8964 1.61363 15.9885
Pd 25.0904 31.1406 16.1666
Au 13.8415 21.3483 24.2149
Au 32.4907 25.9997 26.433
Au 22.9037 13.853 9.17552
Au 36.6795 26.7501 15.0954
Au 38.8342 19.8498 14.753
Au 24.9322 10.0701 28.9753
Au 24.8661 11.5701 14.543
Au 6.76813 15.7386 17.2709
Au 25.1167 29.3123 9.1962
Au 21.0266 5.66781 15.509
Au 18.4238 27.647 32.1353
Pd 36.0044 19.8619 20.2461
Au 20.633 19.7789 5.20321
Au 20.1336 12.0033 30.6742
Au 18.6076 30.1217 18.379
Au 16.6701 19.2997 32.9856
Pd 14.6437 11.0154 19.3452
Au 32.609 15.6497 29.53
Au 32.0898 24.8828 29.1454
Pd 25.346 15.5875 29.7927
Au 22.2883 27.0983 13.5987
Au 35.7059 21.1182 24.7995
Pd 26.3485 11.7508 5.89639
Au 32.079 21.45 20.5883
Au 21.6271 9.15239 18.3355
Au 22.7297 26.6315 22.6072
Au 13.4737 27.064 8.35427
Au 8.62452 16.969 15.352
Au 7.87908 12.6166 7.37417
Au 24.0087 17.9891 10.8411
Au 17.1949 -0.0190904 15.4337
Pd 10.281 10.0337 18.7041
Au 26.3777 19.4531 9.64672
Au 28.0131 22.6211 13.7604
Pd 7.32262 27.2674 16.6791
Pd 12.9866 24.8676 28.5394
Au 4.59706 18.7708 7.62948
Pd 18.0399 10.297 25.0305
Au 9.30433 5.13659 20.1686
Pd 25.2254 16.8447 13.2675
Pd 13.2317 15.844 27.6141
Pd 24.7008 22.8841 25.3739
Pd 12.8427 34.3451 29.7476
Au 25.8816 9.19652 24.0985
Au 30.6015 14.3163 30.6404
Au 28.489 15.9798 19.9655
Pd 21.5878 16.9713 20.8775
Au 16.3366 14.388 33.6008
Au 4.89052 12.3793 14.3051
Pd 27.1298 19.5153 32.1391
Au 17.063 28.6508 29.7176
Pd 22.8778 12.8297 11.6419
Au 27.6621 5.07966 18.2869
Au 31.4141 27.4006 10.333
Au 28.142 8.16894 14.1918
Au 9.95271 9.07237 24.0307
Au 17.765 4.25505 23.595
Au 9.22617 7.09699 22.2668
Au 10.2339 13.7183 6.5474
Au 6.01823 11.4538 23.4247
Au 30.804 14.6819 12.3393
Pd 27.4572 10.8537 28.5548
Au 5.38766 21.3629 33.8522
Pd 9.20553 8.19258 17.173
Au 10.5278 7.44789 14.8857
Au 35.0072 13.0604 20.5745
Au 25.7327 18.8628 4.90579
Pd 27.3634 32.5242 16.8956
Au 12.6565 18.675 23.2561
Au 8.31356 14.7311 26.9188
Au 11.8356 30.4463 19.2235
Pd 23.3365 9.21434 13.8354
Au 10.0261 21.9903 5.14037
Au 22.7527 21.6465 21.3602
Au 22.301 22.412 30.6839
Au 24.1175 9.26811 31.375
Au 30.2417 28.9725 30.9879
Au 25.8796 15.7818 24.0383
Au 14.593 16.5851 4.21755
Au 12.9192 14.442 3.30859
Au 8.63247 15.2009 8.16051
Au 5.29346 26.5211 21.9561
Au 7.73581 20.5283 11.5531
Au 22.1983 26.9331 25.1866
Pd 29.1686 21.2464 18.3744
Au 11.66 30.2112 27.1578
Au 22.9398 4.52688 22.853
Au 38.3929 17.8758 16.5476
Au 13.9389 17.7504 37.3796
Au 29.2838 24.4064 6.31966
Au 25.9658 13.1501 12.5165
Au 14.4819 34.8401 20.18
Au 16.4261 2.44052 11.1323
Au 21.4874 14.4901 13.1999
Au 34.1904 23.6725 22.5537
Pd 14.9942 12.6333 21.4603
Pd 20.0084 18.6236 7.91999
Pd 34.2102 16.6207 24.6773
Pd 11.5206 17.6989 29.2687
Au 15.3634 26.6015 28.7367
Au 25.9311 28.5245 32.8534
Au 36.4166 27.6127 20.3678
Au 22.0247 21.5684 14.5119
Au 7.40326 12.1501 15.3968
Au 31.812 6.41806 20.1195
Au 29.9867 29.1668 15.3394
Pd 29.5149 27.5366 22.0612
Pd 15.8012 27.3091 6.79382
Au 11.2961 14.3796 33.3644
Au 12.5094 23.4981 12.1596
Au 32.7916 9.84831 13.572
Au 22.3899 34.5406 16.2166
Pd 21.7243 6.39816 8.42378
Pd 8.15195 31.6002 11.2599
Pd 34.4393 20.3834 15.61
Au 13.7619 14.0009 34.6657
Au 15.5293 1.69322 13.4984
Au 18.4664 15.3008 35.2547
Au 28.8186 22.0384 32.4677
Au 16.61 30.2128 21.5567
Pd 15.6742 12.8754 30.2627
Au 25.205 21.019 6.60811
Au 3.63489 23.6249 18.1508
Au 18.1334 3.31766 18.3367
Au 20.5576 29.2637 32.7594
Au 24.0653 18.5584 17.8398
Pd 23.0853 26.5645 19.8659
Au 21.6116 13.211 32.6121
Au 32.1523 8.65855 18.0911
Au 4.73778 14.7672 26.5205
Au 9.06158 13.926 29.548
Pd 14.0862 28.8631 19.2399
Au 4.64103 13.8141 23.9626
Pd 11.8599 14.0513 24.8503
Au 8.00311 22.0846 9.16513
Au 12.4024 11.9784 12.3072
Au 3.0881 17.5699 14.0229
Au 14.8279 26.2996 19.3255
Au 10.4188 16.8255 34.046
Au 12.9998 23.9723 8.09291
Au 25.4345 22.6208 18.1176
Au 15.8193 5.57305 24.8137
Au 7.75592 33.9345 20.5945
Au 14.4229 34.2869 27.5965
Au 11.2598 8.60308 9.68077
Au 23.4441 6.3525 6.19882
Pd 8.15903 24.739 17.7811
Au 15.1983 21.1795 3.66889
Au 31.9785 18.0283 25.2313
Au 18.2357 4.24772 26.272
Au 20.2399 28.9338 6.83575
Au 24.7455 20.5499 19.7827
Au 10.3404 10.9828 10.8403
Au 19.7477 36.2003 24.1012
Au 3.99886 16.6108 19.9344
Au 6.97041 24.5552 15.2725
Au 31.686 7.49575 22.7582
Au 22.4836 21.8198 35.782
Au 7.38412 28.4467 21.8224
Au 3.65693 25.1949 28.3255
Pd 15.2444 5.19607 12.1142
Au 23.0975 14.9294 6.6353
Pd 27.846 16.8826 22.5982
Au 7.09127 19.4554 15.894
Au 34.9795 10.5434 21.4572
Au 28.7893 5.83307 12.9073
Au 10.0475 35.1793 21.0795
Au 14.9684 4.16719 9.61624
Au 24.9076 18.4916 7.50591
Au 16.4367 15.2677 31.07
Au 14.2416 27.3959 16.7385
Pd 15.6837 23.9566 28.0543
Au 34.9099 28.6952 25.2264
Au 3.80909 15.0392 14.5753
Au 11.2316 5.07736 21.9921
Au 18.138 19.8619 13.0122
Au 18.0331 13.4719 3.6287
Au 23.2245 22.0766 33.1502
Au 3.85666 23.0283 9.84505
Au 21.0066 3.7352 26.2825
Au 18.6399 19.287 29.6659
Pd 31.1601 21.6299 9.5351
Au 18.6466 6.48398 24.8959
Au 5.82349 18.4001 25.703
Pd 18.2426 30.3347 31.6223
Au 22.7349 5.42692 27.723
Au 6.45064 34.1148 18.2036
Au 31.7857 23.6014 7.7457
Au 23.4094 16.494 15.9264
Au 8.14236 23.1107 33.9571
Au 27.8318 13.6187 21.5695
Pd 23.3412 15.1573 25.1772
Pd 29.0366 24.8204 32.692
Pd 27.4606 30.7417 24.9151
Au 17.4825 10.052 13.3758
Pd 8.91417 16.6668 28.8497
Au 23.0987 22.7159 8.27633
Pd 19.4912 13.1466 17.979
Au 19.8792 24.2933 31.1107
Pd 11.4132 11.553 23.5898
Pd 11.5502 21.832 19.4623
Au 10.099 29.7188 10.4775
Au 23.2508 30.0395 17.9753
Au 19.51 27.1465 13.28
Au 9.42652 15.4699 24.5658
Au 20.9224 4.96022 6.31847
Au 23.4402 18.0155 28.5918
Au 16.4626 28.9288 16.7611
Au 23.8147 6.90022 12.2538
Au 23.2982 29.0383 15.4206
Au 24.9046 28.4434 22.0227
Au 12.9891 32.2426 13.3555
Au 7.76519 20.5329 26.0478
Au 23.3877 30.7823 10.7075
Au 17.8906 25.11 23.13
Au 17.457 17.6915 11.5823
Au 15.9936 37.0552 20.3276
Au 27.3342 26.2923 23.3123
Pd 25.4041 21.2662 22.4414
Au 9.44975 31.2757 28.5348
Pd 22.0953 23.9159 25.3956
Au 6.20697 22.7965 17.9959
Au 22.6023 12.6246 25.6903
Au 20.9082 25.6034 18.1892
Pd 11.9207 16.9956 3.89019
Au 24.1417 13.1316 19.1742
Au 21.7733 10.375 6.25206
Pd 4.81009 18.1143 29.5185
Au 28.6524 31.4071 22.376
Au 10.817 9.58035 13.15
Au 26.6767 14.6724 9.873
Au 16.2014 26.9608 9.43404
Pd 27.6662 26.3112 28.0469
Au 30.225 10.7625 26.8996
Au 37.6268 13.3435 19.3084
Au 19.7676 15.6605 3.11558
Pd 31.9938 26.664 22.3895
Pd 11.5265 15.1184 29.8163
Pd 21.9462 0.97778 17.1297
Au 17.1533 22.514 37.0572
Pd 27.6545 23.4173 28.1477
Pd 20.4372 11.6354 9.94934
Au 26.8963 21.2594 29.8845
Au 28.1959 32.1182 19.4428
Au 16.7851 26.7641 34.1286
Au 18.3182 22.3048 22.7421
Pd 18.3707 27.7468 10.8564
Au 18.2685 20.6592 3.83866
Au 23.7566 31.1851 13.3226
Au 18.0541 3.82221 20.9874
Pd 23.5352 14.935 33.2413
Pd 31.1867 24.4485 10.6576
Au 11.3964 14.9525 36.0355
Au 11.708 21.4639 14.9292
Pd 32.2578 28.2419 14.3311
Pd 18.6433 16.5188 30.3684
Au 22.5356 2.22843 21.5028
Au 31.3487 10.3549 15.9044
Au 16.024 30.2848 27.557
Au 9.93418 28.4824 28.9438
Au 21.4959 10.673 3.52051
Au 16.2798 21.3465 34.8584
Au 17.3487 22.8223 30.0514
Au 7.84003 31.9233 18.2217
Au 12.2477 19.8545 17.3849
Au 8.56061 9.68092 15.0717
Pd 16.2032 27.8231 26.4316
Pd 29.9968 17.0406 29.7605
Au 37.5025 14.2464 16.6095
Au 20.3359 36.4874 20.2012
Au 16.5937 17.891 37.9613
Au 21.6895 27.1208 34.2223
Au 6.45264 13.6912 28.5044
Au 18.283 27.1946 5.82575
Au 18.1378 37.3342 18.788
Au 21.6651 5.19544 10.9059
Pd 10.9963 23.6775 21.5392
Au 19.4299 12.7174 24.1986
Pd 11.7259 15.9009 8.47652
Au 14.2594 29.0802 29.295
Pd 27.4678 12.1299 8.37251
Pd 25.9284 15.8383 21.0689
Au 19.9286 15.6261 28.0351
Au 25.3435 24.5443 27.3811
Au 26.6827 13.8207 27.9469
Pd 22.8269 21.3633 17.7795
Au 34.1876 27.6829 18.6381
Au 8.59896 17.8559 17.8519
Au 5.05795 28.3005 24.0043
Au 36.061 24.902 19.1183
Au 31.9943 22.0284 12.0372
Au 22.0572 13.7552 23.1964
Au 17.6307 22.2744 11.6956
Au 27.9158 28.997 10.2256
Au 19.8209 14.9382 21.9781
Au 31.4413 29.4131 22.0146
Au 16.8542 5.50029 8.11935
Au 32.6342 22.2142 14.7098
Au 8.87956 22.2324 18.7526
Pd 19.9229 16.6109 12.3703
Pd 9.62425 23.2377 14.0567
Au 29.1492 19.7611 16.1974
Au 18.3271 9.70687 16.2852
Au 12.6858 29.9168 11.9983
Au 11.3777 4.49571 11.4779
Au 27.2861 23.3869 4.4852
Pd 4.12747 22.1246 31.3338
Au 13.8475 15.1241 37.1338
Au 21.811 10.3396 11.9031
Au 9.61081 12.2995 19.8578
Au 25.5798 8.76128 21.0488
Au 23.111 21.1223 24.1113
Au 13.078 26.867 30.6342
Au 14.8712 9.41628 3.92083
Au 31.7071 27.0426 19.7599
Pd 16.7855 23.9942 15.6379
Au 13.7211 14.1781 31.8267
Pd 31.2885 19.4492 18.9953
Au 29.3155 11.2738 20.5129
Au 30.8679 27.2024 29.0186
Au 20.082 8.47842 3.74233
Au 22.6988 22.3365 2.92083
Pd 30.7955 9.99565 22.5324
Au 28.9373 18.3486 18.7459
Au 34.5419 30.2623 19.0094
Au 14.7253 17.6141 11.3676
Pd 7.175 31.6325 13.9536
Au 30.0198 26.4129 24.6153
Au 38.6144 20.6885 17.3608
Au 18.4941 27.2778 24.8641
Au 5.42935 16.7313 12.557
Au 16.5168 35.1544 18.0111
Pd 17.9486 32.8555 18.4203
Pd 33.6124 24.1888 12.3086
Au 31.6834 16.8428 9.79307
Au 32.2572 18.148 30.7486
Au 35.1403 14.2808 15.2554
Au 18.3394 8.51071 20.4518
Au 7.34475 9.03345 22.9462
Au 8.2233 18.0137 6.413
Pd 12.2302 9.84577 4.54258
Au 25.6366 25.7783 29.8711
Pd 27.7541 7.40993 20.0471
Au 17.2691 8.38734 4.24322
Au 21.1577 20.9772 9.23407
Au 29.4835 6.27046 21.9115
Au 9.34848 20.4423 7.29647
Au 19.9656 14.4676 5.58877
Au 17.5469 2.99396 8.79262
Au 36.7787 23.1351 12.2803
Pd 20.9159 17.7291 29.3999
Au 19.3725 25.235 10.8976
Au 11.5489 11.3378 28.8528
Au 23.228 24.0641 13.3093
Au 4.39678 20.5687 22.6283
Pd 7.25045 26.582 19.7358
Pd 22.0489 16.1801 10.4844
Au 17.0415 26.9462 14.8555
Pd 7.93859 22.1789 16.0546
Au 29.6521 24.8498 22.4437
Au 12.174 12.0895 20.8445
Pd 12.0262 7.64254 17.3273
Au 23.3023 8.63108 7.70538
Au 12.4945 21.4865 4.09823
Au 3.55196 22.4596 28.4736
Au 30.3236 29.8243 10.9465
Au 20.965 19.6391 36.6089
Au 36.2061 19.3589 17.4222
Pd 14.8918 7.75047 12.8091
Au 13.6819 3.11905 11.8761
Au 15.3796 14.6694 23.4798
Au 29.4223 15.2659 9.93055
Pd 7.9182 25.9124 22.7162
Au 23.4986 23.8058 23.1233
Au 11.2898 34.0511 12.1415
Au 11.1774 25.8443 7.2795
Pd 18.5708 12.21 15.2455
Pd 12.8383 5.98942 13.3377
Au 7.00438 15.1869 10.6167
Au 14.2253 36.3105 25.3523
Au 8.00924 31.002 20.9067
Au 7.95129 23.2219 30.6689
Pd 27.5759 30.0818 15.7669
Au 9.96047 19.6085 19.4649
Pd 4.83265 28.1893 17.3308
Au 7.06115 29.9735 16.2609
Pd 26.9758 7.06564 22.7229
Au 29.3774 10.2807 9.5846
Au 10.9306 13.6353 27.4318
Au 36.7948 23.9259 16.668
Pd 17.669 25.9163 20.0682
Au 12.5116 36.3081 21.4686
Au 39.2395 22.8835 16.0269
Au 15.5607 8.76019 20.8319
Au 25.5592 25.6081 19.0598
Pd 29.7809 27.9287 12.7171
Au 27.236 4.89314 21.0737
Pd 24.546 24.839 9.11831
Au 13.7744 25.6714 5.96798
Au 17.2271 16.8905 18.6978
Pd 11.8795 5.31434 15.7345
Au 23.1498 29.2029 26.4556
Pd 33.889 16.0433 20.1865
Au 27.2095 32.4009 27.0387
Au 6.14136 27.5352 11.7502
Au 24.2827 26.5097 34.0296
Au 23.3778 26.9066 17.2203
Pd 13.8731 35.0649 17.2754
Au 24.5342 1.94059 16.5494
Au 34.7102 16.537 10.9371
Au 35.4691 24.5774 10.3599
Pd 17.8152 8.84115 9.12054
Au 27.467 28.9668 22.9593
Au 16.2933 8.08201 25.5286
Au 22.1144 19.4889 19.7325
Au 22.7939 27.7214 28.9601
Au 14.0432 2.31503 18.4661
Au 24.8104 26.7375 14.3871
Au 21.5503 9.09063 30.4664
Au 4.92425 13.5742 16.8508
Au 36.3222 14.7052 12.4962
Pd 22.0258 17.122 36.2833
Au 25.58 18.2713 30.2722
Pd 19.7652 21.5661 30.5867
Au 22.1356 34.8408 23.9678
Au 28.1683 19.0348 29.515
Au 32.4575 17.0823 12.4875
Au 15.3941 33.4763 14.1677
Au 19.7324 12.3413 12.6427
Au 5.6017 18.0724 22.9281
Pd 6.48698 21.8208 20.6578
Pd 35.7607 21.624 10.3713
Au 9.29064 8.19198 7.76998
Au 25.7992 17.9351 15.7808
Au 18.8239 31.89 20.8398
Au 29.9153 22.2592 27.2991
Au 29.9916 33.2352 17.5304
Au 14.5249 28.4566 10.9061
Au 19.9312 2.13086 22.1892
Au 13.8229 30.3432 17.0365
Au 1.32769 22.5698 21.413
Pd 18.8422 27.4498 17.7569
Au 5.52581 25.5387 17.6155
Au 31.411 14.8047 7.6096
Pd 9.61883 29.9713 17.7365
Au 34.0797 25.9479 20.7844
Pd 37.1049 20.2938 12.5325
Au 30.9124 7.69788 13.2418
Au 27.1488 17.9593 25.243
Au 30.0606 12.8217 8.7304
Au 14.5629 22.4397 10.1505
Au 15.8978 24.3021 35.1761
Pd 14.6796 25.6493 14.5793
Pd 10.7508 16.2636 26.8748
Au 19.3811 24.0934 21.0291
Au 3.04929 24.757 21.5399
Pd 26.6237 26.0173 32.6683
Au 32.7619 29.1558 11.9179
Pd 25.1457 12.4813 9.84259
Pd 20.9385 22.5441 23.2783
Au 33.7922 10.8777 18.8344
Pd 19.2136 25.3588 15.7018
Au 5.80097 32.4608 16.1916
Au 18.8234 21.4975 27.8492
Au 19.0695 29.9399 12.3098
Au 24.354 22.9084 11.0782
Au 38.4133 18.6833 19.1955
Au 29.2496 32.0276 15.0193
Au 2.79938 18.5188 18.4487
Pd 30.459 13.3177 25.9438
Au 11.8162 22.0942 9.73613
Au 27.4423 22.25 25.35
Au 22.6036 16.8738 13.0868
Au 20.5908 17.0412 32.0842
Au 25.3573 21.539 3.94985
Au 28.1263 20.2161 26.9982
Au 6.76528 32.6273 22.7675
Pd 26.2082 23.7787 23.3713
Au 18.006 15.2689 23.9348
Au 22.3777 4.67802 13.4166
Au 20.116 9.99637 14.0374
Pd 16.1457 23.7192 19.0022
Au 37.1719 20.4992 22.6086
Au 16.5387 9.31047 18.2651
Au 36.9351 25.7871 24.438
Au 16.038 10.6065 23.1046
Au 33.6197 30.3299 23.5549
Au 12.9607 16.6249 20.7348
Au 33.6106 14.2926 12.6516
Au 5.43933 11.3815 11.7399
Au 18.9132 14.0769 8.63848
Pd 20.7266 13.7437 15.5862
Au 36.8939 15.3519 21.0239
Au 19.8666 19.0398 27.1762
Au 24.1229 20.4969 29.7308
Pd 29.768 6.80418 18.3431
Pd 22.9479 32.1122 24.0481
Pd 30.0395 15.4117 22.2438
Au 29.0141 12.8969 13.4626
Au 26.6201 13.9321 19.2523
Pd 6.12455 25.8398 24.6918
Au 17.8455 32.8908 23.0978
Au 35.1562 26.3746 26.4452
Au 14.085 17.3539 8.8032
Pd 26.6193 30.2462 20.793
Au 10.612 10.7374 26.2068
Au 13.0172 12.0101 26.5052
Au 13.5194 4.85333 17.7802
Au 24.1112 5.88551 9.65552
Au 11.6016 24.9921 25.9977
Au 29.9892 10.268 13.4779
Au 8.78964 25.3829 25.5008
Au 14.6154 20.0304 21.9391
Au 22.3546 32.2223 26.7833
Au 36.1086 16.4771 26.4215
Au 27.4213 16.7541 28.4321
Au 9.93436 5.69123 17.6527
Au 33.184 28.4159 27.3149
Au 1.38264 23.9352 16.6156
Pd 32.3429 11.5867 21.0281
Au 7.15163 20.1552 18.5718
Pd 28.3386 17.2519 16.3591
Au 23.9043 31.1287 20.8256
Au 15.5695 20.889 31.0913
Au 16.2405 8.29017 6.99124
Au 10.7011 28.36 12.9656
Pd 8.66781 30.5433 23.5733
Au 24.729 25.7564 24.8319
Au 2.92471 18.9212 11.6675
Pd 19.6833 15.6531 19.2731
Au 35.1821 23.8279 14.486
Au 16.8848 19.5672 15.9298
Au 29.8323 15.0379 5.4293
Au 23.8637 15.8862 19.0467
Au 24.9399 28.5184 19.302
Au 33.4302 11.7305 11.6132
Au 34.6101 14.9953 22.5782
Au 21.6934 17.8533 3.21944
Au 27.7139 27.3876 14.9066
Pd 12.0514 27.029 19.3227
Pd 6.32421 23.2239 10.9864
Au 4.60592 31.8662 13.7497
Au 15.6538 37.5624 17.5403
Pd 21.9247 19.2253 16.1915
Au 26.8384 23.573 33.9532
Au 8.86883 23.4394 23.3489
Au 25.8124 21.8255 32.2834
Au 30.4571 28.183 26.6172
Au 18.8191 9.60204 31.3419
Pd 2.64606 21.6203 16.2798
Au 9.94264 19.1912 27.3886
Au 31.4592 9.45993 11.1963
Au 25.5655 7.1472 7.75164
Pd 36.4316 22.6656 20.9746
Au 16.1055 11.6559 3.0002
Pd 22.7439 15.3439 28.4424
Pd 8.21015 15.8422 12.91
Au 30.5287 10.6421 7.24212
Au 8.72931 11.3312 22.6951
Au 26.0713 6.23825 13.9266
Pd 24.4589 16.1003 8.80389
Au 24.1707 11.3963 23.9217
Au 13.1323 6.50987 10.5619
Au 27.7329 26.6568 17.6513
Pd 17.6639 27.6759 22.2418
Pd 15.546 20.2384 37.2123
Au 20.5044 9.2471 8.5499
Pd 7.35719 29.0977 18.8546
Au 31.2604 31.7073 23.2921
Pd 11.7929 28.5501 17.1674
Au 7.89495 20.6633 34.9608
Au 16.9626 36.6211 24.491
Au 5.31452 10.7286 16.5115
Pd 15.0617 16.6971 32.9314
Au 14.996 7.77724 27.9409
Pd 4.30741 22.3272 13.1386
Au 18.5122 5.05196 16.0626
Pd 22.4761 18.0007 8.50974
Au 29.8972 20.8555 24.8255
Au 1.78533 20.5611 23.2715
Au 11.9945 25.5525 17.106
Au 12.6108 18.3679 26.8886
Au 22.92 14.5192 35.9802
Au 10.7496 32.8026 30.5039
Au 38.7448 25.5994 16.85
Au 30.8352 26.3427 31.5573
Au 23.1838 22.6183 27.6936
Au 25.2759 16.9279 32.5927
Au 20.3131 26.6369 20.7764
Au 5.79692 17.1584 5.74384
Pd 17.5088 31.8915 13.4703
Au 18.8153 7.52367 14.7146
Au 5.47213 27.3092 28.8167
Pd 5.00678 26.5353 15.091
Pd 17.7676 13.9146 19.9221