1687
Atoms. Timestep: 21364
Au 12.0321 7.37396 14.0616
Au 15.3206 20.2182 19.4034
Au 7.64201 5.3252 18.6089
Au 14.1035 8.43495 26.6117
Au 12.9353 9.55421 7.46396
Au 16.6011 11.2461 25.3574
Au 2.52267 19.9476 20.0145
Pd 11.3034 15.2551 10.9462
Au 14.2833 17.1146 5.69015
Au 18.4142 4.74915 13.376
Pd 13.6666 13.7466 28.0045
Au 5.85206 17.9751 29.4934
Au 9.42618 6.67905 13.6286
Pd 6.95907 14.3161 19.0236
Au 10.675 8.39941 11.7874
Au 6.45948 22.506 7.9054
Au 19.84 10.8238 29.6163
Pd 17.8115 13.7164 16.3217
Pd 17.2398 8.91612 23.8071
Pd 11.1067 12.0002 17.7139
Pd 8.97535 25.4724 21.967
Pd 8.46723 29.343 27.7716
Au 6.33004 9.64032 26.9063
Pd 12.3907 36.0719 18.5227
Au 9.37891 19.0653 26.9894
Au 11.045 9.91795 32.1787
Au 9.9512 17.595 18.3372
Au 3.59233 19.9668 11.4719
Au 13.1557 5.43048 23.2489
Au 10.1761 9.19369 29.5974
Au 10.8619 4.97657 24.9836
Pd 13.4549 19.4102 24.252
Au 12.2927 8.72266 21.1886
Au 13.6877 10.7716 17.5268
Au 18.243 16.36 17.8008
Au 4.37756 26.7104 26.6797
Au 4.44164 18.8968 24.5518
Au 4.23227 29.226 25.7061
Au 13.8269 20.367 2.41163
Au 5.83215 22.8547 15.2172
Au 9.94976 12.902 7.0824
Au 4.27349 13.9576 14.4482
Au 4.15477 23.4936 21.5157
Au 4.9632 17.4777 11.5659
Au 9.76346 14.8828 18.5878
Au 12.5815 3.49762 17.0071
Au 18.2184 15.3055 34.0811
Au 16.1929 2.56318 21.0036
Au 15.3232 18.385 28.6193
Au 4.76132 27.5784 18.751
Au 24.2919 31.9125 24.2599
Au 5.57306 15.2658 28.6152
Pd 7.22911 18.4666 15.8334
Au 12.0021 16.5298 3.88253
Au 7.85005 16.6336 19.9306
Au 1.80263 22.7316 20.2359
Au 12.7157 13.9608 31.024
Au 2.04387 25.495 20.5623
Au 12.4552 24.0278 11.1311
Au 4.16226 13.6928 21.6546
Au 13.8517 22.0507 35.1813
Au 10.1732 4.60003 17.7628
Au 2.27728 26.8109 18.1896
Au 1.78474 23.9472 22.7951
Au 7.48184 9.28656 22.3015
Au 14.2155 11.8329 29.7663
Pd 14.5407 29.72 25.4107
Au 9.77086 10.1782 27.0946
Pd 19.7102 27.3326 15.9977
Au 11.3396 23.4611 30.4904
Pd 10.7528 27.4846 28.4047
Au 8.53573 17.5987 29.4524
Pd 21.505 29.4686 30.2464
Au 7.65301 17.9961 10.1941
Au 8.14751 9.52468 24.9373
Au 8.63907 21.2456 25.5466
Au 22.5854 34.3735 24.201
Au 9.74395 28.0745 25.8429
Au 8.23332 16.0408 16.6434
Au 4.44658 12.0782 19.4757
Au 20.1827 31.7462 29.5295
Au 2.0441 20.0672 24.9282
Au 18.8618 26.9875 18.6719
Au 16.8992 26.1999 3.16698
Au 15.9012 21.8931 0.993223
Au 15.2779 34.8547 25.1443
Au 2.1695 22.7746 25.1936
Au 7.21163 10.4677 11.2885
Au 6.98628 16.9172 7.58028
Pd 28.5718 21.106 13.8844
Au 17.1518 33.5992 23.1902
Au 6.85463 11.7326 23.7041
Au 8.2525 23.8217 29.2272
Au 14.8259 11.5738 7.3856
Au 13.3229 26.1693 33.0497
Au 21.2796 27.3974 22.6898
Au 8.8127 25.7448 24.7249
Au 9.86701 25.2001 16.5516
Pd 7.255 25.2286 15.6212
Au 1.07313 20.2372 15.5693
Au 6.09438 30.3374 27.1705
Au 4.16387 21.7874 23.8006
Au 15.3468 30.1552 30.0499
Pd 21.1815 23.2056 19.0906
Au 15.0379 31.7148 15.703
Au 8.75658 31.8681 9.36143
Au 12.9764 35.4346 15.4955
Au 24.8621 30.8785 26.9343
Au 31.8287 31.9858 20.8597
Au 10.6926 34.4625 17.0374
Au 14.784 27.4464 21.5265
Pd 22.8343 33.7252 20.0519
Au 21.2638 11.5999 4.45538
Au 8.43716 5.53625 15.9214
Pd 15.7086 7.30661 11.5356
Au 13.7214 6.98025 8.25279
Pd 16.0983 24.4349 6.98951
Au 13.5616 9.20657 12.7384
Pd 22.189 13.8705 11.3478
Au 19.6105 4.80574 29.5671
Au 23.9265 15.5508 17.9509
Au 15.3359 31.9751 26.9606
Pd 23.7182 7.92426 18.3695
Au 19.5114 13.4906 35.7272
Au 11.1583 7.83802 8.91064
Au 13.761 19.8826 21.5858
Au 12.5269 9.91123 28.2027
Au 16.9391 10.2672 5.33521
Au 20.5676 19.2333 9.69563
Au 17.1842 10.6804 8.2987
Au 22.5027 17.1456 8.17729
Au 3.14679 17.5668 18.569
Au 8.78965 24.1261 8.49679
Au 10.4384 10.396 8.01968
Au 6.50841 15.2231 21.9864
Au 23.9621 24.2556 14.6524
Au 14.2703 14.99 4.06584
Au 10.6394 6.62979 22.1777
Au 7.41637 13.9807 14.4208
Au 9.9344 10.8281 10.7263
Pd 10.2556 9.31743 23.066
Au 15.2223 12.728 15.9373
Au 6.17121 6.65091 16.6731
Pd 8.99148 9.87096 13.3744
Pd 8.33731 7.81576 18.1846
Au 24.6842 3.31838 23.7304
Au 11.5687 18.0711 32.8967
Pd 11.3449 21.3093 34.904
Au 21.1973 10.2493 31.904
Pd 20.0472 9.7623 20.5277
Au 16.1429 7.62723 32.1464
Pd 10.283 22.7711 33.0593
Au 14.2063 21.8211 30.6081
Au 10.5577 33.3539 26.5073
Au 5.25021 31.8334 25.1068
Pd 18.7553 24.4354 19.7645
Pd 5.34912 13.9728 24.1651
Au 23.5593 7.41459 7.1599
Au 11.2149 26.3156 12.2811
Au 11.5285 10.9147 13.0533
Au 12.6402 19.2915 4.9413
Au 6.21914 15.696 9.84489
Au 7.99297 22.7307 12.5586
Pd 27.5269 5.99973 16.8841
Pd 8.28521 14.971 28.5554
Pd 25.719 19.9015 9.00893
Au 17.4689 18.837 6.07471
Au 21.3486 2.03954 20.2095
Au 5.85459 7.39747 19.2176
Au 14.8766 10.3031 21.5644
Au 11.12 14.3366 28.8431
Au 11.4721 9.18897 18.3796
Au 8.27256 8.38943 15.5099
Au 7.4702 19.4446 31.436
Pd 13.3832 16.2334 29.1608
Au 19.0019 12.6298 25.7279
Au 3.37886 12.0426 23.6887
Pd 7.13062 26.9868 20.4888
Au 9.43843 9.15241 20.3373
Au 19.0887 13.3129 28.5448
Au 18.1885 4.66521 20.6378
Au 10.3041 16.5826 27.6193
Au 13.515 24.4653 25.1714
Au 6.89843 14.5038 26.2568
Pd 21.7142 27.3797 25.5259
Au 19.6597 9.99222 34.3935
Au 15.304 4.42376 24.6648
Au 19.6138 25.316 3.47445
Au 21.3506 21.4802 5.45908
Au 1.01758 16.27 22.8866
Au 1.97889 13.3298 19.5353
Au 13.3315 8.24433 16.4049
Au 10.9394 23.801 13.8967
Pd 10.981 15.5574 23.7595
Au 11.989 5.2086 9.66123
Au 14.3782 23.3936 18.2476
Au 9.92128 12.0577 15.0108
Au 11.2342 7.34452 31.2362
Au 3.3821 29.2764 23.1585
Au 6.72742 6.73791 14.0782
Au 4.60001 21.215 9.34704
Au 10.1041 6.47601 28.8402
Au 14.5763 9.68031 24.221
Au 11.834 3.8132 19.736
Au 10.8257 25.3556 32.7284
Au 8.69431 8.76743 9.55078
Au 15.7866 19.513 25.9175
Au 8.86995 16.4183 25.2965
Au 11.3425 5.20889 12.323
Pd 5.02123 10.6707 21.9468
Pd 4.15154 21.1224 26.4185
Au 7.06769 15.8602 30.8801
Au 1.50566 13.6117 22.2778
Au 9.49695 7.21717 24.6747
Au 24.5021 33.6089 22.1968
Pd 11.4372 11.7151 30.0465
Au 8.26606 24.189 31.9614
Au 8.96855 33.0251 21.3274
Au 7.42228 18.7272 5.60158
Pd 9.83329 19.7538 9.67876
Au 3.7643 20.9916 14.9891
Pd 4.73026 25.3969 16.249
Au 8.93473 27.4674 15.3203
Pd 4.66926 26.1302 21.2945
Au 11.2481 11.1712 20.3959
Pd 10.8455 16.209 20.8311
Au 4.04552 26.4655 13.6702
Au 23.8171 21.6877 8.56786
Pd 8.81043 16.6439 22.5345
Au 6.54176 25.0258 23.0058
Au 17.4807 33.3515 25.8645
Au 10.6169 7.09719 16.5731
Au 12.7788 6.01255 18.0351
Au 6.21182 9.3761 13.7585
Au 12.0535 20.8368 32.3245
Au 16.4178 22.3786 29.1715
Au 9.02233 31.9372 28.3171
Au 11.3991 18.2706 22.6715
Au 6.48948 19.7534 26.4984
Au 0.877064 21.6321 17.9565
Pd 18.428 29.6797 16.2098
Au 19.9023 29.3661 25.6338
Au 17.1963 30.5721 25.2214
Au 8.58028 28.2872 30.1664
Au 17.6491 24.9203 34.2524
Au 21.3403 22.3893 31.4497
Au 17.5657 20.2127 28.1266
Au 4.12495 16.2262 23.1198
Au 3.53686 27.7895 16.0491
Au 7.27712 21.365 5.55906
Au 12.3616 15.4171 26.3138
Pd 7.39 17.5077 12.9748
Pd 15.8468 34.6181 19.1398
Au 5.05728 20.4641 28.9425
Pd 5.89702 16.8035 17.8524
Au 11.5417 12.2324 27.185
Au 10.276 35.1974 19.8441
Au 17.0603 30.191 7.40314
Pd 12.6415 24.3759 16.2141
Au 17.6512 23.0093 13.6845
Au 6.5167 32.2329 20.4475
Au 3.64883 10.4748 17.5203
Au 19.3062 31.6677 26.9536
Pd 9.7622 24.257 11.0014
Au 1.46081 15.6089 18.1495
Pd 8.92969 18.8492 24.0628
Au 4.19623 23.8104 26.7021
Au 6.61385 20.2364 23.8118
Au 12.4297 11.933 5.86437
Au 14.1058 11.604 26.3178
Pd 8.55231 23.8036 26.4936
Pd 10.7831 13.2284 22.4781
Au 29.188 34.0752 22.6258
Pd 6.35549 22.7643 24.9828
Au 33.6234 29.989 21.4082
Pd 9.13805 12.4516 28.6318
Pd 17.0337 30.8492 22.478
Pd 6.81954 24.2743 20.2546
Au 11.494 24.78 8.33334
Pd 16.7543 22.5945 19.1984
Au 23.2436 28.6088 11.2725
Pd 24.7477 28.6383 14.1815
Au 13.2521 21.6803 15.7748
Au 4.47862 18.3565 16.0727
Au 13.2891 27.9871 13.2125
Au 19.172 27.9331 3.97346
Pd 8.27056 21.8661 9.98853
Au 12.5159 28.311 26.4505
Au 14.4176 26.1322 11.4738
Au 15.9181 28.2721 12.2354
Au 19.5438 33.345 8.17505
Au 0.0350827 20.4547 20.4851
Pd 9.75223 25.8189 30.2647
Au 0.666061 18.9384 18.0849
Au 3.45164 23.7707 13.9912
Au 6.05962 12.4552 28.1455
Au 12.2639 28.6494 21.4343
Pd 12.7325 32.2778 22.681
Pd 12.459 25.8994 30.4714
Pd 13.3521 16.9315 21.3538
Pd 6.3742 25.2961 25.7639
Pd 13.1229 19.3712 34.5462
Au 12.7482 31.9092 25.5476
Au 7.80014 20.2658 28.8853
Au 27.5245 36.9016 17.9569
Au 6.93916 27.9507 25.9222
Au 10.6946 24.6902 28.0036
Au 4.10849 13.8353 26.7821
Au 6.99957 27.5819 9.26366
Au 22.9629 36.2281 16.2835
Pd 5.26695 19.0769 13.6439
Au 10.4102 21.0571 14.3212
Au 27.3139 20.9032 11.2214
Au 26.3605 37.5091 20.4745
Au 6.31412 20.1342 11.1096
Au 19.3715 20.5029 7.35885
Au 12.617 19.7387 9.74617
Au 26.287 30.758 22.041
Pd 22.6289 30.1642 13.4069
Au 19.6985 33.3487 15.6863
Au 8.0688 31.5854 25.8389
Au 10.5312 30.7858 21.6641
Au 15.5131 36.3118 14.8284
Au 13.1936 31.0581 20.2262
Au 1.87222 21.2027 22.4771
Au 15.2063 32.0663 18.5453
Au 8.96317 23.1692 23.6254
Au 23.9644 11.5991 4.79692
Au 11.6182 32.5783 28.846
Au 27.9263 28.1312 25.623
Au 12.8016 30.8614 30.7836
Pd 19.4817 31.0869 21.3578
Au 23.8184 33.3161 26.5834
Au 7.67124 21.7448 32.949
Pd 23.4554 10.7904 26.9508
Pd 17.4186 28.0422 26.3095
Au 13.7813 12.0831 19.9266
Au 32.8797 8.94383 12.3352
Au 24.4551 5.83079 9.31226
Au 19.417 17.4805 7.92279
Au 14.7948 10.2018 15.0266
Au 11.7988 4.55931 27.6561
Au 24.1927 2.8463 16.3429
Au 13.7603 14.762 12.2994
Pd 19.0936 13.8943 18.7047
Au 11.0628 9.64629 15.5649
Au 14.5477 11.5611 34.6452
Au 24.576 8.34641 26.102
Au 17.6418 23.1648 21.9816
Au 17.7012 6.68791 15.4267
Au 9.00817 17.1835 32.2522
Au 26.2744 2.94458 21.4933
Au 8.745 19.87 12.2033
Au 20.0279 22.4439 12.4365
Au 16.2636 15.2973 6.17637
Au 19.7694 9.31425 4.74104
Au 14.1106 8.23175 19.1502
Au 29.2655 16.7279 5.88475
Au 11.585 14.4667 5.46388
Pd 5.16422 21.8144 12.817
Au 8.85226 12.1434 19.3813
Pd 21.1695 4.79115 20.4829
Au 15.329 7.7586 29.4124
Au 32.0655 8.1756 17.1691
Pd 13.5991 5.63661 15.5607
Au 14.2467 12.1554 13.0407
Au 4.08067 9.33684 19.8151
Au 15.762 18.1544 22.0566
Pd 13.2183 5.88468 25.9248
Au 28.6965 17.0213 29.1546
Au 27.5182 10.4407 30.7888
Au 19.9283 3.34809 22.2956
Pd 12.8042 23.0619 27.8459
Au 20.3 0.731625 22.3063
Au 21.3498 9.90715 13.3473
Au 15.4766 6.01105 27.3221
Pd 17.6097 15.5695 29.0121
Pd 14.1311 21.7501 25.627
Au 17.9779 14.4492 31.4929
Au 17.4113 18.1311 19.8321
Pd 5.62709 28.1018 11.5976
Au 10.9174 12.6547 32.7399
Pd 9.06968 15.9695 9.19267
Au 26.1842 21.8459 4.25161
Pd 6.00451 16.2633 14.9634
Pd 4.30817 21.9657 19.2643
Pd 5.99274 12.1694 13.0293
Au 22.3485 23.2867 16.6096
Au 16.3669 13.6201 8.69875
Au 15.4208 21.6412 13.9005
Au 14.1608 4.59319 29.2622
Au 4.42529 30.4445 19.7504
Au 13.2062 3.47361 11.4557
Pd 20.6102 20.4107 14.5695
Au 21.9487 7.43017 20.8676
Pd 11.5106 19.3795 12.2521
Au 31.0168 10.8332 13.3769
Au 2.61525 14.5667 24.5927
Au 27.305 3.56093 24.0422
Au 9.82572 20.8677 19.1262
Au 32.4287 17.1127 21.3627
Pd 17.4227 27.9304 29.6728
Au 33.4085 12.7183 26.346
Pd 13.3133 13.6566 17.6102
Pd 18.9719 23.8483 24.3684
Au 17.615 6.60568 22.5954
Au 24.9566 18.3511 33.0371
Au 14.8976 7.68209 22.0355
Au 13.8044 28.7349 32.2077
Au 15.4956 15.447 22.4424
Au 9.915 11.7243 24.5655
Au 19.0431 21.929 29.8588
Au 13.6834 32.6357 10.9661
Au 10.2222 24.9619 5.96027
Au 14.5325 26.0093 17.1576
Au 27.6833 24.0665 5.12847
Au 14.157 24.5314 9.06446
Au 14.5991 36.5954 20.3405
Au 0.722501 17.7593 20.474
Au 2.25015 17.3704 24.9872
Pd 7.78773 7.92731 11.9225
Pd 9.57799 23.1527 20.7757
Au 7.3303 32.2626 23.3186
Au 11.2738 18.8788 2.78521
Au 6.57669 17.2084 24.0603
Au 19.268 18.6199 16.4302
Pd 6.93466 18.6873 21.5701
Au 9.58297 19.9469 33.2706
Pd 3.65869 15.747 16.4614
Au 6.59971 22.4642 22.2051
Au 16.3746 6.70892 19.758
Au 22.4255 15.8342 28.5769
Au 13.224 23.4135 32.5913
Au 14.3971 20.772 28.079
Au 12.0308 24.0246 34.8242
Au 15.5565 19.8208 35.4845
Au 15.756 10.095 31.239
Au 2.63157 15.8317 20.7734
Au 19.7343 18.358 36.8399
Au 16.7307 10.2496 33.907
Au 15.7301 26.9572 33.7329
Pd 13.1797 27.2741 23.7802
Pd 6.81897 9.92916 19.7254
Au 13.7046 23.0184 2.27985
Au 5.7328 15.0123 12.4624
Au 6.20078 25.124 8.55531
Pd 27.0669 14.9829 30.1552
Pd 8.29982 26.4762 7.24622
Pd 9.53155 18.6816 20.7977
Pd 10.9638 14.3311 16.1884
Au 8.84869 25.4356 13.3926
Pd 12.4072 26.852 9.87453
Au 15.6 24.6021 1.385
Au 11.6479 26.6121 15.0183
Pd 33.0344 23.3472 15.7954
Au 4.65942 16.2475 25.8755
Au 6.07078 30.7986 12.4241
Au 6.65934 12.5745 21.0519
Au 10.0617 33.9493 14.3106
Pd 18.8472 28.9137 23.2181
Au 7.10381 13.2143 30.3813
Au 12.8692 3.12884 24.6223
Au 11.2091 7.72298 26.6688
Au 11.3218 20.9395 21.4019
Au 0.433064 18.9628 22.939
Au 14.3308 30.0295 22.6695
Au 4.14251 24.811 18.9252
Au 13.483 24.7159 13.6573
Pd 21.9017 12.4031 24.9021
Au 17.2054 21.8531 25.8417
Au 16.2479 28.3953 23.7769
Pd 22.3804 7.84003 15.9556
Au 24.1994 21.0676 5.93183
Pd 12.4203 23.3962 20.9327
Pd 3.51987 22.9744 16.8604
Pd 13.0286 30.7934 17.4038
Au 11.2328 17.494 9.20722
Pd 9.43542 29.2653 8.82056
Pd 11.133 29.5641 19.0136
Au 22.4216 34.4451 12.0352
Au 14.3861 3.37239 26.9057
Au 17.9515 25.2334 15.26
Au 8.67136 5.09574 23.1361
Au 8.60438 23.0254 15.198
Au 10.584 21.8173 11.6222
Au 4.0529 24.622 24.1601
Au 6.41507 31.904 17.8334
Pd 21.5025 22.0458 24.0408
Pd 17.4909 31.9578 16.9645
Au 15.4622 23.8251 15.5904
Au 9.1791 30.7252 11.8353
Au 13.0812 22.244 23.2816
Pd 24.9973 15.1938 35.1912
Au 26.3424 26.2208 6.16178
Au 3.24913 13.1231 17.0578
Au 14.7284 36.4659 17.454
Au 18.1122 20.5072 35.9645
Au 7.69705 27.6591 23.0716
Au 22.2345 18.7377 35.4724
Au 15.7177 15.2982 32.9388
Au 18.8813 34.0738 28.1246
Au 13.1841 30.5895 27.9833
Au 28.5236 11.4627 14.8212
Pd 15.187 19.0405 9.99596
Au 6.85356 13.1155 10.5619
Pd 27.6899 18.3819 9.93279
Pd 30.0344 19.1258 20.2222
Au 7.14296 19.8786 8.14908
Au 21.8335 21.4901 10.7464
Au 22.1551 28.4624 15.4591
Au 16.3406 18.3497 17.2663
Au 11.87 29.79 24.0576
Au 16.3551 36.2475 22.5547
Au 2.56349 26.6496 22.975
Au 23.7608 27.3846 23.7218
Au 10.6358 30.5755 26.5853
Au 8.8405 30.9642 19.259
Au 12.2078 36.4657 21.2604
Au 28.5667 23.2671 10.0473
Pd 12.7587 30.1663 14.7226
Au 15.7324 29.6333 17.4604
Au 20.5135 8.15741 30.003
Au 21.7606 35.7177 21.5953
Au 18.1057 34.5155 10.3198
Au 6.53164 22.1594 30.5415
Au 2.51776 11.2769 21.206
Au 19.8737 34.1698 22.9361
Pd 3.07489 20.1957 17.4232
Au 31.073 17.6724 33.4565
Au 25.2621 34.7562 24.7695
Au 6.14301 31.3909 15.1214
Au 4.78689 20.4222 21.5841
Au 14.6133 29.1142 6.68532
Au 23.4668 16.9185 13.4627
Au 19.4315 14.0285 11.2971
Au 10.4589 31.7563 17.1256
Au 20.6545 29.1487 17.9889
Au 17.8701 18.4333 10.2322
Au 8.6604 23.2661 18.1647
Pd 26.9354 33.2395 20.6721
Au 28.1895 18.8428 4.62838
Au 6.76571 29.3332 19.0073
Au 24.7022 21.8389 15.8332
Au 18.2499 35.6232 15.029
Pd 22.182 32.7386 8.32949
Au 17.405 36.5881 17.4078
Au 10.2252 32.3853 24.0116
Pd 25.0532 35.2554 20.1729
Au 2.92979 18.4351 22.2374
Au 12.4364 34.4034 24.6579
Pd 19.8915 31.6925 18.3635
Au 4.80181 11.5096 15.417
Au 13.4799 3.35125 14.1995
Au 15.1648 34.3463 9.39311
Au 20.6813 20.9539 36.1081
Au 11.1301 34.339 22.2695
Au 25.6443 31.7601 17.5526
Au 21.9784 21.2001 33.842
Au 22.9557 25.8377 33.9694
Pd 5.43471 28.7294 21.5444
Au 20.1825 36.2847 16.8134
Au 31.5775 32.8739 18.2179
Pd 11.6791 17.1307 6.51759
Pd 7.61614 14.052 8.09061
Au 25.8351 12.1459 26.4422
Pd 18.6205 11.8482 4.07909
Au 8.04068 11.4149 8.76951
Pd 32.0256 5.56699 20.928
Pd 19.3522 7.12161 20.2779
Pd 22.0962 6.77892 25.0761
Pd 26.5052 5.22673 19.7276
Au 20.2722 4.57724 24.8362
Au 11.0634 3.83375 22.4868
Au 28.4346 13.0162 31.4159
Pd 17.6213 3.95807 23.3821
Au 14.5497 4.14882 19.2218
Au 32.1809 17.9026 26.2771
Pd 30.258 10.4261 18.4312
Au 20.7629 8.39985 11.0792
Pd 9.87158 17.3979 11.6969
Au 23.5486 26.3816 6.0127
Au 16.0355 9.96428 12.1994
Au 21.0499 13.3045 6.71714
Au 14.7574 17.0186 13.473
Au 12.2168 12.6766 11.1131
Au 18.4476 6.03935 17.9986
Au 18.0968 11.5871 19.9912
Au 27.9563 3.03735 19.2995
Au 11.9152 16.6971 13.4728
Pd 15.7282 5.75578 17.2626
Au 14.0092 17.745 2.77948
Pd 32.0537 14.7197 17.0364
Au 25.1929 14.4203 25.0111
Au 21.2218 3.10932 16.0128
Au 15.159 3.21001 16.5373
Pd 19.1969 10.0801 25.1559
Au 18.0503 16.3029 22.5757
Au 15.8249 23.4324 24.062
Au 12.4524 7.87329 24.0105
Pd 7.83305 11.9592 26.2628
Au 26.6664 23.7639 14.9572
Au 26.8969 7.96651 29.8028
Au 22.8068 5.2834 22.846
Au 25.5615 4.00584 26.2659
Au 11.9263 20.9888 29.4652
Au 13.6118 18.9344 30.9186
Au 11.0226 16.5256 30.5082
Au 33.0846 9.60022 14.9049
Au 21.0269 15.5534 13.1955
Au 32.1828 19.7661 22.031
Au 27.8479 28.2649 7.223
Au 9.2757 15.5723 6.51069
Pd 28.476 12.7619 8.45349
Au 26.851 3.40872 16.8519
Au 16.3379 13.8721 11.5824
Au 3.63499 16.5835 13.8402
Au 14.0389 21.7761 10.5107
Au 0.107471 15.1006 20.4852
Au 6.03323 9.26852 16.9675
Au 10.8445 22.3831 16.7448
Au 11.0709 4.77053 15.0506
Au 24.4989 17.6881 16.1324
Au 26.3539 30.7443 14.921
Pd 20.2477 6.13283 22.6811
Pd 32.7189 10.0612 19.6994
Pd 5.07276 17.0068 20.5766
Pd 19.2063 18.6125 21.7828
Au 16.125 14.66 14.2439
Au 17.833 20.3847 14.8692
Au 20.017 18.9364 19.0715
Au 17.1037 32.5 29.2704
Au 34.2415 8.84669 24.1739
Au 25.7694 17.0496 24.1363
Au 5.86323 25.0457 28.3962
Pd 14.7694 17.4512 19.1935
Pd 17.449 17.6656 27.0823
Au 23.5159 5.84721 27.3296
Au 20.3354 22.7242 3.24539
Au 15.1044 12.5694 4.82282
Au 16.3692 16.8855 3.70416
Pd 6.85601 25.9353 18.0932
Pd 17.3435 12.7382 6.32007
Pd 16.9297 24.9452 17.8244
Au 10.8389 29.1036 16.3601
Au 14.2117 10.0926 5.09315
Au 14.8182 14.297 25.3482
Au 12.3293 32.7478 15.2231
Au 25.9545 27.7463 30.4949
Pd 12.6152 12.048 15.3224
Au 6.96056 7.10385 23.7907
Au 8.93249 10.3152 17.4142
Au 12.1119 18.7437 19.641
Au 23.3672 18.1395 23.8863
Au 3.41884 23.0225 11.2446
Pd 6.10318 23.3352 17.7733
Au 11.0699 28.0341 31.4844
Au 24.8857 7.97374 20.8968
Au 21.7586 18.0151 15.3725
Au 23.1424 18.2311 18.5383
Pd 18.0988 29.6294 18.9619
Au 9.273 21.6895 30.7856
Pd 22.5001 15.0589 24.7172
Au 30.9627 7.90525 19.7793
Au 10.5186 27.4369 23.2595
Au 10.9163 20.7079 24.075
Au 15.0822 28.5034 27.8239
Au 19.4226 28.8273 32.2741
Au 20.3731 18.6819 5.53462
Au 24.9603 24.2189 4.75062
Au 31.5689 17.2538 14.3119
Au 14.9673 28.1496 9.49722
Au 19.6794 8.62307 15.8971
Au 30.8015 19.6358 12.9904
Au 12.3892 16.1608 18.4119
Pd 17.851 20.3226 18.077
Au 7.6805 18.9743 18.5525
Au 7.13001 29.9785 10.2087
Au 8.79602 12.5382 12.5043
Au 23.2564 20.4164 22.3891
Au 6.38586 27.9566 16.3192
Au 29.388 23.4725 20.0236
Au 9.47555 14.2775 31.0836
Au 13.2934 25.9435 27.7835
Au 14.2514 19.6286 12.4209
Au 2.88877 28.1719 20.6552
Au 25.8453 17.3823 18.6585
Au 9.34046 4.55643 20.5331
Au 2.14148 25.4613 15.6992
Pd 4.30409 14.817 18.9485
Au 17.4786 24.8004 30.0746
Pd 12.3102 13.1628 24.7432
Au 20.6947 20.8739 21.6817
Au 24.9436 18.8388 26.2138
Au 11.482 24.1703 18.6634
Au 31.029 8.25848 28.2376
Au 13.0542 28.3664 29.5888
Au 8.99704 11.4192 31.1757
Au 35.1968 20.941 11.8532
Au 1.27825 22.8797 15.4614
Pd 8.87904 14.2869 21.082
Au 2.02353 21.5853 13.0867
Au 12.8667 21.9341 13.0771
Au 5.27605 7.9094 21.7905
Au 17.3967 33.1181 14.2329
Au 23.4313 29.211 18.0107
Au 19.0187 25.8796 22.1583
Au 4.16306 18.4611 27.2882
Au 9.65075 17.4959 4.65245
Au 11.0142 28.8564 10.9618
Pd 15.6965 20.8299 23.4258
Au 14.4266 35.3671 11.7526
Au 21.3823 25.0647 23.98
Pd 20.0858 28.5623 20.622
Au 27.902 29.4321 9.88039
Au 20.4357 23.5566 21.8622
Au 16.9846 8.47707 26.5456
Au 9.625 26.6286 9.68603
Au 5.1457 19.2913 19.1334
Au 8.45454 28.01 11.7883
Pd 26.4596 21.1777 26.4966
Pd 22.3411 14.9688 31.4264
Pd 8.32686 26.3315 27.7879
Au 24.2902 20.4548 34.9817
Pd 14.1334 34.7937 22.634
Au 6.32588 29.7756 24.0412
Pd 11.1364 23.0066 25.5877
Au 28.7069 19.1755 22.5902
Pd 15.3491 19.3934 4.60433
Pd 7.29619 20.6814 14.2753
Au 24.556 18.4338 6.77374
Au 20.8335 20.0401 3.0259
Au 21.8975 26.7726 17.7211
Au 22.146 19.763 7.44353
Au 18.6312 31.8936 11.793
Au 27.3882 28.1733 14.5406
Au 15.8125 31.0181 5.08111
Au 22.1648 30.1761 8.9484
Au 12.6237 21.4499 18.9081
Au 9.37278 15.8236 14.1533
Au 26.8599 32.9248 23.4416
Au 4.62114 25.5738 11.0583
Au 20.8518 19.2423 23.901
Au 13.369 33.9832 27.1827
Au 13.374 33.7308 17.5346
Au 19.7412 36.2125 19.5231
Au 33.4709 12.2473 29.1328
Pd 19.2549 31.7983 24.0394
Au 20.2233 33.4864 20.3244
Pd 17.7388 28.3549 9.36754
Au 13.4202 14.7028 15.0192
Au 32.1883 6.20066 23.7929
Au 14.9803 22.4731 21.2139
Pd 16.9812 27.4169 16.5403
Au 19.728 19.8077 31.4647
Au 11.3615 25.9243 25.697
Pd 26.0866 6.28367 27.748
Au 20.6416 15.2779 37.5111
Au 36.6176 16.1982 15.1178
Au 34.3381 27.8473 17.7997
Au 2.49079 18.9391 13.7052
Pd 9.90311 31.2101 14.5864
Au 24.0511 32.5657 13.5096
Au 20.8494 26.6331 5.6747
Au 7.3447 25.589 11.0503
Pd 18.556 18.5577 3.32106
Pd 26.7033 35.4824 22.457
Pd 1.88021 17.6742 16.0603
Au 23.6012 23.7419 23.6298
Pd 29.2728 34.1205 13.3764
Pd 15.6941 21.2942 16.8167
Au 8.21664 32.9678 16.0063
Au 26.7924 34.3899 18.1676
Au 10.0314 33.3755 11.4696
Au 37.0052 27.4344 18.4261
Pd 5.96398 24.5225 13.1564
Au 11.0186 19.6419 16.8562
Au 23.7191 37.6404 20.678
Au 22.03 28.1182 32.6413
Pd 25.79 33.4547 15.4733
Pd 19.1942 19.5371 26.0329
Au 12.2341 34.7679 10.2546
Au 30.1646 24.5967 31.832
Pd 23.9751 22.2579 18.4693
Pd 17.169 30.2048 27.9457
Au 29.5415 26.444 29.7063
Au 16.5523 22.429 34.5681
Au 18.5496 12.3314 33.3366
Au 24.0808 11.4909 13.6868
Au 21.1027 4.42577 13.6226
Au 19.6051 15.8189 15.5337
Au 22.5988 11.3804 18.2504
Au 9.59948 6.31378 10.582
Au 27.9253 12.1978 17.9911
Au 11.2255 13.8724 13.3988
Pd 15.5533 10.2231 28.1888
Pd 15.5324 5.00961 21.8318
Au 18.3114 8.87257 18.3631
Au 16.4935 6.89211 8.72434
Au 18.6941 1.91142 20.2722
Au 16.2194 13.0211 18.5039
Au 12.0195 18.4789 28.536
Au 25.1735 2.92246 18.9695
Au 19.2652 6.95264 9.02171
Au 31.7849 19.5361 8.51291
Pd 7.79035 29.5491 13.9876
Au 25.2448 17.1364 9.3607
Pd 21.4562 6.20441 18.245
Au 22.2549 10.7895 6.92376
Pd 11.7039 13.7957 19.9366
Pd 5.80779 14.0959 16.6323
Au 21.8824 6.48207 9.18816
Au 34.6001 15.8289 10.4175
Au 27.267 19.3342 19.994
Pd 22.0869 12.3017 9.14868
Au 25.0119 15.6949 7.02035
Au 9.83814 20.1102 5.09102
Au 24.4992 17.9921 21.0387
Au 25 20.7359 20.3563
Au 15.2665 7.53597 14.3275
Au 17.0349 2.54803 25.6992
Au 17.0651 3.4868 18.4875
Au 13.0622 6.04313 20.6886
Au 8.41795 7.91309 27.2699
Au 22.3979 15.385 15.6546
Au 33.5707 7.20054 19.2651
Au 7.92595 6.87616 21.0213
Au 8.69982 26.9173 32.462
Pd 32.4321 18.0433 10.6417
Pd 23.0766 18.4562 28.2155
Au 7.69752 10.2794 29.0427
Au 14.7366 12.3558 23.4878
Au 14.1662 9.12162 33.2852
Au 18.0196 15.6128 9.64269
Au 19.2299 12.7081 8.82597
Pd 15.3385 23.6003 11.9275
Au 15.3848 24.0372 4.17338
Au 12.5054 10.039 10.1852
Au 11.9656 24.144 3.96064
Au 17.8466 23.5981 2.23864
Au 23.7361 16.5711 4.72756
Au 23.24 24.8445 18.9419
Au 13.8937 14.4436 9.62912
Au 22.4578 20.1933 30.2394
Pd 8.34915 14.0611 23.8018
Au 5.04604 11.629 25.7243
Pd 16.9753 15.4229 20.0093
Au 19.9959 22.0867 26.3242
Au 22.6081 3.66268 18.3651
Au 27.5558 7.47577 21.2542
Au 7.02789 26.1179 30.4849
Pd 16.9628 25.6885 12.5926
Au 18.1138 7.89488 33.853
Au 35.1453 16.6512 12.915
Au 24.9065 5.36291 17.6112
Pd 23.088 27.1802 30.412
Au 17.7232 8.97631 29.5286
Au 12.4215 11.0478 22.8409
Au 15.4122 15.8175 27.4901
Au 35.3159 11.4414 24.6523
Au 26.6311 12.1979 23.641
Pd 22.9995 12.1719 31.3415
Pd 26.8895 20.4512 31.9336
Au 26.1541 7.10948 13.3398
Au 32.7186 18.9529 19.4002
Au 29.4047 11.6709 11.1147
Au 29.2399 26.3568 20.7555
Au 20.2122 5.71561 15.8927
Au 25.4016 8.52634 8.98401
Pd 17.3363 9.28388 14.6713
Au 17.149 14.1754 3.86955
Pd 16.6634 21.0855 11.4073
Au 13.0267 7.31057 10.8663
Au 22.7464 21.865 13.6149
Au 27.7999 21.5977 21.2197
Au 32.0935 23.6067 11.0768
Au 11.1793 16.9811 16.0425
Au 10.2998 19.1932 30.7023
Au 34.498 20.9578 19.972
Pd 18.8868 13.7796 13.8539
Au 30.5488 27.6648 25.2574
Au 23.3952 13.5739 26.9582
Au 1.4631 24.2742 18.0271
Au 22.4961 15.8184 20.3042
Pd 32.1297 29.3155 23.8506
Pd 21.1695 17.8076 30.1089
Au 17.4091 8.97648 21.0687
Pd 25.2403 15.0683 20.2738
Au 19.2979 7.34054 25.0309
Au 15.4166 14.2765 30.1646
Pd 14.6909 31.1424 13.0517
Au 13.1977 9.1459 30.6936
Au 18.9404 26.391 27.8597
Au 13.7783 16.8987 8.41417
Au 20.834 15.0883 9.07214
Au 23.2675 26.6399 13.2073
Au 35.3728 11.3451 19.0708
Pd 28.0198 18.7482 12.7086
Au 37.3265 15.7827 18.8697
Au 27.356 10.0715 7.71279
Au 26.4881 25.782 26.3005
Pd 25.3146 24.2245 17.2569
Au 22.2519 24.6192 4.14994
Au 13.633 28.4412 19.0251
Au 20.5311 28.0692 9.13856
Pd 26.593 14.3512 13.5022
Pd 25.9175 22.987 9.76901
Au 19.4103 34.4587 12.6863
Au 18.786 21.2547 23.6292
Au 18.0633 26.0259 5.6216
Au 25.0975 33.9884 11.3866
Pd 25.3466 19.9343 17.7056
Au 25.7151 9.36066 11.6684
Pd 19.2317 26.6847 24.7809
Au 31.3508 13.5326 27.9117
Pd 21.9882 32.433 22.3536
Au 4.89276 31.3443 22.3662
Au 22.8025 3.99715 25.5662
Au 9.29043 25.6485 19.3133
Pd 24.1873 34.2975 17.7144
Au 18.1847 15.739 36.7333
Au 29.1784 21.9819 31.544
Au 15.3094 32.681 21.3212
Au 14.4736 19.4288 7.27821
Pd 30.0573 22.0093 11.8355
Au 25.9104 21.4251 13.4884
Pd 28.6597 32.0357 14.9448
Au 32.4801 29.7822 14.0906
Au 29.2513 25.8537 6.68483
Pd 19.4604 11.0854 6.58985
Au 8.51889 20.7542 16.6823
Pd 30.9486 17.7329 23.7561
Au 20.4397 31.0594 6.86057
Au 10.8265 27.3512 7.32617
Au 9.19497 21.5777 7.37883
Au 23.9802 19.5255 14.0682
Pd 31.1432 16.6464 19.0217
Au 29.0205 23.7456 29.5511
Au 25.0399 12.8511 18.1559
Au 21.7445 17.4509 25.9714
Pd 23.0826 29.6533 25.183
Au 15.3697 23.6908 27.0436
Au 7.90804 32.5763 13.2959
Au 31.7461 26.3657 27.5225
Au 17.5789 18.8906 23.9304
Au 23.5434 25.6378 21.6182
Au 14.0379 24.9523 22.4608
Au 28.3931 16.6388 23.9328
Au 13.4728 16.607 24.0248
Au 13.138 14.2658 22.263
Pd 23.6654 13.5866 33.4619
Au 26.5926 23.1993 31.352
Pd 23.7914 28.9389 28.4681
Au 18.6063 30.3819 4.94299
Au 27.2854 30.7729 19.3851
Au 18.725 15.9455 2.54447
Au 19.9762 9.96111 8.97535
Au 4.95445 29.1014 14.1786
Au 8.50206 33.5796 18.6231
Pd 19.0029 25.8726 8.17908
Pd 12.2806 34.2252 12.8883
Au 18.1819 30.3867 30.5484
Au 13.1381 17.3504 11.1408
Au 5.03619 27.21 23.9627
Au 9.38276 22.7847 4.54247
Au 31.034 19.9639 31.753
Au 20.3378 24.0143 6.01911
Au 31.6157 24.9751 20.4211
Au 28.9364 32.228 24.973
Au 20.1498 34.2335 25.6935
Pd 17.0896 32.3672 9.0662
Au 21.9132 25.0872 31.6146
Au 19.0637 36.7593 22.1421
Pd 27.9451 23.3571 27.0975
Au 30.4569 30.2802 25.9159
Pd 8.92286 27.9505 18.0314
Au 22.2697 10.9127 22.6266
Au 32.5451 30.123 18.8289
Au 14.7679 24.5623 34.7734
Au 29.1953 13.9981 22.8889
Au 13.5052 13.9342 33.7384
Pd 19.179 21.7276 19.8141
Pd 19.848 19.0516 34.1374
Au 15.3094 26.4517 14.5563
Au 17.2724 34.7295 7.76432
Pd 32.0334 28.2122 16.3178
Au 20.1908 23.12 15.0141
Pd 13.536 29.765 11.0912
Pd 11.6123 26.8639 18.0217
Au 26.6095 30.7082 7.73055
Pd 26.9804 17.1038 21.488
Au 18.4476 20.9639 1.91787
Au 17.179 37.0871 20.0308
Au 12.2905 26.6459 4.99975
Au 20.7698 24.8009 26.6273
Au 27.4261 21.4985 16.2899
Au 29.6829 33.4728 20.047
Au 15.0609 32.2973 24.1818
Pd 7.73122 30.1364 21.6077
Au 25.3941 28.9618 20.1012
Au 26.2493 28.2985 23.2201
Au 4.75242 29.9577 17.0517
Au 30.6674 33.6597 15.7836
Au 24.3942 14.5545 29.8903
Au 11.1016 32.6572 19.5505
Au 21.0204 25.8758 20.2455
Pd 13.7449 25.6477 19.6644
Au 21.7685 30.3748 27.4842
Au 20.7697 14.5329 26.7705
Au 17.3494 19.949 33.3231
Pd 21.8316 13.1279 29.1081
Au 21.0902 23.819 34.1606
Au 11.4877 26.0838 20.9342
Au 15.5031 8.65742 6.92291
Au 13.8856 14.2242 6.85814
Au 20.957 8.22308 7.00023
Au 17.5223 5.4374 10.7818
Au 33.2995 19.5167 6.45215
Au 21.7989 3.86587 28.1126
Au 21.0519 16.9574 3.54757
Pd 29.8919 19.7309 10.4251
Au 26.4371 12.494 20.6485
Au 32.1656 10.9148 10.6371
Au 31.8677 21.0828 26.7978
Pd 24.257 7.83369 29.1275
Pd 17.2847 11.2654 22.6561
Pd 16.0091 8.43156 16.986
Au 18.584 6.8122 31.2786
Au 32.5662 20.835 10.9848
Pd 14.8214 11.815 10.2585
Au 5.41828 9.32805 24.2701
Au 8.36239 15.1323 11.6864
Au 37.3102 18.8037 22.8699
Pd 18.0632 10.9212 27.6071
Au 14.762 5.16393 10.0369
Au 30.34 9.88812 21.4454
Au 23.6161 7.54963 11.2071
Au 23.5321 3.42587 13.7858
Au 26.2386 9.74992 14.4114
Au 9.32584 18.3038 7.38563
Au 20.2612 8.81497 22.9371
Au 29.242 12.2016 20.5046
Au 30.31 6.26892 15.8138
Au 21.7562 10.5702 15.8584
Au 12.784 6.9908 28.7676
Au 28.7368 6.96991 12.2964
Au 34.5083 13.9932 12.748
Au 20.5079 6.04018 27.2629
Pd 30.6693 21.6026 29.258
Au 25.7813 25.5236 23.5362
Pd 24.0567 12.9793 23.1302
Au 14.3515 14.8228 19.8217
Au 34.2339 10.1204 26.8197
Au 16.3162 13.0507 27.6799
Au 27.3288 14.1804 33.7342
Pd 17.3437 12.0039 30.1606
Au 24.6773 27.3726 32.7423
Au 25.353 10.2713 19.1442
Pd 11.99 29.1883 5.79117
Au 17.2488 30.5238 13.7094
Au 34.0543 25.4526 11.1259
Au 28.3092 14.1754 15.7442
Au 31.7026 13.1841 12.2132
Au 31.738 17.1889 6.9584
Au 19.8858 14.1961 4.34038
Au 30.5004 8.86899 11.133
Au 20.157 5.73493 11.3593
Au 23.3728 6.1722 13.5841
Pd 33.9092 17.6526 8.45645
Pd 19.6326 25.1412 13.1152
Au 34.599 21.6777 25.9167
Au 15.853 12.5933 32.4395
Pd 18.8042 10.0059 12.5839
Au 22.6179 16.6666 10.9149
Au 36.8858 16.256 21.5071
Au 27.2633 9.80654 16.9093
Au 28.2649 7.94539 14.9898
Au 19.3312 3.41364 27.1321
Pd 24.5552 12.0611 29.0521
Au 30.0524 14.8906 7.66882
Au 20.7668 7.23075 13.6601
Au 16.1197 26.0673 28.1445
Pd 8.9529 11.4721 21.9825
Au 19.5775 1.99005 24.7165
Pd 23.7627 5.60904 20.0202
Pd 30.28 24.2848 22.6472
Au 28.2736 23.6741 33.4801
Au 14.7911 20.8524 32.985
Au 22.9899 22.8121 21.0997
Pd 29.9995 17.2685 9.03363
Au 5.11623 18.468 9.13334
Au 11.3366 22.1918 9.0742
Au 16.2844 19.2467 2.00369
Pd 16.9343 20.2515 8.46669
Pd 29.078 13.526 13.0575
Au 30.9782 27.2088 13.8142
Pd 16.5786 25.8588 23.2102
Au 37.7757 24.9133 17.5414
Pd 5.80396 20.7174 16.926
Au 17.1566 17.0591 15.088
Au 30.1087 14.6432 30.1469
Au 36.8379 21.9426 13.9028
Pd 33.6254 17.2531 23.9454
Au 7.5978 24.089 6.08882
Pd 18.3514 18.0926 29.7846
Au 9.70692 13.3542 9.78716
Pd 19.2812 11.2703 14.982
Au 19.1491 19.9638 12.146
Au 28.4833 9.59053 28.1203
Au 30.4766 12.4816 16.3801
Au 27.4273 7.71945 26.0556
Au 32.9546 12.6911 15.0027
Au 10.6465 30.0125 29.4249
Au 17.7154 5.31004 25.8286
Au 16.8863 3.86149 28.188
Au 29.911 22.5735 25.2059
Au 11.1511 15.3581 33.0804
Au 27.6982 21.6452 24.0312
Au 34.5695 9.15226 17.7631
Pd 27.8763 30.4682 27.166
Au 24.8466 9.6615 6.46837
Au 26.1112 16.9799 13.801
Pd 35.1079 22.0977 17.1628
Pd 13.4422 24.3357 6.23422
Au 29.3261 18.7766 15.1488