1687
Atoms. Timestep: 20478
Au 9.94885 6.63322 9.72657
Au 8.62373 5.8878 12.0929
Au 9.68585 3.9247 13.6219
Au 8.40577 4.74226 18.3298
Au 8.49367 4.92003 21.1955
Au 9.06175 6.88397 27.2658
Au 9.63804 10.1909 30.7659
Pd 8.97701 8.78345 8.26817
Au 7.62811 8.0049 10.6415
Au 6.62445 10.0839 9.14126
Pd 7.48825 5.29646 14.4925
Au 6.46422 7.36254 13.0532
Au 7.4082 6.83848 16.7804
Pd 6.49511 8.96955 15.2795
Au 9.44217 2.74696 19.8542
Au 7.45365 7.00798 19.6833
Au 7.75043 5.97813 25.0517
Pd 7.64166 7.22182 22.5718
Pd 8.22894 9.20129 28.53
Pd 6.88161 8.24091 26.3203
Pd 8.82747 12.5397 31.9166
Pd 7.36628 11.4833 29.8204
Au 7.96722 10.8958 6.84136
Pd 5.49736 9.46166 11.5978
Au 4.48419 11.5013 10.104
Au 5.45823 11.0507 13.8273
Au 4.40367 13.1445 12.3566
Au 6.47677 9.12966 18.1427
Au 5.50344 11.253 16.6337
Au 6.56403 9.30579 21.0275
Au 5.55366 11.4367 19.4918
Pd 6.75295 9.51137 23.8853
Au 5.65493 11.615 22.3493
Au 5.97216 10.5052 27.637
Au 5.7929 11.7917 25.2038
Au 6.53369 13.779 31.0247
Au 5.14085 12.7817 28.9231
Au 5.6013 13.9449 9.90364
Au 3.39037 15.344 10.9442
Au 4.3755 18.9206 8.39163
Au 4.46876 13.3832 15.1661
Au 3.4355 15.5337 13.7136
Au 4.53011 13.5834 17.9885
Au 3.50309 15.7491 16.5062
Au 4.61307 13.7708 20.8288
Au 3.58505 15.9506 19.3221
Au 4.7421 13.9454 23.6699
Au 3.69438 16.1268 22.1508
Au 4.91696 14.1388 26.4996
Au 3.84904 16.2927 24.9768
Au 5.52414 17.5628 29.9517
Au 4.10197 16.5105 27.7358
Pd 6.8251 19.2015 9.59972
Au 2.51509 17.6908 12.2726
Au 5.04193 21.4091 9.48899
Au 2.59738 17.9273 15.0234
Au 3.16645 20.1551 13.4904
Au 2.67545 18.146 17.814
Au 3.25439 20.4092 16.2749
Au 2.77903 18.3354 20.626
Au 3.33559 20.6219 19.0519
Au 2.90645 18.5008 23.457
Au 3.43071 20.7999 21.8696
Au 3.85447 21.0641 27.474
Au 3.59095 20.9459 24.698
Au 3.09058 18.6654 26.2392
Pd 5.94772 22.6018 28.2769
Au 7.53891 21.7165 10.7276
Pd 3.17601 19.8579 10.7362
Au 5.75466 23.8877 10.6712
Pd 3.96308 22.6021 14.7129
Au 3.86718 22.3172 11.9215
Pd 4.07228 22.8388 17.5038
Au 4.68738 25.0525 15.9341
Au 4.10364 23.0716 20.2991
Au 4.78807 25.2913 18.7367
Au 4.22632 23.2365 23.116
Au 4.88921 25.4814 21.5515
Au 4.39584 23.3252 25.957
Au 5.0007 25.6204 24.4317
Au 5.72153 24.0803 30.4826
Au 4.32075 24.7343 28.2664
Au 12.0699 23.5322 10.7608
Au 6.48983 26.3233 11.8723
Au 10.2743 25.6796 10.6236
Au 4.61408 24.7725 13.144
Au 7.1969 28.7829 13.0812
Au 5.43915 27.4885 17.1824
Au 5.35436 27.1996 14.3609
Pd 5.61174 27.6997 19.9956
Au 6.22195 29.9265 18.4613
Au 5.64321 27.8701 22.8375
Au 6.34428 30.1298 21.3101
Au 4.84906 27.0228 26.8276
Au 5.42659 29.273 25.2637
Au 5.86173 28.9243 30.1033
Au 7.89048 30.5816 31.0034
Au 6.32524 20.3951 7.18857
Pd 7.78268 25.3254 9.45154
Au 8.9817 24.4001 7.06774
Au 7.92294 31.2172 14.3582
Au 8.43375 27.7746 10.5483
Au 6.07359 29.6387 15.6182
Pd 12.3079 29.4877 15.4696
Au 7.06181 32.3239 19.6709
Au 6.77892 32.0737 16.8543
Au 6.14897 31.5619 23.856
Au 8.1716 33.2681 24.663
Au 4.5252 29.5319 27.8201
Au 5.1319 31.732 26.4023
Au 12.3055 33.5144 32.5689
Pd 6.5002 31.1695 28.6954
Au 11.2492 7.39353 7.34769
Au 10.9616 4.62119 11.2711
Pd 12.2856 5.43564 8.92644
Au 11.0881 6.17732 13.5059
Pd 12.4165 6.9484 11.133
Au 10.6945 3.30274 17.4624
Pd 12.0314 4.01882 15.0313
Au 10.8044 3.59989 22.0633
Au 12.1356 2.57415 19.7747
Au 9.98856 4.72337 25.9052
Pd 12.2093 4.57936 24.2831
Au 10.4936 7.88528 29.4536
Au 11.376 5.65323 28.0911
Au 11.1327 11.2542 32.8471
Au 11.9457 8.90468 31.6466
Au 10.3051 9.55433 5.94874
Au 12.6252 8.22038 5.13553
Au 10.3865 11.2244 8.08441
Au 9.0534 10.4178 10.4882
Au 11.4063 9.03818 9.58129
Au 9.23577 13.3187 6.55283
Au 10.0702 8.28735 11.9795
Au 8.80281 7.59202 14.4035
Au 12.579 8.61039 13.3507
Au 11.5983 10.7393 11.8299
Au 9.72568 5.36833 15.9263
Au 9.83901 7.11361 18.1267
Au 12.1834 5.65408 17.2413
Pd 11.2262 7.82565 15.7395
Au 10.8411 5.00906 19.6708
Au 9.92748 7.27464 21.0105
Pd 12.2764 5.93815 21.889
Pd 12.335 7.38553 19.4581
Au 9.90884 5.83194 23.4368
Au 9.09831 8.23622 24.7769
Pd 11.3981 6.95027 25.6528
Au 11.4216 8.26277 23.2156
Pd 10.526 9.22861 27.0008
Au 9.65861 11.5383 28.3219
Pd 11.9674 10.2384 29.2028
Au 12.0324 11.6162 26.7345
Au 11.1119 12.6079 30.5098
Au 10.1541 14.938 31.8634
Pd 12.5425 13.6153 32.695
Pd 12.5153 15.0091 30.3269
Au 5.69613 12.2215 7.77059
Au 6.88029 14.7001 7.49254
Au 8.02974 12.5739 9.00617
Au 6.76793 11.8276 11.4415
Au 10.5704 12.8897 10.3222
Au 9.42921 14.9941 8.77233
Pd 7.82517 9.71585 12.9271
Pd 7.90403 11.3596 15.144
Pd 10.2741 9.99052 14.2419
Au 9.25656 12.1119 12.7587
Au 8.88146 9.24787 16.6255
Au 7.95354 11.54 17.9651
Au 11.3958 9.53914 17.9386
Au 10.4329 11.6601 16.4539
Au 8.92566 9.40841 19.4788
Au 8.02893 11.7117 20.8056
Au 11.4671 9.69271 20.7759
Pd 10.5047 11.836 19.2669
Au 9.04545 9.58736 22.3318
Au 8.14308 11.8873 23.6493
Pd 10.5642 10.6118 24.5411
Au 10.5952 11.9882 22.1017
Au 8.20762 10.5452 26.0885
Au 7.30386 12.8712 27.3834
Au 11.1424 13.9714 28.0573
Au 9.68483 12.9324 25.8366
Au 8.75977 13.9177 29.603
Pd 7.82336 16.2268 30.9026
Au 12.2883 16.4774 32.7152
Au 10.1786 16.3213 29.4513
Au 8.88311 16.1724 6.29191
Au 10.8234 17.6648 5.10774
Au 4.58639 16.1246 8.52929
Au 5.82832 15.5664 12.225
Au 8.18062 14.2481 11.2582
Au 7.07972 16.3571 9.74871
Pd 6.87034 13.4571 13.6897
Au 5.90499 15.806 15.0021
Au 9.41837 13.772 14.9724
Au 8.3771 15.8959 13.5026
Au 6.93458 13.6611 16.4769
Au 5.97313 16.0073 17.8048
Au 9.52138 13.9666 17.7828
Au 8.4646 16.111 16.2814
Au 7.0087 13.8532 19.3023
Au 6.05759 16.1888 20.6203
Au 9.60095 14.1307 20.5736
Au 8.55435 16.2934 19.0784
Au 7.0959 14.0233 22.1317
Au 6.18006 16.3438 23.4447
Au 9.68491 14.2824 23.3988
Au 8.63514 16.4525 21.8814
Pd 7.24046 14.1969 24.9418
Pd 6.37093 16.5207 26.2408
Au 8.72821 15.2717 27.1608
Au 8.7583 16.5935 24.6952
Au 6.31296 15.2081 28.7435
Au 7.60964 19.0994 30.8623
Pd 9.95659 17.8084 31.7636
Au 7.82357 17.5905 28.5096
Au 8.54212 19.0443 6.07466
Au 6.57032 17.5685 7.2848
Pd 4.86435 17.702 10.8003
Au 5.56511 20.1577 11.9605
Pd 7.33385 17.9785 12.041
Au 11.3186 20.9865 9.64733
Pd 4.92551 17.9504 13.5352
Au 5.63248 20.4236 14.7597
Pd 7.42013 18.2381 14.7929
Au 8.10465 20.4485 13.2134
Au 4.9913 18.1876 16.3033
Pd 5.73146 20.6608 17.542
Au 7.51225 18.4645 17.5651
Au 8.18963 20.7169 16.0009
Au 5.07199 18.3994 19.1014
Au 5.80114 20.8832 20.3366
Au 7.60552 18.6544 20.3672
Au 8.27857 20.9474 18.8036
Au 5.17944 18.5669 21.9193
Au 5.92525 21.0417 23.154
Au 7.71867 18.8075 23.1803
Au 8.37781 21.1283 21.6049
Au 5.33083 18.7136 24.736
Pd 6.12772 21.1382 25.9597
Au 7.85077 18.9295 26.0067
Au 8.51332 21.2554 24.4412
Au 5.45184 18.8655 27.5582
Au 5.32856 20.3783 29.7965
Au 9.73346 20.6461 31.706
Au 7.64075 20.4348 28.3715
Au 2.47834 17.4839 9.59532
Au 10.7491 22.193 7.16367
Au 8.28464 24.1882 11.896
Au 9.00892 26.6772 13.0613
Pd 10.0955 21.9994 11.9881
Pd 12.8252 26.0601 11.8576
Au 6.30841 22.6434 13.1556
Pd 7.0805 25.0881 14.3646
Au 8.87233 22.9363 14.3941
Au 10.8517 24.4975 13.1278
Au 6.40424 22.9016 15.9797
Pd 7.17475 25.3407 17.1896
Au 8.96939 23.1926 17.2314
Au 9.63871 25.4233 15.6027
Au 6.50056 23.1212 18.7812
Au 7.27715 25.5241 20.0118
Pd 9.0706 23.3818 20.0389
Au 9.75816 25.6279 18.4512
Pd 6.60081 23.2992 21.584
Au 7.36358 25.696 22.8653
Au 9.17301 23.5384 22.862
Au 9.8487 25.7902 21.2949
Au 6.72712 23.4321 24.4327
Pd 6.57098 24.8904 26.7853
Pd 8.28464 22.7247 26.815
Au 8.92402 25.0068 25.2662
Pd 8.04166 24.2045 29.1314
Au 7.69838 25.6787 31.428
Pd 7.40832 21.9347 30.6558
Pd 10.1475 25.7483 30.0406
Pd 9.53812 23.1962 9.51211
Au 10.2205 23.404 4.74473
Pd 11.4917 24.7048 8.27282
Au 9.09317 30.193 11.6737
Pd 10.9757 28.1265 11.722
Au 10.9175 25.9098 5.816
Au 9.75794 29.1778 14.2498
Au 10.6112 31.698 15.5514
Au 11.5875 27.0224 14.2783
Pd 12.9428 29.6644 10.4018
Au 7.82298 27.5385 15.5654
Au 8.58152 29.9703 16.7984
Au 10.4398 27.8877 16.8318
Au 13.6425 31.1067 17.2871
Au 7.9453 27.7707 18.4346
Pd 8.708 30.1729 19.7607
Au 10.5133 28.0446 19.7319
Au 11.1454 30.298 18.1666
Au 8.04201 27.9402 21.3024
Au 7.792 29.4344 23.6826
Pd 9.55433 27.2617 23.7085
Pd 10.126 29.5573 22.2001
Pd 7.16871 27.152 25.2402
Pd 7.00442 28.6259 27.5854
Pd 8.67262 26.4489 27.6221
Au 9.33236 28.7399 26.0671
Au 6.24506 26.3992 29.1507
Au 7.32384 28.2806 32.3102
Au 9.79098 27.1971 32.3659
Au 10.4851 29.5312 30.8183
Au 7.01072 22.9164 8.27271
Au 8.79054 20.6937 8.38063
Au 10.3842 29.2818 9.25055
Pd 9.74693 26.83 8.1895
Au 10.9728 34.4048 14.4144
Au 11.6768 28.359 6.89616
Au 11.6546 30.5515 12.758
Au 9.81132 32.5209 12.9304
Au 13.1219 32.0626 14.3653
Au 12.1923 36.2742 15.9413
Au 8.661 33.608 15.5723
Pd 9.28536 33.956 20.191
Au 11.8245 33.015 18.7358
Au 10.3245 34.9013 17.4249
Au 9.29418 32.3153 18.014
Au 10.3864 34.8447 25.4035
Au 10.711 31.8073 20.8097
Au 7.69192 34.3922 18.0087
Au 8.3132 31.8838 22.1458
Au 9.72189 32.6683 26.9828
Au 9.91043 31.1596 24.503
Au 10.4444 33.5315 22.9849
Au 7.63177 30.899 26.122
Au 10.7702 34.2551 30.3682
Pd 9.07491 30.2834 28.4665
Au 7.14191 33.3349 27.2096
Au 8.42764 27.9507 29.9238
Pd 9.38877 29.8459 33.2072
Pd 11.8584 28.7447 33.1712
Au 14.9431 33.9614 32.1332
Au 13.5967 6.19166 6.60905
Au 13.7684 7.71831 8.74347
Au 15.1216 8.44974 6.26591
Au 13.3427 4.69696 12.5957
Au 14.6883 5.49146 10.1945
Au 13.4562 3.16373 17.3491
Au 14.7797 3.8543 14.9526
Pd 13.5382 3.50057 21.9774
Au 14.8599 2.49257 19.692
Au 13.6056 5.47484 26.5259
Au 14.9411 4.35919 24.2016
Au 12.819 6.66822 30.2884
Au 15.0565 6.49174 28.7394
Au 13.4565 9.97627 33.7228
Au 14.2666 7.69409 32.4614
Au 11.6036 11.9625 5.6656
Au 14.0247 10.5784 4.82313
Au 12.7489 9.85213 7.21554
Au 12.936 11.5369 9.42068
Au 15.2982 10.1427 8.5122
Au 14.158 12.2899 6.97055
Au 13.9484 9.38929 10.9501
Pd 14.1431 11.0623 13.1386
Au 14.867 7.12068 12.415
Pd 15.4869 11.8193 10.7214
Au 13.5319 6.3545 14.8302
Au 13.704 8.09012 17.0337
Pd 14.9484 5.53878 17.1591
Au 15.0855 8.85445 14.618
Au 13.6161 4.89197 19.5831
Au 13.7963 8.32393 21.6873
Pd 15.0357 5.80395 21.8187
Au 15.125 7.27831 19.3799
Au 13.7265 6.8591 24.1121
Au 12.8939 9.29426 25.4272
Pd 15.1467 7.84464 26.3277
Au 15.2665 9.29703 23.9144
Au 12.8372 7.92718 27.8667
Au 13.474 12.6456 28.9286
Pd 14.2903 8.94714 30.0295
Pd 14.3407 10.2878 27.6084
Au 13.4361 11.2849 31.3692
Au 14.6852 15.1504 33.5895
Pd 14.9482 12.2813 33.544
Au 14.8825 13.6848 31.1892
Pd 11.2441 14.8115 5.44044
Au 13.5689 13.4238 4.47006
Pd 11.7807 13.6391 7.88251
Pd 11.9942 15.3082 10.1006
Pd 14.3653 13.9512 9.18822
Au 13.7366 15.1329 6.64971
Au 13.1327 13.1837 11.6203
Au 11.8173 12.417 14.0406
Au 15.6789 13.4694 12.921
Au 14.5506 15.5933 11.3972
Au 12.7777 10.2948 15.5425
Pd 12.9632 11.962 17.7456
Au 15.2933 10.5611 16.8269
Pd 14.3463 12.7173 15.3341
Au 13.899 9.8081 19.2497
Au 13.0346 12.1126 20.5557
Au 15.3879 10.7765 21.4983
Au 15.4988 12.2306 19.0532
Au 12.9596 10.7117 22.9998
Pd 12.0948 13.009 24.3054
Au 14.4319 11.716 25.1839
Pd 14.527 13.0981 22.7747
Pd 13.5432 14.0272 26.4981
Au 12.5953 16.3726 27.8688
Au 14.9478 15.0585 28.7406
Au 15.045 16.4254 26.3015
Au 14.6357 16.5702 31.1935
Au 14.4403 18.0284 33.5679
Au 16.8663 16.6944 34.4154
Au 16.7886 18.1396 32.0226
Au 10.479 20.5421 4.87296
Au 13.1246 16.2863 4.14461
Au 11.4052 16.4982 7.59307
Au 9.66453 16.6615 11.0527
Au 13.9409 16.821 8.88
Au 13.3236 18.0131 6.34005
Au 10.7757 14.5478 12.5402
Au 10.9653 16.1907 14.7618
Pd 13.3222 14.8234 13.8332
Pd 12.1998 16.9548 12.3281
Au 12.0094 14.0678 16.2618
Au 11.0561 16.3928 17.5548
Au 14.5528 14.3621 17.5479
Au 13.5428 16.4785 16.0516
Pd 12.0723 14.2454 19.055
Au 11.1324 16.5511 20.3367
Pd 14.6068 14.493 20.3538
Au 13.621 16.6579 18.8267
Au 12.1604 14.3734 21.8629
Au 11.2178 16.6868 23.1495
Au 13.6269 15.3788 24.077
Au 13.6836 16.7769 21.6231
Au 11.1861 15.3225 25.6058
Au 10.2273 17.6659 26.9566
Au 14.7031 17.9839 28.7265
Au 12.6647 17.7412 25.3963
Au 12.2977 17.889 30.3162
Au 12.0719 19.3493 32.6615
Au 16.6322 19.5334 34.4399
Pd 14.4184 19.4481 31.1428
Pd 11.0561 19.3496 7.3347
Au 12.712 19.1754 3.85339
Au 9.09098 17.8475 8.53371
Au 9.35222 19.4907 10.8632
Pd 11.6335 18.1621 9.83839
Pd 13.5583 19.6638 8.59255
Pd 9.87204 18.2891 13.3031
Pd 10.6371 20.7688 14.4574
Au 12.4208 18.5991 14.5539
Pd 11.8602 19.8016 12.1171
Au 9.97607 18.5411 16.0451
Au 10.7658 21.0144 17.26
Pd 12.5468 18.8196 17.3243
Au 13.1702 21.0604 15.7392
Au 10.0817 18.7422 18.8252
Au 10.8556 21.2233 20.0578
Au 12.6346 19.0027 20.0815
Pd 13.2991 21.2962 18.5385
Au 10.1612 18.9045 21.6226
Au 10.9652 21.365 22.8839
Au 12.7121 19.1218 22.8992
Au 13.3991 21.4616 21.3372
Au 10.2721 19.0277 24.4495
Au 10.0204 20.5384 26.8472
Au 12.3612 19.2681 27.8377
Au 12.4289 20.6436 25.2956
Pd 9.96665 19.1766 29.3686
Au 11.8584 22.1866 32.5719
Au 14.2175 20.882 33.5154
Pd 12.101 20.7228 30.2302
Au 12.6835 23.7145 5.93102
Pd 12.9712 20.8589 6.0895
Pd 13.9995 25.0765 9.51664
Pd 14.5651 23.8934 11.9977
Au 13.8008 21.32 10.9075
Pd 13.2352 22.5041 8.40853
Pd 12.6048 22.3042 13.2383
Au 13.3739 24.8507 14.3575
Au 15.0962 22.6298 14.484
Au 17.0857 24.2772 13.1868
Au 11.4326 23.2568 15.6535
Au 12.2477 25.7799 16.8852
Au 13.9804 23.5758 16.9699
Au 15.8781 25.1899 15.6016
Au 11.5546 23.4925 18.4985
Pd 12.3433 25.9444 19.7204
Pd 14.0912 23.7693 19.7824
Au 14.8156 26.102 18.2071
Au 11.6621 23.6629 21.3087
Au 11.3694 25.136 23.7306
Pd 13.1177 22.9668 23.751
Au 13.7702 25.2898 22.2122
Au 10.7031 22.8502 25.2861
Au 10.4313 24.3048 27.6782
Au 12.179 22.1033 27.7179
Au 12.8701 24.4373 26.1634
Au 9.76118 22.0055 29.2474
Au 9.46731 23.5029 31.5754
Au 13.997 23.7152 33.4721
Au 11.8856 23.5529 30.1277
Au 12.3832 22.0619 3.6166
Pd 13.436 26.2206 7.03538
Au 12.2398 27.2076 9.35068
Pd 14.7725 27.6282 10.559
Pd 16.5258 25.4705 10.69
Au 11.0423 31.6864 10.3317
Au 15.3756 26.4693 13.0379
Au 13.5675 28.5742 12.962
Au 18.8336 25.4506 14.9678
Au 16.3655 29.1619 12.4832
Au 14.1487 27.3848 15.5038
Au 17.1002 27.7936 14.8392
Au 15.8016 28.7476 17.2002
Au 17.7192 30.5181 15.0872
Au 13.083 28.3039 18.1239
Au 12.5237 29.724 20.6586
Au 14.3586 27.596 20.7103
Pd 13.504 32.3281 20.6556
Au 11.9526 27.4268 22.1836
Au 11.6941 28.9458 24.5534
Au 13.5201 26.824 24.6486
Au 14.0824 29.1331 23.0901
Au 11.1034 26.6095 26.1138
Au 10.831 28.0673 28.4612
Au 12.5863 25.8993 28.554
Pd 13.2656 28.2884 27.0026
Au 12.2653 27.3232 30.9375
Au 11.7114 31.2616 34.0139
Au 11.6035 25.0361 32.4893
Au 14.3662 28.9514 31.9948
Au 8.27524 21.8921 5.96834
Au 14.3409 23.5455 2.42368
Au 12.9139 27.3064 4.66299
Au 13.7116 32.3442 9.81471
Au 15.0121 33.8713 11.8752
Au 12.206 24.8962 3.55401
Au 12.3396 33.303 12.0808
Pd 12.9649 35.5895 18.4898
Au 20.8403 31.4749 11.4853
Au 19.1728 35.2002 14.1683
Au 15.2231 33.0568 15.7225
Au 15.8324 36.1042 18.7162
Pd 14.658 33.5114 18.3814
Au 14.7935 35.6772 16.3342
Au 11.8099 34.7195 20.8482
Pd 11.7406 35.9291 23.2746
Au 13.3126 33.8616 23.0311
Au 14.5429 36.3179 23.2088
Pd 12.2759 31.2729 23.0452
Au 11.8415 34.2794 27.7665
Au 11.4517 30.4232 26.9063
Au 12.1081 32.79 25.3877
Au 8.59316 32.8194 29.524
Au 13.3607 33.5637 30.0406
Au 12.9832 29.6743 29.3387
Au 14.4146 31.7988 33.4254
Au 11.2012 31.8738 29.2909
Pd 12.5885 31.0739 31.5615
Au 13.9528 29.5009 34.5888
Au 10.0257 32.1281 31.8927
Pd 16.4895 9.34137 4.11806
Pd 16.0688 6.38148 7.81934
Au 17.5125 7.22423 5.50146
Pd 16.0902 4.64267 12.5568
Au 17.4267 5.36957 10.1195
Pd 16.1724 3.10917 17.3165
Pd 17.4886 3.75675 14.922
Pd 16.2589 3.35791 21.8992
Pd 17.5544 2.4034 19.6418
Au 16.3422 5.30053 26.4431
Au 17.6689 4.15783 24.1602
Au 16.516 7.49646 30.9309
Pd 17.7797 6.27575 28.6487
Au 15.758 8.77753 34.4657
Au 18.1017 8.57569 33.0936
Pd 15.9587 12.0672 3.67324
Au 18.3104 10.7984 2.8299
Pd 16.6038 10.9462 6.17171
Au 16.7865 12.6046 8.31334
Au 17.6568 8.77285 7.62452
Au 18.4809 12.4746 4.8499
Au 16.2659 7.92941 10.034
Au 16.4737 9.64607 12.2195
Au 17.6502 6.98386 12.3449
Au 17.8625 10.4228 9.81927
Au 16.2909 6.22797 14.7741
Au 16.5093 7.96302 16.9633
Pd 17.6874 5.40064 17.1138
Au 17.8878 8.70061 14.5579
Pd 16.3377 4.79878 19.5076
Au 16.5891 8.20494 21.6336
Au 17.7779 5.63035 21.7723
Au 17.9002 7.15227 19.3127
Pd 16.47 6.69966 24.0466
Au 16.7075 10.2757 26.1105
Au 17.8948 7.63306 26.2689
Au 18.0446 9.14712 23.8477
Pd 16.6066 8.84342 28.5064
Au 15.8207 11.3082 29.7628
Au 18.1389 9.84217 30.6607
Au 18.2243 11.285 28.2799
Au 15.7957 9.98016 32.1681
Au 17.104 13.8407 34.3915
Au 17.3538 10.9662 34.38
Au 17.3049 12.3425 32.0073
Au 15.4473 14.9186 3.20834
Au 17.7466 13.6014 2.37075
Au 16.1053 13.8032 5.72978
Au 16.3077 15.4901 7.93984
Au 18.6831 14.1761 6.98683
Pd 17.9706 15.351 4.42167
Au 16.9979 14.242 10.4928
Au 17.2642 15.8742 12.6989
Au 18.0878 12.0986 12.0078
Au 18.923 15.8285 9.20944
Au 16.6852 11.3266 14.4195
Au 16.9199 12.9892 16.6321
Au 18.1185 10.4168 16.7732
Au 18.356 13.7617 14.22
Au 16.7328 9.71858 19.1923
Au 16.9654 13.1657 21.2839
Pd 18.1861 10.6362 21.4372
Pd 18.3276 12.1214 18.993
Pd 16.8441 11.7361 23.6976
Pd 15.98 14.0953 24.9653
Au 18.3156 12.7163 25.8845
Au 18.4398 14.1392 23.4964
Au 15.8823 12.7087 27.362
Au 17.0687 16.6968 29.5464
Au 17.3573 13.7296 29.5817
Au 17.4346 15.1243 27.1785
Au 17.0287 15.267 32.0116
Pd 19.0689 18.2198 35.1906
Pd 19.2846 15.4098 35.0993
Au 19.2005 16.8587 32.7911
Au 14.9982 17.8086 2.85602
Au 17.2838 16.4975 1.98273
Au 15.6504 16.6625 5.3496
Pd 15.8453 18.3376 7.59128
Pd 18.167 17.0318 6.58676
Pd 17.5222 18.2289 4.05961
Au 16.5191 17.1261 10.1695
Au 14.7896 17.2278 13.6126
Au 19.1842 17.481 11.469
Au 18.3869 18.6542 8.83031
Au 15.9171 15.1181 15.1286
Pd 16.1612 16.7867 17.3292
Au 18.5533 15.4231 16.4303
Au 17.4977 17.526 14.906
Au 17.1214 14.6453 18.8473
Au 16.1778 16.8926 20.119
Au 18.6041 15.6175 21.081
Pd 18.7465 17.0803 18.6402
Au 16.0773 15.4824 22.5576
Au 15.1177 17.8191 23.8594
Au 17.5262 16.5101 24.7762
Au 17.6342 17.9241 22.3497
Pd 17.0963 18.0941 27.1241
Au 16.8 19.5758 29.5662
Pd 19.1707 18.3071 30.398
Au 19.1684 19.7362 27.9949
Au 18.9739 19.6881 32.8703
Au 18.8414 21.0331 35.3183
Au 21.2474 19.7548 36.0499
Au 21.2127 21.2439 33.7448
Au 14.5927 20.6931 2.55839
Au 16.8666 19.3888 1.62134
Au 15.2202 19.5228 5.05088
Au 16.0504 19.9804 9.8453
Au 17.7397 19.8844 6.28803
Au 17.1576 21.0907 3.77573
Au 14.1367 18.4672 11.1219
Pd 14.4086 20.1072 13.3739
Au 16.7579 18.764 12.4144
Au 18.6062 20.3522 11.1142
Au 15.0349 18.8767 15.8356
Au 15.7342 21.357 17.0396
Au 17.7523 19.2161 17.0885
Au 17.0282 20.4305 14.6479
Au 15.1128 19.0782 18.5893
Au 15.8248 21.5473 19.8329
Au 17.6791 19.3002 19.8844
Au 18.3434 21.6724 18.3679
Au 15.1817 19.208 21.3855
Au 14.8175 20.7478 23.7539
Au 17.1604 19.4925 24.6997
Pd 17.2299 20.8451 22.2392
Au 14.757 19.3762 26.2718
Pd 14.475 20.8532 28.6889
Au 18.9697 21.1526 30.4161
Au 16.8311 20.9971 27.1305
Au 16.5601 20.9816 32.0083
Au 16.4124 22.3382 34.4396
Au 21.0453 22.5425 36.1224
Au 18.7671 22.5019 32.9053
Au 14.8978 22.3925 4.79969
Au 16.534 26.7834 3.4655
Pd 15.4443 21.1929 7.31397
Au 15.7018 22.8779 9.6444
Au 17.91 21.5444 8.5252
Au 17.3985 22.8066 5.97896
Au 16.3341 21.6685 12.1557
Au 22.2104 26.3501 13.0552
Au 18.918 22.129 13.4421
Au 18.2115 23.2921 10.8588
Au 17.5863 22.9587 15.7137
Au 17.6349 26.42 17.2695
Pd 19.3418 24.0835 17.3184
Au 18.6574 25.4807 19.5607
Au 16.5471 23.8967 18.272
Pd 16.1327 25.4019 20.7459
Au 17.8823 23.1732 20.7677
Au 16.8014 27.7859 19.5427
Au 15.4849 23.0903 22.2211
Au 15.2286 24.6212 24.641
Au 16.9001 22.3839 24.5965
Au 17.6053 24.8002 23.1215
Pd 14.534 22.2317 26.1603
Pd 14.2754 23.6727 28.5881
Pd 16.5896 22.4241 29.5452
Au 16.6196 23.8488 27.0475
Pd 14.2224 22.2698 31.0792
Au 16.2073 25.0933 34.444
Pd 18.6434 23.8083 35.2925
Au 16.3658 23.7975 31.998
Pd 14.6422 25.23 4.65253
Pd 15.3857 27.7793 5.70437
Au 15.1522 24.0491 7.14318
Au 15.9252 26.6463 8.19622
Au 17.6303 24.4678 8.31303
Au 16.849 24.0451 3.41473
Au 18.2787 26.8292 12.4862
Au 22.0136 29.568 13.1935
Au 26.6872 28.6055 11.2539
Au 17.5572 27.9869 10.0636
Au 18.7986 28.872 16.9577
Au 15.019 30.1168 14.8645
Au 17.9501 30.2537 19.6359
Au 17.7971 31.4183 11.2599
Au 15.0128 30.1251 19.6103
Au 15.0425 31.7296 22.7754
Au 16.5738 29.5565 21.9731
Au 16.2996 32.4917 20.3763
Au 15.8927 27.0336 23.1972
Pd 15.6688 28.5247 25.6816
Au 17.3303 26.3262 25.6221
Pd 16.5555 31.1019 24.8633
Au 14.977 26.1121 27.0857
Au 14.703 27.5183 29.522
Au 16.366 25.2579 29.4918
Pd 17.0772 27.7031 28.1014
Au 13.9943 25.1046 31.0372
Au 13.7128 26.6196 33.4612
Pd 18.5515 25.2797 32.9359
Au 16.1005 26.6348 32.0365
Au 12.3822 30.7897 8.02123
Au 19.5909 29.701 6.99894
Au 15.1562 31.3778 7.68103
Pd 13.6519 34.7781 14.0367
Au 14.1768 28.7935 7.98781
Au 16.3439 33.0537 9.71233
Au 15.7661 30.1874 9.92109
Pd 16.4493 32.2497 13.454
Pd 22.084 32.3799 13.8072
Pd 14.4056 31.1635 12.1401
Au 12.6439 33.7268 16.3993
Pd 16.7138 36.5539 21.2083
Pd 17.3575 33.9137 18.2549
Au 17.5454 35.9341 16.4112
Au 14.5663 34.917 20.7783
Au 13.1312 35.436 25.4893
Au 14.8688 33.3198 25.2185
Pd 15.8988 35.8641 25.5434
Au 13.8999 30.608 25.4482
Au 13.6283 32.0477 27.7995
Au 16.3199 32.4552 27.3543
Pd 14.6089 34.6267 27.6631
Pd 15.4163 29.9241 28.1346
Au 15.1087 31.3725 30.6716
Au 16.7882 29.0425 30.6493
Pd 16.1107 33.7483 29.7741
Pd 16.5392 30.1394 33.2594
Au 18.7283 31.5804 34.2851
Au 15.9979 27.7829 34.5723
Au 18.1267 29.2318 35.4516
Au 20.2178 6.87271 5.40952
Au 18.795 6.15855 7.74125
Au 23.0276 6.22444 5.48073
Au 18.7982 4.40437 12.4867
Au 20.1354 5.12439 10.089
Au 18.864 2.86308 17.2585
Au 20.191 3.47219 14.8546
Pd 19.0028 3.17387 21.8731
Pd 20.287 2.21135 19.6173
Au 19.088 5.04442 26.4286
Au 20.4367 3.93438 24.1395
Au 19.2184 7.06823 30.8989
Au 20.5315 5.90652 28.6615
Au 19.8409 9.68564 35.004
Au 20.7356 7.8237 33.1285
Au 20.2913 12.6505 2.5888
Au 20.8865 9.84875 2.99954
Pd 19.091 9.50256 5.18064
Au 19.2752 11.18 7.35797
Pd 20.4056 8.45785 7.60377
Au 21.1111 11.5903 5.06856
Pd 19.0199 7.74731 9.96444
Pd 19.2572 9.43444 12.1665
Au 20.3914 6.76212 12.3118
Au 20.6435 10.1283 9.80243
Au 19.0333 6.05864 14.7147
Pd 19.2759 7.806 16.916
Au 20.4203 5.17781 17.0621
Au 20.6537 8.49993 14.5342
Au 19.0714 4.6088 19.4642
Au 19.3714 8.05455 21.584
Au 20.5722 5.43517 21.7497
Au 20.675 6.98517 19.2842
Au 19.2331 6.49033 24.0252
Au 19.5033 10.0174 26.0952
Au 20.7022 7.34454 26.2804
Au 20.8417 8.89966 23.8471
Au 19.375 8.50147 28.506
Au 19.7582 12.3682 30.4118
Au 20.8393 9.28274 30.7785
Pd 20.9587 10.8121 28.3831
Pd 19.6997 10.9911 32.7372
Au 19.5117 12.548 35.0811
Au 21.9301 11.3248 35.6041
Au 21.8047 12.8343 33.3689
Au 19.7871 15.4525 2.22444
Au 22.3603 14.5507 2.50625
Pd 20.545 14.3971 4.72216
Au 20.7485 16.0969 6.95628
Au 21.3294 13.2951 7.27581
Au 22.6537 16.3053 4.66076
Au 19.5035 12.8828 9.56546
Au 19.7901 14.5603 11.7817
Au 20.8973 11.8259 12.0203
Au 21.5897 14.9997 9.51606
Au 19.5135 11.1388 14.381
Pd 19.7266 12.8218 16.5905
Au 20.892 10.2258 16.7471
Pd 21.1481 13.4995 14.2208
Au 19.5082 9.57064 19.1394
Au 19.7789 13.009 21.2451
Au 20.9744 10.4352 21.4159
Au 21.1055 11.9504 18.9614
Pd 19.6354 11.5176 23.6711
Au 19.9492 15.1594 25.7268
Au 21.0953 12.3334 25.9599
Au 21.2481 13.8571 23.5168
Pd 19.8218 13.7437 28.0684
Au 19.4366 15.4548 30.2937
Au 21.8024 14.292 30.9682
Au 21.8127 15.7293 28.4916
Au 19.4231 14.0021 32.735
Au 21.4402 16.9447 35.915
Pd 21.6404 14.165 35.7297
Pd 21.5964 15.6479 33.4999
Au 19.3726 18.3094 1.87641
Au 21.9041 17.2827 2.17642
Au 20.0514 17.1908 4.36631
Au 20.2922 18.8699 6.63061
Au 22.8914 18.0131 6.97009
Au 22.2747 19.0347 4.35354
Pd 20.9985 17.7593 9.21894
Au 21.2085 19.4399 11.4837
Pd 21.8414 16.653 11.7266
Au 23.0633 19.7382 9.23117
Au 20.0426 16.2046 13.9963
Au 20.1932 17.888 16.2164
Au 21.3556 15.1558 16.4235
Au 22.0462 18.3261 13.927
Au 19.9433 14.5193 18.8096
Au 20.2224 18.0374 20.9258
Pd 21.4078 15.3531 21.1008
Au 21.5488 16.8921 18.6681
Au 20.1247 16.592 23.3344
Au 19.5064 18.2789 25.5367
Au 21.9205 17.1845 25.9092
Pd 22.0458 18.6081 23.3532
Pd 19.4414 16.8783 27.911
Au 21.3714 19.9164 31.2532
Pd 21.5535 17.1013 31.1629
Au 21.5043 18.5396 28.8012
Au 21.408 18.4313 33.6589
Pd 23.4858 21.3649 35.359
Au 23.685 18.5944 35.3731
Au 23.6963 20.1019 32.9587
Au 19.0233 21.1398 1.63581
Au 21.5557 20.088 1.89078
Au 19.6952 20.0285 4.07245
Au 19.9114 21.7326 6.34004
Pd 22.4267 20.7085 6.64693
Au 21.8873 21.8083 4.09864
Au 20.4671 20.5192 8.90498
Au 20.6671 22.2146 11.2771
Pd 23.2007 21.4959 11.4541
Au 22.4749 22.466 8.91202
Au 19.4197 19.2294 13.7586
Au 19.7457 21.112 16.0536
Pd 22.1934 19.9486 16.1333
Pd 21.4551 21.2001 13.7686
Au 20.4009 19.5556 18.4446
Au 19.6664 20.9565 20.7882
Au 22.1971 20.0935 20.8222
Au 20.4717 23.2623 19.5704
Pd 19.5801 19.6512 23.1784
Au 19.2201 21.1699 25.5689
Pd 21.5116 19.957 26.4753
Au 21.6058 21.2979 24.0963
Pd 21.3836 21.3802 28.8561
Au 21.1953 22.7281 31.3116
Au 23.6703 21.6465 30.4637
Au 21.4261 22.8091 26.442
Pd 23.4795 22.8572 32.9814
Au 23.2873 24.0885 35.441
Au 25.7454 22.8852 34.5649
Au 27.9837 24.3255 33.6128
Au 16.5273 22.2073 1.43989
Pd 21.5936 24.6565 3.92087
Au 19.3348 22.9492 3.79624
Pd 19.6041 24.5394 6.18331
Au 22.1339 23.4854 6.34483
Au 21.2388 27.2259 3.1297
Pd 19.9885 23.2876 8.72568
Au 19.4493 25.7645 10.0936
Pd 22.9608 23.5477 13.2644
Au 22.0475 24.4843 10.8103
Au 20.9113 23.5584 15.1437
Au 21.5924 29.0174 17.5845
Au 20.7174 26.4804 16.9137
Pd 23.0788 25.3278 15.4554
Au 21.9094 22.7519 21.7309
Au 18.2671 27.2444 21.8235
Au 24.1605 22.2253 20.3201
Pd 25.7395 26.3289 16.2348
Au 19.3278 22.5361 23.0859
Au 19.0036 24.0512 25.5043
Au 21.4441 24.2275 24.0197
Au 19.6856 26.5687 24.1643
Au 18.9889 22.6127 27.9867
Au 18.7482 23.9855 30.4376
Au 21.154 24.19 28.8903
Au 21.0765 25.6748 26.4611
Au 21.0047 24.0125 33.795
Pd 20.8265 25.2742 36.1531
Au 25.5077 25.6123 34.607
Pd 23.4175 24.3806 30.5484
Au 21.0354 31.5858 8.43627
Au 17.9844 31.5173 8.3135
Au 19.0638 25.7744 3.75005
Au 16.9493 29.1502 7.49521
Au 21.5006 25.3814 8.15232
Au 18.3736 28.0453 5.12308
Pd 18.7333 26.9519 7.63223
Pd 24.7778 29.755 13.9373
Au 27.1345 28.2757 14.5403
Au 20.7496 27.8148 11.3407
Au 22.8305 28.0461 15.4172
Au 16.4187 31.3891 17.53
Au 20.1752 27.7728 14.5205
Au 20.4995 30.5317 15.3575
Au 19.6226 27.988 19.3809
Au 17.9324 32.0987 22.5811
Au 19.4173 29.865 22.0918
Pd 19.7052 32.1826 20.2802
Au 18.0263 28.8365 24.3343
Au 17.8968 30.1374 26.9845
Pd 19.4443 27.9274 26.662
Au 19.2565 31.6699 25.038
Pd 18.716 25.4573 27.9695
Au 18.4729 26.7809 30.49
Au 20.8446 26.9742 28.9878
Au 19.2422 29.2039 29.2399
Au 20.9417 25.4988 31.4005
Au 18.4122 26.5278 35.4082
Pd 23.2195 25.5753 33.0577
Pd 20.6487 28.2313 31.5295
Au 17.1131 25.6384 5.80437
Au 27.5727 28.4526 5.60094
Pd 19.461 29.8091 9.81374
Au 17.8286 34.1603 11.9094
Pd 23.0588 26.7574 9.94273
Pd 19.4233 33.1633 9.95445
Au 19.1243 29.5857 12.7809
Pd 16.3792 34.9693 14.0853
Au 19.2678 32.4041 13.5188
Au 22.4189 33.2033 10.1356
Au 17.8807 33.3041 15.7049
Au 17.709 36.6367 23.6563
Au 18.2205 34.4264 20.7414
Au 18.5533 36.458 18.9166
Au 16.3023 34.3261 22.9058
Pd 17.4061 35.0327 27.829
Au 19.3225 34.5126 23.2261
Au 18.8311 36.4385 26.0674
Au 17.661 33.8915 25.33
Au 18.7907 33.9987 30.2383
Au 21.6577 34.2636 30.5589
Au 20.192 35.3989 28.354
Au 17.6388 31.4617 29.5649
Pd 17.2509 32.5471 32.1122
Au 18.9754 30.4358 31.8375
Au 20.1689 32.9293 32.4462
Au 20.557 27.9658 36.2832
Pd 18.2944 28.0012 33.014
Au 20.4302 29.4459 34.0682
Au 21.613 31.7959 34.542
Au 21.9004 7.30568 3.27362
Au 21.506 5.77195 7.73721
Au 24.3515 5.3015 7.82545
Au 21.5338 4.14178 12.4637
Au 22.898 4.78578 10.1105
Au 21.6076 2.63427 17.2489
Au 22.9393 3.23698 14.8613
Pd 21.7788 2.96346 21.8518
Au 23.0506 1.9749 19.6125
Au 21.8694 4.79116 26.4079
Au 23.2238 3.70229 24.1107
Pd 21.9771 6.71395 30.8496
Pd 23.2987 5.68238 28.5938
Pd 22.3209 8.59073 35.2359
Au 23.4677 7.38156 33.0681
Au 22.8833 11.8633 2.83538
Pd 23.6854 9.31814 3.12432
Au 22.0033 8.9405 5.34651
Au 22.2227 10.6224 7.51658
Au 23.2645 7.92364 7.67777
Pd 23.9562 11.0091 5.2436
Au 21.7704 7.42004 9.95689
Au 22.0443 9.14515 12.1808
Au 23.1837 6.46119 12.3246
Au 23.5607 9.65933 9.88631
Au 21.7916 5.82148 14.6819
Au 22.0456 7.60788 16.9016
Au 23.1992 4.97169 17.0637
Au 23.4553 8.22215 14.5348
Au 21.8603 4.40308 19.4602
Au 22.1819 7.82509 21.5749
Au 23.3949 5.21673 21.7424
Au 23.465 6.77052 19.2969
Au 22.0496 6.24777 24.0209
Au 22.3049 9.70041 26.1122
Pd 23.4981 7.09484 26.2485
Au 23.6758 8.62284 23.843
Pd 22.1387 8.17259 28.4888
Au 22.4377 11.541 30.7223
Au 23.5971 8.87939 30.7094
Au 23.7518 10.4526 28.345
Au 22.3319 10.0445 33.0961
Pd 24.0594 13.0799 35.2443
Au 24.3919 10.3015 35.2104
Au 24.3209 11.9484 32.8663
Pd 24.8624 15.417 3.29416
Au 25.4399 12.7662 3.52361
Au 23.1909 13.6116 4.9604
Au 23.4008 15.3274 7.23324
Au 24.2125 12.7127 7.44839
Au 25.7273 14.5747 5.72854
Au 22.4734 12.3226 9.7243
Au 22.7123 14.0146 11.9399
Au 23.8 11.3568 12.1035
Au 24.4635 14.4269 9.67265
Pd 22.2915 10.851 14.3935
Pd 22.5006 12.547 16.6025
Au 23.6811 9.94782 16.7545
Au 24.0021 13.0435 14.3082
Pd 22.2855 9.36144 19.1375
Au 22.6018 12.7708 21.2546
Au 23.8117 10.1528 21.4272
Au 23.9057 11.6916 18.9879
Au 22.4617 11.2401 23.6955
Au 22.7572 14.5442 25.8099
Pd 23.9521 11.9832 25.9435
Au 24.1419 13.473 23.5176
Au 22.5604 13.0436 28.279
Au 23.9793 16.1395 30.4067
Pd 24.3458 13.5061 30.3617
Au 24.4859 15.0819 27.9076
Pd 24.0131 14.6001 32.8537
Pd 23.8376 15.8329 35.2375
Au 26.2638 14.5616 34.5092
Au 26.2724 16.0329 32.1066
Au 24.42 18.081 2.9105
Pd 26.8197 19.0405 3.77161
Au 25.1558 17.2536 5.43406
Au 25.336 19.0708 7.80396
Au 25.9068 16.3459 8.0246
Pd 29.1194 22.3514 7.33693
Pd 23.624 17.0377 9.49997
Au 23.8529 18.7575 11.7056
Pd 24.6568 16.1028 11.8782
Au 26.1339 18.07 10.322
Pd 22.9425 15.6654 14.1278
Au 23.1201 17.3227 16.3348
Au 24.2352 14.7154 16.5222
Au 24.8622 17.7963 14.0449
Pd 22.7284 14.2737 18.8422
Au 23.1252 17.4977 20.9674
Pd 24.2964 14.957 21.1079
Au 24.4623 16.4478 18.7167
Pd 22.9681 16.0253 23.368
Au 23.8265 19.3011 25.3815
Au 24.6781 16.6708 25.4608
Au 24.8701 18.1887 23.0741
Au 23.8914 17.7249 27.8832
Au 23.8353 18.9024 30.4112
Au 26.2236 17.5589 29.571
Au 26.146 19.0838 27.0451
Au 23.8559 17.3312 32.9185
Au 25.968 20.1314 34.5702
Au 26.1291 17.3439 34.5551
Au 26.1528 18.8506 32.0995
Au 24.0963 20.7901 2.69403
Pd 26.4997 21.7335 3.64972
Au 24.7364 19.9572 5.2134
Au 24.7441 21.8112 7.56621
Pd 27.7125 20.1295 8.74826
Pd 26.4282 23.8075 6.24358