1687
Atoms. Timestep: 20934
Au 33.3414 22.6639 28.6904
Au 12.5837 11.3657 10.5999
Au 20.8931 37.3764 21.0038
Au 21.9411 17.0609 21.1181
Au 30.2293 11.4269 10.6235
Au 13.8007 33.0848 25.9631
Au 21.12 14.455 10.1319
Pd 11.3425 30.9966 19.7975
Au 14.4695 2.21365 21.9977
Au 6.90772 9.249 25.2686
Pd 19.3716 28.4034 19.4764
Au 5.89859 15.5472 16.8414
Au 10.646 13.3152 15.0309
Pd 12.0165 26.1662 13.8519
Au 21.1703 3.06262 11.4019
Au 26.5065 18.6783 24.8549
Au 17.5991 17.8773 19.2403
Pd 20.3351 12.7168 13.2299
Pd 11.85 23.4303 14.0116
Pd 29.1768 14.778 18.3945
Pd 18.7664 12.4656 20.9909
Pd 26.1384 20.8717 6.39478
Au 23.4513 17.4419 7.93891
Pd 33.1559 20.2856 9.60909
Au 5.09181 8.80363 23.1814
Au 23.1772 36.0012 13.9347
Au 15.988 15.729 15.4994
Au 21.7985 22.5614 7.64327
Au 14.2846 24.5506 6.07374
Au 28.495 12.7061 32.882
Au 11.5199 16.8485 21.1429
Pd 20.147 16.2119 29.0932
Au 22.8148 9.05683 11.9146
Au 21.917 19.8021 8.38981
Au 28.8501 29.1445 11.9438
Au 28.5314 9.78439 14.1728
Au 9.66949 9.95104 25.6004
Au 11.0497 22.7567 18.0558
Au 28.503 12.2952 27.51
Au 23.6881 15.255 9.73898
Au 23.4314 17.8624 35.5031
Au 15.6607 11.7148 6.49697
Au 23.2745 18.6281 23.1242
Au 10.5586 16.096 15.2667
Au 22.9667 15.1533 22.6197
Au 28.13 9.92839 29.0503
Au 28.3287 28.3532 29.6564
Au 28.4369 5.0718 26.5963
Au 13.3484 26.6606 33.4885
Au 27.1588 21.7045 9.02838
Au 8.83191 21.5638 26.0297
Au 3.57591 12.3397 25.0723
Pd 20.079 29.2291 22.1498
Au 29.7772 26.5778 8.01316
Au 37.12 20.0208 14.818
Au 13.02 20.0083 24.4843
Au 18.9462 20.0838 35.0281
Au 13.7542 18.6666 22.0472
Au 10.0966 21.7486 23.4037
Au 6.37327 12.3455 12.0403
Au 28.854 13.6683 8.43915
Au 36.4848 19.2503 12.2727
Au 14.7294 18.0694 12.2873
Au 23.9318 26.4853 24.3561
Au 17.8421 11.4552 34.0419
Au 10.7343 27.0534 16.4817
Pd 25.8839 32.4283 13.7432
Au 27.8052 26.8846 12.9399
Pd 17.3098 7.18597 5.84418
Au 22.8216 24.1124 30.4002
Pd 27.5903 18.8619 9.28439
Au 12.3117 8.62901 15.8758
Pd 27.6405 15.9373 7.40153
Au 34.7309 18.1416 28.6177
Au 21.5273 10.4992 14.1412
Au 14.2299 9.40648 21.4952
Au 19.6603 13.5431 23.5052
Au 10.7193 5.07863 13.1869
Au 11.9146 25.0179 10.9682
Au 14.6313 8.10599 32.0146
Au 25.086 8.44391 25.2884
Au 16.3615 37.379 21.3461
Au 28.2662 31.1459 13.8358
Au 6.67715 16.5854 23.2694
Au 9.94717 24.8041 32.9867
Au 20.2995 22.6587 5.25521
Au 11.4774 5.46904 20.4053
Au 12.7286 21.5973 22.1889
Au 16.3989 36.5451 24.0648
Pd 11.6463 18.001 6.37679
Au 22.2635 11.0213 24.9279
Au 21.9035 18.7073 17.6567
Au 20.393 22.3154 10.1072
Au 11.097 22.881 34.778
Au 26.6044 12.9329 25.8513
Au 22.521 25.3119 7.91557
Au 31.648 31.4597 15.9028
Au 31.8207 14.0215 18.4632
Pd 18.6548 34.3425 18.1845
Au 3.39389 16.7051 16.9527
Au 10.7895 8.07158 13.4707
Au 4.11092 18.5534 28.8297
Au 17.5173 18.5905 32.6082
Pd 19.7244 3.21986 18.3311
Au 6.9045 7.99314 12.5
Au 4.92949 20.8619 21.5754
Au 24.7985 33.3378 25.5578
Au 13.4921 28.9374 28.4585
Au 18.3764 16.4518 5.70365
Au 10.6349 12.0853 6.52444
Au 25.1921 29.0476 25.7543
Pd 10.3037 8.87538 23.1015
Au 28.1035 20.6247 11.456
Au 15.3452 4.8228 14.1389
Pd 12.4051 14.7007 30.9774
Au 9.45318 16.7671 27.4648
Pd 18.3956 34.6003 23.3513
Au 4.45156 15.5315 21.6369
Pd 16.2401 28.586 28.7587
Au 14.588 26.4895 14.7672
Au 12.5563 4.06027 14.9941
Au 26.8213 13.322 6.52097
Pd 13.3937 8.81493 11.4088
Au 29.8782 31.9216 26.3851
Au 33.1236 11.6066 19.2749
Au 21.7039 20.4679 27.2865
Au 19.2342 23.5936 20.069
Au 22.6298 29.3843 20.3685
Au 23.748 3.72121 11.9897
Au 27.0593 14.9911 16.537
Au 8.11913 26.8844 15.2633
Au 23.3039 33.1401 30.9489
Au 22.5946 13.1536 15.1295
Au 27.8772 17.3364 27.4584
Au 11.7856 36.017 20.6878
Au 14.3761 8.76921 13.9379
Au 20.5616 20.7794 3.06342
Au 33.928 23.9394 8.82006
Au 7.94356 25.4069 8.20287
Au 16.9792 25.0649 3.11513
Pd 33.56 21.2578 18.2749
Au 24.2685 2.12011 24.1824
Au 12.7216 2.24473 17.1674
Pd 29.3961 24.7006 13.2461
Pd 33.4517 20.5509 20.8943
Au 23.2388 16.5101 25.0936
Au 32.8386 23.8482 18.7213
Pd 21.2111 30.4693 30.8097
Au 20.0635 24.0498 37.5597
Pd 16.2334 11.0674 20.5036
Au 26.1253 17.2221 34.6944
Pd 30.7491 12.9979 28.523
Au 18.4458 24.2293 10.1252
Au 22.657 19.4716 20.2836
Au 26.3653 28.4348 31.5365
Pd 31.4473 19.9811 11.7293
Pd 3.29868 14.8867 25.9918
Au 22.9452 21.2696 17.4666
Au 2.24361 21.3698 22.5843
Au 16.9835 10.1974 2.27193
Au 31.8978 22.0164 31.0681
Au 12.32 22.2441 3.90285
Au 5.37752 16.1824 7.56515
Pd 16.8204 3.72849 27.9089
Pd 23.3327 31.6701 18.8987
Pd 20.0255 13.9363 15.9981
Au 13.2502 29.5341 23.6917
Au 20.528 26.3406 20.8999
Au 5.68983 22.1407 10.4131
Au 16.2659 23.2044 11.6699
Au 5.83218 23.5119 29.4828
Au 17.5941 29.9754 34.5802
Au 28.8654 14.9328 31.4105
Au 6.43015 28.5275 16.7479
Pd 14.6264 24.0856 27.9353
Au 9.91295 29.304 31.2695
Au 13.6626 16.2166 25.7631
Pd 13.0629 24.2942 18.9493
Au 19.2084 1.65727 20.6294
Au 26.524 24.2652 27.6496
Au 25.5266 14.6508 21.6275
Au 14.6316 18.8157 35.8486
Au 12.1762 10.3739 13.2519
Au 15.9131 23.4805 34.5837
Pd 13.9085 24.4234 30.5588
Au 20.5485 16.1223 23.6153
Au 25.4217 3.66466 14.2088
Au 29.3272 22.6058 21.5922
Au 29.5002 20.2124 13.7237
Au 18.5183 15.8826 35.8442
Au 16.9834 12.5133 22.9145
Au 22.1504 17.5839 27.7468
Au 33.3847 31.9571 17.8667
Pd 5.76508 23.4469 22.1547
Au 21.1571 9.44541 21.2417
Au 28.3509 4.12731 24.1255
Au 20.6985 33.0624 26.56
Au 13.1192 10.7882 6.09002
Au 28.8573 22.5578 27.4559
Au 24.1617 24.0441 3.49434
Au 19.4325 1.47216 24.3932
Au 21.1304 8.60173 23.9336
Au 30.3671 18.8002 16.1858
Au 27.1993 32.9347 16.0127
Au 29.7557 33.4279 15.5221
Au 17.287 27.3921 15.1363
Au 31.9667 25.0033 11.8273
Au 15.6653 18.0587 30.6066
Au 11.5085 15.0157 12.8384
Pd 4.21653 14.083 12.2766
Pd 7.76076 5.91016 22.9061
Au 26.3297 26.3746 29.6472
Au 14.1342 12.5892 19.4242
Au 36.2355 19.3586 23.3343
Au 13.3037 10.1811 33.2489
Pd 8.25681 22.5841 9.64733
Au 13.6727 15.2341 8.84493
Au 22.1505 28.5987 15.6801
Au 24.5048 26.3894 31.8775
Pd 8.44833 11.0906 23.3073
Au 28.3451 6.80929 28.7095
Pd 29.5465 26.4576 15.3321
Au 2.84551 19.2625 24.319
Pd 19.042 7.0448 29.4083
Au 17.8428 11.5109 12.9105
Pd 21.3898 16.2518 16.4493
Au 7.08294 10.0942 16.3539
Au 18.133 12.9226 1.58075
Pd 16.5846 13.6517 11.716
Au 17.2399 6.30905 10.5667
Au 15.7918 9.39256 4.90411
Au 25.1277 30.9547 31.4747
Au 5.63971 16.7267 30.3745
Au 2.59341 17.5322 26.5406
Au 19.1647 12.3855 10.6971
Au 24.037 27.0077 20.3833
Au 29.7473 30.5917 28.7025
Au 5.46265 26.0553 16.0962
Au 5.4768 23.9135 24.9566
Au 19.9409 35.0318 30.356
Pd 34.9567 24.074 14.6721
Au 28.3765 22.2073 4.89345
Au 9.3291 18.7042 8.52874
Au 15.3809 20.7234 21.1033
Au 19.5717 25.5219 26.2177
Au 32.5569 14.6041 15.8978
Au 9.9838 29.3528 10.0485
Au 13.19 2.71218 24.3432
Au 10.4311 25.7193 6.4387
Au 25.844 12.7838 31.3681
Au 27.5738 19.6277 4.42266
Pd 12.7561 24.119 33.0821
Pd 30.4454 18.6057 26.7602
Au 25.1259 24.7186 8.76694
Pd 18.3672 30.7173 27.0689
Au 15.1226 22.0952 23.5063
Au 9.10263 4.64246 18.8811
Au 31.7867 31.9551 24.5133
Pd 6.83441 28.4954 23.687
Au 6.71201 21.7575 14.5144
Au 18.721 31.8506 12.8523
Au 6.31615 10.3172 21.2131
Au 21.0368 5.05053 20.6402
Pd 23.7807 19.0805 25.9371
Au 10.4141 21.2725 20.4693
Pd 34.4625 13.906 17.9309
Au 30.624 14.9266 20.7543
Au 13.0252 12.9496 13.7521
Au 3.95253 8.96561 20.7617
Au 29.258 6.41113 20.4665
Pd 30.3476 10.3223 27.4093
Pd 14.2477 8.38923 6.81317
Au 14.402 26.3701 24.3228
Pd 17.7368 19.49 21.444
Au 26.7829 14.4795 11.7102
Pd 19.4876 20.3553 25.5303
Pd 21.4435 5.50038 25.8406
Pd 19.4969 28.4622 31.9011
Au 10.7287 17.1365 18.227
Pd 18.0024 30.0164 23.9745
Au 29.8156 8.95578 19.6543
Pd 21.0284 30.6166 27.9446
Au 22.2229 18.4495 3.59805
Au 9.69764 14.3071 5.17947
Au 12.3438 10.9115 26.0207
Au 10.6216 24.5048 23.6378
Pd 26.2104 14.1263 9.08349
Au 7.87795 20.7215 12.147
Au 12.5933 25.3576 8.18231
Au 7.94949 16.7874 18.9336
Au 31.3893 23.2755 26.7607
Au 17.8474 14.3144 9.29015
Pd 25.4294 23.0213 11.0128
Au 20.6664 15.34 13.8448
Au 19.6285 11.2705 3.03523
Au 25.4774 6.08104 15.4988
Au 11.9598 6.42144 11.1613
Pd 19.835 19.8115 32.2782
Pd 30.7821 14.6348 13.6586
Pd 23.0359 22.1058 34.6815
Pd 28.3242 12.5253 30.1724
Pd 27.8343 22.364 13.5335
Au 25.026 5.07463 10.0071
Au 6.96423 30.2894 21.7202
Au 10.6663 8.8328 30.1198
Au 23.3168 33.3284 13.8089
Au 24.1836 14.9365 32.2072
Au 11.0442 33.2923 14.1227
Au 33.7964 18.7118 7.56704
Au 8.95321 9.80175 7.78109
Pd 34.0587 20.3393 12.2196
Au 7.25284 34.7424 20.1813
Au 26.1146 30.4633 15.8488
Au 17.8875 16.1077 30.8528
Au 24.4106 31.4312 11.7359
Au 28.1075 24.7908 25.4507
Au 20.397 30.5185 25.1037
Au 19.278 4.86471 27.6995
Pd 20.6334 13.7908 2.68502
Au 20.0983 22.7479 24.1114
Au 21.6563 2.71778 25.3397
Au 23.8578 19.267 28.9106
Au 14.5622 23.1479 14.2278
Au 11.4698 33.3573 21.5926
Au 14.749 21.3966 4.98185
Au 30.781 32.0855 13.4053
Au 7.61422 32.8919 22.2029
Au 30.8679 12.9282 31.3164
Au 26.3059 15.388 30.4351
Au 17.4679 10.9027 25.5936
Au 33.6759 12.0019 24.8538
Pd 16.5346 23.7432 19.0124
Au 11.2568 14.7669 2.96921
Au 7.39203 26.3482 12.5395
Pd 10.6079 29.3773 24.7105
Pd 19.2238 7.42508 12.0316
Au 24.1129 7.79619 31.6564
Au 17.6744 8.78706 33.2426
Au 4.66821 21.0963 29.1846
Au 13.7929 18.626 4.70753
Au 24.8865 7.82458 10.5247
Au 24.9599 8.84963 7.37843
Au 5.16127 13.8978 19.1776
Au 22.7856 35.2707 26.274
Pd 8.53227 23.4923 21.9808
Au 28.3029 23.9918 15.7
Au 28.1874 4.17951 21.4932
Au 12.6208 13.2819 4.87334
Au 13.5152 27.8266 12.382
Au 6.67811 15.2382 11.4896
Au 15.3731 20.099 33.5081
Au 30.732 16.8735 32.143
Au 12.0171 36.2298 17.9679
Au 28.9762 17.5573 5.54629
Au 20.8497 27.7427 11.4759
Au 21.5761 34.7303 11.7278
Au 31.9688 9.72654 20.9294
Au 35.2316 23.8607 24.538
Au 15.3366 29.3857 14.0486
Pd 29.3557 21.8588 30.1339
Au 19.313 6.54974 15.2334
Pd 21.0717 24.942 11.6807
Au 3.40653 22.9806 20.5396
Au 12.8754 26.1078 28.4635
Pd 11.6053 15.0494 33.6411
Au 28.0929 11.1999 7.83355
Au 16.6138 25.9418 5.75565
Au 25.3757 12.4901 16.0588
Pd 17.1342 18.1963 35.2725
Au 30.5827 15.9687 27.3095
Au 15.1471 31.3769 24.3476
Au 32.2233 32.727 20.2041
Pd 23.5469 26.5618 29.2542
Au 31.0044 21.297 17.0787
Au 12.313 26.2927 20.8408
Au 12.0812 17.716 13.3537
Pd 16.7683 9.28408 7.51761
Pd 27.6902 15.3092 23.0716
Au 23.9535 8.23182 14.3194
Au 19.3653 11.6907 5.72756
Pd 13.6727 31.8935 18.7866
Au 35.259 22.5584 20.0163
Pd 20.4984 9.14906 28.6735
Au 11.131 23.4215 30.8589
Pd 28.6574 26.1098 22.9401
Pd 32.0128 22.1662 8.00107
Pd 31.6597 26.5222 18.3043
Au 9.25357 32.9276 20.0256
Au 32.9854 27.6291 11.4636
Au 22.4237 11.2276 34.1276
Au 28.6676 9.62674 17.1915
Au 31.8686 17.8889 28.8808
Au 18.1643 15.769 17.3397
Pd 25.2167 28.4755 10.485
Au 11.8673 32.2939 11.6935
Pd 14.5904 18.7417 26.2255
Au 28.9974 35.2368 17.5126
Au 36.4488 15.7568 17.4719
Au 21.3664 17.323 6.12453
Au 22.7248 30.1596 10.0087
Au 27.6194 26.9618 4.80943
Pd 19.893 32.0569 22.8018
Au 22.4041 37.1977 18.726
Pd 24.561 26.6045 17.6524
Pd 14.488 19.6731 7.26667
Au 16.7265 13.5802 29.7209
Au 6.09952 11.7353 29.0404
Au 19.2323 17.1816 21.4381
Au 19.067 15.0873 11.6553
Au 24.837 17.2264 20.6382
Au 33.057 17.7413 12.2963
Au 34.5862 27.9988 15.9494
Au 1.42505 18.7779 22.0111
Au 21.5361 12.0346 22.3488
Au 8.18699 30.8212 24.184
Au 20.5741 5.13734 13.04
Au 26.6487 2.33573 22.8229
Au 10.4433 29.8416 27.7096
Au 28.9478 10.833 22.0709
Au 32.6908 16.1146 22.558
Pd 15.4987 14.4362 21.2743
Pd 24.1101 12.4372 22.6659
Au 20.0409 12.6367 26.1256
Au 8.49919 12.7408 28.2793
Au 3.2752 19.4329 17.0594
Au 19.876 8.57799 18.862
Pd 21.2481 15.9604 35.5735
Au 15.6989 26.2493 35.23
Pd 14.2108 14.1582 28.9257
Au 18.0106 3.96646 15.6299
Au 24.0275 12.8582 6.32443
Au 16.8435 6.13916 16.6431
Au 15.5008 12.5248 1.55395
Au 10.2069 26.7485 8.92122
Au 32.7984 11.9816 16.6989
Au 19.3392 19.6639 14.6364
Au 17.6809 36.519 13.8711
Au 14.1943 17.9828 15.0347
Au 29.7357 21.5026 32.8152
Au 19.8323 32.9404 10.2963
Au 28.3886 29.6435 19.4016
Pd 16.1788 19.4303 3.65155
Pd 17.9494 11.6025 8.17467
Au 9.3497 10.1248 20.8784
Au 4.38909 26.3332 23.4987
Au 26.2104 31.5007 18.5024
Pd 16.966 27.685 31.0753
Pd 27.5258 29.4908 24.116
Pd 22.3425 16.7781 33.2434
Pd 9.93745 13.5153 31.9954
Au 10.7501 3.64618 24.0244
Pd 19.8622 9.87496 26.0818
Au 22.3201 24.6826 19.4398
Au 29.9714 9.09881 24.9607
Pd 14.3479 14.7826 33.5255
Au 14.1373 30.4351 11.6268
Au 10.6943 27.594 33.3454
Au 16.515 28.1569 19.7898
Au 9.09271 26.7483 31.2109
Pd 26.6083 17.0599 4.19916
Au 34.0159 27.7063 19.0237
Au 30.704 24.3006 16.9823
Au 9.57581 25.9764 21.3987
Au 4.12022 11.3588 19.5801
Au 22.2543 8.51709 26.3985
Au 13.6123 24.4739 35.6002
Au 18.1332 11.2971 31.1378
Au 36.1815 20.0169 20.6937
Pd 12.8532 16.4637 11.0634
Au 12.7782 19.8251 11.3144
Au 27.2282 34.5867 26.0854
Pd 16.7121 13.2541 19.0884
Au 31.4367 29.9647 11.9013
Pd 15.8707 10.8444 29.5498
Pd 25.3562 24.3963 25.1119
Pd 18.708 23.0623 17.5268
Au 28.7686 26.0332 17.961
Pd 12.6614 13.4394 23.8794
Pd 16.6348 22.3836 28.5659
Au 17.1765 26.2322 24.6626
Au 14.9981 25.9571 19.8166
Au 6.73277 21.8019 31.3043
Au 10.2817 12.5964 24.8975
Au 3.18913 20.4443 26.8441
Au 17.0771 8.57747 30.6429
Au 29.1206 31.7969 23.3865
Au 12.7686 12.7228 8.09011
Pd 20.6672 10.689 9.26249
Pd 7.71415 18.9945 25.7734
Au 18.4019 9.6565 21.0297
Au 26.3981 18.0257 29.6629
Au 15.7535 32.1558 13.0132
Pd 15.0619 17.5063 33.3527
Au 28.2863 23.681 33.8857
Au 23.5264 10.7907 20.5518
Au 21.9249 16.0322 1.6482
Au 12.7841 5.48647 24.8948
Au 20.4124 26.632 6.77445
Au 29.6338 22.7075 24.4184
Au 13.702 15.1953 1.8514
Au 4.71773 23.4019 15.6703
Au 11.6279 7.95462 25.5041
Au 29.9601 24.0592 31.8368
Pd 27.0246 18.7611 19.6753
Au 14.857 11.6618 24.8424
Pd 13.6791 21.7877 34.858
Pd 13.0726 16.7554 34.9769
Au 14.7413 8.70099 2.51466
Au 9.84818 7.90135 27.6019
Au 21.5605 37.1593 16.0795
Au 24.4241 8.05048 17.123
Au 33.6932 20.0085 24.0213
Au 18.3136 29.0734 13.1793
Au 24.7286 28.7041 22.7856
Au 10.2676 16.3064 31.7694
Au 8.60063 28.1107 28.8309
Au 3.98284 18.235 21.684
Au 14.9113 12.2497 34.1115
Au 15.7485 28.6341 24.3615
Pd 6.93621 25.0298 20.0752
Au 11.7983 28.9825 21.5581
Au 35.5467 18.826 26.0557
Au 29.9334 28.453 17.3629
Au 35.9507 18.2661 16.6504
Au 4.67934 12.519 10.0142
Au 22.023 20.813 24.646
Au 24.3608 1.72796 15.8985
Pd 13.2557 34.6313 27.9772
Au 4.47874 15.3198 9.92803
Au 31.9011 24.9337 14.5397
Au 21.3344 25.3892 24.0833
Au 30.4972 7.46448 27.0776
Au 27.0805 30.9304 21.6565
Au 26.0273 9.84849 15.3767
Au 11.7227 7.28547 6.63707
Au 24.39 10.0693 27.3332
Au 22.0702 12.2281 4.33327
Au 16.6451 7.34299 14.3239
Au 13.869 33.6707 23.1235
Pd 25.0591 17.1983 27.3966
Au 25.0827 26.6918 3.75673
Au 14.1267 9.03985 24.613
Au 24.872 31.729 9.12417
Au 7.54569 13.374 30.7208
Pd 12.8549 17.0688 32.0903
Au 15.2446 28.9887 35.6871
Au 31.5164 24.6898 7.10327
Pd 18.8651 25.9155 31.1423
Au 25.1489 13.9518 13.8354
Au 25.8871 21.9518 34.3927
Pd 11.097 2.95442 19.215
Au 32.402 13.5199 23.0701
Au 24.1616 14.9571 16.5596
Au 32.6331 23.2966 24.0025
Au 16.9247 2.55285 13.4192
Au 16.432 9.84488 23.1732
Au 24.1275 11.2862 13.5016
Au 7.7358 17.0252 4.89048
Au 12.0049 3.60089 26.6054
Pd 9.3069 8.27524 16.2681
Au 28.137 5.07528 16.0995
Au 17.0955 32.978 10.6947
Pd 19.3903 18.7106 4.47275
Pd 8.706 17.6211 30.0193
Au 4.14449 22.999 27.2638
Pd 15.2366 20.6625 15.546
Au 5.916 22.4393 19.4359
Pd 31.1591 27.4804 22.9867
Pd 13.9832 6.30036 16.0309
Pd 21.0906 28.0884 29.4476
Pd 27.4223 15.9943 20.1607
Au 17.7103 15.3348 22.9824
Au 28.1936 18.551 35.7051
Au 11.3064 25.6278 35.1018
Pd 8.00839 12.6204 20.9888
Au 27.9388 29.703 26.9717
Au 12.0556 12.2618 17.2433
Pd 26.1016 5.91714 25.2363
Au 13.4138 11.6131 28.4341
Pd 33.8624 16.493 17.4802
Au 28.578 16.2237 12.7736
Au 28.7422 22.7865 18.3979
Au 14.8574 6.74745 4.67899
Au 4.44905 10.9082 16.8845
Au 33.1779 19.0895 16.6972
Au 16.2569 18.2038 16.8792
Au 18.8759 9.05439 14.1698
Au 2.80207 13.308 20.9654
Au 34.7173 18.6012 14.2562
Pd 31.1718 16.6276 17.6639
Au 9.27297 22.1666 32.7039
Pd 23.7269 12.2587 18.1596
Au 16.4615 10.3345 14.9294
Au 28.9264 14.3785 25.7437
Au 28.1115 18.0984 14.7436
Pd 26.2433 29.5999 8.17134
Au 1.84775 16.1551 21.4921
Au 11.7531 27.0274 23.5471
Au 9.37776 35.1569 21.7571
Pd 10.0834 11.6745 9.33189
Au 11.4995 11.0968 3.81986
Au 15.5604 21.2771 18.2945
Au 19.7444 15.1226 33.0329
Au 15.0637 9.87182 27.0441
Au 28.7136 35.2314 22.3549
Au 19.2938 7.23504 26.2845
Au 35.309 21.9103 10.389
Au 9.22675 19.1727 5.73808
Au 14.7072 22.4291 32.3243
Au 14.2619 36.7837 19.6344
Au 16.5513 24.0017 8.00204
Au 4.02231 15.3473 14.6637
Pd 22.5755 23.1206 37.2968
Au 21.9941 27.4407 18.6032
Au 19.3777 13.6837 18.616
Au 26.5574 24.2853 35.7607
Au 12.0607 6.10721 27.7713
Au 16.4328 15.1876 1.52776
Au 29.7182 13.5417 23.1333
Au 15.0547 28.1027 17.0732
Au 10.358 3.63754 16.5706
Au 26.5811 24.4365 17.7475
Au 30.2898 20.0956 5.04472
Pd 13.9651 16.484 20.2122
Pd 30.5971 17.8084 13.4894
Pd 23.4998 30.9118 29.3155
Pd 19.1265 20.8871 12.2371
Au 25.3136 16.8471 23.2785
Au 18.437 22.791 35.7306
Au 31.3218 20.85 25.3872
Au 18.7165 24.0294 29.1118
Au 8.52513 13.3417 10.6945
Au 23.6251 4.17894 16.2298
Au 21.9466 16.7049 11.8939
Pd 24.8191 28.0831 15.2306
Pd 21.043 24.5803 14.2985
Au 21.904 1.45205 22.8733
Au 11.3108 28.7655 7.63303
Au 20.2393 14.2142 5.50166
Au 25.9362 35.7273 21.8741
Pd 33.4455 14.0565 20.6089
Pd 21.1945 29.9748 17.8451
Pd 32.8504 20.6131 5.86948
Au 17.6176 21.6146 33.1667
Au 6.26323 24.8862 10.3215
Au 31.2001 14.6413 9.16844
Au 24.2065 15.3722 34.8873
Au 24.0111 23.8021 17.4807
Pd 27.3008 6.73112 11.0372
Au 30.1816 13.3836 16.0936
Au 8.44319 19.2627 23.008
Au 14.0024 6.82958 20.7194
Au 16.3708 20.9663 35.7795
Au 15.7572 16.4393 4.77694
Pd 9.38777 16.576 6.86622
Au 14.6779 13.4544 16.8768
Au 32.9396 22.9401 16.1229
Au 10.4505 28.0603 19.3542
Au 5.0019 18.5608 26.2146
Pd 16.0489 34.0069 24.6227
Au 16.7823 18.8629 14.1862
Pd 10.659 15.0538 23.0589
Au 14.4153 6.95318 26.5851
Au 12.8695 8.66034 4.40568
Au 17.5845 6.65286 19.2335
Au 24.2209 33.7705 22.8832
Au 18.3511 16.2775 25.6901
Au 18.2218 20.0706 2.01085
Au 26.7035 14.8044 33.3109
Au 13.8218 3.64559 19.6738
Au 7.2121 31.1306 17.2187
Au 5.4567 26.9242 18.7716
Au 18.838 25.0566 15.6928
Au 22.5644 6.28101 11.3439
Pd 6.71925 18.3117 20.9797
Au 23.4357 34.5852 18.21
Au 21.1779 11.6575 17.0057
Au 10.8461 9.77783 18.1098
Au 18.7181 30.5638 6.4417
Au 23.0182 31.107 25.8732
Au 9.54665 19.451 28.0215
Au 9.5818 35.5379 19.0301
Au 24.1185 21.8286 26.5699
Au 20.9644 35.0226 19.4792
Au 27.6223 25.8276 32.0404
Au 24.1797 2.20189 21.5047
Au 15.1371 15.4912 31.1175
Au 17.7368 27.2487 33.683
Pd 11.3001 18.6295 15.7592
Au 19.1474 15.5913 1.24867
Pd 10.6237 17.5244 34.1121
Au 5.83895 21.134 16.9664
Au 30.7331 10.7558 15.4989
Au 26.9268 12.6236 23.0394
Au 8.80448 19.8826 15.3186
Au 22.3972 2.70246 14.1685
Au 16.7786 18.6797 6.10086
Au 31.1406 12.5525 25.7133
Au 25.4912 29.2482 19.8034
Pd 18.4449 4.32377 20.5132
Au 22.3601 28.5973 24.9743
Au 14.7998 11.1421 12.4419
Au 13.6909 15.9359 22.8533
Au 17.5863 27.7821 22.3064
Au 15.0085 17.518 2.16985
Au 20.4268 35.6075 24.9078
Au 16.2301 27.3295 12.5344
Au 19.5632 13.4675 35.1582
Au 14.4642 30.7231 16.3739
Pd 22.1219 4.48427 18.2992
Au 18.7871 4.89361 6.56059
Au 5.43002 12.963 21.7629
Pd 23.8099 21.8547 29.3207
Au 5.14747 14.1357 29.713
Au 2.28896 22.5441 25.2871
Au 30.2929 29.6887 24.6724
Au 22.2649 14.9053 7.37815
Au 8.90561 11.0611 30.365
Au 22.1708 13.7442 24.8226
Pd 20.102 9.90348 33.7362
Pd 27.8025 32.687 27.971
Pd 17.8941 26.436 8.10271
Au 26.591 23.4574 6.69921
Pd 11.2637 23.7183 20.9907
Au 32.689 22.5741 10.7176
Pd 16.6012 7.58053 21.5945
Au 20.3478 22.1096 33.6334
Pd 13.6584 19.6759 31.3738
Pd 9.00623 7.01978 20.7222
Au 12.2432 20.6377 6.13843
Au 23.1369 23.2569 24.1749
Au 16.7706 29.0275 7.88365
Au 5.14845 25.1952 13.4188
Au 30.907 9.81817 12.8665
Au 20.3407 26.2088 33.6765
Au 18.3127 28.0516 5.69374
Au 30.2964 15.3378 6.61351
Au 27.7123 35.4446 15.1024
Au 18.1375 20.9819 4.85754
Au 16.513 37.9967 15.82
Au 14.3684 12.6229 31.2088
Au 27.1633 28.109 21.7389
Au 21.0029 29.7757 13.4273
Au 24.1311 34.1347 11.2992
Au 26.8748 30.5751 10.655
Au 19.3375 21.2656 7.64898
Pd 19.4318 24.0727 7.55608
Au 25.605 24.3146 33.1764
Pd 28.7075 32.6915 18.3712
Au 7.14422 25.8925 29.4567
Au 26.0519 7.92175 27.8787
Au 16.5075 16.2834 7.81284
Pd 31.1808 19.67 7.69672
Au 22.4597 4.28111 9.43462
Au 7.15298 11.2733 9.32175
Pd 12.5296 28.7314 31.743
Au 33.1216 13.2261 29.7793
Au 18.0872 14.1887 14.0498
Au 30.0479 11.8136 18.3725
Au 16.8133 23.2992 5.18535
Pd 37.1357 17.4239 14.3234
Au 20.5518 6.01857 23.3799
Au 33.3835 20.1288 29.8056
Au 15.6601 13.0275 14.302
Pd 31.1932 20.9396 28.3474
Pd 19.6068 2.73201 13.634
Pd 15.4822 3.98945 23.8105
Au 20.9994 25.3806 28.7961
Pd 21.1834 23.6828 21.8251
Pd 10.3833 16.8928 4.32857
Au 23.4328 5.60547 29.7709
Au 12.0579 15.5819 28.2321
Au 12.0446 29.6842 17.5141
Au 9.94383 31.1634 22.2018
Pd 21.9527 24.7977 5.30103
Au 25.588 28.4213 5.82055
Au 26.0981 19.8414 27.3151
Au 20.0196 5.50229 10.3185
Pd 17.6355 13.6264 25.3493
Pd 24.7421 12.8705 11.0632
Au 3.66287 13.7517 16.9256
Au 16.015 11.0168 17.6015
Pd 27.9709 14.0799 14.1903
Pd 27.9786 7.63974 26.0171
Au 8.25182 9.05223 18.747
Au 16.7208 8.18833 25.582
Au 11.7869 26.0476 31.2697
Au 14.1569 21.8662 29.6451
Au 22.682 4.15169 23.1137
Au 8.49811 21.9843 16.9358
Au 11.4867 20.8572 29.8173
Au 7.65577 16.4515 9.03528
Au 21.0406 32.7861 18.0297
Au 4.75933 22.5762 12.8691
Pd 16.3204 32.6518 26.8957
Pd 7.37172 15.4018 28.7069
Au 37.0054 17.95 19.0987
Au 29.2619 27.3816 25.2885
Au 20.1705 12.3598 32.7545
Au 20.7517 21.458 36.4209
Au 10.1207 24.0087 26.4221
Au 9.61652 33.4727 23.8772
Au 9.94546 31.8072 17.555
Au 17.2891 21.8121 14.0481
Pd 14.9245 23.9509 25.3301
Au 16.9069 23.4796 31.1113
Pd 25.0119 15.3774 7.03802
Au 17.2315 30.1941 31.9012
Pd 14.68 14.3514 6.46931
Pd 16.6886 21.4388 25.9783
Au 7.84302 9.95994 27.8301
Au 27.1775 30.7885 29.741
Au 10.8783 10.6443 32.1326
Pd 9.50599 15.8486 10.8857
Au 19.6588 27.6161 24.248
Au 29.252 7.51458 12.9486
Au 12.6065 27.7212 9.80513
Au 18.121 31.2106 8.92344
Au 28.5455 19.8771 7.0587
Au 15.9966 6.1036 30.8772
Au 34.8399 18.2921 10.2518
Au 9.56031 24.4815 16.3049
Au 14.205 21.5432 26.8007
Au 32.025 25.9903 28.1243
Au 16.9797 16.4651 12.7592
Au 23.3374 26.407 10.6347
Au 21.4483 17.9615 14.4461
Pd 26.8419 11.7515 13.1177
Pd 29.7043 17.441 20.0146
Au 13.8174 10.991 15.5945
Au 15.784 19.8015 0.95313
Au 8.72465 23.4628 6.58476
Au 14.4188 2.30039 14.408
Au 22.53 26.6964 13.6175
Pd 16.0854 19.7061 28.3711
Au 9.43576 4.09055 21.5522
Au 9.18703 17.7006 13.5479
Au 27.5879 18.0024 22.2131
Au 26.9287 26.4396 7.29597
Au 15.5817 33.9792 29.212
Au 18.5305 14.4428 27.8426
Au 26.5597 4.04085 11.8038
Au 29.4499 34.0509 24.7207
Pd 15.6308 35.3761 26.9285
Au 25.4275 4.61747 22.9808
Pd 24.2472 32.3672 16.4945
Au 33.4622 24.942 26.2013
Au 19.8779 28.5118 35.0236
Au 24.091 17.1941 5.29815
Au 5.69061 9.87944 11.0871
Pd 19.9081 25.4858 18.3426
Au 31.0254 12.2648 20.8822
Au 31.4418 28.6298 20.0746
Au 14.3849 18.1047 9.50022
Pd 10.3582 23.9535 8.72553
Au 23.7906 30.5509 14.4028
Au 21.8206 28.7837 33.128
Au 17.7013 35.7368 28.751
Au 10.0995 21.2937 7.69985
Au 9.06318 26.7807 24.4024
Pd 26.0613 21.6562 17.7911
Pd 27.5267 27.0566 27.3319
Au 33.9384 26.4522 13.698
Au 17.2622 18.8248 26.136
Au 14.8987 21.0018 9.79583
Au 7.08917 5.0119 20.5308
Au 20.3781 23.8307 31.5164
Au 17.9224 1.19737 18.2583
Pd 10.55 10.5889 15.3393
Au 18.5496 26.8645 28.5759
Pd 14.3841 10.521 8.68816
Au 12.801 12.7437 2.1124
Au 4.18872 20.7334 14.7796
Au 21.7786 2.43204 20.1844
Au 13.2131 22.5307 11.8756
Au 27.7758 27.8268 9.61229
Au 22.1084 8.42627 6.98255
Au 15.0341 26.6054 7.96667
Pd 27.7971 10.7184 19.6653
Au 23.3587 25.0243 22.0713
Au 17.9974 4.60317 30.1219
Au 14.3569 23.9487 9.72497
Au 8.28104 28.7941 26.1242
Pd 12.6987 35.1476 15.5229
Pd 13.4962 34.023 13.1328
Au 9.27323 22.5035 14.2065
Pd 15.9992 25.156 22.4053
Au 25.866 35.0717 13.08
Au 13.0563 1.17116 19.8278
Pd 14.6368 4.09345 26.3714
Au 34.445 18.684 19.0566
Au 4.41691 21.5468 24.1657
Au 15.9314 16.9352 24.4465
Au 29.3969 25.9656 10.821
Au 23.8154 24.2242 27.8207
Au 29.6043 15.9992 15.5845
Pd 15.0167 6.64312 12.0142
Au 20.3082 16.4447 18.9666
Au 18.6531 6.96151 8.27677
Au 35.5114 16.6174 12.3569
Pd 10.2799 6.94913 18.3008
Au 33.5745 28.3105 21.8392
Au 17.3136 26.2521 17.7098
Au 2.72874 14.3369 23.4281
Pd 11.698 23.2848 6.45309
Pd 7.73705 8.56459 22.7049
Au 14.3335 11.1959 3.61797
Au 31.0873 22.675 5.34832
Au 16.27 25.5911 29.4932
Au 6.59865 32.1916 19.6915
Pd 17.6077 29.0339 17.2886
Au 8.92335 20.3656 30.7068
Pd 33.7463 22.0779 26.0972
Au 21.7417 26.4877 31.4507
Pd 31.0988 21.7199 19.7502
Au 32.005 27.3876 15.6548
Au 23.9778 12.6684 26.7916
Au 25.0397 19.5342 8.58744
Pd 26.6392 26.7185 19.5093
Au 12.4923 25.2266 25.8893
Au 26.6564 21.7781 29.1108
Au 5.47228 14.2088 24.275
Au 32.7284 29.3451 17.3468
Pd 26.4322 24.5413 13.2737
Au 14.3995 16.9367 28.4959
Pd 23.1759 35.7157 21.0131
Au 18.7772 34.7184 12.089
Au 23.2851 15.1454 27.4018
Pd 15.6699 15.7166 18.3594
Au 19.7159 17.6338 34.1087
Pd 26.8715 33.5754 23.4188
Au 17.0962 32.2565 22.7334
Au 16.2661 21.957 2.62286
Au 34.62 24.2258 11.8217
Au 24.8745 33.6818 20.2514
Pd 20.0026 27.2046 14.2449
Au 34.0737 14.7149 24.866
Au 26.4988 20.0448 13.7731
Au 24.9807 19.2347 3.73608
Pd 20.0665 9.97981 11.8814
Au 30.0356 34.5257 20.0447
Au 12.7482 7.09561 30.2551
Au 12.4274 30.5468 9.57089
Au 14.6964 30.001 30.7035
Au 24.9438 5.57278 18.2849
Au 28.9901 17.083 25.0158
Au 18.3796 9.17666 9.86555
Au 7.44429 17.9665 11.4969
Au 31.6395 18.6355 21.7133
Pd 8.48329 9.35953 14.0363
Au 17.0596 2.55182 25.5276
Pd 18.9387 21.648 30.6095
Au 7.83008 27.4348 10.0661
Au 34.9147 24.6527 21.989
Au 26.9912 9.20399 9.23809
Au 22.9754 27.4629 5.64419
Au 21.089 9.60678 4.69258
Au 6.21052 7.49886 20.8366
Pd 13.763 29.1102 19.6839
Pd 23.2572 15.956 14.2764
Au 12.1902 25.0059 4.4274
Au 28.2397 21.2315 15.9979
Au 9.45862 31.3364 12.8522
Au 17.647 28.2618 26.3482
Au 27.4226 20.8467 23.0796
Au 24.5914 20.4386 15.5875
Au 32.19 20.1541 14.4015
Au 14.629 23.3134 20.882
Au 3.26991 25.0777 25.669
Pd 22.4706 32.8467 9.65764
Au 10.3498 19.9984 17.9187
Au 11.7168 9.78743 8.23708
Pd 29.2531 19.9616 21.0035
Au 34.6651 21.4114 7.77378
Pd 30.547 23.8519 9.58102
Au 26.6271 33.1651 11.1353
Au 25.6247 10.3202 18.1409
Au 23.3429 6.60956 24.3426
Au 12.9057 27.1173 6.09438
Au 7.71024 15.773 31.7235
Pd 16.1539 34.755 21.9352
Pd 16.372 20.6869 30.8846
Au 19.8493 25.4395 2.49863
Au 5.82175 18.315 16.7003
Pd 25.0762 36.5037 19.3037
Au 26.3471 34.3272 18.1169
Pd 19.6486 15.736 7.88959
Pd 24.5942 10.4886 32.4224
Au 29.5503 6.96623 17.6954
Pd 21.5838 19.5397 12.1799
Au 12.2944 24.8747 16.2728
Au 16.8935 13.4609 32.4328
Au 14.8904 25.2031 17.113
Au 5.50672 8.96009 18.5187
Au 25.3271 7.52373 22.6912
Au 23.7013 10.0733 5.2637
Au 13.0179 20.4674 14.0811
Pd 30.0055 16.6285 22.6405
Au 10.3904 27.2039 11.6871
Au 27.3787 23.6472 23.1494
Au 19.5218 9.3533 7.19593
Au 25.9346 6.57452 30.1631
Au 15.9217 30.4471 18.6962
Au 21.5418 22.3159 12.6704
Au 21.9486 33.2882 24.2113
Pd 28.8047 11.5325 24.7992
Au 8.48722 5.55741 16.4227
Au 18.0372 14.5178 3.73644
Au 21.0544 8.02165 9.70395
Pd 20.2534 26.0647 9.43416
Au 31.8204 30.0799 26.7766
Au 28.6707 19.7663 28.5266
Au 32.0453 13.3333 11.4881
Au 12.2452 10.6728 23.3365
Au 25.8655 26.6908 34.2342
Au 22.9447 12.6662 8.93229
Au 17.1021 11.9931 4.17734
Au 3.21836 23.9271 23.1354
Au 23.8652 22.7058 5.85323
Pd 23.5576 29.8613 7.40196
Au 34.7326 21.1027 15.457
Au 23.7864 4.75394 20.5975
Au 21.1135 32.8768 29.3782
Pd 32.7172 15.0082 31.8167
Pd 18.2977 17.0513 9.91438
Pd 13.2647 4.77734 22.3737
Au 25.3809 20.0843 31.0807
Au 23.1403 20.2728 36.6359
Pd 18.3339 18.7984 30.0332
Au 15.5948 29.9729 21.868
Au 24.2238 22.2065 32.1644
Au 29.957 26.287 30.1161
Pd 14.3224 27.1772 30.5569
Au 26.58 15.8929 25.5685
Au 10.9397 19.0553 31.9185
Au 12.2996 18.9942 19.6883
Au 22.4487 9.62786 18.4168
Au 13.224 19.9121 17.202
Au 27.6973 7.61256 15.5656
Au 18.9228 31.9757 30.7726
Au 25.4229 14.6366 4.40971
Au 22.2043 27.6149 22.4788
Au 22.1648 9.67649 31.8271
Au 27.0965 10.1725 26.5121
Au 12.511 14.0737 21.0948
Au 28.3765 33.7369 13.1258
Au 6.72644 7.62554 15.5812
Pd 33.4119 15.0095 13.1764
Au 17.3832 13.226 16.5162
Pd 19.6491 19.5624 9.97557
Au 18.0693 27.9748 10.4224
Au 22.7355 18.8785 31.5452
Au 28.3954 9.62514 11.4774
Au 3.49654 21.9817 17.9299
Pd 15.4387 30.0259 26.6728
Au 13.0172 28.0425 25.9648
Au 4.6457 16.089 27.8991
Pd 7.25014 24.3832 14.8154
Au 20.1835 13.0653 8.00971
Au 8.05637 12.3233 7.00728
Au 31.5975 19.1462 18.9725
Au 22.1515 6.68063 16.317
Au 23.4804 28.7734 30.8733
Au 22.8168 23.718 10.0878
Au 27.6678 17.2583 32.1256
Au 10.0088 20.6525 10.3457
Au 28.3758 28.6283 6.88196
Pd 6.87057 24.1043 17.449
Pd 18.6359 26.1102 12.227
Au 11.5345 29.7023 12.3201
Au 21.9589 20.4984 14.8788
Pd 24.2199 21.567 13.0817
Au 22.6257 21.3962 22.1116
Au 9.20879 28.5856 22.3675
Au 8.3384 23.9319 30.7971
Au 31.4378 21.2317 22.6224
Au 28.3333 21.1771 35.1505
Pd 16.8798 37.389 18.4855
Au 10.4402 6.11413 23.0659
Au 30.8745 19.4708 30.9308
Au 23.6791 24.3219 12.6544
Pd 28.8365 16.3213 34.2433
Au 15.8817 3.98501 11.4026
Pd 10.493 25.3679 18.8138
Pd 11.0293 6.23129 15.6867
Au 29.3746 13.8677 11.2637
Au 12.1817 10.9792 20.5657
Au 19.6288 9.05144 31.2755
Pd 12.0806 19.4255 8.69438
Au 13.1608 9.98226 30.5803
Au 23.4707 6.73967 8.53866
Au 24.4235 31.2594 21.344
Pd 14.1141 34.422 17.7509
Pd 17.2309 22.787 21.6384
Au 14.4408 15.4266 13.1679
Pd 11.0923 19.366 22.3269
Au 26.7754 24.4976 4.21019
Pd 18.1215 35.0482 26.1241
Au 5.95068 21.1642 26.3192
Au 24.4004 25.298 15.1439
Au 12.8124 14.7907 18.456
Pd 15.4775 32.4654 31.4995
Au 21.7174 14.9796 31.0367
Pd 20.2637 20.8405 17.3398
Au 1.56705 16.8189 24.0767
Pd 9.4985 14.2681 8.22657
Au 21.1124 18.2208 25.1968
Au 10.2967 19.4488 25.0546
Au 8.65483 32.5323 15.2585
Au 8.07074 24.1791 24.6163
Au 28.9438 20.0018 18.3503
Au 18.2886 24.3445 33.3845
Au 30.5716 14.4769 33.4318
Au 15.6875 25.5037 32.5038
Au 16.8034 6.45722 28.148
Au 31.2561 33.5856 17.7743
Au 24.1301 36.9168 16.6919
Au 19.9839 7.20423 5.58821
Pd 26.437 25.7715 10.7769
Au 17.6322 21.5921 9.89207
Au 16.6928 31.3233 29.2726
Pd 5.34547 25.3701 27.492
Pd 21.9195 14.1832 18.0595