1687
Atoms. Timestep: 20815
Au 18.2145 26.9446 20.4692
Au 19.1034 16.7829 13.5858
Au 30.1749 28.1551 24.328
Au 9.79102 19.2752 19.3606
Au 31.3124 11.6038 22.7407
Au 24.0686 32.8243 23.5531
Au 3.53155 12.31 22.45
Pd 22.9391 19.1248 22.7306
Au 15.91 22.7062 25.2333
Au 21.8953 6.70325 20.2165
Pd 19.1924 26.5734 25.2256
Au 12.5239 31.3562 7.85838
Au 10.1269 7.08042 29.8548
Pd 7.46415 19.0169 26.1389
Au 7.0254 7.216 26.1682
Au 27.1691 22.2443 29.5503
Au 19.9424 20.4981 35.6008
Pd 24.6105 7.32466 20.4343
Pd 7.42292 15.827 14.3465
Pd 27.8594 21.7791 9.60033
Pd 10.3737 5.06391 23.5709
Pd 7.35694 12.5778 20.4495
Au 28.3686 8.58633 26.3436
Pd 27.1088 29.0257 12.1997
Au 19.28 16.9705 19.4591
Au 29.5974 18.0965 25.7585
Au 16.1725 27.7388 13.0931
Au 20.8961 8.11578 6.81626
Au 25.5393 17.8155 1.64663
Au 33.3805 10.2149 17.6636
Au 6.74775 9.99195 19.4509
Pd 29.2387 10.9633 27.6216
Au 28.8508 16.8612 34.7597
Au 25.2653 7.36248 8.12966
Au 19.4942 29.3923 20.5273
Au 25.6528 15.2227 11.7834
Au 5.4512 13.0062 24.1374
Au 33.6664 25.0911 13.0443
Au 28.5147 19.9269 20.7182
Au 24.3032 28.0181 7.5179
Au 19.0226 19.0875 17.9133
Au 13.633 17.1695 30.0818
Au 31.2047 19.5604 5.76396
Au 8.11954 17.052 19.5619
Au 32.9228 21.7105 16.293
Au 14.7685 14.1382 29.4591
Au 25.2044 10.0929 30.1723
Au 16.2971 4.64252 24.6253
Au 16.0304 9.11329 27.3388
Au 28.7676 28.0892 15.5242
Au 4.5937 20.9908 30.1985
Au 6.00106 14.6298 19.0132
Pd 13.4629 21.6758 24.2923
Au 19.1515 20.4751 7.4372
Au 31.835 23.8762 11.2945
Au 8.521 11.004 11.3469
Au 9.68276 23.1859 26.6544
Au 12.2393 30.417 13.4913
Au 2.3695 15.7594 25.6585
Au 6.9102 22.1115 8.96091
Au 34.7138 13.1719 15.6041
Au 14.464 27.51 30.3497
Au 14.1152 5.48963 13.3201
Au 26.0653 19.9901 28.6093
Au 29.0335 3.08573 23.645
Au 10.905 13.9769 5.57418
Pd 24.599 29.2075 19.6481
Au 24.2037 25.892 9.37205
Pd 30.4518 16.8373 16.9739
Au 28.4552 24.1564 30.9402
Pd 32.3624 16.0295 21.3939
Au 13.2025 13.922 16.8103
Pd 28.4903 13.3325 19.1726
Au 25.2199 14.6324 34.3603
Au 19.9294 5.31839 16.0715
Au 4.28025 22.7511 28.2132
Au 28.453 4.26396 28.9905
Au 2.76306 16.255 15.7338
Au 16.6484 12.1253 9.74834
Au 15.178 5.88662 15.6903
Au 32.277 15.6475 7.94042
Au 17.7656 25.3112 12.5687
Au 20.8201 29.4536 29.6314
Au 5.47574 29.6783 28.7419
Au 34.5426 17.344 30.558
Au 21.8371 21.7332 4.31841
Au 13.9534 8.45423 15.8969
Au 4.72709 11.9258 20.0923
Au 23.1411 30.4141 24.8343
Pd 19.7365 21.4485 2.47931
Au 18.166 4.44646 29.0655
Au 15.8495 32.4975 15.0807
Au 10.2703 20.952 5.95656
Au 12.1682 28.55 23.7911
Au 31.4252 16.7775 5.66695
Au 16.2259 24.9968 7.70791
Au 30.719 22.1836 6.17334
Au 31.7855 19.1676 16.0762
Pd 12.0725 28.7447 27.6052
Au 6.51663 11.2207 13.1803
Au 25.4089 23.3414 24.5003
Au 9.5137 12.6726 30.536
Au 23.4949 19.2009 29.5429
Pd 26.0927 13.5448 25.9532
Au 10.9868 12.5593 23.4137
Au 12.5896 33.6687 17.9033
Au 18.8397 30.6717 28.2455
Au 24.3458 29.4573 12.5402
Au 23.0747 16.6856 2.76521
Au 7.64634 11.4836 15.6904
Au 7.20649 29.0178 17.5021
Pd 19.0447 3.44127 14.3794
Au 29.8612 27.8094 28.9597
Au 5.27964 17.6466 26.8745
Pd 11.3504 10.6449 31.3463
Au 6.61596 19.9507 31.5636
Pd 21.3928 32.2591 23.509
Au 0.150061 24.6781 14.5836
Pd 6.38814 22.238 14.5443
Au 18.1078 33.5547 24.3721
Au 22.0355 5.61837 11.4797
Au 21.1598 11.726 10.0839
Pd 30.6126 9.65114 11.8361
Au 31.0429 16.2998 29.9977
Au 34.9271 28.8786 15.2716
Au 32.4095 11.8985 15.7425
Au 5.32151 12.0172 26.8297
Au 26.8458 32.7556 23.4291
Au 23.1731 15.1063 13.6738
Au 21.2444 19.6516 15.9219
Au 18.4562 37.0644 15.8477
Au 24.6174 30.2604 17.0477
Au 15.4934 20.859 11.5923
Au 30.4574 11.4832 7.76628
Au 24.4229 22.8688 28.9517
Au 23.8761 13.1661 18.7982
Au 25.4139 13.8432 6.76205
Au 31.071 25.4473 13.6821
Au 9.79361 29.7146 14.8942
Au 7.00981 22.1187 29.594
Pd 20.4231 21.7687 14.1356
Au 36.1401 12.9188 25.7762
Au 5.49915 12.6352 29.9041
Pd 27.7876 25.7917 5.83457
Pd 35.9682 18.3493 14.1932
Au 20.21 22.1484 16.8506
Au 28.4224 10.691 18.0105
Pd 32.1127 22.817 21.6252
Au 26.6361 12.4039 34.0109
Pd 16.2821 15.5163 22.88
Au 20.7527 15.2553 17.8253
Pd 33.3786 13.811 26.6975
Au 5.09206 17.0385 14.5133
Au 17.287 32.2456 26.5738
Au 18.0016 20.9969 25.9895
Pd 18.8887 27.8384 13.1474
Pd 14.7639 16.5912 33.4067
Au 24.3489 15.244 9.22262
Au 2.9121 13.5532 15.2648
Au 23.7058 19.4309 10.8979
Au 12.2975 29.4022 30.2578
Au 20.8494 31.0495 8.85271
Au 3.3135 30.1097 12.0256
Pd 24.6946 5.33558 27.9918
Pd 25.7051 30.3318 7.94363
Pd 9.00901 23.0858 14.3282
Au 17.1924 26.46 27.2074
Au 26.093 8.93312 27.8681
Au 15.0658 29.7045 11.4536
Au 16.3832 30.8116 24.342
Au 19.5094 8.53994 31.7164
Au 10.0643 6.51948 16.959
Au 20.426 18.0049 23.1995
Au 20.5786 26.721 6.33312
Pd 31.2078 27.0788 22.0105
Au 11.1612 27.4289 21.1265
Au 22.7393 10.0079 34.0896
Pd 27.8416 20.4383 16.7638
Au 30.5331 14.3878 12.0375
Au 30.9276 23.6809 29.3486
Au 30.225 6.23848 27.9608
Au 22.3715 1.68005 26.3632
Au 5.64881 15.9074 11.9022
Au 3.24707 25.3572 28.7041
Pd 11.5532 30.5832 25.7626
Au 27.008 22.3011 12.1256
Au 21.1085 8.07486 27.1793
Au 24.4387 36.0523 17.3113
Au 25.6469 2.59499 20.0503
Au 34.2586 7.579 21.4005
Au 22.9123 19.2996 32.272
Au 16.9192 18.1347 26.6338
Au 31.2425 20.5248 20.5079
Pd 7.52667 24.1238 27.9206
Au 32.6135 12.9881 8.29136
Au 21.4623 6.2393 25.0514
Au 18.551 22.7836 24.035
Au 15.6283 13.1722 21.1921
Au 24.2191 26.3733 35.4339
Au 25.8115 21.9048 7.34556
Au 24.029 14.4134 21.4886
Au 16.447 25.2101 15.1533
Au 34.1705 26.8263 21.7543
Au 22.6199 32.7557 25.9816
Au 16.6496 33.88 8.93306
Au 21.8976 28.0169 20.5031
Au 30.3143 21.529 11.0861
Au 21.5533 14.8228 26.9997
Au 14.0371 23.9846 15.1454
Pd 12.5857 31.4392 10.8346
Pd 9.69442 18.1542 14.163
Au 25.3251 10.0478 34.6224
Au 5.19257 19.8581 25.0004
Au 23.3243 35.5949 15.026
Au 17.6852 11.1593 34.0379
Pd 18.5774 17.9758 6.23338
Au 17.5444 4.13912 22.089
Au 34.3757 17.3513 24.7753
Au 13.6673 24.0682 34.0994
Pd 24.8367 11.0246 7.40279
Au 16.3568 3.8179 13.9496
Pd 24.3484 18.6948 26.8934
Au 10.5566 11.4286 16.3049
Pd 29.5343 16.1629 27.6419
Au 10.4728 14.5977 8.37431
Pd 16.0039 22.0921 15.3832
Au 11.201 15.1131 21.9185
Au 21.7939 12.527 25.4374
Pd 33.9742 22.2811 23.6709
Au 27.59 13.873 13.5161
Au 22.3793 6.88573 8.85547
Au 25.9326 19.3288 21.9055
Au 5.67864 21.8692 22.9623
Au 5.56571 27.9533 8.27413
Au 7.63626 8.39874 21.6159
Au 16.6857 32.0658 11.4053
Au 33.3283 17.0724 16.8125
Au 5.36863 19.7426 13.7925
Au 4.41926 18.275 29.6712
Au 10.3945 27.7187 12.9727
Pd 13.3832 24.6719 8.92488
Au 32.8079 23.8809 6.58191
Au 1.43737 25.1957 12.2952
Au 1.54053 20.8799 19.3669
Au 25.9797 28.7904 31.1611
Au 30.3435 18.0226 21.318
Au 35.8083 26.4963 14.4181
Au 28.5724 15.1113 30.8252
Au 28.789 20.3316 13.0263
Au 30.3288 7.82569 24.3199
Au 21.8684 30.1112 15.4073
Pd 31.2076 30.8144 12.068
Pd 34.6141 19.3773 16.4091
Au 30.3364 7.21997 21.091
Pd 5.86502 29.6466 10.4917
Au 11.7202 35.5676 19.7371
Au 8.48224 13.5826 33.0072
Au 26.9372 28.8309 17.4383
Pd 14.4709 7.33653 28.5889
Au 7.80242 19.974 10.5918
Au 33.3624 17.8133 14.2286
Au 13.0477 14.3094 34.4433
Au 16.7332 8.85228 32.1727
Pd 24.6317 21.4424 26.6451
Au 12.1781 30.4625 16.4504
Pd 25.5392 17.4569 10.238
Au 36.3062 21.5111 22.511
Au 10.4133 4.8706 28.2765
Au 9.96501 7.9738 14.6987
Au 22.3656 21.9045 10.7367
Pd 33.5593 17.1866 9.73885
Pd 29.33 11.8407 12.6513
Au 10.5792 14.1876 16.5805
Pd 13.8987 2.20505 18.4579
Au 24.1578 5.08575 15.0211
Pd 13.3048 28.0125 12.7207
Pd 18.2335 4.02133 19.1619
Pd 15.7997 19.2859 32.3664
Au 10.0404 19.0052 16.6628
Pd 16.0427 18.618 29.6682
Au 29.4 21.3039 33.1792
Pd 19.3474 18.0369 35.0437
Au 22.315 21.1762 1.71535
Au 13.2431 14.4578 4.34153
Au 22.0223 9.37605 14.511
Au 4.71923 17.264 24.1419
Pd 25.2051 12.831 15.6269
Au 12.8711 11.9787 5.65764
Au 23.9767 26.4881 20.9833
Au 3.70827 28.0973 10.2603
Au 28.8793 25.1187 15.2582
Au 24.1766 20.3987 5.46882
Pd 31.5691 19.7946 13.2981
Au 8.46071 15.6046 11.6522
Au 30.7701 4.29785 21.8371
Au 20.2884 2.84982 27.8565
Au 5.11856 14.6387 16.1489
Pd 27.4002 27.2389 27.4765
Pd 21.9867 30.6045 19.8803
Pd 27.3425 9.97926 20.397
Pd 30.3914 25.0102 18.6546
Pd 17.0856 19.6445 20.5521
Au 22.5457 12.3778 14.6966
Au 7.78524 26.2722 26.1551
Au 10.0112 19.1189 25.4147
Au 26.4807 19.5925 11.6206
Au 22.9691 3.00887 28.9868
Au 15.8683 34.3158 12.8659
Au 20.122 26.7708 10.7049
Au 11.3357 11.8983 28.4993
Pd 21.5965 14.5129 4.14742
Au 5.8645 28.9746 19.9231
Au 34.1709 21.4125 20.7708
Au 17.3939 13.9615 24.8795
Au 4.10965 31.1809 19.599
Au 31.9057 11.4439 27.2827
Au 9.69119 30.3606 17.8415
Au 32.3241 6.3207 22.9613
Pd 18.2269 11.706 11.9123
Au 17.9399 22.2801 35.5994
Au 29.1016 5.20878 19.8363
Au 34.999 16.8059 22.1568
Au 18.5931 23.5999 14.5698
Au 19.9275 32.1052 21.0927
Au 9.01351 15.6497 6.37195
Au 31.0418 32.247 17.1456
Au 2.65987 18.2639 19.1362
Au 29.4731 15.7855 7.33056
Au 14.1649 7.50775 20.6444
Au 18.767 28.9598 33.5124
Au 22.0978 24.7685 10.9884
Pd 20.8025 17.4878 7.49122
Au 3.75809 22.4105 18.179
Au 14.1702 28.1033 4.92806
Pd 14.8844 22.335 9.30439
Pd 17.4955 15.247 15.1429
Au 12.0848 26.2639 33.9646
Au 12.0121 6.12003 21.7263
Au 23.7185 4.99626 30.5947
Au 11.4359 8.83212 17.018
Au 22.1039 11.166 19.5409
Au 36.2081 9.26896 22.4106
Au 21.8569 17.5023 14.0362
Au 2.60363 20.1666 17.0734
Pd 9.97623 25.7219 27.649
Au 24.9948 23.5377 14.2911
Au 20.5434 14.5931 14.8784
Au 3.35238 20.8815 12.2828
Au 20.9375 17.1831 4.54443
Au 17.3378 30.7011 16.5461
Au 14.051 21.5696 32.5849
Au 31.7809 20.4161 23.2636
Au 20.9203 24.3995 24.7509
Au 11.7753 12.5286 9.55691
Au 33.2512 21.1067 6.76595
Au 7.04676 13.3604 11.1906
Au 19.7597 15.4025 34.3877
Au 18.7228 19.2435 28.4314
Au 14.1893 19.4361 9.04851
Pd 31.9964 8.95203 22.2197
Au 24.7932 10.4075 19.547
Pd 24.3702 32.3406 11.7921
Au 13.9408 36.2068 11.9593
Au 1.39168 26.2603 19.6192
Pd 26.8464 4.3136 26.8892
Au 16.0524 17.2023 2.13997
Au 7.2776 19.1606 17.9769
Au 27.5805 3.44549 18.4475
Pd 27.5234 15.7767 25.4136
Au 18.9766 22.0694 28.4369
Au 20.1606 32.9885 18.5484
Au 16.6399 25.9387 29.9972
Pd 15.1745 30.044 31.0831
Au 21.3107 28.3195 25.2153
Au 10.9248 21.5561 17.6348
Au 6.10528 10.8334 22.2264
Pd 2.84639 18.5587 25.8583
Pd 32.9681 19.3853 29.9633
Au 30.2242 14.2273 17.3475
Au 17.8622 6.37212 17.642
Pd 15.4468 12.6722 34.4707
Au 5.81659 31.025 21.7254
Pd 18.8625 18.4059 9.23455
Au 13.7246 20.043 30.2047
Pd 37.3217 19.7447 16.2971
Pd 34.9556 22.821 13.3823
Pd 14.1176 24.2444 23.4745
Au 3.4697 31.2229 14.4883
Au 24.2769 15.2797 4.80691
Au 22.2799 21.1772 28.0365
Au 29.1859 7.12941 11.9745
Au 14.255 28.5848 17.4499
Au 16.8967 12.73 18.6421
Pd 23.4165 25.3721 3.99716
Au 21.6552 28.2686 13.4732
Pd 24.6726 7.39745 29.7222
Au 24.8987 29.7586 5.32548
Au 23.8857 12.3503 35.0007
Au 21.5769 4.59897 13.9718
Au 12.4241 24.5694 21.0187
Au 26.7004 11.7297 11.6466
Pd 5.00125 29.8917 23.9937
Au 20.536 25.6716 13.2295
Pd 16.2071 35.8823 10.7076
Pd 11.3581 34.8081 15.3617
Au 29.2161 19.5015 23.4354
Au 14.2351 19.0221 27.675
Au 17.4694 11.1784 20.7792
Au 20.0039 15.5834 21.7491
Au 13.4104 8.41949 25.9511
Au 18.7891 28.1478 4.81283
Au 34.0524 18.0507 27.6747
Au 19.439 8.30428 15.4621
Au 24.7507 12.9303 12.9909
Au 7.6234 29.7554 13.1596
Au 9.2094 17.7441 35.04
Au 20.2461 2.25953 19.7027
Au 5.6128 27.5416 30.569
Au 38.1441 21.6377 18.1351
Au 20.7263 19.5806 30.4412
Pd 15.0878 14.7271 18.7775
Pd 15.2599 16.3962 28.0992
Au 25.529 18.4305 31.9304
Au 24.8463 20.1567 24.3995
Au 16.479 16.8588 12.9568
Au 12.6884 15.0007 14.3622
Pd 20.2638 8.75456 24.6673
Au 16.7223 28.0043 15.8665
Pd 14.4763 13.9197 32.1335
Au 19.7982 2.7281 16.9733
Au 16.3432 28.9219 8.85738
Au 13.2219 5.99006 24.3047
Au 21.2091 15.7218 9.50115
Au 10.8159 16.8025 18.7973
Au 16.7677 8.31396 15.9835
Au 36.8389 16.1195 19.3966
Au 20.7945 34.4875 24.8677
Au 12.823 14.2105 27.5677
Au 33.0575 15.2099 31.4607
Au 15.2039 21.0179 6.92205
Au 31.8839 22.7472 18.7174
Pd 6.72933 15.3348 23.9717
Pd 12.4965 7.68431 13.0837
Au 12.4242 12.0124 25.7794
Au 17.2383 32.581 21.9798
Au 22.0193 33.025 10.447
Pd 26.9154 22.5255 18.392
Pd 25.0975 33.7991 14.0317
Pd 28.8637 5.82112 22.9157
Pd 11.6249 21.1144 28.9111
Au 5.33283 9.2492 26.435
Pd 15.5172 12.2284 12.3618
Au 21.0573 29.0255 32.2305
Au 26.6519 17.8109 16.1795
Pd 11.2376 20.1694 23.3229
Au 11.8387 36.6087 13.4797
Au 10.977 27.593 31.8645
Au 15.8965 14.8885 3.56239
Au 2.23264 27.4564 17.1932
Pd 7.19992 18.0057 12.6961
Au 27.2866 19.2977 3.28881
Au 21.828 31.3258 5.12118
Au 16.8672 35.8905 18.2041
Au 12.7076 33.1807 25.823
Au 10.5913 22.9114 20.0296
Au 23.7488 11.6876 21.8012
Au 27.0174 8.07173 30.8749
Au 28.9016 20.7779 4.78168
Pd 32.4804 8.40942 19.5119
Au 11.7741 16.6286 6.80354
Au 38.3457 22.1767 15.5875
Pd 21.642 11.923 28.0923
Au 30.2489 20.7451 25.7865
Pd 10.8086 3.66918 21.291
Pd 10.0274 28.1836 25.9619
Pd 27.4717 16.6177 3.28228
Au 26.3689 26.9214 19.7242
Pd 33.0613 18.6644 21.2141
Pd 17.3535 12.4869 14.3781
Au 30.9777 23.4178 32.1194
Au 16.3502 20.8123 28.0544
Au 10.4055 32.7351 27.0024
Au 24.2784 11.7042 24.5653
Au 3.84303 29.2683 26.556
Au 17.0619 14.2536 27.7387
Au 24.7037 19.4704 34.3348
Au 7.42547 27.6428 15.2018
Pd 15.889 17.4403 10.2984
Pd 11.9997 6.80274 27.5715
Au 19.8612 6.90729 10.2625
Au 30.9907 13.6105 30.9972
Au 29.5063 31.5095 19.2515
Pd 13.0259 33.802 23.2219
Au 32.903 24.8508 30.6266
Au 30.9805 6.51245 18.2092
Au 34.5788 14.8991 20.2134
Au 6.13365 8.54139 23.9015
Au 27.8335 33.358 20.4159
Au 31.8245 20.5519 32.2423
Au 29.6687 11.1383 15.5541
Au 25.3139 26.9133 5.2511
Au 15.6093 17.6594 35.7082
Au 30.2507 18.7158 33.5177
Pd 20.5432 33.5895 13.0141
Au 17.7055 16.0814 35.9011
Pd 5.10751 26.7334 16.7867
Pd 13.5795 11.6924 30.3834
Au 25.2243 17.84 4.29259
Au 8.3615 7.4656 19.0671
Au 28.2026 17.5297 29.5802
Au 27.7469 24.6166 19.9748
Au 26.1438 30.7829 10.4834
Au 19.0343 13.6897 10.1404
Au 29.3955 9.30101 31.6221
Au 16.6028 28.078 32.1451
Au 12.4819 15.7676 32.1899
Au 1.85754 30.0054 16.5036
Au 32.8326 7.082 28.3524
Au 25.7921 30.2519 23.9551
Pd 13.3594 21.7423 19.001
Au 3.91679 25.7198 9.06753
Au 14.929 26.4025 33.4757
Au 20.0461 24.82 17.7718
Au 30.995 13.7905 6.31578
Au 11.3861 20.8698 32.0227
Au 4.61653 23.9072 15.9022
Au 26.659 2.05548 22.6694
Pd 7.39959 31.3707 23.8416
Au 20.6565 13.5049 7.95271
Au 33.7224 12.2505 24.617
Au 18.805 13.3601 16.6356
Au 22.1017 7.45557 31.0838
Au 20.0022 26.497 33.4272
Au 21.0796 4.63412 18.6809
Au 8.60648 19.8696 7.88781
Au 34.6407 11.3801 27.3854
Au 28.0904 13.9455 10.8611
Au 13.687 10.6089 27.8028
Au 5.51969 24.8718 18.8783
Pd 23.696 7.50309 26.6104
Au 10.1639 31.2206 9.36683
Au 15.9931 11.7402 28.865
Au 25.3344 15.2236 2.28353
Au 27.4087 28.1113 24.8748
Pd 18.1876 20.643 15.9087
Au 22.021 12.4968 33.002
Au 25.9834 15.804 31.821
Pd 17.3851 17.353 33.4713
Au 13.9904 35.3598 14.6442
Au 15.5678 15.8555 25.5022
Pd 10.014 12.7279 20.8585
Au 28.7535 13.4874 26.7125
Au 25.7789 3.30113 29.3272
Au 27.2594 28.6454 6.24963
Au 18.7983 25.224 22.6936
Au 15.862 3.40427 27.386
Au 23.6807 9.25601 9.23933
Au 33.119 18.3828 7.32856
Au 28.9381 12.1817 32.0726
Pd 15.1622 15.9221 16.4501
Au 33.9887 20.0225 9.29425
Au 16.5365 32.2004 6.71013
Pd 11.9891 28.1871 15.1419
Pd 17.2587 11.5832 26.4059
Au 14.585 22.8874 4.00665
Pd 12.3138 19.2243 18.0817
Au 14.2692 17.1811 14.3396
Pd 35.0374 15.0479 17.5673
Pd 13.2796 9.36827 18.8915
Pd 15.2584 22.1982 30.0452
Pd 18.5703 26.547 2.48537
Au 21.2361 26.5748 22.9459
Au 29.9032 26.6752 26.5116
Au 6.73393 19.5245 28.7908
Pd 19.9024 5.57778 27.2811
Au 7.81922 28.736 27.4497
Au 7.52016 7.20951 16.4911
Pd 17.5526 20.7513 30.5722
Au 2.96226 26.3572 21.9425
Pd 29.3431 15.2339 4.71046
Au 34.2888 18.8206 11.8242
Au 36.087 25.5209 11.9836
Au 23.9654 4.71824 20.0693
Au 6.24925 14.3588 28.0988
Au 29.4637 30.0231 7.01855
Au 12.5119 24.0527 18.1989
Au 12.1914 14.6856 24.7909
Au 0.435918 25.4349 17.0885
Au 36.8362 14.6824 21.7299
Pd 20.8465 15.3771 12.1487
Au 18.9365 30.9849 23.3762
Pd 23.3474 15.8276 18.969
Au 11.0878 16.3464 4.29564
Au 34.9649 9.68576 19.9606
Au 30.5356 7.12093 15.5207
Pd 13.0749 26.5832 19.2886
Au 23.1145 25.6815 6.69626
Au 6.07866 31.5541 17.6822
Au 7.0165 23.6338 24.993
Pd 6.12323 21.6633 11.8908
Au 5.56412 23.9521 10.4735
Au 16.5513 11.6941 23.422
Au 28.5632 2.79807 20.9288
Au 36.9803 24.1337 14.5396
Au 17.82 31.4397 19.3965
Au 26.1842 16.1142 22.9877
Au 14.8699 12.2604 3.69557
Au 15.5817 7.82639 13.6001
Au 5.73637 32.7316 15.1553
Au 17.4554 26.0693 17.9435
Au 9.8055 26.6073 10.2966
Au 12.1128 16.8318 16.3208
Pd 23.6047 16.8221 33.5523
Au 24.0427 30.4111 27.5646
Au 20.0984 13.3145 1.91529
Au 23.5544 20.5311 8.1877
Au 16.9818 6.85983 30.0913
Au 12.9846 14.0891 7.38252
Au 13.0835 2.04482 21.0219
Au 9.6873 25.7843 15.0301
Au 5.41395 27.6591 22.4787
Au 19.6884 30.4827 13.5398
Au 26.7328 31.775 13.0754
Pd 26.1332 6.78197 25.8791
Pd 30.3212 24.8265 6.30562
Pd 23.7678 30.5526 21.9682
Pd 7.61376 16.1821 26.493
Au 9.05759 10.5567 22.6349
Au 22.4205 14.6568 34.7007
Au 26.2435 17.0767 34.3338
Au 20.5869 7.2942 17.8946
Au 11.6683 4.41953 25.8973
Au 21.7314 0.536395 20.9553
Au 27.8813 13.2397 16.2372
Pd 22.987 26.2225 25.3016
Pd 22.8996 27.4403 11.1971
Au 17.2201 13.558 30.69
Au 10.1696 8.7229 11.9974
Au 32.7112 11.1408 20.2163
Au 16.4886 23.7175 22.3099
Pd 32.7058 15.0723 24.1681
Pd 10.4792 32.5938 16.7233
Pd 28.883 13.0157 29.3666
Au 8.86411 14.9945 28.7491
Au 14.8395 25.8467 17.4478
Au 33.0018 29.2921 21.2218
Au 31.2498 8.12352 30.1182
Au 8.56922 34.2108 15.487
Pd 30.1347 25.364 24.1063
Au 28.5889 23.4715 4.54491
Au 6.28398 32.982 20.0178
Au 18.3901 11.0354 31.415
Au 29.8258 21.5233 30.4841
Au 22.029 11.9266 3.24274
Pd 15.1638 31.4494 9.15901
Au 14.4522 13.7006 23.7015
Au 37.0357 16.3668 24.1125
Au 11.8232 10.1321 21.3194
Au 10.9289 7.20626 25.1025
Pd 3.27847 24.1965 20.2927
Au 7.80609 14.0754 16.4757
Pd 12.5366 19.127 14.8377
Au 29.3143 3.47625 26.4156
Au 2.05467 17.4697 23.5699
Au 2.24181 21.2042 26.285
Au 23.2919 28.6799 30.4919
Au 5.82577 10.2239 28.8774
Au 22.0563 32.9944 7.39682
Au 35.1232 20.1138 25.8512
Au 14.3211 5.54044 26.6529
Au 2.91967 18.8648 14.7542
Au 12.387 21.8935 8.18102
Au 9.94275 30.6742 12.1093
Au 15.1699 4.72665 18.0769
Pd 12.0882 26.1349 16.6979
Au 20.9724 35.0105 20.1759
Au 23.1397 17.7208 5.96936
Au 15.2277 2.45951 22.8354
Au 37.6037 18.6205 18.8673
Au 16.7473 21.9168 32.9264
Au 12.3348 8.86064 29.5034
Au 13.799 35.7007 9.28135
Au 21.6155 26.9706 15.9298
Au 26.5824 34.842 16.0039
Au 35.5195 13.7353 28.4398
Au 29.1696 23.0783 17.0776
Au 7.11422 14.6347 30.9242
Au 22.8009 22.1622 24.2234
Pd 15.5409 27.5463 19.8855
Au 17.2651 20.3371 5.40111
Pd 18.9252 24.9875 35.4262
Au 18.5914 15.8644 8.31994
Au 32.4582 5.78067 20.3193
Au 25.7092 15.5028 14.6113
Au 21.6697 23.7873 2.47807
Au 18.2531 13.6081 22.2765
Au 4.923 11.7912 15.4626
Au 26.4316 19.9185 14.4
Au 12.2549 25.853 11.2644
Pd 25.0163 9.18893 11.7875
Au 4.34324 29.2967 17.534
Au 9.38284 9.96501 19.9864
Au 19.8224 10.5347 26.6341
Au 0.958323 21.7685 21.9163
Au 18.6764 14.0446 4.06766
Au 10.3264 30.0643 20.651
Au 17.7765 21.3026 13.2961
Au 3.02232 28.0145 24.0684
Au 23.6368 6.13326 17.7697
Pd 30.4585 15.9095 32.6679
Au 11.0457 7.82708 19.746
Au 10.1365 35.1215 17.7168
Pd 32.8722 21.7549 26.0957
Au 11.5218 11.5222 18.8681
Au 6.34684 25.1183 8.03446
Au 26.1432 24.16 34.7192
Au 8.32146 20.4424 13.4147
Au 17.0322 19.7813 34.897
Au 27.7078 9.28495 11.7938
Pd 15.117 9.44651 30.0183
Pd 23.9578 28.2192 15.0715
Pd 29.5692 28.8149 11.2332
Au 6.05233 9.56345 16.8591
Pd 4.91187 15.066 25.9295
Au 21.6751 13.9261 20.1631
Pd 15.2888 10.0241 34.1651
Au 22.5608 21.6996 30.7794
Pd 11.8226 25.7776 23.48
Pd 11.1755 13.2212 32.6828
Au 18.2137 29.2043 2.5316
Au 6.10802 25.6174 32.4169
Au 7.85009 30.8916 19.7264
Au 15.2012 4.90265 29.4914
Au 29.7817 27.4758 6.36224
Au 13.1197 16.6887 26.4468
Au 37.2357 23.0862 12.0894
Au 36.2917 17.3067 16.8373
Au 23.5176 25.5944 28.49
Au 11.1111 23.5348 10.0998
Au 26.1174 34.297 18.6312
Au 34.169 8.11218 24.0131
Au 15.377 33.2826 24.3655
Au 20.6916 12.7283 12.6139
Au 22.9843 30.3318 7.32756
Au 24.5864 27.8187 33.2023
Au 27.6149 26.642 10.6954
Pd 28.001 14.6127 21.5961
Au 19.0896 13.9501 19.6102
Pd 14.7102 31.651 26.6371
Au 1.69754 25.4375 24.2053
Au 21.6027 25.6682 35.6317
Au 7.05809 17.3954 9.9647
Pd 32.2982 28.6723 10.8686
Au 27.021 10.9756 23.3647
Au 14.4911 16.0698 6.16647
Pd 12.0488 26.9941 8.80005
Au 24.8867 14.7256 29.5506
Au 30.891 4.80076 24.635
Au 15.6995 19.6021 14.2411
Au 26.0486 9.06795 6.05887
Pd 24.7581 27.2919 17.5469
Au 28.8655 11.2972 9.95235
Au 33.3766 23.6287 28.1443
Au 9.16932 5.95122 21.2091
Pd 26.9667 18.4026 24.3997
Pd 11.5792 21.2216 26.1583
Pd 19.1834 13.1997 32.8526
Au 10.4837 25.2564 30.4731
Pd 20.7106 35.3196 11.0605
Pd 19.7382 19.6045 4.41721
Au 32.2225 16.3686 26.5152
Au 14.1027 19.5457 34.71
Au 26.5184 32.1044 15.8454
Au 9.03903 21.6179 24.5478
Pd 21.0412 25.7638 27.0991
Au 20.099 4.67173 21.3025
Au 26.6364 30.0263 26.7825
Au 14.5476 7.04942 31.3232
Pd 30.1547 15.4253 25.1221
Pd 19.9334 15.2698 6.10018
Au 9.93292 30.1628 23.5004
Au 13.849 15.2604 21.1654
Pd 22.1091 31.2821 12.7083
Pd 27.336 20.577 26.1564
Au 10.0671 15.445 13.9026
Au 16.4434 5.94364 20.1507
Au 5.5052 27.1229 27.9183
Au 1.06311 22.7074 24.4079
Au 17.316 11.7503 5.04345
Au 21.6121 20.506 18.6025
Au 8.48158 15.2208 21.6245
Au 21.8561 17.8445 17.9067
Au 18.9421 29.5608 25.6414
Au 6.59091 22.8572 17.4483
Pd 18.5064 21.875 21.527
Pd 13.9565 21.9583 27.3908
Au 33.1744 28.3647 17.17
Au 27.6541 29.3679 29.1536
Au 25.089 16.0187 26.6671
Au 22.7999 21.0976 35.6601
Au 9.06289 17.9564 28.2993
Au 8.87409 32.252 21.8391
Au 1.03315 23.5059 19.0264
Au 16.0021 15.0469 8.39716
Pd 15.9526 22.0754 20.1079
Au 20.5289 12.6935 35.155
Pd 27.9991 28.9873 9.0755
Au 5.51738 24.5936 21.7698
Pd 16.3745 14.6214 11.1326
Pd 4.5789 15.3414 30.0286
Au 20.7771 23.0131 35.7396
Au 16.4233 31.383 29.088
Au 31.0927 12.9421 25.1829
Pd 16.51 24.6668 3.05826
Au 9.04341 19.724 33.0233
Au 8.78764 9.40312 17.1616
Au 22.5072 26.0539 18.5268
Au 2.21867 29.1513 19.2644
Au 28.8742 16.7189 23.1467
Au 11.273 19.4731 34.6346
Au 24.1325 22.8206 3.05098
Au 14.4561 19.5135 19.7596
Au 22.0784 3.51425 24.2407
Au 31.5172 24.0812 16.073
Au 14.9998 10.4307 5.72576
Au 28.9641 17.9825 5.35868
Au 23.2817 30.168 10.0985
Pd 20.6909 18.0811 11.4069
Pd 9.25273 16.5069 16.4378
Au 19.7947 31.9899 15.8212
Au 22.3028 8.30087 11.4527
Au 9.48797 22.5675 8.05268
Au 15.8126 9.09656 22.8606
Au 18.5629 35.8997 13.2128
Pd 9.13219 20.2894 30.1927
Au 19.3924 16.4448 26.9275
Au 18.0499 25.6049 5.09051
Au 16.8295 20.0954 9.24383
Au 26.3649 33.2906 7.68313
Au 14.6078 27.1176 27.5365
Au 15.7435 7.34053 24.9573
Au 22.862 13.8171 11.1141
Au 28.8438 30.8208 16.4483
Pd 13.9937 15.9906 11.7413
Au 27.0134 16.0677 5.88678
Pd 19.8544 23.3862 11.9767
Au 28.1897 26.6541 22.5615
Au 15.1961 21.9451 35.1837
Au 21.1481 24.2907 5.13509
Au 15.8802 24.6309 10.4246
Pd 18.1679 16.7591 24.5176
Au 32.823 14.507 10.5016
Au 36.6121 22.8443 20.035
Au 18.4458 16.8696 3.59491
Pd 19.1646 24.1398 7.05972
Au 29.1394 30.1988 13.734
Au 18.7862 15.6601 31.6533
Au 31.0756 8.8209 27.2258
Au 7.80731 26.8724 12.69
Au 22.6096 23.2666 17.8053
Pd 22.0287 20.0618 12.8913
Pd 31.62 31.7055 20.9358
Au 26.624 26.8173 8.11195
Au 15.3136 17.5025 21.2061
Au 19.3744 11.0994 3.30779
Au 11.8201 20.3866 20.7169
Au 27.0884 21.3111 23.5474
Au 27.8428 7.96455 7.61452
Pd 11.1106 9.55387 26.9759
Au 7.67555 23.8764 33.797
Pd 21.5523 19.8135 6.36034
Au 8.06607 6.51878 23.6659
Au 6.66084 16.8031 29.1207
Au 28.1748 8.36837 16.402
Au 16.5191 5.61622 11.9926
Au 30.2066 23.0374 8.72716
Au 17.3746 4.09861 16.4574
Au 14.2398 33.5032 7.74174
Pd 25.1215 21.8028 10.1728
Au 14.6326 31.4891 17.2645
Au 18.334 18.2705 31.1238
Au 24.7168 24.1426 11.5983
Au 19.9824 30.2629 17.9501
Pd 22.4727 23.1906 13.1134
Pd 5.32776 26.0434 14.1289
Au 4.4243 23.286 8.13678
Pd 5.46811 27.535 25.3145
Au 28.742 22.9008 25.0872
Au 16.481 2.08616 18.1867
Pd 22.9428 2.44675 18.9932
Au 31.2871 28.1696 13.3563
Au 6.68029 16.5775 17.136
Au 12.2356 17.6608 21.0767
Au 25.7382 23.7567 31.4637
Au 23.9584 22.2123 33.2894
Au 33.3429 13.3755 22.0501
Pd 4.32723 20.1267 27.5908
Au 18.4371 17.5364 0.915354
Au 16.1676 9.66763 11.4565
Au 27.0471 15.2349 8.63722
Pd 19.6722 6.96817 29.5594
Au 21.3385 18.6448 27.7846
Au 30.3451 29.3827 20.7824
Au 8.42622 17.3349 24.1282
Pd 19.863 2.10889 22.4679
Pd 18.6399 0.775017 18.3027
Au 26.9514 14.0418 4.15674
Au 21.27 29.6415 22.6849
Au 7.78829 29.2773 30.0515
Au 11.4647 28.8822 10.7713
Pd 22.5673 28.0409 27.6714
Au 2.4484 23.9945 26.4015
Pd 7.59617 13.4674 25.8852
Au 1.73935 22.8542 13.4179
Pd 33.035 21.3634 11.4948
Au 34.0449 10.606 22.4977
Au 23.6513 12.2001 29.912
Au 27.9195 15.8172 17.9435
Pd 25.3004 32.1074 25.787
Au 21.7135 24.0468 33.396
Au 33.4964 15.5355 28.8371
Au 12.6331 22.9854 30.5546
Au 25.8948 28.359 21.9807
Pd 29.7672 28.8236 18.0808
Au 0.942268 24.4414 21.7094
Pd 24.5043 17.0844 21.203
Au 20.8312 29.3698 11.1442
Au 30.0988 24.6444 21.46
Pd 30.3425 20.5343 17.9339
Au 19.2903 11.7446 24.1541
Pd 22.3115 19.7818 25.4324
Au 13.7862 26.7297 21.9121
Au 16.4335 17.7794 18.5833
Au 28.2081 17.424 32.2732
Au 16.3851 26.6037 22.4075
Pd 14.399 35.5656 19.3547
Au 31.7015 25.2222 8.87199
Au 14.5292 29.7475 14.8799
Au 26.2974 26.7044 15.1237
Pd 22.7067 9.06752 21.3354
Au 29.1338 22.406 27.7092
Au 18.7906 24.0663 26.4672
Au 20.5567 20.787 23.4376
Au 7.69447 26.2098 17.8192
Au 33.1431 12.7119 29.4638
Au 13.6445 16.9228 18.7464
Au 21.1732 25.1333 8.54629
Au 16.2669 17.8508 7.6529
Au 21.1565 36.2357 13.6183
Pd 24.5134 21.7898 22.1706
Au 31.4462 11.9775 10.5211
Pd 12.5166 17.0448 34.7676
Au 3.51682 28.3035 14.8976
Au 26.7856 26.0061 32.7731
Au 28.96 12.0423 21.4969
Au 11.8188 18.9411 4.61096
Au 30.3258 13.6196 14.6346
Au 8.41608 21.542 18.9764
Pd 31.1147 30.2921 23.1806
Pd 30.6051 16.3649 10.0031
Au 14.132 13.9065 9.88733
Au 24.4422 32.2685 6.15954
Au 22.3157 31.7861 17.4563
Au 13.6862 22.2168 21.6511
Au 34.8285 23.977 21.7736
Au 30.2069 21.3114 15.2701
Au 26.6216 12.5409 8.87449
Au 28.3677 29.3987 22.6223
Au 6.19021 30.5421 26.2711
Pd 17.8815 29.8908 6.7868
Au 10.6218 11.8985 7.23445
Au 16.9818 30.268 13.8009
Pd 13.1073 33.461 20.553
Au 36.2357 12.1433 23.0174
Pd 35.6623 21.046 11.3619
Au 23.5437 23.3989 8.6063
Au 31.1959 13.4357 20.1733
Au 17.567 22.3793 10.7912
Au 24.2634 32.5054 8.99795
Au 8.0701 24.1751 19.7251
Pd 7.0883 26.5458 20.6456
Pd 15.5616 3.39879 20.3825
Au 18.4233 9.71913 10.087
Au 4.74046 20.0188 19.1061
Pd 27.3061 6.58539 28.3243
Au 15.3329 34.4721 21.7969
Pd 30.654 26.3785 11.1157
Pd 17.7549 1.77466 20.7839
Au 31.6355 17.544 23.695
Pd 17.7446 9.82034 13.8235
Au 13.4892 21.2844 16.322
Au 5.91845 22.8332 31.9616
Au 9.7335 35.0236 13.1457
Au 17.9667 31.4647 8.98049
Au 32.3749 17.7585 32.105
Au 18.4869 16.3729 10.9378
Au 10.7503 21.0252 14.9086
Pd 23.0594 16.6472 28.252
Au 12.4756 8.87895 10.4919
Au 3.07493 20.7653 23.6624
Au 3.37067 15.2686 13.3239
Au 26.512 13.0477 31.2502
Au 18.1856 7.73714 12.2483
Au 29.2057 18.5875 15.1993
Au 8.93285 28.0745 19.5139
Pd 33.0948 26.7793 15.0681
Au 8.37953 17.7676 31.0201
Au 26.182 10.2976 16.4965
Au 22.0695 0.93178 23.591
Pd 18.1296 32.8885 13.7014
Au 31.9098 26.0533 28.357
Au 15.295 14.4718 13.7965
Au 18.3666 26.6773 7.89019
Au 21.9755 18.6889 34.8081
Au 22.2577 10.104 31.3914
Au 20.643 7.10285 13.33
Au 26.803 4.53003 24.1808
Au 3.26933 14.1895 20.4267
Au 8.2733 13.2898 13.6623
Pd 17.7485 23.459 17.1147
Au 23.0784 16.6966 11.3457
Au 16.8994 7.37356 9.88953
Au 15.7783 11.4924 31.9529
Pd 28.9419 8.62066 28.9562
Pd 23.7686 19.3653 20.0997
Pd 12.6175 4.22189 17.1078
Au 27.0041 11.0566 26.1388
Au 20.3949 9.69366 29.3896
Pd 7.98765 16.1886 33.1936
Au 8.05524 31.5159 15.7417
Au 37.6838 17.4004 21.6089
Au 36.6036 17.9696 26.4304
Pd 11.6812 28.6134 18.5115
Au 24.4512 11.0083 27.3099
Au 14.3639 24.5854 26.4395
Au 9.57814 18.2202 5.88929
Au 24.7334 2.72248 26.9471
Au 10.0386 27.9252 29.3213
Au 35.7828 20.5643 18.5849
Au 26.2477 25.0185 29.0005
Au 10.453 32.4847 14.0679
Au 11.0893 22.9142 22.8895
Au 16.7682 25.1794 24.7831
Au 27.0006 10.1884 32.5485
Au 11.5848 18.7682 27.6055
Au 23.5651 34.8195 19.4886
Au 1.93486 19.235 21.5887
Pd 13.7988 19.4362 22.5128
Au 21.7091 10.5867 23.3174
Pd 26.4418 9.68192 9.33478
Au 21.7596 17.5403 20.613
Au 24.3713 17.4685 24.4051
Au 30.5699 18.1476 8.01011
Au 7.6123 8.2746 29.4724
Pd 19.4888 35.6176 17.9588
Au 3.57004 13.8098 27.9578
Au 9.72166 21.9771 34.4857
Pd 7.0634 24.2551 12.6936
Au 28.456 13.3075 24.0541
Au 12.5353 31.1776 19.1381
Au 16.8875 10.2908 7.58562
Au 17.2249 12.5526 2.41177
Au 35.9994 19.091 28.9885
Au 31.7054 18.9853 10.6258
Au 26.1442 19.6661 8.83867
Au 17.2238 15.5763 5.89218
Au 28.5056 33.4442 17.4308
Pd 3.02288 25.0195 17.7175
Pd 15.407 13.4809 5.9781
Au 19.7482 33.6971 8.95603
Au 28.1187 26.2959 17.6311
Pd 23.0533 17.7801 8.83409
Au 26.2512 12.4465 20.8434
Au 32.0937 30.2792 18.709
Au 25.4854 21.7072 35.5369
Au 26.3044 31.2268 21.3044
Au 28.9301 19.2916 10.1698
Pd 7.0938 19.6242 20.6411
Au 28.0251 16.6884 10.7921
Au 19.6464 18.9204 25.6551
Au 21.3134 21.2557 33.378
Pd 28.2591 13.3916 6.70133
Au 24.4438 6.73201 10.6451
Pd 12.1488 25.5727 13.9024
Pd 13.1893 4.55906 19.9595
Au 23.8099 7.24976 13.4568
Au 5.2113 19.0975 11.0614
Au 13.2301 11.7322 33.3098
Pd 19.7845 20.6926 11.4192
Au 5.40077 17.4111 19.518
Au 15.7407 10.2503 18.0428
Au 32.3028 16.6707 12.06
Pd 18.1564 34.2736 20.0457
Pd 9.99271 13.3752 11.5033
Au 8.31189 21.1164 16.1864
Pd 16.9902 29.6534 21.5954
Au 23.0333 14.5641 16.3706
Pd 8.47681 28.8252 10.7012
Au 7.99099 12.923 23.0884
Au 30.7353 27.926 8.77662
Au 22.3827 3.80983 16.5282
Pd 11.8354 31.6265 22.0766
Au 16.8702 6.06203 27.3752
Pd 14.9435 9.15938 9.05945
Au 9.37187 10.5779 13.8217
Pd 33.1283 20.1662 18.5423
Au 8.86372 22.2757 31.973
Au 9.05767 5.33668 25.9458
Au 3.53824 21.5615 14.9317
Au 22.1863 14.4539 29.6771
Au 27.1264 17.9204 27.0753
Au 8.21283 27.2324 31.6925
Au 34.3878 24.3154 15.7114
Au 23.6563 14.5921 24.7471
Au 20.0099 1.98879 25.2346
Au 22.0842 21.2223 21.2066
Au 25.4196 26.8513 12.457
Au 25.4848 17.4378 18.6034
Pd 20.9377 9.16297 9.29154
Au 35.0336 15.7622 14.9203
Au 1.31707 29.7864 13.9086
Pd 13.7572 16.6352 23.5222
Pd 18.975 6.80934 20.14
Au 11.1903 17.2614 23.7123