1687
Atoms. Timestep: 20874
Au 24.5523 34.0482 22.7052
Au 22.7368 14.3253 10.1266
Au 21.5833 27.0575 24.5566
Au 24.1586 15.7846 35.5823
Au 14.2068 8.74188 17.1935
Au 36.4268 25.7747 17.7802
Au 17.8065 22.7545 11.0467
Pd 27.1503 14.5278 15.6933
Au 27.6311 12.458 13.9272
Au 7.04134 8.14607 27.8107
Pd 11.7277 7.12299 17.8697
Au 14.8892 19.6454 13.2882
Au 37.4146 22.1855 14.1364
Pd 3.90845 29.3809 15.8531
Au 11.11 13.6301 5.48514
Au 2.79995 28.145 23.791
Au 21.625 29.2568 32.1617
Pd 25.3222 7.94231 25.2715
Pd 22.4437 13.2311 20.8701
Pd 18.793 31.7735 8.5903
Pd 14.8207 21.1019 23.2496
Pd 32.6839 20.1024 10.1078
Au 12.5052 8.9716 7.34111
Pd 23.2592 28.4085 30.1845
Au 13.7953 18.3153 1.09224
Au 31.0993 27.8652 24.0872
Au 8.46585 28.7912 5.87499
Au 21.5299 8.07775 27.2947
Au 16.3826 27.6452 2.34619
Au 21.0844 5.92653 25.523
Au 5.33082 10.4615 13.6253
Pd 6.86665 27.3075 7.723
Au 26.195 3.96884 19.2681
Au 14.3662 14.7185 29.7191
Au 18.9953 18.6595 13.2281
Au 3.90626 19.5818 10.0197
Au 2.22652 22.8792 25.214
Au 14.8835 29.3105 3.96051
Au 8.59883 18.328 30.3373
Au 24.9665 8.74754 30.3088
Au 18.6064 15.1213 21.7806
Au 2.97315 11.3417 25.9114
Au 34.6455 26.683 15.87
Au 14.9072 14.324 8.02451
Au 18.8078 18.5142 10.5397
Au 13.7422 10.3502 27.9393
Au 27.4686 25.6285 7.6111
Au 32.8597 8.25102 24.4099
Au 29.6414 15.4117 30.9864
Au 13.2559 16.1828 21.8006
Au 16.6298 19.5634 21.9225
Au 7.99827 12.34 25.7622
Pd 21.731 10.7603 23.4776
Au 26.6194 22.0113 24.7221
Au 8.35789 20.9923 12.6724
Au 10.9134 31.2132 19.1206
Au 9.58693 20.5509 34.5255
Au 9.84536 19.0466 18.4497
Au 12.8228 17.0417 35.4307
Au 9.55555 18.9207 13.8819
Au 22.3268 3.36316 9.78864
Au 2.55539 15.6899 13.1599
Au 11.7956 18.3502 2.83589
Au 9.61357 31.6415 9.76813
Au 28.7485 17.1978 8.24767
Au 17.2622 9.69711 4.74536
Pd 32.1495 31.3528 16.7767
Au 17.3345 30.4582 10.7308
Pd 21.0161 18.4329 22.3183
Au 24.7388 28.8161 9.85362
Pd 19.4011 25.8201 13.0212
Au 13.6806 18.4152 15.4766
Pd 3.48164 27.1441 17.2354
Au 11.7179 24.8981 14.2015
Au 18.5148 19.4579 30.6268
Au 20.1066 8.54566 24.6681
Au 12.9244 12.5631 33.4117
Au 22.7687 15.4412 19.3291
Au 10.8614 5.8036 26.6324
Au 33.0213 10.7299 23.1749
Au 27.9675 17.5865 34.0834
Au 7.07315 13.2745 28.7984
Au 27.7209 30.458 18.5269
Au 5.15404 20.6635 7.93931
Au 26.5255 26.409 30.3307
Au 17.3154 22.4286 1.83158
Au 10.8244 16.0614 4.25311
Au 26.2619 7.70441 8.58282
Au 23.141 18.0302 36.8251
Pd 14.8308 15.7344 10.2815
Au 17.7805 30.9571 18.9259
Au 14.6054 7.71148 28.173
Au 21.2548 21.5605 17.168
Au 3.53741 11.906 16.0934
Au 20.9546 9.89721 11.6158
Au 33.6412 14.4772 15.9633
Au 7.03684 13.7444 9.95641
Au 2.63232 11.3538 23.2366
Pd 2.54022 13.2998 18.2487
Au 9.04022 6.54403 18.7915
Au 14.2559 26.7888 8.02673
Au 24.1978 11.3663 30.4654
Au 25.6119 32.2608 19.0609
Pd 9.41621 13.4099 23.1647
Au 12.3111 14.4271 31.5938
Au 21.1833 20.0846 30.068
Au 23.9118 21.8566 24.061
Au 30.8525 12.0085 22.0584
Au 18.3496 7.31909 14.202
Au 17.637 5.19021 29.3881
Au 20.8519 31.7182 27.74
Pd 11.5487 11.7326 19.4277
Au 27.4786 28.0453 9.0901
Au 12.4854 27.531 3.28182
Pd 15.8748 33.3973 21.9196
Au 16.6489 26.3791 22.0726
Pd 28.1598 21.0073 7.49514
Au 28.4223 27.6735 17.3219
Pd 11.2139 22.3736 12.5748
Au 8.31118 16.4637 32.5858
Au 20.3289 15.2684 14.8218
Au 25.2029 12.1117 5.88162
Pd 33.174 15.7978 18.6164
Au 26.9064 32.6645 11.9927
Au 26.4207 5.81906 26.5764
Au 16.316 27.2633 14.3628
Au 28.2858 32.4414 14.2311
Au 19.6067 30.247 33.6466
Au 23.02 19.3274 32.19
Au 16.0554 8.48047 32.4713
Au 25.6042 25.9998 13.4037
Au 27.3635 31.2292 28.8352
Au 28.7238 21.57 29.2862
Au 24.4613 24.5294 3.12378
Au 31.2486 19.3358 22.5068
Au 28.9974 10.3724 20.8824
Au 35.6793 11.6095 25.8766
Au 20.5922 24.0791 18.3875
Au 25.2497 26.875 20.6644
Au 21.6035 12.6857 30.4498
Pd 18.3282 32.6147 21.0212
Au 17.7023 14.3182 8.03429
Au 5.74243 29.8826 11.607
Pd 14.8845 9.82284 6.25215
Pd 24.7539 27.1436 6.92154
Au 30.2514 29.6186 17.1672
Au 31.6518 6.95376 22.1455
Pd 28.0324 28.202 32.5378
Au 21.835 14.748 26.2264
Pd 1.75446 13.4669 24.7002
Au 26.4578 23.2842 12.7791
Pd 13.5163 21.098 8.58988
Au 23.9163 14.0232 31.1144
Au 15.5245 17.3303 22.9609
Au 28.7446 4.96475 18.1251
Pd 14.4308 26.6904 12.3557
Pd 8.24962 18.4391 23.7005
Au 29.0271 10.1326 18.1787
Au 0.853151 15.7943 25.571
Au 24.041 18.1827 12.837
Au 29.9958 21.8342 32.0807
Au 22.9065 31.1377 10.049
Au 7.42152 24.3784 6.84203
Pd 24.4162 8.29824 19.8104
Pd 29.4551 18.7769 12.9215
Pd 8.85267 12.9838 11.8308
Au 23.091 28.0402 19.369
Au 28.1882 4.9141 24.8025
Au 13.0478 28.3405 10.3681
Au 17.5071 26.2811 4.44393
Au 20.5145 2.00054 19.5918
Au 12.9466 17.5051 5.36155
Au 2.1211 26.3036 21.9834
Au 24.9059 26.3395 32.5343
Pd 27.2279 19.4495 25.8091
Au 23.6764 3.21681 12.0978
Au 19.9137 16.1107 33.969
Pd 18.9977 14.5647 5.65179
Au 24.6785 5.64683 12.5866
Au 38.1394 17.7689 16.0389
Au 4.05158 17.7269 29.171
Au 25.4368 10.9855 13.0202
Au 22.8601 19.2777 24.2257
Au 11.3881 25.5922 32.9807
Pd 18.9166 10.58 23.2424
Au 30.1011 14.6624 22.228
Au 12.7282 9.78861 32.0915
Au 1.11042 17.5318 21.0851
Au 35.9364 14.1583 14.1813
Au 14.3523 6.52892 18.8349
Au 32.4416 28.925 21.7177
Au 17.8646 23.4311 33.2938
Au 21.2527 15.8109 21.6185
Pd 6.92296 24.9709 14.9311
Au 32.2767 22.9565 12.4659
Au 24.7161 8.4412 6.31205
Au 21.41 20.6544 19.9776
Au 4.46044 23.2238 29.1668
Au 25.8588 13.2843 28.8933
Au 7.8307 25.4089 9.48484
Au 29.8584 24.857 20.8605
Au 7.28939 27.4379 24.0125
Au 3.38761 15.7988 24.5845
Au 20.255 28.6061 19.2789
Au 24.0482 35.5565 13.5249
Au 16.7946 23.751 28.9601
Au 25.824 34.1824 14.8517
Au 22.0173 20.5173 36.8363
Au 29.5454 31.3528 11.9318
Pd 4.05035 15.9536 15.598
Pd 5.67249 11.0137 25.099
Au 28.8023 8.24616 10.9951
Au 6.93304 15.1157 19.3437
Au 1.43379 14.8399 20.3502
Au 7.38915 23.4134 18.0656
Pd 33.3801 17.5662 16.1016
Au 7.20863 30.6099 9.41834
Au 35.0253 18.8323 25.6776
Au 12.4405 17.8669 27.4234
Pd 19.9569 9.60578 14.2406
Au 19.3444 9.46898 9.50423
Pd 27.5738 15.5501 28.8531
Au 11.6675 23.319 16.3743
Pd 4.62705 22.8571 18.8998
Au 5.17433 11.9627 22.5555
Pd 20.7765 12.4104 6.32146
Au 16.3604 19.1682 27.3017
Au 6.87922 11.0535 11.0158
Pd 16.5199 22.8463 15.2991
Au 21.2809 5.46576 8.42157
Au 33.9795 10.6296 16.9174
Au 7.59178 22.1547 15.5313
Au 4.37109 29.0606 21.6703
Au 6.17568 16.6153 23.8611
Au 3.49924 16.5671 22.0429
Au 24.2294 32.6426 16.6918
Au 15.5052 31.3802 23.6879
Au 7.88525 11.0637 13.6532
Au 26.8905 11.5531 19.1788
Au 1.90275 20.0912 25.7596
Pd 18.8543 30.11 24.2204
Au 16.8454 19.0274 36.4009
Au 12.3992 28.1574 32.3251
Au 6.43733 21.4516 28.4352
Au 23.6146 29.0293 25.2626
Au 35.9592 12.6705 16.4901
Au 12.2482 30.1887 30.4896
Au 34.2691 27.8551 25.8912
Au 32.8329 23.2555 24.7891
Au 35.3323 21.6068 15.6083
Au 11.9224 30.27 8.81168
Pd 16.2236 28.5051 27.9434
Pd 34.9783 25.2153 20.1652
Au 20.8693 18.8331 8.45105
Pd 19.0995 19.3212 20.6685
Au 20.4832 18.1598 36.2925
Au 14.2038 22.9358 16.8926
Au 28.6311 23.7928 30.968
Pd 11.5936 24.7723 27.6074
Au 23.5345 32.9654 31.155
Au 27.3873 30.5389 10.3061
Au 30.9994 20.0325 30.2154
Au 19.3132 14.0237 35.5681
Pd 3.94435 26.9743 20.0923
Au 32.7762 16.5525 8.91662
Pd 30.0017 9.91608 15.5859
Au 15.716 25.0823 6.34511
Au 10.0956 7.43066 28.9623
Au 18.7156 12.6312 17.8673
Au 26.8018 6.46875 11.0381
Pd 18.9153 32.3 31.92
Pd 17.468 16.3411 9.78938
Au 5.28279 25.0224 17.1821
Pd 8.80782 8.97437 22.5179
Au 19.4016 7.45406 19.5013
Pd 6.68723 24.8902 22.4875
Pd 24.1564 13.103 18.7267
Pd 20.3648 18.4834 25.074
Au 15.6994 13.2655 17.9952
Pd 4.21968 20.4964 29.6236
Au 19.2909 22.3949 30.6254
Pd 19.0872 21.6033 18.8612
Au 12.6325 29.9586 12.5628
Au 13.0978 8.35617 10.4291
Au 8.92826 13.4843 14.6199
Au 11.2884 22.0199 36.071
Pd 34.9247 22.8754 13.1777
Au 9.36243 7.51514 16.2891
Au 25.0032 29.8825 20.235
Au 25.0279 30.5418 11.8638
Au 30.5776 22.9995 16.3239
Au 29.6648 27.3572 7.64232
Pd 10.2097 21.4047 14.85
Au 33.4421 11.6077 20.7083
Au 23.5551 27.3608 12.0724
Au 30.7748 21.7504 23.7308
Au 3.4898 21.7613 21.4511
Pd 20.0066 12.7874 24.8671
Pd 30.8347 21.2721 14.0656
Pd 25.1789 18.7007 19.66
Pd 32.8009 27.7187 14.0247
Pd 17.8591 17.5074 17.837
Au 29.6085 32.19 16.5571
Au 16.3682 32.6433 30.9527
Au 17.4798 14.8473 19.2789
Au 25.3057 6.01372 20.7909
Au 26.8736 12.9876 7.94886
Au 8.61379 23.1397 10.9944
Au 4.0148 22.5106 9.61109
Au 11.9131 8.62055 15.3561
Pd 19.6246 6.53568 10.3735
Au 26.5564 21.7043 27.475
Au 27.8045 20.5794 4.75872
Au 18.5743 9.17228 33.2601
Au 17.2093 34.4476 13.2714
Au 22.7045 3.61813 19.2274
Au 29.9507 24.9373 6.29243
Au 23.732 18.0275 21.9305
Pd 18.7363 23.1096 13.6679
Au 6.48613 22.1413 23.8709
Au 22.6123 10.5399 14.0081
Au 8.53213 23.5936 20.9164
Au 18.1089 21.9267 6.69584
Au 27.4298 29.1214 21.6055
Au 10.7527 13.3078 9.98905
Au 32.3683 29.6535 19.0774
Au 7.8483 16.5542 7.99244
Au 25.7503 23.9237 31.4744
Au 32.5905 14.9722 31.2193
Au 29.808 19.6944 27.6703
Au 4.63407 17.4949 8.28214
Pd 23.5823 18.8995 8.31304
Au 22.2108 35.0019 11.6229
Au 6.25434 29.8593 6.98717
Pd 10.4172 29.3748 10.99
Pd 5.75297 24.2381 10.9864
Au 10.5051 15.3519 16.9679
Au 15.1085 3.81599 25.7185
Au 14.1412 14.6252 34.8849
Au 27.8194 17.1617 24.308
Au 8.3772 20.7711 9.6664
Au 28.2208 10.153 12.6781
Au 14.9269 9.49334 30.2659
Au 13.0547 23.2173 21.2853
Pd 24.2793 14.6354 24.8872
Au 22.8193 26.5403 8.77823
Au 8.55063 14.6824 5.41592
Au 18.127 11.9457 6.00936
Au 16.5458 15.3295 27.637
Au 18.5546 24.8462 6.64214
Au 17.519 33.4429 10.5369
Au 18.8576 33.1037 17.2008
Au 26.1456 27.0778 23.3008
Au 16.892 23.6466 8.48547
Au 29.5753 15.5984 35.6736
Au 18.9654 20.8521 33.0463
Au 17.5105 12.8996 23.1809
Au 13.2399 32.6624 12.7621
Au 21.253 20.9939 4.28597
Pd 18.3583 5.61265 17.5146
Au 7.64429 17.4136 26.2443
Pd 25.6883 13.5129 20.8536
Au 5.18254 29.2383 24.2821
Au 24.2516 17.5573 6.06627
Pd 23.4761 8.0744 13.1974
Au 16.2922 29.6183 15.7271
Au 25.416 24.3233 23.5935
Au 31.1305 7.4716 15.2171
Pd 7.65697 11.3226 23.1759
Au 27.5395 9.71546 23.2596
Au 31.1123 22.8662 29.5732
Au 27.283 24.5421 35.3366
Pd 15.4048 17.116 25.7404
Au 17.4619 35.3951 26.4367
Au 12.5779 6.52884 23.666
Au 8.29195 18.2702 11.4394
Pd 15.1667 8.91939 20.103
Pd 22.5789 4.4414 16.3168
Au 31.9441 17.3748 29.8741
Au 28.7275 7.73941 13.9828
Pd 14.9956 28.2646 20.9532
Au 11.9485 33.6106 26.0423
Pd 22.8126 18.6413 3.67283
Au 25.047 13.4696 14.265
Pd 23.6402 28.2241 16.7036
Pd 9.19873 28.3596 21.3584
Pd 7.62236 13.0575 21.0117
Au 8.88852 31.2219 14.9978
Au 32.6219 17.9415 20.2655
Au 30.7892 17.9159 34.8155
Au 22.5467 29.8353 12.5939
Au 2.29805 12.0743 20.6197
Au 22.4483 2.3714 14.5511
Pd 21.7263 27.5812 6.44066
Au 5.13037 28.8704 9.22091
Pd 30.3364 11.672 13.6466
Au 14.4131 9.17473 14.2359
Au 34.4904 16.9238 30.1394
Au 19.9405 23.1933 4.97025
Au 10.4192 29.4266 28.708
Au 28.6226 10.6237 28.3143
Pd 20.4762 18.3687 32.3616
Au 18.9339 23.0331 16.4817
Pd 23.503 21.3579 15.6136
Pd 11.859 31.7921 28.0674
Au 26.7109 33.96 20.8728
Au 25.3644 18.8383 30.9021
Au 11.5716 10.7951 26.4726
Au 16.5694 8.52803 15.7738
Au 4.6575 9.47138 27.0066
Au 31.9603 23.0809 9.80741
Au 24.4496 14.7631 6.16759
Au 21.4259 17.6816 5.82132
Au 20.4979 23.1362 20.8962
Au 6.56267 24.262 27.9551
Au 18.2468 16.6023 36.2326
Au 19.635 27.3369 32.0298
Au 25.7057 10.4091 28.3308
Au 29.061 13.1313 29.5485
Au 22.8678 22.4178 34.9955
Pd 13.8567 10.8067 8.838
Pd 15.5781 8.34259 11.7815
Au 36.2216 17.3765 23.6534
Au 24.4906 20.1162 28.6117
Au 16.1562 31.9342 8.60375
Au 29.1106 14.5959 7.25461
Pd 22.3349 17.4527 34.2599
Au 9.65123 26.5644 28.4853
Pd 25.7904 32.4174 24.6975
Au 13.2793 12.0314 30.4699
Au 29.2799 26.1191 10.19
Au 13.3012 6.32863 15.6072
Au 28.531 23.2543 23.1132
Au 12.4814 33.3143 15.2866
Au 24.4951 10.3752 24.2874
Au 33.6161 25.2506 13.6273
Au 8.14125 19.9496 4.69942
Au 15.0739 22.659 10.2871
Au 25.5926 17.5305 27.5316
Au 20.4924 30.4976 14.2322
Au 12.0506 22.4366 29.1548
Pd 15.4599 6.48632 13.8867
Pd 25.583 21.2848 6.31304
Au 6.32964 24.7374 25.2167
Au 32.3411 25.42 16.4907
Au 3.44197 20.3824 12.6015
Pd 14.3288 31.0837 14.7566
Pd 14.5257 29.6339 7.96091
Pd 24.8782 30.9711 29.7809
Pd 20.2244 10.4888 31.3623
Au 9.8007 11.3013 21.403
Pd 10.3835 7.80938 11.6203
Au 29.5139 21.4377 21.2546
Au 29.2782 6.40277 27.0014
Pd 8.21708 15.846 21.9704
Au 12.3302 21.3659 24.0627
Au 31.6384 10.1853 28.3164
Au 4.36776 14.3367 11.1105
Au 15.4714 18.3287 9.63947
Pd 9.41716 11.8511 28.0037
Au 23.9762 31.8502 7.32913
Au 26.2691 21.4639 30.5385
Au 32.7479 30.2916 14.4379
Au 25.471 14.9005 33.2977
Au 4.94455 23.1592 6.98412
Au 14.1576 19.085 36.9964
Au 12.0365 15.8244 19.2048
Au 36.9227 18.1323 21.1691
Pd 25.0247 14.9285 9.02287
Au 16.6934 24.8224 12.6465
Au 30.9666 16.4895 6.79504
Pd 20.162 12.9231 22.2212
Au 31.2714 24.5081 31.7576
Pd 22.0415 10.144 29.1588
Pd 12.4745 9.15499 19.3959
Pd 5.60006 18.6212 11.9378
Au 22.8646 11.9963 32.9091
Pd 15.4732 29.5565 18.532
Pd 13.5183 29.6397 28.1029
Au 30.2288 20.0984 36.346
Au 21.5072 26.6153 17.598
Au 15.6721 24.06 31.4822
Au 13.2545 4.70137 13.0099
Au 8.33977 28.7384 18.6786
Au 15.7656 28.2433 10.0187
Au 34.0951 24.4535 22.6258
Au 11.6704 27.6958 7.92691
Pd 20.4098 23.5892 11.5624
Pd 8.54754 9.73168 29.6085
Au 21.8409 7.62406 15.2935
Au 13.628 32.4251 8.15386
Au 35.6561 15.6624 11.6294
Pd 4.92785 22.9841 15.3175
Au 6.86639 14.6759 31.0863
Au 22.5627 6.12278 20.4406
Au 11.854 28.0422 24.1156
Au 12.7592 18.7701 9.93895
Au 14.5126 30.7156 31.9506
Au 26.2342 19.7904 17.2278
Au 6.86754 10.3877 20.6365
Au 24.2218 25.7584 17.9728
Au 10.1793 18.0277 9.32011
Au 23.1568 12.5962 28.212
Pd 21.4889 24.4759 6.92384
Au 3.72462 20.6008 15.5596
Pd 16.6284 19.0536 32.5668
Pd 29.2969 13.1466 19.4998
Au 17.8112 12.7908 3.51807
Au 12.9949 4.46338 17.568
Au 13.7461 20.174 28.1595
Au 6.14743 29.901 17.1141
Au 17.8844 28.3808 17.7036
Au 23.0233 28.2907 4.14765
Au 23.9233 19.7934 34.7857
Au 12.6022 7.97869 30.1152
Au 12.3532 6.81231 20.7518
Au 11.8994 23.0166 9.96972
Au 17.3124 6.06907 11.922
Au 8.29503 31.3401 17.8053
Pd 16.2967 30.6771 21.2145
Au 25.5489 28.7023 31.4053
Au 12.0034 21.4263 33.5291
Au 22.1206 25.1772 13.1728
Au 34.555 21.3218 26.7782
Au 12.4101 34.7982 21.8349
Au 11.2785 10.3356 29.3484
Au 8.03786 16.7047 16.9147
Pd 10.2235 21.0783 20.2897
Au 28.8289 12.4057 16.7651
Au 22.5266 33.4385 18.5909
Au 14.566 13.8158 15.423
Au 7.10315 8.68129 15.0372
Au 32.7586 20.3615 25.0027
Au 27.0298 30.8271 31.5496
Au 17.4451 9.5043 7.43945
Au 30.0532 29.6715 14.241
Au 25.9714 28.1302 18.4524
Au 15.0462 28.3482 33.2024
Au 14.0084 28.887 25.5179
Pd 20.8651 12.4036 10.5451
Au 2.03714 14.2344 15.7185
Au 13.8248 31.5439 26.0392
Au 30.6068 21.2074 8.54043
Au 14.1836 33.7599 27.5526
Pd 11.3491 11.9269 7.77745
Au 33.9584 9.6408 26.5326
Au 20.4861 31.3802 19.102
Pd 27.1334 25.1176 21.6237
Au 21.3739 32.0067 7.8986
Au 18.8285 14.6678 26.3154
Pd 28.8945 7.79526 16.9486
Au 33.5755 23.9366 27.4027
Au 30.1461 17.8458 32.16
Au 28.0182 31.8266 26.3272
Au 20.0788 19.1387 18.0478
Au 26.162 8.20249 13.104
Au 15.6739 5.58149 8.17681
Au 28.2391 33.3038 18.7422
Au 15.0008 33.7211 14.658
Pd 13.2783 22.1417 14.382
Au 29.7232 23.5334 11.5835
Au 9.07877 12.0093 6.21028
Pd 7.7164 21.1013 19.4649
Pd 32.0848 20.3032 6.45483
Au 13.6384 14.3945 12.6329
Pd 30.4979 20.8793 11.4042
Au 27.4854 12.0437 10.779
Pd 28.4364 17.0723 11.0756
Pd 8.78917 21.1383 29.7852
Pd 10.0537 23.2835 33.9647
Pd 17.6448 29.1003 4.21211
Au 10.974 28.3614 19.2647
Au 38.6298 21.651 18.6256
Au 10.5676 32.904 21.2583
Pd 23.756 6.57262 8.14784
Au 4.82065 12.4954 27.4429
Au 12.3105 22.7022 6.62154
Pd 14.5319 28.5407 30.3713
Au 6.34856 30.2365 14.427
Pd 32.3846 24.5043 19.0669
Au 12.9592 10.313 24.1351
Au 12.8052 17.1632 24.7999
Au 19.1745 25.48 24.7936
Au 4.0279 13.5916 14.042
Au 27.0103 5.51677 13.8268
Au 7.45341 30.5731 25.1034
Au 15.9573 12.4426 34.5547
Au 15.8353 14.769 21.6635
Au 29.7613 29.3316 19.9444
Pd 28.6825 23.1604 14.348
Au 15.0177 11.006 32.5698
Pd 9.30408 26.3769 7.3917
Au 26.6692 6.73686 18.3791
Au 21.9917 8.04273 6.75809
Au 18.5947 29.8461 27.8012
Pd 20.3661 33.3829 10.1136
Au 11.8003 31.5422 23.9555
Au 17.0649 30.4432 32.7535
Au 5.9097 21.2231 11.1177
Pd 8.18257 28.6303 15.7752
Au 31.6279 29.5862 12.0645
Au 17.3137 13.3015 15.6458
Au 22.7759 16.5964 31.6079
Au 28.4651 10.1512 9.07147
Au 20.7589 31.9375 24.852
Au 23.547 10.0555 11.2104
Au 18.5248 18.4684 34.3294
Au 24.303 6.26905 15.255
Au 16.0101 28.006 6.14175
Au 24.5665 2.93992 17.2717
Au 24.0865 23.4864 14.0945
Au 9.54921 14.0469 32.4179
Pd 25.4056 30.17 16.8028
Au 32.1716 20.7285 20.216
Au 14.0284 24.011 8.20731
Au 35.8662 24.4696 15.0798
Au 21.486 3.3328 21.8237
Au 18.3977 5.14586 8.13861
Au 30.8297 9.03191 12.865
Au 2.61409 22.716 17.0673
Au 34.6524 16.4493 21.4468
Au 14.7582 26.4953 4.14923
Au 25.4312 4.35401 24.3675
Pd 18.5317 20.6731 25.9701
Pd 15.9684 31.4352 27.8203
Pd 13.1416 22.5603 26.6639
Pd 11.0907 30.2219 21.7378
Au 6.13869 12.2979 15.419
Au 28.4418 28.6496 24.2292
Au 31.2198 21.9633 34.4646
Au 34.0892 12.102 14.5396
Au 13.2889 12.8121 25.4271
Au 32.6372 11.2062 12.3903
Au 30.4264 15.4075 9.74563
Pd 22.69 24.8496 27.5161
Pd 24.4884 23.2433 28.9656
Au 13.8882 26.0562 34.0896
Au 17.8419 15.5094 3.27908
Au 31.351 11.4033 18.8134
Au 6.42167 14.6 26.4333
Pd 31.8992 13.8906 20.2014
Pd 31.2055 25.3438 28.3984
Pd 23.5135 32.4056 20.7967
Au 18.5493 32.1094 29.3081
Au 3.28528 19.1882 22.0437
Au 25.6716 19.6949 23.302
Au 25.3928 32.264 9.62332
Au 11.5925 20.2471 26.4019
Pd 22.0968 34.7489 21.2647
Au 33.8637 26.9172 18.4644
Au 3.15482 24.8291 10.7028
Au 17.3988 3.1066 16.5188
Au 7.76525 28.1376 10.5258
Au 14.723 5.92599 10.8155
Pd 10.5188 9.69956 17.4532
Au 23.1997 29.3526 7.81024
Au 18.4299 17.6522 22.9739
Au 7.60375 6.83775 23.4571
Au 25.1343 17.3252 24.6327
Pd 16.9342 33.7195 18.9897
Au 11.3919 18.158 20.6428
Pd 7.21247 27.9949 13.2259
Au 10.5548 16.9985 22.9551
Au 8.27923 17.2743 5.23334
Au 8.71315 11.6847 8.99673
Au 21.3685 17.3009 13.2913
Au 23.8002 25.6907 29.9966
Au 13.4647 23.9955 12.1935
Au 27.9952 27.7401 14.2157
Au 18.204 2.95433 12.3742
Au 13.1383 31.6811 17.3454
Au 3.93076 29.3294 18.6946
Au 34.9928 18.6295 13.9211
Au 13.3345 16.0763 2.95051
Pd 14.8353 3.99698 15.2719
Au 23.3259 31.8884 25.9427
Au 19.0802 27.2809 2.50683
Au 14.511 15.0465 24.1429
Au 30.6093 27.3035 15.6343
Au 17.9358 23.2786 26.4295
Au 26.9167 10.1813 25.9161
Au 24.8154 23.5323 26.2142
Au 25.6124 32.8629 27.43
Au 31.8854 23.1954 7.08991
Au 18.401 11.4785 11.5631
Au 19.1187 27.542 22.9046
Au 16.8406 21.6166 31.4419
Au 10.2287 17.8348 34.1828
Pd 10.1533 22.1984 27.3581
Au 20.2107 5.79105 30.1771
Pd 19.5602 26.1069 20.2774
Au 26.8156 18.6788 6.55599
Au 6.13944 17.4025 31.0028
Au 23.2159 32.9473 28.5519
Au 9.11203 23.8284 29.2644
Au 16.69 21.0937 34.6175
Au 3.92729 22.9676 12.6002
Au 32.28 25.8452 25.8102
Au 11.853 22.9413 3.84925
Pd 8.32092 21.1469 22.2535
Au 17.0208 8.03082 18.3365
Au 9.846 27.2663 31.0943
Au 5.01957 16.8525 26.7946
Au 2.70759 21.9467 27.6859
Au 11.0482 32.381 7.50867
Au 24.7769 24.3946 34.374
Au 3.52927 10.7609 18.5331
Au 13.0518 25.7322 25.5099
Au 22.8868 10.5361 6.17739
Pd 31.3731 25.4501 8.58375
Au 6.92301 10.7485 27.6691
Au 28.4518 31.6903 20.9257
Pd 22.1861 5.64455 11.0783
Au 29.0534 7.65364 22.223
Au 19.6052 19.6696 6.13404
Au 25.4376 27.0676 4.29214
Au 17.1573 8.76366 24.6868
Au 27.3103 16.9551 31.4601
Au 15.2735 4.97062 28.2317
Pd 22.4012 13.6791 14.466
Pd 4.43823 13.368 24.8198
Pd 35.8301 21.2419 18.2921
Au 27.6371 15.035 12.9328
Pd 25.2821 25.8219 27.7223
Au 4.28477 27.7107 6.98056
Pd 6.49573 18.8007 28.5158
Au 13.6675 12.3409 6.48176
Pd 18.9495 16.2347 12.2053
Pd 28.3121 15.01 33.3081
Au 18.4126 20.995 3.92194
Au 5.96121 20.4398 13.9913
Au 24.1528 26.2302 25.2716
Au 8.19877 21.7926 32.5182
Au 15.3663 29.3475 12.6386
Au 19.1047 20.2578 23.3237
Au 13.8445 24.5465 29.159
Au 21.8199 8.83741 19.192
Au 21.5127 15.5334 36.1096
Au 10.13 10.8229 24.1968
Au 24.4151 34.8961 19.9067
Au 37.8192 13.5066 18.5877
Au 7.76756 25.5973 12.2086
Au 14.4309 7.17397 6.25676
Au 23.0322 33.6757 9.41768
Au 18.9138 12.8433 30.5146
Au 31.3414 27.8085 10.0491
Pd 16.1784 24.7852 17.1368
Au 10.9231 16.8945 31.751
Pd 31.1757 14.9069 28.8882
Au 19.7191 23.4856 8.84017
Au 19.7714 3.83483 24.1566
Au 17.8067 9.68654 20.622
Pd 20.1072 28.3881 12.4456
Au 31.1053 17.9724 10.9112
Au 24.5269 18.8596 15.373
Pd 16.8155 34.647 16.3326
Au 14.8932 35.5695 25.5227
Au 31.2245 17.5265 17.7321
Au 25.9162 34.6504 17.7157
Au 19.6925 3.83998 10.1539
Pd 18.777 14.0978 10.5662
Au 21.4146 6.39298 17.8767
Au 27.823 23.2409 19.8256
Au 13.3357 16.0401 16.7266
Pd 16.7309 33.8783 28.458
Pd 25.5753 12.2044 32.7108
Pd 23.7141 8.02235 17.2433
Au 18.7095 35.8434 18.0692
Pd 25.5604 28.4585 28.5714
Pd 19.9681 15.7704 24.1936
Au 27.725 8.8531 30.3353
Au 26.2134 27.1126 34.7066
Au 12.0596 32.5046 10.374
Au 31.8668 19.8167 32.9989
Pd 15.5499 11.8236 4.60116
Au 1.41332 16.8812 15.2504
Au 8.5778 9.03216 9.75051
Au 15.7076 16.6339 4.67322
Pd 4.98859 13.9476 17.3202
Pd 24.282 15.0613 27.6043
Au 4.30813 23.7561 23.6641
Au 23.2857 10.6861 20.9501
Pd 21.9115 18.931 15.9725
Pd 17.559 17.3287 29.1523
Au 22.0439 1.82221 17.1719
Au 22.6844 12.2799 25.4779
Au 4.80165 14.9648 28.9785
Au 7.10602 16.2052 28.7096
Au 6.02594 19.5689 22.6542
Au 12.0729 3.90348 15.1384
Au 26.4258 19.8767 33.5806
Au 14.8026 15.77 19.2427
Au 22.5713 16.2527 8.00411
Au 7.05839 18.5958 18.6222
Pd 8.32923 10.8111 16.2337
Pd 12.0778 9.6819 12.7006
Au 21.3613 22.7676 14.3436
Au 34.2121 15.6996 24.4473
Au 18.4827 6.26455 24.6717
Au 21.8928 19.4921 27.3743
Au 7.83599 13.6326 17.2361
Au 17.7295 28.3922 20.4682
Au 27.4363 22.5274 33.265
Au 14.755 33.4885 10.5179
Pd 20.5908 23.7579 26.3806
Au 37.3889 23.2247 16.8214
Pd 33.5498 19.4381 30.7679
Au 17.8549 18.5917 8.00269
Pd 16.1904 16.6245 7.30476
Pd 14.1314 11.1627 18.6947
Au 19.2457 19.0756 27.9656
Au 16.706 14.5163 35.8307
Au 14.9428 12.7576 27.8536
Pd 29.5891 13.5373 11.8209
Au 14.3382 10.8554 11.5724
Au 13.7288 17.4427 12.1131
Au 20.5789 25.254 15.4608
Au 5.36599 25.6031 5.82957
Au 19.3497 8.15036 5.17171
Au 18.1085 32.5721 23.654
Au 25.983 20.2839 8.91396
Au 17.1484 35.1308 23.752
Au 6.94926 13.495 7.24809
Au 2.70637 27.1576 11.9381
Au 24.8031 3.68253 14.5978
Au 21.9173 23.7984 3.24086
Au 29.2806 23.6108 8.56566
Pd 5.26918 20.0441 20.0902
Pd 3.80108 18.0941 13.9656
Au 1.01479 15.4692 22.943
Au 10.4802 20.7158 3.33673
Au 10.5514 24.8865 11.7029
Au 5.28521 8.8405 19.0578
Au 18.7411 25.9013 17.6095
Pd 11.9362 19.524 35.5618
Au 16.8401 7.66118 22.1136
Au 13.494 16.8294 8.02655
Au 17.4078 29.4885 8.03658
Au 25.5445 13.7325 11.5482
Au 32.9499 21.9879 17.7252
Au 9.72204 17.3296 28.0599
Au 15.8935 6.02246 16.6133
Au 13.0331 17.9474 30.3792
Pd 13.6991 16.3919 32.9053
Au 20.8853 7.45498 12.7216
Pd 32.2345 18.0561 13.3942
Au 27.2834 24.8258 25.748
Au 29.6235 19.0602 6.14927
Au 27.8564 23.2374 5.77804
Au 15.4628 11.1705 15.9387
Pd 10.9271 6.26287 14.1915
Au 26.3627 17.3388 21.885
Au 15.5681 25.4314 10.2188
Au 21.1031 26.1479 10.9008
Pd 12.2545 27.7334 21.5111
Au 27.1888 19.273 28.7555
Au 33.7254 21.4636 22.6275
Au 24.7269 20.2699 37.2274
Au 30.9638 32.1511 14.2154
Au 8.18887 30.6213 12.1362
Pd 20.9665 25.1906 22.6083
Pd 21.3988 29.6012 23.4573
Au 6.08918 27.9976 5.0679
Au 19.634 34.8272 12.3096
Au 26.571 19.198 11.5042
Au 3.41535 17.9551 19.5553
Au 20.6421 7.84487 32.1126
Au 19.9858 18.65 3.46191
Pd 20.68 16.3778 10.1374
Au 12.0543 8.1719 27.1977
Pd 19.557 16.4779 7.68
Au 9.04017 24.5531 26.598
Au 20.8959 27.8451 34.467
Au 24.627 20.0495 26.0234
Au 23.3861 17.0952 10.4111
Au 34.0013 18.0572 11.3107
Au 9.22583 15.6316 10.2343
Au 22.1263 18.0801 19.7377
Pd 5.96385 17.3822 20.8848
Au 11.3428 25.0009 30.3779
Au 15.1914 24.4147 26.7322
Au 21.6582 14.9216 5.87083
Au 11.6652 27.246 12.614
Pd 37.0636 15.4431 20.5077
Pd 9.22177 15.5439 30.1505
Au 15.3671 14.232 3.14206
Pd 16.5553 24.8061 24.4114
Au 17.8572 14.3227 33.137
Au 27.0583 8.52342 20.4355
Pd 18.8194 11.93 8.69071
Au 28.2658 25.497 12.8047
Au 28.2156 19.668 31.3651
Au 18.1112 11.229 25.8548
Au 26.5245 12.3202 24.1368
Au 27.9499 28.8366 29.8535
Au 21.0254 5.89937 22.7772
Pd 8.68665 23.7161 23.9695
Au 16.4733 14.9951 12.2062
Au 32.9859 20.1817 15.4423
Au 33.9003 8.43148 21.8427
Pd 23.24 30.1089 27.8785
Au 18.5722 13.6333 13.324
Au 9.53426 29.2818 23.9215
Au 24.2611 33.2355 12.0215
Pd 10.5245 13.1509 25.6618
Pd 22.1944 20.1276 13.4643
Au 18.6851 20.0204 1.40594
Au 25.3451 19.4603 4.26626
Au 2.42551 17.5109 26.7441
Au 23.5956 35.2918 16.3427
Pd 21.4791 27.6312 21.5862
Au 0.923537 18.4219 18.4763
Pd 17.4161 32.2404 14.8333
Au 15.364 27.3354 16.8964
Pd 31.957 13.1923 10.6197
Au 23.5966 21.3714 3.11654
Au 23.9678 9.37756 8.58505
Au 15.6022 6.10535 24.1237
Pd 14.0394 25.6698 21.0584
Au 23.6457 21.7605 8.24021
Au 30.6765 5.33545 20.133
Au 10.5588 8.12543 24.7336
Au 31.3876 16.0446 15.3195
Pd 9.43374 14.2023 7.87463
Au 14.4629 18.4049 20.3655
Pd 13.6693 29.6975 22.8172
Au 37.9192 16.359 18.229
Au 31.5829 22 27.0002
Pd 11.4545 24.9584 8.00337
Au 26.4149 23.0877 8.16969
Pd 26.0766 27.1241 16.0014
Au 23.8094 17.4358 17.6345
Au 13.7153 28.2266 14.5451
Au 10.6141 20.1478 11.221
Au 18.8616 27.8226 6.34164
Pd 3.0813 24.8836 15.6537
Au 33.0406 23.0324 15.1466
Au 25.8903 10.892 21.5431
Au 30.2231 27.8443 28.6099
Pd 21.5114 21.2802 9.85364
Au 16.3003 13.4433 25.589
Au 13.0517 29.0669 17.0487
Au 7.86148 19.0429 32.9812
Au 18.8353 30.5316 16.3708
Au 29.9015 10.7448 30.662
Au 27.0343 18.9428 14.387
Au 15.559 21.2572 3.79829
Au 16.1944 3.54026 21.1761
Au 21.7576 8.03353 9.57308
Pd 23.0761 17.8741 29.2519
Au 36.003 20.6566 12.2351
Pd 17.0198 14.7481 30.4168
Au 10.556 16.5501 6.92239
Au 19.9408 36.4936 20.457
Au 6.07252 22.4971 21.1888
Au 8.64593 30.9735 20.539
Au 21.5903 32.4307 12.2969
Au 34.8325 19.7676 20.5401
Pd 23.6486 25.985 15.2722
Pd 23.1115 30.6304 18.2893
Au 9.87375 9.68797 7.39023
Au 16.6331 30.1974 30.0507
Au 18.959 20.8924 9.18871
Au 9.7475 31.9191 25.8059
Au 17.1558 22.1586 23.9718
Au 36.1425 20.1851 23.1882
Au 13.2313 28.2771 5.80619
Au 32.5756 19.4083 27.7598
Au 9.60527 10.4565 11.7454
Pd 9.0352 31.7759 23.1684
Au 27.7116 17.5486 19.3951
Au 19.7299 5.04899 12.7158
Pd 18.4412 32.2115 26.4379
Au 20.4498 24.4262 32.1756
Pd 29.0211 28.6616 11.4967
Au 26.4926 4.73743 16.4928
Au 35.4217 19.8549 9.7153
Au 21.0596 2.77366 12.2436
Au 18.9079 35.6645 15.1001
Au 18.8336 11.4703 34.9732
Pd 16.5787 22.1188 17.975
Pd 12.2163 22.0162 18.7793
Au 24.9378 20.8568 13.0853
Au 11.9531 25.2972 23.0638
Pd 26.5696 7.44169 15.7369
Au 21.4939 35.6633 14.2075
Pd 22.0945 34.0068 23.86
Pd 19.3285 6.23035 27.588
Au 26.8937 15.5751 35.7003
Pd 12.2252 16.4541 14.2269
Au 23.565 15.3964 12.6716
Au 17.9025 20.1778 16.6601
Au 38.0066 20.5986 16.295
Au 27.2044 14.043 5.32299
Au 6.50103 20.2134 30.9742
Au 21.5763 9.93793 16.6186
Au 11.7012 10.8475 5.40162
Pd 9.06055 14.5695 27.5376
Au 37.6385 19.0742 18.6245
Au 9.67147 13.8495 19.2797
Au 4.22215 18.3949 24.5885
Au 17.57 25.8726 27.2303
Au 23.2811 15.948 3.9195
Au 29.5819 12.7518 9.12239
Au 20.9468 34.8427 16.7607
Pd 14.6042 19.0939 7.00916
Au 14.8281 5.9675 21.4981
Au 25.8369 16.476 11.5379
Au 11.8236 13.8088 14.9376
Pd 24.6262 21.8041 32.9737
Au 26.9491 24.0276 28.8855
Au 26.9216 3.92082 22.1491
Au 29.6935 29.6886 9.16178
Au 25.1174 16.16 29.9973
Au 19.1926 25.6596 34.2443
Au 18.3208 5.35489 22.1095
Au 23.0494 27.4817 27.5459
Au 6.27509 13.1734 12.7124
Au 8.76201 11.3136 18.9042
Pd 3.91974 24.6617 26.8258
Au 16.0901 11.8988 7.70244
Au 13.4045 13.5678 20.5696
Au 1.54112 17.9911 23.9208
Pd 15.727 3.9662 12.6123
Pd 20.5177 12.9811 27.7842
Pd 7.69386 8.87927 18.0054
Au 18.602 27.4157 29.2438
Au 33.3212 24.4293 30.0167
Pd 17.2836 7.38015 9.48001
Au 21.768 34.1114 26.5958
Au 30.0141 18.9917 19.858
Au 35.6344 14.793 18.115
Pd 17.6818 12.8792 28.0616
Au 19.857 8.31607 29.5383
Au 13.993 21.3727 35.4976
Au 20.0553 4.84411 20.0438
Au 23.1306 20.1135 5.96354
Au 28.8174 26.7537 34.8723
Au 26.6716 6.447 23.0874
Au 20.1889 22.8889 34.6781
Au 24.2117 34.3672 25.5108
Au 24.991 17.5061 33.3317
Au 4.34679 19.7326 27.0391
Au 21.8858 27.8444 14.4845
Au 29.2151 17.515 22.0583
Au 27.8582 15.2035 20.7536
Au 14.5453 18.7781 3.59601
Pd 17.9174 29.7512 13.5192
Au 22.6239 3.97217 24.191
Pd 33.6873 21.5405 8.16927
Au 11.6389 4.46961 22.1524
Au 33.8271 18.8077 7.88621
Au 25.9123 31.6846 22.0181
Au 17.1475 23.4583 4.51308
Pd 11.1545 23.6101 25.0955
Au 10.8735 14.7451 21.3928
Au 15.5919 16.9009 31.1562
Pd 10.8869 18.0621 16.1069
Au 27.8718 25.9758 4.93456
Au 35.395 17.4588 18.8749
Au 6.21064 29.9773 19.8649
Au 24.0637 10.5053 18.3115
Au 21.2191 20.0242 34.3925
Au 21.7951 14.1345 17.1468
Au 11.4894 9.02446 22.1542
Au 20.1016 26.3588 8.35432
Au 30.3796 16.175 24.6502
Pd 9.27006 24.2234 16.2428
Pd 11.9029 19.0435 7.33358
Au 16.5958 30.0299 25.7199
Au 10.3948 12.5286 16.9609
Pd 15.2271 20.5921 15.8431
Au 24.1121 12.6113 22.9026
Au 1.28639 20.2274 20.4645
Au 14.1023 26.8982 27.7155
Au 14.3205 26.9268 23.4031
Au 13.0957 6.35084 8.46918
Pd 5.92589 27.5211 18.42
Au 19.0683 30.6318 5.99364
Au 17.6644 11.6351 32.6074
Au 6.13833 29.003 26.8618
Pd 21.5536 11.8196 18.6487
Au 8.23379 19.5291 16.1833
Pd 17.2254 15.5214 24.1759
Pd 20.0681 9.98426 6.88145
Au 10.6425 27.332 5.25183
Au 17.116 7.10069 6.42701
Au 25.1392 13.992 3.6883
Pd 14.3815 23.6439 4.39686
Au 8.9191 24.6906 31.91
Au 2.04738 22.3398 14.4396
Au 16.626 18.2711 15.1898
Pd 23.116 30.4475 15.2123
Pd 6.68934 22.819 8.97891
Au 3.79952 9.26648 24.3525
Pd 16.731 10.6906 18.3059
Au 12.1902 4.08765 24.8681
Pd 16.502 25.9264 33.2879
Au 22.2525 8.39839 22.0284
Au 12.1255 19.6563 13.6172
Au 33.4967 12.1797 27.5725
Pd 31.9089 12.5017 29.7405
Au 26.6432 15.9124 7.13907
Pd 18.7164 8.7436 26.947
Au 12.7691 25.7104 10.2229
Pd 16.676 19.3209 24.5751
Au 6.81709 23.133 30.6024
Au 23.1252 12.9622 7.66609
Au 5.62474 18.5619 16.089
Au 33.8436 14.5476 28.9006
Au 30.2934 10.8982 10.9511
Au 20.5627 14.1026 8.40647
Au 18.0921 7.04344 31.4392
Au 22.0132 5.5969 28.1242
Au 33.9854 9.43812 19.2771
Au 30.2615 30.4309 25.4223
Au 6.64877 18.8597 9.27578
Au 9.49384 16.2207 14.5833
Pd 28.3488 12.2174 32.5963
Au 26.8774 14.1071 18.3363
Au 13.4209 30.9846 5.89926
Pd 14.3061 20.4719 18.3398
Pd 21.6287 12.6921 35.2858
Au 15.9419 32.0657 12.5394