1687
Atoms. Timestep: 21431
Au 17.5486 4.59498 10.4103
Au 10.7152 13.0955 9.32171
Au 10.6764 7.0874 14.57
Au 8.79723 4.8148 23.57
Au 9.71974 6.62803 27.4977
Au 10.7328 9.16319 31.2431
Au 6.75022 14.4466 30.1097
Pd 10.5525 9.0721 8.16393
Au 10.6972 7.06145 9.94967
Au 17.0677 9.472 5.46504
Pd 13.6912 4.27855 17.2162
Au 8.72729 8.87701 10.3063
Au 13.1139 7.77266 13.4748
Pd 9.0745 7.02565 18.8073
Au 5.25588 5.71404 21.0915
Au 9.9756 3.15616 16.2445
Au 16.5827 5.14091 29.9205
Pd 6.62813 5.78835 18.6694
Pd 8.05789 10.6715 27.9154
Pd 8.38363 10.4052 25.1859
Pd 13.3787 15.4345 29.7629
Pd 9.83588 22.4122 29.8682
Au 11.416 13.8925 5.7452
Pd 9.04332 6.74706 12.1083
Au 8.67139 11.1514 8.72593
Au 4.37042 10.3649 12.116
Au 5.74636 15.2396 10.1513
Au 8.85543 4.13056 18.6463
Au 7.26536 6.5625 14.0642
Au 4.33172 10.316 19.92
Au 4.35889 9.00472 16.9477
Pd 11.295 8.26538 20.1383
Au 6.58968 10.0654 21.5633
Au 10.1962 18.4397 27.952
Au 8.98908 9.72714 22.7144
Au 18.0968 22.4436 31.354
Au 7.48344 8.28694 26.7091
Au 8.83293 11.2449 11.7699
Au 3.57241 15.0547 11.892
Au 6.60046 19.9093 7.50578
Au 5.88551 6.90716 16.3447
Au 10.5029 16.913 10.3706
Au 2.6738 10.8622 17.8711
Au 1.46672 13.0626 18.6849
Au 4.91479 13.1602 26.0936
Au 4.61865 13.7047 23.4187
Au 4.25876 10.8158 22.833
Au 3.3191 17.9076 23.9731
Au 5.85737 10.616 26.2654
Au 4.67181 8.20424 21.9887
Au 8.67942 23.3818 32.194
Au 6.11577 20.2389 29.5096
Pd 5.86018 15.4771 13.1268
Au 6.51163 10.7461 10.4031
Au 5.45632 16.489 22.9501
Au 2.8944 12.8738 16.1086
Au 5.55563 16.8926 15.6427
Au 4.05051 13.1174 18.922
Au 2.33614 23.4086 18.3283
Au 6.0968 22.207 27.4226
Au 3.58158 25.7471 17.7949
Au 4.49851 17.1792 27.6111
Au 3.91765 24.9634 24.9356
Au 6.73638 25.2912 28.5303
Au 4.5804 20.3052 24.199
Au 11.0042 20.1151 34.7229
Pd 10.5724 27.559 28.6301
Au 10.7103 19.3408 16.1095
Pd 3.87508 17.4261 13.3864
Au 5.02708 19.4075 16.8566
Pd 5.57068 19.0089 21.8808
Au 2.99014 22.3358 15.9913
Pd 6.28803 25.9363 20.699
Au 6.82531 28.854 17.037
Au 3.56987 26.4173 20.5079
Au 3.46738 22.1745 13.3298
Au 3.72004 22.2339 26.087
Au 7.73709 30.12 21.712
Au 4.56504 24.4392 27.3865
Au 6.8949 24.6425 25.8494
Au 8.1826 20.8323 31.4649
Au 6.99897 18.3685 27.7378
Au 14.7155 25.9014 13.092
Au 6.67562 28.1762 14.1256
Au 10.9224 22.1967 13.7503
Au 2.24129 23.5348 21.0155
Au 10.7052 31.7245 12.2226
Au 2.86972 22.4965 23.5675
Au 4.98799 26.5034 12.9564
Pd 6.15884 26.0283 23.4965
Au 13.6446 36.4679 18.8865
Au 9.72086 34.4914 20.7402
Au 12.3914 32.2725 14.2996
Au 5.5031 26.9129 26.168
Au 6.09933 28.8108 23.83
Au 12.1675 35.7702 21.1329
Au 21.2678 33.8036 20.5414
Au 10.5658 17.8656 7.28404
Pd 3.29295 19.9095 14.7459
Au 6.55438 24.567 8.10967
Au 8.59889 30.0195 12.4571
Au 8.98733 29.142 9.69071
Au 15.368 30.1098 19.5051
Pd 12.8776 20.7654 12.1412
Au 12.9095 33.3814 24.2737
Au 9.53044 32.2825 14.6374
Au 10.961 32.4298 19.2115
Au 13.4531 31.3752 20.7381
Au 12.5589 33.9042 28.5624
Au 23.2404 32.4308 28.0901
Au 20.4158 22.8653 32.947
Pd 16.2571 36.9807 23.4098
Au 19.761 14.1628 0.614592
Au 9.44616 4.80285 14.0948
Pd 10.9856 11.5506 7.11077
Au 8.7709 13.5058 7.39258
Pd 15.1127 8.70904 9.36263
Au 12.5071 2.07189 16.453
Pd 7.95766 5.10613 16.3319
Au 12.4758 3.73817 21.0638
Au 7.85681 4.93551 21.0065
Au 11.0916 6.66777 30.0646
Pd 14.6186 4.8743 20.0415
Au 6.79416 6.56726 23.2278
Au 12.1491 3.01754 23.6561
Au 8.40295 11.0497 30.5384
Au 14.3327 13.6137 36.0546
Au 16.3662 16.3912 3.29247
Au 8.60605 15.9667 8.7606
Au 6.53702 15.2185 7.42581
Au 14.669 14.6103 12.3022
Au 11.5776 5.71903 12.3693
Au 17.2352 15.2575 0.943208
Au 14.5346 9.64504 4.54729
Au 10.9095 8.72763 12.1762
Au 17.1395 10.0415 13.8173
Au 12.9828 12.695 10.9919
Au 9.99517 3.3169 21.7781
Au 11.4493 3.45117 18.5516
Au 13.8673 2.26845 19.154
Pd 17.1982 10.3914 10.9917
Au 13.1454 10.2832 16.5728
Au 9.2486 10.1775 17.1165
Pd 10.5999 5.45983 20.2988
Pd 11.13 10.8416 21.4067
Au 7.76091 5.78517 25.8085
Au 13.1678 7.89549 31.418
Pd 14.7065 11.4348 28.2755
Au 11.8153 7.36117 25.5228
Pd 6.37994 9.03855 24.0837
Au 6.13804 12.4441 28.5108
Pd 19.7777 15.4047 31.9708
Au 10.6292 10.9501 28.9352
Au 19.0194 11.6767 35.7609
Au 10.8946 24.5823 28.4185
Pd 13.3934 15.177 26.3281
Pd 10.799 11.8515 31.4935
Au 13.2918 11.9821 5.41173
Au 6.17796 12.838 8.62982
Au 9.35974 15.6677 5.87909
Au 6.63252 8.44251 11.9209
Au 11.2492 15.3529 8.02987
Au 12.6865 13.6797 3.37954
Pd 13.362 10.0309 11.5252
Pd 6.59877 10.9174 13.29
Pd 11.2103 9.76318 14.7856
Au 9.00162 11.5312 14.5882
Au 11.2526 8.2917 17.2954
Au 10.5919 5.63298 16.9529
Au 15.8554 11.6751 15.7081
Au 5.57026 13.0473 14.5932
Au 4.6096 7.62092 19.2811
Au 9.12368 12.8311 23.8989
Au 11.6291 10.6842 18.7606
Pd 8.60369 7.69207 16.1927
Au 7.05082 7.61792 20.6705
Au 6.81282 15.0336 24.8432
Pd 10.1629 9.20499 26.7138
Au 11.0752 10.8218 24.2812
Au 9.19991 7.62171 24.6143
Au 4.0983 15.6547 25.3673
Au 19.3949 11.6231 28.1605
Au 15.164 14.0913 28.0514
Au 9.50611 14.7008 26.5461
Pd 8.60116 16.145 28.8299
Au 10.7262 21.5388 32.4886
Au 8.94047 13.2531 28.9063
Au 10.9833 15.815 3.63155
Au 6.26412 21.2086 12.5756
Au 8.07162 13.4884 10.2163
Au 3.27177 12.7354 13.2252
Au 11.285 11.8337 12.9591
Au 8.0542 15.955 11.5117
Pd 7.81044 13.5272 12.9668
Au 2.38582 20.0496 17.3934
Au 3.5456 15.1079 14.7113
Au 7.69461 12.6309 16.6813
Au 3.97021 10.679 14.7907
Au 3.30284 17.4475 21.2288
Au 6.87941 8.65933 18.1843
Au 4.70245 16.8268 18.5079
Au 9.01364 9.64511 19.9063
Au 4.6988 15.0765 20.7485
Au 2.87197 12.8386 21.3325
Au 5.21839 8.42192 14.1402
Au 5.6391 12.5383 21.1578
Au 2.06108 15.2261 20.1224
Au 13.8557 17.3884 21.8939
Au 6.83576 18.8212 18.8442
Pd 7.32501 14.5035 22.1891
Pd 10.7498 18.2499 23.6238
Au 11.2541 15.9115 28.2825
Au 9.57783 14.5969 17.3961
Au 11.5484 13.7665 24.7707
Au 17.261 22.6101 36.8192
Pd 21.4246 25.8483 31.1958
Au 7.12719 22.8483 29.9078
Au 9.87686 18.1278 4.71536
Au 7.76859 17.6639 6.62263
Pd 6.13232 17.9694 11.7871
Au 2.97651 17.5951 16.1359
Pd 5.17431 11.6122 17.0233
Au 5.57309 21.8607 15.1254
Pd 7.56426 14.9627 15.294
Au 2.6173 15.24 17.4632
Pd 4.44279 21.6658 18.2799
Au 7.40332 16.3215 17.6941
Au 2.11728 17.701 18.7583
Pd 4.48586 21.8167 21.5598
Au 4.16787 19.3868 19.6032
Au 6.51632 21.1855 20.0431
Au 2.72842 19.9355 22.2053
Au 4.82773 28.0428 18.7028
Au 2.17664 21.1638 19.8754
Au 9.97804 22.9714 18.5642
Au 4.67847 19.8281 27.0743
Au 6.94075 16.7349 20.5461
Au 6.87851 14.0058 19.1402
Au 4.23292 24.5644 22.3598
Au 6.56857 11.8985 23.8042
Pd 8.4872 17.1632 25.9621
Au 6.37743 15.2392 27.5031
Au 8.49708 24.8515 23.6267
Au 7.56057 12.8495 26.2983
Au 13.9514 20.4723 34.0912
Au 6.03555 17.0266 29.8353
Au 14.6063 27.0176 34.5393
Au 5.45956 12.9539 11.6075
Au 4.46253 19.7374 9.35367
Au 3.9831 19.7578 12.0179
Au 11.0172 24.5472 16.7199
Pd 6.87697 20.1899 10.2776
Pd 10.9442 28.7907 11.6831
Au 12.3869 17.2588 14.6818
Pd 7.10833 21.4208 17.3676
Au 5.28692 23.8068 16.9521
Au 12.8147 23.577 12.0398
Au 9.35896 25.9059 18.3797
Pd 9.23974 27.5762 13.4242
Au 3.8928 27.2027 23.1629
Au 9.70366 24.8679 14.3702
Au 10.4524 26.6578 24.0799
Au 8.56199 23.3358 27.5814
Pd 8.39258 26.8548 15.9222
Au 13.3521 27.965 20.1816
Pd 8.46965 20.6436 28.2447
Au 6.48451 26.0869 17.8471
Au 5.65931 22.8355 24.3125
Au 7.69922 27.9381 19.5445
Au 6.98348 20.3216 25.6523
Pd 10.6206 19.8854 30.385
Pd 8.63361 22.3072 24.7957
Au 9.04277 30.0511 29.1333
Pd 11.2529 24.1231 31.3633
Au 7.60397 31.031 24.4854
Pd 12.134 18.974 32.5795
Pd 15.8494 29.7003 30.1708
Pd 7.94461 22.9234 13.8355
Au 12.3994 23.0977 4.11224
Pd 5.45373 23.8348 12.7902
Au 7.07767 27.9225 11.4044
Pd 10.9998 19.3509 13.4046
Au 7.66921 25.4805 12.4859
Au 3.79153 24.6932 14.8516
Au 16.1773 36.9179 17.9297
Au 11.5011 26.1533 12.6651
Pd 9.86969 23.9474 11.8061
Au 6.46783 25.2683 14.8887
Au 9.51334 27.7321 7.12644
Au 10.4098 27.7896 20.1815
Au 4.82188 27.1753 15.8679
Au 9.09575 30.2103 19.03
Pd 14.4099 29.2948 22.2563
Au 11.0441 29.8452 14.2016
Au 9.14435 33.6404 17.7568
Au 5.50172 28.4349 21.2911
Au 9.30233 32.3545 22.7591
Pd 8.23743 27.4254 22.2221
Pd 12.179 26.7312 18.0209
Pd 9.52559 29.3681 23.6769
Pd 14.0097 30.7215 31.8908
Pd 7.96562 27.3522 25.0112
Au 15.143 33.1682 28.2416
Au 12.386 25.8024 33.2898
Au 12.8582 31.9014 26.6904
Au 18.723 26.8739 35.3996
Au 17.5863 34.0304 29.1528
Au 3.90882 17.3535 10.5552
Au 5.83085 19.2026 14.2486
Au 9.45835 26.6311 10.7526
Pd 11.2357 22.249 10.1049
Au 5.82739 25.519 10.5212
Au 15.8345 27.755 9.9264
Au 18.1065 31.7949 17.5516
Au 8.5842 29.7515 15.2163
Au 13.2702 31.8265 17.0677
Au 11.7586 25.2139 10.1776
Au 13.3006 36.0076 23.5892
Pd 24.2538 33.3707 20.8243
Au 11.7658 33.1326 21.7754
Au 11.195 27.0199 15.3348
Au 8.16059 32.4228 20.1021
Au 6.34598 30.3576 19.3289
Au 10.0576 28.4448 17.3201
Au 11.4723 33.7996 16.3322
Au 8.72172 33.4957 25.129
Au 11.1244 29.7899 30.8635
Au 7.72892 31.5121 17.1249
Au 12.2135 30.9032 23.4225
Au 15.4817 32.8206 15.3648
Au 7.56925 27.849 28.4269
Pd 17.7722 32.7676 26.6047
Au 15.263 30.3711 27.6353
Au 6.60011 29.3929 26.4354
Pd 22.6878 27.338 33.0164
Pd 18.953 24.9718 31.9986
Au 17.0933 26.4293 33.3378
Au 19.1946 15.4285 2.82476
Au 19.8301 8.74531 5.06988
Au 18.0957 11.9685 6.24466
Au 16.4628 4.01104 12.9854
Au 17.3476 2.65202 15.3501
Au 15.1902 6.55395 17.9726
Au 15.5841 8.47214 12.0493
Pd 12.5726 6.21404 18.7097
Au 15.1992 1.62417 16.8815
Au 14.7157 2.65178 24.6772
Au 16.7447 1.6328 23.1316
Au 17.3352 15.3884 33.2147
Au 23.845 6.41344 31.3006
Au 13.3752 20.9712 31.217
Au 12.9086 10.5222 32.6037
Au 12.3965 16.5667 5.70832
Au 24.2571 20.5785 4.36436
Au 15.2852 13.9645 2.61597
Au 15.1156 10.7876 7.01012
Au 13.1517 7.40209 10.7952
Au 14.3796 14.7279 5.21633
Au 15.9454 7.25136 14.4387
Pd 16.6019 13.72 14.0549
Au 10.9611 10.6369 10.3065
Pd 15.1246 14.1675 9.59818
Au 12.8523 7.56227 8.16811
Au 13.2842 6.81936 15.999
Pd 15.3857 7.50385 20.6691
Au 17.6011 7.674 9.98985
Au 16.3248 1.43796 20.0936
Au 11.4286 5.56301 23.1708
Pd 13.0153 6.63055 21.3562
Au 17.2866 5.77746 19.5071
Au 13.2345 4.87366 25.3499
Au 12.5731 10.447 26.8848
Pd 10.4997 4.90956 25.6054
Au 9.34644 7.11255 21.917
Au 14.3652 2.06392 21.9453
Au 15.1023 14.0038 31.3019
Pd 15.4056 9.16677 32.3366
Pd 12.9074 10.1307 29.9552
Au 15.2867 11.2659 30.9001
Au 12.5302 12.0389 34.8332
Pd 15.6637 22.1524 32.6064
Au 17.9066 17.6002 31.1125
Pd 13.5709 20.6036 8.83558
Au 14.0292 20.631 4.17373
Pd 13.1636 13.0854 7.97573
Pd 12.9803 19.1472 6.50523
Pd 16.3768 16.2553 6.84136
Au 14.9217 17.8928 5.17186
Au 12.9712 10.3209 8.66925
Au 11.0653 12.2146 16.378
Au 18.5451 12.5218 15.4558
Au 17.497 15.5643 9.56674
Au 8.61217 8.96235 13.7053
Pd 15.8642 13.4139 19.3859
Au 21.2718 12.9421 13.1467
Pd 17.8371 12.0594 18.1237
Au 17.7108 6.97482 16.895
Au 10.9759 13.5189 21.8268
Au 16.6697 6.22942 22.7492
Au 11.5412 8.40117 22.9455
Au 13.5268 9.65366 24.3884
Pd 10.1454 12.0086 26.4994
Au 16.6033 6.83737 27.7688
Pd 14.1481 7.10774 23.8476
Pd 16.8884 12.0616 26.6377
Au 9.14319 8.566 29.2254
Au 12.0458 13.3173 27.7642
Au 13.9263 12.5134 25.7875
Au 13.0269 12.7368 30.1026
Au 8.60778 13.5219 31.7826
Au 19.6946 17.8289 33.222
Au 16.4372 25.2339 35.7499
Au 5.78318 22.1259 8.56369
Au 6.27708 17.6298 9.02698
Au 11.2158 20.6566 4.91597
Au 9.7819 16.7626 15.8032
Au 13.9615 15.8507 7.84035
Au 8.97339 20.237 6.30099
Au 12.6428 15.2903 10.4299
Au 7.80465 17.3391 13.9807
Pd 12.3055 14.8778 13.3009
Pd 10.2702 16.646 13.0785
Au 5.27052 14.483 16.9027
Au 6.82901 9.87061 15.7526
Au 14.3018 9.95571 14.1769
Au 16.9807 16.367 15.1626
Pd 8.46677 12.1438 21.3547
Au 7.1688 20.9405 22.9006
Pd 15.2457 11.7981 12.5345
Au 7.32618 23.7198 19.1336
Au 6.88983 11.2254 19.0272
Au 13.1653 12.1111 22.9053
Au 9.25682 14.7501 20.1089
Au 9.47769 16.9245 21.5856
Au 10.0169 14.1072 14.509
Au 9.50939 18.5607 32.7348
Au 13.3245 18.0896 30.3973
Au 11.8189 15.9144 22.8446
Au 11.513 26.8358 30.9812
Au 13.7075 16.3747 36.2543
Au 15.3486 16.741 31.7374
Pd 10.1879 15.588 33.0483
Pd 8.8117 18.852 8.98191
Au 9.06678 24.3548 9.15038
Au 8.77947 18.6544 11.7363
Au 8.47646 20.1764 14.0865
Pd 12.738 17.9739 9.10225
Pd 15.3641 20.7024 6.53147
Pd 10.2614 14.1892 11.7164
Pd 9.46698 20.301 18.5515
Au 13.3721 12.5823 14.4935
Pd 12.7385 17.7005 11.9325
Au 9.57402 17.589 18.7477
Au 8.48926 19.3379 20.9684
Pd 11.995 17.2158 17.4297
Au 13.8927 22.0379 18.7508
Au 8.15106 24.0333 16.5602
Au 4.64064 23.9687 19.7044
Au 8.89878 22.1297 20.8795
Pd 10.0337 20.6562 22.8399
Au 11.2377 16.7918 25.7468
Au 5.77327 17.8491 25.2987
Au 11.4095 18.8256 20.8492
Au 16.4966 26.1196 16.8204
Au 11.7124 25.7584 21.6148
Au 11.6505 28.911 25.3693
Au 11.8755 28.3342 22.507
Au 15.7525 16.6093 29.0525
Pd 19.0672 16.2205 35.2296
Au 12.9799 28.4758 32.8026
Au 22.2929 22.8128 37.9022
Pd 10.6769 17.1848 30.6671
Au 14.8191 22.6902 2.57883
Pd 16.7394 24.2765 3.62303
Pd 15.8756 25.7386 5.94546
Pd 14.7773 28.1762 17.7945
Au 15.0139 16.7551 10.4487
Pd 8.70962 21.605 8.88127
Pd 12.5904 24.6134 14.5602
Au 13.9999 26.6085 15.7456
Au 15.1981 19.6104 17.8818
Au 14.7536 24.8724 10.4712
Au 9.4635 21.7685 16.0474
Au 13.095 22.6422 22.2861
Au 11.5356 21.5225 20.3819
Au 17.1085 25.8611 11.5374
Au 12.1356 21.9353 16.5448
Pd 13.0837 28.1331 13.6535
Pd 15.8111 30.4278 16.6998
Au 13.5759 29.9496 6.06751
Au 10.5945 30.4639 21.2483
Au 9.61383 19.7592 25.5719
Pd 9.00997 26.0695 27.0523
Au 14.3702 21.5086 27.4946
Au 6.76986 23.5352 21.9043
Au 10.4087 28.2941 33.036
Au 8.92793 25.2708 30.0887
Au 9.07455 25.1076 20.9165
Au 2.70601 15.3966 22.8289
Au 8.94529 27.9061 30.8368
Au 15.7063 28.7215 32.6632
Au 10.6799 23.7486 34.2136
Au 16.4552 20.6781 1.73356
Pd 11.0607 20.412 7.97416
Au 9.16614 21.3294 11.6756
Pd 18.7303 25.7952 4.83344
Pd 16.8235 25.5865 8.55526
Au 10.5126 22.9324 7.21625
Au 15.875 23.1928 12.7418
Au 19.8871 26.555 12.245
Au 19.5344 27.8615 14.9749
Au 12.2472 27.5753 6.35498
Au 11.2064 30.7661 9.77647
Au 13.1787 30.31 11.7325
Au 11.1786 29.9203 7.28483
Au 28.5694 33.2118 15.7976
Au 14.213 29.9096 25.0638
Au 12.7635 32.8578 10.7353
Au 16.1928 28.285 15.0119
Pd 13.6488 29.4376 8.98163
Au 12.5929 24.7671 24.1183
Au 10.3957 31.4631 25.4451
Au 17.047 20.9036 27.5628
Au 11.0941 34.1097 26.2252
Au 10.4515 32.3166 28.2337
Au 8.1514 31.5843 27.0567
Au 16.52 24.7036 30.8158
Pd 13.4732 28.2105 27.2624
Au 28.1759 24.4576 35.0865
Au 16.4386 35.1222 26.8404
Au 9.57047 25.8336 32.7521
Au 13.3144 28.6973 29.9488
Au 7.93843 18.8672 16.4013
Au 18.3022 22.6873 1.74735
Au 16.9375 21.5974 4.23752
Au 10.9695 25.3212 4.93423
Au 10.5681 31.1649 16.7595
Au 4.45787 22.1904 10.8012
Au 7.62995 26.8681 8.8254
Pd 16.8892 30.9984 13.1696
Au 17.9443 27.6227 6.70272
Au 14.692 32.4243 12.5913
Au 14.69 34.7478 11.4442
Au 15.7238 36.1107 15.4245
Pd 15.8116 34.8867 19.5948
Au 19.5626 33.3845 10.2135
Au 12.0905 29.8592 18.8277
Pd 18.055 30.2333 19.7764
Au 17.4749 32.6784 23.7305
Au 17.1763 34.8303 21.9834
Pd 15.9382 27.9819 26.2811
Au 17.1069 34.455 17.1426
Au 10.3337 24.1855 25.6061
Au 18.6793 27.9203 22.3281
Au 11.592 21.8996 24.6743
Au 11.2148 35.2393 18.5965
Au 19.202 30.3989 26.707
Au 17.8954 29.1021 34.1412
Au 20.2794 33.9695 29.7038
Pd 15.3693 27.2869 28.9404
Au 19.4075 31.2733 33.5883
Au 18.3208 29.8549 31.3619
Pd 19.9114 10.1919 7.34782
Pd 20.1425 8.18048 9.13536
Au 19.2089 3.83555 12.4296
Pd 17.6025 6.5371 12.4335
Au 12.538 9.40693 6.21889
Pd 16.1654 3.60381 18.315
Pd 14.1787 5.34929 13.5283
Pd 18.9936 7.7855 23.6068
Pd 20.2856 3.4835 14.9292
Au 14.8941 4.51644 27.6036
Au 24.0659 1.80939 22.7759
Au 21.1709 6.13689 30.4793
Pd 20.9759 11.0065 30.3491
Au 17.6154 7.94837 33.2086
Au 21.8924 7.36589 32.9053
Pd 21.5993 16.2504 1.22669
Au 22.4128 9.11807 4.03121
Pd 15.7998 13.4385 7.05802
Au 15.1034 8.03841 6.71638
Au 19.2693 8.84356 11.9323
Au 17.1556 14.2751 4.75854
Au 21.8393 5.93912 9.063
Au 15.1501 11.5119 9.70998
Au 24.6704 2.95675 16.2603
Au 16.0914 6.1767 8.45446
Au 18.2621 5.22793 14.6273
Au 19.2322 9.99246 19.5093
Pd 15.4037 8.81845 16.4582
Au 20.2102 10.6121 14.6848
Pd 19.6637 7.04636 19.1238
Au 18.5333 4.27888 17.2521
Au 18.7009 0.982585 21.4485
Au 20.3129 6.08284 16.2396
Pd 14.2126 7.16867 26.6922
Au 16.6498 7.65847 25.1717
Au 18.8044 5.86677 25.7475
Au 16.0529 4.99674 25.2437
Pd 15.344 9.70764 26.3279
Au 17.3997 12.8465 32.2287
Au 23.6054 7.06103 28.5562
Au 18.9826 8.3258 26.6974
Au 12.1574 8.16931 28.2956
Au 12.0261 14.7367 34.9564
Au 10.8271 14.4727 30.6027
Au 19.4695 13.7417 34.1434
Au 20.3938 26.9252 2.96159
Au 19.6147 18.0292 2.69257
Au 19.2997 16.9504 0.221767
Au 17.2345 18.9431 3.79349
Au 20.2624 12.9604 7.96355
Pd 20.9455 23.2946 6.50684
Au 17.6304 12.592 8.92581
Au 18.8742 11.8075 12.6051
Au 17.3909 9.92407 8.2983
Au 17.3267 18.3223 10.1158
Au 17.0283 13.418 11.4079
Au 19.1306 14.6381 13.4533
Au 20.3875 11.3476 17.4538
Au 16.556 14.231 16.8397
Au 17.9417 9.90201 16.4953
Au 15.6214 11.4281 24.0094
Pd 13.7145 8.73444 18.8407
Pd 13.5511 14.5254 20.9823
Pd 18.7428 7.96919 14.5726
Pd 13.9592 14.6044 23.7203
Au 18.7394 10.3889 22.3006
Au 18.1501 14.9731 21.8731
Au 15.7731 13.3471 22.0584
Au 8.14139 16.2674 31.5572
Au 17.9171 10.1787 24.9346
Au 19.865 16.8913 26.6474
Au 8.26979 18.5556 30.1548
Pd 23.6474 19.0408 35.0305
Pd 17.4254 15.0229 30.3896
Au 19.7774 9.34717 34.3887
Au 12.353 18.4664 3.73939
Au 18.901 19.9382 0.749682
Au 17.0611 17.9933 1.15499
Pd 16.4589 20.8069 8.97571
Pd 15.2332 18.4012 8.15911
Pd 19.3548 23.3338 4.12349
Au 17.4118 20.9144 11.5607
Au 14.4895 15.0838 15.0915
Au 14.9413 17.5748 13.5395
Au 17.1478 23.3153 10.2646
Au 13.8587 12.8612 17.2467
Pd 9.42978 12.2783 18.8752
Au 18.9299 17.135 17.0556
Au 16.5062 16.8191 18.1549
Au 11.7947 13.6153 18.9683
Au 11.6942 16.1948 19.9678
Au 10.8095 21.6841 27.2585
Pd 19.0221 17.0622 20.0725
Au 13.6668 11.8809 20.1965
Au 12.8441 19.8837 23.1165
Au 16.1751 14.0981 25.1583
Au 12.991 22.9023 33.2965
Pd 16.9443 17.9464 33.8934
Au 15.2457 19.1849 26.1792
Pd 19.1708 19.6992 26.3465
Au 23.3258 14.3518 27.2011
Au 20.483 20.5603 30.9153
Au 13.0163 19.0853 36.2372
Au 10.2654 13.0052 33.8372
Au 14.6544 15.0052 33.8732
Au 7.21017 23.1441 10.7496
Au 20.7378 24.2852 1.95564
Au 14.7658 18.6446 2.45
Au 13.4174 19.7125 15.354
Au 19.4487 20.6859 3.32843
Au 20.7727 27.2427 5.90724
Au 12.3041 19.7849 18.3207
Pd 15.4001 21.6597 16.2153
Au 14.8792 19.3692 10.9327
Au 24.2764 24.4228 12.1305
Au 15.3874 20.3162 13.477
Au 13.9583 17.7369 19.2843
Au 17.9896 19.1615 18.5042
Au 20.5584 22.4661 14.7106
Au 12.0616 14.811 16.2119
Au 15 23.7876 20.6994
Au 19.1716 23.7537 18.5114
Au 16.292 23.5844 18.0743
Au 16.4323 21.2248 19.6588
Au 7.87316 18.259 23.5019
Au 13.6916 17.3975 24.6307
Pd 16.3491 18.5531 20.5951
Au 18.5697 15.4357 24.6366
Pd 13.9193 24.0031 31.0193
Au 16.6442 20.6377 34.8379
Au 13.4445 17.5384 27.6185
Au 14.2151 17.7965 34.0347
Au 14.9162 12.0941 33.5473
Au 24.2677 23.6062 36.3517
Au 15.713 19.5051 31.8985
Au 21.0111 21.6419 1.28205
Au 13.6241 16.1892 2.992
Pd 12.9337 21.9304 6.52707
Au 11.1111 19.5909 10.5445
Au 21.4423 21.2695 8.86196
Au 19.0527 21.2643 6.0168
Au 15.4982 23.1979 7.98475
Au 20.2395 31.7043 8.12379
Au 23.7774 16.4686 12.6164
Au 13.6914 22.2522 14.2732
Au 21.2453 26.7036 8.70285
Au 19.384 21.1842 19.7267
Pd 23.5349 22.4364 26.2172
Au 14.6779 25.8537 19.0843
Au 13.356 27.4137 10.9979
Pd 14.5842 17.452 16.3587
Au 15.5815 19.0715 23.2756
Au 20.3467 31.5875 19.0416
Au 17.1005 20.8429 24.7467
Au 14.3076 21.583 24.7905
Au 17.9734 20.4695 21.9937
Au 10.5343 23.4263 22.6324
Pd 12.3616 19.5165 25.8773
Pd 14.5563 25.6523 26.3297
Pd 12.8752 23.5839 26.6161
Au 15.6742 21.7225 22.382
Pd 15.282 32.4663 25.6971
Au 12.5227 22.013 35.867
Pd 17.6216 23.5318 33.948
Au 21.6241 23.4484 35.4363
Pd 18.3954 25.4723 2.10256
Pd 25.3368 24.9928 2.82407
Au 19.009 22.7062 8.43071
Au 7.67525 22.5906 6.59846
Au 17.5727 23.6 6.25656
Au 9.68379 22.9326 4.75984
Au 24.039 27.5471 18.3613
Au 17.0964 25.6063 22.1517
Au 25.8425 35.233 12.8605
Au 17.5109 26.0283 14.1946
Au 17.4532 25.8017 19.358
Au 13.7229 24.1973 17.0901
Au 18.2645 23.8996 15.8775
Au 15.0865 33.0556 9.39252
Au 24.739 30.1748 19.1274
Au 14.0831 34.6566 16.9434
Au 12.2561 24.2229 19.503
Au 13.7837 34.6067 14.1211
Au 17.0306 30.1842 22.2718
Pd 19.2531 30.4592 23.8303
Au 17.0557 25.786 27.7019
Pd 18.5075 34.0841 19.5705
Au 13.6686 27.2964 24.4214
Au 12.5471 22.622 29.2508
Au 15.3451 19.3058 29.0619
Pd 18.9536 32.2238 21.465
Au 17.8972 20.0337 30.0413
Au 19.5824 27.553 32.4752
Pd 13.0743 25.9464 28.9483
Au 19.1669 24.3234 36.1019
Au 20.9814 30.0586 5.64489
Au 31.7271 27.639 8.0535
Au 15.5383 31.0673 7.42592
Pd 15.6938 30.6754 10.4533
Au 27.6239 31.6699 8.94645
Au 15.2965 28.1483 7.2072
Au 14.1716 25.1953 3.63094
Pd 25.6943 34.1824 15.476
Pd 29.0267 27.9425 13.1452
Pd 13.2482 24.8474 6.19502
Au 14.778 36.746 21.2854
Pd 13.2982 33.7462 19.3768
Pd 22.1961 31.63 13.3493
Au 20.0366 33.9393 17.2503
Au 18.8386 37.0703 22.8114
Au 19.2864 34.9619 27.2515
Au 16.8924 30.3318 25.1653
Pd 14.3601 34.1153 21.8277
Au 14.4118 26.2496 22.0028
Au 18.4794 32.6293 31.3584
Au 27.6191 26.7756 33.6147
Pd 20.6154 32.5463 27.4562
Pd 15.0818 24.7087 33.3205
Au 17.8173 28.5365 28.2318
Au 23.251 25.9943 35.2725
Pd 21.204 32.6216 31.9498
Pd 14.4876 26.6219 31.4505
Au 22.1417 31.3053 34.1793
Au 19.2932 21.6859 35.1092
Au 21.0903 29.8035 32.0545
Au 15.8946 11.9368 4.40378
Au 26.7394 7.06981 9.4839
Au 22.2666 8.96236 6.77742
Au 12.0526 4.41086 14.9272
Au 20.2728 2.18994 17.2461
Au 22.8406 2.18015 18.2275
Au 16.6199 3.76948 21.475
Pd 14.3655 4.64567 22.8447
Pd 18.5541 3.13322 19.7685
Au 19.9235 3.46691 26.0606
Au 23.3732 4.45476 22.8923
Au 17.0969 12.5876 29.3197
Au 24.013 11.4423 33.5496
Au 9.33853 15.5713 23.8892
Au 25.3641 8.50682 30.2368
Au 24.0893 15.1078 3.11094
Au 32.4406 10.0298 13.2476
Pd 18.4917 16.6428 5.12957
Au 19.007 5.59476 8.42875
Pd 21.4731 15.2648 11.8592
Au 21.7345 16.5113 3.89118
Pd 19.8055 6.17609 11.0198
Pd 21.5622 10.4074 12.0718
Au 21.2702 8.35703 13.8361
Au 22.3953 9.66658 9.51463
Au 15.8692 4.91256 15.8245
Pd 18.4913 12.5723 20.6902
Au 22.8643 6.91781 15.3909
Au 21.9448 12.828 15.8329
Au 22.4628 3.37928 27.0579
Au 21.8242 2.74201 24.28
Au 20.7776 4.3425 18.9947
Au 20.275 8.6438 17.0002
Au 19.3606 1.55498 24.0405
Au 17.7112 4.15908 27.6603
Au 21.2388 6.14382 27.4161
Au 18.2045 4.04035 23.7099
Au 14.0369 6.17607 29.5573
Au 14.9152 8.68092 29.1165
Au 19.781 8.52646 31.7957
Pd 21.9373 8.90983 27.5499
Pd 20.1852 18.983 37.873
Au 15.5573 6.54235 31.915
Au 18.9657 6.28182 28.8999
Au 17.85 14.8157 27.4828
Au 21.4209 18.9342 0.814609
Au 23.2707 23.3624 1.88708
Pd 21.9105 19.3542 3.50179
Au 22.922 25.3767 6.98095
Au 17.3191 18.9286 6.4826
Au 18.9433 19.9991 8.40632
Au 18.4924 14.6739 7.1551
Au 20.8126 15.793 9.16987
Au 19.5596 13.8101 10.6242
Au 19.7578 20.2311 13.2375
Au 21.8765 13.2595 18.6102
Pd 17.9181 12.6964 23.5137
Au 18.4182 14.6988 18.8408
Pd 16.8431 19.0955 15.7003
Au 22.0688 9.57865 19.0435
Au 13.663 9.48465 21.5323
Au 18.0148 8.07987 21.1048
Au 15.3749 10.8639 18.3047
Pd 16.9061 8.72862 18.7884
Au 20.783 18.3714 24.402
Au 16.0945 9.01071 22.9179
Au 19.3389 13.048 25.7422
Pd 22.6215 17.9904 26.3988
Au 19.6184 13.3229 30.3551
Au 24.7731 12.1988 26.0702
Au 22.3484 13.3722 29.7849
Au 23.4987 21.7879 34.3325
Au 22.1386 20.4698 38.8741
Pd 12.6432 13.529 32.6093
Pd 25.7925 17.7619 33.6774
Au 21.6377 14.0346 2.64276
Au 26.4363 10.5977 5.56937
Au 21.8689 20.706 6.18618
Au 26.0106 19.3538 2.54582
Au 24.7734 10.1404 8.02743
Au 23.679 17.7955 2.00608
Pd 22.5425 26.0908 11.0113
Au 23.183 22.5098 16.0823
Pd 17.5262 18.6301 12.9827
Au 22.6991 14.2767 7.82054
Au 19.5927 19.6537 15.9356
Au 20.8515 18.883 18.7459
Au 24.0796 17.8224 15.3454
Au 25.5871 19.1243 17.709
Au 14.0963 15.3057 18.2305
Au 18.1568 17.7471 22.5649
Pd 23.5338 15.0945 19.8379
Au 20.4986 16.2316 22.7558
Au 21.6537 20.6299 26.1517
Au 18.8839 22.6125 26.1589
Au 17.9763 23.2712 23.627
Pd 22.9078 19.1212 22.5305
Pd 24.188 19.8974 24.8524
Au 22.5916 17.715 32.9245
Pd 17.9863 10.4644 30.9178
Au 20.7568 17.8182 30.8238
Au 25.9956 13.2341 33.9165
Pd 12.6527 16.2121 32.3685
Au 26.6933 22.3843 36.4557
Au 22.9425 23.9467 29.74
Au 25.5844 22.2134 2.6271
Au 20.7154 6.84865 6.7703
Au 27.7456 21.0618 3.63392
Au 19.8967 19.2213 10.7315
Pd 26.1829 21.9156 5.90294
Au 21.2842 18.5522 8.19329
Au 23.5383 22.3641 10.4936
Au 17.6543 21.5429 14.4195
Pd 22.1028 20.3829 11.6885
Au 24.2292 19.1959 12.9411
Au 17.9829 21.5113 17.1924
Au 22.178 27.4168 13.4495
Pd 20.3905 29.6134 13.1284
Pd 29.78 22.2903 16.9505
Au 23.8512 24.7614 17.6862
Au 16.0463 16.253 23.4129
Au 19.6471 25.6491 23.678
Au 20.2037 22.656 21.9642
Pd 11.8076 26.3121 26.4431
Au 24.1804 20.029 27.5765
Pd 18.4063 20.2057 32.8205
Au 25.1517 22.9586 28.3808
Pd 25.2862 28.0387 34.4858
Au 14.9269 20.869 37.0133
Au 21.2762 17.9013 35.4823
Au 14.9944 24.1265 28.5313
Pd 21.4746 27.2751 21.5827
Au 16.3819 15.7618 35.9286
Au 13.2378 24.7131 35.5073
Au 17.8717 23.3933 28.7117
Au 21.827 22.1585 3.85648
Pd 19.8939 22.0283 10.9984
Au 24.5282 19.8103 6.93374
Pd 23.8375 27.3976 8.96888
Au 33.8252 24.5072 10.967
Au 27.1939 23.7341 4.23643
Pd 26.8775 19.39 5.5312
Au 18.6478 27.4691 9.83161
Pd 23.6216 19.7546 9.419
Au 26.166 16.5577 2.23338
Au 15.4071 28.7131 12.4029
Au 26.8615 27.965 17.4943
Au 25.2827 24.2417 15.0896
Pd 25.8451 22.5784 17.1716
Au 19.6989 25.2838 20.8981
Au 11.3939 27.8934 9.0939
Au 21.7875 26.2901 28.5698
Pd 26.2059 26.5222 19.8178
Au 18.4432 27.9829 25.2512
Au 15.1654 24.1311 23.7046
Au 27.4837 25.6083 24.2219
Au 20.8649 28.2159 24.0785
Au 19.4097 25.3841 26.5359
Au 15.0969 22.8703 35.2734
Au 17.3978 27.2992 30.7274
Au 17.0644 25.6323 24.9577
Au 15.7801 18.3854 36.3708
Pd 19.7827 21.7777 37.7319
Au 33.6025 20.0804 28.6504
Pd 27.4518 23.3358 29.8592
Au 19.4449 32.1065 12.858
Au 26.5908 19.2314 8.63086
Au 18.3575 30.6297 6.36468
Au 27.7694 12.8563 5.34986
Au 21.7606 23.9721 9.16467
Au 24.8513 32.7193 13.2476
Pd 14.6712 22.1298 10.6098
Pd 23.4072 32.3361 15.5707
Au 33.5245 28.2959 14.6642
Au 19.4495 24.8178 10.2434
Au 12.515 19.9263 28.5762
Au 12.7539 29.1506 16.2901
Au 22.6572 31.2803 20.5423
Au 11.0443 25.5336 7.64243
Au 23.7579 21.975 18.7712
Au 18.1364 35.2937 24.7648
Au 21.562 30.7578 25.2908
Pd 18.2258 33.0128 15.0386
Au 9.2771 29.0654 26.5873
Au 26.1941 32.2496 27.3158
Pd 21.2514 24.2907 16.8441
Au 17.5215 28.5312 17.682
Pd 16.2196 27.8806 23.5755
Au 21.6897 20.6414 36.2174
Au 23.5429 26.9082 23.3318
Au 17.5763 20.0642 37.6517
Au 25.1427 17.6971 28.5956
Au 24.3362 20.8574 37.0516
Pd 22.9532 31.2183 30.4525
Pd 26.1611 25.4847 28.4524
Au 14.2799 27.6235 4.67213
Au 20.0981 29.0665 8.04598
Pd 28.7942 33.3826 21.121
Au 31.9241 14.8251 4.48168
Pd 22.4883 28.2222 3.96951
Pd 13.0041 23.4886 8.64543
Au 24.7 26.8819 15.8902
Pd 17.9983 28.4364 12.6383
Au 8.658 25.1263 6.4289
Au 17.1183 33.0274 11.3036
Au 14.3745 30.3987 14.4269
Au 15.5497 32.5574 18.3087
Au 23.1743 35.8945 20.8167
Au 13.7639 34.8696 26.3599
Au 17.4199 36.972 20.3951
Pd 11.5618 29.921 28.0034
Au 24.3122 28.2102 21.0713
Au 24.6332 34.5829 27.5459
Au 15.5129 34.6252 24.2298
Au 13.292 31.4455 29.453
Au 22.9175 34.0044 30.2433
Au 21.9953 34.9789 27.6999
Au 10.6424 34.7904 23.5268
Pd 24.8936 30.2291 28.8765
Au 24.261 26.1493 30.4171
Au 23.0829 29.0356 35.2987
Au 22.8993 24.294 32.9856
Pd 21.2408 23.6186 27.5288
Au 20.6971 25.636 34.0786
Au 20.6021 28.8109 34.6145
Au 23.5463 20.5774 1.68515
Au 19.7809 10.931 9.98802
Au 23.8895 8.98606 13.4185
Au 14.4534 2.91889 14.7119
Au 21.1605 11.6374 20.8054
Au 20.713 1.33232 19.7412
Au 25.3297 1.50267 18.471
Pd 20.177 3.23475 21.9849
Au 17.7767 1.4444 17.7849
Au 17.2522 2.45367 25.6769
Au 22.3386 8.58273 30.3956
Pd 12.1783 5.48967 27.7357
Pd 24.4714 13.2892 31.5786
Pd 23.663 10.8631 30.6434
Au 18.8173 19.0525 35.5433
Au 26.3132 15.2922 4.88392
Pd 25.0692 13.1969 6.42623
Au 18.0963 7.64297 7.07761
Au 17.8856 13.0493 2.38897
Au 20.9727 11.2429 5.0545
Pd 19.8366 13.6902 4.81062
Au 24.8092 3.84874 12.1614
Au 25.0553 12.8718 15.662
Au 22.1828 6.76411 18.1702
Au 19.8334 14.7081 16.2636
Au 15.3148 5.89085 11.0663
Au 23.8935 12.3225 20.4513
Au 22.26 4.27673 16.7108
Au 23.3583 11.4816 14.0101
Au 20.4005 3.98245 28.7769
Au 21.2 10.4525 23.3431
Au 19.7521 8.90238 29.1761
Au 20.8134 8.41117 21.408
Au 21.2527 7.88101 25.0846
Au 26.9086 3.95072 25.5657
Pd 22.7274 5.3843 25.3471
Au 21.7744 5.81793 20.9958
Pd 18.6086 6.02492 31.5883
Au 20.446 10.5154 25.905
Au 24.262 8.85076 32.6077
Au 17.2378 9.85488 28.2675
Au 17.2059 7.95358 30.3882
Pd 21.5632 15.4623 34.0977
Au 22.3039 16.4674 28.6334
Au 24.8875 5.07342 27.111
Pd 23.6029 17.1035 8.24991
Au 22.7028 18.1393 5.86725
Au 25.337 12.6938 3.77137
Au 24.4844 12.6626 9.24592
Au 22.0527 7.57363 11.3112
Au 26.8996 12.0792 8.02015
Au 23.7634 11.0121 5.46252
Au 21.5583 17.99 13.1556
Au 21.5115 17.6036 16.1651
Au 26.9227 8.65405 7.36614
Pd 19.3578 16.7523 11.4334
Pd 20.5791 14.4941 20.6199
Au 23.7112 7.67005 20.249
Au 21.0422 15.9658 18.4185
Pd 26.6691 11.4675 17.6921
Au 15.9367 15.8639 20.6119
Au 23.3133 9.82738 21.747
Au 20.4553 13.2311 23.0765
Au 20.6717 5.41994 23.6653
Au 22.0161 17.1882 20.723
Pd 24.7612 12.4156 28.7919
Au 21.4532 15.2656 25.217
Au 22.2755 11.6046 27.7694
Au 24.793 17.1717 31.2526
Pd 19.5459 16.1345 29.222
Au 30.1473 9.50019 28.7427
Pd 20.6632 14.1779 27.767
Pd 29.6147 15.7054 24.153
Au 32.3838 22.826 31.9591
Au 18.0904 17.2377 37.5271
Au 31.9833 32.0104 11.3834
Pd 25.4863 15.012 8.3673
Au 25.6092 29.6054 9.47321
Au 27.116 19.9944 13.4819
Au 20.0187 18.7281 5.56127
Pd 23.5128 22.6228 7.23108
Pd 22.5648 13.4739 5.13431
Au 18.613 23.6894 12.8487
Pd 26.3292 17.138 13.1491
Au 34.3944 19.3784 12.8569
Pd 19.3812 17.2146 14.3375
Au 23.178 22.1921 13.3803
Au 22.7172 14.5272 22.357
Au 25.5708 21.8155 8.62175
Pd 15.8296 16.4698 26.3767
Au 20.2203 25.2816 14.5677
Pd 23.4726 17.3413 18.2859
Au 25.1024 13.666 18.2692
Pd 25.7044 23.8627 19.7235
Au 16.1748 23.2753 26.1797
Au 20.8189 18.8889 28.3483
Au 19.8583 20.893 23.9783
Au 23.9853 22.7076 21.4333
Au 22.4128 15.559 31.2528
Au 23.0492 18.9652 30.0546
Au 24.3349 14.413 24.5952
Au 19.7067 21.3946 28.4264
Au 27.0602 20.8381 28.6806
Au 26.0629 15.5715 35.2862
Au 33.2713 22.7835 29.4099
Au 22.907 11.6433 2.94254
Pd 30.5159 17.6956 11.6379
Au 33.6444 14.7511 6.60265
Au 31.3862 21.0463 6.54626
Pd 27.8815 17.4198 4.06522
Pd 27.1997 25.2984 8.63104