1687
Atoms. Timestep: 21028
Au 14.4552 11.4286 5.38633
Au 11.4716 23.2744 3.00397
Au 14.949 11.7171 22.4065
Au 29.4655 8.53085 20.7812
Au 12.739 18.7421 28.6031
Au 6.01152 8.0991 23.4719
Au 9.84004 18.8989 24.6904
Pd 21.1022 2.15228 25.1146
Au 31.2897 8.98377 27.9292
Au 15.1745 17.6949 26.5893
Pd 11.6869 27.4697 28.3182
Au 7.00256 21.8153 27.4625
Au 24.1569 15.0913 15.1394
Pd 16.421 32.2883 18.5459
Au 15.0902 11.8848 19.693
Au 2.66993 17.2389 15.2239
Au 15.6367 4.95653 31.5152
Pd 25.1594 5.87787 16.1256
Pd 16.9339 19.1136 10.7333
Pd 11.3625 16.6937 13.895
Pd 10.6211 25.8065 12.8539
Pd 17.4829 29.6553 11.332
Au 8.20533 18.2814 10.2241
Pd 6.85697 31.5374 19.5419
Au 21.1485 28.9296 14.2143
Au 11.9099 23.648 32.8836
Au 17.0347 19.1499 2.38956
Au 22.2011 18.929 11.6521
Au 3.49154 15.7183 26.6261
Au 10.5462 22.871 30.6115
Au 4.42378 16.8194 13.0388
Pd 23.7221 28.473 14.4702
Au 26.1078 5.85669 22.9662
Au 18.2038 7.73488 17.9155
Au 8.69719 19.4971 5.26493
Au 27.5889 20.5204 4.11633
Au 3.91994 14.6722 11.4615
Au 26.6739 31.7769 23.0626
Au 24.5121 14.3198 6.26371
Au 11.9573 23.2035 25.3242
Au 12.7683 12.4458 11.9022
Au 7.34149 11.885 23.3559
Au 12.0112 20.4629 3.57027
Au 17.8164 17.0367 32.4712
Au 23.4099 8.04653 16.1936
Au 7.98598 12.768 31.1436
Au 26.9175 3.84007 24.9283
Au 28.1337 4.14571 22.2952
Au 14.3701 13.0256 27.8391
Au 9.62698 30.0148 10.2558
Au 26.1523 19.9751 20.6113
Au 1.28359 18.2492 20.2999
Pd 19.9987 15.3322 5.48399
Au 9.06685 26.0506 7.65091
Au 5.6907 9.95264 27.1172
Au 20.8968 31.6808 17.0449
Au 12.2119 21.2263 16.396
Au 23.428 19.7339 17.0493
Au 7.72671 30.4729 12.1683
Au 7.85566 6.69141 19.2968
Au 14.2202 19.901 31.0126
Au 6.79876 18.7674 7.22674
Au 16.1695 19.0717 5.17533
Au 15.0559 8.05759 7.59846
Au 7.58669 20.8257 9.15686
Au 13.8999 7.01846 23.6839
Pd 21.4509 15.3287 15.4931
Au 18.3937 16.9097 3.09919
Pd 11.9759 29.2877 20.2279
Au 9.856 27.4906 30.5797
Pd 20.0835 26.8829 16.9943
Au 7.62759 28.9752 24.7434
Pd 6.29101 19.1682 21.3105
Au 8.37115 27.2648 17.6056
Au 24.1414 12.5653 25.3166
Au 0.924348 20.9692 20.9357
Au 22.7186 30.4397 26.5497
Au 4.65075 12.8824 22.9294
Au 6.73027 14.3766 22.2151
Au 11.1958 16.7337 25.8393
Au 31.1424 23.1841 14.353
Au 7.38781 18.008 16.6625
Au 17.4395 28.7405 6.96216
Au 23.646 34.777 12.4784
Au 24.8091 30.2621 24.5502
Au 16.9237 10.6368 23.9608
Au 17.8174 3.87005 28.1871
Au 4.87895 20.4822 7.96478
Au 37.0157 24.2465 18.9452
Pd 31.5353 23.5044 16.9817
Au 5.60467 14.8115 25.1634
Au 14.4549 12.9467 30.577
Au 13.8045 35.7471 19.3968
Au 10.6573 5.69471 25.3277
Au 6.34652 25.5752 14.3095
Au 31.4667 32.9071 19.8614
Au 1.0049 23.5245 21.523
Au 18.796 22.6219 28.8727
Pd 10.9575 26.5298 17.1925
Au 9.3916 30.438 19.3679
Au 9.6422 16.5088 8.7183
Au 27.2445 10.514 21.3743
Au 29.0765 27.3762 24.8625
Pd 16.3915 26.3827 30.8898
Au 14.1215 22.7201 31.6019
Au 25.4881 23.4817 30.4996
Au 0.979669 17.2565 17.696
Au 33.7626 26.2787 27.4913
Au 16.8715 27.006 20.6553
Au 24.8346 8.49894 8.97633
Au 11.1275 23.3679 14.732
Pd 8.16231 12.0317 20.5806
Au 35.8521 23.6935 13.4956
Au 6.15779 21.7552 22.1762
Pd 19.2408 20.4988 11.5735
Au 24.5698 28.409 28.2292
Pd 20.4211 16.4596 13.3367
Au 23.2833 18.5372 4.72492
Pd 8.01264 25.777 11.9706
Au 35.6188 24.256 25.9931
Au 18.4603 8.25534 15.2981
Au 31.8042 14.8481 30.9062
Pd 20.8413 22.9768 30.6049
Au 13.4935 15.5642 30.6729
Au 15.3023 10.8006 7.85177
Au 2.40702 20.0941 25.4977
Au 18.3512 20.9026 35.0833
Au 31.0958 9.01239 18.5743
Au 2.90524 12.7982 15.4831
Au 10.6182 5.91656 12.3506
Au 35.251 20.2273 22.9805
Au 3.00374 18.9309 9.43969
Au 5.32338 25.8292 27.8644
Au 19.3578 10.7743 16.4404
Au 12.9501 32.6485 13.4029
Au 21.5942 21.5977 12.5528
Au 21.3442 26.3132 22.704
Au 25.7605 11.3082 9.78069
Au 3.62292 24.9236 13.1956
Au 20.1595 3.36666 16.2805
Pd 9.65914 25.7397 28.2919
Au 10.8103 2.84876 24.5286
Au 25.1552 10.2339 14.8347
Pd 22.2696 11.8433 20.7565
Pd 26.9399 13.4758 11.4104
Au 0.71525 19.2008 15.7563
Au 26.7393 25.9118 16.2475
Pd 16.019 14.0721 18.3908
Au 35.9907 21.2381 14.5322
Pd 7.46058 10.1463 16.8137
Au 18.3887 32.2941 29.1073
Pd 21.526 20.4869 4.6531
Au 8.46186 10.1054 27.54
Au 4.88804 14.7219 14.9709
Au 2.94793 20.4678 14.8373
Pd 14.7232 28.5737 11.0248
Pd 13.9198 24.4276 29.5096
Au 15.7078 8.91788 22.0139
Au 15.5435 23.4306 9.72058
Au 17.8962 33.0453 7.94149
Au 15.3536 23.1711 13.1364
Au 25.2089 15.9222 2.45887
Au 18.0468 0.670704 25.3028
Pd 17.1354 12.6688 26.7172
Pd 27.982 6.53808 15.9598
Pd 10.312 23.1554 23.27
Au 19.2809 12.7319 4.62044
Au 18.5807 13.06 36.2881
Au 7.28951 28.11 10.5067
Au 10.0002 11.3756 23.0108
Au 12.3895 16.6704 9.4277
Au 4.70192 10.1592 13.8687
Au 0.738399 20.0239 18.3326
Au 5.00158 24.1987 23.1678
Pd 35.4705 19.7848 20.3325
Au 13.0955 3.98706 28.8817
Au 2.74939 13.8173 19.3321
Pd 9.54133 30.1088 22.0289
Au 12.0698 22.5121 5.49265
Au 27.4468 10.1162 28.533
Au 14.9703 1.87529 20.9764
Au 13.4444 18.2246 4.80751
Au 20.4414 22.1379 33.5194
Au 22.2252 8.09601 29.4715
Pd 17.0242 10.1483 30.7766
Au 19.0081 27.033 32.2913
Au 17.0094 6.00157 26.7354
Au 16.5698 18.4811 21.3558
Au 19.2582 28.7245 9.09819
Au 20.7029 4.25302 31.9007
Au 13.4011 10.0093 20.7997
Au 9.49498 32.4542 11.5376
Au 21.9464 26.5691 12.4722
Pd 5.24982 16.7109 23.2476
Au 12.2723 4.5227 16.74
Au 0.995577 15.5963 20.0461
Au 3.87246 19.412 12.1391
Au 6.81856 16.5979 14.3672
Au 15.0038 12.0338 10.4053
Au 8.32715 14.3505 7.56106
Au 16.001 6.96736 19.6216
Au 16.0904 14.2211 36.2506
Au 16.2341 24.7558 26.3
Au 23.5057 9.84415 25.6025
Au 29.8807 33.3891 22.1052
Au 24.7942 10.5436 32.9152
Au 23.8001 28.6711 3.83612
Au 12.4404 28.9535 6.44048
Au 16.2976 3.30386 22.9647
Pd 5.69405 21.3318 11.0769
Pd 11.504 6.22529 22.5391
Au 1.47806 18.5333 13.2417
Au 22.085 2.86618 27.4803
Au 14.2296 14.2971 20.7551
Au 14.1983 32.3101 22.928
Pd 4.89261 13.7149 27.7785
Au 14.1284 9.32215 18.0274
Au 14.0102 25.1008 21.5916
Au 2.42354 17.0316 11.295
Pd 29.7225 24.3906 21.1123
Au 12.5125 5.37354 14.0136
Pd 28.6722 18.1476 24.3746
Au 12.9052 24.3443 12.7428
Pd 11.6779 20.7644 23.9474
Au 15.6507 21.2299 35.7572
Pd 16.8184 30.559 8.91748
Au 28.3089 20.7867 24.6372
Au 1.24182 21.7565 23.7266
Pd 18.3161 5.77121 24.2738
Au 8.85972 26.6302 14.8568
Au 23.4485 20.0179 14.1511
Au 19.5119 9.10508 9.10181
Au 5.88609 16.1246 19.6124
Au 24.5388 16.251 8.32899
Au 19.4235 12.6492 33.729
Au 33.4661 11.6564 24.9799
Au 10.4329 27.1139 5.55471
Au 9.71074 16.3734 23.4688
Au 29.4068 14.2276 15.7431
Au 6.30828 27.8333 15.8628
Pd 31.198 29.0507 13.8584
Au 17.1343 22.8785 18.8656
Au 9.49592 22.1883 28.2666
Au 13.2053 5.45671 26.6188
Au 8.74542 30.8066 26.7166
Au 37.7963 24.3992 21.5464
Au 22.5487 22.1753 35.1402
Au 19.0466 35.2888 22.6105
Au 7.95334 27.8647 22.2491
Au 17.5598 21.4036 9.37396
Au 14.0714 16.728 14.6902
Pd 29.2627 15.5566 11.1883
Pd 23.5645 25.0335 21.3445
Au 6.51169 16.4087 11.2725
Pd 20.2662 5.60196 17.7849
Au 8.17762 14.3426 24.5315
Au 30.8071 21.8791 21.3933
Au 25.0933 34.9322 19.4208
Pd 14.0543 14.0036 23.4496
Au 3.10283 22.9825 19.7279
Au 7.21583 11.1014 14.0816
Au 19.2515 19.3339 8.94018
Au 11.408 11.9444 34.4818
Pd 12.2029 18.9537 12.328
Au 12.3508 7.39991 16.2065
Pd 23.9404 20.2889 22.5339
Au 23.6098 22.2984 16.0934
Au 4.32556 16.4456 9.49681
Au 16.6042 31.4659 21.2361
Au 8.30933 17.1456 28.5523
Pd 10.6234 10.0063 25.2862
Pd 26.2892 13.433 8.16884
Au 7.67173 20.3923 17.7726
Pd 5.6412 21.3351 19.5028
Au 26.9645 3.9403 17.0869
Pd 16.8848 26.6363 5.45297
Pd 35.3435 22.1359 18.859
Pd 12.2463 26.254 10.7046
Au 3.65961 26.7061 23.6297
Pd 34.9256 17.5589 22.213
Au 10.8322 25.8121 3.26521
Pd 24.9263 18.5919 6.94728
Au 11.0676 14.1892 8.82266
Au 22.3995 16.7674 6.65587
Au 21.9036 13.5239 6.20742
Au 13.0702 32.1929 30.1013
Pd 14.1395 9.34376 9.86494
Au 11.4915 3.45474 21.812
Au 28.9109 27.5979 9.52907
Au 5.2719 28.8214 23.2808
Au 15.0999 31.6488 14.9246
Au 12.4899 12.7723 6.46012
Pd 3.15703 14.9164 24.0301
Au 25.9962 20.3562 15.9907
Au 12.3647 11.502 18.7733
Au 5.45903 12.0443 15.8827
Au 12.5266 21.1574 10.7693
Pd 16.006 29.6181 19.2107
Pd 11.163 28.1609 14.5375
Pd 11.6044 12.1025 26.8876
Pd 26.955 33.2516 18.638
Pd 22.6995 30.1176 29.3759
Au 21.2754 20.4048 31.4553
Au 5.96129 14.0821 9.81114
Au 14.4103 18.3463 19.5515
Au 15.0814 5.84039 28.7829
Au 22.8158 33.9697 15.2455
Au 11.543 19.8301 6.15516
Au 24.9445 31.0761 27.992
Au 13.8041 30.0478 31.6966
Pd 15.4489 5.10109 24.733
Au 33.8763 12.1181 22.1918
Au 22.9005 7.38927 24.0565
Au 18.1231 7.87322 31.765
Au 13.7563 31.3174 6.96281
Au 14.1042 35.5709 12.5148
Au 17.9084 26.537 2.80281
Au 34.0086 14.9128 21.6845
Pd 15.0562 25.4459 11.4833
Au 4.6455 19.6654 23.6279
Au 18.6511 22.0747 22.0144
Au 7.48905 27.0096 29.1994
Au 5.25724 21.275 29.4267
Au 22.7189 14.3647 12.8132
Au 19.0805 19.6152 32.7925
Au 24.5456 23.8347 34.4823
Au 19.2507 13.8859 9.82267
Au 18.9888 14.4665 31.3245
Au 26.1993 23.0864 15.3412
Au 38.0185 19.7427 21.2696
Au 14.193 30.2144 28.9213
Pd 26.5187 23.7755 17.9655
Au 22.5756 24.1049 1.62109
Au 5.44597 21.0974 13.8408
Pd 33.0493 18.6375 23.8271
Pd 13.6137 16.4179 24.5864
Au 5.60129 18.7916 9.91493
Au 31.7925 22.7887 11.4164
Au 19.4469 27.3782 11.419
Au 24.7138 5.80284 20.4828
Au 4.26704 25.7971 16.0842
Au 16.478 24.3234 29.034
Au 15.4138 1.64341 25.1611
Au 9.68563 24.2493 5.32382
Pd 14.2207 20.8374 5.79658
Au 16.88 9.22065 9.45636
Au 13.6246 8.38014 28.8887
Au 1.50421 20.2726 11.204
Au 33.8752 16.1717 24.4892
Au 23.4 20.3715 33.1167
Au 18.4099 27.6686 29.5704
Au 35.7549 16.3778 14.932
Au 14.2657 26.8009 6.3422
Au 16.2602 2.12211 18.5544
Au 21.7635 11.2258 12.8039
Au 14.1898 18.618 10.3327
Au 18.8341 4.46202 9.4028
Au 21.6231 5.3475 9.76825
Au 9.6479 31.7069 16.2935
Pd 15.3731 16.5411 6.20526
Au 17.8498 16.9252 29.5738
Pd 31.6932 26.2101 20.9283
Au 26.1528 8.48399 16.6442
Au 19.86 6.43958 7.98671
Pd 17.6158 22.8782 11.6165
Au 0.67952 21.1198 13.5983
Au 12.1767 27.9906 25.0233
Au 10.5059 10.2845 20.5776
Pd 23.0896 16.7879 25.444
Au 30.1849 9.20882 10.1538
Au 11.9818 31.3808 11.0716
Au 16.3045 9.4591 14.0614
Pd 16.5642 15.8005 14.1082
Au 14.9284 12.1123 14.0887
Au 16.759 10.1795 16.6302
Au 9.3132 8.9025 15.2556
Pd 7.67465 20.0936 15.0287
Pd 19.395 6.78789 10.6261
Au 29.2092 24.3414 18.4055
Au 5.83975 18.6953 28.4079
Pd 30.159 21.8024 18.7228
Au 4.27856 12.6523 13.1963
Pd 16.3483 4.91726 17.7328
Au 34.0335 16.0837 9.67792
Pd 31.0978 12.8433 25.9276
Pd 16.8036 27.6464 9.49556
Pd 14.7023 29.6732 21.6135
Au 8.70062 16.9063 6.18028
Au 28.1237 23.0752 22.8542
Au 6.71239 9.12569 12.2873
Au 20.559 6.8121 33.1543
Au 3.27101 18.2665 27.4408
Au 19.149 6.14982 13.3911
Pd 22.6404 27.5352 20.6089
Au 14.0023 25.4819 31.9978
Pd 8.628 23.9001 13.759
Au 20.6564 8.84457 13.9532
Au 28.7442 15.798 25.5322
Au 35.2665 14.0595 13.6337
Au 27.4653 9.13094 9.14316
Au 30.5202 16.7855 19.5463
Pd 27.2933 29.9723 9.05753
Au 35.5746 18.4882 25.0144
Pd 21.6401 18.1299 33.1028
Pd 16.6905 29.0066 25.8935
Au 20.3595 15.3907 29.1936
Au 26.028 19.3083 33.6179
Au 3.22051 11.6107 17.8851
Au 16.6798 21.7545 4.35316
Au 16.0411 16.6352 37.4673
Au 13.8702 23.5863 15.3993
Au 12.1927 30.4293 15.6236
Au 19.8935 24.5453 12.243
Au 24.6216 20.1845 28.1011
Au 16.2189 16.6721 34.8632
Au 24.4521 13.9985 10.3001
Au 9.30049 26.3988 24.3379
Au 16.8158 33.654 23.0689
Au 17.332 13.1784 12.9661
Au 12.6484 15.7273 4.62881
Pd 15.2025 31.1188 12.0771
Pd 21.0332 8.84459 27.0114
Au 24.6415 17.6818 15.7649
Au 23.0843 31.2381 18.6353
Au 10.3098 24.3403 34.9509
Au 10.0168 12.15 7.44913
Pd 9.12828 14.7726 29.6231
Au 12.5866 25.8682 34.2822
Pd 14.01 16.9882 21.763
Au 19.6696 17.888 11.137
Au 20.6315 16.7675 1.43666
Au 27.0165 22.9271 34.8505
Au 19.012 23.1286 26.1364
Au 3.77588 28.8015 16.1811
Au 8.19923 16.724 25.829
Au 23.6469 18.4639 35.0267
Au 29.0098 24.5207 15.6012
Au 10.8799 13.7956 19.6122
Au 21.5157 13.9927 32.6297
Au 8.32358 31.688 24.0992
Au 27.0184 17.237 31.5975
Pd 8.26625 20.6562 20.3228
Pd 29.9737 10.5364 14.8484
Au 19.8734 16.0943 8.0444
Au 23.551 21.5543 25.4857
Au 8.52245 29.441 14.8986
Pd 12.497 13.6465 32.6779
Pd 26.4064 23.0061 4.41635
Pd 9.53506 8.55823 17.9464
Pd 7.7377 23.2003 10.7214
Au 15.0398 17.6215 29.568
Pd 13.8514 9.87074 15.3557
Au 19.3021 31.3976 9.71746
Au 26.7672 15.622 9.78404
Pd 8.80772 15.6122 12.8227
Au 12.8415 4.49348 24.1475
Au 23.0572 17.4963 2.20434
Au 10.4353 20.6628 14.0117
Au 19.9496 30.7954 26.1918
Pd 9.46388 18.7314 21.8297
Au 18.1496 28.7576 4.33336
Au 20.0524 16.0058 33.5517
Au 24.3947 4.1405 27.626
Au 16.5343 33.9344 16.31
Au 20.5128 19.3818 2.12895
Au 12.0541 15.6126 16.3666
Au 8.02175 21.4411 12.744
Au 20.9645 28.3314 3.63426
Pd 16.5977 6.60121 13.9551
Au 31.4059 18.3239 15.2061
Au 12.6569 18.9938 14.9716
Pd 23.0443 10.4729 30.7232
Au 20.9999 6.52115 15.3562
Pd 9.73339 27.7489 19.8886
Pd 17.2497 12.7745 15.7863
Pd 12.7839 28.4377 17.8737
Au 14.4606 6.40763 9.68662
Pd 6.75118 21.4058 24.7731
Pd 19.2716 8.5663 29.2702
Au 13.6221 27.4518 22.6771
Au 29.13 23.9321 33.5249
Au 15.657 25.0779 19.3438
Au 1.37481 25.3207 19.4249
Au 4.13007 22.245 24.7526
Au 28.6833 19.7812 15.0995
Au 34.608 30.502 22.7382
Au 34.0196 24.3962 17.9405
Pd 20.5799 16.071 26.4066
Pd 4.02878 15.187 21.3585
Au 6.87176 16.4034 8.50476
Au 16.281 20.7197 22.7622
Au 28.258 11.8917 25.9818
Pd 17.0456 32.54 10.7255
Au 34.2993 17.4598 19.5323
Au 6.38357 14.6969 29.8762
Au 7.55535 16.7807 21.7684
Au 23.5524 16.4386 20.2586
Au 21.0763 10.6573 28.8968
Au 26.5594 29.0012 26.295
Au 4.97308 10.4356 24.3457
Au 10.3197 29.9658 24.651
Au 18.9544 24.49 23.8625
Au 18.5726 25.4278 27.6879
Pd 27.5202 32.0456 13.3951
Au 11.8798 35.3754 14.1656
Pd 15.7968 15.0214 25.7665
Pd 22.7959 8.58552 32.9557
Au 15.0503 24.4303 5.1413
Au 7.79376 12.238 9.10747
Au 9.44109 21.4503 25.6078
Au 18.0409 17.1946 5.89936
Au 26.0438 16.7846 25.0551
Au 9.16424 28.1893 12.5489
Au 18.8929 18.1075 35.0122
Au 13.8952 27.3454 29.8123
Au 26.8415 15.8722 6.9047
Au 9.96821 16.6297 18.028
Au 6.6312 18.9164 12.5636
Au 18.1035 28.0818 18.3436
Pd 30.216 10.8327 12.309
Au 23.3688 25.6793 24.2368
Au 21.7768 13.0801 30.0895
Au 21.8606 30.8082 23.8856
Au 35.7553 29.7984 25.1477
Au 13.3026 16.1356 27.7292
Au 16.1475 16.1548 20.0811
Au 20.8602 26.0054 28.9733
Pd 19.8223 27.0491 20.1854
Au 27.2612 32.2231 10.6563
Au 25.2655 32.1775 20.4199
Au 7.2755 18.6672 23.8011
Au 4.99998 23.245 17.6564
Au 23.1026 12.9668 34.6619
Au 18.7105 10.5944 6.78526
Au 24.418 11.9168 12.1316
Au 7.43412 12.789 17.802
Au 29.7245 27.1584 29.9039
Au 15.8132 7.80358 11.599
Au 4.08469 27.4825 13.8883
Pd 20.0175 22.6755 10.2819
Au 24.7592 35.8374 14.6585
Au 7.66095 13.823 15.0751
Au 10.5425 22.8372 12.0679
Au 16.0091 15.8739 23.1367
Pd 27.8744 17.9135 19.3877
Au 21.6552 32.9457 25.6683
Au 21.2981 32.2476 28.3152
Pd 17.0313 20.7245 13.1599
Au 12.3108 25.1546 5.37706
Au 9.68248 24.9541 19.0039
Pd 14.3256 26.4877 9.118
Au 28.3794 11.298 10.5112
Au 21.3314 17.1326 35.7087
Au 5.88974 30.4361 15.1675
Au 18.2098 31.8933 16.2219
Au 25.472 11.5668 30.0622
Au 12.695 31.4377 25.1044
Au 3.35918 21.6256 9.82536
Au 31.4509 30.2372 27.007
Pd 9.27042 16.2292 15.4838
Au 23.1211 25.5508 27.0881
Au 32.7285 17.7539 26.4967
Pd 23.2414 16.0591 17.5938
Pd 23.9705 21.2012 11.2604
Au 21.5127 6.58597 12.2984
Pd 19.067 19.9896 29.9034
Au 22.8487 4.00505 30.0234
Pd 9.14904 7.82907 29.1571
Pd 11.4415 6.59623 28.2752
Pd 18.407 8.29737 26.4306
Pd 15.0161 14.2633 12.3494
Au 24.5068 4.09428 18.1947
Au 8.05678 15.5734 31.9801
Au 30.2877 24.6096 31.1484
Pd 18.1299 10.6804 28.3477
Au 11.9922 15.2789 22.2137
Au 22.2314 26.771 5.38518
Pd 33.6685 24.5395 15.0582
Au 17.0022 18.028 18.1901
Pd 16.9135 12.5067 6.09917
Au 17.4753 24.8181 13.5679
Au 10.007 28.6782 7.74437
Au 11.3996 17.2519 6.79721
Au 29.2525 16.2203 5.44279
Au 17.4109 15.6331 16.8272
Au 11.9408 18.0897 23.146
Au 20.6707 9.16395 34.5695
Au 10.8863 3.88157 27.2807
Au 22.3365 9.48621 19.3439
Pd 7.07203 7.71084 27.2657
Au 18.2001 8.13178 21.1445
Pd 18.3047 15.5123 11.967
Au 21.8952 36.5057 15.235
Au 11.3313 25.7314 26.0749
Au 12.5359 11.6377 24.2072
Pd 20.5448 6.86418 25.3281
Au 28.0123 28.9664 30.9869
Au 30.5666 8.99515 23.3177
Au 32.0779 7.93016 21.1623
Pd 16.5689 14.2792 10.1522
Au 26.3737 20.3953 10.2164
Au 1.93743 13.6651 21.9787
Au 27.0645 9.86325 31.4321
Au 9.53922 12.3095 28.6119
Au 33.1396 27.8336 11.5593
Au 16.2596 9.96653 26.4206
Au 17.2688 23.3273 34.6122
Au 26.3909 3.74404 20.1636
Au 15.3055 26.9245 3.38319
Au 25.254 24.3687 2.35576
Au 22.0536 7.89684 9.02537
Au 0.472806 21.8874 16.2029
Pd 13.2406 29.9128 13.2861
Au 24.1202 13.3427 19.3263
Au 28.5985 13.7642 6.47422
Au 25.3442 23.2539 6.89154
Au 25.3568 15.7015 12.5802
Au 13.4342 8.03784 32.7292
Au 9.47502 11.6745 15.5413
Au 31.5852 29.9225 11.0764
Au 9.86645 16.4486 33.8438
Au 22.7804 6.31739 18.4558
Au 8.72002 21.019 22.9857
Pd 4.90103 16.7154 16.8404
Pd 19.5113 29.4304 16.3889
Pd 6.01494 23.495 12.8159
Pd 5.42185 17.8362 25.6736
Au 15.2018 33.4522 25.4286
Au 32.0396 11.5223 18.853
Au 17.2046 13.3937 23.9284
Au 13.7543 12.9502 35.4027
Au 36.3119 16.909 17.6864
Au 23.3718 31.818 7.78342
Au 18.8761 20.3647 27.1812
Pd 30.572 10.2851 25.6482
Pd 22.079 13.9953 27.4181
Au 15.0221 17.2601 32.3108
Au 23.2091 34.7662 24.3696
Au 27.052 11.0365 12.949
Au 5.82486 10.6463 21.448
Pd 21.8577 28.5016 10.4563
Pd 16.3763 6.16605 22.2596
Pd 5.28456 20.7111 16.64
Au 12.7961 18.9382 25.7551
Au 25.6339 10.4548 7.22701
Au 19.4056 11.5728 23.2433
Au 19.2112 22.1536 17.0694
Au 21.7993 24.7088 34.1627
Pd 19.1017 28.1745 26.909
Au 6.46216 26.3128 23.9493
Au 16.2825 24.2535 2.80279
Au 27.9859 8.87241 14.5356
Au 31.5613 16.5253 6.96685
Au 18.5329 21.3942 2.2967
Pd 19.0296 33.7616 18.1434
Au 15.6293 32.8019 28.3271
Au 31.8663 13.3427 20.9972
Au 20.8833 35.055 13.1514
Au 12.1418 18.029 31.259
Pd 24.1377 17.764 32.3466
Au 15.7723 7.66695 16.4801
Pd 14.9738 30.9935 26.5001
Au 11.1095 3.37533 18.9574
Au 6.9903 28.8526 27.396
Au 19.6787 12.8646 28.1705
Au 25.8082 24.6325 22.8137
Au 10.2419 25.8788 32.7914
Au 16.619 18.5341 7.96554
Au 29.7258 18.6641 4.43355
Au 31.0473 13.9058 7.57769
Au 9.96945 34.491 16.5271
Au 13.6186 25.681 17.5435
Au 29.6083 33.1571 14.982
Au 20.6024 26.0526 2.26197
Pd 9.47902 21.7475 16.3223
Au 11.3712 23.794 20.8695
Au 28.6998 25.4348 7.91006
Au 10.9126 27.8156 22.4501
Au 20.1066 14.6851 2.91948
Au 15.9478 6.78438 33.4646
Au 35.0453 13.7554 24.0405
Au 5.33676 26.9439 21.3281
Au 22.9468 24.4389 29.8604
Au 14.8769 28.9432 7.90034
Au 31.3159 15.4453 26.3256
Au 19.1108 30.9302 6.93267
Au 30.2657 13.9936 18.9515
Au 22.7105 18.6667 29.9084
Pd 14.2354 24.3426 24.4402
Au 6.34161 12.2038 25.9233
Pd 2.99103 17.5745 24.6398
Au 22.8133 7.57038 21.2847
Au 20.814 16.1574 20.8515
Au 8.60207 32.5636 21.3956
Au 20.7841 4.33383 23.5376
Au 19.8503 30.0007 28.7225
Au 14.991 20.8392 14.975
Au 36.1682 28.2204 23.0254
Au 8.64423 3.91919 25.6562
Pd 12.5522 16.1034 19.4459
Au 14.6298 5.44748 15.5892
Au 2.14603 24.2434 17.0172
Au 8.7848 12.7829 12.5256
Au 11.6479 34.085 18.8553
Au 22.5227 23.9458 11.5438
Au 11.9222 9.07932 22.8725
Au 7.04796 21.4244 6.54356
Au 23.5142 19.946 19.8959
Au 17.9631 20.6331 6.69957
Pd 32.2049 18.6631 18.2165
Au 6.87664 30.5462 22.0853
Au 18.12 36.0933 16.8639
Pd 34.7978 19.6229 17.7443
Au 27.9267 25.037 10.5109
Au 8.67087 24.9773 30.7203
Au 6.93647 9.32107 29.5237
Au 7.657 22.3642 30.4272
Au 25.2924 29.5628 30.5644
Au 16.8828 27.1529 12.3327
Pd 7.55419 26.3538 26.4844
Pd 33.6296 21.0703 28.5947
Pd 10.272 29.1225 17.1031
Au 19.4083 11.7112 30.8465
Pd 20.8244 8.51167 17.1905
Au 25.4035 9.28654 11.6054
Pd 10.1906 18.872 27.3985
Au 21.3835 24.9882 19.7822
Pd 29.1082 11.027 19.3682
Pd 13.342 13.9625 18.1634
Au 31.5484 20.889 8.03386
Au 13.756 25.7858 27.2155
Au 6.53046 28.2768 13.1816
Au 21.3506 20.9448 28.6012
Au 12.9345 21.7826 29.4044
Au 9.00816 23.2691 32.8202
Au 7.7579 23.8781 23.5319
Au 17.8194 26.6321 25.1829
Au 19.1686 24.4916 33.1651
Au 5.71635 23.9043 20.5198
Au 9.45935 25.5866 21.756
Au 13.8642 3.61501 19.0119
Au 27.0908 25.0407 20.2933
Au 28.947 29.8111 11.1881
Au 11.5147 14.6103 35.1257
Au 13.7638 24.1498 7.5718
Au 33.5352 20.9656 9.95075
Pd 17.82 16.7099 9.56467
Au 0.557663 22.7345 18.8318
Pd 29.019 27.1229 14.4756
Au 19.2764 22.3514 13.8411
Au 7.64988 23.0438 18.3608
Au 7.54853 29.8867 17.3933
Pd 23.1489 10.329 10.1612
Au 32.2948 13.4547 17.045
Au 13.6677 21.5115 33.9994
Pd 18.827 27.0188 22.7311
Au 29.5723 9.62099 30.0992
Au 11.422 8.2597 13.6463
Au 17.8397 24.1427 5.47779
Au 15.0041 20.6822 8.63978
Pd 30.6952 25.211 10.2291
Au 12.2393 7.94872 25.7137
Au 31.959 31.8741 15.1656
Au 15.6539 16.9155 3.58227
Pd 16.4524 36.0409 14.4108
Pd 31.5957 26.7674 23.5323
Pd 11.5863 28.6762 11.7201
Au 16.547 23.9597 31.8924
Pd 32.7275 21.2781 18.6596
Pd 26.7376 15.4612 15.9191
Au 13.6936 7.34314 21.0102
Au 12.209 27.6984 32.0424
Au 28.7882 34.5057 17.0738
Au 26.4095 22.891 11.7681
Pd 14.1658 30.8934 9.61468
Au 17.3185 14.9539 7.4607
Au 24.2006 33.4008 9.99937
Au 11.7777 17.5111 35.5722
Pd 30.0164 29.9614 29.427
Pd 16.2671 24.7586 16.7431
Au 32.328 20.2274 30.8048
Au 27.7839 20.3243 18.3112
Pd 24.5593 30.432 9.87644
Pd 22.1008 10.3573 15.5917
Au 6.41186 19.8915 31.4031
Au 4.41808 9.61989 16.503
Au 14.7547 27.8175 32.964
Au 5.85604 7.97839 20.7679
Au 22.1751 19.1055 24.2179
Au 32.9692 15.0343 12.0269
Au 21.1433 28.2982 24.8472
Au 18.9894 17.3953 15.5411
Au 27.0061 13.0658 22.8452
Au 26.8748 20.7101 7.10938
Pd 16.9332 20.5758 17.3542
Pd 19.0257 2.1458 23.3347
Au 3.75589 9.19206 22.1943
Au 27.8124 8.33594 23.0253
Au 12.2344 20.1894 35.812
Au 21.4168 5.07683 20.697
Au 12.9776 2.58974 26.1312
Au 19.5466 13.6614 17.2332
Au 16.6877 29.6811 16.3047
Au 13.2828 16.3909 11.9989
Pd 17.0152 30.0352 28.3595
Au 29.671 18.0219 10.0023
Pd 32.82 15.3131 19.0595
Au 33.7857 19.6552 15.2203
Pd 23.044 15.7805 34.037
Pd 25.3918 14.763 21.3017
Au 9.94104 7.65033 20.7767
Au 20.4663 19.1792 13.6761
Au 27.011 25.0034 13.5733
Pd 12.8469 7.37055 11.5631
Au 8.55253 7.38359 13.186
Au 13.8134 18.4683 7.5229
Au 32.7055 23.3264 8.79961
Au 20.3761 21.5768 7.50836
Au 18.7479 3.51016 13.9125
Au 20.7046 32.0656 19.8822
Au 2.87463 20.8568 28.1631
Au 22.003 14.4118 24.7157
Au 12.9682 14.2051 25.9331
Au 22.6047 2.38477 22.914
Au 27.6574 15.2088 33.3165
Au 18.4531 5.75508 19.7207
Au 28.3537 12.4043 29.875
Pd 15.9153 16.7056 11.5533
Pd 31.5644 13.7262 28.4721
Au 2.30947 27.0663 17.5658
Au 20.6142 9.13955 31.5249
Au 18.5278 15.7922 36.289
Au 20.6393 8.64757 6.70343
Au 9.84866 13.9959 17.1344
Pd 25.4202 25.476 11.3895
Au 20.522 7.52386 19.757
Au 15.9704 21.7511 1.75466
Au 9.66357 21.7167 4.14588
Au 20.8098 12.6869 15.0117
Au 18.6165 30.8037 18.7428
Au 24.8996 18.6167 12.167
Au 11.7099 11.0566 13.9321
Au 13.8735 6.30886 18.157
Pd 11.882 20.8967 32.0577
Au 10.2037 12.0718 10.3799
Pd 8.25264 23.5357 7.986
Au 18.364 33.9541 14.2991
Au 17.605 3.31442 25.4159
Au 26.1903 27.6407 14.1443
Au 15.9881 33.7071 13.0113
Pd 21.6676 17.8421 9.09148
Au 30.4864 30.4992 20.4588
Au 16.3294 4.17108 20.3034
Au 36.5833 15.3449 22.2693
Pd 18.7794 24.9085 30.4704
Au 18.2447 5.39349 32.7123
Au 12.999 32.7016 27.4631
Au 31.4836 16.6443 28.7491
Au 23.6143 35.9079 17.2061
Au 19.0915 17.9117 19.8683
Pd 20.2458 3.81145 29.2412
Pd 22.648 16.4713 28.2829
Au 20.7471 28.9758 22.0585
Au 18.3702 16.331 21.9978
Au 19.8172 22.826 19.631
Au 23.2165 26.3528 2.7827
Au 27.5027 34.7258 14.5127
Au 23.8084 11.6308 5.41821
Pd 6.41379 14.1689 12.6671
Au 29.2715 7.00093 18.2912
Pd 10.8494 15.5103 31.4925
Au 5.12653 27.6125 25.8447
Au 22.961 31.2046 15.0921
Au 16.4866 35.0885 18.8461
Au 34.5973 18.5379 10.6472
Au 30.6974 22.0711 32.2839
Au 7.67093 19.3577 26.4913
Au 23.5796 22.5583 3.61346
Pd 24.5513 9.31565 28.6494
Au 18.4402 15.7558 24.7217
Au 31.3365 25.9188 15.1831
Au 23.4115 4.99854 22.8821
Au 27.8027 19.8592 31.4845
Pd 15.7417 29.033 13.7825
Pd 12.683 16.2738 33.3635
Au 12.2253 12.657 16.0835
Pd 18.5761 14.9631 19.4592
Au 16.7772 1.46051 27.5489
Au 30.569 22.2849 24.2447
Pd 19.6036 22.2504 4.93685
Au 15.651 3.09366 29.6411
Au 26.4143 12.4107 5.57802
Au 3.25901 16.6558 19.0174
Au 22.7083 15.4725 4.28527
Au 33.9199 26.7398 19.453
Au 2.56232 11.3709 23.3862
Pd 28.641 26.4543 32.2899
Au 36.5186 15.9298 24.8572
Au 20.5943 25.8937 25.8874
Au 28.7359 9.49307 17.1408
Pd 10.0508 18.8318 16.0309
Au 33.4971 27.4012 14.1318
Au 9.80511 27.2843 10.0143
Au 28.8592 13.6221 9.30646
Pd 9.32931 29.3436 28.8344
Pd 24.1535 22.833 13.4582
Au 16.6179 35.9413 21.4595
Au 26.9993 14.7384 4.35552
Au 10.5395 9.81696 8.6515
Au 12.6776 20.6973 19.0607
Pd 31.3118 11.7612 23.3894
Au 14.9533 14.344 15.7832
Pd 20.1714 30.1444 11.9517
Au 34.131 26.4739 22.2398
Pd 27.3191 28.9774 16.2705
Au 25.4795 27.1831 21.3227
Au 28.9466 17.6477 21.7658
Au 16.4764 19.9928 25.6586
Pd 26.9898 34.0808 21.5163
Au 18.2983 30.2368 30.9982
Au 23.3908 7.43607 26.8196
Au 10.6946 31.8088 28.7017
Au 19.9417 4.30537 26.2673
Pd 23.5456 3.31573 20.6064
Au 13.827 31.5569 19.9405
Pd 30.1755 15.2242 21.9893
Au 18.5126 25.2354 18.4304
Au 24.3095 27.8697 11.8258
Pd 10.997 23.9694 7.69762
Au 15.5661 27.4609 17.5152
Pd 25.2239 19.6294 30.8192
Au 25.2888 33.1527 14.6372
Au 6.97962 25.4819 9.48719
Au 11.7348 31.3072 18.1691
Au 25.2751 21.418 18.3683
Pd 24.6045 8.20516 18.8415
Au 25.8125 10.7386 26.55
Au 25.0927 25.8239 29.166
Au 28.3222 18.0698 33.8195
Pd 24.1466 14.2288 29.4878
Au 9.19813 24.4571 16.3898
Au 29.1874 29.2196 18.3505
Au 35.0757 16.6192 27.053
Au 32.4539 10.1873 13.6751
Au 9.92448 24.6825 10.1245
Au 12.6978 23.7357 10.032
Au 18.3631 24.7107 21.1176
Au 23.187 20.1863 2.40947
Au 3.69084 12.7337 25.5165
Pd 22.4602 15.9754 31.0694
Au 12.2613 30.2862 22.6658
Pd 23.3562 28.365 23.0555
Au 10.5301 32.6403 26.074
Au 30.7575 15.4483 13.6051
Au 22.1271 32.6232 12.8551
Au 29.3426 30.9215 22.8963
Au 13.4806 25.0811 2.85621
Au 29.6211 30.5234 15.7984
Pd 22.4754 26.773 18.0859
Pd 16.7236 26.0141 33.5811
Au 14.5067 20.4368 27.5749
Au 26.0882 20.763 13.3619
Au 23.4845 16.5209 10.842
Au 19.7069 19.4441 17.6245
Au 33.1436 19.8082 12.4931
Au 33.8811 28.9422 26.9252
Au 20.1262 4.15496 11.6504
Au 32.9163 13.2301 9.65303
Au 37.0068 17.3536 20.4078
Pd 11.7055 29.9744 27.1615
Au 32.7827 19.5003 20.901
Au 21.6689 18.0463 15.9273
Pd 17.4327 18.1398 24.0016
Au 33.7459 31.9294 17.3524
Pd 26.318 29.7476 11.7982
Au 21.4252 30.0427 8.22732
Au 10.9081 13.8402 24.3148
Au 14.4645 19.4792 17.1786
Au 21.5257 11.6176 26.2369
Au 25.7339 27.1441 24.0581
Pd 21.1742 9.51523 24.3384
Pd 22.0455 33.9004 18.0792
Au 10.5507 14.7394 6.10361
Au 6.3858 11.7263 11.4554
Pd 29.8957 24.8573 23.8078
Au 25.2875 29.8351 21.7344
Pd 3.23689 20.142 19.807
Pd 12.3348 25.8139 15.0745
Au 18.8522 11.0262 13.7724
Pd 27.1758 27.6057 28.8078
Au 19.4397 33.7717 27.0523
Au 29.9399 27.7393 6.93498
Au 31.3172 33.4395 17.2513
Au 18.7282 20.8823 24.3838
Au 28.9217 13.0042 13.3242
Au 29.7171 25.2701 5.36175
Au 5.76298 22.8966 8.66256
Pd 11.8341 26.4846 7.87916
Au 35.4832 21.1153 11.8572
Au 15.0409 13.4634 7.87572
Au 13.8793 37.0444 14.7412
Au 30.2636 31.4491 12.9976
Au 12.4525 11.2228 29.4802
Au 15.2421 29.0643 5.14302
Au 9.11897 18.2783 13.4664
Pd 19.4359 19.0188 22.438
Au 28.1509 22.7062 31.3704
Au 28.8886 7.77976 27.8977
Au 5.20588 27.8837 18.378
Pd 29.8022 20.9278 30.0008
Au 16.293 19.1517 34.0438
Au 14.733 2.98542 16.4866
Au 17.4814 2.83956 16.2778
Au 6.49459 17.3393 30.6628
Au 9.04284 20.5803 31.9998
Au 12.2073 12.4781 21.5885
Au 32.8439 9.01655 25.6323
Au 9.45444 4.88698 20.5368
Au 14.0786 9.98418 12.5233
Pd 21.1873 21.2279 23.0018
Au 18.4084 8.64373 12.2554
Au 11.7527 9.91967 11.1256
Au 24.4809 35.1399 22.0321
Pd 21.7465 21.5102 18.1585
Pd 7.31298 15.4492 17.2606
Pd 7.80928 6.61686 22.095
Au 14.1895 33.3568 10.9605
Au 27.2107 8.69092 19.3346
Pd 6.04845 16.1503 27.54
Au 16.6112 0.693554 22.9669
Au 30.6813 11.6067 8.99018
Au 33.1834 22.949 25.3994
Pd 12.9515 14.2896 13.943
Au 26.5872 7.00722 10.6922
Au 21.302 33.3512 22.7597
Au 17.83 18.083 13.139
Au 3.93189 17.9892 21.298
Au 8.83284 5.618 27.6271
Au 16.1419 3.86829 14.1025
Au 16.958 13.6734 21.2278
Au 21.9696 5.64003 28.1762
Au 14.4411 11.8661 33.0247
Au 2.08756 22.7499 26.2698
Au 15.352 20.9172 19.8763
Au 12.6391 11.7664 9.01252
Au 31.4695 25.4869 7.60893
Au 18.9984 24.0032 2.90057
Pd 22.3007 29.1239 16.7908
Au 2.2513 24.194 23.8462
Pd 26.6757 12.7694 20.1195
Au 9.08801 12.1202 25.7325
Au 29.3971 17.7451 27.3062
Au 27.0438 11.253 34.0602
Au 22.6623 29.892 32.0573
Pd 20.7005 9.69783 21.6549
Au 27.0625 16.0405 27.7447
Au 29.57 18.1831 30.1042
Pd 25.1534 16.669 4.98716
Au 21.5333 14.2556 19.21
Au 32.382 10.6957 10.8332
Au 18.6593 4.40738 21.9215
Au 24.6061 23.5117 9.77739
Au 9.45107 10.2478 30.3421
Au 12.4773 28.7099 9.25802
Au 6.48113 8.43164 14.9454
Au 16.3991 9.69919 5.69823
Au 18.241 7.84905 34.4512
Pd 24.7468 10.6537 20.179
Pd 3.91888 25.0272 25.7244
Au 36.388 25.6012 23.5566
Au 15.7834 15.2454 28.4857
Pd 28.1171 11.4211 7.7793
Au 34.8459 23.3591 23.3107
Au 14.7829 18.6808 23.8349
Au 32.2017 10.4165 16.3527
Au 29.5297 13.7924 31.9791
Au 30.4765 7.40676 25.6474
Pd 1.89208 16.5553 22.3565
Au 9.10248 33.0252 18.6813
Au 25.7697 7.54981 13.8364
Au 31.6016 27.3421 26.2073
Pd 6.67246 25.2947 17.1486
Au 22.5963 14.4025 21.9217
Pd 9.58225 7.85988 26.4604
Pd 24.4219 28.9008 19.192
Au 22.7376 30.5878 21.2118
Au 20.2143 18.0881 28.264
Au 22.4174 18.9946 26.9542
Pd 27.1463 27.7674 7.32184
Au 14.1596 33.5702 17.8204
Au 1.91307 26.1921 14.9961
Au 16.3379 25.3405 7.80546
Pd 27.2523 32.0408 16.1929
Pd 14.1143 7.61091 13.9667
Au 11.4898 9.97901 16.6676
Pd 19.8877 14.1907 22.7544
Au 23.0076 17.1281 13.625
Pd 4.15743 23.0996 15.1318
Au 25.918 21.7067 23.6396
Au 39.0372 22.0675 22.0942
Au 32.0397 17.5582 11.4013
Pd 31.3826 25.3582 28.6991
Au 20.2438 18.6134 6.56469
Pd 21.5617 23.6171 24.913
Au 33.7303 15.3389 28.9401
Pd 11.6179 23.8749 28.0661
Au 17.1397 12.9934 29.4675
Au 30.8668 13.2694 11.3723
Au 23.5821 12.4107 14.6445
Au 26.5268 6.17287 18.4118
Au 11.8015 21.1216 27.0227
Au 4.87163 14.064 17.6645
Au 32.2318 16.9683 21.6373
Au 20.6999 24.5072 6.827
Au 25.8858 25.5346 8.45167
Au 22.7708 6.26055 31.466
Au 14.4029 18.5159 36.1646
Au 23.941 10.7977 17.4657
Pd 20.1266 28.5643 6.209
Au 23.8329 7.045 11.0827
Au 23.366 25.2258 7.40944
Pd 14.7947 22.2739 17.4491
Pd 30.4772 27.4114 11.9012