1687
Atoms. Timestep: 20373
Au 9.97384 6.74539 9.62087
Au 8.63442 5.95968 11.9877
Au 9.69154 3.98632 13.5022
Au 8.36573 4.73627 18.2557
Au 8.43734 4.8966 21.1341
Au 8.98319 6.82229 27.238
Au 9.57543 10.0908 30.7678
Pd 9.01336 8.90726 8.17452
Au 7.64673 8.08675 10.5486
Au 6.65328 10.1787 9.0662
Pd 7.48335 5.33271 14.3812
Au 6.46745 7.40946 12.9555
Au 7.38572 6.83329 16.7091
Pd 6.48209 8.96969 15.2226
Au 9.38306 2.73048 19.7705
Au 7.41147 6.99119 19.6361
Au 7.67339 5.95263 25.012
Pd 7.59081 7.20308 22.5377
Pd 8.16807 9.14489 28.5221
Pd 6.82367 8.22022 26.3016
Pd 8.79169 12.4473 31.9368
Pd 7.32855 11.438 29.8282
Au 8.01083 11.0352 6.77433
Pd 5.50608 9.51931 11.5169
Au 4.50274 11.5722 10.0405
Au 5.45663 11.0597 13.7877
Au 4.41483 13.1611 12.3359
Au 6.44428 9.11259 18.1083
Au 5.47986 11.239 16.613
Au 6.52536 9.29409 21.011
Au 5.52143 11.4265 19.4929
Pd 6.71603 9.50644 23.875
Au 5.63082 11.6243 22.3602
Au 5.93665 10.5004 27.6333
Au 5.77989 11.8133 25.2135
Au 6.52846 13.7452 31.0504
Au 5.13412 12.7906 28.9346
Au 5.63964 14.0032 9.88301
Au 3.41697 15.361 10.9415
Au 4.42658 18.9305 8.39559
Au 4.45884 13.3772 15.1648
Au 3.44439 15.5347 13.7302
Au 4.51047 13.5788 18.0074
Au 3.50393 15.7508 16.5457
Au 4.60029 13.789 20.8638
Au 3.59345 15.9763 19.3823
Au 4.74562 13.9908 23.7088
Au 3.71996 16.1879 22.2205
Au 4.93718 14.1855 26.5307
Au 3.89206 16.381 25.0415
Au 5.54868 17.6116 30.0433
Au 4.11242 16.5959 27.8161
Pd 6.86787 19.2106 9.61906
Au 2.54291 17.6905 12.2973
Au 5.04716 21.3807 9.50532
Au 2.62433 17.9266 15.077
Au 3.17096 20.1414 13.5557
Au 2.71055 18.1668 17.895
Au 3.27618 20.4109 16.3771
Au 2.83305 18.3984 20.7217
Au 3.38635 20.6626 19.1724
Au 2.98158 18.6086 23.5487
Au 3.52127 20.8918 21.9989
Au 3.1447 18.7954 26.3404
Au 3.73263 21.0795 24.8274
Au 3.39538 18.9412 29.032
Pd 4.03729 21.1788 27.5881
Au 7.53972 21.6864 10.7578
Pd 3.17833 19.8522 10.7645
Au 5.69018 23.8031 10.6934
Pd 3.94721 22.585 14.8289
Au 3.81551 22.2878 11.9903
Pd 4.10306 22.863 17.6442
Au 4.68626 25.0525 16.0731
Au 4.19578 23.1559 20.4482
Au 4.8744 25.3635 18.8736
Au 4.37647 23.3557 23.2633
Au 5.07056 25.615 21.679
Au 4.61957 23.4776 26.1055
Au 5.28035 25.7586 24.5136
Au 6.02174 24.3472 30.6352
Au 4.6074 25.0241 28.4363
Au 12.0556 23.5503 10.8602
Au 6.33272 26.1925 11.8625
Au 10.1927 25.6935 10.7045
Au 4.52291 24.7239 13.2525
Au 6.82372 28.69 12.8332
Au 5.53735 27.5414 17.2621
Au 5.31015 27.1538 14.4611
Pd 5.82509 27.8076 20.0506
Au 6.52989 30.0445 18.2754
Au 5.98816 28.0993 22.905
Au 6.71054 30.236 21.0366
Au 5.20174 27.2188 26.8772
Au 5.90116 29.3956 25.4124
Au 5.71933 26.9391 31.561
Au 6.33943 29.2491 30.217
Au 6.40859 20.4133 7.20421
Pd 7.73217 25.284 9.49167
Au 9.04278 24.4358 7.14493
Au 7.36823 31.1899 13.7283
Au 8.26116 27.7536 10.5295
Au 6.25502 29.6398 15.5465
Pd 9.68616 31.7606 14.7709
Au 7.5662 32.3574 19.396
Au 7.38275 32.0581 16.4495
Au 5.88046 31.0787 23.4056
Au 7.66281 32.7956 24.2612
Au 4.33452 27.6231 29.3724
Au 5.00181 29.8558 27.9179
Au 8.50553 30.7669 31.0052
Pd 7.12544 31.4279 28.6605
Au 11.2909 7.54643 7.23923
Au 10.9797 4.72384 11.1559
Pd 12.3159 5.57658 8.81056
Au 11.0887 6.23432 13.4254
Pd 12.4338 7.04375 11.0481
Au 10.6537 3.31141 17.3825
Pd 12.0123 4.05876 14.9498
Au 10.7331 3.55941 21.9983
Au 12.0724 2.54178 19.6894
Au 9.89531 4.66351 25.8563
Pd 12.1293 4.51299 24.241
Au 10.4151 7.78188 29.4366
Au 11.2854 5.55466 28.0518
Au 11.0681 11.1047 32.8641
Au 11.8643 8.75487 31.6414
Au 10.3581 9.72268 5.86281
Au 12.6818 8.41169 5.03385
Au 10.4395 11.3427 8.01808
Au 9.07574 10.4931 10.4254
Au 11.4367 9.14222 9.49941
Au 9.33609 13.4389 6.49866
Au 10.0795 8.35212 11.9053
Au 8.79542 7.62207 14.3327
Au 12.5767 8.65414 13.3007
Au 11.609 10.7909 11.7795
Au 9.70145 5.38412 15.8452
Au 9.80309 7.09298 18.0859
Au 12.1485 5.65241 17.1907
Pd 11.2043 7.83363 15.6974
Au 10.7926 4.98379 19.62
Au 9.88009 7.24068 20.9838
Pd 12.218 5.88601 21.8606
Pd 12.2979 7.3436 19.4454
Au 9.83789 5.78486 23.3983
Au 9.04212 8.19551 24.7639
Pd 11.3291 6.87585 25.6338
Au 11.3699 8.20341 23.2135
Pd 10.4698 9.1527 27.0035
Au 9.62217 11.468 28.341
Pd 11.9125 10.1223 29.2194
Au 12.0024 11.5267 26.7743
Au 11.0747 12.4953 30.5413
Au 10.1228 14.8434 31.9059
Pd 12.4762 13.4662 32.7393
Pd 12.5035 14.8885 30.3935
Au 5.7297 12.3295 7.72147
Au 6.96257 14.785 7.45652
Au 8.07147 12.6615 8.96012
Au 6.78133 11.8764 11.3982
Au 10.6054 12.9551 10.2821
Au 9.49856 15.0693 8.74804
Pd 7.82503 9.75508 12.8691
Pd 7.88764 11.3511 15.1277
Pd 10.2627 10.007 14.2047
Au 9.25819 12.1378 12.7311
Au 8.85328 9.23124 16.5973
Au 7.91478 11.5105 17.9679
Au 11.3629 9.49353 17.94
Au 10.4034 11.6173 16.4634
Au 8.88512 9.37787 19.4677
Au 7.99444 11.6845 20.8207
Au 11.432 9.63943 20.7878
Pd 10.466 11.7776 19.294
Au 9.00793 9.55696 22.3288
Au 8.12553 11.8711 23.6672
Pd 10.5284 10.5561 24.5632
Au 10.5751 11.9377 22.1362
Au 8.1697 10.5134 26.0946
Au 7.29366 12.8578 27.4066
Au 11.1357 13.8901 28.1109
Au 9.67209 12.8874 25.8762
Au 8.74969 13.8631 29.6371
Pd 7.83978 16.1924 30.9502
Au 12.2464 16.3674 32.7621
Au 10.2036 16.2563 29.515
Au 8.99953 16.2705 6.26012
Au 10.9713 17.7976 5.10491
Au 4.64245 16.1676 8.51326
Au 5.84207 15.577 12.2388
Au 8.20332 14.2848 11.2459
Au 7.12784 16.3972 9.74546
Pd 6.86709 13.4585 13.6887
Au 5.8954 15.7938 15.0341
Au 9.4007 13.7411 14.9888
Au 8.37493 15.8793 13.5288
Au 6.90694 13.6389 16.4936
Au 5.95973 15.9942 17.8561
Au 9.48053 13.9092 17.8202
Au 8.4383 16.0664 16.3272
Au 6.97758 13.8306 19.336
Au 6.06119 16.1942 20.6843
Au 9.57485 14.076 20.6241
Au 8.5338 16.2455 19.1433
Au 7.08519 14.0174 22.1723
Au 6.20898 16.3731 23.5121
Au 9.69253 14.2468 23.4511
Au 8.64602 16.4198 21.9555
Pd 7.2538 14.2047 24.9791
Pd 6.41079 16.5517 26.3057
Au 8.74083 15.2488 27.2194
Au 8.80104 16.5783 24.7673
Au 6.32258 15.2216 28.7928
Au 7.68891 19.1286 30.9084
Pd 9.97445 17.7603 31.804
Au 7.88579 17.5902 28.5889
Au 8.65997 19.1161 6.08163
Au 6.6564 17.6178 7.27269
Pd 4.89253 17.7121 10.814
Au 5.55395 20.1479 11.9937
Pd 7.34886 17.9737 12.068
Au 11.3762 21.0192 9.71454
Pd 4.94148 17.9442 13.571
Au 5.62722 20.4064 14.8257
Pd 7.4205 18.2088 14.8424
Au 8.07485 20.4121 13.2517
Au 5.0067 18.1807 16.3656
Pd 5.74804 20.6608 17.6318
Au 7.518 18.4318 17.6399
Au 8.17096 20.6677 16.0713
Au 5.10325 18.4153 19.1822
Au 5.85017 20.9188 20.4389
Au 7.63506 18.6354 20.4592
Au 8.28531 20.9091 18.8982
Au 5.23684 18.6139 22.007
Au 6.01994 21.1042 23.2611
Au 7.78104 18.8068 23.2778
Au 8.42683 21.1046 21.7089
Au 5.40447 18.7904 24.8211
Pd 6.2681 21.2282 26.0711
Au 7.96255 18.9456 26.0883
Au 8.61867 21.248 24.5429
Au 5.61865 18.9349 27.5986
Au 5.4444 20.4833 29.897
Au 9.83648 20.6331 31.7398
Au 7.76566 20.504 28.4419
Au 2.51679 17.497 9.59995
Au 10.8608 22.272 7.26484
Au 8.21835 24.1176 11.9325
Au 8.81178 26.5982 13.0417
Pd 10.0818 21.9602 12.0442
Pd 12.6745 26.0694 11.9816
Au 6.24599 22.608 13.208
Pd 6.9996 25.0256 14.4283
Au 8.79532 22.8647 14.4464
Au 10.7551 24.4314 13.1939
Au 6.38737 22.8799 16.0729
Pd 7.18918 25.3275 17.2881
Au 8.94331 23.13 17.3251
Au 9.56357 25.3112 15.6657
Au 6.5351 23.1429 18.8921
Au 7.38535 25.5739 20.1104
Pd 9.10157 23.3385 20.1469
Au 9.77949 25.5585 18.5639
Pd 6.69681 23.3567 21.6936
Au 7.56605 25.7793 22.9406
Au 9.27411 23.5041 22.9572
Au 9.96788 25.7487 21.3973
Au 6.89195 23.4951 24.5282
Pd 6.8422 24.9971 26.8511
Pd 8.45808 22.7692 26.8893
Au 9.15688 25.0411 25.3023
Pd 6.12408 22.7546 28.4044
Au 8.16462 25.8126 31.5743
Pd 7.58528 22.02 30.7043
Pd 8.33145 24.2628 29.2053
Pd 9.55703 23.2071 9.57796
Au 10.3732 23.5037 4.8759
Pd 11.5315 24.7917 8.40494
Au 8.74639 30.2255 11.5091
Pd 10.7333 28.2029 11.7758
Au 11.02 26.0225 5.97125
Au 9.22359 29.1638 13.9654
Au 10.0882 34.2264 15.6893
Au 11.332 26.9733 14.2769
Pd 13.1241 28.6776 12.9569
Au 7.81994 27.4546 15.6112
Au 8.86161 29.8992 16.7066
Au 10.4995 27.7201 16.9021
Au 11.5617 29.6383 15.1244
Au 8.08562 27.7852 18.477
Pd 9.07354 30.1757 19.6107
Au 10.7031 27.994 19.8468
Au 11.3947 30.1564 18.0649
Au 8.31649 28.0394 21.364
Au 8.1856 29.6791 23.7074
Pd 9.82549 27.3398 23.7183
Pd 10.5174 29.6586 22.2099
Pd 7.53587 27.2676 25.2962
Pd 7.46308 28.7992 27.6851
Pd 9.07084 26.5359 27.6367
Au 9.77256 28.7967 26.0821
Au 6.78704 26.5513 29.1467
Au 7.80949 28.4844 32.4232
Au 10.3309 27.3725 32.4137
Au 11.107 29.6289 30.8266
Au 7.04151 22.9012 8.30165
Au 8.86428 20.7218 8.42142
Au 10.2455 29.2999 9.35003
Pd 9.70283 26.8619 8.27689
Au 11.1578 30.865 12.5211
Au 11.6796 28.4259 7.11239
Au 11.6708 33.393 13.5466
Au 12.8122 34.9166 15.5594
Au 13.5125 31.3457 13.9115
Au 13.2642 32.4468 11.4213
Au 11.4695 34.5607 17.9553
Pd 9.8277 33.8921 20.0604
Au 11.9556 32.3096 16.074
Au 13.7409 37.0488 16.8906
Au 9.73154 32.3719 17.7716
Au 8.76032 34.5385 22.4
Au 11.2737 31.7034 20.4796
Au 10.9464 35.9547 21.459
Au 8.80039 31.8648 21.9063
Au 5.8279 31.9442 26.2304
Au 10.3917 31.4236 24.4713
Au 11.249 33.3978 22.6436
Au 8.28392 30.9924 26.198
Au 9.29627 32.9684 29.4995
Pd 9.67959 30.4178 28.5062
Au 7.96466 33.5072 27.0041
Au 8.90804 28.1318 30.0072
Pd 10.717 32.1909 31.7852
Pd 9.99195 29.9766 33.1984
Au 12.8595 34.2594 27.9917
Au 13.6385 6.36678 6.49498
Au 13.8045 7.85067 8.65266
Au 15.1901 8.61453 6.14924
Au 13.3428 4.77473 12.513
Au 14.7032 5.60763 10.1096
Au 13.4129 3.1583 17.2624
Au 14.7574 3.88056 14.8662
Pd 13.4605 3.4374 21.9113
Au 14.7929 2.44165 19.596
Au 13.5309 5.37836 26.4989
Au 14.8605 4.26816 24.1546
Au 12.7295 6.52509 30.2597
Au 14.9891 6.35882 28.7291
Au 13.3653 9.77606 33.7389
Au 14.1694 7.50061 32.4492
Au 11.7135 12.1136 5.5961
Au 14.1382 10.7615 4.73836
Au 12.8117 9.99654 7.13144
Au 12.9805 11.6316 9.36116
Au 15.3459 10.262 8.4336
Au 14.2447 12.4336 6.91143
Au 13.967 9.47002 10.8882
Pd 14.1376 11.0827 13.112
Au 14.8685 7.18899 12.364
Pd 15.5127 11.8866 10.6755
Au 13.5164 6.38685 14.781
Au 13.6753 8.07229 17.0233
Pd 14.9136 5.52135 17.1069
Au 15.0694 8.87023 14.605
Au 13.5645 4.84781 19.5306
Au 13.7567 8.25788 21.701
Pd 14.9729 5.7272 21.7889
Au 15.0872 7.21754 19.3686
Au 13.6685 6.7791 24.1039
Au 12.8472 9.20621 25.4469
Pd 15.0948 7.73752 26.341
Au 15.2342 9.20594 23.9532
Au 12.7711 7.81614 27.8633
Au 13.4478 12.5183 28.9858
Pd 14.2241 8.79522 30.0442
Pd 14.2999 10.1655 27.648
Au 13.3751 11.1267 31.4031
Au 14.5939 14.9865 33.6535
Pd 14.8513 12.0851 33.5934
Au 14.8449 13.5189 31.2651
Pd 11.3721 14.9493 5.39083
Au 13.7028 13.6019 4.4097
Pd 11.8628 13.7507 7.83949
Pd 12.0474 15.3658 10.0921
Pd 14.4281 14.0447 9.15968
Au 13.8436 15.2667 6.62036
Au 13.1519 13.2217 11.5924
Au 11.8031 12.4089 14.0277
Au 15.6752 13.4672 12.9106
Au 14.5882 15.6278 11.4028
Au 12.7534 10.28 15.5328
Pd 12.9266 11.8738 17.791
Au 15.263 10.5158 16.8581
Pd 14.314 12.6681 15.3515
Au 13.8735 9.73847 19.2832
Au 13.0127 12.0315 20.6107
Au 15.3716 10.692 21.5626
Au 15.4852 12.1244 19.1356
Au 12.9297 10.6369 23.0423
Pd 12.0858 12.9364 24.3661
Au 14.4134 11.6122 25.2494
Pd 14.5231 13.0041 22.8612
Pd 13.5476 13.9218 26.5792
Au 12.6347 16.2745 27.9581
Au 14.9599 14.9147 28.8414
Au 15.1015 16.2972 26.424
Au 14.6205 16.4373 31.275
Au 14.3786 17.9062 33.6361
Au 16.732 16.5216 34.5199
Au 16.7554 17.9999 32.1421
Au 10.6352 20.6572 4.93707
Au 13.2843 16.4763 4.14035
Au 11.4981 16.5889 7.57905
Au 9.69766 16.6809 11.063
Au 14.0164 16.8992 8.88554
Au 13.4516 18.147 6.37569
Au 10.782 14.5547 12.5357
Au 10.9422 16.1286 14.8028
Pd 13.3077 14.7919 13.8427
Pd 12.2168 16.9483 12.3539
Au 11.9729 13.9834 16.3026
Au 11.0132 16.2988 17.6235
Au 14.5011 14.2155 17.6292
Au 13.4856 16.3433 16.1248
Pd 12.0329 14.1484 19.1174
Au 11.1206 16.4595 20.4255
Pd 14.5996 14.3773 20.4511
Au 13.5738 16.5093 18.9318
Au 12.1613 14.297 21.9356
Au 11.2594 16.6233 23.2413
Au 13.6553 15.2861 24.1791
Au 13.7169 16.6681 21.7416
Au 11.2063 15.2597 25.682
Au 10.2967 17.6192 27.0429
Au 14.7593 17.8736 28.8172
Au 12.7494 17.6539 25.5081
Au 12.3342 17.8082 30.3781
Au 12.0949 19.282 32.704
Au 16.519 19.4158 34.5603
Pd 14.4687 19.3514 31.2143
Pd 11.1535 19.4252 7.37548
Au 12.908 19.3708 3.9218
Au 9.16133 17.8956 8.53824
Au 9.38319 19.4876 10.8995
Pd 11.6863 18.1957 9.86257
Pd 13.6387 19.7414 8.66581
Pd 9.8663 18.2518 13.3451
Pd 10.5848 20.6894 14.508
Au 12.3809 18.5082 14.6247
Pd 11.8676 19.7735 12.1738
Au 9.95709 18.4681 16.1165
Au 10.7282 20.9051 17.3551
Pd 12.505 18.6867 17.4394
Au 13.0903 20.921 15.8185
Au 10.0785 18.6568 18.9298
Au 10.8633 21.1073 20.1801
Au 12.644 18.8642 20.2321
Pd 13.2642 21.1104 18.6728
Au 10.2022 18.8311 21.7441
Au 11.044 21.2692 23.004
Au 12.8196 19.0208 23.043
Au 13.4593 21.2919 21.4884
Au 10.3737 18.9795 24.5597
Au 10.1638 20.5291 26.9132
Au 12.4651 19.2025 27.9047
Au 12.604 20.5879 25.3675
Pd 10.052 19.1515 29.4202
Au 11.9976 22.1496 32.5901
Au 14.2347 20.8036 33.5759
Pd 12.2225 20.6675 30.2713
Au 12.834 23.8668 6.1172
Pd 13.1056 20.9891 6.21473
Pd 13.9988 25.1787 9.69929
Pd 14.5026 23.8938 12.1634
Au 13.8228 21.3487 10.9946
Pd 13.3362 22.619 8.54309
Pd 12.5666 22.2486 13.3273
Au 13.2388 24.7607 14.4903
Au 15.0449 22.5341 14.6419
Au 16.9714 24.2082 13.5314
Au 11.3336 23.1187 15.721
Au 12.1671 25.5413 17.0018
Au 13.8682 23.3409 17.0785
Au 15.7315 25.0579 15.8765
Au 11.5137 23.3342 18.6232
Pd 12.3621 25.7378 19.8835
Pd 14.0827 23.513 19.9269
Au 14.722 25.7521 18.3781
Au 11.7074 23.5115 21.4359
Au 11.5471 25.0733 23.7513
Pd 13.2922 22.8681 23.7952
Au 13.9594 25.1289 22.2055
Au 10.8697 22.8123 25.3391
Au 10.6855 24.2898 27.694
Au 12.3957 22.0524 27.7418
Au 13.1205 24.3375 26.1531
Au 9.95289 21.9991 29.2826
Au 9.73157 23.5005 31.6003
Au 14.1515 23.6839 33.4737
Au 12.1448 23.5159 30.1157
Au 12.5819 22.2294 3.77104
Pd 13.5169 26.3931 7.25141
Au 12.1599 27.2945 9.51977
Pd 14.5614 27.7484 10.762
Pd 16.4042 25.5817 11.0255
Au 14.1311 28.9977 8.21044
Au 15.0809 26.4561 13.2956
Au 15.4045 29.2304 14.3717
Au 17.1939 27.2249 15.0616
Au 16.8895 28.2628 12.249
Au 13.7599 27.3522 15.603
Au 13.803 30.1198 16.4663
Au 15.8516 28.1034 17.3774
Au 16.5467 30.7117 16.4556
Au 13.0522 27.9675 18.2948
Au 12.9231 29.5984 20.7871
Au 14.6197 27.4103 20.6391
Pd 14.3718 32.0554 20.9567
Au 12.2075 27.3447 22.2265
Au 12.0326 28.9631 24.53
Au 13.7957 26.6405 24.5902
Au 14.4542 28.9333 23.1799
Au 11.4134 26.5799 26.0854
Au 11.2644 28.1231 28.4333
Au 12.9079 25.848 28.5041
Pd 13.6077 28.1781 26.8902
Au 10.4987 25.8105 30.0626
Au 12.5516 28.8844 33.2056
Au 11.9171 25.0401 32.4509
Au 12.7204 27.3428 30.9022
Au 8.39598 21.9439 6.02246
Au 14.5567 23.8241 2.61246
Au 13.0402 27.5155 4.83498
Au 12.6785 29.9043 10.4027
Au 14.8487 31.4328 9.29744
Au 12.3457 25.0698 3.72381
Au 15.0683 30.3781 11.7935
Pd 15.5758 35.3452 15.681
Au 16.2978 31.9194 13.8933
Au 17.1795 34.4952 13.5828
Au 14.6682 32.8353 16.072
Au 12.4488 36.6839 19.2255
Pd 14.236 34.7654 18.1181
Au 16.3465 37.5501 16.8773
Au 13.1131 32.2861 18.5074
Pd 14.1311 33.8809 23.0687
Au 12.7555 34.225 20.4844
Au 13.731 36.5498 21.5719
Pd 12.8602 31.2428 23.1172
Au 12.194 31.4273 33.9188
Au 11.9531 30.5267 26.8245
Au 12.269 35.6839 23.787
Au 10.5481 32.8844 27.087
Au 9.84199 34.2256 24.814
Au 13.5 29.6149 29.236
Au 11.433 35.5664 26.3173
Au 11.9173 31.9027 29.3156
Pd 13.3485 31.071 31.5375
Au 14.7193 30.4457 33.845
Au 11.5754 34.3037 30.3708
Pd 16.6409 9.51835 3.99278
Pd 16.0988 6.53561 7.73284
Au 17.586 7.40059 5.38
Pd 16.0879 4.70466 12.471
Au 17.4375 5.47355 10.0393
Pd 16.1292 3.08745 17.2196
Pd 17.4691 3.77099 14.8256
Pd 16.1736 3.26892 21.8219
Pd 17.4847 2.33324 19.5284
Au 16.2692 5.18605 26.4184
Au 17.5814 4.04305 24.1052
Au 16.4431 7.31662 30.941
Pd 17.722 6.14663 28.6412
Au 15.6364 8.52939 34.4895
Au 17.9876 8.3359 33.1434
Pd 16.0928 12.2791 3.60199
Au 18.44 11.0345 2.74611
Pd 16.68 11.1118 6.09374
Au 16.8483 12.7274 8.27053
Au 17.6877 8.91367 7.57397
Au 18.5878 12.7067 4.81372
Au 16.2807 8.03355 9.98125
Au 16.4718 9.7004 12.2001
Au 17.6466 7.03956 12.2961
Au 17.8791 10.5207 9.79824
Au 16.2723 6.2421 14.7218
Au 16.4801 7.92731 16.9517
Pd 17.6543 5.36941 17.0542
Au 17.8681 8.70148 14.5485
Pd 16.2841 4.73532 19.4478
Au 16.5453 8.11385 21.6514
Au 17.7048 5.52928 21.7369
Au 17.8597 7.07357 19.2979
Pd 16.4081 6.5969 24.0401
Au 16.6861 10.1565 26.1737
Au 17.8422 7.51375 26.2808
Au 18.0098 9.03683 23.8897
Pd 16.5603 8.70288 28.5445
Au 15.7805 11.1456 29.829
Au 18.0901 9.65014 30.7353
Au 18.2144 11.1251 28.3801
Au 15.7145 9.78126 32.2101
Au 16.9751 13.6297 34.4703
Au 17.2239 10.7193 34.4471
Au 17.2551 12.1281 32.1016
Au 15.6061 15.1668 3.2094
Au 17.9014 13.9154 2.37852
Au 16.2176 13.9752 5.68904
Au 16.4 15.6084 7.92565
Au 18.7888 14.3482 6.9825
Pd 18.1271 15.6048 4.47335
Au 17.0392 14.3094 10.4805
Au 17.2623 15.8639 12.7202
Au 18.0846 12.1375 12.0164
Au 19.0004 15.9314 9.20458
Au 16.6627 11.3203 14.4395
Au 16.8829 12.9053 16.7046
Au 18.0896 10.3566 16.8115
Au 18.3223 13.7221 14.2662
Au 16.7094 9.63166 19.2299
Au 16.9747 13.0603 21.4001
Pd 18.1685 10.5318 21.5061
Pd 18.3233 12.0049 19.0837
Pd 16.8433 11.6302 23.7885
Pd 15.9975 13.9712 25.078
Au 18.3336 12.5764 26.0079
Au 18.4774 14.0141 23.6418
Au 15.8738 12.5681 27.4523
Au 17.0763 16.5426 29.67
Au 17.3579 13.5439 29.7013
Au 17.4688 14.9559 27.3189
Au 16.9712 15.0906 32.1182
Pd 18.8817 18.0127 35.3886
Pd 19.1139 15.1713 35.2447
Au 19.1018 16.6664 32.9704
Au 15.2035 18.0739 2.93685
Au 17.489 16.8123 2.06595
Au 15.7979 16.8558 5.38977
Pd 15.965 18.4708 7.66173
Pd 18.3208 17.2316 6.67201
Pd 17.7157 18.4848 4.19448
Au 16.5767 17.1909 10.1717
Au 14.7711 17.1812 13.662
Au 19.1942 17.4753 11.4475
Au 18.5094 18.8084 8.92471
Au 15.8668 15.0193 15.1642
Pd 16.0535 16.5403 17.4566
Au 18.4887 15.2716 16.5334
Au 17.4078 17.3824 14.9906
Au 17.1083 14.4766 18.9825
Au 16.1847 16.7221 20.2685
Au 18.6511 15.4833 21.2615
Pd 18.6972 16.7929 18.8133
Au 16.1138 15.3671 22.696
Au 15.2263 17.7037 24.0119
Au 17.6064 16.3628 24.94
Au 17.7704 17.7903 22.5536
Pd 17.1752 17.9514 27.2482
Au 16.871 19.4474 29.6705
Pd 19.1574 18.1299 30.577
Au 19.2815 19.5398 28.137
Au 18.9011 19.5163 33.0933
Au 18.6532 20.8979 35.5269
Au 21.0086 19.4455 36.3798
Au 21.1054 20.9874 34.1197
Au 14.8469 20.9577 2.71373
Au 17.126 19.7004 1.7794
Au 15.3947 19.7276 5.18214
Au 16.1184 20.0663 9.93458
Au 17.9054 20.0973 6.46836
Au 17.3636 21.3507 3.96256
Au 14.1701 18.4874 11.1582
Pd 14.3561 20.0417 13.4578
Au 16.7372 18.7449 12.4476
Au 18.638 20.4101 11.2126
Au 14.9268 18.6933 15.9636
Au 15.625 21.1259 17.1449
Au 17.5258 18.851 17.2919
Au 16.8616 20.2501 14.7673
Au 15.066 18.8752 18.7626
Au 15.8382 21.2934 19.9978
Au 17.7187 19.0533 20.0952
Au 18.2066 21.2819 18.4529
Au 15.2849 19.0507 21.5707
Au 15.0374 20.6599 23.8453
Au 17.3432 19.3822 24.8225
Pd 17.4826 20.7098 22.3358
Au 14.8886 19.2796 26.3625
Pd 14.6237 20.7634 28.7408
Au 19.0113 20.9758 30.6297
Au 17.0223 20.8603 27.2006
Au 16.6008 20.8727 32.1313
Au 16.3671 22.3187 34.5346
Au 20.7995 22.2405 36.5113
Au 18.7767 22.3786 33.1367
Au 15.0582 22.583 5.02684
Au 14.2703 26.5349 2.58881
Pd 15.5668 21.3377 7.50037
Au 15.7759 23.0147 9.82508
Au 18.0596 21.7526 8.77997
Au 17.5313 22.9752 6.34218
Au 16.2773 21.6652 12.2752
Au 18.9045 25.1186 15.5823
Au 18.7414 21.8829 13.579
Au 18.1917 23.4267 11.1362
Au 17.6197 22.7499 15.9768
Au 17.5707 25.9862 17.8856
Pd 19.2442 23.7891 18.0941
Au 19.0762 25.5113 20.2595
Au 16.4301 23.5251 18.3933
Pd 16.335 25.166 20.659
Au 18.0617 22.9399 20.7239
Au 17.337 27.7269 20.0142
Au 15.6935 22.9276 22.2643
Au 15.5285 24.4453 24.592
Au 17.2787 22.2629 24.6094
Au 17.9967 24.5488 23.0194
Pd 14.8005 22.1438 26.1763
Pd 14.568 23.5893 28.5579
Pd 16.7643 22.2999 29.6166
Au 16.9809 23.6898 27.0108
Pd 14.3778 22.1936 31.1135
Au 16.315 25.2413 34.391
Pd 18.4988 23.8176 35.4288
Au 16.5351 23.7139 32.07
Pd 14.8431 25.4474 4.97613
Pd 16.5451 25.3959 1.62054
Au 15.3306 24.2688 7.40331
Au 15.9614 26.8763 8.49219
Au 17.8028 24.7891 8.64666
Au 17.098 24.2659 3.91378
Au 18.6292 26.2376 12.8431
Au 18.2101 29.7271 14.4024
Au 20.0851 27.5673 14.9713
Au 18.4425 27.1965 10.1819
Au 18.6669 28.486 17.1908
Au 15.9402 32.6502 18.584
Au 17.6775 30.3728 18.8913
Au 19.3453 31.1297 16.4717
Au 14.8314 30.1121 18.9097
Au 15.735 31.5898 23.3304
Au 16.0709 29.8214 21.2081
Au 17.2485 32.3492 21.012
Au 16.2049 26.742 22.991
Pd 16.0204 28.1786 25.5123
Au 17.7614 26.0001 25.4325
Pd 17.1947 30.8536 25.6444
Au 15.3203 25.9146 26.9831
Au 15.1155 27.3654 29.333
Au 16.7637 25.1179 29.4234
Pd 17.5491 27.3957 27.8731
Au 14.3289 25.0369 30.9526
Au 14.1363 26.5841 33.2828
Pd 18.7179 25.2447 33.053
Au 16.556 26.5422 31.8287
Au 15.4805 28.1025 5.95743
Au 18.4326 28.6525 5.04738
Au 16.5149 30.2879 7.21105
Pd 14.4312 33.931 13.5098
Au 18.3523 28.233 7.65036
Au 15.9855 33.0057 11.3603
Au 16.6256 29.3349 9.69793
Pd 19.045 32.3419 13.9702
Pd 21.0788 30.079 14.4142
Pd 17.8289 30.8892 11.8207
Au 17.4444 33.3539 16.1241
Pd 15.1549 37.0737 19.2287
Pd 16.9535 35.1843 18.2779
Au 18.3392 35.9584 15.9702
Au 15.553 34.657 20.7228
Au 14.1125 35.4577 25.7768
Au 15.5534 33.1979 25.5616
Pd 15.4331 36.2388 23.5548
Au 14.354 30.5199 25.4568
Au 14.2927 31.9798 27.7602
Au 17.073 32.3696 27.9435
Pd 12.6643 33.0821 25.3013
Pd 15.8764 29.6466 27.7994
Au 15.7623 31.1167 30.136
Au 17.3193 28.8245 30.2599
Pd 14.2324 33.4028 30.1552
Pd 14.9511 28.8379 31.6965
Au 12.9826 33.513 32.5195
Au 16.308 28.1306 34.0651
Au 17.192 30.3659 32.5859
Au 19.1011 8.29443 3.20004
Au 18.8228 6.30963 7.68682
Au 20.2653 7.05046 5.37052
Au 18.7995 4.46496 12.3978
Au 20.1496 5.24071 10.0191
Au 18.823 2.83332 17.1415
Au 20.179 3.49042 14.7443
Pd 18.9017 3.05751 21.7779
Pd 20.212 2.12477 19.4729
Au 19.007 4.91737 26.3994
Au 20.3329 3.79591 24.0683
Au 19.1696 6.94084 30.8926
Au 20.4703 5.77941 28.6484
Au 19.6669 9.40126 35.112
Au 20.6603 7.71523 33.1084
Au 20.4342 13.0093 2.63033
Au 21.0094 10.2297 2.93671
Pd 19.1645 9.8457 5.27172
Au 19.3344 11.4145 7.41761
Pd 20.4309 8.62983 7.60065
Au 21.216 11.902 5.11205
Pd 19.0277 7.85706 9.93338
Pd 19.2501 9.48826 12.1705
Au 20.3896 6.82807 12.2769
Au 20.6539 10.2535 9.83684
Au 19.0167 6.06913 14.6618
Pd 19.2493 7.76322 16.906
Au 20.3926 5.14104 16.9921
Au 20.6392 8.51147 14.5415
Au 19.0141 4.52868 19.3908
Au 19.3163 7.94512 21.5973
Au 20.4744 5.3131 21.6985
Au 20.6312 6.8917 19.2592
Au 19.1611 6.36775 24.013
Au 19.4864 9.90284 26.1518
Au 20.641 7.21596 26.2843
Au 20.7944 8.77706 23.8802
Au 19.3403 8.38153 28.5263
Au 19.7571 12.1411 30.5599
Au 20.8269 9.1785 30.7801
Pd 20.9697 10.711 28.4334
Pd 19.6456 10.7149 32.8564
Au 19.3566 12.2827 35.1643
Au 21.763 11.0306 35.6657
Au 21.7248 12.5931 33.4726
Au 19.9908 15.8 2.3289
Au 22.5545 14.9441 2.703
Pd 20.699 14.6865 4.81605
Au 20.9144 16.3321 7.07486
Au 21.4303 13.5479 7.36626
Au 22.8723 16.6758 4.93797
Au 19.548 13.013 9.60735
Au 19.7935 14.5909 11.8208
Au 20.8887 11.887 12.1018
Au 21.6627 15.1865 9.63838
Au 19.488 11.1274 14.4303
Pd 19.6995 12.7444 16.6899
Au 20.868 10.1811 16.7995
Pd 21.121 13.4878 14.3548
Au 19.484 9.47369 19.1785
Au 19.7947 12.8967 21.3774
Au 20.9477 10.3247 21.4838
Au 21.1039 11.8429 19.0676
Pd 19.6374 11.4047 23.7651
Au 20.011 14.9866 25.8957
Au 21.1299 12.2245 26.0632
Au 21.2997 13.7555 23.6727
Pd 19.8645 13.5495 28.2323
Au 19.4148 15.2612 30.4541
Au 21.7895 14.084 31.1236
Au 21.8504 15.5112 28.7264
Au 19.3427 13.7852 32.8618
Au 21.2292 16.6342 36.17
Pd 21.452 13.8523 35.8872
Pd 21.4618 15.3975 33.7141
Au 19.6247 18.6213 2.03493
Au 22.1748 17.6834 2.47603
Au 20.2495 17.4645 4.52033
Au 20.5034 19.1079 6.80138
Au 23.1287 18.3791 7.28356
Au 22.5168 19.4362 4.72299
Pd 21.127 17.934 9.3452
Au 21.2137 19.523 11.6236
Pd 21.8351 16.7548 11.8887
Au 23.2417 19.995 9.62127
Au 20.0002 16.106 14.0541
Au 20.0902 17.6156 16.305
Au 21.3326 15.0804 16.6106
Au 21.9678 18.271 14.1573
Au 19.9639 14.3646 18.9705
Au 20.3294 17.8931 21.1478
Pd 21.4772 15.2604 21.3071
Au 21.6005 16.7105 18.9247
Au 20.2358 16.4692 23.5307
Au 19.6331 18.1134 25.6936
Au 22.0005 16.9475 26.318
Pd 22.1988 18.4694 24.0124
Pd 19.4785 16.6841 28.0769
Au 21.3145 19.6552 31.602
Pd 21.4825 16.873 31.4285
Au 21.5348 18.2593 29.0636
Au 21.2719 18.1755 33.9662
Pd 23.2702 20.9934 35.7966
Au 23.477 18.2504 35.7
Au 23.5821 19.9115 33.3039
Au 19.3064 21.4547 1.75658
Au 21.8469 20.4681 2.25363
Au 19.9128 20.2774 4.24954
Au 20.1118 21.908 6.54333
Pd 22.7135 21.1528 7.05665
Au 22.1786 22.2475 4.54548
Au 20.6405 20.7128 9.07442
Au 20.6978 22.3614 11.3695
Pd 23.1653 21.6548 12.0826
Au 22.6673 22.7376 9.38624
Au 19.3159 18.9885 13.7285
Au 19.3896 20.4636 16.0537
Pd 21.9903 19.7527 16.3989
Pd 21.2852 21.035 13.9597
Au 20.2053 19.0574 18.5937
Au 19.8516 20.7192 20.7792
Au 22.3235 20.1584 21.7445
Au 20.8119 23.2641 20.3434
Pd 19.8307 19.5465 23.3187
Au 19.5201 20.994 25.6714
Pd 21.7278 19.6505 26.6873
Au 22.0434 21.1932 24.345
Pd 21.4219 21.0203 29.2302
Au 21.2428 22.4537 31.7422
Au 23.6943 21.616 30.8078
Au 21.7046 22.4069 26.8699
Pd 23.4684 22.6724 33.4523
Au 23.1037 23.6994 36.0156
Au 25.549 22.4389 35.1767
Au 27.7778 23.7804 34.6393
Au 16.8147 22.622 1.61185
Pd 24.0834 25.5546 5.48804
Au 19.5957 23.0863 4.00653
Pd 19.6227 24.6874 6.15769
Au 22.1463 24.0269 6.79919
Au 21.4286 27.765 3.35977
Pd 20.1829 23.5012 8.77636
Au 20.2568 24.0989 13.4676
Pd 23.0826 23.0519 14.6796
Au 22.6939 24.3726 12.4291
Au 21.0288 21.5413 18.2426
Au 20.0965 28.0431 19.6969
Au 22.0551 24.0597 17.8813
Pd 20.3995 26.2821 17.5995
Au 22.7526 22.9586 22.1728
Au 18.9181 27.1875 22.4866
Au 25.4561 23.0291 21.0668
Pd 22.7621 28.3903 19.5093
Au 19.8392 22.356 23.0553
Au 19.5317 23.8155 25.4994
Au 22.2277 24.0563 24.6481
Au 20.4884 26.4203 24.826
Au 19.1897 22.38 28.1365
Au 18.931 23.809 30.6291
Au 21.3574 23.7749 29.3592
Au 21.7736 25.2122 27.0388
Au 20.9919 23.7574 34.2243
Pd 20.6166 24.9597 36.5856
Au 25.4174 25.1472 35.5203
Pd 23.6069 24.3211 31.1579
Au 16.6038 27.1705 3.63992
Au 19.1354 26.1708 3.66528
Au 21.6939 25.104 4.10902
Au 20.2797 26.2089 8.31484
Au 22.7328 25.5873 9.94219
Au 19.0013 24.2611 1.69309
Pd 20.2537 25.1907 10.9022
Pd 22.564 29.2082 12.319
Au 21.9599 25.4386 15.3248
Au 21.5246 26.7531 12.8512
Au 21.4677 28.8204 16.9651
Au 18.7462 32.9429 18.6423
Au 20.574 30.6602 18.863
Au 22.1007 31.502 16.5178
Au 18.9678 29.9987 21.2025
Au 18.6701 31.7899 23.3465
Au 20.3447 29.4548 23.4263
Pd 20.1592 32.5321 21.0259
Au 17.4099 29.2582 23.4475
Au 18.6129 30.0229 27.9049
Pd 18.8568 28.5271 25.6067
Au 20.1051 31.0679 25.6026
Pd 19.1695 25.1377 27.9601
Au 19.099 26.5687 30.3782
Au 20.3371 27.6093 27.7063
Au 20.0009 29.1485 30.0798
Au 21.1703 25.2402 31.903
Au 18.4415 26.7436 35.3078
Pd 23.3652 25.3633 33.7179
Pd 21.2955 27.9747 32.0857
Au 17.3623 26.1054 6.09958
Au 20.9363 29.8235 5.2096
Pd 19.3674 29.8663 9.75499
Au 18.6658 33.4708 11.4736
Pd 21.1945 27.8473 10.285
Pd 20.1872 32.4173 9.39104
Au 19.6913 28.7887 12.3203
Pd 19.8511 34.921 13.7961
Au 21.7882 32.7555 14.0156
Au 21.3123 33.9716 11.5814
Au 20.1806 33.775 16.2449
Au 16.7902 37.0356 21.3139
Au 18.408 34.8476 20.8481
Au 17.9933 37.5862 18.9076
Au 17.0004 34.115 23.2417
Pd 16.9479 35.6063 25.7171
Au 19.9125 34.2822 23.2228
Au 18.3275 36.5199 23.4217
Au 18.4649 33.4042 25.6203
Au 15.6018 34.6621 28.0009
Au 18.3937 34.9121 28.0149
Au 19.787 35.8523 25.6382
Au 18.4884 31.5513 30.3892
Pd 15.5371 32.5416 32.3731
Au 20.1712 30.6273 32.4773
Au 16.9863 33.7917 30.2684
Au 20.5394 27.5768 36.832
Pd 18.6924 28.0557 32.7317
Au 20.3187 29.0453 34.6767
Au 22.3431 32.6706 32.3255
Au 21.8452 7.61175 3.1866
Au 21.5454 5.94822 7.69495
Au 23.0489 6.50605 5.41917
Au 21.5458 4.21942 12.371
Au 22.9169 4.92823 10.0362
Au 21.5748 2.59796 17.1058
Au 22.9376 3.2669 14.7346
Pd 21.6442 2.82335 21.7311
Au 22.9718 1.86931 19.4385
Au 21.7656 4.64128 26.3642
Au 23.0981 3.53652 24.0221
Pd 21.932 6.60215 30.841
Pd 23.2169 5.52698 28.5594
Pd 22.1918 8.37103 35.2314
Au 23.4462 7.26684 33.057
Au 23.0254 12.2472 2.91877
Pd 23.7011 9.63476 3.14648
Au 21.9994 9.19974 5.32977
Au 22.2276 10.8391 7.56413
Au 23.2599 8.14795 7.66827
Pd 23.9706 11.2968 5.32102
Au 21.7737 7.55529 9.94438
Au 22.038 9.22615 12.2163
Au 23.1896 6.55491 12.2909
Au 23.5387 9.82812 9.93802
Au 21.7824 5.84472 14.6281
Au 22.0247 7.57134 16.8878
Au 23.1844 4.93179 16.9783
Au 23.4508 8.26581 14.543
Au 21.8021 4.30518 19.3624
Au 22.1015 7.70416 21.5692
Au 23.2471 5.07867 21.667
Au 23.4169 6.65989 19.248
Au 21.9561 6.10373 23.9934
Au 22.2784 9.57415 26.1528
Pd 23.4144 6.93784 26.2319
Au 23.6004 8.47713 23.856
Pd 22.106 8.04567 28.4966
Au 22.4992 11.4099 30.7587
Au 23.6022 8.74536 30.7183
Au 23.7709 10.3092 28.3808
Au 22.3456 9.87888 33.1056
Pd 23.8771 12.7828 35.3442
Au 24.2743 10.0765 35.2004
Au 24.3275 11.8374 32.902
Pd 25.048 15.7986 3.53546
Au 25.5314 13.1308 3.62516
Au 23.3425 13.9518 5.13268
Au 23.5784 15.6468 7.4635
Au 24.2278 12.9689 7.60171
Au 25.8965 14.8782 5.94257
Au 22.4663 12.4892 9.83475
Au 22.6778 14.1245 12.1165
Au 23.7678 11.473 12.2187
Au 24.4531 14.6441 9.91996
Pd 22.2738 10.881 14.4789
Pd 22.4849 12.5268 16.738
Au 23.6568 9.93586 16.8046
Au 23.9723 13.115 14.4845
Pd 22.2539 9.26199 19.1694
Au 22.6097 12.6852 21.3894
Au 23.7547 10.0504 21.472
Au 23.8826 11.6148 19.0867
Au 22.4532 11.1272 23.7779
Au 22.8769 14.4068 25.9885
Pd 23.9872 11.8453 26.0253
Au 24.1694 13.3825 23.6637
Au 22.6678 12.9115 28.3786
Au 23.9328 16.0935 30.5838
Pd 24.4285 13.4703 30.4883
Au 24.5882 15.121 28.1147
Pd 23.8935 14.4421 32.9907
Pd 23.6343 15.5147 35.4534
Au 26.0806 14.198 34.6247
Au 26.1625 15.8437 32.2662
Au 24.6975 18.4775 3.31268
Pd 27.1156 19.4597 4.17202
Au 25.428 17.5556 5.79307
Au 25.6176 19.2735 8.24862
Au 26.0986 16.5877 8.34995
Pd 27.295 21.4588 6.60428
Pd 23.745 17.2783 9.79989
Au 23.8065 18.9415 12.1643
Pd 24.5798 16.2888 12.2404
Au 26.0798 18.4038 10.8451
Pd 22.8946 15.7 14.3867
Au 23.1085 17.3264 16.6817
Au 24.2148 14.7678 16.7612
Au 24.8117 17.9147 14.5225
Pd 22.7624 14.1938 19.0319
Au 23.1463 17.5506 21.3256
Pd 24.2975 14.9556 21.3274
Au 24.4457 16.5487 19.0479
Pd 23.053 15.9449 23.6267
Au 24.243 19.5721 25.6803
Au 24.7423 16.7678 25.7129
Au 24.8947 18.3897 23.3504
Au 24.0207 17.8277 28.097
Au 23.7647 18.8393 30.6814
Au 26.2482 17.4823 29.8347
Au 26.4237 19.1256 27.4619
Au 23.7186 17.1404 33.1744
Au 25.7719 19.7063 34.9886
Au 25.9265 16.9367 34.8277
Au 26.0046 18.6369 32.4322
Au 24.3507 21.1796 3.18792
Pd 23.993 23.8848 3.17485
Au 25.0127 20.2337 5.68707
Au 25.1327 21.9603 8.22443
Pd 27.6044 20.9135 9.33657
Pd 26.8093 24.3007 6.77882