1687
Atoms. Timestep: 20371
Au 8.38052 6.10921 8.50007
Au 6.66137 6.02367 10.4996
Au 7.88605 4.56499 15.1545
Au 6.964 6.55782 16.7455
Au 6.02239 6.94622 24.4565
Au 5.84137 8.44936 28.2963
Au 7.55847 8.19677 30.4375
Pd 7.89438 8.09411 6.69828
Au 6.08649 7.90245 8.68836
Au 5.75965 9.96435 6.86734
Pd 7.30957 6.34972 13.122
Au 6.57706 8.4934 11.3556
Au 6.60488 8.45399 14.7196
Pd 6.24012 10.621 12.9629
Au 6.83399 6.84473 21.967
Au 6.10943 8.70563 18.599
Au 5.39021 9.15144 25.7024
Pd 5.4705 9.32271 22.9567
Pd 5.98182 10.3609 30.2346
Pd 5.47719 11.0786 27.6182
Pd 7.78625 10.1168 32.383
Pd 6.16514 12.3009 32.2511
Au 7.49503 9.92715 4.83048
Pd 6.24437 10.5334 9.47716
Au 5.73527 12.6484 7.71004
Au 5.88254 12.7001 11.1512
Au 5.62624 14.8557 9.32069
Au 5.99388 10.5374 16.5259
Au 5.77883 12.6618 14.7218
Au 5.35615 10.7667 20.4968
Au 5.44006 12.6211 18.4476
Pd 5.11352 11.7325 24.9122
Au 4.90456 12.7228 22.3839
Au 5.48281 13.0023 29.6499
Au 5.01394 13.7583 27.0055
Au 6.38521 14.1989 34.2283
Au 5.62237 14.9476 31.7349
Au 5.7995 14.7316 5.68287
Au 5.6325 16.8746 7.35383
Au 7.51855 16.883 5.35613
Au 5.58165 14.7851 12.9298
Au 5.44117 16.95 11.1329
Au 5.38833 14.719 16.6323
Au 5.31833 16.8596 14.8464
Au 5.03936 14.7029 20.4509
Au 5.11077 16.787 18.6315
Au 4.68549 14.6281 24.4293
Au 4.83102 16.6983 22.5455
Au 5.07289 15.7424 29.1071
Au 4.63612 16.5693 26.5253
Au 5.96068 16.8357 33.7917
Au 5.24048 17.6595 31.2536
Pd 9.32771 21.1056 7.21834
Au 5.44527 18.9919 9.19983
Au 9.36748 21.2525 3.55026
Au 5.27625 18.9963 13.0464
Au 5.28255 21.0185 11.1297
Au 5.14156 18.9211 16.8495
Au 5.17981 21.0171 15.0496
Au 4.94782 18.7954 20.7008
Au 5.04645 20.9053 18.8796
Au 4.76988 18.6389 24.6589
Au 4.88796 20.733 22.8009
Au 4.71714 18.5019 28.6648
Au 4.81538 20.5163 26.7723
Au 5.59468 19.5352 33.3284
Pd 4.89547 20.3593 30.8118
Au 7.35218 21.1254 5.32716
Pd 5.49277 21.077 7.3399
Au 5.53321 23.1029 5.52214
Pd 5.25086 23.0406 13.1576
Au 5.27179 23.0593 9.23062
Pd 5.16124 22.992 17.0638
Au 5.15928 25.0201 15.1799
Au 4.98054 22.8354 20.9706
Au 5.07281 24.929 19.1337
Au 4.90115 22.5972 24.8815
Au 4.99133 24.7149 23.0525
Au 4.90788 22.3301 28.8486
Au 4.92159 24.4426 26.9289
Au 5.36689 22.3159 33.2431
Au 3.84947 22.8638 31.2191
Au 9.28054 23.1758 5.34157
Au 5.30938 25.0957 7.32081
Au 7.31425 27.0686 7.36828
Au 5.20535 25.0591 11.2543
Au 5.24061 27.0623 9.3149
Au 5.11934 26.9829 17.2579
Au 5.16764 27.0526 13.258
Pd 5.1411 26.8521 21.2399
Au 5.17066 28.9256 19.3783
Au 4.98333 26.6092 25.0957
Au 5.13276 28.7397 23.2954
Au 4.09963 24.9425 29.4462
Au 4.27341 27.0804 27.6992
Au 5.04746 24.9735 34.0057
Au 5.29026 27.2366 32.4285
Au 5.49413 27.0293 5.40698
Pd 5.42951 28.9189 7.34346
Au 7.27117 29.0963 5.36319
Au 5.26208 29.0424 11.3349
Au 7.17185 29.1245 9.37614
Au 5.18484 29.0177 15.3144
Pd 5.36027 30.9366 13.3452
Au 5.31332 30.7538 21.4579
Au 5.27434 30.8787 17.4131
Au 4.5047 29.238 25.968
Au 6.42261 31.1816 26.2554
Au 3.36188 25.3988 31.9945
Au 3.58671 27.5154 30.2988
Au 7.33642 29.0344 32.7363
Pd 5.56448 29.3608 30.6527
Au 10.1444 6.46951 6.40986
Au 10.7157 4.67345 8.42533
Pd 12.7485 7.65342 6.92534
Au 9.69489 4.84415 13.1664
Pd 11.5152 5.21826 11.0467
Au 8.63579 4.63552 17.7205
Pd 10.5767 4.57351 15.7862
Au 8.55927 6.08224 24.02
Au 9.92914 5.13135 20.072
Au 7.68749 7.76866 26.4674
Pd 10.1178 6.51031 26.2916
Au 9.53466 7.64172 28.6796
Au 12.0604 6.4457 28.3042
Au 9.45895 7.98164 32.5237
Au 11.4881 7.48433 30.8075
Au 9.69688 8.46127 4.57932
Au 12.4359 5.06203 6.34683
Au 10.4038 9.21262 7.08588
Au 8.52809 8.77453 9.33646
Au 10.956 7.22096 9.019
Au 9.83787 11.2827 5.12703
Au 9.1573 6.64985 11.1148
Au 8.71522 8.7414 12.9883
Au 11.1848 7.12149 13.0416
Au 10.7048 9.10581 11.0625
Au 9.15805 6.86278 15.0421
Au 8.31942 8.8629 16.8837
Au 10.1105 6.80034 17.627
Pd 10.6524 9.10535 15.0008
Au 7.89822 6.84775 19.3578
Au 7.47078 9.24645 21.0275
Pd 9.46662 7.43694 21.6048
Pd 9.6863 9.04754 19.3089
Au 7.94995 8.71439 23.8219
Au 7.57085 10.722 25.7412
Pd 9.90371 9.36343 26.4232
Au 9.92303 10.5905 23.8402
Pd 7.97118 9.97068 28.3486
Au 8.08147 11.9869 30.3563
Pd 11.7701 9.27548 28.6351
Au 10.1133 11.5983 28.3707
Au 9.77854 9.75132 30.502
Au 8.00981 12.0497 34.3005
Pd 9.7479 9.94672 34.3541
Pd 10.0066 11.7868 32.4415
Au 7.19745 12.4578 5.5052
Au 8.81369 14.4587 4.96271
Au 8.15751 10.8271 7.41846
Au 7.88153 12.865 9.33627
Au 10.2562 11.1442 9.15
Au 9.78108 13.1533 7.16998
Pd 8.29081 10.8229 11.1974
Pd 7.89222 12.8764 12.9784
Pd 10.3312 11.0446 13.0131
Au 9.98342 13.079 11.1238
Au 8.17536 10.781 14.8202
Au 7.64581 12.8109 16.7315
Au 10.0012 11.0352 16.9659
Au 9.88529 12.9981 14.9396
Au 7.67342 10.9013 18.751
Au 7.1466 12.847 20.6548
Au 9.3595 11.2589 21.1396
Pd 9.50171 13.0062 18.8877
Au 7.18678 11.3851 23.0476
Au 7.10087 13.5107 25.1124
Pd 9.68802 12.5251 25.8114
Au 9.23478 13.3022 23.1653
Au 7.55568 12.7655 27.7362
Au 7.61434 14.7552 29.7888
Au 10.2846 13.6844 30.4127
Au 9.71962 14.5105 27.8226
Au 8.30075 13.9757 32.3982
Pd 8.50627 15.8479 34.4494
Au 10.1947 13.6617 34.5293
Au 10.4953 15.669 32.5799
Au 9.34665 19.1093 5.18077
Au 10.4051 16.5253 4.76394
Au 7.65146 14.9091 7.43347
Au 7.46982 17.0677 9.28151
Au 9.69974 15.1395 9.23502
Au 9.38906 17.1739 7.24318
Pd 7.64333 14.9675 11.1489
Au 7.39461 17.0053 13.0397
Au 9.68499 15.0728 13.0435
Au 9.51184 17.1716 11.1723
Au 7.51364 14.8901 14.8724
Au 7.22395 16.9034 16.8497
Au 9.51156 14.9636 16.9186
Au 9.42721 17.0481 15.0203
Au 7.22916 14.8137 18.693
Au 6.95087 16.7816 20.7195
Au 9.14196 14.8988 20.8352
Au 9.21849 16.9169 18.9122
Au 6.83568 14.7216 22.6313
Au 6.69868 16.5822 24.6644
Au 9.19307 15.3187 25.2299
Au 8.95903 16.7341 22.8478
Pd 7.10897 15.5376 27.1896
Pd 7.21231 17.518 29.2999
Au 9.82971 16.5118 29.9299
Au 9.22901 17.3413 27.3296
Au 7.8375 16.6987 31.9043
Au 8.105 18.5435 34.071
Pd 10.7088 17.5623 34.5791
Au 10.0386 18.471 32.0795
Au 9.37913 25.1899 3.46814
Au 12.1462 18.5169 4.6036
Pd 7.36311 19.0644 7.1941
Au 7.33834 21.0489 9.24998
Pd 9.35705 19.165 9.2078
Au 11.2883 23.175 7.26645
Pd 7.34639 19.0712 11.1921
Au 7.2004 21.0516 13.1418
Pd 9.35392 19.1129 13.1499
Au 9.32335 21.1101 11.2275
Au 7.20738 19.0066 15.0194
Pd 7.11211 20.9756 17.031
Au 9.22811 19.0054 17.0374
Au 9.22443 21.0601 15.136
Au 7.03475 18.8892 18.8709
Au 6.94062 20.8248 20.938
Au 9.04174 18.833 20.9521
Au 9.09864 20.936 19.0851
Au 6.83021 18.6981 22.7815
Au 6.82048 20.592 24.8531
Au 8.86093 18.5857 24.8643
Au 8.96878 20.7333 22.9902
Au 6.69206 18.4539 26.7403
Pd 6.81292 20.3318 28.8316
Au 9.37091 19.343 29.442
Au 8.86188 20.4296 26.9279
Au 7.43265 19.4358 31.4228
Au 7.78738 21.2461 33.626
Au 10.3523 20.2737 34.1922
Au 9.58791 21.2574 31.5961
Au 13.2108 25.1477 3.45857
Au 11.2677 23.2133 3.47707
Au 7.36247 23.0996 7.37112
Au 7.23479 25.0924 9.31145
Pd 9.3149 23.1122 9.28546
Pd 9.30379 25.1318 7.3713
Au 7.20771 23.0727 11.2164
Pd 7.16077 25.0645 13.2291
Au 9.22125 23.0904 13.2059
Au 9.24402 25.1077 11.2552
Au 7.11893 23.0439 15.1618
Pd 7.08398 24.9889 17.2101
Au 9.12261 23.0013 17.1884
Au 9.14401 25.0539 15.2479
Au 7.01591 22.911 19.0811
Au 6.99685 24.8003 21.1608
Pd 9.04114 22.83 21.1315
Au 9.0883 24.9114 19.2638
Pd 6.93742 22.7037 23
Au 6.95091 24.5769 25.0736
Au 8.96204 22.5964 25.0591
Au 9.03308 24.7054 23.1802
Au 6.89106 22.4462 26.9568
Pd 6.92943 24.2402 29.047
Pd 8.9122 22.2585 29.0438
Au 8.9779 24.4243 27.1892
Pd 6.92598 22.1508 30.9971
Au 7.53874 24.0374 33.6339
Pd 10.0122 22.9903 33.7484
Pd 9.00814 23.9977 31.2627
Pd 7.35765 25.0842 5.37743
Au 13.4347 27.1992 1.92724
Pd 9.31616 27.1327 5.46735
Au 9.23388 29.1309 7.41493
Pd 9.22955 27.153 9.35049
Au 11.2207 31.0003 3.66259
Au 7.18 27.0773 11.2955
Au 7.18222 29.0486 13.3032
Au 9.18748 27.099 13.2674
Pd 9.17302 29.1853 11.283
Au 7.09353 27.0088 15.272
Au 7.11235 28.9705 17.3599
Au 9.11754 26.9905 17.3273
Au 9.12257 29.0811 15.3584
Au 7.05385 26.9055 19.2872
Pd 7.14617 28.8205 21.3896
Au 9.08677 26.8325 21.3272
Au 9.09729 28.9672 19.4082
Au 7.03988 26.7108 23.2396
Au 7.07319 28.5386 25.3569
Pd 9.04071 26.5404 25.2933
Pd 9.07886 28.7284 23.4383
Pd 6.96301 26.3641 27.1957
Pd 6.16739 26.7994 29.7832
Pd 9.0063 26.1427 29.3453
Au 9.06543 28.2788 27.4699
Au 5.94593 24.6188 31.5125
Au 7.13486 26.7197 34.3716
Au 9.68243 25.7928 33.8572
Au 10.0579 28.276 31.9937
Au 7.45426 27.0919 3.56133
Au 11.2522 27.1989 3.41295
Au 11.2642 29.1366 5.48719
Pd 7.28217 30.9142 7.38904
Au 9.1545 31.2337 9.32724
Au 9.2081 31.0459 5.44479
Au 7.14339 31.1291 11.298
Au 7.22729 32.9187 13.3862
Au 9.13327 31.0938 13.3586
Au 9.15121 33.0361 11.4153
Au 7.09433 31.0815 15.3974
Pd 7.21846 32.8209 17.4761
Au 9.13619 31.036 17.4254
Au 9.08357 33.0485 15.4104
Au 7.10074 30.9667 19.4634
Au 7.26227 32.6737 21.6205
Au 9.11334 30.8249 21.5628
Au 9.08179 32.9154 19.5499
Au 7.06404 30.7376 23.5643
Au 3.83598 29.609 28.5778
Au 9.10138 30.535 25.5853
Au 9.08779 32.638 23.7579
Au 6.35808 28.9427 28.0156
Au 7.53453 31.2399 30.9997
Pd 8.18472 28.7002 30.0914
Au 5.7671 31.4929 28.8926
Au 7.97792 26.4716 31.8501
Pd 9.4054 30.7575 32.8902
Pd 9.26567 28.4242 34.4686
Au 9.61172 32.9586 31.2209
Au 14.512 7.8635 4.75906
Au 13.2751 5.51696 8.88243
Au 15.0059 5.93309 6.66052
Au 12.4645 4.65985 13.6899
Au 14.2557 4.90685 11.4856
Au 11.913 4.78223 18.214
Au 13.7387 4.57926 16.2104
Pd 10.8148 5.34781 22.6132
Au 12.797 4.776 20.8131
Au 12.2658 5.7103 24.8074
Au 14.2851 5.09758 23.0594
Au 13.9558 6.41916 30.2944
Au 14.2033 5.81544 26.6415
Au 11.4552 7.85492 34.3366
Au 13.5878 7.39742 32.7763
Au 12.1238 9.63419 4.90806
Au 14.0204 9.82639 3.1427
Au 11.9769 6.95581 4.45238
Au 12.6003 9.54457 8.90262
Au 14.8836 7.83382 8.67619
Au 14.3501 9.92036 6.6144
Au 13.0849 7.47033 10.8841
Pd 12.7419 9.41317 12.9317
Au 14.0208 6.87122 13.4627
Pd 14.6907 9.75447 10.7454
Au 12.1396 6.72216 15.6378
Au 11.8242 8.95795 17.5014
Pd 13.6778 6.89766 17.9384
Au 13.7464 8.94089 15.4583
Au 11.7222 7.13294 19.8895
Au 11.3759 9.44685 21.5689
Pd 12.7211 7.20803 22.4222
Au 13.5723 9.20997 19.6928
Au 10.618 7.86579 24.0382
Au 12.0179 11.0995 26.4077
Pd 14.449 7.48948 24.5154
Au 12.6727 9.74047 23.9955
Au 12.3772 8.10803 26.2166
Au 12.0198 11.4346 30.477
Pd 13.7667 9.18916 30.6966
Pd 13.9469 11.0074 28.5287
Au 11.7634 9.64288 32.5296
Au 11.9522 11.53 34.5773
Pd 13.6975 9.4379 34.5497
Au 14.0217 11.2701 32.6391
Pd 11.4957 13.5601 5.05981
Au 13.7837 11.9234 4.71489
Pd 12.0388 11.5135 6.92808
Pd 11.9351 13.4072 8.98321
Pd 14.2229 11.7752 8.74012
Au 13.6949 13.7273 6.78584
Au 12.3568 11.3985 10.9538
Au 12.0324 13.2524 13.0085
Au 14.391 11.6142 12.8567
Au 14.0376 13.6223 10.841
Au 12.2561 11.286 14.9994
Pd 11.7515 13.1562 17.044
Au 13.6099 11.1142 17.4012
Pd 13.9652 13.3898 15.0211
Au 11.5422 11.179 19.2956
Au 11.33 13.2599 21.1988
Au 13.3653 11.4601 21.5284
Au 13.4651 13.2361 19.2832
Au 11.9542 12.4365 23.8669
Pd 11.7984 14.3284 25.8674
Au 14.0894 12.8374 26.3054
Pd 13.9705 14.2453 23.8247
Pd 12.2321 13.2929 28.3819
Au 12.4326 15.3796 30.5072
Au 14.1769 13.1242 30.5192
Au 14.3179 14.9779 28.3826
Au 12.2212 13.4335 32.6069
Au 12.4448 15.397 34.6177
Au 14.2246 13.2476 34.6249
Au 14.4078 15.1751 32.6349
Au 14.9248 17.6773 4.32992
Au 13.1366 15.8032 4.91442
Au 11.5195 15.4711 7.05222
Au 11.5168 17.3474 9.16363
Au 13.665 15.6684 8.86179
Au 13.9287 18.3472 6.70931
Au 11.7758 15.29 11.0725
Au 11.5606 17.2148 13.1017
Pd 13.7903 15.3869 13.025
Pd 13.5711 17.3983 11.0929
Au 11.7059 15.1424 15.0386
Au 11.4284 17.0784 17.0632
Au 13.5973 15.2185 17.1181
Au 13.5567 17.2523 15.1205
Pd 11.4081 15.0657 19.0261
Au 11.198 16.923 21.0337
Pd 13.3366 15.1969 21.2535
Au 13.3709 17.1088 19.1427
Au 11.3067 15.1729 23.2547
Au 11.2764 17.1481 25.3164
Au 13.8923 16.1308 25.8987
Au 13.3316 17.0725 23.3062
Au 11.8549 16.2859 27.9203
Au 11.9897 18.305 30.0364
Au 14.5319 17.1086 30.5246
Au 13.9636 18.13 27.9784
Au 12.655 17.4117 32.6504
Au 12.927 19.288 34.6565
Au 14.6914 17.1508 34.5864
Pd 14.7839 19.1381 32.5925
Pd 11.3616 21.1636 5.28234
Au 13.9861 20.4742 4.62015
Au 11.3413 19.1788 7.15655
Au 11.3079 21.1894 9.22134
Pd 13.3759 19.3906 9.20731
Pd 13.301 21.225 7.22035
Pd 11.4048 19.2444 11.1969
Pd 11.3209 21.1603 13.196
Au 13.4431 19.2913 13.1429
Pd 13.331 21.2882 11.2225
Au 11.3798 19.141 15.1306
Au 11.255 21.0503 17.1921
Pd 13.3744 19.1459 17.1837
Au 13.3389 21.1765 15.2177
Au 11.2481 18.9947 19.0973
Au 11.1347 20.9006 21.1362
Au 13.2314 18.9981 21.1791
Pd 13.2506 21.045 19.2407
Au 11.0871 18.7905 23.0472
Au 11.0373 20.651 25.0566
Au 13.3392 19.0495 25.3679
Au 13.1882 20.8727 23.2034
Au 11.3546 19.174 27.4199
Au 11.4986 21.1658 29.5541
Au 14.1116 20.1272 30.055
Au 13.4362 21.0591 27.4525
Pd 12.2121 20.2281 32.1391
Au 12.5637 22.0055 34.2501
Au 15.1344 21.0194 34.6016
Pd 14.3529 22.003 32.1241
Au 15.7557 24.7663 2.85605
Pd 13.2946 23.1924 5.32276
Pd 11.2902 25.2051 5.41153
Pd 11.2628 25.1757 9.30272
Au 13.258 23.2577 9.23462
Pd 13.266 25.2371 7.31371
Pd 11.2856 23.1572 11.2454
Au 11.2286 25.135 13.2528
Au 13.2875 23.1941 13.245
Au 13.2479 25.2391 11.2527
Au 11.2331 23.0912 15.2313
Au 11.1667 25.03 17.3155
Au 13.2456 23.091 17.311
Au 13.2255 25.1457 15.3256
Au 11.1645 22.964 19.2609
Pd 11.1167 24.864 21.2926
Pd 13.18 22.9436 21.2783
Au 13.1767 25.0194 19.3815
Au 11.0892 22.7732 23.1613
Au 11.0696 24.5999 25.249
Pd 13.1489 22.7014 25.2147
Au 13.145 24.8131 23.3172
Au 11.0076 22.449 27.1203
Au 11.0299 24.1881 29.2577
Au 13.6306 22.9807 29.5849
Au 13.1749 24.4535 27.2834
Au 11.7552 23.0214 31.715
Au 12.1871 24.7628 33.9453
Au 14.7665 23.7642 34.2208
Au 13.8756 24.8295 31.7473
Au 13.2774 29.2533 3.55662
Pd 13.2608 27.2192 5.36465
Au 11.2841 27.1684 7.42225
Pd 11.2118 29.2557 9.31311
Pd 13.2715 27.2702 9.29824
Au 13.2986 29.301 7.33923
Au 11.2186 27.2037 11.2524
Au 11.1609 29.1631 13.3292
Au 13.206 27.2004 13.3253
Au 13.2054 29.2305 11.3365
Au 11.1678 27.1038 15.3351
Au 11.1335 29.0775 17.4058
Au 13.1547 27.1196 17.4006
Au 13.1267 29.2166 15.3874
Au 11.1303 26.9778 19.3833
Au 11.0937 28.8991 21.4699
Au 13.1225 26.9444 21.4185
Pd 13.0646 29.0987 19.4479
Au 11.077 26.7476 23.3718
Au 11.0811 28.5685 25.506
Au 13.1349 26.6583 25.4256
Au 13.0713 28.8407 23.5239
Au 11.0845 26.3605 27.3785
Au 11.1399 28.0813 29.5129
Au 13.2139 26.1905 29.385
Pd 13.1332 28.4424 27.5466
Au 11.1741 25.8394 31.4984
Au 11.8183 27.6274 33.9387
Au 14.3332 26.5491 33.9436
Au 13.2762 27.8612 31.6063
Au 9.30864 29.0923 3.5206
Au 13.2272 31.2827 5.45937
Au 11.1575 31.3047 7.34191
Au 11.1974 33.1228 9.44349
Au 13.2148 31.2356 9.38936
Au 13.2074 33.1084 7.52831
Au 11.1572 31.1908 11.3529
Pd 11.0691 33.1018 13.3783
Au 13.1212 31.2787 13.3769
Au 13.1301 33.2163 11.3844
Au 11.1052 31.1894 15.3946
Au 11.0007 33.1047 17.457
Pd 12.9979 31.1982 17.4288
Au 12.999 33.2027 15.4028
Au 11.0638 31.0552 19.4804
Pd 10.9412 32.8379 21.6504
Au 12.9497 31.0299 21.5365
Au 12.8603 33.1084 19.5144
Pd 11.0715 30.7671 23.6159
Au 8.46657 33.0057 26.5523
Au 11.1432 30.3806 27.6757
Au 11.0826 32.5881 25.8164
Au 8.38593 30.868 28.2915
Au 7.8018 33.2877 29.2253
Au 13.1893 30.1327 29.8661
Au 10.4018 32.9078 28.5799
Au 10.271 30.5822 30.2973
Pd 11.9695 30.2036 32.392
Au 13.9933 29.3316 33.8736
Au 12.2465 32.518 30.6792
Pd 16.7866 6.4521 4.6134
Pd 15.9991 5.28205 9.21685
Au 17.7356 5.61167 6.98121
Pd 15.4197 4.61049 14.0428
Au 17.0665 4.68111 11.7831
Pd 14.7192 4.53381 18.8228
Pd 16.4895 4.34564 16.6814
Pd 16.1426 4.65398 21.1665
Pd 17.7947 4.27588 19.1011
Au 16.3359 5.28543 24.8447
Au 18.3672 4.83778 22.8742
Au 16.1117 6.24459 32.0148
Pd 15.9787 5.94577 28.6274
Au 17.2442 7.05566 34.242
Au 18.137 5.79017 30.1883
Pd 16.1847 10.2716 4.55213
Au 18.3511 8.60508 4.27826
Pd 16.6406 8.26632 6.5177
Au 16.4956 10.1395 8.51872
Au 17.6659 7.46084 8.9938
Au 18.3065 10.5204 6.25781
Au 15.8819 7.12479 11.2384
Au 15.6498 9.0872 13.2804
Au 17.165 6.74066 13.6881
Au 17.5281 9.35308 11.0564
Au 15.4534 6.73973 15.8709
Au 15.5091 9.03075 17.6514
Pd 16.4754 6.51937 18.4685
Au 17.3059 8.94818 15.5439
Pd 14.6198 6.75072 20.5303
Au 14.6871 9.14087 22.2319
Au 18.0851 6.51136 20.6989
Au 16.5102 8.74584 20.2428
Pd 16.35 6.95813 22.6655
Au 14.5682 9.88611 26.0621
Au 16.4303 7.58316 26.4293
Au 16.6075 9.34268 24.2096
Pd 14.3048 8.15071 28.1929
Au 15.9734 10.898 30.6457
Au 16.3115 8.14595 30.1497
Au 16.556 9.90802 28.0506
Au 15.8364 9.00719 32.8628
Au 16.0202 11.1534 34.6196
Au 18.1146 9.40985 34.7666
Au 18.0661 10.8848 32.5912
Au 15.4613 14.1117 4.58463
Au 17.8168 12.6265 4.39345
Au 16.0211 12.1841 6.50901
Au 15.9346 14.0213 8.63768
Au 18.2134 12.3745 8.36172
Pd 17.7434 14.432 6.45565
Au 16.3523 11.9832 10.6349
Au 16.0981 13.765 12.8287
Au 17.376 11.2362 13.1756
Au 18.1184 14.1698 10.5361
Au 15.5106 11.0923 15.3477
Au 15.4985 13.1959 17.3257
Au 17.4283 11.142 17.4292
Au 17.3696 13.2009 15.2635
Au 15.498 11.2656 19.5321
Au 15.362 13.3959 21.4544
Pd 16.7145 11.0826 22.0184
Pd 17.4202 13.2654 19.38
Pd 14.7583 11.5988 23.8822
Pd 16.1498 14.5376 26.2658
Au 16.7091 11.6963 25.9041
Au 16.8246 13.4599 23.7613
Au 16.0822 12.7366 28.4531
Au 16.313 14.8775 30.4948
Au 18.1559 12.7033 30.4829
Au 18.1734 14.5215 28.3459
Au 16.217 13.0154 32.6211
Pd 16.492 15.0024 34.4903
Pd 18.3263 12.8639 34.4618
Au 18.4152 14.7732 32.4954
Au 16.6192 19.6738 4.17747
Au 17.2238 16.2024 4.44147
Au 15.3747 15.9304 6.63549
Pd 15.4846 17.7251 8.88539
Pd 17.7208 16.2223 8.57439
Pd 16.9818 18.0392 6.47213
Au 15.809 15.7662 10.8227
Au 15.6265 17.4463 13.0642
Au 17.9359 15.8079 12.8161
Au 17.6982 17.8157 10.8597
Au 15.7353 15.4468 15.0746
Pd 15.4936 17.2721 17.1872
Au 17.418 15.2542 17.2874
Au 17.6111 17.4648 15.1211
Au 15.4328 15.2452 19.277
Au 15.3293 17.1864 21.2944
Au 17.3286 15.3661 21.4077
Pd 17.3818 17.2638 19.2976
Au 15.9525 16.0767 23.8575
Au 15.9353 18.0211 25.9379
Au 18.1418 16.2943 26.1637
Au 17.899 17.9274 23.8142
Pd 16.3518 16.689 28.352
Au 16.5939 18.8181 30.4173
Pd 18.417 16.6194 30.3601
Au 18.3491 18.4122 28.1859
Au 16.5839 16.928 32.5415
Au 16.9171 18.9093 34.4668
Au 18.7282 16.7897 34.3798
Au 18.7305 18.691 32.349
Au 15.8362 22.5428 4.51038
Au 18.3906 21.5908 4.06695
Au 15.8877 20.5576 6.61595
Au 15.3032 21.4241 9.20776
Au 17.3453 19.694 8.83183
Au 17.8837 22.5738 6.56218
Au 15.4472 19.435 11.1203
Pd 15.3844 21.3204 13.2138
Au 17.5442 19.513 13.1431
Au 17.393 21.4693 11.156
Au 15.4551 19.3036 15.1964
Au 15.3266 21.194 17.291
Au 17.4222 19.2938 17.2684
Au 17.4054 21.3532 15.3005
Au 15.3349 19.1533 19.2351
Au 15.2584 21.0499 21.2924
Au 17.3525 19.2012 21.345
Au 17.3283 21.2152 19.3394
Au 15.3581 19.0683 23.3569
Au 15.3828 21.0171 25.3771
Au 17.9484 19.9012 25.8368
Pd 17.3931 21.077 23.359
Au 16.027 20.0293 27.9574
Pd 16.1991 21.9625 29.9767
Au 18.6149 20.5484 30.1955
Au 18.077 21.8819 27.8244
Au 16.8896 20.8827 32.4615
Au 17.3384 22.7955 34.4228
Au 19.1334 20.7152 34.2188
Au 18.9789 22.6156 32.1823
Au 15.2753 25.2664 5.39664
Au 17.8476 24.5309 4.55547
Pd 15.2923 23.2924 7.2319
Au 15.2798 25.3388 9.23116
Au 17.355 23.5109 9.21777
Au 17.3913 25.4114 7.22766
Au 15.313 23.3426 11.2516
Au 15.276 25.2601 13.3317
Au 17.3592 23.3432 13.3119
Au 17.3535 25.3678 11.3463
Au 15.3101 23.2218 15.3131
Au 15.2254 25.1669 17.3945
Pd 17.3024 23.2619 17.3928
Au 17.2799 25.2849 15.4219
Au 15.2424 23.1113 19.3629
Pd 15.1884 25.0297 21.3998
Au 17.2781 23.1277 21.3982
Au 17.208 25.2196 19.4407
Au 15.2374 22.9233 23.3096
Au 15.2344 24.7545 25.3448
Au 17.4532 22.9899 25.337
Au 17.2549 25.0633 23.403
Pd 15.5145 22.9306 27.4429
Pd 15.68 24.8387 29.4964
Pd 18.2541 23.8055 29.7725
Au 17.5475 24.9251 27.3221
Pd 16.4657 23.8197 31.9905
Au 16.9233 25.5545 34.0733
Pd 19.4736 24.5753 34.0484
Au 18.5421 25.6755 31.7476
Pd 15.3599 27.3129 3.65636
Pd 17.425 27.4016 5.36768
Au 15.3079 27.3507 7.24966
Au 15.2799 29.3176 9.34546
Au 17.3298 27.3401 9.35824
Au 17.3576 29.3335 7.3948
Au 15.2662 27.2811 11.3323
Au 15.1755 29.2938 13.4012
Au 17.2586 27.3162 13.4395
Au 17.2576 29.3264 11.4692
Au 15.1836 27.2372 15.4021
Au 15.041 29.2667 17.4383
Au 17.1551 27.3066 17.4496
Au 17.0913 29.3637 15.4587
Au 15.1201 27.146 19.4388
Au 15.0143 29.1124 21.4765
Au 17.1115 27.2075 21.4607
Au 16.9963 29.3408 19.45
Au 15.1473 26.944 23.4534
Pd 15.0805 28.796 25.5354
Au 17.2368 26.9888 25.4114
Pd 16.9848 29.1656 23.4875
Au 15.2538 26.5855 27.358
Au 15.2426 28.2851 29.4236
Au 17.6744 26.8241 29.3174
Pd 17.1859 28.8155 27.4337
Au 15.9262 26.6875 31.6449
Au 16.473 28.2916 33.878
Pd 19.0035 27.3747 33.784
Au 18.0261 28.5673 31.4853
Au 15.3955 29.4448 5.35685
Au 17.5752 31.4089 5.67699
Au 15.3308 31.3958 7.34783
Pd 15.1927 33.1771 9.45406
Au 17.2832 31.3046 9.47254
Au 17.3721 33.2482 7.64552
Au 15.1891 31.3114 11.4212
Pd 15.0643 33.229 13.3792
Pd 17.0928 31.3657 13.4484
Pd 17.162 33.2319 11.401
Au 15.0302 31.3395 15.4179
Pd 14.837 33.211 17.4411
Pd 16.8969 31.3889 17.4564
Au 16.8789 33.3619 15.421
Au 14.8763 31.2568 19.4546
Au 12.8668 32.848 23.6815
Au 14.8823 31.014 23.566
Pd 14.7071 33.0837 21.5532
Au 13.0436 30.6725 25.6681
Au 13.0686 32.4014 27.9537
Au 16.7991 31.0125 25.5715
Pd 14.7485 32.7545 25.7246
Pd 15.0085 30.5223 27.6974
Au 15.0433 32.1995 29.9497
Au 17.1651 30.4951 29.5653
Pd 16.614 32.7036 27.7316
Pd 15.5321 29.6631 31.6777
Au 14.1656 31.7356 32.4308
Au 18.3165 30.2607 33.5803
Au 17.0886 31.9535 31.851
Au 19.4473 6.07818 4.79657
Au 18.7347 4.92739 9.51442
Au 20.4507 5.2715 7.21731
Au 18.1631 4.24723 14.4154
Au 19.8045 4.35304 12.1052
Au 19.3744 3.96599 16.9392
Au 20.9757 3.91226 14.7093
Pd 20.1009 4.47804 20.7595
Pd 21.646 4.10675 18.5886
Au 19.8589 4.82166 25.2454
Au 21.4184 4.43888 23.2345
Au 18.0302 5.37679 27.0227
Au 20.5102 5.42841 28.2942
Au 18.939 5.66992 32.7578
Au 20.3256 4.46894 30.7585
Au 19.9728 10.9135 4.06932
Au 21.0634 8.25413 4.43552
Pd 19.3797 7.87719 6.74474
Au 19.3289 9.71483 8.787
Pd 20.4542 7.14206 9.22801
Au 21.0826 10.1172 6.46899
Pd 18.8203 6.88099 11.4784
Pd 18.995 8.97056 13.391
Au 19.9658 6.37203 14.0494
Au 20.6295 9.1142 11.1966
Au 18.2567 6.36306 16.3017
Pd 18.3251 8.55729 18.1448
Au 21.3081 6.01157 16.6225
Au 20.0818 8.49711 15.9674
Au 19.7094 6.18342 18.6745
Au 18.5047 8.89219 22.1628
Au 20.4397 6.75095 22.1326
Au 20.395 8.60892 19.9519
Au 18.4548 7.08764 24.4328
Au 18.5998 9.45681 26.1384
Au 20.4778 7.26586 26.2808
Au 20.4936 9.06821 24.05
Au 18.5367 7.68429 28.339
Au 18.6549 9.91626 29.9666
Au 20.5277 7.3346 30.4216
Pd 20.6418 9.47524 28.0581
Pd 18.3523 8.14762 31.9996
Au 20.2989 10.8917 34.4903
Au 20.3497 7.93555 33.8494
Au 20.6809 9.8838 31.936
Au 19.6043 14.9014 4.35535
Au 21.7082 13.2008 4.00278
Pd 19.992 12.7788 6.14412
Au 19.9558 14.5862 8.3067
Au 21.0295 11.9322 8.63712
Au 21.7734 15.0073 6.14409
Au 19.2203 11.5402 10.9278
Au 19.1915 13.3508 13.1016
Au 20.9298 11.1827 13.1432
Au 20.9768 13.6739 10.8849
Au 19.235 11.1169 15.297
Pd 19.3397 13.186 17.2666
Au 20.2926 10.6304 17.8663
Pd 21.1522 13.206 15.1203
Au 18.5052 10.7704 19.9707
Au 18.7404 13.0764 21.7969
Au 20.5272 10.9356 21.8662
Au 20.5296 12.8612 19.7427
Pd 18.6756 11.2638 23.9557
Au 18.8292 13.5447 25.7415
Au 20.6854 11.3348 25.8731
Au 20.7792 13.203 23.7054
Pd 18.7389 11.7281 27.867
Au 20.2927 14.498 30.3113
Au 20.8144 11.7404 29.793
Au 20.8826 13.5816 27.6688
Au 20.2995 12.6714 32.4536
Au 20.56 14.7041 34.3169
Pd 22.4168 12.6926 34.2321
Pd 22.4319 14.468 32.1867
Au 18.9532 18.2913 4.24158
Au 21.4494 17.192 4.42609
Au 19.4743 16.7064 6.42491
Au 19.6513 18.3069 8.71144
Au 21.8656 16.6612 8.44561
Au 21.4407 18.845 6.61208
Pd 19.9556 16.2211 10.5911
Au 19.7695 17.8113 12.912
Pd 21.0618 15.4169 13.0858
Au 21.8279 18.1931 10.8124
Au 19.2936 15.2575 15.2134
Au 19.3644 17.2858 17.2929
Au 21.2406 15.1786 17.2092
Au 21.2285 17.3311 15.2247
Au 19.3153 15.2577 19.341
Au 19.3248 17.3304 21.4401
Pd 20.8786 15.0868 21.6093
Au 21.2603 17.1939 19.366
Au 18.9814 15.3944 23.6184
Au 20.0892 18.0675 25.9276
Au 21.0095 15.4386 25.5424
Pd 21.1716 17.3052 23.4721
Pd 20.2265 16.285 28.1508
Au 20.4831 18.379 30.0991
Pd 22.3717 16.2711 30.0461
Au 22.21 18.0661 27.8196
Au 20.5697 16.55 32.2633
Pd 20.9203 18.6242 34.0458
Au 22.7298 16.5369 34.0323
Au 22.6788 18.3784 31.9384
Au 20.3428 23.3049 4.35451
Au 20.8129 20.3205 4.30521
Au 18.8538 19.9792 6.39616
Au 19.27 21.6472 8.88448
Pd 21.6483 20.3246 9.01286
Au 20.9328 21.8077 6.64513
Au 19.6348 19.8865 11.039
Au 19.5111 21.5638 13.3217
Pd 21.6225 19.7666 13.1949
Au 21.6006 21.8589 11.3752
Au 19.5266 19.4944 15.2267
Au 19.3884 21.3419 17.3756
Pd 21.3194 19.3087 17.3577
Pd 21.4527 21.4811 15.453
Au 19.3663 19.2644 19.3514
Au 19.3913 21.2363 21.384
Au 21.379 19.2644 21.4023
Au 21.3776 21.2909 19.4106
Pd 19.818 19.7004 23.6455
Au 19.9687 21.6776 25.5832
Pd 22.0206 19.7908 25.5307
Au 21.7526 21.4823 23.3022
Pd 20.3199 20.1652 27.8849
Au 20.6128 22.274 29.8104
Au 22.5245 20.1739 29.6873
Au 22.3221 21.8563 27.3509
Pd 20.8307 20.4897 32.0013
Au 21.2886 22.5477 33.8386
Au 23.075 20.4955 33.6981
Au 22.901 22.2978 31.5489
Au 19.8932 26.2968 4.86556
Pd 22.3236 24.9992 4.76729
Au 19.9428 24.3964 6.83142
Pd 19.4097 25.5228 9.37527
Au 21.2552 23.5325 9.16423
Au 21.9476 26.1944 7.16741
Pd 19.3547 23.4321 11.2671
Au 19.3473 25.3348 13.4665
Pd 21.4816 23.5399 13.6083
Au 21.335 25.3404 11.5067
Au 19.387 23.3928 15.466
Au 19.255 25.3722 17.4982
Au 21.3432 23.4083 17.5439
Pd 21.3307 25.4427 15.6477
Au 19.3002 23.3044 19.4323
Au 19.2418 25.3052 21.4433
Au 21.4232 23.3757 21.3286
Pd 21.2017 25.494 19.5268
Au 19.4496 23.1985 23.3354
Au 19.5117 25.2121 25.2574
Au 21.9397 23.5406 25.17
Au 21.4495 25.4554 23.249
Au 20.1094 23.6949 27.4796
Au 20.2854 25.6689 29.3794
Au 22.6001 23.9637 29.1552
Au 22.0268 25.6373 26.9994
Au 21.0077 24.3629 31.7362
Pd 21.5217 26.3584 33.516
Au 23.3902 24.4487 33.2272
Pd 22.9355 26.0272 30.9103
Au 19.4446 29.4168 5.49317
Au 21.8546 28.108 5.22228
Au 19.4707 27.4331 7.37283
Au 19.3644 29.2831 9.60091
Au 21.4731 27.4578 9.66169
Au 21.5584 29.401 7.65666
Pd 19.3305 27.3468 11.5511
Pd 19.1478 29.411 13.5544
Au 21.3387 27.3196 13.6209
Au 21.2602 29.3744 11.7941
Au 19.2343 27.3823 15.491
Au 19.059 29.4742 17.469
Au 21.1611 27.5555 17.5833
Au 21.1762 29.4897 15.5107
Au 19.1252 27.4284 19.488
Au 18.949 29.4776 21.4696
Au 21.0875 27.5934 21.4738
Pd 20.9592 29.6814 19.5006
Au 19.1576 27.3239 23.4233
Au 19.0257 29.2693 25.4157
Pd 21.3931 27.5283 25.1442
Au 20.9182 29.6926 23.4594
Pd 19.534 27.1522 27.1857
Au 19.5931 29.0614 29.1523
Au 22.1416 27.703 28.8607
Au 21.3164 29.5903 27.0246
Au 20.614 27.5728 31.3015
Au 20.899 29.2126 33.3715
Pd 23.2355 28.1532 32.4584
Pd 22.1533 29.8345 30.6895
Au 19.5842 33.2041 6.14949
Au 21.4802 31.2925 5.74215
Pd 19.4614 31.1666 7.71151
Au 19.3681 33.2489 9.47175
Pd 21.4086 31.2468 9.81703
Pd 21.6487 32.97 7.84538
Au 19.1954 31.4023 11.539
Pd 18.9556 33.3833 13.4726
Au 20.9926 31.565 13.667
Au 21.1245 33.4259 11.5651
Au 18.9227 31.5029 15.5133
Au 16.6607 33.3462 19.4607
Au 18.8259 31.5464 19.4243
Au 18.6959 33.4981 17.4616
Au 16.8015 31.3334 21.4706
Pd 16.5535 33.1452 23.5609
Au 20.7054 31.7792 21.4375
Au 18.5338 33.4981 21.4067
Au 18.6919 31.4802 23.4827
Au 18.3233 33.3252 25.5822
Au 20.655 31.8007 25.4022
Au 20.3175 33.7644 23.4028
Au 18.8583 31.1853 27.4281
Pd 18.6261 32.8195 29.5893
Au 21.1347 31.6725 28.9739
Au 20.312 33.7296 27.3789
Au 20.5689 31.7457 33.7893
Pd 19.6691 30.8073 31.2766
Au 19.4256 33.3511 32.0734
Au 20.9669 34.2395 30.0036
Au 22.1644 5.71633 5.02048
Au 21.4355 4.56794 9.78126
Au 23.177 4.90299 7.46351
Au 22.5542 4.01651 12.4505
Au 24.1109 4.2882 10.197
Au 23.2092 3.92017 16.4058
Au 24.7517 3.9531 14.163
Pd 22.937 4.34417 21.141
Au 24.4127 4.29867 18.9454
Au 22.428 5.13758 26.2199
Au 24.1396 4.76319 23.8517
Pd 22.6866 5.5899 30.2101
Pd 24.4025 5.31476 28.1263
Pd 21.5806 5.6426 32.7299
Au 24.3796 5.88488 32.3939
Au 22.7134 10.5476 4.23128
Pd 23.78 7.91707 4.72263
Au 22.1502 7.52783 6.94559
Au 22.2711 9.43153 8.94968
Au 23.2079 6.77712 9.45713
Pd 23.9139 9.79911 6.66588
Au 21.6174 6.49772 11.7791
Au 21.7795 8.54184 13.7362
Au 24.4225 6.14133 12.4182
Au 23.4717 8.68739 11.4784
Au 22.8844 6.01677 14.5279
Au 22.2204 8.53269 17.6738
Au 24.1101 6.4032 17.2238
Au 23.9895 8.53232 15.3506
Au 22.3419 6.48987 19.6341
Au 22.3448 8.83322 21.8838
Au 24.047 6.71332 21.8176
Au 24.1062 8.71302 19.657
Au 22.3209 6.88471 24.1105
Au 22.5356 9.17212 25.9327
Pd 24.3465 7.07407 25.948
Au 24.4365 8.84558 23.7746
Pd 22.5027 7.35047 28.1204
Au 22.6556 9.59055 29.8744
Au 24.5182 7.54838 29.9954
Au 24.6031 9.24573 27.7546
Au 22.6844 7.94973 32.0721
Pd 22.7524 9.9454 33.8662
Au 22.8109 6.98435 34.6211
Au 24.8004 9.77021 31.8009
Pd 23.5885 15.5309 4.17053
Au 24.4196 12.873 4.15259
Au 22.8074 12.3471 6.37474
Au 22.7981 14.0416 8.68583
Au 24.2302 11.6742 8.74272
Au 24.6284 14.4998 6.48018
Au 22.5846 11.3813 10.9505
Au 22.8935 13.3528 12.9534
Au 23.7231 10.6699 13.5022
Au 24.6542 13.5403 10.8089
Pd 22.0125 10.6052 15.6963
Pd 22.2539 12.7083 17.6485
Au 24.0832 10.6908 17.5154
Au 23.9692 12.7036 15.4985
Pd 22.3271 10.7664 19.7243
Au 22.6335 12.9329 21.6142
Au 24.4383 10.7744 21.6105
Au 24.4373 12.7263 19.4848
Au 22.5995 11.0191 23.7663
Au 22.8518 13.22 25.5823
Pd 24.7235 10.9933 25.5879
Au 24.7401 12.8946 23.482
Au 22.7702 11.3865 27.7166
Au 22.9845 13.5676 29.5691
Pd 24.8369 11.4362 29.603
Au 24.9349 13.2137 27.4434
Pd 22.8833 11.7413 31.7161
Pd 24.5487 14.4907 33.96
Au 24.9588 11.8004 33.6307
Au 25.0579 13.5424 31.4526
Au 23.3381 19.2968 4.58667
Pd 25.5893 17.83 4.47101
Au 23.7318 17.1907 6.35715
Au 23.859 18.6449 8.76889
Au 24.7242 15.9927 8.88336
Pd 25.7981 19.1887 6.7993
Pd 22.8792 15.662 10.9959
Au 23.0619 17.4253 13.1958
Pd 24.9052 15.3231 12.9409
Au 24.9205 17.5895 11.206
Pd 23.0547 15.2347 15.0474
Au 23.1379 17.1496 17.2534
Au 24.4192 14.7072 17.4401
Au 25.0335 17.1229 15.1592
Pd 22.6675 14.8439 19.5552
Au 23.0497 16.9867 21.4425
Pd 24.8074 14.789 21.3971
Au 24.9003 16.7332 19.3664
Pd 22.9325 15.0933 23.4801
Au 23.2348 17.3132 25.3092
Au 25.0307 15.068 25.3266
Au 25.1682 16.9293 23.2448
Au 23.0721 15.4352 27.4302
Au 24.4033 18.0481 29.6452
Au 25.1869 15.3935 29.2642
Au 25.3697 17.29 27.1084
Au 24.5425 16.2676 31.9002
Au 24.8977 18.4316 33.6583
Au 26.6822 16.328 33.6682
Au 26.6399 18.0921 31.4662
Au 22.8585 22.1847 4.60936
Pd 25.3537 21.1298 4.93266
Au 23.5115 20.7326 6.93931
Au 23.6618 22.1865 9.38337
Pd 25.8497 20.5362 9.22563
Pd 25.5389 22.5353 7.29692