1687
Atoms. Timestep: 20776
Au 14.0927 16.3954 5.33135
Au 1.47632 16.4715 15.6895
Au 10.4624 13.7618 5.92725
Au 10.4585 10.3926 26.3557
Au 11.7434 7.8097 17.8517
Au 18.6536 8.72439 23.6002
Au 6.21023 24.08 27.4437
Pd 16.4207 17.123 10.2976
Au 15.8923 6.37251 9.53198
Au 26.0214 3.54295 16.0497
Pd 13.2466 19.066 31.0189
Au 21.066 29.0476 29.2077
Au 7.50304 9.51084 10.5619
Pd 26.9201 13.939 22.9649
Au 12.7759 17.6717 7.64774
Au 4.19173 16.2308 12.2254
Au 20.107 15.9328 33.473
Pd 23.1531 12.1154 18.0717
Pd 16.8513 9.62431 21.4378
Pd 15.977 14.1036 10.4008
Pd 11.6228 28.8312 16.2049
Pd 11.1161 23.4882 19.6384
Au 15.8378 9.47425 11.7353
Pd 4.08439 21.4159 21.5435
Au 10.0283 21.1755 25.6779
Au 9.69028 16.2629 33.6695
Au 5.50538 13.3072 21.0935
Au 4.1452 20.3963 14.5321
Au 14.2172 4.865 26.8506
Au 8.88033 9.3175 29.201
Au 10.6349 13.6326 29.0468
Pd 9.5084 16.7958 22.6154
Au 6.23453 7.46337 19.3247
Au 20.7743 12.3675 21.4763
Au 16.3228 13.6038 19.3825
Au 3.73699 23.0085 13.6109
Au 10.0196 13.0832 26.3031
Au 10.775 19.0347 12.0676
Au 18.0007 30.8235 5.56451
Au 10.6138 18.5461 14.6938
Au 13.7398 11.698 7.78868
Au 6.03611 16.3044 16.7583
Au 9.74198 18.8818 17.6766
Au 13.0792 14.2738 6.8854
Au 10.4477 13.0781 16.0293
Au 8.98884 5.94023 14.5758
Au 22.3278 16.7926 37.7442
Au 9.14991 8.03335 19.2052
Au 19.0328 25.6092 36.9249
Au 6.8811 16.8184 24.0106
Au 18.7944 31.5664 24.7307
Au 6.80524 11.4438 22.8119
Pd 9.2791 27.7598 14.2459
Au 6.28285 18.7901 8.70542
Au 0.856851 18.3511 23.7102
Au 2.02529 19.1197 15.7632
Au 13.7437 18.2903 23.9718
Au 5.05738 25.0085 22.2783
Au 1.73688 20.9794 13.6709
Au 6.68454 11.4568 30.2042
Au 20.1011 33.5201 30.6227
Au 6.0314 15.028 26.1077
Au 3.87824 21.854 18.6795
Au 6.83178 26.7401 18.1631
Au 16.3584 3.26887 27.1007
Au 14.6485 17.7085 29.1659
Pd 5.60021 27.9886 24.8739
Au 8.87346 13.0939 23.4158
Pd 21.4668 20.2252 14.4385
Au 14.1476 22.82 29.1385
Pd 8.39608 26.2097 30.9206
Au 9.00937 15.3541 25.0089
Pd 16.2337 28.2742 22.4125
Au 4.85836 21.0105 9.26199
Au 9.26313 10.2648 23.9666
Au 11.1461 26.1264 15.2332
Au 21.7467 31.1698 31.1871
Au 11.6331 17.765 35.1112
Au 5.32604 22.7272 23.8277
Au 0.949273 17.9892 18.3081
Au 22.1661 27.801 31.6745
Au 15.0709 20.3616 13.5844
Au 10.8117 23.492 11.9018
Au 15.4218 19.7289 3.62936
Au 13.8008 33.873 17.0176
Au 8.95038 29.8753 20.579
Au 3.90068 12.4701 14.7709
Au 13.0779 20.6652 7.60236
Au 21.4206 13.3664 11.7388
Pd 31.7186 22.0985 17.5833
Au 13.4148 22.7037 12.2823
Au 3.79958 20.9836 30.1987
Au 13.8823 18.5235 33.7816
Au 1.6161 13.2528 16.2135
Au 17.9961 33.7641 23.1797
Au 7.45935 20.6037 24.441
Au 14.7563 32.1627 30.5481
Au 0.918354 18.8504 21.0691
Pd 5.33745 14.7605 14.4084
Au 1.43194 20.5873 17.9994
Au 4.02025 19.8181 27.6646
Au 9.76605 7.82062 26.9432
Au 19.9158 27.7862 26.0196
Pd 12.2031 16.8622 22.0695
Au 7.52855 15.3404 32.4324
Au 13.6418 32.7614 14.2949
Au 12.0083 28.2242 13.547
Au 20.2007 30.4661 26.9694
Au 26.3003 30.432 29.7747
Au 19.1878 34.5098 15.9588
Au 17.682 29.3671 26.6599
Pd 17.796 30.8312 19.4148
Au 27.4232 15.8096 2.59635
Au 17.3278 25.0062 4.99661
Pd 20.1213 20.6819 9.22415
Au 6.64009 12.3692 13.9965
Pd 18.1616 25.9476 8.02454
Au 19.8234 8.18785 9.36142
Pd 22.0919 5.2487 13.3975
Au 19.8772 8.63597 27.3225
Au 23.6554 12.1632 10.6524
Au 20.2121 27.2902 33.6398
Pd 21.5902 5.30583 20.726
Au 25.7926 15.5915 24.8622
Au 18.4122 4.96789 10.4784
Au 8.00641 19.8748 27.1988
Au 8.92509 7.32292 24.3025
Au 7.8177 25.9671 7.49438
Au 12.9228 30.5095 12.1855
Au 28.5595 9.31741 9.99121
Au 19.4737 23.627 9.08616
Au 5.83914 13.9208 23.7484
Au 13.2315 30.9541 7.39997
Au 14.2642 17.7684 11.935
Au 9.2695 5.44315 11.9443
Au 32.9935 23.531 15.0064
Au 7.99537 14.6731 15.3995
Au 20.8347 8.50922 17.5387
Au 9.02425 12.9847 10.4197
Au 11.2403 15.1813 8.61301
Pd 14.138 10.196 21.116
Au 17.3045 8.59911 25.8902
Au 9.49055 11.4361 6.86873
Pd 13.0174 13.2199 16.8709
Pd 11.3109 12.1455 11.5682
Au 27.9935 4.34252 20.328
Au 18.4685 29.537 34.0931
Pd 18.2044 17.6928 32.5608
Au 24.9656 9.64861 31.549
Pd 8.59513 8.02266 12.7284
Au 13.742 6.8751 28.9731
Pd 23.4127 21.8416 21.901
Au 22.6915 33.4259 29.8141
Au 11.3033 29.2538 31.7936
Au 7.11275 29.818 13.7044
Pd 17.8337 27.5049 32.2263
Pd 11.1568 12.71 18.7274
Au 15.5551 13.8112 7.79108
Au 7.00934 31.7478 15.9731
Au 14.2418 15.044 18.3665
Au 29.5863 14.7625 3.9127
Au 5.3514 18.739 12.7431
Au 1.99214 20.6769 23.077
Pd 22.9536 6.78818 18.3012
Pd 12.104 17.8397 16.9286
Pd 14.2043 21.4469 5.3171
Au 14.9963 22.5626 3.05699
Au 15.66 8.24766 30.9307
Au 7.50087 11.6447 8.69564
Au 13.0899 3.69676 15.4076
Au 11.8014 23.1147 35.6819
Au 13.3311 8.65698 15.7284
Au 11.2323 20.7443 16.0469
Au 7.95998 23.4526 32.9518
Pd 14.0464 16.6159 35.8474
Au 11.7232 10.1147 22.4595
Au 5.62615 13.5454 28.446
Pd 5.69839 21.586 26.2616
Au 8.53022 9.82755 14.7868
Au 18.523 10.8138 36.6291
Au 20.425 6.90119 22.6521
Au 12.1464 11.9936 31.3311
Au 13.0022 27.5347 27.7228
Au 10.8566 11.1765 14.0471
Pd 14.8589 25.7817 29.3155
Au 13.3788 21.7194 37.3532
Au 6.87381 7.74601 14.8625
Au 9.9668 24.6009 21.8749
Au 17.4298 19.0566 8.35118
Au 1.36169 15.2723 18.0772
Au 8.64602 11.1363 12.367
Au 6.38445 16.8282 10.763
Au 16.9344 22.2529 4.95921
Pd 18.2384 28.3649 29.4729
Au 4.65788 9.65646 18.4971
Au 10.7985 26.2871 29.6962
Au 19.4841 11.8692 13.0874
Au 12.1334 6.47614 26.6474
Au 7.35211 33.9648 17.5419
Au 18.4663 16.9845 6.76186
Au 4.51418 13.5067 12.2218
Au 10.0604 11.2291 33.2707
Au 11.3615 3.2901 22.4794
Au 16.9643 3.46916 13.083
Au 13.3394 24.6468 16.252
Au 5.15711 17.2319 19.6928
Au 18.0092 21.559 29.3918
Au 12.7589 19.343 21.2946
Au 10.9303 8.39454 14.2919
Pd 14.8376 10.9511 31.8612
Pd 4.97891 17.0552 27.5333
Au 5.91275 10.9327 27.6101
Au 5.56092 13.9763 31.1578
Au 8.46986 11.703 28.0975
Au 27.6883 32.0549 28.2037
Pd 9.69815 16.0379 30.7079
Au 12.8714 24.5604 30.9872
Au 14.9873 26.0674 20.8825
Au 21.7237 10.4599 3.27457
Pd 24.5622 15.6396 4.67601
Au 15.8189 16.6214 7.52576
Pd 8.57133 22.7791 20.3439
Au 8.45884 25.7197 16.0442
Pd 6.36801 26.3171 29.0758
Au 2.45695 16.5547 20.2114
Pd 3.81921 12.0553 17.4611
Au 1.68632 23.3628 18.2113
Au 20.3529 30.7682 4.46013
Pd 10.7455 12.4086 21.3699
Au 1.84451 12.8754 19.0032
Au 15.8333 33.4367 28.3475
Au 6.31552 9.7815 13.0836
Au 7.24133 9.24127 17.4877
Au 7.72542 17.0748 26.9338
Au 11.2685 10.8765 28.8584
Au 21.2594 14.716 28.5607
Au 10.8483 26.731 32.482
Au 11.3676 16.9741 24.7588
Au 27.1768 26.3179 32.7611
Au 5.60247 19.4946 31.5678
Pd 20.5667 27.5025 12.6033
Au 6.3548 30.8988 20.6495
Au 2.73975 28.1376 20.1298
Au 19.3396 31.6928 32.4809
Au 14.0047 30.0159 32.0093
Au 15.9386 21.7707 36.3178
Au 21.1692 29.9044 33.7897
Au 8.14644 14.4595 27.6536
Au 7.8288 17.3753 20.3378
Au 11.3599 16.3667 5.8337
Au 3.11014 14.2355 24.2004
Pd 7.22339 16.3718 8.11215
Pd 9.15229 24.6644 13.7028
Au 4.02821 15.5572 29.522
Pd 6.78385 16.7257 13.6121
Au 8.12609 5.43814 19.6826
Au 11.3817 31.2803 14.8462
Au 27.6798 34.1936 21.4204
Pd 15.7697 26.2413 6.86958
Au 16.0152 34.7084 18.541
Au 13.911 27.2399 15.5585
Au 12.1237 16.5938 13.2669
Au 23.2493 34.3078 24.4786
Pd 9.32562 23.8731 9.57741
Au 4.73013 20.1141 23.809
Pd 11.3647 23.4296 24.2197
Au 4.61793 27.9057 22.2242
Au 8.00455 20.4553 30.2527
Au 9.38078 16.4976 12.8445
Au 11.6627 17.3253 32.3133
Pd 14.8828 26.0156 32.1241
Pd 5.86875 18.7832 25.7853
Au 22.5669 28.849 26.7749
Pd 17.1388 25.0583 33.0425
Au 29.4832 33.5083 14.4106
Pd 13.7692 21.3283 34.7642
Pd 22.915 32.0951 23.0407
Pd 6.28294 18.7841 29.0451
Au 9.61666 25.7431 19.0849
Pd 16.9277 21.6404 20.2788
Au 21.9073 34.2944 11.6144
Pd 30.3187 25.7852 8.70467
Au 14.9882 17.5286 17.1279
Au 10.5366 15.7549 15.3978
Au 16.9442 23.6314 7.4018
Au 22.1577 24.2899 2.32285
Pd 6.83265 21.2671 21.9384
Au 15.6857 28.191 28.1059
Au 11.994 25.1257 9.8571
Au 11.9437 34.4836 21.1338
Au 10.9753 36.1966 19.2427
Au 2.53247 26.0825 21.7746
Pd 14.5976 12.6274 24.6631
Au 7.16264 14.4534 12.2
Au 6.51687 14.1674 9.60749
Au 9.73724 21.8576 34.3446
Au 10.4773 24.1286 17.0322
Pd 12.6555 25.2888 13.1945
Pd 23.4511 22.9258 32.9443
Pd 13.2686 11.3435 15.092
Pd 11.3617 23.2307 14.6361
Pd 10.1902 24.3701 31.6509
Au 2.36914 25.8998 18.6842
Au 12.5241 20.0118 25.6137
Au 16.5437 25.3329 23.0554
Au 9.33676 30.3917 30.2663
Au 17.5999 20.5094 25.3136
Au 4.49919 12.6723 25.9616
Au 17.9168 26.3382 2.7457
Au 18.9448 34.1157 25.8756
Pd 8.18818 19.0432 13.2051
Au 6.81293 21.3772 17.7635
Au 27.6925 14.7978 9.67694
Au 12.802 31.9555 22.2217
Au 17.4585 28.3787 6.69096
Au 20.1989 16.8136 2.16419
Au 18.5565 19.293 11.0016
Au 32.7555 25.917 9.93913
Pd 27.4793 30.865 12.484
Au 17.5312 36.1276 14.3713
Au 12.6688 30.6818 19.7837
Au 17.0571 32.7749 8.94172
Au 30.0544 31.6349 24.92
Au 11.6473 33.1338 25.9193
Au 4.69793 28.1952 14.4557
Au 19.2796 25.8874 10.6908
Au 5.86848 23.0707 20.2138
Au 14.2772 9.02203 8.53064
Au 18.3721 30.5751 13.2834
Au 17.6394 31.1149 22.1991
Au 6.81424 29.4573 22.873
Pd 33.4013 29.7033 21.2527
Au 30.4478 23.0332 33.3321
Au 7.65049 20.6448 32.9733
Pd 31.8919 10.9227 20.6216
Pd 14.578 28.673 25.6952
Au 17.2647 16.4789 21.977
Au 27.3012 12.8359 7.45732
Au 25.2987 18.5085 16.0201
Au 16.2584 10.7344 7.20096
Au 8.83997 16.339 17.9888
Au 15.6916 3.03588 19.9713
Au 19.0918 2.00239 14.3077
Au 17.9139 20.7644 13.448
Pd 17.9943 10.5687 27.5103
Au 13.2426 9.50493 13.0148
Au 22.1444 5.90867 24.9904
Au 26.5578 9.53478 29.3168
Au 24.1521 14.6334 22.8293
Au 23.8182 3.73066 11.9492
Au 16.2937 19.7914 34.3024
Au 24.0523 7.90515 25.4484
Au 13.3304 13.3724 9.97327
Au 31.2856 12.0822 7.68737
Au 10.9684 26.2394 5.06904
Au 12.8311 3.08485 20.1436
Au 17.5604 13.5905 14.7377
Au 25.2505 14.1791 2.54853
Au 17.1772 14.5488 5.75442
Pd 14.0728 14.9755 12.2037
Au 10.1427 3.51037 19.9417
Pd 27.301 6.19164 13.4672
Au 11.5039 10.2049 19.6551
Au 25.8105 5.12843 18.5626
Pd 11.4009 6.9821 11.9911
Au 13.4916 10.5709 17.7475
Au 9.63212 5.3031 17.4773
Au 3.76092 18.235 29.9128
Pd 18.1598 8.95074 29.7537
Au 34.1436 18.374 27.3697
Au 19.3161 24.0473 29.0641
Au 15.6496 3.55271 24.5532
Pd 7.91658 17.9746 31.6632
Au 17.1967 11.9751 25.3043
Au 24.6235 20.7676 17.4003
Au 14.5693 7.80589 25.8536
Pd 14.0618 5.72991 24.2541
Pd 21.4216 14.6014 23.0645
Au 27.8558 12.099 29.5954
Au 13.9676 12.4989 29.3653
Pd 12.0793 26.0848 20.4044
Au 14.9741 14.3705 34.6526
Pd 5.27877 25.5992 11.4377
Au 20.0675 29.0354 6.66862
Pd 8.44268 20.2431 15.7765
Pd 4.41116 19.7771 17.1797
Pd 12.9989 25.9107 6.81345
Au 22.0406 17.0215 4.67357
Au 26.9762 8.46787 7.92849
Au 18.045 7.51088 11.406
Au 12.7502 9.1198 27.2795
Au 10.5192 32.1311 20.6904
Au 17.9529 15.3454 8.86178
Pd 25.7443 25.0685 18.4004
Au 23.9883 16.4706 20.9071
Pd 5.95086 13.534 16.7721
Au 26.2254 3.5297 13.3609
Au 3.60782 14.831 16.4635
Au 25.0156 5.19622 25.1109
Au 19.6439 14.8119 13.3229
Au 28.0559 14.3938 18.094
Pd 12.4374 25.5457 25.4367
Au 33.1469 13.2985 29.1371
Pd 18.7099 10.2131 18.0318
Pd 9.55943 32.6326 16.6211
Au 23.5321 5.20199 22.7768
Au 22.7728 15.792 35.359
Au 6.308 11.8553 18.7759
Au 6.22106 25.2294 24.9113
Au 13.5554 8.13033 23.0986
Au 4.07068 11.9054 23.0572
Au 20.8551 29.5557 16.6815
Au 19.6378 15.3618 4.60797
Au 8.46625 29.1682 9.06767
Au 14.984 14.909 21.2878
Au 26.847 21.4066 2.86371
Au 20.3386 32.0799 6.92589
Au 5.57534 28.2766 11.9018
Au 6.475 24.4954 9.23075
Au 2.74854 13.8179 21.4356
Pd 14.9078 17.2438 2.83287
Pd 18.9438 28.2845 14.7869
Au 10.4696 26.4178 12.0437
Au 27.7732 13.0551 2.68926
Au 9.71357 21.1694 10.6776
Au 6.97628 18.5692 17.8961
Pd 2.8984 18.8498 25.3685
Au 13.0494 27.4789 30.6562
Pd 3.41372 14.9731 26.9023
Au 14.0506 20.0683 16.7749
Au 6.45557 9.82127 20.6193
Au 30.6473 12.2069 28.7651
Au 16.5074 18.8796 23.527
Au 15.888 21.3654 27.3153
Au 12.7009 25.2349 33.9498
Au 16.9453 10.2183 34.6044
Au 18.3141 3.22629 25.0866
Au 3.29581 18.3177 22.3571
Au 25.2149 20.792 32.8214
Au 10.105 13.8576 32.4497
Au 19.9293 28.2619 36.0399
Pd 9.00689 18.0209 29.0667
Pd 11.4463 12.162 24.2535
Au 18.7372 28.7125 3.96146
Au 18.6821 21.5283 7.15737
Au 6.97117 28.1578 15.8733
Pd 24.7526 23.0832 29.9996
Pd 12.2643 20.6648 13.572
Pd 11.202 12.5001 8.54635
Pd 12.3829 14.6383 20.5064
Au 16.5466 22.5305 23.5486
Pd 14.2419 24.0174 23.9443
Au 14.6433 18.9096 9.08224
Au 10.4152 25.1001 7.45802
Pd 28.45 20.4696 13.7248
Au 3.03496 21.5615 25.4431
Au 9.41758 27.8672 17.4028
Au 5.40055 10.3985 24.9696
Au 12.6241 23.9898 21.8719
Pd 10.471 26.7943 26.932
Au 2.41559 17.4415 27.7133
Au 15.2572 7.52464 20.9844
Au 12.657 7.95778 20.4589
Au 17.8659 26.3122 20.7981
Au 11.4106 34.0293 15.2521
Au 16.6166 30.5653 29.3071
Au 3.14224 23.8589 20.4729
Au 23.3745 14.7208 13.2723
Pd 24.5906 17.6445 26.3318
Au 21.3904 23.4106 31.1632
Au 7.99621 30.6478 27.9699
Pd 30.5411 14.7533 26.0398
Au 28.0018 11.4719 4.93219
Pd 13.0103 27.3268 11.2369
Pd 6.59649 21.2693 13.7529
Pd 12.0767 26.4766 17.7626
Au 14.9765 12.5976 5.32132
Pd 12.5369 22.3944 17.6084
Pd 7.54046 23.877 22.7715
Au 19.433 34.9506 12.9858
Au 12.7356 5.49631 21.9134
Au 22.7038 22.6771 15.8829
Au 17.1907 2.76588 22.3876
Au 15.9679 19.9456 11.1258
Au 7.87308 18.4836 6.18388
Au 15.0164 26.4021 17.9703
Au 13.7723 35.4646 14.7117
Pd 17.3088 19.0308 20.76
Pd 9.43433 26.6854 9.54716
Au 10.3464 24.0325 26.572
Au 22.8701 31.2823 16.234
Au 15.9604 23.3857 31.0867
Pd 28.2517 24.3089 34.1978
Au 30.9161 14.913 18.2307
Au 4.04592 17.2231 14.8572
Au 9.16135 34.4002 19.69
Au 16.4141 26.3321 37.1791
Au 11.5732 26.569 22.983
Au 14.5459 21.2124 32.2377
Au 12.1506 14.5565 25.6657
Au 12.9234 31.346 17.0473
Au 9.82016 21.7846 31.6322
Au 20.59 9.30616 11.9561
Pd 15.1915 22.099 18.243
Au 9.74093 17.3362 8.03442
Pd 19.5581 23.9533 6.32273
Pd 26.1034 16.7697 13.9395
Au 8.66641 18.3629 10.4903
Au 19.362 10.3154 7.89099
Au 15.125 20.5924 22.015
Au 16.7985 26.4558 15.2449
Au 9.18359 31.9742 25.7084
Au 10.5197 33.2477 23.2796
Au 6.02636 21.5837 28.9197
Au 19.1183 24.3242 16.4467
Au 11.9668 31.4443 30.4414
Au 8.06209 32.818 21.5769
Au 13.1282 34.2546 23.6746
Au 24.8151 31.2624 11.5891
Pd 14.9218 31.5168 9.91629
Au 7.58619 23.9816 18.0401
Au 20.5884 4.29831 23.3474
Au 11.3267 30.8042 24.426
Au 18.8802 34.563 18.654
Au 3.66891 22.5797 27.9909
Au 5.85865 22.1896 31.6448
Au 27.525 31.5658 21.2647
Pd 12.099 22.1199 27.2933
Au 18.8567 22.7818 36.5098
Au 8.63879 25.2548 28.268
Au 9.06211 30.0532 15.7265
Au 7.45423 15.1417 21.9274
Au 27.0478 18.6461 2.74818
Au 25.0186 12.4865 12.9448
Au 19.5996 14.6124 16.2869
Au 7.7593 23.6003 30.2722
Au 22.5458 31.3014 28.1865
Au 26.8821 17.0866 4.9285
Au 8.62473 19.2912 22.2324
Pd 9.89529 29.3954 26.5322
Au 22.7867 6.46163 7.06259
Au 5.02757 24.0152 29.8553
Au 24.6471 18.3778 18.8589
Au 7.38058 25.3848 20.5569
Pd 14.3094 26.9173 8.96976
Au 17.665 35.4075 21.0421
Au 7.83913 27.0797 26.2017
Pd 16.1097 34.4303 15.7989
Au 3.63186 26.2395 24.2473
Au 9.38229 25.5517 24.4342
Pd 18.2419 30.5565 16.0596
Au 11.2908 14.7698 11.3993
Au 8.91463 15.6793 10.1971
Au 9.93202 30.0837 12.94
Au 16.7422 15.25 32.0973
Au 10.5088 31.7117 28.1173
Au 29.1358 28.7759 14.8903
Au 26.458 30.0652 32.3879
Au 30.4827 20.4017 33.4855
Pd 7.23533 26.7681 22.9848
Au 24.6341 27.175 26.2349
Au 23.6271 22.2978 27.5523
Pd 9.64586 21.7257 18.0047
Pd 15.5925 12.3419 16.7926
Au 20.5194 9.87029 14.7537
Pd 12.2106 13.7269 13.9192
Au 13.8698 7.77005 10.9721
Pd 32.0522 13.7258 24.0083
Pd 17.9367 5.22309 23.452
Pd 27.0506 10.0354 22.6901
Pd 21.2464 8.39067 25.0409
Au 23.5923 5.78374 27.283
Au 9.47858 5.16442 22.0923
Au 25.4203 15.9237 34.4092
Pd 15.8528 8.25359 28.195
Au 17.8779 3.8796 15.7061
Au 33.4899 15.0165 21.9826
Pd 24.2589 20.8202 14.6804
Au 28.546 6.48368 10.8163
Pd 15.8713 21.1719 7.49257
Au 24.2064 24.287 14.025
Au 14.2094 3.55179 12.9298
Au 6.51299 20.9152 6.97553
Au 18.8633 16.5431 11.3592
Au 18.1105 11.1359 15.4985
Au 18.0431 9.42251 13.3404
Au 22.9591 7.93785 22.784
Au 14.5707 8.16977 18.4474
Au 26.4339 15.3994 7.17642
Pd 11.3886 8.33461 24.7586
Au 12.2342 11.8129 5.53266
Pd 32.0035 15.7382 10.1596
Au 15.9318 16.5403 24.6728
Au 18.5134 4.12387 18.3645
Au 15.6669 4.25174 17.4573
Pd 21.1084 10.9912 27.6187
Au 8.17634 12.7092 20.6646
Au 29.9498 11.8332 31.3959
Au 20.2617 15.5459 26.22
Pd 13.2662 17.1677 26.7175
Au 21.6864 17.3087 22.5622
Au 34.8496 20.4744 25.5237
Au 20.2197 7.00657 29.8336
Au 23.4224 12.441 27.8811
Au 7.46648 29.8636 25.4383
Au 23.6045 12.5668 35.768
Au 13.1862 19.807 28.2647
Au 25.0918 6.5325 8.62537
Au 16.9362 18.0541 12.8865
Au 19.504 19.789 27.3149
Au 21.3521 27.8068 9.91035
Au 12.2751 16.7611 3.2125
Pd 30.5896 20.0432 7.94369
Au 29.628 7.71151 20.5375
Au 15.671 7.51254 6.93883
Au 2.58731 22.0308 16.0431
Au 20.2425 9.81163 5.32766
Au 6.32513 11.8895 11.1489
Au 10.9429 5.97276 19.826
Au 23.2601 18.119 14.2266
Au 7.90885 7.36742 21.557
Au 29.5229 19.2598 10.3723
Au 25.0226 26.6107 23.4394
Pd 16.0686 10.609 29.4392
Pd 30.5266 18.8552 24.285
Pd 6.71944 14.9809 19.2263
Pd 19.378 9.28862 20.7226
Au 15.4388 16.4409 14.5284
Au 18.4869 15.1998 19.1877
Au 14.7945 19.4867 19.4154
Au 20.7912 29.7735 19.6409
Au 35.6445 17.6592 12.8254
Au 21.3702 19.0414 29.3896
Au 8.58633 28.0587 28.8248
Pd 18.8257 11.764 29.7481
Pd 15.2022 10.5631 26.7675
Au 24.8291 16.9602 29.054
Au 21.6372 33.6997 8.96287
Au 12.6744 14.2297 4.1732
Au 10.7105 9.48928 11.7202
Pd 8.28971 32.0054 18.9707
Pd 23.4639 10.6993 5.33709
Pd 16.1095 24.1707 16.6484
Au 5.66971 31.8747 18.2722
Au 13.532 18.4265 14.6635
Au 8.9589 18.3942 24.9213
Au 10.7765 19.3136 6.43925
Au 22.1382 24.2998 28.7277
Pd 16.7165 5.66268 19.5145
Au 12.8752 14.981 28.3246
Au 10.8932 10.3336 16.7152
Au 4.24128 16.6833 24.6492
Au 18.7665 14.1564 21.6778
Au 19.6072 21.4201 4.53743
Pd 9.4187 27.2687 21.407
Au 14.2483 24.0437 36.2824
Au 23.4493 9.39522 18.7237
Au 21.5777 16.5697 12.0943
Au 26.7765 18.2475 24.5225
Pd 27.7972 26.7253 18.8557
Au 8.07771 13.8599 30.2402
Pd 18.6838 23.3312 31.6675
Au 22.7972 10.5927 25.6707
Au 12.5319 30.2983 26.852
Au 7.77793 9.51568 26.173
Au 11.9584 28.2125 25.0407
Au 16.2341 30.3711 24.3874
Au 24.6788 25.1799 1.53614
Au 24.6962 19.8347 2.15742
Au 36.0294 14.0059 21.987
Au 24.1083 22.6603 9.04775
Au 21.3643 15.4415 20.5101
Au 27.1307 20.2712 11.0785
Au 9.51591 13.6405 13.356
Pd 16.5591 15.1182 16.8387
Au 2.80496 23.4566 23.1873
Au 9.52619 31.2036 10.5537
Au 6.897 28.1247 20.52
Au 19.3376 12.9606 27.2346
Au 4.86435 29.2161 19.0474
Au 28.4263 19.3989 31.9898
Au 5.35003 16.7871 31.6039
Au 20.9098 22.457 22.5362
Au 14.5372 24.9418 11.1379
Au 3.0351 24.747 16.0629
Au 20.1075 19.211 6.77696
Au 14.0263 2.27704 17.7329
Au 19.8091 18.3662 13.3351
Pd 7.38802 22.0348 9.28192
Au 12.1986 14.8823 30.9763
Pd 10.8366 9.45087 31.2826
Au 16.4081 16.5262 27.506
Au 22.8014 15.845 25.0595
Au 24.4238 21.0351 11.5648
Au 19.4968 13.3087 24.3642
Au 13.1972 32.5801 28.253
Au 9.53588 18.9575 33.7819
Au 27.4006 12.7635 11.538
Au 3.12889 19.2779 19.6975
Pd 8.3881 17.4319 15.6101
Au 2.60683 14.7524 13.9226
Au 14.9493 27.003 13.072
Au 11.1939 5.62734 24.1921
Au 17.773 32.9747 14.2706
Au 20.0073 31.8551 18.0858
Au 20.1509 26.8076 16.6354
Au 15.0514 26.2694 34.8667
Au 17.4405 23.6507 2.51006
Au 13.0777 17.2411 19.4325
Pd 16.1534 28.4005 19.5844
Au 9.00566 30.9233 23.1398
Au 12.5666 24.858 28.0991
Pd 25.7167 31.3643 16.7117
Au 30.6398 25.8098 5.96841
Au 7.31625 12.3434 25.6175
Au 12.8171 3.50867 24.7924
Au 14.5768 28.6504 6.6321
Au 4.77999 26.4072 26.9142
Au 15.1739 30.5855 21.112
Pd 15.7109 28.2056 30.7748
Pd 27.1992 22.1099 21.56
Pd 10.6213 23.3671 29.2923
Au 27.4025 16.9947 30.1459
Pd 13.7361 29.5561 23.2939
Au 15.2992 31.0561 27.0321
Pd 15.8286 18.6035 31.757
Au 30.2154 23.7192 28.982
Pd 17.5176 19.6437 5.47141
Pd 12.703 21.4975 23.0221
Au 27.0242 14.1612 4.89088
Au 15.8744 31.0999 7.18501
Au 24.0819 27.0256 10.0811
Au 27.8971 17.3919 8.58176
Au 8.27991 28.2947 11.6327
Au 26.5017 29.3362 14.6572
Au 27.8178 33.0093 23.9209
Au 25.929 26.6633 3.42898
Au 13.5769 28.3098 20.9197
Au 5.39273 22.875 11.2398
Au 14.7561 21.1136 24.7887
Au 6.33235 24.0109 13.6265
Au 13.6635 28.7845 18.0697
Au 12.0817 31.8053 9.90257
Au 4.71457 24.4062 18.0999
Au 15.6553 31.5581 12.7742
Au 28.9763 14.3113 30.6734
Pd 16.8178 24.2908 25.6289
Au 16.4468 33.1171 25.4274
Pd 19.377 26.6277 5.39943
Au 16.1976 16.7733 19.4202
Au 33.4647 9.63672 22.5439
Au 10.0754 24.5938 34.2488
Pd 14.7866 21.9973 9.83696
Au 22.3529 16.5773 30.1864
Au 11.8245 17.3945 29.3678
Pd 25.265 11.9061 29.8377
Au 24.7928 17.4185 36.7225
Au 35.3284 14.6457 13.1518
Au 32.2679 25.4136 12.764
Au 4.06269 25.7298 13.7661
Pd 16.0685 29.1005 8.89844
Au 25.307 35.6831 14.7531
Au 26.9104 28.1089 5.50054
Au 17.5311 18.3041 2.43137
Pd 8.00436 22.7803 11.897
Pd 11.2232 29.3537 22.1181
Pd 6.00431 18.4594 22.0838
Au 17.7151 27.0314 34.9874
Pd 7.42525 29.6588 18.1134
Pd 22.5779 22.2705 13.0846
Au 11.7137 27.538 8.48619
Au 20.4145 31.0201 22.2082
Au 9.66703 35.2388 17.1159
Au 31.0148 31.0313 10.8402
Pd 5.68079 20.0103 19.8344
Au 12.6058 24.1421 4.17563
Au 25.4157 33.9056 22.9614
Au 18.1568 20.1688 36.3902
Pd 25.1392 27.8854 18.9202
Pd 16.0356 16.9029 34.0938
Au 8.87487 32.3074 14.0088
Au 21.2104 18.1287 34.8085
Pd 22.4653 20.8598 19.471
Pd 9.33432 28.3107 24.0204
Au 23.6917 29.5977 29.9089
Au 13.0512 7.86238 31.6264
Au 21.213 13.6263 34.5436
Au 11.6303 8.14712 9.37445
Au 10.3613 3.70907 15.4621
Au 23.8835 12.6092 15.4124
Au 22.99 10.6766 21.1594
Au 16.0399 10.7956 19.0901
Au 24.4896 10.0005 23.701
Au 20.652 11.817 16.7105
Pd 10.4065 15.9592 27.4363
Pd 20.0728 7.32181 13.8685
Au 12.8411 12.1828 26.8848
Au 14.0227 12.0995 12.3435
Au 15.6335 5.02094 21.9842
Au 18.2493 1.96368 19.9638
Au 11.8142 20.1843 33.1555
Au 26.6625 6.17503 16.1446
Au 19.6954 14.0158 7.08743
Au 30.0358 13.9456 11.373
Pd 15.2554 29.1184 11.4992
Au 20.0122 14.1296 2.21858
Pd 11.4766 6.11245 15.5818
Au 29.1432 12.17 9.45571
Pd 12.8643 10.5062 10.225
Pd 8.73125 14.0227 7.92283
Au 13.9489 5.46974 19.4319
Au 28.3275 6.78346 18.2539
Au 16.845 18.8619 15.4775
Pd 21.4122 13.2363 14.5829
Au 8.83262 21.0403 5.53578
Au 20.4192 12.6043 4.3065
Au 18.4254 11.3759 22.8282
Au 24.1753 15.5038 18.4632
Au 27.4966 9.50342 19.9468
Au 8.14304 9.85757 31.8385
Au 5.522 10.4461 15.7829
Au 14.0999 2.89107 22.4684
Au 9.01661 10.8966 18.7419
Au 30.6986 15.9215 13.5531
Au 30.2873 5.26212 19.3743
Au 1.78215 16.0648 22.7359
Au 13.1738 27.8485 33.3985
Pd 19.7808 19.4872 18.58
Pd 26.3463 18.2224 33.0924
Au 16.5579 12.9138 30.6252
Au 31.4208 11.1115 23.3848
Au 16.0691 5.44124 28.7775
Au 22.555 15.3368 2.64993
Au 15.5644 11.4136 9.89868
Pd 26.3888 14.2211 14.6478
Au 17.6028 33.2746 11.5525
Au 12.8385 18.9314 4.65145
Au 10.2793 22.0105 7.66475
Au 31.5707 15.0424 6.20427
Au 17.6129 20.9689 2.63679
Au 30.6193 22.9296 19.9162
Au 2.60699 18.5004 12.9545
Au 20.6444 16.3887 18.0172
Pd 8.72232 13.6746 18.0921
Au 6.92305 8.86236 23.4637
Pd 13.3015 21.8129 20.2445
Au 13.8022 15.2522 23.6622
Au 25.4195 4.05089 21.0655
Au 36.0301 16.1581 20.3967
Au 13.8518 29.8743 29.2772
Pd 16.1323 22.5984 12.1779
Au 30.567 9.60966 27.3034
Au 31.0833 8.79265 13.6983
Au 22.3931 2.47578 17.172
Pd 21.3536 23.4946 35.9985
Au 25.1225 10.3281 27.128
Au 21.1783 4.80295 17.9856
Au 7.64258 12.493 32.5757
Au 20.3862 11.2912 32.1333
Au 26.8688 18.5688 27.6471
Pd 24.0113 15.0134 27.3657
Pd 17.3894 25.7085 30.3148
Au 13.3814 5.09787 10.9412
Au 17.0686 19.8152 18.049
Au 26.0676 5.23766 11.147
Au 26.8788 25.1511 14.5147
Au 29.5775 13.2102 6.07821
Au 11.7205 9.92045 7.39139
Pd 20.8294 2.76898 19.6556
Au 20.6252 5.57631 8.69017
Pd 6.18353 18.8914 15.3394
Au 11.8579 17.2519 10.4165
Au 24.7167 20.6756 7.17585
Au 19.1864 18.5411 23.1591
Au 22.8676 17.4578 16.9243
Au 16.6049 24.3027 19.3553
Au 25.0367 16.0953 31.6238
Au 22.1206 20.0844 26.6443
Pd 19.295 6.05392 16.5097
Au 23.7739 24.3805 35.445
Au 21.0095 9.95995 22.8395
Au 3.43 17.2961 17.5951
Au 19.1322 15.977 23.8197
Pd 31.6936 25.8249 22.6184
Pd 23.718 14.1909 30.0857
Au 23.4116 3.85537 19.3012
Pd 29.1759 16.7086 28.0968
Au 27.4253 6.38635 25.5068
Au 14.276 23.3517 26.4472
Pd 13.8079 29.8793 14.7794
Au 13.5119 9.69172 29.817
Au 23.4205 21.6326 35.3615
Au 13.7317 24.3196 19.0952
Au 18.4446 8.47876 15.963
Au 28.6143 24.0878 6.68225
Au 27.1306 4.98056 23.0565
Pd 29.5384 16.5605 10.656
Au 26.7274 16.6563 19.4711
Au 25.7443 7.91853 18.3883
Au 24.4365 25.8839 33.3442
Pd 20.977 19.8428 21.5608
Au 22.3003 21.2309 2.26387
Au 13.3518 29.4173 9.49555
Au 28.9283 23.0081 4.0407
Pd 27.7559 12.2112 21.0075
Pd 31.5917 21.2751 10.1145
Au 19.2945 32.9188 20.7191
Au 20.6223 13.4108 18.9231
Au 28.5876 31.3105 9.72747
Au 10.7861 30.1183 8.16221
Pd 15.429 20.4585 29.8146
Au 20.7642 6.53177 11.3493
Pd 23.2867 24.7095 22.3382
Au 30.0016 16.7765 30.9789
Pd 18.9878 23.2101 24.3213
Au 9.48478 21.9377 23.0162
Au 22.862 3.27135 24.6154
Au 4.74096 26.4001 19.9329
Pd 17.5855 23.4249 14.3837
Au 26.0641 19.3039 30.3936
Au 23.7421 29.898 32.822
Au 13.7145 33.214 11.6269
Au 14.1438 9.76034 5.83279
Pd 32.2426 18.5917 9.66835
Au 23.9351 25.726 16.56
Pd 29.5818 28.2233 6.24994
Au 28.0302 26.575 7.56525
Au 31.4057 17.6414 5.60367
Pd 16.0108 9.58774 16.648
Au 5.06133 29.9521 16.4598
Pd 30.5824 21.1642 22.1389
Au 27.6898 29.2697 17.2593
Au 23.3703 30.2856 18.7446
Au 5.30063 22.661 15.9293
Au 11.099 28.3868 19.4956
Pd 28.9059 17.3533 22.6496
Au 25.9201 22.7152 34.9534
Au 27.7218 27.3647 13.0409
Au 17.6542 22.2983 34.0852
Pd 29.7777 21.6274 30.9814
Au 18.3577 23.7074 21.6703
Au 23.0047 26.3983 12.5037
Au 26.1889 25.5752 30.2978
Au 17.3613 20.8 31.8743
Au 18.6455 28.7405 18.0667
Au 3.85915 24.078 25.7874
Au 23.0339 21.1443 30.6426
Au 9.61172 21.3831 13.565
Au 15.7746 10.1191 23.8621
Pd 23.6954 18.6314 31.4513
Au 21.3504 24.5328 24.2373
Pd 17.7293 26.2886 17.8966
Au 22.2249 27.7266 15.0206
Au 32.1291 32.0357 20.7926
Au 3.75488 20.8185 11.8044
Au 14.0379 15.9431 9.48863
Au 14.8247 24.0687 5.5722
Au 17.7014 36.5779 17.0655
Pd 22.4906 18.2853 2.3194
Pd 18.8144 37.1475 19.4428
Au 17.5547 26.368 27.6242
Au 24.8988 16.9573 2.32396
Au 9.74791 15.0945 20.3662
Au 12.0094 28.6412 6.03558
Au 27.3949 26.3371 27.4975
Au 22.7311 28.2976 7.49236
Au 29.3004 12.2846 16.4659
Au 31.7681 32.5954 18.2426
Au 28.589 28.5427 33.0329
Pd 17.9891 32.0312 27.4121
Au 22.8933 27.8467 34.4363
Au 8.01568 23.1659 25.3287
Pd 18.1556 17.8068 25.7814
Au 25.683 33.1554 25.7814
Pd 19.4107 24.3962 19.2304
Au 31.9186 11.9306 17.4014
Au 31.8698 32.6404 12.9467
Au 25.5985 29.1422 21.7794
Au 33.9894 21.1937 27.9957
Au 19.1459 13.4539 36.7792
Pd 10.4811 18.0331 20.2192
Pd 19.3588 17.1532 28.2225
Au 6.86713 26.6723 13.5603
Au 17.4391 30.619 10.7099
Pd 31.5443 28.5972 16.1797
Au 25.7852 25.6371 11.9285
Pd 10.8856 28.9205 10.7068
Pd 11.4772 33.5298 18.4093
Au 32.61 24.7876 7.43046
Pd 23.7939 23.1243 18.3418
Au 25.3993 28.5243 12.0731
Au 16.2189 27.5854 4.44869
Au 17.9419 28.0875 12.1231
Au 19.3275 31.1219 29.6511
Au 23.8964 29.8333 14.0789
Au 31.8466 28.4607 10.415
Au 8.24254 22.8951 15.5722
Pd 12.0148 19.9305 18.6967
Au 31.9233 26.6824 25.2392
Au 16.1453 28.8091 16.8448
Au 11.165 29.0341 29.0125
Au 33.8858 32.1295 16.7224
Au 31.4558 20.7425 29.0744
Au 12.2074 36.0979 16.8578
Au 22.2556 19.2876 11.8242
Pd 19.0856 20.6873 16.0115
Au 15.3826 32.8281 22.8794
Au 23.9136 18.3952 34.2683
Au 8.48367 22.4066 27.9053
Pd 26.3831 14.5449 29.6132
Au 13.7147 19.2275 36.467
Au 14.7899 14.6343 26.4111
Au 10.1344 15.2901 3.69011
Au 18.6707 13.6527 11.0239
Au 21.4418 2.5069 13.0906
Au 11.5199 4.54 13.1718
Au 35.2349 13.4134 19.5385
Au 31.6339 13.9908 31.1725
Au 15.3633 14.698 3.62358
Pd 30.931 23.9193 10.7487
Au 24.3265 17.5919 23.5478
Au 18.0915 6.52147 8.0018
Au 29.3828 25.7231 24.2722
Pd 28.9163 12.2073 23.5712
Pd 22.24 11.0334 34.0401
Pd 9.40076 7.88693 16.4663
Au 16.1453 18.292 36.6072
Au 22.3609 8.21575 4.86535
Pd 18.7652 23.2602 11.8296
Au 3.80961 11.4804 20.2519
Au 12.4862 23.2427 6.80409
Au 30.6116 21.3815 15.3149
Pd 13.8122 6.14503 16.7657
Au 26.2744 8.00835 10.6062
Au 28.524 4.23509 12.196
Au 17.8057 12.5359 8.61946
Au 32.2796 8.29392 20.4563
Au 18.2446 16.5387 14.8998
Au 17.8629 8.77964 6.11746
Au 16.224 7.36974 23.6071
Au 34.4194 10.8281 19.9699
Au 29.5384 10.189 21.7113
Au 16.3702 12.8915 27.8277
Au 14.9268 23.565 33.6782
Au 28.1031 15.3645 12.7221
Au 33.3389 18.5348 24.0748
Au 28.1595 11.0343 27.0806
Pd 32.6247 24.9261 27.1474
Au 23.3785 25.5905 19.5959
Pd 29.4664 14.8788 23.43
Au 13.2583 10.279 24.8148
Au 28.7767 16.7128 25.3774
Au 20.7604 9.64006 29.8582
Au 28.3869 13.0424 33.2551
Pd 23.7761 13.9276 33.4321
Au 22.8915 19.2867 36.711
Au 25.5486 13.4778 17.323
Pd 26.7304 24.1711 2.99919
Au 24.8803 27.0637 14.3327
Au 31.0627 15.8856 20.8907
Au 25.5489 18.0485 7.08431
Au 31.322 16.7184 16.205
Au 28.9381 13.051 13.8652
Au 8.65768 15.9125 5.84428
Au 29.7483 10.9507 11.904
Au 21.8449 10.2761 9.78581
Au 20.8729 3.88855 15.4272
Pd 22.1428 9.23985 7.33327
Pd 20.1753 32.4243 12.5424
Au 34.7952 13.9082 24.2974
Au 14.8779 8.83494 33.5038
Pd 24.5143 9.1585 8.84973
Au 15.0159 18.9027 6.26163
Au 32.2371 26.1706 15.4379
Au 33.2258 9.93746 15.4127
Au 15.7793 6.04 12.2187
Au 29.0033 16.9415 17.7466
Pd 25.8777 14.1481 20.2557
Au 31.0756 10.1401 9.48352
Au 24.3934 13.2072 25.2159
Au 22.4755 27.6901 18.0421
Pd 4.62453 15.8295 22.0256
Au 16.5424 6.76598 16.839
Pd 21.7404 8.1153 20.3906
Pd 32.3882 27.0164 18.1449
Au 30.4634 28.3183 28.2794
Au 21.8449 25.0708 33.4138
Au 14.9092 35.0957 21.4211
Pd 26.7404 11.7158 15.2456
Au 10.0739 23.6153 5.23995
Au 11.1631 32.63 12.4605
Au 13.6086 26.8619 4.49008
Pd 18.7615 28.2664 9.30667
Pd 25.2371 13.6491 9.05907
Au 29.066 20.2103 3.86469
Pd 18.395 11.8501 20.158
Au 34.1548 20.4731 9.27046
Pd 13.1461 20.1446 11.0686
Au 18.1456 12.8283 17.6055
Au 29.093 30.2858 29.9693
Au 28.2932 25.8487 4.61809
Pd 31.5673 17.1424 26.2818
Au 7.97235 23.3336 6.99582
Pd 16.6015 12.6637 33.2667
Au 11.0305 19.3706 23.3693
Pd 24.2311 15.5835 15.5789
Au 27.0077 20.83 15.96
Au 33.1288 28.1813 23.4403
Au 28.3678 22.9748 14.8361
Au 28.3781 7.6816 23.1945
Au 25.4862 20.4441 23.2
Au 25.7331 28.1754 34.1675
Au 28.2656 8.23582 27.4616
Au 19.7305 8.42489 32.0577
Au 30.21 15.0431 33.1524
Au 12.5625 10.0865 33.2545
Au 30.4174 28.2201 23.1347
Au 23.5947 3.02806 14.6595
Pd 33.7482 28.3181 14.4911
Au 23.101 12.786 3.51468
Au 19.9428 17.8897 9.18952
Pd 33.346 18.1584 14.4014
Pd 16.5757 26.8441 10.2194