923
Atoms. Timestep: 20865
Au 16.948 10.1845 31.4816
Au 9.54421 15.0032 11.8524
Au 9.19507 10.0007 19.7119
Au 18.1438 17.0253 31.6359
Au 10.7125 11.9327 20.9848
Au 29.7536 23.7794 22.2947
Au 15.9663 12.9231 33.8974
Au 11.2279 12.0895 23.7025
Au 29.6798 19.264 15.3311
Au 26.0437 32.6934 15.2753
Au 14.6273 32.447 16.7984
Au 17.7089 25.5236 16.7308
Au 14.3775 27.3037 8.32497
Pd 22.3112 7.60247 18.2256
Au 11.2525 27.2485 18.8972
Au 22.4656 7.84599 13.4065
Pd 13.1092 32.2764 19.0284
Au 18.4839 23.3215 22.5172
Au 17.5899 19.7128 31.0763
Pd 10.5537 15.8876 18.0497
Au 14.5605 22.1142 16.8711
Au 20.2684 12.6102 17.7688
Pd 27.6731 14.4603 25.919
Au 32.0312 17.292 20.0564
Au 30.4103 26.7877 21.0481
Au 19.4038 32.0692 15.3978
Au 9.54776 21.9766 26.0081
Au 20.9915 14.6301 9.08484
Au 22.1518 32.0843 21.701
Au 22.1384 6.00997 25.0005
Au 23.5452 14.9125 29.5907
Au 32.1096 24.6259 21.0571
Au 15.5719 17.6366 9.61827
Au 17.4881 22.4981 14.0267
Au 14.3276 22.2364 8.32097
Au 31.2559 21.6834 21.3373
Au 25.4107 13.7821 27.5344
Pd 24.7374 20.8658 25.8259
Au 15.6235 28.1644 26.9048
Pd 31.5711 25.9683 18.6995
Au 18.983 26.5562 31.031
Au 16.988 19.872 5.80624
Au 26.8137 16.2908 23.3521
Au 6.91651 22.7014 22.262
Au 27.2347 9.23992 22.6605
Au 16.505 4.64526 20.3536
Au 20.3507 8.00481 29.3539
Au 18.5969 16.7075 24.9256
Au 13.9014 15.0269 33.7597
Au 24.7273 21.8934 11.4496
Au 9.82326 26.8065 21.4189
Au 14.1302 15.4171 10.3034
Au 11.7028 22.4761 13.2123
Au 21.2668 28.292 18.0599
Au 26.0873 22.9473 16.2706
Au 24.3158 7.00052 15.2282
Au 28.1002 10.6771 15.6013
Au 22.083 18.2834 33.8778
Au 22.4746 15.3279 11.8085
Au 14.7665 6.37668 24.6449
Au 9.19417 17.2166 28.3359
Au 21.5618 10.1918 10.0962
Pd 18.9361 11.5123 19.7587
Au 32.5248 24.7143 16.3899
Au 7.87583 20.9425 24.2663
Pd 19.4658 23.4637 7.59859
Au 11.0325 22.9029 28.0273
Au 16.2269 20.119 8.40358
Au 29.5057 16.5792 16.3334
Au 28.4427 20.5146 28.7759
Au 12.9831 17.5296 8.66847
Pd 12.233 30.3239 25.0347
Pd 16.8971 8.4287 18.3987
Pd 18.918 14.8619 17.8573
Au 15.2637 26.9403 16.4403
Pd 26.3209 32.6348 20.9153
Pd 24.9907 7.84424 22.744
Pd 18.5891 10.2476 17.3603
Au 20.536 17.253 12.4894
Pd 13.6457 20.3813 12.7885
Au 21.8964 14.1109 15.8712
Pd 11.0836 14.6685 24.5875
Pd 13.3699 29.6943 22.7077
Au 22.2049 26.0681 6.06465
Au 19.1104 13.1706 15.3087
Au 6.77446 13.5533 16.2914
Au 8.94675 19.3979 26.7012
Au 26.0324 30.0081 20.0691
Au 30.679 24.3603 30.2836
Au 11.6462 20.3805 26.6545
Au 23.2678 25.0847 24.5477
Au 12.5976 10.0452 21.6676
Pd 25.8101 29.9709 24.4567
Au 31.1111 14.6489 20.1813
Au 15.4719 13.6719 27.0347
Pd 20.246 22.991 13.3271
Au 22.0285 10.5284 12.9752
Au 28.8777 19.1849 10.2472
Au 15.4588 20.5461 18.9664
Au 20.9538 30.7072 28.8453
Au 25.0086 16.6152 12.8513
Pd 17.8551 19.7011 13.5134
Au 26.6257 23.81 19.5899
Pd 13.6683 13.2801 24.8327
Au 11.9116 24.8745 20.4229
Au 16.1107 15.1337 35.3513
Au 26.3424 8.52525 25.1082
Au 21.705 21.9769 18.0593
Au 9.0353 23.3995 12.9683
Au 29.5752 12.4845 25.2848
Pd 11.4159 15.8408 10.0124
Au 31.1902 18.3487 17.6244
Au 22.218 7.49401 22.6716
Au 8.46164 19.4831 12.2146
Au 27.0828 12.7718 17.0621
Au 21.3895 19.7168 4.86798
Pd 8.58287 23.726 24.1063
Au 26.5681 21.3647 32.5342
Au 24.2015 23.0546 22.3851
Au 22.1846 17.0663 31.4039
Au 12.7887 21.0873 29.0556
Au 13.9079 27.6392 18.6672
Au 15.4201 30.5478 18.7113
Au 26.706 22.3106 27.1091
Au 24.4336 30.7382 14.2136
Au 7.7221 18.17 24.4523
Au 8.76261 21.6906 19.1931
Au 19.4002 5.90327 24.3434
Au 25.7264 32.3581 12.6015
Pd 22.0214 18.9911 15.6315
Au 21.7235 22.33 6.55195
Au 25.3876 16.5312 28.2264
Au 27.3179 20.3239 7.89599
Pd 21.7598 27.5102 24.6728
Au 27.2363 14.9283 12.9587
Au 30.1885 16.086 29.5511
Au 23.3026 12.3686 30.6196
Au 29.0933 27.137 18.554
Au 24.7219 24.7132 10.0616
Au 11.7041 19.5873 22.0063
Au 29.8015 21.1453 8.74228
Au 24.9165 18.5524 7.92393
Pd 23.1296 16.586 7.59284
Pd 8.57904 23.4618 17.3225
Au 8.77917 27.1883 17.3463
Pd 24.645 25.2688 18.2729
Au 24.1714 15.633 5.41892
Au 26.1782 16.6208 30.8276
Pd 13.5009 17.8426 29.908
Au 23.0045 21.1245 20.5347
Au 20.271 23.4799 10.3488
Au 18.421 25.1371 14.1421
Pd 26.2882 29.545 12.4998
Au 23.6602 5.51754 17.4852
Au 13.3888 24.1768 27.3559
Au 14.8861 31.4666 21.2442
Au 27.2392 15.183 10.1236
Au 11.8767 25.8539 25.5291
Au 22.7808 23.8968 4.55296
Au 30.6569 21.6667 29.952
Au 26.6779 20.01 15.5449
Au 12.0731 19.702 31.2762
Au 19.5625 25.9105 23.348
Au 20.1898 26.6006 16.0704
Au 20.2139 24.4933 5.23491
Au 18.647 5.35708 21.7771
Au 22.1362 22.8371 32.0843
Au 22.3015 10.2941 23.2506
Pd 10.4343 19.3639 19.6451
Au 26.1935 12.7049 14.4371
Au 24.5448 22.99 33.1036
Au 13.4276 12.3866 10.2116
Au 26.3068 24.215 31.5616
Pd 17.948 21.8662 9.47924
Au 15.5879 17.7821 18.5817
Au 11.1458 28.2416 26.5556
Pd 13.4824 18.7086 19.9937
Au 15.5219 33.4103 19.2003
Au 24.0097 23.4019 30.0018
Pd 16.4637 21.3346 22.9564
Au 21.7723 24.7981 14.6465
Au 10.8873 11.8939 18.2646
Au 19.9256 30.5946 18.7872
Pd 19.2769 18.0202 15.0408
Au 24.7467 15.4784 19.221
Pd 25.1879 30.7102 17.0943
Au 18.1261 10.6515 14.7698
Pd 9.51829 25.1595 19.1112
Au 15.3736 8.87678 14.1336
Au 18.2459 29.5415 11.7754
Au 14.8685 15.7777 7.49346
Pd 24.5819 9.47513 13.924
Pd 30.4719 18.854 29.7033
Pd 22.8252 14.5752 21.0473
Pd 16.5493 25.3165 23.2665
Au 20.4689 19.222 10.6411
Au 12.5943 27.3715 21.4787
Pd 19.7511 30.4597 21.5161
Pd 24.4163 16.7956 21.805
Au 10.2021 20.7948 17.0181
Au 25.0322 14.2191 11.3909
Au 15.0759 17.377 34.3127
Au 14.3521 18.9366 27.5569
Au 27.0268 23.5002 22.2708
Au 24.7538 27.9659 14.242
Pd 19.9982 9.54313 27.1525
Au 23.8757 33.1801 16.8075
Au 15.4579 23.433 21.6896
Au 30.5433 18.6237 12.728
Au 27.6682 15.0395 28.5915
Au 17.9269 17.2662 17.3203
Au 20.2006 3.97784 20.1205
Au 33.0441 22.5708 14.7488
Pd 28.3133 22.8086 24.6953
Pd 19.7082 23.542 16.0515
Au 30.513 24.2526 25.5703
Au 19.3071 15.7539 29.5668
Au 29.3048 12.5507 20.5873
Au 15.1736 15.9064 13.2709
Au 25.1432 31.9565 26.0812
Au 9.09182 18.2159 17.544
Au 24.267 13.3088 6.8993
Au 31.3282 14.4115 25.4697
Au 9.21566 13.8585 19.4474
Au 7.65663 25.4223 22.2166
Pd 22.676 23.8812 20.227
Au 12.6164 23.9937 29.9656
Au 27.6083 29.3108 17.8775
Au 15.1029 11.516 21.8345
Au 22.1778 12.7061 10.9602
Au 17.2888 15.8918 27.1798
Au 28.8843 20.2739 31.498
Au 12.0918 16.2695 15.7168
Au 20.863 11.0923 15.508
Au 28.5763 28.8823 20.5604
Au 29.1788 28.038 23.1633
Au 19.4537 33.3084 25.3783
Pd 14.4943 9.13611 19.493
Au 29.3567 18.5458 24.397
Au 21.346 21.7952 26.9166
Au 26.3874 21.1877 23.6073
Au 10.0587 27.5199 14.9282
Au 20.7859 33.2335 13.3034
Au 27.4636 24.7695 10.0925
Au 17.9182 8.51782 13.0251
Au 17.9861 12.4059 22.537
Au 28.1378 12.6818 29.7679
Au 16.4818 20.7919 28.1204
Pd 22.2493 19.8427 25.2328
Au 14.6993 28.5098 29.4778
Au 12.2334 13.8743 16.9966
Pd 20.7586 29.4916 26.3514
Au 21.2606 4.91183 22.4997
Pd 29.0221 11.3213 18.2003
Au 14.4379 10.6982 30.5427
Au 15.7994 8.29687 29.8988
Pd 31.5249 23.3591 27.9846
Au 13.9357 10.297 12.0134
Au 22.8325 15.0648 26.695
Au 9.78685 14.9368 29.95
Au 31.0124 27.5199 16.5808
Au 33.7522 24.4989 18.8348
Au 14.6933 25.7967 20.6756
Au 8.60059 11.6814 15.2074
Pd 10.7725 25.4275 16.6747
Au 31.319 23.17 18.8877
Au 12.7742 14.238 8.38005
Au 29.8269 16.1679 26.9092
Au 14.1732 21.6245 26.6912
Au 25.7326 19.3256 12.8061
Au 19.5196 28.7584 23.6758
Au 14.7291 16.2745 16.0343
Au 14.9735 34.3731 24.1152
Au 17.9149 29.972 14.5039
Pd 27.3348 11.0843 24.7477
Au 32.0565 19.5859 25.4468
Pd 5.49094 18.9753 15.3254
Au 20.9878 33.9761 23.3199
Au 20.6291 30.2269 13.3579
Au 15.9481 25.1172 12.8609
Au 19.4503 7.93237 22.4103
Au 23.0252 18.4467 12.197
Pd 30.3424 19.3932 20.1656
Pd 24.5134 30.8158 22.2599
Au 9.65629 12.6958 25.8608
Pd 16.6972 15.1085 29.8386
Au 13.688 8.90101 28.4172
Pd 21.1638 17.4008 26.0385
Au 22.0889 33.5289 18.7562
Au 12.9118 20.8746 24.1245
Au 17.5091 11.8303 8.12866
Au 17.2619 27.681 29.1833
Au 10.942 24.1295 11.0173
Pd 11.9671 27.5431 12.9428
Au 11.71 15.1575 31.9822
Pd 8.10209 18.6849 14.9903
Au 18.0876 8.20558 25.8574
Pd 15.1887 27.6474 23.0184
Pd 26.7897 16.7488 20.3385
Au 13.6764 13.9765 14.7012
Au 12.7214 18.2778 25.2481
Au 16.1471 15.051 17.9096
Pd 16.2212 21.2049 11.8842
Au 10.8092 14.2128 14.307
Pd 23.8467 5.43714 22.5803
Pd 29.0299 25.3419 12.2439
Au 24.6253 13.8715 16.8903
Au 26.4394 18.7727 22.2754
Au 18.202 9.97447 10.5109
Au 23.8759 18.449 29.6973
Pd 29.8084 18.9419 27.0129
Au 18.7265 13.5314 25.1212
Au 16.3603 14.7508 24.7686
Au 18.8524 23.9075 18.651
Au 20.1568 31.3692 11.0111
Au 23.7224 25.3166 31.8327
Au 22.1403 30.1573 9.8531
Pd 24.068 31.7819 19.6058
Pd 28.7031 15.0763 21.395
Pd 25.1319 7.7906 17.6255
Pd 17.0517 7.28165 23.4781
Au 30.556 21.4036 24.0543
Au 14.9751 13.2614 12.2316
Au 25.7052 15.4442 7.80205
Au 19.1209 35.4802 16.8416
Pd 13.0706 13.3366 22.0974
Pd 11.4834 17.0461 23.1581
Pd 12.9811 17.7188 11.4887
Au 19.4428 11.5162 12.4416
Pd 14.3302 19.1452 16.6555
Au 16.3528 12.8756 31.2621
Au 27.641 30.7346 22.3958
Au 22.9467 22.6049 9.32598
Au 22.1374 29.3447 22.7398
Au 15.5376 13.5379 8.87309
Au 27.0785 15.7905 17.6956
Au 30.2332 26.6332 14.2087
Au 19.5889 25.3636 28.2089
Pd 16.3823 16.8373 22.9671
Pd 16.3859 18.0106 14.9998
Au 24.432 28.2901 26.693
Pd 23.0749 12.5253 27.9335
Au 26.2382 24.3914 12.4835
Au 17.1515 27.0289 8.15884
Au 20.4262 18.5643 23.649
Au 22.786 4.7945 20.0174
Au 13.026 20.0526 7.72866
Au 22.8415 22.3987 24.6606
Au 26.9732 27.5594 25.2333
Au 17.3098 22.0483 20.2042
Au 22.7938 19.4162 18.253
Au 19.6741 26.4484 7.09433
Au 25.6839 22.374 8.89575
Au 26.0456 12.9663 9.04832
Pd 25.7922 25.6901 23.4699
Au 28.4068 29.8054 24.9797
Pd 19.9061 15.4457 14.2963
Pd 17.4307 12.6725 17.3662
Au 25.3907 13.1189 24.7363
Au 24.7047 30.9663 10.6214
Pd 22.3845 18.6204 21.7064
Pd 18.0136 23.8485 11.7102
Pd 17.6587 24.0892 32.1898
Au 27.0748 27.1841 28.0616
Au 20.0468 14.2063 20.3567
Au 7.09892 23.9976 19.8378
Au 22.2521 7.81188 27.3561
Au 6.8387 25.4095 17.4749
Au 18.84 20.5201 21.9352
Au 20.6558 21.2252 8.90951
Au 26.0144 19.5849 10.1902
Pd 21.4327 20.9776 22.706
Au 20.9116 15.1843 24.4741
Au 17.7746 27.3993 21.7602
Au 23.7373 18.4529 5.44619
Pd 16.2186 9.32939 27.4699
Au 14.1627 20.8961 21.4799
Au 13.8585 33.8973 21.4649
Pd 32.1675 20.6451 18.6009
Au 18.5308 34.3236 14.5445
Pd 14.7636 16.1246 28.2113
Au 19.7812 7.80798 17.3537
Pd 23.9434 14.2598 13.9265
Au 24.5343 11.7404 12.2901
Au 7.79351 12.0132 20.8198
Au 31.7031 17.4553 15.0097
Au 20.7306 28.3392 11.3345
Pd 21.7679 14.5087 31.8146
Au 19.1588 20.4398 28.713
Au 16.5353 34.1069 21.6733
Pd 19.4144 20.9594 6.44569
Pd 21.6138 32.0684 26.5113
Au 12.8549 23.0985 22.4662
Pd 19.9501 23.9111 30.599
Au 25.115 10.9021 26.5756
Au 31.6995 15.6889 17.7071
Pd 12.3305 15.3576 29.1632
Au 20.9767 13.6528 29.4074
Au 17.1543 16.3099 20.2373
Au 27.05 13.7528 19.6047
Au 15.9336 24.1809 18.4844
Au 17.5998 24.9751 6.25133
Au 17.4013 24.7835 29.6208
Au 29.3489 15.7425 24.1579
Au 14.7309 5.96937 21.9364
Au 12.6672 20.7385 18.3204
Au 9.1076 10.5552 22.6384
Au 14.2558 15.4162 31.0498
Au 23.2399 32.6461 24.2754
Au 28.1985 23.0297 8.02248
Pd 21.9047 21.3515 11.6098
Au 6.40595 19.8851 22.2915
Au 21.1165 25.6485 32.5022
Au 21.8237 14.5048 6.4088
Au 24.4637 22.4462 18.6964
Au 10.3911 15.0289 27.3199
Au 14.5945 12.6908 17.2209
Pd 13.7342 25.966 14.3649
Au 29.9023 25.043 16.6919
Au 31.3882 16.1527 22.4147
Au 29.5705 29.6597 15.7645
Au 28.7124 20.4555 22.3572
Au 26.2325 17.2985 5.99091
Au 7.78222 15.661 17.693
Au 12.3231 11.0624 28.9048
Au 7.68273 19.0651 19.7943
Pd 21.0718 16.303 22.0142
Au 8.86477 20.8844 21.7005
Pd 27.9979 24.5344 14.7727
Pd 11.3468 11.7661 15.4127
Au 18.5641 15.0885 22.6039
Au 27.7757 26.0479 21.3522
Pd 20.228 16.2741 33.1734
Au 6.47825 13.6181 18.9903
Pd 16.1994 19.022 21.3194
Au 17.077 18.6737 26.5567
Au 19.9335 23.5157 33.4524
Au 19.5673 13.1057 6.94733
Pd 13.3636 26.9559 27.5436
Pd 11.9394 28.3961 29.1307
Pd 23.593 14.3865 9.20221
Pd 16.1845 23.5482 27.1258
Au 21.9855 12.2569 7.99008
Au 28.8536 12.5568 13.6505
Au 25.8317 13.8907 30.5644
Au 10.0587 12.5784 28.4784
Au 17.6179 24.5889 9.13063
Au 16.1917 30.7491 27.584
Au 11.0046 9.3638 24.0886
Au 29.0445 17.6673 21.8579
Au 28.5259 9.91036 20.4233
Au 28.7191 21.9575 20.1389
Pd 16.8316 32.9536 25.9993
Pd 19.2544 20.8685 15.5277
Au 23.0202 29.1737 15.9501
Au 14.9661 20.0881 30.3222
Pd 24.0481 23.2349 13.9967
Au 15.6974 30.1153 12.7751
Au 15.1798 6.93939 27.2385
Au 24.479 34.4158 19.5101
Au 27.3116 17.5467 8.68395
Au 6.35616 18.002 17.5898
Au 20.7841 22.1525 3.99861
Pd 22.6995 31.6585 12.2487
Au 10.6546 31.1055 19.1101
Au 13.4232 22.032 31.6299
Au 13.8002 29.2077 10.0616
Au 10.6755 29.5229 21.6358
Pd 22.1664 29.8718 20.1481
Au 10.1198 17.1605 25.6314
Pd 15.0069 22.7533 29.3875
Au 19.1248 18.2094 5.65452
Pd 29.5313 20.5752 17.8377
Au 18.1562 7.7 30.9309
Au 13.7643 15.6424 23.5653
Au 11.7392 31.8915 16.6113
Au 15.3046 24.7921 7.70497
Pd 17.7947 26.7583 11.5339
Au 12.9367 29.9912 12.3565
Au 33.1862 21.0114 23.2119
Au 26.3171 24.8359 7.54202
Au 19.1454 15.4691 5.72774
Au 25.6196 11.5926 29.1893
Au 23.5544 20.6093 13.73
Au 23.9126 23.8341 6.97121
Au 9.1171 26.4032 24.3755
Pd 19.7845 14.4118 11.5094
Au 6.71948 20.7103 13.7123
Au 20.0854 19.0186 17.4798
Pd 27.6664 19.2856 19.9348
Au 14.0016 11.1804 14.6229
Au 11.3262 23.1796 18.081
Au 24.1558 28.1891 21.1951
Pd 15.1094 25.6083 28.872
Pd 29.284 24.6683 19.6538
Au 26.8209 29.5567 15.2055
Au 17.6947 31.1264 17.3412
Au 20.875 12.0794 31.8775
Au 20.371 35.5549 19.162
Au 14.9666 24.3112 31.5109
Au 24.858 25.4322 21.0065
Au 22.0834 14.5508 18.5102
Au 8.26216 15.0913 25.7394
Au 26.4909 19.2989 30.6684
Au 32.3674 20.1072 15.8815
Au 31.4637 18.9243 22.7114
Pd 14.6309 27.5964 12.1174
Au 14.26 19.948 10.1902
Au 16.1094 11.2438 19.187
Pd 13.4846 18.1265 14.2561
Au 23.0555 30.3746 30.4465
Au 7.31026 14.6183 21.4206
Pd 28.0708 27.5058 11.1028
Au 12.4378 13.2312 27.2545
Au 16.5573 27.5281 14.1042
Pd 13.0746 22.2581 10.9415
Au 16.5546 5.96489 17.1433
Au 21.8272 11.9344 20.268
Au 29.2531 11.1157 22.8455
Pd 20.4205 27.8797 21.0366
Pd 14.2026 13.2649 29.3901
Au 18.3762 11.9243 32.9718
Au 27.9981 31.4086 13.8095
Au 22.5375 17.0699 19.5613
Au 21.5476 16.9279 5.25159
Pd 17.1514 29.9439 22.4268
Au 13.3828 32.295 23.5964
Au 19.9703 6.54811 26.9061
Au 10.4052 19.6858 29.033
Au 19.5687 26.8608 25.9391
Pd 16.9524 14.2743 6.6255
Au 28.3342 14.9536 31.1807
Au 20.9346 13.0975 22.7356
Pd 24.4171 12.7266 19.724
Pd 17.6454 22.2669 30.0858
Pd 16.121 32.1571 23.5431
Au 23.5183 11.822 14.9242
Au 17.5696 31.8578 20.2037
Au 11.001 13.2533 10.5352
Au 12.8375 23.7415 15.553
Pd 18.1117 13.4939 28.025
Pd 17.9115 29.1582 19.6653
Au 15.7037 29.8542 16.0319
Au 14.545 22.851 13.4619
Au 10.9231 16.9072 13.2703
Au 19.252 27.7463 13.7477
Au 23.8864 9.79355 18.7595
Pd 19.6065 33.0693 17.8397
Au 27.5872 12.0588 27.2515
Pd 14.9581 8.71016 22.2396
Au 10.4808 8.45663 21.5461
Au 22.026 17.186 9.89594
Au 17.6437 19.1221 10.7697
Au 23.6369 30.7984 27.8534
Au 26.0712 32.5578 23.6634
Au 17.3956 13.639 20.0718
Au 18.8506 19.1489 8.3101
Pd 23.3966 23.6703 16.5398
Au 29.4104 14.1637 18.0731
Au 19.675 9.75755 31.5047
Pd 27.6758 21.7312 10.5778
Pd 22.5005 28.4844 28.5875
Au 7.3004 22.9182 15.049
Pd 16.418 15.2752 32.6709
Au 16.305 11.6239 28.825
Au 11.042 25.1689 13.761
Au 19.7632 21.9923 24.5269
Au 23.0484 17.4781 24.0852
Au 16.6117 4.68063 23.3476
Au 15.6244 10.8522 9.87395
Pd 9.37618 20.9638 14.2586
Au 16.9042 7.27183 20.7957
Au 19.1417 35.1919 21.7474
Au 30.0398 12.4862 16.0487
Au 26.6225 8.40894 15.303
Au 25.513 18.5295 24.7554
Au 32.5321 22.199 25.8007
Au 17.4694 16.8349 7.83208
Au 13.3353 24.8767 11.9577
Pd 20.2496 29.5467 15.9799
Au 11.5436 16.871 20.4599
Au 14.322 11.1398 26.7943
Au 23.9127 20.9741 28.3864
Au 28.2751 27.2675 15.8682
Au 23.9035 7.18074 20.3222
Au 11.5718 19.6643 9.96781
Pd 17.9837 19.1115 19.4093
Au 8.91915 16.0274 23.2989
Au 24.8832 8.21935 27.2458
Au 26.5978 11.719 21.7652
Au 29.5919 27.1148 25.7536
Au 28.3397 25.6029 30.1496
Au 5.086 18.7654 20.0923
Au 12.533 14.9328 12.3309
Au 10.5675 14.5905 21.852
Au 25.9294 21.3237 20.8598
Au 29.9956 25.6763 27.9886
Au 17.6228 34.697 24.0426
Pd 18.3547 32.0923 12.8354
Pd 10.0897 21.556 11.2245
Au 26.2703 32.8921 18.2135
Au 24.2449 33.7574 22.0811
Au 17.2295 9.90552 21.2468
Pd 17.3497 15.4319 15.4055
Au 22.9103 11.9456 17.547
Au 17.9145 34.6338 19.3317
Au 17.6821 14.0587 13.0997
Pd 20.018 33.0357 20.468
Pd 11.9973 23.1633 25.3029
Au 6.59958 16.3514 15.3134
Au 11.947 31.8964 21.4292
Au 21.764 16.6809 28.6881
Pd 17.9095 9.95168 23.8502
Pd 24.0268 20.2006 23.0225
Au 12.5694 20.8832 15.3228
Au 11.3393 21.8708 20.5325
Au 16.6748 17.898 29.1803
Au 24.8502 16.8709 10.1289
Au 9.16537 28.8314 19.5309
Pd 17.2644 26.0341 27.0612
Au 23.046 26.5145 16.433
Pd 17.6789 19.101 23.9313
Au 22.395 10.3923 26.3713
Au 33.6463 22.3665 17.3086
Pd 21.9826 19.7913 31.7043
Au 23.4948 16.4901 16.9268
Au 13.553 10.6301 24.1017
Au 11.9667 18.2031 17.7024
Au 33.1785 19.6707 20.8339
Pd 22.2916 31.0657 17.6918
Au 26.2829 8.39658 20.1475
Pd 17.1143 19.7993 16.8634
Au 18.1232 30.8149 24.8855
Pd 28.4649 23.003 17.6566
Pd 20.695 8.41284 24.8167
Pd 24.4404 10.0762 21.2824
Au 28.6166 21.8689 15.2673
Au 15.5355 18.4837 12.3917
Au 26.5715 27.0886 8.88814
Pd 25.4297 27.1449 11.3241
Au 15.3502 28.7418 20.7086
Au 20.3134 8.74956 11.9242
Pd 15.5573 17.7354 31.694
Pd 20.0558 15.0917 27.0358
Au 19.2215 26.7274 18.8391
Au 6.45547 15.3715 23.8651
Pd 10.278 19.5507 24.3328
Au 18.5112 5.91752 18.93
Au 23.7 20.5528 33.7344
Au 22.3807 26.2747 22.2794
Au 24.276 27.8042 23.9538
Pd 13.8139 12.9191 32.1373
Au 33.62 22.322 20.3406
Pd 18.3173 14.4792 8.87357
Au 7.49319 26.7227 19.8141
Au 20.08 18.452 30.3655
Au 10.8306 18.7487 15.2873
Pd 15.2152 17.0691 25.5066
Au 6.13485 21.3593 19.9723
Au 26.564 28.2552 22.4128
Au 17.7485 7.06849 28.3439
Au 21.0903 10.8002 29.3623
Au 16.7824 19.3526 33.6437
Au 24.1394 26.2261 28.958
Au 23.9976 23.4086 27.0605
Pd 15.446 25.9507 10.2452
Au 20.249 25.1354 20.7749
Au 29.4208 16.7751 19.2312
Au 23.4794 14.877 23.6387
Au 14.6743 7.98218 16.8378
Au 25.1775 15.8484 25.5327
Pd 18.7601 12.0779 30.1613
Au 16.3284 28.6396 10.1401
Pd 20.6191 19.6206 20.0583
Pd 9.41308 23.6167 21.3156
Pd 30.8993 21.2049 13.8705
Pd 19.0722 21.2875 11.7545
Au 8.06582 11.6781 17.9198
Pd 27.2193 25.3762 17.4629
Au 29.6274 16.2078 13.4901
Au 21.7734 19.1055 7.48456
Pd 28.4214 25.4725 23.93
Au 17.4666 8.05323 15.7225
Au 23.6332 33.4821 14.0681
Au 11.1598 19.5742 12.6976
Au 5.00604 21.5795 15.503
Au 20.7998 24.3101 25.6646
Au 13.2065 29.8719 17.1323
Au 16.7327 16.8518 5.37156
Pd 15.7915 14.1578 22.2721
Pd 9.9441 17.7446 10.9702
Au 24.8369 6.25531 25.0161
Au 27.5865 9.01492 17.7741
Au 27.2487 12.6112 11.4963
Au 23.8323 25.8203 13.0402
Au 12.5745 26.8987 10.3595
Au 10.4789 29.319 17.132
Pd 13.3855 25.1358 17.8249
Au 26.6119 29.8119 27.0651
Pd 15.6199 24.3308 15.5165
Au 24.2825 28.6485 9.3278
Au 17.1644 5.69676 25.8734
Au 21.8094 23.971 28.4904
Au 24.0533 26.3946 7.96386
Au 29.813 23.4689 10.2385
Au 17.2366 22.4922 16.742
Au 9.69748 24.6672 26.3809
Au 8.50779 25.3087 15.1742
Pd 18.846 22.865 27.5518
Au 15.2037 19.7712 24.8757
Au 26.4447 21.9869 29.8585
Au 16.8348 22.4686 7.08656
Pd 10.2681 23.0875 15.4177
Pd 19.8527 16.9121 19.4208
Au 27.8343 13.4773 23.3836
Pd 13.2699 11.5864 19.5374
Au 25.413 10.5178 16.4885
Au 17.8458 16.9714 34.3783
Au 20.4746 25.6409 12.3297
Pd 10.9128 24.9282 23.1375
Au 7.42328 20.6605 16.7463
Pd 19.1004 21.2977 18.282
Au 15.0338 25.6859 25.6177
Au 31.6829 17.0256 25.0248
Au 14.9751 18.34 6.83606
Au 14.0322 18.3419 22.8214
Au 21.7651 21.8628 15.2843
Au 13.2407 26.5053 30.4986
Pd 17.8802 11.2027 26.4717
Pd 17.4645 25.0048 20.6562
Pd 17.1004 33.7154 16.8713
Au 25.9964 26.8046 30.7707
Pd 20.7428 31.2689 24.0662
Au 5.97136 16.2417 19.6222
Au 19.5149 18.9673 33.1683
Au 31.9561 17.6381 27.743
Pd 21.732 24.8632 8.39954
Au 24.221 15.4963 32.2124
Pd 20.4217 12.3278 27.1203
Au 12.7808 29.7231 19.9276
Au 27.8604 24.9035 26.493
Pd 22.0753 31.6362 15.1385
Au 21.5843 26.2419 30.0033
Au 12.7389 7.55676 23.26
Pd 21.9176 27.6259 13.962
Au 11.6007 10.8104 26.2839
Pd 18.6537 32.5716 22.7611
Au 12.9681 15.6969 26.2597
Au 11.1914 25.7822 28.3917
Au 13.7386 31.4082 14.5331
Pd 18.1495 29.0299 26.8606
Au 28.6459 22.9504 31.3461
Au 31.075 14.7331 15.2157
Au 19.093 16.7923 10.1909
Au 28.229 31.4269 19.4597
Au 17.8546 16.9235 12.8874
Au 19.7825 12.1322 9.61487
Pd 20.3049 16.7979 7.71665
Au 8.03471 14.2723 14.0633
Au 8.6246 13.2406 23.3874
Au 11.5 29.8225 14.6981
Au 12.2406 12.2382 12.7898
Au 18.4247 14.3154 34.2766
Pd 19.9204 27.9717 28.5286
Au 28.0712 17.7202 28.8552
Au 22.4633 16.5598 14.3552
Au 9.57356 12.381 12.7975
Au 19.6983 21.3634 31.6066
Pd 12.0128 14.1297 19.6862
Au 24.5988 18.2704 15.0905
Pd 24.9255 10.5117 23.8717
Au 26.0407 19.3423 27.8406
Au 18.7718 17.7917 21.7445
Pd 8.80691 16.5395 20.1364
Au 20.8035 28.794 30.8963
Au 28.3336 20.0546 12.9085
Au 4.91595 20.2426 17.7976
Au 22.8199 9.16115 16.0268
Au 26.3801 10.9931 19.1197
Au 11.1723 27.9667 23.7692
Pd 18.938 14.268 31.6942
Au 23.1309 30.1374 25.1744
Pd 21.6273 19.3263 28.0865
Pd 14.2414 19.778 32.9409
Pd 23.2494 19.7938 9.80244
Pd 27.0642 26.8078 13.5134
Au 17.2489 27.62 24.6518
Pd 21.3541 13.1999 13.4623
Au 25.1821 28.9549 29.3002
Au 20.3431 22.3767 20.5329
Au 25.3798 18.2537 17.7663
Au 23.4239 27.8957 31.2227
Au 11.6684 9.26246 19.0874
Au 18.9151 31.6224 27.3631
Pd 24.7173 18.9647 20.2091
Au 22.5381 12.7478 25.0886
Au 20.8566 6.62394 20.3292
Pd 13.5242 27.9787 25.0513
Au 27.9873 18.4455 17.4202
Pd 13.4379 16.0291 18.403
Pd 30.9793 22.3725 16.4222
Au 21.298 34.1115 15.9332
Au 14.9747 23.1328 24.5056
Au 11.541 22.1764 8.87466
Au 28.8271 22.7968 12.7066
Au 23.7815 9.23598 11.3154
Pd 25.6007 23.429 24.8417
Au 21.6419 27.8393 8.38873
Au 6.67927 17.2779 21.9774
Au 24.4623 18.3238 32.4016
Au 14.879 6.45088 19.1413
Au 26.9883 10.3985 13.1625
Au 14.3286 32.0739 26.0203
Au 24.1906 20.8791 16.4183
Au 27.4773 17.2941 26.1662
Au 15.5602 9.04761 24.9317
Au 15.3725 29.9292 24.7975
Au 16.0678 11.9588 24.5433
Au 28.7219 17.588 31.436
Au 19.9555 10.555 21.9917
Au 16.4869 10.9793 12.6761
Au 20.1322 8.57567 14.7111
Au 12.8001 7.35285 20.6087
Au 25.6275 14.3525 21.8366
Pd 15.5487 20.621 14.706
Au 23.5369 9.90237 28.8556
Au 23.4103 28.9909 12.0472
Pd 26.6448 20.9448 18.1337
Au 16.08 26.6357 31.2821
Pd 25.3826 25.3411 15.2663
Au 16.4318 32.2835 14.6964
Au 18.223 21.558 33.7703
Pd 18.2594 9.71033 29.1017
Pd 32.2206 23.4928 23.4579
Au 17.9344 28.312 16.8499
Au 10.8852 17.3607 30.5002
Au 25.9291 19.9088 5.5978
Au 9.47972 13.7162 16.6353
Au 13.5974 25.5056 23.3284
Pd 26.372 21.9464 13.6392
Au 20.9837 5.1598 17.8675
Pd 28.2522 14.4909 15.395
Au 24.0051 11.3579 9.44504
Pd 25.7587 15.7188 15.3345
Au 20.1314 11.1837 24.7194
Au 24.0082 28.759 18.5305
Pd 19.218 8.74593 19.8064
Au 19.7482 26.1848 9.75094
Au 26.2556 24.5586 28.7579
Au 20.6979 19.8555 13.4593
Au 23.5031 8.45563 24.941
Au 22.5922 26.5695 19.5845
Au 27.5047 17.594 14.4859
Au 25.2255 25.7502 26.3456
Pd 28.7875 23.3014 28.6195
Au 30.7727 23.9955 14.1984
Pd 10.5119 22.0603 23.3682
Au 31.9693 20.4541 27.9804
Pd 16.0517 21.8039 32.2027
Au 15.9053 8.64072 11.3543
Au 21.337 24.8088 17.926
Au 13.067 24.5246 9.21178
Au 13.4667 29.7894 27.3281
Au 18.8714 20.251 3.89211
Au 21.5844 21.5708 29.6926
Au 16.5206 26.9285 18.9182
Au 8.0808 16.9103 13.0151
Au 21.0664 21.0496 34.0057
Pd 26.3263 27.2766 19.4637
Au 18.0646 24.2229 25.178
Au 22.5762 23.8995 11.7728
Au 23.7108 18.1086 26.823
Au 29.8827 21.69 26.6924
Pd 21.9154 9.18262 20.6314
Pd 21.111 10.0501 18.2117
Au 14.7003 13.8 19.8167
Au 18.2184 22.6939 4.81777
Pd 9.32846 16.2944 15.4743
Au 18.4231 30.037 29.4795
Pd 19.2199 17.7577 27.8424
Au 11.6853 13.0124 30.5219
Au 27.6789 20.1754 25.7466
Au 16.1994 12.8289 14.9374
Au 26.1526 10.3753 10.5951
Au 25.651 27.583 16.8035
Au 17.4126 12.7103 10.7738
Au 30.4872 21.0711 11.2797
Au 19.5487 19.7693 26.0171
Au 26.7813 29.4956 9.93955
Au 28.0857 31.6802 16.6521
Au 22.0719 34.9072 21.077
Au 22.6798 26.5387 10.5604
Au 29.8374 13.6168 27.7778
Au 30.6058 13.559 22.8772
Au 26.1025 22.4357 6.18639
Au 23.6436 21.3491 4.75495
Pd 21.7098 6.57452 15.715
Au 12.92 17.4302 32.5927
Au 19.0141 5.77424 15.9895
Pd 21.354 23.7488 22.8479
Au 14.3764 16.2778 20.9659
Au 22.2153 26.2884 27.004
Au 15.5378 23.3133 10.4681
Au 15.9073 10.3433 16.5246
Pd 23.9541 20.9352 7.33868
Au 28.8489 28.8319 13.3279
Au 5.93391 22.8319 17.64
Pd 24.2627 20.941 31.1305
Au 16.746 15.442 10.8679
Au 17.2617 21.518 25.5803
Au 13.0661 10.2855 17.0567
Pd 11.8027 17.7279 27.7908
Pd 12.4034 27.41 16.2702
Au 27.5251 17.417 11.6892
Au 13.953 28.6649 14.4828
Au 13.7745 22.9583 19.5677
Au 13.0998 8.43268 25.8478
Au 19.0632 28.7632 9.23213
Au 31.0535 25.9767 23.5241
Pd 9.97105 9.93146 16.917
Pd 9.2507 18.3377 22.0716
Pd 23.7261 12.4391 22.4229
Au 20.782 16.5047 16.7724
