923
Atoms. Timestep: 20115
Au 19.754 19.7771 19.7652
Au 22.0586 19.7928 18.351
Au 22.0447 19.7952 21.1957
Au 17.4685 19.751 18.3291
Au 17.4551 19.7627 21.1762
Au 18.3305 22.0711 19.7473
Au 21.1747 22.0731 19.748
Au 18.3367 17.4743 19.7697
Au 21.1816 17.493 19.778
Au 19.7541 18.3686 22.0766
Au 19.7371 21.1966 22.0605
Au 19.7546 18.3518 17.4747
Au 19.7636 21.1875 17.4644
Pd 24.3475 19.7901 16.9467
Au 24.4099 19.8115 19.7655
Au 24.3273 19.8147 22.6397
Pd 15.1971 19.7306 16.9058
Au 15.1044 19.7426 19.7358
Au 15.1563 19.7465 22.5952
Pd 16.9082 24.3592 19.734
Au 19.7459 24.4469 19.7366
Au 22.5846 24.3676 19.7272
Pd 16.9289 15.185 19.774
Au 19.7574 15.1159 19.7847
Au 22.6123 15.1995 19.7933
Au 19.7581 16.9691 24.3945
Au 19.7403 19.7842 24.4603
Au 19.73 22.6052 24.3597
Au 19.7597 16.9355 15.1776
Au 19.7684 19.7484 15.0993
Au 19.7765 22.5904 15.1614
Au 22.0857 18.3659 23.5789
Au 22.0712 21.2235 23.5617
Au 22.1018 18.3409 16.0077
Au 22.1115 21.2211 16.0009
Au 17.4175 18.3292 23.5536
Au 17.402 21.205 23.5431
Pd 17.4441 18.2965 15.9982
Au 17.4374 21.1705 15.9818
Pd 23.5219 22.1158 18.3145
Au 23.5222 22.1284 21.1982
Au 15.9915 22.0846 18.2934
Au 15.9786 22.1042 21.186
Au 23.5474 17.4725 18.3307
Au 23.5361 17.4695 21.2416
Au 16.0101 17.4157 18.3019
Au 15.9859 17.4053 21.2138
Au 18.2902 23.5617 22.0723
Au 21.1786 23.5548 22.0745
Au 18.3057 16.0125 22.1111
Au 21.208 16.0188 22.1334
Au 18.3204 23.5467 17.4091
Au 21.2168 23.5478 17.419
Au 18.3192 15.9977 17.4365
Au 21.2141 16.0034 17.4451
Au 26.6479 19.7739 15.5436
Au 26.7466 19.7894 18.3453
Au 26.7358 19.8101 21.2199
Au 26.609 19.8173 24.0618
Au 12.8997 19.7133 15.473
Au 12.7765 19.7271 18.3049
Au 12.7598 19.7275 21.1815
Pd 12.8573 19.74 24.0067
Au 15.4697 26.6541 19.7372
Au 18.3201 26.7708 19.7288
Pd 21.1713 26.7706 19.7229
Au 23.9911 26.6595 19.7148
Au 15.525 12.8806 19.7799
Au 18.3441 12.7718 19.7872
Au 21.2052 12.7733 19.7871
Au 24.0466 12.9 19.8041
Pd 19.7555 15.5712 26.693
Pd 19.7386 18.3718 26.7777
Pd 19.7307 21.1972 26.765
Au 19.7341 24.0302 26.6487
Pd 19.7949 15.5103 12.9056
Pd 19.793 18.3075 12.7884
Pd 19.7937 21.1613 12.7753
Au 19.7915 23.9918 12.8464
Pd 24.3835 18.3682 25.0211
Au 22.0875 16.943 25.9105
Pd 24.3669 21.2454 25.013
Pd 22.0824 19.798 25.9625
Au 22.0805 22.6445 25.8844
Au 24.4178 18.3165 14.5764
Au 22.1171 16.8903 13.6818
Au 24.4081 21.2257 14.5562
Au 22.1123 19.7582 13.5778
Au 22.1231 22.621 13.6423
Au 15.0945 18.3074 24.9821
Au 17.42 16.9165 25.8911
Au 15.0684 21.2062 24.9793
Pd 17.3883 19.7702 25.951
Au 17.376 22.6399 25.8651
Au 15.1654 18.2548 14.5459
Pd 17.4515 16.8648 13.6891
Au 15.1306 21.1713 14.5261
Au 17.4458 19.6989 13.5928
Au 17.4454 22.6077 13.646
Au 24.9564 24.4353 18.287
Au 25.8356 22.1383 16.8968
Pd 24.9458 24.4429 21.1942
Au 25.9134 22.1731 19.7692
Pd 25.8254 22.1485 22.6542
Au 14.5297 24.4103 18.2759
Au 13.6709 22.0794 16.8407
Au 14.5202 24.4248 21.1875
Au 13.5698 22.1127 19.7369
Au 13.6447 22.0981 22.6389
Au 25.0006 15.1428 18.3303
Pd 25.8662 17.4452 16.9074
Au 25 15.1476 21.287
Au 25.9438 17.4373 19.7871
Au 25.8516 17.4507 22.7075
Au 14.576 15.0913 18.3091
Au 13.6987 17.3796 16.8652
Pd 14.5527 15.1006 21.2297
Au 13.5948 17.359 19.7662
Au 13.6598 17.3853 22.6609
Au 18.2691 25.0123 24.3981
Au 16.8459 25.8894 22.0768
Au 21.1703 25.0104 24.3951
Au 19.7373 25.9906 22.0952
Au 22.5943 25.8935 22.0623
Au 18.3087 14.5894 24.4516
Au 16.8752 13.6978 22.1304
Au 21.2212 14.5803 24.4772
Au 19.7695 13.5991 22.1656
Au 22.6651 13.693 22.1811
Pd 18.3291 24.9708 15.0731
Au 16.8842 25.8622 17.3775
Au 21.2233 24.9764 15.0961
Au 19.776 25.9599 17.371
Pd 22.6229 25.8755 17.3961
Au 18.3412 14.551 15.1083
Au 16.9037 13.6713 17.4221
Au 21.2489 14.5501 15.1212
Au 19.7868 13.579 17.4174
Au 22.6613 13.6656 17.4269
Au 23.596 15.9867 23.6524
Au 23.5622 23.5938 23.5798
Au 23.6076 15.9464 15.9627
Pd 23.575 23.5947 15.9436
Pd 15.9285 15.9593 23.6038
Au 15.9002 23.5966 23.5866
Pd 15.9785 15.923 15.9414
Au 15.947 23.5726 15.9015
Au 28.9602 19.7528 14.1229
Pd 29.0923 19.7719 16.9355
Au 29.1215 19.78 19.7822
Au 29.0823 19.7935 22.6378
Au 28.9358 19.8057 25.4683
Pd 10.5984 19.6963 14.0328
Au 10.4378 19.7085 16.8675
Au 10.3922 19.7068 19.7418
Au 10.4259 19.7184 22.6055
Au 10.5566 19.7379 25.3981
Au 14.0291 28.953 19.7281
Au 16.8719 29.1043 19.7345
Au 19.7523 29.1332 19.7228
Au 22.5819 29.0927 19.7228
Au 25.4141 28.9635 19.7211
Au 14.1251 10.5414 19.778
Au 16.9515 10.4068 19.7805
Au 19.7948 10.3907 19.7769
Au 22.6448 10.438 19.7874
Au 25.4886 10.6033 19.798
Au 19.7376 14.1578 28.98
Pd 19.7369 16.9545 29.0899
Au 19.7294 19.7858 29.1189
Au 19.7405 22.6361 29.0809
Au 19.7332 25.4677 28.9434
Au 19.8266 14.0879 10.6256
Pd 19.8193 16.878 10.4935
Au 19.8256 19.7092 10.4552
Au 19.8253 22.5685 10.4478
Pd 19.7832 25.3928 10.5337
Au 26.6922 18.3346 26.4517
Au 24.4258 16.9029 27.3542
Pd 22.093 15.5093 28.2161
Au 26.6656 21.2735 26.4606
Au 24.4129 19.8199 27.4358
Au 22.097 18.3697 28.3173
Pd 24.3855 22.6979 27.3479
Au 22.1095 21.2492 28.3043
Pd 22.0867 24.1032 28.1833
Au 26.7297 18.28 13.1366
Pd 24.4468 16.8503 12.2393
Au 22.155 15.4583 11.3953
Au 26.7273 21.2179 13.1097
Au 24.4511 19.745 12.1182
Pd 22.1629 18.2933 11.2494
Pd 24.4415 22.6405 12.1796
Pd 22.1577 21.1792 11.2263
Pd 22.1359 24.0359 11.3273
Au 12.7705 18.3077 26.3951
Au 15.0744 16.8789 27.3359
Pd 17.4072 15.5 28.2002
Pd 12.7499 21.2012 26.3898
Au 15.0242 19.7803 27.4118
Au 17.3763 18.3406 28.3138
Au 15.0191 22.6708 27.3036
Au 17.3442 21.2115 28.307
Au 17.3538 24.0993 28.1753
Au 12.8367 18.2428 13.086
Pd 15.1403 16.817 12.199
Au 17.4777 15.4317 11.3897
Au 12.8112 21.1581 13.0637
Au 15.1034 19.6905 12.0951
Au 17.4469 18.2579 11.242
Au 15.1009 22.6087 12.1583
Au 17.4353 21.1345 11.2151
Au 17.4382 24.027 11.2991
Pd 26.4034 26.7507 18.2786
Pd 27.3199 24.4766 16.8683
Au 28.191 22.1362 15.4805
Au 26.3886 26.7599 21.1938
Au 27.3924 24.5059 19.7476
Au 28.3046 22.1675 18.328
Au 27.293 24.4791 22.6505
Au 28.2918 22.1938 21.2159
Au 28.153 22.1743 24.0904
Au 13.0475 26.7269 18.2628
Au 12.1674 24.4143 16.797
Au 11.3414 22.064 15.3946
Pd 13.0574 26.7263 21.1858
Au 12.056 24.464 19.732
Au 11.1885 22.1097 18.2801
Au 12.1659 24.431 22.6461
Au 11.1777 22.1122 21.1825
Au 11.3246 22.0883 24.0603
Au 26.4577 12.8192 18.34
Au 27.3544 15.1005 16.9
Au 28.1941 17.4177 15.4898
Au 26.4572 12.8475 21.2942
Au 27.4425 15.0892 19.8233
Au 28.3197 17.4132 18.3547
Pd 27.3405 15.1229 22.7226
Au 28.3065 17.3966 21.2511
Au 28.174 17.4258 24.1067
Au 13.1299 12.7551 18.2927
Au 12.2214 15.0288 16.8455
Au 11.3566 17.354 15.4213
Au 13.1197 12.7732 21.2426
Au 12.1094 15.013 19.7696
Au 11.2073 17.335 18.3157
Au 12.1913 15.0684 22.6724
Au 11.1993 17.3379 21.2073
Pd 11.3315 17.3973 24.064
Au 18.2591 26.4637 26.7029
Au 16.8192 27.3665 24.4125
Pd 15.3952 28.2025 22.0885
Au 21.1784 26.4629 26.7107
Pd 19.7151 27.4669 24.4368
Au 18.2888 28.3444 22.1211
Au 22.5888 27.3784 24.3995
Pd 21.1607 28.3519 22.0988
Au 24.0193 28.2159 22.0773
Au 18.2977 13.167 26.7714
Au 16.8839 12.211 24.4781
Au 15.4767 11.3362 22.1532
Au 21.2163 13.1569 26.7916
Au 19.784 12.1154 24.5226
Au 18.3463 11.2038 22.1836
Pd 22.68 12.2226 24.5113
Au 21.2356 11.219 22.1946
Au 24.1098 11.3783 22.1926
Au 18.3247 26.3911 12.7403
Au 16.8729 27.3153 15.0158
Au 15.4228 28.1881 17.3493
Au 21.2274 26.3938 12.7488
Au 19.7712 27.4258 15.0183
Au 18.3269 28.3329 17.3317
Au 22.6433 27.3323 15.0619
Pd 21.1973 28.3236 17.3542
Au 24.0443 28.1921 17.367
Pd 18.3698 13.0918 12.81
Au 16.9162 12.1811 15.0866
Au 15.5076 11.3176 17.4076
Au 21.2763 13.1162 12.8287
Au 19.8241 12.0901 15.0832
Au 18.378 11.1922 17.404
Pd 22.7043 12.2032 15.1093
Pd 21.2459 11.2092 17.4056
Au 24.1002 11.3582 17.4242
Pd 25.9305 15.9511 25.0857
Au 25.8863 23.6343 25.0675
Pd 25.0713 13.6398 23.68
Au 25.0012 25.9676 23.5984
Au 23.6268 14.518 25.9813
Au 23.5692 25.062 25.947
Au 25.9385 15.9069 14.5111
Au 25.9255 23.6256 14.4821
Pd 25.0649 13.5961 15.9436
Au 25.0283 25.9419 15.9114
Pd 23.6377 14.4848 13.6273
Au 23.6127 25.0284 13.5715
Pd 13.5692 15.913 25.0574
Pd 13.5457 23.6069 25.0342
Au 14.4733 13.6096 23.6359
Au 14.4272 25.9409 23.591
Au 15.9017 14.5117 25.9584
Pd 15.8621 25.0683 25.9209
Au 13.648 15.8633 14.4633
Pd 13.5876 23.5723 14.421
Pd 14.5183 13.5647 15.9123
Au 14.4489 25.9187 15.843
Au 15.9684 14.4598 13.6114
Au 15.9264 25.0243 13.5405
Au 31.2648 19.726 12.7006
Pd 31.385 19.7566 15.4972
Au 31.4674 19.7585 18.3518
Au 31.4869 19.7543 21.2154
Au 31.4314 19.8011 24.0576
Au 31.2521 19.8065 26.8841
Au 8.32561 19.682 12.5848
Au 8.13445 19.6809 15.4143
Pd 8.08296 19.692 18.3027
Pd 8.07258 19.7059 21.1635
Pd 8.12187 19.7226 24.0078
Pd 8.26545 19.7467 26.7753
Au 12.5905 31.2621 19.6943
Au 15.4265 31.4496 19.705
Au 18.306 31.51 19.7073
Au 21.1869 31.4927 19.7234
Pd 24.0392 31.3927 19.7349
Pd 26.8172 31.2449 19.7339
Pd 12.7324 8.25394 19.7704
Au 15.5342 8.06678 19.779
Pd 18.3796 8.04497 19.7768
Au 21.2211 8.04637 19.7843
Au 24.1002 8.11812 19.7935
Au 26.9201 8.30687 19.7873
Au 19.7178 12.7116 31.2839
Au 19.7028 15.5341 31.4282
Au 19.7096 18.3639 31.484
Au 19.7354 21.242 31.4863
Au 19.734 24.0845 31.4164
Pd 19.7315 26.8801 31.2188
Pd 19.8449 12.6683 8.34531
Au 19.8327 15.4491 8.17407
Pd 19.8182 18.2808 8.14434
Au 19.8023 21.1205 8.0842
Au 19.8081 23.9721 8.09704
Au 19.7751 26.7948 8.23167
Au 29.0316 18.3508 27.8995
Au 26.7728 16.8855 28.833
Au 24.446 15.4658 29.7108
Au 22.0976 14.071 30.5307
Au 29.0164 21.283 27.8886
Au 26.768 19.8363 28.9499
Au 24.476 18.3814 29.8656
Au 22.1101 16.9401 30.6855
Au 26.6888 22.7502 28.8111
Pd 24.4473 21.2947 29.814
Au 22.1378 19.8374 30.7266
Pd 24.3869 24.1314 29.6549
Pd 22.1158 22.6985 30.6313
Au 22.0948 25.5424 30.4938
Au 29.0585 18.2564 11.7116
Pd 26.7572 16.8238 10.8134
Pd 24.4685 15.4151 9.94098
Pd 22.1764 14.0256 9.09789
Au 29.0717 21.1923 11.6754
Au 26.8129 19.7083 10.649
Au 24.5267 18.259 9.76092
Au 22.189 16.8578 8.91047
Au 26.7793 22.6391 10.728
Au 24.4969 21.178 9.72072
Au 22.1863 19.7187 8.85921
Au 24.4617 24.0503 9.83078
Pd 22.1777 22.5937 8.88267
Au 22.1366 25.4412 9.0099
Au 10.4415 18.306 27.8166
Au 12.7311 16.8752 28.7903
Pd 15.0717 15.455 29.6436
Au 17.3548 14.0668 30.5038
Au 10.4247 21.1928 27.7969
Pd 12.6754 19.7723 28.8565
Au 14.9895 18.3392 29.8157
Pd 17.3467 16.9027 30.6427
Au 12.6961 22.6384 28.7445
Pd 14.9593 21.2285 29.7954
Au 17.2991 19.7779 30.7333
Au 14.9995 24.1088 29.6604
Au 17.3031 22.6627 30.6913
Au 17.3535 25.5569 30.5158
Pd 10.5399 18.2356 11.6417
Au 12.8214 16.8073 10.7328
Au 15.1594 15.3866 9.86638
Pd 17.5059 14.0107 9.06625
Pd 10.5248 21.1086 11.6258
Au 12.7733 19.6795 10.5918
Pd 15.0931 18.249 9.73454
Au 17.452 16.84 8.88641
Au 12.7794 22.5697 10.6788
Pd 15.0743 21.1274 9.71286
Au 17.4036 19.6855 8.82226
Au 15.0801 24.0196 9.78808
Au 17.3991 22.5491 8.83318
Au 17.4135 25.4441 8.96335
Au 27.836 29.0752 18.2753
Au 28.7656 26.8071 16.8585
Au 29.6817 24.4945 15.4425
Au 30.5414 22.1167 14.0402
Au 27.8179 29.113 21.2168
Au 28.8692 26.8372 19.7606
Au 29.8224 24.5308 18.3316
Au 30.7075 22.1509 16.9048
Au 28.763 26.8266 22.6645
Pd 29.7977 24.5523 21.2227
Au 30.7324 22.1965 19.7823
Au 29.6578 24.5187 24.1019
Au 30.6797 22.2156 22.6537
Au 30.509 22.1965 25.5411
Au 11.5784 29.0517 18.2311
Au 10.6646 26.7373 16.77
Pd 9.83284 24.3783 15.3507
Au 9.03373 22.0409 13.9428
Au 11.6009 29.0275 21.1664
Au 10.5398 26.7928 19.7191
Au 9.63692 24.4636 18.2401
Au 8.81656 22.0885 16.8321
Au 10.6825 26.7299 22.6328
Au 9.63001 24.4641 21.1831
Au 8.75854 22.0848 19.7167
Pd 9.82021 24.3986 24.0523
Au 8.81571 22.0973 22.6137
Pd 9.00313 22.0665 25.4475
Pd 27.8923 10.5136 18.3562
Au 28.8421 12.7611 16.9308
Au 29.7174 15.0835 15.4654
Pd 30.5038 17.4061 14.0599
Au 27.9099 10.5355 21.2588
Pd 28.9 12.7687 19.8209
Au 29.8619 15.0579 18.3973
Au 30.6804 17.4 16.9239
Au 28.8322 12.8339 22.7107
Pd 29.8094 15.0713 21.2687
Pd 30.701 17.3861 19.8228
Pd 29.6667 15.1282 24.1194
Pd 30.6446 17.4051 22.6659
Au 30.5116 17.4314 25.5142
Au 11.7013 10.4032 18.2964
Au 10.7562 12.6867 16.8348
Au 9.87611 14.9884 15.3855
Au 9.05781 17.3327 13.9521
Au 11.6878 10.4155 21.2392
Au 10.6254 12.6593 19.7618
Au 9.687 14.9709 18.3129
Au 8.8302 17.3031 16.8618
Au 10.7357 12.7185 22.6618
Pd 9.70124 14.9851 21.1987
Pd 8.80367 17.3249 19.7458
Au 9.83014 15.0748 24.0734
Au 8.82949 17.3409 22.61
Pd 9.01149 17.4153 25.4595
Au 18.2673 27.9095 29.0339
Au 16.8032 28.8428 26.7449
Au 15.3739 29.7083 24.4248
Au 13.9434 30.524 22.0881
Au 21.179 27.9039 29.0372
Au 19.7238 28.9543 26.7716
Pd 18.2633 29.8415 24.4659
Au 16.8334 30.7122 22.1358
Au 22.6411 28.8433 26.7381
Au 21.158 29.8701 24.4655
Au 19.7255 30.7613 22.1415
Pd 24.0434 29.6858 24.4068
Au 22.6241 30.7072 22.122
Pd 25.4526 30.5048 22.0635
Au 18.2634 11.7095 29.0683
Pd 16.8763 10.7925 26.7939
Au 15.457 9.84752 24.5018
Au 14.057 8.98907 22.154
Au 21.1964 11.6801 29.1093
Au 19.7307 10.6405 26.8566
Pd 18.3215 9.71219 24.5573
Au 16.9291 8.8031 22.1988
Au 22.6613 10.7664 26.8296
Au 21.2248 9.6989 24.5561
Au 19.785 8.78316 22.2036
Au 24.1151 9.88193 24.5192
Au 22.684 8.83676 22.208
Au 25.5606 9.03871 22.1667
Au 18.3052 27.8158 10.415
Pd 16.8652 28.733 12.6747
Au 15.409 29.6562 14.9597
Au 13.9626 30.5162 17.3243
Pd 21.2152 27.7951 10.4286
Au 19.7778 28.8809 12.6519
Au 18.3156 29.8379 14.9311
Au 16.8537 30.7121 17.2843
Pd 22.6532 28.7461 12.717
Pd 21.2238 29.8043 14.9755
Au 19.768 30.7466 17.2881
Au 24.0918 29.6643 15.0062
Au 22.6268 30.6939 17.3222
Au 25.4895 30.5295 17.369
Au 18.3875 11.6693 10.4933
Au 16.9299 10.7178 12.7636
Au 15.494 9.80081 15.0675
Au 14.0941 8.97235 17.4116
Au 21.3054 11.6856 10.5052
Au 19.8323 10.616 12.7441
Au 18.3807 9.6473 15.0607
Pd 16.9539 8.83336 17.406
Au 22.7394 10.7642 12.7938
Au 21.2759 9.67828 15.0706
Pd 19.8087 8.80901 17.4125
Au 24.1576 9.86936 15.098
Au 22.6827 8.8544 17.4036
Pd 25.5544 9.06125 17.4523
Au 28.2685 15.9124 26.5213
Au 28.2409 23.7029 26.5525
Pd 27.4419 13.6177 25.1093
Au 27.3853 26.0291 25.105
Au 26.5534 11.296 23.7066
Au 26.4568 28.3452 23.6262
Pd 25.9884 14.4907 27.4521
Pd 25.9137 25.1008 27.4339
Au 25.1227 12.1459 26.031
Au 25.0434 27.4663 25.9837
Au 23.6465 13.0579 28.3331
Au 23.6016 26.5389 28.2849
Pd 28.2878 15.8886 13.0683
Au 28.3049 23.6558 13.0059
Au 27.4457 13.5485 14.4723
Au 27.4051 26.0105 14.4421
Au 26.547 11.2613 15.9244
Pd 26.4704 28.2855 15.8877
Au 25.9773 14.444 12.1517
Au 25.9829 25.0853 12.0761
Pd 25.0945 12.1406 13.6041
Pd 25.0597 27.4172 13.5441
Pd 23.6582 13.0542 11.3128
Au 23.6354 26.4931 11.2177
Au 11.2071 15.8878 26.4872
Au 11.1903 23.615 26.4581
Au 12.0792 13.5154 25.1
Pd 12.0399 25.959 25.0404
Pd 13.0381 11.2201 23.6488
Au 12.9446 28.2716 23.5849
Au 13.5332 14.4303 27.448
Au 13.4688 25.0985 27.3917
Au 14.4492 12.0904 26.0065
Au 14.3636 27.4359 25.9522
Pd 15.9015 13.0681 28.2932
Au 15.8193 26.5494 28.2723
Pd 11.2999 15.8477 13.0025
Au 11.2502 23.5527 12.9488
Au 12.155 13.487 14.3978
Au 12.0511 25.9338 14.3337
Au 13.0748 11.1926 15.8685
Au 12.9582 28.2818 15.7865
Au 13.6093 14.3812 12.0884
Au 13.5542 25.0421 12.0229
Pd 14.5118 12.0701 13.5616
Au 14.4273 27.4024 13.4399
Au 15.9717 12.9933 11.267
Pd 15.9191 26.4454 11.1789
Pd 33.4626 19.7096 11.3412
Au 33.6473 19.7302 14.0703
Pd 33.6611 19.7432 16.8933
Au 33.7455 19.7476 19.7792
Au 33.7413 19.7673 22.665
Au 33.6707 19.7989 25.5359
Au 33.4578 19.8107 28.2591
Au 6.11399 19.6665 11.1953
Au 5.90327 19.667 13.9407
Pd 5.88217 19.6774 16.8294
Au 5.81911 19.7141 19.7161
Au 5.82736 19.7255 22.5959
Au 5.86184 19.7322 25.4336
Au 6.03067 19.7484 28.1402
Au 11.2042 33.4699 19.6841
Au 13.9382 33.6874 19.6905
Au 16.8319 33.7614 19.6895
Au 19.7572 33.7756 19.7141
Pd 22.6626 33.6893 19.7382
Au 25.48 33.6438 19.7437
Au 28.1864 33.4763 19.7512
Au 11.3761 6.02102 19.7641
Au 14.0799 5.83975 19.7688
Au 16.9489 5.77774 19.7662
Au 19.816 5.77957 19.7743
Pd 22.7043 5.8542 19.788
Au 25.5684 5.88401 19.7994
Au 28.2997 6.09877 19.7977
Au 19.7028 11.3463 33.5037
Au 19.7002 14.0702 33.6857
Au 19.713 16.9209 33.7496
Au 19.728 19.8104 33.7615
Au 19.7398 22.7066 33.736
Au 19.738 25.5672 33.6468
Au 19.7358 28.2683 33.4333
Au 19.8581 11.2835 6.12053
Au 19.8454 13.9999 5.92415
Pd 19.8332 16.8362 5.91604
Pd 19.8113 19.6733 5.87494
Au 19.792 22.534 5.80872
Au 19.791 25.3992 5.83006
Au 19.7829 28.1381 5.99355
Pd 31.322 18.4077 29.2223
Au 29.0832 16.9456 30.1998
Au 26.7467 15.4797 31.1267
Au 24.3704 14.0475 31.9856
Pd 21.9944 12.655 32.7757
Pd 31.3068 21.2411 29.2051
Au 29.1321 19.8312 30.3117
Au 26.8328 18.3584 31.2893
Au 24.4509 16.8934 32.1755
Pd 22.0493 15.4706 32.9396
Pd 28.9874 22.7079 30.1359
Au 26.7824 21.3223 31.2641
Au 24.47 19.8705 32.2001
Au 22.09 18.3779 33.0523
Au 26.6758 24.1609 31.0722
Au 24.4249 22.7562 32.1091
Pd 22.0823 21.3022 32.9917
Au 24.3641 25.566 31.9235
Pd 22.075 24.1593 32.898
Au 22.023 26.9778 32.7506
Au 31.3496 18.2907 10.3388
Pd 29.0424 16.8522 9.45596
Au 26.7567 15.4173 8.54914
Au 24.4619 13.9929 7.67409
Au 22.1515 12.5941 6.83452
Au 31.3666 21.1366 10.3138
Pd 29.1486 19.7076 9.32334
Au 26.8578 18.2396 8.34619
Pd 24.5235 16.7931 7.50395
Au 22.197 15.3985 6.62076
Pd 29.0755 22.5781 9.39753
Pd 26.8396 21.1668 8.35652
Pd 24.5118 19.695 7.43591
Au 22.1643 18.2717 6.55662
Au 26.7623 24.0152 8.42869
Au 24.5039 22.5886 7.39558
Pd 22.1434 21.1459 6.56907
Au 24.4169 25.4427 7.54212
Au 22.1513 24.0007 6.55158
Pd 22.063 26.8187 6.74767
Pd 8.15666 18.3592 29.1358
Au 10.4101 16.9074 30.1371
Au 12.7828 15.4571 31.0543
Pd 15.0992 14.0515 31.9018
Au 17.3996 12.6439 32.7838
Au 8.12195 21.1631 29.1512
Au 10.3372 19.7671 30.2401
Au 12.6431 18.3224 31.2222
Pd 15.0203 16.8676 32.0627
Au 17.3358 15.4659 32.9581
Pd 10.4024 22.5987 30.0663
Au 12.6191 21.2277 31.1949
Au 14.9425 19.7867 32.1706
Au 17.3313 18.3158 33.0367
Pd 12.7119 24.06 30.9985
Au 14.9452 22.6879 32.1207
Au 17.3497 21.2424 33.0653
Au 15.0522 25.5415 31.9291
Au 17.3589 24.1528 32.9857
Au 17.4354 26.9871 32.7693
Au 8.26143 18.2417 10.2296
Au 10.551 16.8256 9.33634
Pd 12.8925 15.3968 8.48841
Au 15.2288 13.9698 7.60806
Au 17.5587 12.5802 6.80269
Au 8.24713 21.0835 10.2186
Au 10.4603 19.6752 9.19717
Au 12.7903 18.2251 8.27277
Pd 15.1397 16.7988 7.45969
Au 17.4795 15.3867 6.59856
Pd 10.5145 22.493 9.33992
Pd 12.7698 21.1294 8.29677
Pd 15.0915 19.6765 7.40927
Pd 17.4816 18.239 6.56548
Au 12.7987 23.9613 8.39163
Pd 15.0844 22.559 7.41372
Au 17.4322 21.1036 6.4946
Au 15.1349 25.4036 7.50114
Pd 17.4535 24.0004 6.57115
Au 17.4777 26.8304 6.67085
Au 29.1984 31.3815 18.3365
Au 30.1493 29.1037 16.8944
Au 31.0653 26.79 15.4559
Au 31.9614 24.4176 14.0146
Au 32.8049 22.0357 12.6147
Au 29.1835 31.401 21.1781
Pd 30.2011 29.1743 19.7654
Pd 31.1725 26.8691 18.3043
Au 32.1466 24.5188 16.8726
Au 32.9985 22.0923 15.4421
Au 30.1199 29.1332 22.6398
Au 31.207 26.8951 21.223
Au 32.171 24.5486 19.7966
Au 33.0645 22.1129 18.3415
Pd 31.0189 26.8011 24.071
Au 32.1189 24.5613 22.6847
Pd 33.0131 22.1254 21.2403
Au 31.9301 24.4853 25.5312
Au 32.982 22.1743 24.1239
Au 32.7773 22.1265 26.9655
Au 10.2085 31.3527 18.2584
Au 9.2809 29.0409 16.7992
Au 8.40138 26.6589 15.3316
Au 7.57513 24.3088 13.91
Au 6.77558 21.9725 12.5019
Pd 10.2574 31.3117 21.1035
Au 9.15529 29.1312 19.6999
Au 8.20516 26.7948 18.215
Au 7.34687 24.4144 16.7494
Pd 6.60331 22.0168 15.3226
Pd 9.32928 29.0071 22.56
Au 8.20331 26.7951 21.1786
Pd 7.32781 24.4233 19.6982
Au 6.47008 22.0402 18.2512
Au 8.39332 26.6823 24.0213
Au 7.33163 24.4154 22.6332
Pd 6.50297 22.0421 21.1718
Au 7.54081 24.3376 25.4419
Pd 6.57565 22.0454 24.0579
Au 6.72126 22.0241 26.846
Au 29.2913 8.22977 18.3958
Au 30.2163 10.4755 16.9743
Au 31.1311 12.7927 15.5162
Au 31.9832 15.1318 14.0568
Au 32.781 17.4282 12.6556
Pd 29.2437 8.25176 21.217
Pd 30.2687 10.4625 19.8073
Pd 31.2258 12.7296 18.3776
Au 32.1645 15.0691 16.9199
Pd 32.9114 17.4268 15.4566
Au 30.2079 10.5294 22.6589
Au 31.2463 12.7589 21.2511
Au 32.1829 15.0626 19.8484
Pd 32.9812 17.419 18.3667
Au 31.1129 12.8603 24.1031
Pd 32.0782 15.1056 22.7108
Au 33.0184 17.3999 21.2611
Au 31.9499 15.1709 25.5266
Pd 32.9123 17.448 24.123
Au 32.7735 17.5064 26.9499
Au 10.3656 8.09599 18.339
Pd 9.44273 10.384 16.8807
Au 8.50105 12.6916 15.3951
Pd 7.65124 15.0537 13.9503
Au 6.80132 17.3619 12.517
Au 10.3492 8.10674 21.1726
Au 9.26195 10.3037 19.7385
Pd 8.34708 12.6183 18.2591
Au 7.40318 14.9367 16.8021
Au 6.57201 17.3176 15.3589
Au 9.36967 10.4089 22.6192
Au 8.28504 12.6422 21.1957
Au 7.34718 14.9699 19.7373
Au 6.4906 17.3441 18.2889
Pd 8.47498 12.7754 24.0466
Au 7.3768 14.997 22.6332
Au 6.47742 17.3688 21.1643
Au 7.5625 15.1262 25.4787
Au 6.54346 17.3868 24.0589
Au 6.73489 17.459 26.8663
Pd 18.3221 29.228 31.3141
Au 16.8536 30.2078 29.0552
Au 15.3783 31.1171 26.7208
Au 13.9306 31.9731 24.3676
Au 12.504 32.7903 22.0068
Pd 21.1324 29.2285 31.3095
Au 19.7251 30.327 29.1253
Pd 18.2466 31.2355 26.7985
Au 16.7943 32.1616 24.4836
Au 15.3481 33.0067 22.0806
Pd 22.5899 30.1728 29.0306
Au 21.1915 31.2877 26.8182
Au 19.6995 32.2103 24.4963
Au 18.2636 33.088 22.0901
Au 24.0629 31.0984 26.6971
Au 22.6656 32.1599 24.4665
Au 21.2003 33.0759 22.099
Pd 25.46 31.9116 24.3255
Au 24.0949 32.9714 22.0829
Pd 26.8612 32.7349 22.0112
Pd 18.3111 10.374 31.3533
Pd 16.9 9.4329 29.0667
Pd 15.4784 8.52517 26.7812
Au 14.0462 7.56887 24.4429
Pd 12.6629 6.75189 22.0487
Au 21.1443 10.323 31.4157
Au 19.7305 9.25585 29.1946
Au 18.2837 8.31466 26.8916
Au 16.8789 7.38522 24.5632
Au 15.466 6.50853 22.1424
Au 22.6198 9.38297 29.1302
Pd 21.2133 8.34959 26.8926
Au 19.7782 7.35101 24.5617
Au 18.3683 6.44923 22.143
Pd 24.0667 8.51122 26.7842
Au 22.6993 7.40202 24.551
Pd 21.2561 6.51269 22.1313
Pd 25.5344 7.63669 24.4313
Au 24.1519 6.55473 22.1608
Au 26.9827 6.77396 22.1065
Au 18.3427 29.1605 8.08978
Au 16.8739 30.0989 10.3625
Au 15.4223 31.0063 12.6542
Pd 13.9709 31.8896 15.0342
Au 12.5198 32.7782 17.3723
Au 21.1987 29.1541 8.11598
Au 19.7745 30.2381 10.2967
Au 18.2724 31.2082 12.569
Au 16.8062 32.1337 14.9117
Au 15.3573 32.9921 17.3107
Au 22.6369 30.0889 10.405
Au 21.2416 31.2048 12.6169
Au 19.7732 32.1802 14.9267
Au 18.2912 33.0742 17.3175
Au 24.0865 31.0285 12.704
Au 22.673 32.1292 14.9616
Au 21.216 33.0731 17.3482
Au 25.5211 31.9375 15.0614
Au 24.0964 32.9865 17.3804
Au 26.9139 32.7949 17.4437
Au 18.435 10.2955 8.20716
Pd 16.9996 9.39148 10.4813
Au 15.5262 8.42285 12.7678
Au 14.0768 7.52964 15.1299
Pd 12.6903 6.74254 17.4982
Au 21.2797 10.3037 8.22187
Pd 19.8458 9.29416 10.4114
Au 18.3765 8.26526 12.6922
Au 16.9162 7.34045 15.0751
Pd 15.5021 6.5697 17.4403
Pd 22.7069 9.41654 10.5096
Au 21.3135 8.28789 12.7057
Au 19.8424 7.31023 15.0833
Au 18.3826 6.48657 17.4322
Au 24.1606 8.48386 12.7994
Au 22.7614 7.37806 15.0813
Pd 21.2685 6.53408 17.4533
Au 25.597 7.61474 15.1673
Pd 24.1801 6.62597 17.4558
Au 26.9878 6.78621 17.4999
Pd 30.5795 16.0223 27.9096
Au 30.5756 23.665 27.9538
Au 29.7918 13.6338 26.5142
Pd 29.7122 25.9921 26.4901
Au 28.9208 11.2985 25.1001
Au 28.8163 28.3525 25.069
Au 27.9752 8.96468 23.631
Au 27.8652 30.6547 23.5737
Au 28.3233 14.5168 28.8974
Au 28.2322 25.137 28.8806
Au 27.47 12.1597 27.4594
Pd 27.3521 27.4406 27.4264
Au 26.5234 9.78662 26.0131
Pd 26.4258 29.7879 25.9159
Au 25.9768 13.0652 29.8044
Pd 25.8791 26.5104 29.7372
Au 25.059 10.6763 28.3516
Au 25.0269 28.9112 28.2913
Au 23.5676 11.6344 30.6661
Au 23.5501 27.9706 30.5947
Au 30.6154 15.9193 11.6569
Au 30.6363 23.5637 11.5862
Au 29.7979 13.5732 13.0608
Au 29.7631 25.9933 13.0249
Au 28.9293 11.2383 14.5216
Pd 28.832 28.2952 14.5087
Au 27.983 8.95126 16.0044
Au 27.9172 30.6033 15.9135
Au 28.2963 14.4588 10.7233
Au 28.315 25.0357 10.6188
Pd 27.4198 12.1332 12.1613
Pd 27.4048 27.4097 12.1054
Au 26.5467 9.81281 13.5888
Au 26.5128 29.7261 13.5428
Pd 25.953 13.0587 9.85722
Au 25.9723 26.4748 9.72052
Pd 25.0763 10.7373 11.3079
Au 25.0635 28.8363 11.2049
Au 23.6643 11.625 9.00338
Au 23.5866 27.8739 8.88033
Au 8.87517 15.9464 27.8842
Au 8.85414 23.5552 27.8476
Au 9.72233 13.5522 26.4885
Au 9.6901 25.9292 26.4336
Au 10.6551 11.1764 25.0479
Au 10.5826 28.2786 25
Au 11.6302 8.88065 23.6023
Au 11.5181 30.5919 23.5284
Au 11.1954 14.4675 28.8777
Au 11.1452 25.041 28.8234
Au 12.0948 12.0555 27.4591
Au 12.004 27.4443 27.3782
Au 13.0448 9.74512 25.986
Pd 12.9731 29.7608 25.8756
Au 13.5823 13.0344 29.7795
Au 13.4846 26.5226 29.7452
Pd 14.5212 10.7138 28.3085
Au 14.4003 28.9219 28.268
Au 15.912 11.6354 30.5993
Au 15.8887 27.9799 30.6
Au 9.01054 15.8619 11.5504
Pd 8.97064 23.4349 11.5478
Au 9.82924 13.5038 12.9741
Au 9.72851 25.8485 12.9094
Pd 10.7351 11.1823 14.4745
Au 10.5839 28.2549 14.3552
Au 11.67 8.85788 15.9321
Au 11.5305 30.5995 15.8395
Pd 11.3224 14.4428 10.6642
Pd 11.2618 24.9142 10.5923
Au 12.1747 12.0262 12.0694
Au 12.0788 27.3736 11.9657
Au 13.0981 9.72134 13.5433
Au 12.9971 29.7364 13.437
Au 13.6658 12.9677 9.75426
Au 13.5862 26.4212 9.66811
Pd 14.5858 10.654 11.2546
Pd 14.5072 28.7802 11.1327
Pd 16.0733 11.6132 8.96926
Au 15.9376 27.8441 8.84183
