923
Atoms. Timestep: 20081
Au 19.7517 19.7762 19.7654
Au 22.0512 19.7903 18.3428
Au 22.0476 19.7891 21.1876
Au 17.4609 19.7554 18.3375
Au 17.4578 19.7634 21.1847
Au 18.3316 22.0723 19.7555
Au 21.1758 22.0701 19.7459
Au 18.331 17.4755 19.7721
Au 21.176 17.4899 19.7701
Au 19.7581 18.3648 22.075
Au 19.7452 21.1928 22.0626
Au 19.7419 18.3538 17.4731
Au 19.755 21.1896 17.4663
Pd 24.3349 19.7859 16.9303
Au 24.4076 19.8037 19.7489
Au 24.3354 19.8034 22.6233
Pd 15.1843 19.7401 16.9225
Au 15.1019 19.7486 19.7528
Au 15.1642 19.7488 22.612
Pd 16.9126 24.3625 19.7503
Au 19.7504 24.446 19.7427
Au 22.5889 24.3626 19.7229
Pd 16.9198 15.1883 19.7786
Au 19.7483 15.115 19.7789
Au 22.6033 15.1943 19.7773
Au 19.7684 16.9623 24.3911
Au 19.755 19.7774 24.4605
Au 19.7486 22.5985 24.3635
Au 19.7366 16.9405 15.1741
Au 19.7492 19.7535 15.0994
Au 19.7616 22.5953 15.1651
Au 22.0952 18.3568 23.5688
Au 22.0848 21.2143 23.5553
Au 22.0837 18.3413 15.9976
Au 22.0977 21.2215 15.9943
Au 17.4268 18.327 23.5604
Au 17.4155 21.2028 23.5535
Pd 17.4259 18.3038 16.0049
Au 17.4234 21.1779 15.9921
Pd 23.5178 22.1112 18.304
Au 23.5285 22.1201 21.1877
Au 15.9873 22.0911 18.3102
Au 15.9849 22.1071 21.2028
Au 23.5364 17.4678 18.3142
Au 23.5357 17.4612 21.2251
Au 15.999 17.4222 18.3126
Au 15.9853 17.4082 21.2246
Au 18.3019 23.56 22.0825
Au 21.1902 23.5488 22.0743
Au 18.3063 16.0108 22.1118
Au 21.2087 16.0128 22.1235
Au 18.3152 23.5509 17.4193
Au 21.2116 23.5477 17.4187
Au 18.3029 16.002 17.4371
Au 21.1978 16.0033 17.4352
Au 26.6302 19.7682 15.5189
Au 26.7391 19.7799 18.3201
Au 26.7388 19.797 21.1948
Au 26.6223 19.8008 24.0372
Au 12.8818 19.7281 15.4979
Au 12.7689 19.7384 18.3303
Au 12.7626 19.7352 21.2069
Pd 12.8704 19.7439 24.0318
Au 15.4775 26.6595 19.7616
Au 18.328 26.772 19.743
Pd 21.1792 26.7676 19.7268
Au 23.9988 26.6524 19.7084
Au 15.5125 12.886 19.7867
Au 18.3315 12.773 19.7836
Au 21.1925 12.7702 19.7731
Au 24.0342 12.8928 19.7801
Pd 19.772 15.5615 26.6878
Pd 19.7596 18.362 26.7761
Pd 19.7558 21.1874 26.767
Au 19.763 24.0206 26.6543
Pd 19.7614 15.5181 12.9002
Pd 19.7632 18.3154 12.7866
Pd 19.7681 21.1693 12.7772
Au 19.7704 23.9997 12.8518
Pd 24.3981 18.3538 25.0027
Au 22.1033 16.9309 25.8986
Pd 24.3858 21.231 24.9982
Pd 22.1025 19.7857 25.9542
Au 22.1046 22.6324 25.8797
Au 24.3945 18.3153 14.5578
Au 22.0885 16.8937 13.6698
Au 24.389 21.2245 14.5414
Au 22.0876 19.7617 13.5694
Au 22.1028 22.6243 13.6375
Au 15.1089 18.3068 24.9973
Au 17.4356 16.9113 25.8961
Au 15.0871 21.2056 24.9982
Pd 17.4084 19.7649 25.9597
Au 17.4001 22.6348 25.8775
Au 15.142 18.2673 14.5608
Pd 17.4228 16.875 13.6939
Au 15.1114 21.184 14.5449
Au 17.421 19.7093 13.6013
Au 17.4251 22.618 13.6582
Au 24.9556 24.4286 18.2742
Au 25.8264 22.132 16.878
Pd 24.9556 24.4325 21.1815
Au 25.9146 22.1631 19.7501
Pd 25.837 22.1349 22.6353
Au 14.5289 24.419 18.3009
Au 13.6614 22.0913 16.8658
Au 14.53 24.4298 21.2125
Au 13.5708 22.121 19.7625
Au 13.6562 22.1026 22.6641
Au 24.9862 15.136 18.3056
Pd 25.8501 17.4389 16.8825
Au 24.9963 15.137 21.2623
Au 25.9381 17.4273 19.7619
Au 25.8565 17.437 22.6826
Au 14.5615 15.1 18.3222
Au 13.6824 17.3914 16.8843
Pd 14.5488 15.1055 21.2428
Au 13.589 17.3672 19.7857
Au 13.6644 17.3898 22.6801
Au 18.2913 25.0077 24.4102
Au 16.8611 25.8898 22.0952
Au 21.1926 25.0015 24.3968
Au 19.7526 25.9867 22.1033
Au 22.6093 25.8855 22.0599
Au 18.3156 14.5847 24.4504
Au 16.8724 13.6983 22.1333
Au 21.2282 14.5712 24.4654
Au 19.7667 13.5952 22.1579
Au 22.6625 13.6847 22.1631
Pd 18.3175 24.978 15.0851
Au 16.8823 25.8685 17.3958
Au 21.2117 24.9793 15.0975
Au 19.7742 25.962 17.379
Pd 22.621 25.8733 17.3936
Au 18.3142 14.5582 15.107
Au 16.8839 13.6776 17.4249
Au 21.222 14.5529 15.1093
Au 19.7668 13.5811 17.4096
Au 22.6415 13.6634 17.4088
Au 23.6022 15.9752 23.6339
Au 23.5794 23.5824 23.571
Au 23.5858 15.9446 15.9441
Pd 23.5645 23.593 15.9348
Pd 15.9345 15.9593 23.6129
Au 15.9174 23.5965 23.6056
Pd 15.9567 15.9326 15.9504
Au 15.9363 23.5823 15.9203
Au 28.9374 19.7454 14.0897
Pd 29.0796 19.7608 16.9019
Au 29.1192 19.7652 19.7484
Au 29.0904 19.7752 22.6042
Au 28.9541 19.784 25.4352
Pd 10.5753 19.7162 14.0661
Au 10.425 19.7251 16.9014
Au 10.3898 19.7198 19.7758
Au 10.4338 19.7277 22.6394
Au 10.5747 19.7434 25.4315
Au 14.0402 28.9606 19.7607
Au 16.8833 29.1077 19.757
Au 19.7637 29.1323 19.7348
Au 22.5932 29.0876 19.7245
Au 25.4252 28.9542 19.7125
Au 14.1092 10.5488 19.7869
Au 16.9354 10.4101 19.779
Au 19.7786 10.3898 19.765
Au 22.6287 10.4329 19.7652
Au 25.4728 10.5939 19.7658
Au 19.7604 14.1453 28.9731
Pd 19.7642 16.9418 29.0865
Au 19.761 19.773 29.1191
Au 19.7762 22.6233 29.0846
Au 19.7726 25.4551 28.9507
Au 19.7827 14.0985 10.6183
Pd 19.7791 16.8888 10.4898
Au 19.7894 19.7201 10.455
Au 19.7934 22.5794 10.4512
Pd 19.7558 25.4036 10.5409
Au 26.7119 18.3149 26.4248
Au 24.4467 16.8854 27.3338
Pd 22.1149 15.4942 28.2023
Au 26.6897 21.2538 26.4376
Au 24.4385 19.8023 27.4191
Au 22.1236 18.3545 28.3071
Pd 24.415 22.6805 27.335
Au 22.1403 21.234 28.2977
Pd 22.1213 24.0881 28.1804
Au 26.701 18.2772 13.1096
Pd 24.4129 16.8521 12.2187
Au 22.1159 15.4645 11.3813
Au 26.703 21.2151 13.0865
Au 24.421 19.7469 12.1013
Pd 22.1275 18.2997 11.239
Pd 24.4159 22.6423 12.1665
Pd 22.1265 21.1856 11.2196
Pd 22.1093 24.0422 11.3243
Au 12.7901 18.3088 26.4187
Au 15.0952 16.8753 27.3493
Pd 17.4292 15.4919 28.2035
Pd 12.7737 21.2023 26.4172
Au 15.0496 19.7767 27.4291
Au 17.4029 18.3324 28.3207
Au 15.0484 22.6673 27.3246
Au 17.375 21.2033 28.3177
Au 17.3884 24.0912 28.1896
Au 12.808 18.2607 13.1093
Pd 15.1062 16.8326 12.2122
Au 17.4386 15.4448 11.3927
Au 12.7867 21.176 13.0909
Au 15.0732 19.7063 12.112
Au 17.4115 18.2713 11.2486
Au 15.0752 22.6244 12.179
Au 17.4041 21.1479 11.2255
Au 17.4115 24.0403 11.3131
Pd 26.406 26.7419 18.2635
Pd 27.314 24.4681 16.847
Au 28.1766 22.1282 15.4531
Au 26.4018 26.7473 21.1788
Au 27.397 24.4937 19.7261
Au 28.3005 22.1558 18.3002
Au 27.308 24.4633 22.6293
Au 28.2983 22.1784 21.1881
Au 28.1699 22.1554 24.0632
Au 13.0501 26.7379 18.2961
Au 12.1613 24.4284 16.8305
Au 11.3267 22.0811 15.4282
Pd 13.0706 26.7335 21.219
Au 12.0606 24.4746 19.766
Au 11.1843 22.1233 18.3143
Au 12.181 24.4376 22.6796
Au 11.1841 22.1222 21.2167
Au 11.3414 22.0944 24.094
Au 26.4399 12.8103 18.3071
Au 27.3347 15.092 16.8667
Au 28.1728 17.4098 15.4565
Au 26.4501 12.8348 21.2613
Au 27.4334 15.0769 19.7897
Au 28.3087 17.4014 18.3209
Pd 27.342 15.107 22.6893
Au 28.306 17.3812 21.2172
Au 28.184 17.4069 24.0734
Au 13.1119 12.7659 18.308
Au 12.2015 15.0428 16.867
Au 11.335 17.3711 15.4488
Au 13.1124 12.7803 21.2579
Au 12.1001 15.0235 19.7914
Au 11.1962 17.3486 18.3438
Au 12.1926 15.075 22.6941
Au 11.1987 17.3478 21.2354
Pd 11.3413 17.4034 24.0917
Au 18.2919 26.4562 26.7169
Au 16.845 27.364 24.4329
Pd 15.4139 28.2051 22.1152
Au 21.2111 26.451 26.7141
Pd 19.7411 27.4601 24.4468
Au 18.3077 28.3426 22.1375
Au 22.6146 27.3674 24.399
Pd 21.1795 28.3459 22.1047
Au 24.0378 28.2058 22.0727
Au 18.3109 13.1594 26.7684
Au 16.8874 12.2085 24.4791
Au 15.4706 11.3386 22.1581
Au 21.2296 13.1449 26.7781
Au 19.7876 12.1085 24.513
Au 18.34 11.202 22.1781
Pd 22.6837 12.2113 24.4913
Au 21.2294 11.2129 22.1785
Au 24.1039 11.368 22.1663
Au 18.3068 26.4012 12.7541
Au 16.8646 27.3247 15.036
Au 15.4243 28.1966 17.3759
Au 21.2095 26.3997 12.752
Au 19.763 27.4309 15.0281
Au 18.3285 28.3372 17.3479
Au 22.6352 27.3331 15.0612
Pd 21.1989 28.3236 17.36
Au 24.0457 28.1879 17.3623
Pd 18.3324 13.1018 12.8067
Au 16.8857 12.1904 15.0875
Au 15.4842 11.326 17.4125
Au 21.239 13.1219 12.815
Au 19.7934 12.0951 15.0734
Au 18.3544 11.1963 17.3983
Pd 22.6739 12.2039 15.0893
Pd 21.2224 11.2091 17.3895
Au 24.0769 11.3539 17.398
Pd 25.9417 15.9344 25.0586
Au 25.9089 23.6175 25.0503
Pd 25.074 13.6261 23.6531
Au 25.0219 25.954 23.5874
Au 23.6392 14.5035 25.9607
Au 23.5971 25.0476 25.94
Au 25.9113 15.9035 14.484
Au 25.9097 23.6223 14.4648
Pd 25.0395 13.5922 15.9167
Au 25.0211 25.938 15.9003
Pd 23.6053 14.486 13.6067
Au 23.5957 25.0297 13.5644
Pd 13.5804 15.9146 25.0751
Pd 13.5682 23.6084 25.0617
Au 14.4759 13.6117 23.6473
Au 14.4479 25.943 23.6183
Au 15.914 14.5087 25.9658
Pd 15.89 25.0653 25.9418
Au 13.6207 15.8782 14.4807
Pd 13.5716 23.5874 14.4483
Pd 14.4929 13.5764 15.9236
Au 14.4415 25.9307 15.8702
Au 15.936 14.4724 13.6186
Au 15.9093 25.037 13.5613
Au 31.2367 19.717 12.659
Pd 31.3672 19.7439 15.4552
Au 31.4599 19.7421 18.3095
Au 31.4898 19.7342 21.173
Au 31.4446 19.7775 24.0155
Au 31.2755 19.7796 26.8426
Au 8.29721 19.7072 12.6264
Au 8.11631 19.7027 15.4565
Pd 8.0753 19.7103 18.3451
Pd 8.07531 19.7205 21.2059
Pd 8.13493 19.7335 24.0501
Pd 8.28857 19.7539 26.8171
Au 12.605 31.2719 19.735
Au 15.4413 31.4551 19.7357
Au 18.3209 31.5113 19.7276
Au 21.2018 31.4896 19.7332
Pd 24.054 31.3854 19.7343
Pd 26.8318 31.2335 19.723
Pd 12.713 8.26347 19.7814
Au 15.5146 8.07217 19.7796
Pd 18.36 8.04616 19.7671
Au 21.2015 8.04335 19.7643
Au 24.0807 8.11083 19.7631
Au 26.9008 8.29539 19.747
Au 19.7467 12.6961 31.2752
Au 19.7365 15.5185 31.4232
Au 19.7477 18.3481 31.4824
Au 19.7778 21.2262 31.4883
Au 19.7803 24.0687 31.422
Pd 19.7812 26.8646 31.228
Pd 19.7907 12.6819 8.33623
Au 19.782 15.4628 8.16853
Pd 19.7716 18.2946 8.14245
Au 19.7596 21.1344 8.08595
Au 19.7697 23.9859 8.10241
Au 19.7414 26.8085 8.24074
Au 29.0566 18.3258 27.8641
Au 26.799 16.8626 28.804
Au 24.4733 15.4453 29.6884
Au 22.1259 14.0529 30.5151
Au 29.0457 21.258 27.857
Au 26.799 19.8133 28.9247
Au 24.5082 18.3606 29.8469
Au 22.1432 16.9218 30.6735
Au 26.7236 22.7275 28.7899
Pd 24.4837 21.274 29.799
Au 22.1753 19.819 30.7181
Pd 24.4268 24.111 29.6438
Pd 22.1572 22.6802 30.6266
Au 22.1399 25.5244 30.4927
Au 29.0247 18.252 11.6761
Pd 26.718 16.8239 10.7845
Pd 24.4241 15.4197 9.91858
Pd 22.1269 14.0347 9.08205
Au 29.0421 21.1879 11.6436
Au 26.7774 19.7086 10.6235
Au 24.4859 18.2638 9.7419
Au 22.143 16.8672 8.89816
Au 26.7484 22.6393 10.7064
Au 24.4602 21.1829 9.70552
Au 22.1443 19.7281 8.85054
Au 24.4297 24.055 9.81936
Pd 22.1401 22.603 8.87768
Au 22.1037 25.4505 9.00868
Au 10.4662 18.3087 27.8486
Au 12.7573 16.8733 28.8122
Pd 15.0988 15.4485 29.6553
Au 17.3829 14.0559 30.5054
Au 10.4536 21.1956 27.8326
Pd 12.7061 19.7704 28.8823
Au 15.0215 18.3326 29.8312
Pd 17.3795 16.8915 30.6479
Au 12.7307 22.6365 28.7739
Pd 14.9956 21.2219 29.8147
Au 17.3366 19.7667 30.7423
Au 15.0395 24.1024 29.6833
Au 17.3447 22.6515 30.7039
Au 17.3987 25.5458 30.5319
Pd 10.5059 18.2587 11.6734
Au 12.782 16.8282 10.7544
Au 15.1147 15.4051 9.87771
Pd 17.4563 14.0268 9.06734
Pd 10.4951 21.1317 11.6612
Au 12.7376 19.7007 10.6172
Pd 15.0522 18.2678 9.74974
Au 17.4059 16.8564 8.89126
Au 12.7484 22.5907 10.7078
Pd 15.0376 21.1463 9.73176
Au 17.3615 19.702 8.83089
Au 15.048 24.0383 9.81062
Au 17.3613 22.5656 8.84545
Au 17.3804 25.4604 8.97924
Au 27.842 29.0642 18.258
Au 28.7631 26.7965 16.8349
Au 29.6706 24.4844 15.4127
Au 30.5217 22.1071 14.0043
Au 27.8346 29.0983 21.1996
Au 28.8773 26.8228 19.7367
Au 29.8219 24.5168 18.3013
Au 30.6983 22.1374 16.8683
Au 28.7816 26.8087 22.6409
Pd 29.8077 24.5347 21.1925
Au 30.7337 22.1793 19.7457
Au 29.6781 24.4976 24.0722
Au 30.6914 22.1949 22.6173
Au 30.5311 22.1723 25.5054
Au 11.5844 29.0649 18.2726
Au 10.6618 26.7536 16.812
Pd 9.8214 24.3977 15.3927
Au 9.01373 22.0632 13.9847
Au 11.6174 29.0369 21.2079
Au 10.5477 26.8056 19.7615
Au 9.63608 24.4796 18.2829
Au 8.8071 22.1075 16.8749
Au 10.7009 26.7387 22.6747
Au 9.63984 24.4764 21.2259
Au 8.75953 22.1002 19.7597
Pd 9.84033 24.407 24.0943
Au 8.82721 22.109 22.6564
Pd 9.02486 22.0743 25.4896
Pd 27.8711 10.5025 18.3151
Au 28.8191 12.7504 16.8892
Au 29.6925 15.0733 15.4235
Pd 30.4773 17.3966 14.0181
Au 27.8992 10.5207 21.2177
Pd 28.8874 12.7543 19.779
Au 29.8476 15.0439 18.3549
Au 30.6642 17.3866 16.8814
Au 28.8303 12.8158 22.6691
Pd 29.8056 15.0536 21.2264
Pd 30.6952 17.3689 19.7802
Pd 29.6733 15.1072 24.0777
Pd 30.6493 17.3845 22.6235
Au 30.5266 17.4073 25.4724
Au 11.6799 10.4161 18.3139
Au 10.7329 12.7029 16.8586
Au 9.85092 15.0077 15.4155
Au 9.0309 17.3551 13.988
Au 11.677 10.4247 21.2568
Au 10.6127 12.672 19.7861
Au 9.6724 14.9868 18.3435
Au 8.81379 17.3221 16.8985
Au 10.7335 12.7273 22.6857
Pd 9.69711 14.9973 21.2292
Pd 8.79774 17.3402 19.7826
Au 9.83654 15.0831 24.1035
Au 8.83397 17.3526 22.6467
Pd 9.02639 17.423 25.4956
Au 18.3107 27.899 29.0497
Au 16.8396 28.8373 26.7672
Au 15.4033 29.7079 24.4534
Au 13.9654 30.5288 22.123
Au 21.2224 27.8891 29.0425
Au 19.7605 28.9445 26.7835
Pd 18.293 29.8367 24.4842
Au 16.8559 30.7126 22.1604
Au 22.6775 28.8292 26.7392
Au 21.1877 29.8612 24.4734
Au 19.7481 30.7573 22.1557
Pd 24.0726 29.6726 24.404
Au 22.6465 30.6991 22.1256
Pd 25.4745 30.4925 22.0567
Au 18.2828 11.699 29.0636
Pd 16.8862 10.787 26.7931
Au 15.4571 9.84704 24.5049
Au 14.0474 8.99363 22.1612
Au 21.2159 11.6652 29.0939
Au 19.7405 10.6307 26.8453
Pd 18.3216 9.7074 24.5499
Au 16.9193 8.80337 22.1953
Au 22.6712 10.7522 26.8077
Au 21.2249 9.6898 24.5382
Au 19.7753 8.7792 22.1898
Au 24.1153 9.86858 24.491
Au 22.6743 8.82849 22.1837
Au 25.551 9.02622 22.1323
Au 18.281 27.8289 10.4307
Pd 16.8505 28.7454 12.6967
Au 15.404 29.6678 14.9882
Au 13.9674 30.527 17.3591
Pd 21.191 27.8039 10.4337
Au 19.7633 28.889 12.6635
Au 18.3107 29.8453 14.9493
Au 16.8586 30.7187 17.3089
Pd 22.6387 28.7499 12.7181
Pd 21.2189 29.8073 14.9831
Au 19.773 30.7488 17.3022
Au 24.0869 29.663 15.0032
Au 22.6318 30.6918 17.3258
Au 25.4944 30.5231 17.362
Au 18.3396 11.6822 10.4882
Au 16.8888 10.73 12.7626
Au 15.4599 9.81223 15.0705
Au 14.0673 8.98286 17.4186
Au 21.2575 11.6942 10.4895
Au 19.791 10.6239 12.7325
Au 18.3464 9.65447 15.0531
Pd 16.9269 8.83966 17.4025
Au 22.6985 10.7678 12.7718
Au 21.2416 9.68115 15.0525
Pd 19.7816 8.81108 17.3986
Au 24.1237 9.86794 15.0697
Au 22.6556 8.85223 17.3794
Pd 25.5278 9.05477 17.4179
Au 28.2849 15.8903 26.4856
Au 28.269 23.6808 26.5269
Pd 27.4498 13.5987 25.0738
Au 27.4116 26.0101 25.0854
Au 26.5528 11.2801 23.6714
Au 26.4812 28.3294 23.6129
Pd 26.006 14.4708 27.4229
Pd 25.947 25.081 27.4184
Au 25.1317 12.1291 26.002
Au 25.075 27.4496 25.9744
Au 23.6653 13.0404 28.3106
Au 23.6401 26.5214 28.2796
Pd 28.2554 15.8836 13.0327
Au 28.2838 23.6508 12.98
Au 27.4149 13.543 14.4368
Au 27.3927 26.005 14.4225
Au 26.5181 11.2553 15.8892
Pd 26.4666 28.2796 15.8743
Au 25.9395 14.4436 12.1226
Au 25.9605 25.0849 12.0605
Pd 25.0585 12.1397 13.5753
Pd 25.0461 27.4163 13.5348
Pd 23.6152 13.0583 11.2903
Au 23.612 26.4973 11.2123
Au 11.2234 15.891 26.5134
Au 11.218 23.6183 26.4941
Au 12.087 13.5191 25.1201
Pd 12.0659 25.9628 25.0763
Pd 13.0373 11.2243 23.6625
Au 12.9687 28.2759 23.6205
Au 13.5508 14.4289 27.4639
Au 13.5021 25.0972 27.4213
Au 14.4582 12.0895 26.0161
Au 14.3951 27.4351 25.9816
Pd 15.9202 13.0622 28.2988
Au 15.8579 26.5435 28.2953
Pd 11.2673 15.8679 13.0284
Au 11.2288 23.573 12.9847
Au 12.124 13.5042 14.4175
Au 12.0383 25.9512 14.3697
Au 13.0457 11.2066 15.8821
Au 12.9541 28.296 15.8221
Au 13.5712 14.3992 12.1041
Au 13.5316 25.0602 12.0522
Pd 14.4756 12.0848 13.571
Au 14.4134 27.4175 13.4691
Au 15.9286 13.0089 11.2723
Pd 15.8956 26.4611 11.2014
Pd 33.4295 19.6991 11.2917
Au 33.6242 19.7159 14.0201
Pd 33.6483 19.7254 16.843
Au 33.7431 19.726 19.7286
Au 33.7493 19.7421 22.6145
Au 33.6893 19.7701 25.4856
Au 33.4862 19.7787 28.2096
Au 6.08054 19.6967 11.2449
Au 5.87977 19.694 13.991
Pd 5.86916 19.7007 16.8798
Au 5.81662 19.7338 19.7667
Au 5.83532 19.7416 22.6465
Au 5.88009 19.7446 25.484
Au 6.05875 19.7571 28.19
Au 11.2219 33.4818 19.7326
Au 13.9563 33.6951 19.7294
Au 16.8501 33.7649 19.718
Au 19.7755 33.7747 19.7321
Pd 22.6808 33.6841 19.7455
Au 25.4981 33.6344 19.7407
Au 28.2043 33.4629 19.7382
Au 11.3535 6.03257 19.7773
Au 14.057 5.84731 19.7719
Au 16.9259 5.78106 19.7589
Au 19.7929 5.77865 19.7565
Pd 22.6814 5.84898 19.7599
Au 25.5456 5.87453 19.7609
Au 28.2771 6.08523 19.7496
Au 19.7378 11.328 33.4932
Au 19.7399 14.0516 33.6788
Au 19.7571 16.9023 33.7462
Au 19.7765 19.7918 33.7618
Au 19.7925 22.6879 33.7399
Au 19.7946 25.5486 33.6542
Au 19.7956 28.25 33.4442
Au 19.7938 11.2998 6.10967
Au 19.7844 14.0165 5.91676
Pd 19.7763 16.8528 5.91228
Pd 19.7585 19.69 5.87484
Au 19.7432 22.5508 5.81233
Au 19.7465 25.416 5.83732
Au 19.7431 28.1547 6.00432
Pd 31.3518 18.3777 29.1787
Au 29.1145 16.9176 30.1625
Au 26.7792 15.4539 31.096
Au 24.4038 14.0242 31.9617
Pd 22.0286 12.6342 32.7587
Pd 31.3408 21.2111 29.1652
Au 29.168 19.803 30.2779
Au 26.8701 18.3323 31.2619
Au 24.4893 16.8697 32.1549
Pd 22.0883 15.4495 32.9259
Pd 29.0269 22.6801 30.1063
Au 26.824 21.2964 31.2406
Au 24.5129 19.8468 32.1832
Au 22.1338 18.3566 33.0422
Au 26.7209 24.1353 31.0528
Au 24.4717 22.7326 32.096
Pd 22.1302 21.281 32.9852
Au 24.4144 25.5428 31.9142
Pd 22.1267 24.1382 32.8953
Au 22.0784 26.957 32.7516
Au 31.3109 18.2846 10.2951
Pd 28.9984 16.8507 9.4188
Au 26.7072 15.4204 8.51846
Au 24.4071 14.0004 7.64993
Au 22.0916 12.6061 6.81698
Au 31.332 21.1306 10.2736
Pd 29.1082 19.706 9.28943
Au 26.8118 18.2427 8.31871
Pd 24.4723 16.8007 7.4831
Au 22.1406 15.4107 6.60659
Pd 29.0397 22.5766 9.36754
Pd 26.798 21.1699 8.33284
Pd 24.4647 19.7028 7.41879
Au 22.1118 18.2841 6.54621
Au 26.7251 24.0183 8.40891
Au 24.4609 22.5964 7.38217
Pd 22.0953 21.1583 6.56237
Au 24.3786 25.4504 7.53265
Au 22.1073 24.0131 6.5485
Pd 22.0239 26.831 6.74849
Pd 8.18627 18.3635 29.1762
Au 10.4412 16.9072 30.1674
Au 12.815 15.4523 31.0743
Pd 15.1324 14.0421 31.9116
Au 17.4339 12.63 32.7834
Au 8.15577 21.1675 29.1952
Au 10.3729 19.7668 30.2743
Au 12.6802 18.3175 31.2462
Pd 15.0583 16.8582 32.0763
Au 17.3749 15.4518 32.9615
Pd 10.4417 22.5986 30.1039
Au 12.6604 21.2229 31.2226
Au 14.9852 19.7772 32.1881
Au 17.3749 18.3017 33.0437
Pd 12.7567 24.0553 31.0295
Au 14.992 22.6784 32.1419
Au 17.3978 21.2282 33.076
Au 15.1026 25.5321 31.9536
Au 17.4109 24.1386 33
Au 17.4909 26.9731 32.787
Au 8.22235 18.27 10.2696
Au 10.5065 16.8516 9.36622
Pd 12.8428 15.4204 8.50798
Au 15.1739 13.9911 7.61737
Au 17.4987 12.599 6.8018
Au 8.21222 21.1117 10.2623
Au 10.4196 19.7016 9.231
Au 12.7441 18.2492 8.29629
Pd 15.0884 16.8204 7.4729
Au 17.423 15.4059 6.60149
Pd 10.4785 22.5191 9.37711
Pd 12.7279 21.1534 8.32405
Pd 15.0443 19.6982 7.42629
Pd 17.4292 18.2583 6.57201
Au 12.7614 23.9852 8.42239
Pd 15.0415 22.5808 7.43442
Au 17.3838 21.123 6.50494
Au 15.0965 25.4251 7.52526
Pd 17.4096 24.0197 6.58509
Au 17.4384 26.8495 6.6883
Au 29.208 31.3684 18.3172
Au 30.1504 29.091 16.8687
Au 31.0577 26.7778 15.424
Au 31.9451 24.406 13.9765
Au 32.7799 22.0246 12.5705
Au 29.2034 31.3843 21.1588
Pd 30.2127 29.1579 19.7396
Pd 31.1753 26.8532 18.2721
Au 32.1408 24.5032 16.8339
Au 32.9839 22.0772 15.3972
Au 30.1419 29.1133 22.6142
Au 31.2204 26.8754 21.1907
Au 32.1758 24.5293 19.7578
Au 33.0604 22.0941 18.2964
Pd 31.0426 26.7781 24.0392
Au 32.1341 24.5384 22.6461
Pd 33.0196 22.103 21.1954
Au 31.9555 24.459 25.4932
Au 32.999 22.1483 24.0792
Au 32.8045 22.0972 26.9214
Au 10.218 31.3679 18.3079
Au 9.28165 29.0592 16.8491
Au 8.39326 26.6804 15.3817
Au 7.55838 24.3334 13.9601
Au 6.75027 22.0001 12.552
Pd 10.2771 31.3231 21.1528
Au 9.16668 29.146 19.7504
Au 8.2077 26.8129 18.266
Au 7.34057 24.4357 16.8004
Pd 6.5883 22.041 15.3734
Pd 9.35083 29.018 22.6096
Au 8.21659 26.8095 21.2295
Pd 7.3322 24.4408 19.7493
Au 6.4657 22.0608 18.3025
Au 8.41673 26.6928 24.0714
Au 7.34664 24.4292 22.6843
Pd 6.50918 22.059 21.2229
Au 7.56589 24.3475 25.4921
Pd 6.59233 22.0585 24.1087
Au 6.74802 22.0335 26.8962
Au 29.2669 8.21654 18.3468
Au 30.1901 10.4627 16.9248
Au 31.103 12.7804 15.4663
Au 31.9533 15.1201 14.0068
Au 32.7493 17.4171 12.6056
Pd 29.2296 8.23502 21.1682
Pd 30.2527 10.446 19.7576
Pd 31.208 12.7135 18.3273
Au 32.1448 15.0534 16.8691
Pd 32.8899 17.4119 15.4061
Au 30.2023 10.5094 22.6095
Au 31.2389 12.7392 21.2007
Au 32.1738 15.0433 19.7975
Pd 32.9703 17.4004 18.316
Au 31.1161 12.8371 24.0533
Pd 32.0796 15.0828 22.6604
Au 33.0179 17.3775 21.2101
Au 31.9616 15.1447 25.4766
Pd 32.9222 17.4221 24.0725
Au 32.7938 17.4771 26.9
Au 10.3409 8.11085 18.3584
Pd 9.41615 10.402 16.9064
Au 8.47251 12.7129 15.4271
Pd 7.62096 15.0781 13.9884
Au 6.76926 17.3894 12.5611
Au 10.3348 8.11801 21.1921
Au 9.2456 10.3184 19.7647
Pd 8.32883 12.6362 18.2915
Au 7.38307 14.9578 16.8409
Au 6.55019 17.3418 15.4038
Au 9.36391 10.4197 22.6452
Au 8.27744 12.6564 21.2284
Au 7.33776 14.9873 19.7764
Au 6.47944 17.3647 18.3341
Pd 8.4779 12.7858 24.0788
Au 7.3779 15.0107 22.6722
Au 6.47672 17.3858 21.2095
Au 7.57409 15.1361 25.5171
Au 6.55327 17.4 24.1039
Au 6.75497 17.4683 26.9107
Pd 18.3757 29.2145 31.3313
Au 16.9004 30.1993 29.079
Au 15.418 31.1138 26.7512
Au 13.9631 31.9749 24.4043
Au 12.5292 32.7973 22.0498
Pd 21.186 29.2109 31.3166
Au 19.7724 30.3141 29.1389
Pd 18.2868 31.2279 26.8186
Au 16.8275 32.1591 24.5102
Au 15.3739 33.0093 22.1135
Pd 22.6366 30.1559 29.0336
Au 21.2318 31.2757 26.8277
Au 19.7328 32.2034 24.5124
Au 18.2895 33.0863 22.1125
Au 24.1025 31.0823 26.696
Au 22.6987 32.1487 24.4719
Au 21.2261 33.0699 22.1108
Pd 25.4922 31.8964 24.3203
Au 24.1205 32.9611 22.0841
Pd 26.8862 32.7206 22.002
Pd 18.3368 10.3605 31.3467
Pd 16.916 9.42449 29.0641
Pd 15.4848 8.52178 26.7826
Au 14.0428 7.57055 24.4483
Pd 12.6496 6.75865 22.0581
Au 21.1701 10.3053 31.3988
Au 19.7467 9.24305 29.1815
Au 18.2901 8.30696 26.8826
Au 16.8756 7.38256 24.5581
Au 15.4527 6.51103 22.1413
Au 22.6359 9.36595 29.1067
Pd 21.2198 8.33754 26.8729
Au 19.7748 7.34405 24.546
Au 18.3548 6.44745 22.1313
Pd 24.073 8.49505 26.7544
Au 22.696 7.39074 24.5248
Pd 21.2427 6.50664 22.1093
Pd 25.531 7.62135 24.3951
Au 24.1387 6.54435 22.1283
Au 26.9696 6.75945 22.064
Au 18.312 29.1765 8.10704
Au 16.8529 30.1142 10.3862
Au 15.4109 31.0208 12.6844
Pd 13.9694 31.9032 15.0707
Au 12.5282 32.791 17.4152
Au 21.1681 29.1659 8.12289
Au 19.7534 30.2492 10.3101
Au 18.261 31.2186 12.5891
Au 16.8047 32.1433 14.9383
Au 15.3657 33.0008 17.3436
Au 22.6159 30.0957 10.4078
Au 21.2303 31.2108 12.6263
Au 19.7717 32.1854 14.9426
Au 18.2998 33.0786 17.3399
Au 24.0753 31.0301 12.7028
Au 22.6716 32.13 14.9669
Au 21.2247 33.073 17.36
Au 25.5197 31.9339 15.0561
Au 24.105 32.9822 17.3816
Au 26.9225 32.7863 17.4344
Au 18.3768 10.3113 8.2002
Pd 16.9482 9.4065 10.4784
Au 15.4817 8.43715 12.7689
Au 14.0396 7.54308 15.1352
Pd 12.6606 6.75504 17.5075
Au 21.2215 10.3153 8.20461
Pd 19.7941 9.30506 10.3981
Au 18.3315 8.27545 12.6829
Au 16.8785 7.34977 15.0698
Pd 15.4719 6.57811 17.4392
Pd 22.6557 9.42307 10.486
Au 21.2685 8.2937 12.6857
Au 19.8046 7.31521 15.0674
Au 18.3522 6.49073 17.4205
Au 24.1163 8.48535 12.7694
Au 22.7237 7.37872 15.0549
Pd 21.2382 6.53394 17.4312
Au 25.56 7.6111 15.131
Pd 24.1499 6.62153 17.4233
Au 26.958 6.77754 17.4574
Pd 30.6011 15.995 27.8657
Au 30.6086 23.6377 27.9196
Au 29.8048 13.6094 26.4701
Pd 29.7434 25.9679 26.462
Au 28.9253 11.2772 25.0563
Au 28.8458 28.3314 25.0471
Au 27.9708 8.94674 23.5877
Au 27.8928 30.6369 23.5583
Au 28.3463 14.4916 28.8598
Au 28.2708 25.1119 28.8568
Au 27.4843 12.1376 27.4218
Pd 27.3889 27.4187 27.4087
Au 26.5289 9.76779 25.9761
Pd 26.4606 29.7692 25.9046
Au 26.0009 13.0423 29.7735
Pd 25.9229 26.4877 29.7236
Au 25.0743 10.6566 28.3209
Au 25.069 28.8916 28.2839
Au 23.5927 11.614 30.6421
Au 23.5991 27.9502 30.5914
Au 30.5779 15.9126 11.6129
Au 30.6099 23.5571 11.5518
Au 29.762 13.566 13.0167
Au 29.7455 25.9862 12.9967
Au 28.8953 11.2305 14.4777
Pd 28.8232 28.2875 14.4868
Au 27.951 8.94302 15.9611
Au 27.9169 30.5952 15.8978
Au 28.2533 14.4568 10.6858
Au 28.2873 25.0337 10.5947
Pd 27.3786 12.1307 12.124
Pd 27.386 27.4072 12.0876
Au 26.5072 9.80976 13.5518
Au 26.5027 29.723 13.5311
Pd 25.9048 13.0612 9.82646
Au 25.9435 26.4775 9.70671
Pd 25.03 10.7393 11.2774
Au 25.0436 28.8384 11.1973
Au 23.6109 11.6321 8.97913
Au 23.5568 27.8811 8.87695
Au 8.89668 15.9513 27.919
Au 8.88677 23.5602 27.892
Au 9.73523 13.5576 26.5172
Au 9.72113 25.9347 26.478
Au 10.6593 11.1823 25.0701
Au 10.6119 28.2846 25.0441
Au 11.6257 8.88696 23.6181
Au 11.5456 30.5984 23.5721
Au 11.2183 14.4677 28.9021
Au 11.1835 25.0414 28.8613
Au 12.1089 12.0562 27.4773
Au 12.0407 27.4452 27.4161
Au 13.0502 9.74633 25.9978
Pd 13.0078 29.7621 25.913
Au 13.6063 13.03 29.7935
Au 13.5285 26.5183 29.7766
Pd 14.5364 10.7099 28.3161
Au 14.4424 28.9181 28.2991
Au 15.9369 11.6265 30.603
Au 15.9379 27.971 30.6245
Au 8.97274 15.8874 11.5846
Pd 8.94403 23.4604 11.5917
Au 9.79311 13.5263 13.0023
Au 9.71042 25.8711 12.9537
Pd 10.7009 11.2015 14.4965
Au 10.5747 28.2744 14.3994
Au 11.6377 8.87386 15.9478
Au 11.5301 30.6157 15.8832
Pd 11.2793 14.466 10.6882
Pd 11.2339 24.9376 10.6298
Au 12.1331 12.0464 12.0873
Au 12.0596 27.394 12.0034
Au 13.0584 9.73824 13.5548
Au 12.9867 29.7535 13.4743
Au 13.6172 12.9886 9.76794
Au 13.5572 26.4422 9.69912
Pd 14.5392 10.6717 11.2621
Pd 14.487 28.798 11.1634
Pd 16.0198 11.6315 8.97252
Au 15.9077 27.8627 8.86613
