923
Atoms. Timestep: 20118
Au 19.7533 19.7738 19.7633
Au 22.0534 19.7843 18.3416
Au 22.0487 19.7885 21.1864
Au 17.4631 19.7511 18.3344
Au 17.4589 19.7645 21.1816
Au 18.3341 22.0704 19.7484
Au 21.1782 22.0671 19.74
Au 18.3318 17.4736 19.7737
Au 21.1767 17.487 19.7729
Au 19.7582 18.3667 22.0755
Au 19.7464 21.1947 22.0577
Au 19.7439 18.347 17.4736
Au 19.7581 21.1828 17.4615
Pd 24.3377 19.7764 16.93
Au 24.4092 19.7996 19.7486
Au 24.3359 19.8047 22.623
Pd 15.1871 19.734 16.9185
Au 15.1036 19.7479 19.7488
Au 15.1647 19.7535 22.608
Pd 16.9159 24.3611 19.7382
Au 19.7538 24.4436 19.7317
Au 22.5923 24.359 19.7132
Pd 16.9198 15.1869 19.784
Au 19.7482 15.1126 19.7856
Au 22.6032 15.1909 19.7851
Au 19.767 16.9686 24.3943
Au 19.7547 19.7839 24.4583
Au 19.7493 22.6048 24.356
Au 19.739 16.9293 15.1774
Au 19.7527 19.7422 15.0973
Au 19.7662 22.5842 15.1576
Au 22.0947 18.3607 23.5703
Au 22.0854 21.2182 23.5513
Au 22.0863 18.3308 15.9991
Au 22.1014 21.2111 15.9904
Au 17.4263 18.3326 23.56
Au 17.4161 21.2084 23.5477
Pd 17.4286 18.2951 16.0046
Au 17.4271 21.1691 15.9863
Pd 23.5209 22.1046 18.2989
Au 23.5304 22.1189 21.1827
Au 15.9904 22.0873 18.3021
Au 15.9868 22.1088 21.1946
Au 23.5378 17.4612 18.318
Au 23.5359 17.4601 21.2289
Au 16.0003 17.4184 18.3134
Au 15.9855 17.4099 21.2253
Au 18.304 23.5625 22.0726
Au 21.1923 23.5502 22.0655
Au 18.3056 16.0133 22.1161
Au 21.2079 16.0143 22.1291
Au 18.3192 23.5445 17.4093
Au 21.2156 23.5403 17.41
Au 18.3041 15.9956 17.4415
Au 21.199 15.9959 17.4408
Au 26.6336 19.7551 15.5196
Au 26.7413 19.7722 18.3208
Au 26.7398 19.7947 21.1955
Au 26.6221 19.8039 24.0378
Au 12.8852 19.7201 15.493
Au 12.7711 19.7358 18.3253
Au 12.7636 19.738 21.2019
Pd 12.8702 19.7521 24.0269
Au 15.4817 26.6587 19.7446
Au 18.3323 26.7701 19.727
Pd 21.1835 26.7646 19.712
Au 24.003 26.6483 19.6949
Au 15.5116 12.8852 19.7958
Au 18.3305 12.7711 19.7941
Au 21.1915 12.7673 19.7849
Au 24.0332 12.8888 19.7927
Pd 19.7692 15.5722 26.6936
Pd 19.7578 18.3728 26.7766
Pd 19.7551 21.1982 26.7622
Au 19.7634 24.0312 26.6441
Pd 19.7643 15.5026 12.9062
Pd 19.7672 18.2997 12.7873
Pd 19.7732 21.1536 12.7724
Au 19.7765 23.9841 12.8417
Pd 24.397 18.3596 25.0051
Au 22.1013 16.9392 25.9028
Pd 24.3857 21.2368 24.9952
Pd 22.1016 19.7942 25.953
Au 22.1048 22.6407 25.8731
Au 24.3977 18.3013 14.5604
Au 22.0916 16.8788 13.6741
Au 24.3933 21.2105 14.5384
Au 22.0918 19.7467 13.5682
Au 22.108 22.6094 13.6309
Au 15.1079 18.316 24.996
Au 17.4336 16.9213 25.8984
Au 15.0871 21.2149 24.9914
Pd 17.4074 19.7751 25.9566
Au 17.4002 22.6448 25.8689
Au 15.1452 18.2567 14.5596
Pd 17.4259 16.8619 13.6963
Au 15.1157 21.1733 14.5381
Au 17.4252 19.696 13.5983
Au 17.4304 22.6048 13.6497
Au 24.9595 24.4214 18.2653
Au 25.83 22.1219 16.8739
Pd 24.9584 24.4308 21.1726
Au 25.9171 22.1583 19.746
Pd 25.8383 22.1357 22.6312
Au 14.5329 24.4157 18.2878
Au 13.6651 22.0856 16.8567
Au 14.5327 24.432 21.1994
Au 13.5734 22.1208 19.7533
Au 13.6575 22.1079 22.655
Au 24.9867 15.1288 18.3144
Pd 25.852 17.4288 16.8873
Au 24.9955 15.1355 21.2711
Au 25.9388 17.4225 19.7668
Au 25.856 17.4379 22.6874
Au 14.562 15.0967 18.3267
Au 13.6843 17.3857 16.8841
Pd 14.548 15.1078 21.2473
Au 13.5897 17.3671 19.7855
Au 13.664 17.3951 22.6799
Au 18.2929 25.0146 24.3975
Au 16.864 25.8929 22.0803
Au 21.1942 25.0073 24.3853
Au 19.7556 25.9887 22.0893
Au 22.6123 25.8863 22.0473
Au 18.3134 14.5916 24.4575
Au 16.8708 13.7014 22.1415
Au 21.226 14.5772 24.4737
Au 19.765 13.5973 22.1675
Au 22.6608 13.6858 22.1736
Pd 18.323 24.9672 15.0725
Au 16.8872 25.8626 17.3809
Au 21.2172 24.9675 15.0861
Au 19.7791 25.955 17.3651
Pd 22.6259 25.8653 17.381
Au 18.3158 14.5474 15.1142
Au 16.8842 13.6718 17.4331
Au 21.2236 14.5411 15.1177
Au 19.7671 13.5742 17.4192
Au 22.6418 13.6554 17.4194
Au 23.6008 15.9787 23.6405
Au 23.5808 23.5858 23.5631
Au 23.5875 15.9335 15.9508
Pd 23.5691 23.5818 15.927
Pd 15.9331 15.9655 23.6164
Au 15.9188 23.6028 23.5945
Pd 15.9585 15.9243 15.9539
Au 15.941 23.5739 15.9093
Au 28.9413 19.7288 14.0915
Pd 29.0824 19.7495 16.9036
Au 29.1208 19.7593 19.7501
Au 29.0908 19.7746 22.6059
Au 28.9534 19.7889 25.4368
Pd 10.5793 19.7063 14.0603
Au 10.4278 19.7207 16.8955
Au 10.3914 19.7208 19.7699
Au 10.4343 19.7341 22.6334
Au 10.574 19.7552 25.4256
Au 14.0453 28.9602 19.7387
Au 16.8884 29.1063 19.7359
Au 19.7688 29.1298 19.7149
Au 22.5983 29.0841 19.7058
Au 25.4303 28.9496 19.6952
Au 14.1074 10.5485 19.7999
Au 16.9335 10.4087 19.7934
Au 19.7767 10.3873 19.7807
Au 22.6268 10.4294 19.782
Au 25.4709 10.5894 19.7834
Au 19.7561 14.1603 28.9816
Pd 19.7609 16.9571 29.0897
Au 19.7587 19.7883 29.1169
Au 19.775 22.6386 29.0771
Au 19.7725 25.4701 28.9378
Au 19.7861 14.0787 10.627
Pd 19.7835 16.8688 10.4932
Au 19.7949 19.7 10.453
Au 19.7999 22.5592 10.4438
Pd 19.7634 25.3837 10.5281
Au 26.7102 18.3226 26.4283
Au 24.444 16.8956 27.339
Pd 22.1114 15.5069 28.2093
Au 26.6891 21.2615 26.4355
Au 24.4369 19.8127 27.4188
Au 22.1211 18.3674 28.3086
Pd 24.4145 22.6907 27.3292
Au 22.1389 21.2469 28.2937
Pd 22.121 24.1008 28.171
Au 26.7049 18.2596 13.1132
Pd 24.4165 16.8336 12.2241
Au 22.1194 15.4453 11.3883
Au 26.7079 21.1974 13.0845
Au 24.4258 19.7282 12.1012
Pd 22.1321 18.2802 11.2407
Pd 24.4217 22.6237 12.1608
Pd 22.1322 21.1661 11.2158
Pd 22.1161 24.0229 11.315
Au 12.7884 18.3215 26.4164
Au 15.0926 16.889 27.3507
Pd 17.4257 15.5063 28.2084
Pd 12.7731 21.2151 26.4094
Au 15.0481 19.7905 27.425
Au 17.4004 18.347 28.3203
Au 15.048 22.681 27.3149
Au 17.3736 21.218 28.3118
Au 17.3881 24.1057 28.1782
Au 12.8118 18.2482 13.1072
Pd 15.1099 16.8175 12.2137
Au 17.4421 15.4273 11.3978
Au 12.7916 21.1634 13.0832
Au 15.078 19.691 12.1081
Au 17.4161 18.2535 11.2484
Au 15.0811 22.6093 12.1695
Au 17.4097 21.1301 11.2198
Au 17.4182 24.0227 11.3019
Pd 26.4108 26.7341 18.2509
Pd 27.3186 24.4574 16.8391
Au 28.1809 22.1145 15.4499
Au 26.4054 26.7451 21.1661
Au 27.4004 24.4884 19.7182
Au 28.3036 22.1474 18.2971
Au 27.3102 24.4635 22.6214
Au 28.3002 22.1755 21.185
Au 28.1706 22.158 24.06
Au 13.0549 26.7351 18.2779
Au 12.1659 24.4232 16.8164
Au 11.331 22.0736 15.4182
Pd 13.0742 26.7363 21.2009
Au 12.064 24.475 19.7517
Au 11.1874 22.1213 18.3041
Au 12.1832 24.4435 22.6654
Au 11.186 22.1257 21.2065
Au 11.3421 22.1033 24.0839
Au 26.4395 12.8026 18.3209
Au 27.3358 15.0813 16.8766
Au 28.1753 17.3961 15.4623
Au 26.4485 12.8327 21.275
Au 27.4333 15.0717 19.7996
Au 28.31 17.3931 18.3268
Pd 27.3406 15.1073 22.6992
Au 28.3061 17.3783 21.2231
Au 28.1829 17.4096 24.0792
Au 13.1115 12.7632 18.3164
Au 12.2025 15.0376 16.8706
Au 11.3375 17.3635 15.4477
Au 13.1108 12.7832 21.2663
Au 12.1 15.0239 19.7951
Au 11.1975 17.3467 18.3427
Au 12.1913 15.0809 22.6977
Au 11.1988 17.3513 21.2343
Pd 11.3402 17.4123 24.0905
Au 18.2931 26.4675 26.7014
Au 16.8475 27.3715 24.4151
Pd 15.4177 28.2087 22.0952
Au 21.2123 26.4612 26.6998
Pd 19.7436 27.4666 24.4301
Au 18.3116 28.3452 22.1184
Au 22.6171 27.3727 24.3836
Pd 21.1833 28.3474 22.0869
Au 24.0416 28.2061 22.0563
Au 18.3072 13.1708 26.7782
Au 16.8843 12.216 24.49
Au 15.4681 11.3423 22.1702
Au 21.2259 13.1553 26.7891
Au 19.7844 12.115 24.5254
Au 18.3375 11.2046 22.1916
Pd 22.6805 12.2168 24.5047
Au 21.2268 11.2145 22.1932
Au 24.1013 11.3685 22.1819
Au 18.3138 26.386 12.7388
Au 16.871 27.3143 15.0183
Au 15.43 28.1913 17.3559
Au 21.2165 26.3834 12.7379
Au 19.7694 27.4195 15.0114
Au 18.3343 28.3306 17.3289
Au 22.6416 27.3207 15.0459
Pd 21.2047 28.3161 17.3422
Au 24.0515 28.1793 17.346
Pd 18.3345 13.0867 12.8167
Au 16.8864 12.1802 15.0985
Au 15.4836 11.3206 17.4246
Au 21.241 13.1057 12.8261
Au 19.7941 12.0837 15.0858
Au 18.3538 11.1899 17.4118
Pd 22.6746 12.1915 15.1027
Pd 21.2218 11.2016 17.4042
Au 24.0764 11.3454 17.4136
Pd 25.9397 15.9397 25.0663
Au 25.9098 23.6229 25.0434
Pd 25.0717 13.629 23.6648
Au 25.0242 25.9569 23.5757
Au 23.6363 14.5114 25.9702
Au 23.5982 25.0554 25.9294
Au 25.9137 15.8888 14.4917
Au 25.9149 23.6075 14.4579
Pd 25.0404 13.5805 15.9284
Au 25.0267 25.9263 15.8887
Pd 23.6075 14.4704 13.6162
Au 23.6018 25.014 13.5539
Pd 13.5783 15.9245 25.0776
Pd 13.5691 23.6183 25.0496
Au 14.4736 13.6186 23.6547
Au 14.4502 25.9499 23.6022
Au 15.9111 14.5194 25.972
Pd 15.891 25.076 25.928
Au 13.6231 15.868 14.4834
Pd 13.5768 23.5771 14.4364
Pd 14.4938 13.5687 15.931
Au 14.4471 25.9228 15.8542
Au 15.9381 14.4597 13.6249
Au 15.9155 25.0242 13.5475
Au 31.2413 19.6969 12.6617
Pd 31.3705 19.729 15.458
Au 31.4621 19.7325 18.3123
Au 31.4908 19.7301 21.1758
Au 31.4444 19.7788 24.0181
Au 31.2742 19.7863 26.8452
Au 8.3018 19.6954 12.6196
Au 8.11971 19.6964 15.4496
Pd 8.0775 19.7095 18.3382
Pd 8.07632 19.7252 21.199
Pd 8.13477 19.7435 24.0432
Pd 8.28727 19.7691 26.8101
Au 12.6109 31.272 19.708
Au 15.4473 31.4542 19.7095
Au 18.3269 31.5093 19.7026
Au 21.2078 31.4866 19.7094
Pd 24.06 31.3814 19.7118
Pd 26.8376 31.2284 19.702
Pd 12.7104 8.26367 19.7982
Au 15.5119 8.07132 19.7979
Pd 18.3572 8.04422 19.7866
Au 21.1987 8.04035 19.785
Au 24.0779 8.10677 19.7849
Au 26.8981 8.29027 19.7695
Au 19.7409 12.7155 31.2864
Au 19.7317 15.5382 31.429
Au 19.7439 18.368 31.4829
Au 19.775 21.246 31.4834
Au 19.7787 24.0884 31.4117
Pd 19.7807 26.884 31.2124
Pd 19.7944 12.6577 8.34758
Au 19.7868 15.4384 8.17461
Pd 19.7775 18.2701 8.14315
Au 19.7666 21.1098 8.08126
Au 19.7778 23.9614 8.09229
Au 19.7505 26.7842 8.22524
Au 29.0543 18.3353 27.8686
Au 26.7958 16.8748 28.8103
Au 24.4692 15.46 29.6964
Au 22.1209 14.07 30.5247
Au 29.0445 21.2675 27.8559
Au 26.7969 19.8257 28.9253
Au 24.505 18.3756 29.8493
Au 22.1392 16.9392 30.6777
Au 26.7226 22.7397 28.785
Pd 24.4817 21.2889 29.796
Au 22.1723 19.8365 30.7168
Pd 24.426 24.1256 29.6353
Pd 22.1554 22.6975 30.6199
Au 22.1392 25.5414 30.4806
Au 29.0291 18.2308 11.6808
Pd 26.7222 16.8018 10.7909
Pd 24.4282 15.3969 9.92667
Pd 22.1308 14.0111 9.09182
Au 29.0476 21.1666 11.6427
Au 26.7828 19.6862 10.6245
Au 24.4911 18.2406 9.74463
Au 22.1481 16.8432 8.90257
Au 26.7549 22.6171 10.7017
Au 24.4665 21.1596 9.70268
Au 22.1505 19.7041 8.84951
Au 24.437 24.032 9.81104
Pd 22.1473 22.579 8.87118
Au 22.1119 25.4267 8.99675
Au 10.4639 18.325 27.8453
Au 12.7541 16.8906 28.8126
Pd 15.0947 15.4665 29.6593
Au 17.3779 14.0746 30.513
Au 10.4524 21.2119 27.8238
Pd 12.7039 19.7878 28.8772
Au 15.0184 18.351 29.8298
Pd 17.3755 16.9106 30.6502
Au 12.7296 22.6537 28.7633
Pd 14.9935 21.2403 29.8078
Au 17.3337 19.786 30.7391
Au 15.0386 24.1205 29.6709
Au 17.3428 22.6708 30.6953
Au 17.398 25.5647 30.5178
Pd 10.5104 18.2443 11.6703
Au 12.7863 16.8112 10.755
Au 15.1189 15.3856 9.88194
Pd 17.4602 14.0049 9.07517
Pd 10.5006 21.1173 11.6526
Au 12.743 19.6834 10.6123
Pd 15.0574 18.248 9.74851
Au 17.4109 16.8342 8.89371
Au 12.7548 22.5736 10.6974
Pd 15.0439 21.1265 9.72507
Au 17.3676 19.6797 8.82792
Au 15.0553 24.0187 9.79845
Au 17.3685 22.5433 8.83704
Au 17.3887 25.4384 8.96534
Au 27.8477 29.056 18.2416
Au 28.7685 26.7852 16.8232
Au 29.6758 24.47 15.4057
Au 30.5266 22.0898 14.0021
Au 27.8391 29.0956 21.183
Au 28.8815 26.8169 19.7249
Au 29.8259 24.5079 18.2943
Au 30.702 22.1254 16.8662
Au 28.7846 26.8084 22.6291
Pd 29.8105 24.5313 21.1854
Au 30.7362 22.1728 19.7436
Au 29.6797 24.4997 24.0651
Au 30.6927 22.1938 22.6151
Au 30.5313 22.1768 25.5031
Au 11.5901 29.0626 18.2494
Au 10.6673 26.7489 16.7928
Pd 9.82659 24.3906 15.3776
Au 9.01863 22.0538 13.9737
Au 11.6219 29.0402 21.1847
Au 10.552 26.8066 19.7422
Au 9.6401 24.4781 18.2676
Au 8.81082 22.1036 16.8637
Au 10.704 26.7452 22.6555
Au 9.64263 24.4805 21.2106
Au 8.76205 22.1018 19.7485
Pd 9.84191 24.4164 24.0792
Au 8.82854 22.1161 22.6453
Pd 9.02499 22.0867 25.4786
Pd 27.8699 10.4943 18.3339
Au 28.8192 12.7392 16.9041
Au 29.6941 15.059 15.4344
Pd 30.4804 17.3793 14.0249
Au 27.8968 10.518 21.2365
Pd 28.8864 12.7485 19.794
Au 29.848 15.035 18.3659
Au 30.6661 17.3746 16.8884
Au 28.828 12.8156 22.6839
Pd 29.8048 15.0502 21.2374
Pd 30.6959 17.3625 19.7872
Pd 29.6713 15.1092 24.0885
Pd 30.6488 17.3834 22.6304
Au 30.525 17.4117 25.4792
Au 11.6786 10.4139 18.3261
Au 10.733 12.6983 16.8661
Au 9.85256 15.0007 15.4183
Au 9.03402 17.3456 13.986
Au 11.6745 10.428 21.269
Au 10.6116 12.673 19.7936
Au 9.67281 14.9854 18.3463
Au 8.81568 17.3182 16.8965
Au 10.7313 12.7338 22.6932
Pd 9.69633 15.0013 21.232
Pd 8.79845 17.3419 19.7805
Au 9.83461 15.0926 24.1061
Au 8.83348 17.3597 22.6445
Pd 9.02475 17.4355 25.4934
Au 18.3115 27.9147 29.0315
Au 16.8417 28.8493 26.7466
Au 15.4066 29.716 24.4306
Au 13.9701 30.5329 22.098
Au 21.2231 27.9037 29.0255
Au 19.7626 28.9554 26.7639
Pd 18.2964 29.8438 24.4623
Au 16.8606 30.7158 22.1363
Au 22.6795 28.8389 26.721
Au 21.1911 29.8671 24.4526
Au 19.7528 30.7594 22.1327
Pd 24.0759 29.6774 24.3848
Au 22.6512 30.7 22.1039
Pd 25.4791 30.4923 22.0365
Au 18.2776 11.7147 29.0761
Pd 16.8816 10.7989 26.8068
Au 15.4531 9.85515 24.5198
Au 14.044 8.99783 22.1771
Au 21.2107 11.6799 29.1078
Au 19.7358 10.6417 26.8604
Pd 18.3175 9.71454 24.5662
Au 16.9159 8.80656 22.2128
Au 22.6665 10.7621 26.8239
Au 21.2208 9.69585 24.5557
Au 19.7718 8.78132 22.2085
Au 24.1112 9.8735 24.5094
Au 22.6708 8.82955 22.2035
Au 25.5477 9.02612 22.1529
Au 18.2895 27.8093 10.4126
Pd 16.8584 28.7306 12.6763
Au 15.4113 29.6579 14.9655
Au 13.9741 30.5221 17.3341
Pd 21.1994 27.7832 10.4169
Au 19.7712 28.8731 12.6441
Au 18.3181 29.8342 14.9274
Au 16.8653 30.7126 17.2847
Pd 22.6465 28.733 12.7001
Pd 21.2263 29.7952 14.9625
Au 19.7797 30.7416 17.2792
Au 24.0941 29.6499 14.984
Au 22.6385 30.6837 17.3041
Au 25.501 30.514 17.3418
Au 18.3421 11.6627 10.5008
Au 16.89 10.7153 12.7764
Au 15.4597 9.80248 15.0854
Au 14.0659 8.97808 17.4346
Au 21.26 11.6737 10.5033
Au 19.7921 10.6081 12.7477
Au 18.3462 9.6436 15.0695
Pd 16.9254 8.83378 17.4199
Au 22.6996 10.751 12.7879
Au 21.2414 9.66922 15.0701
Pd 19.7801 8.80413 17.4173
Au 24.1236 9.85496 15.0881
Au 22.6541 8.84418 17.3991
Pd 25.5264 9.04572 17.4385
Au 28.2822 15.8975 26.4944
Au 28.2692 23.688 26.5208
Pd 27.4468 13.6035 25.0865
Au 27.4133 26.015 25.0746
Au 26.5496 11.2825 23.6882
Au 26.4844 28.3318 23.5973
Pd 26.0025 14.4806 27.4334
Pd 25.9474 25.0908 27.4088
Au 25.1279 12.1365 26.0166
Au 25.0769 27.457 25.9599
Au 23.6608 13.0527 28.3229
Au 23.6407 26.5337 28.2662
Pd 28.2584 15.8652 13.0415
Au 28.2897 23.6323 12.974
Au 27.4164 13.5276 14.4496
Au 27.3989 25.9896 14.4117
Au 26.5181 11.243 15.906
Pd 26.473 28.2673 15.8588
Au 25.9423 14.4243 12.1331
Au 25.9673 25.0656 12.0508
Pd 25.0598 12.1235 13.5899
Pd 25.0532 27.4001 13.5203
Pd 23.6179 13.0384 11.3026
Au 23.6197 26.4772 11.199
Au 11.2208 15.9045 26.515
Au 11.2183 23.6318 26.4811
Au 12.0841 13.5296 25.1266
Pd 12.0676 25.9732 25.0592
Pd 13.0341 11.2317 23.6737
Au 12.9719 28.2833 23.5994
Au 13.5473 14.4433 27.4693
Au 13.5025 25.1116 27.4064
Au 14.4544 12.1009 26.0263
Au 14.397 27.4464 25.9627
Pd 15.9158 13.0773 28.3077
Au 15.8585 26.5587 28.2786
Pd 11.2703 15.8558 13.0302
Au 11.2347 23.5609 12.9718
Au 12.1255 13.4944 14.4241
Au 12.0445 25.9413 14.3526
Au 13.0457 11.1993 15.8934
Au 12.9606 28.2886 15.8009
Au 13.574 14.3845 12.1096
Au 13.5384 25.0454 12.0375
Pd 14.4769 12.0726 13.5813
Au 14.4205 27.405 13.4502
Au 15.9312 12.9917 11.2814
Pd 15.9033 26.4439 11.185
Pd 33.4347 19.6755 11.2954
Au 33.6282 19.6975 14.0238
Pd 33.6511 19.7122 16.8467
Au 33.7447 19.7183 19.7324
Au 33.7498 19.7398 22.6182
Au 33.6885 19.7733 25.4892
Au 33.4844 19.7872 28.2131
Au 6.0857 19.6832 11.2372
Au 5.88379 19.6857 13.9833
Pd 5.87197 19.698 16.872
Au 5.81825 19.7366 19.7588
Au 5.83575 19.7498 22.6386
Au 5.87934 19.7582 25.4761
Au 6.05689 19.7758 28.1822
Au 11.2287 33.4824 19.7009
Au 13.9631 33.6948 19.6984
Au 16.8569 33.7634 19.6881
Au 19.7823 33.7722 19.7033
Pd 22.6876 33.6805 19.7181
Au 25.5049 33.6298 19.7146
Au 28.211 33.4573 19.7135
Au 11.35 6.03327 19.7977
Au 14.0534 5.84699 19.7938
Au 16.9223 5.77965 19.7821
Au 19.7893 5.77616 19.7809
Pd 22.6779 5.84543 19.7854
Au 25.542 5.86993 19.7875
Au 28.2736 6.07962 19.7769
Au 19.7306 11.3517 33.5071
Au 19.7336 14.0756 33.6874
Au 19.7518 16.9264 33.7495
Au 19.7723 19.8159 33.7595
Au 19.7894 22.712 33.7322
Au 19.7926 25.5725 33.6411
Au 19.7947 28.2735 33.4259
Au 19.7979 11.2715 6.12363
Au 19.7896 13.9878 5.92558
Pd 19.7826 16.8241 5.91572
Pd 19.7659 19.6612 5.8729
Au 19.7517 22.5219 5.80494
Au 19.756 25.3871 5.82447
Au 19.7536 28.1261 5.98626
Pd 31.349 18.3888 29.184
Au 29.1107 16.9315 30.1696
Au 26.7745 15.4705 31.1049
Au 24.3982 14.0433 31.9724
Pd 22.0222 12.6556 32.771
Pd 31.339 21.2222 29.1651
Au 29.1653 19.8171 30.2795
Au 26.8664 18.3491 31.2655
Au 24.4846 16.8891 32.1602
Pd 22.0828 15.4712 32.9329
Pd 29.0253 22.6939 30.1024
Au 26.8215 21.3131 31.2385
Au 24.5093 19.8662 32.1828
Au 22.1293 18.3785 33.0437
Au 26.7195 24.1518 31.0452
Au 24.4693 22.7519 32.0902
Pd 22.1268 21.3028 32.9812
Au 24.4132 25.5617 31.903
Pd 22.1245 24.1599 32.8858
Au 22.0773 26.9783 32.7367
Au 31.3159 18.2599 10.3006
Pd 29.0032 16.8252 9.42608
Au 26.7119 15.394 8.52751
Au 24.4116 13.9733 7.66072
Au 22.096 12.5782 6.82944
Au 31.3381 21.1058 10.2737
Pd 29.1142 19.6803 9.29132
Au 26.8176 18.216 8.32245
Pd 24.478 16.7733 7.48861
Au 22.146 15.3824 6.61377
Pd 29.0467 22.551 9.36393
Pd 26.8049 21.1432 8.33099
Pd 24.4714 19.6752 7.41878
Au 22.1184 18.2557 6.54792
Au 26.733 23.9918 8.40161
Au 24.4688 22.5687 7.37665
Pd 22.1029 21.1299 6.55862
Au 24.3875 25.4231 7.52166
Au 22.116 23.9847 6.53931
Pd 22.0336 26.803 6.7339
Pd 8.18347 18.3832 29.1719
Au 10.4375 16.9279 30.1668
Au 12.8103 15.4738 31.0774
Pd 15.1268 14.0644 31.9183
Au 17.4274 12.6531 32.7938
Au 8.15402 21.1872 29.1856
Au 10.3701 19.7878 30.2683
Au 12.6765 18.3394 31.2438
Pd 15.0537 16.8808 32.0777
Au 17.3694 15.4753 32.9665
Pd 10.4401 22.6192 30.0925
Au 12.6578 21.2448 31.2148
Au 14.9816 19.8 32.1839
Au 17.3705 18.3253 33.0433
Pd 12.7553 24.0768 31.0163
Au 14.9896 22.7012 32.1322
Au 17.3944 21.2519 33.07
Au 15.1013 25.5545 31.9385
Au 17.4087 24.1622 32.9886
Au 17.4898 26.9962 32.7702
Au 8.22738 18.2538 10.2655
Au 10.5114 16.8328 9.36577
Pd 12.8475 15.3991 8.51124
Au 15.1784 13.9673 7.62431
Au 17.5031 12.5729 6.81235
Au 8.21832 21.0955 10.2528
Au 10.4256 19.6826 9.2251
Au 12.7499 18.2275 8.29414
Pd 15.0941 16.7963 7.47444
Au 17.4284 15.3794 6.6067
Pd 10.4855 22.5004 9.36589
Pd 12.7349 21.1318 8.31638
Pd 15.0511 19.6741 7.42236
Pd 17.4357 18.2317 6.57182
Au 12.7694 23.9638 8.40936
Pd 15.0493 22.5566 7.42501
Au 17.3915 21.0963 6.49929
Au 15.1054 25.4011 7.51048
Pd 17.4183 23.9931 6.57394
Au 17.4481 26.8231 6.67177
Au 29.2145 31.3597 18.2969
Au 30.1567 29.0793 16.8532
Au 31.0638 26.7629 15.4132
Au 31.9508 24.388 13.9706
Au 32.7853 22.0037 12.5694
Au 29.2088 31.3811 21.1385
Pd 30.2178 29.1515 19.7239
Pd 31.1802 26.8437 18.2612
Au 32.1454 24.4906 16.8279
Au 32.9881 22.0616 15.3962
Au 30.1458 29.1124 22.5986
Au 31.2241 26.8714 21.1798
Au 32.1792 24.5223 19.7518
Au 33.0635 22.084 18.2954
Pd 31.045 26.7796 24.0284
Au 32.1363 24.5369 22.6401
Pd 33.0215 22.0984 21.1943
Au 31.9565 24.4629 25.4872
Au 32.9997 22.1491 24.078
Au 32.804 22.1035 26.9202
Au 10.2245 31.3662 18.2797
Au 9.28795 29.0551 16.8249
Au 8.39931 26.6739 15.3617
Au 7.56415 24.3244 13.9442
Au 6.75575 21.9887 12.5402
Pd 10.2824 31.3268 21.1247
Au 9.17182 29.1475 19.726
Au 8.21259 26.8119 18.2456
Au 7.34519 24.4322 16.7842
Pd 6.59262 22.0351 15.3614
Pd 9.35474 29.0249 22.5856
Au 8.22025 26.8141 21.2092
Pd 7.33561 24.443 19.7331
Au 6.46882 22.0606 18.2904
Au 8.41917 26.7027 24.0514
Au 7.34883 24.4369 22.6681
Pd 6.51108 22.0642 21.2109
Au 7.56688 24.3605 25.4762
Pd 6.59303 22.0692 24.0967
Au 6.74754 22.0494 26.8843
Au 29.2648 8.2079 18.3705
Au 30.1894 10.451 16.9447
Au 31.1038 12.7656 15.4822
Au 31.9555 15.1022 14.0186
Au 32.753 17.3963 12.6134
Pd 29.2263 8.23174 21.1919
Pd 30.2508 10.4397 19.7775
Pd 31.2075 12.7041 18.3433
Au 32.1458 15.0409 16.8811
Pd 32.8925 17.3964 15.4139
Au 30.1993 10.5085 22.6292
Au 31.2373 12.7352 21.2167
Au 32.1736 15.0363 19.8095
Pd 32.9716 17.3903 18.3238
Au 31.1133 12.8386 24.0691
Pd 32.0782 15.0813 22.6723
Au 33.018 17.3729 21.218
Au 31.959 15.1486 25.4883
Pd 32.9212 17.423 24.0803
Au 32.7916 17.4834 26.9076
Au 10.3387 8.10923 18.3744
Pd 9.41544 10.398 16.9177
Au 8.47328 12.7064 15.4336
Pd 7.62322 15.0692 13.9902
Au 6.77299 17.3781 12.5581
Au 10.3315 8.12178 21.2081
Au 9.24368 10.3199 19.7761
Pd 8.32836 12.6353 18.2982
Au 7.3841 14.9544 16.8427
Au 6.55272 17.336 15.4008
Au 9.36083 10.4266 22.6564
Au 8.27578 12.6611 21.2349
Au 7.33757 14.9896 19.7781
Au 6.48075 17.3645 18.331
Pd 8.47512 12.7957 24.0852
Au 7.37653 15.0184 22.6739
Au 6.47684 17.391 21.2063
Au 7.57159 15.1491 25.5187
Au 6.5522 17.4107 24.1007
Au 6.75277 17.4843 26.9075
Pd 18.376 29.2346 31.3106
Au 16.902 30.2156 29.0559
Au 15.4209 31.1262 26.7257
Au 13.9674 31.9834 24.3765
Au 12.5347 32.8018 22.0199
Pd 21.1863 29.2298 31.2971
Au 19.774 30.3295 29.1167
Pd 18.2897 31.2394 26.7941
Au 16.8317 32.1667 24.4833
Au 15.3794 33.013 22.0843
Pd 22.6382 30.17 29.0129
Au 21.2347 31.2861 26.8043
Au 19.7371 32.21 24.4866
Au 18.2951 33.0889 22.0844
Au 24.1054 31.0914 26.6741
Au 22.703 32.1541 24.4474
Au 21.2317 33.0713 22.084
Pd 25.4964 31.9005 24.2975
Au 24.1261 32.9614 22.0586
Pd 26.8917 32.7198 21.9782
Pd 18.3301 10.3806 31.3618
Pd 16.91 9.44071 29.0803
Pd 15.4793 8.53419 26.8
Au 14.0379 7.57909 24.4669
Pd 12.6454 6.76318 22.0777
Au 21.1634 10.3244 31.4152
Au 19.7405 9.25848 29.1993
Au 18.2846 8.31854 26.9015
Au 16.8707 7.39025 24.5782
Au 15.4484 6.51468 22.1626
Au 22.6298 9.3802 29.1255
Pd 21.2143 8.34803 26.8931
Au 19.7699 7.35066 24.5674
Au 18.3505 6.44998 22.1538
Pd 24.0676 8.50429 26.7754
Au 22.691 7.39624 24.5473
Pd 21.2384 6.50807 22.1329
Pd 25.5262 7.62557 24.4184
Au 24.1344 6.54476 22.153
Au 26.9654 6.7587 22.0895
Au 18.322 29.1524 8.08645
Au 16.8622 30.095 10.3632
Au 15.4196 31.0065 12.659
Pd 13.9775 31.894 15.0431
Au 12.5356 32.7867 17.3853
Au 21.178 29.1408 8.10349
Au 19.7628 30.2288 10.2881
Au 18.2698 31.2031 12.5646
Au 16.8129 32.1328 14.9114
Au 15.3733 32.9954 17.3145
Au 22.6253 30.0744 10.3873
Au 21.2391 31.1942 12.603
Au 19.78 32.1738 14.9168
Au 18.3073 33.072 17.3118
Au 24.084 31.0127 12.6811
Au 22.6798 32.1174 14.9425
Au 21.2322 33.0655 17.3332
Au 25.5278 31.9205 15.0332
Au 24.1125 32.9736 17.3562
Au 26.9299 32.7768 17.4105
Au 18.3797 10.2875 8.21544
Pd 16.9498 9.38748 10.4948
Au 15.482 8.42302 12.7866
Au 14.0386 7.53397 15.1539
Pd 12.6582 6.75093 17.5271
Au 21.2244 10.2904 8.22103
Pd 19.7957 9.28483 10.4158
Au 18.3318 8.26009 12.702
Au 16.8775 7.33948 15.09
Pd 15.4695 6.57284 17.4603
Pd 22.6573 9.40196 10.5047
Au 21.2688 8.27727 12.706
Au 19.8035 7.30384 15.0889
Au 18.3498 6.48436 17.443
Au 24.1166 8.46801 12.7905
Au 22.7226 7.36624 15.0775
Pd 21.2358 6.52652 17.4548
Au 25.559 7.59771 15.1543
Pd 24.1476 6.61301 17.448
Au 26.9558 6.76806 17.4829
Pd 30.5979 16.0039 27.8752
Au 30.6083 23.6467 27.9146
Au 29.8013 13.616 26.4839
Pd 29.7445 25.9745 26.4522
Au 28.9215 11.2815 25.0741
Au 28.8484 28.3357 25.0325
Au 27.9668 8.94852 23.6094
Au 27.8969 30.6387 23.5389
Au 28.3421 14.5033 28.8712
Au 28.2706 25.1236 28.848
Au 27.4798 12.1469 27.4374
Pd 27.3901 27.428 27.3951
Au 26.5242 9.77465 25.9957
Pd 26.4633 29.776 25.8862
Au 25.9958 13.0566 29.7867
Pd 25.9229 26.5019 29.7113
Au 25.0689 10.6685 28.3383
Au 25.0705 28.9034 28.2666
Au 23.5867 11.6309 30.657
Au 23.5993 27.967 30.5753
Au 30.5815 15.8907 11.6226
Au 30.6163 23.535 11.547
Au 29.7641 13.547 13.0305
Au 29.7523 25.9672 12.9869
Au 28.8959 11.2147 14.4956
Pd 28.8301 28.2717 14.4723
Au 27.9501 8.93032 15.9828
Au 27.9241 30.5824 15.8785
Au 28.2567 14.434 10.6973
Au 28.2947 25.0107 10.5861
Pd 27.3805 12.1109 12.1396
Pd 27.3936 27.3873 12.0741
Au 26.5077 9.79302 13.5713
Au 26.5106 29.7063 13.5129
Pd 25.9081 13.0377 9.83964
Au 25.9518 26.4537 9.69442
Pd 25.0317 10.7188 11.2946
Au 25.0521 28.8178 11.1802
Au 23.614 11.6077 8.99405
Au 23.566 27.8566 8.861
Au 8.89349 15.9683 27.9195
Au 8.88646 23.5772 27.8782
Au 9.73173 13.5717 26.5226
Au 9.72228 25.9487 26.46
Au 10.6555 11.1933 25.0805
Au 10.6145 28.2956 25.022
Au 11.6216 8.89483 23.6332
Au 11.5496 30.6062 23.5459
Au 11.2142 14.4857 28.9064
Au 11.1834 25.0593 28.8456
Au 12.1045 12.0712 27.4865
Au 12.042 27.4601 27.3962
Au 13.0455 9.75816 26.0118
Pd 13.0106 29.7738 25.889
Au 13.6013 13.0489 29.8015
Au 13.5285 26.5371 29.759
Pd 14.5311 10.7255 28.3289
Au 14.4439 28.9338 28.2774
Au 15.931 11.646 30.6147
Au 15.938 27.9905 30.6052
Au 8.97632 15.8734 11.5854
Pd 8.95045 23.4464 11.5781
Au 9.7952 13.5147 13.0079
Au 9.71716 25.8595 12.9358
Pd 10.7015 11.1924 14.5068
Au 10.5817 28.2652 14.3772
Au 11.6368 8.86719 15.963
Au 11.5373 30.6089 15.8571
Pd 11.2827 14.4495 10.6926
Pd 11.2413 24.9209 10.6143
Au 12.135 12.0322 12.0967
Au 12.0673 27.3797 11.9836
Au 13.0588 9.7265 13.569
Au 12.9947 29.7416 13.4504
Au 13.6204 12.9695 9.77614
Au 13.5655 26.423 9.68175
Pd 14.5409 10.655 11.275
Pd 14.4956 28.7812 11.1419
Pd 16.0229 11.61 8.98428
Au 15.9169 27.841 8.84704
