923
Atoms. Timestep: 20118
Au 19.7515 19.7755 19.7656
Au 22.0529 19.7891 18.3461
Au 22.0454 19.7896 21.1909
Au 17.4627 19.7535 18.3345
Au 17.4557 19.7632 21.1818
Au 18.3311 22.0714 19.7524
Au 21.1753 22.0696 19.7466
Au 18.3311 17.4746 19.7717
Au 21.176 17.4894 19.7736
Au 19.7549 18.3654 22.076
Au 19.7417 21.1935 22.0619
Au 19.745 18.3518 17.4741
Au 19.7578 21.1875 17.4657
Pd 24.3386 19.7841 16.9367
Au 24.4074 19.8036 19.7554
Au 24.3313 19.805 22.6297
Pd 15.188 19.7371 16.9164
Au 15.1017 19.7473 19.7466
Au 15.1601 19.7492 22.6059
Pd 16.9118 24.3614 19.7438
Au 19.7496 24.4453 19.7401
Au 22.5882 24.3622 19.7242
Pd 16.9202 15.1872 19.7776
Au 19.7486 15.1143 19.7819
Au 22.6036 15.194 19.7841
Au 19.7622 16.9643 24.3929
Au 19.7484 19.7795 24.4606
Au 19.7417 22.6006 24.362
Au 19.743 16.937 15.176
Au 19.7553 19.75 15.0996
Au 19.7674 22.5919 15.1636
Au 22.0899 18.3586 23.573
Au 22.0792 21.2162 23.5577
Au 22.0888 18.3386 16.0018
Au 22.1024 21.2189 15.9968
Au 17.4216 18.3283 23.5583
Au 17.4099 21.2041 23.5496
Pd 17.431 18.3006 16.0028
Au 17.4282 21.1746 15.9883
Pd 23.5192 22.1101 18.3079
Au 23.5261 22.1207 21.1916
Au 15.9888 22.089 18.3038
Au 15.9825 22.1067 21.1964
Au 23.5385 17.4667 18.3209
Au 23.5338 17.4618 21.2318
Au 16.001 17.4201 18.3091
Au 15.9834 17.4079 21.221
Au 18.298 23.5605 22.0784
Au 21.1863 23.5497 22.0741
Au 18.3034 16.0112 22.1122
Au 21.2057 16.0137 22.1279
Au 18.3177 23.5486 17.4152
Au 21.2141 23.5458 17.4186
Au 18.3063 15.9997 17.4375
Au 21.2012 16.0014 17.4396
Au 26.6358 19.7658 15.5284
Au 26.7408 19.7793 18.3298
Au 26.7366 19.7981 21.2045
Au 26.6162 19.8035 24.0467
Au 12.8874 19.7239 15.4887
Au 12.7707 19.736 18.321
Au 12.7604 19.7344 21.1976
Pd 12.8643 19.7449 24.0226
Au 15.4764 26.6583 19.7518
Au 18.327 26.7711 19.737
Pd 21.1782 26.7671 19.7248
Au 23.9978 26.6522 19.7102
Au 15.5131 12.8848 19.7852
Au 18.3322 12.7721 19.786
Au 21.1932 12.7697 19.7794
Au 24.0348 12.8926 19.7902
Pd 19.7628 15.5649 26.6905
Pd 19.75 18.3655 26.7771
Pd 19.7459 21.1909 26.7663
Au 19.7528 24.024 26.6519
Pd 19.7711 15.5133 12.903
Pd 19.7727 18.3105 12.7877
Pd 19.7773 21.1644 12.7765
Au 19.7791 23.9949 12.8495
Pd 24.3909 18.3568 25.01
Au 22.095 16.9342 25.9036
Pd 24.3782 21.2341 25.0038
Pd 22.0938 19.789 25.9576
Au 22.0957 22.6357 25.8814
Au 24.4015 18.3121 14.5652
Au 22.0969 16.8896 13.6749
Au 24.3957 21.2213 14.547
Au 22.0958 19.7576 13.5728
Au 22.1106 22.6203 13.6392
Au 15.1018 18.3086 24.992
Au 17.4274 16.9139 25.8948
Au 15.0796 21.2075 24.9912
Pd 17.3997 19.7676 25.9567
Au 17.3911 22.6374 25.8727
Au 15.1491 18.2629 14.5556
Pd 17.4313 16.8704 13.6927
Au 15.1181 21.1795 14.5379
Au 17.4292 19.7046 13.5983
Au 17.4329 22.6134 13.6535
Au 24.9568 24.4277 18.2787
Au 25.8298 22.1304 16.885
Pd 24.9528 24.4333 21.1859
Au 25.9141 22.1632 19.7573
Pd 25.8325 22.1368 22.6424
Au 14.5301 24.4168 18.2912
Au 13.6649 22.088 16.8563
Au 14.5272 24.4293 21.2028
Au 13.5703 22.1195 19.7528
Au 13.6518 22.1029 22.6545
Au 24.9885 15.1351 18.3157
Pd 25.8541 17.4373 16.8924
Au 24.9946 15.1379 21.2724
Au 25.9381 17.4273 19.7719
Au 25.8526 17.4388 22.6925
Au 14.5639 15.0977 18.318
Au 13.6864 17.3881 16.8776
Pd 14.5471 15.105 21.2387
Au 13.589 17.3657 19.7789
Au 13.6605 17.39 22.6733
Au 18.2841 25.0096 24.4052
Au 16.8569 25.8902 22.0878
Au 21.1853 25.0038 24.3958
Au 19.7484 25.9874 22.0997
Au 22.6052 25.8865 22.0603
Au 18.3097 14.5866 24.4517
Au 16.8697 13.6986 22.1332
Au 21.2222 14.5735 24.4707
Au 19.764 13.5959 22.1618
Au 22.6597 13.6858 22.1708
Pd 18.323 24.9743 15.0802
Au 16.8846 25.866 17.3884
Au 21.2172 24.976 15.0966
Au 19.7764 25.9599 17.3755
Pd 22.6232 25.8716 17.394
Au 18.321 14.5545 15.1084
Au 16.8876 13.6751 17.4248
Au 21.2288 14.5496 15.1146
Au 19.7706 13.579 17.4135
Au 22.6452 13.6617 17.4166
Au 23.5971 15.9773 23.6415
Au 23.5735 23.5845 23.5741
Au 23.5912 15.9421 15.9518
Pd 23.569 23.5905 15.9379
Pd 15.9295 15.9603 23.6102
Au 15.9114 23.5976 23.5982
Pd 15.9622 15.9291 15.9477
Au 15.9409 23.5788 15.913
Au 28.9449 19.7425 14.1025
Pd 29.0833 19.7596 16.9148
Au 29.119 19.7657 19.7614
Au 29.0862 19.7773 22.6171
Au 28.9461 19.7878 25.4479
Pd 10.5829 19.7109 14.0538
Au 10.4287 19.7215 16.8888
Au 10.3896 19.7179 19.7632
Au 10.4297 19.7275 22.6268
Au 10.5667 19.745 25.4192
Au 14.0389 28.9591 19.7476
Au 16.8819 29.1066 19.7476
Au 19.7623 29.1316 19.7294
Au 22.5919 29.0873 19.723
Au 25.4239 28.9542 19.7149
Au 14.1101 10.5474 19.7849
Au 16.9363 10.409 19.7809
Au 19.7796 10.389 19.7708
Au 22.6296 10.4325 19.7749
Au 25.4737 10.5939 19.7793
Au 19.7483 14.15 28.9766
Pd 19.7516 16.9467 29.0883
Au 19.748 19.7779 29.1192
Au 19.7629 22.6282 29.0831
Au 19.7591 25.4599 28.9475
Au 19.7957 14.0923 10.622
Pd 19.7919 16.8826 10.4918
Au 19.802 19.7138 10.4553
Au 19.8055 22.5731 10.4498
Pd 19.7675 25.3974 10.5378
Au 26.7027 18.3191 26.4354
Au 24.4364 16.8899 27.3421
Pd 22.1037 15.4989 28.2083
Au 26.6802 21.258 26.4463
Au 24.4277 19.8068 27.4257
Au 22.1118 18.3592 28.3114
Pd 24.404 22.685 27.3398
Au 22.1282 21.2387 28.3002
Pd 22.109 24.0927 28.1812
Au 26.7101 18.2734 13.1202
Pd 24.4233 16.8475 12.2271
Au 22.1277 15.4591 11.3873
Au 26.7117 21.2113 13.0953
Au 24.4313 19.7422 12.1079
Pd 22.1391 18.2942 11.2433
Pd 24.4257 22.6376 12.1713
Pd 22.1378 21.1801 11.2222
Pd 22.1201 24.0368 11.3251
Au 12.781 18.3111 26.4102
Au 15.085 16.8785 27.3448
Pd 17.4179 15.4959 28.203
Pd 12.7643 21.2047 26.4069
Au 15.0389 19.78 27.4228
Au 17.3912 18.3365 28.3185
Au 15.0375 22.6705 27.3165
Au 17.3629 21.2074 28.3137
Au 17.3761 24.0953 28.1839
Au 12.8171 18.2551 13.1009
Pd 15.1167 16.8268 12.2078
Au 17.4504 15.4388 11.3923
Au 12.7954 21.1704 13.0807
Au 15.0835 19.7004 12.1059
Au 17.4231 18.2652 11.2465
Au 15.085 22.6185 12.171
Au 17.4153 21.1418 11.2216
Au 17.4223 24.0342 11.3075
Pd 26.4069 26.7411 18.2686
Pd 27.3172 24.4667 16.8547
Au 28.1819 22.126 15.4633
Au 26.3988 26.7483 21.1839
Au 27.3962 24.494 19.7339
Au 28.302 22.1553 18.3106
Au 27.3033 24.4653 22.637
Au 28.2958 22.1796 21.1985
Au 28.1635 22.1584 24.0734
Au 13.051 26.7354 18.2829
Au 12.1645 24.425 16.8175
Au 11.3322 22.0767 15.4155
Pd 13.0675 26.7328 21.2059
Au 12.0598 24.4729 19.7528
Au 11.1858 22.1207 18.3014
Au 12.1762 24.4377 22.6666
Au 11.1816 22.1212 21.2037
Au 11.3349 22.0952 24.0812
Au 26.4425 12.8095 18.3205
Au 27.339 15.0906 16.88
Au 28.1787 17.4076 15.4696
Au 26.4487 12.8358 21.2747
Au 27.4337 15.0772 19.8032
Au 28.3107 17.4009 18.3342
Pd 27.3383 15.109 22.7026
Au 28.304 17.3824 21.2305
Au 28.1781 17.4099 24.0865
Au 13.1146 12.7635 18.3033
Au 12.2058 15.0393 16.8596
Au 11.341 17.3667 15.4389
Au 13.111 12.7796 21.2532
Au 12.1005 15.0218 19.784
Au 11.1982 17.346 18.3337
Au 12.189 15.075 22.6867
Au 11.1968 17.3469 21.2253
Pd 11.3355 17.4042 24.0818
Au 18.2813 26.4595 26.711
Au 16.8374 27.3657 24.4245
Pd 15.4094 28.2052 22.1044
Au 21.2006 26.4547 26.7122
Pd 19.7335 27.4622 24.4424
Au 18.3032 28.3432 22.1305
Au 22.607 27.3698 24.3985
Pd 21.175 28.3468 22.1017
Au 24.0334 28.207 22.0737
Au 18.302 13.1627 26.7705
Au 16.8817 12.2102 24.4798
Au 15.4681 11.3388 22.1575
Au 21.2207 13.1486 26.7842
Au 19.7818 12.1106 24.5177
Au 18.3376 11.2025 22.1814
Pd 22.6779 12.2138 24.4999
Au 21.227 11.2138 22.1858
Au 24.1014 11.3692 22.1774
Au 18.3153 26.3962 12.7483
Au 16.8698 27.3208 15.0277
Au 15.4263 28.194 17.3651
Au 21.218 26.395 12.7502
Au 19.7683 27.4274 15.0237
Au 18.3305 28.3348 17.341
Au 22.6404 27.33 15.0608
Pd 21.2009 28.3217 17.357
Au 24.0477 28.1863 17.3633
Pd 18.3426 13.0968 12.8089
Au 16.8928 12.1865 15.0883
Au 15.4882 11.3233 17.4118
Au 21.2491 13.1172 12.8212
Au 19.8006 12.0916 15.0782
Au 18.3585 11.194 17.4016
Pd 22.681 12.2008 15.0979
Pd 21.2265 11.2072 17.3968
Au 24.081 11.3523 17.4091
Pd 25.9347 15.9376 25.0695
Au 25.901 23.6208 25.0565
Pd 25.0692 13.6284 23.6642
Au 25.0156 25.9563 23.5911
Au 23.6311 14.507 25.9694
Au 23.5878 25.0511 25.9423
Au 25.9188 15.9005 14.4949
Au 25.9162 23.6192 14.4711
Pd 25.0453 13.5899 15.9278
Au 25.0254 25.9357 15.904
Pd 23.6141 14.4821 13.6153
Au 23.6033 25.0258 13.5667
Pd 13.5734 15.9162 25.0691
Pd 13.5603 23.6101 25.0511
Au 14.4711 13.6126 23.644
Au 14.4416 25.9439 23.6075
Au 15.906 14.5112 25.9638
Pd 15.8807 25.0678 25.9335
Au 13.6282 15.8736 14.4748
Pd 13.5781 23.5827 14.4378
Pd 14.4987 13.5728 15.9202
Au 14.4459 25.927 15.8594
Au 15.9448 14.4675 13.6167
Au 15.9169 25.0321 13.553
Au 31.2462 19.7136 12.6749
Pd 31.3728 19.7421 15.4713
Au 31.4616 19.742 18.3257
Au 31.4876 19.7359 21.1892
Au 31.4385 19.7808 24.0316
Au 31.2656 19.7846 26.8585
Au 8.30678 19.7007 12.6109
Au 8.12201 19.6979 15.4408
Pd 8.07704 19.7072 18.3293
Pd 8.07314 19.7192 21.1901
Pd 8.12887 19.7339 24.0344
Pd 8.27873 19.7559 26.8015
Au 12.6034 31.2703 19.7185
Au 15.4397 31.4539 19.7229
Au 18.3192 31.5104 19.7188
Au 21.2001 31.4891 19.7283
Pd 24.0524 31.3853 19.7333
Pd 26.8301 31.2337 19.726
Pd 12.7142 8.26186 19.7788
Au 15.5159 8.07091 19.781
Pd 18.3612 8.04524 19.7724
Au 21.2027 8.04279 19.7734
Au 24.0819 8.11064 19.7762
Au 26.902 8.29557 19.7637
Au 19.7317 12.7023 31.2796
Au 19.7209 15.5247 31.4258
Au 19.7316 18.3544 31.4834
Au 19.7613 21.2325 31.4876
Au 19.7636 24.075 31.4196
Pd 19.7644 26.8708 31.2239
Pd 19.807 12.6743 8.34071
Au 19.7982 15.4552 8.17135
Pd 19.7874 18.287 8.14356
Au 19.7752 21.1267 8.08535
Au 19.7849 23.9783 8.1001
Au 19.7561 26.8009 8.23669
Au 29.0454 18.3311 27.8779
Au 26.7868 16.8683 28.8155
Au 24.46 15.4512 29.6976
Au 22.1116 14.059 30.5219
Au 29.0342 21.2634 27.869
Au 26.7863 19.8191 28.9344
Au 24.4943 18.3666 29.8543
Au 22.1284 16.928 30.6786
Au 26.7107 22.7332 28.7978
Pd 24.4695 21.28 29.8047
Au 22.16 19.8252 30.7215
Pd 24.4126 24.1168 29.6477
Pd 22.1417 22.6863 30.6283
Au 22.1243 25.5304 30.4926
Au 29.0357 18.2477 11.6899
Pd 26.7304 16.8187 10.796
Pd 24.4379 15.4138 9.92777
Pd 22.142 14.0279 9.08893
Au 29.0528 21.1835 11.6557
Au 26.7897 19.7033 10.6334
Au 24.4996 18.2577 9.74949
Au 22.158 16.8603 8.90338
Au 26.7602 22.6341 10.7144
Au 24.4736 21.1768 9.71131
Au 22.159 19.7212 8.85404
Au 24.4425 24.049 9.82338
Pd 22.1544 22.5961 8.87945
Au 22.1174 25.4437 9.00869
Au 10.4551 18.3116 27.8369
Au 12.745 16.8771 28.8045
Pd 15.0856 15.4531 29.6516
Au 17.3687 14.0612 30.5057
Au 10.4422 21.1985 27.8192
Pd 12.6934 19.7742 28.8728
Au 15.0077 18.3373 29.8258
Pd 17.3648 16.897 30.6465
Au 12.7178 22.6403 28.7627
Pd 14.9814 21.2266 29.8075
Au 17.3214 19.7723 30.7391
Au 15.0252 24.107 29.6744
Au 17.3291 22.6571 30.6991
Au 17.3831 25.5513 30.5254
Pd 10.517 18.2519 11.6618
Au 12.7945 16.8212 10.7469
Au 15.1286 15.3979 9.87417
Pd 17.4715 14.0194 9.06782
Pd 10.5058 21.125 11.6479
Au 12.7499 19.6936 10.6079
Pd 15.0658 18.2605 9.7444
Au 17.4209 16.8489 8.89
Au 12.7602 22.5837 10.6968
Pd 15.051 21.139 9.72469
Au 17.3762 19.6945 8.82787
Au 15.0608 24.0311 9.80183
Au 17.3757 22.5581 8.84071
Au 17.3943 25.453 8.97279
Au 27.8427 29.0637 18.2637
Au 28.766 26.7953 16.8432
Au 29.6757 24.4824 15.4236
Au 30.529 22.1044 14.0177
Au 27.8312 29.0995 21.2052
Au 28.8762 26.8232 19.7451
Au 29.8231 24.5165 18.3124
Au 30.7017 22.1364 16.882
Au 28.7765 26.8109 22.6492
Pd 29.8049 24.5362 21.2035
Au 30.7332 22.18 19.7595
Au 29.6714 24.5008 24.0831
Au 30.687 22.1973 22.631
Au 30.5228 22.1764 25.5188
Au 11.585 29.0622 18.2561
Au 10.6648 26.75 16.7956
Pd 9.82661 24.3931 15.3765
Au 9.02115 22.0577 13.9688
Au 11.6141 29.036 21.1914
Au 10.5467 26.8037 19.7449
Au 9.63732 24.4767 18.2664
Au 8.81057 22.1037 16.8587
Au 10.6959 26.7386 22.6583
Au 9.63706 24.4753 21.2094
Au 8.75906 22.0981 19.7434
Pd 9.83364 24.4076 24.0781
Au 8.82278 22.1086 22.6402
Pd 9.01655 22.0757 25.4737
Pd 27.874 10.5019 18.3319
Au 28.8236 12.7492 16.9059
Au 29.6988 15.0713 15.4401
Pd 30.4852 17.3938 14.0344
Au 27.8981 10.5219 21.2345
Pd 28.888 12.7547 19.7959
Au 29.8499 15.0436 18.3717
Au 30.6682 17.3856 16.898
Au 28.8269 12.818 22.6858
Pd 29.8039 15.055 21.2431
Pd 30.6953 17.3696 19.7968
Pd 29.6677 15.1103 24.0942
Pd 30.6454 17.3868 22.64
Au 30.5189 17.4114 25.4887
Au 11.6828 10.4135 18.3086
Au 10.7375 12.6993 16.8506
Au 9.85723 15.0031 15.405
Au 9.03888 17.3495 13.975
Au 11.6759 10.4238 21.2515
Au 10.6133 12.6701 19.778
Au 9.67471 14.9839 18.3328
Au 8.81779 17.3182 16.8852
Au 10.7302 12.7272 22.6777
Pd 9.69547 14.9961 21.2185
Pd 8.7978 17.3381 19.7692
Au 9.83098 15.0838 24.0929
Au 8.83011 17.3522 22.6333
Pd 9.01863 17.4244 25.4824
Au 18.2967 27.9037 29.0431
Au 16.8287 28.8404 26.758
Au 15.3954 29.7095 24.4417
Au 13.9607 30.5287 22.1088
Au 21.2084 27.8942 29.0398
Au 19.7495 28.9481 26.7781
Pd 18.285 29.8387 24.4763
Au 16.851 30.7129 22.1501
Au 22.6665 28.8331 26.7379
Au 21.1797 29.8635 24.4695
Au 19.7432 30.7581 22.1493
Pd 24.0647 29.6752 24.4041
Au 22.6417 30.7002 22.1231
Pd 25.4697 30.4939 22.0582
Au 18.2709 11.7036 29.0666
Pd 16.8775 10.7901 26.7947
Au 15.4517 9.84856 24.5051
Au 14.0453 8.99359 22.16
Au 21.204 11.6702 29.1009
Au 19.7318 10.6342 26.8508
Pd 18.3161 9.70932 24.5541
Au 16.9172 8.80371 22.1981
Au 22.6625 10.7561 26.8173
Au 21.2194 9.6921 24.5464
Au 19.7731 8.7799 22.1965
Au 24.1098 9.87124 24.503
Au 22.6721 8.82957 22.1944
Au 25.5489 9.02765 22.1468
Au 18.2925 27.8224 10.424
Pd 16.8588 28.7401 12.6876
Au 15.409 29.6637 14.9765
Au 13.9692 30.5241 17.3449
Pd 21.2025 27.7978 10.431
Au 19.7716 28.8841 12.6583
Au 18.3158 29.8415 14.9415
Au 16.8603 30.7161 17.2985
Pd 22.6469 28.7453 12.7168
Pd 21.224 29.804 14.9793
Au 19.7747 30.7466 17.2958
Au 24.0919 29.66 15.0034
Au 22.6335 30.6901 17.3234
Au 25.4961 30.5217 17.3636
Au 18.3531 11.6758 10.4913
Au 16.8993 10.7247 12.7642
Au 15.4673 9.80816 15.0707
Au 14.0716 8.98001 17.4174
Au 21.271 11.6882 10.4966
Au 19.8015 10.619 12.7381
Au 18.3539 9.65075 15.0574
Pd 16.9313 8.83716 17.4053
Au 22.7089 10.7632 12.7814
Au 21.249 9.67781 15.0607
Pd 19.786 8.80894 17.4054
Au 24.1311 9.86497 15.0817
Au 22.66 8.85045 17.39
Pd 25.5321 9.05337 17.4324
Au 28.2759 15.8947 26.4998
Au 28.259 23.6852 26.5363
Pd 27.443 13.6021 25.0882
Au 27.4033 26.0136 25.0923
Au 26.5483 11.2826 23.6859
Au 26.4746 28.3319 23.6171
Pd 25.996 14.4755 27.4348
Pd 25.9357 25.0857 27.4239
Au 25.1239 12.1328 26.0141
Au 25.0653 27.4533 25.9772
Au 23.6542 13.0453 28.3201
Au 23.6274 26.5263 28.281
Pd 28.2649 15.8799 13.0468
Au 28.2924 23.6471 12.9895
Au 27.4227 13.5401 14.4511
Au 27.399 26.0022 14.4294
Au 26.5242 11.2531 15.9037
Pd 26.4706 28.2774 15.8786
Au 25.9504 14.4391 12.1344
Au 25.9702 25.0805 12.0659
Pd 25.0677 12.136 13.5873
Pd 25.0534 27.4126 13.5376
Pd 23.6274 13.0531 11.2998
Au 23.6226 26.492 11.2138
Au 11.2145 15.8932 26.5042
Au 11.2081 23.6205 26.4803
Au 12.0803 13.5206 25.1135
Pd 12.0577 25.9643 25.0622
Pd 13.0328 11.225 23.6586
Au 12.9622 28.2766 23.6063
Au 13.5408 14.432 27.4588
Au 13.4907 25.1003 27.4097
Au 14.4504 12.0918 26.0136
Au 14.3854 27.4374 25.9698
Pd 15.9092 13.066 28.2977
Au 15.8451 26.5474 28.2861
Pd 11.2768 15.8621 13.0193
Au 11.2374 23.5672 12.9709
Au 12.1319 13.4993 14.411
Au 12.0447 25.9463 14.3556
Au 13.0519 11.2027 15.8782
Au 12.9583 28.292 15.8078
Au 13.5821 14.3931 12.099
Au 13.5413 25.0541 12.0408
Pd 14.4848 12.0798 13.5686
Au 14.4208 27.4123 13.4574
Au 15.9408 13.0026 11.2713
Pd 15.9063 26.4548 11.1924
Pd 33.4409 19.6951 11.3106
Au 33.6318 19.7136 14.0393
Pd 33.652 19.7247 16.8622
Au 33.7429 19.7271 19.748
Au 33.7452 19.7448 22.6338
Au 33.6812 19.7746 25.5048
Au 33.4745 19.7848 28.2285
Au 6.09201 19.6892 11.2264
Au 5.88749 19.6881 13.9723
Pd 5.87292 19.6965 16.861
Au 5.81643 19.7314 19.7478
Au 5.83119 19.7409 22.6276
Au 5.87207 19.7456 25.4652
Au 6.04704 19.7597 28.1715
Au 11.22 33.48 19.7129
Au 13.9543 33.6937 19.7133
Au 16.8481 33.7638 19.7058
Au 19.7735 33.7741 19.7239
Pd 22.6788 33.6838 19.7413
Au 25.4961 33.6345 19.7404
Au 28.2023 33.4633 19.7417
Au 11.355 6.03078 19.7742
Au 14.0585 5.84585 19.7726
Au 16.9274 5.77996 19.7635
Au 19.7945 5.77791 19.7651
Pd 22.683 5.84861 19.7724
Au 25.5471 5.87454 19.7772
Au 28.2786 6.0856 19.7695
Au 19.7199 11.3355 33.4984
Au 19.7213 14.0593 33.6823
Au 19.7381 16.9099 33.7481
Au 19.7571 19.7994 33.7619
Au 19.7728 22.6956 33.7383
Au 19.7747 25.5562 33.651
Au 19.7756 28.2575 33.4393
Au 19.8133 11.291 6.11497
Au 19.8038 14.0075 5.92044
Pd 19.7954 16.8438 5.91426
Pd 19.7773 19.681 5.87511
Au 19.7617 22.5418 5.81085
Au 19.7646 25.407 5.83412
Au 19.7606 28.1457 5.99946
Pd 31.3389 18.3841 29.1956
Au 29.1004 16.9244 30.1772
Au 26.764 15.4609 31.1083
Au 24.3876 14.0315 31.9717
Pd 22.0115 12.6416 32.7662
Pd 31.3275 21.2175 29.1803
Au 29.1534 19.8098 30.2909
Au 26.8543 18.3394 31.2727
Au 24.4724 16.8771 32.1633
Pd 22.0706 15.457 32.9318
Pd 29.0122 22.6868 30.1173
Au 26.8079 21.3035 31.2495
Au 24.4956 19.8542 32.1898
Au 22.1155 18.3641 33.0464
Au 26.7047 24.1423 31.0598
Au 24.4542 22.74 32.1008
Pd 22.1116 21.2885 32.9877
Au 24.3969 25.55 31.9172
Pd 22.108 24.1457 32.896
Au 22.0596 26.9643 32.7506
Au 31.3238 18.2797 10.3119
Pd 29.0127 16.845 9.43339
Au 26.723 15.4138 8.53078
Au 24.4242 13.9931 7.65995
Au 22.11 12.598 6.82466
Au 31.3446 21.1257 10.2888
Pd 29.1223 19.7003 9.30245
Au 26.8274 18.2361 8.32948
Pd 24.4893 16.7933 7.49155
Au 22.1589 15.4024 6.61268
Pd 29.0533 22.5709 9.37873
Pd 26.8132 21.1633 8.34183
Pd 24.4814 19.6953 7.42549
Au 22.1299 18.2758 6.55054
Au 26.7399 24.0118 8.41608
Au 24.4773 22.5889 7.38712
Pd 22.113 21.15 6.56496
Au 24.3944 25.443 7.53576
Au 22.1247 24.0048 6.54937
Pd 22.0406 26.8228 6.74755
Pd 8.17338 18.3669 29.1614
Au 10.4271 16.9115 30.1565
Au 12.7999 15.4573 31.0675
Pd 15.1163 14.048 31.9088
Au 17.4168 12.6367 32.7846
Au 8.1425 21.1709 29.1787
Au 10.3583 19.7712 30.2617
Au 12.6644 18.3227 31.2375
Pd 15.0415 16.8641 32.0717
Au 17.3572 15.4587 32.961
Pd 10.427 22.6028 30.0896
Au 12.6443 21.2281 31.2122
Au 14.968 19.7832 32.1817
Au 17.3567 18.3086 33.0415
Pd 12.7406 24.0604 31.0175
Au 14.9745 22.6845 32.1338
Au 17.3791 21.2351 33.072
Au 15.0849 25.5381 31.9439
Au 17.3921 24.1455 32.9943
Au 17.472 26.9799 32.7797
Au 8.23533 18.2621 10.2549
Au 10.5209 16.8435 9.35549
Pd 12.8586 15.4121 8.50132
Au 15.191 13.9825 7.61475
Au 17.5172 12.5903 6.80319
Au 8.22486 21.1039 10.2458
Au 10.4339 19.6933 9.21844
Au 12.7597 18.2407 8.28781
Pd 15.1054 16.8117 7.46848
Au 17.4413 15.3971 6.60112
Pd 10.4922 22.511 9.36296
Pd 12.7432 21.1449 8.3138
Pd 15.061 19.6896 7.4201
Pd 17.4472 18.2494 6.56995
Au 12.7762 23.9768 8.4105
Pd 15.0578 22.5721 7.42649
Au 17.4016 21.1141 6.5011
Au 15.1123 25.4165 7.51571
Pd 17.4269 24.0108 6.57954
Au 17.4552 26.8407 6.68109
Au 29.2083 31.3681 18.3233
Au 30.1529 29.09 16.8775
Au 31.0625 26.7759 15.4354
Au 31.9522 24.4034 13.9905
Au 32.7892 22.0213 12.5871
Au 29.1998 31.3857 21.1649
Pd 30.2113 29.1585 19.7484
Pd 31.1762 26.8531 18.2836
Au 32.1439 24.5023 16.8481
Au 32.9893 22.0756 15.4141
Au 30.1365 29.1156 22.623
Au 31.2173 26.877 21.2023
Au 32.175 24.5302 19.7721
Au 33.0619 22.0943 18.3134
Pd 31.0356 26.7814 24.0506
Au 32.1293 24.541 22.6604
Pd 33.0171 22.1049 21.2123
Au 31.9469 24.4633 25.5072
Au 32.9925 22.1518 24.096
Au 32.7942 22.1024 26.938
Au 10.2183 31.3651 18.2881
Au 9.28426 29.0554 16.8294
Au 8.3982 26.6756 15.3622
Au 7.56556 24.3277 13.9409
Au 6.75967 21.9934 12.5331
Pd 10.2735 31.322 21.133
Au 9.16532 29.1439 19.7304
Au 8.20867 26.8099 18.2461
Au 7.34385 24.4316 16.7808
Pd 6.59383 22.036 15.3542
Pd 9.34559 29.0177 22.5901
Au 8.21351 26.8082 21.2097
Pd 7.33146 24.4385 19.7297
Au 6.46723 22.0576 18.2831
Au 8.40978 26.6932 24.0519
Au 7.34189 24.4287 22.6647
Pd 6.50671 22.0575 21.2036
Au 7.5573 24.3487 25.4729
Pd 6.58592 22.0587 24.0895
Au 6.73779 22.0354 26.8772
Au 29.27 8.2162 18.3668
Au 30.1949 10.4616 16.9448
Au 31.1095 12.7786 15.4862
Au 31.9615 15.1175 14.0264
Au 32.7592 17.4138 12.625
Pd 29.2288 8.23635 21.1882
Pd 30.2536 10.4467 19.7777
Pd 31.2105 12.7134 18.3474
Au 32.1491 15.0526 16.8891
Pd 32.8959 17.4103 15.4257
Au 30.1993 10.5118 22.6295
Au 31.2376 12.7408 21.2208
Au 32.1741 15.0442 19.8175
Pd 32.9723 17.4005 18.3356
Au 31.1108 12.8404 24.0732
Pd 32.0759 15.0854 22.6802
Au 33.0159 17.3794 21.2299
Au 31.954 15.149 25.4963
Pd 32.9164 17.4257 24.0921
Au 32.784 17.4823 26.9193
Au 10.344 8.10808 18.3526
Pd 9.42099 10.3983 16.898
Au 8.47909 12.7081 15.416
Pd 7.62922 15.0724 13.9748
Au 6.7792 17.3827 12.5449
Au 10.3341 8.11694 21.1863
Au 9.24655 10.3164 19.7562
Pd 8.33148 12.6332 18.2804
Au 7.38744 14.9538 16.827
Au 6.55624 17.3368 15.3874
Au 9.36091 10.4194 22.6367
Au 8.2761 12.6552 21.2171
Au 7.33811 14.9851 19.7624
Au 6.48148 17.3615 18.3175
Pd 8.47265 12.7862 24.0677
Au 7.3743 15.0102 22.6583
Au 6.47482 17.3843 21.1929
Au 7.56659 15.1373 25.5034
Au 6.54742 17.4002 24.0874
Au 6.74528 17.4702 26.8944
Pd 18.3584 29.2206 31.3239
Au 16.8861 30.2038 29.0691
Au 15.4068 31.1167 26.7386
Au 13.955 31.9762 24.3892
Au 12.5242 32.797 22.0323
Pd 21.1688 29.2173 31.313
Au 19.758 30.3191 29.1328
Pd 18.2754 31.2312 26.8099
Au 16.8192 32.1609 24.4989
Au 15.3688 33.0095 22.0997
Pd 22.6224 30.1611 29.0314
Au 21.2204 31.2794 26.823
Au 19.7245 32.2056 24.505
Au 18.2844 33.0869 22.1027
Au 24.0913 31.0863 26.6953
Au 22.6905 32.1512 24.4686
Au 21.221 33.0708 22.105
Pd 25.4842 31.8992 24.3211
Au 24.1154 32.9623 22.0823
Pd 26.8812 32.7222 22.0041
Pd 18.3219 10.3665 31.3506
Pd 16.9044 9.42892 29.0665
Pd 15.4764 8.52465 26.7837
Au 14.0377 7.57187 24.4479
Pd 12.6479 6.75837 22.0563
Au 21.1552 10.3117 31.4065
Au 19.735 9.24794 29.1879
Au 18.2817 8.31027 26.8875
Au 16.8704 7.3843 24.5617
Au 15.4509 6.51115 22.1436
Au 22.6243 9.3712 29.117
Pd 21.2114 8.34123 26.8819
Au 19.7697 7.34617 24.5536
Au 18.3531 6.44792 22.1375
Pd 24.0647 8.49907 26.7672
Au 22.6908 7.39323 24.5363
Pd 21.2409 6.50748 22.1194
Pd 25.526 7.62414 24.4104
Au 24.1369 6.54559 22.1423
Au 26.9678 6.76103 22.0817
Au 18.3265 29.1686 8.09962
Au 16.8642 30.1075 10.3762
Au 15.4189 31.0153 12.6719
Pd 13.9741 31.899 15.0557
Au 12.5295 32.788 17.3977
Au 21.1826 29.1584 8.11937
Au 19.7648 30.2429 10.304
Au 18.2691 31.2134 12.5804
Au 16.8095 32.1394 14.927
Au 15.3671 32.9981 17.3298
Au 22.6272 30.0897 10.4057
Au 21.2384 31.206 12.6216
Au 19.7765 32.1819 14.9353
Au 18.3012 33.0762 17.3301
Au 24.0833 31.0258 12.7021
Au 22.6764 32.1269 14.9637
Au 21.226 33.0711 17.3542
Au 25.5244 31.9312 15.0569
Au 24.1064 32.9807 17.3798
Au 26.9237 32.7852 17.4366
Au 18.3935 10.3035 8.20414
Pd 16.962 9.39988 10.481
Au 15.4925 8.43171 12.7701
Au 14.0472 7.53886 15.1349
Pd 12.665 6.75205 17.5057
Au 21.2383 10.3079 8.21244
Pd 19.808 9.29876 10.4045
Au 18.3424 8.27031 12.688
Au 16.8863 7.34587 15.0735
Pd 15.4765 6.57545 17.4414
Pd 22.6694 9.41719 10.4963
Au 21.2794 8.28896 12.6948
Au 19.8124 7.31169 15.0751
Au 18.3568 6.48842 17.4267
Au 24.127 8.48101 12.7823
Au 22.7314 7.37557 15.0665
Pd 21.2428 6.53201 17.4413
Au 25.5676 7.60835 15.1463
Pd 24.1545 6.61996 17.4374
Au 26.9626 6.77637 17.4752
Pd 30.5902 16.0005 27.883
Au 30.5967 23.6433 27.9323
Au 29.7961 13.614 26.4878
Pd 29.7332 25.9725 26.4721
Au 28.9188 11.2809 25.0741
Au 28.8373 28.3351 25.0546
Au 27.9667 8.94936 23.6055
Au 27.886 30.6396 23.5631
Au 28.3342 14.4975 28.8749
Au 28.2574 25.1177 28.8654
Au 27.4745 12.1425 27.4372
Pd 27.3772 27.4236 27.4147
Au 26.5214 9.77167 25.9915
Pd 26.4507 29.7731 25.9079
Au 25.9878 13.0484 29.7862
Pd 25.9082 26.4938 29.7282
Au 25.0635 10.6618 28.3338
Au 25.056 28.8967 28.2859
Au 23.5786 11.6203 30.6524
Au 23.5831 27.9566 30.5919
Au 30.5893 15.9085 11.6302
Au 30.6204 23.5529 11.5645
Au 29.7718 13.5625 13.0343
Au 29.7538 25.9827 13.0068
Au 28.9033 11.2278 14.4955
Pd 28.8291 28.2849 14.4943
Au 27.9573 8.94107 15.9789
Au 27.9206 30.5933 15.9027
Au 28.2661 14.4518 10.7008
Au 28.2989 25.0286 10.6034
Pd 27.3898 12.1264 12.1392
Pd 27.3953 27.4029 12.0936
Au 26.5167 9.80619 13.5671
Au 26.5097 29.7195 13.5346
Pd 25.919 13.0554 9.83908
Au 25.9561 26.4716 9.71134
Pd 25.0425 10.7342 11.2901
Au 25.0539 28.8333 11.1993
Au 23.6265 11.6254 8.98945
Au 23.5705 27.8744 8.87747
Au 8.88579 15.954 27.9065
Au 8.87499 23.5629 27.8751
Au 9.72656 13.5597 26.5073
Au 9.71098 25.9367 26.4608
Au 10.6529 11.1835 25.063
Au 10.6034 28.2859 25.0267
Au 11.6216 8.88748 23.6137
Au 11.5388 30.5989 23.5545
Au 11.2063 14.4713 28.8937
Au 11.1702 25.045 28.8466
Au 12.0992 12.0591 27.4716
Au 12.0291 27.4481 27.4011
Au 13.0427 9.74843 25.9947
Pd 12.9979 29.7642 25.8979
Au 13.5932 13.0345 29.7892
Au 13.5137 26.5228 29.7642
Pd 14.5257 10.7135 28.3145
Au 14.4294 28.9218 28.2865
Au 15.9229 11.6317 30.6028
Au 15.9218 27.9763 30.6146
Au 8.9842 15.8804 11.5724
Pd 8.95456 23.4534 11.5749
Au 9.80292 13.5203 12.9926
Au 9.71877 25.8651 12.9365
Pd 10.709 11.1964 14.4894
Au 10.5807 28.2693 14.3819
Au 11.644 8.86982 15.9434
Au 11.5338 30.6116 15.8657
Pd 11.2921 14.4588 10.68
Pd 11.2455 24.9303 10.6152
Au 12.1443 12.0401 12.0817
Au 12.069 27.3877 11.9885
Au 13.0679 9.73296 13.5519
Au 12.9938 29.7482 13.4593
Au 13.6315 12.9811 9.76379
Au 13.5699 26.4347 9.68685
Pd 14.5517 10.6652 11.2605
Pd 14.4974 28.7915 11.151
Pd 16.0353 11.6239 8.97246
Au 15.9214 27.855 8.85621
