923
Atoms. Timestep: 20944
Au 21.1806 28.5474 29.6197
Au 16.4416 26.3125 13.7759
Au 11.8235 17.6025 9.81062
Au 12.3004 11.9253 20.0607
Au 18.1381 13.8758 12.786
Au 16.8722 10.7575 18.2023
Au 15.2687 16.4782 25.0906
Au 6.68262 25.9505 14.3926
Au 31.0785 20.9535 20.4556
Au 24.353 25.9654 16.1572
Au 19.0303 29.8237 18.5315
Au 13.1712 16.1128 23.3323
Au 11.8553 16.5323 18.1881
Pd 15.6243 8.45353 20.0554
Au 6.31743 25.5231 20.0038
Au 31.849 26.1097 17.0891
Pd 11.4221 26.0121 10.1217
Au 23.2113 15.7085 22.1673
Au 29.2851 19.7043 22.13
Pd 11.8539 16.9739 12.5138
Au 22.4561 19.118 14.6148
Au 28.5382 30.209 17.7416
Pd 33.0825 19.6886 21.7192
Au 24.4857 9.7076 25.6045
Au 17.7131 19.0831 12.5976
Au 31.2122 25.181 26.4392
Au 11.8667 19.0861 7.64142
Au 28.3426 18.8489 11.4192
Au 28.3958 18.9604 6.99181
Au 28.6703 29.7388 22.4259
Au 15.1548 31.3946 11.6408
Au 23.7175 10.9122 30.6129
Au 15.4312 16.0978 21.6101
Au 10.6185 20.1836 27.5101
Au 18.7097 11.2414 13.9298
Au 16.3621 29.881 19.0918
Au 25.8475 11.9215 29.3142
Pd 15.9507 22.1634 9.43251
Au 28.9679 17.2369 17.7172
Pd 27.0167 26.3214 15.4714
Au 10.5999 23.2752 13.7274
Au 13.6196 33.6741 14.4638
Au 15.1295 14.5991 11.837
Au 25.6014 10.6327 10.096
Au 26.7877 6.96644 19.1227
Au 12.645 15.5653 28.5843
Au 23.0669 22.2927 24.4314
Au 23.9864 25.434 28.155
Au 16.29 15.7706 17.0392
Au 24.076 6.02721 19.5427
Au 15.427 28.3908 26.1849
Au 21.2897 12.6623 18.7162
Au 10.9614 9.76531 24.8169
Au 19.4755 22.3742 26.5286
Au 22.7819 7.86834 21.4688
Au 26.1876 8.25318 14.4776
Au 15.5052 29.2209 9.93091
Au 9.69202 11.5823 23.1413
Au 16.7547 16.5829 12.6602
Au 19.4739 5.75967 18.4952
Au 12.7954 14.4214 13.3508
Au 23.8553 30.689 15.9367
Pd 26.3045 10.0991 16.2595
Au 27.6404 27.5348 17.8403
Au 22.865 28.2831 9.40693
Pd 19.9212 10.1215 21.823
Au 26.4124 24.771 17.6131
Au 11.0212 29.5096 16.6713
Au 27.3128 16.5499 13.1757
Au 20.0487 21.0033 24.0818
Au 12.9975 23.963 20.0961
Pd 18.0766 8.51506 24.053
Pd 29.6569 12.9703 18.5208
Pd 23.1214 21.1472 16.5281
Au 27.0015 11.2815 22.0388
Pd 19.6595 31.6083 26.732
Pd 27.1887 24.4208 22.3827
Pd 32.0595 19.8195 27.8719
Au 23.4946 31.0341 18.6642
Pd 8.85119 19.8089 23.1353
Au 26.6047 8.06116 26.2822
Pd 9.041 25.0979 21.6656
Pd 26.5576 16.0847 31.5331
Au 7.60597 19.9327 18.9208
Au 23.3381 20.3569 7.27609
Au 8.02868 16.6753 12.5587
Au 14.7362 16.3882 32.5194
Au 11.6192 21.6404 7.33267
Au 13.8672 7.30253 22.1983
Au 15.5577 28.908 12.703
Au 27.8413 22.9251 8.58098
Au 22.188 33.1289 17.0462
Pd 7.86552 23.7767 13.2099
Au 12.5522 23.5328 30.7255
Au 20.2753 15.0475 11.1338
Pd 21.6794 29.4241 19.9707
Au 8.90408 25.1543 15.3693
Au 19.5716 15.6717 18.2739
Au 20.4801 27.14 8.3757
Au 12.7724 21.8936 28.5475
Au 15.5921 18.8451 20.4168
Pd 11.9333 16.3691 15.2492
Au 17.9682 25.5641 31.0344
Pd 29.3877 9.18979 22.7728
Au 17.0218 13.529 21.9749
Au 23.1629 26.8218 30.2773
Au 19.7846 25.2678 17.6263
Au 23.9069 7.43092 27.0213
Au 23.4022 19.1019 30.9975
Au 27.7858 15.4776 24.3249
Pd 25.8017 27.1269 29.2324
Au 13.8835 28.864 30.5792
Au 10.349 21.5026 24.9255
Au 14.5044 32.0869 19.2355
Au 30.8755 12.5188 27.8332
Au 12.2658 24.7561 12.2198
Pd 21.8562 26.9424 27.4703
Au 19.29 16.84 28.2107
Au 22.3342 32.9974 23.1756
Au 17.8269 20.279 19.5867
Au 10.4356 28.7612 26.4629
Au 10.3368 20.6382 18.0639
Au 20.2391 13.7744 16.3845
Au 12.6312 12.1458 17.3362
Au 23.8319 10.0021 15.1631
Au 15.6088 34.9645 15.7338
Au 19.8634 20.1365 21.5371
Au 18.6075 28.3382 30.8127
Au 27.2661 21.6439 22.1243
Pd 19.4431 13.8966 28.1922
Au 7.58587 23.5278 25.3384
Au 15.2305 21.1084 24.2963
Au 26.8018 22.8274 12.9624
Pd 24.6379 17.535 14.029
Au 19.2607 22.7989 21.6444
Au 15.5764 28.0394 21.1638
Au 31.5699 23.1601 28.0879
Au 23.6511 18.7394 25.8966
Au 25.7848 30.2652 13.9121
Au 6.05461 17.5708 25.5417
Au 30.6819 19.4794 25.6561
Au 14.9111 13.908 27.6297
Pd 24.318 14.0447 9.77114
Pd 15.3817 34.6232 18.4095
Au 11.2664 13.6241 15.5109
Pd 15.3909 23.9019 24.2495
Au 7.6065 14.6177 14.4812
Au 30.396 16.476 25.121
Pd 17.2948 14.9963 27.0738
Au 18.3427 10.0562 30.7172
Au 25.5876 23.2678 15.4638
Au 11.3774 32.0743 23.6053
Pd 13.7832 9.97605 21.3156
Au 14.7587 22.0328 31.0093
Au 12.9045 24.9682 24.6498
Au 28.3096 26.9262 22.3457
Au 17.4953 32.7975 15.4772
Au 10.2647 24.1427 24.181
Au 9.75975 18.5347 11.4453
Au 13.6933 29.4845 19.7231
Au 28.6437 9.87531 14.7059
Au 5.72352 19.1981 14.9285
Au 5.81957 22.0257 23.6852
Au 17.9498 33.8099 22.7212
Au 12.961 34.2464 19.764
Au 21.2567 16.226 8.90576
Au 19.5192 15.2679 30.52
Au 12.1921 21.1223 20.2198
Pd 17.8965 29.9924 11.0359
Au 29.3534 25.075 17.6653
Au 32.4832 16.5147 12.2522
Au 5.54007 18.5993 20.4499
Au 16.298 17.1005 7.09023
Pd 17.8051 26.8792 26.2717
Au 14.3119 17.2893 11.2136
Au 23.5907 21.9842 19.6629
Pd 11.7517 23.3143 26.4497
Au 8.61037 29.4302 17.9804
Au 9.49326 25.9236 12.8434
Pd 19.4531 32.3302 17.1967
Au 25.7084 18.7305 6.98564
Au 17.1832 28.5699 28.3322
Au 16.0473 27.4352 30.7418
Pd 21.3726 24.8528 29.1339
Au 28.3096 12.4115 28.3033
Pd 11.51 21.985 11.5497
Au 23.651 20.2209 33.2988
Pd 15.0374 11.0599 27.8412
Au 11.5725 27.508 12.3371
Au 22.5669 25.3385 13.0372
Au 24.588 20.9671 14.0698
Pd 9.08761 13.7139 24.9015
Pd 8.31752 17.3962 24.0582
Pd 22.4675 28.851 25.6447
Pd 15.6429 18.3626 23.1168
Au 19.0227 12.9555 9.6482
Au 6.3439 27.9518 18.661
Pd 14.0389 10.1611 18.5444
Pd 29.3098 23.0209 29.8409
Au 20.5837 27.1126 13.7203
Au 25.0635 15.1261 17.1775
Au 23.4535 11.2561 27.9061
Au 23.8303 28.6176 28.2502
Au 12.1795 31.7899 15.667
Au 14.2864 16.7297 13.8931
Pd 18.0636 8.10532 21.3532
Au 12.4836 25.047 17.57
Au 14.238 6.23996 19.6048
Au 29.1279 15.6706 14.9947
Au 20.4878 9.21682 14.8401
Au 23.5638 33.0363 14.6756
Au 18.6841 20.7664 6.18052
Au 31.1984 10.556 18.7112
Pd 29.5909 25.5204 24.3728
Pd 28.0831 9.74111 27.7071
Au 20.2619 27.8035 16.8484
Au 30.2551 28.1662 17.4627
Au 25.0752 9.02296 22.906
Au 27.4651 16.4451 6.78524
Au 33.8066 14.6591 21.6554
Au 13.2615 27.7707 9.25572
Au 18.4704 23.1689 10.8565
Au 21.8538 13.5557 26.9327
Au 9.3118 12.5115 13.8856
Au 24.5382 13.5504 31.2215
Pd 14.6789 22.8977 21.8037
Au 8.21643 22.2474 17.6218
Au 14.3423 26.6884 11.3641
Au 10.5676 20.4122 9.63803
Au 8.46553 22.5304 22.9208
Au 27.5415 24.0119 25.0688
Au 26.1442 14.4474 14.7731
Au 23.2268 16.6298 10.6131
Au 22.2386 28.449 12.0398
Au 18.6787 9.67161 26.5641
Au 14.5793 19.2357 32.396
Au 25.1252 16.5159 8.72002
Pd 20.4173 23.7662 13.9891
Au 10.4814 16.2519 30.3631
Au 16.4977 19.8339 8.10683
Au 31.3301 21.3216 30.0276
Au 18.6778 23.9451 28.8517
Au 17.9159 26.7856 21.7249
Au 14.8313 23.6969 17.9708
Au 18.2333 13.9581 24.4757
Au 12.8411 22.3423 23.8915
Au 32.7456 17.4598 25.8765
Au 29.0216 26.7151 26.8795
Pd 13.6839 14.8552 16.4649
Au 23.2518 30.7347 13.226
Au 28.9935 16.8107 22.2158
Pd 15.3771 12.8868 17.3597
Au 28.2957 16.3761 26.9697
Pd 15.9333 9.04669 22.6548
Au 24.4596 17.7432 23.5492
Au 9.74887 31.8277 17.0189
Pd 26.0525 19.6656 25.0291
Au 26.367 11.4111 26.6592
Au 22.3327 11.4242 25.2924
Au 11.0114 13.676 29.7049
Au 25.2017 26.8366 9.01234
Au 27.6721 20.6541 29.477
Au 19.5316 12.5211 30.5545
Au 8.75266 17.6016 18.0539
Pd 17.5736 23.7965 13.4388
Au 29.6596 15.5474 19.7667
Au 14.101 17.6938 16.4344
Au 17.3617 7.33906 26.4449
Au 4.31329 20.5573 21.9227
Au 27.3582 8.54487 21.2684
Au 27.8271 14.7548 17.298
Au 28.7171 10.8003 17.3318
Au 16.0088 33.4788 13.3151
Au 20.606 28.2581 22.2445
Pd 25.8103 22.1838 24.348
Au 27.8765 18.229 20.0482
Pd 10.6736 16.0395 24.8771
Au 21.7673 32.8227 12.4363
Au 10.9061 13.2642 11.7364
Au 18.4999 25.5566 9.34726
Au 20.3601 9.79212 24.4418
Au 27.1893 28.5368 20.4572
Pd 30.7628 28.0622 22.1028
Pd 25.5039 22.4073 9.86043
Au 12.8482 34.0158 17.1284
Pd 22.3715 25.9065 18.2812
Au 33.7188 21.9611 23.2891
Pd 25.0925 14.8988 24.2059
Au 12.5083 12.5182 27.748
Au 18.0127 11.1368 11.2627
Au 33.0187 12.3463 20.1575
Au 8.62552 15.0935 28.8724
Au 14.7476 24.2666 13.1929
Pd 24.3236 26.6981 11.5109
Au 8.58406 28.6464 24.1133
Pd 26.8097 19.1191 13.7174
Au 7.30308 12.6976 23.2819
Pd 23.4702 23.1085 29.4158
Pd 21.9689 14.9845 31.778
Au 20.0305 14.1947 7.453
Au 12.3862 11.4463 23.0074
Au 21.7387 18.9961 9.48913
Pd 9.66007 25.1464 26.5542
Au 17.222 24.1085 26.3847
Pd 15.1799 16.7449 27.7642
Pd 13.2948 26.7572 19.6517
Au 23.9498 12.4776 13.7737
Au 30.9493 11.1632 15.8094
Au 26.2373 24.7825 10.9114
Au 19.2824 26.6831 28.7636
Pd 24.8864 23.8195 26.2731
Au 22.4589 19.5381 20.86
Au 5.91478 25.7923 17.0828
Au 29.2188 8.50989 19.1591
Au 6.17349 19.1632 23.346
Au 30.8113 25.4462 21.9863
Au 27.4286 7.42475 23.7415
Pd 11.0684 22.9639 21.9049
Pd 10.7195 26.8379 24.5823
Pd 24.1584 23.0127 12.2777
Pd 20.6855 14.4469 13.8562
Au 24.6061 31.5782 23.9935
Au 21.7126 13.3059 9.43991
Au 26.466 23.0071 19.803
Au 15.0829 20.4695 28.6548
Pd 8.22764 18.2071 21.086
Pd 30.094 22.8183 25.5427
Pd 12.2169 26.4867 26.9014
Au 28.2714 17.0079 29.5898
Pd 13.654 26.7735 13.8805
Au 18.6192 15.5963 20.9247
Au 25.579 32.4266 19.8066
Au 16.3959 24.3485 8.01336
Au 18.315 13.1608 18.4262
Au 6.74796 16.3635 19.5799
Au 29.5771 22.9011 13.2763
Au 16.2859 22.0383 6.55013
Au 22.5088 14.0231 24.2546
Pd 23.8501 23.6952 17.5673
Pd 15.2057 28.4091 15.2874
Au 14.8357 31.0471 14.4008
Pd 27.5219 19.6874 17.6219
Au 25.8188 20.499 11.6496
Au 25.1745 24.911 30.7126
Au 20.6342 23.6534 24.161
Au 21.3341 17.4208 30.5466
Au 20.8672 31.9888 19.4905
Au 13.9375 12.4582 14.8926
Au 29.4056 28.2263 24.5781
Au 23.4374 31.6496 21.2804
Au 13.8572 13.7051 21.8982
Au 6.39211 21.5692 13.9102
Au 29.0945 21.0026 31.6633
Au 5.13185 20.1981 25.6062
Pd 9.77049 23.9619 11.1124
Au 17.7015 27.3825 18.9604
Pd 6.73737 15.0928 24.3416
Pd 6.70196 23.5666 15.7274
Au 20.5881 26.3992 31.2394
Au 16.4767 30.099 30.3341
Pd 11.5526 21.1369 15.6006
Pd 17.2651 17.1563 19.2502
Pd 24.8678 8.56827 20.0602
Au 15.2157 31.1749 25.8048
Au 10.035 15.793 10.8752
Au 25.0548 25.0809 23.949
Au 16.8482 5.9094 19.2039
Au 10.4754 11.029 15.9562
Au 12.6978 15.0119 10.5916
Au 9.6174 11.6331 18.6109
Au 13.9639 22.8772 10.9776
Pd 10.5003 20.2957 13.3701
Au 26.3163 20.468 32.3157
Au 16.8402 9.06563 28.5274
Au 29.9117 21.4447 15.8467
Pd 25.7339 12.8396 11.7903
Au 16.0581 12.097 13.0182
Au 13.5972 24.555 28.3556
Pd 17.9617 11.2476 23.6954
Au 24.4496 20.3956 22.648
Pd 20.7251 22.1677 29.0517
Au 6.07525 19.1586 27.8691
Pd 25.6414 21.67 7.29173
Au 21.0333 10.5197 10.2397
Au 19.3364 11.1936 16.6292
Au 12.384 8.12956 20.0204
Au 18.3432 28.2433 23.8879
Pd 31.2723 10.2788 24.335
Au 30.7253 17.3904 27.8126
Au 27.7463 25.3068 29.6863
Pd 25.7145 17.7034 11.344
Pd 10.255 26.823 17.2324
Au 5.75053 23.3709 18.3141
Pd 20.0595 15.435 25.8677
Au 19.7332 16.7482 32.7537
Au 31.8663 16.429 14.9375
Pd 25.3368 9.40005 28.332
Au 19.7033 11.1698 32.8888
Au 27.8208 7.99036 16.8086
Au 19.1722 25.4754 12.087
Au 7.78663 27.5061 16.3071
Au 23.0303 28.2945 17.25
Au 17.6275 15.2299 10.4151
Au 18.9848 20.3951 17.1321
Au 12.711 9.99104 26.7981
Au 22.0485 12.3487 32.3415
Au 32.2525 12.7739 17.5762
Au 8.30456 24.9288 18.0499
Au 32.0235 23.9594 24.1219
Au 19.1723 19.3549 8.4393
Pd 32.0101 23.1118 21.5748
Au 14.3832 20.6263 16.0454
Au 28.0417 13.8954 12.8542
Au 28.3661 19.0259 27.262
Au 33.2759 15.1397 16.8028
Au 22.5431 12.8896 21.5304
Au 15.8013 23.0458 15.3311
Pd 10.3832 23.1633 19.2731
Au 31.5778 23.3704 11.6078
Au 24.7932 22.9697 21.984
Au 24.5591 27.1525 25.9965
Au 16.2993 14.5703 19.5065
Au 10.3869 10.2458 20.8243
Au 16.92 9.37915 13.1031
Au 20.5021 31.1182 22.035
Au 31.4821 19.0833 15.5028
Pd 20.2363 27.1741 19.6599
Au 13.1067 7.61503 17.4796
Pd 19.1535 30.0455 15.4803
Pd 25.5649 21.5628 17.6321
Au 29.2299 23.7581 20.2733
Au 26.9786 12.7054 19.5195
Pd 14.454 22.7767 26.4478
Au 22.675 26.8871 20.7704
Pd 20.3122 25.525 22.0727
Au 18.2347 32.0063 20.6626
Au 27.083 27.4884 10.8599
Au 18.6207 22.9878 15.9288
Pd 16.1995 24.6154 10.858
Pd 6.88479 20.852 21.3737
Pd 11.5096 25.6433 14.8744
Pd 10.7565 18.5521 19.8703
Au 7.99917 11.7644 20.8998
Au 27.8471 11.1338 11.7845
Au 27.1925 10.0514 24.4369
Au 30.3516 8.76594 16.7158
Au 11.3975 9.70897 18.1405
Au 21.0807 31.8976 14.8568
Au 13.1238 19.2349 18.4368
Au 17.5188 12.9517 15.6866
Au 18.7767 25.6542 15.1065
Au 22.3115 31.6052 25.4688
Pd 18.4809 25.2875 24.1799
Pd 17.9361 9.06775 15.8797
Au 27.9572 31.2213 20.1334
Au 24.5369 19.272 9.41615
Pd 17.5723 27.6938 16.2782
Au 26.1855 23.3072 28.6736
Au 26.2691 16.2382 22.1511
Au 11.677 25.6631 22.2581
Au 26.1383 30.7199 22.0233
Au 21.4316 6.74857 27.8255
Au 16.7717 17.7966 9.93629
Pd 14.0618 20.3803 22.0067
Au 24.3829 21.3294 26.7436
Au 10.5012 23.4454 16.5912
Au 5.10666 22.9804 20.9949
Au 27.2049 29.8499 24.7147
Pd 25.8047 17.6395 18.3058
Au 12.1241 28.7488 28.5897
Pd 25.9412 18.4601 30.2775
Au 8.21414 17.7374 29.3501
Pd 31.5358 15.9095 21.8454
Au 8.27708 27.3584 26.4723
Au 9.49669 20.92 20.7094
Au 29.9332 19.1342 29.755
Au 25.1012 21.09 29.9717
Pd 9.85352 17.8306 14.2641
Au 17.9064 31.1022 23.3107
Au 29.9422 29.3932 19.9359
Au 32.3014 19.0771 12.984
Au 18.3449 15.5329 15.2584
Au 7.74425 20.7357 25.3511
Au 25.2215 10.124 12.6754
Au 20.4065 34.5347 18.565
Au 21.1 10.1832 30.8164
Pd 24.8852 15.3381 12.5194
Au 8.60186 27.1189 19.5876
Au 15.6581 7.76566 14.8065
Pd 21.822 30.3767 27.7867
Au 7.75475 23.1634 20.2429
Au 13.9632 22.9433 7.67369
Au 23.8167 7.87511 13.2601
Pd 13.4641 27.6005 24.5244
Pd 7.28266 27.188 22.0102
Au 20.3954 33.8454 21.3843
Au 31.485 10.508 21.5434
Au 24.7884 30.0697 26.1663
Au 19.1864 30.3551 29.099
Au 24.4949 22.5969 32.1667
Au 17.1039 27.1978 11.1906
Au 12.926 20.5059 26.0988
Au 20.4233 7.92161 20.0172
Au 15.1326 5.87718 17.0377
Au 23.0562 14.8427 7.45413
Au 27.0606 20.2571 9.01281
Pd 18.5278 7.37428 13.9546
Au 14.2468 10.0517 13.3488
Au 22.1062 13.0384 29.7536
Pd 22.6425 14.1387 12.0098
Au 32.7733 15.0847 24.2854
Au 16.7384 12.4239 26.1151
Pd 22.1491 10.3743 20.0248
Au 10.7808 14.0671 18.2824
Au 20.7581 21.3009 15.2142
Pd 31.0114 23.9338 15.5072
Au 8.33582 19.5465 16.1332
Au 33.2225 22.1899 19.3593
Au 18.0636 28.3455 8.85792
Pd 17.1859 16.3693 29.74
Pd 27.1592 21.6585 26.8033
Au 24.323 29.0901 20.8143
Au 31.7894 14.9786 26.9393
Au 20.2525 15.1638 23.0402
Au 19.4761 18.9626 14.7445
Pd 15.6647 30.907 21.4906
Au 21.9153 22.004 21.9352
Au 15.4288 14.044 24.2078
Au 11.9979 15.5125 20.856
Au 10.5637 33.7814 18.5939
Pd 19.8998 31.9243 10.702
Au 20.6763 11.1521 28.2872
Au 10.4279 21.8305 29.8199
Pd 13.8489 12.8808 29.931
Pd 28.0672 18.5195 31.784
Pd 14.6952 30.0114 28.2754
Au 22.706 8.79925 29.145
Au 11.7076 23.3885 9.29953
Au 19.5785 12.2052 25.9922
Au 19.1701 33.0671 13.2144
Pd 25.1111 28.7458 23.6732
Pd 16.1834 21.7961 12.4042
Au 13.4291 32.6505 21.8443
Au 16.8248 21.3222 26.5222
Au 7.82503 29.4291 20.6554
Au 22.3119 15.0533 17.6196
Au 15.0993 13.6405 32.1091
Pd 20.4235 19.4595 28.9213
Au 16.0818 26.6007 23.9836
Pd 18.2718 29.3529 21.1601
Au 12.9167 18.7034 28.5121
Au 27.2212 12.6237 9.48163
Au 17.7145 17.3511 25.938
Au 22.1267 16.7937 13.0421
Au 19.8397 28.7308 26.9764
Au 22.7083 8.16338 18.5121
Au 22.6186 7.58653 15.7149
Pd 14.8996 25.6228 15.9885
Au 19.5342 10.4928 19.185
Au 12.621 18.9462 14.4051
Pd 23.0861 17.649 7.44596
Pd 10.8959 24.357 28.7936
Au 18.6282 24.9204 19.9744
Pd 13.1046 17.9962 21.1823
Au 25.0541 7.8057 17.1527
Au 14.4806 16.7613 19.0128
Au 20.0296 23.6675 31.3034
Au 26.5924 31.2216 16.2271
Au 26.7519 11.7928 14.2143
Au 31.6128 13.6524 15.0429
Pd 12.7463 31.6203 12.9408
Au 19.714 13.9149 32.9263
Au 12.8747 28.1616 22.0085
Au 15.8213 26.7968 8.80658
Au 18.2888 15.4735 5.78596
Au 27.0886 25.6953 20.0087
Au 14.2525 18.2332 8.5837
Au 26.3305 27.7731 13.3484
Au 31.0861 20.7766 11.3324
Pd 13.8536 25.0334 9.32022
Au 17.1319 20.6579 14.9087
Au 20.0051 7.12679 25.5722
Au 15.0357 24.871 30.6761
Au 18.0537 5.91429 23.8766
Au 16.234 6.21447 21.8556
Au 14.0226 11.8952 25.4038
Pd 21.2504 23.525 11.432
Au 19.5072 12.8295 20.9067
Au 8.33447 15.8743 26.3325
Au 27.7978 25.6949 8.91668
Au 25.7216 19.2512 27.7522
Au 20.4701 12.4099 23.3784
Au 12.7314 17.5379 31.0462
Au 20.9606 21.5045 7.79584
Au 28.0932 13.9815 21.8066
Au 26.9277 15.5287 19.6639
Au 27.0283 26.8988 24.6943
Au 29.7807 21.2505 27.7341
Pd 16.7568 22.9195 19.9152
Pd 29.2327 11.3136 25.8633
Au 13.5581 14.1753 19.0871
Au 19.7656 18.3595 19.3954
Au 11.9726 31.528 18.5841
Pd 25.8569 20.2911 20.0825
Au 16.627 17.8835 15.1174
Au 15.226 27.5797 17.9369
Au 17.4343 32.6482 11.2186
Pd 25.3767 26.7305 21.8303
Pd 28.7108 23.9534 27.4552
Au 10.8258 33.1223 21.1786
Au 16.853 21.0393 21.9793
Au 20.9651 19.3195 32.4889
Pd 9.56643 15.7397 16.3109
Pd 27.9259 25.4685 12.9774
Au 13.6043 30.5442 23.5533
Au 20.8679 16.4247 6.21772
Au 13.2026 18.742 24.04
Au 26.1583 12.6026 16.9292
Au 20.2823 6.14729 15.5728
Pd 11.2119 29.397 23.9278
Au 22.9894 33.6964 19.5752
Pd 22.8209 20.5202 28.7311
Au 10.5637 14.3884 27.1193
Au 30.3855 22.4233 9.34133
Pd 23.5396 17.328 16.5774
Au 29.0864 10.9496 20.3965
Au 22.9895 23.311 14.8196
Au 19.1039 21.4797 12.9638
Au 18.6115 18.1011 5.88347
Pd 16.6324 25.7671 28.569
Au 25.9229 29.9462 18.5252
Pd 8.3842 18.5561 26.7075
Au 16.3319 19.4434 5.52286
Pd 29.6513 14.8122 28.7051
Pd 25.9558 17.0509 25.732
Pd 15.5926 7.17027 24.4534
Au 9.47354 15.957 20.0545
Au 22.634 25.2104 25.3558
Au 14.7957 8.31367 26.8683
Pd 19.7036 27.9709 11.1097
Au 9.99072 27.9292 21.8878
Au 25.5171 6.51794 21.8127
Pd 16.1556 9.91443 25.3662
Pd 26.7351 18.9189 22.4591
Au 8.6623 13.1257 16.4807
Au 6.98613 15.4112 17.0956
Pd 6.04086 21.0539 16.705
Au 22.6176 17.3448 33.0785
Au 17.623 19.6868 24.2582
Au 22.587 24.4729 31.6022
Au 15.1196 15.5383 9.16831
Pd 17.6657 29.9378 25.8552
Au 11.6937 30.5333 21.3097
Pd 10.135 13.3085 20.9422
Au 7.84504 19.4063 13.307
Au 31.3069 18.2423 23.2414
Au 13.1551 9.81461 15.8352
Pd 19.7672 8.65368 28.7979
Au 11.002 28.6688 19.3306
Au 17.6956 6.44469 16.4628
Au 13.1007 23.4771 15.3497
Au 21.8375 10.3888 17.0933
Au 25.7919 16.4984 28.3849
Au 17.4964 32.706 25.4943
Au 21.2261 17.8241 26.6899
Pd 21.7096 29.1847 14.8711
Au 23.4307 9.04364 10.7926
Au 33.4062 17.2282 20.3222
Au 17.3691 10.7822 20.9929
Au 22.6053 8.05366 24.3257
Au 22.5561 10.3629 22.7258
Pd 15.2035 19.8679 10.7704
Au 12.8297 17.231 26.2478
Pd 27.1973 12.8565 24.3876
Pd 22.2198 17.3322 19.1524
Pd 29.4964 20.2307 13.4401
Pd 31.022 18.089 10.6998
Au 29.7193 26.5096 15.3099
Pd 19.1081 22.6657 18.6793
Au 23.5844 24.4017 10.0786
Au 18.4619 22.4404 8.29138
Pd 22.0571 21.4317 12.8611
Au 18.1998 28.3626 13.554
Au 19.9992 25.0343 26.6119
Au 25.2926 13.7005 21.6276
Au 22.398 30.7813 10.6716
Au 22.108 21.601 31.354
Au 17.9696 34.9162 17.1869
Au 28.2621 23.9599 15.3207
Pd 20.6809 19.1983 12.293
Pd 20.805 24.0451 8.85815
Au 30.6896 13.2586 20.9985
Au 26.7151 15.0915 10.5039
Au 24.848 32.9634 17.2588
Au 6.6905 14.2326 21.3081
Au 23.2958 15.046 14.8605
Au 13.2045 29.3963 11.453
Pd 6.1258 18.2339 17.5037
Au 32.3502 14.9076 19.3408
Pd 16.6805 21.7569 17.4703
Au 24.3151 10.4927 18.0805
Au 5.05779 20.9063 19.2336
Au 15.5747 32.6562 23.5746
Au 22.9625 21.5273 10.0773
Au 32.5219 12.6032 22.8813
Au 26.8329 9.94087 18.9813
Au 8.72534 21.5764 11.9169
Au 18.7062 16.5762 8.17819
Pd 22.1139 19.3869 23.6169
Au 12.8379 27.5086 16.541
Au 23.346 17.8711 28.4748
Au 13.8766 30.0467 17.0431
Pd 18.8125 18.346 30.6734
Pd 19.6507 9.2509 12.2301
Au 28.5141 21.0272 19.7644
Pd 14.9675 25.6833 26.3038
Au 23.406 19.1772 11.9719
Au 10.6298 18.7461 25.0989
Au 32.5428 21.2365 16.7385
Pd 19.4232 17.6692 10.5647
Au 11.4147 20.1517 22.6163
Pd 17.5213 16.2447 23.4164
Au 17.3405 22.9181 31.1034
Au 33.767 17.2291 23.0166
Au 6.28464 16.6922 22.3013
Au 28.3781 21.5517 11.0614
Au 27.0469 22.896 31.2473
Au 15.9624 23.0812 28.7218
Pd 30.6005 15.0244 17.1368
Pd 17.8215 20.5225 10.4478
Pd 12.7008 22.1259 17.7946
Au 16.7171 30.3401 16.4648
Pd 22.6778 29.8951 23.13
Au 10.4755 17.1791 27.749
Au 10.4976 19.0179 30.0033
Au 31.241 21.1343 23.4604
Pd 8.79074 21.8394 14.95
Au 30.807 18.1344 20.2703
Pd 24.6395 11.0772 20.8788
Au 29.0373 27.9009 13.0352
Au 13.6125 12.3325 11.7235
Pd 23.7938 27.7366 14.1686
Au 21.7636 15.5914 28.6443
Au 29.5072 11.8208 23.1587
Pd 27.3131 21.2083 15.2365
Au 15.9107 11.1985 30.3902
Pd 17.8094 22.5454 24.1481
Au 24.047 16.2858 30.6029
Au 12.9351 29.6767 26.158
Au 16.2073 12.8615 10.1581
Pd 11.2822 12.2833 25.4138
Au 24.6332 17.9994 20.8011
Au 26.8033 28.4074 27.0088
Au 14.8022 21.2083 19.3781
Au 10.1083 26.9598 28.5039
Au 9.28244 30.7624 22.4655
Au 18.0978 34.6246 19.9157
Pd 28.0821 22.5464 17.5971
Au 11.0101 18.5426 16.6211
Au 15.2994 19.0083 26.1649
Au 29.0113 24.1551 10.8374
Au 24.9349 6.68715 24.571
Au 17.871 11.5534 28.4239
Pd 29.6904 19.814 9.15826
Au 6.47819 21.8342 27.3339
Au 25.3014 19.3311 16.0683
Au 29.5407 13.2522 10.721
Au 19.3881 21.0129 31.2339
Pd 10.0974 15.1717 13.5877
Au 11.3721 13.9934 23.2585
Pd 21.3624 11.8967 14.7009
Au 31.6553 12.7218 25.3521
Au 22.1878 10.0763 12.8625
Pd 13.2414 20.8481 9.31515
Au 21.2837 14.9974 20.3121
Au 19.7101 17.9484 24.1192
Au 9.47216 31.346 19.7063
Au 24.4235 15.406 33.1032
Au 32.9418 19.5546 18.9275
Au 24.0874 13.0269 19.0716
Pd 15.8681 29.2886 23.6614
Au 28.3438 18.2087 24.5709
Pd 30.248 14.3154 23.5434
Pd 26.7123 16.9806 15.8447
Pd 18.1483 21.2325 28.8598
Pd 20.9456 17.4419 21.7299
Au 8.03865 13.8479 19.043
Pd 18.0261 18.24 21.7055
Au 21.3179 30.3771 17.2527
Au 29.5578 26.6986 19.8643
Au 21.5392 5.50841 20.5655
Au 20.9408 16.6073 15.6747
Au 22.85 25.8398 7.99543
Au 24.2019 15.6001 19.6962
Pd 31.2726 15.3565 10.0541
Au 6.38906 16.4975 27.9501
Au 19.1142 19.6282 26.5564
Pd 16.9034 13.6721 29.7643
Au 28.1264 28.9219 15.3599
Pd 8.31934 14.0648 11.9448
Pd 23.5928 15.8212 26.4606
Au 10.0455 27.9107 14.6708
Au 12.9995 14.5211 25.6867
Au 7.37774 17.1889 15.1802
Au 17.8924 35.1939 14.3794
Au 31.9784 27.532 19.5607
Pd 21.0227 19.094 6.56552
Au 20.1991 30.2831 12.7365
Au 22.7461 24.6012 22.4585
Au 10.8352 25.7476 19.6888
Au 30.0162 17.1571 8.349
Au 19.4009 16.782 13.1196
Au 12.4222 26.3541 30.0181
Au 29.0804 16.1644 11.07
Au 22.9866 27.161 23.4435
Au 12.5848 19.5031 11.6407
Au 32.5199 21.7531 25.9013
Au 10.635 17.4305 22.4583
Au 22.3739 5.68005 25.5005
Au 20.3545 7.468 22.7676
Au 22.0032 5.75075 17.7263
Au 15.8332 10.6401 15.5387
Au 29.6182 26.6698 10.791
Au 13.6802 9.23229 24.3255
Pd 17.4028 30.9742 13.4826
Au 17.0172 31.4369 27.9559
Au 23.7835 19.4566 18.4514
Pd 30.7213 22.624 18.2193
Au 21.5595 26.1155 10.5783
Pd 21.1344 20.973 18.9856
Au 17.4373 12.3993 32.25
Au 30.3035 19.7407 17.9682
Pd 15.1671 18.1056 30.1214
Pd 26.6045 25.6449 27.1591
Au 8.863 15.1558 22.6058
Au 12.7087 20.3584 30.7964
Au 13.479 21.5812 13.444
Au 20.5774 4.99923 23.52
Au 20.2587 30.0523 24.5659
Pd 25.559 28.5365 16.1604
Au 30.7001 14.6777 12.767
Pd 26.9853 14.4035 29.5679
Au 26.06 14.2606 7.65987
Pd 24.3821 13.0731 26.0496
Au 27.5347 17.572 9.19605
Au 24.2909 24.7866 20.0171
Pd 25.2396 25.1991 13.6058
Au 19.9488 32.8095 24.2697
Au 6.53676 24.5115 22.6394
Au 24.6908 11.8841 23.6331
Au 15.7291 14.5631 14.5547
Au 33.0439 23.7793 17.2564
Au 21.3099 18.9608 17.1025
Au 17.9939 8.25085 18.6502
Pd 18.569 17.735 16.9654
Au 23.2335 23.0439 7.74548
Pd 17.3227 15.1513 32.1562
Au 31.8802 17.3305 17.7594
Pd 22.1911 23.1833 27.0097
Au 21.6644 20.6004 26.2703
Au 15.6359 8.41297 17.3282
Au 21.2297 7.27224 13.2296
Au 14.3374 25.6398 22.1878
Au 23.3388 11.7283 10.994
Au 20.5751 27.0006 24.7907
Au 12.5992 29.2777 14.3023
Au 12.632 14.8377 31.4881
Au 11.6157 8.70259 22.5615
Pd 21.7184 25.6624 15.6745
Au 24.3282 14.1534 28.5846
Au 20.4978 12.3222 12.0505
Au 33.3896 19.6075 24.4871
Au 25.266 18.0109 32.8766
Pd 29.5007 23.1229 22.905
Pd 17.1485 24.9218 17.3897
Au 15.2047 12.0875 20.095
Au 24.8179 29.2994 11.4234
Pd 22.1003 16.7255 24.3998
Au 23.3468 12.7056 16.441
Pd 21.3916 23.927 19.9109
Au 29.2986 13.9556 26.1172
Au 15.8145 33.7145 20.9806
Au 29.954 11.9769 13.3145
Au 25.5482 24.4035 7.9898
Au 29.2317 8.66887 25.4503
Au 31.7794 24.8212 19.4556
Au 24.9842 27.1857 18.7915
Au 9.18349 22.5507 27.3588
Au 30.313 25.4402 28.9356
Au 31.9194 21.6448 13.958
Au 20.3989 29.7122 9.29102
Au 16.9774 24.3045 22.1747
Au 8.17524 25.9523 24.2207
Au 20.1461 34.3788 15.5712
Au 30.061 17.5618 13.2449
Au 24.9091 16.2087 6.06187
Pd 28.8748 12.9592 15.5927
Au 23.1085 5.58665 22.831
Au 11.8153 11.4419 13.6093
Pd 21.7034 9.15836 26.7122
Au 8.24695 20.4259 28.8516
Au 28.459 20.9727 24.5257
Au 17.071 32.5299 18.3422
Au 21.2975 23.1466 17.1316
Pd 28.8212 18.665 15.4905
Au 15.7692 25.5012 19.834
Au 17.2076 14.2613 7.90347
Pd 14.9525 32.527 16.5918
Au 14.0872 20.366 6.75143
Au 18.8955 5.54705 21.2429
Au 16.9403 17.7924 32.3845
Pd 16.1358 19.0921 17.6361
Pd 20.3426 21.2015 10.4134
Au 30.6327 25.4482 13.0172
Au 28.714 14.8236 8.61493
Au 16.7498 20.1656 30.9928
Au 15.2983 11.5687 23.0172
Au 26.6098 14.2635 26.8201
Au 17.208 18.7325 28.351
Pd 14.8173 15.3815 30.0797
Pd 20.2516 8.15727 17.2831
Pd 15.0821 19.3635 13.402
Au 14.425 27.2873 28.4803
