923
Atoms. Timestep: 20556
Au 7.55515 25.1185 14.6797
Au 20.5512 12.65 10.4975
Au 16.5639 18.7825 32.8169
Au 11.1914 15.7383 19.4772
Au 25.2444 30.1514 25.2963
Au 9.67955 22.3804 29.3168
Au 31.3918 25.276 15.0166
Au 10.1849 16.455 14.3045
Au 28.8388 10.2904 16.5765
Au 22.008 27.93 27.9135
Au 27.7705 18.2233 7.48287
Au 11.0174 17.0162 11.2688
Au 6.87641 14.4102 23.2403
Pd 29.1966 16.2765 16.2602
Au 15.7049 21.0954 27.9843
Au 31.5428 21.8378 26.4167
Pd 21.9614 9.77943 25.7436
Au 11.4806 20.2688 22.4626
Au 24.8153 17.7343 24.4202
Pd 24.8328 12.3635 23.6153
Au 23.4612 21.9642 22.7707
Au 19.6744 10.9892 24.2739
Pd 31.7051 16.6238 15.4064
Au 22.1759 7.56299 15.4573
Au 14.0503 12.5704 20.417
Au 14.6092 30.5168 27.3296
Au 8.08099 11.4173 22.9309
Au 20.6566 29.5813 15.415
Au 18.385 25.1647 7.80786
Au 9.74778 24.5859 10.4704
Au 12.8448 29.8513 25.3509
Au 11.9196 21.82 25.0631
Au 25.7667 18.2164 33.4731
Au 19.4826 31.4048 13.85
Au 25.4677 19.2595 6.48434
Au 9.02482 22.0103 10.1655
Au 26.6161 17.1098 22.542
Pd 12.2756 13.2622 8.43973
Au 24.3467 32.3014 14.4399
Pd 9.6383 27.4719 21.1546
Au 17.7576 28.0638 25.487
Au 13.0606 25.506 19.4171
Au 13.7403 16.2974 17.875
Au 29.3292 15.0934 18.677
Au 18.0333 18.6548 19.3657
Au 21.4959 23.1045 33.3287
Au 8.00717 20.359 12.0899
Au 11.6461 31.9706 24.3011
Au 29.4317 23.1929 8.46078
Au 21.8601 13.4979 8.24311
Au 23.9846 28.8427 19.1778
Au 22.1895 18.2379 16.4488
Au 24.2335 10.7972 21.4415
Au 18.9184 19.6678 7.51792
Au 24.4297 10.7774 14.4931
Au 10.4209 12.1856 26.6669
Au 31.8489 19.5337 24.5457
Au 6.40595 17.1974 23.7166
Au 21.4561 15.6302 22.1731
Au 8.9557 16.2116 23.399
Au 13.1038 7.76185 16.0905
Au 16.4184 24.1439 31.8908
Pd 23.197 20.4123 18.1524
Au 15.247 26.5782 31.2136
Au 27.5231 14.2315 29.9409
Pd 13.5199 33.4162 20.3337
Au 32.0159 21.0357 20.1752
Au 16.3054 6.71414 24.833
Au 24.3647 16.0726 26.6007
Au 20.5366 28.9487 9.37597
Au 31.0588 20.9729 14.6919
Pd 20.307 22.7217 28.7242
Pd 26.5842 10.2539 22.9923
Pd 23.1107 28.3971 24.4839
Au 16.3461 23.8983 6.44709
Pd 26.0065 22.0473 20.7094
Pd 26.529 29.7169 27.6695
Pd 27.0888 24.7152 20.7617
Au 19.0847 20.1465 29.3996
Pd 22.243 30.843 13.3613
Au 32.0001 18.3227 21.6784
Pd 30.1019 12.727 17.384
Pd 5.96673 28.0301 18.9637
Au 23.1962 13.7553 10.5883
Au 19.4621 26.5654 10.149
Au 8.1417 13.2296 16.63
Au 22.7491 12.3845 25.7075
Au 20.5893 19.3049 18.4339
Au 8.15168 23.7782 25.0154
Au 14.9897 28.1936 28.9686
Au 7.45658 21.1316 25.9133
Au 23.0057 32.8069 25.6684
Pd 26.7129 24.6719 9.90079
Au 5.17924 18.6213 21.7181
Au 12.213 7.07966 18.6212
Pd 15.7692 29.9723 24.7089
Au 16.3454 20.6368 20.2727
Au 9.41045 12.7763 11.9531
Au 15.9315 16.9351 5.89076
Au 26.2454 11.0692 16.4528
Au 32.4864 17.2386 26.1385
Pd 9.01773 20.3637 21.4538
Au 16.4822 22.4162 16.6134
Pd 14.2881 21.6244 18.4609
Au 17.0039 16.0791 12.6447
Au 25.6198 21.8163 5.76218
Au 22.9961 8.37894 27.8172
Au 19.5287 14.2781 17.2949
Au 29.2756 26.3096 29.1225
Au 25.5938 7.48675 23.5525
Pd 18.3351 11.0768 10.9402
Au 7.67291 22.553 22.233
Au 26.8522 20.7252 33.0078
Au 13.8684 27.0093 10.098
Au 23.4011 13.188 33.2806
Au 24.0939 17.5287 14.6275
Pd 10.4664 21.4803 12.431
Au 12.075 25.157 9.01332
Au 21.8726 10.3207 15.2212
Au 12.4138 20.0726 17.0055
Au 20.0902 29.4374 12.107
Au 13.1818 13.0206 11.048
Au 6.20397 22.8727 19.8444
Au 31.2242 24.3951 25.5852
Au 17.5292 7.59381 17.2182
Au 14.3373 15.0328 12.5634
Au 24.981 8.19296 14.1366
Au 16.4509 19.8128 30.2241
Au 20.0377 25.9527 20.9491
Pd 30.2517 15.6278 26.2763
Au 13.0598 28.5048 12.5501
Au 22.7715 30.1852 26.4553
Au 25.1127 27.7004 30.0211
Pd 18.736 23.4304 5.42933
Au 29.9336 14.574 28.7215
Au 12.0295 14.5826 27.2852
Au 14.5993 9.31861 21.4712
Au 18.5826 13.5569 12.3001
Au 14.9145 26.7386 21.1607
Au 31.7882 13.7568 20.1516
Au 27.9455 13.6058 10.0612
Au 15.8736 26.0229 18.7675
Pd 22.1225 25.8424 15.4199
Pd 28.1958 20.9526 19.0006
Au 20.9829 14.2996 32.4868
Pd 18.2124 21.7636 27.2296
Au 11.135 20.7522 8.44632
Au 20.6581 14.0623 19.916
Pd 16.3164 17.2649 17.681
Au 12.7743 11.7023 28.1435
Au 19.539 24.2167 23.2323
Au 17.6041 27.751 20.902
Pd 16.1912 19.2971 7.4168
Au 13.7087 20.7505 20.9566
Au 7.33435 18.7049 16.6491
Au 21.2285 17.2936 32.1659
Au 20.8165 25.5799 32.3227
Au 22.1238 17.036 27.8378
Au 23.1536 23.0766 6.12909
Au 11.0825 25.1664 21.3143
Au 11.4831 14.5932 12.4401
Au 12.0767 30.4423 14.3746
Au 9.44352 11.4256 20.5866
Au 29.1654 29.2159 13.8159
Au 12.8864 17.4745 26.6271
Au 23.3647 8.88524 19.6332
Au 29.0239 28.5649 27.4958
Au 21.0234 13.6313 24.0049
Pd 23.0034 24.65 21.7232
Au 11.6448 32.0584 21.6805
Au 13.3919 33.8469 17.5513
Au 15.0397 17.995 25.0243
Au 15.7683 16.9442 20.3463
Pd 27.7371 9.03827 18.7
Au 22.9917 27.8354 8.69275
Au 17.9437 29.3815 10.1048
Pd 17.3177 25.1682 21.1129
Au 26.7019 14.4246 19.4278
Au 20.5877 18.6633 5.5987
Pd 11.704 21.3003 27.9824
Au 18.063 8.78465 12.2703
Au 21.8526 20.3308 32.3713
Au 27.6501 19.7736 21.3977
Pd 24.8808 20.5499 24.6744
Au 19.0183 24.7006 30.4207
Pd 23.0108 23.5455 10.9732
Au 22.9027 6.6655 17.9894
Pd 14.7942 26.3642 16.1258
Au 16.7055 15.8198 23.9262
Au 17.7267 19.051 27.2605
Au 31.7992 25.659 20.3822
Pd 29.5149 20.6611 12.2486
Pd 26.5847 22.6455 8.18923
Pd 18.0149 17.4371 21.8886
Pd 12.9993 18.0646 21.1429
Au 13.2738 22.2814 12.9477
Au 21.6273 30.062 18.1327
Pd 21.0438 15.6227 29.9996
Pd 9.75625 22.3014 26.5552
Au 21.3953 29.6895 29.8995
Au 23.258 8.36867 22.3536
Au 13.7925 23.0454 28.1861
Au 30.4442 14.2269 15.0355
Au 24.3195 20.4789 33.7165
Au 21.1439 16.0518 34.4783
Pd 17.676 17.2179 8.102
Au 17.7563 27.6829 12.1485
Au 8.87444 19.439 18.8644
Au 8.71059 28.1526 23.5749
Au 9.96347 18.7331 16.1339
Au 18.8844 29.4047 17.6476
Au 31.7158 18.6186 13.61
Au 27.1499 21.7129 23.2731
Pd 15.6007 29.3076 21.8758
Pd 28.3172 24.3158 12.0433
Au 8.96909 26.0275 12.5702
Au 23.3044 22.2814 20.0883
Au 26.4441 23.9868 27.667
Au 6.95385 21.2029 17.7064
Au 23.6718 16.3829 30.028
Au 12.7252 26.9398 30.0139
Au 19.5012 20.9361 14.1076
Au 9.46752 10.9241 15.0628
Au 17.7256 18.3034 24.5805
Au 21.4502 18.7521 29.9249
Pd 29.8993 18.7684 15.6872
Au 15.6336 18.8565 22.3082
Au 18.3235 15.9145 19.4127
Au 16.8558 31.1874 15.2102
Au 20.2216 30.0624 27.4417
Au 18.1365 9.57322 21.8217
Au 27.9737 7.95377 22.428
Au 26.3726 17.3678 10.0323
Au 25.6812 25.8187 25.8732
Au 29.5648 9.78819 23.4198
Au 10.6743 19.5853 25.8851
Au 31.2833 27.6565 13.7896
Pd 31.4098 25.46 17.7198
Au 20.1512 23.0855 25.9266
Au 15.5072 28.1218 14.0714
Au 16.9959 10.7945 30.8779
Au 19.4126 17.3033 28.5778
Au 15.3032 18.1892 28.0045
Au 16.2125 23.5532 26.8575
Au 15.8696 11.1086 28.3042
Au 11.8884 22.7425 17.3991
Au 13.2903 17.567 6.25532
Au 25.7984 33.3205 22.0658
Pd 20.9268 9.39872 21.1559
Au 10.6201 29.9544 20.3465
Au 27.5837 26.7252 16.4494
Pd 15.5512 31.7357 20.6486
Au 19.9599 27.4039 30.5266
Pd 24.6113 12.5492 12.5052
Au 17.5365 12.1262 22.7816
Au 32.0161 23.125 13.4666
Pd 15.9537 29.1006 19.0865
Au 16.5068 26.4483 27.3603
Au 25.3308 9.99835 11.9486
Au 12.9842 9.94846 23.7513
Au 20.3852 8.14246 13.465
Au 27.4112 14.594 27.2349
Au 11.3871 7.99836 24.2512
Au 11.5401 18.1378 18.538
Pd 26.99 16.7769 25.7163
Au 26.8921 19.723 11.8177
Au 28.9315 12.0879 14.6132
Au 21.7854 6.13894 22.7491
Au 15.0158 22.1212 30.6009
Au 31.6524 22.9529 16.4676
Au 13.5073 16.2587 28.9988
Au 17.0962 31.4641 18.1393
Au 11.0482 24.1015 12.8262
Au 12.2926 18.186 9.01765
Pd 16.976 13.4734 27.0891
Au 19.2085 19.4393 32.0612
Pd 22.6417 19.4163 23.6567
Au 21.8313 22.9901 14.6184
Au 12.7837 12.6506 25.4083
Au 24.9877 26.6732 21.2341
Au 17.3863 27.16 29.8067
Au 23.9924 16.3829 10.8944
Pd 24.6969 26.6774 15.0482
Pd 28.6649 18.863 9.97067
Au 17.0863 15.108 16.3899
Pd 19.5281 31.5788 22.376
Au 12.1254 17.9462 23.904
Pd 15.7406 9.29355 23.938
Au 26.5362 30.596 18.4528
Au 20.1343 12.122 21.8034
Au 22.5414 9.57169 30.3125
Au 19.233 31.9531 16.4498
Au 24.6078 23.2954 25.3797
Pd 18.5829 14.3445 33.6905
Au 19.5671 27.0455 16.0503
Pd 18.1324 24.8257 12.0392
Au 16.9013 27.8025 16.7735
Pd 19.115 18.3722 10.078
Pd 14.3377 24.0736 17.4135
Au 32.9341 16.2312 19.6956
Au 10.299 16.8094 25.8613
Au 18.6848 30.7682 25.235
Pd 17.1548 12.7542 17.665
Au 28.1125 18.5687 32.0922
Pd 13.404 24.5745 11.3754
Pd 26.8463 22.1766 12.9578
Au 20.4876 17.5974 20.5868
Au 15.412 13.5004 24.7959
Au 7.66358 15.6894 25.6876
Au 30.5125 20.7687 9.64577
Pd 29.4185 20.8503 24.9527
Au 25.5459 7.38947 18.5619
Au 6.98073 27.0915 21.4104
Au 18.3714 33.9077 18.2158
Au 19.5131 21.3365 33.9973
Au 13.0653 15.428 24.8831
Au 14.1478 21.6518 15.5637
Pd 11.2385 20.6067 19.6108
Pd 13.4388 20.0681 7.1536
Pd 9.0064 16.9218 18.2051
Pd 18.9965 12.4286 31.7172
Au 15.2021 15.7001 26.5556
Au 16.3156 10.8033 9.19471
Au 10.6768 20.0672 30.3311
Au 17.7033 22.5843 24.4629
Pd 23.8917 29.7904 28.92
Pd 19.5648 16.7824 12.244
Pd 25.6981 15.4497 15.1706
Au 23.1362 25.7624 6.84201
Pd 9.03889 20.0446 27.9763
Au 16.3711 13.8934 14.0632
Au 13.9414 9.27143 28.0892
Au 24.0135 6.43771 20.6796
Au 22.8289 9.19009 12.8118
Au 5.13291 21.5248 21.9718
Au 20.3811 32.6683 26.2044
Au 20.8835 7.25995 26.2752
Au 14.5528 13.6809 28.2319
Pd 20.6934 21.5184 23.2156
Pd 15.0408 17.5395 30.8217
Au 8.27944 26.6889 18.9776
Pd 27.417 27.8112 25.4785
Au 19.0695 8.19842 19.3755
Au 13.3501 30.1448 20.2644
Au 13.6605 10.8829 9.53606
Au 31.1675 11.9059 24.3054
Au 26.7779 8.34722 16.2618
Au 21.0117 22.1406 18.5622
Au 20.8455 28.8951 22.5529
Au 22.2188 10.9632 23.2529
Au 20.5066 28.4151 25.2589
Au 21.4429 15.5466 6.19096
Au 22.7295 32.4086 18.9378
Au 24.8748 30.7239 12.1225
Pd 21.5582 26.4224 23.3067
Au 17.0825 29.5959 27.5434
Pd 23.4071 11.9008 28.8864
Pd 14.7118 11.5766 18.1171
Au 11.5028 24.3764 29.2108
Au 12.363 13.8094 29.9015
Pd 25.3595 13.5897 17.1976
Pd 17.9484 19.0846 12.6254
Pd 30.5008 14.0914 22.7881
Au 17.8924 30.4158 20.5647
Au 22.4928 19.7901 13.9832
Au 10.3145 28.85 15.8205
Au 25.4418 16.8954 19.9086
Au 8.09599 29.2922 19.8479
Au 16.7403 26.4008 9.81725
Au 30.9455 17.4139 18.0358
Au 25.3592 8.12243 26.4899
Pd 13.3831 26.0543 13.6666
Au 18.183 27.8948 7.91377
Au 18.0062 13.2931 20.0596
Au 18.8614 26.838 23.2349
Pd 24.7498 6.48073 16.1158
Au 19.0925 17.0955 16.9631
Au 12.3461 29.9735 17.3489
Pd 21.3389 20.8204 16.1902
Au 14.9103 6.52193 17.8216
Pd 14.7981 28.0045 26.1186
Au 12.9497 22.6794 7.8534
Pd 17.5836 22.4916 29.7618
Au 11.2219 18.4604 28.3713
Au 30.8592 24.2927 28.2017
Au 26.1346 16.6847 28.5869
Au 15.4305 28.8871 11.3244
Pd 9.38086 21.4686 24.0248
Au 28.6039 16.1617 11.1694
Au 5.88454 25.449 19.4559
Pd 10.3266 22.6907 21.7405
Pd 19.045 24.0141 19.2401
Au 23.0941 18.0083 19.2407
Pd 25.4863 10.4176 18.9919
Au 24.1342 8.95569 16.7847
Au 26.1811 17.1566 12.8106
Pd 15.7777 23.2757 12.2268
Au 11.0736 11.6408 10.2675
Au 21.2516 10.5764 28.2024
Au 13.7899 24.7422 6.47659
Au 8.75526 17.2405 27.9935
Au 23.092 15.8723 8.34699
Au 21.4004 33.3645 23.2943
Au 23.6828 14.7228 24.2421
Au 28.6004 25.51 26.688
Au 14.7604 24.6242 8.92119
Au 24.5667 28.0347 26.9287
Au 20.2801 18.1362 26.0758
Au 34.6567 20.6773 20.0613
Au 25.672 28.3095 23.4126
Pd 26.3443 14.5723 11.959
Au 13.3181 25.422 23.0605
Au 28.8964 18.1072 13.1193
Au 20.6014 15.2586 26.3127
Au 24.5324 29.6712 14.6189
Au 17.2474 20.4774 9.7524
Au 15.5131 20.5169 12.0922
Pd 11.227 29.5826 22.9928
Au 19.2523 6.97587 21.8423
Au 18.2179 8.53792 24.3921
Au 13.4874 33.6225 23.0641
Au 14.1897 12.2905 13.6202
Au 18.3348 15.5789 10.193
Au 26.1613 16.6227 31.3395
Au 30.6557 27.613 22.1465
Au 22.0042 20.8796 34.9566
Pd 14.4429 22.6514 25.1182
Au 19.0446 14.5109 28.4391
Pd 9.59826 26.086 25.5182
Pd 28.1807 20.4265 14.4712
Au 15.6737 15.2165 10.11
Au 30.1218 27.5474 16.395
Pd 12.3408 22.9884 19.9992
Au 28.5799 12.2909 27.9473
Pd 28.6715 22.5199 21.1312
Au 29.6126 18.1661 25.4709
Au 15.8675 26.4382 7.19115
Au 23.9566 21.8196 12.947
Pd 28.2072 27.2498 20.9018
Pd 32.9994 18.8588 18.9799
Pd 15.6342 21.7874 22.6721
Pd 8.34276 24.5949 20.5647
Au 14.3976 6.74762 20.4228
Au 34.5481 18.0916 21.0965
Au 26.8488 21.5676 26.0644
Au 24.3567 12.8857 19.5743
Au 10.4221 28.5251 13.1128
Au 17.0801 5.15574 16.8266
Au 11.6985 9.35302 14.335
Au 20.1132 18.1404 14.5666
Au 14.6465 18.7309 15.9665
Au 17.7472 8.92793 28.9978
Pd 10.3495 18.0096 21.0059
Pd 20.7408 12.825 29.6774
Au 9.61654 17.1825 8.99581
Au 23.0408 23.5166 17.1569
Pd 19.7935 31.6766 19.1738
Au 20.4047 18.7764 34.49
Au 27.9729 29.8106 16.1413
Au 26.6418 25.3611 30.1426
Au 18.5268 31.9261 28.0509
Au 22.3483 21.4599 25.4495
Au 7.91133 18.4867 25.7642
Pd 11.4896 26.5031 11.543
Au 23.9337 34.3283 23.7121
Au 12.3497 27.7393 20.9709
Au 11.6642 32.1453 18.9478
Au 11.043 26.9159 23.4071
Pd 19.9863 20.92 9.81845
Au 7.1848 22.6206 15.4474
Pd 20.4753 24.7458 17.1535
Au 16.9241 11.2425 13.2078
Pd 22.3659 27.1913 20.6656
Au 14.7077 14.7247 30.9512
Au 8.66161 20.6576 14.6151
Au 29.1045 24.5396 16.3549
Au 19.724 23.7025 9.94441
Pd 12.8388 10.4084 12.0574
Au 17.2336 11.2292 25.5289
Au 18.7789 14.7214 22.0993
Au 25.7231 19.5931 19.3518
Au 18.3848 12.5189 15.2967
Au 23.2912 33.6053 21.2359
Au 20.8293 23.0717 21.125
Au 21.0594 25.4792 28.5411
Au 20.021 27.0168 13.3775
Pd 17.1314 21.279 5.75849
Au 15.9393 34.052 24.3892
Au 15.6725 6.8856 15.2259
Pd 21.3524 30.8785 24.2887
Au 18.8371 16.3902 5.83648
Au 28.5542 20.7926 7.64941
Au 23.815 18.4943 31.6902
Pd 10.8516 26.2913 14.4549
Pd 29.5603 26.1657 24.2697
Au 26.5945 30.9126 22.9746
Au 23.0643 17.7647 6.38082
Au 21.7179 19.7393 7.95733
Au 30.6612 27.7881 19.3491
Au 28.8186 16.5393 30.4269
Au 24.2716 24.0161 8.61654
Au 21.8975 27.2696 11.211
Au 11.4731 15.8935 7.59662
Au 6.91932 20.0168 23.4155
Au 33.7926 17.7621 23.7127
Au 31.7834 14.8443 17.4874
Pd 31.2925 16.6925 23.8088
Au 24.3496 23.9057 14.7493
Au 25.0239 9.5216 29.2479
Pd 12.4798 14.536 14.9918
Au 21.0232 15.4396 10.1328
Au 19.3146 6.1203 24.3917
Pd 21.2202 27.2774 18.1974
Au 14.8086 16.1319 15.1659
Au 26.3666 29.1282 20.7698
Pd 20.207 18.7218 23.0667
Au 20.9465 13.1471 15.0372
Au 9.45724 13.8443 14.4469
Au 17.9869 33.2087 20.8154
Pd 10.789 24.1249 24.0207
Pd 24.0667 21.3104 15.7549
Au 28.5186 21.1127 30.9419
Au 24.7981 31.824 27.3964
Au 28.3191 10.2674 20.9589
Au 6.50439 26.3697 16.8497
Pd 25.7191 24.7793 16.9222
Au 30.8946 18.3636 11.1717
Au 29.0691 21.8441 16.5661
Au 30.5545 22.9898 11.1333
Au 8.82099 15.39 12.1863
Pd 15.6388 21.8621 7.99073
Au 22.0758 31.9062 28.3121
Au 10.856 18.5291 6.9157
Pd 18.5506 6.68015 14.9487
Pd 15.3317 18.122 13.304
Pd 30.81 20.3453 17.7924
Au 19.479 14.649 7.83614
Au 20.1786 25.7782 25.7271
Au 15.077 19.4565 5.07609
Au 24.3725 21.2811 27.4891
Pd 18.532 24.6151 27.7627
Pd 23.2142 18.9475 26.3094
Au 20.781 24.3027 6.80843
Au 27.2037 9.91334 27.5351
Au 27.4367 31.8132 20.5821
Au 19.397 20.4656 25.2389
Au 33.5896 16.8913 17.236
Pd 12.2068 10.6851 21.2515
Au 18.3852 13.7909 24.8213
Pd 21.3618 9.11829 17.9796
Au 15.853 11.3978 15.6385
Au 23.1121 11.0041 10.5494
Au 9.76707 23.6606 15.4373
Au 11.4675 13.3228 20.7684
Au 22.288 19.9133 21.0143
Au 16.2726 8.61968 19.461
Au 17.0086 23.4817 9.80063
Pd 13.5547 19.8419 29.3305
Au 19.7942 10.0922 30.5761
Au 6.04017 15.9098 21.129
Pd 32.5753 19.1275 16.1906
Pd 21.1661 14.5207 12.6798
Au 16.3119 8.80228 26.6836
Pd 8.61201 25.4753 22.9992
Au 30.0049 19.0905 20.051
Au 12.6127 28.6105 27.7587
Au 26.5325 14.3904 24.3017
Au 25.0082 19.6669 22.0569
Au 17.2007 9.05592 14.7831
Au 16.4526 13.1539 32.4464
Pd 19.6867 20.4385 20.7915
Au 17.8881 16.2298 26.5017
Au 15.5517 26.0232 12.2016
Au 20.325 11.5987 17.2455
Au 7.98293 15.956 15.9127
Au 26.384 20.002 9.05047
Au 21.9167 31.9745 15.8297
Au 25.3079 22.1296 18.0547
Au 20.4829 17.2452 7.96676
Pd 14.9504 29.625 16.3379
Au 8.43021 23.1695 12.8758
Au 17.2471 21.4915 32.3384
Au 15.9086 14.2412 21.759
Au 10.0203 9.43417 22.4076
Au 30.0851 10.6402 19.0186
Au 9.53727 13.5918 18.8326
Pd 22.3443 28.1979 13.738
Au 20.7066 9.87692 11.2734
Au 27.9659 15.8104 8.54948
Au 12.5552 23.949 15.0984
Au 27.9644 30.4153 25.4097
Au 25.7576 32.7355 24.8953
Au 29.0094 26.3483 14.0448
Au 32.0914 20.8012 12.0027
Au 21.0171 22.1478 12.1611
Au 33.3981 21.2406 17.7058
Au 30.2179 23.1117 18.8609
Au 15.454 9.84516 11.4975
Pd 14.5742 10.8453 25.9153
Pd 12.9523 15.4595 9.81131
Au 16.5173 17.9202 10.6004
Au 22.0162 11.9063 12.8256
Au 14.4938 9.36303 14.1077
Pd 18.1882 28.9187 14.6002
Au 13.4329 9.29431 18.9747
Au 28.6043 23.626 29.538
Au 24.4539 11.4654 31.2807
Pd 24.6215 23.1696 29.5557
Pd 25.8467 8.56776 20.9742
Au 27.6684 11.9514 18.518
Au 32.9113 23.4814 19.0665
Au 18.5482 11.5481 28.6133
Pd 29.3334 10.741 25.9073
Pd 23.2248 25.6264 12.975
Au 14.4948 12.0214 30.4919
Au 24.1399 18.8968 28.9267
Au 28.4606 12.2387 23.0733
Au 12.3398 17.953 30.8328
Au 26.4318 12.9915 14.4039
Pd 11.3236 21.3981 14.9233
Au 23.1859 15.2973 19.9294
Pd 30.0858 28.6274 25.0603
Au 12.3158 22.0898 30.5522
Au 30.4932 16.1098 21.0041
Pd 26.6691 22.617 15.5879
Au 29.4499 25.4413 9.90694
Au 28.6866 17.2419 27.8597
Au 21.3672 6.88155 20.1293
Au 17.3261 17.6486 15.0026
Pd 16.469 23.2845 19.1236
Au 25.6367 28.5159 16.9179
Pd 25.5377 19.8269 14.1823
Au 30.9022 26.7703 26.8326
Pd 16.5584 20.4012 14.6602
Pd 27.9203 14.7793 21.8116
Pd 22.7832 13.2298 21.8275
Au 10.3493 14.5445 9.91901
Au 29.3943 27.5691 11.6352
Au 12.5596 20.0804 11.229
Pd 19.2085 10.9104 19.5849
Au 17.8373 17.5513 30.7135
Au 18.0239 22.6167 21.4341
Pd 29.4956 25.149 21.7218
Pd 18.3875 21.3933 18.6562
Au 20.8078 8.42519 23.7051
Au 23.7127 26.3123 17.8287
Pd 9.45984 18.7653 23.6144
Au 7.72749 18.0255 21.4976
Au 10.7866 15.9909 29.3213
Au 33.1053 15.5563 22.2465
Au 9.68602 30.5733 17.8676
Pd 13.5717 15.2867 20.4923
Au 23.6032 15.8615 32.8106
Pd 15.2054 9.11549 16.8934
Au 24.4357 9.77111 24.4444
Au 26.5554 23.0212 31.4875
Au 22.4923 14.2221 27.8667
Pd 33.828 22.7828 21.5279
Au 30.3996 20.709 22.4144
Au 24.3564 26.1273 10.473
Au 20.125 12.5209 26.609
Au 23.5585 17.3025 21.9869
Au 23.8283 15.0894 13.2106
Au 17.5502 24.8683 16.8563
Au 14.9544 13.0466 8.59835
Pd 10.0576 19.4944 10.448
Au 18.5557 22.354 7.83731
Au 22.9929 18.1725 34.2944
Au 29.2491 12.9683 20.3795
Au 30.6778 16.0899 12.9735
Au 22.1953 16.8903 24.619
Pd 24.6437 31.2176 20.6039
Au 32.9076 12.94 22.532
Pd 27.9185 13.9249 16.4688
Pd 25.2739 21.9701 10.5627
Pd 26.8349 24.9664 14.3575
Pd 20.0775 28.848 20.0767
Au 26.8856 21.5849 28.8419
Pd 15.2106 24.1468 14.6929
Au 16.7077 14.8335 7.43001
Au 22.5697 27.0298 30.4968
Pd 29.0238 25.7075 18.8775
Au 12.1135 25.9388 16.8901
Au 17.9378 20.2845 22.7992
Au 21.9597 11.4885 19.6751
Au 27.1483 17.8805 15.3127
Au 5.93998 22.582 24.2222
Au 27.1141 26.0755 23.167
Au 22.1084 17.1947 12.8402
Pd 20.8805 24.8336 12.0663
Pd 13.1819 13.6886 22.8432
Au 24.6336 10.7103 26.8878
Au 25.5605 16.6712 7.37339
Au 24.1024 18.5283 8.87485
Au 31.2457 19.3436 27.3712
Au 14.4791 22.0984 5.60827
Au 30.9121 25.3668 12.3162
Pd 11.6971 22.6729 10.3948
Au 33.5969 20.3065 22.5269
Pd 16.0272 24.6869 29.3245
Au 28.0347 23.0431 6.08439
Au 16.6666 32.2005 26.1799
Au 22.8342 25.9421 26.0879
Au 23.8725 33.6042 16.7823
Au 23.1944 7.31416 24.9386
Au 29.0144 13.4526 25.3358
Au 10.316 23.3087 8.15772
Au 7.74358 24.0214 17.7
Pd 18.0706 29.3738 23.0723
Au 23.0535 20.3878 5.62179
Au 18.628 33.3583 24.2168
Au 6.51542 17.712 19.1016
Pd 10.5894 14.3369 24.7911
Pd 28.3566 18.4612 17.8823
Au 13.7051 24.4965 30.7382
Pd 12.7267 13.8201 18.1761
Au 14.2547 18.8667 18.9056
Au 10.8956 26.6357 27.8618
Au 13.639 20.1233 26.5183
Pd 26.4916 12.3358 21.1894
Au 16.08 33.3965 16.5338
Pd 16.2312 20.5095 25.2932
Au 14.1412 32.278 25.295
Au 23.8533 22.618 32.1876
Au 21.2321 16.2893 18.2384
Au 16.8919 13.3275 29.8704
Au 27.516 8.84573 25.0425
Au 26.8501 27.0526 28.1175
Pd 14.6459 13.6877 16.341
Pd 16.3162 19.9781 17.5709
Pd 9.58601 21.3754 17.0564
Au 24.1248 25.6684 28.5553
Pd 17.3036 30.3996 12.577
Au 10.5251 9.09286 19.6014
Au 29.8567 19.0178 29.8218
Au 13.0913 11.0093 16.0144
Pd 29.3751 23.0799 14.0746
Au 25.4481 33.0898 18.9285
Pd 12.4428 26.7625 25.6292
Au 11.528 12.1346 13.745
Au 27.288 19.1769 24.3017
Pd 28.6108 19.97 27.4544
Au 22.8815 28.3971 16.3737
Au 26.0212 19.0138 26.8963
Pd 12.2573 17.3767 15.9605
Au 14.1641 19.8989 31.9023
Pd 28.1074 15.4429 13.9753
Au 10.4853 28.6314 25.603
Au 9.22514 24.5539 27.6754
Au 17.2889 26.0603 14.4418
Pd 26.8489 11.6354 25.4121
Au 24.1242 30.8945 17.1262
Au 15.8979 24.3674 23.2303
Au 13.6224 28.18 23.4285
Au 18.6818 29.6647 29.6875
Au 18.6942 19.7425 16.4146
Au 27.3783 11.8684 12.106
Pd 14.6929 23.8642 20.9005
Au 14.9072 11.6559 22.8878
Au 8.30287 17.7957 11.3923
Au 14.4123 31.5623 18.205
Au 31.2518 16.9562 28.6758
Au 21.7201 11.6075 31.8907
Pd 26.8295 26.5443 12.0085
Au 16.7001 31.8522 23.0698
Au 10.1062 10.2774 12.4236
Au 11.108 9.34753 16.9828
Au 14.3558 16.4199 22.7868
Pd 26.1477 11.9662 28.9854
Au 21.1384 20.3409 27.5842
Pd 6.66758 20.2643 20.2276
Au 19.519 16.3009 24.0757
Au 31.2771 23.2273 21.4227
Pd 21.865 25.313 9.26818
Au 18.7605 16.9723 33.3572
Au 28.0404 21.9711 10.4118
Au 16.4424 15.9054 32.5992
Au 15.7254 34.2335 21.7865
Au 20.6564 26.9418 7.49589
Au 26.3124 32.1914 16.2885
Pd 14.7004 25.3448 25.4345
Au 6.02362 24.5774 22.1218
Pd 11.4003 32.1997 16.3218
Pd 12.7036 16.9791 13.4309
Pd 13.7954 25.8156 27.945
Pd 25.0838 13.3951 26.4593
Au 17.1706 6.08744 19.5051
Pd 16.5149 15.8726 29.0158
Au 7.08759 15.0208 18.4925
Au 18.2408 21.8654 11.8168
Au 19.6043 10.8024 13.5662
Au 14.3149 22.2119 10.2647
Au 15.8809 12.691 11.2325
Au 23.6218 13.3465 15.1744
Pd 21.9412 24.7993 19.3113
Au 8.33465 12.9683 25.0956
Au 26.3076 26.6922 18.9066
Pd 13.8351 30.9825 22.8864
Au 23.4123 11.4171 17.3087
Pd 21.7934 15.7395 15.3476
Pd 21.8373 18.0346 10.2185
Au 14.6982 30.5668 13.5005
Au 23.0135 13.826 30.7459
Au 20.958 33.7795 17.6474
Au 19.1941 27.4779 27.8033
Au 8.20232 27.7141 14.566
Pd 18.0062 26.308 32.2459
Au 24.7557 24.4342 19.5307
Au 21.7851 22.5476 8.54255
Au 26.8698 30.9175 13.9312
Au 29.3155 13.7287 12.4123
Au 22.7491 29.719 10.9094
Au 32.5165 14.9279 27.5342
Au 25.5399 14.701 9.26645
Au 32.3279 14.408 24.86
Au 25.4597 23.8313 22.719
Au 12.1123 7.91147 21.4343
Au 18.6212 15.0431 31.1357
Au 17.705 10.2356 17.4852
Au 10.4876 18.9429 13.2372
Au 9.29233 26.2047 16.5776
Au 13.7226 27.8682 18.2855
Au 25.2234 28.7388 9.94234
Au 11.8968 9.89086 26.2638
Pd 23.8976 15.959 17.2431
Au 9.35546 13.6973 22.4129
Au 19.6376 9.01475 15.937
Pd 23.5838 29.1411 21.9488
Au 11.4603 15.7832 22.3339
Pd 27.3512 23.9603 24.8203
Au 13.973 15.0463 7.08609
Au 17.5808 22.9841 14.1938
Pd 29.0476 22.8433 26.819
Pd 19.1184 15.3204 14.5521
Au 27.2039 29.2488 11.7467
Au 19.6832 24.5957 14.5164
Au 20.1597 6.65681 17.3118
Au 13.8558 8.03346 25.6971
Au 13.1354 19.645 13.89
Pd 10.942 12.6249 16.4572
Au 26.7134 16.3072 17.5383
Pd 29.3452 18.1583 22.6629
Au 7.96903 18.0564 14.0494
Pd 27.5387 23.498 18.4191
Au 13.7926 20.1649 23.8042
Au 31.903 25.2331 23.1128
Pd 24.1929 25.9938 23.7243
Au 22.2707 13.7902 17.6123
Au 22.6515 23.4385 27.4766
Au 27.1373 10.0157 14.1045
Au 23.7824 31.5854 23.2416
Au 24.2177 18.9932 11.8514
Au 9.3378 14.5759 27.3974
Au 7.29692 13.3037 20.6744
Pd 14.6119 19.6775 9.53204
Au 25.2247 20.6604 30.8661
Pd 16.1009 27.1206 23.5864
Au 19.2182 9.57868 26.7046
Pd 21.8354 31.0741 21.1224
Au 31.0825 12.8201 26.8807
Au 10.9811 11.8589 23.4738
Au 28.0877 17.1067 20.1973
Au 11.8813 24.2285 26.4995
Au 22.7245 20.7397 10.4782
Au 27.0581 18.9445 29.6857
Au 15.6783 28.6192 8.693
Au 30.9364 11.3475 21.6138
Au 16.4043 11.1858 20.2802
Pd 28.7849 15.8891 24.0061
Au 10.7574 27.8735 18.4941
Au 17.8053 18.7597 5.21887
Au 16.5725 7.2668 22.093
Au 20.6788 33.6731 20.6101
Pd 24.6273 28.0071 12.4392
Pd 14.8517 17.1656 8.43719
Au 13.8949 17.5736 11.1414
Au 19.2414 22.5431 16.3786
Pd 24.3125 25.1997 31.3853
Au 18.6245 26.6792 18.6708
Pd 26.7894 28.1117 14.2364
Au 22.0403 23.9703 30.5613
Au 28.3793 28.8191 23.0956
Au 27.547 27.3535 9.56221
Au 9.53685 10.2192 24.9572
Au 20.3622 8.08482 28.7986
Au 19.9282 22.0841 31.3115
Au 22.577 21.312 29.81
Au 14.0095 7.16974 23.1973
Au 30.3323 21.5791 28.8785
Au 8.71073 15.6601 20.6354
Au 13.9472 32.0763 15.5538
Au 27.8694 25.278 7.59875
Au 9.14588 10.996 17.8613
Au 29.6538 23.2608 23.7124
Au 12.9449 22.773 22.7267
Au 15.8119 33.9977 19.072
Pd 25.0061 14.3066 28.9576
Au 25.5818 12.1385 10.0688
Au 18.8139 23.8355 33.0853
Pd 12.8918 28.1125 15.3333
Au 10.3449 24.5918 18.6625
Au 32.2756 22.3622 23.8414
Au 24.1418 21.246 8.01674
Au 25.505 13.9754 31.7064
Pd 11.7675 11.4148 18.6978
Au 17.8074 13.0862 9.27665
Au 17.5892 25.2441 25.1435
Pd 20.5862 21.522 6.17591
Au 7.88753 28.6985 17.1374
Au 10.5811 15.2836 16.7921
Au 29.1956 29.7412 20.6949
Pd 20.5974 19.4648 12.0851
Pd 24.8854 18.4482 17.0281
Au 22.1484 23.9391 24.2348
Au 18.2911 7.00153 26.85
Au 25.1304 14.7437 21.874
Au 15.6398 14.5388 18.8856
Au 26.7401 20.2556 16.7509
Au 25.6207 24.4596 6.28429
Pd 28.2843 28.4964 18.4456
Pd 8.90447 22.2056 19.4776
Pd 25.448 26.5378 8.07843
Au 25.3713 24.224 12.1951
