923
Atoms. Timestep: 20112
Au 19.7524 19.7761 19.7651
Au 22.0562 19.7919 18.3496
Au 22.0439 19.7854 21.1944
Au 17.466 19.7587 18.3301
Au 17.4541 19.7615 21.1773
Au 18.3331 22.0727 19.7551
Au 21.1773 22.0694 19.7542
Au 18.3308 17.4759 19.7631
Au 21.1757 17.4892 19.7699
Au 19.7511 18.3603 22.072
Au 19.7393 21.1884 22.0648
Au 19.7491 18.3579 17.4701
Au 19.7633 21.1937 17.4687
Pd 24.3443 19.7893 16.9441
Au 24.4083 19.8018 19.763
Au 24.3272 19.7962 22.6372
Pd 15.1938 19.747 16.908
Au 15.1026 19.7503 19.7381
Au 15.1561 19.7451 22.5975
Pd 16.9151 24.3635 19.7497
Au 19.7529 24.4459 19.7511
Au 22.5914 24.3614 19.7398
Pd 16.9187 15.1892 19.761
Au 19.7471 15.1148 19.7699
Au 22.6021 15.193 19.7773
Au 19.7536 16.9535 24.3855
Au 19.7412 19.7685 24.4601
Au 19.7361 22.5898 24.3684
Au 19.7503 16.9488 15.1685
Au 19.7642 19.762 15.099
Au 19.7776 22.6037 15.1701
Au 22.0835 18.3486 23.573
Au 22.0743 21.2062 23.5648
Au 22.0954 18.3472 16.0018
Au 22.1105 21.2275 16.004
Au 17.4152 18.3207 23.5502
Au 17.405 21.1965 23.5486
Pd 17.4376 18.3115 15.9947
Au 17.4363 21.1856 15.9872
Pd 23.5238 22.1123 18.3196
Au 23.5257 22.1158 21.2034
Au 15.9934 22.0951 18.3025
Au 15.9821 22.1057 21.1951
Au 23.5406 17.4689 18.3213
Au 23.5309 17.4569 21.2322
Au 16.0032 17.4262 18.2964
Au 15.9806 17.4068 21.2082
Au 18.2969 23.5561 22.0848
Au 21.1852 23.5438 22.0854
Au 18.2983 16.0068 22.0999
Au 21.2006 16.0077 22.1207
Au 18.3245 23.5557 17.4216
Au 21.2209 23.5513 17.4299
Au 18.3093 16.0067 17.4253
Au 21.2042 16.0069 17.4324
Au 26.644 19.7733 15.5398
Au 26.7441 19.7798 18.3414
Au 26.735 19.7915 21.216
Au 26.6097 19.79 24.0581
Au 12.8956 19.7385 15.4763
Au 12.774 19.7436 18.3084
Au 12.7588 19.735 21.185
Pd 12.8579 19.7385 24.0102
Au 15.4808 26.661 19.7609
Au 18.3314 26.7724 19.7513
Pd 21.1826 26.767 19.7439
Au 24.0022 26.6507 19.7339
Au 15.5105 12.8875 19.7604
Au 18.3294 12.7733 19.7658
Au 21.1905 12.7695 19.7642
Au 24.0321 12.8909 19.7801
Pd 19.7497 15.5485 26.6796
Pd 19.7381 18.3488 26.7732
Pd 19.7354 21.1742 26.7693
Au 19.744 24.0076 26.6619
Pd 19.7816 15.5307 12.8921
Pd 19.7848 18.3282 12.7837
Pd 19.7909 21.1821 12.7795
Au 19.794 24.0124 12.8595
Pd 24.382 18.3421 25.014
Au 22.0839 16.9184 25.9001
Pd 24.3708 21.2194 25.0149
Pd 22.0841 19.7732 25.9611
Au 22.0875 22.62 25.8919
Au 24.4106 18.3231 14.5692
Au 22.1068 16.904 13.6713
Au 24.4063 21.2323 14.5581
Au 22.1073 19.7722 13.5763
Au 22.1234 22.6347 13.6498
Au 15.0929 18.2987 24.9799
Au 17.4163 16.9006 25.8832
Au 15.0722 21.1975 24.9862
Pd 17.3899 19.7542 25.9521
Au 17.383 22.6242 25.8752
Au 15.1581 18.2786 14.5435
Pd 17.4411 16.8871 13.6811
Au 15.1287 21.1953 14.5329
Au 17.4407 19.7215 13.5937
Au 17.4457 22.6301 13.656
Au 24.9626 24.4292 18.2986
Au 25.8368 22.1349 16.9008
Pd 24.9536 24.4277 21.2058
Au 25.9162 22.1606 19.7733
Pd 25.8297 22.1271 22.6581
Au 14.5359 24.4236 18.2931
Au 13.6719 22.0988 16.851
Au 14.5279 24.429 21.2047
Au 13.5724 22.1232 19.7474
Au 13.6489 22.0994 22.6493
Au 24.9895 15.1365 18.3128
Pd 25.8587 17.4418 16.8966
Au 24.9905 15.132 21.2695
Au 25.9378 17.4247 19.7763
Au 25.8472 17.4291 22.6968
Au 14.5649 15.1045 18.2971
Au 13.691 17.3989 16.8608
Pd 14.5431 15.1046 21.2177
Au 13.5887 17.3694 19.7619
Au 13.6552 17.3866 22.6565
Au 18.2796 24.9995 24.4151
Au 16.8569 25.8865 22.0974
Au 21.1809 24.9922 24.4106
Au 19.7484 25.9822 22.1145
Au 22.6052 25.88 22.0797
Au 18.2998 14.5763 24.4359
Au 16.8635 13.6948 22.1128
Au 21.2124 14.5618 24.4599
Au 19.7576 13.5905 22.1461
Au 22.6534 13.679 22.1603
Pd 18.3346 24.9871 15.09
Au 16.8926 25.8739 17.398
Au 21.2288 24.9873 15.1114
Au 19.7846 25.9662 17.3902
Pd 22.6313 25.8765 17.4135
Au 18.3273 14.5672 15.0926
Au 16.8894 13.6829 17.4044
Au 21.235 14.5608 15.1039
Au 19.7724 13.5853 17.3978
Au 22.647 13.6665 17.406
Au 23.5894 15.9664 23.6383
Au 23.5697 23.5737 23.5895
Au 23.5967 15.9501 15.9485
Pd 23.5784 23.5985 15.9534
Pd 15.9218 15.9534 23.5937
Au 15.9077 23.5907 23.6005
Pd 15.9677 15.941 15.9312
Au 15.9503 23.5907 15.9153
Au 28.9555 19.7523 14.1177
Pd 29.0891 19.7624 16.9303
Au 29.1198 19.7615 19.7769
Au 29.0822 19.7661 22.6326
Au 28.9372 19.7697 25.4632
Pd 10.5935 19.7302 14.0374
Au 10.4345 19.7339 16.8722
Au 10.3904 19.7232 19.7465
Au 10.4256 19.7258 22.6102
Au 10.5579 19.7363 25.4028
Au 14.0445 28.9626 19.7598
Au 16.8876 29.1086 19.7652
Au 19.768 29.1322 19.7519
Au 22.5975 29.0864 19.7502
Au 25.4295 28.952 19.7467
Au 14.1063 10.5508 19.752
Au 16.9324 10.411 19.7525
Au 19.7757 10.3896 19.7473
Au 22.6257 10.4316 19.7564
Au 25.4698 10.5916 19.766
Au 19.7305 14.128 28.9622
Pd 19.735 16.9243 29.0808
Au 19.7328 19.7555 29.1187
Au 19.7492 22.6059 29.0896
Au 19.7471 25.4379 28.961
Au 19.8095 14.1153 10.6076
Pd 19.8073 16.9059 10.4843
Au 19.8188 19.7372 10.4548
Au 19.8238 22.5965 10.4563
Pd 19.7871 25.4206 10.5512
Au 26.6914 18.2997 26.4432
Au 24.4228 16.8694 27.3425
Pd 22.0879 15.4775 28.2013
Au 26.6703 21.2386 26.4614
Au 24.4154 19.7861 27.4333
Au 22.0973 18.3376 28.3114
Pd 24.3933 22.6645 27.3544
Au 22.1151 21.217 28.3074
Pd 22.0976 24.0714 28.1954
Au 26.7216 18.2868 13.128
Pd 24.4357 16.8642 12.2274
Au 22.1408 15.479 11.3803
Au 26.7248 21.2247 13.1103
Au 24.4453 19.7592 12.1154
Pd 22.1539 18.3145 11.2433
Pd 24.4411 22.6545 12.1859
Pd 22.1541 21.2004 11.2293
Pd 22.1377 24.0569 11.3392
Au 12.7697 18.2989 26.3941
Au 15.0714 16.8629 27.3291
Pd 17.4021 15.4769 28.1879
Pd 12.7544 21.1925 26.3979
Au 15.0266 19.7641 27.4142
Au 17.3766 18.3172 28.3104
Au 15.0268 22.6549 27.315
Au 17.3498 21.1881 28.3126
Au 17.3647 24.0763 28.1899
Au 12.8286 18.2756 13.0848
Pd 15.1291 16.8483 12.1921
Au 17.4635 15.4611 11.3772
Au 12.8085 21.1909 13.0717
Au 15.0975 19.7222 12.0972
Au 17.4378 18.2879 11.2383
Au 15.1004 22.6401 12.1696
Au 17.4316 21.1645 11.2205
Au 17.4399 24.0568 11.3136
Pd 26.4139 26.7419 18.2967
Pd 27.3254 24.4705 16.8788
Au 28.1914 22.1328 15.4831
Au 26.4007 26.742 21.2119
Au 27.3996 24.4907 19.7582
Au 28.3066 22.1551 18.3307
Au 27.3016 24.4549 22.661
Au 28.2954 22.1723 21.2186
Au 28.1581 22.144 24.0932
Au 13.058 26.743 18.288
Au 12.1728 24.4366 16.8154
Au 11.3417 22.0923 15.4062
Pd 13.0694 26.7332 21.211
Au 12.0631 24.4774 19.7507
Au 11.1904 22.1292 18.2919
Au 12.1745 24.435 22.6646
Au 11.1812 22.1226 21.1943
Au 11.3296 22.0894 24.072
Au 26.4423 12.8102 18.3144
Au 27.3425 15.0944 16.881
Au 28.1857 17.4144 15.4778
Au 26.4434 12.8293 21.2687
Au 27.4321 15.0737 19.8043
Au 28.3129 17.4006 18.3425
Pd 27.3318 15.0985 22.7037
Au 28.3012 17.375 21.2388
Au 28.1703 17.3955 24.0946
Au 13.1144 12.771 18.2742
Au 12.2093 15.0509 16.8345
Au 11.3481 17.3822 15.4181
Au 13.1058 12.7799 21.2241
Au 12.0989 15.0262 19.7587
Au 11.2003 17.3544 18.3126
Au 12.1824 15.0723 22.6616
Au 11.1939 17.3482 21.2042
Pd 11.3277 17.3985 24.061
Au 18.2736 26.4437 26.7244
Au 16.8341 27.3563 24.4376
Pd 15.4105 28.2022 22.1171
Au 21.1929 26.4374 26.7306
Pd 19.7302 27.4513 24.4607
Au 18.3043 28.3386 22.1486
Au 22.6038 27.3575 24.4216
Pd 21.1762 28.3409 22.1247
Au 24.0345 28.1997 22.1013
Au 18.2875 13.1468 26.7513
Au 16.8707 12.2006 24.4558
Au 15.4606 11.3357 22.1289
Au 21.2061 13.1312 26.7699
Au 19.7707 12.0995 24.4984
Au 18.33 11.1978 22.1574
Pd 22.6668 12.2013 24.4859
Au 21.2193 11.2077 22.1668
Au 24.0938 11.3616 22.1637
Au 18.3316 26.4147 12.7617
Au 16.8827 27.3344 15.0408
Au 15.4355 28.2026 17.3779
Au 21.2343 26.412 12.7686
Au 19.7812 27.4396 15.0421
Au 18.3399 28.342 17.3591
Au 22.6532 27.3406 15.0839
Pd 21.2103 28.3274 17.3801
Au 24.057 28.1905 17.3909
Pd 18.352 13.1152 12.7896
Au 16.8978 12.2001 15.0642
Au 15.4889 11.3318 17.3832
Au 21.2586 13.1341 12.8069
Au 19.8056 12.1036 15.0589
Au 18.3591 11.2011 17.3777
Pd 22.686 12.2113 15.0839
Pd 21.227 11.2128 17.3778
Au 24.0816 11.3565 17.3953
Pd 25.9245 15.922 25.0702
Au 25.8947 23.6052 25.0761
Pd 25.0603 13.6166 23.6577
Au 25.013 25.9447 23.6148
Au 23.6187 14.4903 25.9626
Au 23.5807 25.0344 25.9613
Au 25.9268 15.9108 14.4955
Au 25.9281 23.6296 14.4907
Pd 25.0497 13.5972 15.9212
Au 25.036 25.9431 15.9278
Pd 23.6229 14.4958 13.6085
Au 23.6174 25.0396 13.5858
Pd 13.5632 15.9069 25.0485
Pd 13.554 23.6008 25.0494
Au 14.4622 13.6063 23.6192
Au 14.439 25.9377 23.613
Au 15.8935 14.4985 25.9438
Pd 15.8736 25.0552 25.9394
Au 13.6362 15.8903 14.4543
Pd 13.5901 23.5995 14.4361
Pd 14.5031 13.5855 15.8955
Au 14.4566 25.9398 15.865
Au 15.9536 14.4852 13.5966
Au 15.9311 25.0499 13.5589
Au 31.2592 19.7257 12.6941
Pd 31.381 19.7473 15.4907
Au 31.465 19.7401 18.3452
Au 31.486 19.7269 21.2088
Au 31.432 19.7649 24.0512
Au 31.2542 19.7618 26.8778
Au 8.31994 19.7247 12.5906
Au 8.1303 19.7151 15.4201
Pd 8.08037 19.7173 18.3086
Pd 8.07155 19.7222 21.1694
Pd 8.12239 19.7299 24.0138
Pd 8.2675 19.745 26.7813
Au 12.6102 31.2746 19.734
Au 15.4465 31.4567 19.7438
Au 18.3261 31.5118 19.7447
Au 21.207 31.489 19.7591
Pd 24.0592 31.3837 19.7688
Pd 26.8368 31.2307 19.7658
Pd 12.7093 8.266 19.7379
Au 15.5108 8.07362 19.7445
Pd 18.3561 8.04652 19.7407
Au 21.1976 8.04261 19.7466
Au 24.0768 8.10898 19.7544
Au 26.897 8.2925 19.7473
Au 19.7091 12.6745 31.2616
Au 19.6995 15.4967 31.4148
Au 19.7116 18.3262 31.4793
Au 19.7428 21.2042 31.4907
Au 19.7466 24.0469 31.4297
Pd 19.7492 26.8432 31.2409
Pd 19.8239 12.703 8.3229
Au 19.8168 15.4842 8.16037
Pd 19.8075 18.3161 8.13953
Au 19.7968 21.1559 8.08828
Au 19.808 24.0075 8.11006
Au 19.7803 26.8298 8.25354
Au 29.0316 18.307 27.8898
Au 26.7706 16.843 28.82
Au 24.4416 15.4249 29.6945
Au 22.0911 14.0319 30.5113
Au 29.0219 21.2392 27.8881
Au 26.7714 19.7935 28.9461
Au 24.4771 18.3399 29.8585
Au 22.109 16.9005 30.6751
Au 26.6975 22.7079 28.8165
Pd 24.4539 21.2534 29.816
Au 22.1421 19.7976 30.7252
Pd 24.3986 24.0907 29.6659
Pd 22.1254 22.6589 30.639
Au 22.1097 25.5034 30.5103
Au 29.0497 18.2633 11.7017
Pd 26.7452 16.8377 10.8003
Pd 24.4534 15.4361 9.92466
Pd 22.1583 14.0535 9.07846
Au 29.0683 21.1993 11.6747
Au 26.8062 19.7227 10.6448
Au 24.5169 18.2804 9.75347
Au 22.1761 16.8863 8.89991
Au 26.7781 22.6533 10.7331
Au 24.4924 21.1996 9.72243
Au 22.1787 19.7473 8.85761
Au 24.4627 24.0716 9.84151
Pd 22.1755 22.6222 8.89007
Au 22.1397 25.4694 9.02625
Au 10.4414 18.2971 27.8168
Au 12.7289 16.859 28.7848
Pd 15.0673 15.4317 29.6324
Au 17.3482 14.0366 30.487
Au 10.43 21.184 27.8061
Pd 12.6786 19.7559 28.8602
Au 14.9906 18.3156 29.8135
Pd 17.3455 16.872 30.6348
Au 12.7046 22.6223 28.7571
Pd 14.9658 21.2049 29.8023
Au 17.3034 19.7471 30.7344
Au 15.0112 24.0856 29.6764
Au 17.3127 22.632 30.7014
Au 17.3684 25.5266 30.535
Pd 10.531 18.2771 11.6418
Au 12.8094 16.8475 10.7272
Au 15.1443 15.4252 9.85501
Pd 17.4878 14.0474 9.04931
Pd 10.5213 21.1502 11.6349
Au 12.7665 19.7202 10.5952
Pd 15.0832 18.288 9.73218
Au 17.439 16.8773 8.87836
Au 12.7781 22.6101 10.6912
Pd 15.0698 21.1666 9.71952
Au 17.3959 19.7231 8.82315
Au 15.081 24.0585 9.8038
Au 17.3968 22.5867 8.84304
Au 17.4166 25.4812 8.98226
Au 27.8508 29.0638 18.2999
Au 28.7754 26.7984 16.8755
Au 29.6864 24.4885 15.4517
Au 30.541 22.1135 14.0415
Au 27.8344 29.0923 21.2415
Au 28.8807 26.8191 19.7776
Au 29.8288 24.5155 18.3409
Au 30.7087 22.1384 16.9062
Au 28.776 26.7997 22.6815
Pd 29.8057 24.528 21.232
Au 30.7353 22.175 19.7838
Au 29.6672 24.4856 24.1112
Au 30.6841 22.1852 22.6552
Au 30.5149 22.1573 25.5427
Au 11.5932 29.0706 18.2644
Au 10.6743 26.7625 16.7966
Pd 9.83738 24.4095 15.3703
Au 9.03317 22.078 13.9555
Au 11.6172 29.0372 21.1997
Au 10.5511 26.809 19.7459
Au 9.64318 24.4861 18.2601
Au 8.81764 22.117 16.8451
Au 10.6953 26.7367 22.6593
Au 9.63785 24.4774 21.2031
Au 8.76116 22.1043 19.7298
Pd 9.82946 24.4026 24.072
Au 8.81991 22.1077 22.6267
Pd 9.00879 22.0676 25.4604
Pd 27.8727 10.5019 18.3226
Au 28.8258 12.7521 16.9038
Au 29.7047 15.0774 15.4452
Pd 30.4947 17.403 14.0465
Au 27.8918 10.5147 21.2253
Pd 28.8853 12.7506 19.7938
Au 29.8507 15.0424 18.3769
Au 30.6728 17.3876 16.9104
Au 28.8192 12.8068 22.6838
Pd 29.7998 15.0468 21.2483
Pd 30.6948 17.3645 19.8092
Pd 29.6587 15.0952 24.0993
Pd 30.6401 17.3748 22.6524
Au 30.5087 17.3924 25.5009
Au 11.6814 10.4217 18.2712
Au 10.7398 12.7116 16.8173
Au 9.8632 15.0195 15.3758
Au 9.0485 17.3698 13.9501
Au 11.6695 10.4248 21.2141
Au 10.6105 12.6753 19.7443
Au 9.67563 14.9932 18.3032
Au 8.82239 17.3315 16.8599
Au 10.7225 12.7252 22.6444
Pd 9.69144 14.9983 21.189
Pd 8.79745 17.3443 19.7439
Au 9.82205 15.0787 24.0638
Au 8.82483 17.3513 22.6081
Pd 9.00849 17.4164 25.4577
Au 18.2858 27.8821 29.06
Au 16.8221 28.8253 26.7747
Au 15.3932 29.7007 24.4581
Au 13.963 30.5264 22.1248
Au 21.1974 27.8711 29.0617
Au 19.7429 28.9313 26.8002
Pd 18.2829 29.8284 24.498
Au 16.8534 30.7091 22.1715
Au 22.66 28.815 26.7647
Au 21.1776 29.8517 24.4962
Au 19.7455 30.7527 22.1758
Pd 24.0626 29.6621 24.4353
Au 22.644 30.6934 22.1545
Pd 25.4721 30.4859 22.0939
Au 18.2517 11.6821 29.0436
Pd 16.8617 10.7748 26.7671
Au 15.4394 9.83969 24.4728
Au 14.0366 8.9912 22.1232
Au 21.1847 11.6471 29.083
Au 19.7158 10.6173 26.8278
Pd 18.3037 9.69886 24.5263
Au 16.9083 8.79976 22.1658
Au 22.6466 10.7378 26.7996
Au 21.207 9.68017 24.5236
Au 19.7642 8.77449 22.169
Au 24.0975 9.85794 24.4857
Au 22.6633 8.82269 22.172
Au 25.5402 9.01941 22.1298
Au 18.3135 27.8466 10.4409
Pd 16.8764 28.7595 12.7042
Au 15.4232 29.6782 14.9929
Au 13.9796 30.5335 17.361
Pd 21.2235 27.8206 10.4528
Au 19.7893 28.9021 12.6803
Au 18.3301 29.8547 14.9633
Au 16.871 30.7242 17.32
Pd 22.6645 28.7617 12.7434
Pd 21.2382 29.8155 15.006
Au 19.7854 30.7532 17.3224
Au 24.106 29.67 15.0347
Au 22.6441 30.6951 17.3547
Au 25.5065 30.5252 17.3994
Au 18.3658 11.6999 10.4685
Au 16.9076 10.744 12.7366
Au 15.4712 9.82247 15.0384
Au 14.0711 8.98927 17.3807
Au 21.2837 11.7108 10.4789
Au 19.8098 10.6368 12.7153
Au 18.3577 9.66362 15.0296
Pd 16.9307 8.84499 17.3731
Au 22.7172 10.7795 12.7638
Au 21.2529 9.68918 15.038
Pd 19.7854 8.8153 17.378
Au 24.135 9.87482 15.0644
Au 22.6594 8.85538 17.3677
Pd 25.5315 9.05673 17.4155
Au 28.2632 15.8744 26.5044
Au 28.2502 23.6648 26.56
Pd 27.4316 13.5857 25.0857
Au 27.3981 25.9971 25.1203
Au 26.5381 11.27 23.6762
Au 26.4732 28.3195 23.6492
Pd 25.981 14.454 27.432
Pd 25.926 25.0643 27.447
Au 25.1102 12.1153 26.004
Au 25.0594 27.4358 26.0047
Au 23.6369 13.0228 28.3098
Au 23.617 26.5039 28.3038
Pd 28.2753 15.8926 13.0514
Au 28.3068 23.66 13.0133
Au 27.4296 13.5498 14.4485
Au 27.4122 26.0119 14.4574
Au 26.5274 11.2597 15.8939
Pd 26.4825 28.2841 15.9106
Au 25.9616 14.4553 12.1315
Au 25.987 25.0967 12.0892
Pd 25.0753 12.149 13.5772
Pd 25.0689 27.4257 13.565
Pd 23.6394 13.0725 11.2895
Au 23.6416 26.5115 11.2365
Au 11.2018 15.8816 26.4794
Au 11.1994 23.6089 26.4746
Au 12.0688 13.5119 25.0844
Pd 12.0526 25.9557 25.0637
Pd 13.0226 11.2194 23.6255
Au 12.9608 28.2712 23.615
Au 13.5257 14.4168 27.4344
Au 13.4812 25.0852 27.4115
Au 14.4366 12.0798 25.9851
Au 14.3795 27.4254 25.9789
Pd 15.892 13.0476 28.274
Au 15.8348 26.529 28.2955
Pd 11.2873 15.8836 12.9947
Au 11.2519 23.5888 12.9651
Au 12.1388 13.5169 14.382
Au 12.058 25.964 14.3571
Au 13.0551 11.2163 15.8451
Au 12.9703 28.3058 15.8166
Au 13.5934 14.4157 12.0748
Au 13.5582 25.0768 12.0426
Pd 14.4925 12.0982 13.5402
Au 14.4364 27.4311 13.4666
Au 15.9529 13.026 11.2477
Pd 15.9253 26.4784 11.2017
Pd 33.4563 19.7094 11.3335
Au 33.6425 19.7211 14.0625
Pd 33.6578 19.7253 16.8855
Au 33.7438 19.7205 19.7714
Au 33.7411 19.7312 22.6572
Au 33.6722 19.7539 25.5282
Au 33.4608 19.7575 28.2516
Au 6.10755 19.7177 11.2022
Au 5.8983 19.71 13.9478
Pd 5.87877 19.7113 16.8365
Au 5.81733 19.7391 19.7233
Au 5.82714 19.7415 22.6031
Au 5.86315 19.7392 25.4408
Au 6.03347 19.7466 28.1474
Au 11.228 33.485 19.7315
Au 13.9624 33.6973 19.7371
Au 16.8562 33.7659 19.7347
Au 19.7816 33.7746 19.7578
Pd 22.6868 33.6828 19.78
Au 25.5041 33.6321 19.7839
Au 28.2102 33.4595 19.7894
Au 11.3489 6.03564 19.7254
Au 14.0523 5.84934 19.7281
Au 16.9212 5.782 19.7238
Au 19.7883 5.77848 19.7303
Pd 22.6767 5.84769 19.7427
Au 25.5409 5.87213 19.7525
Au 28.2725 6.08182 19.75
Au 19.6928 11.3024 33.4771
Au 19.6953 14.0256 33.6677
Au 19.7135 16.8761 33.7405
Au 19.7339 19.7656 33.7614
Au 19.7511 22.6617 33.745
Au 19.7546 25.5226 33.6647
Au 19.7572 28.2244 33.4596
Au 19.8333 11.3251 6.09378
Au 19.8256 14.0421 5.90592
Pd 19.8186 16.8784 5.9067
Pd 19.802 19.7157 5.87449
Au 19.788 22.5766 5.81725
Au 19.7923 25.4417 5.84756
Au 19.7894 28.1801 6.01963
Pd 31.3228 18.3556 29.2115
Au 29.0819 16.8946 30.1857
Au 26.7431 15.43 31.1092
Au 24.3646 13.9997 31.965
Pd 21.9864 12.6091 32.752
Pd 31.3129 21.189 29.2032
Au 29.1362 19.7797 30.3066
Au 26.8346 18.3081 31.2808
Au 24.4505 16.8447 32.1637
Pd 22.0467 15.424 32.9246
Pd 28.9967 22.6572 30.1399
Au 26.7898 21.2722 31.2649
Au 24.4751 19.8217 32.1976
Au 22.0928 18.3308 33.0465
Au 26.6883 24.1115 31.082
Au 24.4354 22.7078 32.1157
Pd 22.0905 21.2553 32.995
Au 24.3798 25.5183 31.9389
Pd 22.0885 24.1128 32.9103
Au 22.0417 26.9318 32.7717
Au 31.3401 18.2976 10.3277
Pd 29.0298 16.8662 9.44166
Au 26.7409 15.4384 8.5316
Au 24.443 14.021 7.65333
Au 22.1295 12.6291 6.81063
Au 31.3624 21.1436 10.3116
Pd 29.1411 19.7218 9.31793
Au 26.8472 18.2611 8.33743
Pd 24.5097 16.8216 7.49193
Au 22.1802 15.4341 6.60563
Pd 29.0734 22.5922 9.40115
Pd 26.8344 21.1883 8.35694
Pd 24.5034 19.7238 7.43299
Au 22.1527 18.3076 6.55051
Au 26.7624 24.0366 8.43808
Au 24.5009 22.6174 7.40173
Pd 22.1372 21.1818 6.57197
Au 24.4192 25.4712 7.55724
Au 22.1504 24.0366 6.56342
Pd 22.0674 26.8541 6.76838
Pd 8.15739 18.3503 29.1375
Au 10.4087 16.8913 30.1329
Au 12.7791 15.4337 31.0444
Pd 15.0934 14.0211 31.8862
Au 17.3916 12.6065 32.7625
Au 8.12791 21.1542 29.1616
Au 10.3411 19.7507 30.245
Au 12.6448 18.2986 31.2213
Pd 15.0198 16.8369 32.0559
Au 17.3332 15.428 32.9457
Pd 10.4115 22.5828 30.08
Au 12.6263 21.2041 31.203
Au 14.9475 19.7557 32.173
Au 17.334 18.2777 33.0332
Pd 12.7243 24.0368 31.0155
Au 14.9556 22.6571 32.1322
Au 17.3579 21.2042 33.071
Au 15.0678 25.511 31.9495
Au 17.3724 24.1147 33.0005
Au 17.4542 26.9496 32.793
Au 8.25181 18.292 10.231
Au 10.5382 16.8743 9.33198
Pd 12.8766 15.4438 8.47831
Au 15.2098 14.0153 7.59223
Au 17.5367 12.6239 6.78125
Au 8.2428 21.1337 10.2288
Au 10.4528 19.7246 9.20179
Au 12.7796 18.273 8.27158
Pd 15.1259 16.8449 7.45277
Au 17.4626 15.4312 6.58595
Pd 10.5123 22.5418 9.35333
Pd 12.7645 21.1772 8.30469
Pd 15.0831 19.7228 7.41139
Pd 17.47 18.2836 6.56181
Au 12.7988 24.0088 8.40841
Pd 15.0813 22.6053 7.42487
Au 17.4259 21.1484 6.49993
Au 15.1372 25.4495 7.52118
Pd 17.4526 24.045 6.58554
Au 17.4822 26.8746 6.69409
Au 29.2175 31.3673 18.3676
Au 30.1635 29.0923 16.9178
Au 31.0744 26.7813 15.4716
Au 31.9653 24.4119 14.0224
Au 32.8035 22.0328 12.6146
Au 29.2042 31.3779 21.2092
Pd 30.2169 29.1537 19.789
Pd 31.1832 26.8514 18.3202
Au 32.1522 24.5037 16.8806
Au 32.9988 22.0801 15.442
Au 30.1372 29.1038 22.6633
Au 31.2193 26.8681 21.2389
Au 32.1782 24.5244 19.8046
Au 33.0664 22.0916 18.3415
Pd 31.0326 26.7656 24.0867
Au 32.1276 24.5281 22.6929
Pd 33.0166 22.0951 21.2403
Au 31.9402 24.4435 25.5392
Au 32.9871 22.1349 24.1241
Au 32.7839 22.0787 26.9656
Au 10.2276 31.3741 18.2997
Au 9.29491 29.0685 16.8337
Au 8.41016 26.6928 15.3592
Au 7.57878 24.3487 13.9307
Au 6.77413 22.0183 12.5157
Pd 10.2779 31.324 21.1447
Au 9.17102 29.15 19.7348
Au 8.21574 26.82 18.2431
Au 7.35224 24.4458 16.7705
Pd 6.60346 22.0541 15.3367
Pd 9.3463 29.0166 22.5944
Au 8.21548 26.8111 21.2066
Pd 7.33478 24.4455 19.7193
Au 6.47183 22.0686 18.2654
Au 8.40681 26.689 24.0489
Au 7.34015 24.4284 22.6543
Pd 6.50629 22.0613 21.1859
Au 7.5507 24.3414 25.4626
Pd 6.58053 22.0554 24.072
Au 6.7276 22.0251 26.8599
Au 29.2674 8.21535 18.3543
Au 30.1958 10.4638 16.9394
Au 31.1142 12.7839 15.488
Au 31.9698 15.1259 14.0355
Au 32.7711 17.4253 12.6411
Pd 29.2214 8.22859 21.1756
Pd 30.2497 10.4418 19.7723
Pd 31.2103 12.7116 18.3492
Au 32.1525 15.0539 16.8983
Pd 32.9031 17.4148 15.442
Au 30.1906 10.5 22.6241
Au 31.2323 12.7319 21.2227
Au 32.1725 15.0383 19.8268
Pd 32.9744 17.3978 18.352
Au 31.1007 12.8245 24.0752
Pd 32.0694 15.0725 22.6894
Au 33.013 17.3695 21.2463
Au 31.9427 15.1292 25.5054
Pd 32.9086 17.4088 24.1084
Au 32.7714 17.4586 26.9356
Au 10.3414 8.11695 18.3073
Pd 9.42205 10.4112 16.8567
Au 8.48388 12.7252 15.3788
Pd 7.63769 15.0934 13.942
Au 6.7913 17.4076 12.5163
Au 10.3266 8.11885 21.141
Au 9.24266 10.3223 19.7144
Pd 8.3313 12.6433 18.2427
Au 7.39094 14.9679 16.7935
Au 6.56343 17.3549 15.3582
Au 9.35212 10.4182 22.5953
Au 8.27088 12.658 21.1794
Au 7.33658 14.992 19.7288
Au 6.48364 17.3724 18.2883
Pd 8.4626 12.782 24.0306
Au 7.3678 15.01 22.6248
Au 6.47204 17.3881 21.1637
Au 7.55526 15.13 25.4705
Au 6.53967 17.3969 24.0584
Au 6.73274 17.4599 26.8659
Pd 18.3442 29.1934 31.3442
Au 16.8763 30.1829 29.0892
Au 15.4014 31.1023 26.7585
Au 13.9541 31.9683 24.4088
Au 12.5278 32.7957 22.0514
Pd 21.1546 29.1887 31.3381
Au 19.7481 30.2966 29.1582
Pd 18.27 31.2152 26.835
Au 16.8182 32.1512 24.5238
Au 15.3723 33.0065 22.1242
Pd 22.6126 30.1374 29.0614
Au 21.215 31.2618 26.8533
Au 19.7235 32.1945 24.5351
Au 18.288 33.0824 22.1324
Au 24.086 31.0675 26.7301
Au 22.6895 32.1387 24.5036
Au 21.2246 33.0648 22.1397
Pd 25.4834 31.8856 24.3602
Au 24.119 32.9549 22.1217
Pd 26.8848 32.7135 22.0477
Pd 18.2981 10.3394 31.3244
Pd 16.8841 9.40809 29.0356
Pd 15.4595 8.51017 26.7481
Au 14.0244 7.56386 24.4076
Pd 12.6382 6.75696 22.0116
Au 21.1313 10.283 31.3851
Au 19.7143 9.22537 29.1615
Au 18.2645 8.2941 26.8563
Au 16.8568 7.37457 24.5257
Au 15.441 6.5081 22.103
Au 22.6038 9.34732 29.0958
Pd 21.1942 8.32357 26.8558
Au 19.756 7.33497 24.5225
Au 18.3431 6.4434 22.1018
Pd 24.0478 8.48024 26.7464
Au 22.6772 7.38058 24.5104
Pd 21.231 6.50152 22.0888
Pd 25.5127 7.61035 24.39
Au 24.1269 6.53809 22.1168
Au 26.9581 6.75223 22.0617
Au 18.3522 29.1986 8.11984
Au 16.8864 30.1326 10.3962
Au 15.4377 31.0355 12.6916
Pd 13.9892 31.914 15.0752
Au 12.5411 32.798 17.4168
Au 21.2083 29.1868 8.14447
Au 19.7872 30.2666 10.3294
Au 18.2881 31.2323 12.6055
Au 16.825 32.1533 14.9519
Au 15.3789 33.0069 17.3543
Au 22.6494 30.1118 10.4356
Au 21.2573 31.2233 12.6518
Au 19.792 32.1942 14.9654
Au 18.313 33.0835 17.3598
Au 24.102 31.0414 12.7368
Au 22.6917 32.1377 14.9986
Au 21.2378 33.0768 17.3889
Au 25.5395 31.9404 15.0962
Au 24.118 32.9848 17.4193
Au 26.9352 32.7878 17.4804
Au 18.4095 10.3332 8.17808
Pd 16.9736 9.42471 10.4502
Au 15.4997 8.45167 12.7344
Au 14.0499 7.55375 15.0945
Pd 12.6632 6.76181 17.461
Au 21.2542 10.3361 8.19128
Pd 19.8196 9.32232 10.3784
Au 18.3496 8.28901 12.6568
Au 16.8889 7.35946 15.0375
Pd 15.4747 6.58394 17.4011
Pd 22.681 9.43907 10.4754
Au 21.2866 8.30614 12.6687
Au 19.815 7.32377 15.0441
Au 18.3549 6.49548 17.3911
Au 24.1342 8.49652 12.7615
Au 22.7341 7.38618 15.0407
Pd 21.241 6.53755 17.4108
Au 25.5703 7.61731 15.126
Pd 24.1527 6.62402 17.4121
Au 26.9608 6.7789 17.4551
Pd 30.5752 15.9756 27.8918
Au 30.5855 23.6182 27.9599
Au 29.7823 13.5929 26.4894
Pd 29.7256 25.9515 26.504
Au 28.9062 11.2637 25.0684
Au 28.8334 28.318 25.0907
Au 27.9555 8.9363 23.5925
Au 27.8858 30.6266 23.6032
Au 28.3168 14.4712 28.8761
Au 28.2454 25.0916 28.8926
Au 27.4583 12.1202 27.4311
Pd 27.3688 27.4014 27.4461
Au 26.5065 9.75348 25.978
Pd 26.446 29.7551 25.9435
Au 25.968 13.0212 29.7798
Pd 25.8953 26.4667 29.7548
Au 25.045 10.6386 28.32
Au 25.0468 28.8735 28.3169
Au 23.5566 11.5922 30.6383
Au 23.5695 27.9285 30.6181
Au 30.6022 15.9235 11.6388
Au 30.6373 23.568 11.5921
Au 29.781 13.5745 13.0358
Au 29.7694 25.9947 13.0388
Au 28.9089 11.2367 14.4897
Pd 28.8433 28.2937 14.5304
Au 27.9592 8.94676 15.9659
Au 27.9336 30.5991 15.9428
Au 28.2799 14.4703 10.7019
Au 28.3182 25.0473 10.6305
Pd 27.3999 12.1418 12.1331
Pd 27.4132 27.4183 12.1251
Au 26.5232 9.81855 13.5538
Au 26.5263 29.7319 13.5702
Pd 25.9335 13.0772 9.83272
Au 25.9777 26.4936 9.73803
Pd 25.0533 10.7529 11.2766
Au 25.0741 28.8522 11.2303
Au 23.6417 11.6505 8.97563
Au 23.5942 27.8998 8.90352
Au 8.87074 15.9401 27.8779
Au 8.86385 23.5491 27.8652
Au 9.7127 13.5488 26.4743
Au 9.70348 25.9259 26.4581
Au 10.6403 11.1758 25.0257
Au 10.5996 28.2782 25.0314
Au 11.6103 8.88276 23.5724
Au 11.5386 30.5943 23.5665
Au 11.1888 14.4538 28.8655
Au 11.1582 25.0276 28.8443
Au 12.0829 12.0446 27.4389
Au 12.0207 27.4338 27.4062
Au 13.0278 9.73713 25.958
Pd 12.9933 29.7531 25.9104
Au 13.5735 13.0135 29.7615
Au 13.5008 26.5019 29.7695
Pd 14.5072 10.6958 28.2827
Au 14.4202 28.9041 28.2994
Au 15.901 11.6076 30.5757
Au 15.9081 27.9521 30.6276
Au 8.99721 15.9066 11.5439
Pd 8.9714 23.4796 11.5649
Au 9.81228 13.5426 12.9597
Au 9.73449 25.8875 12.9337
Pd 10.7146 11.2146 14.4523
Au 10.5952 28.2878 14.3865
Au 11.646 8.88395 15.9022
Au 11.5469 30.6259 15.8777
Pd 11.3059 14.486 10.6519
Pd 11.2648 24.9577 10.6128
Au 12.1545 12.0635 12.0491
Au 12.0871 27.4112 11.9936
Au 13.0744 9.75223 13.5152
Au 13.0106 29.7677 13.4717
Au 13.6461 13.0094 9.73612
Au 13.5915 26.4632 9.69216
Pd 14.5626 10.6893 11.2288
Pd 14.5177 28.8159 11.1637
Pd 16.0507 11.6529 8.94559
Au 15.9451 27.8843 8.86906
