923
Atoms. Timestep: 20639
Au 23.9277 15.1851 32.0622
Au 23.3219 20.9809 21.2176
Au 12.9361 21.2722 22.0238
Au 12.1112 15.297 18.5164
Au 5.69372 21.9633 23.4232
Au 11.3729 19.1599 20.5516
Au 12.9705 30.1969 13.5788
Au 10.4993 24.4234 10.6808
Au 30.8985 19.0818 25.5603
Au 30.1819 23.1738 23.2595
Au 15.6593 19.2892 18.4458
Au 19.882 13.9639 12.682
Au 9.7886 25.0649 16.6717
Pd 25.8271 25.3108 17.9877
Au 28.6281 25.2253 24.6032
Au 21.3927 20.9692 15.525
Pd 10.615 20.7973 14.0182
Au 11.0561 27.4751 16.2154
Au 24.4694 16.2483 28.8808
Pd 16.1739 22.2585 29.9888
Au 22.3632 30.6077 19.866
Au 30.3701 22.0953 29.6974
Pd 19.097 19.2996 16.1657
Au 19.8293 19.7962 5.88994
Au 18.4005 10.2142 17.8186
Au 24.0933 20.3322 26.5224
Au 27.5673 11.643 28.2228
Au 22.047 12.4288 28.3555
Au 22.5904 17.435 12.6403
Au 6.27274 21.7944 15.5038
Au 29.0493 24.2818 9.14367
Au 23.7305 19.1551 33.7012
Au 21.8628 18.9514 25.1669
Au 21.7809 23.2976 23.2486
Au 26.7872 22.7617 17.5619
Au 11.0773 10.6312 23.3672
Au 17.7677 21.3952 32.1767
Pd 18.4797 19.3893 18.9006
Au 13.1026 22.3001 14.6633
Pd 31.1353 25.3977 19.9
Au 21.1633 4.84329 20.0298
Au 11.8371 31.0713 17.8424
Au 20.0009 17.3813 7.24644
Au 25.6637 26.8083 10.996
Au 26.0096 20.6655 29.0592
Au 28.795 14.9845 23.9894
Au 9.68514 20.4793 25.8737
Au 14.4421 28.5259 23.4245
Au 26.8742 26.5511 23.0345
Au 19.9236 14.1336 26.4699
Au 23.8604 13.0606 26.1304
Au 10.6756 27.2522 20.9286
Au 23.9895 18.8684 10.8564
Au 7.97214 20.834 22.2455
Au 27.4128 18.8488 14.7323
Au 24.1752 25.7408 22.6078
Au 30.4884 18.8908 10.9607
Au 14.4078 18.3347 15.9967
Au 26.3988 18.924 24.2775
Au 11.8705 29.4555 24.701
Au 18.0931 5.87323 15.5699
Au 3.61493 23.5217 21.9149
Pd 10.2753 24.4814 21.3331
Au 6.93693 28.3001 18.0255
Au 27.148 26.8617 13.3135
Pd 17.9632 21.8284 19.8409
Au 24.1456 27.2854 13.2153
Au 10.8597 10.3126 25.9861
Au 22.1263 14.7957 9.01738
Au 15.3967 13.4326 18.2474
Au 27.3123 8.06624 19.4271
Pd 17.1023 13.5201 23.0205
Pd 24.0439 17.5102 24.2478
Pd 17.986 28.8159 27.7081
Au 12.847 15.535 29.8451
Pd 20.2157 16.9617 15.4163
Pd 21.4294 23.5765 16.7362
Pd 18.942 31.08 9.84376
Au 10.7501 30.2044 15.4886
Pd 29.2444 19.3367 17.0673
Au 20.8977 11.159 22.9548
Pd 23.6148 22.0292 28.8488
Pd 14.6139 23.5766 21.8815
Au 12.0587 13.0038 29.5498
Au 25.1387 10.9337 10.6865
Au 10.6258 14.0278 16.4944
Au 26.5613 19.9246 7.48649
Au 25.5677 21.119 9.96286
Au 9.34414 22.0023 11.775
Au 11.4777 8.26194 22.0673
Au 19.77 13.3924 21.8911
Au 12.7789 11.168 27.6828
Pd 19.5215 16.5025 30.7713
Au 16.9341 28.5065 30.1422
Au 17.3036 21.1111 17.149
Pd 30.5548 20.0744 19.5452
Au 14.8057 16.8899 11.7285
Au 10.7775 18.0982 14.062
Au 16.4931 24.5849 11.6881
Au 17.0414 17.094 19.5652
Au 26.9353 16.3963 25.4788
Pd 21.7516 28.1908 18.3264
Au 20.454 29.0337 11.0025
Pd 22.4912 28.0606 21.1049
Au 31.6339 17.6081 13.0873
Au 7.83167 14.0895 16.4274
Au 10.5087 15.1199 28.3787
Au 16.7018 25.7338 9.146
Au 14.6784 30.3111 11.3064
Au 22.8623 13.754 17.0884
Pd 22.9674 11.4579 19.0076
Au 24.4482 26.4981 20.0625
Au 24.9477 18.4605 21.6913
Au 30.6659 17.8116 28.1894
Au 12.847 29.2659 27.4624
Au 15.4892 25.2335 16.0963
Pd 5.80079 25.1234 22.1127
Au 19.9846 21.4391 17.8838
Au 12.6225 16.6244 21.0924
Au 17.9849 17.8315 14.0401
Au 14.7968 21.6918 12.641
Au 15.4819 16.2131 29.2062
Au 22.8985 26.502 6.4278
Au 23.673 22.7694 25.2152
Au 12.7157 13.9906 27.0711
Au 14.7119 15.8025 16.9589
Au 24.746 9.7127 17.8128
Au 14.2293 6.80225 18.0069
Au 18.533 23.5969 16.5743
Pd 31.2149 24.7405 25.2489
Au 13.0584 31.9733 15.6653
Au 18.8307 21.7949 27.0355
Au 24.1187 23.2717 17.1231
Pd 19.5973 21.4272 10.23
Au 24.5404 15.5215 15.6308
Au 13.394 19.5932 13.7856
Au 28.3335 14.2327 12.9958
Au 24.9377 8.34201 20.5392
Au 20.0941 5.92643 22.2294
Au 19.9596 17.7335 23.4015
Au 14.8497 22.7243 24.5258
Au 23.6484 20.5063 17.0817
Pd 22.767 31.4828 14.7
Pd 10.0478 22.1467 23.5743
Au 12.2917 20.8997 24.7064
Pd 9.13953 9.69785 21.8103
Au 13.2413 23.5385 17.4504
Au 27.4235 22.6879 20.1899
Pd 15.9869 22.6454 15.0802
Au 32.9259 23.0375 24.1506
Au 23.5595 18.8276 19.2992
Au 27.7575 27.8352 28.1758
Pd 12.1998 25.1648 25.8681
Au 22.3858 22.1839 18.9647
Au 13.236 16.7689 13.9039
Au 3.65031 21.9516 19.5242
Au 21.6923 20.8935 34.2254
Au 11.478 22.6868 28.7968
Au 7.15968 25.4568 24.4522
Au 20.4175 23.4731 14.3338
Au 17.4166 22.0957 12.3856
Au 21.1427 30.1753 8.57931
Au 13.7167 7.01378 15.4513
Au 9.68144 19.2705 11.7019
Au 15.9595 11.1845 24.1706
Au 22.6595 4.77982 22.217
Au 28.702 10.3274 16.0107
Au 12.7036 18.5288 23.0031
Pd 13.942 21.1504 29.0136
Au 19.0829 19.8438 34.1463
Au 19.5546 30.7481 18.2373
Au 19.7643 27.2239 31.7922
Au 11.4747 10.323 18.006
Pd 14.2649 25.6357 10.7409
Au 20.9988 26.2153 11.3187
Au 25.5309 29.4006 11.8185
Pd 18.3758 26.6062 11.8758
Au 25.2092 12.3731 17.311
Au 21.3128 15.6191 22.215
Pd 16.8433 14.1475 20.4065
Au 28.1534 10.669 20.8161
Au 19.2157 19.0785 27.4976
Au 24.0743 9.93009 25.9237
Pd 29.5996 25.5569 13.9819
Au 26.3514 19.6379 34.0191
Pd 21.7023 30.4684 22.4595
Au 29.3991 23.7327 15.9751
Pd 27.6208 17.1806 17.065
Au 15.7273 12.0522 12.6631
Au 35.0654 18.6864 21.7797
Au 22.5049 10.3701 10.5279
Pd 15.1345 21.6338 19.998
Pd 23.8774 22.666 11.7888
Pd 22.4214 21.0042 10.2846
Pd 30.1751 24.0724 11.6626
Au 7.96441 23.5742 22.4589
Au 28.9578 16.0171 21.4773
Pd 22.3357 14.9136 27.5008
Pd 18.8822 12.3589 30.896
Au 17.4569 8.13913 26.2026
Au 27.9683 18.7145 31.9683
Au 19.2848 19.8708 24.9281
Au 20.792 27.1058 25.3095
Au 23.2966 25.3314 29.5655
Au 16.8704 16.8611 31.8856
Pd 16.6915 11.3664 19.5969
Au 5.13567 17.8114 17.9371
Au 8.44475 24.4908 12.4483
Au 11.598 14.1596 9.3847
Au 18.7084 29.5177 7.57533
Au 13.3219 10.5729 12.2617
Au 26.6175 15.7414 8.65185
Au 22.1188 15.3945 14.3688
Pd 23.1883 28.9297 15.2795
Pd 28.6318 27.6953 15.394
Au 15.953 18.0855 9.41227
Au 23.2644 22.6571 14.5152
Au 13.6108 26.7974 17.3707
Au 25.8545 28.0844 15.2808
Au 22.2177 30.7128 17.2029
Au 26.2539 20.8523 21.9032
Au 26.9533 30.5221 21.4373
Au 19.8339 10.0228 10.2515
Au 15.8799 16.294 14.4702
Au 18.9766 9.42328 12.8322
Pd 18.759 26.1211 23.7514
Au 10.2459 23.45 18.8143
Au 7.9235 22.8057 25.1501
Au 13.5517 27.5661 20.1987
Au 4.14296 19.677 24.3969
Au 17.4498 14.679 30.4299
Au 25.0784 20.3079 14.8435
Au 25.4837 24.6085 12.8573
Au 25.0002 30.1471 17.065
Au 27.1772 10.5869 18.2974
Au 25.3315 22.547 30.8904
Au 33.5778 24.0951 19.5464
Pd 26.4962 15.6368 20.2602
Au 29.4164 20.8093 27.5361
Au 23.7353 14.8141 23.7653
Au 16.4729 17.8105 26.6796
Au 12.4493 12.9433 22.6502
Au 18.328 5.76043 20.1282
Au 7.13305 20.0874 24.8447
Au 17.091 7.51185 13.5237
Au 4.56331 20.4094 17.4431
Au 18.163 8.74461 20.3262
Au 9.44584 20.5907 28.5356
Pd 22.7396 17.6531 27.2818
Au 8.32433 27.3782 15.996
Au 29.4029 29.5789 20.2357
Pd 14.1572 29.5685 18.434
Au 18.4368 26.3165 26.6264
Pd 22.7211 23.3112 31.257
Au 15.5143 32.2107 20.9407
Au 22.6303 32.9307 21.3925
Pd 16.5078 30.037 9.36677
Au 19.0287 22.5094 23.7586
Au 17.2189 13.6644 25.7916
Au 8.79541 23.2911 28.1696
Au 6.42581 15.3769 18.5214
Au 17.4919 7.0464 22.4813
Au 22.333 9.76463 28.0981
Au 14.7021 14.7967 22.0941
Pd 21.4187 9.10139 14.4605
Au 20.7762 11.863 17.5847
Au 34.779 21.7438 20.5248
Au 24.5571 23.0597 22.5405
Au 11.9473 19.7122 16.2566
Au 20.8784 22.7812 8.19037
Au 16.7085 21.8369 22.3571
Au 17.5487 32.3569 16.6122
Au 22.7885 30.9867 26.8803
Au 24.7545 23.6149 19.8559
Pd 8.18445 22.9964 17.1191
Au 12.524 25.2237 30.5257
Pd 13.33 11.2181 24.9022
Au 13.7213 12.9842 10.7238
Au 9.25531 16.4962 15.8971
Au 9.97313 9.35782 15.9617
Au 29.0483 17.753 19.424
Au 18.4779 21.2519 7.67368
Pd 23.7863 19.1915 29.1569
Pd 20.9905 18.8733 11.0285
Au 33.1791 15.4329 18.0527
Pd 24.6604 9.22819 23.1194
Au 12.7645 15.6058 23.9961
Pd 23.1796 8.0872 16.2782
Au 27.2303 22.4645 8.19878
Au 31.1554 10.5591 20.1941
Au 25.8954 24.6324 29.2405
Au 24.683 29.2404 19.6522
Au 25.5216 24.4442 7.32246
Pd 25.0287 17.9831 16.5909
Au 19.0324 32.6826 12.111
Pd 20.9745 19.9597 8.28489
Au 18.5779 26.8191 7.15738
Pd 17.309 10.7227 26.5786
Pd 14.0789 19.162 20.6846
Au 14.9787 14.7568 31.519
Au 15.8354 27.2212 27.6533
Au 20.9922 18.7294 29.8703
Pd 17.2072 18.4737 23.8794
Au 15.1913 17.356 22.3494
Pd 16.3655 26.7006 24.8333
Pd 9.25888 15.3286 18.5175
Au 14.7597 8.85082 13.8112
Au 19.7875 6.83946 13.3999
Au 9.07007 11.7194 16.8883
Au 33.7402 23.3321 16.8899
Pd 30.9412 22.0123 25.7255
Au 31.9121 19.1297 17.0688
Au 33.2005 18.6602 23.8089
Au 16.0614 19.5716 30.6492
Au 18.4606 23.5377 30.5982
Au 4.34301 16.3201 20.1785
Au 11.2351 12.8703 25.1548
Pd 18.5664 28.4161 13.8596
Pd 15.4216 30.7294 15.9343
Pd 10.9338 23.5185 13.4348
Pd 5.88303 22.6431 20.8883
Au 13.038 22.6241 31.1269
Au 15.3701 29.8709 28.1818
Au 17.7792 30.4988 20.9636
Au 23.0004 30.053 12.4908
Pd 16.0309 27.631 19.1052
Pd 20.0936 28.2596 22.8109
Pd 21.0661 19.7916 20.0641
Au 15.4569 8.3262 24.1817
Pd 16.1777 7.93063 16.1448
Au 22.0957 13.2554 6.84064
Au 28.9519 17.7563 23.9031
Au 32.8456 25.9339 17.5476
Au 23.247 11.2652 30.4966
Au 12.7964 16.7586 27.3602
Au 22.8541 10.2407 21.4265
Au 23.4121 17.7655 31.3983
Au 16.8874 21.0039 25.1923
Pd 22.8046 25.3809 24.8974
Pd 18.0912 12.5568 14.0595
Au 11.317 11.824 10.7899
Pd 20.5828 19.066 13.7964
Au 9.90442 26.8379 11.5918
Au 18.14 24.014 7.06335
Au 13.9526 18.8066 7.77532
Au 30.3485 15.0129 28.4544
Au 25.3361 13.4588 21.9817
Au 32.6174 12.1756 22.0077
Au 20.4086 21.7865 32.0282
Au 28.9741 16.6878 30.3263
Au 19.3834 22.5477 34.4134
Au 26.3159 15.1994 30.7472
Au 21.6779 27.6472 29.9756
Au 16.9348 24.1895 20.5453
Pd 20.7239 24.959 30.2497
Au 14.801 9.50391 26.4722
Pd 18.8498 17.0009 25.73
Pd 26.1429 21.7885 24.4431
Au 14.9278 32.0001 13.4787
Au 33.354 26.6171 20.3693
Pd 26.9538 13.0199 19.5546
Pd 22.0442 15.0984 11.6024
Pd 22.252 18.5388 6.28574
Au 24.1189 8.45187 11.8507
Au 21.4007 18.9566 17.5341
Au 28.866 20.5225 12.5618
Au 24.6284 19.4776 5.71902
Au 32.5804 23.3106 12.3483
Au 23.1198 20.2074 13.0225
Au 28.0299 23.4846 13.4409
Au 24.2534 16.1801 10.151
Pd 15.3392 33.4162 15.7043
Au 30.0603 26.4891 10.5294
Au 14.019 30.7717 25.5859
Au 20.2609 16.6622 28.0207
Pd 15.0868 15.2852 26.7166
Au 20.981 11.315 12.7516
Au 10.4841 30.302 20.1816
Pd 15.1997 21.7589 32.5747
Au 8.61513 13.5926 25.8457
Pd 25.7748 24.5304 24.6739
Au 10.5794 15.6389 25.718
Pd 14.4444 18.5725 28.5614
Au 16.21 12.255 30.9314
Au 12.0703 18.1543 29.7338
Au 18.7171 18.9575 31.5665
Au 28.1562 18.982 29.0667
Pd 10.2059 19.5242 23.1226
Au 11.6345 19.332 9.27147
Au 16.6357 5.64188 17.8691
Pd 9.70484 16.5765 12.0214
Pd 26.0976 18.2318 9.39776
Au 14.4953 14.3908 12.967
Pd 24.6474 25.4445 15.3722
Au 12.2145 9.06182 14.5567
Au 4.78858 24.7435 19.6265
Pd 25.8409 24.0636 10.0019
Au 17.8226 16.3062 8.40581
Au 22.2174 26.387 15.7196
Au 26.6553 16.2155 11.5417
Au 14.1259 19.897 10.3406
Au 31.4259 21.6661 16.2838
Au 16.8985 33.7825 13.5053
Au 34.77 16.7873 19.821
Au 25.3016 30.5898 14.3132
Au 26.686 29.7047 24.0603
Au 27.5716 30.2256 16.0164
Au 30.493 27.0594 24.0803
Au 28.7153 28.5009 22.6188
Au 26.9425 28.0196 20.5118
Pd 25.6382 22.8338 27.1021
Au 22.2528 33.0746 18.6806
Au 24.2384 27.4843 17.4307
Au 26.2567 11.5561 25.8769
Au 24.3788 31.0474 22.0593
Au 8.32351 28.75 20.3506
Au 18.6145 19.647 12.1076
Pd 21.1981 29.9077 25.0408
Au 10.8882 22.5101 16.2127
Au 6.75636 25.5375 17.6327
Au 10.8758 25.2155 28.31
Au 26.6021 20.0589 17.1336
Au 10.5773 10.6278 13.0939
Au 4.76336 24.2258 24.4885
Au 18.1862 33.0638 24.7551
Au 19.0981 30.7864 23.379
Pd 7.77969 24.6082 19.9134
Au 6.42818 24.1288 26.8142
Pd 11.645 28.4672 18.6165
Pd 17.752 15.4913 27.7588
Au 34.2039 20.6437 16.7563
Au 21.7143 16.8209 19.6507
Pd 32.7546 19.8793 21.1585
Au 26.2866 16.1825 22.8785
Pd 22.8676 10.8731 16.127
Au 30.5224 18.4209 21.8081
Au 29.1069 20.9168 21.8181
Au 33.07 18.1457 26.7134
Pd 27.9725 13.4887 21.9677
Pd 25.3827 19.954 31.629
Pd 22.6366 13.0225 21.7123
Pd 22.7196 8.63182 19.145
Au 30.3715 19.4966 30.3099
Au 18.3294 11.8281 11.5076
Au 21.7248 7.82044 26.4028
Au 19.2625 15.3218 19.9886
Au 20.0614 22.5453 5.72908
Au 11.5041 11.5319 15.495
Au 22.2629 6.17741 17.9862
Au 15.1608 12.1373 21.6943
Au 9.78101 17.0204 20.5148
Au 18.2156 11.1804 21.8066
Pd 9.82081 14.1421 23.3749
Pd 13.1862 8.46118 19.8361
Au 13.1711 14.2136 15.3762
Au 6.36824 26.8786 20.1386
Pd 22.7707 27.979 23.7718
Au 18.9368 26.7581 29.25
Au 20.8908 22.2898 29.4178
Au 17.5714 32.7937 19.2958
Au 19.5184 29.4028 30.0195
Au 27.501 23.4451 22.7661
Au 23.433 29.4124 28.9342
Pd 19.2251 24.0158 11.8795
Au 16.3477 31.8999 26.5295
Au 24.2603 25.1225 26.9848
Au 25.7069 29.4 26.8953
Au 20.1042 32.1877 20.5334
Pd 27.8554 25.2859 11.3614
Au 11.9822 26.6212 9.82244
Pd 23.5706 25.2381 10.9157
Au 19.6266 5.16177 17.8008
Pd 16.4191 15.8939 24.4469
Au 17.507 23.9348 25.7649
Au 14.0553 10.8865 19.3534
Au 23.9633 20.2546 23.7549
Au 19.2228 14.513 32.4871
Pd 20.4604 10.3665 20.0095
Au 14.346 17.626 25.083
Au 11.6299 18.2947 25.4338
Au 21.5596 13.9851 19.5001
Au 19.6441 11.5653 27.593
Au 24.7673 6.51758 22.6836
Au 26.8629 8.41869 16.6122
Au 26.5972 11.1748 23.0661
Au 22.0157 15.9036 30.0402
Pd 16.8646 20.5892 10.1461
Au 11.1107 28.268 13.5823
Au 16.7011 30.2922 18.4985
Pd 24.5614 17.3151 7.40003
Au 22.5103 24.98 13.3514
Au 14.0883 28.4827 9.28129
Au 11.9771 20.8556 11.7428
Pd 15.6566 29.2723 13.6435
Pd 13.1307 29.2516 16.0783
Au 27.1129 27.717 17.7201
Au 17.9206 29.589 16.1546
Au 13.2603 28.084 11.8188
Au 14.7333 32.226 18.1374
Au 20.9841 13.1019 15.0253
Au 8.64582 22.6529 14.4951
Au 16.8454 13.887 7.8194
Au 14.6758 13.5354 29.1103
Au 10.4894 18.0014 18.0592
Au 20.484 22.1851 21.0175
Au 22.3068 17.64 8.90195
Pd 23.8001 12.9899 14.6577
Au 18.441 14.2726 10.2243
Au 32.395 12.8439 19.2541
Pd 25.6027 18.1584 27.1902
Au 18.7772 18.8032 9.36314
Au 24.7146 11.3524 28.2291
Pd 28.6944 15.1156 18.7423
Au 30.2239 23.8117 27.6255
Au 25.2539 27.2332 25.1561
Pd 23.8675 11.753 23.7635
Au 20.6421 10.6366 29.9975
Au 22.0195 6.33254 24.1944
Au 25.1063 27.1932 28.3638
Pd 28.5875 12.324 24.5938
Pd 30.9575 14.0903 17.2642
Au 33.3251 14.3488 23.6365
Au 22.6823 25.3554 18.3313
Au 28.7412 10.2284 26.2562
Au 20.0619 29.188 20.3974
Pd 21.7738 11.3544 25.7745
Au 29.9254 27.9557 12.8139
Au 25.8887 10.729 15.2814
Au 18.6697 28.07 18.3447
Au 24.4387 14.5849 7.69364
Pd 23.8429 19.901 8.24
Au 24.9874 21.9283 6.66239
Au 27.638 12.0149 11.088
Pd 27.8523 20.1654 19.5132
Pd 22.1862 25.1521 8.67323
Pd 26.21 18.1261 19.2079
Au 21.2888 33.1018 13.3389
Au 16.9245 21.4715 34.6833
Au 27.9659 28.1815 10.8651
Au 14.9608 26.6306 30.1725
Pd 14.9136 24.9403 26.4514
Pd 6.70795 17.4537 20.3069
Au 26.0232 29.2532 29.6969
Au 7.03762 13.4289 23.1193
Au 21.6151 16.1801 25.1395
Au 9.93325 24.91 24.0404
Au 18.9248 20.1729 22.0973
Pd 5.8854 19.1606 22.424
Au 17.3891 25.9602 31.399
Pd 10.6363 12.8183 18.9417
Au 5.73055 13.9857 20.7811
Au 15.4112 23.6779 7.67344
Au 7.81229 17.7379 17.8476
Au 14.0938 14.0767 8.27593
Au 17.1613 23.7932 33.2055
Au 12.8482 23.3639 11.5458
Au 18.6866 21.4373 14.6318
Pd 8.6254 19.3735 20.068
Au 20.1063 25.9765 17.2702
Au 15.9057 13.6061 15.3791
Pd 15.5533 26.4813 21.7439
Pd 31.2731 23.7749 17.912
Au 23.6583 10.4777 13.4459
Pd 24.5136 15.7215 26.2075
Au 28.149 14.0199 26.6429
Au 25.702 17.3032 32.7939
Au 26.0869 17.8409 30.1667
Au 26.7845 22.0493 33.0826
Au 12.1406 12.8695 13.1487
Au 12.3077 23.544 23.5507
Pd 18.1351 12.7224 16.7528
Au 12.3139 29.2423 21.8946
Au 16.2553 27.9985 7.74216
Au 18.9798 12.0595 24.5955
Au 16.4741 9.67879 11.784
Au 7.28999 20.4238 17.6281
Au 14.4834 24.5144 13.5664
Au 21.3665 31.6595 10.9649
Au 21.7452 33.5804 16.0053
Pd 22.3219 24.3014 20.799
Au 18.8162 30.8662 26.2271
Au 11.7167 26.9993 23.6815
Au 14.004 7.35934 22.2132
Au 8.71766 11.5524 24.0233
Au 24.5639 15.09 12.8699
Au 13.5612 10.0694 22.3871
Pd 22.2436 16.4078 16.9965
Au 13.2329 21.4701 8.23986
Au 30.0695 12.6688 15.1332
Au 19.6437 8.81458 28.0241
Au 22.7186 20.5761 31.2681
Au 15.0587 12.308 26.7356
Au 23.1137 28.0635 26.5761
Au 28.0985 21.1815 30.9291
Au 24.1323 30.0337 24.7216
Au 26.0513 12.4421 30.3513
Au 30.2842 15.7824 11.4999
Au 10.4536 8.4089 19.6122
Pd 12.1556 25.7799 12.5995
Pd 27.3374 25.3796 15.7699
Au 15.3292 16.3283 7.42408
Au 17.0494 17.6128 16.6967
Au 34.2088 16.4725 24.937
Pd 25.2422 21.0102 19.2868
Au 31.0107 11.103 24.8877
Au 22.0331 23.5872 27.3512
Au 28.2671 13.8647 29.5061
Pd 17.6724 17.799 29.2814
Pd 25.8311 13.9244 27.9296
Au 22.2868 25.921 32.2262
Au 23.8817 15.9341 21.287
Au 23.8533 13.7839 29.7942
Pd 25.3228 11.0457 20.4933
Pd 21.3424 26.1251 27.7127
Au 15.8934 8.88223 18.6563
Au 19.0478 17.0992 33.4987
Au 21.6335 20.294 27.7403
Au 17.886 10.3012 29.4
Au 31.9303 20.3186 28.0133
Pd 18.6904 20.8054 29.6342
Au 7.85681 15.6933 24.2706
Pd 28.4084 18.4237 26.4796
Au 9.75467 29.0994 22.6841
Au 17.3614 18.7135 7.05249
Pd 14.1202 11.4436 14.8067
Au 29.4885 9.2352 18.4881
Au 19.458 25.1539 9.27192
Au 31.9783 24.4944 15.094
Au 25.7683 12.5456 12.8511
Pd 31.431 20.7088 23.3592
Au 24.3393 13.7453 19.5147
Pd 25.5435 13.7818 10.3769
Au 30.5232 21.6403 10.6696
Pd 17.7661 29.7147 11.7636
Pd 28.2198 20.0552 9.76933
Pd 28.8076 14.9508 15.9322
Au 21.5194 23.5042 10.7671
Au 32.2708 17.842 19.3688
Au 12.2823 15.3343 11.6001
Pd 32.3697 16.6355 15.5973
Au 27.9426 22.5209 10.8408
Au 23.2286 28.7048 7.85523
Pd 20.5572 25.1912 6.56556
Pd 17.693 24.4289 14.1434
Au 14.2824 17.4279 31.3196
Au 24.9281 25.022 31.9082
Pd 21.1622 18.7219 32.6676
Au 12.7228 8.61979 24.5574
Au 9.11178 27.4485 24.628
Au 14.0786 23.9861 28.8761
Au 7.67024 18.7159 27.3837
Pd 14.466 20.1401 26.2671
Au 16.6958 19.3317 21.0932
Pd 18.6351 28.5485 25.0589
Au 13.1924 17.9216 18.4649
Au 10.3028 12.4689 27.6322
Au 15.8077 6.7887 20.2974
Pd 21.4883 13.5222 24.2658
Au 12.6221 23.2409 20.1225
Au 10.4262 21.662 20.9576
Au 21.1793 21.7659 25.5263
Au 15.1508 24.3046 31.4557
Au 27.9734 27.8179 25.412
Au 12.747 24.088 8.90462
Au 9.3624 12.7544 14.2811
Pd 13.796 9.4406 16.798
Au 16.8895 10.2286 14.5927
Au 12.3175 25.0364 15.3855
Au 15.7675 15.0319 10.095
Au 19.7707 14.3789 7.77033
Au 28.6033 17.2603 9.85979
Pd 13.4308 16.6035 9.35652
Au 19.8913 26.0369 14.1774
Pd 19.4761 17.0907 17.9819
Pd 22.7726 18.3952 15.21
Pd 17.1604 14.6486 12.5937
Pd 9.946 13.8797 11.7886
Au 13.2509 13.405 20.0901
Pd 18.3474 27.9696 9.63865
Au 22.3562 21.2079 6.27328
Au 33.2705 19.1353 14.7019
Pd 23.0902 27.9518 10.5872
Au 23.5955 30.471 9.88404
Au 17.6246 31.2763 14.0169
Au 14.9729 22.6766 10.0666
Au 34.3307 21.0372 23.0764
Au 34.2345 17.7794 17.1498
Au 26.1359 21.5973 12.7002
Au 25.932 22.9977 15.0755
Pd 17.9096 26.6768 15.8983
Pd 30.1071 22.9959 20.386
Au 31.1815 15.3329 19.8641
Au 33.3567 21.9599 14.4736
Au 34.5924 19.4658 19.1751
Au 32.4477 22.6315 21.5448
Au 29.5633 29.0993 17.5348
Au 28.2752 21.3658 15.3033
Pd 22.173 9.07631 24.062
Au 32.0333 25.2149 22.5168
Pd 19.7954 23.9298 19.0755
Au 31.0913 27.6808 21.4804
Au 31.4654 27.3314 15.0656
Au 20.4952 33.0797 23.1317
Au 13.5656 19.9362 31.5224
Au 14.1638 25.5113 23.895
Au 11.3348 20.5974 30.3656
Au 6.23031 19.0407 15.5496
Au 13.0779 31.2839 20.2278
Pd 20.0765 31.4198 15.6643
Au 17.6188 23.1459 9.56409
Au 27.201 30.3262 18.7493
Au 14.4535 21.083 16.7339
Pd 5.81803 16.1624 22.5087
Pd 13.7733 27.5326 25.7409
Au 27.7679 29.548 13.3975
Pd 12.738 25.5296 21.6141
Au 9.4821 12.375 21.4485
Au 16.3456 31.1778 23.5985
Au 26.889 25.2851 20.6137
Pd 29.2859 21.8926 18.0047
Au 18.6281 33.2067 27.43
Pd 11.7351 25.6615 18.8764
Au 12.2218 18.0847 11.5999
Au 19.8482 9.59174 25.5167
Au 30.5599 19.7259 14.5623
Au 32.1351 20.491 12.492
Au 35.1923 16.0862 22.4957
Au 23.2295 12.7436 11.8289
Pd 20.1525 14.5948 17.1795
Pd 26.3537 14.8455 17.5102
Pd 28.336 12.7391 17.267
Au 28.7793 17.5971 12.6429
Pd 28.5687 24.5981 18.5226
Au 30.7149 11.4185 17.5707
Au 17.8802 9.38545 23.7711
Au 31.5687 9.69516 22.6835
Pd 27.0965 25.4656 26.9002
Au 30.0935 12.3895 27.265
Pd 15.9208 9.35448 21.5549
Au 33.7135 14.4482 20.8758
Au 29.6364 8.48956 21.1583
Pd 30.9877 14.363 22.3269
Au 32.3334 15.5674 26.6655
Au 16.3414 19.9219 14.8757
Pd 14.7218 15.8502 19.6218
Au 13.1467 26.6084 28.1943
Pd 26.6412 13.4512 15.1846
Au 7.76458 20.3837 13.4928
Au 21.3846 8.3644 11.8581
Au 5.22927 19.4135 26.7753
Pd 11.581 10.8144 20.6636
Au 16.7919 24.4429 23.2516
Au 6.50287 16.3667 15.8172
Au 7.4059 24.8922 15.1063
Au 15.861 11.1201 16.9248
Au 5.74496 22.8255 18.0782
Au 15.9908 23.245 17.9747
Pd 20.0344 8.66202 22.3088
Au 3.68603 20.7049 21.8696
Au 20.8305 6.59429 15.8038
Au 5.8871 20.1219 19.9064
Au 3.546 18.9422 19.7996
Au 10.986 22.016 9.56884
Pd 15.6877 28.0797 16.3293
Au 20.7847 32.6335 25.8367
Au 11.0123 27.4785 26.5268
Au 17.3329 12.8134 28.4571
Au 19.1633 33.7612 14.858
Pd 19.3387 24.1802 28.0257
Au 20.6095 26.3712 20.0434
Pd 8.9526 17.9687 25.1426
Au 16.1421 29.27 25.6233
Au 13.1548 22.6249 26.6517
Pd 29.1175 27.0259 19.5225
Au 20.6986 28.8404 27.5768
Au 19.7255 24.691 32.7632
Au 18.1364 26.8661 20.9247
Au 24.1644 32.63 16.754
Au 22.8371 32.2541 24.161
Au 17.7095 31.1664 28.8904
Pd 20.2793 30.5026 13.2367
Au 28.2465 22.9602 25.8831
Pd 29.323 25.5452 21.9264
Pd 11.9743 20.058 27.5463
Pd 10.5424 23.0533 26.1475
Pd 18.819 8.41555 15.4301
Au 16.6531 20.1377 28
Pd 10.9145 14.6077 20.9699
Au 10.1949 17.8639 27.764
Au 23.8519 5.82101 20.1166
Au 19.4419 7.11697 24.6076
Au 8.93173 10.5804 19.3194
Au 8.11049 15.088 21.2484
Au 19.9325 14.132 29.2039
Pd 17.6758 16.2436 22.0934
Au 21.5257 13.383 31.2904
Au 20.8366 9.0192 17.3182
Pd 26.1921 13.8689 24.5566
Au 33.2731 20.6899 25.6158
Pd 29.7433 16.1955 26.1995
Pd 30.0322 11.8547 22.4062
Au 17.453 15.1154 17.7127
Au 24.2546 7.42347 25.1474
Au 15.9721 27.7693 11.0775
Au 10.0515 20.7446 18.141
Au 19.7519 33.4329 17.7494
Pd 15.8423 22.5268 27.2913
Au 14.6069 25.1386 19.3931
Au 26.9455 16.1312 14.4398
Au 25.6818 28.784 9.17381
Au 15.9434 19.1644 12.36
Au 30.1119 29.7456 14.8934
Au 17.5103 25.5232 18.3191
Au 24.7447 31.9303 19.3768
Au 30.1502 26.2323 17.0838
Au 19.1532 15.0222 24.0004
Au 17.911 33.0189 22.0579
Au 13.7521 31.2317 22.9269
Au 14.2403 26.1398 8.04503
Au 12.7218 20.8392 18.8066
Au 21.4691 27.9991 13.3512
Au 16.2681 26.683 13.6694
Au 24.9874 28.4508 22.3707
Au 28.3023 14.4609 10.2664
Pd 8.11578 17.8446 22.5662
Au 3.04097 22.1437 24.1009
Au 14.5813 13.6645 24.4886
Pd 19.4656 17.8309 20.8279
Au 21.1829 11.2236 8.20976
Pd 18.408 15.0862 15.0336
Au 16.1921 12.2631 9.89808
Au 22.7487 6.96362 13.7497
Pd 20.4612 7.42519 19.7497
Pd 22.3031 18.2435 22.0625
Au 22.2469 15.9077 6.59948
Au 26.6043 19.0798 11.8726
Au 25.0647 8.24589 14.4612
Au 19.6565 10.8624 15.33
Au 18.9828 12.6913 19.3682
Pd 18.6789 12.0238 8.72698
Au 26.4138 9.78556 12.7066
Pd 19.9659 16.6125 12.6962
Au 23.5061 12.4159 9.03021
Pd 27.6258 18.4507 21.672
Au 27.8712 22.8109 28.7156
Au 27.0763 8.35298 22.2166
Pd 19.3276 24.4348 21.7694
Au 29.7309 12.8686 19.816
Au 21.9311 23.545 33.7647
Au 18.4351 7.51836 17.9027
Au 24.2226 27.566 30.9852
Au 27.5989 24.0218 31.3069
Au 28.7661 20.6025 24.4715
Au 31.0088 13.7772 25.0971
Pd 21.341 25.9388 22.7009
Au 24.1122 21.8742 33.325
Pd 20.4538 31.3739 28.3155
Au 32.7414 16.7868 21.8244
Pd 15.2089 29.5464 21.035
Au 27.4657 16.251 28.1924
Au 20.4568 28.6165 15.9327
Au 26.6242 8.99407 24.9445
Au 28.6805 25.4227 29.1977
Au 30.7956 15.0438 14.0524
Au 29.7073 17.2886 15.1226
Au 28.171 11.5619 13.7027
Au 29.7549 26.3911 26.8462
Au 10.797 16.7461 9.64381
Pd 20.9196 27.4528 8.81775
Au 28.9946 9.64692 23.6084
Au 27.2544 26.2624 8.84151
Au 25.0004 7.03974 18.0348
Au 31.8531 25.9429 12.6673
Pd 30.5467 22.4137 13.7797
Pd 23.6835 22.8801 8.84428
Au 17.675 17.007 11.2907
Au 20.8285 28.2307 6.39047
Pd 24.9981 17.7923 13.6572
Au 24.3286 16.2554 18.5733
Pd 30.571 16.7189 17.5334
Au 32.6358 21.5638 18.8477
Au 31.4813 16.5023 24.1848
Au 31.6094 27.9722 18.8196
Au 9.11328 26.7346 18.7114
Au 9.04479 19.4516 15.8043
Au 8.92469 25.4203 26.5139
Au 14.9444 20.0261 23.4579
Au 7.82608 13.0873 19.1771
Au 7.11165 21.3816 27.3895
Au 7.04821 11.4971 21.2722
Au 16.7478 24.8443 28.782
Au 26.8789 20.5217 26.5941
Au 13.7009 27.2373 14.4244
Au 21.4509 15.997 32.7272
Au 16.6235 32.1051 11.2883
Au 3.67101 17.8619 22.2786
Pd 20.2399 24.4166 25.3573
Au 8.18667 16.0561 26.986
Au 26.7974 26.7763 30.6374
Pd 10.4981 16.7414 23.1142
Au 16.4528 19.1902 33.2985
Au 15.2979 10.7306 28.8898
Au 17.1682 28.5397 22.8208
Au 7.96854 17.7648 13.7657
Pd 8.08196 21.9961 19.697
Au 8.10743 15.0723 13.7988
Au 22.9227 23.8192 6.3731
Pd 13.0251 12.5324 17.4458
Au 8.32936 26.4634 22.083
Au 10.8658 15.199 14.031
Au 9.36017 29.4337 17.7088
Pd 12.0028 16.7106 16.2302
Pd 24.4929 26.4413 8.60543
Au 6.07427 17.6293 24.858
Au 20.8125 21.5243 12.5997
Au 22.4266 7.50619 21.7199
Au 4.90542 21.9689 26.0179
Au 11.765 7.74082 17.2513
Au 9.80904 25.9604 14.1367
Pd 20.128 16.3956 9.96489
Pd 21.3312 20.5724 23.0555
Pd 20.8223 12.7855 10.3287
Au 15.7762 20.8806 7.73629
