923
Atoms. Timestep: 20993
Au 11.1178 27.3135 27.578
Au 23.2047 13.8169 16.597
Au 21.0219 11.9399 20.8483
Au 18.9311 6.40586 15.4326
Au 19.8008 30.1315 23.6397
Au 29.2858 8.23018 19.217
Au 25.1976 18.614 14.173
Au 8.72609 22.9112 16.2899
Au 32.7383 18.0248 20.7889
Au 30.1277 14.6805 26.217
Au 16.9143 23.0864 10.8065
Au 15.7643 14.0257 17.0985
Au 18.8139 16.5139 10.5822
Pd 29.4327 28.9153 19.2753
Au 22.0487 22.401 31.2913
Au 21.5695 29.9062 25.77
Pd 11.077 13.2545 17.5744
Au 11.9878 26.2929 15.5452
Au 27.0314 8.34927 21.088
Pd 17.5265 14.183 30.3118
Au 25.9341 19.6796 21.5021
Au 12.8097 18.452 13.0308
Pd 18.1033 18.6054 26.8112
Au 24.0041 6.95268 15.0244
Au 20.7862 16.2095 33.973
Au 12.3978 29.4932 26.5785
Au 15.9334 26.0531 26.2418
Au 10.4095 18.8315 23.5131
Au 27.3248 20.2699 7.94075
Au 19.9724 13.9513 7.20666
Au 20.1261 22.8119 6.04997
Au 17.5129 33.6398 19.4781
Au 31.1839 24.7045 22.0439
Au 19.7461 28.5505 9.49356
Au 19.7074 18.4674 6.4424
Au 13.5759 17.8518 17.829
Au 27.8178 17.5477 15.4064
Pd 12.9527 20.586 8.02259
Au 23.005 16.6415 23.8127
Pd 21.6106 20.4428 25.1594
Au 8.49352 22.2815 21.137
Au 6.40544 22.9477 22.6859
Au 13.2669 16.7231 15.2524
Au 21.5182 33.8958 16.6311
Au 19.2565 17.7348 29.4551
Au 31.6177 22.455 23.5489
Au 14.3551 26.107 22.675
Au 11.1909 22.6805 19.846
Au 22.0871 33.9668 19.5816
Au 14.3195 8.34459 20.6841
Au 24.9345 30.7509 10.7432
Au 14.5537 17.0684 29.8722
Au 25.3119 17.825 11.2578
Au 15.3527 20.6941 6.56434
Au 23.0113 19.4506 11.1078
Au 32.7823 18.1103 23.714
Au 31.2007 15.7085 14.0757
Au 9.28717 10.1685 19.2629
Au 31.8831 12.5613 18.6396
Au 12.4477 17.2765 22.3361
Au 12.3783 15.8176 12.6225
Au 12.33 19.3395 20.4006
Pd 23.8249 12.5962 21.1843
Au 8.73685 16.6349 23.238
Au 24.329 22.1416 22.658
Pd 14.5558 16.1354 26.944
Au 22.8822 22.8404 6.24685
Au 20.7141 6.91245 17.583
Au 16.7841 14.8163 22.3637
Au 16.7648 25.7293 15.8519
Au 9.83975 12.3557 25.512
Pd 19.2945 13.4446 22.3596
Pd 24.3203 22.8698 27.295
Pd 11.4534 23.4886 30.5654
Au 14.386 30.9256 11.6398
Pd 22.5005 15.1704 8.06591
Pd 14.3515 31.0245 16.3354
Pd 18.7575 23.7885 8.35242
Au 5.5813 19.6034 18.251
Pd 14.098 25.0973 16.8034
Au 28.2404 16.7992 10.5278
Pd 23.8845 19.3614 23.4487
Pd 10.8849 19.2512 26.9286
Au 23.9215 9.1871 11.1454
Au 30.7639 20.0539 20.662
Au 18.5909 9.84507 11.3233
Au 17.7388 19.9997 29.1453
Au 26.248 28.6683 9.57635
Au 12.6142 22.8205 23.5686
Au 9.71207 15.0688 19.4562
Au 6.85932 22.0474 25.348
Au 24.4428 15.4028 20.7881
Pd 23.8512 13.3206 14.0645
Au 11.3903 21.63 28.4275
Au 7.85056 14.1821 24.5929
Pd 21.6624 22.9871 26.362
Au 8.93466 18.0355 16.2021
Au 14.17 17.1882 10.8063
Au 11.2525 20.6681 12.3053
Au 27.6462 19.366 13.2428
Au 25.2269 21.6438 6.9923
Pd 20.1688 13.0149 30.4813
Au 20.3516 18.613 11.446
Pd 26.7218 21.4088 29.2793
Au 23.8377 16.1227 17.9663
Au 19.4814 13.4492 19.2875
Au 11.8447 25.4472 24.2645
Au 13.7279 23.0092 18.806
Au 14.2871 27.2923 31.1501
Au 7.77927 21.4795 18.5765
Pd 22.9129 11.4096 12.2239
Au 17.6596 25.2473 28.2843
Au 19.1094 11.1058 23.7893
Au 14.3573 15.1138 21.2747
Au 21.9645 16.2293 26.3962
Au 20.844 18.5452 27.3897
Pd 15.6927 23.632 14.2686
Au 19.1905 26.7516 14.6985
Au 14.2101 11.6714 10.8122
Au 17.5996 20.1589 20.0592
Au 13.2893 33.2758 21.0184
Au 13.0636 10.8994 27.1115
Au 7.83698 25.0529 21.5932
Au 26.6804 9.40204 23.6928
Au 14.0741 8.81333 25.1307
Au 16.0987 9.92624 9.95472
Au 27.0276 15.1112 8.42424
Au 18.0068 8.19954 26.6512
Au 23.0344 28.4062 19.4455
Pd 31.0442 11.9754 26.6409
Au 5.60274 22.1843 17.3063
Au 16.208 23.8588 17.8593
Au 24.5949 30.016 21.5436
Pd 17.5847 18.6813 15.696
Au 28.0769 7.05575 23.4864
Au 7.87493 11.8498 20.7942
Au 20.5816 17.8019 17.3007
Au 26.7526 12.8597 20.8097
Au 6.12475 20.382 23.2912
Au 25.2189 12.7001 11.6746
Au 16.9947 34.9478 17.1626
Au 12.2312 29.6024 15.7335
Pd 25.0283 30.6707 19.0143
Pd 29.4827 12.8949 19.7295
Au 9.2733 14.7011 26.8249
Pd 19.6037 18.2608 19.8488
Au 13.4522 19.9494 10.8123
Au 30.0948 10.4485 15.1111
Pd 20.5018 29.4593 18.8277
Au 29.72 12.7678 16.8119
Au 10.8528 24.3195 27.9311
Au 26.2224 28.7796 12.3556
Pd 25.541 20.4998 18.781
Au 9.8607 20.2346 19.7773
Au 15.4031 13.7634 8.60308
Au 10.9665 21.1353 22.1479
Au 30.222 26.6445 18.073
Au 9.45006 26.55 23.2246
Au 12.3072 8.67202 13.9066
Au 25.8328 24.0293 29.1429
Au 14.8247 19.433 16.1581
Au 21.2824 33.5859 13.8689
Au 21.3052 7.46371 14.8813
Au 29.9854 19.997 11.962
Au 6.37802 15.09 22.5498
Au 15.4768 13.1312 12.7091
Au 30.1445 18.3172 27.6554
Au 23.3729 8.45253 17.314
Pd 20.428 32.6621 11.4578
Au 15.5601 32.6004 25.8999
Au 13.6503 27.3748 20.2025
Au 10.8181 30.5821 17.8517
Au 13.3329 12.494 29.5813
Pd 20.2726 11.8989 11.7644
Au 14.6276 29.2932 9.47157
Au 16.6376 29.7661 12.6421
Pd 9.31172 27.8611 18.5447
Au 24.1342 13.4991 32.6502
Au 15.5055 18.5342 13.6381
Pd 28.4458 23.3061 28.4648
Au 18.7886 12.5088 28.2455
Au 13.5702 24.6979 31.6388
Au 31.725 13.1033 21.3308
Pd 29.3524 9.26875 24.307
Au 18.8684 16.2732 15.6357
Pd 25.5604 20.5702 12.0251
Au 24.9135 13.581 18.7435
Pd 17.8882 23.189 15.9167
Au 18.0997 14.1471 24.7192
Au 23.3023 17.945 21.1844
Au 18.2251 16.1792 18.3202
Pd 23.0517 27.1056 16.953
Pd 22.9207 21.0215 8.39137
Pd 25.5551 10.5449 21.3765
Pd 11.403 23.3525 12.391
Au 16.2414 29.5448 17.6554
Au 32.358 22.4566 20.7832
Pd 29.3732 18.0863 30.2664
Pd 13.4316 20.3472 26.9063
Au 32.7683 13.8499 26.7451
Au 27.7157 10.6321 16.7399
Au 16.8548 25.5763 23.6505
Au 22.4493 31.1205 20.0815
Au 22.3623 23.0598 21.0566
Au 27.5452 10.9132 30.8122
Pd 17.0097 14.3382 14.5939
Au 9.97522 12.6476 13.296
Au 15.4403 25.1149 11.9432
Au 7.70009 24.9883 14.5726
Au 14.1284 18.1595 7.06784
Au 23.1151 32.2192 12.2191
Au 24.7861 23.1755 13.3388
Au 28.1607 24.246 10.0254
Pd 7.30469 20.2948 16.167
Pd 18.6207 32.7946 16.6231
Au 22.9615 17.9451 15.8437
Au 29.8432 26.8752 23.3261
Au 23.6398 23.9598 24.6621
Au 9.91098 20.595 16.9661
Au 27.4596 14.3003 25.0993
Au 28.1815 28.8554 24.4628
Au 18.0019 24.7101 13.3545
Au 16.8991 11.7392 18.1616
Au 12.273 18.1271 9.09131
Au 21.7298 8.47461 19.6627
Pd 19.0944 20.8917 15.2936
Au 18.5639 8.55901 17.0634
Au 20.8662 17.4429 22.2438
Au 21.2223 30.6705 13.1721
Au 20.5447 22.8692 33.7086
Au 20.8616 27.5341 26.9018
Au 7.32217 16.5929 25.6818
Au 20.2105 23.4014 14.5541
Au 22.9969 21.8852 18.1885
Au 23.4748 6.25224 21.282
Au 29.606 27.4304 28.7489
Au 30.6138 24.6509 24.7523
Pd 14.8654 30.1002 25.203
Au 25.9634 6.02296 22.3386
Au 19.2632 15.658 20.8819
Au 14.2992 30.9704 27.7712
Au 8.04789 24.3125 24.3016
Au 13.2017 30.369 21.2185
Au 20.1016 10.1895 30.7186
Au 10.9247 12.4233 22.9254
Au 13.751 12.8601 22.7629
Au 15.2887 7.25042 18.3453
Au 10.2718 26.0556 20.5864
Pd 22.81 14.008 25.2245
Au 10.3578 19.1571 29.4942
Au 23.1888 26.3291 8.6333
Pd 13.633 27.478 24.9092
Au 25.1701 17.2916 27.8776
Pd 19.3669 27.8417 12.0628
Au 16.0331 14.889 32.5407
Au 26.7861 26.6232 15.8508
Pd 15.3216 31.78 20.0217
Au 20.0692 18.3687 24.7226
Au 15.3786 12.6603 31.3194
Au 23.3027 18.5326 26.0843
Au 17.7936 26.593 8.18194
Au 22.5555 8.72095 27.1853
Au 21.1423 11.1251 28.4963
Au 16.0103 9.42377 16.6521
Pd 19.1817 8.4213 24.1089
Au 19.0735 7.90121 19.74
Au 25.1553 25.5133 18.0971
Au 16.6446 7.97406 11.708
Au 16.765 18.4694 33.4872
Au 14.4992 17.8083 20.5364
Au 13.043 25.6717 26.8974
Au 7.88425 29.0236 14.5397
Au 12.1627 29.3654 11.0933
Au 13.5894 7.13799 15.9439
Pd 9.76298 15.3157 12.5658
Au 29.1018 15.8703 28.5764
Pd 10.6644 17.1542 14.3153
Au 30.7872 27.0433 20.7184
Au 7.3028 26.1959 19.2134
Au 26.8306 12.577 9.45343
Au 24.1763 28.5557 30.3489
Au 29.216 13.1224 22.4101
Pd 20.6866 22.6602 28.9547
Pd 15.3383 15.9961 18.7951
Au 26.9729 7.08912 15.2208
Pd 24.3539 20.4165 16.311
Au 8.63873 20.0714 11.571
Pd 27.4612 8.24564 26.0403
Au 23.6781 32.7692 17.8931
Au 22.7252 17.7071 13.1018
Au 25.5158 9.23509 15.8672
Au 25.5902 22.8536 17.0258
Au 25.1562 31.0294 13.542
Pd 23.8768 14.9485 27.9676
Au 19.5979 34.8061 18.2217
Pd 16.1373 24.2937 8.50099
Au 20.5861 25.4732 12.5265
Pd 18.3315 18.6591 8.77665
Pd 11.7322 11.806 15.2943
Au 22.8784 7.18381 12.6392
Au 14.3043 27.9249 16.4735
Au 32.1549 18.1974 29.3725
Pd 11.949 15.4079 26.4982
Au 15.2946 21.4122 28.7566
Pd 19.6105 20.9149 27.2021
Pd 28.9576 14.1689 10.0539
Au 18.5 20.6286 10.6389
Au 19.2198 16.1687 26.3198
Au 9.44662 22.4612 10.6657
Au 32.7494 18.2387 26.4639
Pd 28.0101 17.7147 23.768
Au 27.968 6.20806 17.9614
Au 18.6417 26.1217 25.8043
Au 12.642 27.0802 9.6976
Au 20.5555 15.2521 24.1164
Au 16.3333 15.1752 11.0248
Au 9.95787 28.2833 15.9549
Pd 19.3431 22.2003 31.3156
Pd 8.26841 17.7732 13.1079
Pd 15.1646 14.5897 29.3597
Pd 14.7323 10.1809 22.7289
Au 21.9762 14.6685 21.9005
Au 15.9165 16.5628 16.0433
Au 15.224 20.6504 33.3896
Au 12.1583 25.2989 18.7969
Pd 24.0662 25.9387 31.066
Pd 30.6157 20.0215 24.1799
Pd 16.3349 6.81676 15.9913
Au 24.1054 16.7625 30.5798
Pd 6.98992 20.2054 13.5835
Au 22.2591 17.5482 6.61479
Au 12.4269 13.0353 25.1932
Au 26.3599 22.1933 9.62723
Au 20.2559 8.46451 28.5711
Au 6.76757 24.5949 17.0888
Au 11.4968 23.4272 17.0048
Au 18.1669 16.1245 33.5656
Au 24.9846 26.6778 28.5452
Pd 24.8433 25.0224 22.1987
Pd 10.506 12.4605 20.191
Au 10.4994 15.8549 16.9009
Pd 23.0801 25.4646 26.9272
Au 12.6859 17.6915 27.9793
Au 12.5284 17.8329 25.1656
Au 14.4495 27.9436 11.8311
Au 16.914 14.2266 27.2076
Au 24.1907 11.3934 23.7782
Au 24.135 21.2956 25.2686
Au 22.7284 30.2933 17.4719
Au 29.4023 9.98527 26.8292
Au 24.3598 31.9259 23.5777
Au 23.1233 6.14684 18.6831
Au 16.9766 30.5714 27.2466
Au 28.1242 26.9755 21.1946
Pd 23.5136 28.1099 26.6082
Au 17.448 27.9748 27.8407
Pd 16.7656 21.7234 31.3662
Pd 19.327 15.1324 28.703
Au 11.8727 32.1991 22.9682
Au 8.38972 18.4707 27.52
Pd 21.9979 16.3839 10.6818
Pd 21.5307 7.51767 22.5666
Pd 30.1014 19.7279 17.7396
Au 11.7254 10.6772 12.1488
Au 20.0943 9.82725 13.9677
Au 9.02765 24.0543 18.9837
Au 28.575 20.0241 22.3849
Au 17.0191 6.23175 13.555
Au 19.3894 31.2716 9.11062
Au 25.2289 28.4816 17.3709
Au 23.3747 20.6243 13.7127
Pd 20.8741 31.4053 15.749
Au 28.9633 28.3357 16.3533
Au 15.824 23.9888 30.2458
Au 29.239 29.2417 22.0129
Pd 27.7109 9.53312 14.1131
Au 15.021 8.30248 14.032
Au 12.1147 28.0294 13.4779
Pd 15.6895 9.79237 27.14
Au 8.84548 14.1315 21.9268
Pd 14.849 28.3275 27.1501
Au 5.65011 18.5258 20.8435
Pd 22.533 24.5293 32.9264
Au 14.8185 21.5115 24.71
Au 24.2474 26.5233 24.4489
Au 22.9538 7.07287 24.8577
Au 27.9895 24.7158 17.4872
Pd 10.8778 28.0331 24.9015
Au 16.2944 16.6921 8.76407
Au 11.366 14.4849 14.8168
Pd 16.7342 18.185 11.1109
Pd 21.6073 27.8476 13.6765
Au 13.637 24.4878 9.9167
Pd 26.8678 16.6542 13.075
Au 24.7632 15.9467 15.0406
Au 21.8592 27.4637 10.8704
Pd 9.04696 24.7064 12.1576
Au 20.2612 16.4937 8.35453
Au 19.7905 15.5944 31.398
Au 13.1124 13.2924 19.5808
Au 21.6876 16.4598 29.128
Au 24.4325 25.3155 6.45533
Au 15.5852 29.3371 29.5599
Au 28.6532 15.6452 31.6659
Au 31.9898 24.8072 19.4694
Au 16.7248 33.8446 14.7647
Au 21.5316 31.9939 27.4611
Au 14.9849 15.8553 13.2862
Au 30.6689 13.0748 14.1955
Au 29.7258 15.4611 23.677
Pd 31.5696 21.0818 13.8367
Au 13.7699 20.8736 13.8316
Au 25.1707 27.8567 7.24515
Au 20.5643 7.36437 26.0592
Au 18.4547 22.5628 18.9329
Au 11.9342 27.7443 17.8526
Au 21.2471 9.05223 11.7226
Pd 9.68198 25.8206 25.9132
Au 6.83635 14.2818 19.9063
Au 15.2858 17.1541 23.1664
Au 15.031 31.5429 22.862
Au 26.1758 25.7896 13.2181
Au 24.7464 13.5461 7.9349
Au 8.4393 12.8201 18.3284
Au 18.3574 24.8158 30.9395
Au 11.2622 20.983 31.1602
Pd 17.6177 24.1388 21.3722
Au 23.1911 16.0203 32.9702
Pd 13.9783 21.9022 30.9809
Pd 27.1843 26.1292 24.2014
Au 12.1387 10.4909 24.3393
Au 25.1611 20.0957 27.5276
Pd 19.8513 29.8848 28.0723
Au 14.9021 34.3134 18.9428
Pd 26.358 12.1672 28.7595
Au 19.1944 21.3879 24.5157
Au 26.7978 23.7329 7.51677
Au 27.3008 23.1737 31.3013
Pd 21.4251 23.3278 8.53545
Pd 21.839 32.3008 24.7385
Pd 10.6317 20.0829 9.71482
Pd 12.864 22.8973 26.4052
Au 22.6646 11.4629 26.2189
Au 25.3308 14.2249 30.2598
Au 27.4384 18.0426 32.1848
Au 28.3769 6.14736 20.7769
Au 18.8779 25.2623 6.02633
Au 28.841 24.9254 12.7273
Au 17.5983 16.665 13.2644
Au 12.4405 15.1135 29.1232
Au 9.4856 10.9533 16.6548
Au 5.72045 16.8024 18.7788
Pd 10.4929 14.8173 24.23
Pd 17.3179 9.16784 22.03
Au 15.5111 15.748 6.44136
Au 32.1524 15.6684 22.2463
Pd 18.9825 23.4396 26.4307
Au 12.051 17.4088 30.7775
Au 30.8768 24.2699 17.0966
Au 30.4904 22.2519 18.8639
Au 20.5221 25.0634 27.9225
Au 32.4829 15.794 25.0128
Au 15.3458 11.9937 20.6532
Pd 16.021 22.3072 20.1719
Au 28.2584 20.4044 31.23
Au 30.4251 25.0114 27.5413
Au 7.3633 27.3191 16.571
Au 14.0955 33.7858 23.7505
Pd 12.6518 25.6924 12.2233
Au 10.2106 29.7565 22.4739
Pd 23.3205 32.4609 15.0765
Au 25.4199 11.0433 13.8091
Pd 19.0312 27.3265 23.3476
Au 21.2878 13.7841 32.947
Au 16.8325 9.31576 19.3792
Au 32.3503 23.0564 26.2294
Au 15.8794 26.9004 18.4459
Pd 16.974 16.6031 28.4057
Au 19.0463 19.9476 17.7407
Au 27.0433 15.3453 19.6376
Au 26.6291 14.7882 27.7939
Au 19.322 7.42284 12.8021
Au 20.9839 29.132 30.5051
Au 26.3975 10.2623 11.3679
Au 20.9763 24.9675 30.7415
Au 25.3748 27.3099 20.2088
Pd 20.5244 14.198 9.99036
Au 20.8659 28.3159 21.3713
Au 17.2747 21.6936 22.6648
Pd 32.3276 19.2825 16.133
Au 13.7265 14.3694 10.6608
Au 25.4425 24.4535 10.9543
Au 8.32672 23.6986 26.9565
Pd 22.5826 24.5043 17.5819
Pd 25.6621 20.9303 32.1231
Au 26.7607 25.8444 30.8464
Au 22.8501 22.7468 15.4554
Au 26.0935 25.9409 8.77033
Au 28.3214 13.6169 29.9763
Au 11.7182 10.6905 18.2805
Au 16.7736 18.3933 6.53835
Au 20.3871 32.1588 18.5246
Au 12.7408 8.0422 18.2511
Au 9.05222 22.2618 13.575
Au 24.6888 14.197 23.2802
Au 29.6638 15.3814 20.9066
Pd 30.4456 17.1766 16.4102
Au 18.0557 25.697 10.7218
Au 29.5493 11.2835 29.1314
Pd 20.1957 12.8408 25.7582
Au 14.7652 20.1736 19.1183
Au 17.4461 11.6589 26.0564
Pd 13.7613 12.2857 17.1052
Au 19.0425 29.4963 14.233
Au 28.9698 22.2611 16.5225
Pd 22.5924 29.7432 28.4542
Au 22.6934 10.9404 18.9185
Au 14.7344 22.049 9.31294
Au 12.5551 29.8198 23.8364
Pd 23.1344 18.7503 29.0324
Pd 30.3007 10.3698 17.811
Au 32.1215 11.8911 16.111
Au 24.6612 23.4025 31.7284
Au 12.6123 8.44602 22.7359
Au 6.82674 28.7679 18.9813
Pd 19.7412 33.6572 20.8491
Au 18.2097 16.1227 6.71342
Au 25.38 10.8859 18.5015
Au 30.6609 23.5818 14.4596
Au 17.1927 23.0737 6.13417
Pd 16.6483 21.1451 17.3701
Au 6.34293 23.6206 19.6966
Au 17.2552 13.6643 6.50872
Pd 29.6538 22.416 21.4044
Pd 9.91007 30.8714 15.1286
Pd 23.1721 19.7516 31.5457
Au 21.321 29.8468 7.78307
Au 28.2942 27.5314 13.623
Au 23.1323 29.7813 14.9597
Au 15.6469 19.7479 22.02
Pd 31.0033 15.9243 30.3774
Pd 19.5447 27.1235 29.3586
Au 17.7401 29.4321 7.87639
Au 8.30003 11.8291 23.3869
Au 29.2798 25.1628 30.1547
Au 6.27283 17.6757 23.3393
Au 16.6847 16.647 25.4899
Pd 13.1502 19.7474 29.5797
Au 13.0881 19.5121 32.3253
Pd 27.3177 22.6931 12.1123
Au 14.3482 10.2771 18.8004
Au 17.0446 11.6746 8.18223
Au 12.1618 23.4843 7.86727
Au 20.0479 27.619 6.91806
Au 20.8609 28.4391 16.2486
Au 13.2433 19.7615 23.2553
Au 13.0791 23.9625 14.4259
Pd 8.86241 21.5418 23.7653
Au 7.7995 15.6026 17.5659
Au 6.36131 17.7025 16.3283
Pd 21.1318 25.3055 25.1216
Pd 21.1007 9.64729 16.5939
Au 18.7169 11.1174 16.1001
Pd 23.4145 27.5998 22.071
Au 26.8583 10.91 26.03
Au 18.2417 29.4912 30.122
Au 20.888 5.98313 20.3261
Au 25.09 15.8117 25.504
Au 24.6782 15.581 9.68734
Au 18.5254 13.5137 32.7108
Pd 16.1467 25.6057 32.4263
Au 13.0303 28.5344 29.0732
Au 14.5487 26.4086 14.2337
Au 21.6546 12.2906 23.4552
Au 12.0262 19.1623 15.6768
Au 21.842 10.7385 9.79668
Au 23.5617 29.0064 9.11015
Au 26.7557 24.8479 20.2944
Au 18.2173 19.3411 13.1016
Pd 13.046 32.3884 18.3958
Au 8.27092 15.7945 14.8532
Au 5.9876 21.1115 20.6148
Au 10.1532 17.5358 20.8756
Au 10.0391 10.1036 14.1488
Au 23.0465 9.46423 14.1527
Au 17.2537 12.2938 10.7675
Pd 19.5093 11.9 9.1168
Au 19.7355 23.5022 10.9129
Au 16.7488 31.1551 15.0317
Au 7.96266 18.4868 18.7318
Au 29.2407 20.7246 28.6016
Au 24.697 10.3352 27.8586
Au 27.6136 22.4949 19.0055
Au 29.4868 17.4286 12.9283
Au 27.4097 20.068 16.7899
Au 18.2841 22.1172 12.9579
Au 31.2634 22.8171 28.7742
Au 9.92928 17.1004 25.6833
Pd 14.036 13.8565 14.9137
Pd 10.1853 23.8999 22.5573
Au 18.0248 14.3489 8.99808
Au 24.4815 19.0914 6.83029
Au 16.0127 11.808 15.3276
Pd 25.2119 31.0673 16.3433
Au 18.0822 11.5166 20.8169
Au 31.8654 16.0752 27.8128
Au 25.5034 17.1804 22.7796
Pd 22.0613 25.3066 22.6311
Pd 30.4193 17.5415 25.1792
Au 26.1254 28.0453 22.7752
Au 29.4469 25.8221 15.3663
Au 25.475 8.2796 13.1568
Pd 28.9976 14.7728 12.6649
Pd 25.086 19.9291 9.3856
Au 19.1434 27.5734 31.9483
Au 25.2521 7.75248 27.554
Au 14.1369 13.4323 27.1858
Au 21.2754 17.8113 31.6165
Au 31.9445 15.2013 19.4079
Pd 14.8106 28.729 22.668
Au 22.2691 13.8115 19.2472
Pd 13.4712 23.613 28.8975
Au 18.9589 32.3521 13.8305
Au 28.0243 12.3504 11.9045
Pd 27.4297 12.9954 18.1181
Au 30.3791 17.5776 19.4203
Au 20.8821 20.7493 19.5795
Au 24.5651 9.25607 25.3834
Au 29.8156 8.33228 21.8223
Pd 27.4838 18.7025 28.2758
Au 23.8605 31.1959 26.3261
Pd 26.679 14.7974 11.1616
Au 28.9514 21.6079 9.86908
Pd 14.4107 29.4996 14.0871
Pd 31.801 18.3588 13.7187
Pd 28.2766 24.2809 25.8943
Au 10.4635 27.1042 11.3645
Au 29.778 19.4873 15.0806
Au 14.4822 23.1958 6.70509
Pd 16.2312 32.3064 17.557
Au 10.3952 23.2896 25.3313
Au 31.9201 20.4845 27.6632
Pd 18.9604 30.467 11.5805
Pd 17.2877 19.3471 24.317
Au 19.4734 18.4955 34.0864
Au 28.7986 22.278 23.999
Pd 26.8443 16.5382 29.9545
Au 16.4123 21.055 14.6099
Au 9.03692 13.437 15.728
Au 26.8768 13.187 32.1843
Au 18.5882 19.3167 31.6189
Pd 18.6752 14.1921 12.1067
Au 24.9559 11.4014 31.109
Pd 16.7013 26.8323 21.3345
Au 12.3177 16.1656 19.5454
Au 18.3039 16.8635 23.3176
Au 17.8117 11.5606 30.8697
Pd 15.7718 29.1615 20.2222
Au 32.9895 20.6213 25.1417
Au 11.0678 31.7217 20.3654
Au 10.9978 8.76504 16.3127
Au 14.9056 26.1447 28.8355
Au 21.5877 25.2521 6.60391
Au 9.6114 19.7354 14.2514
Au 30.2139 22.7652 11.8677
Pd 18.3818 13.7243 16.8855
Au 21.7215 20.2741 6.1869
Au 24.1142 21.5226 29.756
Au 16.0792 25.5476 6.09656
Au 24.5171 24.9723 15.4828
Au 26.2548 21.3327 14.6499
Pd 28.4703 24.558 22.549
Au 28.1336 19.9667 19.6525
Pd 21.7777 25.5423 15.144
Pd 28.4164 10.6291 22.0635
Pd 26.38 17.7122 8.64516
Pd 16.7218 28.4025 15.2397
Au 21.6472 16.4695 19.6124
Pd 14.0975 22.7583 12.0022
Au 26.5868 15.3354 16.9222
Au 16.9181 27.132 30.4363
Pd 27.4421 26.6672 11.0381
Au 15.4696 27.9496 7.27884
Au 23.3657 25.6638 12.9472
Au 31.6655 21.7724 16.4249
Au 27.3474 23.8931 14.8514
Au 25.838 6.14825 19.7261
Au 31.5614 13.3508 24.1809
Au 31.0204 10.9489 23.0242
Pd 15.925 20.7106 11.819
Pd 13.5409 21.6752 21.2084
Au 22.4023 18.5281 33.9855
Au 24.1511 15.4361 12.3617
Au 24.555 27.6405 14.4891
Au 32.8436 20.3419 22.3487
Au 9.91471 29.3978 12.848
Au 24.7928 23.1368 19.8137
Pd 16.182 10.46 12.6387
Au 28.9611 8.28995 16.4795
Pd 16.9215 27.1248 12.9263
Au 23.7774 22.1652 10.8083
Au 12.1107 32.3625 15.7774
Au 18.1157 25.4541 19.0863
Au 15.7578 34.1433 21.5514
Au 22.8467 9.55285 29.8604
Au 16.9089 14.0761 19.7619
Au 15.3692 26.6008 9.61387
Au 9.08944 21.1695 26.6767
Pd 27.0035 28.1456 29.5767
Au 22.1124 12.52 7.92303
Au 27.4208 30.0446 17.7208
Au 20.2633 16.267 12.9165
Pd 14.3882 24.4523 24.8506
Pd 29.4147 15.1941 18.1117
Au 20.6252 24.0782 19.3977
Pd 14.9621 18.7933 25.3527
Au 20.7801 15.1042 17.2951
Au 28.0712 29.1028 27.3087
Au 19.3182 31.7725 26.0082
Pd 23.5185 11.1089 16.3105
Au 6.49902 22.5922 14.7477
Pd 11.9747 27.4979 22.4034
Au 14.4209 32.3884 13.9777
Au 24.8907 18.2633 32.9235
Au 24.7743 16.2711 7.02625
Au 15.3875 7.55149 23.0685
Au 29.1293 11.9301 24.7879
Au 20.7634 20.096 29.892
Pd 21.1765 18.9452 8.85409
Pd 20.397 25.8595 9.11909
Pd 18.9322 19.4514 22.2571
Au 23.0629 24.1323 29.2927
Pd 24.2656 29.3008 24.3273
Au 14.7891 11.4977 25.1626
Au 26.1675 27.7261 26.1175
Au 13.5576 14.8654 31.5091
Pd 17.5061 32.065 21.7736
Au 31.068 20.3183 30.4247
Pd 22.2702 30.2864 22.807
Au 18.2448 20.6375 5.95172
Au 9.95804 10.1688 21.9663
Pd 22.5215 14.4379 30.6329
Au 25.6195 6.78435 24.8691
Au 25.1143 12.9657 26.2223
Pd 16.9186 23.2379 24.8493
Au 30.6865 10.56 20.4245
Pd 28.8916 21.689 13.9146
Au 18.8225 28.9695 25.7603
Au 21.4965 20.2151 22.3929
Au 13.5974 15.8523 8.38108
Pd 20.9473 12.3458 17.1841
Au 26.7535 29.3177 15.0514
Au 17.1332 17.3912 20.8387
Au 9.52873 25.6532 16.8619
Au 7.60385 16.6645 20.7424
Au 19.7122 25.0756 16.8558
Au 27.9945 17.607 18.138
Pd 23.5259 17.8051 8.96245
Au 18.135 20.9731 33.7026
Au 11.3209 8.63346 20.3262
Au 18.4321 27.5274 17.3008
Au 19.8709 10.1093 26.3161
Au 11.1658 28.8658 20.1975
Pd 24.6084 27.0388 10.9382
Au 15.1685 23.4174 22.5261
Au 17.2023 21.4678 8.38927
Au 16.004 11.9701 28.7212
Au 16.5715 28.1288 24.6
Pd 29.3907 24.7108 19.8637
Au 25.6671 19.037 30.2754
Pd 13.4466 9.80295 16.1463
Au 20.8526 20.4047 32.8462
Au 27.596 25.9453 28.0502
Pd 17.9331 30.8803 19.3606
Au 29.2199 26.9144 26.0292
Au 21.6654 27.7661 24.1273
Au 19.5062 32.8454 23.4533
Au 22.2962 27.0146 29.2118
Au 26.8152 30.7019 22.938
Au 19.9609 30.9879 21.1495
Pd 22.4233 20.8826 27.7056
Au 25.9595 15.7315 32.5122
Pd 23.068 25.6154 20.0502
Pd 21.7006 14.04 12.5188
Pd 12.2866 25.9784 29.6366
Pd 24.4339 8.51816 19.8935
Au 12.6146 10.8532 21.1075
Pd 13.2117 15.4071 24.0233
Au 10.2091 16.6578 28.4737
Au 18.7227 30.1699 16.8567
Au 28.1213 12.219 14.564
Au 10.5358 17.9643 11.546
Au 20.0176 9.55268 21.7013
Au 11.3289 13.0011 27.7353
Pd 20.3743 18.3872 14.5877
Au 17.9215 22.6443 28.8701
Au 33.0437 16.7849 15.5737
Pd 21.5327 22.6945 23.6328
Au 25.9158 18.4735 25.3801
Pd 16.5926 18.3701 18.2099
Pd 27.9663 10.6016 19.4797
Au 25.355 6.3627 17.1667
Au 16.6645 12.1299 23.1668
Au 17.6478 27.7188 5.73346
Au 15.0815 24.959 20.1631
Au 8.18689 30.0189 17.0983
Pd 26.9013 22.0068 26.485
Au 25.5205 18.0482 16.9409
Au 18.2119 11.9158 13.5444
Au 26.3359 30.5011 25.6056
Au 24.4649 11.2329 9.42637
Au 21.678 30.4559 10.4542
Au 29.7928 22.5987 30.9034
Au 23.4705 29.2146 12.2457
Au 30.4333 17.8553 22.3285
Au 22.9955 18.9124 18.4622
Au 15.1975 23.2341 33.138
Au 17.1306 16.9149 31.1248
Au 19.6851 22.2491 21.5415
Au 16.7094 32.4291 12.3466
Au 8.02397 19.203 24.9307
Au 12.9764 32.0015 25.4697
Au 16.7554 31.0083 10.0084
Au 16.6579 6.81549 20.6696
Pd 20.4891 22.4765 17.1497
Au 13.981 9.11146 11.6548
Au 22.7839 10.0433 21.7135
Pd 20.8484 26.7584 18.7563
Au 19.7795 25.8373 21.2645
Pd 11.4461 20.861 24.9964
Au 15.4685 19.37 9.03641
Au 23.0489 13.4401 10.2613
Pd 30.7878 13.6982 28.7364
Pd 27.3573 9.61725 28.4113
Au 32.5972 20.2206 18.7529
Au 10.923 24.7732 10.0538
Au 17.6352 8.86787 14.398
Au 19.8272 13.895 14.6253
Au 18.9173 6.74444 22.1166
Pd 25.5266 17.7441 19.6122
Au 26.4752 14.1265 13.8342
Pd 22.092 23.0802 12.7307
Au 21.1739 21.3214 10.524
Pd 26.6876 12.2526 23.4981
Au 14.4117 33.8247 16.3174
Au 26.2837 23.5137 24.0949
Pd 17.288 30.9904 24.4163
Au 15.6005 19.3394 30.9588
Au 23.2764 21.6665 33.496
Au 22.2886 11.6945 31.4711
Au 22.6702 27.8185 6.51365
Au 20.7564 20.7471 13.1894
Au 28.8661 14.9863 15.3612
Au 21.5781 11.9322 14.56
Pd 22.4878 24.674 10.6067
Au 22.0381 32.9416 22.14
Pd 15.6221 23.5611 27.2284
Au 16.7037 9.43904 24.6247
Pd 11.4482 21.7775 14.9059
Au 25.4686 9.00289 30.0787
Au 19.2554 24.1939 23.5841
Au 27.9247 16.7761 26.303
Au 12.5858 24.555 21.3994
Au 26.4866 20.7099 24.0083
Au 23.518 12.4206 29.02
Au 25.739 12.6564 16.0836
Au 31.7201 14.6493 16.6189
Au 27.6082 19.4135 10.5191
Pd 28.4805 12.8142 27.2693
Au 8.84523 30.3089 19.8323
Au 13.7432 25.7398 7.49704
Au 15.3909 14.2025 24.7953
Au 27.8967 17.5759 21.0447
Pd 25.7055 24.9635 26.3584
Pd 17.1725 28.385 10.382
Au 13.8468 11.0261 13.7801
Au 19.8654 21.0976 8.08036
Pd 13.1789 14.989 17.283
Au 32.6904 17.4842 18.091
Pd 24.4191 8.26024 22.7803
Au 28.4394 19.7183 25.8321
Au 29.9713 22.0544 26.3462
Au 24.1853 23.6833 8.54216
Au 11.593 14.7072 21.676
Au 14.5292 17.2167 32.5523
Au 15.4763 18.7984 27.9631
Au 17.5736 29.388 22.1967
Au 17.8885 6.16378 18.1343
Au 17.8733 23.5999 33.293
Au 14.2588 22.2241 16.2478
Au 19.2997 34.8589 15.2921
Au 27.0824 29.5469 20.4142
Au 12.5972 22.3898 33.0297
Au 21.8659 27.154 32.0406
Au 8.15151 19.3876 21.8383
Au 16.8839 21.0604 26.5155
Pd 18.4621 28.1658 19.9236
Au 18.0449 9.9711 28.6499
Au 19.9391 25.4054 33.211
Pd 9.51001 26.8408 13.8369
Au 16.9029 33.639 23.8967
Au 27.1921 15.0998 22.4396
Au 21.6142 20.2731 16.1833
Au 21.4605 13.818 27.8823
Pd 19.6565 10.5001 18.8185
Au 11.426 15.7942 10.1787
Au 13.5631 29.7767 18.6056
Pd 12.5427 13.1316 12.7106
Au 12.1165 30.977 13.3461
Au 7.08703 22.4963 12.0187
Au 25.3419 29.5739 28.0462
Pd 10.3716 24.4035 14.5847
Pd 26.6699 8.48753 18.2581
Au 12.4162 20.7645 17.9084
Au 10.8631 18.1972 18.1945
Au 21.8026 9.55691 24.3499
Au 22.0222 15.5647 14.8525
Au 27.5091 27.2515 18.4848
Au 23.5188 20.5878 20.5948
Pd 26.8939 22.3268 21.6337
Pd 8.46174 27.9735 21.1368
Pd 12.1172 22.2059 10.1227
Au 24.4132 32.7078 20.832
