923
Atoms. Timestep: 20677
Au 18.5424 17.6173 21.3401
Au 21.6054 19.9515 18.1209
Au 21.6881 20.0832 21.0026
Au 16.699 19.7445 21.3104
Au 14.1834 19.2209 22.633
Au 17.2116 21.9323 22.8856
Au 19.1883 20.0943 19.7207
Au 14.1608 18.0788 19.928
Au 20.7646 17.7644 19.6996
Au 16.9546 18.1991 19.0864
Au 18.3454 24.1639 21.8811
Au 19.2007 18.4594 17.2939
Au 18.3748 23.2043 17.4352
Pd 24.1401 19.9283 16.6185
Au 24.1513 20.0169 19.4283
Au 24.164 20.1862 22.2436
Pd 13.6849 21.5457 16.8935
Au 13.5039 22.7746 19.4848
Au 15.1252 15.053 23.7978
Pd 15.5528 24.1735 20.987
Au 20.1611 24.9779 19.7928
Au 22.8491 24.9538 20.1192
Pd 15.6297 15.8314 19.0685
Au 20.0731 15.2302 20.7371
Au 22.5975 15.459 19.8153
Au 19.3289 17.9941 24.5386
Au 19.2995 20.0409 22.5885
Au 17.4955 23.4919 25.212
Au 19.4572 16.2775 15.505
Au 19.2984 20.9711 15.807
Au 21.428 23.0311 13.4117
Au 21.7639 19.6427 23.8251
Au 22.2876 22.2346 23.0192
Au 21.6837 18.375 15.9054
Au 21.9679 21.3009 15.6276
Au 15.9146 16.9621 21.8302
Au 19.7822 22.5609 23.8868
Pd 16.948 16.777 16.6575
Au 12.8081 22.2373 14.0638
Pd 23.401 22.2502 17.8667
Au 23.3936 22.4234 20.5977
Au 15.7349 23.0967 18.0193
Au 12.3964 20.4397 20.7036
Au 23.3012 17.6927 18.181
Au 23.308 17.8012 21.1056
Au 17.3493 20.6016 17.7303
Au 13.2075 16.6587 22.1669
Au 17.4742 25.122 19.3226
Au 20.2937 22.4575 21.1098
Au 17.3434 14.7594 21.0371
Au 21.0266 17.1268 22.5769
Au 17.4688 22.2553 20.0543
Au 20.7151 22.4248 18.4566
Au 18.4839 15.8781 18.6419
Au 21.0987 16.0485 17.5893
Au 26.5176 19.8881 15.1623
Au 26.5907 19.8884 17.9941
Au 26.631 19.9763 20.8464
Au 26.5967 20.0376 23.6505
Au 9.97885 18.8384 16.5065
Au 11.3068 13.1935 19.3428
Au 13.7001 16.7911 17.3505
Pd 10.0522 18.9329 26.3604
Au 14.598 26.3223 25.0486
Au 14.5607 25.4108 18.6645
Pd 21.8091 27.2525 18.7982
Au 24.5887 27.0033 19.1537
Au 14.1817 13.4485 18.6537
Au 18.7318 12.5656 20.1522
Au 21.406 12.805 19.9867
Au 24.1333 13.0472 19.8853
Pd 19.6559 16.2647 26.7105
Pd 20.5056 19.7272 26.2947
Pd 19.7276 22.4257 26.5877
Au 17.5358 24.219 28.1085
Pd 19.1606 14.1373 13.5589
Pd 19.632 16.4646 12.1345
Pd 20.6729 19.9222 10.7174
Au 18.4106 23.307 14.2062
Pd 24.2565 18.7247 24.5854
Au 21.9462 17.4128 25.488
Pd 24.5507 21.7119 24.4902
Pd 22.225 21.758 25.7121
Au 21.6913 24.3657 24.9374
Au 24.1394 18.2071 14.4784
Au 21.8314 16.6075 13.78
Au 24.2035 21.1596 14.0129
Au 21.9066 19.5875 13.3272
Au 22.7852 21.5098 11.535
Au 12.3861 15.5954 24.5051
Au 16.9078 16.3965 25.5555
Au 12.7925 19.8736 25.5847
Pd 16.7763 18.6667 23.828
Au 18.1195 20.6025 25.1713
Au 11.0941 21.2581 15.9258
Pd 16.0555 13.8573 13.9194
Au 17.1883 19.1979 15.2201
Au 19.5239 18.5419 14.0534
Au 15.2979 23.3456 13.4769
Au 24.9702 24.5166 18.0392
Au 25.9121 22.3023 16.5005
Pd 25.4079 24.7676 20.7795
Au 25.9055 22.2944 19.3642
Pd 25.8706 22.4234 22.1645
Au 8.48285 20.4485 14.8064
Au 12.387 19.3499 18.2214
Au 10.773 23.6233 26.4569
Au 11.8974 23.8207 17.0646
Au 11.5696 18.3468 23.6726
Au 24.9316 15.2792 18.2679
Pd 25.7096 17.5508 16.719
Au 24.9708 15.368 21.2107
Au 25.7603 17.6153 19.5819
Au 25.7795 17.6968 22.4452
Au 12.3172 14.4645 16.8938
Au 12.6573 18.7983 15.6136
Pd 11.5859 11.6789 23.0333
Au 10.7906 12.5917 15.4072
Au 12.0872 14.1417 22.0277
Au 15.1018 23.8129 23.7585
Au 15.1397 23.978 26.6657
Au 19.261 25.5111 24.1628
Au 16.6654 25.9021 23.096
Au 21.2563 25.2239 22.3268
Au 18.3551 15.7274 23.3815
Au 16.1284 12.1813 21.0379
Au 21.0772 14.9609 24.5713
Au 19.7562 13.4395 22.6878
Au 22.5226 14.0189 22.2463
Pd 16.4343 22.0637 15.6189
Au 12.3371 26.5642 17.6123
Au 20.5026 23.6717 15.8291
Au 19.4163 25.8513 17.3609
Pd 22.0435 24.6906 17.6387
Au 17.8964 14.0046 15.9283
Au 16.8856 13.4305 18.4025
Au 21.2858 14.2914 15.2918
Au 19.8466 13.5377 17.7638
Au 22.6839 13.6417 17.5626
Au 23.5114 16.2797 23.4712
Au 23.8989 24.3905 23.0339
Au 23.45 15.9398 15.9825
Pd 23.6247 23.6017 15.4699
Pd 14.6488 14.4001 21.2322
Au 15.1411 21.1927 24.5574
Pd 15.1312 19.0544 17.1102
Au 12.9242 29.527 16.5194
Au 28.9854 19.6292 13.7834
Pd 29.009 19.7204 16.6073
Au 29.0764 19.7689 19.4684
Au 29.0927 19.8183 22.3009
Au 29.0136 19.8556 25.1354
Pd 7.36077 18.9938 16.9073
Au 15.0429 20.6022 19.2828
Au 6.68731 19.1651 19.587
Au 7.48997 18.3127 26.2337
Au 10.0295 19.208 31.135
Au 17.8405 33.7278 19.8598
Au 15.9139 27.0626 20.6102
Au 18.951 30.8838 19.9839
Au 20.9918 30.0445 18.1908
Au 23.4448 29.5333 19.8808
Au 13.3832 9.29646 19.6417
Au 17.3658 9.99763 20.0171
Au 20.103 10.2109 19.9547
Au 22.8777 10.4117 19.9564
Au 25.6693 10.6563 19.908
Au 22.256 14.1522 29.9863
Pd 19.9464 17.9723 28.8407
Au 19.2519 20.6452 28.5455
Au 19.769 25.0867 26.834
Au 20.0447 26.8241 28.9276
Au 19.8136 14.3936 10.203
Pd 20.0977 14.7345 7.61379
Au 18.352 18.9212 11.5962
Au 18.2583 21.2879 9.92521
Pd 20.4576 25.4931 9.74535
Au 26.6743 18.5155 26.0352
Au 24.4449 17.116 26.9057
Pd 22.0916 15.8096 27.7782
Au 26.8081 21.422 26.0579
Au 24.3648 20.0819 26.9111
Au 22.3369 18.6353 27.9294
Pd 24.5924 22.7298 27.0353
Au 21.9204 21.3407 28.3222
Pd 22.2548 23.9684 27.6549
Au 26.5304 17.9567 13.0691
Pd 24.2904 16.4034 12.3014
Au 22.0545 14.8685 11.6301
Au 26.6969 20.6756 12.4502
Au 24.2777 19.2214 11.8884
Pd 22.0227 17.6612 11.2264
Pd 26.1377 23.0167 13.8152
Pd 24.3023 20.2369 9.33777
Pd 20.3143 22.8528 10.8927
Au 13.7098 13.1087 27.9929
Au 14.1832 15.4529 26.6472
Pd 17.4645 15.0008 27.9565
Pd 15.6177 19.3339 26.356
Au 15.7723 17.1594 27.9225
Au 18.0843 18.4904 27.0088
Au 15.2196 28.2777 23.2275
Au 16.8579 21.6718 27.3415
Au 15.2252 26.5772 27.9321
Au 11.1331 19.7108 13.5391
Pd 15.121 15.9251 12.4145
Au 17.4968 14.6911 11.5525
Au 9.99249 22.2772 13.3829
Au 17.3993 16.4246 13.8184
Au 16.7589 17.0849 10.3994
Au 15.3184 25.0513 10.9655
Au 19.543 21.1127 12.9358
Au 19.9106 23.3343 8.28213
Pd 26.1126 29.0689 18.492
Pd 27.0203 26.5844 17.7711
Au 28.4118 22.0991 15.0441
Au 27.1181 26.8969 20.5934
Au 27.7784 24.4628 19.3489
Au 28.3767 22.0954 17.9975
Au 27.72 24.6206 22.2469
Au 28.4057 22.202 20.8576
Au 28.3213 22.2436 23.6824
Au 9.97553 26.5972 19.4014
Au 8.01487 27.8256 16.4044
Au 7.87448 24.1203 13.5578
Pd 9.39717 23.4349 15.7521
Au 10.2979 22.7934 21.0451
Au 11.0826 21.7327 18.6356
Au 14.6919 21.7474 21.8071
Au 10.0619 16.0313 22.7513
Au 12.167 20.9156 29.8725
Au 26.5092 12.8652 18.3674
Au 27.3112 15.1223 16.8447
Au 28.0876 17.3953 15.317
Au 26.5504 12.9763 21.2623
Au 27.3913 15.1911 19.7065
Au 28.1892 17.4632 18.1571
Pd 27.3885 15.2593 22.5484
Au 28.2365 17.4877 21.0037
Au 28.198 17.5416 23.823
Au 12.5838 11.4459 17.705
Au 10.9996 9.79693 15.2472
Au 5.77 17.5352 15.2723
Au 6.87374 12.4694 22.2936
Au 8.41071 12.6353 19.4364
Au 7.90749 13.0025 16.4429
Au 7.19972 10.5384 17.4826
Au 9.72513 16.3341 25.3593
Pd 11.4807 14.7784 27.193
Au 17.2496 26.1535 26.0258
Au 18.0149 28.1229 23.9926
Pd 11.7497 30.6767 21.7752
Au 22.0902 26.6456 26.8819
Pd 20.7144 27.8649 23.4965
Au 20.8529 28.6753 20.9563
Au 23.1361 26.9579 24.2326
Pd 18.8989 26.7796 21.5758
Au 23.2462 27.2108 21.5463
Au 18.6843 14.0112 25.6657
Au 14.3757 12.2963 23.275
Au 13.3353 11.8348 20.7683
Au 21.2296 13.3346 26.9697
Au 20.1004 11.8369 24.8605
Au 20.1999 8.58715 22.3624
Pd 22.7474 12.4484 24.5033
Au 21.4069 11.1984 22.3343
Au 24.188 11.5487 22.2376
Au 16.8506 27.1441 17.624
Au 12.1601 29.6695 19.2835
Au 9.7852 30.8095 19.5707
Au 22.0069 25.6049 14.5159
Au 17.0357 27.6952 14.949
Au 19.0698 27.9198 19.1167
Au 20.9366 27.8581 16.2275
Pd 18.5232 29.4469 16.9318
Au 23.402 29.1189 17.2184
Pd 17.7316 11.713 14.073
Au 17.1868 9.71768 12.3912
Au 15.3236 10.9223 18.5504
Au 21.3518 12.6263 13.0285
Au 20.0044 11.8702 15.4098
Au 18.3662 11.0985 17.562
Pd 22.8291 11.9476 15.3116
Pd 21.369 11.1095 17.6519
Au 24.2245 11.2906 17.5907
Pd 25.9335 16.131 24.7774
Au 26.2345 23.8785 24.5843
Pd 25.0851 13.8313 23.5257
Au 25.665 26.5413 23.0518
Au 23.6205 14.726 25.7475
Au 24.1544 25.0606 25.8353
Au 25.8202 15.7357 14.5519
Au 25.9378 25.1521 15.5701
Pd 25.057 13.5114 16.0517
Au 23.5933 26.4581 16.5366
Pd 23.6136 14.1737 13.7878
Au 23.8641 23.9177 12.7081
Pd 12.9673 16.4755 28.995
Pd 9.973 21.0982 24.8016
Au 7.8885 14.3619 24.0806
Au 9.8251 20.2288 21.9397
Au 15.9718 13.6039 25.9717
Pd 14.337 29.5669 21.0589
Au 13.6868 20.2928 12.2107
Pd 14.1879 24.1498 15.8335
Pd 15.992 11.884 16.1448
Au 18.3785 27.8024 12.3835
Au 15.2068 14.6592 16.3894
Au 17.0054 25.4736 13.229
Au 31.0942 17.9879 10.3955
Pd 31.4015 19.5289 15.2873
Au 31.4551 19.5884 18.0964
Au 31.5356 19.6002 20.9548
Au 33.8681 19.4674 22.4253
Au 31.5126 19.6612 23.7912
Au 8.97803 19.7811 11.9172
Au 8.01572 17.179 11.4548
Pd 13.9471 25.9639 22.3234
Pd 8.50582 17.7447 21.3357
Pd 7.78187 14.9754 21.3568
Pd 8.93651 18.6372 23.9131
Au 12.4154 28.0988 23.0083
Au 13.8416 32.3186 21.4754
Au 20.4324 35.4267 17.3745
Au 20.5232 32.8879 18.7045
Pd 23.4357 32.2288 19.2784
Pd 25.9904 31.4527 20.0515
Pd 11.3744 8.97345 17.9072
Au 15.8785 7.65123 19.9497
Pd 18.8566 7.72784 20.0415
Au 21.6335 7.86253 20.0275
Au 24.4443 8.05772 20.0002
Au 27.2242 8.31996 19.9518
Au 22.3983 12.6922 32.2371
Au 20.0817 17.3861 31.4221
Au 18.5778 19.5109 30.9047
Au 20.1214 21.8277 31.1498
Au 20.5174 25.0188 31.165
Pd 21.2591 29.1824 27.7112
Pd 20.0515 12.0906 8.44109
Au 20.5588 15.4249 5.11923
Pd 17.4258 18.9661 8.39937
Au 21.9211 21.5481 8.90733
Au 22.7043 23.961 10.1663
Au 15.1788 25.3268 8.1659
Au 29.106 18.3699 27.5473
Au 26.8543 17.0054 28.4551
Au 24.6033 15.5878 29.2587
Au 24.4861 14.2474 31.6105
Au 29.1883 21.2137 27.5886
Au 26.812 19.8754 28.4933
Au 24.6053 18.5176 29.4451
Au 22.4208 16.9665 30.2355
Au 26.9525 22.6577 28.5494
Pd 24.4852 21.3216 29.4543
Au 21.8106 19.6881 30.5329
Pd 24.7685 24.1946 29.2619
Pd 19.934 23.4634 29.0773
Au 22.6058 25.8755 29.7066
Au 28.8402 17.8162 11.6531
Pd 26.6561 16.2209 10.8344
Pd 24.4595 14.7012 10.0986
Pd 22.2954 13.2421 9.30679
Au 28.2252 24.7959 13.777
Au 26.5928 18.9336 10.3492
Au 24.381 17.4427 9.66896
Au 22.0915 15.9304 9.04521
Au 25.2818 22.4277 10.7935
Au 25.2869 22.4618 8.07428
Au 19.6345 17.3933 9.56224
Au 24.9042 24.9575 9.11772
Pd 19.8187 20.0045 8.12364
Au 22.7759 23.6271 7.51155
Au 9.43208 16.6177 27.9779
Au 13.3692 15.8646 31.7014
Pd 15.1731 14.9901 29.4529
Au 19.7988 15.252 29.4415
Au 12.598 18.4498 31.1669
Pd 13.7818 19.0789 28.4494
Au 15.1016 17.6942 30.4849
Pd 16.5793 19.5018 29.0658
Au 12.6963 23.3197 28.503
Pd 14.7631 21.3978 29.868
Au 17.405 21.9956 30.0896
Au 15.2692 24.1018 29.5911
Au 17.9503 24.2619 31.3261
Au 19.3717 29.8661 29.5047
Pd 13.4022 20.62 9.5836
Au 12.2982 16.8459 8.76789
Au 15.2536 14.5275 10.1071
Pd 13.3269 15.2124 14.3373
Pd 11.4692 21.6523 11.1816
Au 13.5813 21.2643 6.91145
Pd 14.1249 17.8478 10.4785
Au 17.6638 15.5406 8.4352
Au 14.6945 20.2936 14.6582
Pd 15.9547 19.7832 10.5005
Au 15.8391 18.4991 12.7898
Au 13.9992 28.7565 14.0187
Au 15.832 21.4042 8.4856
Au 15.8365 29.9352 10.8104
Au 28.4616 29.2357 20.2612
Au 29.5826 26.6703 19.3062
Au 28.0337 27.2103 15.153
Au 33.0403 21.7519 15.3726
Au 30.2011 30.8508 21.6003
Au 31.2142 28.6804 20.1057
Au 30.4245 24.2843 18.2135
Au 28.3346 24.4847 16.5304
Au 29.5738 26.7268 22.1835
Pd 30.2484 24.3415 20.9436
Au 30.7844 21.951 16.6875
Au 30.1318 24.3952 23.7953
Au 30.8953 22.0265 22.3613
Au 30.7527 22.0386 25.2303
Au 7.49307 26.0944 18.5661
Au 8.07976 26.9528 21.4084
Pd 6.89773 23.4942 18.1528
Au 11.8112 26.5843 12.2603
Au 5.94652 21.0557 17.7881
Au 8.07601 22.3 22.7644
Au 12.194 21.1798 23.2684
Au 14.5684 26.8952 16.0104
Au 11.892 25.707 24.4023
Au 12.7085 23.6468 22.1753
Au 7.98018 24.3461 20.75
Pd 9.74872 27.4526 23.7824
Au 11.1203 16.521 15.2013
Pd 9.5399 19.5527 19.2512
Pd 28.0709 10.5173 18.4538
Au 28.9086 12.7183 16.954
Au 29.6971 14.9786 15.4095
Pd 30.4191 17.2228 13.8803
Au 28.1209 10.6155 21.2943
Pd 28.9736 12.8299 19.7851
Au 29.8265 15.0505 18.2813
Au 30.5855 17.2966 16.7394
Au 28.9741 12.9168 22.6194
Pd 29.8237 15.1132 21.1025
Pd 30.6545 17.3341 19.6061
Pd 29.7599 15.1845 23.9313
Pd 30.6585 17.3789 22.4197
Au 30.586 17.4339 25.2558
Au 10.8969 10.658 20.2863
Au 6.49293 10.9869 20.0566
Au 11.3249 14.0763 12.9355
Au 7.10236 21.6162 12.8866
Au 5.53434 13.7313 20.3535
Au 9.5787 13.0314 21.8701
Au 5.99451 14.8438 15.9629
Au 5.72084 17.0502 17.9059
Au 8.7952 9.32821 19.3104
Pd 9.73148 14.5517 17.4606
Pd 8.61744 21.41 17.4017
Au 7.34138 15.6871 26.3342
Au 7.13634 14.8663 18.5238
Pd 11.1418 18.6583 28.782
Au 17.8413 28.2386 27.9174
Au 18.5745 30.2106 25.7268
Au 19.5159 30.527 22.9128
Au 10.9924 27.6181 26.2585
Au 19.7733 27.7288 26.0221
Au 21.2798 30.3547 25.1957
Pd 16.5329 30.5641 23.8023
Au 12.1829 32.345 19.3651
Au 23.532 28.9568 26.0482
Au 22.8008 29.5668 22.9681
Au 21.5454 31.254 20.8399
Pd 25.378 29.4338 24.0167
Au 24.3072 31.5891 22.0259
Pd 25.5599 28.9421 21.3638
Au 18.7543 11.2011 30.5334
Pd 17.1173 13.1118 23.4882
Au 9.06332 13.594 26.6805
Au 16.2973 10.4591 24.0125
Au 18.726 15.3457 32.4429
Au 20.1851 10.3777 27.273
Pd 18.8358 9.36551 24.6845
Au 17.3855 8.42874 22.3607
Au 22.8399 10.9164 26.7647
Au 21.6027 9.55943 24.6513
Au 20.3877 7.029 24.6929
Au 24.3588 10.0035 24.5299
Au 23.0232 8.81221 22.3401
Au 25.8252 9.12307 22.2624
Au 17.9339 28.5288 9.80404
Pd 16.4375 29.8209 13.4656
Au 10.4027 28.5701 17.5571
Au 8.39016 30.3569 17.183
Pd 19.2414 26.1473 14.7582
Au 20.8868 27.8929 13.3055
Au 17.3686 31.6153 15.3292
Au 16.3443 31.5639 20.9219
Pd 23.2808 28.1505 14.311
Pd 21.7103 30.1838 15.0321
Au 19.9216 34.4091 14.958
Au 24.4896 30.4417 15.124
Au 22.6112 32.1491 16.7451
Au 27.897 31.1121 18.2313
Au 18.9407 12.1611 11.5644
Au 17.7211 7.80711 10.7004
Au 16.2086 9.16331 15.1141
Au 14.8029 8.45108 17.4293
Au 21.4236 11.0756 10.7715
Au 20.0363 10.0722 13.0119
Au 18.8398 9.2971 15.3757
Pd 17.4752 8.46926 17.6875
Au 22.9367 10.3069 13.0598
Au 21.5912 9.41654 15.3709
Pd 20.1996 8.58044 17.6995
Au 24.4134 9.60594 15.3403
Au 22.9967 8.72155 17.669
Pd 25.8185 8.95946 17.6521
Au 28.3168 16.0266 26.2147
Au 28.6117 23.6154 26.2123
Pd 27.5285 13.7417 24.8964
Au 28.0212 25.9816 24.7401
Au 26.71 11.426 23.6196
Au 27.7649 28.3569 23.2255
Pd 26.0836 14.6255 27.1195
Pd 26.4901 25.0081 27.191
Au 25.2654 12.2962 25.8337
Au 25.8527 27.3705 25.7547
Au 23.8199 13.1538 28.0339
Au 24.5066 26.8067 28.0507
Pd 28.2039 15.5669 13.1036
Au 30.7744 21.7568 13.7041
Au 27.4605 13.3547 14.6001
Au 27.4681 27.1276 12.4018
Au 26.6715 11.138 16.1005
Pd 25.5929 27.9891 15.7872
Au 25.9685 14.024 12.326
Au 26.3293 24.7605 11.6202
Pd 25.2012 11.8285 13.8304
Pd 24.9541 26.3147 13.455
Pd 23.7385 12.5057 11.5662
Au 22.4906 26.139 11.8655
Au 8.45891 18.9394 28.8171
Au 9.46554 21.3442 29.6113
Au 9.66836 14.3538 29.2594
Pd 11.1786 21.174 27.3926
Pd 10.496 13.7544 24.4413
Au 12.8379 25.5488 26.9449
Au 14.9374 11.1244 26.2751
Au 14.3687 17.5592 24.7659
Au 12.9449 12.9878 25.4212
Au 16.0917 28.7246 25.9136
Pd 16.2746 12.4227 28.4633
Au 14.1167 21.4869 27.2335
Pd 8.15072 16.4422 16.2221
Au 12.8933 23.9381 11.8633
Au 14.9492 17.2475 14.9747
Au 11.5593 24.6864 14.4075
Au 13.63 10.0933 15.7088
Au 12.6204 27.2589 20.4145
Au 12.9707 17.6602 13.0469
Au 16.8016 24.9449 15.9631
Pd 15.0423 11.1021 13.6244
Au 12.0722 31.1488 14.5616
Au 13.9086 13.3005 12.3518
Pd 15.7348 27.5583 12.2023
Pd 29.5353 20.3857 11.2065
Au 31.7918 21.7394 11.2457
Pd 32.9486 17.211 18.1489
Au 33.33 21.7678 21.0216
Au 33.2836 21.8309 23.9072
Au 33.7648 19.5295 25.2756
Au 33.0131 21.7943 26.7255
Au 5.71208 20.2365 15.1505
Au 11.6045 18.8681 10.8313
Pd 9.28336 14.6794 14.5847
Au 11.116 29.7606 24.4482
Au 8.39438 17.1826 18.761
Au 12.2133 17.4097 26.5799
Au 7.02795 16.8981 23.5607
Au 13.2231 32.4553 16.8373
Au 15.0763 32.8505 23.8973
Au 22.4888 34.6722 15.863
Au 15.005 33.4876 19.1673
Pd 22.6094 34.718 18.6661
Au 24.7681 34.1197 17.278
Au 26.9157 33.7162 18.7169
Au 12.5551 7.61182 15.9872
Au 14.9594 8.02248 23.9273
Au 16.1384 6.11118 22.2949
Au 20.3897 5.46275 20.1022
Pd 23.2051 5.67549 20.0896
Au 26.0046 5.81904 20.0661
Au 28.7074 6.12697 20.0346
Au 20.1353 17.1441 33.9748
Au 20.0217 13.318 31.3515
Au 17.6092 17.8391 32.8412
Au 18.0006 21.5794 32.918
Au 19.9745 23.319 33.3713
Au 22.2381 26.7334 32.2994
Au 20.0949 31.7247 27.4211
Au 18.08 12.8656 6.73106
Au 16.7228 17.5074 6.39681
Pd 22.2316 16.8327 6.55626
Pd 18.6303 19.5061 5.79638
Au 15.5528 23.1412 6.6197
Au 20.8417 21.7999 6.33818
Au 18.0774 21.8392 6.97833
Pd 31.386 19.695 26.6307
Au 31.4085 18.3129 28.9616
Au 26.8968 15.5846 30.8033
Au 24.6769 16.979 31.8082
Pd 17.6305 16.8072 30.1025
Pd 29.1839 19.7309 29.951
Au 29.1843 16.9632 29.9092
Au 26.94 18.3901 30.9343
Au 22.4165 18.2218 32.7945
Pd 21.7327 15.4079 32.3793
Pd 26.8892 21.157 30.8833
Au 24.7471 22.6148 31.8484
Au 24.5188 19.8302 31.8023
Au 20.1525 19.7411 33.1068
Au 27.0074 23.912 30.9066
Au 22.4957 23.0716 30.3526
Pd 22.3704 21.3435 32.6041
Au 24.6434 25.3044 31.6755
Pd 22.5049 24.0848 32.8048
Au 21.8078 28.5299 30.3465
Au 32.6532 16.9736 12.4546
Pd 28.9854 16.2455 9.47069
Au 26.8306 14.5888 8.67614
Au 24.6721 13.0227 7.91658
Au 22.4178 11.5647 7.16766
Au 29.8414 22.8951 9.91275
Pd 28.8637 18.9376 9.01124
Au 26.7771 17.2779 8.16173
Pd 22.5601 14.2041 6.69666
Au 20.4877 12.8403 5.75873
Pd 28.4004 22.7146 12.1126
Pd 27.5412 21.363 9.71349
Pd 24.5748 15.7396 7.57252
Au 22.0994 18.6854 8.59757
Au 26.4793 19.9522 7.72036
Au 24.3756 18.4295 7.05631
Pd 21.3814 19.2477 6.04776
Au 22.8083 26.7211 9.31951
Au 23.4333 20.9349 6.76744
Pd 17.8235 25.9556 10.433
Pd 7.08407 19.7908 22.1815
Au 10.7343 16.5106 30.4825
Au 14.7 13.3396 31.3994
Pd 17.4226 13.777 30.5348
Au 17.7332 11.4405 26.2304
Au 11.2361 17.9169 20.7283
Au 10.668 23.6984 30.1828
Au 10.901 21.6405 31.9999
Pd 13.5131 20.6888 32.2675
Au 14.6569 17.9609 33.0338
Pd 10.6131 25.6887 28.3154
Au 13.0906 23.2401 31.3406
Au 15.6077 22.6465 32.2495
Au 16.0531 19.9272 31.8584
Pd 12.9542 25.5932 29.8969
Au 15.0423 25.2373 32.0015
Au 17.2415 24.3188 33.7756
Au 17.1096 32.5123 25.7393
Au 19.4309 25.9202 33.4002
Au 19.396 27.7271 31.3943
Au 8.9049 22.4781 10.9022
Au 11.737 19.2881 7.96098
Pd 13.0212 14.3044 8.67465
Au 15.6896 13.8974 7.41125
Au 14.4898 12.15 9.22883
Au 10.5245 16.6473 12.2286
Au 11.3574 21.9461 8.30875
Au 14.5805 18.8876 7.88592
Pd 18.0223 15.2791 5.81137
Au 17.4438 12.7784 9.26261
Pd 11.1339 24.0476 9.83691
Pd 15.1402 22.3439 10.967
Pd 15.0025 16.3564 8.21046
Pd 19.5195 17.3205 6.91791
Au 13.0863 25.9991 9.89403
Pd 16.0743 20.2248 6.12139
Au 13.6412 23.3321 8.92086
Au 17.198 23.7641 8.87192
Pd 15.4899 27.4827 9.59401
Au 19.8437 25.2131 12.3292
Au 30.4889 30.9778 18.8685
Au 31.4839 28.8915 17.4194
Au 30.3957 26.4922 16.447
Au 30.7288 24.1949 15.0062
Au 30.8496 24.0553 12.287
Au 28.5799 32.5904 20.456
Pd 32.0435 26.3891 21.1964
Pd 32.1639 26.4456 18.4885
Au 32.7119 24.1103 16.8853
Au 33.7035 19.4266 16.6995
Au 31.1689 28.7516 22.8373
Au 31.8634 26.4131 23.9732
Au 32.7564 24.0832 19.7081
Au 33.2696 21.7605 18.144
Pd 29.8272 27.9427 25.0221
Au 32.6622 24.1284 22.5205
Pd 30.9055 21.9467 19.5522
Au 30.4271 25.6567 26.3482
Au 32.4743 24.1096 25.3577
Au 31.475 21.0208 28.9984
Au 13.6754 30.563 23.6992
Au 16.8215 21.0799 12.9175
Au 7.36107 25.2366 15.9842
Au 10.5721 25.6761 21.9326
Au 9.32362 26.5198 14.1249
Pd 11.8898 24.7479 19.7095
Au 14.3855 28.1844 18.5192
Au 17.2672 34.0755 14.4078
Au 8.20155 25.0997 23.3948
Pd 8.95524 17.8432 14.0787
Pd 12.9543 22.9874 25.1574
Au 8.15355 23.1524 25.4322
Pd 14.5052 30.9608 18.647
Au 5.98581 16.7284 20.6495
Au 7.25726 20.5837 24.7381
Au 10.3937 23.5265 23.7385
Pd 9.92122 25.912 16.663
Au 9.22504 25.6628 25.8486
Pd 12.7794 15.6116 19.6537
Au 11.0398 16.9177 17.9981
Au 29.5918 8.23946 18.5533
Au 30.4079 10.4377 17.0584
Au 31.2152 12.661 15.5243
Au 31.9746 14.8893 13.987
Au 31.6889 19.4025 12.6106
Pd 29.5709 8.34629 21.3407
Pd 30.4696 10.5296 19.8472
Pd 31.3167 12.7359 18.3458
Au 32.1697 14.9507 16.8007
Pd 32.8219 17.2027 15.2573
Au 30.4639 10.6111 22.6687
Au 31.372 12.7861 21.1718
Au 32.2111 14.9943 19.6855
Pd 33.7855 19.4392 19.5253
Au 31.2901 12.8981 24.0123
Pd 32.1406 15.0627 22.5214
Au 33.048 17.2305 21.0261
Au 32.0802 15.1545 25.3622
Pd 32.9852 17.2905 23.8787
Au 32.842 17.4136 26.7119
Au 14.9187 6.68319 15.3718
Pd 9.86043 11.273 17.5792
Au 7.19854 13.1884 13.885
Pd 7.06191 15.9199 13.639
Au 9.66157 20.2856 9.413
Au 12.3552 9.19923 22.2489
Au 9.01827 8.7495 16.6937
Pd 13.927 8.62424 13.5099
Au 8.49999 10.8449 15.0201
Au 9.78193 17.5211 9.49828
Au 5.52552 14.8731 22.752
Au 5.69412 12.6743 17.9384
Au 6.66299 18.8427 13.094
Au 9.99177 24.6868 12.0969
Pd 11.1348 7.89574 20.3008
Au 8.81228 23.5796 28.1469
Au 7.86254 21.6142 20.051
Au 8.67531 11.7198 24.234
Au 9.45943 23.9387 18.521
Au 6.785 22.5935 15.5731
Pd 17.2408 30.8553 27.9436
Au 21.9947 33.2934 25.6926
Au 15.7962 34.1693 21.6218
Au 12.7524 27.8298 28.4055
Au 14.9063 31.1013 26.1486
Pd 23.833 29.4374 28.744
Au 21.7117 31.1001 29.5752
Pd 21.8355 32.2517 23.2801
Au 19.7964 33.164 21.6637
Au 20.1968 35.2029 19.9835
Pd 22.8855 31.4275 27.2521
Au 19.606 32.6494 24.8009
Au 23.996 31.6383 24.8104
Au 17.1386 31.7812 18.0547
Au 25.5101 30.642 26.8126
Au 24.0798 33.8875 23.3386
Au 22.3504 33.987 21.2407
Pd 26.7064 31.709 24.5854
Au 24.8668 34.1559 20.3947
Pd 26.4848 33.2393 22.2527
Pd 19.002 12.768 28.384
Pd 10.7958 11.3938 25.8186
Pd 16.5927 8.86064 26.2526
Au 18.5576 10.9558 22.4272
Pd 15.0089 9.73183 21.7417
Au 16.0453 15.6535 32.1172
Au 21.3539 11.6307 29.4573
Au 17.77 9.93583 28.4961
Au 17.5697 6.92261 24.6112
Au 13.7278 7.09897 21.4267
Au 23.0276 9.55248 28.9784
Pd 21.7854 8.18536 26.9153
Au 19.0496 7.92917 26.9151
Au 18.9737 6.09708 22.3753
Pd 24.4651 8.64388 26.7965
Au 23.1951 7.30437 24.6766
Pd 21.7901 6.34169 22.3775
Pd 25.9124 7.74818 24.5497
Au 24.6014 6.52027 22.3754
Au 27.369 6.85077 22.3002
Au 18.4152 30.4573 11.5772
Au 16.4404 32.2494 12.5405
Au 15.7032 29.6725 16.4111
Pd 16.7014 29.3836 19.1212
Au 10.1969 28.616 21.2845
Au 20.5317 28.0617 10.6137
Au 21.8583 32.6936 14.0391
Au 19.1106 29.7034 14.3033
Au 18.2379 34.0362 17.0858
Au 15.6421 33.5176 16.5198
Au 21.0522 30.5053 12.3352
Au 19.9059 31.9262 16.1895
Au 25.263 31.4701 17.427
Au 19.167 32.3651 13.35
Au 23.7191 31.1517 12.7431
Au 26.4678 31.5361 13.6418
Au 24.5345 33.1024 14.7895
Au 27.2494 30.0409 15.7785
Au 27.2074 32.8113 16.0426
Au 29.3867 33.2449 17.8053
Au 18.8848 10.1049 9.7888
Pd 16.2712 10.2138 9.80229
Au 16.3319 7.17027 13.1328
Au 16.1259 6.05025 17.7764
Pd 13.2694 6.79603 18.7196
Au 21.4444 9.57646 8.66325
Pd 20.4248 8.32772 10.9292
Au 19.0054 7.52549 13.1625
Au 17.652 6.71487 15.5264
Pd 17.5422 5.47179 20.0644
Pd 23.0635 8.80814 10.8663
Au 21.8048 7.73295 13.167
Au 20.4145 6.88583 15.4999
Au 18.9859 6.08151 17.82
Au 24.5459 8.04169 13.126
Au 23.2053 7.04731 15.4561
Pd 21.7772 6.26974 17.8036
Au 25.9702 7.3519 15.4483
Pd 24.5908 6.46071 17.7636
Au 27.3638 6.68451 17.75
Pd 30.6552 16.0271 27.6618
Au 29.2817 22.4647 30.0001
Au 29.9021 13.7184 26.3333
Pd 30.9327 23.3421 27.7116
Au 29.1151 11.4042 25.0195
Au 29.3071 30.4682 24.103
Au 28.2731 9.08749 23.6861
Au 27.4146 30.8025 22.2396
Au 28.4364 14.619 28.6223
Au 28.7883 24.8019 28.7366
Au 27.6515 12.2958 27.2797
Pd 28.2641 27.046 27.2556
Au 26.8363 9.94008 25.9624
Pd 27.6242 29.3523 25.8401
Au 26.1894 13.2112 29.536
Pd 26.6222 26.2527 29.6497
Au 25.3894 10.8178 28.1827
Au 26.4121 28.6405 28.3185
Au 23.9892 11.7429 30.3663
Au 24.4735 27.7144 30.6567
Au 30.5368 15.5343 11.6242
Au 30.1222 26.6058 13.4059
Au 29.8359 13.2757 13.1363
Au 30.2696 28.7972 15.0257
Au 29.0721 11.0394 14.6627
Pd 28.8502 28.6398 17.5235
Au 28.2421 8.83238 16.2015
Au 29.731 31.102 16.1989
Au 28.3365 13.9368 10.8673
Au 28.9529 25.319 11.019
Pd 27.5585 11.7507 12.3986
Pd 28.2584 29.4281 13.4336
Au 26.8138 9.50771 13.8562
Au 25.5662 29.014 12.9716
Pd 26.0877 12.4067 10.1528
Au 27.39 23.9339 9.28556
Pd 25.3181 10.2381 11.6372
Au 25.0549 27.0872 10.8522
Au 23.8659 10.871 9.35433
Au 23.0645 28.7805 11.5517
Au 13.4607 11.4408 29.9835
Au 10.0504 15.4169 20.1059
Au 11.0446 12.3156 28.3501
Au 13.3676 28.734 25.8042
Au 8.67817 10.4163 21.802
Au 14.8183 27.4714 30.4803
Au 13.0311 10.0667 24.6794
Au 17.5043 29.1354 21.6
Au 12.2571 14.043 30.093
Au 17.0613 26.8638 32.4472
Au 12.6585 10.4011 27.5316
Au 8.38291 21.0246 27.1285
Au 10.2592 9.5536 23.8573
Pd 17.6155 32.8217 22.9952
Au 14.0371 8.39805 26.4758
Au 16.9989 29.0298 30.4207
Pd 15.122 9.81838 28.5864
Au 17.3035 26.3696 29.8147
Au 16.119 11.1807 30.7315
Au 15.0518 29.3146 28.3841
Au 8.69615 14.5327 11.9175
Pd 14.0833 25.8733 13.5254
Au 9.5453 12.1253 12.9168
Au 11.8157 27.3644 15.0029
Pd 13.5437 12.7261 15.1965
Au 9.92687 29.3842 15.0536
Au 15.1011 8.27206 11.1205
Au 10.85 31.2986 17.0889
Pd 12.826 15.5266 11.1293
Pd 13.4913 28.4118 11.1825
Au 12.1723 11.258 13.2626
Au 13.831 30.8411 12.3323
Au 13.8482 10.5857 11.2657
Au 8.1521 28.6578 19.2292
Au 10.5451 14.9333 9.97465
Au 17.6828 23.401 11.5504
Pd 16.2112 12.2357 11.5679
Pd 11.5634 29.1551 12.9081
Pd 12.0001 12.6961 10.672
Au 14.7172 31.6888 14.6935
