923
Atoms. Timestep: 20621
Au 29.4363 12.1722 23.1672
Au 18.4134 8.66423 10.8877
Au 7.79664 16.8621 22.0251
Au 12.0778 15.8207 25.5638
Au 16.1245 12.9645 8.69161
Au 19.7023 33.1552 18.2202
Au 11.6993 18.3837 24.539
Au 7.05683 18.7111 26.2964
Au 23.6787 28.3513 12.8989
Au 21.9106 25.7657 21.4805
Au 13.4504 14.5597 32.6536
Au 7.47441 24.9855 22.5405
Au 12.7962 31.5346 13.1124
Pd 22.0849 15.753 28.9292
Au 7.99007 26.2235 19.3123
Au 27.9269 12.0686 20.8706
Pd 9.92655 27.2731 13.3811
Au 21.2821 26.5461 25.0199
Au 17.0417 28.9459 17.5238
Pd 15.2918 20.8273 29.9234
Au 14.4679 15.5592 24.3854
Au 26.5375 13.6158 10.236
Pd 22.5596 24.3042 19.2041
Au 28.1722 21.7209 13.4668
Au 27.161 19.9082 23.3586
Au 14.197 28.6701 17.5009
Au 11.7158 27.3978 17.5777
Au 22.8501 21.1566 14.5644
Au 19.0557 27.9402 24.1732
Au 15.5525 18.7992 32.0819
Au 20.4304 25.4319 30.2884
Au 19.4513 31.7521 20.6082
Au 18.7815 24.8826 9.67912
Au 23.3654 19.6432 26.276
Au 19.8696 22.4852 8.60139
Au 17.2807 31.8139 18.9203
Au 20.3776 8.0983 28.6336
Pd 15.6238 22.0841 24.67
Au 30.2235 28.2656 25.3073
Pd 31.8651 15.4862 18.2046
Au 10.1569 25.2402 11.5324
Au 16.6806 25.7126 6.77667
Au 12.7116 13.4049 28.8067
Au 9.86839 16.1731 28.8785
Au 21.0294 5.29505 21.5694
Au 14.3994 8.44866 24.098
Au 20.7784 9.24355 31.0975
Au 10.4792 20.7215 23.7856
Au 9.04562 15.3975 10.5058
Au 27.7454 10.3452 17.47
Au 14.8558 24.7657 24.3016
Au 20.1497 24.8299 17.6133
Au 12.2377 16.2547 15.3401
Au 27.2467 21.045 20.7956
Au 28.5782 28.828 16.062
Au 25.7808 18.2401 8.73861
Au 14.4896 19.2583 5.99267
Au 22.61 15.3664 34.6241
Au 21.5244 14.6588 23.7831
Au 15.3324 20.4257 22.3284
Au 7.94819 14.405 23.3559
Au 27.8268 9.4682 20.1053
Pd 21.4691 21.4048 6.61472
Au 28.0229 10.6621 14.7641
Au 12.8939 13.0159 25.935
Pd 28.8856 23.6097 11.4932
Au 16.824 30.6401 14.274
Au 9.42893 23.2238 16.0254
Au 14.5512 32.0419 11.1701
Au 24.0967 17.3718 33.6919
Au 23.6143 9.32666 11.973
Pd 12.7226 19.5185 22.231
Pd 18.8037 12.7249 8.23133
Pd 19.0147 12.4109 20.3784
Au 18.0275 26.7768 13.517
Pd 25.5095 26.4693 30.0826
Pd 19.0977 11.1124 11.9719
Pd 14.7251 15.3614 21.6146
Au 21.8957 18.7874 5.84356
Pd 13.4413 22.2626 18.3827
Au 11.7191 15.7448 10.9093
Pd 11.173 23.4293 24.4291
Pd 10.9604 22.3778 21.6928
Au 18.5385 17.7299 8.06881
Au 17.0497 18.0393 5.79402
Au 19.093 15.213 9.09674
Au 16.2637 9.62304 27.9261
Au 26.3628 19.2656 14.4121
Au 25.4526 18.101 22.3212
Au 8.75667 18.5072 28.4756
Au 21.3701 27.9862 30.3001
Au 12.3088 17.6214 6.44984
Pd 14.6734 30.9259 23.3766
Au 27.7564 17.0067 24.0348
Au 29.2266 14.2143 29.7447
Pd 17.7802 33.4051 13.9223
Au 16.2169 18.0192 17.87
Au 23.7048 19.9087 7.55631
Au 15.8657 18.4285 8.28437
Au 12.4246 29.5551 23.7792
Au 28.2211 28.4936 13.3568
Pd 22.4668 20.5218 20.9497
Au 26.3854 18.7427 30.0071
Pd 16.8807 14.0551 20.4849
Au 6.94991 22.6143 21.1026
Au 13.8529 23.1531 30.9754
Au 16.1725 10.6726 23.5543
Au 21.5601 12.1565 15.4065
Au 24.0208 19.3912 12.8643
Au 25.4396 14.916 12.1734
Pd 14.8972 26.1915 21.9675
Au 19.9242 29.885 29.0574
Au 25.2551 10.2817 29.816
Au 19.9797 10.4735 9.32219
Au 24.1729 23.5998 14.4147
Au 21.8712 31.1397 9.56048
Pd 19.0073 31.6 25.081
Au 33.0339 19.8348 27.1236
Au 20.6459 27.6585 13.5769
Au 30.6775 21.1152 14.8738
Au 9.19687 24.1045 20.548
Au 14.4841 18.1194 23.7698
Au 9.19706 24.4607 7.31774
Au 28.6827 24.5357 21.3743
Au 21.3377 18.9376 18.9986
Au 31.107 12.9542 25.1983
Au 16.6 19.2484 15.3935
Au 13.0258 20.0247 31.0405
Au 29.588 21.0081 24.1331
Pd 24.4157 16.8172 13.8021
Au 23.0814 32.9025 14.8433
Au 29.2498 27.319 18.5339
Au 26.5607 25.0838 10.5236
Pd 15.1979 32.5825 13.7234
Au 25.6816 10.0328 13.5628
Au 19.151 16.5333 26.5879
Au 18.7416 19.2443 27.3247
Au 32.1069 26.8733 18.6252
Au 27.7084 27.4241 28.9008
Au 13.13 21.7857 23.6568
Au 30.3499 27.2851 14.3431
Au 18.775 22.4513 18.5599
Pd 23.8401 18.7278 15.6629
Pd 5.37288 17.6295 21.2561
Au 13.3282 18.0279 17.3998
Pd 28.7237 25.968 12.5162
Au 10.6468 17.8138 13.2739
Au 25.6109 5.91845 22.647
Pd 8.7855 22.8299 23.2092
Au 26.7423 27.2191 17.3396
Au 25.4409 19.3418 19.8255
Au 21.2348 20.0121 16.4095
Pd 24.12 30.3822 18.8378
Au 28.6187 8.79234 26.1152
Au 19.6227 25.1988 23.0956
Au 9.11109 27.5441 16.8086
Au 27.5545 27.5879 10.8096
Au 11.6402 20.4077 19.9588
Au 21.7799 19.5292 11.3868
Au 25.3666 23.1725 26.905
Au 23.4979 11.8917 19.4097
Au 21.5934 28.1568 22.7062
Au 8.21473 17.3426 8.5678
Au 15.6786 23.3119 22.1895
Au 18.5712 22.8996 13.4935
Au 15.8304 6.12161 23.4352
Au 12.495 28.2957 26.1518
Au 15.7014 8.65828 19.7174
Pd 10.437 25.2749 22.5426
Au 27.7489 17.2047 21.1532
Au 29.0157 19.1672 13.7842
Au 10.0072 21.8238 7.44725
Au 26.2036 31.1605 23.7778
Pd 26.1019 19.3105 17.1789
Au 8.90879 19.845 12.1387
Au 21.0151 27.9112 27.4065
Pd 14.8814 17.9861 21.1047
Au 17.3732 24.8532 18.695
Au 14.5874 17.9004 29.6304
Pd 8.5973 24.7448 27.3149
Au 19.8825 12.4762 26.7975
Au 8.75866 20.6942 17.0533
Au 13.5857 26.9942 15.3058
Pd 27.3208 14.2745 27.8382
Au 15.7895 8.46549 10.622
Pd 17.0062 26.2227 24.1991
Au 24.2858 7.08588 18.3356
Pd 7.09845 16.4743 24.7711
Au 15.1543 14.0137 6.57328
Au 21.2934 22.9586 21.2854
Au 14.5946 23.979 7.33436
Pd 25.2582 13.4143 20.9683
Pd 20.4866 8.17695 25.6233
Pd 32.9713 13.6076 20.7862
Pd 23.5101 16.8664 26.7315
Au 27.1578 30.7694 14.4592
Au 13.5808 32.7927 15.7917
Pd 27.4701 14.6339 19.9216
Pd 13.3313 19.7551 28.2391
Au 10.4231 17.9997 16.2708
Au 22.6117 16.5758 11.8176
Au 14.8171 25.7352 30.6325
Au 13.6162 26.4269 7.66498
Au 32.607 19.1649 24.307
Au 21.0078 26.3431 8.63788
Pd 16.1126 13.8079 32.1439
Au 25.7803 28.5524 14.9349
Au 25.2951 16.1985 20.2291
Au 12.555 13.4636 14.9753
Au 17.5752 20.8611 31.6261
Au 9.10173 27.8812 10.5368
Au 21.5234 9.96371 23.2569
Au 29.3491 19.3698 21.74
Pd 19.755 24.9128 20.1757
Pd 18.0048 20.4672 8.24999
Au 30.0832 25.6425 16.4867
Au 22.1002 12.1414 25.1115
Au 22.0759 16.1613 5.20199
Au 23.584 20.2117 17.9124
Au 31.0829 28.3239 16.7441
Au 23.6635 25.6975 9.05584
Au 21.5304 23.3398 13.4585
Au 23.8612 13.1738 16.6332
Au 10.5738 14.1486 27.3596
Au 7.06109 23.7115 25.0591
Pd 28.1739 20.9031 16.1235
Au 6.53827 16.2535 19.3316
Au 23.9687 29.3575 23.6615
Au 12.5825 11.902 10.4679
Au 25.1536 8.66064 16.1437
Au 27.7244 16.4671 29.466
Au 31.6991 12.789 18.3755
Au 21.9733 7.72564 13.5473
Au 17.8683 13.5181 10.8876
Au 31.7942 22.7197 19.8775
Au 20.5701 27.3774 16.4131
Au 27.0101 22.7141 22.9923
Pd 18.2341 9.32046 29.71
Au 20.4364 14.1224 33.5372
Au 8.93416 21.1074 19.9126
Au 16.8709 20.3266 34.1357
Au 18.3069 29.2436 12.3889
Au 19.5435 34.5544 20.49
Au 17.3319 34.4659 18.5223
Au 13.5212 16.7101 12.9122
Au 9.32702 11.9779 17.0168
Au 14.9515 21.3836 32.6113
Au 19.0117 13.8818 24.6793
Pd 29.9663 9.84687 21.8243
Au 21.4527 32.0442 24.1623
Au 18.3108 7.89699 20.3538
Pd 24.7429 23.7273 24.2749
Au 20.3597 22.0365 11.3524
Pd 31.2082 14.249 22.622
Au 25.815 20.4161 27.4608
Au 16.4194 23.6819 32.2905
Pd 22.2115 30.6966 21.8397
Au 22.479 14.615 14.0144
Au 33.7379 22.5344 26.8028
Au 17.6044 17.8141 33.6351
Au 30.6461 19.3965 17.0411
Au 30.6265 10.2409 24.678
Au 15.9957 19.316 27.511
Au 13.3904 12.4191 7.88652
Pd 14.7895 17.3277 15.2855
Au 30.9301 22.4367 12.6142
Au 16.5572 10.3172 12.2908
Au 26.9937 10.5442 27.7926
Au 14.2053 14.9766 16.7056
Au 26.8575 12.5704 13.1353
Au 21.9523 18.8706 33.0531
Au 22.5946 10.9391 10.0002
Au 15.0608 30.3648 19.4952
Au 20.5332 33.6609 14.3205
Pd 18.8947 9.85812 27.1341
Au 28.5075 14.6512 22.4522
Pd 10.3294 14.3647 16.3293
Au 16.2219 22.1389 19.8466
Au 17.1675 31.8279 11.746
Au 19.558 31.283 13.5956
Au 20.2569 16.8907 33.8916
Au 18.3261 27.2243 8.32358
Pd 32.6835 16.5286 23.5334
Pd 26.7212 17.1577 32.1421
Au 29.1824 12.2901 27.6967
Pd 16.9871 16.4522 31.0847
Au 16.2326 23.4112 29.5714
Pd 28.6346 16.6614 26.7357
Au 12.9118 31.1335 17.7456
Au 16.9037 15.2622 23.0812
Au 27.6971 13.052 16.1703
Au 25.3544 28.6106 28.2717
Au 13.5351 21.8819 13.8288
Pd 14.6781 28.3281 28.2475
Au 16.7044 16.9072 25.3775
Pd 22.0106 23.8884 7.72618
Au 24.9464 15.0021 32.9701
Pd 19.3741 15.0001 21.5708
Pd 21.3715 16.269 19.4594
Au 9.84979 12.5524 14.3046
Au 7.78267 23.3256 18.4433
Au 17.9339 15.241 13.2149
Pd 13.8416 20.0896 25.5996
Au 22.349 21.5201 9.2537
Pd 19.3344 18.5278 31.7526
Pd 12.5676 28.5925 8.66206
Au 32.4765 24.3492 17.5405
Au 28.2476 11.2936 25.4092
Au 27.5721 9.8129 23.1339
Au 35.0922 15.5676 24.6392
Pd 26.0032 14.8314 17.599
Au 24.1868 13.7404 23.9958
Au 7.13405 23.8096 11.7979
Au 20.2992 11.2258 29.5076
Au 15.383 23.4801 17.0219
Au 23.2501 26.9218 28.6386
Au 30.5844 26.4555 21.1447
Pd 20.7566 29.2048 20.1757
Pd 22.7923 9.31063 29.189
Pd 21.8032 18.1132 14.024
Pd 12.1119 9.09304 22.6405
Au 30.1134 10.3519 18.9496
Au 27.1665 7.18132 24.4735
Au 17.5851 12.6854 22.7207
Au 17.1559 33.6159 21.1389
Pd 12.6319 8.77693 19.9653
Pd 12.128 22.6554 16.1064
Pd 17.7078 17.077 10.6812
Au 20.2564 9.85502 14.0867
Pd 11.5572 11.0296 15.9093
Au 18.6116 13.0789 31.1126
Au 20.1385 20.1472 29.6055
Au 21.7541 31.6254 19.2094
Au 28.6236 30.0033 18.81
Au 14.2106 20.5893 16.2372
Au 20.8773 22.7416 16.0262
Au 30.9614 28.9573 19.9383
Au 19.3405 27.3495 21.4425
Pd 21.3751 22.8591 29.8299
Pd 18.8882 29.1538 15.3034
Au 15.6562 31.1677 16.7452
Pd 25.4135 18.3507 25.0155
Au 21.3529 14.6057 17.0101
Au 10.7274 26.7039 20.1889
Au 26.1217 16.9069 15.8811
Au 14.2845 10.2654 29.5877
Au 28.3311 19.7029 18.6883
Au 28.0219 24.6599 27.7917
Au 33.593 20.5233 19.9113
Au 17.7156 20.1556 13.0793
Au 30.6138 28.8363 22.6797
Au 17.3515 25.441 21.4524
Au 26.1621 29.5059 12.108
Au 17.6377 15.2997 6.67662
Pd 7.65194 18.6883 20.0586
Au 27.0517 26.242 19.9517
Pd 31.3761 17.5209 26.6714
Pd 20.664 9.7003 16.7175
Au 23.1038 21.4075 33.2998
Au 12.5768 30.1543 10.823
Pd 8.09727 20.3534 22.288
Pd 16.9402 27.3561 10.9072
Pd 31.5522 24.067 22.2615
Au 10.0749 25.156 17.9503
Au 28.693 26.5198 23.451
Au 9.18719 28.6822 19.42
Au 17.9559 7.42098 27.5327
Au 6.46425 15.6894 16.7396
Au 16.5438 20.9415 17.5401
Au 14.8182 24.489 19.696
Au 21.4099 21.8444 18.6617
Pd 25.0758 21.1229 24.827
Au 21.3913 17.5607 25.0886
Au 7.58917 25.2939 16.5252
Au 23.0689 18.0429 9.42748
Pd 19.2785 10.6843 24.574
Au 8.25454 25.4517 9.63787
Au 27.8401 22.758 31.2093
Pd 30.1817 14.777 20.1234
Au 21.9735 29.2532 17.7047
Pd 9.57682 19.7413 26.2092
Au 18.9668 22.3315 6.01312
Pd 19.4552 30.1858 17.9492
Au 20.2556 15.2341 11.8522
Au 14.3963 9.94321 21.6761
Au 28.3294 14.714 12.2136
Au 13.8569 20.6863 10.7617
Pd 12.7502 22.2508 28.6653
Au 25.9652 29.5671 25.8741
Au 30.2408 16.7862 22.1236
Pd 13.6846 24.3723 14.8995
Pd 25.7082 26.0358 27.4037
Au 5.59104 22.1309 13.5431
Pd 18.8813 23.0653 30.8847
Au 20.9383 22.0824 34.5933
Au 34.0326 17.5893 25.9957
Pd 11.7774 24.5296 29.8037
Au 12.3473 13.0842 17.7992
Au 27.2231 17.0364 13.0725
Au 25.9622 12.603 26.0263
Au 10.6031 29.8316 12.7461
Au 16.1744 27.3565 19.6633
Au 8.02324 22.7966 9.22168
Au 25.3477 12.3132 31.692
Au 15.68 15.1916 11.5274
Au 25.9609 26.6772 12.891
Au 18.0402 8.72727 16.3199
Au 10.3161 26.8151 26.7383
Au 29.9321 23.6 29.493
Au 15.7458 27.9895 8.1513
Pd 32.4377 26.1558 15.5315
Au 12.0746 9.66275 25.3182
Au 34.8007 20.3496 25.2115
Au 22.6682 28.4883 9.2477
Au 23.106 13.7026 11.4766
Au 19.3816 17.1697 29.2194
Au 10.8992 20.7012 9.86366
Pd 11.0241 25.6483 15.4164
Au 26.2352 28.8664 19.5547
Au 24.9707 11.6361 11.3254
Au 23.6836 24.0882 33.4871
Au 28.9305 15.4339 17.6694
Au 14.4249 24.3462 12.2977
Au 12.5757 10.917 27.7045
Au 28.0998 25.3746 30.4878
Au 14.4052 26.3309 26.3895
Pd 20.0286 25.1716 14.8648
Au 9.24932 22.5464 26.0287
Pd 21.5092 17.3433 16.756
Pd 15.1702 26.8284 12.9356
Au 24.7129 20.3347 10.1912
Au 26.85 23.4936 15.7092
Pd 19.6369 20.7035 20.5272
Au 20.7494 11.5968 32.509
Pd 15.845 22.0372 12.327
Au 17.1351 29.5845 28.5592
Au 16.4126 26.1714 28.2814
Au 19.3208 19.6447 5.97397
Pd 13.0646 28.5837 13.0003
Pd 10.5146 20.8225 14.8927
Pd 16.7546 20.7643 5.87728
Pd 13.5027 23.2876 25.9808
Au 16.2875 10.2932 14.9498
Au 25.176 9.75767 18.744
Au 30.3679 16.6406 29.0686
Au 23.7871 22.9766 31.0561
Au 19.3368 24.8024 7.01617
Au 30.067 18.3867 24.4154
Au 6.16826 20.0796 15.8264
Au 23.7713 14.1188 26.6542
Au 24.1011 10.9371 27.1721
Au 27.7411 30.758 21.4289
Pd 32.1379 24.2334 25.0511
Pd 22.2274 26.6822 11.2499
Au 18.7944 34.6428 16.17
Au 23.5447 25.3851 26.0094
Pd 15.3834 26.2078 17.2353
Au 19.1618 33.1028 22.8939
Au 12.5015 26.675 28.3646
Au 10.3214 18.9638 7.73597
Au 20.3163 14.5126 6.66821
Au 7.98297 14.467 20.6664
Au 17.1147 16.6493 20.1963
Pd 27.8073 26.2127 15.0429
Au 8.96501 15.9321 18.0959
Au 8.66457 27.244 21.857
Au 13.5312 9.54283 14.6458
Au 20.3984 21.9289 27.5462
Pd 21.6042 33.2654 21.7103
Au 14.7801 32.5273 21.1426
Pd 22.9918 12.1716 22.067
Au 8.21947 14.386 12.9576
Pd 31.9188 24.371 27.745
Au 16.5559 28.072 26.2653
Au 10.196 13.4945 21.9436
Au 19.8815 23.8639 25.6353
Au 13.4801 26.8375 19.6519
Pd 25.6175 32.4322 15.8597
Au 13.1356 9.13731 17.3581
Au 18.8702 19.6403 18.0654
Au 20.1284 29.2121 8.84122
Au 19.8363 7.46408 18.0216
Au 22.5137 7.67875 16.3336
Au 25.7172 7.77527 20.5432
Au 24.9965 30.5391 21.405
Au 10.679 20.3414 28.9074
Pd 14.5514 12.0151 13.7639
Au 16.7125 16.6555 28.1978
Au 9.12854 25.3331 24.8073
Pd 22.2299 8.74576 18.8578
Au 17.0769 24.6879 11.8817
Au 11.1727 13.7801 9.05172
Au 31.9913 23.4964 15.0332
Pd 13.4626 16.7971 8.8521
Pd 28.8949 22.4178 19.1793
Au 14.3906 19.8459 19.2275
Au 29.1551 18.2123 31.0252
Au 26.6649 12.6454 23.2897
Au 13.9003 30.0634 15.0648
Au 18.715 26.2438 26.4014
Au 16.0698 28.1589 15.083
Au 18.3039 5.75071 22.288
Au 11.3272 24.3737 27.0926
Au 17.8088 21.449 28.6575
Au 26.4117 21.9815 18.0841
Au 22.652 22.7424 26.0639
Pd 15.4266 13.1363 24.6041
Au 15.8482 25.5035 9.36282
Au 19.098 19.6749 10.6782
Pd 15.3389 8.05851 16.2725
Au 26.1832 32.931 21.7528
Au 16.205 13.1838 15.9618
Pd 28.4925 18.0478 16.2065
Au 24.8696 19.4674 32.2605
Au 12.927 24.9296 17.4695
Pd 12.9502 25.1916 9.97256
Au 6.17971 24.7317 14.1936
Au 24.3559 17.0027 30.9392
Au 21.8859 11.4941 12.5914
Pd 26.0438 23.8655 29.4477
Pd 23.8912 32.3214 23.1716
Au 25.0248 15.6308 28.6454
Au 21.1623 31.6586 16.3314
Au 32.1091 18.7777 21.6249
Au 16.1298 15.7167 8.83873
Pd 22.7885 20.4142 30.7559
Au 7.47803 27.27 14.6628
Au 22.9661 13.1635 33.0139
Au 12.9621 24.3272 22.4756
Au 25.7061 22.0846 32.8482
Pd 15.1934 14.8428 14.1223
Au 15.3929 16.2427 33.2291
Au 7.37524 16.3638 27.5836
Pd 22.2212 12.8065 28.3486
Pd 11.7498 15.2455 30.7023
Pd 19.5241 30.1909 22.7503
Au 30.0867 11.3937 16.3958
Au 10.5659 29.1901 21.7804
Au 14.6353 10.4803 25.9622
Au 10.4302 13.803 24.6626
Pd 12.1333 11.6352 21.1524
Pd 17.6943 25.4637 30.5161
Au 16.7082 32.5977 23.9066
Au 17.5928 12.5464 18.1332
Au 10.644 22.5513 18.4517
Au 20.571 19.5372 22.7164
Au 29.6355 8.00618 23.7865
Pd 12.4281 17.7698 20.0091
Au 13.2366 17.224 31.9356
Pd 16.7367 15.2194 17.8593
Au 12.6223 16.0848 28.3401
Au 12.6302 19.0204 14.7081
Au 25.135 17.5832 11.2436
Au 14.1162 24.4931 28.3233
Au 16.5644 26.4152 32.6777
Au 24.9897 8.4409 23.1144
Au 33.1776 25.1051 20.2571
Pd 17.1648 18.0344 22.6532
Au 31.3299 19.0938 29.1231
Au 17.9501 15.1836 33.5319
Pd 30.3008 24.7808 19.1149
Pd 15.2795 21.8813 27.3948
Au 8.13646 21.8286 13.9624
Pd 14.6418 27.9006 24.1384
Au 22.9225 11.4663 30.7362
Au 14.2285 6.90389 18.6248
Au 31.6911 18.6509 14.6028
Au 26.7202 22.2763 10.7263
Au 10.0987 13.4533 19.1907
Au 21.0928 10.7 20.4197
Pd 17.3321 16.4349 15.5756
Au 16.4088 11.3574 30.733
Au 9.49369 22.4688 11.6229
Au 13.8776 9.9059 11.9042
Au 21.3636 18.4089 27.7199
Au 20.3622 5.54212 24.1383
Au 23.2165 15.1025 21.6266
Au 19.9283 25.112 12.1679
Au 10.6798 11.2464 23.4875
Pd 24.4386 25.9922 20.4196
Au 15.4292 8.10956 13.3951
Au 18.8968 25.0818 32.9242
Au 21.2017 25.1148 27.6431
Au 7.45153 26.4445 12.1106
Au 24.4713 23.1751 9.49936
Au 18.0593 23.6574 16.1901
Pd 23.3872 6.64241 21.0921
Au 22.4258 5.32382 25.6886
Au 23.2027 4.95907 23.2349
Au 24.1551 12.4098 13.8661
Au 30.0264 17.4767 19.2546
Au 26.1862 17.6942 27.4635
Au 17.9489 26.4762 16.2933
Au 19.5418 16.9597 5.51429
Au 14.7061 10.5636 9.33418
Au 28.6455 18.9868 28.4906
Au 30.8427 20.2674 19.6224
Au 30.3532 15.7006 24.7401
Pd 17.6763 23.5967 23.9641
Pd 15.2918 21.0832 8.12587
Au 21.8946 30.074 14.2454
Au 11.6026 27.5643 11.0012
Au 22.5713 7.36218 27.2808
Pd 17.3561 10.8758 9.77674
Au 21.1926 13.6828 30.7547
Au 29.9767 22.8816 26.6528
Au 24.0313 17.4703 18.1543
Pd 32.069 21.3605 22.4822
Pd 16.8733 28.1657 22.2728
Au 10.7737 26.38 8.6601
Au 23.5837 28.1323 26.1169
Au 17.0496 6.86087 18.0839
Pd 25.9512 15.3908 22.7706
Pd 23.6345 15.8141 16.1389
Au 10.3047 16.0133 20.6192
Au 11.7725 15.8527 18.1531
Au 18.7075 24.1161 28.2801
Au 25.1297 25.8444 15.5064
Au 14.9955 23.0523 9.9505
Pd 25.786 27.1163 24.7378
Au 19.6235 27.4463 10.7975
Pd 17.8855 20.7539 22.8479
Au 12.4204 18.3882 11.0083
Au 32.3528 21.5053 17.3963
Pd 25.1202 24.715 18.0551
Au 23.2139 17.946 20.7691
Au 17.1769 11.6438 25.9666
Au 17.2428 12.6517 13.5223
Au 23.9404 17.2181 6.95852
Pd 23.8975 18.7033 28.842
Au 29.0101 12.7934 18.4939
Pd 22.2496 7.37768 23.5023
Au 21.1832 26.4923 32.6795
Pd 23.9131 23.7277 21.7765
Pd 19.5693 15.7514 31.4417
Pd 6.24779 18.8034 23.4712
Au 15.4254 29.6272 12.1076
Au 29.1029 18.1015 11.2466
Au 25.8997 28.0216 22.1528
Pd 22.0526 24.2513 23.8028
Au 25.8588 24.6559 32.0239
Au 18.0955 8.38198 13.5557
Pd 30.316 20.1165 26.735
Pd 25.7131 14.4252 14.8332
Au 29.4913 23.7301 23.9684
Au 8.14432 14.2701 26.1016
Pd 14.7401 12.6944 21.6984
Au 14.4566 15.2942 30.3062
Au 27.5359 20.1424 32.0026
Au 17.01 29.8755 24.2877
Au 19.1851 16.4556 23.8037
Pd 11.4371 18.195 27.2466
Au 29.6635 20.8702 30.3179
Pd 18.6932 21.0853 15.7175
Au 6.28429 19.5202 13.1254
Au 18.4884 10.3901 32.0669
Au 6.27354 17.4461 14.7989
Pd 18.962 17.0191 17.8134
Au 13.0768 19.3871 8.43663
Au 18.9129 29.3853 26.5602
Au 25.001 8.40924 27.7095
Au 25.1526 12.7968 28.8023
Au 21.4314 13.6078 20.2642
Au 27.5405 22.0486 25.6671
Au 30.1348 16.7345 13.3453
Pd 23.9175 32.7837 20.3676
Au 21.238 16.8775 7.63323
Au 34.6698 15.5202 22.0044
Au 27.9636 21.862 28.4609
Au 10.719 15.0876 13.4663
Au 14.0388 12.6039 30.9048
Pd 23.1788 9.11761 25.3286
Au 8.79201 24.7894 13.9116
Pd 22.2036 15.9043 32.1341
Pd 23.0956 14.6473 7.1178
Pd 25.2714 21.3292 15.7031
Pd 23.4032 28.4129 20.6694
Au 18.1926 12.5136 33.6159
Pd 21.3666 29.3762 11.5894
Au 27.88 27.5086 26.3076
Au 31.2453 25.1253 13.0785
Pd 21.5624 34.3373 16.6671
Au 20.2245 15.9442 14.7001
Au 21.9731 34.3614 19.2888
Au 15.2508 12.4541 11.2131
Au 12.0137 20.4727 6.19659
Au 27.1239 24.7914 25.1848
Au 9.00907 29.6182 15.0164
Au 18.3365 31.9347 16.155
Pd 24.8971 21.0324 22.1028
Pd 12.3695 25.8919 12.9981
Au 31.6841 21.7514 28.4919
Au 23.1783 10.5551 17.1167
Au 24.1143 12.9927 9.03457
Au 23.8816 30.2916 10.9547
Au 17.802 22.3161 10.5373
Au 10.0151 18.4287 18.87
Pd 19.5284 31.0874 10.7249
Au 29.8261 25.5806 25.8936
Pd 18.6874 11.4374 15.7596
Au 26.2028 25.328 22.5466
Au 20.5692 12.1525 17.9965
Au 10.3137 27.7452 24.1292
Au 20.9734 9.09426 11.457
Au 27.1145 17.2196 18.5217
Au 11.6033 20.4985 12.525
Au 8.80281 18.452 24.0681
Au 27.9432 7.38694 21.8883
Pd 22.6964 21.7134 23.4867
Au 15.1564 12.2821 28.0357
Au 20.0069 22.192 23.5316
Au 18.9809 27.2718 18.7148
Pd 16.1796 21.9986 14.897
Pd 8.40769 12.1011 24.5218
Au 20.1104 5.92499 26.9002
Pd 14.913 13.3977 18.8593
Au 24.2027 24.7063 11.7823
Au 21.2557 23.7412 32.4585
Au 14.2498 27.5932 10.4773
Pd 10.7549 16.3768 8.40372
Au 16.2337 6.02673 20.562
Pd 19.9084 13.2122 13.6153
Au 16.1749 33.7638 16.1248
Au 25.946 15.5583 25.6503
Au 7.56392 18.1657 17.255
Au 22.7925 29.72 28.2856
Au 23.6991 16.446 24.0205
Au 14.1575 17.5332 26.5438
Pd 21.2397 14.8964 26.455
Pd 11.1356 23.3959 13.6985
Pd 13.8309 14.3147 9.66937
Au 17.0912 19.5285 20.2407
Pd 11.4477 28.5693 15.1797
Au 7.9953 29.0423 12.6467
Au 19.4787 14.451 28.6963
Au 30.3891 14.6357 27.2942
Pd 20.4552 17.3789 10.2084
Au 27.8708 19.2796 25.8864
Pd 10.0818 16.1469 23.4088
Au 16.4429 19.9098 10.5758
Au 21.9127 15.0145 9.44902
Pd 23.4778 22.8039 17.0049
Au 11.6585 21.3452 26.401
Au 20.3782 12.4465 22.7293
Pd 29.1216 20.9021 11.118
Au 7.92548 21.044 27.7909
Pd 26.3451 23.6215 20.327
Au 18.937 27.6061 31.6393
Au 21.0026 31.252 26.9619
Au 8.32301 20.1145 9.11349
Pd 16.3926 19.6074 24.8993
Au 33.829 25.2319 22.9496
Au 24.6766 15.6399 9.31264
Au 24.5178 31.0779 13.5339
Au 27.857 24.6322 17.8822
Au 10.6341 23.6704 9.37838
Au 21.7847 24.1294 10.3656
Pd 19.389 17.81 12.7375
Au 10.4053 13.1893 11.6018
Au 6.78001 21.2394 11.1377
Au 13.3649 11.3874 23.7238
Au 11.9619 11.403 13.1369
Au 17.352 14.2803 26.7343
Pd 17.9936 29.3762 20.0995
Au 32.7569 15.1362 25.9362
Au 20.0309 7.305 15.2684
Au 21.556 12.5268 8.023
Au 6.60611 22.7118 16.0677
Pd 15.0076 17.7247 10.8443
Au 19.3906 17.8935 20.7023
Pd 17.8758 11.9256 28.5898
Au 33.5311 13.6997 23.6778
Au 24.8903 27.5458 10.5149
Pd 16.5656 11.186 20.4003
Au 16.5902 24.1084 26.4513
Au 30.6529 13.9937 16.1685
Au 7.52384 13.6432 18.1602
Au 26.6005 14.5448 30.8527
Au 35.0331 17.9512 23.4881
Au 5.68823 20.2221 21.0602
Pd 11.5923 18.0066 29.9544
Au 23.3385 21.4824 28.3565
Pd 23.7226 26.4317 23.2823
Pd 18.8236 27.3777 28.9112
Pd 25.6325 11.313 15.9641
Pd 21.6832 26.843 19.0112
Au 32.127 26.6841 26.4369
Pd 25.6153 10.7305 21.3333
Au 34.1511 22.884 21.4428
Au 13.9236 11.0139 19.2083
Au 26.0283 9.44035 25.499
Au 29.398 12.932 14.0409
Au 14.134 11.5734 16.4601
Au 16.7762 31.2961 26.5183
Pd 16.905 30.9922 21.7808
Au 20.9847 20.4448 25.4014
Au 17.9997 6.28655 25.0707
Pd 18.1364 21.5882 25.8231
Au 32.1155 11.5972 22.8526
Pd 7.79301 13.7261 15.5229
Pd 26.7147 24.1044 13.0849
Au 10.462 29.9094 17.4191
Au 14.3581 28.9128 21.5679
Au 12.138 29.2314 19.5749
Au 26.4358 30.1776 17.1136
Au 30.8302 16.7224 16.1144
Pd 23.5282 24.2514 28.6319
Au 17.1818 23.1859 7.987
Au 11.3386 22.0805 30.9197
Au 9.84137 17.9905 10.468
Au 21.7931 6.03303 19.0202
Au 26.9126 7.82804 18.0622
Au 11.3162 31.261 15.2807
Au 31.1278 19.7085 12.2913
Au 16.6981 14.1694 29.4679
Au 10.4181 11.6083 26.2397
Au 28.4115 15.4128 14.9595
Au 24.2026 22.152 19.6421
Au 24.4913 11.0319 23.9535
Au 20.8788 7.92953 21.0843
Au 14.0606 7.20593 21.6195
Au 12.6669 13.9497 23.0769
Au 18.7154 10.1893 21.8949
Au 21.4895 10.2703 27.0875
Pd 8.46893 19.0402 14.7104
Au 9.50819 16.7022 26.1062
Au 19.5353 33.4129 11.882
Pd 29.2896 23.9501 14.4076
Au 27.928 29.0902 23.8472
Pd 30.6574 12.2307 20.7356
Au 11.6671 20.2097 17.2898
Au 16.4331 27.9211 30.4609
Pd 21.3514 16.9529 22.3211
Pd 34.5008 18.0297 20.8457
Au 5.29613 18.5773 18.7101
Au 14.5785 29.9579 25.9259
Au 20.5326 12.8619 10.5015
Au 12.7499 22.1621 8.33916
Au 8.05945 17.0593 12.6414
Pd 14.4799 16.1554 19.1091
Au 19.2261 14.6588 18.8726
Pd 26.1689 12.3235 18.6089
Au 14.8241 30.115 9.39601
Pd 23.1938 22.041 11.794
Au 14.722 14.8361 27.1278
Au 14.8396 33.101 18.4838
Pd 26.8926 19.5959 11.7234
Au 13.5902 22.0438 20.9769
Au 23.6682 32.8724 17.6259
Au 23.1157 9.86908 14.5804
Au 9.84368 22.8433 28.761
Au 23.876 30.4715 16.1248
Au 27.265 16.3069 10.2662
Au 28.5056 28.2343 21.1295
Pd 18.3939 22.9471 21.3555
Au 24.1697 27.4642 18.0592
Pd 7.00342 18.457 10.6903
Au 25.6344 21.2678 30.1347
Pd 12.0273 24.3139 19.9785
Au 18.796 10.0538 18.7709
Au 23.5532 14.6644 18.8397
Au 11.2027 10.7891 18.6772
Au 23.7774 14.2471 30.5861
Au 14.8598 16.5883 6.43804
Au 17.3335 18.8734 29.852
Au 11.8739 24.372 7.04346
Au 20.739 19.5286 8.39272
Au 18.8898 18.9209 24.7007
Pd 12.6741 30.9849 21.4435
Au 23.54 30.9951 25.7837
Au 23.1727 19.105 23.4636
Au 19.5195 19.7474 34.2134
Au 28.3168 14.0622 25.2779
Pd 24.5538 6.80148 25.1976
Pd 27.4879 12.1537 29.8883
Au 6.46759 20.9324 18.5452
Au 16.5106 23.3948 5.41802
Pd 16.6321 8.31902 22.3673
Au 17.4698 29.6761 9.70063
Pd 31.9549 21.5868 25.2011
Au 21.7178 17.948 30.4826
Au 23.3397 9.39137 21.2304
Au 23.1148 27.8686 15.5314
Au 30.0169 22.8839 16.8714
Au 26.3498 31.8659 19.2454
Au 19.0692 5.45828 19.6766
Au 34.5586 20.3499 22.4783
Au 18.512 22.4539 33.643
Au 16.2761 24.885 14.5812
Au 14.2143 21.9264 5.72866
Au 21.9336 32.0317 12.2552
Au 23.1538 25.6091 31.1254
Au 34.135 22.7046 24.0732
Au 32.4903 16.22 20.6718
Au 34.2883 22.8904 18.7847
Au 31.5855 26.5201 23.7429
Pd 29.6454 22.0846 21.6783
Au 7.37918 20.9727 24.8445
Au 17.124 8.78103 25.2361
Pd 22.6637 25.8052 13.8028
Au 16.5574 17.5333 13.1303
Au 30.1119 26.2717 28.4726
Au 12.358 22.9077 11.3402
Au 22.6105 25.3294 16.573
Pd 14.7865 19.5224 13.13
Au 21.3165 29.4914 25.0027
Au 12.6856 14.9191 7.07912
Pd 19.2734 8.02104 23.3273
Au 16.1867 10.2836 17.6743
Au 12.3942 27.1972 22.3772
Au 19.2252 18.4131 15.3878
Pd 12.581 14.3078 20.3309
Pd 8.72279 16.2316 15.1547
Au 25.5177 21.6534 13.0172
Au 20.3775 20.4845 13.6258
Au 10.1835 18.5914 21.6966
Au 20.4857 21.1243 32.0963
Au 32.9041 27.5266 21.5063
Au 32.5947 18.2202 18.7152
Pd 13.1277 13.9298 12.3472
Pd 12.2216 25.886 24.8295
Pd 12.5111 16.6575 22.4463
Au 18.7933 14.1372 16.0914
