923
Atoms. Timestep: 20923
Au 13.1599 29.1647 19.8688
Au 17.0111 8.60887 12.9018
Au 7.91046 10.6764 21.2373
Au 7.35497 13.5726 22.8242
Au 24.7599 24.3862 31.32
Au 27.8991 11.7479 28.9679
Au 25.7346 11.0993 10.2712
Au 10.2487 21.3921 15.641
Au 27.281 11.9019 13.0069
Au 29.8985 17.4343 27.8441
Au 18.8297 24.3975 7.96425
Au 17.0609 13.8017 14.1101
Au 20.6905 23.5798 10.087
Pd 26.7877 20.8799 27.7954
Au 11.9269 20.8362 24.6159
Au 28.4067 27.0604 24.9719
Pd 8.56371 15.9898 16.2829
Au 7.41322 25.3079 11.809
Au 30.3765 11.818 27.8829
Pd 15.5767 7.71215 26.1809
Au 32.3382 15.5062 18.0545
Au 16.9917 9.4641 15.5423
Pd 28.6289 22.7756 12.41
Au 27.5374 18.4681 29.1675
Au 20.9857 5.86752 20.8471
Au 23.1636 25.4135 20.6887
Au 12.3622 11.0547 23.3657
Au 20.3363 19.5596 21.0246
Au 18.318 30.4276 14.6949
Au 16.4089 24.935 9.09961
Au 15.4988 18.5395 16.0254
Au 10.9543 23.9775 28.0243
Au 26.262 22.2196 23.3371
Au 21.282 30.1706 9.75881
Au 22.302 14.6741 17.3003
Au 9.25125 18.4295 15.2531
Au 28.7964 15.2997 15.9727
Pd 15.0437 13.6761 12.2229
Au 28.8975 28.1667 17.8158
Pd 10.0539 26.7478 23.4077
Au 14.1779 32.3344 24.5768
Au 9.48859 27.0315 20.6682
Au 5.22029 19.7043 23.8461
Au 20.7444 26.5312 21.7295
Au 15.9804 21.8496 22.9345
Au 25.1137 24.5705 22.4659
Au 16.3523 25.0637 14.6042
Au 5.23287 26.6256 16.4541
Au 20.2784 26.4295 6.84987
Au 29.5546 10.8377 14.4327
Au 16.2737 28.9561 15.8708
Au 14.341 6.96674 23.8009
Au 17.8784 6.87543 14.8236
Au 6.72168 18.8097 14.2181
Au 20.3639 14.8309 8.92943
Au 33.6136 16.9664 20.0456
Au 26.5253 20.0493 12.7492
Au 9.51942 15.4534 11.9025
Au 28.4507 16.0157 11.1212
Au 11.8566 10.8507 20.5975
Au 10.8506 22.456 20.7887
Au 14.6015 32.8671 17.7374
Pd 26.4203 12.9728 22.7989
Au 9.92377 29.5905 24.532
Au 15.7498 16.7558 20.5149
Pd 14.9837 24.6175 25.6206
Au 27.9598 27.7583 15.2455
Au 26.2358 8.97329 25.4861
Au 14.5923 21.083 20.6161
Au 22.4525 21.2757 7.22994
Au 27.0972 14.6916 13.1664
Pd 20.3814 31.1118 28.5292
Pd 26.2824 24.0409 26.9891
Pd 27.2034 23.6718 16.1421
Au 14.9241 27.3714 18.2974
Pd 20.0866 22.2064 14.9989
Pd 9.90253 28.1938 13.8956
Pd 24.2555 20.1994 11.2937
Au 12.1215 20.5649 19.0668
Pd 23.9936 26.7039 9.58658
Au 34.2628 19.5944 19.5128
Pd 24.4132 14.5867 23.5168
Pd 13.8931 23.0825 27.7046
Au 14.5899 9.31155 13.7895
Au 26.2895 22.8108 13.644
Au 15.6444 13.9258 19.4375
Au 13.0804 22.3338 22.5036
Au 20.8233 30.4528 15.9155
Au 9.05384 26.0248 27.7774
Au 12.817 33.5311 19.5466
Au 6.89496 27.4939 18.3604
Au 20.3354 22.7873 17.6026
Pd 27.8301 7.74992 15.4455
Au 7.93272 22.4414 20.3852
Au 8.5308 13.9635 18.2746
Pd 18.9882 24.6953 26.5529
Au 6.40583 15.6837 18.1938
Au 14.1766 21.3217 6.89067
Au 7.6595 16.2156 13.7851
Au 28.8895 13.8734 21.0437
Au 23.525 16.9527 15.498
Pd 22.8196 16.9722 24.9565
Au 5.64616 21.3429 14.7171
Pd 23.0537 29.8204 24.1118
Au 19.9673 8.5471 14.2761
Au 25.659 7.82332 23.1011
Au 17.8061 24.0057 30.4444
Au 14.4242 25.8467 12.7969
Au 21.1669 23.3698 27.5672
Au 9.82433 11.0233 14.0511
Pd 25.0245 13.1921 11.8036
Au 14.3433 25.714 20.3418
Au 21.0191 8.68456 25.859
Au 14.4205 9.33529 16.491
Au 24.2923 16.957 22.1676
Au 24.1642 14.2453 15.2651
Pd 15.4419 27.6859 9.17186
Au 26.1028 18.4338 7.52431
Au 19.3669 8.62284 11.6874
Au 8.14655 28.5609 22.7844
Au 25.0402 20.7391 6.64759
Au 13.1103 12.9151 10.5335
Au 19.9057 25.2541 29.1118
Au 30.2755 19.2628 15.538
Au 17.0375 8.78787 28.2717
Au 14.9339 17.6886 8.25219
Au 27.1375 6.29258 19.0524
Au 9.64869 11.8266 23.0357
Au 21.8437 32.65 17.0428
Pd 25.0159 17.2757 29.1716
Au 5.22595 20.0425 20.986
Au 19.583 25.4797 17.0853
Au 20.4325 18.0327 28.5417
Pd 22.9447 26.0067 7.1095
Au 32.2452 17.0505 22.3134
Au 9.59568 17.7293 21.9524
Au 10.6097 14.2956 16.4701
Au 24.1986 15.6438 12.9984
Au 14.7313 29.9009 25.4
Au 31.2363 11.6991 20.8983
Au 25.5324 25.2255 12.3274
Au 16.1065 21.8939 18.4049
Pd 26.4136 22.0881 10.9628
Pd 26.6411 12.394 20.2126
Au 6.27257 24.4122 21.5102
Pd 18.3566 27.9549 21.4325
Au 10.0216 24.6207 11.1334
Au 31.2069 13.1226 23.0441
Pd 24.4712 29.6292 19.3892
Au 29.9924 9.29952 21.2526
Au 16.4912 20.1925 32.547
Au 18.2361 33.1682 21.203
Pd 17.9324 22.6783 9.99008
Au 10.3771 18.5921 28.8964
Au 12.248 14.5371 12.6865
Au 7.17448 18.2321 25.1915
Au 28.2557 26.2748 20.1247
Au 10.6632 10.0636 25.1699
Au 14.1695 18.3667 10.9821
Au 31.0354 26.6683 21.6095
Au 12.8873 24.4462 14.7341
Au 17.9633 32.7428 13.4457
Au 24.7637 12.8978 17.5315
Au 24.0992 23.4527 6.67324
Au 10.8113 11.9897 17.9488
Au 21.7622 8.42431 16.6028
Au 22.4271 19.4971 30.1396
Au 23.6538 9.33329 26.4556
Pd 22.3435 21.6806 25.7911
Au 13.0384 28.4577 27.106
Au 17.61 29.6062 9.48374
Au 15.8051 25.9205 30.1989
Au 14.7147 12.4649 24.1693
Pd 26.9586 11.3929 17.6781
Au 8.85419 20.1556 10.8146
Au 23.5735 30.2477 16.8595
Pd 7.57832 25.3355 16.5232
Au 28.9333 15.2068 31.9253
Au 24.656 21.8715 8.985
Pd 21.9324 30.8092 19.1175
Au 21.6809 10.3092 23.5977
Au 18.8866 16.2587 33.5639
Au 28.355 19.0786 26.365
Pd 28.7313 11.4548 22.1544
Au 28.4904 13.113 26.6249
Pd 21.5759 23.6633 13.1261
Au 20.6368 12.5282 18.404
Pd 27.484 29.9867 13.5509
Au 10.8004 23.4884 23.4951
Au 25.5165 21.5577 16.1389
Au 17.4214 12.8537 24.8447
Pd 23.1471 24.086 9.07525
Pd 25.5285 25.7449 7.50955
Pd 26.3103 13.8202 28.0072
Pd 7.72082 20.6076 16.2523
Au 18.8126 20.2688 13.5709
Au 29.9189 28.7653 20.3362
Pd 24.7222 15.7371 26.7625
Pd 9.02639 24.5562 21.8144
Au 21.2279 21.0601 32.4359
Au 24.4905 10.6492 24.144
Au 23.4968 22.3844 23.4085
Au 21.7358 24.6396 15.6593
Au 24.6612 29.8028 30.057
Au 21.1678 26.9629 30.9253
Pd 21.2233 10.2167 10.1124
Au 13.3766 14.5773 8.43656
Au 7.99219 29.3694 20.1899
Au 11.0853 28.9061 21.9399
Au 18.2088 5.742 17.5087
Au 11.5156 26.7374 10.071
Au 32.2032 22.9738 13.381
Au 24.2696 24.412 25.245
Pd 8.34432 22.738 11.9528
Pd 28.2114 30.5137 21.687
Au 17.3042 22.49 14.0502
Au 20.0693 19.7178 16.2677
Au 26.138 25.4909 29.3133
Au 13.3414 15.9678 19.5808
Au 17.6909 13.0533 29.8718
Au 11.3772 26.8961 28.7689
Au 16.7091 20.847 11.7284
Au 15.8143 15.1694 7.60613
Au 5.83174 16.7439 15.7781
Au 22.4824 11.7439 25.7455
Pd 22.1249 21.3853 10.0045
Au 13.6008 18.5649 20.8052
Au 11.0185 14.682 19.3014
Au 16.0617 31.9005 22.4581
Au 18.3994 26.7269 30.8989
Au 7.29666 16.4701 22.9816
Au 16.7688 7.96011 23.7786
Au 11.2185 30.6659 14.3541
Au 26.794 22.0727 18.5829
Au 27.3062 16.5606 27.0088
Au 12.3341 22.4929 29.8676
Au 33.4916 23.4293 15.8921
Pd 19.403 21.1224 25.7151
Au 21.1688 19.0491 25.7158
Au 18.696 20.5565 18.5235
Au 14.9004 30.0245 28.2044
Au 9.52689 16.9459 24.631
Au 17.1318 26.3449 25.4321
Au 19.3929 13.4845 34.0552
Au 7.97839 25.0456 19.3153
Au 7.56999 15.2222 25.334
Au 12.7999 19.4588 8.10565
Au 23.9523 25.7736 27.7197
Pd 26.9659 15.5586 22.4717
Au 8.8419 16.9934 27.2235
Au 26.5836 29.5402 10.9197
Pd 17.3715 28.5366 18.6414
Au 23.8523 20.6211 32.4758
Pd 28.5766 22.9364 9.55279
Au 9.30634 30.9101 22.0214
Au 27.0217 24.6137 24.5145
Pd 18.9248 19.083 32.8597
Au 25.6889 26.8531 21.0805
Au 11.68 12.6987 14.7325
Au 16.5875 11.2316 20.1957
Au 16.6016 22.3093 7.73159
Au 18.6716 19.4208 23.2082
Au 7.15416 25.2763 26.0534
Au 17.5421 15.3629 9.60096
Pd 21.0273 14.03 20.8068
Au 26.5038 18.5564 10.2734
Au 29.1218 18.2898 9.47731
Au 20.2275 10.6833 15.9648
Au 15.0556 23.225 30.1248
Au 23.2436 11.002 11.9052
Au 13.7861 30.2487 22.5719
Au 23.4107 27.7437 22.4298
Au 18.0157 27.0275 8.5065
Au 20.2882 17.0341 7.01119
Pd 9.96861 22.3114 9.57327
Au 20.2822 11.3415 32.4175
Pd 9.58049 19.5538 24.333
Au 31.1064 26.6145 24.4108
Au 10.6756 24.5025 19.045
Au 18.0333 27.3065 14.0299
Au 32.2544 20.8627 28.709
Au 30.8887 16.9591 11.1027
Pd 25.893 22.7721 29.406
Pd 23.2131 26.4209 13.7569
Au 32.1271 19.8072 23.545
Pd 21.3356 23.5615 22.0825
Au 5.08872 17.6698 22.0527
Pd 16.1851 19.0903 22.1032
Au 33.0305 19.2132 15.442
Au 22.2817 12.3316 15.6371
Au 27.9034 7.60869 21.4302
Au 29.5805 24.4735 25.6051
Au 11.6601 31.4231 20.7393
Pd 29.8548 11.2082 24.6901
Au 21.5133 28.5209 17.572
Pd 11.7799 17.1006 11.9553
Au 20.5531 32.1645 13.8652
Pd 22.2223 25.8845 18.003
Pd 21.2059 27.7937 24.2865
Au 30.4832 24.1065 20.6031
Au 6.76196 26.9746 20.9838
Au 34.5707 20.2376 24.4607
Pd 28.2421 9.21848 23.6323
Au 8.2853 27.5553 25.4382
Pd 21.9845 15.565 22.8207
Pd 31.565 16.7419 15.6361
Au 22.7678 15.934 20.0526
Au 23.1033 8.05238 24.0907
Au 9.52507 26.8789 17.8075
Au 29.3841 25.555 16.2193
Pd 29.341 20.1425 24.0828
Au 24.8973 12.9771 25.7479
Au 9.08181 21.5817 22.7299
Au 9.38086 31.6581 19.2995
Au 21.4476 10.5592 27.9205
Au 6.77053 14.231 15.4498
Au 11.7281 24.2484 9.00157
Pd 13.2964 25.1362 29.42
Pd 7.43816 18.1586 17.4228
Pd 9.72093 21.9616 18.2772
Pd 12.3307 25.7861 24.2709
Au 5.32274 23.8925 15.7833
Au 13.3252 23.2705 19.5896
Au 21.6251 18.4277 32.5504
Au 25.7685 30.6876 27.7282
Pd 31.2642 24.2251 23.2244
Pd 31.0156 21.6893 22.0651
Pd 20.7089 10.8203 12.8644
Au 28.7871 19.0217 19.553
Pd 14.0165 14.0917 14.6702
Au 21.9767 8.49414 12.0545
Au 15.5882 15.0327 24.2265
Au 29.2218 11.9711 19.1573
Au 14.2551 14.5783 21.7558
Au 5.05797 18.051 18.9511
Au 21.8458 29.4531 26.5931
Au 18.4644 5.04091 20.2365
Au 14.6473 27.2037 24.8178
Pd 30.2786 20.7982 13.258
Pd 12.479 17.0482 9.2692
Au 8.67847 20.6856 13.6059
Pd 25.8197 26.9805 23.8134
Au 13.1619 12.8682 19.2939
Au 6.17674 25.8351 14.1216
Au 15.1705 20.367 9.31728
Au 25.4566 8.09299 20.2283
Au 23.2857 18.7443 20.1043
Au 27.2781 16.9799 17.7156
Au 17.1238 26.1023 19.766
Au 22.003 12.9577 23.1978
Au 16.5872 28.5053 29.6257
Au 23.9278 9.09605 10.2097
Au 17.201 18.6058 30.3136
Au 32.9483 25.9124 19.89
Pd 11.2156 15.6336 26.2389
Au 13.8659 27.8259 29.6191
Pd 20.7774 13.2129 27.4504
Pd 11.1193 12.9665 25.2463
Au 19.398 28.5961 29.0446
Au 10.5023 29.2853 19.074
Pd 23.1082 13.1156 19.5036
Pd 16.23 6.27727 19.3202
Pd 18.0525 18.2851 20.3765
Au 9.87963 17.5066 9.97101
Au 23.4727 6.57656 21.8219
Au 11.2281 26.4561 15.652
Au 28.255 16.3806 20.2177
Au 12.682 14.9126 24.0114
Au 17.0176 31.8377 11.0749
Au 24.5678 26.9931 18.6828
Au 29.2665 7.9425 18.9508
Pd 20.9971 27.1895 15.1627
Au 24.0416 21.0958 13.9047
Au 11.9199 17.9479 23.7411
Au 21.8587 33.6303 19.6403
Pd 24.2124 8.16075 17.6535
Au 20.8177 6.34641 18.2739
Au 23.9332 31.6198 25.8842
Pd 21.7143 18.872 11.0935
Au 12.0058 8.18568 20.4203
Pd 17.7448 26.5388 28.2318
Au 15.8113 11.0493 11.8679
Pd 20.9964 20.7036 28.0533
Au 12.9972 25.2419 17.4536
Au 23.0968 31.2574 28.3344
Au 27.0205 13.6721 30.9
Au 30.6874 30.0746 17.216
Pd 9.88359 21.985 25.8055
Au 19.6036 20.5405 10.8865
Au 6.48237 20.7607 12.2094
Pd 13.3424 16.7127 15.489
Pd 15.326 28.4283 13.4192
Au 22.5364 28.4442 8.10984
Pd 19.242 22.8546 12.2991
Au 26.2578 10.255 22.0897
Au 19.5437 31.2188 11.514
Pd 13.7828 20.8663 11.9683
Au 15.9348 7.01088 16.6107
Au 18.0055 16.8329 28.1093
Au 6.84683 12.9689 20.2434
Au 15.8248 19.2211 19.0225
Au 20.6984 12.777 10.8352
Au 20.5898 24.6789 19.6661
Au 31.7559 12.8341 18.4566
Au 30.8869 22.0576 25.1645
Au 22.1856 28.1339 11.4395
Au 29.5512 28.0064 28.6219
Au 5.19277 19.2826 16.5104
Au 28.1472 17.8467 15.0193
Au 31.0594 10.0327 18.7945
Pd 30.873 17.0023 19.9144
Au 7.35658 27.9884 13.0805
Au 24.6167 16.3322 8.27526
Au 19.7244 11.1574 25.6847
Au 25.6544 31.0641 15.3176
Au 17.3878 20.6337 16.156
Au 20.8769 12.2688 8.19347
Pd 12.3899 28.6418 24.3451
Au 14.2708 16.3021 12.878
Au 11.8229 10.11 28.0226
Au 15.6438 33.7651 20.3576
Au 20.2963 29.159 13.2994
Au 15.6567 13.1816 9.54481
Au 16.9469 14.5031 32.9862
Au 25.2779 20.019 29.9826
Au 12.2387 30.7775 25.9617
Pd 8.00629 23.4933 24.2738
Au 11.6292 13.3331 28.0036
Pd 16.7425 20.2861 25.0157
Pd 19.1921 14.6612 22.6294
Au 12.7802 8.44486 26.0538
Au 18.7297 21.9644 32.2482
Pd 28.2944 25.9717 27.5971
Au 28.4617 23.335 28.2898
Pd 28.1324 17.3126 24.2752
Au 19.3822 11.9023 23.0362
Au 30.0201 27.0269 13.5932
Au 25.8505 15.5392 10.7026
Pd 29.7892 23.252 14.7862
Pd 18.1712 30.7304 17.4063
Pd 11.0897 19.412 13.3985
Pd 8.38661 23.3644 27.3366
Au 20.0556 13.8828 24.9809
Au 28.1923 15.5727 29.3039
Au 23.7988 23.1336 27.7326
Au 28.8405 17.7782 31.438
Au 8.121 29.8987 17.5385
Au 25.873 6.14509 16.6954
Au 19.7562 13.2189 13.5498
Au 15.8358 12.181 27.1256
Au 13.9747 7.55621 18.5351
Au 7.38309 25.9943 23.4678
Pd 8.82202 19.7393 26.9507
Pd 22.6359 7.88772 19.6589
Au 13.2292 11.5627 12.8798
Au 33.8733 21.1627 21.6411
Pd 16.1525 29.0838 23.2603
Au 19.6051 17.1669 31.075
Au 25.726 25.8722 15.0595
Au 23.7583 20.4377 27.7813
Au 19.2846 32.8384 23.7576
Au 30.1625 25.1041 29.4806
Au 9.79427 9.57209 19.4077
Pd 22.8464 29.1414 14.2025
Au 23.6856 33.1023 21.4437
Au 19.5603 29.8202 19.6822
Au 18.5777 28.3896 24.1373
Au 21.2541 32.1245 26.1889
Pd 22.5137 17.4594 17.8741
Au 5.44897 24.8639 18.4693
Pd 25.4413 28.4756 14.4181
Au 23.7397 9.8872 29.0804
Pd 11.6071 31.4342 23.47
Au 12.0798 8.25931 23.4516
Au 8.35832 12.6265 25.1981
Au 25.66 29.3838 22.3658
Au 21.3388 23.8529 7.1352
Pd 23.5947 9.45094 21.7177
Au 18.3762 7.80597 26.0774
Au 32.6776 18.1497 17.8503
Au 24.137 28.5979 27.741
Au 24.749 15.6379 17.84
Au 23.3458 22.0842 30.2279
Au 24.3271 7.27211 12.2329
Au 16.2632 22.8794 32.4336
Au 19.1451 32.8524 16.0906
Pd 17.9199 12.0462 15.8885
Au 12.775 25.7011 26.8708
Au 10.1136 9.37407 22.1311
Pd 28.0844 25.1184 11.1016
Au 19.7849 21.8009 8.05985
Au 33.8371 23.6816 18.6026
Au 16.4162 24.2174 27.9287
Pd 17.1002 31.0884 19.901
Pd 26.5998 19.7396 24.3733
Au 27.7659 29.0504 26.8602
Au 32.0482 28.2554 18.6754
Au 13.881 30.6503 15.4573
Au 31.4409 19.5069 26.4031
Au 10.0638 31.6201 16.6879
Au 18.9857 17.9036 12.2474
Au 25.6298 24.5205 19.438
Au 11.1625 16.86 17.1614
Au 7.26368 17.8462 20.3316
Au 22.708 22.1818 16.2878
Au 23.7698 19.5514 24.8343
Pd 22.4615 7.106 14.2823
Au 26.6703 27.074 9.86818
Au 19.9636 15.1884 29.1454
Pd 19.5154 15.1719 11.5063
Au 20.9842 18.2915 14.0742
Au 18.5488 10.0829 30.5089
Pd 18.8797 12.585 20.5297
Au 22.5412 15.232 28.16
Au 32.9005 20.4988 13.068
Pd 24.6696 14.7024 29.8606
Au 24.6229 10.4749 16.3995
Au 19.0901 19.5004 6.58959
Au 8.5347 30.3025 14.8241
Pd 15.8157 15.847 26.873
Pd 28.8078 13.5896 23.9079
Au 32.2362 16.5262 26.7486
Au 24.6103 13.0974 32.1581
Au 17.6855 11.9923 32.3408
Au 8.91167 25.6855 14.0226
Pd 19.6375 27.3465 26.4962
Au 22.7863 14.2945 7.82576
Au 17.5004 16.7419 22.6605
Au 31.6017 18.2021 13.3439
Au 23.2333 11.9997 9.40593
Pd 17.8009 18.086 17.6373
Au 15.7008 28.7769 20.687
Au 17.5921 17.4124 7.58636
Pd 29.5833 15.5121 25.7063
Pd 21.6396 15.2903 14.5549
Pd 14.0691 9.26367 21.9609
Au 20.4631 26.2898 12.6414
Au 17.2094 33.245 18.2242
Au 24.0409 32.4039 18.7876
Au 13.4997 33.0956 22.1203
Pd 22.5887 14.4343 25.5676
Pd 19.2374 29.9454 26.49
Au 18.4839 14.9097 7.03896
Au 20.3481 12.1526 29.8764
Au 23.6414 27.376 16.2142
Au 18.6567 24.6482 21.5763
Au 26.775 14.7577 25.1042
Pd 12.1523 21.009 27.4471
Au 6.27734 21.9619 22.6543
Pd 26.9883 10.3253 15.1834
Au 14.2264 10.1294 19.3419
Au 19.9192 13.8901 16.1527
Au 16.3676 32.0565 15.8765
Au 16.9243 15.8768 12.2386
Au 22.8465 23.2233 19.0388
Au 13.1411 15.7658 28.1795
Au 12.6875 28.359 14.1941
Pd 10.4063 29.0103 16.3607
Au 7.45109 19.3734 22.5774
Au 15.2495 13.0186 31.3771
Pd 18.7358 22.2218 23.0504
Pd 24.7043 11.9063 14.1495
Au 15.9788 18.6374 27.4618
Pd 16.0664 21.4231 27.4399
Au 25.13 14.5585 20.669
Au 19.6398 19.9917 30.4481
Au 14.605 9.71702 27.6614
Au 33.9712 19.1628 26.9464
Au 24.0022 29.7272 10.1336
Au 11.2237 18.528 26.3367
Pd 15.161 26.7308 27.5752
Au 14.6997 15.7079 31.7303
Au 18.0948 23.6118 19.1004
Au 29.1462 9.79588 16.9288
Au 10.2074 19.8841 8.46286
Au 28.2143 10.6104 10.9185
Au 27.4638 27.4834 12.5065
Au 21.5782 20.436 18.4967
Au 27.9844 25.2501 8.39076
Pd 18.4562 30.5687 22.2064
Au 5.98745 15.4319 20.8239
Au 18.3246 19.8409 28.0116
Au 18.8631 6.8416 22.3224
Au 10.5909 15.808 28.9923
Au 18.5873 10.8438 10.6208
Au 7.94624 11.1577 18.4696
Pd 20.3763 16.8978 16.3249
Au 26.638 23.0963 7.49546
Au 19.5122 28.1644 10.7031
Au 11.1956 29.0892 11.7904
Au 31.0093 26.2402 27.1434
Au 24.7008 19.888 22.2916
Au 32.1552 21.9027 19.5827
Au 18.3389 12.8534 8.8126
Au 28.0166 20.921 14.768
Au 21.5431 20.9102 12.9088
Au 27.161 14.2301 18.2643
Au 16.4371 5.8264 22.0322
Pd 9.61347 12.4687 20.3601
Pd 7.89196 23.1061 14.8142
Au 18.0733 10.9792 13.3991
Au 22.7376 25.3252 11.4197
Au 18.9778 8.27364 16.9636
Pd 23.0925 31.7672 14.6904
Au 23.0722 5.91916 16.6502
Au 27.922 23.8776 30.8833
Au 33.5829 17.7253 24.697
Pd 18.548 18.3421 25.833
Pd 23.433 12.6353 28.2657
Au 27.4927 19.6596 17.1991
Au 30.733 16.3048 30.1816
Au 16.7089 10.7015 22.9509
Pd 25.6164 17.0923 19.8894
Pd 18.1428 18.1122 15.0177
Au 16.06 10.8932 29.7728
Au 26.0171 22.0394 31.9629
Au 28.4336 10.2242 26.7505
Au 12.4589 17.0455 30.5776
Au 33.2714 22.5167 23.8213
Pd 17.447 30.8635 24.7324
Au 29.8504 16.0539 13.5568
Pd 17.0341 21.3203 30.1332
Au 22.5357 25.3923 23.5119
Au 25.9468 5.70289 21.3675
Pd 29.8871 17.4499 17.5168
Au 27.0334 28.9244 19.7676
Au 26.1326 16.0835 15.3785
Au 27.9789 21.0486 30.3099
Au 32.3535 18.1643 28.8585
Pd 22.3329 16.7795 30.3417
Au 25.043 31.719 23.4268
Pd 29.8068 14.7493 18.4874
Au 33.5435 21.094 17.4219
Pd 19.7235 27.1771 19.1724
Pd 31.8781 19.3817 20.6713
Pd 31.1211 13.2692 25.7562
Au 9.22336 13.8723 14.0279
Au 31.1598 27.6475 16.1239
Au 16.7839 17.9981 10.3683
Pd 29.4129 21.7024 19.7719
Au 11.766 13.3368 21.8672
Au 24.1915 20.9595 18.4226
Pd 28.9556 22.8152 23.3028
Pd 16.5417 8.88059 18.3909
Au 21.3686 15.7639 32.8679
Au 21.1025 20.8948 23.4386
Pd 15.1899 16.9948 29.42
Au 16.7651 13.47 22.1143
Au 6.13118 12.9808 17.6462
Au 25.7585 10.9734 27.3437
Au 13.5201 27.4386 22.2093
Pd 17.9825 15.6463 16.7082
Au 18.066 14.0325 27.3305
Pd 20.2701 16.7879 21.1188
Au 16.4399 8.42099 21.0772
Au 19.6662 8.64148 28.3135
Au 19.5156 14.1843 31.6246
Pd 26.0711 26.89 26.5178
Au 31.2689 23.6037 17.5022
Au 22.0249 29.3177 29.8169
Au 9.94258 21.4751 28.6941
Au 14.3335 24.6179 22.9426
Au 26.9209 26.1281 17.5412
Au 11.9855 19.2611 15.9661
Au 23.8494 19.2626 8.83073
Pd 22.767 9.82661 14.4139
Au 29.4072 13.4277 13.9548
Au 9.21209 19.9572 20.2815
Au 19.8736 28.8042 8.00637
Au 25.7624 24.3908 9.76965
Au 31.3809 11.2802 16.3541
Pd 21.6595 25.5406 26.0738
Au 27.3443 16.3312 8.65625
Pd 24.7855 27.8112 11.9392
Pd 26.128 19.7393 19.8435
Pd 28.9506 18.4163 12.469
Pd 23.5691 18.468 13.2774
Au 31.6745 14.5498 20.7043
Pd 8.99463 18.0827 12.476
Au 22.4618 13.3358 12.95
Au 22.0305 13.2096 33.1613
Pd 26.7628 13.2408 15.5031
Au 13.9898 25.5275 10.0696
Au 27.5979 23.5617 21.0942
Au 22.8454 19.5283 15.9513
Au 31.2551 19.5932 10.9463
Au 24.1011 12.1415 21.757
Au 25.5636 18.6523 26.8185
Au 25.3261 13.6422 8.92554
Pd 19.01 15.7989 14.1247
Pd 12.2468 23.3638 25.6699
Au 12.8535 14.2514 30.3737
Au 15.357 11.673 14.7108
Au 13.5558 27.9419 11.3188
Au 29.8818 15.7526 22.6895
Au 22.7502 18.3271 6.7079
Au 27.919 29.7956 24.2765
Pd 14.8113 15.7223 10.2978
Au 20.58 22.5986 30.2049
Pd 18.6162 32.5338 26.4719
Au 25.2596 28.4601 8.12874
Au 5.92301 23.3661 13.0038
Au 16.7751 33.4189 24.5316
Au 22.3112 32.4193 23.6773
Au 16.6464 17.4023 32.6919
Au 29.1904 21.8096 17.0212
Au 9.25195 27.2263 11.4141
Au 22.4367 23.4553 32.3171
Pd 20.5013 16.1937 26.5043
Au 24.655 5.56666 14.3964
Au 28.7848 30.8314 18.9766
Au 16.2889 19.6935 6.8117
Pd 14.2968 17.0218 22.8853
Pd 20.1256 15.4136 18.6204
Au 23.608 27.3334 25.3463
Pd 9.79674 9.97887 16.5724
Au 20.3411 6.13348 15.6565
Au 17.6208 30.7764 28.4573
Au 16.8593 28.7678 26.6983
Pd 22.5511 10.7544 17.9871
Au 7.72565 27.8736 15.7082
Pd 15.5365 24.5288 18.1317
Au 19.4183 25.721 23.9939
Au 29.647 21.002 27.7468
Au 28.1675 9.04679 13.0318
Au 22.8031 11.5002 31.0373
Au 31.7345 25.2132 14.8293
Au 14.4535 20.5398 29.2841
Pd 16.2773 18.4549 13.0768
Pd 15.8112 13.8953 16.5963
Pd 9.09531 16.6431 18.8784
Au 26.5791 28.1672 29.0646
Pd 15.2163 30.2174 17.9302
Au 25.3596 11.8274 29.9414
Au 31.2634 23.3217 27.7034
Au 16.0382 17.7803 24.7851
Pd 33.2312 21.7157 26.3794
Au 32.4586 24.4264 25.6126
Pd 22.4763 24.724 29.8292
Au 19.1377 24.7456 14.407
Au 14.9548 23.0335 15.955
Pd 30.2944 22.3641 30.0627
Au 27.9715 22.0648 25.6888
Au 20.0646 17.1025 23.8988
Pd 22.3252 28.0469 20.0037
Au 30.2135 19.4238 29.8844
Pd 24.0537 17.4387 10.8551
Au 19.6583 32.4518 18.8834
Au 18.8508 9.88736 21.1486
Au 21.1648 26.3044 9.30668
Pd 17.0541 10.1288 25.7413
Au 15.7785 31.1527 13.4223
Au 14.0379 19.7917 23.3475
Au 12.6183 23.79 11.6965
Au 13.6089 18.7629 13.753
Au 16.2564 26.5433 22.4038
Au 19.4658 17.4654 9.65984
Pd 14.0024 19.5995 26.0223
Au 14.6122 9.68175 24.5655
Au 5.27468 22.5246 19.8818
Au 13.3368 30.4698 12.6295
Au 29.675 13.3884 30.1076
Au 12.0685 19.9015 30.4521
Pd 24.4366 24.3969 17.0127
Au 14.0847 21.3543 31.8237
Au 21.7059 16.44 12.1074
Au 13.0592 11.3583 26.1363
Au 21.7052 27.1717 28.2589
Pd 33.0907 23.7161 21.3415
Au 24.301 18.0973 31.7649
Pd 11.2273 17.9672 19.7466
Au 18.4014 11.1721 27.9922
Au 28.6122 24.09 18.4963
Pd 12.7383 21.7765 9.68027
Au 23.9509 15.5653 32.3615
Au 25.8777 31.582 20.745
Au 23.9418 27.1155 30.1827
Au 30.2613 28.6544 25.9984
Au 30.5736 26.1003 18.6736
Au 20.768 31.9527 21.4829
Pd 25.4699 29.3995 25.2705
Au 17.2977 15.6869 30.5791
Pd 23.2137 30.5281 21.5404
Pd 18.4945 10.7465 18.248
Pd 10.4926 23.5348 13.7626
Pd 12.0751 9.54287 17.8928
Au 7.3156 21.0115 25.0712
Pd 11.6757 16.0662 21.7369
Au 13.2201 14.6583 17.2283
Au 7.26784 22.9099 17.6274
Au 26.346 17.359 12.815
Au 18.8357 25.4258 10.6089
Au 24.3369 5.79987 19.1338
Au 18.7037 7.55943 19.6601
Pd 17.4748 21.104 20.8169
Au 15.3424 14.2319 28.9914
Au 30.046 20.79 8.79138
Pd 16.0034 23.5999 20.8636
Au 30.626 14.6346 28.021
Pd 15.8763 11.4497 17.5862
Pd 21.4706 11.2291 20.9039
Au 17.9958 13.4452 18.2046
Au 26.7024 6.86318 13.214
Au 16.8496 24.3799 12.0023
Au 17.0733 26.3695 16.8369
Au 18.0154 15.3694 20.1961
Pd 22.1756 14.0802 30.6286
Au 24.8588 30.5362 12.7422
Au 11.6231 21.9889 7.37763
Au 29.972 29.5129 14.5918
Au 20.5943 9.38659 19.0527
Au 22.2698 30.8908 12.1613
Au 28.2459 26.5634 30.4568
Au 11.6369 19.4447 10.6431
Au 34.3763 18.6349 22.1501
Au 27.9914 27.8966 22.2987
Au 26.725 19.29 32.0612
Au 11.8061 25.1857 21.561
Au 15.1473 22.8726 10.4468
Au 17.6458 29.4518 12.2702
Au 12.6893 21.6276 14.3989
Au 16.6761 27.0673 11.3578
Au 30.4831 24.7048 12.3332
Au 8.54382 12.2771 16.0836
Pd 20.1871 18.1341 18.7467
Au 8.78574 15.0708 21.017
Au 25.4665 9.70258 12.815
Pd 17.7429 23.4312 16.4965
Au 14.4499 26.7273 15.5856
Pd 13.3681 11.9044 16.7221
Au 14.1281 20.6727 17.0039
Au 26.7717 8.65143 17.6702
Pd 24.9605 18.4923 17.6091
Pd 14.3676 11.9045 21.5532
Au 28.6216 20.5301 10.9625
Au 25.0175 8.14054 15.0077
Au 26.9175 18.2231 22.0174
Au 9.81011 14.5781 23.5322
Au 11.314 14.8387 10.1246
Pd 27.7086 9.87452 19.8839
Au 27.5483 13.3134 10.6516
Pd 25.6107 18.9606 15.0779
Au 17.9053 19.9998 8.93652
Pd 31.6419 21.5244 15.6124
Au 15.9546 32.004 26.6911
Au 22.1447 18.4869 22.7158
Pd 20.8804 29.2197 21.9657
Au 9.78877 11.55 27.1944
Au 20.061 24.6531 31.8721
Au 13.6946 11.9735 29.0063
Au 30.9125 22.2898 10.9985
Au 28.1584 30.4519 16.2506
Au 26.465 16.4138 31.335
Au 12.163 10.0504 15.0787
Pd 20.9533 19.3868 8.50334
Au 17.3352 22.8438 25.606
Pd 15.3409 20.6963 14.3517
Au 24.7977 10.5828 19.3913
Pd 10.7858 27.4439 26.1352
Au 27.1286 11.4642 24.8052
Au 20.6103 23.4003 24.6974
Au 32.1575 15.2714 24.3449
Au 14.4402 31.4658 20.1542
Au 31.2774 14.0593 15.9747
Au 27.9096 20.7425 21.7557
Au 23.8508 22.8753 11.6719
Au 22.1149 16.9093 9.04106
Au 23.0277 14.6207 10.4674
Pd 25.1705 21.7462 25.754
Au 6.81281 20.3614 18.8328
Au 10.9469 21.6733 11.9697
Au 19.1536 9.18154 23.8368
Au 32.9402 25.8519 17.2037
Pd 20.4008 30.5069 24.2058
Pd 14.7768 23.0884 13.1832
Au 16.0656 16.1831 14.9022
Au 15.5487 16.3545 17.781
Pd 9.8917 24.9563 25.5468
Au 26.5612 8.41167 10.8479
Pd 30.9241 20.0558 18.0723
Au 30.2546 28.8905 23.1983
Au 25.0592 22.2289 20.8253
Au 27.2427 20.6485 8.55743
Au 11.9649 26.8869 19.3332
Au 9.16127 14.2057 27.2254
Au 13.0956 18.4422 28.3084
Au 14.517 22.0548 25.1375
Au 21.0816 8.34612 21.8472
Au 13.8245 13.9762 26.3316
Au 10.7229 16.3027 14.3526
Au 12.3898 31.2021 17.956
Au 26.3039 31.2977 18.0366
Au 11.4636 19.9826 21.9177
Au 22.9192 17.8739 27.5433
Au 13.4426 18.1894 18.0041
Au 12.9089 28.5845 17.0447
Pd 22.5494 21.2359 21.0369
Au 14.1363 6.71242 21.0997
Au 21.1846 9.50674 30.411
Pd 15.3386 29.8019 10.9083
Au 14.4861 18.679 31.4194
Au 30.7553 17.6722 24.6309
Au 23.9759 23.8414 14.3755
Au 18.0431 15.7258 25.1985
Pd 13.5921 16.935 25.7122
Au 17.6767 13.1683 11.4978
Au 19.0039 28.2949 16.4913
Pd 10.6827 12.6263 12.0155
Au 11.5761 26.2083 12.7959
Au 9.98394 24.1226 16.4224
Au 18.6288 22.5145 28.185
Pd 9.88544 19.3167 17.741
Pd 29.1064 12.6201 16.5882
Au 12.2444 22.6423 17.0804
Au 4.85905 21.7627 17.3606
Au 25.4869 17.1594 24.5183
Au 19.9746 22.1052 20.4055
Au 29.7158 18.4617 22.0516
Au 28.0302 25.109 13.8238
Pd 28.903 25.4422 22.739
Pd 16.9661 24.3161 23.5594
Pd 14.1412 23.6271 8.07391
Au 26.0291 28.7715 17.0733
