923
Atoms. Timestep: 20461
Au 18.8781 20.2003 19.9324
Au 21.3399 20.0954 18.4953
Au 21.276 20.1611 21.3146
Au 16.6337 20.2486 18.3675
Au 16.569 20.3444 21.4508
Au 17.5553 22.5968 19.7935
Au 20.5298 22.4359 19.8457
Au 17.2351 17.9182 19.8826
Au 20.2661 17.8576 19.9638
Au 18.8167 18.8078 22.2677
Au 18.8715 21.7183 22.2117
Au 18.9055 18.7261 17.6307
Au 19.124 21.5801 17.5698
Pd 23.7542 19.9731 17.0467
Au 23.8006 20.0425 19.8362
Au 23.7578 20.1165 22.6464
Pd 14.358 20.4105 16.7979
Au 14.3679 20.4428 19.7507
Au 13.3938 18.1 23.8083
Pd 16.2692 25.0594 19.7502
Au 19.3066 24.9167 19.6813
Au 22.2239 24.6481 19.7057
Pd 15.7861 15.5044 19.7617
Au 18.6915 15.5226 20.0182
Au 21.748 15.5426 19.9828
Au 19.0783 17.4835 24.6293
Au 19.07 20.3105 24.6029
Au 19.2054 23.1501 24.4219
Au 19.0041 17.2966 15.31
Au 19.1592 20.1151 15.2043
Au 19.3906 22.9627 15.2084
Au 21.4035 18.7815 23.6908
Au 21.4896 21.6577 23.6
Au 21.3911 18.6131 16.1503
Au 21.5987 21.4801 16.0759
Au 16.4738 18.884 23.8814
Au 16.3304 21.6777 24.0136
Pd 16.6494 18.7591 16.0289
Au 16.8343 21.6657 16.0122
Pd 23.0309 22.3406 18.3618
Au 23.0253 22.3995 21.1893
Au 15.2494 22.7677 18.2094
Au 12.304 21.4708 18.3505
Au 22.7897 17.7252 18.4824
Au 22.8033 17.7963 21.3323
Au 14.9649 17.9251 18.1029
Au 14.9326 17.9975 21.3582
Au 17.8527 24.3154 21.946
Au 20.7226 23.9659 22.105
Au 17.2241 16.5222 22.332
Au 20.3849 16.474 22.3388
Au 17.8435 24.0331 17.4441
Au 20.8277 23.8504 17.4356
Au 17.3845 16.3707 17.553
Au 20.3547 16.3514 17.6428
Au 26.1688 19.84 15.5962
Au 26.2463 19.9059 18.3677
Au 26.2807 19.9816 21.1774
Au 26.2426 20.0596 23.9561
Au 11.5019 18.2581 14.9048
Au 12.3513 18.9368 20.6513
Au 8.8426 16.8182 23.6333
Pd 12.3313 19.0538 27.0933
Au 15.3184 27.5909 19.407
Au 18.1314 27.3941 19.6729
Pd 21.0337 27.1568 19.627
Au 23.9123 26.8479 19.5942
Au 14.2783 13.3278 20.6062
Au 17.3158 13.1014 19.8968
Au 20.2985 13.1651 19.995
Au 23.2857 13.2391 19.9788
Pd 19.4379 16.1143 27.0447
Pd 19.5159 18.9484 26.9909
Pd 19.6574 21.7564 26.8529
Au 19.7351 24.613 26.6694
Pd 19.1751 15.9161 12.9618
Pd 19.3007 18.6874 12.8652
Pd 19.4841 21.5112 12.8288
Au 19.6933 24.3592 12.8044
Pd 23.966 18.7206 25.0091
Au 21.6907 17.4051 26.047
Pd 24.0646 21.6143 24.9188
Pd 21.7979 20.2644 25.9757
Au 21.9281 23.1524 25.8337
Au 23.8328 18.4862 14.6961
Au 21.5035 17.16 13.7996
Au 24.0041 21.3721 14.617
Au 21.6497 20.0104 13.6865
Au 21.8605 22.8717 13.6578
Au 12.4236 15.5036 24.2885
Au 17.1166 17.4886 26.4875
Au 14.6706 21.2916 27.7653
Pd 17.0184 20.3594 26.4146
Au 17.2417 23.1526 26.3156
Au 14.3224 18.7015 14.6285
Pd 16.8248 17.3603 13.6808
Au 14.6592 21.7786 14.3718
Au 16.9077 20.1561 13.6161
Au 17.1898 23.0669 13.5876
Au 24.7158 24.5702 18.236
Au 25.4555 22.232 16.9087
Pd 24.7209 24.6217 21.0751
Au 25.509 22.3015 19.7249
Pd 25.501 22.3508 22.5314
Au 11.982 27.3645 22.4639
Au 13.1524 23.2607 16.451
Au 11.1849 24.7459 21.4455
Au 13.0078 23.828 19.5813
Au 12.14 21.7604 21.1954
Au 24.2821 15.3815 18.4693
Pd 25.2295 17.598 17.0147
Au 24.3528 15.4583 21.3513
Au 25.3094 17.6585 19.8329
Au 25.3263 17.7302 22.6786
Au 13.5924 14.1816 17.9635
Au 12.8734 16.5529 16.664
Pd 14.0028 15.5948 22.1177
Au 13.1757 16.4984 19.5536
Au 11.3448 16.95 22.2214
Au 18.2654 25.7453 24.3218
Au 16.567 26.9321 22.0285
Au 21.0738 25.5058 24.3469
Au 19.5966 26.568 22.0002
Au 22.4597 26.2083 21.966
Au 17.7952 15.0528 24.7799
Au 16.2855 13.9995 22.4367
Au 20.7111 15.1019 24.7345
Au 19.0751 14.0725 22.413
Au 22.0111 14.1493 22.3887
Pd 18.2292 25.4471 15.0317
Au 16.7979 26.5281 17.2583
Au 21.0999 25.2589 15.0506
Au 19.6464 26.3535 17.3128
Pd 22.4906 26.0975 17.3252
Au 17.643 14.8704 15.1012
Au 16.1774 13.898 17.2373
Au 20.5169 14.9066 15.2868
Au 18.9672 13.9508 17.6052
Au 21.8874 14.0154 17.6191
Au 23.0383 16.4023 23.7356
Au 23.3085 23.9107 23.4677
Au 22.8919 16.2112 16.1255
Pd 23.2866 23.758 15.9544
Pd 15.3674 16.3985 24.4639
Au 15.1942 22.8197 21.2232
Pd 15.3123 16.2238 15.7412
Au 14.2534 25.4445 17.8287
Au 28.5821 19.6908 14.1358
Pd 28.6919 19.7627 16.9092
Au 28.7502 19.8256 19.6925
Au 28.7858 19.9015 22.4828
Au 28.764 19.9852 25.2621
Pd 8.98523 18.8524 13.9028
Au 12.1407 18.8698 17.7056
Au 6.6073 17.2651 20.3756
Au 6.58587 14.3109 20.5638
Au 11.9208 23.3099 25.9424
Au 14.1735 30.2606 19.1107
Au 16.9146 29.9501 19.7723
Au 19.8499 29.6806 19.5932
Au 22.7429 29.3585 19.5515
Au 25.6156 29.0634 19.5005
Au 11.8805 12.2268 19.1831
Au 16.2654 10.656 20.6524
Au 19.0301 10.7097 20.01
Au 21.9317 10.8274 19.9903
Au 24.8536 10.9282 19.9568
Au 19.6231 14.7317 29.4143
Pd 19.7789 17.5794 29.4198
Au 19.9559 20.4288 29.3067
Au 20.0652 23.3117 29.1183
Au 20.1644 26.1639 28.9422
Au 19.3179 14.5111 10.6118
Pd 19.4975 17.2874 10.4994
Au 19.6577 20.0833 10.467
Au 19.847 22.9214 10.4288
Pd 19.9375 25.787 10.3556
Au 26.4804 18.6453 26.3378
Au 24.2369 17.327 27.3759
Pd 21.9519 16.0372 28.4214
Au 26.5815 21.5738 26.2587
Au 24.3381 20.2405 27.3304
Au 22.0742 18.8934 28.374
Pd 24.4639 23.1321 27.1826
Au 22.2341 21.7966 28.2551
Pd 22.3505 24.6691 28.0888
Au 26.259 18.3265 13.2241
Pd 23.9508 17.0078 12.3551
Au 21.6589 15.7362 11.4741
Au 26.4298 21.241 13.1434
Au 24.1063 19.8832 12.2302
Pd 21.8118 18.551 11.3576
Pd 24.2812 22.771 12.1976
Pd 21.985 21.4139 11.2903
Pd 22.137 24.2883 11.2778
Au 10.5107 19.0667 29.3964
Au 13.2702 16.4299 26.6512
Pd 17.3311 16.1692 28.9441
Pd 13.1912 19.5883 29.5527
Au 14.8007 18.7929 26.0731
Au 15.0779 17.6705 28.4902
Au 13.4201 22.2588 30.4918
Au 17.592 21.8338 28.7178
Au 17.6293 24.9434 28.4807
Au 12.4786 19.4216 12.7016
Pd 14.7148 17.6229 12.0367
Au 17.0354 16.0612 11.2533
Au 12.5777 22.1969 12.6427
Au 14.8664 20.444 11.8519
Au 17.1506 18.8287 11.1615
Au 15.0922 23.3004 11.8518
Au 17.334 21.6573 11.1259
Au 17.5585 24.5464 11.0831
Pd 26.4181 26.7873 18.1207
Pd 27.178 24.4672 16.7803
Au 27.9132 22.0985 15.4474
Au 26.4348 26.8464 20.9671
Au 27.2304 24.5275 19.5915
Au 27.9893 22.1642 18.2421
Au 27.2258 24.5817 22.4144
Au 28.0255 22.2452 21.052
Au 28.0086 22.3081 23.8599
Au 14.6582 26.7698 15.4082
Au 11.9464 25.8668 16.1363
Au 13.6042 24.5062 13.9787
Pd 10.4128 22.8364 17.1583
Au 10.1534 20.1238 19.4414
Au 9.86937 20.0936 16.4118
Au 10.7718 22.7455 23.4634
Au 8.73813 19.4917 24.2446
Au 13.5657 20.971 25.2082
Au 25.803 13.0483 18.4551
Au 26.7223 15.2345 16.989
Au 27.661 17.45 15.5464
Au 25.8986 13.1499 21.3416
Au 26.8455 15.3051 19.8431
Au 27.7696 17.5194 18.3562
Pd 26.8739 15.3892 22.6798
Au 27.8299 17.5676 21.1774
Au 27.8212 17.6511 23.9767
Au 10.9766 14.9418 18.0565
Au 9.27265 11.0477 18.6053
Au 10.8845 17.1376 12.1657
Au 12.5913 13.0093 22.7849
Au 11.6039 14.6093 20.7182
Au 10.451 17.2307 19.4361
Au 10.3993 12.3084 24.516
Au 10.1182 12.3722 21.5096
Pd 10.141 14.555 23.1285
Au 18.7015 27.1711 26.7075
Au 16.1937 25.776 26.2001
Pd 14.607 26.6642 24.0223
Au 21.521 26.98 26.6204
Pd 19.8834 28.1518 24.322
Au 18.4973 29.0918 22.0116
Au 22.7702 27.7759 24.2335
Pd 21.3382 28.7818 21.9348
Au 24.1878 28.4394 21.8785
Au 18.2372 13.6293 27.1847
Au 16.8075 12.4763 25.036
Au 15.0636 11.582 22.9562
Au 21.0462 13.7131 27.1143
Au 19.5573 12.5919 24.8397
Au 17.9605 11.5683 22.6006
Pd 22.3586 12.7319 24.7498
Au 20.7527 11.6817 22.4182
Au 23.605 11.8203 22.3774
Au 18.5784 26.8972 12.6209
Au 17.1464 27.9876 14.8321
Au 15.7206 29.1211 17.0527
Au 21.3893 26.6614 12.6286
Au 19.9641 27.8089 14.93
Au 18.5222 28.8603 17.2491
Au 22.7798 27.5261 14.9383
Pd 21.3486 28.6315 17.2413
Au 24.1797 28.3236 17.2134
Pd 17.7361 13.5333 12.7152
Au 15.5619 10.1084 16.3796
Au 15.0282 11.7825 18.5261
Au 20.6465 13.5313 12.9401
Au 19.1805 12.4261 15.2201
Au 17.7443 11.4571 17.4942
Pd 22.0202 12.5472 15.2839
Pd 20.5593 11.5846 17.6105
Au 23.4132 11.6926 17.6094
Pd 25.5725 16.3143 25.0553
Au 25.8332 23.8775 24.8256
Pd 24.6265 14.0586 23.7486
Au 25.0269 26.1842 23.3665
Au 23.3263 15.0044 26.0983
Au 23.6924 25.4445 25.7485
Au 25.321 16.0667 14.6505
Au 25.7335 23.6502 14.4811
Pd 24.3764 13.8469 16.0999
Au 24.9843 26.0039 15.8397
Pd 23.0052 14.7494 13.7838
Au 23.5714 25.1612 13.5418
Pd 12.2454 13.4614 26.3293
Pd 14.1323 20.4021 22.6044
Au 14.4909 13.8249 24.6543
Au 11.0722 23.6878 29.7042
Au 15.8129 15.0397 26.8532
Pd 14.6317 23.4428 25.9278
Au 9.58858 16.0151 14.2216
Pd 15.7195 24.201 15.7253
Pd 14.0336 13.6335 15.2655
Au 12.5933 27.0854 13.5169
Au 15.4324 14.9565 13.2909
Au 16.103 25.6628 13.2612
Au 30.9561 19.524 12.6852
Pd 31.0557 19.6111 15.4467
Au 31.1559 19.6731 18.2323
Au 31.2349 19.7334 21.0204
Au 31.2762 19.843 23.7975
Au 31.2372 19.9229 26.5814
Au 8.84047 17.4658 10.2885
Au 8.23989 18.5732 18.3324
Pd 9.28149 21.153 21.8866
Pd 8.8434 15.7458 21.0724
Pd 7.17704 19.9404 20.4328
Pd 10.9237 17.8871 25.0676
Au 11.778 29.2974 19.8728
Au 15.7909 32.5352 23.8125
Au 18.7531 32.2787 19.3765
Au 21.6384 31.8659 19.5027
Pd 24.4851 31.5668 19.4701
Pd 27.2634 31.2627 19.4227
Pd 13.4104 10.686 20.865
Au 13.9945 9.0465 23.1733
Pd 18.0718 8.19726 20.7039
Au 20.7318 8.37288 20.1784
Au 23.5586 8.48223 20.0295
Au 26.3761 8.59782 19.9353
Au 19.8287 13.3766 31.7413
Au 20.1421 16.2732 31.8178
Au 20.302 19.1038 31.7637
Au 20.4297 22.0511 31.6194
Au 20.4736 24.8944 31.4146
Pd 20.5817 27.6925 31.1489
Pd 19.4597 13.1145 8.27457
Au 19.6722 15.8799 8.11672
Pd 19.8199 18.6886 8.08996
Au 19.968 21.5001 8.01593
Au 20.114 24.3349 8.02886
Au 16.839 28.6253 8.48462
Au 29.0041 18.6048 27.6912
Au 26.7828 17.2673 28.744
Au 24.5221 15.9544 29.7696
Au 22.2227 14.6459 30.7597
Au 29.1143 21.517 27.5951
Au 26.8909 20.2066 28.7413
Au 24.6645 18.8756 29.7849
Au 22.41 17.5473 30.7945
Au 26.9619 23.1108 28.5433
Pd 24.7629 21.7965 29.6411
Au 22.5562 20.4733 30.7132
Pd 24.8504 24.634 29.4363
Pd 22.6417 23.348 30.5264
Au 22.7562 26.1888 30.3448
Au 28.6742 18.1651 11.7686
Pd 26.3542 16.8427 10.9112
Pd 24.0693 15.5502 10.0507
Pd 21.7927 14.3009 9.14951
Au 28.8585 21.0793 11.6791
Au 26.5594 19.7098 10.7352
Au 24.268 18.3831 9.88435
Au 21.9706 17.117 8.98891
Au 26.7102 22.6295 10.7304
Au 24.4165 21.2855 9.80006
Au 22.1295 19.9551 8.92951
Au 24.5544 24.1591 9.80001
Pd 22.2887 22.8131 8.88817
Au 22.3745 25.6934 8.90912
Au 12.3167 14.4532 30.8541
Au 10.6374 17.0188 27.6742
Pd 15.0774 15.5252 30.4974
Au 17.5796 15.2552 31.5042
Au 9.1933 19.6874 27.1318
Pd 12.7157 16.8281 29.5003
Au 15.8315 16.8581 33.2014
Pd 17.6513 17.9528 31.3881
Au 13.5265 20.2923 32.2731
Pd 15.5917 20.5072 30.2174
Au 17.4541 19.0279 28.8626
Au 15.7464 22.2923 32.2571
Au 18.0062 20.6927 31.3328
Au 18.4565 25.1603 33.2274
Pd 12.1428 20.9598 15.2434
Au 12.7668 20.7328 10.0576
Au 15.0022 16.3572 9.40103
Pd 17.2438 14.7077 8.78268
Pd 10.7877 21.0951 8.32403
Au 12.9958 19.3733 7.62377
Pd 15.072 19.126 9.37556
Au 17.3872 17.5003 8.68853
Au 13.0716 23.5649 10.0325
Pd 15.2254 21.8974 9.34401
Au 17.5014 20.2784 8.65481
Au 14.0097 25.9194 11.3888
Au 17.6699 23.0849 8.6557
Au 17.7706 26.0254 8.50059
Au 28.0915 29.0175 18.0294
Au 28.8481 26.6983 16.6808
Au 29.6183 24.3516 15.3244
Au 30.3437 21.9477 13.9772
Au 28.1288 29.1077 20.8953
Au 28.9443 26.7579 19.5082
Au 29.7213 24.4126 18.1476
Au 30.4693 22.0218 16.787
Au 28.9471 26.8318 22.3333
Pd 29.7628 24.4921 20.954
Au 30.5193 22.1131 19.5901
Au 29.7418 24.5486 23.7678
Au 30.5526 22.1964 22.3878
Au 30.5314 22.27 25.2126
Au 14.1274 25.409 21.673
Au 9.9457 27.3708 20.5416
Pd 7.2225 19.8227 16.0726
Au 11.9388 26.1338 9.5743
Au 9.94841 22.8425 19.8514
Au 8.43966 22.0253 25.044
Au 5.84512 17.7606 17.5917
Au 8.38857 22.5675 15.5288
Au 14.0873 28.6208 21.5104
Au 9.41292 26.1608 22.987
Au 8.04559 21.3354 18.1657
Pd 13.3775 28.8734 24.4019
Au 6.73416 18.4758 22.7742
Pd 12.1564 25.1934 23.986
Pd 27.2977 10.7279 18.4509
Au 28.2304 12.8696 16.9812
Au 29.1574 15.0782 15.5065
Pd 30.0485 17.2976 14.0852
Au 27.4209 10.8192 21.3052
Pd 28.3465 12.9719 19.8211
Au 29.3019 15.1451 18.3667
Au 30.1997 17.3634 16.8901
Au 28.4116 13.0808 22.6634
Pd 29.3404 15.2275 21.173
Pd 30.2679 17.4177 19.7109
Pd 29.3441 15.3359 23.9802
Pd 30.3018 17.5063 22.4869
Au 30.3143 17.5907 25.2888
Au 13.2347 8.65073 15.9753
Au 10.4186 12.4666 16.723
Au 9.66015 10.4083 13.4546
Au 7.51001 16.9563 12.5826
Au 10.5722 9.8906 20.6492
Au 8.99533 8.59828 17.6006
Au 9.54936 12.3562 11.6873
Au 9.12395 12.9949 14.213
Au 9.05077 13.6369 19.3454
Pd 8.61212 14.4804 16.3918
Pd 5.15442 15.5294 18.8197
Au 8.57588 10.3751 22.5762
Au 7.79898 13.217 22.7157
Pd 8.29607 17.3049 26.1497
Au 19.2095 28.8129 29.0163
Au 16.9876 28.111 24.6613
Au 15.903 24.3615 23.7205
Au 13.3448 31.5655 24.279
Au 21.9801 28.5102 28.887
Au 20.5277 29.594 26.6153
Pd 14.8352 28.1085 26.5917
Au 15.558 30.4079 25.4161
Au 23.3049 29.2802 26.5176
Au 18.54 30.7261 24.2781
Au 20.206 31.3357 21.9438
Pd 24.5432 29.9719 24.1433
Au 23.0899 31.0283 21.8771
Pd 25.8937 30.6366 21.7729
Au 18.5848 12.0432 29.5422
Pd 17.1447 11.0433 27.423
Au 15.5752 9.99952 25.3716
Au 13.1352 11.2456 24.9997
Au 21.3392 12.2806 29.4857
Au 19.8793 11.1142 27.2516
Pd 18.3652 10.0566 25.1031
Au 16.792 9.04492 23.0381
Au 22.6617 11.3165 27.1166
Au 21.1422 10.1916 24.8848
Au 19.583 9.18448 22.718
Au 23.9212 10.3653 24.7378
Au 22.366 9.29404 22.4709
Au 25.1705 9.43372 22.3432
Au 18.9216 28.334 10.2164
Pd 17.5103 29.4451 12.4065
Au 11.0434 28.4582 15.3644
Au 13.2195 28.0176 17.5105
Pd 21.6613 28.0476 10.2664
Au 20.3053 29.2635 12.5062
Au 18.863 30.3523 14.7537
Au 17.3904 31.3427 17.0398
Pd 23.0743 28.925 12.5517
Pd 21.6694 30.0971 14.8247
Au 20.2366 31.1671 17.1156
Au 24.4676 29.7731 14.8221
Au 23.0488 30.911 17.1335
Au 25.8737 30.5771 17.1243
Au 17.8297 12.1302 10.3536
Au 16.4026 12.2875 14.8722
Au 14.4012 6.35005 16.1624
Au 14.1915 9.14583 18.6379
Au 20.7438 12.0949 10.5571
Au 19.2158 11.1684 12.7615
Au 18.0502 9.77487 14.9996
Pd 16.8573 9.03859 18.5167
Au 22.0525 11.1181 12.9552
Au 20.7515 9.99504 15.276
Pd 19.3862 9.10395 17.7118
Au 23.535 10.1842 15.2854
Au 22.1308 9.19538 17.6562
Pd 24.9524 9.36068 17.6308
Au 28.0785 16.231 26.3876
Au 28.3777 23.8737 26.2092
Pd 27.1481 13.9779 25.0707
Au 27.5895 26.1565 24.7484
Au 26.195 11.6978 23.7586
Au 26.7707 28.4577 23.2909
Pd 25.861 14.9314 27.4449
Pd 26.2238 25.4018 27.1145
Au 24.9325 12.6379 26.1242
Au 25.439 27.7242 25.6679
Au 23.6277 13.6066 28.491
Au 24.1305 26.9725 28.0344
Pd 27.7539 15.9015 13.1664
Au 28.2051 23.5487 12.9788
Au 26.8121 13.6777 14.596
Au 27.4387 25.9218 14.3597
Au 25.8938 11.4837 16.0643
Pd 26.6665 28.2543 15.724
Au 25.4134 14.5796 12.3047
Au 26.026 25.0724 12.0517
Pd 24.4406 12.3746 13.764
Pd 25.2613 27.4389 13.4433
Pd 23.0913 13.3 11.4565
Au 23.8669 26.5978 11.1416
Au 8.44277 15.2504 27.9338
Au 9.53947 24.5794 25.1738
Au 9.27353 12.8662 26.9435
Pd 13.2566 25.9026 26.345
Pd 14.7546 12.3132 26.9859
Au 13.534 23.0078 23.3517
Au 12.6105 11.989 28.7648
Au 13.2429 23.8635 28.2479
Au 15.0956 10.7624 29.187
Au 14.9025 25.9477 28.6479
Pd 16.2923 13.4259 29.091
Au 17.9706 26.4909 30.7111
Pd 13.0669 16.2276 13.8816
Au 9.98386 21.3234 13.4634
Au 11.2708 14.2737 12.7978
Au 11.0169 23.6321 14.6315
Au 13.0063 11.4274 16.7187
Au 10.5526 27.8326 17.8831
Au 13.2284 15.3949 11.2463
Au 9.23697 25.2533 16.2095
Pd 11.4953 14.5669 15.4602
Au 15.0562 28.2663 12.9215
Au 15.5475 13.7848 10.7488
Pd 11.56 24.7842 12.0979
Pd 33.1761 19.3681 11.3104
Au 33.36 19.4391 14.0148
Pd 33.3886 19.5209 16.7797
Au 33.5285 19.5895 19.5683
Au 33.5991 19.68 22.3674
Au 33.6316 19.7758 25.1698
Au 33.5321 19.8629 27.876
Au 6.1054 18.7252 13.9384
Au 10.9773 15.8005 9.68481
Pd 9.95923 17.111 16.7446
Au 12.0263 30.3593 17.1638
Au 8.47367 25.0867 20.5946
Au 6.88444 21.1718 22.9106
Au 7.76028 14.564 25.1078
Au 14.448 31.5368 21.5327
Au 16.9416 32.3825 26.4797
Au 17.4009 31.9502 21.7416
Au 20.5954 34.2855 19.2935
Pd 23.3693 33.9753 19.3505
Au 26.1442 33.7409 19.3845
Au 28.826 33.4133 19.3694
Au 10.3752 8.01855 22.6331
Au 14.0293 5.86069 20.8241
Au 16.829 5.8067 20.8128
Au 19.6315 5.91773 20.6047
Pd 22.339 6.15027 20.2762
Au 25.081 6.19563 20.0527
Au 27.7794 6.35447 19.9393
Au 20.0491 12.0711 33.9367
Au 20.4673 14.8254 34.1171
Au 20.7583 17.7669 34.124
Au 20.7572 20.7487 33.9787
Au 20.7309 23.6133 33.8294
Au 20.7823 26.4816 33.6198
Au 20.8596 29.175 33.3265
Au 19.5792 11.7376 6.00959
Au 19.7851 14.4536 5.81558
Pd 19.9575 17.2678 5.82375
Pd 20.0857 20.0533 5.77281
Au 20.237 22.8668 5.67366
Au 20.391 25.6324 5.74975
Au 22.5595 27.0222 6.62046
Pd 31.3923 18.5863 28.9354
Au 29.2143 17.254 30.0285
Au 26.9712 15.9071 31.0795
Au 24.6918 14.5605 32.0677
Pd 22.3632 13.2569 33.0099
Pd 31.4965 21.4207 28.8392
Au 29.3638 20.1416 30.044
Au 27.1549 18.8011 31.1305
Au 24.9151 17.4525 32.1546
Pd 22.6732 16.1113 33.0869
Pd 29.3698 23.0201 29.7869
Au 27.2415 21.7599 31.0087
Au 25.0486 20.4502 32.0611
Au 22.8696 19.1139 33.0985
Au 27.2713 24.6044 30.7607
Au 25.0963 23.3403 31.8922
Pd 22.9111 22.0502 32.931
Au 25.1481 26.1434 31.672
Pd 22.9303 24.8851 32.7673
Au 23.0083 27.7062 32.567
Au 31.0002 18.0427 10.3605
Pd 28.6769 16.7117 9.53443
Au 26.4091 15.3861 8.6576
Au 24.1441 14.0978 7.77712
Au 21.8624 12.869 6.86471
Au 31.1765 20.8857 10.2816
Pd 28.9167 19.5591 9.35705
Au 26.6504 18.2119 8.43391
Pd 24.3526 16.9057 7.60892
Au 22.0934 15.6574 6.65414
Pd 29.0346 22.4275 9.37151
Pd 26.7945 21.1105 8.39744
Pd 24.5176 19.7739 7.52011
Au 22.2466 18.5046 6.59059
Au 26.917 23.9737 8.39311
Au 24.6884 22.642 7.41273
Pd 22.3842 21.3319 6.58327
Au 24.7531 25.5265 7.46861
Au 22.54 24.1716 6.49945
Pd 20.1795 27.2019 7.95969
Pd 9.15773 18.4884 21.4924
Au 8.2859 17.7252 28.8372
Au 13.7302 14.4148 28.4928
Pd 14.3601 12.7421 30.8291
Au 17.9494 13.8468 33.8414
Au 8.26448 23.6065 22.8453
Au 10.8766 20.8319 25.5209
Au 10.1889 16.3899 30.3081
Pd 14.7557 18.1086 31.135
Au 18.3523 16.5761 33.8881
Pd 11.1967 21.033 30.9415
Au 11.748 21.4609 28.2145
Au 11.8309 18.3158 31.6171
Au 15.2285 14.293 32.8948
Pd 18.0631 23.5107 31.006
Au 16.0095 19.6573 32.9849
Au 18.4831 19.3362 33.8001
Au 16.0379 24.9732 32.0492
Au 18.337 22.2745 33.5016
Au 18.4781 28.0585 32.7708
Au 8.72012 22.7561 8.87176
Au 12.8471 16.6277 7.80699
Pd 10.6624 18.4202 8.61724
Au 13.5615 14.054 8.76163
Au 16.1796 10.0176 9.89124
Au 10.6267 22.4619 10.7537
Au 10.2225 19.7085 11.1623
Au 15.2305 14.9993 6.9712
Pd 15.8223 12.4079 8.39176
Au 17.417 13.3057 6.43866
Pd 8.50178 20.0866 9.22993
Pd 15.2581 17.7493 6.99571
Pd 17.681 18.867 6.32809
Pd 17.5731 16.1008 6.35487
Au 13.1702 22.1468 7.56097
Pd 15.5065 24.7189 9.32959
Au 17.8078 21.6362 6.22388
Au 15.5778 23.2684 6.92564
Pd 18.0133 24.3841 6.31607
Au 16.4657 27.1374 10.7725
Au 29.6671 31.2299 18.0015
Au 30.4388 28.9003 16.6257
Au 31.1926 26.5564 15.2571
Au 31.9425 24.1611 13.8854
Au 32.6417 21.7401 12.5389
Au 29.7097 31.3002 20.7901
Pd 30.5173 28.9873 19.434
Pd 31.296 26.6442 18.0543
Au 32.119 24.2817 16.692
Au 32.8231 21.8457 15.3267
Au 30.5266 29.0407 22.242
Au 31.3912 26.731 20.873
Au 32.1697 24.3606 19.5146
Au 32.9054 21.9313 18.1434
Pd 31.2893 26.7427 23.6682
Au 32.1961 24.4408 22.3204
Pd 32.9026 22.0047 20.9484
Au 32.1206 24.4774 25.1197
Au 32.9843 22.1169 23.7529
Au 32.903 22.1608 26.5541
Au 12.0384 30.2626 22.392
Au 10.6234 27.3398 11.5708
Au 10.0235 26.247 13.9108
Au 9.51417 24.9138 10.3769
Au 8.96244 23.8738 12.906
Pd 10.6633 25.1774 18.614
Au 14.4771 31.6035 16.7071
Au 16.2421 33.6695 16.6563
Au 8.29922 26.5889 18.3971
Pd 8.12305 21.9175 11.2819
Pd 12.6041 26.6835 19.8089
Au 7.95551 23.9558 18.1491
Pd 13.6617 29.2919 15.0808
Au 7.24275 21.1162 13.6679
Au 10.7762 25.3731 27.4121
Au 9.86398 28.8486 23.0134
Pd 7.32775 22.5943 20.527
Au 9.61934 22.8014 27.3848
Pd 7.83723 15.9164 18.4119
Au 10.8336 27.2471 25.0753
Au 28.7239 8.41818 18.4716
Au 29.6249 10.5618 17.0014
Au 30.5461 12.7414 15.5238
Au 31.4644 14.963 14.0781
Au 32.3668 17.1647 12.6618
Pd 28.7841 8.51548 21.2713
Pd 29.7435 10.6439 19.7993
Pd 30.6791 12.7996 18.3378
Au 31.6567 14.9876 16.878
Pd 32.4837 17.2333 15.4278
Au 29.821 10.7508 22.6206
Au 30.7904 12.8834 21.1512
Au 31.7269 15.0626 19.7104
Pd 32.5818 17.2898 18.2438
Au 30.7965 13.0335 23.9719
Pd 31.7163 15.1821 22.5069
Au 32.6964 17.3495 21.0451
Au 31.7396 15.2975 25.3022
Pd 32.6893 17.4628 23.8382
Au 32.6923 17.5805 26.6369
Au 13.6739 6.98762 13.5485
Pd 10.7911 9.83595 15.8184
Au 11.6314 13.2166 10.3274
Pd 9.04712 15.0038 11.6148
Au 7.41637 19.3982 11.6017
Au 12.767 6.69659 23.1926
Au 10.276 7.38703 19.7111
Pd 11.6854 12.0247 14.326
Au 7.11665 14.7659 13.9401
Au 5.88528 15.1755 16.3555
Au 8.08826 9.00107 20.1462
Au 11.5908 9.36233 18.2725
Au 6.6149 12.6889 15.5134
Au 7.51153 17.129 15.5956
Pd 11.5795 10.378 23.0097
Au 6.58998 15.7485 22.7993
Au 6.80023 10.3655 18.0642
Au 7.32642 11.649 20.4587
Au 6.68365 13.1484 18.0985
Au 8.3266 10.7792 15.9029
Pd 20.896 31.0628 28.897
Au 15.3147 27.2848 30.9721
Au 18.1997 31.3629 28.9344
Au 13.3079 30.481 26.8448
Au 11.1627 29.9936 25.1131
Pd 22.2285 29.941 31.1093
Au 22.277 31.8684 26.552
Pd 17.84 29.7693 26.7559
Au 20.8489 32.9451 24.1531
Au 18.2529 33.3719 24.2064
Pd 23.6126 30.6911 28.768
Au 21.6734 30.3779 24.2403
Au 19.5673 32.138 26.5355
Au 19.378 33.8568 21.7192
Au 24.9681 31.4491 26.3977
Au 23.5601 32.5579 24.1481
Au 22.0668 33.5692 21.7248
Pd 26.2245 32.0835 23.989
Au 24.8215 33.1977 21.7342
Pd 27.5219 32.7734 21.6497
Pd 18.7768 10.7148 31.8853
Pd 17.4979 9.56368 29.6835
Pd 15.9645 8.5763 27.6293
Au 17.1465 7.55044 25.3493
Pd 12.5856 8.11189 20.8923
Au 21.4639 10.9754 31.8195
Au 20.1826 9.6919 29.6496
Au 18.6964 8.60708 27.4406
Au 14.4132 7.52968 25.4835
Au 15.5226 6.55457 23.1436
Au 22.8786 9.96246 29.4605
Pd 21.4288 8.82217 27.2578
Au 19.9173 7.69968 25.0986
Au 18.3478 6.65566 22.9938
Pd 24.1361 9.04026 27.0512
Au 22.6698 7.85498 24.8876
Pd 21.1133 6.90152 22.6665
Pd 25.3839 8.08806 24.66
Au 23.8809 6.95373 22.4764
Au 26.6211 7.12202 22.2907
Au 19.245 29.7448 7.96146
Au 17.8437 30.8516 10.0442
Au 16.4242 31.9088 12.2272
Pd 16.0817 30.5026 14.6087
Au 16.0054 29.8315 22.8298
Au 21.8935 29.36 7.96626
Au 20.6072 30.6683 10.1291
Au 19.1728 31.7838 12.3516
Au 17.6983 32.8271 14.55
Au 15.9399 32.412 19.1502
Au 23.3145 30.2568 10.2059
Au 21.9706 31.5089 12.441
Au 20.5197 32.6202 14.7056
Au 19.0455 33.6098 16.9376
Au 24.7096 31.13 12.4899
Au 23.3292 32.3483 14.7406
Au 21.9022 33.4129 17.0316
Au 26.1026 31.9705 14.7894
Au 24.7285 33.1266 17.068
Au 27.4986 32.7641 17.1068
Au 18.0289 10.8114 7.98808
Pd 17.4171 9.35002 12.1588
Au 15.8509 7.21455 11.8339
Au 15.4988 6.60587 18.5877
Pd 12.7804 6.88595 18.4359
Au 20.8172 10.6909 8.2322
Pd 19.2659 9.78724 10.2988
Au 18.1518 7.25664 13.5189
Au 16.9287 7.45906 16.2242
Pd 15.324 8.15484 20.8911
Pd 22.0176 9.74552 10.6765
Au 20.4524 8.72602 12.8583
Au 19.6553 7.40892 15.6749
Au 18.2872 6.62219 18.4159
Au 23.3648 8.77338 13.004
Au 22.3029 7.65467 15.3705
Pd 20.9617 6.76757 18.0026
Au 25.0063 7.87869 15.357
Pd 23.6743 6.92311 17.7474
Au 26.4135 7.03969 17.6716
Pd 30.5023 16.2431 27.6967
Au 30.8307 23.8141 27.5436
Au 29.6048 13.9163 26.395
Pd 30.0099 26.0821 26.0829
Au 28.6573 11.6202 25.0779
Au 29.2414 28.3939 24.6678
Au 27.6706 9.3302 23.7125
Au 28.4281 30.663 23.1925
Au 28.3239 14.8809 28.7976
Au 28.6756 25.3938 28.481
Au 27.3839 12.5824 27.463
Pd 27.8614 27.6383 27.0171
Au 26.4239 10.2606 26.1259
Pd 27.0619 29.9276 25.5459
Au 26.0863 13.5419 29.8403
Pd 26.5213 26.9005 29.3719
Au 25.1503 11.2215 28.5082
Au 25.7938 29.2406 27.9544
Au 23.8107 12.2045 30.8698
Au 24.4424 28.5016 30.3183
Au 30.1271 15.7602 11.7272
Au 30.5817 23.3544 11.523
Au 29.1948 13.5197 13.1384
Au 29.8508 25.7937 12.8956
Au 28.2672 11.3059 14.5943
Pd 29.0556 28.1185 14.3136
Au 27.3555 9.14357 16.1176
Au 28.3256 30.4847 15.6502
Au 27.7825 14.4085 10.8554
Au 28.4262 24.9157 10.5746
Pd 26.7855 12.2054 12.3082
Pd 27.6472 27.2903 11.9986
Au 25.857 9.98334 13.7267
Au 26.9165 29.6602 13.3559
Pd 25.4349 13.1307 10.0305
Au 26.2738 26.4495 9.65861
Pd 24.4117 10.917 11.4904
Au 25.5188 28.8323 11.0669
Au 23.1592 11.8298 9.14541
Au 24.0964 27.9661 8.75792
Au 10.2116 15.1933 25.7956
Au 11.3268 19.7864 23.0541
Au 7.845 11.7527 24.9435
Au 13.9685 28.636 29.0948
Au 9.57526 9.65446 24.89
Au 15.7184 30.4743 28.2678
Au 11.9912 8.60456 25.091
Au 12.0575 28.1926 27.1785
Au 10.9428 14.3656 28.5662
Au 13.595 24.902 30.954
Au 11.0881 10.8433 26.7922
Au 12.3077 26.4418 29.2578
Au 13.5133 9.68544 27.2434
Pd 16.7296 27.8353 28.4999
Au 13.2959 16.2562 32.4504
Au 15.6513 23.4502 29.6413
Pd 15.9368 10.3843 31.6145
Au 17.055 29.3748 30.6625
Au 16.9756 12.6736 31.6481
Au 19.5315 30.2858 31.2513
Au 12.7027 17.9824 10.2164
Pd 11.0588 23.8389 8.32774
Au 12.0186 9.04151 13.5652
Au 13.4759 24.9095 7.64882
Pd 14.0337 10.8273 14.1782
Au 11.6525 29.5992 13.0544
Au 16.02 5.85837 14.143
Au 14.909 32.8595 14.3473
Pd 11.9169 11.0093 11.8523
Pd 15.4006 20.511 6.96077
Au 14.1993 9.3431 11.8142
Au 13.027 28.4844 10.9904
Au 15.6393 8.63958 14.1098
Au 12.5064 31.6069 14.7743
Au 13.9536 11.5959 10.182
Au 14.4451 27.2456 8.93955
Pd 13.6325 13.0024 12.5719
Pd 14.036 30.7616 12.7033
Pd 15.894 11.4972 12.2821
Au 15.4196 29.7321 10.5428
