923
Atoms. Timestep: 20291
Au 19.6337 19.757 19.7563
Au 21.9657 19.7794 18.3511
Au 21.948 19.7825 21.183
Au 17.328 19.725 18.3209
Au 17.3152 19.7345 21.1617
Au 18.1884 22.0386 19.7285
Au 21.0701 22.0507 19.7354
Au 18.1999 17.4589 19.7639
Au 21.0852 17.4842 19.7759
Au 19.6413 18.3501 22.0629
Au 19.6282 21.1768 22.0403
Au 19.6548 18.3336 17.4773
Au 19.6504 21.1655 17.4598
Pd 24.2764 19.7825 16.9532
Au 24.3344 19.805 19.7619
Au 24.2503 19.8107 22.6239
Pd 15.0449 19.6925 16.8814
Au 14.9492 19.708 19.7181
Au 15.0196 19.7202 22.6008
Pd 16.7598 24.3227 19.7056
Au 19.6287 24.4084 19.7163
Au 22.4966 24.344 19.712
Pd 16.7994 15.1659 19.7729
Au 19.6566 15.1166 19.7865
Au 22.5434 15.2018 19.795
Au 19.6697 16.9566 24.3806
Au 19.6472 19.7691 24.4383
Au 19.6466 22.5885 24.3335
Au 19.6976 16.919 15.1855
Au 19.6837 19.7287 15.1038
Au 19.6856 22.566 15.1602
Au 21.9983 18.3573 23.5618
Au 21.9855 21.2137 23.5417
Au 22.0286 18.3279 16.0142
Au 22.0264 21.2055 16.0041
Au 17.2971 18.2975 23.5377
Au 17.2908 21.1813 23.5171
Pd 17.3436 18.2715 16.0034
Au 17.3112 21.1448 15.9802
Pd 23.4405 22.1021 18.3104
Au 23.4383 22.1162 21.1818
Au 15.8267 22.0548 18.2734
Au 15.8204 22.0712 21.1625
Au 23.4769 17.4678 18.3367
Au 23.4608 17.4657 21.2352
Au 15.8557 17.3877 18.2878
Au 15.832 17.3712 21.213
Au 18.1725 23.5317 22.0425
Au 21.0852 23.535 22.0544
Au 18.184 15.9956 22.1053
Au 21.1205 16.0125 22.1272
Au 18.1913 23.5139 17.394
Au 21.1206 23.5235 17.4101
Au 18.2178 15.9841 17.4412
Au 21.1411 15.995 17.45
Au 26.5968 19.7723 15.5551
Au 26.689 19.7899 18.3492
Au 26.6759 19.8121 21.2126
Au 26.5484 19.822 24.0443
Au 12.7246 19.6572 15.417
Au 12.6246 19.6581 18.2612
Au 12.639 19.709 21.1932
Pd 12.7213 19.7294 24.0506
Au 15.3397 26.6247 19.701
Au 18.2078 26.73 19.7002
Pd 21.0823 26.7308 19.7023
Au 23.9214 26.6349 19.6971
Au 15.4249 12.8463 19.7838
Au 18.2597 12.7658 19.7939
Au 21.1433 12.7864 19.7931
Au 24.0083 12.9134 19.8105
Pd 19.7028 15.5663 26.6816
Pd 19.6753 18.3627 26.7578
Pd 19.6708 21.1865 26.7398
Au 19.684 24.0181 26.6208
Pd 19.7798 15.4935 12.9146
Pd 19.7534 18.2888 12.7968
Pd 19.7402 21.1387 12.7804
Au 19.7328 23.9644 12.8456
Pd 24.3172 18.3689 25.0012
Au 22.0252 16.9394 25.8939
Pd 24.3009 21.2448 24.9902
Pd 22.0143 19.7927 25.9389
Au 22.0207 22.6392 25.8613
Au 24.3682 18.3097 14.5901
Au 22.0828 16.8774 13.6903
Au 24.3459 21.2157 14.5673
Au 22.058 19.7434 13.5883
Au 22.0618 22.6044 13.6464
Au 14.982 18.2689 24.9836
Au 17.332 16.8894 25.876
Au 14.9645 21.187 24.9715
Pd 17.3037 19.7481 25.9275
Au 17.3023 22.62 25.8341
Au 15.0735 18.2226 14.5389
Pd 17.4001 16.8424 13.698
Au 14.999 21.1391 14.5115
Au 17.369 19.6743 13.5988
Au 17.3549 22.58 13.6516
Au 24.8889 24.4202 18.2801
Au 25.7731 22.13 16.9005
Pd 24.8774 24.4294 21.1751
Au 25.8448 22.1647 19.7619
Pd 25.7589 22.1445 22.6345
Au 14.3524 24.3831 18.2477
Au 13.5082 22.0382 16.7954
Au 14.369 24.3964 21.161
Au 13.3876 22.0829 19.7059
Au 13.4966 22.0834 22.6413
Au 24.9569 15.1485 18.3413
Pd 25.8166 17.4472 16.9207
Au 24.9513 15.1546 21.2852
Au 25.8861 17.4425 19.7898
Au 25.7945 17.456 22.697
Au 14.4435 15.0544 18.2996
Au 13.5295 17.3327 16.8165
Pd 14.4067 15.05 21.2329
Au 13.4389 17.3036 19.7632
Au 13.5189 17.3524 22.6989
Au 18.1963 24.9901 24.3618
Au 16.7418 25.863 22.0391
Au 21.1078 24.9938 24.3713
Au 19.6505 25.9603 22.0665
Au 22.5233 25.8698 22.0417
Au 18.2207 14.579 24.4462
Au 16.7583 13.6779 22.1351
Au 21.1601 14.579 24.4705
Au 19.685 13.5984 22.1658
Au 22.6099 13.7018 22.1808
Pd 18.2364 24.9404 15.066
Au 16.749 25.8241 17.3509
Au 21.1503 24.9514 15.0887
Au 19.6753 25.9227 17.3563
Pd 22.5453 25.8481 17.3828
Au 18.2943 14.5359 15.1189
Au 16.825 13.6494 17.4296
Au 21.2185 14.5423 15.1288
Au 19.7275 13.5762 17.4254
Au 22.6219 13.6695 17.4344
Au 23.5344 15.9904 23.6411
Au 23.4922 23.5817 23.5555
Au 23.5629 15.9453 15.976
Pd 23.503 23.5767 15.9448
Pd 15.7919 15.9117 23.6069
Au 15.7908 23.5745 23.5573
Pd 15.8812 15.8943 15.9411
Au 15.8036 23.5481 15.8861
Au 28.9274 19.7575 14.1396
Pd 29.0512 19.7792 16.9454
Au 29.0767 19.7889 19.7822
Au 29.0357 19.804 22.628
Au 28.8906 19.819 25.4506
Pd 10.3636 19.6259 13.9362
Au 10.2763 19.5559 16.7842
Au 10.3169 19.652 19.7471
Au 10.3379 19.7476 22.6523
Au 10.3864 19.7302 25.4817
Au 13.945 28.9412 19.683
Au 16.787 29.0746 19.6953
Au 19.6793 29.0904 19.694
Au 22.5178 29.054 19.6984
Au 25.3627 28.9396 19.6992
Au 14.0803 10.4817 19.7805
Au 16.9145 10.3789 19.7868
Au 19.7658 10.3962 19.7854
Au 22.6249 10.4618 19.798
Au 25.4828 10.6261 19.8097
Au 19.7248 14.1596 28.9724
Pd 19.7176 16.9529 29.0751
Au 19.7049 19.7817 29.0975
Au 19.7199 22.6313 29.0565
Au 19.7186 25.462 28.918
Au 19.8568 14.0706 10.6305
Pd 19.8322 16.8587 10.4999
Au 19.8238 19.6876 10.4599
Au 19.8121 22.5437 10.449
Pd 19.7615 25.3631 10.5287
Au 26.6443 18.3453 26.4304
Au 24.3851 16.9103 27.3356
Pd 22.0669 15.5128 28.2037
Au 26.6174 21.2808 26.4356
Au 24.3668 19.8247 27.4084
Au 22.0606 18.3713 28.2939
Pd 24.3455 22.7009 27.3227
Au 22.0743 21.2487 28.2782
Pd 22.0588 24.1012 28.16
Au 26.7012 18.2792 13.1556
Pd 24.4355 16.8436 12.2543
Au 22.165 15.4448 11.4027
Au 26.6868 21.2135 13.1265
Au 24.4213 19.7359 12.1373
Pd 22.1524 18.2782 11.2624
Pd 24.4037 22.6289 12.1911
Pd 22.1347 21.1616 11.2363
Pd 22.1056 24.0166 11.3291
Au 12.6845 18.2749 26.4217
Au 15.0043 16.8434 27.3391
Pd 17.3673 15.4858 28.1903
Pd 12.6615 21.1869 26.4139
Au 14.9633 19.7595 27.4075
Au 17.3356 18.3235 28.2953
Au 14.9681 22.654 27.2943
Au 17.308 21.1967 28.2829
Au 17.3251 24.0857 28.146
Au 12.7711 18.2063 13.0561
Pd 15.1165 16.7914 12.188
Au 17.4846 15.4086 11.3966
Au 12.6916 21.1116 13.019
Au 15.0564 19.6623 12.0814
Au 17.4368 18.2332 11.2461
Au 15.0283 22.5767 12.1489
Au 17.4097 21.1088 11.2208
Au 17.3942 23.9958 11.3032
Pd 26.3512 26.7339 18.2663
Pd 27.2698 24.4663 16.8676
Au 28.1461 22.1339 15.4893
Au 26.3367 26.7452 21.1706
Au 27.3362 24.4952 19.7356
Au 28.2511 22.1653 18.3278
Au 27.2417 24.4731 22.6265
Au 28.237 22.1929 21.2034
Au 28.1023 22.1776 24.0685
Au 12.8824 26.709 18.2465
Au 11.9981 24.3713 16.7361
Au 11.1965 22.0091 15.2943
Pd 12.9694 26.7318 21.1776
Au 11.8766 24.4566 19.7232
Au 11.0308 22.0211 18.1962
Au 12.0464 24.449 22.6653
Au 11.0266 22.1319 21.1965
Au 11.2002 22.1056 24.1087
Au 26.4433 12.8363 18.3557
Au 27.3293 15.1136 16.9184
Au 28.1627 17.4264 15.5081
Au 26.4369 12.8662 21.2967
Au 27.4093 15.1064 19.8302
Au 28.2781 17.4259 18.3647
Pd 27.3077 15.1391 22.7173
Au 28.2631 17.4113 21.2485
Au 28.1313 17.4406 24.094
Au 13.0544 12.6915 18.2781
Au 12.1071 14.9646 16.8068
Au 11.1538 17.288 15.2943
Au 12.9936 12.6968 21.2377
Au 11.9585 14.9181 19.7609
Au 11.0725 17.2189 18.3003
Au 12.0775 15.0217 22.7109
Au 11.0928 17.3049 21.2609
Pd 11.2039 17.3836 24.1654
Au 18.2345 26.4516 26.6675
Au 16.7886 27.3602 24.3703
Pd 15.3427 28.2037 22.0439
Au 21.1537 26.4487 26.6879
Pd 19.68 27.4441 24.4063
Au 18.2346 28.3196 22.0853
Au 22.5542 27.3569 24.3773
Pd 21.1084 28.3175 22.0724
Au 23.9714 28.1912 22.0541
Au 18.2584 13.1639 26.7655
Au 16.8312 12.189 24.4743
Au 15.3903 11.3059 22.1651
Au 21.1954 13.1624 26.7888
Au 19.7445 12.1184 24.5244
Au 18.2891 11.1968 22.1885
Pd 22.6577 12.2371 24.513
Au 21.1992 11.2363 22.1998
Au 24.0896 11.4006 22.1979
Au 18.2777 26.3598 12.7371
Au 16.7901 27.2895 15.0051
Au 15.3061 28.1543 17.3194
Au 21.19 26.3661 12.7387
Au 19.709 27.3912 15.0056
Au 18.2368 28.2908 17.3082
Au 22.5938 27.3027 15.0469
Pd 21.1283 28.2815 17.334
Au 23.9885 28.1616 17.3496
Pd 18.3873 13.0717 12.8196
Au 16.9178 12.1479 15.097
Au 15.4925 11.2642 17.4152
Au 21.2964 13.1088 12.8342
Au 19.828 12.0853 15.091
Au 18.3647 11.1786 17.4123
Pd 22.7121 12.2079 15.1168
Pd 21.2351 11.2185 17.4151
Au 24.0972 11.3744 17.4349
Pd 25.8878 15.964 25.0709
Au 25.8346 23.6298 25.0386
Pd 25.0394 13.6568 23.6737
Au 24.9513 25.9515 23.5706
Au 23.592 14.5288 25.9697
Au 23.5284 25.0518 25.9192
Au 25.9148 15.9134 14.5325
Au 25.8741 23.6115 14.4913
Pd 25.0507 13.6076 15.961
Au 24.9738 25.9201 15.9079
Pd 23.6334 14.4852 13.6427
Au 23.565 25.0071 13.5738
Pd 13.4384 15.8446 25.0954
Pd 13.4653 23.6045 25.0367
Au 14.3345 13.5362 23.6545
Au 14.3568 25.9422 23.5658
Au 15.8071 14.4677 25.9612
Pd 15.8171 25.057 25.892
Au 13.5735 15.8186 14.4352
Pd 13.4573 23.5603 14.3816
Pd 14.4689 13.5122 15.9051
Au 14.2908 25.9048 15.8167
Au 15.9453 14.4278 13.6123
Au 15.8414 25.0053 13.5366
Au 31.245 19.7369 12.721
Pd 31.3572 19.77 15.5133
Au 31.4348 19.7748 18.3588
Au 31.4521 19.7728 21.2124
Au 31.3953 19.8202 24.046
Au 31.2183 19.8284 26.8666
Au 7.05655 22.191 11.8767
Au 7.93729 19.2207 15.3534
Pd 8.0293 19.5976 18.3291
Pd 8.00655 19.694 21.204
Pd 8.03878 19.7949 24.0684
Pd 8.01774 19.8063 26.8952
Au 12.5788 31.2741 19.6819
Au 15.4003 31.4444 19.6674
Au 18.2761 31.4822 19.6727
Au 21.1483 31.4559 19.6903
Pd 23.997 31.3595 19.7063
Pd 26.7783 31.2233 19.7076
Pd 12.7971 8.14573 19.7226
Au 15.5845 7.99816 19.762
Pd 18.417 8.02198 19.7779
Au 21.2468 8.05941 19.7949
Au 24.1183 8.14712 19.8088
Au 26.9404 8.33552 19.8049
Au 19.7459 12.7195 31.2836
Au 19.732 15.538 31.4232
Au 19.741 18.3693 31.4739
Au 19.7581 21.2465 31.4705
Au 19.7507 24.0878 31.3968
Pd 19.7483 26.8821 31.1976
Pd 19.9163 12.6467 8.34401
Au 19.892 15.4256 8.1739
Pd 19.8723 18.2569 8.14303
Au 19.8469 21.0966 8.07915
Au 19.8345 23.9466 8.08961
Au 19.7855 26.7647 8.22041
Au 28.999 18.3708 27.8794
Au 26.7501 16.9044 28.8149
Au 24.4402 15.4823 29.6988
Au 22.1098 14.0832 30.5256
Au 28.9817 21.2998 27.8644
Au 26.7391 19.8503 28.9218
Au 24.4604 18.3937 29.8395
Au 22.1159 16.9493 30.6681
Au 26.6641 22.7605 28.7839
Pd 24.4304 21.3035 29.7857
Au 22.1388 19.845 30.7022
Pd 24.3752 24.1385 29.6295
Pd 22.1146 22.7041 30.6058
Au 22.0972 25.5459 30.4707
Au 29.0459 18.2623 11.7338
Pd 26.7624 16.8242 10.8317
Pd 24.4966 15.4089 9.95361
Pd 22.227 14.0119 9.10238
Au 29.0485 21.1947 11.6953
Au 26.8016 19.7059 10.6719
Au 24.5352 18.2507 9.78036
Au 22.2234 16.8406 8.92118
Au 26.7606 22.633 10.7438
Au 24.4944 21.1664 9.73876
Au 22.2094 19.6999 8.87046
Au 24.4527 24.0362 9.83852
Pd 22.1884 22.5734 8.88822
Au 22.1379 25.4191 9.00709
Au 10.4414 18.3694 27.8964
Au 12.7192 16.9167 28.8637
Pd 15.0747 15.4781 29.6823
Au 17.365 14.0683 30.5031
Au 10.3635 21.2063 27.8475
Pd 12.6701 19.7996 28.9075
Au 15.0044 18.3477 29.8345
Pd 17.3763 16.9038 30.6424
Au 12.6876 22.6405 28.7823
Pd 14.9724 21.2294 29.8065
Au 17.3266 19.7755 30.7235
Au 15.0125 24.1009 29.6672
Au 17.3249 22.6591 30.6758
Au 17.3668 25.5534 30.4966
Pd 10.5771 18.2112 11.5404
Au 12.8587 16.7744 10.6601
Au 15.2154 15.3615 9.83299
Pd 17.5665 13.9852 9.05825
Pd 10.4712 21.0221 11.509
Au 12.7961 19.6367 10.5198
Pd 15.1385 18.2183 9.70201
Au 17.51 16.8139 8.88019
Au 12.7765 22.4869 10.5973
Pd 15.1138 21.0848 9.67649
Au 17.4591 19.6569 8.81602
Au 15.0802 23.9624 9.7527
Au 17.4383 22.5183 8.82618
Au 17.4167 25.4076 8.95627
Au 27.7967 29.0579 18.2591
Au 28.7273 26.7956 16.853
Au 29.6461 24.491 15.4468
Au 30.5111 22.1222 14.0539
Au 27.7803 29.0978 21.1897
Au 28.8248 26.8254 19.7444
Au 29.7781 24.5262 18.3265
Au 30.6675 22.1569 16.9111
Au 28.7245 26.82 22.6378
Pd 29.7548 24.5494 21.2052
Au 30.6887 22.2027 19.7779
Au 29.6186 24.5209 24.0767
Au 30.6364 22.2232 22.6393
Au 30.4707 22.2091 25.5189
Au 11.4497 29.0357 18.2451
Au 10.4809 26.672 16.748
Pd 9.6391 24.3109 15.2648
Au 7.91468 24.5177 13.1656
Au 9.28566 29.4648 20.0176
Au 10.4308 26.8359 19.8248
Au 9.50507 24.3561 18.2142
Au 8.68831 21.868 16.6455
Au 10.7106 26.8374 22.7536
Au 9.47821 24.5317 21.2791
Au 8.67058 22.0325 19.7016
Pd 9.7867 24.5018 24.195
Au 8.68022 22.1657 22.682
Pd 8.92817 22.1328 25.5556
Pd 27.9038 10.54 18.3757
Au 28.8423 12.7841 16.9516
Au 29.7075 15.1019 15.4883
Pd 30.4867 17.42 14.083
Au 27.9163 10.5642 21.2683
Pd 28.8925 12.7973 19.8327
Au 29.8411 15.0818 18.4101
Au 30.6526 17.4181 16.9401
Au 28.8234 12.8603 22.7118
Pd 29.7866 15.0966 21.2702
Pd 30.6696 17.4063 19.8274
Pd 29.6456 15.1533 24.1122
Pd 30.6117 17.4275 22.6598
Au 30.4805 17.4547 25.5007
Au 11.7972 10.258 18.154
Au 10.843 12.5225 16.6244
Au 9.90082 14.8563 15.1835
Au 8.92831 17.2097 13.5718
Au 11.5788 10.327 21.198
Au 10.4916 12.5085 19.6599
Au 9.53114 14.7547 18.2426
Au 8.72702 17.0496 16.8716
Au 10.6106 12.6902 22.6376
Pd 9.59286 14.9657 21.1978
Pd 8.7304 17.2716 19.7854
Au 9.72064 15.0597 24.1087
Au 8.76129 17.3885 22.7312
Pd 8.92681 17.3401 25.7127
Au 18.2865 27.9107 29.0057
Au 16.8469 28.8618 26.709
Au 15.4341 29.7483 24.3859
Au 13.9925 30.5792 22.0517
Au 21.1894 27.8969 29.0168
Au 19.7418 28.9394 26.7451
Pd 18.2914 29.8379 24.4296
Au 16.8513 30.715 22.0923
Au 22.6426 28.8278 26.7163
Au 21.1591 29.8453 24.4378
Au 19.7192 30.7348 22.1061
Pd 24.0295 29.6657 24.3828
Au 22.5986 30.6768 22.0928
Pd 25.4216 30.4818 22.0379
Au 18.284 11.7078 29.0614
Pd 16.94 10.744 26.7695
Au 15.5158 9.76798 24.4743
Au 14.0876 8.90444 22.1207
Au 21.2271 11.6959 29.1176
Au 19.7715 10.6467 26.866
Pd 18.3653 9.68767 24.554
Au 16.952 8.76586 22.1857
Au 22.6955 10.7921 26.84
Au 21.2522 9.72046 24.5651
Au 19.8038 8.79029 22.2065
Au 24.1378 9.91156 24.5289
Au 22.6982 8.86623 22.2199
Au 25.5751 9.06955 22.1792
Au 18.3096 27.7864 10.4092
Pd 16.871 28.7245 12.6771
Au 15.3859 29.6704 14.9742
Au 11.6781 30.7594 15.7541
Pd 21.2164 27.7662 10.4133
Au 19.7724 28.8468 12.6357
Au 18.295 29.809 14.9157
Au 16.8077 30.6797 17.2683
Pd 22.6419 28.7156 12.6985
Pd 21.1966 29.7666 14.9538
Au 19.7266 30.7012 17.2633
Au 24.0635 29.633 14.9876
Au 22.5859 30.6521 17.2974
Au 25.451 30.5001 17.3466
Au 18.462 11.6418 10.4952
Au 17.0219 10.667 12.7636
Au 15.6018 9.71276 15.0589
Au 14.2 8.85355 17.3875
Au 21.3709 11.6772 10.506
Au 19.904 10.6065 12.7459
Au 18.4599 9.62428 15.0631
Pd 17.0294 8.78736 17.4051
Au 22.7962 10.7676 12.7987
Au 21.332 9.68545 15.0769
Pd 19.8584 8.80517 17.4196
Au 24.2011 9.88382 15.1082
Au 22.7181 8.87472 17.4153
Pd 25.5824 9.08448 17.4669
Au 28.2406 15.9367 26.5055
Au 28.204 23.7071 26.5216
Pd 27.4259 13.6434 25.1014
Au 27.35 26.022 25.0725
Au 26.5527 11.3258 23.7054
Au 26.4249 28.328 23.5959
Pd 25.9724 14.5132 27.4391
Pd 25.8881 25.1 27.402
Au 25.1243 12.1743 26.0262
Au 25.0234 27.4517 25.9541
Au 23.6513 13.0797 28.3275
Au 23.5912 26.5325 28.2571
Pd 28.2802 15.8994 13.0926
Au 28.2711 23.6482 13.0201
Au 27.449 13.567 14.4972
Au 27.3678 25.9927 14.4459
Au 26.5631 11.2837 15.9459
Pd 26.4323 28.2619 15.8783
Au 25.9903 14.4524 12.1739
Au 25.9545 25.0683 12.086
Pd 25.1221 12.1545 13.622
Pd 25.0315 27.3906 13.5395
Pd 23.6964 13.0552 11.3255
Au 23.6191 26.4674 11.2164
Au 11.1077 15.791 26.5883
Au 11.1688 23.6477 26.5294
Au 11.9354 13.3944 25.1454
Pd 12.0591 26.0202 25.1032
Pd 12.9217 11.0947 23.6392
Au 12.9888 28.3445 23.6018
Au 13.4624 14.3872 27.5042
Au 13.4801 25.1081 27.4146
Au 14.424 11.9926 25.9972
Au 14.4037 27.4678 25.9426
Pd 15.8771 13.0405 28.2964
Au 15.8357 26.5555 28.2542
Pd 11.3074 15.7721 12.8749
Au 11.1761 23.5579 12.8394
Au 12.2137 13.3851 14.2851
Au 11.8843 25.9489 14.2883
Au 13.1709 11.0675 15.7934
Au 12.8344 28.3022 15.7975
Au 13.657 14.334 12.0267
Au 13.516 25.0293 11.9856
Pd 14.5879 11.9919 13.5233
Au 14.3757 27.4134 13.4429
Au 16.0328 12.9533 11.2511
Pd 15.902 26.4254 11.1735
Pd 33.4491 19.7261 11.3646
Au 33.6283 19.7491 14.0919
Pd 33.6376 19.7655 16.9086
Au 33.7202 19.7728 19.7831
Au 33.7134 19.794 22.6591
Au 33.6414 19.8255 25.5223
Au 33.4277 19.8391 28.2432
Au 6.15176 20.9381 16.8837
Au 8.10787 19.6575 12.3639
Pd 6.14531 18.1743 17.1862
Au 6.13434 18.2191 19.9185
Au 6.02676 20.9734 22.4769
Au 5.84517 20.6051 25.2501
Au 6.40915 18.071 25.4764
Au 11.2562 33.5238 19.6724
Au 13.9905 33.7269 19.6558
Au 16.8582 33.7673 19.652
Au 19.7533 33.7591 19.6703
Pd 22.6348 33.66 19.6979
Au 25.4446 33.617 19.7108
Au 28.1503 33.4587 19.7212
Au 11.5108 5.87373 19.7138
Au 14.2132 5.7195 19.7336
Au 17.0583 5.71061 19.7561
Au 19.8988 5.75844 19.7812
Pd 22.7557 5.86707 19.8064
Au 25.6039 5.91236 19.8208
Au 28.3336 6.13054 19.8214
Au 19.7529 11.3553 33.5091
Au 19.7563 14.0797 33.6914
Au 19.7793 16.9338 33.7508
Au 19.7902 19.825 33.7575
Au 19.7856 22.7169 33.7254
Au 19.7734 25.576 33.6311
Au 19.7674 28.2775 33.4136
Au 19.9536 11.2577 6.11554
Au 19.9344 13.9747 5.9176
Pd 19.9202 16.8103 5.91023
Pd 19.8941 19.6456 5.86641
Au 19.8598 22.5057 5.79432
Au 19.8351 25.3692 5.81318
Au 19.8103 28.1062 5.97531
Pd 31.2941 18.4345 29.2054
Au 29.0674 16.9717 30.1854
Au 26.7504 15.5059 31.1174
Au 24.3942 14.0716 31.9829
Pd 22.0344 12.6737 32.7776
Pd 31.2761 21.2671 29.1843
Au 29.1083 19.8552 30.2908
Au 26.8246 18.3822 31.2703
Au 24.4678 16.9162 32.1619
Pd 22.0895 15.4879 32.9329
Pd 28.9686 22.7287 30.1114
Au 26.7752 21.338 31.2385
Au 24.4818 19.8846 32.1775
Au 22.1341 18.3933 33.0389
Au 26.6732 24.1754 31.0463
Au 24.434 22.7676 32.0832
Pd 22.1159 21.3139 32.9708
Au 24.3746 25.5768 31.9002
Pd 22.0989 24.1672 32.8764
Au 22.0477 26.985 32.7299
Au 31.3444 18.3016 10.3615
Pd 29.055 16.8586 9.47587
Au 26.794 15.4188 8.56346
Au 24.523 13.9871 7.68265
Au 22.2327 12.5785 6.83618
Au 31.3508 21.1458 10.3342
Pd 29.143 19.711 9.34383
Au 26.8758 18.2402 8.36426
Pd 24.5665 16.788 7.51717
Au 22.2676 15.3819 6.6245
Pd 29.0646 22.5785 9.41446
Pd 26.8446 21.1592 8.37342
Pd 24.5456 19.6836 7.45047
Au 22.232 18.252 6.56179
Au 26.7655 24.0069 8.43946
Au 24.5282 22.5724 7.40522
Pd 22.2001 21.1229 6.573
Au 24.432 25.4248 7.54332
Au 22.1881 23.9758 6.54849
Pd 22.0857 26.7923 6.73921
Pd 8.29258 18.5257 29.2888
Au 10.5018 17.0938 30.3815
Au 12.8907 15.6032 31.2425
Pd 15.1797 14.1262 31.9958
Au 17.4553 12.6575 32.8005
Au 8.16538 21.25 29.2467
Au 10.3901 19.8791 30.3657
Au 12.7328 18.4293 31.3337
Pd 15.1206 16.944 32.1332
Au 17.4123 15.4898 32.9828
Pd 10.4481 22.626 30.18
Au 12.6847 21.273 31.2742
Au 15.0245 19.8307 32.2172
Au 17.4095 18.3422 33.0562
Pd 12.7744 24.0626 31.0774
Au 15.0095 22.7004 32.1549
Au 17.4075 21.2544 33.0704
Au 15.1042 25.5395 31.9611
Au 17.4035 24.1568 32.9825
Au 17.4711 26.9923 32.7575
Au 8.39171 20.9349 9.92964
Au 10.6515 16.769 9.16885
Pd 13.0035 15.3627 8.37998
Au 15.329 13.9392 7.55374
Au 17.6534 12.5504 6.78514
Au 8.95702 22.0268 13.719
Au 10.5743 19.5543 9.00594
Au 12.9013 18.1618 8.16535
Pd 15.2422 16.7646 7.40598
Au 17.5712 15.359 6.5783
Pd 10.6579 22.3039 9.06096
Pd 12.9016 21.0043 8.16066
Pd 15.2029 19.6137 7.34595
Pd 17.5718 18.2064 6.54601
Au 12.9137 23.8038 8.20126
Pd 15.1881 22.4744 7.33929
Au 17.5181 21.0624 6.4671
Au 15.1978 25.3188 7.42254
Pd 17.5161 23.956 6.54484
Au 17.5133 26.7873 6.64721
Au 29.1658 31.3649 18.3137
Au 30.1185 29.0925 16.8816
Au 31.0367 26.7867 15.4538
Au 31.9361 24.4248 14.0239
Au 32.7829 22.0496 12.6326
Au 29.1518 31.3869 21.1487
Pd 30.1682 29.1607 19.744
Pd 31.1385 26.8628 18.2961
Au 32.1156 24.5237 16.8759
Au 32.9703 22.1084 15.456
Au 30.0898 29.1261 22.6113
Au 31.173 26.8912 21.2013
Au 32.1371 24.554 19.7853
Au 33.0321 22.1329 18.3451
Pd 30.9855 26.8034 24.0447
Au 32.0843 24.568 22.6639
Pd 32.9779 22.1458 21.2317
Au 31.8971 24.4985 25.5065
Au 32.9482 22.1941 24.1064
Au 32.7444 22.1499 26.9447
Au 10.3888 31.5315 21.3251
Au 10.2844 31.4147 18.1955
Au 9.56002 29.175 16.2772
Au 8.79097 26.8356 14.6247
Au 6.08393 20.991 19.6657
Pd 11.672 29.1067 21.242
Au 8.40901 27.6714 18.2464
Au 7.62615 25.5867 16.7486
Au 6.89264 23.3857 15.3762
Pd 6.49954 21.0464 14.1965
Pd 9.57098 29.2818 22.8919
Au 8.31637 27.2876 21.514
Pd 7.53989 25.4817 19.6583
Au 6.78482 23.2922 18.1877
Au 8.62401 27.0309 24.4308
Au 7.43006 25.1184 22.9517
Pd 6.7523 23.2619 21.1133
Au 7.71826 24.7053 25.8633
Pd 6.64989 22.8924 24.24
Au 6.81536 22.3077 27.073
Au 29.3195 8.26201 18.419
Au 30.2362 10.5062 16.9974
Au 31.1406 12.8186 15.5411
Au 31.9824 15.153 14.0845
Au 32.7724 17.4467 12.6826
Pd 29.2683 8.28732 21.2348
Pd 30.2822 10.4992 19.8249
Pd 31.2283 12.7638 18.3973
Au 32.1568 15.0954 16.9424
Pd 32.8945 17.4485 15.4816
Au 30.2208 10.5638 22.6692
Au 31.2449 12.7927 21.2603
Au 32.1699 15.0917 19.8566
Pd 32.9596 17.4429 18.3798
Au 31.1099 12.8924 24.1052
Pd 32.0618 15.1365 22.7089
Au 32.9951 17.4272 21.262
Au 31.9349 15.2017 25.5207
Pd 32.8864 17.4754 24.1143
Au 32.7483 17.5342 26.9371
Au 10.5822 7.83005 18.1125
Pd 9.70822 10.0708 16.4912
Au 8.76164 12.3511 14.9391
Pd 7.91054 14.6736 13.5143
Au 8.44802 18.1927 10.0833
Au 10.4951 7.94269 21.1596
Au 9.40265 9.89878 19.348
Pd 8.48297 12.1207 17.8231
Au 7.52162 14.3173 16.3805
Au 6.8071 16.5971 15.1098
Au 9.79914 10.1667 23.2669
Au 8.55017 11.5004 21.2961
Au 6.79542 15.8764 18.4896
Au 6.86772 15.9217 21.2957
Pd 9.05174 12.4855 24.8054
Au 7.76348 13.6606 22.7152
Au 7.61897 13.6452 19.8859
Au 8.11043 14.7288 26.2043
Au 6.14263 18.2537 22.747
Au 6.9733 15.8875 24.071
Pd 18.3655 29.2392 31.289
Au 16.9384 30.2471 29.0278
Au 15.5119 31.1899 26.6958
Au 14.103 32.0814 24.3492
Au 12.6578 32.9197 21.9944
Pd 21.164 29.23 31.2882
Au 19.7718 30.3311 29.0987
Pd 18.3311 31.2549 26.7596
Au 16.9085 32.2041 24.4376
Au 15.4556 33.062 22.0331
Pd 22.6152 30.1654 29.0076
Au 21.2257 31.2816 26.7893
Au 19.7605 32.2153 24.4542
Au 18.3182 33.0971 22.0473
Au 24.074 31.0858 26.6727
Au 22.6741 32.1451 24.4352
Au 21.2069 33.0612 22.06
Pd 25.4535 31.8933 24.2991
Au 24.0758 32.9475 22.0504
Pd 26.8348 32.7149 21.9823
Pd 18.3825 10.3679 31.3505
Pd 17.0731 9.35393 29.0485
Pd 15.7227 8.37308 26.7495
Au 14.2814 7.38279 24.3971
Pd 12.8117 6.58964 21.9884
Au 21.2075 10.3409 31.4308
Au 19.8396 9.25236 29.207
Au 18.4585 8.25817 26.8765
Au 17.0593 7.2951 24.521
Au 15.5947 6.40948 22.099
Au 22.6962 9.41208 29.1483
Pd 21.3078 8.36208 26.9025
Au 19.8957 7.32964 24.5547
Au 18.4608 6.41548 22.1332
Pd 24.1355 8.54767 26.8015
Au 22.7663 7.42535 24.5662
Pd 21.3151 6.52294 22.1414
Pd 25.5836 7.67393 24.4502
Au 24.1909 6.58496 22.18
Au 27.0154 6.80811 22.1267
Au 18.38 29.137 8.0728
Au 16.9527 30.1072 10.3508
Au 15.5399 31.0622 12.6498
Pd 13.9342 30.5052 17.335
Au 12.5938 32.8411 17.3726
Au 21.2238 29.124 8.09489
Au 19.8102 30.2139 10.2762
Au 18.344 31.2072 12.5574
Au 16.878 32.1549 14.9131
Au 15.3989 33.0059 17.3008
Au 22.655 30.0597 10.3822
Au 21.2578 31.1767 12.594
Au 19.7908 32.1583 14.9069
Au 18.2985 33.0531 17.2886
Au 24.0893 30.9992 12.6821
Au 22.6646 32.097 14.9365
Au 21.1968 33.0377 17.3121
Au 25.5036 31.9093 15.0366
Au 24.0656 32.9521 17.3486
Au 26.8808 32.7697 17.4157
Au 18.5414 10.2609 8.20316
Pd 17.1416 9.32738 10.4734
Au 15.7169 8.31237 12.7449
Au 14.3022 7.36512 15.0924
Pd 12.9003 6.55704 17.4489
Au 21.374 10.2885 8.2216
Pd 19.9556 9.27121 10.4128
Au 18.5237 8.21772 12.6933
Au 17.0908 7.26295 15.0743
Pd 15.6725 6.46875 17.428
Pd 22.7975 9.41599 10.5136
Au 21.4124 8.27878 12.7112
Au 19.9587 7.2876 15.0908
Au 18.5042 6.44421 17.4373
Au 24.2405 8.49315 12.8084
Au 22.8383 7.38411 15.0934
Pd 21.3502 6.53375 17.467
Au 25.657 7.63224 15.1829
Pd 24.2306 6.64595 17.4744
Au 27.0308 6.81196 17.5203
Pd 30.5579 16.0497 27.8964
Au 30.5447 23.6835 27.927
Au 29.7825 13.6657 26.509
Pd 29.6807 25.9978 26.462
Au 28.9265 11.3309 25.1033
Au 28.7905 28.3468 25.0407
Au 27.9996 9.00155 23.6432
Au 27.8434 30.6382 23.5452
Au 28.317 14.5459 28.8866
Au 28.216 25.1463 28.8491
Au 27.4799 12.1932 27.4585
Pd 27.3394 27.4376 27.3942
Au 26.5615 9.82796 26.0216
Pd 26.4191 29.7706 25.8885
Au 25.9925 13.0939 29.8004
Pd 25.8771 26.5151 29.7054
Au 25.1068 10.716 28.3596
Au 25.0347 28.9017 28.2646
Au 23.6114 11.6624 30.6709
Au 23.568 27.9704 30.5693
Au 30.6173 15.9335 11.683
Au 30.6128 23.5692 11.6018
Au 29.8097 13.5919 13.0856
Au 29.7367 25.986 13.0282
Au 28.9531 11.2627 14.543
Pd 28.8022 28.2775 14.5013
Au 28.019 8.97905 16.0249
Au 27.888 30.581 15.8959
Au 28.3198 14.4694 10.7468
Au 28.3006 25.0309 10.6324
Pd 27.4571 12.1523 12.1838
Pd 27.3883 27.3895 12.1059
Au 26.5994 9.8342 13.6074
Au 26.4958 29.6994 13.5304
Pd 26.0015 13.0653 9.87689
Au 25.9712 26.4583 9.72543
Pd 25.1411 10.7502 11.3223
Au 25.0641 28.8066 11.1944
Au 23.7379 11.6229 9.0124
Au 23.6009 27.8471 8.87217
Au 9.06134 16.0297 28.3266
Au 8.95522 23.6611 28.0804
Au 10.1267 13.2717 27.1799
Au 9.89484 26.0983 26.7202
Au 11.0365 10.848 25.5946
Au 10.813 28.4665 25.2377
Au 11.8793 8.5778 23.6931
Au 11.7279 30.7721 23.6557
Au 11.3265 14.5639 29.2441
Au 11.2485 25.0834 28.9755
Au 12.387 11.8771 27.7754
Au 12.1753 27.5406 27.5286
Au 13.3116 9.49125 26.0726
Pd 13.1409 29.8699 25.937
Au 13.6833 13.0839 29.9412
Au 13.5686 26.539 29.8162
Pd 14.7268 10.571 28.3431
Au 14.5178 28.9862 28.2909
Au 15.9887 11.626 30.6298
Au 15.9439 27.996 30.5972
Au 9.17889 15.7474 11.2571
Pd 9.22492 23.4397 11.0451
Au 10.0648 13.3012 12.6484
Au 10.0068 25.9861 12.3257
Pd 10.9999 10.9581 14.187
Au 10.8402 28.4551 13.9352
Au 11.9199 8.62912 15.7606
Au 14.0701 32.0053 15.0316
Pd 11.4576 14.3697 10.479
Pd 11.453 24.8526 10.2731
Au 12.3728 11.8984 11.8921
Au 12.2603 27.4442 11.7242
Au 13.3114 9.56157 13.4337
Au 13.1356 29.8597 13.3675
Au 13.7908 12.9156 9.65745
Au 13.6926 26.3779 9.5342
Pd 14.7432 10.5609 11.1957
Pd 14.6082 28.8186 11.0979
Pd 16.1833 11.5661 8.94201
Au 15.9946 27.8253 8.81011
