923
Atoms. Timestep: 20116
Au 19.7535 19.7745 19.7656
Au 22.0579 19.7913 18.351
Au 22.0444 19.791 21.1958
Au 17.4678 19.7501 18.3297
Au 17.4548 19.759 21.1769
Au 18.3303 22.0687 19.75
Au 21.1745 22.0703 19.7503
Au 18.3359 17.4719 19.7681
Au 21.1808 17.4902 19.776
Au 19.7538 18.3638 22.0756
Au 19.7371 21.1918 22.0622
Au 19.7536 18.3514 17.4737
Au 19.7629 21.1871 17.4661
Pd 24.3466 19.7895 16.9464
Au 24.4094 19.8084 19.7652
Au 24.3272 19.8089 22.6394
Pd 15.1961 19.7313 16.9067
Au 15.1039 19.7406 19.7368
Au 15.1562 19.7418 22.5962
Pd 16.9083 24.3569 19.739
Au 19.746 24.4443 19.7413
Au 22.5846 24.3647 19.7314
Pd 16.9278 15.1827 19.7704
Au 19.7564 15.1133 19.7806
Au 22.6113 15.1965 19.789
Au 19.7579 16.9621 24.3922
Au 19.7405 19.7772 24.4606
Au 19.7305 22.5983 24.3627
Au 19.7582 16.9372 15.1752
Au 19.7673 19.7502 15.0996
Au 19.7757 22.5921 15.1644
Au 22.0856 18.3595 23.5775
Au 22.0714 21.217 23.5631
Au 22.1006 18.3415 16.0064
Au 22.1106 21.2218 16.0022
Au 17.4174 18.3234 23.5529
Au 17.4022 21.1992 23.5451
Pd 17.4429 18.2977 15.9975
Au 17.4365 21.1718 15.9837
Pd 23.5215 22.1142 18.3165
Au 23.5222 22.124 21.2003
Au 15.9911 22.0838 18.2965
Au 15.9786 22.1007 21.189
Au 23.5464 17.4708 18.3283
Au 23.5356 17.4651 21.2392
Au 16.0091 17.4149 18.3005
Au 15.9853 17.4018 21.2124
Au 18.2905 23.5571 22.0764
Au 21.1788 23.5498 22.0782
Au 18.3051 16.0078 22.1081
Au 21.2074 16.0138 22.13
Au 18.32 23.5465 17.4132
Au 21.2164 23.5472 17.4227
Au 18.318 15.9975 17.4335
Au 21.2128 16.0028 17.4417
Au 26.6468 19.7744 15.543
Au 26.7459 19.7872 18.3446
Au 26.7355 19.8053 21.2193
Au 26.6091 19.8098 24.0612
Au 12.8986 19.7156 15.4742
Au 12.7758 19.7268 18.3062
Au 12.7595 19.7244 21.1828
Pd 12.8574 19.7343 24.008
Au 15.47 26.652 19.7446
Au 18.3205 26.7684 19.7359
Pd 21.1717 26.7678 19.7296
Au 23.9914 26.6564 19.721
Au 15.5236 12.8785 19.7744
Au 18.3428 12.7693 19.7811
Au 21.2038 12.7705 19.7806
Au 24.0452 12.8969 19.7974
Pd 19.7554 15.5621 26.6894
Pd 19.7389 18.3626 26.7768
Pd 19.7313 21.188 26.7667
Au 19.7351 24.0212 26.653
Pd 19.7929 15.5142 12.9019
Pd 19.7913 18.3114 12.7874
Pd 19.7924 21.1653 12.777
Au 19.7906 23.9957 12.8507
Pd 24.3836 18.3601 25.0195
Au 22.0875 16.9344 25.9078
Pd 24.3673 21.2373 25.014
Pd 22.0827 19.7893 25.9626
Au 22.0812 22.6359 25.8871
Au 24.4164 18.3182 14.5747
Au 22.1154 16.8932 13.6791
Au 24.407 21.2274 14.5572
Au 22.111 19.7612 13.5777
Au 22.1221 22.6238 13.645
Au 15.0946 18.3005 24.9817
Au 17.42 16.9084 25.8891
Au 15.0688 21.1993 24.9817
Pd 17.3886 19.7621 25.9517
Au 17.3767 22.6319 25.8685
Au 15.164 18.2577 14.5455
Pd 17.4497 16.8682 13.687
Au 15.1295 21.1742 14.5284
Au 17.4444 19.7024 13.5934
Au 17.4444 22.6111 13.6494
Au 24.9562 24.4335 18.2909
Au 25.835 22.1376 16.8985
Pd 24.9461 24.4383 21.1982
Au 25.9132 22.1698 19.771
Pd 25.8256 22.1425 22.6559
Au 14.5296 24.4097 18.2814
Au 13.6702 22.0803 16.844
Au 14.5205 24.4215 21.193
Au 13.5695 22.1109 19.7403
Au 13.6449 22.0936 22.6423
Au 24.9993 15.1409 18.3256
Pd 25.8651 17.4446 16.9047
Au 24.9991 15.1429 21.2823
Au 25.943 17.434 19.7844
Au 25.8513 17.4445 22.7048
Au 14.5748 15.0907 18.3058
Au 13.6975 17.3804 16.8641
Pd 14.5518 15.0972 21.2264
Au 13.594 17.3571 19.7652
Au 13.6594 17.3808 22.6598
Au 18.2698 25.0056 24.4035
Au 16.8465 25.885 22.0833
Au 21.1711 25.0033 24.4002
Au 19.7378 25.9858 22.1014
Au 22.5948 25.8884 22.068
Au 18.3082 14.5825 24.4472
Au 16.8743 13.6934 22.1255
Au 21.2207 14.5731 24.4724
Au 19.7685 13.5942 22.1601
Au 22.6642 13.6878 22.1754
Pd 18.3286 24.9728 15.0786
Au 16.8841 25.8621 17.384
Au 21.2228 24.9781 15.1011
Au 19.7759 25.9595 17.3772
Pd 22.6228 25.8747 17.4017
Au 18.3394 14.553 15.104
Au 16.9021 13.6712 17.4171
Au 21.2471 14.5517 15.1164
Au 19.7853 13.5786 17.4119
Au 22.6597 13.6648 17.4211
Au 23.5956 15.98 23.6487
Au 23.5627 23.5872 23.5832
Au 23.6061 15.9469 15.9589
Pd 23.5744 23.5952 15.947
Pd 15.9281 15.9536 23.6011
Au 15.9007 23.5909 23.5911
Pd 15.977 15.9245 15.9386
Au 15.9464 23.5741 15.9059
Au 28.9589 19.7544 14.122
Pd 29.0914 19.7709 16.9345
Au 29.121 19.7762 19.7812
Au 29.0822 19.7871 22.6368
Au 28.9361 19.7966 25.4673
Pd 10.5971 19.7002 14.0344
Au 10.4369 19.7098 16.8691
Au 10.3917 19.7054 19.7434
Au 10.4258 19.7142 22.6071
Au 10.5569 19.7311 25.3997
Au 14.0297 28.9511 19.7379
Au 16.8725 29.1021 19.7441
Au 19.7529 29.1306 19.7319
Au 22.5825 29.0898 19.7315
Au 25.4147 28.9602 19.7293
Au 14.1235 10.5395 19.7705
Au 16.9498 10.4046 19.7724
Au 19.7931 10.3881 19.7684
Au 22.6431 10.4351 19.7785
Au 25.487 10.6 19.7889
Au 19.7378 14.1466 28.9751
Pd 19.7374 16.9432 29.0876
Au 19.7302 19.7744 29.1192
Au 19.7417 22.6247 29.0839
Au 19.7347 25.4565 28.949
Au 19.8241 14.0938 10.6206
Pd 19.8171 16.8841 10.4911
Au 19.8238 19.7154 10.4554
Au 19.8238 22.5747 10.4507
Pd 19.7821 25.3989 10.5393
Au 26.6924 18.3249 26.4497
Au 24.426 16.8926 27.3512
Pd 22.0931 15.4985 28.2121
Au 26.6662 21.2637 26.4614
Au 24.4135 19.8095 27.4356
Au 22.0975 18.3588 28.316
Pd 24.3865 22.6876 27.3504
Au 22.1104 21.2383 28.3057
Pd 22.0879 24.0924 28.1874
Au 26.728 18.2828 13.1346
Pd 24.4449 16.8542 12.2362
Au 22.1527 15.4633 11.3912
Au 26.7261 21.2207 13.1104
Au 24.4495 19.749 12.1178
Pd 22.161 18.2984 11.248
Pd 24.4402 22.6444 12.182
Pd 22.1562 21.1843 11.2276
Pd 22.1348 24.041 11.3313
Au 12.7708 18.2998 26.395
Au 15.0746 16.8698 27.3341
Pd 17.4074 15.4898 28.1969
Pd 12.7505 21.1933 26.3925
Au 15.0248 19.7711 27.4128
Au 17.3769 18.3302 28.3131
Au 15.02 22.6617 27.3073
Au 17.3451 21.2011 28.309
Au 17.355 24.0891 28.18
Au 12.8351 18.2473 13.0858
Pd 15.1384 16.8221 12.1972
Au 17.4755 15.4372 11.3863
Au 12.8099 21.1626 13.0664
Au 15.1018 19.6957 12.096
Au 17.445 18.2636 11.2412
Au 15.0997 22.6138 12.162
Au 17.4338 21.1402 11.2171
Au 17.437 24.0326 11.3038
Pd 26.4035 26.7487 18.2846
Pd 27.3196 24.4758 16.872
Au 28.1902 22.1366 15.4818
Au 26.3892 26.7551 21.1998
Au 27.3925 24.5024 19.7513
Au 28.3042 22.1652 18.3293
Au 27.2934 24.4728 22.6542
Au 28.2918 22.1887 21.2173
Au 28.1534 22.1666 24.0918
Au 13.0476 26.7266 18.2706
Au 12.1671 24.4154 16.8027
Au 11.3406 22.0665 15.3983
Pd 13.0579 26.7232 21.1936
Au 12.0561 24.4624 19.7378
Au 11.1881 22.1095 18.2839
Au 12.1664 24.4266 22.6518
Au 11.1777 22.1093 21.1862
Au 11.325 22.0827 24.064
Au 26.4562 12.8171 18.3329
Au 27.3529 15.0997 16.8948
Au 28.1927 17.4181 15.4868
Au 26.4561 12.8427 21.287
Au 27.4414 15.0856 19.8182
Au 28.3187 17.4108 18.3516
Pd 27.3399 15.1166 22.7175
Au 28.3059 17.3916 21.248
Au 28.1739 17.4181 24.1037
Au 13.1284 12.7547 18.2874
Au 12.2199 15.0298 16.8424
Au 11.3552 17.3565 15.4205
Au 13.1185 12.7701 21.2373
Au 12.1083 15.0114 19.7665
Au 11.2063 17.3348 18.315
Au 12.1906 15.064 22.6694
Au 11.1987 17.3349 21.2066
Pd 11.3313 17.3917 24.0633
Au 18.2604 26.4548 26.7097
Au 16.8202 27.3598 24.4204
Pd 15.3961 28.1982 22.0974
Au 21.1797 26.4536 26.7171
Pd 19.7162 27.4599 24.4444
Au 18.2897 28.3397 22.1297
Au 22.5899 27.3711 24.4066
Pd 21.1615 28.3469 22.107
Au 24.0201 28.2107 22.085
Au 18.2974 13.158 26.7657
Au 16.8831 12.2044 24.4717
Au 15.4755 11.3319 22.1462
Au 21.216 13.1475 26.7855
Au 19.7833 12.1084 24.5158
Au 18.3451 11.1991 22.1761
Pd 22.6793 12.2151 24.5041
Au 21.2344 11.214 22.1867
Au 24.1087 11.3729 22.1844
Au 18.324 26.3953 12.7471
Au 16.8726 27.3175 15.0236
Au 15.423 28.1883 17.3582
Au 21.2268 26.3977 12.7551
Au 19.7709 27.4277 15.0258
Au 18.3271 28.3327 17.3403
Au 22.6431 27.3338 15.069
Pd 21.1975 28.3231 17.3624
Au 24.0445 28.1912 17.3747
Pd 18.3675 13.0959 12.8042
Au 16.9141 12.1833 15.0802
Au 15.5057 11.3177 17.4006
Au 21.274 13.1199 12.8226
Au 19.822 12.0919 15.0763
Au 18.3761 11.192 17.3964
Pd 22.7022 12.2046 15.1021
Pd 21.244 11.2086 17.3976
Au 24.0983 11.3573 17.416
Pd 25.9302 15.9428 25.0816
Au 25.8871 23.626 25.0706
Pd 25.0706 13.6329 23.6738
Au 25.0019 25.9607 23.6039
Au 23.6265 14.5091 25.9762
Au 23.5703 25.0531 25.9518
Au 25.9368 15.9085 14.5069
Au 25.9247 23.6272 14.4852
Pd 25.0631 13.5964 15.9373
Au 25.028 25.9423 15.9168
Pd 23.6357 14.4875 13.6221
Au 23.6119 25.0312 13.5763
Pd 13.569 15.9062 25.055
Pd 13.5464 23.6001 25.039
Au 14.4726 13.6041 23.6311
Au 14.428 25.9354 23.5979
Au 15.9014 14.5038 25.9543
Pd 15.8632 25.0604 25.9268
Au 13.6463 15.8665 14.4609
Pd 13.5868 23.5755 14.4257
Pd 14.5165 13.5663 15.9075
Au 14.4486 25.9205 15.8499
Au 15.9664 14.4635 13.6072
Au 15.9256 25.028 13.5464
Au 31.2633 19.7286 12.6992
Pd 31.3839 19.7566 15.4959
Au 31.4667 19.7558 18.3505
Au 31.4866 19.7489 21.214
Au 31.4315 19.7931 24.0563
Au 31.2526 19.7958 26.8829
Au 8.32409 19.6876 12.5867
Au 8.13333 19.6838 15.4162
Pd 8.08224 19.6923 18.3046
Pd 8.07227 19.7035 21.1654
Pd 8.12196 19.7174 24.0098
Pd 8.26594 19.7389 26.7773
Au 12.5914 31.2605 19.7064
Au 15.4274 31.4476 19.7169
Au 18.3069 31.5076 19.7189
Au 21.1878 31.4899 19.7345
Pd 24.0402 31.3896 19.7455
Pd 26.8181 31.2414 19.744
Pd 12.7304 8.2522 19.7609
Au 15.5323 8.06469 19.7689
Pd 18.3777 8.04253 19.7663
Au 21.2192 8.04358 19.7734
Au 24.0983 8.11497 19.7822
Au 26.9182 8.30338 19.7758
Au 19.718 12.6981 31.2776
Au 19.7035 15.5206 31.4246
Au 19.7106 18.3503 31.483
Au 19.7367 21.2284 31.488
Au 19.7357 24.0709 31.4208
Pd 19.7335 26.8667 31.2258
Pd 19.8419 12.6765 8.33897
Au 19.83 15.4574 8.17033
Pd 19.8159 18.2892 8.14327
Au 19.8003 21.1289 8.0858
Au 19.8065 23.9805 8.10133
Au 19.7739 26.803 8.23861
Au 29.0321 18.3394 27.8971
Au 26.7732 16.8735 28.8296
Au 24.4464 15.4533 29.7064
Au 22.0979 14.058 30.5253
Au 29.0172 21.2716 27.889
Au 26.7688 19.8242 28.9493
Au 24.4767 18.3687 29.864
Au 22.1108 16.927 30.6828
Au 26.6899 22.7383 28.8133
Pd 24.4485 21.2821 29.8151
Au 22.1388 19.8242 30.7266
Pd 24.3883 24.1189 29.6587
Pd 22.1172 22.6854 30.6341
Au 22.0966 25.5294 30.4992
Au 29.0567 18.2603 11.7092
Pd 26.7551 16.8287 10.81
Pd 24.4661 15.4212 9.93656
Pd 22.1737 14.0328 9.09249
Au 29.0702 21.1962 11.6757
Au 26.8111 19.7134 10.6483
Au 24.5247 18.2652 9.75916
Au 22.1866 16.8651 8.90773
Au 26.7779 22.6441 10.7301
Au 24.4951 21.1843 9.72171
Au 22.1842 19.7261 8.85916
Au 24.4603 24.0564 9.83447
Pd 22.176 22.601 8.88532
Au 22.1353 25.4485 9.01524
Au 10.4419 18.297 27.8168
Au 12.7315 16.865 28.7889
Pd 15.0721 15.4437 29.6406
Au 17.3551 14.0544 30.4991
Au 10.4255 21.1838 27.7998
Pd 12.6762 19.762 28.8579
Au 14.9903 18.3278 29.8153
Pd 17.3473 16.8901 30.6407
Au 12.6973 22.6282 28.7486
Pd 14.9604 21.2171 29.7978
Au 17.3002 19.7653 30.734
Au 15.0009 24.0975 29.6655
Au 17.3045 22.6501 30.6947
Au 17.3552 25.5445 30.5219
Pd 10.5381 18.2417 11.6419
Au 12.8192 16.814 10.7314
Au 15.157 15.3939 9.86325
Pd 17.5032 14.0185 9.0615
Pd 10.5234 21.1148 11.6287
Au 12.7714 19.6864 10.5931
Pd 15.091 18.2564 9.73411
Au 17.4496 16.8479 8.88432
Au 12.778 22.5765 10.6827
Pd 15.0726 21.1349 9.71514
Au 17.4015 19.6935 8.82286
Au 15.0787 24.027 9.79307
Au 17.3974 22.5571 8.83646
Au 17.4121 25.452 8.96935
Au 27.8364 29.073 18.2833
Au 28.7655 26.8061 16.8641
Au 29.6811 24.4948 15.4458
Au 30.5403 22.1182 14.0412
Au 27.8187 29.108 21.2248
Au 28.8696 26.8335 19.7663
Au 29.8223 24.5283 18.335
Au 30.7069 22.1496 16.9058
Au 28.7638 26.8202 22.6702
Pd 29.798 24.5471 21.2261
Au 30.7322 22.1926 19.7834
Au 29.6585 24.5108 24.1053
Au 30.6799 22.209 22.6548
Au 30.5096 22.1871 25.5422
Au 11.5788 29.0516 18.2413
Au 10.6645 26.7386 16.7782
Pd 9.83228 24.3811 15.3567
Au 9.03268 22.045 13.9467
Au 11.6017 29.0246 21.1766
Au 10.5401 26.7914 19.7273
Au 9.63678 24.4637 18.2463
Au 8.81593 22.09 16.8362
Au 10.6833 26.7257 22.641
Au 9.63029 24.4614 21.1893
Au 8.75832 22.0836 19.7208
Pd 9.82088 24.3932 24.0584
Au 8.8159 22.0934 22.6177
Pd 9.00371 22.0599 25.4516
Pd 27.8905 10.5113 18.3467
Au 28.8403 12.7601 16.9233
Au 29.7157 15.0837 15.4599
Pd 30.5022 17.4076 14.0565
Au 27.9084 10.5305 21.2493
Pd 28.8986 12.765 19.8133
Au 29.8607 15.0554 18.3918
Au 30.6792 17.3988 16.9204
Au 28.8313 12.8274 22.7032
Pd 29.8086 15.066 21.2632
Pd 30.7002 17.3821 19.8193
Pd 29.6663 15.1203 24.114
Pd 30.6443 17.3985 22.6624
Au 30.5117 17.4221 25.5109
Au 11.6995 10.4029 18.2891
Au 10.7544 12.688 16.8297
Au 9.8744 14.9911 15.3828
Au 9.05619 17.3369 13.9517
Au 11.6864 10.4125 21.2319
Au 10.6241 12.6579 19.7568
Au 9.68571 14.9709 18.3102
Au 8.82899 17.3046 16.8614
Au 10.7348 12.7143 22.6568
Pd 9.70035 14.9824 21.196
Pd 8.80287 17.3237 19.7454
Au 9.82967 15.0694 24.0707
Au 8.82909 17.337 22.6096
Pd 9.0115 17.4086 25.4591
Au 18.2691 27.8984 29.0421
Au 16.8048 28.834 26.7542
Au 15.3753 29.7018 24.4351
Au 13.9445 30.52 22.0994
Au 21.1808 27.8924 29.045
Au 19.7254 28.9452 26.7806
Pd 18.2647 29.8346 24.4759
Au 16.8346 30.7077 22.1468
Au 22.6427 28.8338 26.7465
Au 21.1594 29.8629 24.4752
Au 19.7267 30.7564 22.1522
Pd 24.0448 29.6783 24.4158
Au 22.6253 30.7021 22.1322
Pd 25.4537 30.4993 22.0732
Au 18.2632 11.6983 29.0613
Pd 16.8757 10.7836 26.7862
Au 15.4559 9.841 24.4934
Au 14.0556 8.98493 22.145
Au 21.1962 11.6685 29.1018
Au 19.7301 10.6312 26.8484
Pd 18.3204 9.70527 24.5483
Au 16.9276 8.79857 22.1892
Au 22.6607 10.7568 26.821
Au 21.2238 9.69162 24.5468
Au 19.7835 8.77827 22.1936
Au 24.114 9.87433 24.5096
Au 22.6825 8.83152 22.1976
Au 25.5591 9.03315 22.1562
Au 18.3044 27.8221 10.4231
Pd 16.8648 28.7375 12.6838
Au 15.409 29.6587 14.97
Au 13.9631 30.5166 17.3356
Pd 21.2144 27.8011 10.4363
Au 19.7775 28.885 12.6608
Au 18.3157 29.8401 14.9411
Au 16.8541 30.7122 17.2953
Pd 22.6528 28.7498 12.7254
Pd 21.2238 29.806 14.9851
Au 19.7685 30.7463 17.2988
Au 24.0918 29.6656 15.0152
Au 22.6273 30.6933 17.3324
Au 25.49 30.5284 17.3786
Au 18.3847 11.6756 10.4862
Au 16.9273 10.7221 12.7558
Au 15.4916 9.80316 15.059
Au 14.092 8.97266 17.4026
Au 21.3026 11.6916 10.4977
Au 19.8297 10.62 12.7358
Au 18.3783 9.6493 15.0517
Pd 16.9518 8.83333 17.3964
Au 22.7368 10.7678 12.7852
Au 21.2735 9.67992 15.0612
Pd 19.8065 8.80862 17.4025
Au 24.1553 9.87062 15.0884
Au 22.6805 8.85367 17.3933
Pd 25.5522 9.06012 17.4418
Au 28.2684 15.9024 26.5168
Au 28.2419 23.6929 26.5553
Pd 27.4414 13.6092 25.1028
Au 27.3863 26.0206 25.1102
Au 26.5524 11.2889 23.698
Au 26.4579 28.3381 23.6336
Pd 25.9883 14.4801 27.4466
Pd 25.9149 25.0903 27.4384
Au 25.1221 12.1367 26.0234
Au 25.0447 27.4572 25.9905
Au 23.6464 13.0468 28.3266
Au 23.6031 26.5278 28.291
Pd 28.2859 15.8912 13.0638
Au 28.304 23.6585 13.0086
Au 27.4437 13.55 14.4657
Au 27.4046 26.012 14.4472
Au 26.5449 11.2615 15.9158
Pd 26.4704 28.2857 15.8951
Au 25.9751 14.4478 12.1461
Au 25.9819 25.0892 12.0805
Pd 25.0922 12.1432 13.5966
Pd 25.0592 27.4198 13.5509
Pd 23.6556 13.0591 11.3063
Au 23.6345 26.498 11.2238
Au 11.2071 15.8799 26.4851
Au 11.1912 23.6072 26.4633
Au 12.0787 13.5087 25.0955
Pd 12.0409 25.9524 25.0476
Pd 13.0371 11.2147 23.6421
Au 12.9456 28.2662 23.5942
Au 13.5331 14.4212 27.4442
Au 13.4701 25.0895 27.3979
Au 14.4487 12.0826 26.0004
Au 14.3649 27.4281 25.9605
Pd 15.9014 13.058 28.2877
Au 15.8208 26.5393 28.2796
Pd 11.2979 15.8525 13.0004
Au 11.2492 23.5575 12.9539
Au 12.153 13.4904 14.3933
Au 12.0506 25.9372 14.341
Au 13.0727 11.1945 15.8617
Au 12.9582 28.2837 15.7958
Au 13.607 14.3866 12.0846
Au 13.5532 25.0475 12.029
Pd 14.5095 12.0739 13.5554
Au 14.4268 27.4064 13.4482
Au 15.9692 12.9992 11.2615
Pd 15.9182 26.4514 11.186
Pd 33.4609 19.7132 11.3396
Au 33.646 19.7312 14.0687
Pd 33.6602 19.7416 16.8916
Au 33.745 19.7433 19.7776
Au 33.7412 19.7603 22.6634
Au 33.6711 19.7892 25.5343
Au 33.4585 19.7984 28.2575
Au 6.11227 19.6737 11.1975
Au 5.90194 19.6716 13.9429
Pd 5.88124 19.6792 16.8316
Au 5.8186 19.7132 19.7183
Au 5.82725 19.722 22.5982
Au 5.86213 19.726 25.4359
Au 6.03135 19.7396 28.1425
Au 11.2053 33.4685 19.6985
Au 13.9394 33.6855 19.7048
Au 16.8331 33.7592 19.7034
Au 19.7584 33.7731 19.7276
Pd 22.6638 33.6864 19.7512
Au 25.4812 33.6406 19.7563
Au 28.1876 33.4727 19.7632
Au 11.3739 6.01945 19.7527
Au 14.0777 5.83785 19.7569
Au 16.9467 5.77549 19.7538
Au 19.8138 5.77697 19.7615
Pd 22.7021 5.85123 19.7749
Au 25.5662 5.88067 19.7858
Au 28.2975 6.0951 19.7839
Au 19.7032 11.3308 33.4961
Au 19.7009 14.0545 33.6807
Au 19.7141 16.9051 33.7473
Au 19.7295 19.7947 33.7619
Au 19.7416 22.6908 33.7391
Au 19.7402 25.5515 33.6525
Au 19.7382 28.2528 33.4416
Au 19.8547 11.2937 6.11288
Au 19.8423 14.0103 5.91905
Pd 19.8304 16.8466 5.91361
Pd 19.8089 19.6837 5.87518
Au 19.7899 22.5445 5.81165
Au 19.7892 25.4097 5.83569
Au 19.7815 28.1484 6.00175
Pd 31.3226 18.3948 29.2197
Au 29.0839 16.9321 30.1962
Au 26.7473 15.4655 31.122
Au 24.3709 14.0329 31.9799
Pd 21.9949 12.6399 32.7691
Pd 31.3078 21.2282 29.2052
Au 29.1331 19.8176 30.3108
Au 26.8337 18.3441 31.2873
Au 24.4518 16.8786 32.1725
Pd 22.0501 15.4553 32.9355
Pd 28.9887 22.6944 30.1377
Au 26.7837 21.308 31.2649
Au 24.4712 19.8557 32.1998
Au 22.0912 18.3625 33.051
Au 26.6774 24.1468 31.0757
Au 24.4265 22.7414 32.1116
Pd 22.0838 21.2868 32.9931
Au 24.3661 25.5514 31.9286
Pd 22.0768 24.1441 32.9022
Au 22.0253 26.9627 32.7574
Au 31.3476 18.2955 10.3361
Pd 29.0401 16.8582 9.45224
Au 26.7541 15.4244 8.5444
Au 24.459 14.0011 7.66834
Au 22.1483 12.6033 6.82777
Au 31.365 21.1415 10.3138
Pd 29.1466 19.7136 9.32229
Au 26.8555 18.2469 8.34408
Pd 24.5209 16.8015 7.50082
Au 22.1941 15.4079 6.61665
Pd 29.0739 22.5841 9.39919
Pd 26.8377 21.1741 8.35718
Pd 24.5096 19.7034 7.43551
Au 22.1617 18.2812 6.55521
Au 26.7607 24.0224 8.43204
Au 24.502 22.597 7.3979
Pd 22.1412 21.1554 6.57036
Au 24.4153 25.451 7.54713
Au 22.1494 24.0103 6.55556
Pd 22.0615 26.8281 6.75431
Pd 8.1573 18.3492 29.1365
Au 10.4107 16.8962 30.136
Au 12.7833 15.4448 31.0516
Pd 15.0997 14.038 31.8974
Au 17.4 12.6294 32.7777
Au 8.12294 21.1531 29.1545
Au 10.3382 19.7558 30.2418
Au 12.644 18.3099 31.2221
Pd 15.0211 16.854 32.061
Au 17.3366 15.4512 32.9547
Pd 10.4037 22.5876 30.0706
Au 12.6204 21.2152 31.1976
Au 14.9437 19.773 32.1716
Au 17.3325 18.3011 33.036
Pd 12.7136 24.0477 31.0038
Au 14.9468 22.6743 32.1244
Au 17.3512 21.2276 33.0673
Au 15.0541 25.528 31.9355
Au 17.3608 24.138 32.9905
Au 17.4376 26.9726 32.7768
Au 8.25939 18.2495 10.2302
Au 10.5486 16.8339 9.33521
Pd 12.8898 15.4056 8.48561
Au 15.2259 13.9792 7.60359
Au 17.5555 12.5901 6.79658
Au 8.24544 21.0912 10.2218
Au 10.4583 19.6837 9.19873
Au 12.788 18.2342 8.27264
Pd 15.1371 16.8083 7.45789
Au 17.4766 15.3968 6.5951
Pd 10.5129 22.5014 9.34412
Pd 12.7678 21.1384 8.29937
Pd 15.0893 19.6861 7.41018
Pd 17.4791 18.2491 6.5647
Au 12.7971 23.9703 8.39689
Pd 15.0825 22.5686 7.41734
Au 17.43 21.1137 6.49652
Au 15.1334 25.4131 7.50743
Pd 17.4516 24.0105 6.57579
Au 17.4762 26.8404 6.67815
Au 29.1991 31.3791 18.3464
Au 30.1496 29.1025 16.902
Au 31.0651 26.79 15.4612
Au 31.9607 24.4189 14.0176
Au 32.8036 22.0382 12.6153
Au 29.1846 31.3959 21.188
Pd 30.2018 29.1704 19.7731
Pd 31.1726 26.8665 18.3097
Au 32.1463 24.5174 16.8756
Au 32.9977 22.0921 15.4427
Au 30.121 29.1266 22.6474
Au 31.2076 26.8897 21.2284
Au 32.1711 24.5445 19.7997
Au 33.0641 22.1101 18.3422
Pd 31.0199 26.7931 24.0763
Au 32.1194 24.5545 22.6878
Pd 33.0131 22.1198 21.241
Au 31.931 24.4757 25.5342
Au 32.9824 22.1659 24.1246
Au 32.7781 22.1155 26.9662
Au 10.2092 31.3527 18.271
Au 9.28112 29.0423 16.8097
Au 8.40109 26.6618 15.34
Au 7.57436 24.3132 13.9163
Au 6.77432 21.9783 12.5062
Pd 10.2585 31.309 21.1161
Au 9.15593 29.1299 19.7105
Au 8.2053 26.7951 18.2236
Au 7.34651 24.4162 16.7558
Pd 6.60246 22.02 15.327
Pd 9.3303 29.0031 22.5705
Au 8.20387 26.7926 21.1871
Pd 7.32787 24.4222 19.7047
Au 6.46964 22.0406 18.2556
Au 8.39427 26.6771 24.0297
Au 7.3321 24.4116 22.6397
Pd 6.50294 22.0398 21.1762
Au 7.54167 24.3311 25.4483
Pd 6.57603 22.0404 24.0622
Au 6.72204 22.0165 26.8502
Au 29.2892 8.22729 18.3839
Au 30.2143 10.4743 16.9645
Au 31.1292 12.7927 15.5084
Au 31.9814 15.1331 14.051
Au 32.7792 17.4307 12.6519
Pd 29.242 8.24664 21.2052
Pd 30.267 10.4586 19.7974
Pd 31.2242 12.7269 18.3697
Au 32.163 15.0676 16.9141
Pd 32.91 17.4267 15.4529
Au 30.2067 10.5228 22.6491
Au 31.2451 12.7535 21.2432
Au 32.1818 15.0584 19.8426
Pd 32.9802 17.4161 18.363
Au 31.1122 12.8522 24.0954
Pd 32.0775 15.0988 22.7051
Au 33.0178 17.3943 21.2573
Au 31.9496 15.1614 25.5209
Pd 32.9121 17.4397 24.1193
Au 32.7737 17.4954 26.9463
Au 10.3634 8.09589 18.3296
Pd 9.44067 10.3854 16.8737
Au 8.49907 12.6944 15.3903
Pd 7.64934 15.058 13.9479
Au 6.7995 17.3677 12.5169
Au 10.3475 8.10398 21.1633
Au 9.26029 10.3024 19.7314
Pd 8.34549 12.6186 18.2543
Au 7.40167 14.9384 16.7996
Au 6.57059 17.3208 15.3588
Au 9.36843 10.4049 22.6122
Au 8.28386 12.6396 21.1909
Au 7.34609 14.9688 19.7349
Au 6.48959 17.3445 18.2888
Pd 8.47423 12.7702 24.0419
Au 7.37612 14.9932 22.6308
Au 6.47682 17.3666 21.1642
Au 7.56223 15.1197 25.4764
Au 6.54328 17.3818 24.0588
Au 6.73511 17.4513 26.8663
Pd 18.3244 29.2147 31.3235
Au 16.8557 30.1968 29.0658
Au 15.3801 31.1085 26.7324
Au 13.9323 31.9668 24.3802
Au 12.5054 32.7865 22.0204
Pd 21.1347 29.2149 31.3185
Au 19.7272 30.3156 29.1356
Pd 18.2485 31.2265 26.8098
Au 16.796 32.155 24.496
Au 15.3496 33.0024 22.094
Pd 22.592 30.1611 29.0403
Au 21.1934 31.2783 26.8292
Au 19.7012 32.2033 24.5083
Au 18.2651 33.0834 22.1031
Au 24.0648 31.0887 26.7075
Au 22.6673 32.1526 24.4781
Au 21.2017 33.0709 22.1116
Pd 25.4616 31.904 24.3364
Au 24.0963 32.9661 22.095
Pd 26.8626 32.7293 22.0227
Pd 18.3111 10.3607 31.345
Pd 16.8995 9.42192 29.0577
Pd 15.4775 8.51651 26.7716
Au 14.0449 7.56258 24.4326
Pd 12.6611 6.74802 22.0378
Au 21.1443 10.3093 31.407
Au 19.73 9.24439 29.1851
Au 18.2828 8.30555 26.8814
Au 16.8776 7.37847 24.5523
Au 15.4642 6.50423 22.1309
Au 22.6193 9.37122 29.1203
Pd 21.2124 8.34012 26.882
Au 19.7769 7.34391 24.5503
Au 18.3665 6.44457 22.131
Pd 24.0658 8.5015 26.7733
Au 22.698 7.39457 24.5393
Pd 21.2543 6.50769 22.119
Pd 25.5331 7.629 24.4194
Au 24.1501 6.54935 22.1481
Au 26.9809 6.76829 22.0936
Au 18.3417 29.169 8.09914
Au 16.8734 30.1055 10.3729
Au 15.4221 31.0109 12.6657
Pd 13.9712 31.8921 15.0468
Au 12.5206 32.7787 17.3859
Au 21.1977 29.1623 8.12493
Au 19.7739 30.2444 10.3069
Au 18.2723 31.2125 12.5803
Au 16.8066 32.1361 14.9241
Au 15.3581 32.9924 17.3241
Au 22.6363 30.0948 10.4146
Au 21.2414 31.2087 12.6278
Au 19.7735 32.1822 14.9387
Au 18.292 33.0741 17.3306
Au 24.0864 31.032 12.7143
Au 22.6733 32.1307 14.9732
Au 21.2168 33.0726 17.3608
Au 25.5214 31.9386 15.0723
Au 24.0972 32.9856 17.3926
Au 26.9147 32.7936 17.4553
Au 18.4317 10.304 8.19878
Pd 16.9965 9.39795 10.4723
Au 15.5233 8.42735 12.7581
Au 14.0741 7.5321 15.1196
Pd 12.6879 6.74294 17.4873
Au 21.2764 10.3118 8.2131
Pd 19.8427 9.30035 10.4019
Au 18.3736 8.26949 12.682
Au 16.9136 7.34262 15.0641
Pd 15.4997 6.56982 17.4289
Pd 22.7038 9.42228 10.4998
Au 21.3106 8.29174 12.695
Au 19.8397 7.31203 15.0719
Au 18.3801 6.48634 17.4202
Au 24.1577 8.48727 12.7885
Au 22.7587 7.3795 15.0695
Pd 21.2661 6.53347 17.441
Au 25.5944 7.61575 15.1554
Pd 24.1777 6.62501 17.4432
Au 26.9854 6.78486 17.487
Pd 30.5797 16.0107 27.9049
Au 30.5767 23.6534 27.9562
Au 29.7915 13.6236 26.5074
Pd 29.7134 25.982 26.4949
Au 28.9201 11.2897 25.0912
Au 28.8176 28.3438 25.0761
Au 27.9739 8.95744 23.62
Au 27.8666 30.6475 23.5832
Au 28.3235 14.5046 28.8916
Au 28.2336 25.1248 28.8848
Au 27.4697 12.1489 27.4515
Pd 27.3536 27.4299 27.4328
Au 26.5225 9.77733 26.0031
Pd 26.4274 29.7787 25.9247
Au 25.9769 13.0524 29.7976
Pd 25.8809 26.4977 29.743
Au 25.0586 10.665 28.3426
Au 25.0288 28.8999 28.2995
Au 23.5676 11.6211 30.6583
Au 23.5521 27.9573 30.6022
Au 30.6133 15.923 11.6521
Au 30.6351 23.5675 11.5886
Au 29.7957 13.5757 13.0539
Au 29.7624 25.9958 13.0297
Au 28.927 11.2395 14.5126
Pd 28.8318 28.2964 14.5158
Au 27.9807 8.95119 15.9934
Au 27.9174 30.6033 15.9228
Au 28.2939 14.4637 10.7174
Au 28.3139 25.0406 10.6229
Pd 27.4173 12.1369 12.1534
Pd 27.4041 27.4133 12.1119
Au 26.5441 9.81519 13.5788
Au 26.5127 29.7285 13.5516
Pd 25.9503 13.0646 9.85038
Au 25.9712 26.4809 9.72629
Pd 25.0735 10.742 11.299
Au 25.0629 28.8411 11.213
Au 23.6613 11.6321 8.99551
Au 23.5856 27.881 8.88775
Au 8.87535 15.9375 27.8825
Au 8.85524 23.5463 27.8531
Au 9.72202 13.5445 26.4844
Au 9.6913 25.9216 26.4411
Au 10.6543 11.1699 25.0414
Au 10.5839 28.2722 25.0096
Au 11.6289 8.87545 23.5936
Au 11.5195 30.5868 23.54
Au 11.1956 14.4573 28.8742
Au 11.1466 25.031 28.8299
Au 12.0944 12.0466 27.4533
Au 12.0055 27.4355 27.3868
Au 13.044 9.73751 25.9779
Pd 12.9747 29.7532 25.8863
Au 13.5824 13.0232 29.7743
Au 13.4863 26.5114 29.7528
Pd 14.5208 10.7038 28.301
Au 14.4021 28.9119 28.2777
Au 15.9121 11.6231 30.5925
Au 15.8908 27.9676 30.6086
Au 9.0084 15.8684 11.5486
Pd 8.96943 23.4413 11.5531
Au 9.82702 13.5089 12.9699
Au 9.72779 25.8535 12.9169
Pd 10.7328 11.1857 14.468
Au 10.5837 28.2585 14.3648
Au 11.6676 8.85988 15.9234
Au 11.5308 30.6016 15.8512
Pd 11.32 14.4498 10.6607
Pd 11.2606 24.9213 10.5986
Au 12.1722 12.0318 12.0635
Au 12.0782 27.3793 11.9743
Au 13.0954 9.72541 13.5351
Au 12.997 29.7406 13.4477
Au 13.663 12.9753 9.74906
Au 13.5851 26.4288 9.67557
Pd 14.583 10.6601 11.2471
Pd 14.5066 28.7863 11.1423
Pd 16.0703 11.6212 8.96246
Au 15.9366 27.8522 8.85029
