923
Atoms. Timestep: 20687
Au 25.9055 23.0582 32.2113
Au 20.7293 18.858 9.68154
Au 15.5734 8.7532 15.5082
Au 21.4048 11.3376 26.0552
Au 17.5066 19.1874 6.88631
Au 21.9213 32.999 24.7881
Au 25.2727 13.0875 30.9633
Au 11.062 20.5203 24.1381
Au 21.471 13.4615 28.0952
Au 26.9228 21.2701 8.79384
Au 12.3132 27.2939 30.2963
Au 8.03962 18.0007 21.1765
Au 12.197 17.9827 32.0866
Pd 12.899 8.25503 15.2345
Au 9.78116 22.7109 25.6032
Au 33.4827 19.103 19.3952
Pd 13.9934 19.3896 18.7537
Au 21.4834 7.13567 16.8811
Au 29.995 28.3657 16.9722
Pd 11.7145 22.2425 14.6536
Au 13.4932 21.7884 7.80553
Au 29.1478 19.5978 8.67731
Pd 22.3464 17.9072 29.4321
Au 27.4592 14.7248 23.867
Au 13.8067 20.9993 23.1872
Au 17.045 31.0261 13.0665
Au 16.7843 19.3346 18.8431
Au 17.9215 16.8516 17.9204
Au 19.7104 25.3093 6.4855
Au 26.4118 26.1492 25.0804
Au 12.5965 22.5923 25.1056
Au 22.7435 19.004 26.9018
Au 10.2146 28.8063 21.7649
Au 16.2696 25.8522 31.8238
Au 24.778 18.3361 12.4336
Au 12.8207 30.587 26.1292
Au 28.5671 13.7523 21.557
Pd 15.2886 26.2773 26.8257
Au 20.136 34.5028 23.5182
Pd 24.9943 22.3231 21.4601
Au 9.12724 19.8217 29.4128
Au 14.3494 23.7949 27.2061
Au 11.8416 8.04136 17.6367
Au 30.1177 12.2684 13.8549
Au 30.4618 11.3586 25.6206
Au 18.9261 13.3833 19.6491
Au 11.5431 13.3925 26.6554
Au 16.6056 33.6403 20.1744
Au 4.24951 18.6109 18.5313
Au 29.2629 22.5714 8.90528
Au 19.6199 31.7799 12.7794
Au 25.1437 16.3935 10.4626
Au 20.8414 15.3168 32.7641
Au 20.0403 29.5675 19.5738
Au 32.309 25.2222 19.243
Au 18.9366 6.64351 20.6714
Au 20.1577 20.3194 6.17625
Au 23.7455 14.4922 20.6398
Au 14.6332 15.0465 20.2146
Au 21.7489 7.95663 14.1694
Au 11.8718 19.43 14.0543
Au 29.5214 25.1666 13.1814
Pd 22.3594 12.0008 11.0743
Au 30.4021 20.6828 28.6965
Au 10.5527 20.3528 26.9767
Pd 16.4853 14.6391 17.9187
Au 23.5318 27.5412 23.1717
Au 10.5577 17.2076 13.4276
Au 19.9337 14.316 14.5345
Au 28.1615 29.0792 15.0316
Au 32.4143 13.7209 24.5472
Pd 13.4024 9.42799 22.402
Pd 31.5705 18.3576 27.7061
Pd 12.8509 15.6674 25.7895
Au 14.6225 22.0897 10.1893
Pd 21.4654 25.9223 23.8921
Pd 24.8283 17.0721 28.5003
Pd 31.6142 24.8902 23.0709
Au 25.3581 19.1309 15.1002
Pd 12.5584 18.2611 23.2493
Au 13.7859 12.5634 27.8216
Pd 15.4801 19.1501 16.3288
Pd 24.846 15.0153 26.563
Au 7.18317 24.6851 19.4033
Au 26.3465 16.4548 13.9544
Au 8.35036 10.9005 17.0507
Au 5.22739 18.4043 21.2348
Au 19.5074 16.5728 22.0838
Au 13.3541 6.7483 21.4113
Au 20.3857 29.0626 30.9876
Au 18.1199 30.3727 17.7084
Au 17.1754 24.709 7.05301
Pd 11.1303 26.2459 18.6636
Au 15.4382 23.2941 31.1812
Au 25.1872 10.8499 14.8376
Pd 17.9291 21.1552 25.8649
Au 15.4156 26.9793 18.7089
Au 9.63242 12.4372 15.2297
Au 14.3374 18.2042 13.9044
Au 20.6413 31.0776 10.4108
Au 23.4442 11.2486 17.0674
Pd 16.2835 19.9953 9.4348
Au 21.6467 24.9679 33.5988
Pd 17.5976 10.4215 19.6594
Au 14.2103 12.563 9.68425
Au 25.1803 31.3159 11.7827
Au 13.442 17.8245 27.4125
Au 20.8555 16.86 14.0896
Au 11.4441 23.6428 27.4621
Au 33.9959 21.1989 21.3202
Pd 19.6079 8.71202 18.8613
Au 17.6857 27.6745 17.0969
Au 8.09619 22.3204 20.3509
Au 20.8863 25.9255 26.5729
Au 23.0654 12.8202 22.837
Au 24.4662 33.1834 16.9359
Pd 19.165 31.7138 15.4393
Au 19.9888 15.5371 26.9858
Au 20.4185 29.2733 16.8008
Au 22.3753 22.6833 22.5982
Au 11.4405 26.3351 21.5313
Au 12.875 16.7594 11.9515
Au 19.308 17.3876 11.864
Au 26.5347 20.5015 19.916
Au 30.998 14.816 13.9841
Au 10.7517 24.5474 23.6156
Au 29.9261 16.2416 27.6028
Au 8.53898 26.5135 17.7645
Au 30.8197 25.3462 25.7158
Pd 9.64513 18.1923 23.4484
Au 14.4255 30.2644 13.484
Au 11.4422 15.5468 30.9758
Au 23.7318 23.1963 6.82957
Pd 17.7042 16.3454 7.40199
Au 24.7248 14.7851 23.7163
Au 17.6957 28.3153 31.4303
Au 22.1008 11.3333 20.5258
Au 19.0022 17.1364 33.6631
Au 24.5233 23.1878 14.587
Au 14.0356 15.8729 23.2784
Au 28.5019 21.4358 6.60478
Au 20.5738 19.7546 28.8335
Pd 19.2431 20.5655 18.4935
Pd 14.1534 26.7164 21.1155
Au 12.7292 10.602 18.0101
Pd 23.2576 32.2707 22.4421
Au 13.5804 9.94362 10.812
Au 17.0662 18.1066 13.4302
Pd 23.3379 22.8246 31.1582
Au 27.788 21.0628 28.4332
Au 28.719 30.2877 26.3174
Au 18.7082 22.0177 28.333
Pd 19.1288 32.2636 20.1878
Au 15.3306 16.6993 25.6907
Au 18.6629 34.7621 21.3905
Au 21.079 15.4966 29.9093
Au 15.3129 27.1216 10.7559
Au 7.75885 17.6017 28.618
Au 22.3705 31.6744 12.5542
Au 14.4724 25.7249 29.5686
Au 18.0349 9.44449 16.7176
Au 9.61078 23.9605 18.1009
Au 14.5743 11.4694 12.9947
Au 26.5925 21.4488 13.87
Au 11.3001 30.2061 23.9186
Au 20.3907 12.2041 12.9445
Au 13.7789 21.0818 30.7539
Au 6.57627 19.9371 14.261
Pd 24.4141 32.3941 14.2868
Au 28.941 26.0039 23.8801
Au 17.774 29.963 24.4349
Au 26.7001 18.8546 10.2222
Au 11.338 19.2069 18.6781
Pd 26.6187 21.5358 26.0222
Au 22.1677 17.1845 11.5795
Au 21.989 28.2218 25.4027
Pd 12.4965 13.5582 24.0296
Au 4.59388 20.694 22.5154
Au 12.8252 25.2866 25.3246
Pd 14.8228 29.2677 20.3573
Au 26.7863 12.1197 10.7639
Au 20.8502 32.048 27.0958
Au 11.8693 29.0838 28.2975
Pd 18.2355 11.7977 29.2307
Au 19.4502 7.54532 12.5386
Pd 13.2926 26.6081 15.2917
Au 22.1 15.7313 23.2085
Pd 10.4173 12.024 18.3638
Au 10.2675 16.3186 10.6397
Au 25.4564 30.7675 16.2091
Au 23.1704 13.8991 7.18874
Pd 12.7893 15.6481 14.5476
Pd 12.1833 15.3188 21.3486
Pd 23.2224 26.3107 11.9622
Pd 11.1373 13.2402 29.3575
Au 15.2481 32.2919 18.1106
Au 6.44777 22.3345 15.288
Pd 14.3887 28.468 28.4446
Pd 24.2447 24.7717 23.4575
Au 13.1461 28.1993 17.4609
Au 33.8418 16.4106 18.5875
Au 20.2454 13.0628 30.5762
Au 20.4616 31.9507 22.7055
Au 22.6097 25.8126 18.9626
Au 22.4018 18.645 7.34545
Pd 26.313 15.2997 21.4295
Au 18.8042 22.0967 12.9999
Au 12.1533 9.8986 13.1888
Au 29.3368 13.7131 18.398
Au 23.7267 14.6769 29.2849
Au 15.2921 30.8802 27.2249
Au 17.9987 15.1361 12.7777
Au 28.4839 18.9424 18.3835
Pd 20.9879 29.3739 27.8624
Pd 21.8485 17.2631 20.9018
Au 23.2059 30.6184 24.6568
Au 24.5284 11.9067 19.6503
Au 23.8361 6.90002 18.1771
Au 22.0515 7.30532 11.5185
Au 27.6884 30.2937 11.5434
Au 12.6278 16.9954 9.22265
Au 23.3034 21.1446 15.9429
Au 26.7014 19.1701 32.3467
Au 24.1409 13.9932 17.5254
Au 13.5373 9.59771 27.7586
Pd 27.3047 28.0462 10.1643
Au 16.1849 32.1668 24.9524
Au 19.8073 28.0825 23.4567
Au 25.3668 15.2204 7.85925
Au 20.3555 24.7385 20.0655
Au 17.3979 18.0178 30.6965
Au 21.4465 19.8903 12.1167
Au 15.6857 16.4311 15.7218
Au 27.724 17.008 8.50004
Au 29.2529 17.0277 13.9005
Au 8.78452 22.215 28.2127
Au 25.0079 17.9304 8.15897
Pd 26.2028 24.7187 16.139
Au 28.6846 20.3563 30.9548
Au 19.9054 8.31646 10.0137
Au 10.9502 24.8378 29.9097
Au 21.164 27.4471 21.0094
Au 29.9562 29.9209 23.85
Au 16.795 24.2908 29.0408
Au 25.438 16.0893 18.9124
Au 19.6074 11.4145 21.4579
Au 16.4963 12.9346 27.5437
Au 26.2125 13.6975 28.5396
Pd 22.0064 23.7203 9.11
Au 22.2852 24.8211 14.5986
Au 31.2553 17.1057 18.4058
Pd 9.85575 24.2449 20.8967
Au 29.8365 15.7341 16.5268
Pd 15.3341 11.0078 26.0884
Au 21.4745 22.0647 17.9016
Au 15.0836 19.2383 29.0957
Pd 27.1244 28.117 26.9563
Au 30.5081 18.8721 25.3813
Au 15.5578 29.6003 17.8279
Au 12.7274 13.3337 19.1921
Au 31.1566 13.3072 16.1957
Au 22.0963 19.9246 31.6273
Au 5.63198 13.677 20.4798
Au 13.1405 17.634 16.454
Pd 20.5673 27.7242 7.37762
Au 18.8546 20.7459 8.57357
Au 6.31917 12.3509 18.2198
Au 14.8603 13.7815 25.3626
Au 7.9761 17.6854 14.4081
Au 25.8566 18.8598 17.7592
Au 30.1659 23.8083 20.2934
Au 27.016 24.0701 13.4693
Au 13.5669 25.2864 17.7175
Au 27.6333 29.8081 17.6693
Pd 29.9383 15.643 30.257
Au 22.8845 11.8912 29.8281
Pd 13.5812 13.9417 12.2339
Au 28.8878 25.7803 10.683
Au 7.85248 19.3742 16.6721
Au 32.5764 15.6418 16.3085
Au 16.5627 16.9876 28.2253
Au 20.0044 24.3121 28.532
Pd 30.4152 14.9616 23.3032
Pd 11.7068 22.4277 22.1472
Au 24.6355 22.0335 24.0724
Pd 29.3105 23.3623 22.8881
Au 31.7551 19.7762 21.3296
Pd 24.9917 8.56323 24.773
Au 18.1698 26.0478 27.29
Au 15.3862 15.7323 13.0722
Au 33.2066 16.0983 23.426
Au 22.7169 18.6552 23.2657
Au 22.1254 31.9839 15.6005
Pd 13.4374 29.0841 22.6242
Au 10.2382 26.1032 25.8672
Pd 17.9752 26.7802 11.3905
Au 6.88143 12.836 15.5862
Pd 18.8442 25.5759 24.5209
Pd 25.9216 21.0875 30.3505
Au 24.1851 10.2845 22.2451
Au 19.0664 29.0887 12.3952
Au 28.5439 9.95948 14.2287
Pd 26.6967 17.8612 20.5212
Au 25.7686 21.4865 5.97141
Pd 22.4795 16.2187 27.3421
Pd 22.5702 25.2605 21.5743
Au 30.0487 19.7465 13.6595
Au 9.8251 17.6165 30.7373
Au 15.388 24.497 24.638
Au 27.5296 22.8825 20.7636
Pd 25.1916 25.9712 18.219
Au 28.1413 20.1153 15.7763
Au 10.9259 10.1535 16.0021
Au 18.5719 15.4923 31.4228
Au 8.11805 11.2253 23.7787
Au 31.1686 22.8238 24.9306
Au 27.0939 27.2279 19.6733
Pd 29.4748 21.0367 20.7134
Pd 16.5948 27.109 29.2347
Pd 26.2558 16.8687 6.02883
Pd 23.2862 14.6242 11.3948
Au 25.1118 32.4723 24.3786
Au 23.5139 16.4526 6.21894
Au 23.2835 20.7381 29.2451
Au 7.07912 22.5456 26.1699
Pd 18.7818 26.326 21.7241
Pd 30.4327 23.6249 17.6301
Pd 16.9564 23.4844 14.9762
Au 15.8268 12.79 30.1429
Pd 20.2906 21.9299 10.6589
Au 25.3195 19.5977 22.3158
Au 31.7002 26.1469 16.7255
Au 18.4228 16.5389 15.2364
Au 27.097 9.75049 16.4371
Au 28.1527 19.1921 22.2555
Au 27.3811 18.9775 13.1135
Au 24.354 20.6894 8.10006
Au 25.5798 25.9656 27.9437
Pd 25.9356 12.7847 25.1996
Pd 18.6787 29.9079 21.8519
Au 11.2107 30.0648 16.9866
Pd 28.9212 16.7478 24.9683
Au 29.7435 15.5567 9.72384
Au 10.993 26.7768 13.6789
Au 26.0084 30.7555 26.35
Au 24.5609 18.7003 30.7189
Au 9.08725 23.0185 15.4711
Au 25.5697 23.1229 18.7731
Au 26.8437 25.6005 8.96989
Au 20.9878 29.8664 14.195
Au 32.078 18.993 11.9858
Au 19.6594 24.4195 14.0648
Au 24.3013 18.2619 33.3616
Au 13.9348 8.83104 25.1278
Pd 12.5809 20.2346 16.5043
Au 16.1369 23.9506 17.6433
Pd 10.5667 13.1142 21.6837
Pd 7.68001 21.9532 17.6911
Au 16.4057 23.8129 33.5924
Au 22.2921 31.5223 29.2107
Pd 10.0619 23.2436 10.7554
Pd 20.3406 26.8797 15.5086
Pd 16.4693 22.022 19.5206
Au 13.575 31.6787 23.6536
Au 21.4428 13.7985 9.35766
Au 15.2122 24.4628 20.0962
Au 5.34069 13.511 23.1834
Au 13.6322 10.8133 15.4887
Au 14.4375 7.26896 17.524
Au 14.2997 24.6942 11.0759
Au 19.3525 14.4278 17.1467
Pd 11.7567 22.7645 31.8155
Au 17.3008 12.5621 24.6296
Au 12.2729 28.4405 20.0395
Au 18.7856 10.419 11.4037
Pd 17.1692 14.0693 15.3268
Au 18.4445 25.0936 16.5704
Au 28.6879 28.1881 22.0976
Pd 18.4873 23.0841 30.8546
Au 26.0215 32.0809 21.6958
Pd 23.6747 32.5078 26.7648
Au 4.37144 18.2097 23.8598
Pd 18.0648 18.1103 9.4003
Au 23.646 16.0936 13.7164
Au 17.1192 8.10179 11.163
Au 23.7772 8.6263 15.935
Au 33.0373 23.7175 17.0954
Pd 27.9372 12.1171 26.9412
Au 30.0058 13.9492 25.8181
Au 28.0434 16.9902 31.5635
Pd 18.5596 19.9074 11.3492
Pd 13.2115 21.2191 27.7945
Au 12.241 22.8423 17.4912
Pd 20.4873 30.4136 24.9861
Au 28.9769 25.3141 29.4228
Au 16.9756 7.74365 18.9648
Pd 16.9158 11.319 22.1868
Au 7.50795 10.1877 19.4495
Au 23.0358 21.775 10.679
Au 17.201 28.4374 9.34118
Au 9.29341 20.3078 14.5625
Au 25.3043 23.8964 26.0289
Au 28.6079 12.1639 16.1419
Au 14.6247 11.0347 20.2982
Au 8.03419 13.4096 13.1674
Au 23.9555 12.5387 27.2441
Au 28.2075 22.9568 15.9306
Au 9.85407 20.2725 21.6866
Au 29.3582 28.9725 19.5673
Au 12.0496 14.4339 9.98963
Pd 29.9937 20.6979 23.4841
Au 14.1497 17.5935 21.045
Au 28.2268 14.5144 14.642
Au 24.7908 25.9197 14.1262
Au 19.9772 19.7822 33.6785
Au 17.3608 19.2217 33.1279
Au 20.8708 19.9555 16.2505
Pd 13.4622 27.5938 12.66
Au 24.9794 23.2771 9.18655
Au 33.5174 24.0451 21.2561
Au 21.9895 28.9136 11.6968
Au 20.887 9.73824 16.332
Au 18.205 9.06833 28.6898
Au 9.83586 11.4933 12.7079
Au 25.9571 30.2829 9.38944
Au 25.1323 9.44116 18.2926
Pd 18.9565 32.6033 25.0799
Au 15.7916 8.7809 21.3125
Pd 15.8238 26.0033 16.0454
Pd 24.5743 10.5268 10.4043
Au 21.4682 6.70763 19.5579
Au 31.6848 22.3789 22.121
Pd 12.8296 24.7478 13.5075
Au 27.2944 23.689 27.95
Pd 25.2202 13.8245 14.9101
Au 19.6975 21.3959 23.6197
Au 18.0094 30.7387 10.487
Au 13.2384 26.3439 9.25203
Pd 16.75 24.7716 9.79229
Pd 10.9983 17.7456 21.0927
Pd 22.7312 28.0899 8.99151
Pd 12.6952 11.2414 25.6111
Au 9.34535 15.6804 21.6458
Au 26.52 9.94066 12.327
Au 32.5053 14.1195 21.7173
Au 21.6507 10.3258 23.302
Au 25.9273 12.615 22.1858
Au 20.435 31.9199 17.796
Au 23.4125 29.9821 27.2463
Au 18.4587 8.99029 21.8113
Au 15.2329 18.4527 23.6348
Au 18.1991 21.8494 33.2723
Pd 13.3402 11.3353 29.9666
Pd 29.8981 18.1163 20.4699
Au 21.9287 29.6584 22.3772
Au 10.8373 21.8634 19.6128
Pd 17.6597 23.2178 23.8132
Au 30.5553 26.4761 21.1626
Au 31.0039 20.044 18.4755
Au 16.33 28.3493 12.978
Au 33.1379 18.2899 16.7625
Au 5.55113 15.7772 24.7314
Au 20.2523 11.1167 9.22877
Pd 20.9028 22.319 32.7064
Au 23.4743 25.3746 29.9403
Au 11.0968 15.8974 23.7314
Au 17.0066 9.66196 13.4454
Au 10.0333 15.6054 26.3446
Pd 25.4173 28.0912 15.5752
Au 21.3573 34.0723 21.0444
Pd 21.0438 22.195 29.9648
Au 12.4786 22.7216 11.9055
Pd 23.1692 26.6203 16.5209
Au 10.0775 27.0729 28.4522
Au 9.08212 26.6755 23.171
Au 17.8117 32.4081 22.5513
Au 24.2295 27.5195 20.5409
Pd 18.0149 23.5405 21.1064
Au 5.66249 17.6799 16.2082
Au 21.348 9.74665 12.0048
Au 24.5951 23.8289 11.8986
Au 31.1531 13.6209 11.4983
Au 5.56394 22.8791 21.0212
Au 16.8177 20.612 23.4645
Au 23.9979 29.8155 13.6636
Au 16.0496 6.20162 20.969
Pd 13.4697 8.65564 19.6856
Au 9.84979 11.0727 25.7901
Au 5.89894 20.5619 19.6212
Pd 17.8173 19.53 28.3194
Au 8.08811 22.1582 13.0468
Au 22.8118 16.2332 8.94223
Au 22.7219 16.2516 18.5538
Pd 13.2244 23.4098 29.5994
Pd 15.3055 25.8158 13.4459
Au 17.9332 27.4675 6.81464
Au 27.3633 27.4151 29.7028
Au 23.0552 16.524 31.6638
Au 26.6792 29.6252 20.651
Au 23.9229 21.6779 26.7518
Au 18.8003 14.0346 8.08968
Au 15.1066 22.8727 12.9565
Au 6.74695 17.9514 18.7642
Au 16.8948 6.57953 16.4833
Au 23.507 19.0938 10.1427
Au 28.105 25.4297 21.2891
Pd 14.3874 26.9033 23.8063
Au 17.0132 20.7303 14.5031
Au 10.9303 14.5698 12.7082
Pd 14.5846 15.4776 10.2288
Au 24.057 33.1451 20.0032
Au 12.424 24.3034 20.024
Pd 23.5994 23.8293 17.0539
Au 19.1437 6.27055 17.9603
Au 24.6296 28.4425 10.8886
Pd 28.3458 23.6393 25.3683
Au 10.3752 18.2168 16.1741
Au 26.7741 31.0948 13.9293
Au 26.6911 13.5098 19.4778
Pd 24.893 23.1261 28.9351
Pd 24.8344 28.4066 25.5231
Au 32.7426 20.6542 23.8898
Au 12.2537 23.8035 9.27656
Au 26.1024 7.18332 19.7521
Au 6.62099 15.3495 14.6863
Pd 20.5171 21.997 20.5991
Au 17.6334 28.2795 19.8223
Au 15.324 20.117 21.1034
Au 7.85371 13.5961 22.448
Au 27.0597 19.2376 6.90719
Pd 16.0214 20.4303 12.1083
Au 26.634 10.3209 23.5892
Au 7.54412 15.3782 19.5453
Pd 17.3424 14.9976 26.1294
Pd 12.8978 20.4776 33.1161
Pd 16.8237 30.9827 20.0158
Au 30.4378 15.3572 20.5019
Au 9.89379 28.6733 18.8709
Au 22.3544 14.1265 25.4435
Au 16.8735 27.1799 24.7302
Pd 9.38593 15.378 29.0163
Pd 19.4939 22.3508 15.869
Au 12.3259 29.0399 14.6925
Au 18.8602 23.1942 18.4785
Au 15.0493 29.496 24.8579
Au 27.7707 24.5304 18.4322
Au 23.6086 25.9757 25.7197
Pd 22.6948 24.157 27.7487
Au 14.8429 18.6918 31.9272
Pd 11.3255 17.9963 25.6059
Au 13.3669 19.7602 25.5376
Au 24.6193 18.9818 5.65562
Au 14.5758 11.5064 23.578
Au 20.7944 12.6336 7.02425
Au 18.6478 25.8333 30.4678
Au 33.3061 22.4097 14.8498
Au 28.4546 21.0844 11.3321
Pd 13.1952 27.9779 26.0566
Au 20.2571 7.85195 23.675
Au 11.3078 10.9753 28.0472
Pd 17.2381 21.509 16.9892
Pd 22.3911 23.5644 25.1444
Au 23.8504 16.9943 25.0871
Pd 20.0857 23.9779 22.7301
Au 26.9727 23.5422 7.26646
Au 14.9744 7.07675 23.4124
Au 32.0577 20.7698 26.5311
Au 26.2616 28.5528 12.981
Au 19.234 7.37547 15.3531
Au 31.073 11.5293 18.0742
Pd 20.7011 14.8612 11.9677
Au 21.7671 13.5473 18.7811
Au 15.9262 21.7273 28.1829
Au 31.2129 17.9666 9.53246
Au 27.5991 17.3663 16.232
Au 29.8109 27.9152 25.7049
Au 11.1007 8.42327 21.2939
Au 31.6367 16.2075 25.5733
Au 23.9437 9.10582 12.7134
Pd 31.7023 21.7273 12.8284
Au 14.6689 21.636 17.3417
Au 22.5001 20.3718 34.2684
Au 19.2222 12.9244 26.6626
Au 17.6265 6.83508 23.0986
Au 28.1761 11.2192 18.7857
Au 11.3889 11.0764 23.2909
Pd 20.1235 11.3313 18.3822
Au 16.9932 6.98062 13.7214
Au 6.50978 11.3933 21.6074
Au 21.4789 12.7287 16.198
Au 14.8782 28.0698 31.067
Au 33.128 18.3692 25.1658
Au 24.7859 16.4598 16.2397
Au 17.3375 15.6826 10.1495
Au 10.0665 9.4631 18.9408
Au 17.0207 16.1723 23.5425
Au 27.2661 21.5111 23.2834
Au 29.7994 18.2129 29.7962
Pd 21.0797 24.6288 31.0883
Pd 11.8472 10.9299 20.5453
Au 22.7253 13.8176 31.6583
Au 32.0252 17.3338 14.2287
Au 30.3324 27.3188 14.5744
Pd 26.043 12.0984 17.1634
Au 13.8303 15.0547 17.2216
Au 25.2624 29.841 23.0753
Au 15.4571 17.91 11.1331
Pd 17.7057 25.5912 19.2957
Pd 13.5414 14.0804 30.225
Au 8.86701 24.7277 27.6057
Au 12.4713 26.1615 27.8708
Au 16.4422 16.6258 32.8878
Pd 27.6557 7.9192 24.0604
Pd 23.1822 18.517 17.0299
Au 10.539 28.7724 26.0871
Au 28.0731 8.49451 18.683
Au 17.5139 12.1564 17.6705
Au 17.9104 26.516 14.2182
Au 11.0696 15.6478 16.8547
Pd 24.0617 30.2697 20.5882
Au 16.3767 31.2929 15.6909
Pd 22.556 27.598 14.1389
Au 5.87346 14.9446 17.3374
Au 20.4736 26.6169 12.6198
Pd 26.3151 9.96687 20.5989
Au 29.6487 9.71376 23.5118
Au 28.2854 8.35233 21.4653
Au 10.4306 21.0559 12.2555
Au 17.0813 12.1395 8.89527
Pd 21.0773 8.80997 21.1473
Au 30.1537 9.74716 19.8953
Pd 8.99104 13.2565 27.2781
Au 17.3336 15.6554 20.4236
Pd 27.4654 26.5645 14.3417
Pd 27.1962 12.2454 13.6243
Pd 9.30075 10.5955 21.4378
Au 11.6651 21.2069 9.73967
Au 31.2079 24.0034 14.9155
Au 18.3424 13.8375 22.3017
Pd 27.5174 30.0855 28.6872
Au 19.2661 20.3868 31.1152
Au 29.4119 18.5465 11.2442
Pd 15.5679 22.7391 22.1656
Pd 25.6029 15.9989 30.8876
Au 9.81941 9.02886 23.7093
Au 5.91561 17.9295 26.3222
Pd 9.57892 17.2139 18.8683
Au 13.2161 25.1641 31.8075
Au 24.1813 25.1225 32.5245
Au 19.5066 31.0469 29.4043
Au 18.1874 20.7131 21.1427
Pd 26.705 24.1249 23.2308
Au 19.6989 34.4861 18.8955
Pd 21.301 26.1009 9.99577
Au 8.75875 18.8865 12.1553
Au 31.8587 27.8832 19.0913
Au 14.7918 12.4986 17.5869
Pd 16.2674 11.4277 15.4112
Au 11.2852 24.8299 15.9011
Au 15.4728 9.84861 17.9672
Au 5.37766 20.4314 16.8882
Au 17.9193 10.5597 26.6399
Au 16.02 8.50373 26.9652
Au 13.7849 23.1208 33.3923
Au 15.9919 15.4468 30.4766
Pd 13.7433 22.0421 19.9115
Au 28.2581 16.1835 19.0421
Au 16.6061 29.9207 29.4373
Au 6.92714 18.1991 23.7306
Au 9.80788 13.4143 24.4201
Au 26.951 14.7056 16.9761
Pd 21.0434 17.4045 25.1324
Au 5.33904 22.9081 18.2704
Pd 24.1102 25.7702 9.56929
Pd 29.6771 9.73749 16.8612
Pd 13.6695 19.4163 9.37899
Pd 29.2462 22.3747 13.6201
Au 24.5796 13.2337 9.60437
Pd 17.175 23.711 26.4739
Au 28.2978 9.78156 25.7839
Au 17.4442 22.3136 10.5428
Pd 21.5726 19.3683 19.0402
Au 22.3951 9.23617 9.64671
Au 19.2175 18.2484 19.8427
Au 29.0436 11.1398 11.7601
Au 20.0422 19.6382 26.1766
Au 22.9064 29.0811 30.0571
Au 14.3322 32.0893 20.7559
Au 11.2519 18.7682 10.9309
Pd 19.5675 9.77692 14.0535
Pd 15.6975 26.6688 8.09486
Au 27.5815 14.8492 26.5054
Au 22.6629 18.7501 14.3743
Au 26.2178 26.0857 11.6642
Au 18.2463 19.0463 16.3562
Au 8.8488 25.7406 15.1267
Au 14.1967 23.6604 15.515
Pd 22.7949 20.9212 5.82305
Au 30.7753 21.4474 15.9244
Pd 8.87593 26.6848 20.4503
Au 15.1595 10.2378 8.63206
Au 6.31472 22.6464 23.6075
Au 13.7504 16.9374 29.9603
Au 27.3387 23.5287 10.7481
Au 24.9232 19.4694 25.0463
Au 10.3921 14.662 19.3233
Au 7.04081 24.489 16.7368
Au 28.6807 14.0303 12.0487
Pd 27.4478 27.1751 17.046
Au 7.44286 24.7032 22.0935
Au 23.3489 22.9184 33.8328
Au 14.5976 8.47968 12.9213
Pd 7.16683 20.4655 22.1445
Pd 23.7552 8.29806 20.4827
Au 21.01 14.0453 21.4013
Pd 14.7436 15.0724 27.9185
Au 19.8523 17.8728 7.23163
Au 11.0691 21.7832 29.4748
Au 25.3082 24.984 20.8124
Pd 16.3384 12.9945 20.1176
Au 8.71074 19.8831 19.2421
Pd 24.3043 16.9134 21.9726
Au 18.7285 18.6598 23.7967
Au 25.6911 7.83723 22.3159
Au 8.36082 12.7112 19.9444
Au 31.2642 29.1549 21.4888
Au 19.3389 17.3213 28.7997
Au 15.9529 19.2887 26.3341
Pd 14.5503 13.5894 14.9003
Pd 15.26 17.0731 18.4598
Pd 18.8354 26.1543 8.88724
Au 27.4358 28.7016 24.3958
Pd 22.4192 28.5571 18.7199
Au 11.3909 8.90668 25.9701
Au 16.6723 20.8483 30.7365
Au 25.4425 19.6446 27.7933
Pd 9.36864 15.1264 14.8451
Au 32.3263 22.2696 19.4101
Pd 12.0569 15.5211 28.347
Au 11.9796 30.8974 21.3473
Au 17.0427 18.0938 21.5337
Pd 16.6811 28.6349 26.9521
Au 10.4654 17.7274 28.1298
Au 22.2719 9.29793 18.579
Pd 22.847 11.5388 8.42179
Au 18.1789 7.87764 25.5375
Pd 16.3901 25.4146 22.3556
Au 20.281 17.8079 31.3846
Au 26.3048 25.0047 30.4411
Au 22.9557 23.2198 19.8349
Pd 26.1609 7.33498 16.9654
Au 23.9747 20.8968 18.584
Au 29.2093 13.7705 28.565
Au 22.2058 33.8212 18.2545
Au 13.9117 15.8591 32.3419
Au 25.3873 27.835 8.24127
Au 27.7181 16.5071 11.4996
Pd 30.7033 12.4837 20.443
Au 10.1485 24.1136 13.2324
Au 16.4894 28.1134 22.2606
Au 28.489 21.7093 18.2685
Au 16.1428 10.6732 11.0053
Au 20.1919 8.96959 26.82
Pd 21.0037 24.5997 17.0464
Au 6.21787 15.9433 22.0712
Au 26.0709 8.31386 14.3964
Au 14.9973 19.7984 7.06134
Au 18.2482 30.8315 27.0649
Pd 17.2479 24.3563 12.4576
Au 22.9629 7.80863 22.9751
Pd 18.2095 17.5733 26.1379
Au 29.345 21.2094 26.1636
Au 22.6547 13.57 13.8411
Pd 14.6672 24.2031 8.22414
Au 22.9339 20.5064 21.1513
Au 20.6161 10.8417 28.6853
Au 17.7812 9.57459 8.954
Au 27.7221 14.2868 30.9084
Au 32.6974 19.8795 14.5972
Au 23.8712 11.0632 24.8716
Pd 15.7988 30.6879 22.537
Au 24.5543 20.8193 32.6622
Pd 29.1555 25.4349 16.0526
Pd 19.4164 24.4573 11.0487
Pd 7.44673 20.0491 27.2469
Pd 29.4338 28.0477 28.2803
Au 5.66361 20.3527 25.0058
Pd 28.582 16.5486 22.1608
Au 15.4833 29.8604 11.0061
Au 31.3946 27.5009 23.6008
Au 8.59653 13.8587 17.348
Au 18.4688 22.3895 6.21722
Au 19.9545 28.4678 9.90282
Au 28.8549 27.9108 12.4068
Pd 30.1235 23.3352 11.2815
Au 8.08374 16.4746 16.8192
Au 7.34486 15.548 26.9215
Pd 13.3884 12.9179 21.685
Au 25.6627 21.1886 11.2259
Pd 20.957 26.8416 29.4482
Pd 32.0512 14.3021 18.6721
Au 25.0047 25.481 7.00735
Au 22.4766 10.8191 14.314
Au 11.6149 27.4985 23.9071
Au 17.8111 33.015 17.7104
Au 31.0194 17.732 23.048
Pd 25.9076 14.3886 12.2193
Au 16.3954 22.1587 7.87018
Au 15.284 21.8617 25.4042
Au 4.86703 16.172 19.5945
Au 12.0725 12.4794 13.9303
Au 30.9577 20.7906 10.3352
Au 19.8114 26.9404 32.5934
Au 21.4344 30.2288 7.99436
Au 18.7924 28.4335 28.8695
Au 20.0156 16.1266 9.49434
Au 20.5265 19.4577 21.894
Au 18.9973 24.4743 33.0617
Au 20.386 12.762 23.9011
Au 11.9117 12.0055 11.1634
Au 18.2378 14.5752 28.9122
Au 14.687 6.33734 14.8922
Au 11.6096 25.5751 11.2724
Au 19.0778 10.3068 24.2171
Pd 20.9574 15.4206 7.02477
Au 19.2489 28.1975 26.0886
Au 21.8275 23.9449 12.0054
Pd 28.6545 18.6604 27.4036
Au 25.9243 31.6054 18.8452
Pd 26.3753 17.296 23.6195
Au 22.3392 27.0723 31.8692
Au 33.0797 26.7816 21.4444
Pd 21.3157 21.8414 27.2742
Pd 28.4616 25.8557 26.8995
Au 8.2821 15.9198 12.3495
Au 12.1469 19.2127 29.5738
Au 21.4542 22.039 14.0216
Au 28.519 11.1162 21.5751
Au 17.4936 34.5912 23.9483
Pd 15.2211 28.5551 15.3911
Au 23.1653 9.97565 27.6868
Pd 33.8289 18.6233 22.4971
Au 21.6203 21.1425 8.34194
Pd 27.7196 11.8958 29.7209
Au 12.5097 19.9447 21.0563
Au 13.0307 30.7697 18.7946
Pd 25.9306 21.566 16.6266
Au 28.8144 30.8889 21.6001
Au 13.392 20.1075 11.9503
Au 27.1962 14.516 9.63131
Au 8.23086 15.7894 24.2231
Au 22.1322 20.8085 24.7412
Au 32.6135 16.8731 20.8825
Au 20.048 26.9319 18.3747
Pd 15.8326 10.5191 28.773
Au 25.1307 28.8168 18.2385
Pd 15.7031 13.8964 22.6647
Au 30.0072 23.4001 27.6458
Pd 8.97772 22.5569 22.9702
Au 21.7257 17.7524 33.7505
Au 20.5478 17.3559 17.0942
Au 12.0792 13.0778 16.4919
Au 10.6911 20.1991 31.6544
Au 33.2597 20.9759 17.1706
Au 13.4759 24.4614 22.6259
Au 10.6268 27.5378 16.2984
Au 16.1481 13.4839 11.293
Au 26.4408 17.3671 26.3702
Pd 29.6855 26.2826 18.6484
Au 23.0714 27.2833 27.9451
Au 17.6291 12.3524 13.2117
Au 30.8719 12.1808 23.0574
Au 22.3886 8.68258 25.4132
Pd 27.0505 18.6186 29.6634
Pd 19.0488 11.8819 15.5657
Au 19.4998 15.247 24.4196
Au 23.2452 31.1719 18.0811
Pd 27.7593 19.3101 24.9061
Au 18.8508 29.8592 7.88763
Pd 26.1555 27.0679 22.4996
Au 25.2532 28.732 28.735
Au 13.7223 30.8499 16.1352
Au 23.8679 20.9118 13.2029
Au 23.0415 29.3578 16.1538
Au 25.3287 11.0588 29.118
Au 28.0968 22.9209 30.4395
Au 23.2801 30.7387 9.98237
Au 15.5045 21.1816 33.1981
Au 27.5259 31.3495 23.9581
Au 21.0757 23.0462 6.48119
Au 21.7346 31.5568 20.2546
Au 18.1717 29.238 14.9689
Au 24.9418 27.3571 31.0356
Au 22.3223 25.6907 7.36424
Au 24.0975 18.4303 19.7826
Au 24.0206 29.947 7.54985
Pd 28.4193 12.2603 24.1515
Au 8.3665 20.4795 24.7009
Au 9.50027 13.5583 10.8406
Pd 24.5693 12.0883 12.5569
Au 8.07557 24.6608 24.7632
Au 25.0288 31.3838 28.8636
Au 15.388 33.5516 22.7032
Au 15.4477 17.4275 8.40971
Pd 19.2111 23.4746 8.55582
Au 19.766 23.3425 25.7078
Au 15.9142 14.437 8.20636
Pd 12.4941 16.6929 19.0023
Au 19.5144 19.4598 13.9508
Au 8.62065 17.9877 26.0291
Au 7.13747 13.4081 25.2133
Pd 31.0076 16.4106 11.833
Pd 22.1698 15.3747 16.0204
Au 30.4166 18.5315 16.1487
Au 18.9364 13.2093 10.6993
Au 16.4413 9.35499 24.0744
Au 25.8372 10.3604 26.6069
Au 29.3259 12.8476 9.72309
Au 27.543 16.1603 28.8988
Pd 10.1355 21.0824 17.0366
Pd 20.1303 15.7729 19.389
Pd 14.2615 20.9445 14.5501
Au 12.0586 7.51133 23.6845
