923
Atoms. Timestep: 20071
Au 19.7549 19.7753 19.7652
Au 22.0566 19.7862 18.3462
Au 22.0485 19.7903 21.1909
Au 17.4663 19.7524 18.3337
Au 17.4587 19.7658 21.1809
Au 18.3353 22.0717 19.7487
Au 21.1795 22.0688 19.7436
Au 18.3335 17.475 19.774
Au 21.1785 17.4887 19.7765
Au 19.7572 18.3683 22.0774
Au 19.7451 21.1963 22.0596
Au 19.7483 18.3486 17.4756
Au 19.7622 21.1843 17.4635
Pd 24.3426 19.7785 16.9372
Au 24.4108 19.8017 19.7559
Au 24.3341 19.8068 22.6302
Pd 15.192 19.735 16.9151
Au 15.1051 19.7489 19.7453
Au 15.1629 19.7545 22.6046
Pd 16.917 24.3623 19.7368
Au 19.7548 24.4451 19.7336
Au 22.5934 24.3609 19.7184
Pd 16.9217 15.1882 19.7826
Au 19.7502 15.1142 19.7876
Au 22.6052 15.1928 19.7903
Au 19.7634 16.9702 24.3962
Au 19.7508 19.7854 24.4603
Au 19.7452 22.6063 24.3579
Au 19.7462 16.9309 15.1793
Au 19.7597 19.7437 15.0992
Au 19.7728 22.5857 15.1595
Au 22.0919 18.3625 23.5749
Au 22.0823 21.22 23.5559
Au 22.0924 18.3327 16.0038
Au 22.1072 21.2129 15.9951
Au 17.4235 18.3339 23.5593
Au 17.4131 21.2097 23.5469
Pd 17.4347 18.2964 16.0038
Au 17.4329 21.1704 15.9856
Pd 23.5239 22.1066 18.3052
Au 23.5301 22.1209 21.189
Au 15.9934 22.0884 18.2996
Au 15.9864 22.1098 21.1922
Au 23.5412 17.4632 18.3243
Au 23.5359 17.4621 21.2352
Au 16.0038 17.4196 18.311
Au 15.9855 17.411 21.2229
Au 18.3024 23.5639 22.0728
Au 21.1907 23.5519 22.0691
Au 18.3047 16.0147 22.1164
Au 21.2071 16.0161 22.1327
Au 18.323 23.5459 17.4096
Au 21.2194 23.542 17.4136
Au 18.3087 15.9971 17.4417
Au 21.2036 15.9977 17.4445
Au 26.6401 19.7575 15.5295
Au 26.7445 19.7745 18.3309
Au 26.7397 19.7971 21.2054
Au 26.6187 19.8062 24.0476
Au 12.8916 19.7208 15.487
Au 12.7743 19.7366 18.3192
Au 12.7634 19.7387 21.1958
Pd 12.8668 19.7529 24.0209
Au 15.4824 26.6597 19.7415
Au 18.3331 26.7714 19.7273
Pd 21.1843 26.7662 19.7155
Au 24.0038 26.6503 19.7017
Au 15.5138 12.8863 19.7929
Au 18.3328 12.7726 19.7944
Au 21.1938 12.769 19.7885
Au 24.0354 12.8908 19.7997
Pd 19.763 15.5738 26.6956
Pd 19.7513 18.3744 26.7786
Pd 19.7483 21.1998 26.7641
Au 19.7564 24.0328 26.646
Pd 19.7743 15.5043 12.9081
Pd 19.777 18.3013 12.7892
Pd 19.7827 21.1552 12.7744
Au 19.7856 23.9857 12.8437
Pd 24.3926 18.3616 25.0124
Au 22.0959 16.9411 25.9074
Pd 24.381 21.2389 25.0025
Pd 22.0959 19.796 25.9577
Au 22.0989 22.6425 25.8777
Au 24.4055 18.3034 14.5677
Au 22.1005 16.8807 13.6787
Au 24.4008 21.2126 14.5457
Au 22.1005 19.7485 13.5729
Au 22.1164 22.6113 13.6356
Au 15.1034 18.317 24.9926
Au 17.4283 16.9226 25.8977
Au 15.0824 21.2158 24.988
Pd 17.4017 19.7764 25.9558
Au 17.3944 22.6461 25.8681
Au 15.1529 18.2578 14.5563
Pd 17.4348 16.8633 13.6956
Au 15.1231 21.1743 14.5347
Au 17.4339 19.6974 13.5976
Au 17.4387 22.6061 13.649
Au 24.9623 24.4236 18.2733
Au 25.8347 22.1241 16.8828
Pd 24.9577 24.433 21.1805
Au 25.9184 22.1606 19.755
Pd 25.8363 22.1379 22.6401
Au 14.5356 24.4167 18.2836
Au 13.6697 22.0864 16.8516
Au 14.5321 24.433 21.1952
Au 13.5746 22.1216 19.7481
Au 13.6554 22.1087 22.6499
Au 24.9904 15.131 18.3224
Pd 25.8571 17.431 16.8963
Au 24.9958 15.1376 21.2792
Au 25.9406 17.4248 19.7759
Au 25.8544 17.4401 22.6964
Au 14.5657 15.0977 18.3227
Au 13.6894 17.3865 16.8791
Pd 14.5483 15.1088 21.2433
Au 13.5914 17.368 19.7804
Au 13.6624 17.396 22.6749
Au 18.2885 25.016 24.3977
Au 16.8621 25.8941 22.0788
Au 21.1898 25.009 24.3888
Au 19.7537 25.9902 22.0912
Au 22.6105 25.8882 22.0525
Au 18.31 14.5931 24.4578
Au 16.8702 13.7026 22.1401
Au 21.2225 14.5789 24.4774
Au 19.7644 13.5989 22.1694
Au 22.6602 13.6877 22.179
Pd 18.3294 24.9686 15.0727
Au 16.8908 25.8639 17.3795
Au 21.2237 24.9692 15.0898
Au 19.7827 25.9565 17.367
Pd 22.6295 25.8672 17.3863
Au 18.3234 14.5489 15.1145
Au 16.8891 13.6731 17.4318
Au 21.2312 14.5429 15.1214
Au 19.772 13.5758 17.4212
Au 22.6467 13.6573 17.4248
Au 23.5982 15.9807 23.6469
Au 23.5775 23.5878 23.5695
Au 23.5939 15.9355 15.9572
Pd 23.5747 23.5839 15.9333
Pd 15.9305 15.9666 23.614
Au 15.9155 23.6039 23.592
Pd 15.9648 15.9255 15.9515
Au 15.9466 23.575 15.9068
Au 28.9495 19.7314 14.104
Pd 29.0873 19.7521 16.9163
Au 29.1224 19.7618 19.7629
Au 29.0891 19.7772 22.6185
Au 28.9484 19.7914 25.4492
Pd 10.5874 19.7068 14.0516
Au 10.4326 19.7211 16.8866
Au 10.3929 19.7213 19.761
Au 10.4325 19.7346 22.6246
Au 10.5689 19.7556 25.417
Au 14.0458 28.9611 19.734
Au 16.8889 29.1074 19.7345
Au 19.7693 29.1313 19.7169
Au 22.5989 29.0859 19.711
Au 25.4309 28.9518 19.7037
Au 14.1099 10.5495 19.7953
Au 16.936 10.41 19.792
Au 19.7792 10.3889 19.7826
Au 22.6293 10.4313 19.7873
Au 25.4734 10.5916 19.7921
Au 19.7474 14.1619 28.9836
Pd 19.7518 16.9586 29.0917
Au 19.7494 19.7899 29.1189
Au 19.7654 22.6401 29.079
Au 19.7628 25.4716 28.9397
Au 19.7989 14.0804 10.6289
Pd 19.7962 16.8705 10.4951
Au 19.8074 19.7016 10.455
Au 19.812 22.5608 10.4458
Pd 19.7751 25.3852 10.5301
Au 26.7042 18.3249 26.4382
Au 24.4371 16.8978 27.3464
Pd 22.1035 15.5088 28.214
Au 26.6827 21.2638 26.4454
Au 24.4295 19.8148 27.4262
Au 22.1128 18.3692 28.3133
Pd 24.407 22.6928 27.3365
Au 22.1304 21.2487 28.2984
Pd 22.1123 24.1025 28.1757
Au 26.7143 18.2619 13.1232
Pd 24.4272 16.8357 12.2315
Au 22.1312 15.4472 11.393
Au 26.7171 21.1998 13.0945
Au 24.4363 19.7303 12.1086
Pd 22.1438 18.2821 11.2454
Pd 24.4319 22.6259 12.1682
Pd 22.1436 21.168 11.2205
Pd 22.127 24.0248 11.3197
Au 12.7823 18.3222 26.4103
Au 15.0856 16.89 27.3473
Pd 17.4178 15.5076 28.2077
Pd 12.7668 21.2158 26.4032
Au 15.0407 19.7915 27.4215
Au 17.3921 18.3483 28.3195
Au 15.0404 22.6819 27.3114
Au 17.365 21.2192 28.311
Au 17.3793 24.1069 28.1774
Au 12.8212 18.2489 13.1011
Pd 15.1205 16.8186 12.2103
Au 17.4539 15.4287 11.3971
Au 12.8008 21.1642 13.0771
Au 15.0884 19.6921 12.1047
Au 17.4277 18.2549 11.2476
Au 15.0911 22.6102 12.166
Au 17.4211 21.1314 11.219
Au 17.4292 24.0239 11.3012
Pd 26.4133 26.7365 18.2605
Pd 27.323 24.4598 16.8498
Au 28.1872 22.117 15.4616
Au 26.4046 26.7474 21.1757
Au 27.4015 24.4908 19.7289
Au 28.3066 22.1499 18.3089
Au 27.3079 24.4659 22.632
Au 28.2998 22.1779 21.1967
Au 28.1669 22.1605 24.0715
Au 13.0574 26.7358 18.272
Au 12.1703 24.4238 16.8095
Au 11.3373 22.0741 15.4104
Pd 13.0733 26.737 21.195
Au 12.065 24.4756 19.7447
Au 11.1904 22.1218 18.2961
Au 12.1808 24.4441 22.6586
Au 11.1856 22.1262 21.1985
Au 11.3383 22.1038 24.0761
Au 26.4434 12.8048 18.3306
Au 27.3411 15.0837 16.8873
Au 28.182 17.3985 15.474
Au 26.449 12.835 21.2848
Au 27.4352 15.074 19.8105
Au 28.3135 17.3955 18.3386
Pd 27.3392 15.1097 22.7099
Au 28.3062 17.3808 21.2349
Au 28.1797 17.412 24.0908
Au 13.1155 12.764 18.3107
Au 12.2079 15.0383 16.8639
Au 11.3443 17.3641 15.44
Au 13.1113 12.784 21.2606
Au 12.1019 15.0246 19.7883
Au 11.2009 17.3472 18.3348
Au 12.1899 15.0816 22.6909
Au 11.1989 17.3519 21.2264
Pd 11.337 17.4129 24.0828
Au 18.2858 26.4688 26.7016
Au 16.8427 27.3726 24.4136
Pd 15.4155 28.2097 22.0921
Au 21.2051 26.4629 26.7034
Pd 19.7389 27.4681 24.432
Au 18.3094 28.3466 22.1187
Au 22.6124 27.3745 24.3888
Pd 21.1812 28.3491 22.0904
Au 24.0395 28.2081 22.0632
Au 18.3012 13.1722 26.7785
Au 16.8811 12.2173 24.4887
Au 15.4677 11.3434 22.1672
Au 21.2199 13.1571 26.7927
Au 19.7812 12.1167 24.5274
Au 18.3371 11.2061 22.1918
Pd 22.6773 12.2187 24.5101
Au 21.2264 11.2163 22.1969
Au 24.1009 11.3705 22.189
Au 18.3228 26.3874 12.739
Au 16.8772 27.3155 15.0169
Au 15.4334 28.1923 17.3528
Au 21.2255 26.3851 12.7415
Au 19.7756 27.421 15.0134
Au 18.3377 28.332 17.3291
Au 22.6477 27.3226 15.0512
Pd 21.2081 28.3178 17.3458
Au 24.0549 28.1814 17.3529
Pd 18.3448 13.0882 12.8169
Au 16.8942 12.1815 15.0971
Au 15.4888 11.3218 17.4215
Au 21.2514 13.1075 12.8297
Au 19.802 12.0854 15.0878
Au 18.359 11.1914 17.4121
Pd 22.6824 12.1934 15.108
Pd 21.227 11.2034 17.4079
Au 24.0815 11.3474 17.4206
Pd 25.9355 15.9419 25.0754
Au 25.9048 23.6251 25.0524
Pd 25.0693 13.6312 23.6729
Au 25.0206 25.959 23.5837
Au 23.6311 14.5134 25.9766
Au 23.5919 25.0574 25.9358
Au 25.9218 15.891 14.5008
Au 25.9223 23.6098 14.467
Pd 25.0471 13.5827 15.9365
Au 25.032 25.9285 15.8967
Pd 23.6167 14.4725 13.6226
Au 23.61 25.0161 13.5603
Pd 13.5741 15.9253 25.0725
Pd 13.564 23.6191 25.0444
Au 14.4712 13.6195 23.6505
Au 14.4466 25.9507 23.5979
Au 15.9059 14.5206 25.9696
Pd 15.8848 25.0771 25.9254
Au 13.6312 15.8689 14.4783
Pd 13.5841 23.5779 14.4311
Pd 14.5004 13.5697 15.9269
Au 14.4524 25.9237 15.8499
Au 15.9474 14.4609 13.6224
Au 15.9237 25.0253 13.545
Au 31.2511 19.6997 12.677
Pd 31.3771 19.7318 15.4734
Au 31.4654 19.7353 18.3277
Au 31.4907 19.7329 21.1912
Au 31.4411 19.7816 24.0335
Au 31.2676 19.7891 26.8603
Au 8.3116 19.6956 12.6083
Au 8.12622 19.6966 15.4381
Pd 8.08066 19.7097 18.3267
Pd 8.07619 19.7254 21.1874
Pd 8.13133 19.7437 24.0317
Pd 8.28061 19.7693 26.7989
Au 12.6112 31.2727 19.7016
Au 15.4476 31.4552 19.7064
Au 18.3271 31.5107 19.7028
Au 21.208 31.4883 19.713
Pd 24.0602 31.3834 19.7187
Pd 26.8379 31.2308 19.7121
Pd 12.7131 8.26446 19.7919
Au 15.5146 8.07246 19.7949
Pd 18.36 8.04569 19.7869
Au 21.2014 8.04213 19.7886
Au 24.0806 8.10883 19.7919
Au 26.9008 8.29262 19.7799
Au 19.7297 12.7172 31.2884
Au 19.72 15.5398 31.431
Au 19.7318 18.3695 31.4849
Au 19.7628 21.2475 31.4853
Au 19.7662 24.0899 31.4137
Pd 19.7681 26.8854 31.2143
Pd 19.81 12.6595 8.34952
Au 19.8024 15.4401 8.17656
Pd 19.7928 18.2718 8.14509
Au 19.7817 21.1114 8.08321
Au 19.7925 23.9629 8.09425
Au 19.7647 26.7857 8.22716
Au 29.0466 18.3379 27.8811
Au 26.7871 16.8771 28.8203
Au 24.4595 15.4621 29.7038
Au 22.1104 14.0719 30.5294
Au 29.0365 21.27 27.8684
Au 26.7878 19.828 28.9354
Au 24.495 18.3777 29.8568
Au 22.1283 16.9411 30.6824
Au 26.7133 22.7419 28.7949
Pd 24.4714 21.291 29.8033
Au 22.1611 19.8383 30.7216
Pd 24.4156 24.1276 29.6426
Pd 22.144 22.6993 30.6246
Au 22.1277 25.5432 30.4852
Au 29.0402 18.2334 11.6934
Pd 26.7346 16.8042 10.8009
Pd 24.4417 15.3991 9.93402
Pd 22.1454 14.0131 9.09649
Au 29.0585 21.1692 11.6554
Au 26.795 19.6886 10.6346
Au 24.5046 18.2427 9.75209
Au 22.1626 16.8451 8.90728
Au 26.7667 22.6195 10.7118
Au 24.4797 21.1618 9.71014
Au 22.1648 19.706 8.85426
Au 24.4498 24.0342 9.81846
Pd 22.1613 22.5809 8.87593
Au 22.1254 25.4286 9.00145
Au 10.4562 18.3255 27.8366
Au 12.7453 16.8913 28.8065
Pd 15.0851 15.4675 29.656
Au 17.3675 14.076 30.5123
Au 10.4444 21.2123 27.815
Pd 12.6949 19.7886 28.871
Au 15.0084 18.3521 29.8263
Pd 17.3646 16.9119 30.6495
Au 12.7203 22.6545 28.7571
Pd 14.9832 21.2413 29.8042
Au 17.3224 19.7873 30.7383
Au 15.0281 24.1215 29.6674
Au 17.3313 22.672 30.6944
Au 17.3864 25.5659 30.517
Pd 10.5214 18.2447 11.6615
Au 12.7986 16.812 10.7489
Au 15.1324 15.3868 9.87851
Pd 17.4749 14.0064 9.07441
Pd 10.5114 21.1177 11.6439
Au 12.7552 19.6842 10.6062
Pd 15.0708 18.2491 9.74503
Au 17.4255 16.8356 8.89293
Au 12.7666 22.5743 10.6913
Pd 15.057 21.1275 9.72158
Au 17.382 19.681 8.8271
Au 15.068 24.0197 9.79494
Au 17.3826 22.5446 8.83623
Au 17.4022 25.4396 8.96454
Au 27.85 29.0585 18.2528
Au 28.7727 26.7878 16.8355
Au 29.6819 24.4727 15.4191
Au 30.5346 22.0925 14.0166
Au 27.838 29.098 21.1943
Au 28.8823 26.8195 19.7373
Au 29.8286 24.5105 18.3079
Au 30.7067 22.1281 16.8808
Au 28.7821 26.8109 22.6414
Pd 29.8098 24.5339 21.1989
Au 30.7375 22.1755 19.7582
Au 29.6758 24.5023 24.0784
Au 30.6908 22.1965 22.6296
Au 30.5259 22.1795 25.5174
Au 11.5923 29.0632 18.2418
Au 10.6714 26.7494 16.7841
Pd 9.83267 24.391 15.368
Au 9.02661 22.0541 13.9632
Au 11.6207 29.0407 21.1771
Au 10.5527 26.807 19.7333
Au 9.64284 24.4784 18.2577
Au 8.81544 22.1039 16.853
Au 10.7013 26.7456 22.6468
Au 9.64195 24.4808 21.2007
Au 8.76332 22.1021 19.7377
Pd 9.8379 24.4168 24.0696
Au 8.82646 22.1163 22.6346
Pd 9.01962 22.087 25.4681
Pd 27.874 10.4967 18.3454
Au 28.8248 12.7417 16.9166
Au 29.7011 15.0616 15.4479
Pd 30.4888 17.382 14.0393
Au 27.8975 10.5205 21.248
Pd 28.8886 12.751 19.8065
Au 29.8517 15.0376 18.3795
Au 30.6713 17.3774 16.9029
Au 28.8269 12.8181 22.6964
Pd 29.8051 15.0528 21.2509
Pd 30.6977 17.3652 19.8017
Pd 29.6684 15.1119 24.1019
Pd 30.6473 17.3861 22.6449
Au 30.5202 17.4144 25.4935
Au 11.6828 10.4146 18.3187
Au 10.7386 12.6989 16.8576
Au 9.85959 15.0011 15.4088
Au 9.04246 17.3459 13.9756
Au 11.6753 10.4287 21.2616
Au 10.6138 12.6735 19.785
Au 9.67645 14.9858 18.3366
Au 8.82075 17.3185 16.8858
Au 10.7302 12.7342 22.6847
Pd 9.69665 15.0017 21.2224
Pd 8.80019 17.3422 19.7698
Au 9.8316 15.093 24.0967
Au 8.83192 17.3599 22.6339
Pd 9.01987 17.4357 25.483
Au 18.3013 27.916 29.0318
Au 16.8341 28.8504 26.7452
Au 15.4016 29.7169 24.4274
Au 13.9677 30.5337 22.0931
Au 21.213 27.9053 29.0291
Au 19.755 28.9569 26.7658
Pd 18.2913 29.8451 24.4625
Au 16.8581 30.7169 22.1348
Au 22.672 28.8407 26.7264
Au 21.186 29.8688 24.4562
Au 19.7503 30.7609 22.1346
Pd 24.071 29.6793 24.3917
Au 22.6488 30.7019 22.1091
Pd 25.4768 30.4944 22.045
Au 18.2691 11.7162 29.0764
Pd 16.8758 10.8002 26.8054
Au 15.4501 9.85624 24.5168
Au 14.044 8.99876 22.1724
Au 21.2021 11.6817 29.1114
Au 19.73 10.6433 26.8624
Pd 18.3145 9.716 24.5665
Au 16.9157 8.80786 22.2114
Au 22.6607 10.764 26.8293
Au 21.2178 9.69765 24.5594
Au 19.7716 8.78296 22.2104
Au 24.1082 9.8756 24.5165
Au 22.6706 8.83149 22.2089
Au 25.5475 9.02835 22.1617
Au 18.301 27.8106 10.4129
Pd 16.8672 28.7318 12.6749
Au 15.4173 29.659 14.9623
Au 13.9772 30.523 17.3293
Pd 21.211 27.785 10.4205
Au 19.78 28.8747 12.646
Au 18.3241 29.8356 14.9277
Au 16.8685 30.7138 17.2833
Pd 22.6553 28.7349 12.7054
Pd 21.2323 29.797 14.9661
Au 19.7829 30.7432 17.2812
Au 24.1001 29.652 14.991
Au 22.6416 30.6856 17.3094
Au 25.5041 30.5162 17.3504
Au 18.3553 11.6643 10.5011
Au 16.9006 10.7167 12.775
Au 15.4678 9.80369 15.0824
Au 14.0713 8.9791 17.4299
Au 21.2732 11.6755 10.507
Au 19.8028 10.6098 12.7496
Au 18.3543 9.64513 15.0698
Pd 16.9308 8.83513 17.4185
Au 22.7102 10.7529 12.7933
Au 21.2495 9.67103 15.0738
Pd 19.7856 8.80579 17.4192
Au 24.1316 9.85704 15.0952
Au 22.6595 8.84611 17.4045
Pd 25.5317 9.04792 17.4472
Au 28.2764 15.9 26.5062
Au 28.2625 23.6905 26.5325
Pd 27.4429 13.6059 25.0974
Au 27.408 26.0173 25.0853
Au 26.5474 11.2849 23.6981
Au 26.4805 28.334 23.6069
Pd 25.9956 14.4829 27.4426
Pd 25.9395 25.093 27.4178
Au 25.1229 12.1387 26.0248
Au 25.0704 27.459 25.9679
Au 23.6531 13.0548 28.3293
Au 23.6316 26.5356 28.2726
Pd 28.2681 15.8677 13.0533
Au 28.2988 23.6349 12.9859
Au 27.4248 13.53 14.4605
Au 27.406 25.9921 14.4225
Au 26.525 11.2453 15.9159
Pd 26.4782 28.2697 15.8685
Au 25.9533 14.4266 12.1422
Au 25.9773 25.0679 12.06
Pd 25.0694 12.1257 13.598
Pd 25.0611 27.4023 13.5284
Pd 23.63 13.0405 11.309
Au 23.6305 26.4792 11.2055
Au 11.2149 15.9051 26.5072
Au 11.2116 23.6323 26.4731
Au 12.08 13.5303 25.1197
Pd 12.0623 25.9739 25.0521
Pd 13.032 11.2325 23.6679
Au 12.968 28.284 23.5934
Au 13.5404 14.4442 27.4641
Au 13.4946 25.1124 27.4011
Au 14.4494 12.1018 26.0222
Au 14.3904 27.4473 25.9583
Pd 15.908 13.0784 28.3053
Au 15.8493 26.5598 28.276
Pd 11.28 15.8564 13.0223
Au 11.2437 23.5614 12.9638
Au 12.1339 13.4952 14.4173
Au 12.0516 25.942 14.3455
Au 13.0527 11.2002 15.8875
Au 12.9658 28.2893 15.7949
Au 13.585 14.3854 12.1044
Au 13.5484 25.0462 12.0322
Pd 14.4865 12.0737 13.5771
Au 14.4285 27.4059 13.4459
Au 15.9434 12.993 11.2789
Pd 15.9141 26.4449 11.1824
Pd 33.4461 19.6785 11.3131
Au 33.6364 19.7005 14.0418
Pd 33.656 19.7152 16.8647
Au 33.7464 19.7213 19.7504
Au 33.7481 19.7428 22.6362
Au 33.6835 19.7764 25.5072
Au 33.4761 19.7902 28.2308
Au 6.09714 19.6831 11.2233
Au 5.89202 19.6856 13.9691
Pd 5.87683 19.6978 16.8579
Au 5.81978 19.7365 19.7447
Au 5.83394 19.7498 22.6245
Au 5.87424 19.7581 25.4621
Au 6.04863 19.7758 28.1683
Au 11.2287 33.4829 19.6929
Au 13.9631 33.6956 19.6936
Au 16.8569 33.7646 19.6867
Au 19.7823 33.7738 19.7053
Pd 22.6875 33.6824 19.7234
Au 25.5048 33.632 19.7232
Au 28.211 33.4598 19.7253
Au 11.353 6.0339 19.7898
Au 14.0564 5.84795 19.789
Au 16.9253 5.78094 19.7806
Au 19.7923 5.77777 19.7829
Pd 22.6808 5.84736 19.7907
Au 25.5449 5.87215 19.7962
Au 28.2765 6.08209 19.7889
Au 19.717 11.3533 33.5091
Au 19.7195 14.0773 33.6894
Au 19.7373 16.928 33.7515
Au 19.7575 19.8175 33.7615
Au 19.7744 22.7135 33.7342
Au 19.7774 25.574 33.6431
Au 19.7794 28.2749 33.4279
Au 19.8162 11.2732 6.12557
Au 19.808 13.9895 5.92751
Pd 19.8007 16.8258 5.91765
Pd 19.7838 19.6628 5.87482
Au 19.7693 22.5235 5.80686
Au 19.7732 25.3887 5.8264
Au 19.7703 28.1276 5.98819
Pd 31.3398 18.3916 29.1992
Au 29.1005 16.9341 30.1823
Au 26.7632 15.4728 31.1149
Au 24.3861 14.0454 31.9797
Pd 22.0093 12.6575 32.7756
Pd 31.3295 21.225 29.1803
Au 29.1546 19.8196 30.2922
Au 26.8547 18.3514 31.2756
Au 24.472 16.8913 32.1676
Pd 22.0695 15.4731 32.9376
Pd 29.0146 22.6964 30.1149
Au 26.8095 21.3154 31.2485
Au 24.4964 19.8683 32.1903
Au 22.1155 18.3804 33.0484
Au 26.7075 24.154 31.0551
Au 24.4562 22.7539 32.0975
Pd 22.1128 21.3046 32.9859
Au 24.4 25.5637 31.9102
Pd 22.1103 24.1616 32.8904
Au 22.063 26.98 32.7413
Au 31.3286 18.2627 10.3159
Pd 29.0171 16.8278 9.43872
Au 26.727 15.3964 8.53747
Au 24.4279 13.9755 7.66802
Au 22.1134 12.5802 6.83405
Au 31.3505 21.1086 10.2891
Pd 29.1279 19.6829 9.30413
Au 26.8327 18.2184 8.33259
Pd 24.4942 16.7755 7.49602
Au 22.1634 15.3844 6.61845
Pd 29.0601 22.5537 9.37669
Pd 26.8196 21.1457 8.34116
Pd 24.4875 19.6774 7.42623
Au 22.1357 18.2576 6.5526
Au 26.7474 23.9942 8.41171
Au 24.4845 22.5709 7.38411
Pd 22.1198 21.1318 6.5633
Au 24.4027 25.4252 7.52901
Au 22.1326 23.9866 6.544
Pd 22.0496 26.8048 6.73849
Pd 8.1742 18.3834 29.1605
Au 10.4272 16.9284 30.158
Au 12.7991 15.4746 31.0714
Pd 15.1148 14.0655 31.915
Au 17.4145 12.6545 32.7931
Au 8.14444 21.1875 29.1741
Au 10.3594 19.7882 30.2594
Au 12.6648 18.3402 31.2376
Pd 15.0411 16.8818 32.0742
Au 17.356 15.4766 32.9658
Pd 10.4293 22.6197 30.0836
Au 12.6458 21.2455 31.2085
Au 14.9686 19.8011 32.1804
Au 17.3566 18.3266 33.0425
Pd 12.7432 24.0775 31.0101
Au 14.9764 22.7022 32.1286
Au 17.3802 21.2532 33.0693
Au 15.088 25.5555 31.9351
Au 17.3944 24.1634 32.9878
Au 17.4754 26.9974 32.7695
Au 8.2401 18.2539 10.2541
Au 10.5253 16.8333 9.35703
Pd 12.8626 15.4 8.50518
Au 15.1947 13.9685 7.6209
Au 17.5205 12.5744 6.81162
Au 8.23076 21.0957 10.2413
Au 10.4394 19.683 9.21626
Au 12.765 18.2283 8.28799
Pd 15.1103 16.7975 7.47097
Au 17.4458 15.3809 6.60591
Pd 10.4988 22.5008 9.35712
Pd 12.7496 21.1325 8.31021
Pd 15.0671 19.6752 7.41886
Pd 17.4529 18.2331 6.57105
Au 12.7837 23.9645 8.40321
Pd 15.0649 22.5576 7.42151
Au 17.4084 21.0976 6.49848
Au 15.1206 25.4021 7.50702
Pd 17.4348 23.9944 6.57316
Au 17.4642 26.8244 6.67104
Au 29.2164 31.3624 18.3098
Au 30.1605 29.082 16.8672
Au 31.0696 26.7658 15.4282
Au 31.9586 24.3909 13.9866
Au 32.795 22.0066 12.5865
Au 29.2074 31.3837 21.1514
Pd 30.2183 29.1543 19.7379
Pd 31.1827 26.8465 18.2763
Au 32.1498 24.4935 16.8441
Au 32.9945 22.0646 15.4134
Au 30.143 29.1151 22.6125
Au 31.2232 26.8742 21.1948
Au 32.1803 24.5251 19.768
Au 33.0665 22.0869 18.3127
Pd 31.0409 26.7823 24.0432
Au 32.1341 24.5397 22.6562
Pd 33.0211 22.1013 21.2115
Au 31.951 24.4658 25.5031
Au 32.996 22.152 24.0951
Au 32.797 22.1064 26.9371
Au 10.2264 31.3666 18.2705
Au 9.29187 29.0555 16.8145
Au 8.40517 26.6741 15.3503
Au 7.57191 24.3245 13.932
Au 6.76541 21.9887 12.5271
Pd 10.281 31.3272 21.1155
Au 9.1723 29.1477 19.7155
Au 8.21509 26.8121 18.234
Au 7.34965 24.4323 16.7717
Pd 6.59898 22.0351 15.3481
Pd 9.35187 29.0251 22.5753
Au 8.21926 26.8142 21.1976
Pd 7.33663 24.443 19.7206
Au 6.47179 22.0606 18.2769
Au 8.4149 26.7029 24.04
Au 7.34645 24.437 22.6556
Pd 6.51067 22.0643 21.1975
Au 7.56125 24.3605 25.4639
Pd 6.58927 22.0692 24.0834
Au 6.74056 22.0494 26.8712
Au 29.2691 8.21045 18.3836
Au 30.1951 10.4537 16.9587
Au 31.1109 12.7683 15.4972
Au 31.9642 15.105 14.0346
Au 32.7631 17.3992 12.6304
Pd 29.2273 8.23431 21.2049
Pd 30.2532 10.4424 19.7917
Pd 31.2114 12.7068 18.3585
Au 32.1512 15.0438 16.8974
Pd 32.8993 17.3993 15.431
Au 30.1984 10.5112 22.6434
Au 31.2378 12.738 21.2319
Au 32.1756 15.0391 19.8258
Pd 32.975 17.3932 18.341
Au 31.1105 12.8413 24.0841
Pd 32.0769 15.0841 22.6884
Au 33.0181 17.3758 21.2352
Au 31.9545 15.1515 25.5043
Pd 32.918 17.4259 24.0973
Au 32.7851 17.4863 26.9245
Au 10.3431 8.10976 18.3655
Pd 9.42124 10.3984 16.9077
Au 8.48052 12.7067 15.4226
Pd 7.63188 15.0693 13.9781
Au 6.78309 17.3781 12.545
Au 10.3326 8.12225 21.1991
Au 9.24621 10.3202 19.766
Pd 8.33232 12.6355 18.287
Au 7.38948 14.9546 16.8305
Au 6.55953 17.336 15.3875
Au 9.36004 10.4269 22.6464
Au 8.27636 12.6613 21.2237
Au 7.33958 14.9897 19.7658
Au 6.48418 17.3645 18.3177
Pd 8.47238 12.796 24.0741
Au 7.37517 15.0185 22.6617
Au 6.47694 17.3911 21.193
Au 7.56694 15.1492 25.5066
Au 6.54895 17.4107 24.0875
Au 6.74624 17.4843 26.8945
Pd 18.363 29.2358 31.311
Au 16.8916 30.2167 29.0545
Au 15.4131 31.1272 26.7225
Au 13.9621 31.9842 24.3717
Au 12.5321 32.8024 22.0134
Pd 21.1734 29.2314 31.3007
Au 19.7635 30.3309 29.1187
Pd 18.2817 31.2407 26.7943
Au 16.8263 32.1679 24.4818
Au 15.3767 33.0139 22.0812
Pd 22.6278 30.1717 29.0181
Au 21.2268 31.2877 26.808
Au 19.7317 32.2115 24.4885
Au 18.2924 33.0902 22.0847
Au 24.0977 31.0933 26.6811
Au 22.6977 32.1559 24.4527
Au 21.229 33.073 22.0876
Pd 25.4913 31.9026 24.3061
Au 24.1234 32.9634 22.0656
Pd 26.8891 32.7221 21.9884
Pd 18.3191 10.3821 31.3622
Pd 16.9017 9.442 29.079
Pd 15.4739 8.53529 26.797
Au 14.0353 7.58 24.4622
Pd 12.6457 6.76393 22.0713
Au 21.1523 10.3262 31.4188
Au 19.7321 9.26011 29.2012
Au 18.279 8.31999 26.9018
Au 16.8679 7.39153 24.5767
Au 15.4486 6.51578 22.1594
Au 22.6215 9.38216 29.1308
Pd 21.2086 8.34982 26.8967
Au 19.7671 7.35228 24.5693
Au 18.3507 6.45144 22.154
Pd 24.062 8.50639 26.7825
Au 22.6882 7.39818 24.5527
Pd 21.2386 6.50985 22.1365
Pd 25.5235 7.62781 24.4272
Au 24.1344 6.54684 22.1601
Au 26.9655 6.76107 22.0999
Au 18.3361 29.1538 8.08671
Au 16.8736 30.0962 10.3618
Au 15.4282 31.0075 12.6559
Pd 13.9832 31.8949 15.0383
Au 12.5384 32.7874 17.3788
Au 21.1922 29.1425 8.10708
Au 19.7743 30.2304 10.29
Au 18.2785 31.2044 12.5648
Au 16.8187 32.134 14.9099
Au 15.3762 32.9964 17.3113
Au 22.6366 30.0763 10.3925
Au 21.2477 31.196 12.6067
Au 19.7857 32.1754 14.9188
Au 18.3102 33.0734 17.3121
Au 24.0925 31.0148 12.688
Au 22.6855 32.1193 14.9478
Au 21.235 33.0672 17.3368
Au 25.5334 31.9228 15.0419
Au 24.1153 32.9757 17.3632
Au 26.9326 32.7793 17.4208
Au 18.3956 10.2891 8.21572
Pd 16.9632 9.38892 10.4934
Au 15.4929 8.42429 12.7835
Au 14.0467 7.53504 15.1491
Pd 12.6638 6.7518 17.5207
Au 21.2404 10.2922 8.22464
Pd 19.8092 9.28656 10.4177
Au 18.3427 8.26166 12.7022
Au 16.8857 7.34088 15.0885
Pd 15.4752 6.57403 17.4572
Pd 22.6707 9.40397 10.51
Au 21.2798 8.27913 12.7097
Au 19.8118 7.30551 15.0909
Au 18.3554 6.48586 17.4432
Au 24.1274 8.47014 12.7975
Au 22.7309 7.36819 15.0829
Pd 21.2414 6.52831 17.4584
Au 25.5672 7.59994 15.1631
Pd 24.1531 6.61508 17.4551
Au 26.9612 6.7704 17.4933
Pd 30.5905 16.0066 27.8896
Au 30.6 23.6494 27.929
Au 29.7957 13.6187 26.4974
Pd 29.7376 25.9771 26.4656
Au 28.9177 11.284 25.0867
Au 28.8429 28.3381 25.0448
Au 27.9649 8.95101 23.621
Au 27.8928 30.6411 23.5502
Au 28.3336 14.5058 28.883
Au 28.2611 25.126 28.8596
Au 27.4732 12.1493 27.4483
Pd 27.382 27.4302 27.4058
Au 26.5194 9.777 26.0056
Pd 26.4567 29.7782 25.8958
Au 25.9863 13.0589 29.7958
Pd 25.9122 26.5041 29.7203
Au 25.0614 10.6707 28.3465
Au 25.0612 28.9054 28.2747
Au 23.5764 11.6329 30.6634
Au 23.5874 27.9688 30.5816
Au 30.5929 15.8934 11.637
Au 30.6271 23.5378 11.5615
Au 29.7741 13.5496 13.044
Au 29.761 25.97 13.0004
Au 28.9044 11.2172 14.5081
Pd 28.8369 28.2744 14.4847
Au 27.9572 8.93274 15.9944
Au 27.9289 30.585 15.8899
Au 28.2693 14.4365 10.7091
Au 28.3064 25.0133 10.598
Pd 27.3917 12.1133 12.1503
Pd 27.4033 27.3899 12.0849
Au 26.5175 9.79534 13.5811
Au 26.5183 29.7087 13.5227
Pd 25.9219 13.04 9.84867
Au 25.9644 26.456 9.70359
Pd 25.0441 10.721 11.3026
Au 25.0627 28.82 11.1883
Au 23.6289 11.6098 9.00043
Au 23.5794 27.8586 8.86738
Au 8.88594 15.9686 27.909
Au 8.87814 23.5774 27.8675
Au 9.72607 13.5721 26.513
Au 9.71532 25.9491 26.4502
Au 10.6518 11.1937 25.0719
Au 10.6089 28.296 25.0132
Au 11.6199 8.89542 23.6258
Au 11.5455 30.6067 23.5382
Au 11.2056 14.4863 28.8986
Au 11.1737 25.0599 28.8375
Au 12.0979 12.0718 27.4797
Au 12.0338 27.4607 27.3891
Au 13.0408 9.75893 26.006
Pd 13.0038 29.7745 25.8831
Au 13.5918 13.0497 29.7964
Au 13.5176 26.5379 29.7537
Pd 14.5236 10.7265 28.3249
Au 14.4345 28.9346 28.2731
Au 15.9207 11.6471 30.6123
Au 15.926 27.9916 30.6027
Au 8.98772 15.8737 11.5749
Pd 8.96107 23.4466 11.5675
Au 9.80519 13.5151 12.9984
Au 9.72594 25.8598 12.926
Pd 10.71 11.193 14.4983
Au 10.5886 28.2657 14.3684
Au 11.6439 8.86795 15.9555
Au 11.5422 30.6095 15.8494
Pd 11.2953 14.4501 10.6848
Pd 11.2529 24.9214 10.6064
Au 12.1463 12.033 12.0898
Au 12.077 27.3803 11.9766
Au 13.0686 9.72747 13.5631
Au 13.0025 29.7424 13.4444
Au 13.6343 12.9705 9.77096
Au 13.5781 26.4237 9.67648
Pd 14.5533 10.6562 11.2709
Pd 14.5062 28.7821 11.1377
Pd 16.0378 11.6113 8.98184
Au 15.9303 27.8421 8.84449
