923
Atoms. Timestep: 20714
Au 10.4177 20.1936 11.4135
Au 19.1671 11.1213 9.96429
Au 14.0438 15.2448 26.1185
Au 16.4396 7.68586 19.1788
Au 15.9378 33.6463 23.3311
Au 5.8317 22.0405 25.712
Au 30.0476 29.0036 21.0504
Au 10.2981 21.8035 13.6853
Au 20.3364 8.76013 13.0028
Au 29.0668 20.5774 21.2544
Au 19.9237 22.4809 7.49928
Au 10.8727 15.858 10.6884
Au 10.9139 17.7813 12.7268
Pd 28.9907 17.2245 17.0263
Au 16.3788 17.4364 22.4361
Au 25.3323 21.8762 29.838
Pd 12.3721 15.4502 28.5469
Au 6.70605 19.8768 27.1326
Au 29.0873 10.7865 18.1245
Pd 20.5106 10.9019 14.911
Au 25.4997 20.6793 24.894
Au 19.8092 13.0789 21.9472
Pd 21.7489 16.2953 25.3044
Au 21.4806 8.23231 19.2772
Au 11.9094 14.6611 18.0047
Au 11.191 29.6747 19.7974
Au 16.9545 12.8926 19.4744
Au 20.3419 16.0433 14.4829
Au 27.5771 31.8288 17.2852
Au 15.069 23.2577 7.82113
Au 17.3479 17.9819 25.3831
Au 8.90963 22.4752 30.0122
Au 24.3239 23.429 32.1563
Au 17.6449 23.1098 18.433
Au 20.8199 18.5348 13.0159
Au 7.52664 17.7259 17.2439
Au 25.2854 13.5198 16.097
Pd 19.291 23.3795 11.725
Au 27.2201 17.4205 15.0551
Pd 9.59503 27.3842 19.7763
Au 9.0661 29.417 18.1088
Au 8.51191 19.8009 21.9366
Au 15.7418 18.9141 16.7733
Au 15.9135 19.9508 23.7156
Au 13.7051 17.5501 21.0623
Au 27.8713 25.4206 29.6204
Au 11.7786 24.1769 13.8283
Au 13.4399 30.3784 25.6055
Au 27.8683 27.763 13.9275
Au 21.9583 13.7799 10.7915
Au 28.1633 25.1748 15.1273
Au 16.8108 5.99219 17.1578
Au 23.4849 10.1237 11.0118
Au 7.6227 22.5565 14.4368
Au 25.1716 14.6425 11.6641
Au 17.9952 15.593 31.8436
Au 31.5886 14.6734 18.6283
Au 7.32276 13.292 24.776
Au 25.3667 10.8919 14.3292
Au 8.76125 22.6703 18.1303
Au 20.1065 11.6757 29.8716
Au 21.2369 23.4306 31.7574
Pd 22.0586 11.1696 22.4269
Au 15.9009 29.3042 24.4802
Au 30.1213 16.3391 20.0396
Pd 19.361 25.8745 12.8834
Au 31.3953 18.525 20.7903
Au 17.6823 18.9543 28.0813
Au 18.7081 24.6744 24.7436
Au 16.2925 31.0996 12.4079
Au 33.8237 21.644 17.0238
Pd 17.8794 21.4762 29.0634
Pd 28.1516 15.4847 26.6194
Pd 20.1924 29.6375 18.5347
Au 8.21136 21.7429 11.9243
Pd 23.0251 19.4945 18.0461
Pd 20.3193 33.3684 20.272
Pd 33.4366 25.0256 15.7865
Au 19.1834 23.0564 27.1492
Pd 15.5677 26.7673 12.2333
Au 24.5639 13.9347 21.7124
Pd 16.3952 15.3792 8.45358
Pd 16.6071 23.6572 26.155
Au 19.2216 13.3735 11.5669
Au 25.2223 26.2893 9.68916
Au 10.9975 10.115 18.8652
Au 7.95241 14.1555 21.7379
Au 10.0892 14.8298 20.1116
Au 15.3475 27.2883 19.4061
Au 16.0207 26.3417 14.9119
Au 5.46214 23.9914 23.8514
Au 22.021 14.4668 23.0904
Pd 27.8625 17.1913 9.00901
Au 8.41345 19.9342 29.2333
Au 24.4309 9.77886 28.4776
Pd 15.1347 27.0766 23.236
Au 8.81134 20.6632 15.9504
Au 13.0171 26.9845 11.124
Au 5.99819 23.5747 18.8196
Au 22.3864 10.7574 19.7104
Au 27.7412 11.8247 15.5894
Pd 13.9983 9.70026 18.2397
Au 14.6693 17.5393 24.701
Pd 19.6588 31.5879 22.3742
Au 18.348 13.21 14.3081
Au 15.4327 17.7583 7.84541
Au 11.7776 17.8073 31.5198
Au 10.4689 19.6809 23.9212
Au 16.6002 24.1333 29.0486
Au 23.1427 7.11643 17.3147
Pd 23.2528 8.7355 21.6021
Au 18.7105 28.65 16.2813
Au 21.6788 9.67811 28.466
Au 14.5218 15.0888 13.3726
Au 14.9646 7.98845 22.5045
Au 25.3975 16.6589 7.61928
Pd 12.4492 21.8044 24.0117
Au 5.45521 17.0668 15.8008
Au 22.6149 7.58691 11.9648
Au 5.63638 25.7701 20.6076
Au 32.28 24.6756 13.3276
Au 15.8077 17.4052 13.3566
Au 9.70244 25.2344 22.9325
Au 32.8879 18.7474 23.2745
Au 18.8964 6.1847 15.5623
Au 21.9326 20.5504 8.23011
Au 26.4915 13.3372 13.6024
Au 19.2937 17.5105 33.9428
Au 19.6954 27.9608 11.0822
Pd 30.9522 16.7668 22.7874
Au 13.3254 26.58 13.9054
Au 22.0079 26.7936 12.544
Au 20.7483 26.1529 30.6453
Pd 11.7167 16.7322 16.2678
Au 20.258 22.0344 24.7675
Au 10.8724 11.2338 27.2077
Au 16.1154 7.16081 14.881
Au 22.8315 17.4884 14.4233
Au 11.3996 30.5326 17.2109
Au 32.109 12.7049 23.574
Au 27.5419 29.3929 9.51658
Au 19.2918 29.9526 9.41245
Pd 24.0686 29.0082 12.0644
Pd 27.1416 12.8029 18.0266
Au 18.2177 22.1157 31.6853
Pd 17.4407 21.6592 13.8394
Au 9.23025 10.7469 15.2986
Au 30.5168 11.7499 25.4147
Pd 23.1809 24.7713 10.9931
Au 17.882 13.621 29.0327
Au 20.3753 28.4031 13.9732
Au 26.2686 32.8242 19.6481
Pd 23.2775 18.0412 8.89255
Au 5.62761 13.5437 22.5931
Au 7.9676 15.3774 26.4044
Au 10.9187 14.1397 26.5753
Au 24.0753 16.3599 26.9785
Au 10.3873 16.7973 26.7397
Au 15.3249 27.0808 9.61069
Au 20.1284 27.0229 25.8041
Au 9.05648 15.665 12.7978
Au 18.0822 27.6071 8.61017
Au 14.9094 14.6098 10.7115
Au 32.6245 13.209 16.4136
Au 12.0093 7.80218 18.0974
Au 20.6937 5.99387 17.6435
Au 25.25 25.7229 25.0739
Au 13.068 12.2366 17.4487
Pd 23.6512 24.98 14.8053
Au 18.3839 29.2228 21.9798
Au 11.3036 30.8402 14.5929
Au 30.1442 13.6447 27.3028
Au 12.9536 9.3139 23.7074
Pd 25.1409 11.0276 17.0409
Au 30.3419 26.445 13.6542
Au 24.7744 29.3219 9.38882
Pd 12.8945 20.2701 30.746
Au 22.9849 13.9888 26.0558
Au 21.7913 25.9231 5.95944
Pd 13.5713 27.5255 28.4211
Au 13.5044 16.224 8.99658
Au 19.64 27.7168 28.5372
Au 28.0458 21.3181 23.7478
Pd 28.3211 18.3664 30.1481
Au 22.9378 33.9999 24.0008
Pd 18.3841 23.8157 9.27519
Au 22.6661 14.8268 15.6809
Pd 19.6629 24.0422 16.9877
Au 24.436 9.88032 23.7901
Au 17.5006 12.7932 24.0251
Au 19.2059 17.1074 23.4944
Pd 30.3293 20.9644 14.1643
Pd 25.352 20.8796 17.6646
Pd 21.8944 17.4227 33.4377
Pd 7.41562 24.3979 16.6065
Au 21.977 29.9516 8.98872
Au 15.6594 32.5832 20.5838
Pd 17.7467 28.3713 26.4841
Pd 15.433 21.9485 27.9181
Au 24.9909 28.7693 25.5302
Au 30.05 10.0416 23.3557
Au 23.2547 25.1664 22.9991
Au 27.4752 25.628 17.6515
Au 20.8979 19.7906 34.5224
Au 22.9581 23.6516 29.5984
Pd 9.29433 17.4378 15.0923
Au 8.6851 25.872 14.7355
Au 5.25572 21.073 19.4767
Au 22.3488 32.2813 22.0679
Au 5.24576 19.2505 17.5284
Au 24.3041 31.8604 13.0786
Au 31.9588 20.9406 21.4998
Au 25.2348 32.9176 22.2857
Pd 16.4431 24.7285 23.1306
Pd 32.1382 22.7296 15.1963
Au 6.56117 19.473 15.1744
Au 17.5909 8.90071 22.444
Au 17.7933 26.4164 30.3735
Au 14.7656 22.5869 22.7169
Au 34.2242 17.2485 18.6916
Au 13.0829 27.8704 20.8087
Au 20.5697 23.5377 5.21863
Au 13.2737 12.9658 27.4042
Au 13.7517 21.4486 17.757
Au 23.2097 10.799 26.1955
Pd 23.7509 15.4198 9.51046
Au 10.1925 21.9249 25.7447
Au 9.83267 22.109 22.8393
Au 20.6589 31.8802 10.5704
Au 20.4545 34.155 22.8623
Au 17.4928 11.1729 30.3577
Au 21.3535 6.63666 24.7323
Au 17.0627 28.9142 10.8021
Au 25.8055 14.3251 25.8989
Au 24.2677 9.11556 18.897
Au 9.94285 24.9128 30.5334
Au 30.272 19.5495 23.556
Pd 23.1869 15.8608 20.5317
Au 20.0917 17.3676 31.4107
Au 14.8245 19.6847 14.3661
Au 19.1588 24.0327 29.8437
Au 14.1269 24.5098 24.7261
Au 20.514 14.8645 27.3112
Au 12.098 25.7593 26.6971
Au 19.0222 9.30701 28.9012
Au 17.2482 26.7695 21.3979
Au 9.82121 8.66054 16.8348
Au 19.8796 32.3071 17.8464
Pd 19.9047 10.279 26.3549
Au 6.53417 18.369 23.0807
Au 30.4481 22.4844 22.98
Pd 23.4164 26.8889 16.9932
Au 18.0603 27.3674 23.918
Pd 25.6152 23.7606 11.4088
Au 18.617 26.12 15.3863
Au 26.3362 30.0977 18.9387
Pd 21.3537 24.6456 25.2568
Au 10.6603 23.782 28.2162
Au 20.8827 6.16089 13.7343
Au 20.2892 7.70959 27.0557
Au 30.8316 25.0978 15.9957
Au 24.7226 12.4879 27.7396
Au 12.8587 9.38667 26.573
Au 13.2761 14.7029 20.3911
Pd 21.5002 16.7083 29.027
Au 28.0047 26.7897 9.35952
Au 31.3645 20.5808 16.8497
Au 10.4131 13.3278 11.7641
Au 10.0123 26.6488 28.1916
Au 29.7523 20.411 11.3467
Au 8.06804 11.6268 22.8572
Au 25.73 31.9016 15.3698
Au 15.9288 21.8572 5.73686
Au 10.6432 26.7484 13.0881
Pd 13.0829 19.0798 16.5536
Au 21.6195 27.9351 32.4217
Pd 24.6261 14.0471 30.9626
Au 18.2854 17.4639 20.2063
Au 11.1902 15.2854 30.8835
Au 14.9542 22.0788 12.8962
Au 20.205 29.6689 26.6506
Au 30.7851 15.5114 16.1061
Pd 24.9199 28.3255 20.5898
Pd 22.5944 23.0881 7.14169
Au 25.8568 21.1291 12.6167
Pd 26.8387 30.7908 25.3727
Au 8.00915 17.5487 28.0384
Pd 23.8902 12.5772 23.9381
Au 21.6318 20.8765 20.122
Au 18.2451 6.83255 13.0458
Au 29.2737 14.0042 12.9526
Au 26.8489 18.7326 17.6548
Au 14.4657 29.262 11.42
Pd 20.1906 20.4106 26.9468
Au 23.6648 22.6945 13.1341
Pd 14.7118 21.6111 10.1955
Au 29.6439 16.6062 13.8813
Pd 20.7712 21.0145 17.3782
Pd 21.5302 28.6036 16.418
Au 33.102 15.1775 23.2503
Au 7.03519 28.0226 19.4384
Au 24.7868 31.1587 27.1775
Pd 26.5856 10.3413 19.3775
Au 18.0375 19.2565 30.9394
Pd 13.0289 19.6556 12.2752
Pd 28.6938 20.0485 16.3101
Au 19.3798 23.4901 14.3979
Au 25.4224 18.99 34.3756
Au 9.54009 15.0808 24.1675
Au 32.8722 20.2228 14.4557
Pd 30.9207 14.3136 21.7204
Au 16.5675 10.5273 10.7054
Au 10.1443 26.9741 25.1089
Au 5.92405 26.1687 17.9518
Au 19.6885 30.453 29.2251
Au 14.9362 11.0969 26.1092
Au 11.3016 24.9369 11.1731
Pd 19.8453 27.468 20.7496
Pd 12.161 23.6875 22.1531
Pd 7.55411 21.909 20.5345
Pd 15.5906 19.6734 29.7467
Au 16.9793 22.3695 21.0444
Au 22.4151 13.7465 8.01705
Au 18.8733 24.291 21.9853
Au 20.613 18.2846 18.9093
Pd 21.1945 29.7613 21.0898
Pd 26.3688 15.8855 17.1506
Pd 27.3877 13.1409 11.0937
Au 23.1737 29.8107 23.0839
Pd 6.39189 14.9587 17.4062
Au 27.2345 19.163 11.0767
Au 12.4785 11.6642 24.9469
Au 31.2392 15.8593 11.913
Au 14.4195 13.7277 8.21301
Au 8.77142 16.8575 22.0797
Au 26.7927 29.3618 27.6236
Au 25.9412 8.35073 21.1576
Au 6.22689 21.4023 22.8897
Pd 25.4761 26.9223 27.5136
Pd 8.11863 22.2487 27.3541
Au 8.5106 26.9253 17.2166
Pd 19.3646 28.4873 31.1107
Au 15.7502 11.6591 17.2773
Au 12.5043 23.8315 16.6371
Au 21.1539 20.7099 5.68588
Au 26.007 6.53139 13.9835
Au 24.9994 8.60399 12.7151
Au 20.5204 18.5818 15.898
Au 28.2151 30.967 14.6608
Au 27.7087 12.9931 28.1742
Au 14.2369 31.5706 23.2544
Au 24.4284 12.6871 9.86846
Au 24.4868 32.0669 17.818
Au 23.4963 27.7816 14.4851
Pd 15.7578 30.322 19.1476
Au 11.3645 22.6318 31.1611
Pd 23.2382 19.6432 33.2253
Pd 15.6425 9.80842 20.5897
Au 12.4216 26.3589 23.538
Au 9.43 15.2697 28.8096
Pd 22.8222 9.65818 13.8816
Pd 23.6519 21.3484 5.3231
Pd 23.9436 14.9541 18.0471
Au 10.3021 12.4806 17.2781
Au 16.034 12.5677 12.4742
Au 8.73737 29.5399 21.1314
Au 22.8266 18.5035 20.5512
Au 12.184 21.148 21.3668
Au 12.2183 28.9442 12.9235
Au 32.8436 26.2923 18.0811
Au 28.3403 8.24988 19.4321
Pd 9.85116 23.5496 15.7389
Au 22.3865 12.5261 17.6769
Au 15.8078 13.6997 15.2524
Au 21.0084 25.2493 28.0448
Pd 18.3586 11.352 16.4988
Au 26.067 7.27958 18.3363
Au 17.9961 33.6639 21.6775
Pd 17.5698 11.4682 21.6439
Au 14.3843 12.0583 19.8482
Pd 18.8029 25.3312 19.5418
Au 10.1078 14.616 15.3222
Pd 20.2305 19.1081 29.2602
Au 18.3787 20.0337 33.654
Au 13.5527 30.6613 20.8508
Au 21.7642 13.0718 31.7179
Au 15.6904 32.7275 14.719
Pd 17.8444 28.391 19.1186
Au 19.5382 21.1248 9.87604
Au 6.36282 17.5839 25.8045
Pd 13.2148 22.8637 29.2925
Pd 13.5752 29.078 18.3105
Au 25.4431 23.1613 6.04643
Pd 28.1262 14.6804 15.4218
Au 18.4268 8.62485 10.9678
Au 28.597 20.0229 8.85591
Pd 7.69885 20.1688 18.4114
Au 27.5052 22.3301 7.60825
Au 22.2683 18.4546 27.1969
Au 9.216 24.1368 12.7376
Au 17.8149 10.2863 18.9998
Au 28.2097 22.6165 11.9341
Au 23.471 26.3688 29.5044
Au 18.7953 13.0147 31.8486
Au 27.909 22.8093 28.9803
Au 19.665 25.3163 7.47615
Au 22.2102 30.8604 28.3115
Au 19.2253 8.21686 24.6089
Au 23.7262 6.63222 19.952
Au 33.0008 23.3639 22.5402
Pd 23.2992 19.9284 12.9437
Au 11.2163 26.1279 15.7092
Au 31.4163 22.4063 12.0608
Au 19.7139 17.5709 26.7839
Au 31.9711 23.5813 17.9562
Au 13.9021 16.9345 18.2543
Au 13.9644 7.81193 13.3212
Pd 7.89347 20.3609 24.7272
Au 16.9009 6.36532 21.4613
Au 23.9387 7.3335 24.1844
Au 22.7259 32.8537 26.5156
Au 26.9513 25.1465 7.3496
Au 26.0161 30.8279 11.2737
Au 18.5868 16.5746 29.1966
Au 29.6817 26.1059 25.6258
Au 11.6626 28.5815 26.9399
Pd 7.98019 23.1227 24.4438
Au 28.1825 10.0248 25.2893
Pd 15.6414 29.1238 21.5771
Pd 24.3511 20.836 20.1321
Au 18.2271 17.3008 7.85494
Au 25.533 24.3919 21.9261
Pd 17.1208 23.8651 15.7306
Au 25.5373 20.9941 32.5567
Pd 25.3153 19.1823 30.3692
Au 22.3287 17.2703 22.8371
Au 27.6006 25.9147 23.391
Au 31.5954 23.7993 25.1506
Pd 18.2769 18.7639 17.5566
Pd 28.6891 14.9145 18.2687
Pd 10.1021 20.7391 19.6778
Pd 16.2367 26.2093 25.5558
Au 19.3195 6.23656 22.6609
Au 26.5894 19.2339 20.4907
Au 22.988 20.6058 28.6089
Au 21.0267 13.4231 13.6334
Au 16.8681 19.4392 6.42468
Au 24.7335 11.0606 21.4168
Au 12.1919 14.3179 24.2061
Au 12.9943 14.3713 15.5482
Au 14.3664 11.8905 10.1229
Au 13.898 15.7108 31.3539
Pd 7.45934 25.9215 24.2911
Pd 15.2383 10.7457 23.17
Au 14.2265 18.9297 9.92524
Au 24.8667 22.3044 27.1669
Pd 20.5108 15.9688 21.2234
Au 13.2973 13.3017 30.3181
Au 27.2146 29.182 16.4339
Au 22.3976 27.7502 27.3722
Au 19.9024 30.8986 15.1922
Au 22.5437 18.6036 30.7912
Au 6.34815 18.7183 20.331
Pd 15.7451 24.2399 10.2309
Au 24.8262 17.4725 19.024
Au 19.004 30.4391 12.3165
Au 8.37373 28.5976 23.8828
Au 18.321 31.1669 20.0767
Pd 16.6947 25.4452 8.00784
Au 8.02508 24.7354 28.6512
Pd 21.3523 23.1163 9.71052
Au 24.6309 12.5469 19.1968
Pd 22.3199 17.0114 17.248
Au 11.0998 18.4566 28.8754
Au 9.80678 12.272 24.8208
Au 29.7916 27.6684 23.3955
Au 24.8892 26.2085 12.6539
Pd 16.4991 9.06381 16.8737
Au 22.8837 14.3204 28.9375
Au 30.0687 14.7009 24.4638
Au 27.0497 20.1538 28.368
Au 8.5458 13.0466 13.6776
Au 23.2321 32.9825 15.2579
Au 21.0359 9.06758 10.2664
Au 28.2833 27.1654 27.6824
Au 13.9163 24.5447 12.0628
Pd 8.17124 13.4393 18.9085
Au 23.6748 33.6255 20.0963
Au 9.03006 18.1783 19.6879
Pd 31.0355 19.1069 26.1629
Au 24.4897 21.2109 7.99192
Au 25.8256 26.7124 15.4611
Au 23.53 25.0321 27.025
Pd 21.5695 29.7023 11.7871
Pd 22.0104 20.5005 22.8711
Au 23.4572 29.471 18.6027
Au 17.7001 26.0249 10.7315
Au 18.5138 32.7023 13.5913
Au 30.7951 16.1738 27.1565
Au 13.6958 17.6935 29.5315
Au 23.3513 31.4295 10.6902
Au 27.4913 28.2983 21.6751
Au 22.9104 16.1417 6.94371
Au 9.71105 23.5717 20.6245
Au 29.9576 12.9969 16.9122
Au 31.3337 18.7261 12.7575
Pd 11.2301 12.3716 14.3577
Au 25.1729 27.3461 23.0148
Au 24.5419 17.3541 32.4505
Pd 16.168 17.0907 10.5762
Au 17.8269 19.0069 14.7402
Au 26.5624 8.09092 23.8457
Pd 19.7782 12.5393 18.9553
Au 28.5174 8.23203 22.1262
Au 31.7589 26.8374 20.689
Pd 22.8279 20.7245 25.5991
Au 17.0611 13.1032 9.79965
Au 10.3057 18.7749 17.3965
Au 21.3291 32.2729 13.1141
Pd 15.2569 9.35995 28.053
Pd 26.4347 14.7713 9.2415
Au 29.3611 17.3525 24.9426
Au 18.4313 33.0628 24.4856
Au 20.7943 5.89292 20.3514
Au 6.47984 24.4703 26.4181
Pd 25.6614 27.5735 18.1108
Au 29.5038 9.751 15.1667
Au 14.8915 14.3273 17.9315
Au 33.4741 18.6302 16.4365
Au 12.2905 19.9249 25.8708
Pd 21.8354 22.997 15.5742
Au 13.6452 24.1443 31.6608
Au 5.4633 14.1802 19.8803
Pd 22.7877 9.84813 16.6727
Pd 13.1481 17.5395 14.1917
Pd 19.5207 10.7202 23.4539
Au 15.8747 15.6676 20.2809
Au 9.06879 28.9868 26.5338
Au 20.4567 25.5429 10.2838
Au 13.9185 27.5968 25.6956
Pd 24.1023 28.0828 31.3788
Pd 20.4985 26.1947 23.1456
Au 23.1897 23.9758 4.73973
Au 31.4506 11.38 21.3829
Au 30.8852 25.2505 23.0353
Au 22.9154 25.677 32.1704
Au 32.2534 12.056 18.8957
Pd 20.7253 8.43048 22.2397
Au 20.6211 21.7849 29.5157
Pd 27.3445 16.0869 12.484
Au 14.4077 7.18902 17.1317
Au 19.8628 13.5986 8.89181
Au 13.0522 32.4876 15.874
Au 9.30129 15.7466 17.5773
Au 26.2034 23.3093 24.3169
Au 20.9945 8.10127 15.7167
Au 16.8635 24.314 12.9224
Pd 6.86014 15.7391 23.8449
Au 17.294 10.224 24.9325
Au 10.9167 13.034 29.1788
Pd 23.5679 23.24 24.966
Pd 23.7437 12.4316 12.552
Au 25.5047 8.82644 26.159
Pd 16.8838 31.3044 22.6511
Au 26.9535 18.7507 23.4703
Au 16.0301 31.8236 25.3557
Au 17.4164 10.9689 27.6168
Au 14.7882 20.2919 21.083
Au 25.3706 18.1184 13.0359
Au 16.9558 6.90625 24.1705
Pd 26.5211 17.4121 28.4248
Au 20.3529 15.0644 33.0238
Au 23.0917 22.343 17.9873
Au 29.4279 17.6616 11.1656
Au 10.3706 25.036 18.1304
Au 26.5085 21.5783 9.92739
Au 14.5115 24.0636 14.7692
Au 21.272 14.9779 18.6578
Au 26.9733 23.0271 16.8429
Pd 11.4166 27.6349 17.8923
Au 5.09442 16.866 18.747
Au 19.8355 22.3315 33.8132
Au 11.6659 12.4939 19.9268
Au 10.5905 9.65718 25.0428
Au 20.2171 6.6515 11.2007
Au 12.2105 7.65075 15.428
Pd 30.8008 18.4466 15.4511
Au 30.1981 29.101 14.107
Au 7.06278 17.4595 13.4298
Au 12.7861 28.7727 15.6225
Au 28.6655 15.6541 29.2078
Au 18.7014 19.8636 23.9253
Au 28.4266 19.1991 13.5163
Au 27.6774 24.2149 9.73457
Au 26.1129 27.7526 7.63399
Au 27.2771 8.93169 14.0733
Au 34.3868 21.0152 22.3047
Au 18.8805 7.99323 17.6292
Pd 14.7256 13.2005 24.42
Pd 7.98968 25.2569 19.4224
Au 21.1259 18.058 7.19477
Au 17.6114 16.0843 15.0296
Au 18.5119 15.6763 10.0464
Pd 28.3139 29.9207 12.2208
Au 11.855 10.2129 16.2428
Au 27.5356 31.1326 21.2451
Au 32.2984 14.2411 25.7759
Pd 16.1686 13.4339 26.7178
Pd 32.8401 16.1553 20.694
Au 33.5114 24.8959 20.3074
Au 30.1592 21.5825 25.6788
Au 18.9067 12.8203 26.418
Pd 27.2704 9.39404 16.8917
Pd 27.6871 25.492 12.2761
Au 14.2089 15.5433 22.8691
Au 21.914 22.7062 27.1712
Au 25.6366 17.0638 10.4437
Au 16.5263 24.3481 31.848
Au 30.5536 12.116 14.4925
Pd 23.1731 23.2856 20.5105
Au 25.1941 15.6909 14.4649
Pd 21.8265 28.6884 29.9031
Au 19.0787 24.8499 32.4617
Au 17.1865 15.0281 12.4173
Pd 31.5957 17.4892 18.0349
Au 32.964 19.8144 18.9033
Au 21.1831 12.3259 24.7846
Au 31.4658 10.5973 16.7832
Au 28.3286 11.3091 12.9994
Pd 17.4607 19.7301 21.4493
Au 15.636 32.8468 17.5646
Pd 27.5904 16.9925 19.5217
Au 28.3126 23.7215 21.8382
Pd 16.221 20.8922 18.675
Pd 25.5199 24.4489 28.896
Pd 25.0505 8.4949 15.7735
Au 5.58697 16.2526 21.562
Au 27.7844 21.1926 18.8144
Au 8.81691 17.9092 11.2151
Pd 24.8646 19.273 27.2345
Au 22.4048 6.25091 22.3289
Au 20.2016 18.8535 21.6304
Pd 29.6313 22.6953 16.6164
Pd 11.4426 17.0076 19.2847
Au 17.5568 21.0027 26.2038
Au 22.8316 20.2703 15.5228
Pd 10.8496 21.176 28.553
Au 18.4037 5.60895 19.2186
Au 13.9314 7.56413 19.9923
Au 27.019 18.6723 32.4242
Au 11.8332 22.908 19.203
Pd 21.5427 24.2376 13.0405
Au 26.9595 10.4954 27.7453
Pd 21.7988 9.32459 24.4987
Au 16.5073 15.3811 24.488
Au 29.5916 20.725 28.1339
Au 21.0298 18.8763 24.727
Pd 28.8528 23.8426 24.637
Au 24.4263 15.6654 23.9819
Au 28.6024 30.0325 23.4629
Au 15.1308 8.52122 25.2754
Au 15.6533 13.3851 21.9056
Au 25.9214 19.9717 15.1035
Au 12.6813 19.4547 19.2285
Au 18.4785 10.8742 12.7475
Pd 20.5906 15.9572 11.7806
Au 18.2486 21.3123 16.4821
Au 16.8386 17.8187 32.9609
Au 30.0991 24.7504 11.2831
Au 23.0176 17.3111 11.5193
Au 17.8949 15.4954 26.7821
Pd 22.2099 33.7068 17.7661
Au 25.944 11.0075 11.6714
Pd 29.32 27.5921 11.5032
Pd 24.5911 19.5904 10.5982
Pd 18.8224 20.1035 12.1668
Pd 20.6083 33.4322 15.4946
Au 25.7012 16.7749 21.7272
Pd 12.3908 22.2481 11.9097
Au 20.2946 13.4932 16.3
Au 18.2973 25.6073 27.3926
Pd 28.7226 17.8295 21.8129
Au 15.1225 23.9074 17.5815
Au 26.457 27.7396 29.8433
Au 21.8366 11.5107 9.31105
Au 29.6747 12.9184 19.8091
Au 15.9966 20.4449 32.52
Au 24.541 19.3665 22.4634
Au 29.85 8.24219 17.2768
Pd 24.5139 29.6027 16.2373
Pd 11.4881 15.951 22.0755
Au 14.9522 25.991 30.3222
Au 23.7811 18.906 6.46646
Au 24.454 25.6551 6.53259
Au 26.3864 17.421 25.7649
Au 12.9998 23.6179 9.55731
Au 30.5866 21.5935 19.2001
Pd 19.5787 18.236 10.017
Au 24.1983 16.7756 29.6775
Pd 9.19963 24.6907 26.1937
Au 22.5102 25.4122 8.45609
Au 14.8018 30.6282 16.3119
Au 25.8533 30.063 23.0157
Au 15.0962 28.8502 14.0548
Au 22.5014 15.6754 31.4988
Au 33.4292 15.8259 16.5511
Au 7.46899 15.3763 15.0302
Au 13.1925 29.0512 23.2653
Pd 17.0461 25.9544 17.6174
Au 20.1925 20.8887 14.547
Au 22.5694 27.5183 21.807
Au 11.155 21.3426 17.0133
Pd 13.0861 12.3545 22.3185
Pd 20.4159 10.2399 17.734
Au 22.7529 27.2464 24.7094
Pd 10.4658 13.2698 22.3146
Au 9.23162 11.4719 20.452
Au 13.3748 31.8518 18.513
Au 7.67323 26.8388 26.8035
Pd 27.0697 10.573 22.8702
Au 22.104 31.1638 16.7794
Pd 16.2095 24.7518 20.022
Au 16.0671 28.3894 16.9049
Au 34.1561 18.6711 20.9871
Au 23.0191 12.1385 15.1161
Au 15.3355 11.9986 29.0301
Au 31.0259 9.52337 19.3979
Au 27.3542 13.8233 30.7214
Pd 14.3144 10.406 12.4801
Pd 8.68549 19.5675 13.4329
Pd 14.3449 22.8056 20.0679
Au 24.4075 30.9825 20.7148
Pd 17.9628 33.1139 16.1425
Au 29.2025 12.534 22.8775
Au 12.3507 25.4559 29.5852
Au 18.3974 8.93556 14.9472
Pd 32.4659 21.211 24.2967
Au 29.1229 30.6255 19.1207
Pd 17.4743 22.3308 23.7955
Au 11.6055 18.2781 9.96044
Au 19.5089 16.2811 17.1049
Pd 15.7519 17.0405 27.566
Au 28.3449 28.0281 18.9719
Au 14.3489 18.3908 32.1177
Pd 14.8616 21.8347 25.279
Au 22.9993 21.301 31.1852
Pd 23.5884 21.9932 10.5098
Au 10.8458 29.664 24.6316
Au 16.0949 13.7316 31.1314
Au 17.7593 23.7444 6.30518
Pd 18.92 7.98011 20.3351
Au 17.773 33.5449 18.9619
Au 19.5224 21.598 21.9188
Au 22.025 24.8312 17.9818
Au 20.6204 28.9506 23.7374
Au 15.2823 19.4932 26.5655
Au 26.5404 27.9723 11.461
Pd 21.7833 19.5552 10.6463
Au 8.68507 12.9294 27.3108
Au 5.95356 12.2608 18.0438
Au 17.2288 30.5117 14.8138
Au 27.4142 15.8359 23.8162
Au 14.4474 24.8304 27.5805
Pd 29.2302 26.2036 21.0697
Au 12.7392 22.7296 26.668
Au 21.2724 21.6484 12.1956
Au 12.9199 9.89936 20.9489
Au 23.8907 18.2766 24.8529
Pd 33.546 22.287 19.8497
Au 16.1239 26.9854 28.1571
Pd 6.62033 11.9093 20.6014
Au 21.4282 12.2937 27.6591
Au 27.749 20.8567 30.917
Pd 15.6173 21.671 15.9126
Au 26.6101 16.3633 31.0015
Au 29.3172 27.4329 16.3546
Au 13.6552 21.7623 32.6873
Au 21.3656 25.2474 20.71
Au 22.7416 27.583 10.1469
Au 20.6885 34.3274 25.477
Pd 11.3231 24.1251 24.7045
Au 17.3533 29.0906 29.261
Pd 24.8132 24.646 17.2928
Pd 11.7578 15.2472 13.2549
Pd 11.2118 30.6544 22.2313
Pd 19.932 10.4862 20.7072
Au 27.6372 6.9675 16.0587
Pd 8.78797 17.6886 24.6974
Au 7.80137 12.9111 16.2317
Au 11.3522 25.7824 20.7827
Au 24.6506 17.9119 16.2816
Au 12.2469 20.9197 9.45141
Au 11.9153 11.0603 11.1396
Au 25.1959 5.77603 16.3214
Pd 22.5833 30.2566 14.2928
Au 10.802 10.6296 22.5631
Au 29.8536 23.6423 13.8188
Pd 21.9639 27.481 19.1775
Au 20.3128 23.0629 19.4753
Pd 15.8396 18.3927 19.511
Pd 16.441 10.939 14.6383
Au 10.2246 22.6675 10.4008
Au 23.0917 11.7014 29.8883
Au 14.1759 25.2805 21.5976
Au 21.1079 31.7828 24.5685
Au 10.0276 28.5649 15.5102
Pd 22.6844 29.9945 25.7886
Au 19.581 14.6384 24.4741
Au 23.3359 27.9211 7.48044
Au 25.7859 23.2547 19.3842
Au 21.2079 11.2353 12.0385
Au 26.0649 23.9972 14.037
Au 20.5305 20.2843 31.9325
Au 14.6985 20.4919 7.73967
Au 33.3135 13.4303 21.0584
Au 24.319 29.0904 28.8184
Au 20.2332 14.5566 30.151
Au 13.3582 20.2542 28.2293
Au 13.1435 13.0009 12.4085
Au 7.36812 24.196 21.9875
Au 9.51987 19.4751 26.742
Au 18.8937 20.6377 19.3583
Au 34.5528 24.0652 17.9978
Au 11.0697 18.6033 21.5144
Pd 29.4631 19.0355 18.9401
Au 13.036 17.6156 26.9368
Au 23.3326 6.90651 14.5144
Pd 24.1295 22.0773 22.7214
Au 8.27564 10.7557 17.9813
Pd 19.9041 26.7826 17.7301
Au 19.2309 19.7941 7.55802
Au 26.1377 20.4956 6.05649
Pd 27.5192 22.1354 26.4409
Pd 28.9223 10.5132 20.8687
Au 31.062 28.4434 18.4539
Au 18.5504 21.3743 5.37551
Au 11.9718 9.70942 13.5996
Au 11.7938 17.2005 24.4151
Au 17.1577 22.0084 11.0118
Pd 14.3404 9.33596 15.3955
Au 28.9324 15.1659 10.4609
Pd 28.2423 14.9528 21.4447
Au 29.6667 22.4544 9.6277
Pd 29.7056 23.7979 27.2361
Au 17.7148 28.1033 13.3874
Au 34.1586 14.4562 18.7504
Pd 22.0366 31.5852 19.4201
Au 27.0796 12.5627 20.8191
Au 20.0553 32.3198 27.0841
Au 22.1294 13.2841 20.5591
Au 29.8772 30.0917 16.608
Au 31.9316 27.5693 15.8068
Au 25.905 11.4796 25.4415
Au 13.8557 11.8455 14.7813
Pd 17.0885 19.394 9.41028
Au 32.2492 16.9111 25.1251
Pd 14.9162 16.3849 15.8319
Au 25.8674 11.7486 29.9923
Pd 18.4636 30.3599 24.6698
Au 21.4743 23.2566 22.718
Au 16.1931 17.009 30.395
Au 26.0846 14.8547 19.6721
Au 10.5631 28.0005 22.3481
Au 18.3693 17.4572 12.4035
Au 25.5321 25.743 31.3046
Au 16.0737 19.6582 11.9273
Au 31.9045 14.3636 13.9995
Au 24.9112 23.7855 8.70729
Pd 29.0168 18.019 27.667
Au 9.29798 17.4549 30.4864
Au 12.9141 21.6343 14.8037
Au 26.5464 13.3068 23.3765
Au 24.0486 25.7858 19.7763
Pd 28.6379 23.6994 19.1616
Pd 11.1721 19.479 14.7474
Au 9.74047 10.8529 12.6562
Au 16.8135 16.4595 17.796
Pd 17.6647 30.824 17.4578
Au 24.5634 22.3947 15.6213
Pd 28.1249 19.62 25.832
Au 26.9331 23.4392 31.4096
Au 26.5078 21.7066 21.5613
Au 32.6399 16.9458 14.2342
Au 18.6753 14.9342 19.4969
Au 17.5255 8.26846 26.8028
Au 21.2567 25.9327 15.3544
Au 15.4305 22.2182 30.6586
Au 22.9372 8.05101 26.6467
Au 26.7271 25.9976 20.2127
Au 6.32224 21.7896 16.7753
Au 13.2667 25.3755 19.0059
Au 30.2183 25.8112 18.5701
Au 17.913 15.0326 22.1308
Au 27.2481 24.8513 26.7542
Au 5.14081 19.7215 24.8296
Au 10.2521 20.0981 31.1056
Pd 28.1851 12.9203 25.4829
Au 17.7457 13.9562 17.0719
Au 22.467 22.0864 33.7859
Pd 20.7215 27.6421 8.33503
Au 5.00272 23.1558 21.2657
Au 27.5566 28.0225 25.1403
Au 25.907 29.6205 13.8664
Au 25.8682 14.8311 28.6609
Pd 16.4672 8.88515 12.8898
Au 12.3519 13.7625 9.88639
Au 24.3774 31.8178 24.5742
Pd 13.4181 16.8754 11.5882
Au 13.984 26.502 16.7292
Au 7.48871 16.0223 19.693
Au 17.7234 30.996 27.294
Pd 17.2262 21.7002 8.1289
Pd 22.9463 15.1214 13.0152
Au 15.358 29.5035 27.2633
Au 12.946 10.7896 28.9094
Au 15.1016 14.8336 28.8763
Au 13.2487 19.3034 23.2067
Au 26.0913 19.0959 8.33741
Au 13.7817 31.15 13.5841
Pd 31.0173 23.9234 20.6159
Pd 7.85109 26.9427 21.7836
Pd 21.143 16.104 9.11169
Au 27.7768 21.899 14.5325
