923
Atoms. Timestep: 20182
Au 19.6336 19.8137 19.7157
Au 21.9428 19.84 18.2944
Au 21.9384 19.8323 21.1392
Au 17.3451 19.7624 18.277
Au 17.3235 19.7908 21.1318
Au 18.2033 22.1049 19.6967
Au 21.053 22.1195 19.6752
Au 18.2183 17.5005 19.7475
Au 21.0814 17.5299 19.7429
Au 19.6432 18.3999 22.034
Au 19.6259 21.2276 22.0081
Au 19.6479 18.3766 17.441
Au 19.6339 21.234 17.4044
Pd 24.2357 19.8355 16.8907
Au 24.3061 19.8538 19.7053
Au 24.238 19.8453 22.5784
Pd 15.0658 19.7047 16.8432
Au 14.973 19.7297 19.6848
Au 15.023 19.7735 22.5729
Pd 16.8008 24.3988 19.7165
Au 19.6242 24.4943 19.6681
Au 22.4702 24.4157 19.6431
Pd 16.8341 15.1932 19.7749
Au 19.6691 15.1454 19.7746
Au 22.5363 15.2353 19.7701
Au 19.6736 16.9988 24.3551
Au 19.6428 19.8099 24.4125
Au 19.6482 22.6221 24.3137
Au 19.6757 16.9361 15.1642
Au 19.6553 19.7716 15.0623
Au 19.6421 22.6409 15.0827
Au 21.998 18.3952 23.5267
Au 21.9803 21.2499 23.5059
Au 21.9987 18.3749 15.9685
Au 21.9841 21.2808 15.9337
Au 17.2955 18.3543 23.5142
Au 17.2868 21.2367 23.4954
Pd 17.3349 18.289 15.9682
Au 17.3089 21.1827 15.9127
Pd 23.3993 22.1705 18.2328
Au 23.4136 22.1665 21.1226
Au 15.8754 22.0802 18.2288
Au 15.8404 22.1315 21.1417
Au 23.453 17.5153 18.2936
Au 23.4523 17.5045 21.1993
Au 15.8863 17.4111 18.2831
Au 15.8485 17.4203 21.1948
Au 18.1756 23.589 22.0327
Au 21.0756 23.5839 22.0079
Au 18.1909 16.0402 22.0964
Au 21.1209 16.0519 22.1025
Au 18.1825 23.5876 17.346
Au 21.084 23.6141 17.3353
Au 18.2301 16.007 17.4303
Au 21.1315 16.0257 17.4241
Au 26.5451 19.8068 15.4961
Au 26.6488 19.8254 18.2887
Au 26.6477 19.8403 21.156
Au 26.5378 19.8378 23.9967
Au 12.7365 19.6511 15.4018
Au 12.6394 19.6582 18.2335
Au 12.6508 19.7025 21.1543
Pd 12.727 19.7909 24.028
Au 15.3858 26.7057 19.7621
Au 18.2172 26.8362 19.6951
Pd 21.0653 26.8156 19.6608
Au 23.8971 26.6992 19.634
Au 15.4802 12.8599 19.7924
Au 18.2865 12.7799 19.8056
Au 21.1495 12.8016 19.7898
Au 23.9978 12.9343 19.7938
Pd 19.7046 15.5968 26.6575
Pd 19.6766 18.3931 26.7342
Pd 19.6714 21.2067 26.7249
Au 19.6958 24.0265 26.6175
Pd 19.7467 15.477 12.9128
Pd 19.7113 18.2939 12.7781
Pd 19.6841 21.1788 12.7307
Au 19.6465 24.0371 12.7309
Pd 24.3169 18.3892 24.9628
Au 22.0278 16.9646 25.862
Pd 24.2963 21.2594 24.9552
Pd 22.0135 19.8133 25.9084
Au 22.024 22.6501 25.8412
Au 24.3222 18.3444 14.5425
Au 22.0445 16.8908 13.6698
Au 24.2831 21.2803 14.4979
Au 22.0055 19.7932 13.539
Au 21.9953 22.6993 13.5601
Au 14.96 18.3219 24.9578
Au 17.3363 16.9437 25.8497
Au 14.9587 21.2444 24.9539
Pd 17.2942 19.7914 25.9042
Au 17.3037 22.6545 25.8261
Au 15.0477 18.2001 14.5191
Pd 17.3703 16.8247 13.6864
Au 15.0028 21.1334 14.4434
Au 17.3378 19.6741 13.5555
Au 17.3095 22.6176 13.5527
Au 24.836 24.4889 18.1877
Au 25.7149 22.1841 16.8209
Pd 24.8495 24.4748 21.1099
Au 25.8032 22.2117 19.6887
Pd 25.7362 22.1716 22.5762
Au 14.4648 24.3955 18.2519
Au 13.5569 22.033 16.7394
Au 14.3999 24.4657 21.1858
Au 13.4532 22.0805 19.6656
Au 13.5109 22.137 22.6218
Au 24.9311 15.1806 18.3095
Pd 25.78 17.4831 16.8727
Au 24.9394 15.1809 21.2571
Au 25.8604 17.4751 19.7455
Au 25.7852 17.4789 22.659
Au 14.4831 15.0643 18.3189
Au 13.573 17.3298 16.8445
Pd 14.4433 15.0967 21.2302
Au 13.4416 17.3274 19.751
Au 13.5175 17.395 22.6598
Au 18.1966 25.0231 24.3683
Au 16.7393 25.9275 22.0784
Au 21.1087 25.0134 24.3459
Au 19.6448 26.013 22.0482
Au 22.5147 25.912 21.9974
Au 18.2313 14.6179 24.434
Au 16.7649 13.7208 22.1509
Au 21.1612 14.6091 24.45
Au 19.6912 13.6332 22.159
Au 22.6058 13.7279 22.1621
Pd 18.1763 24.9954 14.9904
Au 16.7773 25.911 17.3585
Au 21.0816 25.0478 14.9982
Au 19.6444 26.0289 17.2977
Pd 22.497 25.9501 17.307
Au 18.2919 14.5279 15.1214
Au 16.8509 13.6554 17.4376
Au 21.1977 14.5445 15.1185
Au 19.7326 13.5856 17.4264
Au 22.6075 13.6853 17.4204
Au 23.5305 16.0171 23.6104
Au 23.4832 23.6072 23.5135
Au 23.5328 15.9726 15.946
Pd 23.4415 23.6726 15.8496
Pd 15.7912 15.9768 23.5977
Au 15.7798 23.6347 23.5634
Pd 15.8942 15.8921 15.9445
Au 15.8159 23.5689 15.8103
Au 28.8716 19.7686 14.0876
Pd 29.0067 19.7919 16.8881
Au 29.041 19.7993 19.7246
Au 29.0119 19.8086 22.5727
Au 28.8846 19.8152 25.4018
Pd 10.3571 19.6032 13.9687
Au 10.2657 19.5737 16.7733
Au 10.3057 19.6396 19.6995
Au 10.3574 19.7302 22.6037
Au 10.4083 19.8346 25.4776
Au 13.9582 29.0078 19.7878
Au 16.7917 29.1924 19.7472
Au 19.6752 29.193 19.715
Au 22.5115 29.1189 19.7095
Au 25.355 28.9829 19.6656
Au 14.1396 10.4786 19.8068
Au 16.95 10.3769 19.8131
Au 19.78 10.3959 19.8035
Au 22.6236 10.4655 19.802
Au 25.4678 10.6357 19.8001
Au 19.7204 14.1778 28.9489
Pd 19.7163 16.9694 29.0531
Au 19.7106 19.7886 29.0844
Au 19.7349 22.6242 29.0578
Au 19.7445 25.4414 28.9352
Au 19.8156 14.0173 10.6485
Pd 19.7784 16.8218 10.5043
Au 19.7615 19.6772 10.4412
Au 19.7263 22.5688 10.3885
Pd 19.6113 25.4453 10.3469
Au 26.6457 18.346 26.389
Au 24.3878 16.9155 27.3
Pd 22.0662 15.5242 28.1731
Au 26.6172 21.2722 26.4
Au 24.3693 19.8212 27.3764
Au 22.0628 18.376 28.266
Pd 24.3528 22.6857 27.3059
Au 22.0816 21.2423 28.2605
Pd 22.0756 24.0829 28.1601
Au 26.6494 18.2881 13.1162
Pd 24.3889 16.8369 12.2355
Au 22.1202 15.4187 11.4048
Au 26.6138 21.2533 13.0728
Au 24.3573 19.7639 12.0944
Pd 22.0963 18.2728 11.2477
Pd 24.3188 22.7037 12.1171
Pd 22.0639 21.2065 11.1853
Pd 22.0031 24.1148 11.2168
Au 12.6338 18.3096 26.3983
Au 14.9946 16.8948 27.3017
Pd 17.3693 15.5217 28.1602
Pd 12.6618 21.2432 26.4108
Au 14.9468 19.7914 27.3804
Au 17.3352 18.353 28.2701
Au 14.9692 22.6814 27.2946
Au 17.31 21.2116 28.2707
Au 17.3397 24.0878 28.1563
Au 12.703 18.1253 13.0712
Pd 15.0643 16.711 12.2056
Au 17.4416 15.3472 11.4117
Au 12.6839 21.0535 12.9808
Au 15.0026 19.5869 12.0585
Au 17.3828 18.1825 11.2355
Au 14.9637 22.5517 12.0494
Au 17.3391 21.0827 11.1704
Au 17.2867 24.0151 11.1687
Pd 26.3026 26.7852 18.1929
Pd 27.2106 24.5053 16.8007
Au 28.0838 22.1611 15.4273
Au 26.3208 26.7742 21.1243
Au 27.2934 24.5283 19.6665
Au 28.2038 22.1881 18.2613
Au 27.2213 24.4858 22.5709
Au 28.2019 22.2084 21.1387
Au 28.085 22.1802 24.0135
Au 13.0229 26.7063 18.2824
Au 12.1311 24.3606 16.754
Au 11.2152 22.0035 15.2253
Pd 12.9554 26.7904 21.2267
Au 11.9996 24.4318 19.7064
Au 11.0898 22.0138 18.1459
Au 12.0429 24.495 22.6723
Au 11.0983 22.0922 21.1418
Au 11.2057 22.1596 24.0904
Au 26.4156 12.8536 18.3335
Au 27.2931 15.1328 16.8838
Au 28.1198 17.4426 15.4623
Au 26.4209 12.881 21.276
Au 27.3816 15.1237 19.7961
Au 28.2415 17.4435 18.3183
Pd 27.2952 15.1499 22.6862
Au 28.2381 17.4237 21.2044
Au 28.1233 17.4449 24.0535
Au 13.1057 12.6868 18.308
Au 12.1383 14.9432 16.8598
Au 11.2378 17.2493 15.4084
Au 13.0863 12.7352 21.2427
Au 11.9877 14.9535 19.7761
Au 11.0395 17.2376 18.3064
Au 12.0853 15.0499 22.6881
Au 11.0368 17.2856 21.2185
Pd 11.2158 17.4509 24.0969
Au 18.2425 26.4509 26.693
Au 16.7675 27.3854 24.4242
Pd 15.3018 28.2575 22.137
Au 21.1707 26.4348 26.6895
Pd 19.6791 27.4572 24.4199
Au 18.2168 28.3702 22.1203
Au 22.567 27.3561 24.3694
Pd 21.1074 28.3572 22.0802
Au 23.9851 28.2112 22.0406
Au 18.2638 13.1878 26.7509
Au 16.8327 12.2254 24.4813
Au 15.4485 11.3253 22.1771
Au 21.1903 13.1804 26.7685
Au 19.7452 12.1447 24.5162
Au 18.3105 11.2214 22.2019
Pd 22.65 12.2545 24.497
Au 21.2018 11.2551 22.1988
Au 24.0804 11.415 22.1855
Au 18.1205 26.369 12.6241
Au 16.7364 27.3209 14.9868
Au 15.3488 28.2582 17.3836
Au 21.0562 26.4408 12.6277
Au 19.6148 27.4783 14.939
Au 18.2214 28.433 17.3051
Au 22.494 27.4207 14.9641
Pd 21.0801 28.4007 17.3079
Au 23.9335 28.2662 17.2861
Pd 18.3696 13.0261 12.8416
Au 16.9188 12.1214 15.1227
Au 15.5167 11.257 17.4411
Au 21.264 13.0772 12.8441
Au 19.8151 12.0659 15.1099
Au 18.3733 11.1719 17.4367
Pd 22.6849 12.196 15.1197
Pd 21.229 11.2149 17.4268
Au 24.0768 11.3774 17.4306
Pd 25.8828 15.9735 25.0358
Au 25.8296 23.6251 25.0028
Pd 25.0296 13.6722 23.6491
Au 24.9496 25.9567 23.54
Au 23.5878 14.5435 25.9412
Au 23.5345 25.0406 25.904
Au 25.8739 15.925 14.5028
Au 25.794 23.6886 14.4116
Pd 25.0178 13.6182 15.9433
Au 24.8971 26.03 15.8056
Pd 23.5965 14.4783 13.633
Au 23.4784 25.1368 13.4591
Pd 13.3974 15.9062 25.0733
Pd 13.4345 23.6622 25.0449
Au 14.3193 13.6207 23.679
Au 14.306 26.0017 23.616
Au 15.8312 14.5312 25.9364
Pd 15.8063 25.0825 25.9127
Au 13.5762 15.769 14.4704
Pd 13.4524 23.5269 14.2883
Pd 14.4874 13.494 15.9372
Au 14.374 25.8988 15.8149
Au 15.9381 14.3807 13.6379
Au 15.7481 24.9983 13.4018
Au 31.1888 19.7274 12.6709
Pd 31.3134 19.758 15.4585
Au 31.3987 19.7611 18.3036
Au 31.4243 19.7598 21.1564
Au 31.3792 19.805 23.9908
Au 31.219 19.8088 26.8156
Au 8.03876 19.53 12.485
Au 7.87923 19.3649 15.3388
Pd 7.98979 19.697 18.2777
Pd 8.00979 19.7824 21.122
Pd 8.09026 19.8251 23.9926
Pd 8.01978 19.8448 26.9319
Au 12.5473 31.2888 19.7739
Au 15.3757 31.5609 19.7808
Au 18.2699 31.5864 19.8448
Au 21.1636 31.5285 19.8761
Pd 24.0252 31.3946 19.8598
Pd 26.8014 31.2355 19.7402
Pd 12.8065 8.14709 19.8104
Au 15.5937 7.99585 19.8217
Pd 18.4193 8.01429 19.82
Au 21.2421 8.05134 19.8212
Au 24.1072 8.14273 19.8183
Au 26.9232 8.33881 19.8005
Au 19.7294 12.725 31.2611
Au 19.7191 15.5402 31.4006
Au 19.7403 18.3586 31.461
Au 19.7784 21.221 31.4739
Au 19.7852 24.0508 31.418
Pd 19.7908 26.8343 31.2358
Pd 19.8699 12.5608 8.37806
Au 19.8353 15.3463 8.19778
Pd 19.8126 18.1861 8.14715
Au 19.7744 21.0436 8.05231
Au 19.7131 23.9323 8.03281
Au 19.5621 26.9228 7.91649
Au 29.0041 18.3533 27.8343
Au 26.7538 16.8908 28.7755
Au 24.4388 15.4732 29.6634
Au 22.1002 14.0809 30.495
Au 28.9883 21.272 27.8282
Au 26.7472 19.8242 28.8875
Au 24.466 18.3737 29.8084
Au 22.1142 16.9389 30.641
Au 26.6782 22.721 28.7677
Pd 24.4429 21.269 29.769
Au 22.1485 19.82 30.6852
Pd 24.3981 24.0935 29.6324
Pd 22.1361 22.6676 30.6059
Au 22.13 25.4993 30.4919
Au 28.9947 18.2452 11.6985
Pd 26.7142 16.7941 10.8133
Pd 24.4483 15.3631 9.95515
Pd 22.1784 13.949 9.12175
Au 28.9742 21.1953 11.6533
Au 26.7405 19.6877 10.6472
Au 24.4787 18.2147 9.77321
Au 22.1676 16.7866 8.93
Au 26.6711 22.6464 10.6841
Au 24.4239 21.1632 9.69965
Au 22.1454 19.6647 8.8624
Au 24.3378 24.0708 9.73839
Pd 22.1009 22.5804 8.82432
Au 21.9775 25.5074 8.86505
Au 10.3424 18.3643 27.869
Au 12.6755 16.895 28.7878
Pd 15.0534 15.4654 29.6135
Au 17.3568 14.0813 30.4696
Au 10.3649 21.245 27.8647
Pd 12.6516 19.7805 28.8777
Au 14.9959 18.335 29.7916
Pd 17.3626 16.9064 30.6099
Au 12.6977 22.6251 28.8049
Pd 14.9839 21.207 29.8003
Au 17.334 19.765 30.7083
Au 15.035 24.0687 29.6936
Au 17.3525 22.6356 30.6843
Au 17.3995 25.5164 30.5293
Pd 10.4248 18.0101 11.6268
Au 12.7645 16.5791 10.7375
Au 15.1461 15.2021 9.89285
Pd 17.5128 13.8751 9.09849
Pd 10.4731 20.7894 11.4999
Au 12.7137 19.4045 10.5279
Pd 15.0641 18.0393 9.71779
Au 17.4422 16.6985 8.8994
Au 12.7279 22.2541 10.4875
Pd 15.0344 20.8815 9.62671
Au 17.3925 19.5392 8.79716
Au 14.9886 23.756 9.57754
Au 17.3505 22.404 8.75371
Au 17.2674 25.3405 8.77484
Au 27.7867 29.0775 18.254
Au 28.7109 26.8007 16.8521
Au 29.6114 24.4893 15.4277
Au 30.4562 22.1185 14.0099
Au 27.7975 29.0962 21.188
Au 28.805 26.8273 19.716
Au 29.7487 24.5194 18.2885
Au 30.6269 22.1446 16.8593
Au 28.727 26.8067 22.6099
Pd 29.7314 24.5404 21.1576
Au 30.6556 22.1897 19.7224
Au 29.6119 24.5021 24.0325
Au 30.6122 22.2083 22.5827
Au 30.4633 22.19 25.4682
Au 11.5402 28.997 18.2475
Au 10.6231 26.6898 16.7712
Pd 9.81696 24.3527 15.3136
Au 8.93535 22.0513 13.6399
Au 11.4501 29.101 21.1967
Au 10.5166 26.754 19.697
Au 9.60974 24.3809 18.1699
Au 8.74609 21.9469 16.591
Au 10.5239 26.8036 22.6217
Au 9.58858 24.461 21.134
Au 8.72218 22.0912 19.616
Pd 9.6709 24.5004 24.0693
Au 8.76777 22.1541 22.5974
Pd 8.89246 22.1844 25.5174
Pd 27.8752 10.5471 18.3603
Au 28.8054 12.7903 16.9249
Au 29.6653 15.1038 15.4517
Pd 30.4405 17.4159 14.0382
Au 27.8982 10.5713 21.2537
Pd 28.8646 12.8055 19.806
Au 29.8045 15.0863 18.3717
Au 30.6108 17.4158 16.8928
Au 28.8077 12.8627 22.6858
Pd 29.7608 15.0988 21.2329
Pd 30.6363 17.4027 19.78
Pd 29.6345 15.1491 24.0771
Pd 30.5907 17.4219 22.6132
Au 30.4754 17.4432 25.4562
Au 11.7638 10.2744 18.3012
Au 10.7957 12.5203 16.7851
Au 9.8585 14.8063 15.3356
Au 9.02449 17.1447 13.8909
Au 11.7209 10.328 21.2685
Au 10.6021 12.5482 19.7358
Au 9.55358 14.8246 18.2841
Au 8.64233 17.1447 16.8761
Au 10.7542 12.6478 22.6744
Pd 9.55838 14.8998 21.1745
Pd 8.61487 17.288 19.7454
Au 9.70649 15.1778 23.9802
Au 8.65627 17.4068 22.61
Pd 8.91533 17.5375 25.5045
Au 18.3111 27.8759 29.0537
Au 16.8377 28.8446 26.7809
Au 15.3805 29.7562 24.4839
Au 13.8789 30.6051 22.1777
Au 21.2265 27.8518 29.0495
Au 19.7618 28.9103 26.7973
Pd 18.2766 29.8335 24.5152
Au 16.8002 30.7425 22.2062
Au 22.6849 28.7836 26.7537
Au 21.1858 29.8282 24.5093
Au 19.7167 30.7567 22.2284
Pd 24.0879 29.6267 24.4327
Au 22.6383 30.6823 22.2025
Pd 25.4842 30.4646 22.0951
Au 18.2697 11.7234 29.051
Pd 16.8851 10.7887 26.7895
Au 15.4958 9.8086 24.5188
Au 14.117 8.91849 22.1813
Au 21.2044 11.6998 29.094
Au 19.7394 10.6642 26.8544
Pd 18.3395 9.71899 24.5719
Au 16.9635 8.78196 22.2278
Au 22.6673 10.7956 26.8217
Au 21.2304 9.7326 24.5628
Au 19.8012 8.79994 22.2298
Au 24.1158 9.91725 24.5173
Au 22.6879 8.87212 22.2244
Au 25.56 9.07541 22.173
Au 18.0091 27.7456 10.2763
Pd 16.6166 28.6756 12.6345
Au 15.2238 29.6391 14.9683
Au 13.8532 30.5914 17.3539
Pd 20.9883 27.837 10.305
Au 19.5028 28.8693 12.5568
Au 18.1072 29.888 14.8993
Au 16.7398 30.8553 17.2966
Pd 22.4026 28.8427 12.6173
Pd 21.0094 29.895 14.9602
Au 19.6567 30.8689 17.3401
Au 23.9056 29.769 14.9244
Au 22.5216 30.772 17.3962
Au 25.3983 30.589 17.3248
Au 18.4315 11.5612 10.5374
Au 16.9901 10.6082 12.8163
Au 15.5656 9.68825 15.1177
Au 14.1711 8.85874 17.4567
Au 21.3301 11.6135 10.5351
Au 19.8708 10.5541 12.7861
Au 18.4301 9.59174 15.1094
Pd 17.0109 8.77384 17.4537
Au 22.7572 10.7258 12.8197
Au 21.3019 9.65624 15.1067
Pd 19.842 8.78877 17.4543
Au 24.1675 9.86177 15.1197
Au 22.6979 8.86121 17.4349
Pd 25.5562 9.07812 17.4682
Au 28.2363 15.9307 26.4669
Au 28.2074 23.6757 26.4907
Pd 27.4143 13.6439 25.072
Au 27.3605 25.989 25.0521
Au 26.5361 11.3316 23.6878
Au 26.4561 28.2964 23.6039
Pd 25.9667 14.5093 27.4047
Pd 25.9033 25.0587 27.3932
Au 25.1074 12.1775 26.0031
Au 25.05 27.4057 25.9662
Au 23.6383 13.0802 28.2985
Au 23.6169 26.4855 28.2716
Pd 28.2334 15.8905 13.0643
Au 28.1987 23.6818 12.9852
Au 27.4064 13.5635 14.4789
Au 27.3115 26.0502 14.4275
Au 26.5271 11.2815 15.9374
Pd 26.3828 28.3579 15.8377
Au 25.9454 14.4293 12.165
Au 25.8624 25.1475 12.0124
Pd 25.081 12.1343 13.6228
Pd 24.9357 27.555 13.4337
Pd 23.6523 13.0143 11.3358
Au 23.4934 26.6207 11.0834
Au 10.9945 15.8247 26.5182
Au 11.0954 23.6864 26.5177
Au 11.8035 13.4845 25.1866
Pd 11.9013 26.0492 25.0851
Pd 13.0559 11.1656 23.6674
Au 12.8082 28.3668 23.6454
Au 13.4862 14.4334 27.4191
Au 13.4462 25.1063 27.4292
Au 14.4206 12.0828 25.9944
Au 14.3403 27.4642 25.9824
Pd 15.8881 13.0757 28.2668
Au 15.8356 26.5341 28.2903
Pd 11.2693 15.6458 12.9874
Au 11.1194 23.492 12.7076
Au 12.1766 13.3257 14.4042
Au 11.9771 25.8776 14.295
Au 13.1364 11.0537 15.8951
Au 12.8901 28.2342 15.817
Au 13.6204 14.2096 12.1136
Au 13.3251 24.9609 11.803
Pd 14.5534 11.9331 13.5995
Au 14.2632 27.3243 13.3912
Au 16.0028 12.8543 11.3098
Pd 15.6218 26.3711 10.9678
Pd 33.3925 19.7059 11.3093
Au 33.5848 19.7214 14.0354
Pd 33.6015 19.7333 16.8531
Au 33.6926 19.7454 19.7257
Au 33.6943 19.7714 22.5987
Au 33.6343 19.8029 25.4612
Au 33.4358 19.813 28.1847
Au 6.52106 21.2809 14.217
Au 6.91335 17.0122 12.4095
Pd 5.95876 18.5627 17.065
Au 5.99751 18.5613 19.8149
Au 6.14974 21.3214 19.6042
Au 6.06723 18.785 25.3302
Au 8.19807 18.4288 29.3587
Au 11.1697 33.3512 19.6107
Au 13.989 33.8379 19.9649
Au 16.9341 33.9091 20.1023
Au 19.844 33.8643 20.1359
Pd 22.7297 33.7224 20.1116
Au 25.5515 33.6528 19.9976
Au 28.2228 33.4369 19.7844
Au 11.4909 5.8818 19.8212
Au 14.1912 5.73084 19.8221
Au 17.0395 5.70905 19.8239
Au 19.883 5.7507 19.83
Pd 22.7419 5.8582 19.8366
Au 25.5909 5.90764 19.8331
Au 28.319 6.13377 19.82
Au 19.7294 11.3571 33.4864
Au 19.7359 14.0746 33.6678
Au 19.7668 16.9108 33.7368
Au 19.8045 19.7839 33.7609
Au 19.8263 22.6639 33.7474
Au 19.8279 25.5151 33.6705
Au 19.8267 28.2138 33.4662
Au 19.9064 11.1501 6.16034
Au 19.8784 13.8651 5.95164
Pd 19.8697 16.6938 5.92346
Pd 19.8284 19.5171 5.8509
Au 19.756 22.3606 5.73542
Au 17.2341 26.3877 6.39026
Au 21.9857 26.491 6.44126
Pd 31.3041 18.4081 29.1542
Au 29.0755 16.9461 30.1399
Au 26.7514 15.4833 31.0762
Au 24.3858 14.0544 31.9456
Pd 22.0174 12.6653 32.7467
Pd 31.2889 21.2323 29.1424
Au 29.1217 19.8182 30.2547
Au 26.8337 18.3503 31.2382
Au 24.4684 16.8912 32.1325
Pd 22.079 15.4725 32.9063
Pd 28.9891 22.6766 30.0915
Au 26.7936 21.286 31.2206
Au 24.4948 19.8392 32.1613
Au 22.1369 18.36 33.0237
Au 26.7043 24.1139 31.0456
Au 24.4616 22.7098 32.0823
Pd 22.1404 21.264 32.97
Au 24.4159 25.5119 31.9182
Pd 22.1393 24.1074 32.8933
Au 22.0991 26.9191 32.7667
Au 31.2925 18.2692 10.3204
Pd 29.0062 16.8111 9.45437
Au 26.744 15.3549 8.56046
Au 24.4715 13.9129 7.69685
Au 22.1819 12.4897 6.86696
Au 31.2819 21.1122 10.2856
Pd 29.0829 19.6574 9.30972
Au 26.819 18.1693 8.34889
Pd 24.5099 16.7117 7.52085
Au 22.2127 15.2917 6.64467
Pd 28.9817 22.489 9.33461
Pd 26.7727 21.0393 8.32045
Pd 24.4745 19.5763 7.42975
Au 22.1695 18.1511 6.56321
Au 26.663 23.8034 8.28163
Au 24.4244 22.3878 7.30405
Pd 22.1077 20.9903 6.5313
Au 24.3065 25.1171 7.27431
Au 22.0258 23.7826 6.4173
Pd 19.6592 25.1928 5.77775
Pd 8.28179 21.146 29.4034
Au 10.5115 17.0058 30.3771
Au 12.8375 15.4887 31.1131
Pd 15.1302 14.0611 31.8954
Au 17.4256 12.6534 32.7636
Au 7.01004 22.3608 27.4051
Au 10.4247 19.7656 30.3829
Au 12.748 18.3307 31.3004
Pd 15.0842 16.8653 32.0668
Au 17.3781 15.4626 32.9418
Pd 10.5506 22.5144 30.328
Au 12.7399 21.1572 31.3046
Au 15.0445 19.7455 32.2096
Au 17.3987 18.2975 33.0335
Pd 12.8552 23.9465 31.1869
Au 15.0698 22.6058 32.194
Au 17.4382 21.1992 33.0803
Au 15.17 25.4449 32.0409
Au 17.4582 24.0924 33.0218
Au 17.5283 26.9264 32.8148
Au 8.33628 20.5151 9.98204
Au 10.5212 16.4322 9.31523
Pd 12.8975 15.0728 8.50506
Au 15.2502 13.7298 7.63783
Au 17.5951 12.4101 6.84063
Au 8.93281 22.9362 11.0187
Au 10.4725 19.149 9.03601
Au 12.807 17.8201 8.20772
Pd 15.1567 16.5106 7.44653
Au 17.5076 15.1987 6.61392
Pd 10.5354 21.8639 8.99514
Pd 12.8128 20.5906 8.10569
Pd 15.1403 19.2997 7.32065
Pd 17.5142 18.0206 6.54598
Au 12.7597 23.3013 7.99812
Pd 15.1099 22.0742 7.22577
Au 17.4595 20.8308 6.40723
Au 15.0132 24.7958 7.10429
Pd 17.4172 23.6583 6.41151
Au 17.2734 28.6289 7.88383
Au 29.2212 31.3477 18.3635
Au 30.1727 29.056 16.9357
Au 31.0791 26.7362 15.4999
Au 31.9412 24.3775 14.0317
Au 32.7402 22.0215 12.5932
Au 29.2192 31.352 21.1797
Pd 30.1921 29.129 19.7575
Pd 31.1531 26.8237 18.3137
Au 32.1131 24.4792 16.8718
Au 32.9396 22.0722 15.4142
Au 30.135 29.0867 22.6087
Au 31.1788 26.8579 21.1811
Au 32.1272 24.5199 19.7561
Au 33.0067 22.1002 18.2963
Pd 31.0051 26.7665 24.0161
Au 32.0772 24.5373 22.6187
Pd 32.9556 22.1199 21.1757
Au 31.9042 24.4663 25.4612
Au 32.9358 22.1691 24.0479
Au 32.7463 22.1232 26.8903
Au 9.69306 30.5251 19.4292
Au 10.326 29.2605 15.7403
Au 9.46428 27.0022 14.3264
Au 8.69019 24.7904 12.9512
Au 6.18465 21.2962 16.8641
Pd 10.4859 31.5489 21.701
Au 8.72207 28.3122 20.9222
Au 8.80456 28.2339 18.0951
Au 7.96873 25.9438 16.6661
Pd 7.22106 23.6777 15.2643
Pd 9.70944 29.2707 23.2654
Au 7.8303 26.0453 22.3572
Pd 7.85809 25.973 19.5218
Au 6.97593 23.6543 18.0904
Au 8.80282 26.9869 24.7237
Au 6.99372 23.7716 23.7329
Pd 6.97708 23.6842 20.9474
Au 7.88523 24.6586 26.1149
Pd 6.21959 21.3704 22.3506
Au 6.30021 21.4802 25.0428
Au 29.294 8.26621 18.4068
Au 30.2011 10.5084 16.9747
Au 31.0993 12.8143 15.5082
Au 31.9374 15.1409 14.043
Au 32.7232 17.4302 12.6335
Pd 29.2529 8.29336 21.2236
Pd 30.257 10.5049 19.8025
Pd 31.1952 12.7658 18.3645
Au 32.1178 15.0867 16.8997
Pd 32.8516 17.4291 15.4319
Au 30.2072 10.5635 22.6474
Au 31.2218 12.7907 21.2271
Au 32.1388 15.0831 19.8128
Pd 32.9235 17.4225 18.3291
Au 31.0997 12.8845 24.0719
Pd 32.0417 15.1269 22.6645
Au 32.9693 17.4107 21.2092
Au 31.9307 15.1873 25.4768
Pd 32.8731 17.4584 24.0603
Au 32.7505 17.5122 26.8836
Au 10.4864 7.90874 18.3432
Pd 9.58201 10.1168 16.7888
Au 8.61767 12.358 15.2371
Pd 7.73883 14.6896 13.753
Au 8.24448 17.8465 10.2001
Au 10.4653 7.96398 21.2399
Au 9.37492 10.0571 19.715
Pd 8.43341 12.243 18.1144
Au 7.42967 14.4502 16.5891
Au 6.61199 16.7446 15.1726
Au 9.55948 10.202 22.8623
Au 8.42135 12.1483 21.3048
Au 6.49922 16.2833 18.3615
Au 6.56819 16.2814 21.2535
Pd 8.89574 12.6438 24.4988
Au 7.473 14.2226 22.7755
Au 7.36978 14.1444 19.7644
Au 6.98253 17.2004 27.2288
Au 6.05279 18.5973 22.6198
Au 6.76962 16.3931 24.2743
Pd 18.4182 29.1865 31.3564
Au 16.981 30.2146 29.1336
Au 15.54 31.1882 26.8431
Au 14.1116 32.1229 24.5255
Au 12.6493 32.9852 22.1406
Pd 21.2244 29.1655 31.3406
Au 19.8251 30.2792 29.1808
Pd 18.3586 31.2158 26.894
Au 16.9087 32.1877 24.6249
Au 15.4271 33.0763 22.2742
Pd 22.6912 30.0927 29.0749
Au 21.2877 31.2257 26.9108
Au 19.7925 32.1803 24.6629
Au 18.3353 33.1033 22.3725
Au 24.1776 31.0023 26.7721
Au 22.7666 32.0918 24.6185
Au 21.2709 33.0505 22.3901
Pd 25.5772 31.8122 24.4218
Au 24.1881 32.9194 22.3012
Pd 26.9624 32.6561 22.1014
Pd 18.3399 10.3808 31.3408
Pd 16.952 9.42088 29.0686
Pd 15.5812 8.46028 26.802
Au 14.1733 7.46764 24.4762
Pd 12.786 6.62912 22.09
Au 21.1721 10.3377 31.4038
Au 19.7674 9.26746 29.1948
Au 18.3521 8.30771 26.9063
Au 16.973 7.34395 24.587
Au 15.5701 6.43576 22.1858
Au 22.6495 9.40659 29.1266
Pd 21.2469 8.37216 26.8998
Au 19.8329 7.35487 24.588
Au 18.4382 6.42704 22.1913
Pd 24.0923 8.54429 26.7867
Au 22.7244 7.42995 24.5701
Pd 21.2962 6.52648 22.1761
Pd 25.5527 7.67449 24.443
Au 24.173 6.58513 22.1921
Au 26.9996 6.81204 22.1251
Au 19.4617 29.6513 8.88205
Au 17.843 30.4545 10.9326
Au 16.3928 31.3511 13.1605
Pd 14.8864 32.2413 15.4202
Au 13.1069 33.1635 17.5474
Au 21.7116 28.7044 7.8797
Au 20.7894 30.6132 10.9581
Au 19.2168 31.5845 13.075
Au 17.6215 32.5498 15.3176
Au 15.7953 33.3767 17.6964
Au 23.1446 29.5666 10.1174
Au 22.0456 31.5417 13.1224
Au 20.3946 32.5409 15.3281
Au 18.5682 33.352 17.7408
Au 24.5089 30.5794 12.4282
Au 23.1612 32.407 15.3699
Au 21.386 33.2647 17.7516
Au 25.7872 31.6965 14.8785
Au 24.2049 33.098 17.7387
Au 26.9614 32.74 17.4641
Au 18.5033 10.1563 8.26036
Pd 17.0926 9.24766 10.5448
Au 15.645 8.26779 12.8292
Au 14.209 7.36908 15.1856
Pd 12.8173 6.59064 17.5523
Au 21.332 10.2012 8.2643
Pd 19.918 9.1933 10.4679
Au 18.4748 8.1617 12.757
Au 17.0286 7.23844 15.1381
Pd 15.6162 6.46839 17.4987
Pd 22.7567 9.34948 10.5482
Au 21.374 8.22534 12.7551
Au 19.9171 7.25504 15.1375
Au 18.4682 6.42986 17.4904
Au 24.2021 8.44758 12.833
Au 22.8038 7.35286 15.1241
Pd 21.3243 6.51582 17.5038
Au 25.6232 7.60708 15.1948
Pd 24.2075 6.63067 17.4941
Au 27.0071 6.80448 17.5239
Pd 30.5598 16.0298 27.85
Au 30.5574 23.6434 27.8929
Au 29.7751 13.6548 26.4727
Pd 29.7035 25.9498 26.4397
Au 28.9132 11.3264 25.0771
Au 28.8429 28.2873 25.0479
Au 27.9819 9.00414 23.631
Au 27.9369 30.566 23.5995
Au 28.3151 14.528 28.8451
Au 28.2438 25.0874 28.8389
Au 27.4663 12.1822 27.4261
Pd 27.385 27.3692 27.4006
Au 26.5358 9.82438 26.0031
Pd 26.5058 29.6806 25.9413
Au 25.9824 13.0783 29.7625
Pd 25.9157 26.4499 29.7145
Au 25.0773 10.7064 28.333
Au 25.1003 28.8227 28.3069
Au 23.5884 11.6512 30.6386
Au 23.6199 27.9009 30.605
Au 30.5686 15.9089 11.6511
Au 30.5749 23.5241 11.5692
Au 29.7627 13.5746 13.0606
Au 29.8011 25.922 13.0513
Au 28.9105 11.2521 14.5265
Pd 28.9077 28.222 14.5388
Au 27.9837 8.97229 16.0182
Au 28.012 30.5493 15.9352
Au 28.2728 14.4302 10.7352
Au 28.3257 24.9113 10.5634
Pd 27.4109 12.1218 12.1809
Pd 27.5821 27.2412 12.0596
Au 26.5587 9.80788 13.6127
Au 26.7724 29.5467 13.4458
Pd 25.9538 13.0116 9.88492
Au 26.1216 26.2045 9.54247
Pd 25.0961 10.7035 11.3384
Au 25.4753 28.5048 10.9489
Au 23.6916 11.5552 9.0372
Au 23.9462 27.4799 8.54648
Au 9.04052 15.9652 28.3888
Au 9.09492 23.6789 28.3491
Au 8.17744 14.8905 26.0884
Au 9.98259 26.1369 27.0124
Au 10.8752 10.9236 25.1989
Au 10.8738 28.5248 25.5735
Au 11.7739 8.72405 23.6696
Au 11.7695 30.8582 23.9567
Au 11.3218 14.4841 29.0203
Au 11.3496 25.0431 29.1595
Au 12.2098 12.001 27.524
Au 12.2515 27.5431 27.7341
Au 13.1728 9.63891 26.0535
Pd 13.1864 29.8907 26.1215
Au 13.622 13.0299 29.7913
Au 13.641 26.4821 29.9425
Pd 14.577 10.6822 28.3153
Au 14.5695 28.9707 28.4163
Au 15.9422 11.6371 30.5897
Au 15.9959 27.9449 30.6781
Au 9.03636 15.524 11.4747
Pd 11.065 24.3108 10.0819
Au 9.92067 13.201 12.9052
Au 10.838 26.299 11.9017
Pd 10.8671 10.9326 14.4222
Au 11.7033 28.5419 13.3345
Au 11.8034 8.65723 15.9393
Au 11.1037 31.479 17.2621
Pd 11.3606 14.1344 10.669
Pd 13.1769 25.6958 9.19804
Au 12.2617 11.7878 12.0738
Au 13.151 27.7314 10.9843
Au 13.2114 9.52477 13.573
Au 12.5932 30.761 14.876
Au 13.7153 12.7216 9.79042
Au 15.2043 27.1532 8.37606
Pd 14.6709 10.47 11.3024
Pd 14.0618 29.8858 12.5449
Pd 16.1307 11.4347 9.02052
Au 15.4981 29.0864 10.2333
