923
Atoms. Timestep: 20287
Au 19.3437 19.783 19.8933
Au 21.7029 19.7716 18.4811
Au 21.6563 19.7873 21.3217
Au 17.0763 19.7751 18.3994
Au 17.0309 19.8274 21.3146
Au 17.9272 22.1038 19.8513
Au 20.8121 22.066 19.8844
Au 17.8698 17.4806 19.8814
Au 20.7531 17.4651 19.899
Au 19.339 18.3806 22.2111
Au 19.3142 21.2165 22.2269
Au 19.3766 18.3318 17.593
Au 19.4308 21.1887 17.5766
Pd 24.0539 19.7625 17.0787
Au 24.0789 19.7804 19.8893
Au 23.9817 19.7898 22.7388
Pd 14.8351 19.7681 16.8701
Au 14.7419 19.804 19.818
Au 14.7074 19.8589 22.7525
Pd 16.5397 24.4353 19.7787
Au 19.4114 24.4525 19.8467
Au 22.2941 24.3344 19.841
Pd 16.4132 15.1857 19.8818
Au 19.2676 15.0713 19.8943
Au 22.2099 15.1755 19.8928
Au 19.3836 16.9817 24.5304
Au 19.3587 19.8051 24.6483
Au 19.3251 22.6152 24.5728
Au 19.4714 16.9297 15.2759
Au 19.5067 19.7454 15.2058
Au 19.5439 22.5928 15.2535
Au 21.707 18.3623 23.7016
Au 21.6935 21.2223 23.7013
Au 21.7971 18.3177 16.1285
Au 21.842 21.2059 16.1173
Au 17.0076 18.4263 23.686
Au 16.9341 21.3228 23.7161
Pd 17.1134 18.3009 16.0569
Au 17.1352 21.1941 16.0368
Pd 23.2212 22.0866 18.4415
Au 23.1906 22.1019 21.3159
Au 15.6057 22.1425 18.3051
Au 15.556 22.1997 21.2832
Au 23.1917 17.442 18.4579
Au 23.15 17.4454 21.3445
Au 15.5705 17.4424 18.3179
Au 15.54 17.4504 21.3777
Au 17.9052 23.617 22.1948
Au 20.8185 23.5433 22.2263
Au 17.8689 16.0179 22.2421
Au 20.7776 15.9934 22.2421
Au 18.0035 23.5665 17.4858
Au 20.9362 23.5324 17.5321
Au 17.8897 15.9637 17.5445
Au 20.8278 15.9707 17.5611
Au 26.4197 19.7494 15.6728
Au 26.4742 19.7575 18.465
Au 26.4523 19.7687 21.3115
Au 26.3223 19.7746 24.1197
Au 12.5419 19.7785 15.3005
Au 12.5114 19.7765 18.2983
Au 12.4051 19.8133 21.2735
Pd 12.32 19.8859 24.1717
Au 15.1329 26.7994 19.7169
Au 18.0345 26.8114 19.7796
Pd 20.9296 26.7414 19.8036
Au 23.7868 26.5991 19.7943
Au 14.9541 12.9128 19.8658
Au 17.7966 12.672 19.8857
Au 20.7753 12.7578 19.8536
Au 23.7161 12.9058 19.8666
Pd 19.4309 15.5828 26.8162
Pd 19.4278 18.3895 26.9942
Pd 19.4135 21.207 27.0132
Au 19.4259 24.0337 26.8926
Pd 19.6397 15.537 12.9666
Pd 19.6402 18.3224 12.8686
Pd 19.6523 21.1659 12.8615
Au 19.6731 23.9987 12.9074
Pd 24.0625 18.3439 25.1035
Au 21.7592 16.9403 26.0316
Pd 24.0565 21.2199 25.1003
Pd 21.7569 19.7953 26.1046
Au 21.766 22.6462 26.034
Au 24.1845 18.3075 14.7009
Au 21.9196 16.8928 13.7726
Au 24.1989 21.2078 14.6814
Au 21.924 19.7557 13.695
Au 21.9569 22.6168 13.7394
Au 14.6587 18.4737 25.1079
Au 17.0746 17.0341 25.9949
Au 14.5229 21.4062 25.1496
Pd 17.0152 19.9005 26.1063
Au 16.9173 22.7827 26.0587
Au 14.8949 18.2834 14.5024
Pd 17.2407 16.8907 13.7161
Au 14.8855 21.2022 14.479
Au 17.2486 19.7156 13.6361
Au 17.2672 22.6272 13.681
Au 24.728 24.388 18.3882
Au 25.5935 22.0994 17.0196
Pd 24.6958 24.3856 21.2741
Au 25.633 22.1208 19.8732
Pd 25.5456 22.0986 22.7252
Au 14.193 24.5237 18.2021
Au 13.3286 22.1631 16.6907
Au 14.1825 24.5706 21.2147
Au 13.201 22.2078 19.7032
Au 13.2168 22.2265 22.7441
Au 24.6923 15.1297 18.4354
Pd 25.5835 17.4282 17.0358
Au 24.6614 15.1351 21.3556
Au 25.6211 17.418 19.8879
Au 25.5263 17.4237 22.7712
Au 14.115 15.1231 18.259
Au 13.2812 17.4132 16.7251
Pd 14.0731 15.1194 21.4482
Au 13.2593 17.377 19.8573
Au 13.1629 17.4739 22.8375
Au 17.9853 25.0809 24.5373
Au 16.5397 26.0036 22.1285
Au 20.8799 24.9873 24.5656
Au 19.4557 26.0073 22.1991
Au 22.3344 25.8406 22.1695
Au 17.9266 14.5625 24.5919
Au 16.4384 13.6962 22.2812
Au 20.8476 14.5566 24.5759
Au 19.3192 13.547 22.2462
Au 22.2895 13.6904 22.2566
Pd 18.1323 24.9845 15.1265
Au 16.6121 25.9208 17.3962
Au 21.0456 24.9581 15.1862
Au 19.5374 25.9505 17.4509
Pd 22.4162 25.8346 17.4862
Au 18.0548 14.5482 15.1931
Au 16.4442 13.5802 17.5192
Au 20.9955 14.5633 15.2065
Au 19.3783 13.5512 17.5165
Au 22.3426 13.6709 17.5106
Au 23.2336 15.9737 23.7354
Au 23.2658 23.5571 23.6846
Au 23.3245 15.9471 16.0809
Pd 23.3527 23.5595 16.0597
Pd 15.53 16.038 23.7699
Au 15.5061 23.7709 23.7001
Pd 15.641 15.9241 15.9483
Au 15.673 23.6277 15.8834
Au 28.7975 19.7329 14.2478
Pd 28.8833 19.743 17.0445
Au 28.8957 19.7381 19.8591
Au 28.8611 19.7398 22.678
Au 28.7264 19.7458 25.4719
Pd 10.2348 19.6688 13.6855
Au 10.2983 19.4448 16.803
Au 8.21289 18.4345 21.1026
Au 10.0084 19.9004 22.674
Au 9.87594 19.9023 25.6093
Au 13.6992 29.2128 19.6549
Au 16.6579 29.1885 19.715
Au 19.5914 29.1318 19.7301
Au 22.4472 29.0338 19.7542
Au 25.3117 28.8778 19.7515
Au 13.3554 10.7933 20.0697
Au 16.346 10.2211 19.7866
Au 19.3847 10.3468 19.7956
Au 22.3391 10.4731 19.7989
Au 25.2678 10.6443 19.8174
Au 19.4728 14.1921 29.0669
Pd 19.4783 16.974 29.3602
Au 19.4765 19.7858 29.4454
Au 19.5372 22.6372 29.3905
Au 19.5614 25.485 29.2034
Au 19.8204 14.15 10.6304
Pd 19.8103 16.9235 10.5282
Au 19.8105 19.7357 10.5097
Au 19.8154 22.5807 10.5093
Pd 19.7944 25.4104 10.5434
Au 26.4444 18.2911 26.4804
Au 24.1769 16.8604 27.4117
Pd 21.8407 15.4928 28.3135
Au 26.4388 21.2311 26.4833
Au 24.1623 19.7947 27.5095
Au 21.8315 18.3615 28.4665
Pd 24.1858 22.7021 27.3967
Au 21.8774 21.2602 28.4472
Pd 21.9074 24.1307 28.3193
Au 26.5684 18.2824 13.2601
Pd 24.3258 16.8752 12.3357
Au 22.0915 15.4976 11.4463
Au 26.5828 21.2017 13.2382
Au 24.3294 19.7529 12.2505
Pd 22.0893 18.3197 11.3471
Pd 24.3378 22.6335 12.2908
Pd 22.0905 21.1866 11.3291
Pd 22.0848 24.037 11.3988
Au 12.2697 18.5067 26.5137
Au 14.723 17.0144 27.4044
Pd 17.0966 15.6181 28.2643
Pd 12.0702 21.4223 26.5921
Au 14.6386 19.973 27.5142
Au 17.0784 18.4543 28.4693
Au 14.4623 22.9399 27.4526
Au 17.039 21.378 28.4832
Au 17.0181 24.3564 28.3083
Au 12.674 18.2798 12.8926
Pd 15.0486 16.8787 12.089
Au 17.4352 15.4978 11.3589
Au 12.6598 21.1599 12.8841
Au 15.0232 19.7164 12.0153
Au 17.4075 18.2989 11.2402
Au 15.0226 22.6088 12.0703
Au 17.399 21.1577 11.2296
Au 17.3985 24.0461 11.3002
Pd 26.2613 26.6762 18.3357
Pd 27.1504 24.4139 16.9568
Au 28.0108 22.0942 15.5928
Au 26.2382 26.6722 21.2185
Au 27.1919 24.4233 19.8038
Au 28.0784 22.1062 18.4154
Au 27.1138 24.3943 22.662
Au 28.0649 22.1203 21.2637
Au 27.9487 22.0987 24.1002
Au 12.7453 26.9058 18.0886
Au 11.8394 24.5481 16.5736
Au 11.0427 22.2253 14.9964
Pd 12.7683 26.9428 21.1428
Au 11.7864 24.6027 19.6204
Au 10.129 19.8339 19.7185
Au 11.8054 24.5845 22.5554
Au 10.8609 22.2105 21.1648
Au 10.8151 22.2459 24.1456
Au 26.2326 12.8407 18.4071
Au 27.1208 15.1103 17.0031
Au 27.9829 17.4114 15.609
Au 26.2056 12.865 21.3157
Au 27.1722 15.0988 19.8867
Au 28.0591 17.406 18.4479
Pd 27.0773 15.1154 22.7421
Au 28.0414 17.3787 21.3011
Au 27.9219 17.3951 24.1174
Au 12.7077 12.782 18.0837
Au 11.8444 15.011 16.5429
Au 10.991 17.2903 15.0197
Au 12.4622 12.852 21.6445
Au 11.7826 14.9857 19.8773
Au 10.9862 17.2659 18.3558
Au 11.5702 15.1506 22.8986
Au 10.8549 17.4305 21.2744
Pd 10.6931 17.5166 24.2521
Au 18.136 26.5828 26.8377
Au 16.6813 27.5305 24.4555
Pd 15.1909 28.389 22.0634
Au 21.0301 26.4424 26.8858
Pd 19.5785 27.4942 24.5269
Au 18.1235 28.4143 22.1397
Au 22.4459 27.3148 24.4934
Pd 21.0091 28.3228 22.148
Au 23.8792 28.1322 22.1269
Au 17.9725 13.0771 26.9053
Au 16.547 12.0844 24.6901
Au 15.0104 11.4031 22.2777
Au 20.9184 13.1296 26.8771
Au 19.4367 12.0624 24.5747
Au 17.8903 11.1048 22.2441
Pd 22.4042 12.2265 24.5674
Au 20.9007 11.2254 22.2181
Au 23.8506 11.423 22.2251
Au 18.2602 26.4012 12.7608
Au 16.7543 27.3665 15.0099
Au 15.2403 28.3031 17.3254
Au 21.172 26.3699 12.8069
Au 19.668 27.4046 15.063
Au 18.1725 28.3511 17.3461
Au 22.5534 27.2838 15.1206
Pd 21.068 28.2781 17.3966
Au 23.9361 28.1195 17.4205
Pd 18.277 13.1336 12.8376
Au 16.6882 12.1396 15.1365
Au 15.0372 11.1019 17.4853
Au 21.1896 13.1787 12.8654
Au 19.63 12.134 15.129
Au 18.0224 11.152 17.4614
Pd 22.5484 12.2629 15.1506
Pd 20.9743 11.2496 17.4445
Au 23.8961 11.4149 17.4624
Pd 25.6534 15.9331 25.1108
Au 25.6813 23.5707 25.0851
Pd 24.7878 13.6504 23.712
Au 24.8235 25.8875 23.6302
Au 23.338 14.5026 26.0393
Au 23.3853 25.0272 26.0204
Au 25.735 15.9358 14.6334
Au 25.7623 23.5761 14.6021
Pd 24.8517 13.6385 16.0336
Au 24.8815 25.876 16.0008
Pd 23.4844 14.532 13.7152
Au 23.4951 24.9905 13.6705
Pd 13.1494 16.0569 25.184
Pd 13.1191 23.8631 25.057
Au 14.0703 13.6772 23.8608
Au 14.1285 26.2099 23.5958
Au 15.5792 14.5583 26.1177
Pd 15.6055 25.3435 25.9975
Au 13.4437 15.8739 14.2903
Pd 13.3968 23.64 14.2493
Pd 14.2555 13.5386 15.8088
Au 14.2326 26.0195 15.7485
Au 15.8296 14.4902 13.5566
Au 15.8006 25.0663 13.4918
Au 31.1557 19.707 12.8276
Pd 31.232 19.7285 15.6091
Au 31.2924 19.7204 18.4251
Au 31.3133 19.7028 21.2415
Au 31.2743 19.7323 24.0409
Au 31.1268 19.7296 26.83
Au 6.69591 20.316 13.9684
Au 8.19581 18.3826 15.3178
Pd 8.69999 21.0905 15.557
Pd 8.8952 16.1043 19.702
Pd 8.86591 16.1344 22.5189
Pd 6.33901 19.7985 22.3231
Au 12.4402 31.7222 19.6621
Au 15.3918 31.6023 19.5935
Au 18.3083 31.5775 19.5848
Au 21.1845 31.4781 19.6407
Pd 24.0261 31.3196 19.7003
Pd 26.81 31.142 19.7201
Pd 12.8767 8.37378 19.3916
Au 15.5255 7.5584 19.3481
Pd 18.3065 7.87841 19.4713
Au 21.0991 8.02942 19.639
Au 23.9724 8.1825 19.7327
Au 26.8056 8.36496 19.7676
Au 19.2993 12.804 31.2432
Au 20.109 15.532 31.6828
Au 20.2096 18.3757 31.821
Au 20.1983 21.2562 31.8176
Au 20.1097 24.1102 31.7031
Pd 19.9234 26.9537 31.4175
Pd 19.9854 12.7511 8.28827
Au 19.968 15.5198 8.15177
Pd 19.9493 18.3369 8.14995
Au 19.9306 21.1578 8.10325
Au 19.9223 23.9849 8.13832
Au 19.9104 26.8458 8.15571
Au 28.8995 18.2754 27.8532
Au 26.6867 16.7742 28.7911
Au 24.412 15.3258 29.6835
Au 22.0524 13.954 30.5232
Au 28.9134 21.2363 27.8307
Au 26.7013 19.7932 28.9199
Au 24.5162 18.3033 29.8601
Au 22.3017 16.8721 30.7505
Au 26.6731 22.7782 28.7457
Pd 24.5049 21.3352 29.7854
Au 22.3604 19.8513 30.7803
Pd 24.453 24.2175 29.6237
Pd 22.3053 22.7652 30.6904
Au 22.233 25.6477 30.5558
Au 28.9575 18.2652 11.8346
Pd 26.6999 16.8603 10.9108
Pd 24.472 15.474 10.003
Pd 22.2492 14.0994 9.10504
Au 28.9844 21.1791 11.8039
Au 26.75 19.7231 10.783
Au 24.5098 18.3005 9.87285
Au 22.244 16.913 8.9716
Au 26.7333 22.6301 10.8456
Au 24.4874 21.1917 9.84291
Au 22.237 19.7523 8.94443
Au 24.4686 24.0479 9.92002
Pd 22.2293 22.6044 8.96056
Au 22.1892 25.4468 9.05142
Au 9.78788 17.3821 26.9523
Au 12.9777 18.2031 29.2246
Pd 15.3007 16.8312 30.0856
Au 17.5571 15.4759 30.9195
Au 10.5389 19.5676 28.3791
Pd 12.7925 20.9255 29.2334
Au 15.2055 19.5723 30.218
Pd 17.5469 18.1893 31.1599
Au 12.4946 23.5785 29.293
Pd 15.0206 22.2679 30.1106
Au 17.4684 20.9147 31.1836
Au 14.8874 24.9325 29.8963
Au 17.3645 23.6314 30.9832
Au 17.2525 26.348 30.6707
Pd 10.6326 18.251 11.1692
Au 12.9321 16.8832 10.3718
Au 15.2904 15.4906 9.63519
Pd 17.638 14.1105 8.93744
Pd 10.61 21.03 11.1997
Au 12.8917 19.6943 10.3126
Pd 15.2222 18.3137 9.56188
Au 17.5938 16.9178 8.81478
Au 12.8718 22.5231 10.3775
Pd 15.1973 21.1374 9.564
Au 17.5452 19.7347 8.78065
Au 15.1922 23.9908 9.60795
Au 17.5304 22.5664 8.80128
Au 17.5361 25.4474 8.91555
Au 27.7802 28.9753 18.2927
Au 28.6711 26.7195 16.9086
Au 29.5657 24.4294 15.5239
Au 30.4186 22.0791 14.1518
Au 27.7769 29.0005 21.1877
Au 28.7533 26.7267 19.7682
Au 29.6658 24.4382 18.3753
Au 30.536 22.094 16.9872
Au 28.6915 26.715 22.6181
Pd 29.6603 24.4462 21.2117
Au 30.5484 22.1188 19.8187
Au 29.5617 24.4115 24.0428
Au 30.5172 22.1222 22.6425
Au 30.3963 22.1029 25.4824
Au 11.6251 29.47 17.6307
Au 10.7561 27.1778 15.995
Pd 9.88338 24.7469 14.6311
Au 8.80835 22.044 12.9901
Au 11.787 29.533 21.6861
Au 10.66 28.0079 19.6379
Au 9.78961 25.8078 18.1115
Au 10.8973 22.1536 17.9974
Au 10.9519 27.1849 23.1775
Au 9.77908 25.8735 21.0734
Au 9.04298 23.5998 19.599
Pd 10.1439 24.8629 24.6211
Au 6.28851 19.9134 19.5667
Pd 8.93539 23.6356 22.4748
Pd 27.7533 10.5662 18.38
Au 28.6801 12.799 16.9907
Au 29.5524 15.1003 15.5625
Pd 30.3551 17.4022 14.1802
Au 27.7595 10.5815 21.2408
Pd 28.7074 12.8109 19.8431
Au 29.6449 15.0778 18.4508
Au 30.4785 17.3931 17.015
Au 28.6507 12.8487 22.6883
Pd 29.5945 15.0786 21.2742
Pd 30.4869 17.368 19.8653
Pd 29.4834 15.1149 24.0806
Pd 30.4393 17.3767 22.6596
Au 30.3428 17.3868 25.4655
Au 11.8728 10.1742 17.5598
Au 10.7812 12.3883 16.0072
Au 9.85362 14.6982 14.5539
Au 9.00304 17.0347 13.0457
Au 12.1855 7.42939 22.6815
Au 10.1284 11.4591 22.3933
Au 10.7145 11.6269 19.6808
Au 9.85892 13.8952 18.2247
Au 10.3703 9.02432 23.8964
Pd 11.6024 12.5819 24.4197
Pd 9.60554 13.8337 21.0497
Au 9.06909 11.353 24.946
Au 10.6718 15.0114 25.627
Pd 8.26736 16.1823 25.1256
Au 18.5713 28.2131 29.0538
Au 17.1204 29.198 26.7011
Au 15.6759 30.0883 24.3656
Au 14.1548 30.8951 22.0464
Au 21.3493 27.9425 29.1568
Au 19.939 29.0613 26.7784
Pd 18.4683 30.0044 24.3847
Au 16.9582 30.9095 22.0124
Au 22.7517 28.8064 26.7792
Au 21.2688 29.8794 24.4462
Au 19.7933 30.8134 22.0476
Pd 24.0895 29.6074 24.4179
Au 22.6374 30.6648 22.0887
Pd 25.4448 30.4025 22.0542
Au 18.3957 10.0538 31.1998
Pd 17.1036 10.2206 26.7339
Au 15.7099 9.44964 24.127
Au 14.3898 8.69412 21.6756
Au 21.1813 11.6666 29.1541
Au 19.8437 10.4728 26.7407
Pd 18.4316 9.4409 24.4148
Au 17.0827 8.46595 21.8788
Au 22.6298 10.7592 26.8503
Au 21.2402 9.66069 24.4861
Au 19.8079 8.6845 22.0807
Au 24.0588 9.92231 24.5198
Au 22.6298 8.88189 22.1505
Au 25.464 9.10102 22.1514
Au 18.4055 27.8177 10.3956
Pd 16.9707 28.8244 12.6213
Au 15.5478 29.8298 14.8785
Au 14.0465 30.7592 17.2214
Pd 21.2864 27.7676 10.4624
Au 19.8366 28.8567 12.6556
Au 18.3766 29.8586 14.9042
Au 16.8858 30.8007 17.2218
Pd 22.6906 28.6965 12.7463
Pd 21.2406 29.7573 14.978
Au 19.7747 30.729 17.2472
Au 24.0941 29.5901 15.033
Au 22.6221 30.6194 17.3111
Au 25.4782 30.4344 17.376
Au 18.4955 11.7369 10.4278
Au 17.0198 10.7101 12.6508
Au 15.5414 9.65932 14.8506
Au 14.0919 8.48121 16.9616
Au 21.3804 11.7825 10.4832
Au 19.8761 10.7054 12.7031
Au 18.3796 9.68882 14.9732
Pd 16.8835 8.73726 17.2017
Au 22.7536 10.8618 12.782
Au 21.2537 9.78285 15.0274
Pd 19.7359 8.84678 17.2854
Au 24.1174 9.96517 15.0881
Au 22.6032 8.9548 17.3551
Pd 25.4663 9.14332 17.4377
Au 28.0971 15.8818 26.4657
Au 28.1616 23.6284 26.4721
Pd 27.2593 13.6177 25.074
Au 27.3211 25.9312 25.0289
Au 26.3963 11.3378 23.6807
Au 26.4202 28.2346 23.5803
Pd 25.8438 14.4438 27.4077
Pd 25.8935 25.0776 27.3615
Au 24.9778 12.1574 26.015
Au 25.0448 27.3918 25.948
Au 23.541 13.0108 28.3285
Au 23.6491 26.5414 28.2811
Pd 28.1539 15.9217 13.1821
Au 28.2005 23.6055 13.1253
Au 27.3062 13.6152 14.5675
Au 27.3097 25.9278 14.5327
Au 26.4239 11.3426 15.9761
Pd 26.4082 28.1925 15.9374
Au 25.8936 14.5164 12.2486
Au 25.9218 25.0359 12.1868
Pd 25.0225 12.2338 13.661
Pd 25.022 27.3428 13.6147
Pd 23.6469 13.1429 11.359
Au 23.6361 26.4496 11.2939
Au 12.1431 15.9531 27.8217
Au 11.2562 24.0869 26.9584
Au 12.9951 13.5825 26.58
Pd 12.1914 26.4584 25.4661
Pd 12.5948 10.3033 23.0197
Au 13.1215 28.822 23.978
Au 14.4652 14.5463 28.7746
Au 13.4986 25.6323 27.6513
Au 13.9443 11.2426 25.2918
Au 14.4823 27.9706 26.1913
Pd 16.7905 13.2533 29.5318
Au 15.8431 27.2011 28.445
Pd 11.3805 15.7828 12.4568
Au 11.2125 23.575 12.4853
Au 12.2538 13.3941 13.8752
Au 12.1604 26.1043 13.8571
Au 13.1901 11.0547 15.3608
Au 13.0987 28.5579 15.445
Au 13.7241 14.4216 11.7387
Au 13.6086 25.038 11.7316
Pd 14.6299 12.0494 13.2335
Au 14.523 27.537 13.2339
Au 16.0934 13.066 11.0705
Pd 15.9673 26.4939 11.058
Pd 33.3823 19.6865 11.4803
Au 33.5358 19.6964 14.2004
Pd 33.5272 19.7035 16.9918
Au 33.6131 19.6949 19.8172
Au 33.6177 19.6984 22.6483
Au 33.5666 19.7084 25.4733
Au 33.3751 19.7154 28.1783
Au 8.18685 19.4852 11.8863
Au 6.49354 17.7635 13.3275
Pd 8.21529 18.4087 18.2716
Au 8.27569 21.2143 18.2403
Au 7.16318 25.0374 20.954
Au 6.75819 14.5729 23.6804
Au 9.60598 14.9302 28.151
Au 10.7457 31.9496 22.1469
Au 9.92041 30.6982 20.0551
Au 16.9983 33.922 19.4453
Au 19.9 33.8428 19.493
Pd 22.7548 33.6653 19.5884
Au 25.5463 33.5603 19.6803
Au 28.2418 33.3616 19.7212
Au 11.0965 6.64518 19.9041
Au 13.4732 6.01628 18.2305
Au 17.2138 5.44118 19.1517
Au 19.9602 5.62511 19.3161
Pd 22.7226 5.86298 19.5613
Au 25.5215 5.94316 19.6968
Au 28.2404 6.16236 19.755
Au 19.1027 11.6096 33.4153
Au 20.0256 14.2221 33.9467
Au 20.8165 17.0115 34.1032
Au 20.8976 19.899 34.0931
Au 20.7838 22.806 34.0405
Au 20.595 25.7176 33.8726
Au 20.2152 28.4236 33.5155
Au 20.0979 11.3759 6.02798
Au 20.0872 14.0981 5.85424
Pd 20.0688 16.9229 5.8826
Pd 20.046 19.7374 5.85948
Au 20.0157 22.5725 5.80608
Au 17.6906 26.7978 6.63241
Au 22.2453 26.8168 6.7718
Pd 31.2528 18.3059 29.1326
Au 29.0943 16.7826 30.0963
Au 26.8499 15.2394 31.0146
Au 24.4754 13.7871 31.8844
Pd 21.7329 12.581 32.7133
Pd 31.2675 21.1927 29.1055
Au 29.1628 19.7724 30.2158
Au 27.0107 18.2177 31.1921
Au 24.8104 16.6769 32.1089
Pd 22.526 15.286 32.9779
Pd 29.095 22.7715 29.991
Au 27.0436 21.3811 31.138
Au 24.9576 19.8853 32.0825
Au 22.8857 18.3687 33.0537
Au 26.9276 24.2908 30.934
Au 24.8713 22.8728 32.0015
Pd 22.8337 21.386 32.9809
Au 24.7296 25.7288 31.8292
Pd 22.6975 24.2897 32.8999
Au 22.5096 27.1675 32.7494
Au 31.2814 18.2905 10.4607
Pd 29.017 16.8844 9.5566
Au 26.7998 15.4795 8.61633
Au 24.5787 14.0778 7.70108
Au 22.3373 12.6896 6.80743
Au 31.3073 21.1241 10.4423
Pd 29.1072 19.7184 9.44266
Au 26.8769 18.2892 8.44702
Pd 24.6104 16.8733 7.57514
Au 22.3713 15.4871 6.6318
Pd 29.0567 22.5687 9.51739
Pd 26.8562 21.1694 8.46947
Pd 24.5985 19.7341 7.5308
Au 22.3404 18.3339 6.59953
Au 26.8122 24.0086 8.53123
Au 24.6022 22.5932 7.48699
Pd 22.3127 21.1747 6.62805
Au 24.5258 25.4403 7.60415
Au 22.3093 24.0031 6.60104
Pd 20.0039 25.3723 5.90694
Pd 8.10228 18.5546 23.9527
Au 11.3121 19.4078 31.0086
Au 12.8093 15.7681 30.6614
Pd 15.1416 14.3671 31.4848
Au 17.4989 14.0398 33.134
Au 8.09287 21.3706 21.1028
Au 11.2461 22.0865 31.1469
Au 13.552 18.0839 31.9285
Pd 15.7685 16.7086 32.7048
Au 18.3075 16.7115 33.4251
Pd 10.3051 22.1843 28.6342
Au 13.4645 20.8716 31.9891
Au 15.7176 19.5107 32.898
Au 18.3459 19.5687 33.4844
Pd 13.3612 23.6829 31.8202
Au 15.6098 22.384 32.7866
Au 18.2469 22.4242 33.4038
Au 15.5053 25.2012 32.5267
Au 18.0992 25.2233 33.1902
Au 17.6755 27.8514 32.8304
Au 8.55059 20.9776 9.6539
Au 9.31546 15.7637 10.6557
Pd 13.1833 15.5284 8.02232
Au 15.4942 14.1007 7.29355
Au 17.8093 12.6945 6.61891
Au 9.2145 23.4901 10.6898
Au 10.832 16.8937 8.71448
Au 13.0654 18.3083 7.89155
Pd 15.4151 16.922 7.20682
Au 17.7312 15.5044 6.45487
Pd 10.7483 19.655 8.71837
Pd 13.0412 21.0975 7.94939
Pd 15.3606 19.7263 7.19422
Pd 17.7248 18.3272 6.46852
Au 13.0615 23.8772 7.9822
Pd 15.3416 22.5331 7.20233
Au 17.6736 21.1435 6.40354
Au 15.3844 25.3662 7.26063
Pd 17.6735 23.9864 6.49911
Au 16.1529 27.8826 8.68356
Au 29.2176 31.2577 18.3227
Au 30.1261 28.9936 16.911
Au 31.0105 26.706 15.5087
Au 31.888 24.3675 14.1085
Au 32.7192 22.0055 12.7398
Au 29.2182 31.2689 21.1314
Pd 30.1777 29.0324 19.7409
Pd 31.0968 26.7476 18.3251
Au 32.0462 24.4358 16.9346
Au 32.8794 22.0479 15.5467
Au 30.1354 28.9983 22.5681
Au 31.1522 26.7607 21.1757
Au 32.0686 24.4434 19.7903
Au 32.9293 22.0601 18.395
Pd 30.9959 26.6748 23.9838
Au 32.0397 24.4391 22.6206
Pd 32.8801 22.0507 21.2303
Au 31.893 24.3762 25.4267
Au 32.8853 22.0776 24.0605
Au 32.7188 22.0284 26.8701
Au 8.79817 29.5058 18.0987
Au 9.62706 29.6132 15.5814
Au 8.77523 27.2142 14.0734
Au 7.94822 24.6238 12.8462
Au 8.77904 23.5418 16.7704
Pd 13.0601 33.246 21.9351
Au 9.05519 28.6191 21.7984
Au 8.06038 27.4293 16.7509
Au 7.26877 25.3717 15.39
Pd 6.95272 22.8691 14.8058
Pd 10.3398 29.6518 24.0188
Au 8.22814 26.3293 23.2659
Pd 7.97528 27.3048 19.5964
Au 7.08689 25.147 18.1791
Au 9.51723 27.3967 25.5123
Au 7.57186 24.0884 24.7111
Pd 6.49832 22.7841 19.4003
Au 8.78263 25.1607 26.8888
Pd 6.25469 17.2044 19.7508
Au 8.05125 21.412 23.9099
Au 29.2119 8.29772 18.387
Au 30.1186 10.5332 17.0017
Au 31.0157 12.8217 15.5847
Au 31.8634 15.1357 14.1683
Au 32.6745 17.4158 12.7888
Pd 29.1607 8.31507 21.1821
Pd 30.145 10.5251 19.8046
Pd 31.0774 12.7758 18.4164
Au 32.0088 15.0739 17.0008
Pd 32.7607 17.4086 15.5776
Au 30.1026 10.5594 22.6205
Au 31.0931 12.7819 21.2388
Au 32.0105 15.0605 19.8622
Pd 32.8107 17.3885 18.4302
Au 30.9819 12.8514 24.0507
Pd 31.9111 15.0913 22.6709
Au 32.8543 17.3618 21.2623
Au 31.8199 15.1286 25.4573
Pd 32.761 17.3895 24.0716
Au 32.6607 17.4271 26.8674
Au 9.79581 8.83058 18.6395
Pd 9.94868 9.79548 15.7305
Au 8.85047 12.1675 14.1033
Pd 7.21185 15.7231 14.9329
Au 8.58525 18.2268 9.55532
Au 10.8136 9.12714 21.1133
Au 8.37806 10.4132 20.3594
Pd 8.93649 11.2426 17.6722
Au 8.00113 13.4431 16.2875
Au 9.03107 16.1623 16.8224
Au 8.07135 9.85635 22.9258
Au 7.48568 12.3856 22.186
Au 6.2012 17.3559 16.8783
Au 6.41005 20.0401 16.7109
Pd 9.28648 13.7683 23.6995
Au 6.86973 14.8571 21.0154
Au 7.62012 12.8227 19.4094
Au 8.17498 13.7082 26.1018
Au 6.34 17.05 22.5506
Au 6.88145 15.0956 18.1408
Pd 19.035 29.613 31.2957
Au 17.6481 30.8246 28.9021
Au 16.1729 31.7549 26.5766
Au 14.7027 32.6174 24.2487
Au 14.1578 33.902 19.4843
Pd 21.6535 29.3338 31.3638
Au 20.326 30.553 29.0684
Pd 18.8829 31.5486 26.5849
Au 17.4038 32.5227 24.2441
Au 15.7628 33.3612 21.8213
Pd 22.9979 30.1866 29.0259
Au 21.6234 31.3803 26.7419
Au 20.1534 32.3838 24.2938
Au 18.5737 33.2786 21.8421
Au 24.3387 31.0541 26.6722
Au 22.9274 32.162 24.3873
Au 21.4015 33.1338 21.9211
Pd 25.6269 31.8143 24.295
Au 24.2107 32.9129 22.0038
Pd 26.9375 32.6184 21.9773
Pd 16.6455 11.9261 31.7743
Pd 18.5297 11.3731 28.9121
Pd 16.0478 7.7299 26.0609
Au 14.782 6.82788 23.6394
Pd 13.6247 6.1614 20.8762
Au 20.9935 10.363 31.4278
Au 19.9426 9.04995 29.0644
Au 18.7119 7.96077 26.6599
Au 17.5113 6.85089 24.0338
Au 16.1754 5.9206 21.563
Au 22.657 9.34328 29.1327
Pd 21.4405 8.22346 26.793
Au 20.1602 7.14795 24.3923
Au 18.8201 6.16477 21.6796
Pd 24.1598 8.52235 26.7727
Au 22.8806 7.37275 24.4671
Pd 21.4785 6.45787 21.9374
Pd 25.5953 7.69208 24.4119
Au 24.2155 6.58863 22.0644
Au 26.9667 6.83503 22.0704
Au 18.5472 29.1574 8.08487
Au 17.144 30.208 10.2718
Au 15.7606 31.2351 12.5401
Pd 14.3269 32.1866 14.8838
Au 12.8018 33.0496 17.1987
Au 21.3744 29.1197 8.16207
Au 19.9539 30.238 10.28
Au 18.5164 31.2777 12.5265
Au 17.0731 32.2761 14.8245
Au 15.5745 33.1965 17.1622
Au 22.7714 30.0517 10.4157
Au 21.3754 31.1765 12.6017
Au 19.9262 32.197 14.8634
Au 18.4486 33.147 17.1592
Au 24.1882 30.9673 12.7146
Au 22.7699 32.0768 14.93
Au 21.323 33.0507 17.2215
Au 25.5933 31.8521 15.0518
Au 24.1694 32.9078 17.3125
Au 26.9685 32.6884 17.4177
Au 18.6695 10.3656 8.08602
Pd 17.273 9.38964 10.2891
Au 15.8429 8.29673 12.4289
Au 14.4426 7.21495 14.5896
Pd 11.4888 7.43829 17.21
Au 21.4697 10.4027 8.16469
Pd 20.0396 9.37567 10.3236
Au 18.6057 8.28857 12.5107
Au 17.1672 7.27195 14.7288
Pd 15.7921 6.29203 16.8952
Pd 22.8484 9.53081 10.4625
Au 21.4451 8.37908 12.6058
Au 19.9883 7.3679 14.8497
Au 18.5492 6.43091 17.0298
Au 24.2469 8.59289 12.7489
Au 22.8272 7.47938 14.9643
Pd 21.3529 6.59499 17.2008
Au 25.617 7.71424 15.1166
Pd 24.1731 6.71941 17.3445
Au 26.9546 6.86876 17.4536
Pd 30.4759 15.9413 27.8127
Au 30.5818 23.6168 27.8199
Au 29.6713 13.5982 26.4353
Pd 29.7105 25.9106 26.3768
Au 28.8148 11.3004 25.0468
Au 28.856 28.2444 24.9771
Au 27.9202 9.02117 23.5973
Au 27.9359 30.5235 23.516
Au 28.2763 14.399 28.7819
Au 28.3389 25.1519 28.7227
Au 27.3941 12.1109 27.3878
Pd 27.4607 27.3974 27.2925
Au 26.5112 9.82226 25.9879
Pd 26.567 29.6793 25.8486
Au 25.971 12.9124 29.7085
Pd 26.0847 26.571 29.5853
Au 25.0492 10.6444 28.3373
Au 25.2685 28.8838 28.2126
Au 23.5267 11.5165 30.6675
Au 23.9083 28.0383 30.5337
Au 30.5258 15.9381 11.7733
Au 30.573 23.5388 11.706
Au 29.7017 13.6179 13.1483
Au 29.7101 25.9261 13.1049
Au 28.8447 11.3124 14.5646
Pd 28.7957 28.1941 14.5534
Au 27.9274 9.04486 16.0045
Au 27.9278 30.4924 15.9239
Au 28.2619 14.5147 10.8199
Au 28.3051 25.0084 10.7377
Pd 27.3923 12.2288 12.2298
Pd 27.4038 27.334 12.1876
Au 26.5473 9.92203 13.6052
Au 26.5411 29.6344 13.5814
Pd 25.9883 13.149 9.92747
Au 26.0272 26.4406 9.81787
Pd 25.1307 10.8574 11.3298
Au 25.1346 28.7671 11.2597
Au 23.7793 11.7303 9.01197
Au 23.7112 27.8445 8.93477
Au 10.5309 17.0784 29.6867
Au 9.11741 22.4997 26.2354
Au 10.4467 12.5744 27.0616
Au 10.8704 26.6725 27.8703
Au 11.4522 10.2884 25.9559
Au 11.6366 28.938 26.3658
Au 13.2603 8.49604 25.052
Au 12.3314 31.4497 24.1101
Au 11.8817 13.6168 29.2503
Au 12.3322 26.0497 30.1972
Au 12.7555 11.3062 28.1045
Au 13.0869 28.1748 28.6353
Au 14.5412 9.4945 27.3213
Pd 13.7456 30.6085 26.2062
Au 14.2966 12.1865 30.1415
Au 14.5278 27.3542 30.9969
Pd 15.3401 12.1665 27.4937
Au 15.1172 29.9195 28.4325
Au 16.1484 10.3665 29.4464
Au 16.4821 29.0818 30.6558
Au 7.95976 14.5147 12.6677
Pd 10.7734 22.3952 8.79172
Au 10.2271 13.2715 12.0182
Au 10.1186 26.0689 12.0118
Pd 11.1623 10.9138 13.538
Au 11.0789 28.6253 13.4999
Au 12.1482 8.58801 14.9193
Au 10.4328 31.771 17.5322
Pd 11.6427 14.456 9.99917
Pd 11.5254 24.8917 9.99887
Au 12.5553 11.948 11.3966
Au 12.4504 27.5178 11.3875
Au 13.5024 9.59291 12.8631
Au 11.9215 31.0527 15.2986
Au 13.9621 13.0372 9.29643
Au 13.8268 26.3974 9.28114
Pd 14.9251 10.653 10.8206
Pd 13.4057 30.0272 13.1194
Pd 16.34 11.691 8.70511
Au 14.772 28.9829 10.888
