923
Atoms. Timestep: 21130
Au 14.8933 13.3485 31.8717
Au 26.0537 24.2373 27.424
Au 17.194 15.8607 25.1924
Au 18.3616 6.53695 15.149
Au 20.8032 19.8365 9.41925
Au 19.8142 10.9846 14.5246
Au 10.7209 18.5327 29.6779
Au 13.2224 14.6472 30.2389
Au 30.0513 13.5791 13.7872
Au 18.964 18.5648 15.3478
Au 26.3594 9.70975 26.3063
Au 18.6809 24.1364 27.6683
Au 17.7479 27.4954 11.3645
Pd 11.3155 8.2193 21.8553
Au 18.8356 29.3935 14.932
Au 11.5054 19.0786 11.9419
Pd 8.73745 16.9088 20.2183
Au 19.7125 16.0844 32.8768
Au 31.4581 25.147 26.5953
Pd 11.062 14.2096 16.6033
Au 9.20534 22.3044 21.0814
Au 15.2107 13.6813 12.8912
Pd 14.1991 22.0289 10.5336
Au 20.0212 16.2988 24.6089
Au 28.3379 28.2827 26.2104
Au 26.7442 22.7489 11.6142
Au 16.3288 26.547 16.6311
Au 24.0907 26.4809 7.92843
Au 17.4871 17.7611 20.6286
Au 21.5051 19.3659 34.4116
Au 11.3133 28.3976 24.83
Au 24.8005 25.4422 10.3581
Au 7.23575 26.4001 21.6647
Au 10.0171 17.1767 22.7439
Au 14.024 21.6482 22.1703
Au 31.8027 18.7165 20.8208
Au 30.7896 19.9923 27.2488
Pd 10.7776 14.5271 23.297
Au 18.9126 8.57773 13.3421
Pd 29.7387 18.3733 25.1284
Au 9.16461 12.3254 27.1605
Au 18.5619 29.089 24.6513
Au 27.1853 14.4049 27.6713
Au 15.8942 9.13568 26.0799
Au 14.6204 11.7163 22.5776
Au 15.618 14.9129 7.31881
Au 15.2287 17.3361 23.9519
Au 11.6767 9.39896 13.8502
Au 23.0949 12.2521 24.1982
Au 16.7903 22.6528 15.6879
Au 9.89415 18.1514 26.973
Au 18.3654 20.2064 10.61
Au 13.4933 25.2661 16.5163
Au 18.7761 14.1661 23.5517
Au 24.2491 27.3362 20.5416
Au 6.90359 15.9293 26.9498
Au 29.64 19.8427 14.6709
Au 21.801 20.7112 24.1707
Au 24.6745 18.1893 3.98481
Au 25.9592 27.2916 27.4353
Au 4.79594 21.8629 22.0863
Au 29.571 16.2847 10.5767
Pd 24.9352 18.6686 10.6095
Au 13.2713 11.8911 30.0706
Au 24.3138 15.4774 19.1451
Pd 19.0587 26.6061 15.6763
Au 20.6878 32.7563 21.3956
Au 17.9102 22.7804 18.3842
Au 21.985 26.1203 19.3177
Au 24.709 18.2118 32.8082
Au 31.1307 26.2956 16.9325
Pd 24.4429 25.5197 31.5745
Pd 13.843 15.0708 22.7541
Pd 23.4735 16.8479 26.5557
Au 20.4817 13.5387 7.38402
Pd 9.5293 20.7841 11.3894
Pd 9.28451 16.365 16.2021
Pd 15.8868 14.6947 15.4321
Au 15.6125 8.6027 16.5087
Pd 17.1253 12.1672 31.2443
Au 15.4373 23.964 22.5898
Pd 14.2407 17.8514 12.0972
Pd 15.6623 31.4142 17.2325
Au 19.3309 20.937 34.4155
Au 23.6428 16.2382 12.6678
Au 26.2287 26.2835 22.5952
Au 26.7492 14.952 22.4094
Au 18.433 25.7219 18.2133
Au 19.312 25.4561 25.3367
Au 11.0347 16.3921 8.10621
Au 14.11 28.2312 25.7375
Au 18.6209 15.6642 14.3959
Pd 20.9236 27.5028 24.3504
Au 28.789 25.5892 27.4178
Au 27.1807 19.5027 19.3459
Pd 12.9748 13.1187 24.3252
Au 20.8495 22.9485 25.9117
Au 16.2716 16.2197 13.0079
Au 20.0701 22.2136 14.1844
Au 17.9826 24.7563 22.9549
Au 9.45281 26.2981 25.5127
Pd 21.453 29.6771 14.814
Au 23.7712 11.0043 11.4281
Pd 17.5798 25.0326 32.2636
Au 24.2326 22.9557 32.6718
Au 19.1162 18.3249 28.9683
Au 13.9539 11.8533 19.7978
Au 24.1232 19.2577 6.23186
Au 27.6609 11.9099 26.9736
Au 17.7532 9.56884 18.604
Pd 26.5453 17.8125 15.7178
Au 17.4448 12.4133 19.305
Au 15.7435 5.97283 16.0746
Au 22.6667 23.2037 23.5152
Au 7.22881 10.5076 22.2433
Au 21.1752 21.0135 21.5623
Pd 21.893 17.7608 7.58602
Au 12.788 27.8046 17.3269
Au 6.77671 10.3784 19.5149
Au 26.7529 9.09883 17.5322
Au 14.6309 19.2626 6.66246
Au 8.9882 11.9495 13.5594
Au 26.5592 23.4471 31.2592
Au 30.6408 17.3541 27.4769
Au 23.6413 23.3502 4.56691
Au 22.071 27.7402 29.013
Au 13.0009 15.4019 12.3565
Au 25.2392 17.2527 23.1144
Au 32.3347 23.4955 19.602
Pd 31.0612 23.47 12.504
Au 26.3221 11.5544 10.6273
Au 22.1887 31.3554 12.5664
Au 25.4797 23.5965 22.2031
Pd 18.4292 29.1146 28.8092
Au 28.0029 23.9916 6.74801
Au 28.9143 25.4132 30.4505
Au 18.9598 30.8873 26.744
Au 15.1934 29.2721 20.9737
Au 24.8428 30.8384 13.1107
Au 12.8281 20.0829 30.7348
Au 19.4249 9.223 10.6929
Au 19.176 13.6615 31.7634
Pd 32.2267 18.2936 13.5244
Pd 29.3754 24.8646 15.4361
Au 19.9973 13.5923 12.8757
Pd 20.4597 23.8982 18.6128
Au 27.2115 17.4009 21.2391
Au 15.0968 11.6751 25.428
Pd 13.7336 23.8581 26.5133
Au 13.6261 7.47851 14.9021
Au 26.0639 16.5447 25.7738
Au 31.5173 18.2407 17.947
Pd 24.0213 29.1914 15.0001
Au 21.3562 18.4487 25.5958
Au 25.4348 28.9093 22.5585
Au 6.58469 12.7795 17.9617
Au 25.8305 19.874 21.8933
Au 5.51272 16.6271 15.44
Au 17.816 27.6445 31.1515
Au 25.0642 21.0387 19.0022
Au 21.9498 18.2052 4.82757
Au 15.7234 17.6881 26.7257
Au 20.3193 7.61995 16.649
Au 23.6224 33.233 17.3568
Au 13.0425 23.6809 23.792
Au 10.7105 21.5074 29.8429
Au 10.7572 29.8729 19.5688
Au 32.0481 21.6407 21.6001
Pd 13.9232 24.2309 11.8975
Au 13.7113 19.4778 10.0842
Au 19.2696 23.4649 9.71099
Au 22.3241 14.598 17.1469
Au 22.3587 6.81026 23.3245
Pd 11.1083 10.7904 17.4105
Au 13.5417 13.2678 27.4848
Au 17.6329 6.48629 20.3036
Pd 14.3802 27.4598 15.0563
Au 21.1483 9.17372 21.3429
Au 26.2781 17.2425 6.12023
Pd 27.1558 22.0104 20.7676
Au 18.5306 18.393 8.42553
Au 10.4476 15.9221 30.1583
Au 24.1309 18.2663 30.1328
Pd 9.69936 14.418 20.7906
Au 17.0911 14.7175 32.9962
Pd 11.3136 21.7349 23.2869
Au 33.7201 25.0094 21.5187
Pd 7.05508 16.7399 17.7685
Au 16.2816 7.57113 13.9316
Au 18.9654 18.1746 34.47
Au 23.3655 31.058 25.9706
Pd 18.6028 21.7893 28.9494
Pd 30.5341 23.6128 24.5096
Pd 6.14091 15.0705 24.5212
Pd 11.5605 20.9729 9.6378
Au 15.3802 5.31872 21.4697
Au 5.1959 22.1392 17.7944
Pd 20.6802 18.4646 22.8479
Pd 11.4985 23.9451 21.4379
Au 26.5177 16.7687 31.0698
Au 8.72499 20.1194 28.5081
Au 18.0613 22.0145 26.0257
Au 8.34523 22.8384 14.5714
Au 18.087 20.1255 19.0473
Au 22.844 18.9202 12.7118
Pd 29.6216 26.1421 24.6575
Au 23.1651 33.7618 21.8646
Au 18.5204 15.6846 11.6468
Au 24.2333 24.6974 20.1128
Au 31.1091 27.7597 26.2617
Au 27.2454 33.0189 20.2658
Au 29.2631 25.3805 8.81017
Au 29.8573 28.4972 11.8439
Pd 16.7422 17.787 10.6392
Pd 25.0882 29.6006 19.563
Au 27.6943 30.773 24.6619
Au 15.8481 7.83076 22.2089
Au 22.4912 27.0128 14.7916
Au 17.8565 13.1572 8.13815
Au 22.7045 31.8273 19.6075
Au 14.9021 24.1213 8.93494
Au 6.62022 19.7682 17.8834
Au 30.8586 24.2626 29.1285
Au 22.8162 20.457 17.1759
Au 24.8336 18.5468 17.6723
Pd 12.4357 21.6486 25.7043
Au 18.5851 18.0923 26.2429
Au 18.5052 33.6204 16.2999
Au 19.8622 7.92461 19.2898
Au 11.6782 8.35096 24.6084
Au 7.01724 18.6919 26.8932
Au 30.6692 26.9205 28.7838
Au 29.0528 21.6113 12.7309
Au 19.8727 13.6935 10.033
Au 28.6123 21.3889 6.28719
Au 25.6584 31.4273 15.6365
Au 24.2899 29.9874 10.7425
Pd 18.3664 11.2111 12.1718
Au 18.8012 27.414 22.4495
Au 20.9327 11.5556 11.4061
Au 7.5279 12.8399 23.4733
Au 15.4971 13.8154 20.9144
Au 8.26347 19.717 20.1312
Au 13.3415 9.45926 18.363
Au 25.8096 31.958 18.2722
Au 12.7059 17.2302 30.9783
Au 12.2936 13.1359 21.5818
Au 16.476 6.54813 26.6788
Pd 15.7641 22.5745 13.0378
Au 27.9563 16.8706 23.8912
Au 29.6084 13.0303 25.5226
Pd 10.8829 18.5906 20.055
Au 15.5472 5.48727 18.7579
Pd 23.0765 27.4627 10.2944
Au 19.7367 23.7681 33.3765
Au 23.8463 25.8281 28.1754
Pd 16.3506 21.8233 20.6363
Au 12.4683 10.8711 25.6663
Au 28.9223 9.60684 22.3684
Au 28.2405 9.03938 19.7282
Au 33.7516 20.5303 23.4431
Au 24.495 14.3605 27.2655
Au 16.0464 22.7298 27.8149
Au 7.1497 20.8369 22.4514
Pd 18.586 9.70813 25.8861
Au 14.7973 17.2925 8.83253
Au 11.2194 7.95824 19.1472
Au 22.5193 27.4558 31.7389
Au 19.5405 20.5248 4.77597
Au 27.7187 30.326 19.187
Au 11.2826 11.9125 14.9787
Au 20.076 27.4464 13.3445
Au 11.8477 29.5903 29.2649
Au 17.9113 24.6318 13.8139
Pd 25.3065 12.2638 25.694
Au 31.0814 24.4918 22.0025
Pd 24.7376 17.8633 20.3291
Au 10.5743 28.0194 27.4445
Au 26.5233 24.5502 15.9029
Au 13.6179 30.1063 15.9019
Au 25.4959 12.6136 22.8369
Au 25.9028 11.3222 13.3093
Pd 21.7478 23.7292 20.982
Pd 16.2825 13.8436 26.7776
Au 19.642 13.4857 21.0356
Pd 15.2742 28.8002 18.0879
Au 26.354 25.6253 29.6859
Pd 14.1844 9.32326 23.9823
Au 8.82896 14.4105 25.1882
Au 32.3436 15.302 22.4264
Au 22.1836 20.8002 4.2749
Au 18.3877 22.5514 12.0815
Au 15.2235 28.6206 10.8278
Pd 25.188 31.3695 23.7778
Au 26.3882 10.1154 21.6095
Pd 26.4905 14.1238 19.8243
Au 8.77976 14.3546 11.8828
Pd 19.5284 10.9382 23.1284
Pd 28.2482 17.7284 13.5637
Au 15.0027 24.0164 32.534
Au 16.1549 19.8456 8.78131
Au 25.3166 8.20964 19.6576
Pd 10.5211 23.1309 16.1644
Au 21.4873 9.29019 12.7015
Pd 29.2234 26.5248 21.8874
Pd 20.9933 22.7081 5.67198
Au 21.1584 32.5759 25.9643
Au 24.0352 15.8327 31.5533
Au 27.1594 27.9217 20.5634
Au 19.5592 26.6034 29.4034
Pd 27.2602 13.4084 14.5188
Au 28.4996 19.4597 22.5307
Au 16.2022 26.5365 9.31213
Au 15.6959 16.5173 18.4168
Au 25.7298 33.8847 22.547
Au 15.1252 31.9471 19.9639
Au 29.5001 23.385 20.1107
Pd 25.9377 21.7343 28.8946
Pd 20.6073 21.2923 18.9498
Pd 16.2265 10.3637 20.7435
Pd 12.8306 22.8173 31.2128
Au 28.091 27.6586 29.2299
Au 33.3982 17.6775 15.8872
Au 26.0961 28.9205 17.116
Au 26.8987 16.7591 18.5061
Pd 21.2128 10.2915 25.7113
Pd 21.413 30.2079 27.9801
Pd 19.2682 21.1726 16.5381
Au 11.2854 13.1412 19.0424
Pd 25.0545 10.2161 23.9441
Au 21.9768 25.198 30.2446
Au 16.612 29.2614 26.6814
Au 16.7139 15.0228 30.4007
Au 27.2404 7.47989 21.5503
Au 13.9744 23.3787 19.9686
Au 25.7268 27.9938 9.74834
Au 32.8213 22.1819 17.0983
Au 21.8288 7.68306 25.9255
Pd 4.93058 19.2171 15.7467
Pd 14.2375 10.6514 27.8158
Au 11.4577 10.5533 20.1702
Pd 28.0186 28.3406 23.4724
Au 30.657 17.523 15.5109
Au 31.3862 16.0574 19.9318
Au 23.4259 29.0742 8.31873
Au 15.5764 19.0379 14.1561
Au 11.4553 25.3978 11.3169
Au 28.1868 15.0564 12.473
Au 18.0783 28.4791 17.5197
Au 26.803 26.1596 8.09745
Au 16.6084 10.2994 14.0362
Au 10.2749 20.7968 18.443
Au 22.4959 25.3328 25.2602
Au 13.24 12.5825 17.1796
Pd 25.4038 21.28 9.84993
Au 13.9597 7.20941 25.7557
Pd 14.5236 21.1791 15.4784
Pd 10.4622 16.4559 12.3186
Au 23.335 20.9302 29.2367
Au 16.2173 29.4021 15.542
Pd 4.14169 16.0196 19.9539
Pd 23.8855 33.4762 24.6749
Pd 17.681 7.00981 17.675
Au 18.4771 31.1326 17.1061
Au 30.2947 21.5669 29.4682
Au 13.0227 18.033 26.1845
Au 7.47813 18.1351 22.4942
Au 18.5736 20.1433 21.7664
Au 7.18064 14.5598 15.8383
Au 33.1325 17.8407 23.0459
Au 9.66685 11.8815 21.8338
Pd 13.7779 18.3361 28.8117
Au 21.4368 17.457 30.4938
Au 20.0588 28.0633 26.9217
Au 23.9925 23.361 11.8521
Pd 13.4579 14.7571 19.4915
Au 21.1619 33.7165 16.5038
Au 24.792 15.8283 16.4921
Pd 22.4988 17.6972 10.2734
Au 22.5213 17.2355 18.1426
Pd 17.7032 15.9981 27.921
Au 24.3277 8.40886 16.4775
Pd 21.2515 15.6335 11.4744
Au 24.9477 20.7311 12.4447
Au 21.1499 31.1319 17.2498
Au 29.7869 29.4533 28.1353
Au 13.2315 30.5289 18.5422
Pd 19.2102 20.1334 24.4967
Au 28.1477 20.8536 27.617
Au 11.7676 21.3768 20.6395
Pd 25.2663 26.7989 15.3032
Pd 15.5485 12.9107 29.2173
Au 30.0068 25.8576 11.5675
Pd 25.4904 18.1783 13.1851
Au 23.1419 13.8615 6.84452
Au 29.5647 22.0262 22.5199
Pd 22.227 18.6431 28.1721
Au 6.12277 18.3525 13.3806
Au 22.6862 21.0905 10.9357
Au 23.7367 16.3291 5.80644
Au 10.6662 21.2079 13.8075
Au 20.5619 18.958 17.5161
Au 9.56852 14.3801 14.3908
Au 15.272 12.1425 15.3366
Au 19.4807 24.0103 30.5284
Au 29.1891 23.3898 10.5647
Au 28.6787 15.6673 15.2388
Au 24.6404 13.114 17.6425
Au 20.1981 18.4909 20.1496
Au 17.8521 12.179 25.1267
Pd 9.1535 27.4849 23.189
Au 29.6921 20.6125 20.1113
Au 10.2129 27.2719 18.4028
Au 18.3341 13.343 29.0263
Au 29.9383 30.8081 23.004
Au 15.3616 31.5967 22.6226
Au 17.265 31.7587 14.7634
Pd 22.6226 12.452 26.911
Au 28.9421 13.1662 18.9268
Au 28.8133 27.8858 18.3552
Au 18.3438 22.6947 5.9052
Au 28.0771 12.5304 21.6738
Au 17.1957 21.9468 23.2834
Au 16.8598 22.7202 30.7831
Au 25.6705 16.6978 28.4488
Au 16.5048 19.7312 24.9931
Pd 22.0034 11.2898 19.2836
Au 12.1083 16.1168 28.0327
Pd 14.3987 25.8488 24.5055
Pd 7.92503 16.3823 13.738
Au 24.4121 10.984 15.6336
Au 22.9253 20.7884 26.5709
Pd 21.3536 25.6021 16.7558
Au 11.0071 19.3059 24.7092
Pd 9.77412 21.3171 26.2643
Au 15.6541 24.1571 17.6918
Au 13.2185 27.603 28.1563
Au 29.6113 31.8034 20.5634
Pd 26.8009 19.3117 24.8148
Pd 9.13184 20.5467 16.0079
Pd 30.4081 25.849 19.5423
Pd 9.91215 18.4518 14.2703
Au 24.0418 9.26 13.624
Au 11.5662 16.2572 14.7491
Au 14.4552 29.4445 13.3022
Au 11.9802 10.6871 22.9458
Au 26.8494 11.3988 19.2906
Au 12.6707 27.8568 12.0147
Au 28.3343 25.112 17.9119
Au 24.455 7.79566 25.0717
Au 20.0895 8.41956 23.911
Au 20.8104 28.2742 17.034
Pd 25.0861 19.2323 27.458
Pd 21.7003 29.9609 10.221
Au 20.0104 5.82882 24.3609
Au 4.7153 13.3256 19.74
Pd 32.1555 20.0106 15.5874
Au 23.4179 19.9611 8.64385
Au 24.4719 17.297 8.25692
Au 6.16068 22.927 24.3982
Au 21.5988 14.4249 22.9135
Au 6.51185 24.111 16.2664
Au 21.7358 25.0125 9.68735
Pd 8.93985 12.4649 16.321
Au 20.0477 26.314 32.1187
Au 23.4966 23.3246 27.0124
Au 25.5358 14.9361 7.59134
Au 19.0014 22.7716 20.8645
Pd 20.1386 10.2892 17.4854
Au 6.43589 21.3363 15.5924
Pd 23.041 15.8418 29.0272
Au 30.1016 22.8793 8.09067
Pd 16.8044 10.1383 23.5949
Au 19.6218 16.176 21.7266
Au 13.3945 6.84359 23.0042
Au 16.8966 26.9403 24.767
Au 24.1362 20.5614 33.9766
Pd 14.2047 16.6418 14.5986
Au 9.32012 24.7334 22.8477
Au 15.4245 19.1674 19.4539
Au 16.6076 24.3406 25.5257
Au 12.8956 23.1246 14.5148
Au 22.3444 10.5863 28.7279
Au 24.3776 13.6163 14.7491
Au 33.1128 23.275 23.5482
Au 11.4806 11.1147 28.1513
Pd 18.0626 18.3012 12.8831
Au 27.4689 16.5794 8.53326
Au 18.4536 15.3877 6.59807
Pd 17.3713 24.29 7.96036
Au 8.50218 18.2772 11.8422
Au 26.031 15.755 14.025
Au 7.39045 26.9168 19.0507
Pd 17.6896 15.1065 19.7686
Pd 22.5904 25.7849 12.298
Au 19.7941 27.9644 19.7067
Au 13.5294 25.6804 21.4941
Au 22.6132 15.1553 9.04364
Au 16.0305 22.0777 7.13619
Au 25.1227 24.0001 24.8153
Au 23.5847 24.4404 14.6548
Au 23.0312 17.4522 15.219
Au 13.9489 15.3944 25.619
Au 20.3262 28.8639 30.7492
Au 26.7324 19.7504 5.24685
Au 27.2754 25.0004 20.4439
Pd 20.5738 12.6847 24.8542
Au 11.8852 28.4552 14.6328
Au 16.851 15.6564 22.3421
Pd 24.4435 10.4663 18.3351
Au 34.8739 23.9832 19.0064
Au 25.5978 29.2788 25.5639
Pd 30.5935 23.6397 17.5238
Au 22.1682 17.1786 33.0589
Au 17.264 13.4085 11.0065
Pd 15.4998 11.3284 11.5869
Au 15.2978 20.6181 29.6074
Au 25.7068 25.2091 13.0862
Au 30.3145 22.7142 27.0499
Pd 20.7146 17.3554 13.5092
Pd 15.1787 25.8856 27.4109
Au 29.2449 20.9873 25.0778
Au 15.9185 27.9145 29.1653
Au 19.4995 31.9552 23.7719
Au 27.1184 17.1674 11.1432
Pd 24.5864 22.3852 16.4547
Au 32.2417 25.9274 23.9842
Au 28.1635 22.3458 15.4445
Au 12.8576 25.5373 31.3859
Au 10.9759 29.7608 16.9133
Pd 9.83882 19.8298 22.2993
Au 27.1933 14.0218 24.9019
Au 28.6212 11.092 14.5899
Pd 27.4181 19.8754 11.3734
Pd 25.8048 21.608 26.2085
Pd 31.4997 28.2349 18.8851
Au 20.5061 16.4135 16.2208
Au 33.3825 14.3067 20.0788
Au 29.0916 10.6706 17.6206
Au 7.92422 20.3241 13.5094
Pd 25.7653 22.6479 14.122
Pd 23.0951 29.917 21.4982
Au 7.11152 21.4565 26.5871
Au 22.5494 24.6 6.84404
Au 31.9886 24.8472 14.5871
Au 8.37956 25.5483 14.7074
Au 7.24042 10.4765 16.8501
Pd 20.3844 20.1703 12.3897
Au 16.3516 17.7398 29.5085
Pd 11.2898 13.7405 26.3001
Au 13.4707 10.1376 15.6741
Au 30.5403 21.041 10.4551
Au 26.5116 22.6997 4.83789
Au 7.51294 18.433 15.601
Au 13.0262 30.4371 23.955
Au 17.852 5.51504 22.7481
Au 24.4552 19.8626 15.0878
Pd 17.4206 15.6931 9.11659
Au 9.022 16.2927 10.0426
Au 13.1359 19.0895 21.4396
Pd 24.429 14.7166 24.5003
Pd 12.7131 25.7876 13.7814
Au 11.7671 20.0461 27.7466
Pd 12.2122 25.458 18.9616
Au 9.45927 9.53968 23.4431
Au 5.54176 20.3648 24.6219
Au 29.0467 15.6915 26.1618
Au 32.4247 18.7383 25.4857
Au 20.5961 16.5322 27.4941
Au 7.16883 25.4499 24.1907
Pd 8.74564 22.3366 23.9428
Au 7.75575 10.8459 25.1621
Au 24.4789 21.2785 23.8797
Au 28.1541 24.3079 23.0815
Au 35.3023 22.8522 16.5526
Au 25.1066 20.6925 31.2985
Au 17.7432 30.001 22.1215
Au 24.7157 13.2086 9.42389
Au 22.4058 11.8493 13.7925
Pd 19.1359 14.2832 26.4468
Au 12.3703 8.69085 27.2822
Au 13.5548 28.1711 30.688
Au 8.67153 22.8396 28.5849
Au 14.7502 24.1814 29.8185
Au 10.4702 24.1748 13.5888
Au 11.6658 22.621 11.7388
Pd 34.8942 21.3062 18.7695
Au 14.864 15.6523 28.3552
Au 11.6285 26.0368 23.5558
Au 13.2705 14.8638 8.68985
Au 24.3539 12.462 20.3781
Au 22.1277 11.9486 16.6278
Au 10.7327 26.6684 21.0633
Au 16.6813 17.1568 15.8238
Au 15.8508 10.2048 29.872
Au 27.1159 14.4219 17.1251
Au 27.0411 8.45156 24.0065
Au 11.1239 27.025 29.934
Pd 8.90429 24.8925 20.1358
Pd 13.1658 17.4997 19.0427
Au 31.4131 16.2601 24.8278
Au 21.7562 22.8749 16.3079
Au 33.905 16.9304 20.5235
Pd 31.9907 21.4561 25.2506
Au 33.3908 24.7405 16.8249
Au 23.735 9.9605 26.4807
Au 13.4073 15.6788 16.9637
Pd 31.7117 20.8501 12.9758
Pd 29.3809 18.9992 29.3708
Au 6.6385 15.2154 20.0256
Au 11.9121 20.7281 16.1503
Au 20.2874 9.04043 28.0085
Pd 14.4533 29.9466 28.3142
Pd 17.8943 11.8912 16.5762
Au 11.0104 29.2203 22.2257
Au 13.3088 22.1389 28.652
Au 9.8039 25.444 28.0306
Au 22.1267 14.0164 19.9946
Au 17.3756 19.9175 6.1826
Pd 23.7641 21.7807 21.2326
Au 19.8261 18.9047 32.1504
Pd 12.1292 26.0385 26.2171
Au 15.0976 22.1314 24.9569
Au 29.7625 29.0217 20.8694
Pd 7.34285 12.7824 20.7062
Au 25.2411 24.2631 6.65423
Au 27.8691 18.1977 27.0916
Au 10.1709 18.6215 9.63923
Au 33.4681 22.3912 14.5377
Pd 16.7788 24.6985 11.1729
Au 28.124 22.1367 18.1683
Pd 29.6296 15.8156 17.7803
Au 26.8224 33.3751 24.9466
Pd 23.4943 25.6482 22.6097
Pd 21.8219 11.8604 21.9053
Pd 18.6128 10.5601 29.66
Au 25.6152 13.7614 12.1443
Au 28.3979 16.4552 29.0358
Au 15.0369 18.7181 31.6911
Pd 19.9714 24.5427 7.33001
Au 6.45724 24.3655 19.0029
Au 19.1261 23.9367 16.1973
Pd 15.8456 13.7872 23.9906
Pd 17.6221 19.8546 30.6718
Au 11.0555 14.6063 10.2615
Au 13.6476 26.2722 10.032
Pd 8.25343 19.7111 24.7071
Au 13.6051 21.4345 7.98461
Au 23.7077 30.4349 17.3368
Au 13.7286 19.7957 24.1552
Au 28.0031 21.1882 30.785
Pd 22.2207 29.0441 19.2239
Au 28.2605 32.9949 22.7091
Pd 30.4035 28.7386 16.2874
Au 14.3369 18.5644 16.7413
Au 16.7821 24.6459 20.2808
Au 10.2394 26.907 13.2406
Pd 21.1814 20.1819 6.76996
Au 17.2269 22.5519 33.4696
Au 28.5987 18.621 6.82808
Au 13.7208 9.28928 21.2064
Au 22.4997 19.8547 31.919
Au 17.7194 26.7931 27.3077
Au 8.23485 23.8987 26.1708
Au 26.7497 19.0682 29.568
Pd 12.5882 25.0824 28.7034
Au 19.8245 17.8611 10.8796
Au 26.8397 11.6918 16.5589
Au 34.555 22.4164 21.2608
Au 21.1214 15.7279 5.99964
Au 17.9998 17.9148 23.4214
Pd 19.5171 25.4568 20.6707
Au 22.1894 24.7691 32.9265
Pd 26.6038 20.4522 16.7389
Pd 19.3094 15.8327 30.1202
Pd 12.6094 17.3473 23.4676
Pd 14.535 20.3049 26.939
Au 19.1771 7.09128 26.5448
Pd 20.0377 31.9307 14.6958
Au 12.9701 30.7981 21.26
Au 8.33816 17.021 24.9374
Pd 30.5608 16.2077 13.1668
Au 28.6831 18.5384 17.0873
Au 16.765 22.3215 9.81609
Au 6.79153 13.1447 26.2511
Au 5.7266 17.7293 24.6856
Au 31.5058 13.7618 18.2109
Au 6.86963 23.7407 21.907
Au 18.2955 17.4867 18.0035
Pd 7.90748 15.3617 22.5287
Pd 21.2988 34.0218 23.7651
Au 30.2198 30.4564 18.343
Au 30.7855 28.3122 23.5547
Au 5.01785 15.0162 17.6223
Au 34.3117 19.6881 20.9538
Au 13.336 11.5842 13.209
Au 17.1173 25.332 29.5632
Pd 12.9837 22.8297 17.4744
Au 19.9388 30.6559 19.8364
Pd 14.8522 8.09104 28.2888
Au 13.1489 13.9632 14.7257
Au 9.03101 11.6209 18.9582
Au 14.7364 31.0251 25.8417
Au 13.4954 16.689 6.67239
Au 19.8276 22.6543 23.4558
Au 22.9335 13.6133 11.6246
Au 21.145 25.4075 27.5309
Au 8.68208 14.4749 18.2454
Pd 28.0049 23.368 25.7777
Au 8.28613 17.3756 28.9742
Au 17.086 27.2868 13.9915
Au 14.8929 16.0569 32.027
Pd 11.237 13.3032 12.6147
Pd 11.1219 23.1586 27.6237
Au 20.0851 16.1018 8.69455
Pd 13.4121 28.0295 22.8588
Au 9.14042 18.423 17.8949
Au 33.1265 15.9633 17.8766
Au 24.7497 34.0368 19.7373
Pd 12.3297 30.0214 26.682
Au 15.937 26.7691 22.2293
Pd 31.4467 15.0526 15.7595
Au 9.29211 28.0098 15.6777
Au 15.5509 8.0864 19.3296
Au 21.3768 19.7674 14.9511
Au 15.5771 5.7594 24.1834
Au 11.4197 8.28597 16.3932
Au 24.0952 18.8637 24.9596
Pd 24.9975 27.7601 12.4954
Pd 21.9738 14.7849 25.7819
Pd 15.1597 15.3044 10.6335
Au 22.5895 9.50684 23.5932
Pd 34.6182 20.2692 16.2694
Au 13.4857 20.8837 12.879
Au 13.3632 6.69989 20.2882
Au 16.8242 19.8416 16.6176
Pd 26.6898 23.6294 9.02997
Au 24.0893 14.9564 21.8122
Pd 18.8331 21.2716 8.03637
Au 8.45093 29.171 17.9729
Au 21.6948 27.4887 21.6955
Pd 27.4159 30.5724 21.855
Au 22.8313 28.0363 26.449
Au 26.9267 29.79 28.1526
Pd 28.3615 27.6793 9.92356
Au 18.3573 8.75895 21.6795
Pd 27.0586 20.1936 14.0914
Au 17.0041 11.2431 27.597
Au 19.3271 21.6133 31.8439
Au 17.7554 20.7345 14.0096
Pd 15.5738 10.9817 17.8121
Au 28.0533 27.2389 15.8219
Au 25.1258 11.7589 28.2692
Au 20.8151 24.8179 14.1327
Au 21.2304 22.77 28.5883
Au 33.1054 26.1096 19.1077
Au 28.2079 30.3838 16.4573
Pd 23.4021 21.8606 6.64135
Au 17.2215 30.3711 19.4058
Au 12.8325 28.1548 20.0783
Au 21.4046 27.113 8.09148
Au 28.2591 12.383 12.1446
Au 20.7696 25.196 23.0277
Pd 22.2395 16.7919 20.9728
Au 24.7535 7.80989 22.4096
Au 12.2827 18.8004 7.91624
Au 4.53557 17.7818 17.9156
Au 17.1293 19.8162 33.2953
Pd 23.9009 23.3273 8.94544
Au 12.6715 18.8271 14.3958
Pd 21.9145 22.5555 31.2113
Au 17.1621 27.5312 19.9819
Au 21.7998 22.0024 33.81
Pd 9.09242 9.36042 20.6676
Au 19.7706 33.1479 18.7665
Au 24.7264 20.9447 4.0615
Au 5.36241 13.8606 22.2035
Au 10.8744 16.064 18.5994
Au 15.3619 12.9084 9.13952
Au 14.976 21.3496 32.2552
Pd 17.4054 12.3385 22.1417
Au 15.7023 29.2275 23.8184
Pd 10.6579 23.3535 18.8619
Pd 15.4005 26.4111 31.3735
Pd 28.3515 24.2532 13.1781
Pd 23.2351 19.1289 22.3393
Au 11.8826 16.1443 21.1422
Pd 17.118 31.3769 24.7265
Au 8.83298 25.0462 17.4123
Au 20.4484 27.7181 10.6712
Au 21.9625 9.4128 15.4774
Au 29.6143 14.5731 23.3069
Au 11.0515 16.2546 25.3734
Au 25.9853 21.6114 7.18966
Pd 12.3823 17.0349 10.2608
Au 25.5945 14.3568 29.8563
Au 30.2742 17.1761 22.4542
Pd 20.4739 29.7906 22.4271
Au 34.1546 18.6342 18.3809
Pd 21.9784 14.8975 14.2877
Pd 25.023 31.7319 21.1338
Au 22.0678 34.3751 19.3193
Au 15.941 20.1912 11.7274
Au 24.6451 26.8744 24.7748
Au 22.4945 28.7205 12.558
Au 12.3512 23.6966 9.38599
Pd 31.1242 19.7632 23.2925
Au 15.3368 21.5337 18.1192
Au 27.0768 25.9415 25.2323
Au 10.0023 9.82168 26.2113
Au 15.8514 19.4846 22.2233
Au 29.0083 18.6664 9.50294
Au 28.2107 23.321 28.9219
Au 25.77 31.7947 26.7173
Au 29.1209 29.4962 14.0719
Au 20.717 20.2978 29.8518
Au 26.5922 21.5758 33.2476
Au 23.5668 27.6104 17.3954
Au 20.7203 12.0814 30.2638
Au 4.88994 19.1712 22.257
Au 30.2382 20.7967 17.3073
Au 17.5586 7.59204 24.3882
Au 22.78 7.23732 20.59
Au 26.5201 9.3166 14.9288
Pd 32.3421 20.6353 19.1038
Au 10.6312 24.1822 30.2715
Au 15.5784 13.7968 17.9654
Pd 6.64633 21.8584 19.9933
Au 31.9416 27.1359 21.4243
Pd 23.9045 24.9316 17.2939
Au 19.8493 30.0065 12.3922
Au 19.874 11.7321 27.4923
Pd 27.2637 14.279 10.0359
Pd 17.6261 13.0337 14.0655
Au 12.9862 20.1883 18.6042
Au 18.895 26.2018 9.13396
Au 23.2433 13.0861 29.6792
Au 7.00551 26.8941 16.5164
Au 17.1359 33.1284 18.6098
Pd 27.3667 25.4832 10.8728
Au 9.42429 9.90129 15.3485
Pd 24.9589 15.7719 10.3726
Au 28.1159 21.2585 9.04032
Pd 11.5745 18.0902 16.853
Au 19.8327 11.1703 8.81208
Au 27.1024 29.3711 11.7425
Pd 26.4121 19.1637 8.30139
Au 21.4152 22.3996 8.48654
Au 27.8214 27.062 13.0394
Au 14.3366 9.13798 12.9095
Au 28.4628 31.6512 27.0993
Au 20.2744 15.7846 18.9876
Au 29.5249 13.0993 16.3138
Au 17.4834 17.3067 32.0313
Pd 26.5785 29.1303 14.4018
Au 20.9998 14.0953 28.4954
Pd 17.1685 19.9065 27.7147
Au 27.0695 21.8074 23.6373
Pd 24.2341 29.6367 28.0911
Au 13.5313 6.85532 17.5494
Au 21.9587 9.64462 9.92149
Au 11.0752 13.5433 29.0525
Au 22.2869 12.2654 9.07257
Au 27.6886 11.2586 24.2588
Au 15.284 24.7742 14.5534
Au 30.0814 18.8022 11.9897
Au 28.8677 15.2879 20.631
Au 22.8302 29.8204 30.3914
Pd 22.6576 16.7521 23.7842
Au 18.1039 14.7777 17.0768
Au 22.3453 8.72474 18.3643
Au 17.5286 8.54606 28.263
Au 27.1785 19.1187 32.2756
Pd 23.7132 9.92052 21.036
Pd 20.1377 20.4088 27.1216
Au 9.40761 15.2851 27.6959
Au 19.4667 17.9917 5.96836
Pd 14.809 16.911 21.0897
Au 8.74109 28.5178 20.6811
Pd 19.5297 25.3283 11.6885
Au 20.051 13.5051 15.615
Au 29.9446 11.0206 20.2848
Au 13.3324 13.0841 10.8524
Au 30.9369 13.4304 20.9921
Au 22.38 31.6494 23.3925
Au 30.3863 27.009 14.103
Au 30.808 22.446 15.0113
Au 22.9318 31.9558 15.0632
Au 30.4562 20.2402 7.88084
Au 21.0027 30.0552 25.2142
Au 8.09402 22.3997 17.7518
Au 10.965 25.9163 15.9251
Au 25.97 26.4719 18.341
Au 29.3749 17.913 19.7053
Au 14.7963 26.3212 19.1144
Au 21.1957 23.1575 11.7788
Pd 5.34647 16.4825 22.2808
Au 21.6063 14.7239 31.2518
Au 19.44 10.8935 20.2738
Pd 23.1655 29.0065 23.943
Au 30.2766 30.2179 25.5986
Au 17.0845 29.7863 12.7767
Au 22.845 21.8554 13.9006
Au 15.1022 26.5665 12.3873
Pd 22.9738 22.7459 18.7472
Au 18.21 9.15443 15.9043
Au 6.10858 17.9692 20.0829
Pd 10.1472 12.0403 24.5164
Au 16.5911 17.3644 6.7536
Au 17.3279 10.9076 9.65528
Au 9.07608 9.0179 17.9727
Pd 10.7239 23.8622 25.1118
Pd 25.9691 23.5695 18.4756
Au 17.9295 32.4569 21.1435
Au 19.9986 13.0153 18.3032
Au 16.8282 8.9514 11.5846
Au 30.2213 11.8682 23.1435
Au 22.7253 19.5947 19.716
Au 24.1612 23.5271 29.8017
Pd 4.62968 20.1526 19.7078
Pd 20.147 6.62339 21.7136
Pd 29.5271 32.7287 24.9647
Au 24.7332 27.8257 30.0311
