923
Atoms. Timestep: 20114
Au 19.7531 19.774 19.763
Au 22.0531 19.7874 18.3413
Au 22.0485 19.7875 21.186
Au 17.4629 19.7525 18.3342
Au 17.4587 19.7618 21.1814
Au 18.333 22.0701 19.7515
Au 21.1772 22.0678 19.743
Au 18.3324 17.4733 19.7702
Au 21.1773 17.4877 19.7693
Au 19.7586 18.3636 22.0732
Au 19.7458 21.1916 22.0595
Au 19.7441 18.3505 17.4713
Au 19.7573 21.1863 17.4633
Pd 24.3374 19.7823 16.9296
Au 24.409 19.8014 19.7482
Au 24.3358 19.8024 22.6226
Pd 15.1868 19.7367 16.9183
Au 15.1033 19.7465 19.7487
Au 15.1645 19.748 22.6079
Pd 16.9141 24.3603 19.7447
Au 19.7519 24.4438 19.7382
Au 22.5904 24.3603 19.7195
Pd 16.9211 15.1861 19.7772
Au 19.7496 15.1128 19.7786
Au 22.6046 15.192 19.7781
Au 19.7679 16.9621 24.39
Au 19.7547 19.7773 24.4581
Au 19.7483 22.5984 24.3598
Au 19.7396 16.9361 15.173
Au 19.7523 19.7491 15.097
Au 19.7648 22.591 15.1614
Au 22.0951 18.3562 23.5679
Au 22.0848 21.2138 23.5531
Au 22.0865 18.3373 15.9967
Au 22.1005 21.2175 15.9921
Au 17.4267 18.3265 23.5578
Au 17.4155 21.2023 23.5496
Pd 17.4287 18.2999 16.0023
Au 17.4263 21.174 15.9882
Pd 23.5198 22.1082 18.3019
Au 23.5295 22.1184 21.1857
Au 15.9893 22.0883 18.3053
Au 15.9859 22.1056 21.1979
Au 23.5383 17.4648 18.3143
Au 23.5365 17.4595 21.2252
Au 16.0009 17.4194 18.3099
Au 15.9861 17.4067 21.2218
Au 18.3025 23.5589 22.0778
Au 21.1908 23.5476 22.0707
Au 18.3067 16.0096 22.1105
Au 21.2091 16.0116 22.1234
Au 18.3175 23.5476 17.4146
Au 21.2139 23.5444 17.4151
Au 18.3051 15.9987 17.4358
Au 21.2 16 17.4351
Au 26.6332 19.7639 15.519
Au 26.741 19.7769 18.3203
Au 26.7396 19.7953 21.195
Au 26.6221 19.8003 24.0373
Au 12.8848 19.724 15.4929
Au 12.7709 19.7357 18.3253
Au 12.7634 19.7337 21.2019
Pd 12.8702 19.7438 24.0268
Au 15.479 26.6574 19.7544
Au 18.3296 26.7698 19.7369
Pd 21.1808 26.7653 19.7218
Au 24.0004 26.65 19.7044
Au 15.5137 12.8839 19.7858
Au 18.3328 12.7708 19.7838
Au 21.1938 12.7679 19.7744
Au 24.0354 12.8904 19.7824
Pd 19.7707 15.5624 26.6873
Pd 19.7583 18.3629 26.7744
Pd 19.7546 21.1883 26.764
Au 19.7619 24.0215 26.6499
Pd 19.7653 15.5127 12.8998
Pd 19.7672 18.31 12.7849
Pd 19.7722 21.1639 12.7741
Au 19.7745 23.9943 12.8475
Pd 24.3975 18.3538 25.0026
Au 22.1023 16.9314 25.8983
Pd 24.3852 21.2311 24.9969
Pd 22.1016 19.7863 25.9527
Au 22.1038 22.6329 25.8769
Au 24.3978 18.3106 14.5579
Au 22.0921 16.8886 13.6695
Au 24.3924 21.2198 14.54
Au 22.0913 19.7566 13.5679
Au 22.1066 22.6193 13.6347
Au 15.1083 18.307 24.9938
Au 17.4346 16.9119 25.8941
Au 15.0866 21.2059 24.9934
Pd 17.4074 19.7656 25.9564
Au 17.3992 22.6354 25.8729
Au 15.1453 18.2628 14.5574
Pd 17.4265 16.8701 13.692
Au 15.1148 21.1794 14.5401
Au 17.4247 19.7043 13.5981
Au 17.4289 22.613 13.6536
Au 24.9576 24.4256 18.2716
Au 25.8289 22.1284 16.8768
Pd 24.9566 24.4308 21.1789
Au 25.9161 22.1607 19.7489
Pd 25.8374 22.1339 22.6341
Au 14.531 24.4162 18.2944
Au 13.6639 22.0878 16.8601
Au 14.5309 24.4283 21.206
Au 13.5723 22.1189 19.7566
Au 13.6566 22.1018 22.6583
Au 24.988 15.133 18.3073
Pd 25.8525 17.4353 16.8834
Au 24.997 15.1353 21.264
Au 25.9394 17.4249 19.7629
Au 25.8567 17.436 22.6836
Au 14.5634 15.0972 18.3199
Au 13.6848 17.3879 16.8806
Pd 14.5495 15.1041 21.2406
Au 13.5903 17.3651 19.782
Au 13.6647 17.389 22.6764
Au 18.2911 25.0076 24.4049
Au 16.8617 25.8887 22.089
Au 21.1923 25.0014 24.3925
Au 19.7532 25.9855 22.098
Au 22.61 25.8842 22.0558
Au 18.3152 14.5846 24.4498
Au 16.8728 13.6971 22.1326
Au 21.2277 14.5711 24.4659
Au 19.767 13.594 22.1583
Au 22.6628 13.6835 22.1645
Pd 18.3208 24.9737 15.0798
Au 16.8847 25.8653 17.3895
Au 21.215 24.9749 15.0933
Au 19.7766 25.9587 17.3738
Pd 22.6234 25.87 17.3895
Au 18.3173 14.5538 15.1064
Au 16.886 13.6743 17.4242
Au 21.2251 14.5485 15.1099
Au 19.769 13.5778 17.41
Au 22.6436 13.66 17.4102
Au 23.602 15.9746 23.6346
Au 23.5794 23.5819 23.5683
Au 23.5885 15.9406 15.9449
Pd 23.5674 23.5889 15.9321
Pd 15.9343 15.9588 23.6108
Au 15.9174 23.5961 23.5999
Pd 15.9594 15.9287 15.9483
Au 15.9393 23.5784 15.9147
Au 28.9409 19.7405 14.0908
Pd 29.0821 19.7571 16.903
Au 29.1206 19.7628 19.7495
Au 29.0907 19.774 22.6053
Au 28.9534 19.7841 25.4362
Pd 10.5788 19.7116 14.0603
Au 10.4275 19.7218 16.8955
Au 10.3912 19.7177 19.7699
Au 10.4342 19.7269 22.6335
Au 10.574 19.744 25.4257
Au 14.0419 28.9584 19.7519
Au 16.8849 29.1055 19.7492
Au 19.7653 29.1301 19.7282
Au 22.5948 29.0853 19.7189
Au 25.4268 28.9519 19.708
Au 14.1104 10.5467 19.7865
Au 16.9365 10.4079 19.7797
Au 19.7798 10.3875 19.7669
Au 22.6298 10.4306 19.7681
Au 25.4739 10.5916 19.7697
Au 19.7582 14.1472 28.9732
Pd 19.762 16.9438 29.0853
Au 19.7589 19.775 29.1167
Au 19.7742 22.6254 29.0809
Au 19.7707 25.4571 28.9458
Au 19.7875 14.0921 10.6185
Pd 19.7839 16.8824 10.4887
Au 19.7944 19.7136 10.4527
Au 19.7983 22.5729 10.4476
Pd 19.7608 25.3972 10.536
Au 26.7107 18.3156 26.4257
Au 24.4451 16.8865 27.3344
Pd 22.113 15.4958 28.2028
Au 26.6886 21.2545 26.4371
Au 24.4369 19.8035 27.4185
Au 22.1217 18.3561 28.3063
Pd 24.4136 22.6816 27.333
Au 22.1385 21.2356 28.2955
Pd 22.1196 24.0897 28.1769
Au 26.7049 18.2718 13.1105
Pd 24.4171 16.8463 12.2195
Au 22.1204 15.4584 11.3818
Au 26.7069 21.2097 13.0861
Au 24.4253 19.7411 12.1007
Pd 22.1321 18.2935 11.2382
Pd 24.4202 22.6365 12.1645
Pd 22.1312 21.1794 11.2174
Pd 22.114 24.0361 11.3208
Au 12.789 18.3097 26.4143
Au 15.0937 16.8766 27.3464
Pd 17.4273 15.4935 28.2021
Pd 12.7727 21.2032 26.4115
Au 15.0481 19.778 27.4249
Au 17.401 18.334 28.318
Au 15.047 22.6686 27.319
Au 17.3732 21.205 28.3137
Au 17.3867 24.0929 28.1843
Au 12.8119 18.2555 13.105
Pd 15.1104 16.827 12.2094
Au 17.4431 15.4388 11.3914
Au 12.7907 21.1708 13.0852
Au 15.0775 19.7006 12.1079
Au 17.4161 18.2652 11.246
Au 15.0796 22.6188 12.1735
Au 17.4087 21.1418 11.2216
Au 17.4162 24.0343 11.3079
Pd 26.4081 26.7388 18.2604
Pd 27.3166 24.4644 16.8453
Au 28.1797 22.1239 15.4528
Au 26.4028 26.7456 21.1757
Au 27.3985 24.4913 19.7244
Au 28.3025 22.1527 18.2999
Au 27.3084 24.4622 22.6276
Au 28.2992 22.1766 21.1879
Au 28.1697 22.155 24.0628
Au 13.0522 26.7351 18.288
Au 12.1639 24.425 16.8231
Au 11.3298 22.0771 15.4216
Pd 13.0716 26.7321 21.2109
Au 12.0621 24.4725 19.7585
Au 11.1863 22.1206 18.3076
Au 12.1814 24.4369 22.6722
Au 11.185 22.1208 21.21
Au 11.3412 22.0943 24.0873
Au 26.4417 12.8072 18.3103
Au 27.3371 15.0883 16.8692
Au 28.1757 17.4054 15.4583
Au 26.4508 12.8331 21.2645
Au 27.4347 15.0745 19.7923
Au 28.3106 17.3983 18.3228
Pd 27.3421 15.106 22.6919
Au 28.3067 17.3794 21.2191
Au 28.1836 17.4065 24.0752
Au 13.1137 12.7632 18.3063
Au 12.2039 15.0393 16.8638
Au 11.338 17.367 15.4443
Au 13.1131 12.7789 21.2562
Au 12.1014 15.0214 19.7883
Au 11.1981 17.3459 18.3393
Au 12.1928 15.0742 22.6909
Au 11.1995 17.3464 21.2309
Pd 11.341 17.4033 24.0872
Au 18.2908 26.4571 26.7109
Au 16.8448 27.3639 24.4259
Pd 15.4146 28.204 22.1073
Au 21.21 26.4519 26.7092
Pd 19.7409 27.46 24.4409
Au 18.3084 28.3415 22.1306
Au 22.6144 27.3672 24.3942
Pd 21.1802 28.3447 22.0989
Au 24.0385 28.2045 22.0681
Au 18.3096 13.1604 26.7684
Au 16.8869 12.2084 24.479
Au 15.4709 11.3375 22.1579
Au 21.2282 13.1458 26.7792
Au 19.787 12.1084 24.514
Au 18.3403 11.2008 22.179
Pd 22.6831 12.2112 24.4934
Au 21.2297 11.2117 22.1806
Au 24.1041 11.3667 22.1694
Au 18.311 26.3959 12.7481
Au 16.8679 27.3204 15.0291
Au 15.4268 28.1934 17.368
Au 21.2137 26.3942 12.7472
Au 19.7664 27.4265 15.0222
Au 18.331 28.3339 17.341
Au 22.6385 27.3287 15.0565
Pd 21.2014 28.3203 17.3543
Au 24.0482 28.1845 17.3577
Pd 18.3363 13.0964 12.8068
Au 16.8886 12.1861 15.0874
Au 15.4863 11.3227 17.4123
Au 21.2429 13.1164 12.8162
Au 19.7964 12.0907 15.0745
Au 18.3565 11.193 17.3992
Pd 22.6769 12.1995 15.0914
Pd 21.2245 11.2058 17.3915
Au 24.079 11.3505 17.401
Pd 25.941 15.9344 25.0603
Au 25.9084 23.6176 25.0484
Pd 25.0738 13.6255 23.6554
Au 25.022 25.9534 23.5842
Au 23.6381 14.504 25.9622
Au 23.5963 25.0481 25.9367
Au 25.9147 15.8988 14.4856
Au 25.9132 23.6175 14.463
Pd 25.0422 13.5881 15.9191
Au 25.0241 25.934 15.8971
Pd 23.6089 14.4809 13.6082
Au 23.5995 25.0246 13.561
Pd 13.5797 15.9149 25.0721
Pd 13.5677 23.6087 25.0552
Au 14.4757 13.6113 23.6457
Au 14.448 25.9426 23.611
Au 15.9129 14.5093 25.9643
Pd 15.8892 25.066 25.9356
Au 13.624 15.8737 14.4778
Pd 13.5751 23.5828 14.4418
Pd 14.4956 13.5726 15.922
Au 14.4445 25.9268 15.863
Au 15.9395 14.4674 13.6171
Au 15.9132 25.032 13.555
Au 31.2408 19.7114 12.661
Pd 31.3702 19.7395 15.4572
Au 31.4618 19.7389 18.3115
Au 31.4906 19.7324 21.175
Au 31.4444 19.7769 24.0174
Au 31.2742 19.7803 26.8445
Au 8.30133 19.7019 12.6197
Au 8.11935 19.6988 15.4497
Pd 8.07724 19.7076 18.3383
Pd 8.07617 19.7192 21.1991
Pd 8.13471 19.7335 24.0433
Pd 8.28731 19.7551 26.8103
Au 12.6067 31.2698 19.7246
Au 15.443 31.453 19.7263
Au 18.3225 31.5091 19.7193
Au 21.2035 31.4874 19.726
Pd 24.0557 31.3832 19.7282
Pd 26.8334 31.2312 19.718
Pd 12.7142 8.26136 19.7816
Au 15.5158 8.07 19.7809
Pd 18.3611 8.04391 19.7695
Au 21.2026 8.04104 19.7677
Au 24.0818 8.10846 19.7676
Au 26.9019 8.29297 19.7524
Au 19.7436 12.6991 31.276
Au 19.7334 15.5215 31.4227
Au 19.7446 18.3512 31.4806
Au 19.7747 21.2293 31.4852
Au 19.7774 24.0718 31.4177
Pd 19.7784 26.8676 31.2224
Pd 19.7963 12.6744 8.33706
Au 19.7877 15.4553 8.16811
Pd 19.7773 18.2871 8.14074
Au 19.7655 21.1268 8.08295
Au 19.7756 23.9784 8.0981
Au 19.7473 26.801 8.23512
Au 29.0549 18.3271 27.8659
Au 26.7969 16.8644 28.8056
Au 24.4708 15.4475 29.6897
Au 22.1231 14.0555 30.5161
Au 29.044 21.2593 27.8574
Au 26.797 19.8152 28.9249
Au 24.5057 18.3629 29.8469
Au 22.1404 16.9245 30.6732
Au 26.7217 22.7293 28.7887
Pd 24.4813 21.2763 29.7977
Au 22.1725 19.8218 30.7166
Pd 24.4246 24.1132 29.6411
Pd 22.1545 22.6829 30.6237
Au 22.1374 25.527 30.4885
Au 29.0291 18.2459 11.6779
Pd 26.7227 16.8174 10.7861
Pd 24.4291 15.4129 9.91994
Pd 22.1322 14.0276 9.08317
Au 29.0466 21.1818 11.6441
Au 26.7822 19.702 10.6238
Au 24.4911 18.2569 9.742
Au 22.1485 16.8599 8.89801
Au 26.7533 22.6328 10.7053
Au 24.4654 21.176 9.70427
Au 22.1499 19.7209 8.84908
Au 24.435 24.0482 9.81678
Pd 22.1457 22.5958 8.8749
Au 22.1093 25.4433 9.00459
Au 10.4645 18.3103 27.8433
Au 12.7552 16.8753 28.8084
Pd 15.0964 15.4508 29.653
Au 17.3801 14.0585 30.5046
Au 10.452 21.1972 27.826
Pd 12.7041 19.7724 28.8772
Au 15.0191 18.335 29.8277
Pd 17.3767 16.8942 30.6459
Au 12.7287 22.6385 28.7675
Pd 14.9932 21.2244 29.8098
Au 17.3338 19.7695 30.7389
Au 15.0372 24.1048 29.6771
Au 17.342 22.6543 30.6993
Au 17.3962 25.5486 30.526
Pd 10.5104 18.2529 11.6682
Au 12.7867 16.822 10.7507
Au 15.1198 15.3985 9.87554
Pd 17.4616 14.0197 9.06668
Pd 10.4996 21.126 11.6547
Au 12.7425 19.6944 10.6122
Pd 15.0573 18.2611 9.74625
Au 17.4113 16.8492 8.88931
Au 12.7533 22.5845 10.7015
Pd 15.0428 21.1396 9.72696
Au 17.367 19.6948 8.82764
Au 15.0532 24.0317 9.80451
Au 17.3669 22.5584 8.84089
Au 17.386 25.4533 8.97337
Au 27.8442 29.0612 18.2544
Au 28.7658 26.7928 16.8327
Au 29.6738 24.48 15.4119
Au 30.5253 22.1021 14.0048
Au 27.8357 29.0965 21.1959
Au 28.8788 26.8203 19.7345
Au 29.824 24.5137 18.3005
Au 30.7008 22.1336 16.869
Au 28.782 26.8076 22.6387
Pd 29.8086 24.5329 21.1917
Au 30.7351 22.1769 19.7464
Au 29.678 24.4971 24.0713
Au 30.6918 22.1937 22.6179
Au 30.5304 22.1725 25.5059
Au 11.5865 29.0621 18.2629
Au 10.6645 26.7502 16.803
Pd 9.82458 24.3937 15.3844
Au 9.01739 22.0586 13.9772
Au 11.6185 29.0355 21.1982
Au 10.5493 26.8036 19.7524
Au 9.63817 24.4769 18.2745
Au 8.80967 22.1042 16.8673
Au 10.7014 26.738 22.6657
Au 9.64082 24.475 21.2175
Au 8.76101 22.0982 19.7521
Pd 9.84023 24.4069 24.086
Au 8.8276 22.1083 22.6488
Pd 9.02417 22.0749 25.482
Pd 27.8729 10.4994 18.32
Au 28.8214 12.7467 16.8934
Au 29.6954 15.0689 15.427
Pd 30.4808 17.3915 14.0208
Au 27.8998 10.5189 21.2226
Pd 28.8886 12.7518 19.7832
Au 29.8494 15.0408 18.3584
Au 30.6667 17.3828 16.8842
Au 28.8304 12.8147 22.6733
Pd 29.8063 15.0518 21.2299
Pd 30.6966 17.3665 19.783
Pd 29.6729 15.1067 24.0812
Pd 30.6495 17.3833 22.6263
Au 30.5258 17.4075 25.4751
Au 11.6816 10.4133 18.3127
Au 10.7352 12.6995 16.856
Au 9.85384 15.0037 15.4115
Au 9.03442 17.3504 13.9827
Au 11.6776 10.4232 21.2555
Au 10.6139 12.6699 19.7835
Au 9.67421 14.9841 18.3395
Au 8.81621 17.3187 16.8931
Au 10.7336 12.7266 22.6831
Pd 9.69783 14.9959 21.2252
Pd 8.79907 17.3382 19.7771
Au 9.83619 15.0831 24.0995
Au 8.83421 17.3519 22.6412
Pd 9.02557 17.4236 25.4901
Au 18.3087 27.901 29.0431
Au 16.8386 28.8383 26.7596
Au 15.4031 29.7079 24.4448
Au 13.9662 30.5277 22.1135
Au 21.2204 27.8911 29.0369
Au 19.7594 28.9455 26.7769
Pd 18.2928 29.8367 24.4766
Au 16.8567 30.7115 22.1519
Au 22.6764 28.8301 26.7338
Au 21.1875 29.861 24.4669
Au 19.7488 30.7562 22.1483
Pd 24.0724 29.6724 24.3987
Au 22.6472 30.6979 22.1193
Pd 25.4752 30.4912 22.0515
Au 18.2805 11.701 29.0643
Pd 16.8847 10.7879 26.7937
Au 15.4565 9.84698 24.5054
Au 14.0477 8.99256 22.1615
Au 21.2136 11.6671 29.0958
Au 19.739 10.6316 26.847
Pd 18.321 9.70731 24.5515
Au 16.9196 8.80224 22.1968
Au 22.6697 10.7531 26.8105
Au 21.2243 9.68965 24.5409
Au 19.7755 8.77801 22.1923
Au 24.1147 9.86838 24.4947
Au 22.6745 8.82725 22.1873
Au 25.5513 9.02491 22.1369
Au 18.2861 27.8224 10.424
Pd 16.8547 28.74 12.6891
Au 15.4074 29.6635 14.9797
Au 13.97 30.5238 17.3496
Pd 21.1961 27.7974 10.4282
Au 19.7675 28.8836 12.657
Au 18.3141 29.8409 14.9418
Au 16.8612 30.7154 17.3004
Pd 22.6429 28.7444 12.7127
Pd 21.2224 29.8029 14.9767
Au 19.7756 30.7454 17.2948
Au 24.0903 29.6585 14.9979
Au 22.6344 30.6885 17.3195
Au 25.4969 30.5197 17.3568
Au 18.3443 11.6758 10.4889
Au 16.8927 10.7246 12.7632
Au 15.4628 9.80794 15.071
Au 14.0693 8.97966 17.4189
Au 21.2622 11.6878 10.4914
Au 19.7948 10.6185 12.7342
Au 18.3493 9.6501 15.0547
Pd 16.9289 8.83638 17.4039
Au 22.7023 10.7623 12.7746
Au 21.2445 9.67672 15.0552
Pd 19.7837 8.80774 17.4012
Au 24.1267 9.86345 15.0734
Au 22.6576 8.84882 17.383
Pd 25.5298 9.05131 17.4226
Au 28.2836 15.8909 26.4882
Au 28.2679 23.6814 26.5259
Pd 27.449 13.5987 25.0771
Au 27.4111 26.0102 25.0831
Au 26.5525 11.2794 23.6754
Au 26.4813 28.3288 23.6091
Pd 26.0044 14.4719 27.4253
Pd 25.9456 25.0822 27.4159
Au 25.1306 12.1296 26.0051
Au 25.0742 27.4501 25.9705
Au 23.6633 13.0419 28.3127
Au 23.6385 26.523 28.2756
Pd 28.2593 15.8781 13.0353
Au 28.2879 23.6453 12.979
Au 27.4182 13.5382 14.4401
Au 27.3963 26.0002 14.4201
Au 26.5208 11.2511 15.8932
Pd 26.4697 28.2754 15.8706
Au 25.9436 14.4377 12.1249
Au 25.965 25.0791 12.058
Pd 25.0621 12.1345 13.5784
Pd 25.05 27.4111 13.5309
Pd 23.6197 13.0522 11.2925
Au 23.6168 26.4911 11.2083
Au 11.2222 15.892 26.5095
Au 11.217 23.6193 26.4867
Au 12.0862 13.5194 25.1176
Pd 12.0654 25.9631 25.0682
Pd 13.037 11.2239 23.6614
Au 12.9689 28.2756 23.6117
Au 13.5492 14.4302 27.4616
Au 13.5007 25.0986 27.4141
Au 14.4571 12.0902 26.0152
Au 14.3943 27.4358 25.9737
Pd 15.9182 13.0638 28.2979
Au 15.8562 26.5452 28.2883
Pd 11.2712 15.8628 13.0246
Au 11.2329 23.5679 12.9773
Au 12.1273 13.4997 14.4151
Au 12.0419 25.9466 14.3615
Au 13.0484 11.2027 15.881
Au 12.9572 28.2921 15.8132
Au 13.5754 14.3936 12.1018
Au 13.5361 25.0546 12.0451
Pd 14.4792 12.0799 13.5701
Au 14.4174 27.4125 13.4612
Au 15.9331 13.0029 11.2715
Pd 15.9004 26.4551 11.1945
Pd 33.4341 19.6927 11.2945
Au 33.6278 19.7108 14.023
Pd 33.6508 19.7215 16.8458
Au 33.7445 19.7234 19.7315
Au 33.7497 19.7408 22.6173
Au 33.6885 19.7702 25.4885
Au 33.4844 19.78 28.2123
Au 6.08519 19.6909 11.2373
Au 5.88338 19.6894 13.9834
Pd 5.87166 19.6975 16.8721
Au 5.81803 19.7319 19.759
Au 5.83564 19.741 22.6388
Au 5.87934 19.7453 25.4764
Au 6.05698 19.759 28.1825
Au 11.2236 33.4797 19.7208
Au 13.958 33.693 19.7185
Au 16.8518 33.7627 19.7081
Au 19.7772 33.7725 19.7233
Pd 22.6825 33.6818 19.7378
Au 25.4998 33.6321 19.7342
Au 28.206 33.4605 19.7327
Au 11.3546 6.03049 19.7779
Au 14.058 5.84516 19.7737
Au 16.927 5.77884 19.7617
Au 19.794 5.77637 19.7605
Pd 22.6825 5.84664 19.7649
Au 25.5467 5.87214 19.7669
Au 28.2782 6.0828 19.7566
Au 19.7338 11.332 33.4947
Au 19.7359 14.0557 33.6789
Au 19.7531 16.9064 33.7451
Au 19.7726 19.7959 33.7593
Au 19.7887 22.692 33.7361
Au 19.7909 25.5527 33.6492
Au 19.792 28.254 33.4379
Au 19.8002 11.2914 6.11112
Au 19.7909 14.008 5.91699
Pd 19.7829 16.8443 5.91122
Pd 19.7652 19.6814 5.8725
Au 19.7499 22.5422 5.80867
Au 19.7533 25.4074 5.83234
Au 19.7499 28.1462 5.99808
Pd 31.3496 18.3795 29.1813
Au 29.1119 16.92 30.1649
Au 26.7762 15.4567 31.0982
Au 24.4005 14.0275 31.9637
Pd 22.025 12.6379 32.7603
Pd 31.3387 21.2129 29.1665
Au 29.1654 19.8054 30.279
Au 26.8671 18.3352 31.2629
Au 24.4859 16.8731 32.1556
Pd 22.0846 15.4532 32.9263
Pd 29.0245 22.6824 30.106
Au 26.8211 21.2992 31.2402
Au 24.5095 19.8501 32.1825
Au 22.1301 18.3604 33.0413
Au 26.7181 24.1381 31.051
Au 24.4685 22.736 32.094
Pd 22.1265 21.2847 32.983
Au 24.4114 25.546 31.9109
Pd 22.1232 24.1419 32.8918
Au 22.0751 26.9606 32.7468
Au 31.3158 18.2778 10.2977
Pd 29.0036 16.8436 9.42123
Au 26.7128 15.4129 8.52068
Au 24.413 13.9926 7.65193
Au 22.0978 12.5979 6.81872
Au 31.337 21.1238 10.275
Pd 29.1136 19.6989 9.2906
Au 26.8175 18.2351 8.31969
Pd 24.4783 16.7928 7.48386
Au 22.1468 15.4024 6.6071
Pd 29.0451 22.5695 9.36736
Pd 26.8037 21.1624 8.33247
Pd 24.4708 19.6948 7.41822
Au 22.1182 18.2758 6.5454
Au 26.7309 24.0108 8.40721
Au 24.4671 22.5884 7.38027
Pd 22.1017 21.15 6.56025
Au 24.3848 25.4426 7.52941
Au 22.1138 24.0048 6.54506
Pd 22.0304 26.8228 6.74372
Pd 8.18409 18.3658 29.17
Au 10.4386 16.9098 30.1628
Au 12.812 15.4552 31.0712
Pd 15.1291 14.0454 31.91
Au 17.4302 12.6337 32.7833
Au 8.15366 21.1697 29.1878
Au 10.3703 19.7695 30.2684
Au 12.6772 18.3205 31.2418
Pd 15.0549 16.8615 32.0734
Au 17.3712 15.4556 32.9601
Pd 10.4392 22.6012 30.0967
Au 12.6575 21.2259 31.2169
Au 14.9819 19.7806 32.1839
Au 17.3712 18.3055 33.041
Pd 12.754 24.0583 31.0225
Au 14.9888 22.6819 32.1364
Au 17.3942 21.232 33.072
Au 15.0995 25.5355 31.9468
Au 17.4074 24.1424 32.9947
Au 17.4876 26.9768 32.7804
Au 8.22733 18.2637 10.2635
Au 10.5118 16.8448 9.36163
Pd 12.8484 15.4132 8.50494
Au 15.1797 13.9834 7.61586
Au 17.5049 12.591 6.8018
Au 8.21727 21.1054 10.2549
Au 10.425 19.6947 9.22508
Au 12.7498 18.2418 8.29193
Pd 15.0944 16.8126 7.47008
Au 17.4292 15.3978 6.6002
Pd 10.4839 22.5123 9.36994
Pd 12.7337 21.1461 8.31836
Pd 15.0504 19.6905 7.42215
Pd 17.4356 18.2501 6.56944
Au 12.7672 23.978 8.41543
Pd 15.0476 22.573 7.42897
Au 17.3903 21.1148 6.50105
Au 15.1027 25.4174 7.51854
Pd 17.4161 24.0115 6.57988
Au 17.4449 26.8414 6.6818
Au 29.2102 31.3653 18.3131
Au 30.1531 29.0873 16.866
Au 31.0609 26.7734 15.4226
Au 31.9488 24.4009 13.9766
Au 32.784 22.0188 12.5719
Au 29.2045 31.3826 21.1547
Pd 30.2143 29.1554 19.7368
Pd 31.1774 26.85 18.2708
Au 32.1434 24.4994 16.834
Au 32.9869 22.0728 15.3988
Au 30.1424 29.1121 22.6115
Au 31.2214 26.8735 21.1894
Au 32.1773 24.5268 19.7579
Au 33.0624 22.091 18.298
Pd 31.0425 26.7775 24.0378
Au 32.1345 24.5372 22.6462
Pd 33.0205 22.1012 21.1969
Au 31.9549 24.4591 25.4932
Au 32.9988 22.1477 24.0807
Au 32.8032 22.0979 26.9229
Au 10.2202 31.3652 18.2966
Au 9.28437 29.0559 16.8385
Au 8.3965 26.6764 15.3718
Au 7.56211 24.3288 13.951
Au 6.75448 21.9948 12.5437
Pd 10.2782 31.3217 21.1415
Au 9.16831 29.144 19.7397
Au 8.20985 26.8103 18.256
Au 7.34322 24.4324 16.7912
Pd 6.59143 22.037 15.3649
Pd 9.35139 29.0173 22.5991
Au 8.21761 26.8081 21.2195
Pd 7.33375 24.4388 19.7401
Au 6.46774 22.0582 18.294
Au 8.41668 26.6927 24.0615
Au 7.34708 24.4286 22.6751
Pd 6.51011 22.0577 21.2144
Au 7.56526 24.3481 25.483
Pd 6.59216 22.0585 24.1003
Au 6.74679 22.0348 26.8878
Au 29.2686 8.21345 18.3532
Au 30.1923 10.459 16.9306
Au 31.1058 12.776 15.4714
Au 31.9567 15.115 14.0111
Au 32.7534 17.4114 12.6092
Pd 29.2301 8.23321 21.1746
Pd 30.2538 10.4436 19.7633
Pd 31.2097 12.7104 18.3324
Au 32.1472 15.0496 16.8736
Pd 32.8929 17.4075 15.4097
Au 30.2024 10.5083 22.6152
Au 31.2396 12.7373 21.2058
Au 32.1751 15.0408 19.802
Pd 32.9721 17.3972 18.3196
Au 31.1156 12.8365 24.0584
Pd 32.0797 15.0816 22.6648
Au 33.0186 17.3757 21.2138
Au 31.9606 15.1448 25.481
Pd 32.9219 17.4215 24.0761
Au 32.7924 17.4778 26.9035
Au 10.3425 8.10815 18.3577
Pd 9.41839 10.3987 16.9043
Au 8.47537 12.7089 15.4236
Pd 7.62442 15.0735 13.9836
Au 6.77333 17.3841 12.5549
Au 10.3354 8.1166 21.1914
Au 9.24676 10.3164 19.7626
Pd 8.33058 12.6336 18.2881
Au 7.38545 14.9545 16.836
Au 6.55318 17.3379 15.3975
Au 9.36399 10.419 22.643
Au 8.2781 12.6551 21.2248
Au 7.33903 14.9854 19.7714
Au 6.48132 17.3621 18.3277
Pd 8.4775 12.7858 24.0752
Au 7.37808 15.0101 22.6673
Au 6.47751 17.3845 21.2032
Au 7.5732 15.1367 25.5122
Au 6.55297 17.4 24.0976
Au 6.75362 17.4696 26.9044
Pd 18.3729 29.2176 31.3241
Au 16.8985 30.2014 29.0708
Au 15.417 31.1148 26.742
Au 13.963 31.9749 24.3941
Au 12.53 32.7962 22.0387
Pd 21.1832 29.2139 31.3104
Au 19.7704 30.3162 29.1317
Pd 18.2857 31.2289 26.8104
Au 16.8273 32.1591 24.501
Au 15.3747 33.0083 22.1034
Pd 22.6347 30.1578 29.0275
Au 21.2307 31.2766 26.8206
Au 19.7327 32.2034 24.5043
Au 18.2903 33.0852 22.1035
Au 24.1015 31.0831 26.6901
Au 22.6986 32.1486 24.4649
Au 21.2269 33.0687 22.1028
Pd 25.4921 31.8962 24.3145
Au 24.1213 32.9598 22.0773
Pd 26.887 32.7193 21.9964
Pd 18.3336 10.3635 31.348
Pd 16.9137 9.42647 29.0653
Pd 15.4833 8.52274 26.7837
Au 14.0422 7.57051 24.4493
Pd 12.6498 6.75756 22.0589
Au 21.167 10.3083 31.4012
Au 19.7444 9.24506 29.1838
Au 18.2886 8.30793 26.8848
Au 16.8749 7.3825 24.5601
Au 15.4529 6.50992 22.1433
Au 22.6336 9.36789 29.1101
Pd 21.2183 8.33845 26.8763
Au 19.7742 7.34394 24.5492
Au 18.355 6.44625 22.1344
Pd 24.0716 8.49589 26.7587
Au 22.6953 7.39057 24.5291
Pd 21.2429 6.50538 22.1134
Pd 25.5304 7.62108 24.4004
Au 24.1389 6.54306 22.1335
Au 26.9698 6.75808 22.0702
Au 18.318 29.169 8.09981
Au 16.858 30.1078 10.378
Au 15.4152 31.0154 12.6752
Pd 13.9729 31.899 15.0606
Au 12.5307 32.7878 17.4041
Au 21.1741 29.1583 8.11673
Au 19.7586 30.2427 10.303
Au 18.2653 31.2131 12.5809
Au 16.8082 32.139 14.9291
Au 15.3683 32.9976 17.3335
Au 22.6211 30.0891 10.4018
Au 21.2346 31.2053 12.6192
Au 19.7752 32.181 14.9345
Au 18.3024 33.0753 17.3308
Au 24.0796 31.0246 12.6969
Au 22.6751 32.1256 14.96
Au 21.2272 33.0697 17.352
Au 25.5232 31.9295 15.0503
Au 24.1076 32.9788 17.3748
Au 26.925 32.7829 17.4288
Au 18.3823 10.3039 8.20155
Pd 16.9529 9.40009 10.4796
Au 15.4855 8.43181 12.7701
Au 14.0425 7.53884 15.1362
Pd 12.6625 6.75189 17.5083
Au 21.2271 10.3078 8.20704
Pd 19.7988 9.29856 10.4004
Au 18.3353 8.27 12.6851
Au 16.8814 7.34544 15.0719
Pd 15.4738 6.57488 17.4412
Pd 22.6604 9.41656 10.4894
Au 21.2723 8.28821 12.6891
Au 19.8075 7.31082 15.0707
Au 18.3541 6.48743 17.4236
Au 24.1201 8.47982 12.7737
Au 22.7266 7.37426 15.0592
Pd 21.2402 6.53058 17.4354
Au 25.5629 7.60661 15.1363
Pd 24.1519 6.61811 17.4285
Au 26.96 6.77409 17.4636
Pd 30.5993 15.9962 27.8691
Au 30.607 23.639 27.9195
Au 29.8035 13.61 26.4744
Pd 29.7424 25.9685 26.4605
Au 28.9244 11.2772 25.0612
Au 28.8454 28.3314 25.0442
Au 27.9705 8.94605 23.5932
Au 27.893 30.6363 23.554
Au 28.3441 14.4933 28.863
Au 28.2689 25.1136 28.8551
Au 27.4826 12.1387 27.4258
Pd 27.3875 27.4198 27.4056
Au 26.5277 9.76823 25.9808
Pd 26.4598 29.7697 25.9001
Au 25.9983 13.0445 29.7765
Pd 25.9207 26.4899 29.7205
Au 25.0722 10.6582 28.3247
Au 25.0674 28.8931 28.2793
Au 23.5898 11.6167 30.6448
Au 23.5966 27.9529 30.5867
Au 30.5823 15.9065 11.6163
Au 30.6145 23.5509 11.5518
Au 29.7658 13.5605 13.0209
Au 29.7496 25.9807 12.9953
Au 28.8985 11.2257 14.4826
Pd 28.8267 28.2827 14.484
Au 27.9536 8.93886 15.9666
Au 27.92 30.5911 15.8935
Au 28.258 14.4503 10.689
Au 28.2923 25.0272 10.5931
Pd 27.3827 12.1248 12.128
Pd 27.3905 27.4013 12.0846
Au 26.5107 9.80454 13.5564
Au 26.5066 29.7179 13.5267
Pd 25.9098 13.0544 9.82944
Au 25.9488 26.4706 9.70359
Pd 25.0344 10.7331 11.281
Au 25.0484 28.8322 11.1928
Au 23.6162 11.6248 8.98188
Au 23.5625 27.8739 8.87229
Au 8.89491 15.9529 27.9142
Au 8.88521 23.5618 27.8838
Au 9.73394 13.5586 26.5137
Au 9.72015 25.9357 26.469
Au 10.6585 11.1826 25.0682
Au 10.6115 28.285 25.0344
Au 11.6254 8.8866 23.6176
Au 11.5458 30.598 23.5616
Au 11.2162 14.4697 28.8989
Au 11.1816 25.0434 28.8533
Au 12.1073 12.0576 27.4754
Au 12.0394 27.4466 27.4073
Au 13.049 9.747 25.9973
Pd 13.0071 29.7628 25.9035
Au 13.6038 13.0324 29.7917
Au 13.5262 26.5207 29.7687
Pd 14.5344 10.7115 28.3158
Au 14.4408 28.9198 28.2905
Au 15.934 11.6292 30.6028
Au 15.9354 27.9737 30.6169
Au 8.97715 15.8816 11.5799
Pd 8.94863 23.4546 11.5835
Au 9.79691 13.5212 12.999
Au 9.71455 25.866 12.9447
Pd 10.7041 11.197 14.4946
Au 10.5783 28.2699 14.3896
Au 11.6403 8.87004 15.9473
Au 11.5332 30.6119 15.8728
Pd 11.284 14.4598 10.685
Pd 11.2389 24.9313 10.6218
Au 12.1372 12.0408 12.0855
Au 12.0641 27.3884 11.9946
Au 13.0619 9.73331 13.5545
Au 12.9907 29.7486 13.4648
Au 13.6222 12.9819 9.7663
Au 13.5626 26.4355 9.69135
Pd 14.5436 10.6656 11.2618
Pd 14.4919 28.792 11.1549
Pd 16.0251 11.6245 8.97239
Au 15.9134 27.8556 8.85859
