923
Atoms. Timestep: 20109
Au 19.7527 19.776 19.7664
Au 22.0579 19.7926 18.3531
Au 22.0428 19.787 21.1979
Au 17.4677 19.757 18.3292
Au 17.4531 19.7606 21.1764
Au 18.3323 22.0718 19.7543
Au 21.1764 22.0701 19.7562
Au 18.3323 17.475 19.7638
Au 21.1772 17.4899 19.7733
Au 19.7499 18.3609 22.0738
Au 19.7367 21.189 22.0657
Au 19.7524 18.3571 17.4719
Au 19.7651 21.1928 17.4695
Pd 24.3473 19.7907 16.9498
Au 24.4086 19.8042 19.7687
Au 24.3248 19.7994 22.6429
Pd 15.1969 19.7436 16.9049
Au 15.103 19.7477 19.7349
Au 15.1537 19.7435 22.5943
Pd 16.913 24.3619 19.7468
Au 19.7508 24.4458 19.7509
Au 22.5894 24.3628 19.7424
Pd 16.9215 15.1876 19.761
Au 19.7499 15.1147 19.7727
Au 22.6049 15.1945 19.7828
Au 19.751 16.9549 24.3877
Au 19.737 19.7699 24.4614
Au 19.7305 22.5911 24.3688
Au 19.7566 16.9473 15.1707
Au 19.769 19.7604 15.1003
Au 19.7808 22.6022 15.1705
Au 22.0809 18.351 23.577
Au 22.0702 21.2086 23.5679
Au 22.1001 18.3472 16.0058
Au 22.1137 21.2274 16.0071
Au 17.4126 18.3205 23.5497
Au 17.401 21.1963 23.5472
Pd 17.4424 18.309 15.9942
Au 17.4395 21.1831 15.9858
Pd 23.5243 22.1138 18.3238
Au 23.5234 22.1182 21.2076
Au 15.9939 22.0925 18.2995
Au 15.9798 22.104 21.192
Au 23.5436 17.4703 18.3269
Au 23.5311 17.4592 21.2378
Au 16.0062 17.4236 18.2948
Au 15.9808 17.4051 21.2066
Au 18.2929 23.556 22.0834
Au 21.1812 23.5452 22.0869
Au 18.2984 16.0066 22.101
Au 21.2006 16.0091 22.1246
Au 18.3251 23.554 17.4203
Au 21.2215 23.5513 17.4314
Au 18.3139 16.0051 17.4264
Au 21.2087 16.0069 17.4362
Au 26.6484 19.7755 15.5477
Au 26.7458 19.7829 18.3494
Au 26.7339 19.7956 21.2241
Au 26.6059 19.7949 24.066
Au 12.9001 19.7334 15.471
Au 12.7758 19.7394 18.3029
Au 12.7578 19.7316 21.1795
Pd 12.8541 19.7361 24.0048
Au 15.4775 26.6586 19.7559
Au 18.3281 26.7716 19.749
Pd 21.1793 26.7676 19.7444
Au 23.9989 26.6528 19.7371
Au 15.5145 12.8851 19.7598
Au 18.3335 12.7725 19.768
Au 21.1945 12.7701 19.7691
Au 24.0361 12.8931 19.7878
Pd 19.7456 15.5506 26.6823
Pd 19.7324 18.3509 26.7749
Pd 19.7282 21.1763 26.7701
Au 19.7354 24.0097 26.6618
Pd 19.7908 15.5284 12.8947
Pd 19.7927 18.3259 12.7855
Pd 19.7972 21.1798 12.7804
Au 19.7988 24.0101 12.8595
Pd 24.378 18.3461 25.0202
Au 22.0798 16.9215 25.9046
Pd 24.3653 21.2234 25.0202
Pd 22.0784 19.7763 25.9647
Au 22.0804 22.623 25.8946
Au 24.4167 18.3238 14.5754
Au 22.1146 16.9032 13.6758
Au 24.4109 21.233 14.5634
Au 22.1136 19.7714 13.5799
Au 22.1282 22.6339 13.6525
Au 15.089 18.2978 24.9771
Au 17.4122 16.9012 25.8832
Au 15.0667 21.1966 24.9825
Pd 17.3843 19.7548 25.9511
Au 17.3759 22.6248 25.8732
Au 15.1643 18.2744 14.5408
Pd 17.4489 16.8838 13.6811
Au 15.1333 21.1911 14.5293
Au 17.447 19.7182 13.5928
Au 17.4505 22.6268 13.6542
Au 24.9618 24.4314 18.3034
Au 25.8386 22.1371 16.9072
Pd 24.9501 24.4308 21.2107
Au 25.9152 22.1637 19.7797
Pd 25.8259 22.1311 22.6646
Au 14.5352 24.4203 18.2879
Au 13.6738 22.0946 16.8457
Au 14.5244 24.4266 21.1995
Au 13.5715 22.1198 19.742
Au 13.6452 22.097 22.6439
Au 24.9937 15.1387 18.3206
Pd 25.863 17.444 16.9046
Au 24.9918 15.1352 21.2774
Au 25.9393 17.4279 19.7843
Au 25.8459 17.4331 22.7047
Au 14.5691 15.1012 18.2949
Au 13.6954 17.3946 16.857
Pd 14.5445 15.1022 21.2155
Au 13.5903 17.366 19.758
Au 13.654 17.3841 22.6527
Au 18.2727 25.0001 24.4133
Au 16.8517 25.8856 22.0939
Au 21.174 24.9943 24.4116
Au 19.7432 25.9828 22.1138
Au 22.6001 25.8821 22.0818
Au 18.2984 14.577 24.4375
Au 16.8648 13.6939 22.1132
Au 21.2109 14.5639 24.4643
Au 19.7589 13.5912 22.1494
Au 22.6546 13.6812 22.1664
Pd 18.3367 24.9847 15.0883
Au 16.892 25.8715 17.3945
Au 21.2309 24.9865 15.1125
Au 19.7839 25.9654 17.3896
Pd 22.6307 25.8771 17.4156
Au 18.3349 14.5649 15.0942
Au 16.8953 13.6805 17.4049
Au 21.2426 14.56 15.1082
Au 19.7783 13.5844 17.4011
Au 22.6529 13.6672 17.4121
Au 23.588 15.9695 23.6445
Au 23.5643 23.5769 23.5933
Au 23.6028 15.9508 15.9547
Pd 23.5804 23.5992 15.9571
Pd 15.9205 15.9525 23.5925
Au 15.9023 23.5898 23.5968
Pd 15.9737 15.9376 15.9301
Au 15.9524 23.5874 15.9117
Au 28.9613 19.7553 14.1279
Pd 29.0921 19.7663 16.9406
Au 29.1202 19.7663 19.7873
Au 29.0798 19.7718 22.6429
Au 28.932 19.7763 25.4734
Pd 10.5994 19.7234 14.0299
Au 10.4377 19.7279 16.8645
Au 10.3908 19.7182 19.7387
Au 10.4233 19.7216 22.6025
Au 10.5528 19.7331 25.3952
Au 14.0399 28.9595 19.7527
Au 16.883 29.107 19.7607
Au 19.7634 29.1321 19.7503
Au 22.593 29.0878 19.7513
Au 25.425 28.9549 19.7505
Au 14.1115 10.5477 19.7508
Au 16.9377 10.4094 19.7541
Au 19.781 10.3895 19.7516
Au 22.631 10.433 19.7634
Au 25.475 10.5945 19.7758
Au 19.7249 14.1308 28.9653
Pd 19.7278 16.9272 29.083
Au 19.7241 19.7583 29.12
Au 19.739 22.6087 29.09
Au 19.7355 25.4407 28.9605
Au 19.8216 14.1124 10.6108
Pd 19.8181 16.9029 10.4865
Au 19.8282 19.7342 10.4562
Au 19.8317 22.5935 10.4568
Pd 19.7933 25.4176 10.5507
Au 26.686 18.3054 26.4517
Au 24.4173 16.8742 27.3492
Pd 22.0823 15.4813 28.2062
Au 26.6634 21.2443 26.4689
Au 24.4084 19.791 27.439
Au 22.0901 18.3414 28.3154
Pd 24.3848 22.6693 27.3592
Au 22.1064 21.2209 28.3105
Pd 22.0875 24.0752 28.1976
Au 26.7292 18.2882 13.1365
Pd 24.4448 16.8641 12.2342
Au 22.1515 15.4775 11.3853
Au 26.7307 21.2262 13.1179
Au 24.453 19.7591 12.1212
Pd 22.1632 18.3129 11.2474
Pd 24.4472 22.6544 12.1908
Pd 22.1619 21.1989 11.2324
Pd 22.1439 24.0553 11.3415
Au 12.7644 18.2972 26.3891
Au 15.066 16.8627 27.3268
Pd 17.3966 15.4783 28.1883
Pd 12.7476 21.1908 26.392
Au 15.0196 19.7639 27.4109
Au 17.3694 18.3185 28.3098
Au 15.0184 22.6547 27.3108
Au 17.3411 21.1895 28.3111
Au 17.3546 24.0777 28.1875
Au 12.8362 18.2697 13.0799
Pd 15.1383 16.8433 12.1899
Au 17.4742 15.4571 11.3777
Au 12.8146 21.185 13.0658
Au 15.1052 19.7171 12.094
Au 17.4472 18.2838 11.2379
Au 15.1066 22.6351 12.1655
Au 17.4395 21.1605 11.2191
Au 17.4461 24.0527 11.3113
Pd 26.4119 26.7449 18.3022
Pd 27.326 24.4735 16.8859
Au 28.1946 22.1358 15.4918
Au 26.3959 26.7459 21.2174
Au 27.3974 24.4946 19.7653
Au 28.307 22.159 18.3395
Au 27.2966 24.4597 22.6681
Au 28.2931 22.1772 21.2274
Au 28.153 22.1498 24.1019
Au 13.056 26.7389 18.2806
Au 12.1735 24.4316 16.8079
Au 11.345 22.0863 15.3986
Pd 13.0647 26.73 21.2036
Au 12.0609 24.4732 19.743
Au 11.1909 22.1241 18.2842
Au 12.1695 24.4318 22.6571
Au 11.1789 22.1184 21.1865
Au 11.3245 22.0862 24.0644
Au 26.4477 12.8132 18.3244
Au 27.3481 15.0974 16.8912
Au 28.1915 17.4174 15.4879
Au 26.446 12.8332 21.2786
Au 27.4349 15.0777 19.8145
Au 28.3158 17.4046 18.3529
Pd 27.3317 15.1033 22.7138
Au 28.3013 17.3799 21.2491
Au 28.1677 17.4012 24.1048
Au 13.1199 12.767 18.2713
Au 12.215 15.0459 16.8301
Au 11.3539 17.3762 15.412
Au 13.1084 12.7768 21.2212
Au 12.1018 15.0221 19.7541
Au 11.2033 17.3493 18.3064
Au 12.1825 15.0691 22.6571
Au 11.1942 17.344 21.1979
Pd 11.3252 17.3953 24.0549
Au 18.2637 26.445 26.7222
Au 16.8259 27.3561 24.4337
Pd 15.4041 28.2005 22.1115
Au 21.1829 26.4403 26.7312
Pd 19.7219 27.4526 24.4595
Au 18.2978 28.3385 22.1457
Au 22.5956 27.3604 24.4232
Pd 21.1697 28.3423 22.1247
Au 24.0282 28.2026 22.104
Au 18.2846 13.1481 26.7532
Au 16.8705 12.2005 24.4567
Au 15.4631 11.334 22.1287
Au 21.2032 13.1341 26.7747
Au 19.7705 12.1009 24.5022
Au 18.3325 11.1977 22.16
Pd 22.6666 12.2042 24.4924
Au 21.2219 11.2091 22.1723
Au 24.0963 11.3646 22.1719
Au 18.3352 26.4116 12.7595
Au 16.8836 27.3313 15.0369
Au 15.4337 28.1994 17.3723
Au 21.2379 26.4104 12.7692
Au 19.782 27.438 15.041
Au 18.338 28.3404 17.3563
Au 22.6541 27.3406 15.0856
Pd 21.2084 28.3273 17.38
Au 24.0551 28.1919 17.3937
Pd 18.3626 13.1121 12.7917
Au 16.9067 12.1969 15.0652
Au 15.496 11.3287 17.3831
Au 21.2691 13.1325 12.8118
Au 19.8146 12.102 15.0627
Au 18.3662 11.1995 17.3803
Pd 22.6949 12.2113 15.0904
Pd 21.2342 11.2127 17.3832
Au 24.0887 11.3579 17.4035
Pd 25.9217 15.9268 25.0787
Au 25.8878 23.61 25.0821
Pd 25.0601 13.6206 23.6661
Au 25.0064 25.9486 23.6192
Au 23.6158 14.4942 25.9693
Au 23.5723 25.0383 25.9647
Au 25.9342 15.9123 14.504
Au 25.9315 23.6311 14.4967
Pd 25.057 13.5987 15.9296
Au 25.0368 25.9445 15.9322
Pd 23.6319 14.4958 13.6152
Au 23.621 25.0395 13.5891
Pd 13.5604 15.9052 25.045
Pd 13.5472 23.5991 25.0434
Au 14.4621 13.6047 23.6174
Au 14.4324 25.936 23.6072
Au 15.8907 14.4983 25.943
Pd 15.8652 25.055 25.9352
Au 13.6438 15.8852 14.4509
Pd 13.5936 23.5944 14.4302
Pd 14.5104 13.5813 15.8937
Au 14.4574 25.9356 15.8592
Au 15.9627 14.4811 13.5959
Au 15.9347 25.0457 13.5548
Au 31.2664 19.7294 12.7065
Pd 31.3855 19.752 15.5033
Au 31.4667 19.7457 18.3579
Au 31.4849 19.7335 21.2214
Au 31.4282 19.7724 24.0637
Au 31.2477 19.77 26.8902
Au 8.32724 19.7163 12.5809
Au 8.13487 19.7074 15.4102
Pd 8.08215 19.7105 18.2987
Pd 8.07056 19.7164 21.1594
Pd 8.11865 19.725 24.0039
Pd 8.26108 19.7411 26.7715
Au 12.6044 31.2707 19.7247
Au 15.4407 31.4543 19.7372
Au 18.3203 31.5109 19.7409
Au 21.2011 31.4897 19.7581
Pd 24.0533 31.3859 19.7705
Pd 26.8311 31.2344 19.7703
Pd 12.7157 8.26216 19.7361
Au 15.5173 8.07126 19.7454
Pd 18.3627 8.04567 19.7444
Au 21.2042 8.04327 19.753
Au 24.0833 8.11117 19.7636
Au 26.9035 8.29618 19.7592
Au 19.7021 12.6781 31.2651
Au 19.6909 15.5002 31.4174
Au 19.7013 18.3298 31.4811
Au 19.731 21.2078 31.4915
Au 19.7334 24.0505 31.4296
Pd 19.7347 26.8467 31.2399
Pd 19.839 12.6993 8.32652
Au 19.8306 15.4805 8.1631
Pd 19.8199 18.3123 8.14134
Au 19.8077 21.1521 8.08918
Au 19.8173 24.0037 8.11006
Au 19.7881 26.826 8.25261
Au 29.0249 18.3144 27.9005
Au 26.7637 16.8495 28.829
Au 24.4346 15.4304 29.7017
Au 22.0841 14.0364 30.5167
Au 29.0136 21.2466 27.8978
Au 26.7628 19.8 28.9542
Au 24.4684 18.3455 29.8648
Au 22.1003 16.9051 30.6796
Au 26.6875 22.7144 28.8236
Pd 24.4437 21.259 29.8214
Au 22.1318 19.8023 30.7288
Pd 24.3871 24.0962 29.6703
Pd 22.1137 22.6636 30.6416
Au 22.0966 25.5079 30.5121
Au 29.0586 18.2656 11.7124
Pd 26.7557 16.8385 10.8093
Pd 24.4656 15.4354 9.93188
Pd 22.172 14.0513 9.08391
Au 29.0757 21.2015 11.6845
Au 26.8154 19.7234 10.653
Au 24.5277 18.2797 9.75985
Au 22.1884 16.884 8.90447
Au 26.7856 22.654 10.7402
Au 24.5017 21.1988 9.72785
Au 22.1895 19.7451 8.86126
Au 24.4703 24.0708 9.84598
Pd 22.1848 22.6199 8.8928
Au 22.1474 25.4672 9.02804
Au 10.4347 18.2946 27.8096
Au 12.7221 16.858 28.7802
Pd 15.0604 15.4323 29.6306
Au 17.3412 14.0386 30.4878
Au 10.4218 21.1815 27.798
Pd 12.6702 19.755 28.8546
Au 14.982 18.3161 29.8107
Pd 17.3368 16.8741 30.6347
Au 12.6948 22.6213 28.7507
Pd 14.9556 21.2055 29.7985
Au 17.2931 19.7492 30.7333
Au 14.9997 24.0861 29.6717
Au 17.3009 22.634 30.6995
Au 17.3552 25.5286 30.5321
Pd 10.54 18.2695 11.6346
Au 12.82 16.8408 10.7227
Au 15.1565 15.4195 9.85324
Pd 17.5015 14.0427 9.05025
Pd 10.5288 21.1426 11.6268
Au 12.7757 19.7135 10.5897
Pd 15.094 18.2823 9.72944
Au 17.4514 16.8726 8.87834
Au 12.7857 22.6034 10.6848
Pd 15.0791 21.1608 9.71585
Au 17.4068 19.7183 8.82219
Au 15.0887 24.0528 9.79921
Au 17.4062 22.5818 8.84116
Au 17.4243 25.4765 8.97948
Au 27.8477 29.0675 18.3061
Au 28.7748 26.8021 16.8832
Au 29.6884 24.4923 15.4611
Au 30.5456 22.1173 14.0525
Au 27.8283 29.097 21.2476
Au 28.8772 26.8239 19.7855
Au 29.828 24.5203 18.3504
Au 30.7106 22.1432 16.9173
Au 28.7698 26.8053 22.6893
Pd 29.8021 24.5337 21.2415
Au 30.7343 22.1807 19.7949
Au 29.6609 24.4921 24.1206
Au 30.6804 22.1918 22.6663
Au 30.5084 22.1648 25.5536
Au 11.5901 29.0657 18.2548
Au 10.6738 26.7566 16.7869
Pd 9.83952 24.4028 15.3606
Au 9.03791 22.0703 13.9457
Au 11.6113 29.0332 21.1901
Au 10.5478 26.804 19.736
Au 9.64247 24.4802 18.2501
Au 8.81956 22.1101 16.8351
Au 10.6892 26.7327 22.6497
Au 9.6343 24.4724 21.1931
Au 8.7603 22.0984 19.7197
Pd 9.82318 24.3986 24.0622
Au 8.81624 22.1027 22.6167
Pd 9.00241 22.0637 25.4505
Pd 27.8793 10.5056 18.3347
Au 28.8326 12.7559 16.9161
Au 29.7117 15.0812 15.4576
Pd 30.5018 17.4067 14.0589
Au 27.8956 10.5194 21.2374
Pd 28.8893 12.7553 19.8062
Au 29.8549 15.0472 18.3895
Au 30.6771 17.3924 16.923
Au 28.8204 12.8124 22.6961
Pd 29.8012 15.0525 21.2608
Pd 30.6964 17.3702 19.8218
Pd 29.6573 15.1017 24.1116
Pd 30.6389 17.3813 22.6649
Au 30.5047 17.3998 25.5133
Au 11.6882 10.4169 18.2677
Au 10.7467 12.7058 16.8121
Au 9.8703 15.0127 15.369
Au 9.05573 17.3622 13.9419
Au 11.6734 10.4209 21.2106
Au 10.6147 12.6704 19.7391
Au 9.67991 14.9873 18.2963
Au 8.82683 17.3246 16.8514
Au 10.7238 12.7212 22.6392
Pd 9.69293 14.9933 21.1821
Pd 8.79909 17.3384 19.7354
Au 9.82072 15.0748 24.057
Au 8.82371 17.3463 22.5996
Pd 9.00458 17.4124 25.4494
Au 18.2728 27.8842 29.0573
Au 16.8109 28.8258 26.7703
Au 15.3838 29.6998 24.452
Au 13.9553 30.524 22.117
Au 21.1845 27.8748 29.0618
Au 19.7316 28.9335 26.7985
Pd 18.2733 29.829 24.4947
Au 16.8456 30.7082 22.1665
Au 22.6488 28.8186 26.7659
Au 21.168 29.8538 24.4957
Au 19.7377 30.7534 22.1735
Pd 24.0532 29.6658 24.4376
Au 22.6363 30.6956 22.1551
Pd 25.4645 30.4895 22.0973
Au 18.2473 11.6841 29.046
Pd 16.8601 10.7754 26.7685
Au 15.4404 9.8388 24.4731
Au 14.0404 8.98882 22.1224
Au 21.1803 11.6507 29.0882
Au 19.7142 10.6195 26.832
Pd 18.3047 9.69951 24.5294
Au 16.9121 8.79891 22.1678
Au 22.645 10.7415 26.8065
Au 21.208 9.68235 24.5295
Au 19.7681 8.77516 22.1738
Au 24.0985 9.86165 24.4943
Au 22.6671 8.82489 22.1796
Au 25.544 9.02313 22.1401
Au 18.3186 27.8428 10.4382
Pd 16.8788 28.7557 12.6998
Au 15.4229 29.6743 14.9869
Au 13.9766 30.5296 17.3532
Pd 21.2285 27.8183 10.4529
Au 19.7917 28.8997 12.6787
Au 18.3297 29.8523 14.96
Au 16.8679 30.7218 17.315
Pd 22.6668 28.7609 12.7447
Pd 21.2378 29.8146 15.0055
Au 19.7823 30.7523 17.3202
Au 24.1056 29.6707 15.037
Au 22.641 30.6958 17.3553
Au 25.5035 30.5274 17.4028
Au 18.3794 11.6961 10.471
Au 16.9196 10.7401 12.738
Au 15.4814 9.81859 15.0387
Au 14.0794 8.9854 17.3799
Au 21.2973 11.7085 10.4842
Au 19.8218 10.6345 12.7195
Au 18.368 9.66127 15.0328
Pd 16.9391 8.84263 17.3751
Au 22.7291 10.7787 12.7708
Au 21.2631 9.68837 15.044
Pd 19.7938 8.81446 17.3828
Au 24.1451 9.87554 15.0731
Au 22.6678 8.85605 17.3752
Pd 25.5398 9.05894 17.4258
Au 28.2591 15.8809 26.5151
Au 28.2419 23.6713 26.5683
Pd 27.43 13.5913 25.0964
Au 27.39 26.0028 25.127
Au 26.5391 11.2748 23.6868
Au 26.4652 28.3242 23.6543
Pd 25.9767 14.4596 27.441
Pd 25.9161 25.0699 27.4526
Au 25.1085 12.12 26.0129
Au 25.0496 27.4405 26.0087
Au 23.6326 13.0275 28.317
Au 23.6056 26.5086 28.3067
Pd 28.2842 15.8949 13.0622
Au 28.3116 23.6622 13.0216
Au 27.4383 13.5521 14.4592
Au 27.4143 26.0141 14.4641
Au 26.536 11.262 15.9045
Pd 26.4821 28.2863 15.9156
Au 25.9722 14.456 12.1405
Au 25.9919 25.0975 12.0948
Pd 25.0856 12.1497 13.5861
Pd 25.0711 27.4264 13.569
Pd 23.6515 13.0717 11.2967
Au 23.6466 26.5108 11.2394
Au 11.1977 15.8791 26.4737
Au 11.1912 23.6064 26.4664
Au 12.0673 13.5094 25.0802
Pd 12.0445 25.9532 25.0556
Pd 13.0238 11.217 23.623
Au 12.9529 28.2687 23.6071
Au 13.5215 14.4158 27.4314
Au 13.4713 25.0842 27.4051
Au 14.435 12.0788 25.9837
Au 14.3697 27.4244 25.9726
Pd 15.8876 13.0481 28.2737
Au 15.8233 26.5295 28.2908
Pd 11.2962 15.8768 12.989
Au 11.2568 23.582 12.957
Au 12.1476 13.5111 14.378
Au 12.0603 25.9581 14.349
Au 13.0638 11.2114 15.8427
Au 12.9699 28.3008 15.8087
Au 13.6041 14.4099 12.0718
Au 13.5631 25.071 12.0362
Pd 14.5029 12.0934 13.5388
Au 14.4388 27.4261 13.4603
Au 15.965 13.0212 11.2474
Pd 15.9303 26.4735 11.1972
Pd 33.4648 19.7139 11.348
Au 33.6484 19.7266 14.0773
Pd 33.661 19.7316 16.9002
Au 33.7441 19.7278 19.7862
Au 33.7387 19.7394 22.6721
Au 33.667 19.763 25.543
Au 33.4529 19.7674 28.2661
Au 6.1162 19.7076 11.1904
Au 5.9043 19.7007 13.9357
Pd 5.88197 19.7029 16.8244
Au 5.81773 19.7316 19.7111
Au 5.82475 19.7349 22.591
Au 5.85802 19.7336 25.4287
Au 6.02572 19.7419 28.1354
Au 11.2211 33.4803 19.7202
Au 13.9554 33.6941 19.7284
Au 16.8492 33.7643 19.7288
Au 19.7745 33.7745 19.7547
Pd 22.6797 33.6843 19.7797
Au 25.4971 33.6351 19.7863
Au 28.2032 33.4639 19.7945
Au 11.3565 6.03108 19.723
Au 14.06 5.8462 19.7283
Au 16.929 5.78038 19.7268
Au 19.796 5.77838 19.7361
Pd 22.6845 5.84913 19.7512
Au 25.5486 5.87509 19.7639
Au 28.2801 6.08623 19.7639
Au 19.6844 11.3066 33.481
Au 19.6853 14.0299 33.6707
Au 19.7018 16.8804 33.7426
Au 19.7207 19.7699 33.7627
Au 19.7364 22.6661 33.7453
Au 19.7384 25.5269 33.6641
Au 19.7399 28.2287 33.4582
Au 19.8514 11.3207 6.09785
Au 19.8424 14.0376 5.90911
Pd 19.8339 16.8739 5.90898
Pd 19.8158 19.7112 5.87586
Au 19.8003 22.5721 5.81769
Au 19.8031 25.4372 5.84709
Au 19.7986 28.1756 6.01829
Pd 31.3148 18.3646 29.2244
Au 29.0737 16.9027 30.1969
Au 26.7348 15.4372 31.1187
Au 24.3562 14.0059 31.9725
Pd 21.978 12.6143 32.7577
Pd 31.3034 21.198 29.2152
Au 29.1263 19.7879 30.3169
Au 26.8246 18.3154 31.2894
Au 24.4404 16.8511 32.1705
Pd 22.0366 15.4293 32.9295
Pd 28.9855 22.6653 30.1492
Au 26.7782 21.2794 31.2725
Au 24.4634 19.8281 32.2034
Au 22.0811 18.3362 33.0505
Au 26.6754 24.1187 31.0886
Au 24.4222 22.7141 32.1205
Pd 22.0773 21.2607 32.998
Au 24.3653 25.5245 31.9428
Pd 22.0738 24.1181 32.9125
Au 22.0257 26.937 32.7729
Au 31.3504 18.3006 10.3407
Pd 29.0416 16.8678 9.45285
Au 26.7544 15.4385 8.54103
Au 24.458 14.0195 7.661
Au 22.1462 12.6262 6.81651
Au 31.3711 21.1466 10.3237
Pd 29.1516 19.7233 9.32832
Au 26.8593 18.2612 8.34606
Pd 24.5235 16.8201 7.49876
Au 22.1955 15.4311 6.61066
Pd 29.0823 22.5937 9.41056
Pd 26.845 21.1883 8.36463
Pd 24.5157 19.7223 7.43889
Au 22.1666 18.3045 6.5546
Au 26.7714 24.0366 8.44479
Au 24.5116 22.6159 7.4067
Pd 22.1496 21.1787 6.57512
Au 24.4283 25.4697 7.56123
Au 22.1612 24.0336 6.56568
Pd 22.0766 26.8511 6.76966
Pd 8.14943 18.3471 29.128
Au 10.4005 16.8895 30.1261
Au 12.7709 15.4335 31.0403
Pd 15.085 14.0224 31.8848
Au 17.3832 12.6093 32.7638
Au 8.11844 21.151 29.1512
Au 10.3314 19.7489 30.2372
Au 12.6349 18.2984 31.2161
Pd 15.0098 16.8382 32.0536
Au 17.3231 15.4308 32.946
Pd 10.4004 22.581 30.0714
Au 12.6148 21.2039 31.197
Au 14.9358 19.757 32.1696
Au 17.3223 18.2806 33.0326
Pd 12.7115 24.0366 31.0086
Au 14.9425 22.6584 32.1279
Au 17.3446 21.207 33.0695
Au 15.0533 25.5123 31.9444
Au 17.3577 24.1176 32.9981
Au 17.4381 26.9524 32.7897
Au 8.26215 18.2827 10.2216
Au 10.5502 16.866 9.32529
Pd 12.8902 15.4365 8.47434
Au 15.225 14.0089 7.59097
Au 17.5534 12.6185 6.78269
Au 8.25164 21.1245 10.2186
Au 10.4634 19.7162 9.19411
Au 12.7918 18.2656 8.26662
Pd 15.1397 16.8384 7.45053
Au 17.478 15.4257 6.58642
Pd 10.5213 22.5335 9.34481
Pd 12.7752 21.1698 8.29879
Pd 15.0954 19.7163 7.40819
Pd 17.4839 18.2781 6.56137
Au 12.8078 24.0014 8.40163
Pd 15.092 22.5988 7.42075
Au 17.4384 21.1429 6.49854
Au 15.1463 25.4431 7.5162
Pd 17.4634 24.0394 6.58325
Au 17.4914 26.8691 6.69093
Au 29.213 31.3718 18.3743
Au 30.1616 29.0968 16.9262
Au 31.0752 26.7859 15.4816
Au 31.9687 24.4164 14.0341
Au 32.8096 22.0373 12.6277
Au 29.1969 31.3833 21.2159
Pd 30.2123 29.1592 19.7974
Pd 31.1812 26.8569 18.3303
Au 32.1528 24.5092 16.8923
Au 33.0021 22.0856 15.4554
Au 30.1298 29.1101 22.6716
Au 31.2145 26.8746 21.249
Au 32.176 24.5309 19.8164
Au 33.0669 22.0981 18.3549
Pd 31.0251 26.7728 24.0966
Au 32.1226 24.5355 22.7046
Pd 33.0143 22.1025 21.2537
Au 31.9325 24.4517 25.5507
Au 32.982 22.1432 24.1374
Au 32.776 22.0878 26.9788
Au 10.2232 31.3685 18.2881
Au 9.29316 29.062 16.8219
Au 8.4111 26.6853 15.3473
Au 7.58234 24.3403 13.9187
Au 6.78029 22.009 12.5038
Pd 10.2708 31.3193 21.1331
Au 9.16642 29.1442 19.7229
Au 8.21382 26.8133 18.231
Au 7.353 24.4382 16.7583
Pd 6.60687 22.0456 15.3245
Pd 9.33901 29.0119 22.5827
Au 8.2107 26.8053 21.1945
Pd 7.33269 24.4388 19.7071
Au 6.47241 22.0609 18.2531
Au 8.39934 26.6842 24.037
Au 7.33523 24.4227 22.6421
Pd 6.50405 22.0546 21.1737
Au 7.54311 24.3367 25.4507
Pd 6.5755 22.0497 24.0598
Au 6.71989 22.0204 26.8478
Au 29.2753 8.21984 18.3685
Au 30.2038 10.4683 16.9537
Au 31.1223 12.7884 15.5025
Au 31.9782 15.1305 14.0501
Au 32.7795 17.4298 12.6557
Pd 29.2265 8.23395 21.1898
Pd 30.2549 10.4473 19.7867
Pd 31.2157 12.7171 18.3638
Au 32.1581 15.0594 16.9131
Pd 32.9088 17.4203 15.4567
Au 30.193 10.5063 22.6385
Au 31.235 12.7384 21.2374
Au 32.1752 15.0448 19.8416
Pd 32.9773 17.4042 18.3669
Au 31.1005 12.8318 24.0896
Pd 32.0694 15.0798 22.7041
Au 33.0132 17.3769 21.2612
Au 31.9399 15.1374 25.5199
Pd 32.906 17.4171 24.1232
Au 32.7661 17.4677 26.9502
Au 10.3493 8.11139 18.3032
Pd 9.43016 10.4047 16.851
Au 8.49219 12.7177 15.3715
Pd 7.64613 15.085 13.933
Au 6.7999 17.3984 12.5058
Au 10.3318 8.11419 21.1369
Au 9.24805 10.3166 19.7085
Pd 8.33689 12.6366 18.2352
Au 7.3967 14.9603 16.7843
Au 6.56931 17.3464 15.3475
Au 9.35467 10.4135 22.5895
Au 8.27362 12.6523 21.1718
Au 7.33949 14.9853 19.7196
Au 6.48668 17.3648 18.2776
Pd 8.46252 12.7773 24.0232
Au 7.3679 15.0042 22.6157
Au 6.4723 17.3814 21.153
Au 7.55254 15.1252 25.4615
Au 6.53712 17.3912 24.0477
Au 6.72744 17.4552 26.8553
Pd 18.3284 29.1962 31.3412
Au 16.8621 30.1843 29.0844
Au 15.389 31.1021 26.752
Au 13.9435 31.9666 24.4006
Au 12.519 32.7924 22.0415
Pd 21.1387 29.193 31.3378
Au 19.7338 30.2994 29.1561
Pd 18.2574 31.2165 26.8312
Au 16.8074 32.1511 24.5183
Au 15.3634 33.0048 22.1171
Pd 22.5984 30.1417 29.0621
Au 21.2024 31.2647 26.8523
Au 19.7127 32.1958 24.5324
Au 18.279 33.0823 22.128
Au 24.0736 31.0719 26.732
Au 22.6787 32.1416 24.5038
Au 21.2156 33.0662 22.1382
Pd 25.4728 31.89 24.3632
Au 24.1101 32.9579 22.123
Pd 26.8761 32.7179 22.0518
Pd 18.2923 10.3422 31.3273
Pd 16.8809 9.40942 29.0375
Pd 15.4591 8.51001 26.7489
Au 14.0267 7.5622 24.4073
Pd 12.6433 6.7538 22.0101
Au 21.1254 10.2873 31.3908
Au 19.7111 9.22824 29.1661
Au 18.264 8.29546 26.8598
Au 16.8591 7.37445 24.5282
Au 15.4461 6.50645 22.1044
Au 22.6006 9.3517 29.1032
Pd 21.1937 8.32649 26.8621
Au 19.7583 7.33638 24.5278
Au 18.3482 6.44329 22.106
Pd 24.0474 8.48463 26.7554
Au 22.6795 7.38354 24.5185
Pd 21.2362 6.50294 22.0958
Pd 25.515 7.61477 24.4007
Au 24.132 6.54105 22.1265
Au 26.9631 6.75667 22.0741
Au 18.3588 29.194 8.11678
Au 16.8903 30.128 10.3915
Au 15.4389 31.0308 12.6851
Pd 13.9877 31.9094 15.067
Au 12.5368 32.7933 17.407
Au 21.2148 29.1838 8.14417
Au 19.7911 30.2636 10.3273
Au 18.2893 31.2292 12.6017
Au 16.8234 32.1501 14.9464
Au 15.3746 33.0037 17.3472
Au 22.6533 30.1103 10.4364
Au 21.2585 31.2217 12.6509
Au 19.7904 32.1926 14.9628
Au 18.3086 33.0818 17.3555
Au 24.1032 31.0414 12.7387
Au 22.6901 32.1376 14.9988
Au 21.2334 33.0767 17.3874
Au 25.5379 31.9418 15.0992
Au 24.1136 32.9863 17.4206
Au 26.9309 32.7907 17.4845
Au 18.426 10.3287 8.18109
Pd 16.9884 9.42017 10.4521
Au 15.5128 8.44707 12.7352
Au 14.0612 7.54914 15.0942
Pd 12.6727 6.75722 17.4596
Au 21.2707 10.3331 8.19704
Pd 19.8346 9.31926 10.3831
Au 18.3629 8.2859 12.6604
Au 16.9004 7.35633 15.04
Pd 15.4843 6.58081 17.4025
Pd 22.6958 9.43756 10.4828
Au 21.2999 8.30459 12.6752
Au 19.8265 7.3222 15.0494
Au 18.3646 6.49388 17.3953
Au 24.1472 8.4965 12.7707
Au 22.7456 7.38615 15.0488
Pd 21.2506 6.53748 17.4178
Au 25.5815 7.61882 15.1367
Pd 24.1623 6.6255 17.4218
Au 26.9702 6.78188 17.4675
Pd 30.5697 15.9838 27.9047
Au 30.5759 23.6264 27.9704
Au 29.7794 13.6003 26.5023
Pd 29.7162 25.9588 26.5129
Au 28.9059 11.2701 25.0813
Au 28.824 28.3244 25.0981
Au 27.9578 8.94176 23.6052
Au 27.8767 30.632 23.6089
Au 28.3111 14.4786 28.8874
Au 28.234 25.0989 28.9004
Au 27.4552 12.1267 27.4423
Pd 27.3577 27.4078 27.4523
Au 26.5061 9.75893 25.989
Pd 26.4351 29.7605 25.9481
Au 25.9622 13.0276 29.7893
Pd 25.8825 26.473 29.7599
Au 25.0419 10.644 28.3293
Au 25.0341 28.879 28.3204
Au 23.5507 11.5976 30.6459
Au 23.555 27.9339 30.6204
Au 30.6124 15.9265 11.6518
Au 30.6435 23.5711 11.6027
Au 29.7912 13.5776 13.0487
Au 29.7729 25.9978 13.0478
Au 28.9189 11.2398 14.5026
Pd 28.8442 28.2967 14.5377
Au 27.9689 8.9498 15.9785
Au 27.9319 30.6021 15.9486
Au 28.2918 14.4718 10.7131
Au 28.3246 25.0488 10.6384
Pd 27.4116 12.1433 12.1442
Pd 27.4169 27.4199 12.1313
Au 26.5348 9.82005 13.5648
Au 26.5274 29.7334 13.5749
Pd 25.947 13.0772 9.84212
Au 25.9842 26.4936 9.7432
Pd 25.0666 10.7529 11.2859
Au 25.0779 28.8522 11.2338
Au 23.6568 11.649 8.98328
Au 23.6007 27.8982 8.90593
Au 8.86527 15.9368 27.8699
Au 8.85437 23.5458 27.8547
Au 9.70985 13.5455 26.4678
Au 9.69409 25.9226 26.4477
Au 10.6401 11.1725 25.0209
Au 10.5903 28.2749 25.0212
Au 11.6127 8.87956 23.5693
Au 11.5296 30.5911 23.5564
Au 11.1831 14.4521 28.8602
Au 11.147 25.0258 28.8356
Au 12.0799 12.0429 27.4353
Au 12.0096 27.432 27.3976
Au 13.0275 9.73544 25.956
Pd 12.9824 29.7514 25.902
Au 13.5677 13.0133 29.759
Au 13.4879 26.5017 29.7626
Pd 14.5042 10.6956 28.2818
Au 14.4075 28.9039 28.2926
Au 15.8952 11.6089 30.5758
Au 15.8937 27.9534 30.6226
Au 9.00754 15.8982 11.536
Pd 8.9777 23.4712 11.5546
Au 9.8225 13.535 12.9533
Au 9.73819 25.8799 12.9234
Pd 10.7246 11.208 14.4476
Au 10.5962 28.2811 14.3763
Au 11.6558 8.87832 15.8991
Au 11.5452 30.6203 15.8676
Pd 11.3179 14.4785 10.6468
Pd 11.2712 24.9502 10.6043
Au 12.1664 12.0569 12.0455
Au 12.0909 27.4046 11.985
Au 13.086 9.7466 13.5133
Au 13.0118 29.762 13.4633
Au 13.6597 13.0029 9.73368
Au 13.598 26.4566 9.68537
Pd 14.576 10.6838 11.2279
Pd 14.5216 28.8102 11.157
Pd 16.0657 11.6474 8.9459
Au 15.9517 27.8787 8.86409
