923
Atoms. Timestep: 21100
Au 14.8342 23.8793 30.9126
Au 17.4606 22.6219 10.89
Au 17.6438 11.2784 10.2169
Au 11.7168 10.1734 21.7826
Au 17.4186 21.1833 6.08784
Au 16.6314 24.6332 26.8495
Au 17.9364 18.825 34.7075
Au 10.6466 28.234 28.0525
Au 27.3255 23.12 21.6143
Au 26.6583 20.528 11.9245
Au 8.92032 24.4596 12.0951
Au 8.77633 22.2791 20.37
Au 14.1619 5.83875 17.6577
Pd 15.3514 13.8679 20.2365
Au 8.17353 23.9821 22.4595
Au 20.158 28.6089 10.1725
Pd 12.4216 24.0518 14.6808
Au 19.3712 13.1414 11.4514
Au 16.8601 27.4436 24.0804
Pd 10.8585 23.4522 21.5668
Au 29.3063 15.0572 12.8403
Au 28.452 14.1878 17.83
Pd 29.6614 22.8391 22.8414
Au 15.2856 6.21255 22.8931
Au 18.5992 7.45107 18.949
Au 25.6443 31.7037 19.0832
Au 19.6751 17.3928 15.1274
Au 22.7217 20.0317 5.22128
Au 17.5194 29.7599 11.0316
Au 24.7226 16.9949 22.4156
Au 7.90696 21.7126 25.5005
Au 24.786 14.8141 24.0906
Au 16.0992 32.8895 24.3011
Au 14.2832 28.6068 24.1699
Au 29.2497 14.0651 20.4451
Au 25.79 29.0433 31.4274
Au 20.4182 9.56801 19.315
Pd 13.6252 18.4864 11.7084
Au 34.3964 22.0696 22.6364
Pd 28.3401 25.4517 13.8648
Au 6.17347 17.472 15.5151
Au 13.1737 28.0443 20.5522
Au 11.4383 17.24 10.7744
Au 16.4516 9.63741 14.557
Au 26.3822 18.0639 28.2972
Au 12.4411 25.1271 30.1472
Au 13.6272 22.0139 35.0804
Au 29.3477 30.2528 17.8194
Au 22.9085 23.5683 19.9375
Au 33.7304 22.7672 25.2406
Au 8.38728 20.0644 27.6856
Au 24.8883 15.3126 6.0675
Au 13.0761 12.8056 22.2905
Au 24.4941 22.5958 5.06641
Au 27.5857 25.042 11.2506
Au 15.5711 5.64072 15.2181
Au 21.0852 25.4651 18.2827
Au 11.0634 18.72 28.7628
Au 7.90662 21.2257 22.828
Au 23.1297 7.49614 23.9869
Au 9.56016 10.3445 14.5786
Au 21.2404 13.2476 16.6923
Pd 33.0709 26.0857 22.2419
Au 24.7801 9.7196 23.7109
Au 33.8433 21.4923 17.2433
Pd 14.4051 21.6088 32.5349
Au 26.1104 22.6135 30.3745
Au 9.70545 25.7303 27.6684
Au 28.3005 12.5663 26.3447
Au 23.2781 30.509 25.5871
Au 19.9106 25.952 9.27775
Pd 14.1245 14.385 30.2024
Pd 25.4977 19.2865 23.9803
Pd 10.835 11.8444 23.731
Au 20.9559 8.58069 26.2769
Pd 17.0186 25.5698 30.409
Pd 31.8239 21.3851 21.7054
Pd 27.9706 18.8775 16.7944
Au 25.3971 31.9054 23.9041
Pd 6.03984 19.4863 22.1434
Au 17.4539 13.6989 13.4604
Pd 11.3493 18.1955 22.8675
Pd 12.7612 14.6712 20.1343
Au 10.4686 18.9363 19.8151
Au 28.7278 15.972 10.268
Au 11.4965 14.8208 31.5114
Au 6.94943 19.7499 14.4758
Au 8.87431 17.7469 15.0391
Au 12.8984 12.3232 31.2817
Au 10.4283 28.1841 14.4132
Au 16.1223 32.4281 21.5972
Au 16.4284 22.4181 14.0025
Pd 18.1504 19.0246 17.0125
Au 14.4121 30.7705 28.0144
Au 12.0057 11.4868 14.2257
Pd 14.3457 24.3036 7.8773
Au 15.9617 29.3757 16.5243
Au 18.9136 14.8286 16.0123
Au 20.0294 10.6958 15.5483
Au 10.7825 27.4015 25.49
Au 17.0879 27.086 28.0648
Pd 19.6075 15.5357 13.1678
Au 14.5795 26.7646 31.2433
Pd 14.8909 16.5046 31.688
Au 11.8088 13.6652 29.1109
Au 14.7946 25.5377 28.7031
Au 11.6348 14.4178 17.6334
Au 15.9142 8.48084 21.5972
Au 24.0615 17.5992 29.8201
Au 20.7848 11.2557 26.3386
Pd 26.4644 12.208 16.3583
Au 20.7584 31.2418 24.4502
Au 8.08575 24.2814 17.1655
Au 18.9538 29.1215 23.062
Au 29.3437 17.3834 21.9116
Au 26.6517 17.4663 6.12869
Pd 21.2251 21.1063 30.7687
Au 22.2347 18.8353 31.6176
Au 28.3476 32.1709 19.7376
Au 22.2336 10.6244 28.7024
Au 16.8505 30.1629 28.9228
Au 9.61005 21.7561 31.7576
Au 27.5207 10.8461 11.9457
Au 16.9904 23.7172 16.4136
Au 32.6076 16.6486 17.7846
Au 6.6392 22.0955 18.4328
Au 17.1745 14.8564 18.3309
Au 21.4302 27.122 27.3476
Au 28.0365 29.7317 27.5624
Pd 27.1098 20.0316 26.2468
Au 13.5665 24.9739 17.1294
Au 20.3648 17.5467 34.3872
Au 18.9854 25.5644 6.73937
Pd 25.6009 19.3045 7.70225
Au 8.86555 19.4251 30.443
Au 14.7957 28.279 28.7945
Au 19.7358 14.1245 25.64
Au 15.3331 17.3616 34.3373
Au 21.5897 31.9576 13.131
Au 20.2293 15.8454 27.7709
Au 24.5263 21.2583 19.1068
Au 5.19091 19.8802 19.5657
Pd 18.3727 18.1429 21.8201
Pd 14.4877 22.7012 15.901
Au 20.9651 10.6277 12.6723
Pd 15.1045 29.3667 12.0579
Au 7.20512 16.921 26.1825
Au 32.3096 18.2268 25.9003
Pd 12.0776 15.3463 22.7898
Au 14.8606 11.9484 15.5968
Au 25.4996 21.0527 21.8361
Au 21.3939 33.4024 20.2265
Pd 19.3487 15.8368 23.1877
Au 7.29212 14.6421 24.5417
Au 17.3446 18.0642 27.7024
Au 20.7443 32.2565 15.7155
Au 11.384 19.163 12.96
Au 9.10424 16.8972 24.1422
Au 10.6263 15.5299 15.4162
Au 12.1196 30.2907 21.4667
Au 13.3773 12.997 12.2334
Au 11.403 27.8552 22.6569
Au 8.40862 15.4743 21.8067
Au 19.7748 32.3028 18.3321
Au 27.8434 31.1286 22.2652
Au 16.8586 5.62945 17.7321
Au 22.4921 21.3246 33.0926
Au 13.7046 15.0954 27.4828
Pd 12.4251 29.846 18.6313
Au 30.0088 30.0821 20.4722
Au 31.162 28.3047 18.5245
Au 12.1432 11.4544 17.0094
Au 18.3233 14.2549 9.27956
Pd 31.495 27.8716 21.188
Au 23.1018 17.4549 15.0568
Au 29.2041 25.5026 16.5172
Pd 23.7409 27.5568 30.475
Au 9.66858 18.049 26.4811
Au 10.9953 20.7263 7.98515
Pd 8.70672 26.6497 15.8055
Au 24.7549 18.4883 12.8006
Au 23.224 25.927 32.5211
Au 20.3692 20.24 34.3259
Pd 15.0693 19.0901 32.3276
Au 30.714 11.9498 21.4731
Pd 14.8868 27.9047 14.6387
Au 18.224 25.0729 24.8142
Pd 14.9547 16.311 19.0429
Au 9.35523 10.9918 21.063
Au 33.8599 21.2203 14.6355
Au 30.13 14.5324 15.4077
Pd 8.5687 18.4363 22.0556
Pd 14.9914 14.8728 13.4312
Pd 13.6729 27.7407 17.475
Pd 27.4458 25.7594 22.2573
Au 12.8334 11.9131 19.7072
Au 10.1021 17.2984 17.5004
Pd 17.313 19.0392 30.2307
Pd 18.6631 21.3271 30.4258
Au 11.2288 27.3808 9.0233
Au 21.0541 13.6922 9.10685
Au 22.2924 16.4538 32.9495
Au 23.5826 31.706 28.0527
Au 12.457 21.0942 11.0551
Au 25.6837 12.6577 10.705
Pd 19.1636 9.01842 11.2755
Au 11.8727 22.6367 16.9993
Au 12.8087 18.9122 9.01297
Au 16.9705 6.06352 20.6484
Au 19.2132 8.64603 13.962
Au 14.2906 31.2741 17.2491
Au 14.8103 22.0677 6.06435
Au 30.6941 16.3737 19.741
Pd 19.2449 27.133 30.0713
Pd 15.3367 7.98147 16.3161
Au 30.4947 25.8004 19.1135
Au 19.8571 14.3983 18.6971
Au 21.8159 16.8348 22.4572
Au 25.0002 16.6764 8.30821
Au 28.6074 17.7541 26.8246
Au 16.4179 31.7508 12.7054
Au 25.7618 16.5397 14.6249
Au 17.6148 15.0492 27.4026
Au 16.9326 7.09989 13.3484
Au 22.0541 9.88406 24.1001
Pd 10.0949 25.0843 9.81226
Au 8.20199 17.2955 19.5363
Au 10.2236 19.658 10.3122
Au 17.9472 17.2598 9.38259
Au 15.5632 16.6323 26.0769
Au 26.5711 19.201 30.7382
Au 24.336 12.4621 19.9542
Au 33.2071 18.9622 16.1124
Au 33.5813 24.0209 18.1535
Au 21.424 7.06438 19.1727
Au 13.4441 24.1456 33.2131
Au 33.8509 19.5436 21.6165
Pd 12.5765 16.1095 13.288
Au 19.8578 23.5179 23.3399
Au 23.7046 21.4674 7.28579
Au 22.1833 10.4509 17.2671
Au 21.4265 14.2611 31.5118
Au 29.7846 26.5398 11.5133
Au 18.8435 27.9753 7.86809
Au 9.72257 15.4025 9.29217
Au 7.14608 19.1698 24.7241
Au 28.9311 27.5401 20.7811
Au 28.8477 23.6304 29.8715
Pd 23.3874 11.8339 9.14932
Au 10.4696 17.8382 8.28511
Au 29.4986 9.77168 22.5207
Pd 10.056 12.866 15.7192
Au 19.8312 16.2831 20.5553
Pd 17.3102 10.7355 22.596
Au 25.081 12.3443 22.8228
Au 14.5562 30.676 14.3804
Pd 22.0359 23.6215 31.6656
Au 15.7287 10.5363 25.0821
Au 19.8478 11.0903 21.4778
Au 13.6896 14.4515 32.9236
Au 19.827 29.7631 19.4183
Au 30.0101 19.7383 25.7392
Au 12.5321 19.6461 31.2036
Au 17.1826 16.3276 14.2272
Pd 22.3327 22.0812 9.70507
Au 26.1473 26.8406 13.138
Au 9.72998 12.8224 10.5678
Au 14.7834 10.9905 29.8353
Au 5.84857 17.1928 20.832
Au 32.7521 23.6365 15.485
Au 29.512 14.5827 23.0797
Au 27.8158 22.8285 13.1137
Au 12.6104 29.5312 15.7812
Au 23.7367 24.5023 25.4075
Pd 20.9258 25.3866 25.2918
Au 26.4828 12.1247 28.2467
Pd 9.69471 12.607 28.0784
Au 16.7857 31.5369 18.6053
Au 11.624 8.69606 13.7003
Au 11.7668 14.5953 10.8458
Au 25.3941 14.2571 29.3193
Au 26.7694 25.0831 29.0663
Pd 23.593 17.1709 24.9264
Pd 17.5606 20.4506 12.3465
Au 11.074 21.8816 13.308
Pd 21.4995 21.8889 12.5266
Au 20.8156 25.1179 33.538
Pd 23.4672 21.6498 26.8538
Au 16.4208 17.4263 23.5303
Au 14.4189 7.89779 13.5141
Au 23.3649 23.0359 14.4897
Au 19.7835 6.00438 21.0868
Au 9.73455 25.9499 20.979
Pd 24.9098 25.7541 15.449
Au 24.1272 30.6713 17.0325
Pd 19.7696 23.8817 15.8103
Au 16.1984 12.7304 8.21734
Pd 24.2684 20.55 31.1537
Pd 17.5424 23.313 29.0154
Au 13.0358 7.76511 22.4657
Au 9.98724 14.3688 24.0576
Au 19.2073 23.0661 5.69682
Pd 22.0134 19.708 25.5358
Au 30.1029 23.4488 14.844
Pd 22.0788 24.2542 27.5671
Pd 20.2583 8.29997 16.9244
Au 14.6139 17.6557 14.3765
Au 17.919 7.3314 15.9581
Au 24.9057 27.7628 17.2265
Au 25.9602 30.5466 29.1665
Pd 26.0631 18.8406 18.7207
Au 21.8028 22.8199 17.6477
Au 16.8773 28.2398 30.8077
Au 24.0411 18.9324 20.5754
Au 10.4844 19.303 32.7373
Au 26.2656 25.3767 26.3467
Au 28.9527 28.099 13.4522
Pd 13.2297 19.4276 19.7339
Pd 14.7861 21.9829 23.6467
Pd 20.5044 31.1616 21.601
Pd 16.0342 13.4758 10.9918
Au 17.6405 28.2221 18.4155
Au 26.0769 8.86701 13.3365
Au 22.6437 14.6898 26.3371
Au 23.5657 27.4053 25.7053
Pd 13.6973 9.28432 20.2505
Pd 22.9312 21.3005 21.3257
Pd 31.9236 25.9815 16.8458
Au 16.2236 17.1574 16.6804
Pd 9.96905 16.6123 12.9108
Au 17.3132 20.5617 32.6728
Au 23.1523 23.9543 11.6945
Au 29.8973 11.8664 18.8751
Au 25.1298 10.0712 10.9451
Au 12.8095 20.6632 15.1306
Au 32.9485 25.386 25.0209
Au 13.5608 26.0557 12.6317
Au 25.9051 14.0719 26.4423
Pd 30.1917 28.211 28.6392
Pd 14.897 26.6632 22.3124
Au 6.1482 22.0985 21.0359
Pd 19.7977 22.3604 32.7821
Au 27.4714 19.1249 14.0458
Au 23.8827 28.9982 27.9688
Au 15.6143 20.2395 34.8111
Au 18.6775 13.4626 32.4326
Au 27.3681 15.4782 7.89341
Au 23.5459 14.4499 10.0306
Au 28.8118 22.1309 10.6987
Au 24.7609 28.7056 14.6335
Au 13.9 19.4798 22.4044
Au 23.3445 17.1755 10.5888
Au 25.9028 22.4124 25.6817
Au 12.019 29.9243 24.2487
Pd 15.2718 17.9969 9.42241
Au 27.3669 29.6419 19.9129
Pd 17.269 15.5515 21.2678
Pd 13.1419 8.34521 17.8771
Au 22.7814 19.7958 28.8667
Au 18.5568 30.4252 16.764
Pd 11.6698 24.0739 11.9478
Pd 23.5247 20.8941 16.5311
Pd 21.6498 12.05 19.3992
Au 23.5952 30.3184 30.4563
Au 21.5626 26.6387 7.34451
Au 22.5114 27.7005 15.9739
Au 15.5763 11.6899 12.9909
Au 11.3506 13.5155 8.37454
Au 12.1886 11.6429 10.1768
Au 11.8211 17.9515 15.2946
Au 17.3966 18.9336 14.4554
Pd 15.4994 24.7615 24.1442
Au 19.458 24.6812 31.3077
Au 15.6513 12.7279 31.7759
Au 30.0167 19.9874 8.78718
Pd 20.8972 19.1942 21.1808
Au 10.2246 12.3875 18.8491
Au 11.1417 24.3375 25.8248
Pd 19.4845 16.1021 32.1158
Au 21.1868 29.9525 27.0779
Pd 16.1621 29.1643 26.3968
Au 13.3437 11.8902 25.0026
Pd 28.5921 16.7845 14.8373
Au 18.8196 12.0756 7.80823
Au 24.4637 7.94721 21.6439
Au 21.554 8.69967 21.7014
Au 17.6046 22.8042 20.6693
Pd 15.7868 18.0916 20.9824
Au 26.9147 28.4242 22.4219
Au 25.7726 23.6093 19.4465
Pd 29.3555 20.9292 17.911
Pd 10.3377 25.5336 13.979
Au 14.0558 17.4986 6.9028
Pd 18.5129 16.7523 29.6881
Au 23.8451 12.5137 27.6136
Au 29.242 12.1299 16.233
Pd 14.2394 10.2473 22.8818
Au 16.2828 6.10638 25.3716
Au 26.1575 8.22801 19.3305
Au 19.0243 23.459 18.4133
Au 13.1158 21.8877 21.4291
Au 28.3799 30.1395 15.2097
Au 8.63176 17.4231 10.6128
Au 18.0282 6.02611 23.2376
Au 13.2739 17.1628 21.1526
Au 11.1777 11.0001 26.4996
Au 28.1671 18.6655 23.9934
Au 8.29873 22.0348 13.2371
Au 30.6326 13.9907 25.6818
Au 33.0739 26.3257 19.5055
Pd 28.3181 26.9517 24.6012
Au 17.5949 14.5512 6.66794
Au 20.8211 13.8204 21.3198
Au 24.9515 16.3985 19.6773
Au 28.4434 21.3859 15.4423
Au 22.6694 26.3331 23.4075
Au 17.4987 19.8918 9.5376
Pd 14.0057 21.3374 18.1219
Au 26.5502 25.5618 17.6052
Au 28.3101 15.2757 25.5969
Au 27.3181 23.68 8.72244
Au 16.0958 8.30493 26.9226
Au 19.8102 20.77 10.7464
Au 12.6678 16.0003 8.56968
Au 26.738 34.1472 18.9278
Au 22.4862 23.7079 22.7233
Pd 15.7183 20.3007 16.0191
Au 17.6944 12.1228 15.6226
Pd 18.7376 31.8403 14.1064
Pd 22.678 14.5024 18.9117
Au 25.9842 18.2819 10.2995
Au 32.3725 20.8526 26.8453
Pd 21.2577 21.1553 23.2687
Au 21.3156 32.6287 26.8138
Pd 13.4476 10.1455 12.3169
Au 16.622 31.8325 26.6993
Au 27.3551 27.8091 11.0048
Au 8.73971 19.3546 12.5633
Pd 18.3574 21.3453 15.5031
Pd 16.5419 12.2742 18.0754
Pd 15.0558 23.8989 21.5024
Pd 18.6289 25.828 17.1532
Au 15.1873 20.6165 10.7344
Au 27.1086 8.50441 22.1965
Au 26.2848 17.1075 25.422
Au 23.9806 6.60662 19.3909
Au 27.3102 16.9662 12.3566
Au 11.3855 19.8098 17.3797
Au 19.9401 24.4909 20.8282
Au 22.9619 13.7726 7.12453
Au 20.4774 16.0177 10.5406
Au 19.5507 18.9883 32.0587
Pd 16.488 30.2838 23.8809
Pd 28.3343 9.83367 20.1547
Au 21.492 30.2756 17.4008
Au 26.8967 26.2518 8.83172
Pd 22.704 31.0214 19.9017
Au 23.1312 22.4448 29.4884
Au 28.6076 26.5892 30.2534
Au 22.8548 30.4115 22.8569
Au 16.403 27.0738 12.5973
Au 24.0057 15.6241 16.8268
Au 15.6512 28.6428 9.33102
Pd 26.6888 29.7255 17.244
Au 18.3365 24.3358 34.0487
Au 14.9155 20.1761 13.4322
Au 10.3537 25.4475 23.5187
Au 27.6031 32.2648 17.0722
Pd 25.9598 22.9354 10.9025
Au 13.8881 24.2787 26.1702
Pd 21.1642 13.135 28.1965
Au 8.1704 12.6979 22.8635
Pd 28.1274 23.2598 17.8177
Au 7.76655 19.9244 19.923
Au 17.0061 8.38506 24.1079
Au 25.2325 23.5679 23.2528
Au 25.6928 11.4343 25.7548
Pd 9.25278 21.662 17.6808
Au 13.7817 27.0413 8.01906
Au 26.8637 23.7771 15.518
Au 28.2166 13.399 10.9786
Au 28.0023 10.1019 17.5323
Au 13.0669 20.6231 28.6173
Au 24.6725 20.727 9.79468
Au 15.0753 25.1283 14.7482
Au 20.4638 14.7289 34.087
Pd 21.9582 15.8051 5.62908
Au 12.4247 26.2901 27.5146
Au 17.2596 17.4487 32.4278
Pd 28.299 19.9956 28.741
Au 15.5196 21.1135 20.4855
Au 17.5726 24.5858 9.03832
Au 24.5729 13.893 14.7942
Pd 17.8299 27.6605 15.4207
Pd 21.5674 22.747 25.3528
Au 29.7047 24.5542 9.54079
Au 28.8143 17.4747 29.5405
Au 22.69 27.7563 9.7451
Au 24.1033 27.9773 21.7321
Au 16.4925 22.0471 25.908
Au 18.8314 22.077 8.3477
Au 15.0176 29.6197 21.7714
Au 19.9529 18.7631 23.8488
Au 26.4749 14.3304 12.8389
Au 21.0308 20.7398 7.6417
Au 28.825 18.703 19.4236
Pd 22.3514 16.2258 8.21954
Au 8.40044 14.83 11.7058
Au 23.2173 12.3048 24.8914
Pd 18.6374 18.962 7.20808
Au 26.0883 26.4065 31.4358
Au 13.6895 9.8096 26.9703
Pd 12.7715 25.4555 10.008
Au 14.7311 14.8457 6.84579
Au 23.8202 21.4577 24.1676
Pd 25.2314 30.5936 21.5799
Au 8.05893 19.201 17.2427
Au 24.1368 21.4829 12.2923
Au 22.2897 17.0029 19.7978
Pd 13.5802 17.8488 27.4722
Pd 27.4474 21.3 23.6979
Au 28.1611 29.196 30.1832
Au 27.9778 11.9866 21.8423
Au 14.3619 8.03644 24.8273
Au 13.8783 13.5964 9.2561
Pd 24.8941 23.5941 27.9044
Au 32.2194 19.3464 13.6291
Au 7.73736 24.5105 14.4671
Au 13.7174 17.2434 24.0342
Au 18.4089 32.0278 23.1649
Pd 29.2894 22.2647 7.87909
Au 32.5713 15.6722 25.031
Au 13.5162 21.6307 26.1091
Pd 18.9052 20.8972 22.2871
Pd 15.9286 22.9931 34.2323
Pd 26.1423 28.1265 26.276
Au 15.4218 11.3183 20.6383
Au 17.6645 30.371 20.9148
Au 23.8333 12.6229 17.1498
Au 11.8253 26.2654 18.9966
Pd 22.1366 26.0493 20.8053
Pd 18.5673 25.1715 11.7359
Au 26.1699 33.1391 21.3949
Au 26.181 27.7813 29.0207
Au 25.0951 33.3523 16.9652
Au 26.3782 21.2478 17.1947
Au 21.041 16.7055 25.2141
Pd 22.3015 6.39729 16.7083
Au 13.8628 31.7467 22.9172
Pd 18.6018 30.1965 25.6446
Au 12.451 27.9438 29.9542
Au 19.2804 11.7527 18.0051
Au 20.8414 21.2404 27.5882
Au 20.866 23.7213 7.75407
Au 21.0391 27.3733 32.0597
Au 30.2342 17.6562 12.7305
Au 21.9639 14.5008 23.739
Pd 17.413 19.3861 25.2932
Au 21.3902 11.6039 7.37986
Au 18.2593 11.044 12.9398
Pd 25.4436 24.2264 13.1899
Pd 19.02 28.8422 28.018
Au 20.155 18.2914 18.6597
Pd 17.0248 21.5329 18.017
Au 32.3597 23.7351 23.0209
Au 23.2349 12.0241 11.8014
Au 24.6692 16.2256 27.4329
Au 15.9365 24.4142 12.266
Au 22.6496 11.4639 21.9336
Au 26.4548 16.4747 30.597
Pd 15.5164 23.595 18.7135
Au 12.9257 13.846 15.0811
Au 20.013 19.0771 29.3021
Au 21.2512 19.182 16.3063
Au 20.4726 18.4779 9.30208
Au 24.9035 25.8842 10.7158
Au 16.1609 22.2382 8.4672
Au 19.0182 31.5991 28.0375
Au 24.4528 28.4804 11.7123
Pd 12.545 26.7428 15.1691
Au 17.8985 25.1766 14.2962
Au 14.1861 6.47047 20.2979
Au 7.87038 21.8635 29.6781
Au 11.0146 9.75948 19.0284
Au 24.0837 15.2853 31.4273
Au 11.6769 7.44631 20.137
Pd 19.1417 23.2342 26.6456
Au 29.6084 16.6054 17.2928
Au 15.9985 14.4153 15.9305
Au 21.341 28.5462 21.6102
Au 21.2559 31.4059 29.4908
Au 18.1684 16.0716 34.6101
Au 22.4738 9.57067 10.5375
Au 31.3872 19.9485 11.1363
Au 16.3192 9.30417 11.7865
Au 15.6214 12.7735 23.1865
Au 31.9872 13.5661 23.3107
Au 23.4431 9.90642 26.3831
Pd 22.4933 32.8043 17.7285
Pd 28.1096 25.0311 19.8057
Au 10.4421 21.2909 29.2356
Au 31.4392 21.217 15.9098
Au 25.7657 30.9039 26.4787
Pd 26.3502 14.2087 21.1794
Au 20.2512 13.907 6.38205
Au 21.6054 17.4308 12.8125
Au 15.347 26.0089 10.1136
Pd 28.9113 24.4627 27.086
Pd 21.2715 16.2773 17.1499
Au 31.9862 23.8284 20.3126
Au 23.5478 18.2183 17.7379
Au 27.6427 15.3966 28.2228
Pd 10.6613 16.4772 20.8023
Pd 13.8518 22.6165 13.0137
Au 12.5855 25.5209 21.6205
Au 25.858 24.631 6.59956
Au 9.68631 19.7885 24.3684
Au 16.9086 14.8748 24.328
Au 20.4636 21.8951 20.3249
Pd 22.9582 19.1086 23.0768
Au 12.1245 26.5357 32.3392
Pd 12.9512 26.2608 24.4104
Au 17.5403 9.72793 17.1291
Au 17.352 25.4552 19.5007
Pd 15.786 13.3012 26.1555
Au 34.4913 24.2735 20.9135
Au 21.8067 14.2221 12.1353
Au 29.671 20.7311 13.0379
Au 19.25 6.40917 12.4042
Pd 20.6105 12.206 23.8107
Au 12.6971 28.7063 13.1452
Pd 15.6919 16.2932 28.9669
Au 11.7103 23.0862 9.19588
Pd 24.4911 19.1311 26.5572
Pd 27.2069 16.0855 23.0087
Pd 14.842 15.3591 22.3438
Au 8.18969 14.8197 14.4735
Au 19.3193 25.5027 27.9373
Au 17.7724 11.666 30.3241
Pd 23.8313 8.33664 17.4117
Au 9.79343 23.9365 29.941
Au 30.7525 16.2642 27.2241
Pd 22.7845 15.0776 29.0414
Pd 27.2082 13.3865 24.0149
Au 20.1052 13.0045 14.1295
Au 5.58942 20.042 16.8612
Pd 10.432 20.6532 21.8536
Au 24.3038 24.6979 30.4274
Au 24.1808 30.9471 12.8966
Au 15.8008 21.2492 30.2348
Au 11.7637 25.2352 7.51852
Pd 26.1991 27.0522 19.908
Au 18.1501 21.678 34.9182
Pd 21.7873 22.4649 5.51064
Au 7.96569 13.2642 17.3819
Au 27.409 22.4157 27.9542
Au 18.6997 7.1723 25.7962
Pd 16.1923 11.0507 27.5996
Au 14.1343 31.5479 19.9989
Au 12.8793 6.88562 15.474
Au 10.5019 28.4382 19.9847
Au 27.4366 10.4965 24.0369
Au 33.6396 19.177 18.838
Au 17.4567 25.2348 22.1944
Au 29.7676 11.992 24.0678
Pd 19.0102 22.6898 13.1914
Au 23.0186 18.9492 8.41052
Au 29.173 20.2907 21.7862
Au 16.2367 14.7891 33.5086
Au 6.05555 14.5134 21.9408
Au 22.4113 6.17762 21.6519
Pd 17.7354 27.2334 10.1799
Au 18.6707 32.9661 20.6438
Pd 31.2639 22.3543 10.0531
Pd 22.3327 25.0108 15.9567
Pd 19.7559 16.0917 7.84387
Pd 19.8621 26.4852 22.9053
Au 24.1014 33.8396 19.5874
Pd 7.83842 15.954 16.9454
Au 10.7399 13.8325 13.176
Au 5.85982 17.6497 18.1602
Pd 27.3289 20.7099 9.12228
Au 16.7443 24.0032 6.45088
Au 20.002 29.4266 14.7829
Au 27.6805 16.2628 19.8658
Au 7.23238 17.0367 13.0094
Au 12.4162 22.4417 30.8026
Au 8.48009 24.4854 25.2453
Au 26.3591 8.33191 16.3921
Pd 26.0661 15.421 10.4131
Pd 20.3372 26.5697 14.7877
Au 31.0085 26.4975 26.6012
Au 25.4292 13.7082 8.20297
Au 21.8795 28.5015 12.98
Au 21.4818 7.86239 12.4623
Au 15.9709 26.36 17.0542
Au 9.77248 22.2611 10.8682
Pd 21.0673 24.3658 13.4858
Au 30.9105 23.463 17.5842
Pd 24.0359 15.6772 12.6927
Au 19.1084 16.627 5.4495
Au 9.0067 14.9873 26.7507
Au 21.7161 25.7413 29.8783
Au 31.3926 18.9359 20.5365
Au 28.3167 26.9823 27.4162
Au 31.1598 14.2397 17.9669
Au 9.71855 20.3557 15.1709
Au 19.9271 20.4086 5.24049
Pd 24.0654 26.1693 28.081
Au 6.43667 16.9314 23.3925
Au 23.5651 14.6096 21.5125
Au 7.77285 12.9912 20.2074
Pd 11.7493 21.7187 33.2985
Pd 31.3021 19.0707 23.293
Au 25.4692 26.411 23.931
Pd 14.7316 26.1047 19.5837
Au 13.0083 19.9679 6.36946
Au 21.4599 28.6737 29.5561
Au 26.4354 21.9689 6.82932
Pd 23.5597 9.58414 13.0369
Au 15.2433 29.2099 19.1377
Pd 15.7932 19.1764 18.5736
Au 14.9098 22.7883 28.2507
Au 33.6412 17.6071 23.4639
Au 14.682 10.4799 17.9227
Au 23.3083 26.2131 13.3863
Au 18.4205 13.3513 22.7444
Au 23.2219 12.6847 30.2519
Pd 31.4905 16.8989 15.2624
Pd 14.1471 13.5486 17.8205
Pd 16.4695 26.5645 7.65406
Au 16.5467 31.9149 15.6558
Pd 19.1132 29.8589 30.4843
Au 14.7146 18.676 29.752
Au 22.7648 18.8816 34.1777
Au 25.7516 14.2027 18.3241
Pd 13.6697 21.3924 8.52293
Au 30.7817 18.9208 28.1731
Pd 13.5254 9.63937 15.379
Au 19.0432 27.7475 12.6755
Au 14.3275 23.2768 10.426
Pd 21.246 16.7996 30.234
Au 31.7173 16.155 22.4247
Au 24.2861 7.45352 14.8428
Pd 14.7877 19.4767 25.0243
Au 10.4881 13.502 21.3687
Pd 16.9836 14.9825 30.9872
Au 13.8287 14.5509 24.7593
Au 12.8003 16.7738 29.9927
Au 13.6794 16.0037 16.4278
Pd 19.8065 18.7984 26.6808
Au 21.0782 21.7265 15.2504
Au 24.7215 25.3088 21.33
Au 17.3017 22.733 23.4485
Au 12.5224 17.2097 32.7477
Au 17.1006 27.7541 21.1742
Au 18.8695 32.9509 25.606
Pd 22.0956 20.1876 18.893
Au 21.2132 26.2654 11.6022
Au 8.97469 23.0906 27.5161
Au 34.1706 21.7936 19.9615
Au 18.0242 12.0263 25.0656
Au 15.5412 20.0535 27.5489
Pd 23.8767 17.7806 6.05684
Au 10.2047 26.5822 30.2607
Au 9.37555 14.9299 19.0264
Au 22.316 19.611 11.188
Au 10.8733 24.1892 32.3629
Pd 10.041 22.6066 24.0074
Au 8.9004 12.4508 25.5655
Pd 23.2509 9.56171 19.7756
Au 24.498 23.4479 17.0259
Au 25.3133 10.4798 18.1737
Pd 18.1426 20.8075 27.8079
Au 23.4393 32.8653 21.9683
Au 20.4898 7.14354 23.7067
Au 18.3664 16.8356 25.4868
Au 33.3407 16.9893 20.4719
Au 24.6182 29.1991 19.3835
Au 15.8924 8.0443 18.89
Pd 18.4027 26.7202 32.6368
Au 30.5894 25.3992 28.9366
Pd 30.2042 16.9171 24.609
Pd 24.993 29.1823 24.0733
Pd 12.4013 17.0234 18.6267
Pd 23.8629 25.7143 18.5469
Au 10.5827 10.7843 12.1137
Pd 27.6431 24.1597 24.379
Au 17.214 29.623 13.8625
Au 31.6066 23.6356 26.7707
Au 11.4578 6.42368 17.7017
Au 25.6988 10.383 21.0357
Au 17.4286 15.6687 11.5075
Au 25.6635 21.4089 14.5279
Pd 27.5821 10.3402 14.8389
Au 9.14126 10.6949 17.1717
Au 17.2418 23.1586 31.8738
Pd 18.3197 9.74488 26.5229
Au 31.194 27.191 23.9069
Pd 13.7613 12.4233 27.7047
Pd 19.2763 21.1749 25.0789
Au 10.8084 28.0529 17.1265
Au 10.9779 8.83008 16.3506
Au 11.0076 26.8684 11.7555
Au 13.3107 28.049 10.5644
Au 30.171 21.8326 28.1694
Pd 27.3627 14.4779 15.4059
Au 15.6203 19.6708 7.35536
Au 18.0214 12.9196 20.2295
Au 12.1913 20.9742 23.8556
Au 28.6786 19.0399 10.9975
Au 31.075 18.8462 17.7198
Au 19.0188 27.4647 25.7273
Au 28.4056 27.6375 18.1277
Au 31.4129 21.6547 24.4648
Au 16.7207 17.0653 6.8638
Au 25.4325 20.6716 28.6171
Au 10.7292 21.298 26.4565
Au 6.518 15.1056 19.2243
Au 16.2451 18.025 11.9967
Au 18.7311 8.36013 21.733
Au 11.1101 16.0941 28.0312
Au 7.27005 22.0469 15.7881
Au 19.23 14.1378 29.7933
Pd 23.1695 24.4655 6.60762
Au 20.3167 23.2348 29.2884
Au 22.023 8.7955 15.0299
Pd 19.4163 9.68672 24.0801
Au 28.0839 19.8766 6.61196
Pd 13.8092 18.6858 16.9631
Au 20.528 11.8782 30.6096
Au 27.2028 12.1532 19.25
Pd 12.7402 23.6826 23.6355
Pd 16.5181 20.0714 22.8135
Au 11.5922 16.2769 25.3869
Au 17.1671 9.29043 29.1965
Au 19.0335 18.0835 11.8595
Au 12.1084 9.47846 24.4795
Au 21.2904 28.487 24.5456
Pd 22.4789 25.0542 9.39795
Au 21.9396 15.0561 14.7339
Pd 30.0487 19.0708 15.1837
Au 25.8697 31.3634 15.0521
Pd 27.3216 21.063 19.7872
Au 26.7207 29.6296 13.0271
Au 16.0274 25.407 33.026
Pd 31.7713 21.2464 18.962
Au 27.5991 29.8963 24.7319
Au 10.2754 17.1806 30.9666
Au 33.6539 20.133 24.3917
Au 12.1067 19.0093 25.6657
Au 30.9269 26.0214 14.2354
Au 25.5524 11.7239 13.4386
Au 17.6792 17.3075 19.1465
Pd 18.5564 12.4069 27.7226
Au 31.9746 22.1115 13.0112
Pd 14.9804 26.802 26.1753
Au 29.5649 29.0728 23.0083
Pd 10.8049 25.2766 16.6581
Au 29.0278 22.2129 25.6872
Au 19.6675 5.60231 17.2058
Au 9.40421 14.8372 29.6491
Au 13.0011 28.8382 26.6415
Au 25.3657 18.9521 15.8444
Au 30.2585 24.7477 24.6593
Au 8.56345 12.4104 13.1706
Au 7.52597 24.5398 19.8213
Au 17.6815 10.0997 19.8154
Pd 19.7866 30.3257 12.2075
Au 26.6945 16.5476 17.2305
Au 18.2314 5.07565 14.7413
Au 29.5999 22.6213 20.1096
Au 32.0512 14.1697 20.5774
Pd 19.7855 20.9909 17.7642
Pd 19.9969 19.8278 13.6605
Au 26.7986 18.6008 21.4583
Au 24.5937 23.5899 8.74225
Pd 22.5466 30.2311 14.9098
Au 14.8902 11.1473 10.2286
Pd 20.0964 27.9815 17.2046
Au 22.8033 19.9329 14.0581
Au 20.775 33.4852 22.9087
Au 20.5836 6.38644 14.7192
Au 30.2784 24.0159 12.1589
Au 20.4524 11.1174 9.90691
Au 27.2817 27.5308 15.5668
Au 22.9062 32.9698 24.5924
Au 18.1916 19.9937 19.8631
Au 29.8835 28.8022 25.841
Au 24.3615 26.4437 8.004
Au 23.4054 32.7268 15.0167
Au 22.2504 28.0485 18.9146
Au 8.98846 26.543 18.4781
Au 19.5934 27.0846 20.0357
Au 19.6616 10.1124 28.7635
Au 25.452 19.9956 5.20333
Pd 28.3962 12.6485 13.7147
Au 22.6344 11.8663 14.5953
Au 14.252 15.8878 11.0372
Pd 15.9491 15.4529 9.00218
Au 12.0184 23.3275 28.1309
Au 22.3032 30.233 11.0463
Au 21.3783 29.984 31.8531
Au 24.6569 10.1918 15.5036
Pd 28.056 17.9929 8.51286
Au 12.9539 23.7528 19.4924
Au 20.2811 23.5227 10.625
Pd 10.1903 24.0309 18.9258
Au 12.3029 22.7348 6.59269
Au 24.7062 17.9374 32.3949
Au 22.2681 17.5806 27.5181
Pd 11.5197 13.6563 26.2684
Pd 30.6623 17.6731 9.9408
Au 30.1259 28.0718 15.9746
Au 21.1212 18.1744 6.44412
Au 13.0667 19.4984 34.0733
Au 16.1776 13.3654 28.9474
Au 30.2532 25.4114 21.9309
Au 12.0364 10.9684 29.056
Pd 8.57882 17.2464 28.7277
Pd 11.3529 21.5309 19.4494
Pd 9.8216 23.1335 15.3206
Au 14.2735 31.0942 25.4286
