923
Atoms. Timestep: 20801
Au 18.1359 10.216 30.2463
Au 26.7669 22.8367 26.6668
Au 30.5431 13.5744 14.0832
Au 12.9424 7.40403 16.438
Au 13.9015 14.6483 10.5601
Au 19.3817 6.34506 21.5316
Au 23.6309 21.767 29.7627
Au 15.4231 10.9726 26.8316
Au 20.1965 14.5037 12.1518
Au 8.13778 30.0651 17.1635
Au 21.9092 15.3014 32.5674
Au 12.8813 25.1442 22.1546
Au 14.1822 25.8486 12.3322
Pd 13.0898 12.8433 20.5569
Au 23.9734 29.3017 10.6762
Au 19.1543 15.1002 25.5676
Pd 5.92671 15.8071 18.8555
Au 21.4622 25.2112 29.4074
Au 29.4904 25.8805 22.4959
Pd 20.0638 7.77813 13.5316
Au 16.5996 15.0766 24.3334
Au 19.4388 17.7357 12.2878
Pd 17.298 27.3609 10.5275
Au 23.3509 6.92879 24.4062
Au 24.0574 24.751 30.0157
Au 19.3013 19.8304 17.8753
Au 12.5598 18.2615 22.0806
Au 29.8452 27.2706 19.7531
Au 12.6108 17.116 27.0447
Au 18.1762 20.7942 24.8667
Au 14.7222 30.9081 23.5067
Au 24.751 22.2414 10.1736
Au 5.92443 22.1954 17.1973
Au 8.50039 18.1049 25.2871
Au 7.61259 27.2107 17.1386
Au 29.7352 18.2059 27.3897
Au 28.3084 14.079 26.2599
Pd 10.1369 24.714 23.264
Au 22.217 18.7598 6.07401
Pd 18.7753 23.886 14.3525
Au 9.78789 10.8075 26.2452
Au 24.3002 32.3013 25.5833
Au 21.7595 20.3319 34.4966
Au 17.4387 12.5472 24.6457
Au 17.8452 8.35064 17.9893
Au 17.2391 19.558 15.5047
Au 10.6913 11.3366 21.4999
Au 19.7534 18.4505 14.8656
Au 12.4598 11.5815 26.0936
Au 29.1785 15.3313 18.0519
Au 22.645 8.90206 28.769
Au 24.8159 10.0126 11.7958
Au 19.4369 29.0189 19.2267
Au 21.7665 18.989 23.0688
Au 29.0433 21.9528 19.6814
Au 6.44333 13.2965 19.8125
Au 29.2868 16.5157 12.5253
Au 29.0812 28.5728 22.1422
Au 24.651 16.8354 9.85578
Au 27.1327 20.3005 10.8062
Au 10.7945 20.2587 22.9289
Au 16.168 19.1908 22.3902
Pd 17.7723 14.0238 13.8819
Au 29.4142 27.5751 26.7207
Au 24.1656 15.2147 20.0544
Pd 23.8016 24.2492 12.0291
Au 6.52725 27.1448 22.6135
Au 16.5348 31.4868 16.3347
Au 26.92 19.9304 20.3652
Au 23.2264 11.4764 25.1286
Au 16.5378 16.0575 9.25062
Pd 29.5185 22.4705 25.5206
Pd 16.3894 23.5802 12.4204
Pd 13.6681 18.1497 29.5087
Au 9.31764 17.6803 10.2162
Pd 7.42019 24.6923 23.493
Pd 14.6762 22.6776 16.5642
Pd 16.8465 16.1064 18.6512
Au 23.6078 11.0338 13.9957
Pd 27.8424 24.1245 24.2481
Au 11.0748 27.1602 22.6045
Pd 23.5003 13.9744 23.7854
Pd 15.1596 28.5598 25.0885
Au 28.2894 29.2967 15.4993
Au 29.0492 11.3986 13.1557
Au 27.6206 9.73702 22.8383
Au 27.7343 20.3716 30.1043
Au 26.0431 19.8882 13.2781
Au 10.697 29.0311 24.4911
Au 15.1816 9.43818 16.3586
Au 19.3144 25.0306 17.018
Au 26.627 6.5095 18.3784
Pd 23.5508 34.7736 21.9569
Au 19.4376 27.1674 26.8037
Au 22.1829 20.3172 10.3542
Pd 11.1977 20.5166 18.1829
Au 28.6941 16.7704 25.2299
Au 19.8602 6.03563 15.604
Au 32.8461 23.3852 19.7885
Au 11.7666 32.4273 19.4283
Au 8.08386 22.3002 18.7033
Pd 26.8202 18.2491 8.88115
Au 23.2946 27.4099 8.58001
Pd 13.1872 19.7607 27.4434
Au 16.697 17.8301 24.6845
Au 18.4342 23.4815 23.6192
Au 23.5081 11.2949 27.9793
Au 30.8361 15.2018 26.5128
Au 28.3341 8.57458 18.1479
Au 31.47 16.1465 14.0046
Pd 14.3427 33.553 20.0682
Au 12.644 24.6591 16.4959
Au 25.7794 10.4757 20.882
Au 19.1748 31.3506 17.6189
Au 11.0409 12.073 28.4005
Au 24.2398 32.86 20.1821
Pd 20.6703 17.3837 4.39269
Au 25.0188 28.2914 20.2323
Au 14.0879 23.7827 14.2002
Au 15.2453 16.9264 11.7044
Au 14.6203 27.9136 10.5105
Au 21.572 15.7088 19.2187
Au 14.9905 14.1376 31.1933
Au 27.9578 15.7877 10.2212
Au 16.1704 27.6246 13.073
Au 22.9962 27.3099 30.4768
Au 10.4024 13.2468 17.1132
Au 24.7869 20.9863 25.6787
Au 26.2959 15.6801 18.3697
Pd 27.6571 25.3264 16.0615
Au 26.5934 10.401 13.8308
Au 33.557 19.9248 22.4764
Au 14.5219 21.3865 12.8172
Pd 15.6919 20.2845 28.4226
Au 22.5163 16.0749 5.80478
Au 28.5648 13.1569 28.9361
Au 28.909 22.9249 28.356
Au 13.3251 23.8512 29.077
Au 25.3952 11.56 9.70389
Au 14.9117 16.7705 22.7145
Au 28.9952 13.8178 11.8994
Au 16.1688 22.3327 30.1177
Pd 23.4594 19.9492 8.09056
Pd 26.6218 19.3264 22.9724
Au 18.5506 22.1228 6.63939
Pd 26.7364 18.861 25.6397
Au 22.0032 22.1433 21.029
Au 14.3418 8.44134 26.974
Pd 17.1235 13.8672 21.9839
Au 24.2121 13.7844 32.2521
Au 11.8633 9.08413 26.4599
Au 27.4287 22.7662 9.55354
Pd 30.4812 27.7357 24.2528
Au 7.90005 24.1742 16.706
Au 30.1726 26.2437 12.7928
Au 6.75947 20.1076 13.3705
Au 30.551 17.86 17.8421
Au 10.126 23.6102 15.109
Au 18.6626 34.3747 22.2408
Au 26.3752 33.3271 21.8355
Au 30.0368 10.6882 18.0925
Au 19.3566 26.7189 29.9976
Au 18.6808 10.6873 19.3653
Au 23.4743 32.7819 17.4935
Au 21.4177 25.8877 21.8543
Au 16.1549 9.21083 13.6374
Au 21.1977 25.0905 26.6033
Au 32.7663 21.0593 28.4958
Pd 13.8173 20.5687 22.9998
Au 16.9331 21.1128 11.2371
Au 16.5385 33.4514 26.8555
Au 21.5916 16.4244 13.414
Au 26.4663 18.1623 31.2779
Pd 17.1747 11.2905 15.0089
Au 8.37916 14.8443 17.949
Au 21.9154 7.71785 21.9841
Pd 17.1352 23.6666 16.6783
Au 21.7686 17.8729 31.2308
Au 17.5865 29.0196 26.4552
Pd 32.181 25.0789 22.1425
Au 16.3961 29.2435 8.92209
Au 24.2286 19.39 21.7582
Au 19.387 14.9604 28.3188
Pd 19.638 26.3278 19.9125
Au 11.1375 26.2398 25.385
Pd 11.4926 11.2048 18.827
Au 19.4581 18.3543 24.7684
Pd 23.5638 22.0809 16.8909
Au 11.1585 9.77466 23.9214
Au 20.1213 26.1734 24.1815
Au 28.084 32.1416 20.0291
Pd 14.5041 15.6739 25.7779
Pd 26.0419 13.1797 19.6162
Pd 14.0832 9.90263 24.6579
Pd 12.911 18.4166 16.5996
Au 19.2814 12.8645 7.0473
Au 18.8633 18.7902 22.0844
Pd 15.2229 14.8572 20.3626
Pd 14.5098 26.2416 28.6393
Au 10.1992 19.1686 20.5749
Au 20.9332 10.7988 29.6599
Au 28.7094 24.6679 30.3729
Au 9.81915 32.4373 17.2933
Au 19.1058 31.2468 12.3681
Au 10.4498 19.2905 12.199
Pd 26.35 16.3138 26.6776
Au 32.8845 24.5684 17.1773
Au 18.8244 29.6865 9.97015
Au 25.4188 20.7401 31.5473
Au 33.4668 21.7233 25.9397
Au 21.5673 29.8723 17.581
Au 23.9694 15.0368 7.77451
Au 24.3778 23.2296 32.2097
Pd 10.3266 16.5519 21.8394
Pd 24.1102 18.0491 13.083
Au 27.8878 8.37017 26.9613
Au 27.6309 12.4473 21.8133
Au 32.2662 22.7094 15.1773
Au 19.906 9.81334 10.9065
Au 24.0298 32.4056 22.8896
Au 19.0049 22.9059 11.6853
Au 16.5391 29.9651 11.609
Au 25.9271 25.655 23.0593
Au 14.63 15.6909 28.6742
Au 17.0741 23.2105 21.1404
Pd 19.6497 29.1979 24.4382
Au 21.6445 22.9807 30.9862
Au 9.90404 30.6193 19.2319
Au 15.8692 9.36954 29.045
Au 22.2891 8.98722 12.5511
Au 17.1008 16.1913 27.0106
Au 28.8812 19.3468 12.8166
Au 28.9016 12.845 19.3269
Au 11.7358 12.8405 10.4702
Au 30.0794 30.1367 20.041
Au 27.9017 12.0087 24.6187
Au 23.7844 30.218 15.8958
Pd 20.3071 24.0671 7.31504
Au 32.6182 15.2167 21.3579
Au 15.5711 10.7403 9.03024
Au 8.35658 10.9541 23.7967
Au 10.7934 8.44648 17.8817
Au 11.935 30.9422 16.976
Au 27.6374 13.1914 9.59841
Au 25.8799 22.1742 14.9793
Au 19.1741 10.5712 16.6193
Au 15.5738 18.2979 17.196
Au 17.1042 6.15535 19.6583
Pd 17.1596 29.8851 23.7579
Au 26.1927 16.7525 23.8577
Au 12.5481 6.67228 19.0717
Pd 14.1121 11.8161 11.0663
Au 22.6085 10.494 10.3016
Pd 14.4645 20.2496 15.3
Au 15.8769 12.0511 29.4766
Au 25.8253 29.1413 14.3204
Pd 22.9559 30.0709 26.0662
Au 15.3032 13.1024 15.4293
Au 22.0936 30.3487 28.8636
Au 33.1603 17.2719 23.0372
Au 31.1999 11.6361 20.411
Au 27.2396 8.0648 20.6176
Au 15.3737 7.49666 24.6078
Au 9.52217 17.0359 19.0884
Pd 16.2649 15.6472 16.0087
Au 22.7857 8.06654 18.7326
Au 21.5643 7.44701 26.6303
Au 8.866 24.7346 25.7829
Au 20.5833 29.9073 14.2717
Au 31.6272 27.6776 21.7358
Au 20.3218 9.94952 21.7506
Au 16.2531 32.3709 21.6316
Au 15.6268 30.976 26.1893
Au 14.7881 24.0091 7.98893
Pd 26.5175 13.6004 30.7879
Au 30.4244 16.4429 20.3697
Pd 28.0494 17.5066 19.4636
Au 17.2021 15.471 32.3395
Au 25.2695 27.139 12.336
Au 25.6323 21.9058 21.9
Au 25.8524 7.35546 23.1029
Au 29.4126 21.7302 11.2773
Pd 28.2803 25.1138 26.7613
Pd 17.2188 26.7748 28.3376
Au 25.4229 11.8434 23.4352
Pd 13.0967 28.8866 23.2622
Au 19.9282 19.4552 32.3799
Pd 14.7295 12.9876 25.1543
Au 9.93996 13.6199 12.4428
Au 23.1205 17.8452 19.9206
Au 12.828 13.251 13.0575
Au 12.299 20.815 25.2107
Au 11.8307 22.5364 13.1923
Pd 27.19 21.443 24.4275
Au 23.6972 13.8141 26.7296
Pd 19.9782 20.2138 27.407
Au 11.0131 14.5737 14.7148
Pd 26.4034 16.0042 29.6832
Pd 31.3507 17.5504 25.248
Au 12.8363 11.8465 23.2507
Au 19.5656 19.4365 5.86896
Au 29.1444 24.4658 10.83
Pd 18.73 28.5323 12.4585
Au 23.4546 9.49128 16.4628
Pd 20.4383 29.8046 26.8028
Pd 17.7564 27.0113 17.6764
Au 23.3096 26.1511 13.9374
Au 17.4877 18.2099 31.9546
Au 21.2336 24.323 18.9396
Au 20.3373 12.4527 20.5723
Pd 24.644 19.4206 10.6001
Au 18.8045 16.2124 23.143
Au 14.7249 21.6658 9.40576
Au 8.70637 26.2634 21.4678
Au 23.093 25.4593 24.4611
Au 15.4256 20.3817 25.4966
Au 31.5789 21.1955 23.9724
Pd 29.1997 19.4744 24.6806
Pd 32.38 18.4398 20.4609
Pd 15.5007 13.8547 17.9439
Pd 9.63715 13.6186 26.6855
Au 32.3041 27.2152 16.9086
Au 21.7251 15.4791 29.7508
Au 30.2363 20.5749 29.1469
Au 30.2857 25.6452 17.5997
Pd 18.9027 21.7012 15.9296
Pd 11.5214 17.2907 14.7187
Pd 30.0931 13.8469 21.5847
Au 12.7566 16.0036 12.7414
Pd 21.4735 13.101 28.2434
Au 28.1444 14.7391 23.436
Au 18.2815 25.6449 12.3228
Au 21.9498 18.215 25.8312
Au 23.9842 6.93298 27.619
Au 26.5867 17.6592 11.5959
Au 22.281 31.5973 13.0521
Au 29.9439 12.9396 16.6445
Au 11.783 14.7588 28.2184
Pd 8.08524 23.6785 20.9764
Pd 27.8803 11.0103 27.332
Au 19.5101 5.99941 18.3942
Pd 28.4531 19.8798 18.0298
Au 33.7861 20.8371 19.9792
Au 29.3362 9.90546 25.2636
Au 13.0429 19.5174 8.63464
Au 25.5258 11.4204 16.1018
Au 16.2763 13.3036 10.1476
Au 17.394 5.95248 16.7222
Au 25.8559 30.8007 21.2163
Au 20.8146 26.6506 7.71537
Au 11.148 17.3885 8.30014
Au 18.0983 33.8904 17.5256
Au 15.3091 28.7479 27.8529
Au 15.7579 17.1317 6.43404
Pd 16.9171 29.5246 18.1288
Au 8.84722 15.2346 28.6921
Pd 25.6562 14.5274 22.2287
Pd 15.8128 9.11839 22.439
Au 28.2426 20.5428 27.1213
Au 13.8901 33.4961 22.8667
Pd 10.0202 22.1202 10.9723
Pd 23.718 16.5385 17.5341
Pd 17.8399 13.3718 19.2883
Au 11.9719 31.4256 23.6413
Au 17.0805 18.871 19.3625
Au 31.9618 25.4699 14.759
Au 9.52021 10.7483 16.9112
Au 10.1067 18.4698 16.801
Au 7.48784 15.2171 13.4693
Au 28.7765 15.2713 30.9302
Au 13.4059 8.40662 13.9241
Pd 14.6489 18.103 20.1964
Au 19.6904 24.6451 31.6715
Au 29.2275 22.1979 31.3376
Au 24.9536 31.1256 12.714
Pd 20.504 30.3493 21.4843
Au 12.4809 30.699 14.2044
Au 26.5816 12.3877 11.988
Pd 26.3986 24.9114 11.3311
Au 25.2363 26.9234 15.7769
Pd 11.3007 15.9905 17.2512
Au 32.6446 17.3925 16.0719
Pd 20.2706 8.247 19.6634
Au 17.526 24.8446 7.35714
Au 27.6276 30.9817 13.4369
Au 18.6294 26.8231 14.8003
Au 23.105 25.2543 16.881
Pd 12.7119 12.6727 15.8544
Au 25.2836 18.1216 15.8139
Au 8.52442 13.3365 15.0882
Pd 22.7919 26.8939 11.2189
Pd 8.95179 22.2863 23.1413
Au 30.9186 16.8869 31.639
Pd 21.0071 16.9873 21.583
Au 32.5465 19.9905 15.7157
Au 30.3187 24.3842 20.278
Pd 25.5461 9.2695 27.8933
Au 6.25774 13.2566 22.5507
Au 24.7236 17.6787 7.15734
Au 28.3936 10.8067 15.8809
Au 5.41886 15.5455 21.5176
Au 7.95322 25.6291 14.5494
Au 15.2309 14.8762 13.3655
Au 24.174 5.74673 19.1179
Au 30.4255 13.4463 24.4046
Au 22.3956 17.2524 8.43691
Au 25.819 7.08449 25.814
Au 21.6428 24.9306 9.64639
Au 19.5756 15.5744 15.0894
Au 17.0768 14.9253 29.6958
Pd 21.7817 17.7314 33.9234
Au 11.0568 15.4339 10.5115
Au 21.3431 33.164 21.9275
Au 21.4081 15.9839 24.1238
Au 24.271 11.2701 18.5607
Au 25.8647 29.9511 26.0848
Au 18.3632 27.458 8.12791
Pd 19.555 17.4362 27.3104
Au 17.8869 6.50082 24.8569
Au 26.0062 20.7377 8.2287
Au 16.9521 10.2451 11.1983
Au 30.1405 12.2341 26.7561
Au 13.2891 31.338 21.2437
Au 13.4262 28.4945 12.9197
Au 26.236 18.0695 34.0761
Au 19.7113 22.8267 26.0001
Pd 19.6366 11.0098 24.396
Au 12.7047 15.6704 30.6401
Pd 23.5987 27.9276 17.8162
Pd 16.2885 19.2177 13.0591
Au 27.6909 19.8598 15.4336
Au 26.9154 18.3332 28.3784
Pd 21.2606 22.7022 28.2627
Au 18.102 8.36933 15.3373
Pd 19.3207 17.527 19.5485
Au 24.0484 18.5715 32.6315
Au 29.7391 19.2549 20.4182
Au 18.9242 32.4187 15.0494
Pd 22.5414 20.6668 32.0401
Pd 9.17019 24.0669 12.7128
Pd 22.9503 24.9917 7.21438
Pd 13.499 15.298 15.6214
Au 22.2622 13.7466 13.9423
Au 21.3307 13.3463 25.2805
Au 23.2279 21.4134 23.3402
Au 15.4307 19.6778 31.0248
Au 31.2066 16.394 28.9915
Au 10.2453 21.9111 20.4095
Au 24.4895 13.8747 17.1223
Au 15.7167 12.0879 20.2592
Au 23.9872 13.675 29.5697
Au 26.4753 22.4989 12.3154
Pd 25.6434 25.2305 25.872
Pd 21.6365 31.842 19.4519
Au 16.2276 21.7929 23.1894
Au 8.17729 17.8062 27.9873
Pd 17.5763 19.133 26.9498
Au 17.964 7.92654 11.9199
Au 12.4324 20.8851 11.0368
Au 8.74195 27.0105 24.2485
Au 17.3235 24.8149 30.3831
Au 11.5445 19.4429 6.57266
Au 19.8105 16.7274 9.76605
Pd 12.1872 22.0332 16.1691
Au 24.0907 28.5103 27.855
Au 18.8353 12.5503 29.344
Au 20.5197 19.2857 8.45159
Au 18.4619 20.9623 20.415
Pd 21.7563 22.6987 11.1676
Au 6.89456 19.9443 16.1095
Pd 10.8092 24.54 20.5228
Au 15.1607 30.1244 14.1077
Pd 10.1522 16.3646 26.6535
Au 7.21975 17.9799 20.4286
Au 20.5498 6.62286 24.1291
Au 18.9439 29.1019 28.9109
Au 13.9809 13.2165 27.7639
Pd 24.4847 6.99667 16.6783
Au 13.2029 25.3337 19.2625
Au 11.6121 28.1104 14.9832
Au 28.2564 26.9954 29.1187
Au 16.0753 35.007 22.5125
Au 25.093 23.2716 24.2083
Au 22.2996 7.35139 14.9888
Au 32.6676 14.9768 24.363
Au 17.8127 8.49371 20.7582
Pd 20.9114 22.2629 13.7307
Au 22.7455 22.6473 8.47749
Au 21.1864 9.97749 14.8804
Pd 18.0134 17.8528 7.86825
Au 6.49184 17.4741 14.7656
Au 20.9533 24.8572 12.4172
Au 8.87113 18.7374 14.4054
Pd 22.4663 12.1288 16.2721
Pd 16.3756 23.028 25.6099
Au 5.31201 20.0336 21.563
Au 10.2779 28.6321 17.3732
Au 18.5798 12.4231 11.7025
Au 5.50836 15.3372 24.3619
Au 28.289 29.4827 24.7667
Au 26.4105 28.5909 22.8645
Au 26.0005 11.5415 29.2344
Au 14.0812 10.9694 14.1721
Au 17.7805 35.0591 24.898
Au 10.6479 11.7147 14.4347
Au 19.6488 34.9728 19.726
Pd 21.8977 11.8124 22.8632
Au 10.4391 23.5078 17.8945
Au 7.2583 20.1223 26.7264
Pd 26.1768 13.9423 27.9713
Au 18.2881 19.8376 29.6691
Au 11.4691 21.8656 27.8817
Pd 23.1962 12.7667 8.8779
Au 21.8319 18.0534 28.5408
Au 9.02672 12.44 19.4359
Pd 12.5364 16.0791 23.7439
Au 14.6136 7.38897 20.6827
Au 23.6479 11.1609 30.6092
Au 26.3117 25.1784 31.4347
Pd 16.7188 11.377 17.6372
Pd 20.9879 20.3615 29.908
Au 30.1459 21.0069 16.0882
Au 10.122 26.0723 16.28
Au 22.2836 22.8841 33.7577
Au 21.1617 20.7368 25.0583
Pd 27.2931 13.3588 17.1389
Au 19.2864 27.9977 22.0809
Au 21.582 19.6358 13.0714
Au 8.62902 18.5457 22.6858
Au 17.8146 29.9005 14.5069
Pd 21.8256 28.4863 23.1471
Au 32.4641 23.7969 24.5807
Au 27.8534 26.8584 24.5743
Pd 12.1886 17.9054 10.7656
Pd 11.1027 23.2324 25.3389
Pd 28.0905 27.465 17.6275
Au 20.013 22.192 9.14519
Au 29.8903 23.9685 15.4508
Au 16.963 7.95341 26.9834
Au 15.2632 25.5056 17.1888
Pd 19.2736 12.5782 26.6749
Pd 25.5638 18.3143 18.6091
Au 9.76732 26.717 12.9197
Au 21.2475 29.615 11.4682
Au 33.3822 21.8517 17.5172
Au 20.0537 33.6703 24.553
Au 10.5088 14.0558 30.3491
Pd 16.7275 32.1193 13.404
Au 17.9998 10.466 27.5661
Pd 24.0358 16.135 28.2959
Au 27.7831 13.2155 14.4879
Au 25.4034 23.4369 7.72408
Au 27.8387 23.6206 21.5843
Au 15.8645 21.7334 6.9196
Au 27.5752 29.2996 19.7298
Au 19.3165 8.63653 25.8665
Au 10.6357 29.2284 12.82
Pd 18.905 24.9741 9.65428
Au 11.1058 29.7276 21.5283
Au 10.9239 27.2719 19.7844
Pd 22.0295 5.92711 17.3154
Pd 11.8485 25.4162 13.8658
Au 7.25694 22.5437 25.2586
Pd 12.7062 20.5181 20.5689
Au 18.3037 11.3631 9.1083
Au 4.63529 17.7916 20.2557
Au 26.4653 22.8238 29.966
Au 25.8145 27.4737 9.68215
Au 19.6287 13.5091 23.11
Au 14.0074 20.3997 18.1101
Pd 12.5687 29.5043 19.1627
Au 7.33674 12.4632 17.32
Au 22.6475 22.9346 25.6882
Au 22.155 17.7118 11.1066
Au 25.0314 13.3758 14.1628
Au 24.1051 16.2326 31.0906
Au 23.545 24.1375 22.0551
Au 27.1252 10.9195 18.3747
Au 15.4175 25.5812 20.8451
Pd 26.3844 25.0404 28.5515
Au 26.4547 15.6747 32.5336
Au 12.9152 12.8454 30.19
Au 5.97557 17.8079 25.6446
Au 27.9747 24.7074 18.822
Au 10.6585 14.5182 19.7768
Au 11.4294 19.6884 29.6575
Pd 25.6528 20.7578 28.2487
Au 13.5698 21.2711 29.7851
Au 12.8261 15.8608 20.7171
Au 12.0887 10.6282 12.4079
Au 21.7331 12.9857 31.0672
Au 28.1403 7.6454 24.4468
Au 12.9823 30.0768 25.7827
Au 7.7206 13.4495 24.7397
Au 30.3912 25.3837 28.2785
Au 15.3976 6.94597 15.1872
Au 19.9781 14.9134 5.30999
Au 5.73232 17.8215 22.9616
Pd 14.0145 26.733 15.0095
Pd 21.6171 31.2608 23.9915
Au 19.7828 31.7542 28.5252
Au 21.5755 32.3837 26.5638
Au 33.5297 18.9633 18.0409
Pd 30.0359 19.6259 31.7992
Au 19.0925 32.4636 20.2268
Au 19.9338 21.2714 22.673
Au 17.6908 6.16834 13.908
Pd 14.0223 16.9824 9.06406
Pd 30.3284 25.2229 25.1561
Au 15.9786 25.078 10.2737
Au 8.95395 16.1867 15.5815
Au 17.956 11.2165 22.0353
Pd 17.5895 27.2221 24.3283
Pd 21.5778 9.19421 24.2844
Au 8.44255 28.4571 19.5404
Au 10.5763 19.067 27.0963
Au 18.1023 25.0493 25.8657
Au 11.3534 24.5625 11.267
Au 14.3958 9.23897 11.5217
Pd 8.90707 13.3652 22.1861
Au 23.1233 30.3613 21.3892
Pd 31.3203 20.3942 18.5168
Au 17.778 21.923 27.7378
Au 24.6025 8.47238 14.1614
Pd 17.4282 16.9547 13.98
Au 21.2097 14.528 7.79592
Au 24.3144 23.301 27.6715
Au 9.93354 15.2494 24.3013
Au 16.9357 9.83626 24.8611
Pd 15.674 19.101 8.31109
Au 32.6954 16.3797 18.7053
Pd 23.961 12.5904 21.2594
Au 25.7517 26.3643 18.3858
Pd 26.7376 15.1328 12.7143
Pd 19.2976 15.0309 20.6964
Pd 7.33901 22.3434 11.965
Au 23.7316 21.4205 12.5647
Au 30.966 18.8126 22.7845
Au 31.5273 23.2253 27.0965
Pd 25.6277 24.7264 20.5175
Au 7.44519 17.6872 12.1972
Au 13.3165 25.6115 9.56932
Pd 31.1774 23.0945 29.7284
Pd 19.3261 17.2133 30.0718
Au 5.83799 19.8287 18.8024
Au 23.7264 23.4031 19.2017
Pd 16.7345 31.9988 19.051
Au 15.1806 7.08873 17.9891
Au 15.3746 33.9247 17.6117
Au 9.26461 9.12455 22.107
Au 21.0352 19.5786 20.3853
Pd 30.81 22.98 17.8723
Au 30.2721 23.318 22.9564
Pd 21.1327 10.4803 26.8364
Au 26.0564 29.2365 17.3329
Au 20.7549 33.659 17.5876
Au 6.43029 26.8721 19.9243
Pd 14.9046 14.8658 7.51838
Au 28.8257 20.9782 22.3652
Au 22.2337 14.9599 10.2908
Au 8.02164 15.3165 20.6246
Au 9.49115 20.8284 25.342
Au 24.4724 31.262 28.079
Au 5.68322 24.8001 21.4313
Au 16.726 21.1337 17.7429
Pd 7.83336 20.7507 21.1142
Au 30.3163 28.9291 17.4404
Au 30.0119 11.2405 22.8376
Au 13.8339 12.6808 8.54823
Au 15.6885 26.7204 8.21332
Au 19.9479 22.0694 32.846
Pd 21.4518 27.7657 28.4101
Au 13.8435 23.1156 24.3585
Pd 15.4815 11.687 22.9251
Pd 24.2344 18.7274 24.3316
Pd 15.7922 9.52996 19.3989
Pd 11.5011 14.0503 22.3471
Au 26.505 15.6414 8.06444
Pd 27.87 17.4877 16.8055
Au 6.17534 22.4122 22.7095
Au 21.192 11.6114 12.5209
Pd 22.1122 27.9804 15.5706
Au 7.70426 15.9846 23.2144
Au 15.2175 29.7603 20.447
Au 7.2559 17.5511 17.4057
Au 9.88341 16.504 12.7791
Au 28.6576 15.8122 28.2229
Au 8.94115 22.5889 27.3528
Au 26.7138 29.2931 11.6021
Pd 18.0238 25.6667 22.06
Pd 6.95423 20.1415 23.9734
Au 24.0431 15.4564 12.2713
Au 32.4069 26.0552 19.4978
Au 11.7718 22.6633 22.5754
Au 28.6753 20.4399 8.74268
Au 12.7604 22.7121 18.9748
Au 14.0933 16.2894 18.1223
Pd 21.1191 23.1563 16.399
Au 31.09 20.8135 13.4905
Pd 25.6087 11.8279 26.3883
Au 11.8635 27.1758 11.2974
Au 13.1556 8.18074 22.8313
Au 28.4546 30.87 17.6758
Au 18.7629 14.243 9.343
Au 25.3418 26.1601 7.30775
Au 21.0287 26.9693 17.7788
Au 21.4555 21.4505 18.49
Au 12.1878 10.0218 16.0985
Pd 19.0465 22.4511 30.1493
Au 16.6462 17.6998 29.3288
Au 25.6623 24.7518 14.1061
Au 14.2542 22.978 21.4775
Pd 18.1963 17.4705 16.8052
Pd 21.1849 23.6083 23.5088
Au 11.4128 20.0296 14.7741
Pd 17.5211 24.9296 19.1926
Au 14.2224 19.4933 6.04068
Au 33.3422 19.2465 25.0495
Au 14.1786 32.4265 15.4816
Pd 21.9729 27.6315 25.7215
Au 8.83732 25.5834 18.8668
Pd 24.4662 7.93134 20.8688
Au 7.20805 22.5851 14.6714
Au 16.5404 22.0281 14.5615
Au 30.1351 18.3092 15.0896
Au 18.6799 8.47566 23.2567
Au 10.421 12.4979 24.3069
Au 16.7385 13.5078 27.2168
Pd 28.065 26.9544 11.2268
Pd 17.386 12.824 31.5487
Pd 20.9316 27.4008 13.1861
Au 19.5836 16.7309 32.793
Pd 27.2692 25.3334 8.89552
Au 17.7679 30.1309 21.0784
Au 13.3022 9.10561 18.5792
Au 12.5939 27.224 17.422
Pd 27.3164 17.4721 14.1314
Au 24.1248 18.89 29.7972
Pd 21.0134 25.4276 15.0526
Au 15.868 24.8851 23.5304
Au 21.7807 14.8389 16.4947
Pd 23.8894 15.7818 14.9274
Au 15.5234 20.8881 20.3677
Au 13.6654 26.4291 24.2728
Pd 19.7277 23.6935 21.083
Au 24.1425 16.1893 33.9094
Pd 18.167 17.1519 5.17082
Au 13.3386 10.5333 28.5572
Au 22.7263 20.5434 27.4778
Au 15.1059 34.8976 24.9997
Pd 11.5045 8.74018 20.6234
Au 26.9903 22.763 32.659
Au 25.8837 17.202 21.1125
Au 18.9431 31.7719 23.0506
Au 26.5646 29.5313 28.7327
Au 28.6237 21.9418 13.9446
Au 23.2164 23.4123 14.5689
Pd 27.4643 27.0083 13.9464
Au 8.35223 15.2789 10.9415
Au 12.1447 18.0322 19.122
Au 32.2015 28.668 19.2769
Au 21.2292 21.3558 6.74719
Au 14.0606 29.3899 16.4738
Pd 18.7269 20.6223 13.4089
Au 19.5006 14.5576 31.1733
Au 14.7761 17.4683 14.6384
Au 14.2897 14.1573 22.7751
Au 17.1019 16.7335 21.1914
Pd 12.7239 33.6139 17.3864
Au 8.19112 20.059 10.9922
Pd 24.1958 29.8632 23.7471
Au 24.3346 29.6359 30.2493
Au 27.8333 15.1167 20.6744
Pd 19.0135 24.4906 28.331
Au 5.6528 22.2687 20.0547
Au 11.4069 32.9166 15.2118
Au 12.1915 14.2252 25.5911
Au 16.3604 25.2956 14.6047
Au 14.0627 11.5647 17.9604
Au 31.0961 20.4128 26.4929
Pd 13.8345 23.4399 11.2204
Au 24.0946 32.6299 14.7954
Pd 15.4033 23.349 18.9886
Pd 17.1884 27.6002 20.2553
Pd 28.2308 24.5172 13.3428
Pd 15.6826 27.816 22.5081
Au 21.89 28.2479 20.2263
Pd 16.2654 28.0404 15.8015
Au 17.6901 15.5404 11.6298
Au 17.2171 22.9198 9.18183
Au 29.1201 15.5733 15.2253
Au 25.8032 20.589 17.2573
Au 7.54641 11.1381 21.2637
Au 20.1497 12.8076 17.7292
Pd 10.503 19.9779 9.30592
Au 23.8673 18.7092 35.2557
Au 32.5617 18.3789 27.5472
Pd 9.94941 30.5951 15.2107
Au 33.4238 22.6305 22.3728
Pd 26.2907 9.62281 25.1263
Pd 23.6199 25.9634 27.5716
Au 26.4188 31.529 23.9649
Au 16.7164 6.53084 22.3916
Au 28.4305 31.0842 22.3579
Au 17.9736 20.4034 8.6072
Au 14.7501 19.3431 10.8121
Pd 20.211 16.9104 6.97873
Au 21.6618 5.81013 20.0622
Au 26.6381 27.465 27.0407
Au 15.4693 6.95402 12.4863
Au 14.9838 27.7142 18.6245
Au 16.6033 32.7796 24.2422
Au 24.6848 27.6177 25.061
Au 17.2413 31.1025 28.2728
Au 23.6315 12.6685 11.6543
Au 23.6979 9.06655 26.0625
Au 30.5996 16.0356 23.1397
Au 19.2943 15.3158 17.8665
Au 17.6194 21.0016 32.0172
Au 6.48011 15.0276 16.1115
Au 23.6563 5.64304 21.9794
Au 13.6616 10.2595 21.1169
Au 26.1091 5.70037 20.9298
Au 30.8216 23.5477 12.8965
Pd 26.046 31.8944 18.3873
Au 10.7465 17.1207 29.2784
Au 23.9111 16.2167 25.3827
Pd 23.2734 26.0071 19.7543
Au 31.9471 18.7829 30.076
Pd 23.8697 20.285 14.9337
Au 8.78175 28.2382 14.9352
Au 15.0961 16.8496 31.395
Pd 20.5735 8.23626 16.9348
Pd 19.9173 12.5925 14.814
Au 21.2276 29.0374 8.87563
Au 16.9601 19.5506 5.86917
Au 14.1887 22.2531 27.1129
Au 6.23357 24.5245 18.7619
Au 23.26 28.9969 13.3016
Pd 29.8333 27.0565 15.3407
Au 13.7707 18.3635 24.7188
Pd 28.8013 10.2896 20.4593
Au 22.25 34.509 19.6326
Pd 17.8795 13.5286 16.4824
Au 29.0543 17.8881 30.0493
Au 19.3214 28.8149 16.4556
Pd 25.4157 8.82527 18.5587
Au 17.7864 15.1774 6.92285
Au 27.9834 22.5402 16.9171
Au 24.4507 18.4617 27.0668
Au 23.9411 30.401 18.8142
Au 19.7921 8.64928 28.5307
Au 29.0899 18.3198 10.3605
Au 10.9295 24.5698 27.6979
Pd 24.1426 20.775 19.5568
Au 24.4503 21.0328 34.0499
Pd 15.14 17.9956 27.0577
Au 28.5956 17.4422 32.7904
Pd 23.8745 27.1346 22.3037
Au 25.5242 23.9931 17.0354
Au 13.0878 17.0918 6.55776
Au 21.4446 10.5 18.3815
Au 21.2994 20.4776 15.8311
Au 25.8954 14.1705 25.0084
Au 26.347 31.4911 15.7301
Au 16.0291 12.2866 12.778
Au 31.5342 15.0738 16.5305
Au 27.6645 20.1295 32.9695
Pd 18.984 22.7268 18.5073
Au 22.6077 34.004 24.4128
Au 9.15765 9.7594 19.5134
Au 24.0862 9.47232 23.1807
Au 26.3712 22.4161 19.2346
Pd 23.6202 16.6069 22.5475
Pd 25.5692 27.2285 29.7724
Au 22.3577 25.2561 32.1599
Au 26.3856 15.424 15.6222
Pd 8.49375 19.6998 18.5565
Au 12.094 22.8917 9.193
Pd 14.2751 31.4481 18.291
Au 25.3369 14.2581 10.1643
Au 31.433 13.9798 19.0982
Au 16.5856 12.7702 7.52282
Au 31.3772 21.3952 21.1312
Au 19.1615 33.8896 27.0565
Au 32.3274 12.855 22.6018
Au 20.7473 12.4615 9.87684
Au 16.9499 34.5571 19.9645
Au 21.5709 31.9619 15.7005
Au 27.3614 26.7237 20.8477
Au 8.71594 28.8478 22.2964
Au 20.9631 17.6378 17.3902
Au 18.6036 31.5729 25.839
Au 22.8415 10.1646 20.7257
Au 9.24731 21.2866 16.3139
Au 20.1405 27.185 10.4699
Pd 12.8148 13.978 18.2193
Au 13.3229 24.7769 26.5124
Au 22.5104 13.2049 19.0088
Pd 21.648 15.6498 26.9207
Au 29.1275 28.7825 12.9653
Au 13.4192 27.6138 20.9356
Au 16.5975 33.9443 15.2719
Au 9.28674 21.3704 13.4946
Pd 22.489 18.0079 15.291
Au 24.3939 25.0731 9.56334
Au 13.1196 21.7273 7.06564
Pd 11.0381 18.1015 24.532
Au 12.3197 14.905 8.23531
Au 13.2086 18.9243 13.0764
Au 26.5205 8.76111 16.1173
Pd 7.58718 15.6793 26.1828
Pd 19.5735 20.116 10.942
Au 15.6779 26.18 26.1676
Au 21.9169 14.4263 21.6858
Au 16.0792 24.1518 28.076
Au 9.00262 20.3357 28.7597
Au 23.1704 19.3315 17.5525
Au 13.7386 32.6921 25.4352
Pd 17.4184 18.36 10.564
Pd 18.8921 10.2224 13.3603
Pd 28.4714 17.5151 22.3098
Au 13.091 27.5685 26.7424
