923
Atoms. Timestep: 20686
Au 26.1329 17.5166 29.5841
Au 22.6412 18.0329 19.8517
Au 13.7811 14.7602 17.0911
Au 17.4757 11.2793 15.4853
Au 15.1181 22.3334 34.142
Au 18.9382 17.0081 23.667
Au 13.0908 33.0166 17.5972
Au 18.2139 29.8474 14.1341
Au 31.1536 25.3648 15.7968
Au 21.3805 20.5884 25.9319
Au 16.8669 20.2597 24.4514
Au 23.32 19.2021 17.5136
Au 11.2169 12.3043 21.5445
Pd 30.7762 25.1806 21.1828
Au 28.4576 21.3381 17.897
Au 17.6242 23.0131 20.3086
Pd 8.19646 20.8767 19.0974
Au 13.2082 14.1314 8.36858
Au 22.2679 14.6661 29.7649
Pd 17.3164 23.8957 28.1427
Au 18.9947 27.7709 21.1505
Au 32.4202 23.8361 22.9283
Pd 18.1639 31.6792 22.5504
Au 23.5167 17.7429 12.8307
Au 15.1605 6.58182 20.7883
Au 15.4512 13.1373 27.1175
Au 23.4548 17.3891 28.8869
Au 20.7179 7.68628 25.296
Au 16.0996 13.0706 17.2259
Au 10.8521 23.8882 10.0595
Au 23.3154 31.0231 12.4848
Au 23.8869 22.6231 30.4803
Au 18.0698 18.4664 21.4141
Au 25.5599 26.0797 24.2792
Au 18.2273 25.3985 11.784
Au 10.829 11.6399 18.6371
Au 9.716 23.9307 29.0889
Pd 22.1693 11.9915 16.6237
Au 16.0864 19.8319 7.74229
Pd 21.882 28.7574 12.9353
Au 20.856 12.2257 29.6271
Au 10.2004 27.8542 13.4185
Au 21.102 20.7477 6.80904
Au 28.1501 29.2669 13.6291
Au 29.0045 24.3541 30.2747
Au 29.7231 23.9021 23.3075
Au 7.5948 18.1777 26.191
Au 19.8728 34.4883 18.3254
Au 23.1559 22.7832 21.2899
Au 19.6555 8.63851 29.7648
Au 27.5189 28.0646 24.8243
Au 7.71751 19.7865 16.6976
Au 29.3215 14.2438 10.5683
Au 12.0234 21.3535 15.6703
Au 17.6314 18.4187 17.7204
Au 25.3642 22.4649 32.9344
Au 25.8051 19.0939 6.32365
Au 24.2842 15.3807 11.1222
Au 22.3291 21.0302 19.3671
Au 14.7219 27.4436 23.2264
Au 10.0561 11.9372 26.1051
Au 7.13992 15.8247 14.137
Pd 16.1607 17.8752 23.3085
Au 12.7238 23.6481 20.5875
Au 30.1252 28.9157 23.7571
Pd 13.4429 28.6807 29.3797
Au 15.8862 20.305 21.7173
Au 12.8036 10.4886 20.0985
Au 29.684 11.6655 17.1714
Au 9.92725 8.52687 16.5261
Au 24.2086 8.68387 11.6326
Pd 11.681 12.7574 24.1284
Pd 22.5979 13.4294 25.0338
Pd 26.4002 25.98 27.0436
Au 19.7761 16.8902 33.1205
Pd 23.2362 19.5438 10.47
Pd 21.8965 24.1672 10.4898
Pd 18.5188 20.9025 16.2988
Au 11.3359 26.2955 20.309
Pd 26.2185 25.3109 16.8523
Au 29.8562 14.8725 27.0181
Pd 21.8357 17.8586 23.9762
Pd 12.4864 19.1807 27.0656
Au 14.9037 9.01633 18.8968
Au 29.5653 12.3801 12.5412
Au 21.1108 11.7216 6.75601
Au 26.133 11.6061 8.5903
Au 19.6109 9.57039 10.8651
Au 8.29445 17.7705 21.729
Au 12.3948 14.4263 30.6862
Au 9.50084 19.6461 31.129
Au 8.90572 21.308 29.0244
Pd 15.1847 24.6453 29.9666
Au 10.3194 29.3087 23.5372
Au 16.9559 25.5297 16.6143
Pd 22.8182 13.1335 20.5444
Au 12.5486 17.3172 12.5758
Au 13.3301 17.6758 29.3211
Au 24.2441 26.2925 14.9914
Au 21.184 14.483 15.7268
Au 26.2408 20.1737 22.8123
Pd 25.1306 28.1268 26.4177
Au 16.5012 29.403 10.0983
Pd 30.8287 22.2113 12.1698
Au 16.963 8.81995 11.8315
Au 7.90137 17.1723 11.9077
Au 7.40361 23.4722 25.2084
Au 19.8654 26.3717 16.6776
Au 11.9175 30.7273 17.9398
Au 20.1761 14.1581 6.18387
Pd 28.5654 17.0411 13.2801
Au 16.6038 22.6889 25.8462
Au 18.1951 16.3221 30.9434
Au 29.0747 19.8765 8.88538
Au 16.1999 31.7853 26.8964
Au 13.5559 16.9159 23.9121
Pd 10.4982 19.5314 17.6113
Au 21.6347 17.1587 14.8379
Au 15.0088 19.4332 19.2343
Au 17.874 16.0286 13.9379
Au 21.1955 21.0847 9.55071
Au 14.8091 10.2724 27.6548
Au 18.4379 21.1355 22.1227
Au 31.3326 22.0315 24.7148
Au 18.5061 13.4025 25.4586
Au 21.4639 15.4636 20.088
Au 24.7751 12.6946 15.8813
Au 27.3316 20.7285 32.2859
Au 22.817 19.6021 30.559
Pd 23.7815 25.1393 26.3955
Au 14.316 25.3607 15.7343
Au 10.9205 26.7293 23.0767
Au 16.3773 20.102 27.4195
Pd 19.4151 23.0742 10.5998
Au 20.1339 6.97012 22.7518
Au 17.3836 10.639 18.4963
Au 29.6862 15.2537 20.6104
Au 25.665 14.1424 18.1983
Au 20.0364 10.1688 27.5935
Au 17.027 11.1501 26.2693
Au 11.3662 17.5189 22.0934
Au 15.0188 17.2132 17.5333
Pd 30.1059 16.3583 18.1103
Pd 26.9419 11.7796 17.9496
Au 15.4684 16.4533 30.6443
Pd 21.5852 11.0902 19.2939
Au 14.5132 11.7178 8.10883
Au 26.806 27.0753 14.5939
Pd 16.071 24.9022 19.1321
Au 28.4218 21.5036 11.2384
Au 27.0372 23.6109 23.2938
Au 26.3783 27.5708 21.9157
Pd 11.4443 18.4657 24.7221
Au 22.9273 18.3183 26.4366
Au 19.2671 16.6838 16.2408
Au 8.8012 24.624 16.7544
Au 23.8208 12.4947 29.3415
Au 9.12014 17.0041 24.1721
Au 9.42811 11.2817 23.333
Au 30.4103 19.9932 28.814
Au 15.1487 23.7908 5.97357
Au 20.3156 31.257 11.8919
Au 15.5868 13.9941 7.02709
Au 6.60374 14.3921 16.5174
Au 13.9378 11.5934 25.3897
Au 23.0321 10.5042 21.5532
Au 33.4643 17.5049 19.9373
Au 22.9231 14.219 17.9685
Pd 20.3386 24.4081 23.4804
Au 20.8797 19.0517 28.471
Au 31.3038 26.2458 23.7391
Au 15.7964 27.173 29.2204
Au 8.39641 10.471 15.1628
Pd 19.1175 23.1786 7.74583
Au 15.9488 20.4076 16.8536
Au 16.3253 27.6736 8.06357
Pd 20.774 26.3969 11.7585
Au 28.1998 14.6845 22.9223
Au 24.2184 11.7218 18.5333
Pd 29.7631 20.1829 26.209
Au 33.3021 21.2404 22.8188
Au 21.0201 23.5322 34.057
Au 27.1684 26.1916 29.6744
Pd 23.2243 28.7843 15.5018
Au 23.1345 19.2596 35.1103
Pd 20.0711 19.7402 20.0933
Au 24.4052 10.7896 13.7065
Pd 29.9952 23.1177 16.6584
Au 17.3024 8.34501 20.1714
Au 32.7471 23.5862 17.0836
Au 17.4669 10.0408 9.21158
Pd 9.86355 16.8305 13.6686
Pd 25.657 24.1524 14.3578
Pd 24.7919 23.0825 12.1205
Pd 22.5015 25.815 8.4599
Au 8.09331 17.9952 18.7964
Au 25.5109 14.2478 25.2478
Pd 21.2352 16.3034 27.7866
Pd 16.9467 18.0909 32.5264
Au 26.1634 7.94911 15.7302
Au 20.069 15.7439 35.6069
Au 11.1453 14.5667 17.5637
Au 13.3409 22.5943 30.3605
Au 16.0026 28.6853 31.4161
Au 21.6132 18.9846 32.9208
Pd 20.1451 12.087 12.1524
Au 7.70918 18.5438 14.2136
Au 13.448 28.6394 16.5116
Au 14.8693 25.4116 8.08424
Au 9.76642 26.0745 11.3615
Au 18.4521 20.9333 6.39741
Au 26.7608 24.7532 7.74725
Au 20.1591 18.7523 5.15039
Pd 21.5312 28.7629 20.8321
Pd 24.0272 31.347 15.1122
Au 17.3779 18.7326 5.21211
Au 24.5677 24.9892 10.0465
Au 13.6131 23.685 25.3095
Au 15.0074 22.2068 19.3923
Au 25.3841 31.8676 23.9595
Au 24.0354 17.6766 22.3494
Au 26.1253 29.5746 15.4783
Au 19.4482 18.9269 14.6137
Au 13.2782 15.1291 10.9605
Au 21.1672 8.0344 12.7879
Pd 16.2385 17.1473 20.0122
Au 15.2593 23.913 21.5612
Au 6.55537 11.7528 16.6445
Au 19.8715 29.5446 23.0007
Au 8.40601 22.786 14.787
Au 14.3588 23.0921 27.8812
Au 24.1301 13.3936 9.05585
Au 19.8012 21.8778 18.3968
Au 21.7961 23.8484 18.8241
Au 26.6416 8.07447 23.2161
Au 20.522 19.2478 17.2712
Au 29.9526 23.2462 19.4411
Pd 21.3565 24.004 31.0768
Au 27.2742 16.3874 17.9207
Au 28.6104 12.898 28.3874
Au 8.59172 25.5061 23.932
Au 9.37648 14.798 15.2241
Au 12.5767 9.03537 17.4193
Au 7.96457 13.1622 21.7788
Au 11.9745 8.00495 14.8494
Au 14.7506 18.4197 25.7823
Au 13.7322 15.6769 32.6244
Au 12.0403 16.5876 8.93556
Pd 20.112 17.8924 26.0567
Au 16.1991 32.5213 24.1793
Au 24.558 30.3795 17.6046
Pd 15.5026 29.8354 25.231
Au 25.708 24.8435 31.5531
Pd 25.9392 23.6472 25.7479
Au 14.6266 28.0729 26.9686
Au 21.8792 30.7311 16.9124
Pd 17.2251 34.5083 18.9863
Au 11.6044 21.5204 28.3846
Au 25.2722 8.92705 25.4611
Au 13.7507 26.735 31.1277
Au 10.6284 9.88547 13.5115
Au 21.5116 8.35868 20.8719
Au 21.4101 13.9837 34.1149
Au 15.0665 11.791 19.3925
Pd 20.6939 9.6251 23.2265
Au 22.2069 10.4507 12.0123
Au 30.7293 19.6386 11.1374
Au 19.7469 19.5925 23.8168
Au 7.17386 22.4612 17.19
Au 21.3131 19.3463 12.4843
Au 9.63208 20.3083 14.9237
Au 22.5389 31.0496 28.4761
Au 21.0547 21.5206 29.8312
Au 19.5689 14.3882 22.9595
Pd 10.8167 24.1419 18.6706
Au 8.96774 25.1905 26.7118
Pd 18.3433 11.9953 7.15648
Au 14.7687 18.6836 5.75392
Au 12.1129 21.5466 8.95994
Au 14.6709 12.7524 15.0408
Au 32.0955 21.2571 27.132
Au 29.4142 23.9815 10.4993
Pd 18.5003 20.5097 29.1815
Pd 22.0883 17.0398 10.6303
Au 27.8972 10.1987 22.0964
Pd 21.204 7.545 27.9639
Au 8.9865 13.7855 24.2828
Pd 27.611 15.5412 28.2235
Au 26.8447 28.3881 11.4772
Au 18.4661 15.6189 26.8452
Au 27.1446 23.4704 18.8371
Au 28.8375 26.6722 22.7629
Au 23.1091 25.1073 12.7189
Pd 28.5373 10.2867 19.4178
Au 12.1516 32.8618 20.1238
Pd 21.7799 18.5345 8.18481
Au 20.8938 27.7699 9.4382
Pd 13.5768 12.4332 29.0414
Pd 9.83577 19.8642 26.8269
Au 16.4138 15.4061 32.9949
Au 15.4767 25.3844 26.8096
Au 24.6126 19.8395 32.9158
Pd 12.2864 20.008 30.8067
Au 23.5522 9.08701 19.1351
Pd 16.6636 26.2664 21.5067
Pd 20.0655 13.1296 20.5443
Au 14.3291 20.392 10.1451
Au 12.5318 13.6898 26.6923
Au 10.9226 14.1417 10.0708
Au 26.5059 23.0893 9.97345
Pd 27.2156 17.5117 15.5171
Au 21.9518 19.9197 22.0359
Au 30.6582 12.7206 19.4533
Au 28.3082 16.4128 30.7498
Au 11.883 28.5865 27.232
Au 11.0073 20.2077 22.648
Au 8.44164 10.3471 17.9359
Pd 18.4538 26.3806 23.5014
Pd 14.1703 32.846 22.1891
Pd 15.843 17.3819 28.1008
Pd 13.1259 25.1926 22.9679
Au 7.18191 15.5132 22.9935
Au 10.2253 27.3212 25.5836
Au 19.0457 31.0643 16.4021
Au 20.3532 30.1462 29.7911
Pd 20.2139 31.9813 24.3295
Pd 27.9805 24.7931 21.0401
Pd 21.3024 12.3081 22.7726
Au 15.1762 15.5946 22.0387
Pd 21.85 16.7178 17.4916
Au 23.0266 15.8732 8.40977
Au 26.0564 15.5435 32.2437
Au 31.7236 21.4566 18.1775
Au 22.2811 9.72709 29.1391
Au 10.3284 21.9868 20.5222
Au 26.7131 18.1397 32.2357
Au 19.4133 18.961 31.1188
Au 16.5192 23.3398 31.9724
Pd 23.1286 27.3415 24.879
Pd 17.7967 13.1769 19.2637
Au 12.8822 12.4068 12.9096
Pd 14.5695 22.9966 9.36399
Au 11.0125 29.2897 15.7109
Au 14.337 28.7773 11.4589
Au 17.1185 24.4456 9.5093
Au 29.7182 16.9672 23.0295
Au 27.6136 16.0156 25.3077
Au 27.2406 10.8857 27.2792
Au 22.4422 26.2187 28.4068
Au 31.9029 18.5472 27.0922
Au 18.7973 23.06 30.2836
Au 24.8524 17.3227 34.0774
Au 16.0794 26.1293 32.2817
Au 20.47 26.6197 30.4419
Pd 20.5786 18.3172 35.4813
Au 17.8515 13.5554 31.1628
Pd 23.0421 20.6664 28.1023
Pd 20.3452 31.9034 18.7394
Au 30.0111 27.3295 25.9153
Au 27.2756 31.0107 17.5442
Pd 25.7653 16.2586 13.3082
Pd 15.1283 10.5405 10.5952
Pd 23.7402 22.1594 9.94288
Au 26.4448 8.94728 13.2592
Au 27.7546 13.7931 8.32289
Au 22.5261 13.1953 11.2837
Au 21.75 27.4557 6.51475
Au 24.6919 29.6903 10.601
Au 21.7755 21.9863 12.0177
Au 23.5561 26.4857 19.7136
Au 22.0847 11.1897 9.35432
Pd 12.8494 28.3953 19.1621
Au 28.6449 29.2576 21.5154
Au 10.1711 28.7374 18.3923
Au 17.815 17.1226 34.9168
Pd 17.0019 15.3007 24.0722
Au 7.50859 15.5359 25.729
Au 14.6657 30.2774 22.8344
Pd 11.8265 24.0908 27.3974
Au 11.2889 15.4599 24.6201
Pd 28.3739 17.5913 20.0961
Au 11.6332 17.2628 31.4591
Pd 17.9472 26.5565 27.5467
Au 16.3422 19.93 34.427
Au 11.9523 24.8284 30.3439
Au 12.8843 28.9181 24.6349
Au 31.0164 27.8519 21.4251
Pd 11.723 18.6668 14.9174
Au 18.7707 16.4415 5.94482
Au 7.3423 13.0308 14.366
Pd 15.6449 15.103 9.5015
Pd 27.5993 23.9464 12.4568
Au 19.968 14.52 18.1524
Pd 13.3824 26.0807 28.4146
Au 21.659 16.6033 6.0646
Au 9.98473 19.0755 12.377
Pd 13.3355 25.1725 10.4347
Au 18.9815 18.5792 7.65247
Au 17.4683 29.2093 27.2181
Au 19.8693 18.6534 10.2622
Au 19.1705 25.0924 21.0666
Au 20.2623 21.6281 14.3538
Au 15.3949 30.226 13.4663
Au 30.4982 14.7758 24.4265
Au 21.0575 31.6274 21.6551
Au 19.7971 28.9829 18.2296
Au 19.1377 29.9945 9.58812
Au 24.3934 20.0796 20.8397
Au 32.5556 23.1384 20.2153
Au 23.6947 19.998 24.2556
Pd 31.7273 22.8621 14.6444
Au 28.0426 31.521 20.1483
Au 25.4421 32.0242 19.4876
Au 22.7899 8.94747 26.4598
Au 23.9023 32.7074 21.5675
Au 9.0242 26.3533 18.7732
Au 20.4465 22.6057 21.1081
Pd 15.7027 29.9754 29.0284
Au 10.8292 30.4406 20.5021
Au 17.3808 17.8294 25.8051
Au 18.0453 31.2694 28.9098
Au 15.7564 25.0444 24.1073
Au 23.7601 20.7321 7.69911
Au 10.3472 16.5888 10.9988
Au 13.6889 31.9072 24.8807
Au 12.8485 26.3375 25.6391
Pd 12.3238 22.5803 23.0882
Au 14.0716 18.1455 21.5253
Pd 14.1421 17.4537 14.9483
Pd 19.653 17.2826 19.0105
Au 31.9647 20.301 13.6326
Au 22.1015 21.6643 16.7793
Pd 30.978 17.8769 20.736
Au 26.6493 22.574 30.3399
Pd 21.6919 9.35476 17.2254
Au 26.3504 20.9339 25.5051
Au 30.3856 15.0703 12.952
Au 22.4354 23.4144 28.3119
Pd 28.3438 22.0914 21.2361
Pd 29.0686 22.3222 14.209
Pd 25.7526 10.4496 20.4483
Pd 25.155 11.6527 25.6596
Au 33.1043 19.7911 25.0727
Au 13.2307 10.6829 22.9332
Au 18.7068 7.62258 27.2213
Au 22.2929 16.6286 34.2471
Au 11.3675 26.3023 9.10775
Au 25.5582 13.8677 6.74324
Au 22.918 10.691 24.4402
Au 16.7662 8.63387 14.6153
Au 14.3969 12.8377 21.8337
Au 18.0417 8.80536 22.68
Pd 12.829 16.5157 26.6553
Pd 12.09 17.1621 17.4174
Au 14.9487 9.13242 21.5761
Au 11.8891 18.9986 10.3483
Pd 17.6977 23.6491 23.004
Au 16.6553 24.54 34.3213
Au 19.9165 21.6685 32.3653
Au 11.5997 26.5939 17.4558
Au 18.2035 28.3726 29.7515
Au 33.2033 21.0741 15.9697
Au 20.9771 26.1893 25.9201
Pd 12.077 27.3926 11.5146
Au 17.5698 32.0141 18.5062
Au 25.1242 29.1222 23.9754
Au 24.5962 28.4553 13.1697
Au 25.0501 24.9896 21.7767
Pd 12.8404 22.6168 11.4115
Au 12.9263 28.9689 13.7606
Pd 22.4344 28.5084 18.1983
Au 9.79011 13.825 19.7916
Pd 14.1225 18.3476 32.0103
Au 13.9636 14.2756 24.3436
Au 14.1567 16.4525 7.29472
Au 21.8192 22.0918 23.6254
Au 25.31 19.3161 27.4857
Pd 15.9684 10.0511 23.952
Au 16.1353 12.7145 24.1412
Au 12.169 10.8797 27.2707
Au 23.806 7.34439 16.8751
Au 18.5878 11.618 23.3035
Au 23.4633 14.567 27.3329
Au 26.5528 9.69643 10.6148
Au 24.7904 10.1296 28.0549
Au 23.5532 16.0639 24.9495
Pd 15.6944 26.5228 10.5699
Au 10.3431 24.2528 21.9754
Au 8.19342 20.6575 21.8118
Pd 21.5994 20.7182 4.16635
Au 19.7943 25.3489 9.098
Au 18.926 21.0086 3.92601
Au 9.96016 19.2617 20.3018
Pd 16.7695 21.9254 10.554
Pd 21.0432 27.0914 23.1594
Au 26.3626 26.2733 19.4348
Au 18.2066 33.698 16.3797
Au 14.8726 33.265 19.5651
Au 20.9257 33.1787 16.2189
Au 15.4036 14.532 19.5219
Au 17.7362 18.3152 12.5387
Au 18.9498 7.13164 14.4062
Au 14.0305 15.085 28.6468
Au 24.4838 16.512 6.17517
Au 11.3835 9.96451 24.7125
Au 21.7548 9.96617 14.6352
Pd 24.9286 13.6112 13.2212
Au 21.7546 23.2233 7.84565
Au 28.6461 22.7545 25.944
Pd 18.7981 20.0761 26.5073
Au 23.3599 22.2278 5.4932
Au 21.1449 10.1485 31.4743
Pd 22.2631 19.7482 14.9882
Au 30.8882 21.7176 21.8908
Au 29.0526 27.067 19.808
Pd 26.3822 11.5142 29.7822
Au 15.4542 15.6562 26.1677
Au 27.1017 8.12431 20.4851
Au 19.1256 33.4769 20.7188
Pd 24.1417 15.5363 20.2643
Pd 26.5704 21.6302 13.5315
Au 31.0807 13.4863 22.0368
Au 27.7931 18.2809 27.3611
Au 20.4819 11.5725 25.3315
Au 16.2332 31.2396 20.7683
Pd 16.7905 14.7654 28.8679
Au 25.6846 26.0287 12.2881
Au 29.3638 12.1558 23.5941
Au 19.0647 24.4241 18.3186
Au 21.3757 13.7135 8.56657
Pd 27.3906 25.7006 10.2132
Au 13.6936 27.6216 9.13491
Au 29.9739 17.8808 15.5358
Pd 26.9175 17.3398 22.4953
Pd 21.9957 29.9466 10.3404
Pd 27.8142 20.9777 28.1162
Au 19.1798 32.5679 14.007
Au 22.5346 21.6213 32.5075
Au 19.1727 22.1391 24.7218
Au 7.3941 23.2662 27.8849
Pd 12.508 28.5487 21.8588
Pd 11.3167 14.6083 12.8107
Au 27.6051 28.2795 27.6925
Au 10.4799 8.99023 19.2143
Au 28.2474 19.1304 30.1407
Au 9.60164 28.1851 21.095
Au 19.6232 22.375 27.5498
Pd 11.917 15.9401 15.1454
Au 8.0597 18.806 28.7438
Pd 15.9392 15.3835 15.6104
Au 9.1735 17.03 30.516
Au 18.4042 13.9715 15.9961
Au 15.4035 24.0767 11.8527
Au 23.7897 11.5767 7.1289
Au 13.9794 24.2946 32.4924
Au 13.258 19.0464 7.94698
Au 17.8513 22.9366 12.9009
Pd 10.6428 11.9044 11.5054
Au 13.2282 20.9154 21.1176
Au 14.3839 20.2507 14.7362
Pd 16.3031 30.3464 16.1243
Pd 31.2552 17.7365 13.1766
Au 16.799 6.13289 15.9957
Pd 28.6773 21.3333 23.7958
Au 29.9289 17.3043 25.8787
Au 25.1196 12.9814 31.7082
Au 28.7735 19.3787 21.9884
Au 30.1271 22.8113 28.1793
Au 17.028 13.3559 13.7092
Au 7.39883 20.9139 26.5506
Pd 18.7276 9.47552 25.2026
Au 21.7407 32.614 26.4208
Au 16.8156 27.97 12.5323
Au 22.634 11.6241 27.1156
Au 14.452 8.33402 13.1201
Au 22.3452 15.132 22.6474
Au 15.6309 33.0441 16.8685
Au 15.2455 27.2993 18.0107
Au 19.0668 27.7403 7.40636
Pd 17.9291 26.8478 18.8997
Au 13.4941 30.7242 20.4781
Au 8.32232 25.8363 21.2722
Au 15.6103 7.35957 23.5719
Au 9.76657 15.2536 22.0983
Au 14.4927 7.71923 15.7932
Au 13.8079 8.88775 25.2945
Pd 24.5455 16.6219 17.6772
Au 20.4082 24.1512 13.2112
Au 32.8678 16.5424 17.4826
Au 12.449 17.4994 34.0522
Au 20.968 20.9666 34.8904
Au 22.4263 12.4802 31.9105
Au 31.5155 25.3589 18.6145
Au 32.7159 20.1586 20.3469
Au 23.0847 24.7029 23.8365
Au 25.2852 22.0955 27.9929
Au 24.44 18.1868 8.38694
Au 6.86523 17.1264 16.4886
Pd 15.0995 21.5075 12.5321
Pd 21.2259 24.035 15.961
Au 12.9592 12.21 10.1951
Au 16.8258 19.1257 10.2212
Au 27.4604 23.7739 28.1156
Pd 23.6137 27.3504 22.2918
Au 24.5336 8.07025 21.5011
Au 27.8243 30.6575 23.6976
Au 29.901 17.2273 28.6502
Pd 14.8021 20.8927 31.8674
Pd 32.2017 17.178 24.6223
Au 26.55 30.4545 26.1455
Au 30.8754 19.4337 23.6922
Au 28.0142 13.1763 25.7275
Pd 25.3963 17.8889 10.8817
Pd 22.7485 31.0288 19.6507
Au 25.9836 13.3436 27.804
Au 21.2252 17.0522 30.6018
Au 18.6919 14.4077 33.7998
Au 15.1087 17.4325 34.4134
Au 33.871 19.3231 17.9229
Pd 19.51 14.8117 29.2352
Au 18.4807 15.6559 20.7388
Pd 22.534 28.568 29.9053
Au 17.1364 28.9678 22.854
Au 22.6635 24.8722 5.77419
Pd 20.3992 14.8173 10.8093
Au 28.0428 18.7895 24.6089
Au 20.0629 25.3613 6.35657
Au 30.6528 21.8506 9.54614
Au 28.7424 9.81113 12.1254
Pd 29.9347 20.2248 19.7882
Au 20.6377 17.4347 21.6487
Pd 27.1242 18.0499 8.62894
Au 27.4201 16.1025 10.9862
Pd 18.0331 30.5945 25.0061
Pd 25.8116 20.5941 11.1159
Pd 24.6465 11.5076 11.0836
Au 23.2759 27.3339 10.9212
Au 25.2998 24.3336 5.38887
Au 13.5211 23.2821 14.0176
Pd 26.5384 10.5947 15.4455
Au 30.3006 24.6583 13.1662
Au 24.628 26.3952 6.98511
Pd 20.5338 22.9064 5.2981
Pd 14.1567 26.3621 12.9419
Au 17.4451 20.7853 31.922
Au 28.8992 25.3157 17.7478
Pd 20.4521 14.6092 31.7188
Au 8.96719 10.9933 20.5458
Au 7.3896 12.9591 18.9571
Au 9.49849 22.2789 23.8162
Au 12.5377 21.9983 32.9507
Pd 10.7644 18.6463 29.0341
Au 18.5309 24.6962 25.6724
Pd 13.6998 30.5787 27.2041
Au 19.7998 12.1746 32.6464
Au 20.7783 15.4284 25.1403
Au 12.4566 14.8668 22.0114
Pd 18.44 12.5204 28.1651
Au 15.3965 28.58 20.6151
Au 16.1868 21.9379 29.6245
Au 11.3657 30.7588 25.6134
Au 23.4697 22.0017 34.8773
Au 29.2176 25.7549 27.872
Au 20.245 16.2766 8.45248
Au 14.0098 21.5662 7.03462
Pd 11.9865 13.2959 15.3275
Au 21.3905 7.29598 15.5095
Au 16.616 32.3858 14.4233
Au 15.8513 16.1166 12.0919
Au 28.9319 16.1569 8.6047
Au 16.6821 17.1321 7.89906
Pd 17.392 15.6582 17.9952
Au 23.7168 15.2947 15.3101
Pd 19.0207 20.6998 11.9025
Pd 16.6976 18.1579 15.2233
Pd 17.1632 20.5162 13.9891
Pd 8.60114 15.4247 17.8231
Au 18.1495 14.5825 8.15637
Pd 24.8113 20.8845 15.6128
Au 23.0737 18.9763 5.71882
Au 29.1315 10.6181 14.6096
Pd 25.5499 27.3705 9.31488
Au 19.398 28.7305 11.9525
Au 24.3241 28.9741 20.1653
Au 17.8214 23.3233 5.23327
Au 28.5585 26.5655 12.4953
Au 30.5357 13.1124 14.9031
Au 32.1783 15.0926 19.6692
Au 16.0371 21.2006 5.19582
Pd 16.9926 22.8311 17.5528
Pd 21.9399 25.1837 21.4004
Au 25.475 18.0507 24.84
Au 24.2712 9.65175 9.05965
Au 25.0206 21.4879 18.3245
Au 26.899 22.6856 16.1827
Au 24.3929 23.59 7.74838
Au 22.6696 25.9968 17.1591
Pd 24.9654 15.0862 29.7592
Au 31.3617 18.719 18.0361
Pd 23.2236 30.1838 22.4582
Au 31.7218 15.8118 15.1614
Au 21.5839 26.4466 14.501
Au 26.6131 32.9109 21.865
Au 10.9433 24.452 24.8251
Au 16.3052 19.0625 30.1086
Au 14.2653 21.0932 26.0282
Au 8.73824 14.5201 12.3001
Au 21.2193 26.1097 32.9476
Pd 18.8979 26.7981 14.0742
Au 23.3701 28.5698 8.35891
Au 27.7614 27.7599 17.1415
Au 13.2844 16.2233 19.6795
Pd 9.06122 12.7618 16.8167
Pd 26.0153 19.0588 17.5015
Au 17.8187 28.1327 16.3378
Pd 8.91103 19.6632 24.3094
Au 15.1932 13.1824 11.609
Au 19.3784 28.2159 25.362
Au 28.245 25.371 25.1756
Pd 28.5526 13.998 18.1818
Au 18.3623 30.1034 31.6438
Pd 22.6414 28.686 27.1941
Au 12.2592 21.5884 18.5593
Au 18.6123 10.9831 30.5172
Au 26.9495 15.2864 20.4465
Au 32.1849 15.9511 22.2277
Au 26.3324 18.9436 13.3488
Au 21.9569 8.5568 10.0449
Pd 19.9856 11.9806 14.8905
Pd 29.0723 15.3265 15.6668
Pd 30.4647 20.5088 15.9068
Au 25.7807 15.6748 8.82137
Pd 25.7954 22.4268 20.9843
Au 28.2375 12.6922 20.7763
Au 24.069 10.4703 30.987
Au 17.565 6.2193 21.9462
Pd 28.6763 18.7204 17.7045
Au 23.3134 14.9893 32.3546
Pd 15.0758 13.8449 30.9734
Au 30.0715 16.9679 10.8803
Au 24.0464 12.7775 22.9528
Pd 25.2273 10.268 23.1124
Au 25.3024 15.1942 22.7432
Au 17.8666 14.1356 11.2639
Pd 10.9673 9.5148 21.879
Au 11.2135 19.6159 33.1523
Pd 19.7832 14.2971 13.4603
Au 10.3564 21.376 11.0318
Au 12.946 7.93007 22.8922
Au 10.3967 16.5904 19.5903
Pd 16.8132 11.0289 21.3057
Au 12.0048 31.2652 22.8455
Au 9.87431 12.4406 13.9196
Au 11.5089 24.098 15.9068
Au 12.768 7.74962 20.1208
Au 13.5021 24.8497 18.2737
Au 16.0565 22.8141 14.956
Pd 17.0397 8.27306 17.3618
Au 9.79163 22.0872 17.1982
Au 14.69 6.50729 18.1129
Au 8.97296 23.5907 12.0289
Au 11.6651 21.2555 25.3335
Au 12.4888 20.2771 12.7509
Pd 25.9672 30.3789 21.6907
Au 18.4983 27.3911 32.3828
Au 8.22392 21.0466 12.7518
Au 17.4093 9.61468 28.4693
Au 20.1368 30.4545 26.9447
Pd 21.3009 23.6023 25.8701
Au 18.4993 33.9859 23.7665
Pd 10.1405 17.2206 26.7221
Au 6.80568 21.2754 23.9554
Au 14.1208 20.2997 28.8822
Pd 17.0499 29.3716 18.6517
Au 22.7892 32.4667 23.9693
Au 24.865 27.4053 29.0317
Au 21.8933 33.7334 20.0196
Au 29.1249 29.8656 26.0627
Au 29.4634 29.6341 18.8106
Au 30.8104 24.5107 25.8802
Pd 23.2125 32.8505 17.7604
Au 27.0318 20.1004 19.8832
Pd 30.4873 27.5646 17.4399
Pd 18.9234 19.5012 33.8458
Pd 7.65253 15.5275 20.2895
Pd 17.1748 6.00033 18.8671
Au 10.6526 22.1956 30.989
Pd 12.762 13.4944 19.5634
Au 8.28695 23.6399 19.4831
Au 19.5998 8.8956 18.7659
Au 23.7767 8.11383 14.2345
Au 13.1989 10.32 14.6844
Au 10.9344 10.8791 16.0534
Au 16.1979 11.8995 29.4972
Pd 25.3902 16.4831 27.0773
Au 24.0298 17.4188 31.5552
Au 26.1001 9.17521 18.0994
Pd 25.495 20.1177 30.1982
Au 27.5254 10.3244 24.7353
Pd 20.7766 13.6247 27.1995
Pd 26.6893 12.5268 23.248
Au 19.2601 6.63539 17.1538
Au 26.3211 14.9976 15.6477
Au 17.5342 20.5174 19.3434
Au 11.1206 15.8617 28.8742
Au 14.0356 26.2731 20.5961
Pd 18.5384 17.7184 28.5856
Au 16.6954 27.3799 25.2262
Au 27.6693 20.1537 15.5358
Au 20.9974 29.7404 7.69018
Au 27.0991 16.2307 6.60428
Au 28.3713 24.8454 15.047
Au 18.9178 24.5996 32.6889
Au 24.9887 27.692 17.4198
Au 24.5173 24.0861 19.1585
Au 17.8657 25.6205 30.2651
Au 14.6946 30.7064 18.1686
Au 20.306 32.614 28.625
Au 23.0223 22.757 14.2754
Au 16.5484 25.3894 13.9392
Au 21.399 31.1275 14.3361
Au 12.0621 26.6077 14.7761
Au 15.1089 22.1929 23.5338
Au 19.9816 9.84344 8.23348
Pd 10.8417 22.4519 13.5183
Au 19.3767 12.2039 9.58835
Au 8.20667 16.1846 28.232
Pd 18.1133 6.89947 24.6151
Au 26.3903 20.6219 8.58841
Pd 13.6518 19.8239 23.6564
Au 22.9223 14.0595 6.28487
Au 10.9707 13.0181 28.7321
Pd 19.2727 9.28239 16.0848
Pd 27.7525 14.3494 13.1857
Au 26.0999 21.9924 6.37382
Au 24.5138 18.0296 15.3135
Au 28.3284 11.7002 10.218
Au 19.0369 9.8085 13.4586
Au 19.5153 6.53749 20.0924
Pd 18.6038 20.8564 9.05972
Au 27.8702 12.8628 15.4975
Pd 22.4603 12.6922 13.986
Au 16.6253 12.5726 9.26647
Pd 25.5201 13.0487 20.7023
Au 33.1479 18.524 22.483
Au 21.6983 6.94315 18.4828
Pd 23.891 30.8501 26.0272
Au 30.329 10.95 21.3744
Au 27.3412 13.9299 30.4545
Au 9.81748 14.5136 26.8106
Au 26.8457 29.0772 19.3618
Au 20.9848 34.0663 22.6494
Au 25.6059 17.7665 19.9596
Au 25.101 6.90038 19.1538
Pd 24.8574 24.6745 28.9407
Au 27.9063 23.3937 32.4919
Pd 23.6011 22.2732 25.9174
Au 28.416 9.30571 16.8571
Pd 20.25 27.9314 28.0406
Au 23.2718 26.0716 30.9843
Au 20.7668 26.535 19.3067
Au 22.9848 8.13262 23.6739
Au 29.2206 21.7054 30.5583
Au 32.6443 18.4614 15.5363
Au 28.3908 22.5026 8.23126
Au 24.0837 23.5881 16.5714
Au 29.1429 29.7486 16.0877
Au 14.4518 17.5595 9.98029
Pd 18.2119 27.3394 9.9518
Au 17.1349 13.6379 21.8078
Au 17.6038 31.0795 11.8917
Au 15.2321 10.2835 16.5201
Au 29.6049 27.3347 14.893
Pd 22.3063 15.2555 12.9844
Pd 16.5781 22.4775 7.70704
Au 17.65 14.011 5.45999
Au 17.4112 25.3746 6.99337
Pd 13.3706 19.4557 17.0699
Au 23.9653 20.4915 13.0065
Pd 26.9151 11.6847 12.8616
Au 28.0271 18.7989 11.1391
Au 31.2757 14.1119 17.2443
Au 25.9341 30.7026 12.9755
Au 7.65391 23.348 22.2124
Au 14.9937 18.7298 12.5343
Au 10.745 26.4149 28.31
Au 19.476 10.5086 20.9079
Au 12.7607 9.95646 11.8586
Au 13.6819 19.8943 34.2403
Au 19.62 11.7782 17.5926
Au 24.9799 29.9444 28.3736
Au 20.0138 24.9139 28.3326
Au 21.8307 29.742 24.7875
Au 23.3752 24.2735 33.0165
Au 18.6912 32.8167 26.4224
Au 9.58447 25.2256 14.1228
Pd 9.65647 22.5653 26.5769
Au 13.9816 14.9762 13.6839
Au 20.7595 28.7301 32.0253
Pd 13.2283 11.9146 17.3419
Au 18.0476 22.234 34.2521
Au 16.3256 8.38736 26.138
Au 18.9267 30.3456 20.4083
Au 15.5444 10.8071 13.3059
Pd 11.7859 24.8673 12.6185
Au 20.0778 16.9006 12.5349
Au 15.4732 27.8354 14.9415
Pd 17.5776 11.4448 11.6529
Au 9.40068 27.1976 16.03
Au 14.1356 22.6355 16.8093
Au 16.643 33.8399 21.6799
Pd 12.3813 18.8283 19.5394
Pd 29.2662 19.7485 13.4074
Au 9.52719 17.4683 16.2689
Au 20.4597 28.7771 15.4282
Au 26.4466 13.5542 10.7964
Au 18.6484 23.7517 15.4364
Au 18.069 16.6029 10.2719
Au 13.7212 31.1922 15.5802
Pd 24.1119 9.98704 16.3294
Pd 24.6837 22.427 23.4922
Pd 16.1139 16.2544 5.45109
Au 12.5792 24.0543 7.9149
