923
Atoms. Timestep: 20628
Au 9.27091 9.874 22.0173
Au 19.0885 14.6556 19.5119
Au 16.6388 16.0218 19.3099
Au 9.56576 18.359 17.9028
Au 9.09411 23.4385 24.3526
Au 30.9776 15.1622 11.9951
Au 20.3306 33.9237 24.2483
Au 14.9863 34.0279 23.2586
Au 34.6514 20.7888 22.2585
Au 25.2411 20.1633 32.0601
Au 24.4145 13.2486 14.4161
Au 13.9501 14.2401 14.9255
Au 19.4576 5.21745 21.1324
Pd 28.4031 17.2528 23.2478
Au 20.9974 17.2191 30.8183
Au 29.6474 30.7029 21.0901
Pd 19.2122 21.3777 23.0318
Au 16.437 25.9653 15.0403
Au 21.562 13.0754 26.9689
Pd 27.7884 13.3222 20.9187
Au 25.2741 28.3599 15.6116
Au 27.4212 18.51 25.6122
Pd 14.0281 28.0353 24.5325
Au 31.3012 13.297 17.6207
Au 10.412 10.8868 12.9486
Au 15.4181 29.2676 28.6214
Au 15.8109 14.6413 31.0211
Au 22.6986 12.9266 22.1303
Au 18.7462 8.64526 11.2674
Au 26.1078 18.3 8.92486
Au 18.7334 27.7231 13.5589
Au 21.6713 22.5341 31.9242
Au 24.7729 33.0517 15.2593
Au 14.6964 25.5666 19.6345
Au 26.8847 31.859 16.7449
Au 20.5351 15.2677 25.7185
Au 19.6581 23.7728 30.5252
Pd 26.2419 15.5481 9.71538
Au 16.8776 21.1105 6.58601
Pd 23.286 23.7179 18.2651
Au 11.4759 27.1092 25.2221
Au 13.7503 29.7242 12.6424
Au 14.4465 15.5267 11.1074
Au 11.787 28.0033 12.9069
Au 26.1877 26.7997 27.0262
Au 25.9504 28.4357 22.1957
Au 15.2645 24.9036 22.6687
Au 9.86184 24.7392 26.7215
Au 17.5869 28.2382 16.4247
Au 26.3165 11.0071 25.1572
Au 14.8665 30.6401 19.9423
Au 9.14979 20.5876 24.4432
Au 26.7116 26.4594 8.91835
Au 8.33393 16.4094 16.0488
Au 19.2139 30.543 16.4787
Au 27.2661 26.4078 29.6324
Au 27.7893 27.1319 14.4525
Au 13.6386 13.0242 22.4886
Au 31.1492 25.3076 18.2992
Au 8.51767 23.2798 18.4052
Au 20.3882 17.9807 15.9852
Au 12.8252 13.9327 9.57952
Pd 12.4082 16.3189 20.2199
Au 12.3514 25.5866 27.5348
Au 22.9456 19.4927 12.5468
Pd 22.7497 20.1473 27.2067
Au 20.5129 23.0388 18.0772
Au 12.142 7.22074 18.3816
Au 23.4699 8.59242 29.2792
Au 12.7956 19.1051 13.9956
Au 21.0342 7.87414 15.1079
Pd 20.7044 8.08625 23.0407
Pd 20.2882 12.5786 24.5222
Pd 15.0301 22.009 28.7393
Au 16.8579 23.6209 32.8535
Pd 16.0102 18.6556 14.5978
Pd 28.0196 24.1554 8.30502
Pd 16.6723 26.8319 12.3155
Au 8.59881 18.1955 22.7688
Pd 19.207 30.2699 12.0067
Au 27.7824 8.54645 24.3992
Pd 20.2554 26.5852 20.9697
Pd 13.3427 18.3833 21.8635
Au 14.0145 13.2979 17.5628
Au 25.7758 9.01877 15.5658
Au 17.7991 12.0039 23.1594
Au 24.5904 17.5412 16.4705
Au 29.9732 17.6993 12.5937
Au 11.3598 28.3459 22.5176
Au 5.56631 15.8919 16.472
Au 11.2863 14.1417 21.8011
Au 10.1641 10.3374 24.6419
Pd 22.06 19.3539 20.3942
Au 6.46659 24.6699 20.3079
Au 6.80413 21.8276 20.0655
Pd 22.8259 23.5163 27.4042
Au 8.40255 22.0662 13.6019
Au 19.0969 17.3384 7.18042
Au 26.612 21.0957 9.3493
Au 26.5359 21.1762 14.371
Au 31.8773 15.9451 14.4765
Pd 20.6344 12.3737 29.4542
Au 21.5076 25.0992 8.03628
Pd 25.1088 28.3996 24.8576
Au 24.5798 21.6542 11.1756
Au 12.2454 11.3612 10.7843
Au 14.1414 18.6278 26.7256
Au 22.9337 27.6374 8.87482
Au 11.9011 30.1953 20.2738
Au 9.02679 25.4407 20.1337
Pd 19.2244 12.2023 14.9415
Au 11.314 19.9412 16.4625
Au 20.885 9.02111 28.1602
Au 26.5037 12.6195 18.5348
Au 9.6057 17.5691 27.9919
Au 16.915 20.147 28.0012
Pd 14.5812 27.1252 16.7542
Au 23.0223 9.67253 11.5428
Au 23.737 16.3777 9.26385
Au 8.55818 26.3316 15.4392
Au 21.4766 17.7033 6.19466
Au 13.3203 14.7911 24.7215
Au 9.49013 30.3217 18.9609
Au 30.478 11.1129 16.2603
Au 14.563 14.2357 20.2228
Au 27.0186 13.1032 10.2724
Au 21.0484 8.13132 12.447
Au 21.5457 15.0997 29.0211
Au 23.4697 21.92 20.8336
Pd 32.2115 20.6189 17.1721
Au 9.76747 21.8681 10.2964
Au 15.144 16.1781 26.1708
Au 22.3944 22.4022 16.0157
Pd 15.5646 23.5145 14.4053
Au 18.7019 8.72644 16.4197
Au 7.07591 16.3038 20.8671
Au 14.2895 11.0332 26.8013
Au 15.8024 11.6439 21.2273
Au 7.7235 10.5143 14.1395
Au 15.9368 17.4753 21.3662
Au 16.9528 29.4164 21.1007
Au 15.8721 33.4319 20.3339
Pd 24.3976 29.6104 20.2468
Pd 32.3155 13.382 22.0024
Au 14.2962 12.2801 31.5745
Pd 28.8384 17.8035 17.9768
Au 10.3546 27.8711 19.9754
Au 15.0464 19.1753 23.8392
Pd 15.6445 28.4787 14.216
Au 23.4503 7.92911 16.6648
Au 19.3481 17.3601 24.3122
Au 25.3817 25.8646 14.3742
Pd 12.842 23.8674 21.7097
Au 13.8266 17.02 15.6158
Au 11.2921 16.816 8.63057
Au 5.16609 18.5883 19.5135
Au 32.0263 24.0114 25.2498
Au 13.0263 17.5616 24.5091
Au 11.7997 11.5427 17.5938
Au 26.9417 30.6914 20.8963
Au 11.8324 23.6258 10.0767
Au 16.3968 26.3265 9.69348
Au 13.5043 23.245 26.7082
Au 18.2109 28.2859 10.5225
Au 11.8636 12.658 29.5923
Au 22.8453 8.72661 21.4705
Au 29.7335 17.5276 26.6041
Au 13.9508 9.55512 22.3438
Pd 27.1289 19.0528 16.0497
Au 21.3308 28.6712 28.7334
Au 22.6731 30.9338 27.8904
Au 14.2072 25.5842 25.4802
Au 6.60583 16.3706 23.8371
Pd 16.574 12.7497 15.429
Au 10.8007 17.9882 12.3136
Au 13.323 31.6179 15.9407
Pd 11.6447 30.5976 14.0774
Au 30.083 14.9637 22.6882
Au 18.1495 11.425 17.2833
Pd 27.9102 19.5978 28.2017
Au 31.1187 15.564 28.1956
Au 25.628 16.0086 32.1715
Au 29.3393 23.1103 25.9124
Pd 30.7894 16.331 19.0127
Au 23.2691 16.8814 20.7434
Pd 30.6149 26.6226 20.5446
Au 21.0366 16.0912 8.74108
Pd 19.1704 25.8871 11.2398
Au 6.69225 11.7363 18.5046
Au 30.1717 14.9261 25.5594
Au 23.461 8.29527 13.9761
Pd 19.1114 17.7172 9.91434
Pd 17.8464 21.8099 14.4473
Pd 24.3671 13.7214 8.87834
Pd 20.6906 29.4219 14.3214
Au 20.1813 21.3752 26.9878
Au 26.5724 23.6733 13.3707
Pd 20.4242 26.1574 29.363
Pd 23.5852 13.4375 29.1239
Au 29.4436 22.0097 28.5849
Au 18.026 14.5053 13.7501
Au 4.35238 23.0487 20.0513
Au 21.6103 32.3954 26.0144
Au 24.7977 22.7723 25.6832
Au 24.0745 19.006 22.176
Pd 16.4419 9.90133 15.6779
Au 14.0839 15.9119 18.1487
Au 6.81051 19.8431 13.4853
Au 12.3974 32.2301 18.5075
Au 16.6877 10.1668 10.6011
Au 13.5622 22.1569 16.5001
Au 28.9871 22.5679 14.9472
Au 24.2481 24.2909 12.1095
Pd 21.6786 28.7552 19.6281
Pd 13.3818 32.4579 21.1589
Au 16.4074 29.7068 11.9216
Au 27.5241 28.3964 10.6821
Au 24.8356 20.4568 16.64
Au 7.49925 23.808 15.7623
Au 26.7836 19.5035 23.2027
Au 28.8085 27.4202 27.491
Au 24.4514 30.7939 16.6597
Au 10.3196 13.1647 11.3768
Au 11.9063 7.47339 15.5424
Au 10.3568 11.9278 20.4296
Pd 18.706 16.9992 17.9405
Au 13.6737 7.20213 23.6706
Au 21.7918 14.3614 19.965
Au 13.0868 28.8393 15.3028
Au 13.0099 17.4128 31.043
Au 20.7627 19.31 28.8166
Au 16.4858 16.5846 7.14468
Au 21.7767 30.9674 12.2178
Au 17.8853 19.4098 16.5572
Au 16.9048 11.9277 28.0188
Au 30.2852 14.0234 20.0816
Au 32.7074 16.0353 21.8557
Pd 20.6076 21.6206 20.4044
Au 27.96 8.62292 19.1094
Au 22.8848 7.54839 26.7832
Au 8.28132 19.571 26.8023
Au 5.31739 18.711 16.7087
Au 10.3922 25.1998 22.4839
Au 10.0904 7.71083 20.3914
Au 4.59508 20.6377 21.1287
Au 17.6402 19.1039 23.079
Au 5.90485 13.7428 20.1811
Au 11.2567 31.2607 22.9012
Pd 20.4207 14.3887 31.3572
Au 8.00084 14.3722 25.1117
Au 20.2784 27.8307 17.181
Pd 13.4933 29.6765 17.9479
Au 24.8377 26.0666 23.1794
Pd 23.4809 29.4898 13.9486
Au 15.8064 17.5321 31.0189
Au 27.8939 29.5015 16.0075
Pd 17.9868 25.5528 26.4555
Au 29.6151 19.5654 23.5642
Au 15.9126 9.23118 28.0181
Au 24.2619 13.2242 19.9653
Au 15.2164 31.3727 14.0179
Au 4.79992 15.6732 21.8641
Au 32.3963 19.5563 22.9728
Au 6.76156 17.6416 11.7377
Pd 20.5016 7.80376 25.6665
Au 14.3819 9.00287 19.7616
Au 32.9056 27.0347 21.8485
Au 18.2007 25.7757 31.8134
Au 16.4835 20.4297 30.7696
Au 11.7413 13.9441 19.0377
Au 8.97838 26.3137 24.7062
Au 17.1903 32.4113 15.6254
Au 19.8134 29.5678 21.3866
Au 14.253 9.44081 11.5253
Pd 11.5196 26.4765 15.3024
Au 28.2251 24.7796 27.7639
Pd 15.6657 15.9943 13.7734
Au 28.6173 19.3321 8.38533
Au 7.15511 17.2557 18.2783
Au 17.4991 18.7108 5.61256
Au 24.6441 26.9199 29.4515
Au 29.926 25.8012 15.9288
Pd 21.8968 20.8632 22.7089
Pd 20.4403 15.1184 14.9982
Au 22.0315 5.97536 21.714
Pd 16.9065 5.49486 20.2854
Au 9.7034 16.8548 20.5042
Pd 24.6529 17.5539 26.4656
Au 27.3186 17.7268 13.5735
Au 23.0863 8.75087 24.2793
Au 25.1306 19.0921 28.763
Au 27.0476 19.7778 18.6787
Au 18.6138 28.107 19.2831
Pd 24.2095 10.8147 20.8743
Au 17.7978 23.9808 22.8151
Pd 15.2049 24.2446 16.9463
Au 29.2398 26.3365 9.78249
Pd 20.4058 10.7913 11.6566
Pd 9.3636 12.6071 23.1712
Au 27.1336 8.98078 26.8878
Au 19.1531 23.849 20.5068
Au 31.6232 21.8022 26.8399
Pd 23.7645 15.6167 18.4692
Au 16.0168 17.7432 17.2819
Pd 20.4879 19.7666 24.7584
Pd 22.5606 15.0115 13.135
Au 8.56366 22.3267 26.9856
Au 14.6067 6.311 19.1883
Au 20.885 10.4174 16.5792
Au 31.7888 22.4099 19.1942
Pd 29.1533 24.884 13.4665
Au 27.9563 13.0792 29.4956
Au 33.2533 21.5203 24.6428
Au 20.7048 23.54 22.8616
Au 18.2458 15.8624 30.5617
Au 11.3619 20.6811 12.0111
Au 13.973 26.4801 13.9163
Pd 30.9847 17.1839 24.0551
Pd 7.89729 18.9977 15.7722
Pd 11.2926 18.9215 20.2187
Pd 11.3126 16.6412 22.7314
Au 13.5189 10.5164 29.379
Au 12.6243 21.3365 30.1034
Au 20.3168 18.769 34.0024
Au 16.2967 32.1327 25.032
Pd 16.2101 21.5926 16.4725
Pd 26.0254 20.8409 21.0536
Pd 24.4942 9.71842 26.7681
Au 21.5129 10.0703 30.6428
Pd 17.0992 14.5704 11.0836
Au 18.7547 4.46194 18.5954
Au 11.3703 15.6141 29.2507
Au 30.4251 17.4466 9.94683
Au 11.7034 9.60589 19.8622
Au 11.2842 8.35492 22.8721
Au 15.3968 18.4098 33.5986
Au 27.5311 15.6013 30.3441
Au 17.9372 20.8631 25.4261
Pd 33.0841 17.3638 19.4209
Pd 5.74168 18.3511 22.1761
Au 5.86782 23.3002 17.8189
Pd 16.6005 26.4838 24.342
Au 11.8222 27.6731 17.6928
Au 9.10971 28.0982 17.4087
Au 21.9838 25.7417 10.7306
Au 16.9074 11.7755 32.4742
Au 25.8026 11.7499 28.4862
Au 23.8347 11.3823 24.0991
Au 22.6958 24.6969 30.0444
Au 26.0995 9.29901 29.3334
Au 23.8472 28.5415 27.2544
Au 22.7415 10.9978 28.385
Au 22.4376 27.4373 30.8486
Au 23.8286 28.2863 17.9621
Pd 21.4294 18.114 22.7062
Au 18.5038 28.3982 25.3226
Pd 19.1719 14.0755 27.983
Pd 11.7762 24.4543 24.753
Au 20.9228 25.701 32.0905
Au 13.492 23.1735 19.1026
Pd 20.6424 7.85951 20.3704
Pd 13.3315 11.28 13.1728
Pd 24.1791 31.9472 12.7816
Au 23.021 15.5489 6.79769
Au 30.5773 13.3737 14.7162
Au 4.91089 15.9434 19.1104
Au 20.9003 28.103 11.8505
Au 23.8741 21.0997 8.33674
Au 12.4399 21.0837 9.48633
Au 22.4105 27.412 15.4703
Au 31.6962 23.8116 13.9087
Pd 15.2688 21.1735 26.029
Au 10.4682 19.2779 9.56735
Au 18.5575 21.6056 32.2579
Au 23.485 30.6228 25.001
Pd 19.1385 6.1015 16.4315
Au 17.1992 5.51973 22.9953
Au 9.23371 29.9398 21.5883
Pd 19.2906 10.1476 21.6716
Au 8.56267 17.343 13.5478
Pd 26.9108 17.1308 27.962
Au 8.70771 12.9222 13.5503
Pd 16.1488 20.9918 33.3238
Au 9.68209 17.0856 25.0327
Au 24.6698 31.2785 22.3301
Au 26.9474 15.1536 22.6991
Au 21.6295 24.7308 25.3144
Pd 9.7944 20.8568 18.7928
Au 14.0152 16.7172 8.4489
Au 11.6283 12.864 14.7347
Pd 17.9961 16.7947 15.2491
Pd 31.0529 29.0448 19.4605
Au 18.3504 15.0948 8.64327
Pd 28.4918 19.158 20.9076
Au 30.5986 24.1331 9.00301
Au 17.4518 32.2198 12.798
Pd 15.5756 30.0061 16.354
Au 20.2523 15.0512 6.38943
Au 15.9068 13.9531 23.7581
Au 19.2193 12.7506 7.46676
Au 7.01265 14.8851 14.3074
Au 23.7792 19.0561 10.0589
Au 13.5694 31.9635 24.1841
Au 30.8882 24.3089 27.7045
Au 21.2183 35.319 17.4809
Au 20.0852 30.8784 19.0485
Au 23.2372 26.8316 12.9801
Au 16.7093 21.4965 9.33862
Au 28.6398 15.093 27.8986
Au 33.6954 24.0586 18.0242
Pd 27.2538 23.314 20.2958
Au 12.8546 21.0675 21.4301
Au 23.1982 23.2701 6.76027
Au 16.9969 10.6034 25.6501
Au 15.313 27.5068 21.9673
Au 8.50653 23.1453 21.7035
Au 29.5178 20.343 16.7337
Pd 20.6134 28.2414 23.5661
Au 7.48865 16.8086 26.4117
Au 20.0111 20.9881 16.2104
Au 10.8228 22.9558 20.1983
Au 27.1374 25.7996 21.7538
Au 21.7696 13.4474 7.91377
Au 14.9384 19.319 9.41552
Au 22.1829 16.9718 33.2453
Au 9.63445 15.0087 27.1863
Pd 12.8398 20.8071 27.523
Au 22.8256 17.5724 28.7002
Pd 8.93839 15.4077 22.7747
Pd 30.6609 22.0036 23.8894
Au 24.2027 12.5218 26.4954
Au 34.3091 18.2367 21.5928
Pd 25.5251 17.1812 23.9082
Au 31.9084 26.9836 24.3083
Pd 16.699 18.4591 25.7189
Au 26.1669 17.6881 21.1635
Au 31.8406 27.7358 16.8668
Au 20.9681 30.9357 23.7778
Pd 28.9385 20.0422 13.7727
Pd 23.5011 33.56 17.6083
Pd 21.7759 10.4437 25.8583
Pd 20.5457 12.7651 17.946
Au 31.8342 19.3271 25.6412
Au 15.1276 13.4694 26.3126
Au 31.3597 24.8735 22.824
Au 19.5495 16.446 32.9859
Au 13.2197 22.8363 12.509
Au 20.3949 13.3509 12.8097
Au 9.63489 8.76377 14.6835
Au 15.5391 7.31798 21.7255
Au 14.1238 19.5378 16.6319
Au 18.5746 14.3164 16.7416
Pd 16.7174 9.50054 22.9871
Pd 24.4467 6.91822 22.6123
Au 22.4905 20.945 18.2798
Au 25.4314 20.168 26.1459
Pd 23.4002 23.6504 23.1631
Au 18.262 13.973 32.8979
Au 26.9031 24.5094 25.3285
Au 16.4351 34.603 17.0688
Au 20.4891 19.8919 31.5298
Au 32.6973 22.5826 22.1927
Au 17.6007 22.8189 27.5189
Pd 15.7429 28.1569 18.9605
Au 16.69 35.6647 21.9905
Au 28.3588 28.336 20.4911
Au 21.9286 24.2481 20.5744
Au 15.7935 31.5876 22.4367
Pd 25.9867 23.8879 10.0781
Au 11.1414 22.8842 17.4151
Pd 19.4601 25.5175 18.4685
Au 13.343 11.7462 19.9762
Pd 19.6024 16.7256 28.3042
Au 14.0839 16.1482 28.8147
Au 14.2362 11.4621 15.6668
Au 26.261 30.7748 24.3114
Au 14.0346 34.5034 18.5753
Pd 14.9181 11.3387 24.1377
Au 21.6167 10.3644 13.9781
Au 32.1269 10.7496 22.316
Au 29.9318 12.1527 22.0096
Au 19.783 5.75082 23.756
Au 27.5019 15.7752 25.476
Au 25.7993 7.56072 17.8473
Au 29.2994 17.4605 29.3237
Au 18.4637 28.1513 28.2252
Pd 25.0407 23.2288 15.938
Au 6.77814 21.9486 24.9197
Au 6.77243 13.8507 22.6917
Pd 23.4892 28.9048 11.3391
Au 17.9693 24.4387 13.2845
Au 23.1657 23.4912 9.59542
Au 16.7584 23.5716 19.0521
Pd 18.4684 34.4183 20.3545
Pd 26.1006 23.4268 22.7917
Au 28.325 29.4538 23.124
Au 27.4609 29.2871 26.1502
Au 16.9653 26.0433 17.8178
Au 25.3164 30.7416 26.9768
Au 11.5761 21.8071 14.5432
Au 24.3716 25.3814 8.11897
Au 26.2796 17.1457 18.4311
Au 11.728 11.074 22.5305
Au 18.63 19.3239 13.908
Au 17.7116 21.4496 20.8606
Au 34.0157 20.0906 15.1999
Pd 16.6194 13.4703 18.4676
Au 21.6696 23.3417 12.3285
Au 22.3967 12.516 31.5118
Pd 28.3768 10.8298 28.2363
Au 16.5093 8.23487 12.7416
Au 24.314 10.9419 30.6023
Pd 15.3661 21.0358 18.854
Au 29.1048 11.7154 19.035
Au 31.0146 28.8289 22.325
Pd 24.5762 21.7113 28.325
Au 17.8863 7.60483 24.6038
Au 17.2099 12.4676 9.25865
Au 24.2449 22.5654 30.7763
Pd 32.7249 24.702 20.4845
Pd 27.8444 10.8323 22.9183
Au 31.2319 23.1382 16.5731
Au 22.4466 31.7486 14.8208
Au 18.3864 8.75336 27.1094
Au 22.135 26.2383 18.7302
Pd 29.0323 21.4458 19.2981
Au 31.1109 24.9496 11.4897
Au 27.9784 10.1536 16.9486
Au 23.4764 27.0184 20.8902
Au 20.2021 17.144 13.3456
Pd 21.8785 21.2044 10.5279
Au 13.7091 29.7978 22.4537
Au 15.4869 14.4679 8.77987
Pd 29.778 9.766 20.8926
Pd 15.1177 18.8914 6.76313
Pd 29.3222 20.44 26.0915
Au 18.6242 25.3863 8.49149
Au 18.4233 18.5608 30.0634
Au 20.3377 26.8527 26.6091
Au 7.21672 25.1015 23.0356
Pd 22.6717 13.8977 24.5677
Pd 20.6508 16.9814 20.0076
Au 22.1762 34.2963 15.2366
Au 11.0137 22.0651 25.922
Au 27.3789 27.0554 24.4809
Au 7.13266 12.5364 15.9361
Au 19.4677 11.2874 27.0747
Pd 10.8599 17.4335 15.2817
Au 16.0703 10.7323 30.2508
Pd 28.9961 19.7659 11.0658
Au 4.63852 20.96 18.2885
Au 18.5356 16.6609 21.603
Au 16.2629 35.9352 19.3862
Au 12.7662 7.12426 21.05
Au 14.0804 35.3627 21.1598
Au 16.4472 16.9827 9.86958
Au 21.9046 29.8663 16.7513
Pd 14.063 20.4243 11.663
Au 5.96751 17.4473 14.3597
Au 22.1867 11.5691 9.73897
Pd 16.8993 16.2379 33.1375
Pd 24.2459 15.0954 22.4147
Au 10.4089 9.06185 17.3557
Pd 29.567 17.9282 15.3207
Au 30.1535 12.841 27.2987
Au 17.9276 18.8491 32.7307
Au 27.5615 12.8952 26.6033
Au 27.059 22.2091 27.4095
Au 21.9622 17.1447 11.2329
Au 14.1039 15.8097 22.3994
Pd 25.4101 24.9722 31.1145
Au 14.5757 30.2739 26.1644
Au 13.9054 25.3569 9.54927
Au 17.8669 13.2712 25.7399
Au 18.3158 7.56808 21.8036
Au 27.0867 15.1753 12.274
Au 18.1926 27.6216 22.5446
Au 20.307 27.3699 9.14622
Au 18.5833 22.8033 7.75467
Pd 23.0377 24.5126 14.495
Au 19.8099 32.142 14.1731
Au 11.1536 19.2843 23.1541
Au 9.77449 12.5193 26.13
Au 9.43544 14.0423 15.963
Au 14.8081 12.2786 10.6741
Au 11.0573 19.1509 26.1348
Pd 19.6888 15.4642 11.2876
Au 25.2576 28.9328 9.34402
Au 24.9784 18.9717 14.1906
Au 8.64688 19.7214 11.5873
Au 31.8626 22.3545 10.5403
Au 33.6784 17.4312 24.0638
Au 30.87 17.8727 21.3854
Au 25.6238 16.1549 7.2317
Au 22.7793 32.8988 23.4235
Au 19.3109 20.7039 9.48629
Au 33.2228 21.7857 12.9302
Au 9.54949 29.0293 24.2454
Pd 19.5597 20.0634 6.81752
Pd 19.0259 25.971 15.6273
Au 11.2545 15.6507 10.9808
Au 25.994 20.1337 6.8895
Au 17.9809 13.0301 30.2851
Pd 26.9203 26.9086 17.1007
Au 25.314 7.26049 27.8317
Au 34.6176 21.4855 17.783
Au 23.9124 17.8622 31.3859
Pd 17.9207 16.0043 26.2131
Pd 21.479 11.4569 20.1988
Au 26.0985 24.5002 18.2054
Au 31.3267 21.1242 14.6531
Au 27.4584 23.5889 30.0314
Pd 27.1737 13.9414 14.6792
Pd 25.9772 30.6949 14.3362
Au 23.2867 15.3087 26.8785
Au 26.3111 22.6675 32.3325
Au 8.74867 9.94043 19.3168
Au 16.6281 17.4492 28.3046
Au 32.4079 16.7348 26.3118
Pd 22.1351 31.0089 21.3112
Au 22.7038 17.3582 14.3339
Pd 26.676 21.0767 30.0238
Au 29.8474 28.4631 25.0876
Au 24.7029 10.568 13.4976
Pd 29.2685 21.8973 9.53378
Au 28.3449 25.7702 19.3261
Au 28.2288 16.6761 8.22906
Au 34.2496 18.853 17.6337
Au 25.31 10.1721 18.1838
Pd 25.608 14.5134 16.8652
Au 15.2501 22.7462 21.1244
Pd 26.4765 12.3074 12.7243
Au 21.0217 15.5448 17.6026
Pd 17.8 33.4362 23.0763
Pd 33.2174 20.1369 19.968
Pd 28.9985 13.2579 12.43
Au 15.1462 24.7372 11.9367
Au 27.8138 17.4265 10.8476
Au 12.3469 25.474 11.9695
Pd 24.6969 26.5333 10.6392
Au 7.23431 20.2894 17.9705
Au 29.0795 10.8301 25.607
Pd 24.2246 25.8516 16.8242
Pd 11.8205 25.5545 19.8879
Au 19.6847 11.7146 31.9268
Au 30.5251 30.0791 16.9215
Pd 23.2196 19.2587 24.7118
Au 13.9157 22.8561 23.9602
Au 12.8937 24.2129 14.818
Au 11.9984 18.4411 28.7959
Au 19.9381 13.0665 21.7758
Pd 17.3164 18.9882 19.4414
Au 19.327 9.96779 24.4824
Pd 22.6981 19.7114 33.0463
Au 21.1983 15.4251 22.5276
Au 21.5852 22.1026 29.2455
Au 16.601 14.7625 28.3413
Pd 17.043 23.0997 30.2018
Au 29.9496 23.7784 20.7248
Au 17.7949 25.5066 29.1155
Au 14.5076 19.2775 29.3074
Au 15.5979 25.2071 30.9544
Au 18.6349 35.786 18.0247
Au 14.4583 21.4229 7.65977
Au 25.7331 22.9664 7.49208
Pd 11.1606 22.2607 23.1214
Au 25.9526 15.1666 20.14
Au 15.9839 27.4923 26.7776
Au 21.0401 21.0166 13.7046
Au 27.0478 25.995 11.8613
Au 17.6758 17.0733 12.3848
Pd 19.4608 19.2536 21.1919
Au 33.9498 17.3634 15.4884
Pd 9.79822 19.7911 14.1173
Pd 28.9658 15.0443 10.2799
Pd 26.1161 19.439 11.6812
Pd 12.9072 16.4339 13.1867
Au 14.7235 20.9838 14.2372
Pd 24.4985 19.1654 19.2754
Au 23.8917 18.3175 7.23927
Au 26.4044 28.9123 28.6764
Pd 25.7105 28.182 12.8435
Au 19.2259 34.3161 15.7954
Au 25.8172 27.0027 19.612
Au 28.5927 24.0295 10.9487
Au 31.1117 19.9899 9.30917
Au 24.7072 14.1587 11.6215
Au 23.3758 12.7657 17.5335
Au 24.7782 17.0223 11.8292
Pd 18.004 23.6697 16.5412
Pd 18.2816 21.4825 18.3037
Au 24.8963 16.1085 29.5598
Au 20.2434 19.3391 11.6778
Au 19.3609 35.6537 22.4908
Au 31.5698 26.4952 13.7944
Au 25.9392 30.4608 11.5069
Au 23.7019 31.1748 10.1855
Pd 18.2782 11.9995 19.968
Au 28.2921 13.2509 24.0594
Pd 22.6524 26.1943 27.7852
Au 31.733 11.6384 19.8101
Au 22.0379 26.0014 22.8879
Au 23.1601 28.9255 22.8001
Au 19.5686 23.8038 33.3499
Au 18.6932 14.7534 23.6126
Au 22.9541 16.5666 24.3488
Au 6.25324 21.3357 15.7191
Au 5.67269 22.9101 22.4793
Pd 18.3347 30.7094 23.3227
Au 17.4372 23.8996 10.5129
Au 28.1055 29.5288 13.152
Au 14.2931 8.68423 14.4178
Pd 9.02791 21.5424 16.1828
Pd 23.5285 10.5603 15.9799
Au 25.2498 21.9925 18.8045
Pd 9.20836 12.4696 18.1197
Au 16.6251 5.53933 17.4778
Au 21.0774 29.5033 26.066
Au 24.2858 25.3939 25.7207
Pd 16.0487 15.2122 16.386
Au 22.9603 35.4551 19.4786
Pd 28.3749 21.6783 22.1275
Au 9.02008 17.1899 10.3442
Au 25.6001 13.6008 30.8082
Au 21.842 12.7977 15.2661
Au 32.8836 14.5115 19.5824
Au 30.1567 9.61853 23.5348
Au 12.737 9.49852 24.9294
Pd 16.066 23.9277 8.17299
Pd 30.094 28.4292 14.8596
Pd 23.084 15.1602 15.9172
Au 30.0769 15.5098 16.5506
Pd 24.7115 24.5044 20.6426
Au 27.7292 8.26395 21.7876
Au 32.5432 14.8586 24.3013
Au 15.3029 8.5443 25.3134
Pd 22.8157 31.301 18.8007
Au 25.4762 9.43192 22.9435
Pd 22.6175 27.4124 25.1302
Au 18.0192 12.1295 12.0476
Au 11.9443 10.0943 15.1881
Pd 13.1186 14.6244 30.9916
Au 25.6809 12.5855 22.4991
Au 17.2873 19.573 11.316
Pd 9.86106 15.6369 18.1739
Au 17.1085 9.41043 20.1261
Pd 30.034 22.2235 12.394
Au 18.9968 31.9288 25.5927
Au 21.5112 17.7422 26.3459
Au 14.2671 27.4608 11.3004
Pd 28.1229 14.9744 18.4114
Au 13.2197 28.149 27.1313
Au 8.36561 15.1487 11.9018
Au 10.2459 20.5472 28.4193
Au 7.34735 25.7862 17.8758
Au 12.6564 19.0192 7.82235
Au 21.3993 25.0685 16.4886
Pd 15.5362 13.43 12.9472
Au 16.3416 21.6437 23.3959
Au 18.8466 7.11731 13.7412
Au 10.0122 28.604 14.8694
Au 11.6295 10.9069 27.3201
Au 10.0753 24.0555 15.1165
Pd 21.0656 33.4767 19.5298
Au 14.2418 16.0653 32.9539
Au 9.93289 26.04 13.1638
Au 12.2868 13.7624 27.2292
Au 23.6453 33.192 20.6539
Pd 17.281 30.4028 18.4067
Au 23.9087 29.4934 29.7465
Pd 9.66654 11.3381 15.7386
Au 14.4606 13.1049 29.0011
Au 22.1479 21.9967 25.1326
Pd 12.5935 20.672 18.7333
Au 29.7838 25.7531 25.4892
Au 25.463 31.9725 19.0092
Au 21.8407 34.8807 21.8888
Au 20.9869 32.5897 16.9623
Au 21.3761 29.7838 9.82078
Au 28.6408 30.6253 18.6404
Pd 19.4345 25.8155 24.0662
Au 23.8748 22.0807 33.4556
Pd 26.3507 29.3825 18.3035
Pd 21.5315 10.6869 22.9312
Pd 9.69751 20.7188 21.4715
Pd 20.9811 7.7655 17.7286
Au 12.9259 26.2572 22.8182
Pd 13.5344 9.25696 17.2036
Au 13.4898 24.0757 29.5761
Au 25.2053 15.914 14.2873
Au 18.715 9.81115 13.7762
Au 13.3418 8.63418 27.3892
Au 12.7855 13.7514 12.3463
Au 12.0088 16.4748 26.7454
Pd 25.3973 14.2539 24.8209
Au 14.0076 19.8572 31.9228
Au 23.2756 7.05609 19.3104
Pd 28.9797 23.6771 17.8727
Au 28.5794 16.3573 20.647
Pd 10.721 14.5758 24.6478
Pd 22.6964 9.70506 18.673
Au 16.1853 8.21996 17.799
Au 15.5636 11.0031 18.2308
Au 13.2618 27.8643 20.1867
Au 20.0243 19.3956 18.5141
Au 15.2868 32.2719 17.7911
Pd 18.9411 21.2683 29.5056
Au 17.3019 25.9236 20.6205
Au 21.3846 18.9827 8.66235
Au 20.4388 36.1857 20.0039
Au 19.081 22.0043 11.9826
Au 17.7637 30.0972 14.308
Au 34.4625 22.5607 20.1915
Au 23.8917 21.82 13.803
Au 29.3068 27.8611 17.8275
Au 28.766 24.1031 23.2967
Au 14.7066 22.5188 31.5131
Au 7.21977 24.4976 25.792
Au 22.3103 20.302 6.2787
Au 12.0496 29.8017 25.0475
Au 7.874 19.0561 20.2887
Au 16.7806 27.6708 30.3218
Au 16.2309 29.3619 24.1399
Au 21.1039 5.47411 19.0349
Pd 12.1157 17.6778 17.7839
Au 12.8132 18.0641 10.569
Au 7.76313 9.90403 16.7844
Pd 16.5508 16.5647 23.7892
Au 27.4275 24.6022 15.8007
Pd 7.20319 20.6651 22.4978
Au 19.8122 13.0844 10.0455
Au 18.4973 7.1622 18.8982
Pd 31.9681 18.6282 14.2613
Pd 22.805 12.2715 12.404
Au 29.1706 15.5439 13.9671
Au 19.1683 10.5871 9.30679
Au 16.6584 7.14085 15.2589
Au 22.362 17.9789 17.9667
Au 22.4211 6.20914 24.3854
Pd 22.506 19.6805 15.6481
Au 25.3223 7.56121 25.1546
Pd 15.0573 18.0349 12.1395
Au 19.6587 9.88674 18.9297
Pd 31.6883 17.9684 16.9083
Au 20.7535 25.8034 13.5113
Au 28.6172 13.0296 16.6797
Pd 20.1713 32.7297 21.9097
Au 18.7735 10.3204 29.598
Au 20.6998 21.3663 34.0306
Au 15.5495 13.8079 33.5036
Au 16.2824 23.7281 25.2422
Au 24.6206 21.2588 23.4788
Au 33.7036 22.7239 15.5245
Au 25.4134 8.31537 20.3766
Pd 27.411 21.7726 11.8117
Au 17.227 30.2317 26.8401
Pd 19.0155 18.7833 26.8409
Au 30.7104 19.5185 28.2079
Pd 15.5612 24.6818 27.8266
Au 23.1063 15.1319 31.4262
Au 30.7847 19.2805 19.0735
Au 25.3384 24.4043 28.3566
Au 8.61594 27.3547 22.2121
Au 30.4267 9.53836 18.3331
Au 26.7939 18.2148 30.6474
Au 31.587 19.9312 11.9184
Au 32.9904 27.0568 19.1636
Au 28.1308 21.7158 7.14471
Pd 27.2365 21.894 16.9647
Au 14.4547 26.7585 29.0764
Au 16.2645 22.0258 12.1767
Au 14.2663 6.69657 16.5082
Au 32.7888 25.3986 15.9227
Pd 27.3992 16.3347 16.0326
Pd 10.0695 25.4752 17.5878
Au 24.7804 11.5933 10.6456
Au 20.1988 23.5916 9.97394
Pd 17.3886 19.0685 8.31314
Au 22.2134 14.29 10.5226
Pd 26.9123 10.695 20.4662
Au 28.4404 11.4397 14.4519
Au 29.5492 27.3532 12.2609
Au 21.1856 22.0533 7.9302
Au 7.70929 27.8708 19.7095
Au 11.2319 23.0886 28.4325
Au 4.83022 20.5472 23.7369
Au 19.1933 23.2768 25.1772
Au 10.4771 15.1937 13.6646
Au 14.2683 18.4872 19.317
Au 6.76235 18.9655 24.7195
Au 19.7232 30.7334 27.946
Au 12.1563 33.9711 22.7819
Au 20.1191 24.0976 27.7019
Au 30.7953 20.8805 21.2852
Au 18.0284 31.7966 20.6731
Au 10.4561 23.4132 12.4418
Pd 12.9294 20.5287 24.6871
Au 7.60686 11.7835 21.0753
Au 23.3152 24.565 32.691
Pd 12.7794 25.1581 17.3901
Au 23.049 20.1295 30.2853
Au 12.2828 12.233 24.9338
Au 18.3866 32.9664 18.0853
Au 26.0387 11.7528 15.9053
Pd 7.2957 14.4679 17.9593
Au 12.0014 8.72696 12.8955
Au 11.8512 34.456 20.1126
Pd 17.111 14.1814 21.3531
Au 10.4128 32.3731 20.632
Au 14.4819 22.795 10.0597
Au 19.4921 28.0354 30.8512
Pd 15.433 20.0659 21.3311
Pd 32.7728 15.578 17.1362
Au 8.75578 14.1546 20.3331
Au 11.0677 30.2408 16.7903
Au 25.8432 14.5529 27.694
Au 15.9985 10.8164 13.2378
Au 32.4981 17.3387 11.94
Au 27.3167 21.7206 24.6413
Pd 30.9646 12.5054 24.4316
Pd 29.4214 26.8041 22.8607
Pd 11.9204 15.1351 16.4641
Au 20.0893 23.4058 14.7172
