923
Atoms. Timestep: 20137
Au 19.7787 19.7568 19.7854
Au 22.0751 19.7822 18.3649
Au 22.0712 19.7785 21.2097
Au 17.4905 19.7324 18.3514
Au 17.4841 19.7417 21.1971
Au 18.3478 22.0549 19.7605
Au 21.1881 22.0628 19.7562
Au 18.371 17.4483 19.8025
Au 21.2122 17.4678 19.8137
Au 19.7928 18.3329 22.0976
Au 19.761 21.1781 22.0727
Au 19.7778 18.3358 17.4991
Au 19.7755 21.1749 17.48
Pd 24.3566 19.7933 16.9513
Au 24.4278 19.808 19.772
Au 24.3576 19.8093 22.6458
Pd 15.2158 19.7118 16.9293
Au 15.1286 19.7236 19.7589
Au 15.1854 19.7314 22.6136
Pd 16.9188 24.3455 19.743
Au 19.7535 24.4394 19.741
Au 22.5886 24.3667 19.7261
Pd 16.9681 15.1594 19.8143
Au 19.7974 15.0862 19.8363
Au 22.6504 15.1744 19.8407
Au 19.806 16.9224 24.4147
Au 19.7742 19.7589 24.4672
Au 19.7529 22.5949 24.3632
Au 19.7794 16.926 15.201
Au 19.7781 19.7372 15.1172
Au 19.7775 22.5818 15.1728
Au 22.1246 18.3375 23.5918
Au 22.0953 21.2097 23.5667
Au 22.1169 18.3343 16.0228
Au 22.1174 21.2172 16.0098
Au 17.459 18.3037 23.5724
Au 17.4289 21.1894 23.5562
Pd 17.4641 18.2798 16.0225
Au 17.4465 21.1559 15.9999
Pd 23.5293 22.1156 18.3159
Au 23.5357 22.1233 21.1996
Au 16.0054 22.0675 18.3092
Au 15.9987 22.0871 21.2004
Au 23.5659 17.4644 18.3526
Au 23.5687 17.4503 21.2689
Au 16.0418 17.3948 18.3341
Au 16.0239 17.3822 21.2452
Au 18.3078 23.5491 22.0803
Au 21.1916 23.5478 22.0773
Au 18.3515 15.9699 22.1484
Au 21.2576 15.9656 22.179
Au 18.3257 23.5354 17.4195
Au 21.2192 23.5436 17.4243
Au 18.3521 15.9798 17.4714
Au 21.2423 15.9911 17.481
Au 26.6506 19.7937 15.5365
Au 26.7571 19.8051 18.3409
Au 26.7566 19.8229 21.2158
Au 26.6497 19.8291 24.0604
Au 12.9147 19.6937 15.4968
Au 12.7969 19.7093 18.3285
Au 12.7827 19.7143 21.2015
Pd 12.8836 19.7351 24.0213
Au 15.4742 26.6424 19.7428
Au 18.322 26.7643 19.7297
Pd 21.1697 26.7714 19.719
Au 23.9864 26.6677 19.7053
Au 15.5658 12.8596 19.8208
Au 18.3885 12.7463 19.8494
Au 21.2522 12.7494 19.8587
Au 24.0958 12.8862 19.8465
Pd 19.8 15.5347 26.7147
Pd 19.7801 18.3477 26.7823
Pd 19.7614 21.1873 26.7619
Au 19.756 24.0318 26.6445
Pd 19.8091 15.5076 12.9254
Pd 19.799 18.3012 12.8042
Pd 19.7915 21.154 12.7885
Au 19.7816 23.9864 12.8541
Pd 24.424 18.3564 25.0215
Au 22.1391 16.901 25.9157
Pd 24.393 21.2454 25.0088
Pd 22.1168 19.7804 25.9629
Au 22.1038 22.6421 25.8797
Au 24.4242 18.3268 14.5784
Au 22.128 16.8927 13.6929
Au 24.4076 21.2353 14.5549
Au 22.1147 19.7589 13.587
Au 22.1178 22.622 13.647
Au 15.1327 18.2952 24.9967
Au 17.4629 16.8886 25.9075
Au 15.0939 21.2014 24.9889
Pd 17.4228 19.757 25.9591
Au 17.4002 22.6367 25.8686
Au 15.1822 18.238 14.5704
Pd 17.4679 16.8533 13.7116
Au 15.1369 21.1551 14.5453
Au 17.4527 19.6867 13.6128
Au 17.4434 22.5962 13.6605
Au 24.9541 24.4454 18.2779
Au 25.8366 22.1524 16.8884
Pd 24.9495 24.4493 21.1857
Au 25.9208 22.1834 19.7617
Pd 25.8411 22.1561 22.6477
Au 14.5376 24.3947 18.287
Au 13.6816 22.0616 16.8577
Au 14.5337 24.411 21.1971
Au 13.5871 22.0964 19.7524
Au 13.664 22.0875 22.6514
Au 25.0265 15.1418 18.3517
Pd 25.877 17.4573 16.913
Au 25.0409 15.1314 21.3233
Au 25.9661 17.4393 19.7969
Au 25.8879 17.4487 22.718
Au 14.6115 15.0711 18.3448
Au 13.7264 17.3605 16.8961
Pd 14.5929 15.08 21.2643
Au 13.6262 17.3404 19.7963
Au 13.6948 17.3715 22.6845
Au 18.2861 25.0091 24.3994
Au 16.8576 25.8803 22.0805
Au 21.1832 25.0123 24.3912
Au 19.7446 25.9871 22.0937
Au 22.5976 25.897 22.0559
Au 18.364 14.5321 24.4889
Au 16.9222 13.6592 22.1772
Au 21.283 14.5026 24.5279
Au 19.8263 13.5379 22.2343
Au 22.7279 13.6314 22.2521
Pd 18.3236 24.9624 15.0808
Au 16.8838 25.8514 17.3841
Au 21.2147 24.9756 15.0985
Au 19.7722 25.9549 17.3732
Pd 22.6163 25.8793 17.3925
Au 18.3679 14.542 15.1404
Au 16.9412 13.6549 17.4619
Au 21.2727 14.5499 15.1508
Au 19.8244 13.5656 17.4666
Au 22.695 13.6601 17.4645
Au 23.6478 15.9451 23.6861
Au 23.5747 23.5947 23.5747
Au 23.6261 15.9493 15.9795
Pd 23.5703 23.6001 15.9419
Pd 15.9744 15.9323 23.6341
Au 15.9198 23.5876 23.5936
Pd 16.0069 15.9065 15.9726
Au 15.9502 23.5582 15.915
Au 28.9573 19.7905 14.1018
Pd 29.0972 19.81 16.9167
Au 29.1368 19.8205 19.7653
Au 29.1052 19.8343 22.6236
Au 29.0056 19.8437 25.4687
Pd 10.6096 19.6754 14.0565
Au 10.4542 19.6911 16.8906
Au 10.4104 19.6961 19.7615
Au 10.4455 19.7158 22.6212
Au 10.5791 19.743 25.4095
Au 14.0281 28.9424 19.7306
Au 16.8684 29.0987 19.7325
Au 19.7452 29.1342 19.7163
Au 22.5718 29.1013 19.7113
Au 25.4013 28.9807 19.7042
Au 14.1639 10.5285 19.8115
Au 16.9984 10.3928 19.8318
Au 19.8485 10.3807 19.817
Au 22.7027 10.4402 19.7966
Au 25.5558 10.6119 19.7922
Au 19.7519 14.1605 29.0131
Pd 19.7657 16.957 29.1031
Au 19.7655 19.7869 29.1146
Au 19.7697 22.6425 29.071
Au 19.7547 25.481 28.9335
Au 19.8358 14.0914 10.6395
Pd 19.8206 16.8778 10.5054
Au 19.8193 19.7063 10.4663
Au 19.8119 22.5643 10.4567
Pd 19.7628 25.3893 10.5378
Au 26.7347 18.344 26.4356
Au 24.4754 16.8772 27.3438
Pd 22.124 15.5093 28.2306
Au 26.6955 21.2928 26.4425
Au 24.4503 19.82 27.4262
Au 22.1413 18.3624 28.3144
Pd 24.4112 22.7112 27.3343
Au 22.1427 21.252 28.2948
Pd 22.1096 24.115 28.1708
Au 26.7291 18.3095 13.1235
Pd 24.4487 16.8716 12.2336
Au 22.1602 15.4696 11.3998
Au 26.7203 21.2434 13.0964
Au 24.4459 19.7613 12.1152
Pd 22.1606 18.3008 11.2548
Pd 24.4296 22.6544 12.1743
Pd 22.1482 21.1836 11.2309
Pd 22.1198 24.0396 11.328
Au 12.802 18.3107 26.4052
Au 15.108 16.8765 27.3492
Pd 17.4336 15.5042 28.2296
Pd 12.7716 21.2091 26.3958
Au 15.0521 19.787 27.416
Au 17.4079 18.3448 28.3194
Au 15.0415 22.6804 27.3047
Au 17.3734 21.2184 28.3055
Au 17.3766 24.11 28.1711
Au 12.8495 18.2254 13.1098
Pd 15.1529 16.805 12.2207
Au 17.4886 15.4266 11.4077
Au 12.8146 21.1398 13.0838
Au 15.1072 19.6767 12.1158
Au 17.4498 18.2502 11.2602
Au 15.0962 22.5942 12.1743
Au 17.4304 21.1251 11.2313
Au 17.4252 24.0175 11.3102
Pd 26.3924 26.7704 18.2608
Pd 27.3116 24.5014 16.8492
Au 28.1856 22.1673 15.4597
Au 26.3834 26.7775 21.1768
Au 27.3899 24.5287 19.7295
Au 28.3056 22.1976 18.3083
Au 27.2984 24.5004 22.634
Au 28.3012 22.2237 21.1977
Au 28.1706 22.2005 24.0743
Au 13.0499 26.7125 18.2702
Au 12.1723 24.3972 16.8096
Au 11.3492 22.0447 15.4125
Pd 13.0648 26.7149 21.1918
Au 12.0676 24.45 19.7424
Au 11.2027 22.0936 18.2962
Au 12.1791 24.4237 22.6543
Au 11.195 22.1025 21.1952
Au 11.3416 22.0875 24.07
Au 26.4982 12.8343 18.3295
Au 27.3733 15.1265 16.8921
Au 28.1998 17.4505 15.4765
Au 26.524 12.8552 21.2841
Au 27.4816 15.1093 19.8188
Au 28.337 17.4447 18.3437
Pd 27.3993 15.1355 22.7158
Au 28.3382 17.4272 21.2393
Au 28.2172 17.4524 24.0949
Au 13.1644 12.739 18.3229
Au 12.2518 15.012 16.8758
Au 11.3793 17.3353 15.4497
Au 13.153 12.7616 21.2648
Au 12.1393 14.9998 19.796
Au 11.2331 17.3205 18.3423
Au 12.2215 15.0612 22.6892
Au 11.2248 17.33 21.2289
Pd 11.3592 17.3967 24.079
Au 18.2761 26.4712 26.6978
Au 16.8312 27.3666 24.4102
Pd 15.4013 28.1958 22.089
Au 21.1915 26.475 26.7006
Pd 19.723 27.4717 24.4292
Au 18.2913 28.3425 22.1162
Au 22.5927 27.39 24.3878
Pd 21.159 28.3566 22.0894
Au 24.0139 28.229 22.0633
Au 18.3311 13.1433 26.8203
Au 16.9398 12.1576 24.5292
Au 15.5227 11.3094 22.1994
Au 21.2851 13.0974 26.8444
Au 19.8575 12.0115 24.6052
Au 18.4069 11.1521 22.2695
Pd 22.762 12.115 24.607
Au 21.3093 11.1564 22.3083
Au 24.1866 11.333 22.2583
Au 18.3084 26.3845 12.7451
Au 16.8616 27.3064 15.0202
Au 15.4171 28.1777 17.3528
Au 21.2082 26.3952 12.7482
Au 19.7567 27.4229 15.0183
Au 18.3177 28.3274 17.331
Au 22.6259 27.3391 15.056
Pd 21.1845 28.3259 17.3484
Au 24.0291 28.2039 17.3557
Pd 18.3883 13.0921 12.8338
Au 16.9426 12.1763 15.1171
Au 15.5417 11.3073 17.4423
Au 21.2942 13.1264 12.8473
Au 19.8515 12.0937 15.1142
Au 18.4132 11.1864 17.4455
Pd 22.7352 12.2157 15.1253
Pd 21.2858 11.2089 17.4341
Au 24.1497 11.3697 17.4297
Pd 25.9899 15.9309 25.0883
Au 25.8999 23.6514 25.0535
Pd 25.1457 13.5908 23.7209
Au 25.0035 25.9809 23.5837
Au 23.7101 14.433 25.998
Au 23.5817 25.0737 25.9348
Au 25.9481 15.9334 14.5054
Au 25.9139 23.6446 14.4708
Pd 25.0895 13.6154 15.9447
Au 25.0142 25.9562 15.9005
Pd 23.6514 14.5028 13.6318
Au 23.5967 25.0376 13.567
Pd 13.6043 15.9037 25.0748
Pd 13.5643 23.6072 25.0387
Au 14.513 13.5884 23.6647
Au 14.4412 25.9355 23.5937
Au 15.9367 14.4831 25.9842
Pd 15.8809 25.0713 25.9204
Au 13.6717 15.8491 14.4919
Pd 13.5884 23.5556 14.4362
Pd 14.5497 13.552 15.9432
Au 14.4467 25.9041 15.8529
Au 15.991 14.4515 13.6375
Au 15.9188 25.0113 13.5517
Au 31.2577 19.7793 12.6666
Pd 31.3856 19.8147 15.4641
Au 31.4786 19.826 18.3187
Au 31.5089 19.8314 21.1872
Au 31.4501 19.8715 24.0403
Au 31.3972 19.8774 26.9183
Au 8.33303 19.6575 12.6094
Au 8.14685 19.662 15.4378
Pd 8.09698 19.6823 18.322
Pd 8.0871 19.7057 21.1788
Pd 8.13798 19.7301 24.0205
Pd 8.28407 19.7602 26.7851
Au 12.5838 31.2516 19.6947
Au 15.4179 31.4442 19.7008
Au 18.294 31.5112 19.6989
Au 21.1715 31.5009 19.7102
Pd 24.0208 31.4089 19.7168
Pd 26.7971 31.2694 19.7107
Pd 12.7663 8.24678 19.7928
Au 15.577 8.06321 19.8073
Pd 18.4284 8.04125 19.7612
Au 21.2778 8.0458 19.7041
Au 24.1882 8.13523 19.7179
Au 27.0117 8.3333 19.724
Au 19.6926 12.7568 31.338
Au 19.7151 15.5752 31.4605
Au 19.7352 18.3988 31.4947
Au 19.7663 21.2669 31.4793
Au 19.7618 24.1067 31.4031
Pd 19.7539 26.904 31.2053
Pd 19.8497 12.6748 8.35434
Au 19.8297 15.4526 8.18217
Pd 19.8082 18.2818 8.15226
Au 19.7854 21.1192 8.09144
Au 19.7842 23.9689 8.10224
Au 19.7444 26.7915 8.23268
Au 29.0779 18.4009 27.859
Au 26.8171 16.9206 28.8235
Au 24.4692 15.5537 29.756
Au 22.0908 14.1161 30.5674
Au 29.0507 21.3238 27.8502
Au 26.8101 19.8736 28.9249
Au 24.5178 18.4206 29.8639
Au 22.1281 16.9774 30.7031
Au 26.7184 22.7869 28.7857
Pd 24.4828 21.3234 29.7975
Au 22.1715 19.862 30.72
Pd 24.4131 24.1612 29.6342
Pd 22.1467 22.721 30.6158
Au 22.1182 25.5668 30.4762
Au 29.0529 18.3029 11.6843
Pd 26.753 16.8613 10.7933
Pd 24.4662 15.4422 9.92962
Pd 22.1776 14.0415 9.0968
Au 29.0586 21.2334 11.6493
Au 26.801 19.7402 10.6324
Au 24.5166 18.2824 9.75241
Au 22.182 16.8704 8.9113
Au 26.7613 22.6669 10.7111
Au 24.4806 21.1959 9.71424
Au 22.1726 19.7278 8.86089
Au 24.4395 24.0659 9.82201
Pd 22.1578 22.5997 8.88323
Au 22.1101 25.4461 9.00724
Au 10.4659 18.3242 27.8257
Au 12.7549 16.9084 28.8086
Pd 15.0827 15.5166 29.6901
Au 17.3533 14.1323 30.5681
Au 10.4422 21.212 27.8005
Pd 12.6969 19.8005 28.8592
Au 15.013 18.3808 29.8231
Pd 17.3685 16.9512 30.6675
Au 12.7149 22.6634 28.7426
Pd 14.9831 21.2587 29.7934
Au 17.3278 19.8119 30.7333
Au 15.0206 24.1347 29.6548
Au 17.3296 22.6894 30.6836
Au 17.3762 25.5803 30.5069
Pd 10.549 18.2152 11.6657
Au 12.8302 16.7929 10.7546
Au 15.1665 15.3787 9.88438
Pd 17.5113 14.0099 9.07996
Pd 10.5258 21.0874 11.6465
Au 12.7743 19.6626 10.6131
Pd 15.0934 18.2383 9.75317
Au 17.4504 16.8362 8.90119
Au 12.7723 22.5516 10.696
Pd 15.0671 21.1139 9.73011
Au 17.3953 19.679 8.83692
Au 15.0645 24.0055 9.80115
Au 17.3833 22.5404 8.84583
Au 17.3899 25.4347 8.97132
Au 27.8172 29.1033 18.2505
Au 28.749 26.841 16.8311
Au 29.6678 24.5355 15.4121
Au 30.5304 22.1649 14.0068
Au 27.8054 29.1401 21.1926
Au 28.8582 26.8703 19.7345
Au 29.8144 24.5726 18.302
Au 30.7031 22.2025 16.8715
Au 28.7595 26.8598 22.6399
Pd 29.7977 24.5949 21.1952
Au 30.7368 22.2522 19.7511
Au 29.6661 24.5592 24.0777
Au 30.6928 22.2712 22.6256
Au 30.5228 22.2367 25.5151
Au 11.5751 29.0374 18.2359
Au 10.6642 26.7202 16.7792
Pd 9.83507 24.3589 15.3644
Au 9.03848 22.0188 13.9617
Au 11.6026 29.017 21.1699
Au 10.5454 26.7794 19.726
Au 9.64532 24.4481 18.252
Au 8.82757 22.0717 16.8487
Au 10.69 26.7239 22.6378
Au 9.64186 24.4558 21.1916
Au 8.77254 22.076 19.7301
Pd 9.83139 24.3999 24.0585
Au 8.83067 22.0968 22.6237
Pd 9.01777 22.0748 25.4551
Pd 27.9526 10.5439 18.2872
Au 28.8755 12.803 16.8762
Au 29.7331 15.1318 15.4298
Pd 30.5064 17.457 14.0288
Au 28.0205 10.5687 21.1681
Pd 28.9677 12.8125 19.7506
Au 29.8967 15.1119 18.3541
Au 30.6944 17.4568 16.8916
Au 28.952 12.894 22.6109
Pd 29.8801 15.1385 21.2146
Pd 30.7329 17.4557 19.7859
Pd 29.7536 15.1854 24.0655
Pd 30.6881 17.4796 22.6289
Au 30.5559 17.5013 25.4806
Au 11.7321 10.3909 18.3154
Au 10.7859 12.6726 16.8561
Au 9.90127 14.9715 15.4117
Au 9.07557 17.3123 13.9798
Au 11.7084 10.4101 21.2435
Au 10.6492 12.6514 19.773
Au 9.71203 14.9603 18.3325
Au 8.85106 17.2884 16.8863
Au 10.7449 12.7254 22.6548
Pd 9.71818 14.9869 21.2083
Pd 8.82298 17.3204 19.764
Au 9.84509 15.0861 24.0752
Au 8.84774 17.3476 22.623
Pd 9.03139 17.4266 25.4687
Au 18.285 27.9273 29.0237
Au 16.8156 28.8527 26.7373
Au 15.3809 29.71 24.4199
Au 13.944 30.5185 22.086
Au 21.1934 27.9259 29.0224
Au 19.7328 28.9678 26.7591
Pd 18.2675 29.8477 24.4558
Au 16.8313 30.7114 22.1284
Au 22.6459 28.8642 26.7216
Au 21.1576 29.882 24.4512
Au 19.7194 30.7664 22.1297
Pd 24.0388 29.7063 24.3886
Au 22.6139 30.72 22.1059
Pd 25.4396 30.526 22.0431
Au 18.1944 11.7555 29.1573
Pd 16.7854 10.8586 26.9016
Au 15.4739 9.83508 24.5659
Au 14.0931 8.98268 22.1856
Au 21.1755 11.6932 29.168
Au 19.7296 10.6242 26.9839
Pd 18.3806 9.61805 24.6909
Au 16.9908 8.78054 22.251
Au 22.9095 10.7621 27.017
Au 21.2898 9.52476 24.7301
Au 19.8619 8.75911 22.1989
Au 24.1233 9.73255 24.5794
Au 22.7543 8.81503 22.123
Au 25.6602 9.04041 22.1437
Au 18.2785 27.8095 10.4174
Pd 16.8435 28.7252 12.6771
Au 15.3926 29.6465 14.9614
Au 13.9518 30.5056 17.3249
Pd 21.186 27.7975 10.4255
Au 19.7526 28.8792 12.6496
Au 18.2958 29.8335 14.9289
Au 16.8398 30.7064 17.2811
Pd 22.6256 28.7542 12.709
Pd 21.1999 29.8084 14.9681
Au 19.7499 30.7476 17.2805
Au 24.0658 29.678 14.993
Au 22.6058 30.7031 17.3094
Au 25.4663 30.5486 17.3504
Au 18.4005 11.675 10.5095
Au 16.9476 10.7215 12.7828
Au 15.5141 9.80215 15.088
Au 14.1206 8.96838 17.4354
Au 21.319 11.7015 10.5134
Au 19.8532 10.629 12.7592
Au 18.4028 9.6585 15.076
Pd 16.9787 8.8377 17.4236
Au 22.7655 10.7868 12.7918
Au 21.3106 9.69704 15.0691
Pd 19.8441 8.81615 17.3965
Au 24.2023 9.89695 15.0764
Au 22.7421 8.87174 17.3697
Pd 25.6262 9.08993 17.4037
Au 28.327 15.9306 26.4994
Au 28.2568 23.7421 26.5282
Pd 27.552 13.6152 25.0748
Au 27.389 26.0598 25.0813
Au 26.6914 11.2947 23.6375
Au 26.4512 28.3693 23.604
Pd 26.0559 14.4738 27.4606
Pd 25.9282 25.1314 27.4127
Au 25.2992 12.0019 26.0508
Au 25.0464 27.4896 25.9633
Au 23.7019 13.1468 28.4156
Au 23.6146 26.563 28.2662
Pd 28.2924 15.9341 13.0421
Au 28.2871 23.6899 12.9831
Au 27.4627 13.5931 14.4431
Au 27.3846 26.0377 14.4215
Au 26.5848 11.2995 15.8866
Pd 26.4482 28.3077 15.8684
Au 25.9832 14.4815 12.1344
Au 25.9604 25.1068 12.0622
Pd 25.1162 12.1742 13.588
Pd 25.0352 27.4336 13.5308
Pd 23.6674 13.0804 11.3076
Au 23.6091 26.5038 11.2102
Au 11.229 15.9003 26.4963
Au 11.2065 23.6256 26.4603
Au 12.0871 13.5249 25.099
Pd 12.0533 25.9615 25.0419
Pd 13.0479 11.2203 23.6459
Au 12.9533 28.2677 23.5851
Au 13.5434 14.4521 27.4704
Au 13.4868 25.1116 27.3891
Au 14.4229 12.0915 26.0313
Au 14.3779 27.4412 25.9488
Pd 15.8795 13.1295 28.3609
Au 15.8385 26.5643 28.2659
Pd 11.3188 15.8316 13.0288
Au 11.2484 23.5327 12.9655
Au 12.1812 13.4759 14.4238
Au 12.0467 25.916 14.3457
Au 13.1033 11.1846 15.8927
Au 12.9505 28.2667 15.7932
Au 13.6272 14.3724 12.1123
Au 13.5441 25.0253 12.0363
Pd 14.5339 12.0661 13.5844
Au 14.4138 27.3881 13.4483
Au 15.9871 12.9915 11.2868
Pd 15.9001 26.4334 11.1877
Pd 33.4518 19.7732 11.298
Au 33.6445 19.8009 14.0265
Pd 33.6683 19.8269 16.8482
Au 33.7635 19.8463 19.7338
Au 33.7663 19.8706 22.634
Au 33.6711 19.8918 25.4613
Au 32.7921 17.5801 26.8636
Au 6.11834 19.6361 11.2223
Au 5.91181 19.643 13.9667
Pd 5.89245 19.6646 16.8505
Au 5.83 19.7117 19.7322
Au 5.83953 19.7314 22.6094
Au 5.87633 19.7441 25.446
Au 6.04841 19.7647 28.152
Au 11.1923 33.4575 19.6841
Au 13.9252 33.6808 19.6857
Au 16.816 33.7618 19.6807
Au 19.7376 33.7832 19.7005
Pd 22.6392 33.7039 19.7197
Au 25.4544 33.666 19.7207
Au 28.1603 33.5061 19.7234
Au 11.4099 6.01278 19.7819
Au 14.1142 5.84012 19.7828
Au 16.9804 5.77371 19.7168
Au 19.8523 5.77014 19.6356
Pd 22.7989 5.87113 19.661
Au 25.6833 5.90271 19.6744
Au 28.4097 6.13335 19.6912
Au 19.6793 11.4155 33.5726
Au 19.7149 14.1388 33.7366
Au 19.7425 16.9836 33.7796
Au 19.7594 19.8623 33.7724
Au 19.773 22.7431 33.7292
Au 19.7673 25.597 33.6328
Au 19.7605 28.2973 33.4182
Au 19.8597 11.2889 6.12835
Au 19.839 14.0047 5.93004
Pd 19.8199 16.8392 5.92201
Pd 19.791 19.6738 5.88036
Au 19.7652 22.5315 5.81278
Au 19.7575 25.3945 5.83213
Au 19.743 28.1334 5.99224
Pd 31.3268 18.4735 29.1795
Au 29.1352 17.047 30.1892
Au 26.7802 15.6648 31.2022
Au 24.3528 14.1144 32.0208
Pd 21.9708 12.6948 32.8096
Pd 31.2979 21.3353 29.1646
Au 29.176 19.902 30.2843
Au 26.8737 18.4659 31.2906
Au 24.4574 16.9814 32.2135
Pd 22.0613 15.5248 32.9717
Pd 29.0221 22.7655 30.0991
Au 26.8207 21.3817 31.2412
Au 24.5014 19.9261 32.1974
Au 22.1129 18.4331 33.0674
Au 26.7055 24.2104 31.0438
Au 24.4576 22.7982 32.0897
Pd 22.1142 21.341 32.9826
Au 24.3905 25.6042 31.9006
Pd 22.1052 24.1917 32.8807
Au 22.0482 27.0091 32.7313
Au 31.3397 18.3482 10.3008
Pd 29.0332 16.902 9.42512
Au 26.7491 15.4565 8.52637
Au 24.4572 14.021 7.66051
Au 22.1499 12.61 6.83158
Au 31.3484 21.19 10.2766
Pd 29.1307 19.7533 9.29367
Au 26.8415 18.2772 8.32412
Pd 24.5094 16.8209 7.49114
Au 22.1874 15.4136 6.61775
Pd 29.0519 22.6188 9.36883
Pd 26.8173 21.1974 8.33717
Pd 24.4921 19.7175 7.42521
Au 22.1483 18.2834 6.55478
Au 26.7352 24.0429 8.40923
Au 24.4785 22.6059 7.38571
Pd 22.1209 21.1536 6.5679
Au 24.3858 25.4575 7.53073
Au 22.122 24.0057 6.54898
Pd 22.0277 26.8223 6.74265
Pd 8.17842 18.385 29.1475
Au 10.429 16.9621 30.1653
Au 12.7875 15.5663 31.1207
Pd 15.0963 14.1765 31.9889
Au 17.3839 12.7617 32.886
Au 8.13812 21.1875 29.1565
Au 10.3565 19.8061 30.2469
Au 12.6663 18.392 31.2412
Pd 15.0465 16.9661 32.1037
Au 17.3577 15.5617 33.0149
Pd 10.4196 22.6316 30.0642
Au 12.6416 21.2729 31.1963
Au 14.9727 19.8488 32.1809
Au 17.3634 18.3894 33.0617
Pd 12.7312 24.0971 30.9918
Au 14.9708 22.7315 32.1178
Au 17.3804 21.2902 33.0665
Au 15.074 25.5767 31.9206
Au 17.387 24.1873 32.9777
Au 17.4595 27.0165 32.7586
Au 8.26722 18.2154 10.2556
Au 10.5567 16.8047 9.35964
Pd 12.8967 15.3831 8.50833
Au 15.2306 13.9626 7.62405
Au 17.5598 12.5793 6.8151
Au 8.24553 21.0569 10.2412
Au 10.4593 19.6527 9.2189
Au 12.788 18.2093 8.29226
Pd 15.136 16.7899 7.47599
Au 17.4733 15.3845 6.61051
Pd 10.5061 22.4703 9.35813
Pd 12.7606 21.11 8.31486
Pd 15.0815 19.664 7.42506
Pd 17.4682 18.2344 6.57777
Au 12.7812 23.9417 8.40581
Pd 15.0665 22.5436 7.42781
Au 17.412 21.0956 6.50566
Au 15.1086 25.3881 7.51141
Pd 17.4265 23.9895 6.5802
Au 17.4438 26.8196 6.67594
Au 29.1738 31.4148 18.3066
Au 30.1263 29.1438 16.8614
Au 31.0449 26.8374 15.4198
Au 31.9436 24.473 13.9747
Au 32.7899 22.0967 12.5719
Au 29.1648 31.4343 21.1493
Pd 30.1845 29.2129 19.7343
Pd 31.158 26.9171 18.2705
Au 32.1363 24.5779 16.8344
Au 32.991 22.1613 15.399
Au 30.11 29.1736 22.6109
Au 31.1998 26.9454 21.1912
Au 32.1678 24.6135 19.76
Au 33.0656 22.1944 18.2992
Pd 31.018 26.8508 24.0422
Au 32.1235 24.6263 22.6506
Pd 33.0238 22.213 21.2016
Au 31.9426 24.5412 25.5032
Au 33.0015 22.2568 24.0876
Au 32.7617 22.2214 26.8994
Au 10.1993 31.3367 18.2619
Au 9.27492 29.0223 16.8063
Au 8.39843 26.638 15.3431
Au 7.57478 24.2854 13.9262
Au 6.77729 21.9457 12.5237
Pd 10.2528 31.2993 21.1064
Au 9.15344 29.1159 19.7059
Au 8.20629 26.7777 18.2257
Au 7.35082 24.3959 16.7651
Pd 6.6099 21.9967 15.3432
Pd 9.33061 28.9996 22.5639
Au 8.20779 26.7856 21.1849
Pd 7.33551 24.4132 19.7102
Au 6.47981 22.0309 18.2671
Au 8.39892 26.6832 24.0258
Au 7.34103 24.4147 22.6403
Pd 6.51485 22.0418 21.1837
Au 7.55009 24.3456 25.4475
Pd 6.58851 22.0521 24.0667
Au 6.73487 22.0373 26.8538
Au 29.3708 8.27049 18.2761
Au 30.2699 10.5274 16.8678
Au 31.1611 12.8499 15.4357
Au 31.9967 15.1927 14.0047
Au 32.7809 17.4913 12.6124
Pd 29.3916 8.29495 21.0624
Pd 30.3658 10.5225 19.6701
Pd 31.2856 12.7987 18.2714
Au 32.1961 15.1404 16.8532
Pd 32.9217 17.4982 15.4102
Au 30.3761 10.6069 22.4815
Au 31.3574 12.8519 21.1134
Au 32.2483 15.1588 19.7562
Pd 33.01 17.506 18.31
Au 31.3061 12.9935 23.9401
Pd 32.1774 15.229 22.6105
Au 33.0674 17.5073 21.1955
Au 32.0573 15.2775 25.4494
Pd 32.9678 17.5451 24.0598
Au 29.2577 11.4517 24.9374
Au 10.396 8.08363 18.351
Pd 9.47158 10.3698 16.8934
Au 8.52714 12.6734 15.4135
Pd 7.67281 15.0314 13.9765
Au 6.81486 17.3355 12.5461
Au 10.3655 8.10094 21.1712
Au 9.27966 10.297 19.7366
Pd 8.36846 12.6085 18.2666
Au 7.42391 14.922 16.8208
Au 6.5884 17.2982 15.385
Au 9.36686 10.42 22.5962
Au 8.29125 12.6503 21.1827
Au 7.36088 14.9698 19.7418
Au 6.50569 17.3369 18.3065
Pd 8.46527 12.802 24.0248
Au 7.38312 15.0136 22.6292
Au 6.49072 17.3729 21.176
Au 7.56822 15.1483 25.476
Au 6.55646 17.4 24.0681
Au 6.75178 17.4763 26.8765
Pd 18.3417 29.2527 31.3005
Au 16.8673 30.2257 29.0439
Au 15.3863 31.1266 26.7122
Au 13.9327 31.974 24.362
Au 12.499 32.7834 22.0045
Pd 21.1502 29.2571 31.2917
Au 19.7369 30.3493 29.1092
Pd 18.2536 31.2494 26.7848
Au 16.7952 32.1681 24.4726
Au 15.342 33.0058 22.0733
Pd 22.5984 30.2004 29.0111
Au 21.193 31.308 26.8005
Au 19.697 32.223 24.4809
Au 18.254 33.0934 22.0789
Au 24.0614 31.1253 26.6763
Au 22.6567 32.1794 24.4475
Au 21.1858 33.0883 22.0832
Pd 25.4492 31.9375 24.3028
Au 24.0768 32.9909 22.0623
Pd 26.8418 32.7618 21.9861
Pd 18.1773 10.4808 31.4894
Pd 16.6204 9.58002 29.2428
Pd 15.1273 8.69422 26.9206
Au 13.9859 7.61028 24.4893
Pd 12.6837 6.75526 22.0693
Au 21.0211 10.3403 31.4439
Au 19.3809 9.25647 29.3216
Au 17.7566 8.36093 27.0536
Au 16.8073 7.37918 24.5962
Au 15.4859 6.51275 22.1563
Au 22.0633 9.17788 28.9833
Pd 20.3268 8.06241 26.9393
Au 19.764 7.20638 24.3812
Au 18.3909 6.41628 22.0487
Pd 22.8539 8.07843 26.557
Au 22.7093 7.12729 24.1518
Pd 21.2689 6.44294 21.9294
Pd 25.7775 7.72504 24.4387
Au 24.3184 6.54893 22.016
Au 27.1257 6.80597 22.0197
Au 18.3057 29.1538 8.09015
Au 16.8421 30.0908 10.3632
Au 15.3956 30.9969 12.6547
Pd 13.9503 31.8784 15.0332
Au 12.5043 32.766 17.3712
Au 21.1602 29.1556 8.11072
Au 19.7392 30.2373 10.2931
Au 18.2429 31.205 12.566
Au 16.7828 32.1289 14.9077
Au 15.3397 32.9858 17.3052
Au 22.6 30.0969 10.3953
Au 21.2072 31.2098 12.6086
Au 19.7439 32.183 14.9184
Au 18.2692 33.0749 17.3077
Au 24.0513 31.0425 12.6895
Au 22.6408 32.1399 14.9481
Au 21.1899 33.081 17.3336
Au 25.488 31.9573 15.0415
Au 24.0675 33.0027 17.3611
Au 26.8842 32.8199 17.4192
Au 18.4448 10.3006 8.22075
Pd 17.0137 9.39721 10.4959
Au 15.5422 8.4273 12.7803
Au 14.0957 7.53077 15.1437
Pd 12.7179 6.73691 17.515
Au 21.2905 10.3185 8.22631
Pd 19.8646 9.30819 10.4207
Au 18.3975 8.27778 12.6967
Au 16.9348 7.35179 15.0706
Pd 15.5244 6.57529 17.4423
Pd 22.7304 9.4406 10.5004
Au 21.3454 8.30909 12.6923
Au 19.8748 7.33091 15.0408
Au 18.4083 6.49983 17.3749
Au 24.2001 8.51397 12.7659
Au 22.8117 7.40508 15.0279
Pd 21.3264 6.55044 17.3593
Au 25.6571 7.6498 15.0999
Pd 24.26 6.65259 17.3637
Au 27.0755 6.8245 17.408
Pd 30.6489 16.0943 27.8714
Au 30.5953 23.7329 27.9206
Au 29.9456 13.731 26.4479
Pd 29.7189 26.0422 26.4612
Au 27.2432 9.95685 25.875
Au 28.813 28.3917 25.0419
Au 28.1927 8.98456 23.4646
Au 27.8537 30.6854 23.5477
Au 28.4141 14.6249 28.9126
Au 28.2511 25.1873 28.8519
Au 27.6925 12.2857 27.4625
Pd 27.3591 27.4797 27.3991
Au 25.1692 9.00638 27.0079
Pd 26.423 29.8173 25.8917
Au 26.0939 13.3022 29.9485
Pd 25.8962 26.5512 29.7113
Au 25.3731 11.0544 28.6389
Au 25.0342 28.9424 28.2682
Au 23.4903 11.6775 30.7005
Au 23.5671 28.0027 30.5733
Au 30.6165 15.976 11.6177
Au 30.6138 23.6127 11.5516
Au 29.8102 13.6287 13.011
Au 29.738 26.0342 12.9928
Au 28.9574 11.2902 14.4506
Pd 28.8046 28.3287 14.4798
Au 28.0377 8.99733 15.9156
Au 27.8883 30.6318 15.8872
Au 28.298 14.5064 10.6918
Au 28.2882 25.0708 10.5945
Pd 27.4349 12.18 12.1248
Pd 27.3754 27.4369 12.083
Au 26.5818 9.85536 13.5396
Au 26.4813 29.7488 13.5218
Pd 25.9568 13.0956 9.83723
Au 25.9416 26.4968 9.70439
Pd 25.0951 10.7735 11.2849
Au 25.0303 28.8527 11.1896
Au 23.6717 11.6515 8.99394
Au 23.5522 27.8842 8.87067
Au 8.89078 15.975 27.8948
Au 8.86785 23.5742 27.8492
Au 9.70944 13.5869 26.4854
Au 9.70135 25.9397 26.4344
Au 10.6082 11.2151 25.0269
Au 10.5904 28.2808 25.0003
Au 11.6127 8.88982 23.5944
Au 11.5204 30.5871 23.5283
Au 11.1923 14.5336 28.9122
Au 11.1598 25.0666 28.8184
Au 12.0157 12.1411 27.482
Au 12.0166 27.4575 27.3746
Au 12.8811 9.83221 25.9841
Pd 12.9814 29.7646 25.872
Au 13.5319 13.166 29.8684
Au 13.5014 26.5496 29.7366
Pd 14.3497 10.8876 28.4224
Au 14.4134 28.936 28.2613
Au 15.8187 11.7795 30.7237
Au 15.9074 28.0039 30.5904
Au 9.02568 15.8401 11.5777
Pd 8.96698 23.4114 11.5657
Au 9.85193 13.4863 12.9985
Au 9.72244 25.8275 12.9217
Pd 10.7626 11.17 14.493
Au 10.5747 28.2362 14.3623
Au 11.6965 8.84916 15.9475
Au 11.5173 30.5832 15.8425
Pd 11.3369 14.4266 10.6888
Pd 11.2498 24.8938 10.6072
Au 12.1932 12.0172 12.0907
Au 12.0629 27.3552 11.9755
Au 13.1172 9.71809 13.5606
Au 12.9777 29.7206 13.4417
Au 13.6768 12.9593 9.77512
Au 13.5645 26.404 9.67936
Pd 14.6004 10.6533 11.2728
Pd 14.4825 28.7658 11.1395
Pd 16.0826 11.6122 8.98644
Au 15.9079 27.8314 8.8483
