923
Atoms. Timestep: 20096
Au 19.6708 19.7113 19.7249
Au 21.9759 19.737 18.3143
Au 21.979 19.7496 21.1545
Au 17.37 19.6753 18.2908
Au 17.3785 19.6899 21.1415
Au 18.2563 22.006 19.7132
Au 21.1035 22.0173 19.7102
Au 18.2423 17.3989 19.7349
Au 21.0974 17.4316 19.7329
Au 19.6905 18.3167 22.0401
Au 19.682 21.1467 22.0218
Au 19.6505 18.274 17.4338
Au 19.6709 21.1133 17.4224
Pd 24.2686 19.7454 16.9147
Au 24.3443 19.7734 19.7245
Au 24.2797 19.7878 22.5959
Pd 15.0774 19.6596 16.8705
Au 15.0123 19.6573 19.7125
Au 15.1036 19.6893 22.5842
Pd 16.8528 24.3016 19.7137
Au 19.6845 24.3927 19.706
Au 22.5256 24.3207 19.6908
Pd 16.8274 15.0904 19.7593
Au 19.6704 15.0453 19.7409
Au 22.5426 15.154 19.7564
Au 19.7228 16.942 24.3685
Au 19.7083 19.7514 24.4276
Au 19.7056 22.573 24.3241
Au 19.6514 16.8501 15.1344
Au 19.6536 19.6684 15.0512
Au 19.6879 22.5244 15.1303
Au 22.041 18.3364 23.5424
Au 22.0341 21.1943 23.5224
Au 21.998 18.2782 15.9754
Au 22.0218 21.1595 15.9655
Au 17.3678 18.2771 23.5265
Au 17.3626 21.1568 23.5122
Pd 17.334 18.2225 15.9538
Au 17.3334 21.0869 15.937
Pd 23.4516 22.0677 18.2768
Au 23.468 22.091 21.1575
Au 15.9016 22.0059 18.2622
Au 15.9209 22.0414 21.1625
Au 23.4664 17.4235 18.2913
Au 23.4709 17.4316 21.1988
Au 15.9048 17.3402 18.2793
Au 15.8891 17.3189 21.1849
Au 18.2471 23.5151 22.0415
Au 21.135 23.5149 22.0384
Au 18.2322 15.9529 22.0767
Au 21.1448 15.9767 22.0963
Au 18.238 23.476 17.3793
Au 21.138 23.4862 17.385
Au 18.2181 15.9071 17.4077
Au 21.1143 15.9246 17.4004
Au 26.5759 19.7428 15.5169
Au 26.6867 19.7649 18.3091
Au 26.6873 19.7925 21.1759
Au 26.5771 19.8085 24.0161
Au 12.7417 19.6581 15.437
Au 12.6671 19.6438 18.2981
Au 12.6979 19.6692 21.1919
Pd 12.8406 19.7231 24.0398
Au 15.4364 26.6099 19.7342
Au 18.2763 26.7273 19.712
Pd 21.1233 26.7264 19.6967
Au 23.9442 26.6205 19.68
Au 15.4137 12.7457 19.8036
Au 18.2587 12.6899 19.7554
Au 21.1418 12.7272 19.7559
Au 24.0054 12.8774 19.7875
Pd 19.7508 15.5708 26.6828
Pd 19.7359 18.3612 26.7584
Pd 19.7322 21.1811 26.736
Au 19.7396 24.0147 26.6176
Pd 19.6911 15.4209 12.8561
Pd 19.6725 18.2255 12.7338
Pd 19.6931 21.0995 12.7444
Au 19.7177 23.9483 12.8326
Pd 24.3553 18.3579 24.9841
Au 22.0701 16.9347 25.8864
Pd 24.3451 21.2332 24.9697
Pd 22.0675 19.7849 25.9268
Au 22.0723 22.6305 25.8467
Au 24.3218 18.2701 14.5555
Au 22.0101 16.821 13.6496
Au 24.3255 21.1816 14.5314
Au 22.0067 19.6943 13.5469
Au 22.0416 22.5717 13.6196
Au 15.0713 18.2771 24.9859
Au 17.4036 16.8992 25.8829
Au 15.0557 21.1811 24.9811
Pd 17.3779 19.7456 25.9323
Au 17.3733 22.6146 25.8408
Au 15.0455 18.2012 14.5036
Pd 17.3486 16.7931 13.6376
Au 15.0156 21.0866 14.48
Au 17.3217 19.6187 13.5244
Au 17.355 22.5381 13.6187
Au 24.8986 24.3944 18.2529
Au 25.7712 22.1008 16.8643
Pd 24.9021 24.4117 21.1537
Au 25.8568 22.1421 19.7297
Pd 25.7868 22.1284 22.6098
Au 14.4727 24.3401 18.2679
Au 13.5495 21.9966 16.8046
Au 14.4884 24.3785 21.1871
Au 13.5056 22.0432 19.7259
Au 13.6163 22.0618 22.6481
Au 24.94 15.1125 18.3045
Pd 25.7951 17.4129 16.8801
Au 24.9548 15.1259 21.257
Au 25.8832 17.4139 19.7507
Au 25.8069 17.4359 22.6658
Au 14.4776 15.0162 18.3223
Au 13.5766 17.3222 16.8622
Pd 14.4355 14.9863 21.2131
Au 13.4731 17.2648 19.763
Au 13.5979 17.3282 22.6645
Au 18.2608 24.9861 24.3706
Au 16.8234 25.8557 22.0609
Au 21.1567 24.9859 24.3608
Au 19.7082 25.9525 22.0668
Au 22.5624 25.8602 22.0272
Au 18.2714 14.5697 24.4283
Au 16.787 13.6176 22.1095
Au 21.1918 14.5662 24.4546
Au 19.7058 13.5579 22.1344
Au 22.6232 13.672 22.1586
Pd 18.2579 24.9147 15.0586
Au 16.8258 25.8037 17.3644
Au 21.1518 24.9267 15.0721
Au 19.7128 25.9045 17.3508
Pd 22.5593 25.8251 17.3665
Au 18.2519 14.4508 15.0839
Au 16.8099 13.5633 17.4258
Au 21.1496 14.4562 15.0744
Au 19.6965 13.4749 17.3724
Au 22.5873 13.6104 17.3962
Au 23.5571 15.9719 23.6199
Au 23.5321 23.5687 23.5371
Au 23.5149 15.892 15.9315
Pd 23.5012 23.545 15.9157
Pd 15.8711 15.9085 23.5835
Au 15.8832 23.5619 23.5722
Pd 15.8873 15.8573 15.9268
Au 15.8569 23.4919 15.8797
Au 28.8998 19.7378 14.1033
Pd 29.0407 19.7632 16.9052
Au 29.0783 19.7766 19.7435
Au 29.049 19.7954 22.5928
Au 28.9193 19.8149 25.4215
Pd 10.3674 19.6559 13.9798
Au 10.3137 19.6384 16.8851
Au 10.3156 19.6806 19.7826
Au 10.4097 19.7249 22.6763
Au 10.5762 19.7709 25.4893
Au 14.0179 28.9272 19.7436
Au 16.8489 29.076 19.7352
Au 19.7206 29.0991 19.7113
Au 22.5458 29.0568 19.6989
Au 25.3778 28.9332 19.6866
Au 15.4234 11.1899 17.4629
Au 16.8746 10.3211 19.7758
Au 19.7472 10.3437 19.7816
Au 22.6218 10.4232 19.7889
Au 25.4877 10.606 19.8125
Au 19.7626 14.1794 28.9863
Pd 19.7651 16.9674 29.0876
Au 19.7599 19.7913 29.1039
Au 19.7726 22.6375 29.057
Au 19.7656 25.4687 28.917
Au 19.719 13.9936 10.5731
Pd 19.7168 16.7995 10.4298
Au 19.7443 19.6555 10.4238
Au 19.7555 22.5361 10.4385
Pd 19.7314 25.3789 10.5374
Au 26.6794 18.3453 26.4137
Au 24.4232 16.9157 27.331
Pd 22.1049 15.5246 28.2086
Au 26.6581 21.2775 26.4139
Au 24.4126 19.8258 27.3968
Au 22.1098 18.3778 28.2924
Pd 24.3907 22.6994 27.3065
Au 22.1249 21.2517 28.2709
Pd 22.1055 24.1028 28.1482
Au 26.6484 18.2536 13.1273
Pd 24.357 16.8053 12.2257
Au 22.0569 15.3874 11.3622
Au 26.6569 21.1939 13.0953
Au 24.3632 19.7097 12.1078
Pd 22.0673 18.2317 11.2237
Pd 24.3751 22.6203 12.173
Pd 22.0788 21.1441 11.2139
Pd 22.0743 24.0167 11.3244
Au 12.7855 18.3265 26.4552
Au 15.0878 16.8914 27.368
Pd 17.4255 15.517 28.2161
Pd 12.772 21.2163 26.4438
Au 15.0478 19.7843 27.4313
Au 17.4015 18.3457 28.3146
Au 15.0469 22.6708 27.3157
Au 17.3739 21.21 28.2958
Au 17.3838 24.0949 28.1588
Au 12.703 18.2234 13.0485
Pd 15.0383 16.7779 12.154
Au 17.3819 15.3721 11.3198
Au 12.6861 21.0929 13.0275
Au 14.9672 19.6287 12.0008
Au 17.3198 18.1895 11.1478
Au 15.0069 22.5639 12.147
Au 17.3377 21.0794 11.1715
Au 17.3712 23.9905 11.2962
Pd 26.3569 26.7178 18.2452
Pd 27.2682 24.4464 16.839
Au 28.1352 22.1129 15.4539
Au 26.3541 26.7352 21.1527
Au 27.3456 24.4809 19.7091
Au 28.2518 22.1491 18.2932
Au 27.2635 24.464 22.6043
Au 28.2493 22.1811 21.1721
Au 28.1288 22.1705 24.0419
Au 13.0226 26.678 18.2804
Au 12.1079 24.3445 16.8041
Au 11.152 21.9777 15.3382
Pd 13.0515 26.7027 21.2114
Au 12.0302 24.4218 19.7587
Au 11.1208 22.0535 18.2875
Au 12.1683 24.4223 22.6919
Au 11.1527 22.0886 21.2247
Au 11.3349 22.101 24.1286
Au 26.4372 12.8138 18.3446
Au 27.3122 15.0909 16.8945
Au 28.1372 17.4034 15.4742
Au 26.4441 12.8483 21.2874
Au 27.4066 15.0882 19.8053
Au 28.2702 17.4086 18.3291
Pd 27.316 15.1262 22.6976
Au 28.2663 17.3981 21.2161
Au 28.1464 17.4323 24.0664
Au 13.062 12.6874 18.3571
Au 12.1076 14.9837 16.9011
Au 11.216 17.3209 15.4351
Au 12.9873 12.5986 21.242
Au 11.9578 14.9095 19.8102
Au 11.0539 17.2535 18.353
Au 12.1292 15.0074 22.7077
Au 11.1157 17.2958 21.2556
Pd 11.318 17.3991 24.1304
Au 18.2816 26.4551 26.6795
Au 16.8318 27.3543 24.3992
Pd 15.3955 28.1857 22.0892
Au 21.1917 26.4525 26.6782
Pd 19.7172 27.4456 24.4097
Au 18.2788 28.3174 22.1064
Au 22.5843 27.3587 24.3654
Pd 21.142 28.32 22.0736
Au 23.9965 28.1894 22.0425
Au 18.2976 13.1847 26.7691
Au 16.845 12.2005 24.4711
Au 15.3564 11.2084 22.1412
Au 21.2217 13.1706 26.7881
Au 19.7632 12.1139 24.5153
Au 18.2819 11.1704 22.1779
Pd 22.678 12.2313 24.5104
Au 21.2098 11.2091 22.1916
Au 24.1067 11.3847 22.1975
Au 18.2772 26.3659 12.7451
Au 16.8335 27.2825 15.0224
Au 15.3929 28.1509 17.3579
Au 21.1732 26.3694 12.7407
Au 19.7213 27.3878 15.0142
Au 18.286 28.2918 17.3304
Au 22.5883 27.2958 15.0441
Pd 21.1497 28.2799 17.3403
Au 23.9942 28.1519 17.341
Pd 18.3018 12.9861 12.7884
Au 16.8475 12.0686 15.1019
Au 13.0304 11.1483 15.9234
Au 21.1941 13.0136 12.7785
Au 19.7533 11.9539 15.0369
Au 18.3135 11.0592 17.3743
Pd 22.6573 12.1471 15.0822
Pd 21.2002 11.1398 17.3832
Au 24.0734 11.3349 17.4195
Pd 25.9094 15.9603 25.0567
Au 25.869 23.6246 25.0189
Pd 25.0547 13.6468 23.6662
Au 24.9796 25.946 23.5545
Au 23.6178 14.5304 25.9662
Au 23.5662 25.05 25.9042
Au 25.8656 15.8782 14.5027
Au 25.8616 23.5922 14.4651
Pd 25.0147 13.5699 15.9391
Au 24.9698 25.9027 15.8895
Pd 23.5557 14.4308 13.604
Au 23.5495 24.9954 13.5601
Pd 13.5465 15.9021 25.0879
Pd 13.5633 23.6036 25.0587
Au 14.4149 13.5644 23.6338
Au 14.437 25.9264 23.5978
Au 15.8862 14.5129 25.9667
Pd 15.884 25.0575 25.9123
Au 13.558 15.8322 14.4779
Pd 13.4898 23.5 14.4173
Pd 14.4527 13.5094 15.9409
Au 14.3988 25.8632 15.8497
Au 15.904 14.3987 13.5953
Au 15.8686 24.9786 13.5453
Au 31.2132 19.724 12.6813
Pd 31.3414 19.7612 15.4709
Au 31.4306 19.77 18.3176
Au 31.4582 19.77 21.1732
Au 31.4124 19.8188 24.009
Au 31.2494 19.83 26.8336
Au 7.97589 19.5841 12.4881
Au 8.01136 19.6794 15.4716
Pd 7.98475 19.7722 18.3766
Pd 8.04455 19.8149 21.287
Pd 8.14159 19.8121 24.15
Pd 8.31591 19.8264 26.9271
Au 12.5954 31.2555 19.7257
Au 15.4224 31.4386 19.723
Au 18.2931 31.4917 19.7127
Au 21.1655 31.4672 19.7128
Pd 24.012 31.3652 19.7098
Pd 26.7886 31.2207 19.696
Pd 13.991 10.3446 19.8553
Au 14.3636 5.69259 20.0287
Pd 18.3732 7.98894 19.9035
Au 21.2376 8.03433 19.9105
Au 24.1259 8.13178 19.851
Au 26.9592 8.33045 19.8314
Au 19.7709 12.7518 31.3092
Au 19.7615 15.5668 31.4433
Au 19.7726 18.3916 31.4872
Au 19.796 21.2634 31.4764
Au 19.7918 24.101 31.3969
Pd 19.7876 26.895 31.1951
Pd 19.7252 12.5785 8.32047
Au 19.7877 15.3833 8.09812
Pd 19.8421 18.2511 8.11038
Au 19.8201 21.1134 8.07644
Au 19.7847 23.9762 8.10947
Au 19.744 26.8105 8.25054
Au 29.0338 18.378 27.86
Au 26.7853 16.9178 28.8092
Au 24.4725 15.5015 29.7048
Au 22.1375 14.1077 30.5407
Au 29.0208 21.3029 27.8392
Au 26.781 19.8586 28.9088
Au 24.5016 18.4079 29.8384
Au 22.1522 16.97 30.6771
Au 26.706 22.7651 28.7643
Pd 24.4746 21.3118 29.7771
Au 22.1803 19.8592 30.7041
Pd 24.4174 24.1447 29.6136
Pd 22.1585 22.7138 30.6006
Au 22.1382 25.5546 30.4595
Au 28.9949 18.251 11.7074
Pd 26.6944 16.8096 10.8111
Pd 24.4085 15.385 9.929
Pd 22.1066 13.9673 9.06316
Au 29.0158 21.1887 11.6673
Au 26.7492 19.703 10.6514
Au 24.469 18.2403 9.76462
Au 22.1435 16.8113 8.88885
Au 26.7327 22.6463 10.7333
Au 24.452 21.1866 9.73483
Au 22.1671 19.7066 8.85942
Au 24.4251 24.0687 9.84444
Pd 22.1514 22.6098 8.89713
Au 22.1023 25.4608 9.0252
Au 10.494 18.3804 27.9454
Au 12.7849 16.9397 28.8908
Pd 15.1226 15.5076 29.7103
Au 17.4056 14.1088 30.5418
Au 10.481 21.2529 27.9078
Pd 12.7362 19.8212 28.9334
Au 15.0529 18.3795 29.8611
Pd 17.4079 16.9373 30.6681
Au 12.7572 22.6784 28.8076
Pd 15.0239 21.2566 29.8258
Au 17.3659 19.8033 30.7421
Au 15.0595 24.1316 29.6815
Au 17.3665 22.6806 30.6876
Au 17.4093 25.5708 30.5071
Pd 10.3964 18.2006 11.6275
Au 12.7011 16.7453 10.7148
Au 15.0408 15.3422 9.81084
Pd 17.3874 13.9786 8.96564
Pd 10.4058 21.0804 11.6181
Au 12.6183 19.6592 10.4715
Pd 14.9437 18.2122 9.59258
Au 17.3659 16.7975 8.75568
Au 12.6588 22.6396 10.7283
Pd 14.9773 21.1511 9.68162
Au 17.3665 19.6536 8.76363
Au 15.0046 24.0756 9.83658
Au 17.3467 22.5365 8.81903
Au 17.3701 25.4571 8.99195
Au 27.7988 29.0486 18.2407
Au 28.724 26.7832 16.8289
Au 29.638 24.4772 15.4171
Au 30.4944 22.1081 14.0173
Au 27.7926 29.093 21.1733
Au 28.8315 26.8166 19.7203
Au 29.779 24.5156 18.2958
Au 30.6611 22.1463 16.8733
Au 28.7413 26.816 22.6158
Pd 29.7653 24.5427 21.1763
Au 30.6926 22.1955 19.7416
Au 29.6409 24.5187 24.0503
Au 30.6511 22.2192 22.6051
Au 30.4987 22.2086 25.4878
Au 11.5773 29.0303 18.2719
Au 10.646 26.7109 16.8142
Pd 9.78137 24.3427 15.3878
Au 8.74037 21.9555 13.8144
Au 11.6173 29.0282 21.2131
Au 10.5463 26.7849 19.7814
Au 9.6196 24.4605 18.3048
Au 8.76406 22.0979 16.867
Au 10.7126 26.7531 22.7101
Au 9.65037 24.4885 21.2831
Au 8.73872 22.1357 19.808
Pd 9.86033 24.4491 24.1644
Au 8.84133 22.1617 22.7459
Pd 9.05146 22.1364 25.5872
Pd 27.9206 10.5329 18.3948
Au 28.849 12.7784 16.9573
Au 29.6969 15.0937 15.4727
Pd 30.4617 17.408 14.0511
Au 27.9343 10.5595 21.2812
Pd 28.9006 12.7922 19.8307
Au 29.84 15.0778 18.3913
Au 30.6425 17.4123 16.9063
Au 28.8367 12.8563 22.7084
Pd 29.7911 15.0915 21.2508
Pd 30.6696 17.4021 19.7948
Pd 29.6596 15.1508 24.0949
Pd 30.6202 17.4244 22.6286
Au 30.5004 17.4544 25.4726
Au 14.0527 8.82134 17.4648
Au 10.673 12.6284 16.8923
Au 9.76621 14.942 15.4412
Au 8.88891 17.2859 14.0148
Au 11.6801 10.375 18.3751
Au 10.4727 12.5392 19.8556
Au 9.48535 14.8911 18.3931
Au 8.65041 17.2419 16.9388
Au 10.7071 12.6514 22.7661
Pd 9.60528 14.965 21.325
Pd 8.68776 17.3575 19.8488
Au 9.84059 15.0879 24.2265
Au 8.80005 17.395 22.7404
Pd 9.04212 17.4695 25.6071
Au 18.3146 27.9175 29.0146
Au 16.8441 28.848 26.7349
Au 15.4058 29.712 24.4274
Au 13.9626 30.5248 22.1043
Au 21.2173 27.9081 29.0053
Au 19.7523 28.9476 26.7457
Pd 18.2842 29.8321 24.4504
Au 16.8427 30.6998 22.1348
Au 22.6599 28.8376 26.7032
Au 21.167 29.853 24.4386
Au 19.7239 30.7392 22.1275
Pd 24.0441 29.6719 24.371
Au 22.6126 30.6826 22.0958
Pd 25.4363 30.4835 22.0276
Au 18.2998 11.7514 29.0917
Pd 16.8918 10.8246 26.8241
Au 15.4345 9.85941 24.5334
Au 13.8882 8.79155 22.1838
Au 21.2379 11.7185 29.1297
Au 19.7593 10.6749 26.8818
Pd 18.3223 9.72565 24.6003
Au 16.8818 8.79377 22.26
Au 22.7065 10.8078 26.8586
Au 21.2594 9.73144 24.5978
Au 19.7894 8.79399 22.2849
Au 24.1632 9.92062 24.5579
Au 22.729 8.86771 22.2674
Au 25.6075 9.06896 22.2083
Au 18.2869 27.8302 10.4384
Pd 16.8591 28.747 12.7066
Au 15.4025 29.6564 14.9925
Au 13.9565 30.5038 17.3537
Pd 21.1822 27.8012 10.438
Au 19.7494 28.8715 12.6667
Au 18.2942 29.8221 14.9525
Au 16.8369 30.6916 17.306
Pd 22.6141 28.735 12.7145
Pd 21.1868 29.7788 14.9773
Au 19.7398 30.7167 17.2944
Au 24.0486 29.6388 14.9931
Au 22.5909 30.6602 17.3114
Au 25.4502 30.4986 17.3418
Au 18.3414 11.5029 10.4971
Au 16.837 10.6098 12.7755
Au 15.4106 9.69195 15.0928
Au 15.5147 7.99181 19.844
Au 21.2921 11.6025 10.4456
Au 19.7933 10.4457 12.6942
Au 18.3402 9.46165 15.0257
Pd 16.9262 8.6777 17.4103
Au 22.788 10.7457 12.7524
Au 21.2958 9.60397 15.0468
Pd 19.8149 8.71773 17.4693
Au 24.2087 9.87229 15.0885
Au 22.7026 8.82758 17.4262
Pd 25.5913 9.07539 17.4804
Au 28.2641 15.9423 26.4927
Au 28.2371 23.7082 26.4979
Pd 27.4437 13.6468 25.099
Au 27.3753 26.0224 25.0528
Au 26.5719 11.3276 23.7183
Au 26.4434 28.328 23.5809
Pd 25.997 14.525 27.4403
Pd 25.9225 25.1039 27.383
Au 25.1427 12.1845 26.0392
Au 25.0465 27.4566 25.9378
Au 23.6708 13.0978 28.339
Au 23.6236 26.5394 28.2416
Pd 28.2405 15.8848 13.0726
Au 28.254 23.6402 12.9982
Au 27.4325 13.5559 14.495
Au 27.3559 25.9849 14.4288
Au 26.567 11.2717 15.958
Pd 26.424 28.255 15.8661
Au 25.9345 14.4347 12.156
Au 25.9356 25.0764 12.0795
Pd 25.1061 12.1402 13.6121
Pd 25.0123 27.3948 13.5375
Pd 23.6276 13.0279 11.2904
Au 23.5924 26.4883 11.2247
Au 11.2362 15.9462 26.6113
Au 11.2462 23.655 26.5386
Au 12.0671 13.5347 25.1996
Pd 12.0874 25.9829 25.0941
Pd 13.0089 11.2112 23.6952
Au 12.9798 28.2801 23.6133
Au 13.5595 14.4801 27.528
Au 13.5261 25.1188 27.4238
Au 14.4473 12.1174 26.0615
Au 14.4105 27.4447 25.963
Pd 15.931 13.1111 28.337
Au 15.8718 26.5592 28.2703
Pd 11.217 15.824 13.0352
Au 11.1395 23.5221 12.9957
Au 12.0847 13.4606 14.4573
Au 12.0106 25.9133 14.3733
Au 12.7699 8.67504 14.8525
Au 12.9454 28.2634 15.8221
Au 13.5366 14.3377 12.1323
Au 13.5073 25.0632 12.0775
Pd 14.4522 12.029 13.5785
Au 14.4147 27.4068 13.4814
Au 15.9241 12.9365 11.2381
Pd 15.897 26.4686 11.2169
Pd 33.412 19.7129 11.3153
Au 33.6069 19.7411 14.0421
Pd 33.6281 19.7622 16.861
Au 33.7212 19.7724 19.7375
Au 33.7248 19.794 22.6149
Au 33.6645 19.8261 25.4789
Au 33.4642 19.8419 28.2017
Au 5.69152 20.0766 17.058
Au 5.75989 19.9022 14.2653
Pd 6.18823 17.6593 15.9953
Au 6.24675 17.6778 18.7195
Au 5.82068 19.9794 22.8151
Au 5.90111 19.8846 25.6413
Au 6.10143 19.8579 28.3386
Au 11.2138 33.4717 19.7228
Au 13.9453 33.6882 19.7172
Au 16.8328 33.7568 19.7054
Au 19.7486 33.7629 19.7132
Pd 22.6436 33.6685 19.7205
Au 25.4563 33.6213 19.7114
Au 28.1618 33.4552 19.7061
Au 11.3891 8.02419 17.1559
Au 12.6569 7.90376 19.7763
Au 17.0992 5.6626 20.1906
Au 19.9371 5.72788 20.1586
Pd 22.7939 5.84853 20.0571
Au 25.6372 5.91255 19.9076
Au 28.3644 6.13187 19.862
Au 19.773 11.3934 33.5382
Au 19.7785 14.1166 33.7145
Au 19.7971 16.9642 33.7672
Au 19.8121 19.8488 33.7667
Au 19.819 22.7372 33.7279
Au 19.8132 25.5927 33.6284
Au 19.8087 28.2931 33.4086
Au 19.7452 11.2356 6.17712
Au 20.0595 14.0116 5.82316
Pd 20.1204 16.896 5.85191
Pd 20.0806 19.7374 5.84221
Au 19.9291 22.5923 5.80097
Au 19.8021 25.4423 5.85168
Au 19.7608 28.1745 6.01811
Pd 31.333 18.4427 29.1773
Au 29.1059 16.987 30.1717
Au 26.784 15.5272 31.1167
Au 24.4215 14.0969 31.9927
Pd 22.0572 12.7034 32.7969
Pd 31.3183 21.2725 29.1513
Au 29.1523 19.8661 30.2708
Au 26.8661 18.4 31.2637
Au 24.5021 16.94 32.167
Pd 22.1167 15.5171 32.9474
Pd 29.0122 22.7363 30.085
Au 26.8193 21.3502 31.2242
Au 24.5212 19.9021 32.1754
Au 22.1619 18.417 33.0468
Au 26.7158 24.1856 31.0243
Au 24.4767 22.781 32.0727
Pd 22.1512 21.3312 32.9713
Au 24.4162 25.5886 31.882
Pd 22.1401 24.1821 32.869
Au 22.0882 26.9993 32.7165
Au 31.2946 18.2947 10.3269
Pd 29.0001 16.8569 9.45182
Au 26.7422 15.4222 8.54464
Au 24.471 13.986 7.65979
Au 22.1395 12.5525 6.8095
Au 31.3141 21.1412 10.299
Pd 29.0955 19.7145 9.32217
Au 26.8364 18.2468 8.35432
Pd 24.548 16.7945 7.51217
Au 22.3049 15.3761 6.61051
Pd 29.0377 22.5974 9.40135
Pd 26.8192 21.1926 8.37241
Pd 24.5605 19.7234 7.4619
Au 22.3339 18.2943 6.56528
Au 26.7481 24.0572 8.4504
Au 24.5284 22.6368 7.42416
Pd 22.2637 21.1956 6.59858
Au 24.4077 25.4955 7.57029
Au 22.1805 24.0544 6.57859
Pd 22.0475 26.8648 6.77306
Pd 8.23762 18.474 29.3227
Au 10.5001 17.0172 30.3091
Au 12.8723 15.5506 31.189
Pd 15.1812 14.1243 31.9904
Au 17.4728 12.698 32.8369
Au 8.20395 21.2627 29.313
Au 10.4288 19.8601 30.3748
Au 12.7395 18.4066 31.3282
Pd 15.1133 16.9402 32.1346
Au 17.4209 15.52 33.0032
Pd 10.49 22.6749 30.1807
Au 12.7126 21.2938 31.2775
Au 15.0383 19.8443 32.2246
Au 17.4195 18.3655 33.0682
Pd 12.7968 24.1153 31.0658
Au 15.0332 22.7326 32.1575
Au 17.4319 21.28 33.0799
Au 15.1284 25.579 31.9551
Au 17.4351 24.1809 32.9873
Au 17.5067 27.0123 32.762
Au 8.50361 18.8533 9.86276
Au 10.8402 17.6161 8.95671
Pd 13.1864 16.2478 8.10556
Au 15.4179 14.706 7.20552
Au 17.6705 13.07 6.41114
Au 8.20232 21.4132 10.3566
Au 10.4923 20.3086 8.94031
Au 12.9531 18.9156 7.87436
Pd 15.3745 17.4163 7.07076
Au 17.717 15.7433 6.29017
Pd 10.3627 22.9065 9.4821
Pd 12.7725 21.5929 8.23769
Pd 15.2474 20.1263 7.22654
Pd 17.752 18.4764 6.39551
Au 12.6856 24.2927 8.53487
Pd 15.0766 22.855 7.40887
Au 17.6078 21.252 6.41716
Au 15.0702 25.5987 7.59265
Pd 17.4711 24.0875 6.58801
Au 17.4517 26.89 6.71512
Au 29.1675 31.3577 18.2935
Au 30.1139 29.0832 16.8569
Au 31.0275 26.7764 15.4241
Au 31.9224 24.4129 13.9883
Au 32.7602 22.0368 12.5883
Au 29.164 31.3826 21.1296
Pd 30.1738 29.1534 19.7195
Pd 31.1394 26.8537 18.2656
Au 32.1116 24.5142 16.8394
Au 32.9589 22.1001 15.4114
Au 30.1053 29.1236 22.5875
Au 31.1832 26.8861 21.1714
Au 32.1419 24.5481 19.7491
Au 33.0306 22.129 18.3013
Pd 31.0062 26.8027 24.0153
Au 32.0993 24.5653 22.6285
Pd 32.9864 22.1438 21.1894
Au 31.9238 24.4995 25.4724
Au 32.9678 22.1935 24.0652
Au 32.777 22.1518 26.9053
Au 10.2145 31.348 18.3103
Au 9.27675 29.0498 16.8627
Au 8.36948 26.6924 15.4093
Au 7.5485 24.3778 14.0344
Au 5.75425 20.0658 19.937
Pd 10.2814 31.3242 21.1621
Au 9.17344 29.1458 19.7772
Au 8.21338 26.8453 18.3043
Au 7.32932 24.5258 16.8508
Pd 6.54493 22.1918 15.4852
Pd 9.37577 29.0515 22.6568
Au 8.24121 26.8611 21.2994
Pd 7.35339 24.5669 19.8386
Au 6.45031 22.3143 18.4025
Au 8.45638 26.7654 24.1606
Au 7.3827 24.5419 22.799
Pd 6.53153 22.2714 21.3607
Au 7.61377 24.4433 25.6155
Pd 6.62739 22.1987 24.2516
Au 6.7938 22.1353 27.0377
Au 29.3536 8.26426 18.4559
Au 30.2671 10.5144 17.0245
Au 31.1564 12.8272 15.5488
Au 31.9727 15.1528 14.0636
Au 32.7443 17.4384 12.6431
Pd 29.2981 8.2915 21.2625
Pd 30.3058 10.5046 19.8445
Pd 31.2432 12.7714 18.4033
Au 32.1578 15.0997 16.9239
Pd 32.8809 17.4456 15.4429
Au 30.2464 10.5674 22.682
Au 31.2597 12.7956 21.2587
Au 32.1751 15.094 19.8373
Pd 32.9566 17.4432 18.3431
Au 31.1303 12.895 24.099
Pd 32.0723 15.1372 22.6867
Au 33.0008 17.4279 21.2265
Au 31.9564 15.2047 25.4981
Pd 32.9011 17.4759 24.0787
Au 32.7752 17.5366 26.9023
Au 8.98752 10.7474 17.9133
Pd 8.06657 13.1025 16.4695
Au 9.60985 12.3743 14.2733
Pd 8.82007 14.628 12.8864
Au 8.05343 16.8058 11.4696
Au 10.0632 8.61991 19.4699
Au 8.78113 10.6054 20.6096
Pd 7.85701 12.9055 19.1743
Au 7.1446 15.3409 14.9348
Au 6.32225 17.4911 13.349
Au 9.46301 10.3855 23.1805
Au 8.0809 12.821 21.8918
Au 6.88447 15.2591 17.6338
Au 6.36972 17.6365 21.4973
Pd 8.63426 12.7463 24.5426
Au 7.31103 15.145 23.1006
Au 7.0862 15.2317 20.3429
Au 7.66369 15.1675 25.8349
Au 6.54861 17.5447 24.3309
Au 6.80236 17.5543 27.0963
Pd 18.3868 29.2475 31.2932
Au 16.912 30.2259 29.045
Au 15.43 31.1333 26.7241
Au 13.9721 31.9876 24.3846
Au 12.531 32.8011 22.0361
Pd 21.1915 29.2447 31.2749
Au 19.7744 30.3377 29.0968
Pd 18.291 31.2413 26.7805
Au 16.8302 32.1668 24.4795
Au 15.3712 33.0099 22.0948
Pd 22.6306 30.1801 28.9923
Au 21.2204 31.288 26.7881
Au 19.7243 32.2068 24.4779
Au 18.2762 33.0813 22.0925
Au 24.0842 31.0966 26.6593
Au 22.6739 32.1504 24.4369
Au 21.1992 33.0615 22.0857
Pd 25.4633 31.9001 24.2871
Au 24.0847 32.9525 22.0541
Pd 26.8478 32.7162 21.9706
Pd 18.3692 10.4234 31.3935
Pd 16.9494 9.47814 29.128
Pd 15.5287 8.55348 26.8689
Au 14.1009 7.60988 24.6096
Pd 11.5269 10.1974 21.3058
Au 21.2072 10.3706 31.4491
Au 19.7859 9.30478 29.2436
Au 18.3312 8.35498 26.9784
Au 16.9093 7.40657 24.7033
Au 15.5236 6.51355 22.3648
Au 22.6915 9.43845 29.1791
Pd 21.2849 8.40349 26.9671
Au 19.8376 7.39475 24.7235
Au 18.4231 6.46758 22.4453
Pd 24.1527 8.5743 26.8506
Au 22.7843 7.45577 24.6637
Pd 21.3366 6.5568 22.3801
Pd 25.6253 7.69758 24.5075
Au 24.243 6.60006 22.2983
Au 27.0622 6.81699 22.1769
Au 18.3363 29.2031 8.12188
Au 16.8841 30.147 10.4101
Au 15.4375 31.0494 12.709
Pd 13.9811 31.9101 15.0812
Au 12.5235 32.7799 17.4106
Au 21.1764 29.1818 8.13559
Au 19.7627 30.2612 10.3245
Au 18.2786 31.2296 12.6081
Au 16.8126 32.1451 14.9512
Au 15.3584 32.9912 17.3405
Au 22.6108 30.104 10.4133
Au 21.2172 31.2053 12.6307
Au 19.7568 32.1747 14.9445
Au 18.2798 33.0633 17.3304
Au 24.0541 31.0259 12.7008
Au 22.6423 32.113 14.9605
Au 21.192 33.0524 17.3433
Au 25.4847 31.9199 15.041
Au 24.0643 32.9608 17.3596
Au 26.8796 32.7699 17.4079
Au 18.9346 9.84639 8.42421
Pd 17.7318 8.91459 10.8825
Au 16.3615 7.95527 13.1893
Au 14.8695 7.06355 15.4716
Pd 13.3501 6.30003 17.648
Au 21.5188 10.2797 8.14811
Pd 20.3811 9.02128 10.5078
Au 19.0713 7.80814 12.9671
Au 17.557 6.88394 15.4158
Pd 15.9981 6.21907 17.7881
Pd 23.0361 9.46422 10.4475
Au 21.7545 8.1875 12.7487
Au 20.2743 7.0964 15.3401
Au 18.7201 6.27574 17.7951
Au 24.4544 8.5576 12.7609
Au 23.0281 7.35004 15.1454
Pd 21.4856 6.44446 17.7224
Au 25.7752 7.66717 15.1912
Pd 24.3027 6.62925 17.5601
Au 27.0804 6.81987 17.5563
Pd 30.587 16.0581 27.8762
Au 30.5813 23.6876 27.8956
Au 29.806 13.6749 26.5022
Pd 29.7093 26.0011 26.4346
Au 28.951 11.3405 25.1132
Au 28.8117 28.3492 25.0176
Au 28.0352 9.01441 23.6736
Au 27.8582 30.6398 23.5278
Au 28.3458 14.561 28.8823
Au 28.252 25.1538 28.8231
Au 27.5035 12.2093 27.4676
Pd 27.3651 27.4458 27.3709
Au 26.5898 9.84979 26.0538
Pd 26.4349 29.7791 25.8696
Au 26.0152 13.114 29.8083
Pd 25.9115 26.525 29.6837
Au 25.12 10.738 28.3841
Au 25.0551 28.9137 28.2446
Au 23.6225 11.6854 30.6869
Au 23.598 27.9837 30.5505
Au 30.5814 15.9317 11.6569
Au 30.592 23.5663 11.5749
Au 29.8082 13.6017 13.079
Au 29.7198 25.9839 13.0065
Au 28.9892 11.2824 14.5601
Pd 28.7879 28.2747 14.4842
Au 28.0754 8.99404 16.0581
Au 27.8778 30.5785 15.8829
Au 28.2869 14.481 10.7271
Au 28.2826 25.0516 10.6287
Pd 27.4873 12.1896 12.1751
Pd 27.3659 27.4053 12.1034
Au 26.6955 9.88361 13.6147
Au 26.4725 29.7111 13.5304
Pd 25.9845 13.0918 9.85295
Au 25.9475 26.5017 9.74025
Pd 25.2299 10.8221 11.2998
Au 25.0303 28.8379 11.2092
Au 23.7552 11.6667 8.96838
Au 23.5641 27.901 8.90062
Au 8.95896 16.0449 28.1237
Au 8.94085 23.6414 27.9908
Au 9.84226 13.6115 26.8253
Au 9.7743 25.9979 26.5514
Au 10.7937 11.1625 25.3951
Au 10.6506 28.3251 25.082
Au 11.7113 8.94821 23.87
Au 11.5635 30.6161 23.5772
Au 11.285 14.5549 29.0766
Au 11.23 25.1008 28.9096
Au 12.1814 12.1073 27.662
Au 12.0812 27.4853 27.4395
Au 13.1134 9.75521 26.1508
Pd 13.028 29.7813 25.9074
Au 13.6572 13.1051 29.8983
Au 13.5606 26.5604 29.7832
Pd 14.5833 10.7566 28.4017
Au 14.4625 28.9442 28.284
Au 15.9755 11.6909 30.6674
Au 15.954 28.003 30.6009
Au 10.2152 15.4933 10.5519
Pd 8.88812 23.6425 11.6774
Au 10.9918 13.1937 11.9338
Au 9.6663 25.9423 13.0262
Pd 11.9001 10.945 13.3857
Au 10.5651 28.287 14.4307
Au 10.4902 10.1461 15.6718
Au 11.5309 30.6048 15.891
Pd 12.4533 14.1528 9.71353
Pd 11.1815 25.1354 10.7737
Au 13.2562 11.7846 11.0965
Au 12.0534 27.4832 12.0778
Au 14.1764 9.52838 12.5852
Au 12.9996 29.7802 13.5029
Au 14.6314 12.7437 8.88577
Au 13.5487 26.5884 9.79269
Pd 15.5422 10.4397 10.3855
Pd 14.5082 28.8529 11.2085
Pd 16.8717 11.4231 8.26121
Au 15.9297 27.929 8.90559
