923
Atoms. Timestep: 21004
Au 17.2929 18.113 21.7009
Au 23.1226 21.1486 18.2693
Au 20.9287 23.4494 21.5923
Au 17.8854 20.7782 23.0119
Au 10.2965 16.1512 23.8129
Au 20.0771 25.5698 23.1108
Au 20.2991 21.4575 18.3157
Au 10.5653 15.5296 20.5
Au 19.5389 19.3885 20.9182
Au 15.979 20.5344 20.9839
Au 17.1108 20.0204 27.1053
Au 19.0382 19.2221 16.5995
Au 22.2031 22.5473 16.1144
Pd 24.9625 21.6938 16.0639
Au 25.6957 20.5949 18.7928
Au 21.7838 21.0855 20.6423
Pd 17.6384 20.1578 18.7706
Au 12.766 31.5925 16.4166
Au 15.0727 20.1236 23.6742
Pd 15.921 27.4459 11.8958
Au 21.0831 26.0934 20.5645
Au 23.7962 25.8249 19.3795
Pd 14.7403 15.8074 20.0504
Au 19.5363 15.0004 18.6208
Au 22.1684 16.2405 19.4064
Au 19.7837 18.1082 23.4441
Au 19.1961 20.23 25.3736
Au 18.0419 23.9134 22.3032
Au 18.6386 16.1502 15.9848
Au 18.1627 20.1386 14.0247
Au 20.2276 24.1686 14.3281
Au 22.1924 18.1934 21.7527
Au 21.0506 20.4304 23.19
Au 23.0245 17.6523 14.7918
Au 20.6616 21.1763 13.3685
Au 17.1639 18.4349 24.4758
Au 15.5835 22.7857 22.7997
Pd 16.6481 18.1038 16.6028
Au 19.4822 21.8686 15.7336
Pd 24.5133 23.7693 17.7397
Au 24.3383 22.6723 20.2643
Au 12.2438 21.2438 17.7762
Au 13.8979 29.9456 20.4651
Au 21.5966 19.8329 16.2173
Au 21.3056 18.8978 18.9197
Au 15.6707 16.0108 22.7587
Au 12.1911 18.3122 24.2536
Au 17.9099 22.7898 17.9513
Au 18.7319 21.9128 20.6167
Au 17.4304 15.5845 20.5651
Au 19.9311 16.6197 20.9784
Au 15.5667 23.7993 17.2678
Au 19.976 24.359 17.1576
Au 18.5801 17.5724 18.7493
Au 21.0905 17.038 16.9823
Au 25.6079 19.4656 14.3927
Au 27.4528 20.573 16.7127
Au 27.2105 21.1397 21.1411
Au 27.6229 18.3759 23.291
Au 16.6651 21.0501 16.2124
Au 14.9572 13.8923 25.9457
Au 12.7857 23.9858 17.0535
Pd 8.9929 20.5434 22.1568
Au 11.452 29.4107 17.465
Au 16.3121 31.4267 19.6581
Pd 16.5418 25.8538 19.0206
Au 26.5989 25.7153 18.2078
Au 15.7978 13.4037 21.293
Au 17.4564 12.9895 19.1058
Au 21.3516 13.7894 20.5717
Au 23.8615 13.9126 19.4008
Pd 20.3757 16.208 25.3233
Pd 19.2667 22.4145 26.9102
Pd 19.8065 22.6899 23.9627
Au 18.8253 26.8883 27.1866
Pd 19.5598 16.0627 12.6678
Pd 19.5257 18.9065 11.9461
Pd 18.3346 22.5783 12.8287
Au 18.1058 23.9455 10.5339
Pd 23.5383 19.5521 24.2025
Au 21.4519 18.7626 25.6218
Pd 24.7628 22.1806 25.0949
Pd 21.7066 21.7624 25.5997
Au 22.1041 24.2653 24.5356
Au 26.4211 18.0655 17.6744
Au 20.3107 18.1034 14.4032
Au 25.314 22.2124 13.3098
Au 23.202 20.6593 14.1998
Au 22.6155 21.5999 11.5047
Au 9.35088 15.2467 29.9818
Au 16.8928 16.4828 28.41
Au 11.7532 16.5994 26.3667
Pd 18.223 18.6818 29.357
Au 17.2852 22.716 25.033
Au 13.814 15.1546 13.6863
Pd 17.6042 17.5291 13.7929
Au 14.2478 19.4726 16.8024
Au 15.5692 19.3089 14.3847
Au 13.7255 23.3393 12.1111
Au 24.4933 26.7466 16.8326
Au 24.8545 24.418 15.0939
Pd 25.8033 23.003 22.6213
Au 27.1899 22.8874 19.0544
Pd 24.2491 20.1488 21.2586
Au 9.59794 19.7613 16.9722
Au 15.8011 18.1766 19.2376
Au 14.6683 24.1102 25.1145
Au 8.40017 25.5004 19.628
Au 13.7167 22.1885 20.7504
Au 25.6206 16.0468 19.5661
Pd 24.1844 19.1587 16.7174
Au 24.9277 17.6751 22.3751
Au 26.6591 18.497 20.4783
Au 23.9983 18.3006 19.3571
Au 16.6229 15.5858 17.9428
Au 14.2375 16.7878 17.2313
Pd 8.9345 16.6813 26.2176
Au 13.0467 13.8896 20.8996
Au 14.4641 18.1833 21.8153
Au 18.9723 24.5422 19.7555
Au 16.0861 28.0426 22.8697
Au 23.3854 24.7379 21.8578
Au 18.1856 29.515 21.5626
Au 21.9616 23.7524 18.9526
Au 19.5233 13.6197 24.7641
Au 16.7817 13.7564 23.8191
Au 21.0086 15.1488 22.9322
Au 18.7965 13.4684 21.6852
Au 23.4835 15.4544 21.6887
Pd 22.423 25.1487 15.9805
Au 13.6514 28.7085 15.9251
Au 22.4357 27.9268 15.4568
Au 18.2232 29.4994 18.7791
Pd 21.6766 26.7801 17.9979
Au 18.3282 14.0528 13.9501
Au 15.4721 11.05 15.9207
Au 21.2044 15.3924 14.8427
Au 16.9104 13.4246 16.3657
Au 22.089 14.2297 17.3861
Au 22.905 16.7962 24.2001
Au 23.1424 22.1551 22.9508
Au 23.9578 16.4136 17.1853
Pd 22.7586 23.4381 13.5155
Pd 18.346 15.8798 23.3401
Au 15.7794 25.4853 21.6383
Pd 15.9807 15.8834 15.1028
Au 11.8968 27.1726 14.3074
Au 32.1554 19.6388 13.1419
Pd 30.1294 20.5679 15.1688
Au 28.6804 19.8598 19.125
Au 29.617 20.254 22.5167
Au 28.077 20.9484 24.7548
Pd 6.89348 16.2381 16.2441
Au 12.67 16.1283 22.4318
Au 6.18179 21.6987 19.7668
Au 9.10449 21.5779 26.3756
Au 9.59047 21.6953 30.3698
Au 15.6194 29.9827 24.8589
Au 16.1065 28.3221 20.12
Au 20.2614 31.3207 21.6195
Au 22.0298 30.6742 14.8347
Au 25.3798 28.0769 19.3547
Au 14.0321 11.2712 20.4152
Au 16.2722 6.20054 17.7899
Au 19.9696 12.2193 18.865
Au 22.3743 11.1966 19.6696
Au 25.2561 11.4208 19.9215
Au 21.8211 14.6113 29.3597
Pd 18.727 17.7338 26.7382
Au 18.8287 21.298 29.2521
Au 16.7124 24.951 26.8272
Au 18.9427 24.6114 28.7625
Au 21.6108 14.3246 10.2608
Pd 20.485 16.8801 10.1259
Au 21.3806 19.5562 9.71735
Au 19.4072 21.3493 10.6212
Pd 20.4885 26.1708 12.3811
Au 25.936 19.788 25.9979
Au 23.8317 18.0838 26.9324
Pd 21.5508 16.8305 27.7167
Au 26.537 22.2751 27.4714
Au 23.558 20.6698 27.0168
Au 20.5078 19.4116 28.0149
Pd 23.8573 23.5706 27.1526
Au 21.269 24.1823 27.1829
Pd 23.2983 26.229 26.2092
Au 28.0765 18.6848 14.8783
Pd 24.7021 17.4016 12.6467
Au 22.2135 18.8981 12.3376
Au 27.4317 19.7542 12.2274
Au 26.1993 17.9426 10.4177
Pd 23.5084 17.921 10.0673
Pd 27.2727 24.4079 13.7362
Pd 20.6171 23.5556 11.6665
Pd 22.3372 27.1008 10.7162
Au 6.24117 13.9925 25.3834
Au 12.2108 15.7795 29.2182
Pd 14.3322 16.1199 27.499
Pd 14.863 22.929 30.2494
Au 14.8304 18.5322 25.9584
Au 15.2618 18.5508 28.6162
Au 14.1353 26.4754 23.9131
Au 16.6816 22.5921 28.1038
Au 16.1684 29.6125 30.3338
Au 11.801 19.8616 15.2312
Pd 16.4551 15.2161 12.3868
Au 17.6871 17.0942 11.0559
Au 12.265 20.8914 10.4996
Au 13.3764 17.7637 14.5071
Au 16.7996 19.772 11.5666
Au 13.2433 18.1867 10.7086
Au 15.8212 21.978 13.6398
Au 16.3811 24.6501 12.5987
Pd 26.7422 28.3931 16.9162
Pd 31.5901 25.5454 17.1581
Au 27.83 21.6935 14.2336
Au 27.3034 25.4173 22.9648
Au 29.1661 24.6446 17.9342
Au 27.0592 23.4086 16.412
Au 29.8165 26.6377 22.7504
Au 28.7719 24.6467 20.6584
Au 28.6121 22.8973 22.8143
Au 13.7625 21.8868 15.4017
Au 11.6189 29.8441 14.6212
Au 9.36535 17.0383 16.9169
Pd 13.7756 27.2158 21.1713
Au 7.15825 23.6474 18.2162
Au 12.4836 17.337 19.9575
Au 11.6207 26.8715 22.7497
Au 10.7971 13.7676 22.5227
Au 11.0738 16.8321 31.4627
Au 26.4272 13.5497 18.5004
Au 27.3416 15.5913 16.9552
Au 29.0864 17.8424 17.2576
Au 26.0288 13.7613 21.3158
Au 28.5755 15.997 19.2833
Au 31.2416 16.9146 19.2225
Pd 27.3466 16.0684 21.7738
Au 29.3243 17.9808 21.0724
Au 30.1463 17.3579 23.8481
Au 14.732 13.2762 18.6416
Au 14.1406 14.1738 16.2372
Au 6.58045 11.5684 18.5602
Au 7.5535 14.7484 27.6656
Au 10.993 9.94666 19.0674
Au 11.3926 12.5906 19.3144
Au 4.83669 15.9299 24.0597
Au 10.4698 12.103 27.006
Pd 12.6332 20.1065 22.2483
Au 18.4484 27.678 24.1487
Au 22.969 28.8511 25.2829
Pd 10.2068 24.8103 21.6596
Au 22.7848 26.8872 23.413
Pd 16.8574 25.4651 24.1103
Au 22.6755 32.7019 21.9113
Au 25.4691 27.5559 24.9838
Pd 25.984 24.8197 20.6443
Au 23.002 28.0244 20.899
Au 18.7277 14.7987 27.1292
Au 12.6201 11.6585 22.6986
Au 15.3187 11.3844 23.3118
Au 21.5549 14.133 26.6198
Au 18.7705 10.1273 26.0452
Au 17.0349 10.8513 21.1396
Pd 23.0191 13.8779 24.2798
Au 21.1371 12.2715 23.0274
Au 23.6524 12.5225 21.9339
Au 14.003 24.9205 19.3994
Au 15.6822 30.7769 22.2758
Au 15.9553 29.937 14.9872
Au 20.0848 26.6109 15.6935
Au 21.6967 31.3935 19.1997
Au 19.017 26.9688 18.4394
Au 25.4475 29.5348 13.4048
Pd 23.0772 29.0973 18.1942
Au 24.5077 29.4857 15.8704
Pd 21.2866 11.6359 10.9312
Au 17.5204 11.3694 14.2034
Au 15.9825 10.6666 18.5152
Au 22.1938 16.2025 12.1933
Au 20.9137 13.6336 12.7818
Au 19.7113 13.5172 16.267
Pd 22.596 12.9186 15.0363
Pd 21.4094 11.3156 16.8354
Au 23.9758 11.9669 17.4773
Pd 25.6057 17.3171 24.9983
Au 25.8617 20.3694 23.3194
Pd 25.3417 15.0937 23.597
Au 27.1548 23.6036 25.1361
Au 23.8815 15.4755 26.444
Au 24.7941 24.9248 24.2697
Au 25.8844 16.7005 15.0086
Au 27.8324 26.0637 15.7731
Pd 24.9964 14.1428 16.2268
Au 28.0397 28.6712 14.5615
Pd 23.803 15.0919 14.0273
Au 27.5084 22.5805 11.5037
Pd 13.9791 13.8518 23.447
Pd 19.1435 24.7897 25.5277
Au 6.21214 18.2948 23.9423
Au 11.0794 22.3281 22.0713
Au 16.6595 16.0375 25.6417
Pd 18.2505 26.7509 21.282
Au 11.8267 15.8704 15.7624
Pd 14.4781 26.1844 16.849
Pd 15.6144 13.2118 13.9389
Au 12.1289 24.3594 14.2714
Au 18.6819 12.0528 11.7829
Au 9.73803 25.4927 15.0012
Au 34.7895 19.9195 13.872
Pd 32.7896 20.2516 15.7338
Au 32.2836 21.7557 18.8267
Au 29.837 22.0796 20.3702
Au 32.3103 21.7945 21.7072
Au 31.7964 21.4414 27.4842
Au 11.3819 19.1644 12.5763
Au 7.15508 21.1013 17.123
Pd 16.2937 23.2849 20.1172
Pd 10.3132 19.0406 26.3921
Pd 8.24332 15.0157 21.6295
Pd 10.2833 14.7026 27.5489
Au 7.94887 26.0409 16.919
Au 11.8265 27.6421 27.9335
Au 19.5662 33.1502 13.2773
Au 21.0099 33.8705 20.1464
Pd 24.6427 31.9215 14.6221
Pd 28.2372 31.9445 17.6921
Pd 17.3345 8.69215 16.989
Au 9.64146 7.67866 18.4794
Pd 18.6305 9.7822 19.1339
Au 21.1411 8.61145 19.8758
Au 24.0296 8.86923 20.1317
Au 26.8367 9.06567 20.2798
Au 19.8232 12.2032 27.5064
Au 20.0287 14.8647 31.8359
Au 18.9719 17.5123 31.7268
Au 18.0847 20.4165 32.0938
Au 16.2624 20.5752 30.0262
Pd 20.8474 25.7558 30.7222
Pd 20.144 14.7601 8.10137
Au 24.7912 19.9906 11.6927
Pd 15.9836 22.3468 10.949
Au 17.2619 21.151 8.89642
Au 17.9147 27.1667 6.22871
Au 21.3601 23.7206 6.8554
Au 28.1915 17.9102 26.0072
Au 23.9512 16.5324 29.3015
Au 22.8014 14.8496 31.8584
Au 21.3397 12.4943 31.0751
Au 28.2075 20.0896 27.5956
Au 25.7604 19.3444 28.7077
Au 22.971 19.2511 29.518
Au 19.4695 16.1927 29.3089
Au 24.3767 21.7562 29.3018
Pd 21.6085 21.7921 28.5383
Au 20.4876 19.8025 30.8342
Pd 22.7455 24.0394 29.6639
Pd 20.3385 23.0783 30.5219
Au 24.673 23.2679 31.6462
Au 29.7738 18.3242 12.8057
Pd 27.4422 16.9524 12.5941
Pd 24.3779 15.4789 10.7486
Pd 23.8758 13.7988 8.79563
Au 29.8524 21.0649 12.2902
Au 29.2736 19.1107 10.1576
Au 29.4872 16.5067 10.7083
Au 26.8642 20.5501 9.58018
Au 29.632 24.4223 9.8657
Au 21.6023 22.4224 9.17637
Au 20.1631 20.5721 7.51466
Au 25.2901 25.4439 9.41675
Pd 19.1677 23.0894 8.25263
Au 29.4064 27.1409 10.4695
Au 8.73559 19.83 28.6254
Au 7.71496 12.1375 26.6343
Pd 12.8728 13.6727 27.5845
Au 14.9864 11.6333 27.5834
Au 12.4388 14.4922 31.611
Pd 13.9439 16.2394 24.8156
Au 14.7602 15.6444 30.229
Pd 17.4663 18.5562 33.9193
Au 13.514 20.6229 31.1312
Pd 13.448 17.9907 30.6084
Au 13.9619 21.0519 28.4079
Au 14.4752 26.5309 27.951
Au 13.4428 21.1198 34.0175
Au 15.0689 23.239 34.51
Pd 9.2415 14.9236 15.3338
Au 11.4119 16.4263 9.72467
Au 16.0489 12.8946 11.1822
Pd 15.1467 10.7362 12.8318
Pd 11.8105 21.7854 13.2188
Au 11.6493 23.7545 8.19955
Pd 16.0902 15.0946 9.50989
Au 18.6897 18.9848 9.3465
Au 12.5161 25.486 10.2877
Pd 14.0792 20.2944 12.3817
Au 14.6845 20.3395 9.46397
Au 18.2201 28.5488 15.7961
Au 16.1718 23.1822 5.25675
Au 13.7634 26.0401 12.6113
Au 29.3836 29.7368 16.7529
Au 29.5923 23.6616 15.3311
Au 33.9465 24.0159 18.2419
Au 31.7442 22.3602 13.7669
Au 27.9243 29.6743 19.0814
Au 27.6469 27.1339 20.5584
Au 29.7041 21.9765 17.5637
Au 32.1376 22.9226 16.3944
Au 29.555 28.9367 21.2323
Pd 30.5791 26.6818 20.022
Au 31.4727 24.2147 19.5142
Au 29.7911 24.5946 24.7862
Au 31.0866 24.2396 22.2583
Au 29.4462 22.4196 26.6284
Au 6.66186 22.5446 22.3892
Au 9.59102 27.6418 18.4723
Pd 9.73826 17.9073 19.3795
Au 13.8857 23.089 9.3724
Au 7.59961 16.4826 13.6508
Au 8.6122 22.8279 20.6209
Au 12.743 20.3209 25.9493
Au 7.1369 18.4685 17.7198
Au 11.7341 25.08 28.5556
Au 13.3291 23.3689 32.4388
Au 5.88085 18.3593 19.9486
Pd 15.0949 21.5752 26.0141
Au 11.4496 13.1296 16.496
Pd 8.15934 20.0335 19.6513
Pd 27.8119 11.1721 18.763
Au 28.9481 13.2812 17.264
Au 30.5029 15.5506 16.9367
Pd 30.9964 17.9172 15.2236
Au 27.6218 11.3811 21.6216
Pd 28.5568 13.4883 20.2157
Au 32.0244 17.4191 21.8494
Au 31.1102 19.502 17.6592
Au 28.5048 13.6834 22.9076
Pd 30.129 15.4703 21.6222
Pd 31.4354 19.5935 20.3588
Pd 27.8909 15.7924 24.4061
Pd 32.0863 19.6293 23.4636
Au 30.3517 19.6885 25.613
Au 13.1835 11.0049 17.5274
Au 12.5268 6.67699 15.2919
Au 6.97032 11.5086 15.8514
Au 10.8193 22.499 15.766
Au 10.2075 9.4735 11.4984
Au 9.80441 8.19833 21.1438
Au 8.30928 9.94376 19.7355
Au 6.50377 11.5294 21.2948
Au 9.92666 7.67957 15.7475
Pd 10.552 11.7281 24.3576
Pd 9.72093 14.6262 18.0966
Au 9.19938 26.1743 23.9109
Au 6.32966 19.99 21.9021
Pd 12.6246 18.521 28.0604
Au 18.0504 29.3266 26.2909
Au 18.2283 30.2171 28.7319
Au 12.7531 30.1222 27.8195
Au 13.5203 31.8719 23.7239
Au 16.8987 27.602 28.8222
Au 18.5855 33.4024 24.8414
Pd 20.4771 28.1688 22.4076
Au 18.4502 34.7203 20.3149
Au 25.181 30.2341 26.0477
Au 20.8492 26.9768 25.4068
Au 20.8567 34.3055 15.422
Pd 27.5981 28.2744 23.2068
Au 20.6438 28.9166 19.8143
Pd 23.2448 31.6892 17.0055
Au 13.8123 9.12617 26.813
Pd 13.2768 9.4094 24.104
Au 6.45767 11.4477 24.2612
Au 15.9834 10.1127 25.572
Au 18.9236 11.767 31.9574
Au 18.7588 8.61614 28.3131
Pd 18.2766 11.4944 23.5987
Au 16.5338 8.19035 19.6738
Au 21.4155 11.3043 25.5431
Au 20.0486 9.3987 23.7043
Au 19.8511 10.7782 21.2634
Au 23.7591 11.0465 24.3184
Au 22.3978 9.80383 22.1952
Au 25.3044 10.0348 22.3961
Au 18.1819 26.2358 13.7791
Pd 13.8767 28.7688 13.1935
Au 15.6753 30.3682 12.0798
Au 11.8483 30.3518 25.1994
Pd 16.26 23.4892 8.05447
Au 22.9156 24.459 10.6266
Au 16.8314 32.1936 13.6999
Au 11.6851 31.083 21.9063
Pd 22.9089 28.8592 12.8097
Pd 20.405 32.0519 16.7887
Au 19.5235 34.4953 17.8253
Au 25.4872 29.8345 10.7029
Au 23.8111 31.379 12.1401
Au 31.4765 29.5797 15.0465
Au 21.8175 9.74833 8.96784
Au 17.9928 7.58223 10.5297
Au 17.7278 9.36962 12.3911
Au 16.0661 8.72098 14.477
Au 23.7481 11.3681 9.84444
Au 20.211 11.5566 14.3585
Au 18.9503 9.01043 14.8278
Pd 18.4397 11.1469 16.7769
Au 22.8082 10.9769 13.1708
Au 21.7506 9.2335 14.964
Pd 20.2223 8.92355 17.2214
Au 24.2777 10.2168 15.4567
Au 22.8936 9.14811 17.6337
Pd 25.6111 9.59127 17.8615
Au 26.2501 16.6328 27.6419
Au 25.6972 24.1509 29.2928
Pd 26.3061 14.3241 26.02
Au 27.9497 26.5085 25.3578
Au 26.0927 12.4682 23.8843
Au 29.5131 30.1962 23.7
Pd 24.9493 14.0712 28.623
Pd 25.1162 27.908 30.3157
Au 24.2054 12.6742 26.4128
Au 26.019 28.1451 27.6461
Au 22.421 12.1456 28.3554
Au 25.8781 25.4511 26.8584
Pd 28.9518 16.15 14.7101
Au 29.6766 23.8346 12.5454
Au 27.4884 13.8494 14.8491
Au 29.2616 26.4368 13.186
Au 26.5734 11.7195 16.3481
Pd 27.364 28.0277 12.0702
Au 26.0558 14.6393 12.6967
Au 25.6754 26.928 14.2136
Pd 25.1188 12.432 14.0741
Pd 24.8656 27.3126 11.5117
Pd 23.5524 13.2221 11.9248
Au 20.433 25.423 9.54055
Au 11.011 19.404 30.4728
Au 15.6133 27.1253 31.2144
Au 7.56735 17.2941 28.5385
Pd 16.246 25.0271 29.4808
Pd 10.6264 20.8288 24.2984
Au 19.5126 27.9992 29.7407
Au 11.2906 9.69594 26.1369
Au 10.7013 18.2302 21.9315
Au 10.5903 9.06098 23.5931
Au 18.1912 30.8764 24.0037
Pd 12.5385 11.0013 28.3726
Au 13.1214 22.1975 23.9456
Pd 11.8258 16.463 12.5077
Au 6.79906 13.9664 14.6606
Au 11.3109 13.939 13.6971
Au 9.74041 28.0721 15.7944
Au 13.2555 12.1064 14.7454
Au 15.7171 27.1746 14.6128
Au 9.23587 11.8526 17.5974
Au 9.45089 22.1039 18.1943
Pd 13.412 12.82 12.0955
Au 17.4957 23.6659 15.1523
Au 9.37849 16.5293 11.5312
Pd 13.5412 19.677 19.609
Pd 34.2944 22.3861 14.6684
Au 35.0219 18.9827 16.3208
Pd 33.7254 19.5147 18.6356
Au 34.0273 19.3502 21.4112
Au 34.6976 21.5274 22.8293
Au 33.4137 21.3912 25.2139
Au 32.7898 19.0997 26.4657
Au 5.80169 16.3015 21.6033
Au 9.31587 12.3101 14.7871
Pd 9.06107 14.0003 25.2159
Au 11.5246 26.1824 19.7337
Au 10.332 29.1623 23.1519
Au 11.1906 20.9327 28.2108
Au 8.66336 12.8628 20.0764
Au 18.2116 33.5143 15.6357
Au 23.4175 28.807 27.951
Au 12.1607 31.4256 19.1246
Au 14.2812 33.0191 18.481
Pd 25.5117 30.578 18.1603
Au 25.6796 32.995 17.078
Au 24.0837 32.9727 19.397
Au 12.0486 8.29879 17.2809
Au 8.34668 9.45856 16.9032
Au 17.5535 5.75791 20.2193
Au 18.9254 6.78581 18.1064
Pd 22.8968 6.49034 20.3841
Au 24.0428 7.5353 22.6729
Au 28.3126 6.86403 20.6083
Au 18.9751 16.2102 34.0203
Au 16.1539 8.91004 28.0839
Au 16.3418 16.2247 33.3143
Au 20.1488 19.0218 33.6389
Au 17.6446 22.8764 33.7373
Au 18.7021 20.7934 34.8809
Au 19.4553 24.435 32.6864
Au 17.2105 19.0445 7.09881
Au 20.4056 17.7903 7.52799
Pd 18.0141 21.6398 6.32357
Pd 22.8925 18.6973 7.53341
Au 15.8694 25.5625 6.32797
Au 14.4312 18.7455 7.19129
Au 18.2322 26.6561 10.9214
Pd 30.717 17.0428 26.5246
Au 27.5203 15.005 29.4444
Au 25.4128 14.9569 31.2028
Au 21.5416 16.7672 33.2884
Pd 18.998 13.4017 29.7291
Pd 30.6182 19.1915 28.3074
Au 28.7341 17.3324 28.6339
Au 26.4484 17.3708 30.4268
Au 24.1247 17.2748 31.9148
Pd 21.5835 17.1903 30.6497
Pd 28.1693 19.4332 30.1919
Au 26.8984 21.7531 30.2673
Au 25.0636 19.8594 31.2936
Au 22.5678 19.2745 32.5459
Au 26.1601 25.5069 31.5295
Au 22.5588 21.59 31.2692
Pd 20.2806 21.7899 32.8921
Au 27.1877 26.4491 29.3453
Pd 22.0875 23.9518 32.4155
Au 22.363 31.0963 26.522
Au 31.7354 20.378 10.484
Pd 31.7822 17.8345 11.1683
Au 25.2663 16.2538 8.36613
Au 22.5137 16.1076 8.34228
Au 21.5639 12.3835 8.364
Au 33.7239 21.5744 12.0552
Pd 29.4113 21.7771 9.70654
Au 27.8838 17.399 8.56361
Pd 23.8799 20.5753 9.22015
Au 25.5579 18.8419 7.88498
Pd 31.6932 22.9875 10.9951
Pd 23.9287 23.3957 8.15045
Pd 25.0208 22.6367 10.4934
Au 25.5562 21.4882 7.39722
Au 27.0942 23.2675 8.8584
Au 18.4539 24.3809 5.96145
Pd 22.7172 21.3102 6.94613
Au 22.7741 25.8031 8.13188
Au 17.8953 25.5411 8.34965
Pd 18.9188 27.9966 8.58499
Pd 8.9765 18.5463 24.0834
Au 10.1767 17.4662 28.6787
Au 15.0652 14.0477 32.3916
Pd 17.3566 15.2705 30.9033
Au 17.5248 9.73202 30.6277
Au 9.74366 23.3058 28.3022
Au 12.1611 18.8988 32.9293
Au 16.2707 17.9063 31.1563
Pd 15.6569 21.6409 32.442
Au 16.3088 13.8552 28.5361
Pd 12.6987 25.7061 26.1021
Au 11.3056 21.4894 32.3726
Au 13.6862 16.5098 32.8198
Au 14.8773 18.9855 33.1491
Pd 14.1039 23.8052 27.8079
Au 12.1116 22.8235 29.9731
Au 16.079 20.7562 34.9
Au 15.8557 24.6124 32.2928
Au 15.4851 29.6816 27.6997
Au 18.12 26.0559 31.0757
Au 10.1199 18.8533 10.1981
Au 8.48942 18.868 12.4942
Pd 13.5618 13.4863 9.4256
Au 17.5579 14.1973 7.37044
Au 18.1987 16.5323 8.42099
Au 10.0732 17.5628 14.3537
Au 11.1738 14.0975 11.008
Au 14.8012 14.2722 7.18962
Pd 18.6733 14.5521 10.5373
Au 19.4252 9.85232 9.9529
Pd 12.093 18.853 8.44037
Pd 15.1958 17.5477 12.3828
Pd 16.0145 16.5731 6.98601
Pd 15.8081 17.9232 9.42752
Au 10.3361 21.3786 8.85739
Pd 15.376 21.1984 6.88624
Au 13.889 23.5195 6.58292
Au 12.7465 21.2783 7.60857
Pd 13.9166 25.7052 8.09284
Au 9.53449 23.3335 13.3094
Au 29.375 31.129 14.4671
Au 31.5327 28.3773 17.8314
Au 33.0062 27.378 15.7915
Au 33.9417 24.8632 15.6332
Au 31.9663 27.6198 13.2996
Au 30.412 30.6209 19.1964
Pd 28.5981 31.4476 21.3931
Pd 28.968 27.3438 18.0538
Au 34.667 21.6995 20.0579
Au 34.6453 21.6051 17.2176
Au 31.2279 30.9462 21.7502
Au 33.1843 26.4975 19.1007
Au 32.6866 26.4319 21.7753
Au 32.0496 26.1021 24.4073
Pd 32.1959 28.8078 20.3961
Au 33.3393 23.7184 23.6751
Pd 33.7246 24.0497 20.9843
Au 32.1207 23.7902 26.1298
Au 30.9754 22.0947 24.2284
Au 30.7977 26.0494 26.8994
Au 22.322 30.0866 22.7814
Au 11.0775 23.3153 10.8747
Au 6.16266 13.9802 19.9789
Au 9.23612 20.7874 14.3333
Au 11.3535 28.8527 20.3981
Pd 16.148 28.2075 17.4022
Au 17.3643 34.8309 22.8446
Au 26.9205 30.9411 15.6106
Au 10.0778 24.6788 17.629
Pd 8.28521 23.2731 15.8201
Pd 16.1382 27.422 25.8897
Au 11.5464 23.372 19.5776
Pd 14.7152 30.4256 17.7689
Au 7.57248 25.0174 22.142
Au 8.96043 23.1593 23.8131
Au 13.1594 24.5203 22.0496
Pd 11.8417 14.1573 25.112
Au 13.8449 28.4269 29.6605
Pd 8.03773 17.8164 21.6008
Au 15.1137 21.4709 18.4322
Au 27.1607 7.31132 18.1964
Au 30.2269 10.9415 17.5468
Au 31.7145 13.0457 16.7706
Au 32.6031 15.3139 15.3197
Au 33.5217 17.643 14.3444
Pd 29.261 8.89049 19.0721
Pd 30.079 11.2299 20.2924
Pd 30.9048 13.9307 19.2099
Au 33.1001 15.0406 18.0419
Pd 32.9019 17.4862 17.0504
Au 29.1445 9.11468 21.8431
Au 31.1706 13.0836 21.8583
Au 32.8818 14.9475 20.7323
Pd 33.9026 17.1561 19.7614
Au 29.8402 11.3467 23.2777
Pd 32.3762 15.0658 23.2727
Au 34.4365 16.8209 22.5018
Au 30.3006 14.7046 24.7906
Pd 34.5483 19.0996 24.1029
Au 32.7559 17.2016 24.6803
Au 11.7189 11.4946 10.4224
Pd 11.3236 11.1362 13.2765
Au 8.94765 9.73512 14.0161
Pd 11.2732 8.32015 13.5975
Au 7.64912 18.7574 15.1503
Au 11.9559 6.97831 19.8889
Au 12.2865 9.23088 21.4571
Pd 14.7336 8.44863 16.859
Au 5.88461 13.7907 22.7159
Au 7.54028 15.977 23.9561
Au 7.44578 20.8421 24.3432
Au 13.5888 6.14396 17.7743
Au 7.58638 16.1623 19.1654
Au 9.58024 21.171 11.5474
Pd 10.208 11.0855 21.5189
Au 11.8277 22.9502 26.4481
Au 7.25605 13.8655 17.3771
Au 6.16402 16.6788 26.2702
Au 11.8484 18.2151 17.4823
Au 12.4381 15.0662 18.3821
Pd 24.0488 26.2071 28.7541
Au 13.5891 28.4001 25.9234
Au 21.0722 32.213 24.2796
Au 13.6605 25.4002 30.4356
Au 9.22365 27.3769 21.373
Pd 20.4349 29.6308 24.779
Au 21.402 26.5973 28.2191
Pd 18.9922 32.1465 19.2119
Au 15.893 34.0517 20.6487
Au 20.5534 29.3325 17.0155
Pd 25.2574 27.0343 22.1013
Au 23.8486 31.8411 24.3316
Au 19.9646 34.0055 22.5868
Au 13.7826 32.5906 21.1182
Au 25.3735 32.2488 22.0688
Au 23.9905 30.5072 20.5022
Au 26.6854 32.3213 19.7668
Pd 27.7004 29.2577 25.7058
Au 24.8492 29.5081 23.2618
Pd 26.5155 29.7863 21.2513
Pd 17.5291 11.2214 28.5213
Pd 17.4535 7.76517 25.9342
Pd 17.2649 9.03505 23.4549
Au 17.3345 12.5308 26.1552
Pd 13.8694 8.78292 19.3042
Au 16.6067 12.4074 30.8932
Au 13.1387 11.7182 25.5452
Au 15.1257 7.61959 24.6242
Au 18.7552 8.09409 21.34
Au 14.6984 6.29081 20.2558
Au 22.7776 10.1592 29.8821
Pd 21.1795 9.59042 27.6021
Au 20.1492 7.75866 25.9014
Au 16.3695 6.64968 22.4278
Pd 23.6846 9.9765 26.8702
Au 18.837 6.81591 23.727
Pd 20.2432 6.08366 20.3154
Pd 22.4566 8.65362 24.7746
Au 21.2873 7.26111 22.5218
Au 26.8393 7.7444 22.7452
Au 20.3583 28.5617 13.7311
Au 14.7829 24.4635 14.7489
Au 16.9178 33.7046 18.1076
Pd 17.4134 25.9077 16.4905
Au 13.2744 29.1453 23.1642
Au 16.0946 27.4745 8.44273
Au 22.6785 29.8012 10.2655
Au 19.1432 30.9026 14.5988
Au 22.2881 33.0585 13.5903
Au 22.1793 34.0479 17.8078
Au 25.0366 24.7428 12.2671
Au 20.0672 28.7584 10.961
Au 21.0569 30.9774 12.2645
Au 17.8112 32.4548 21.7856
Au 21.5238 28.1918 8.41717
Au 14.0284 27.7594 10.1311
Au 22.9876 26.1607 13.4067
Au 24.2353 28.0149 8.91714
Au 13.9162 31.3486 14.0098
Au 23.6104 34.0987 15.6624
Au 18.8722 12.3759 9.0032
Pd 12.9364 9.55038 11.8894
Au 15.3961 8.52783 11.1676
Au 13.9535 7.38303 13.1291
Pd 13.3408 9.44061 14.7978
Au 20.7602 7.65004 10.6329
Pd 20.4697 9.55678 12.4953
Au 19.2997 7.00761 12.9242
Au 16.6143 6.6988 12.82
Pd 15.1568 6.27134 15.3012
Pd 22.9595 9.13998 11.2619
Au 22.0027 7.27998 13.0915
Au 20.5263 6.76357 15.4848
Au 17.8262 6.53102 15.3828
Au 24.4313 8.48557 13.4512
Au 23.2754 7.13501 15.6513
Pd 21.6973 6.69469 17.9586
Au 25.8762 7.90483 15.7849
Pd 24.466 6.99603 18.1005
Au 25.63 6.60774 20.5279
Pd 28.6807 15.1631 26.9521
Au 30.7647 23.8821 28.5443
Au 27.381 12.7637 27.9123
Pd 30.126 28.0074 25.1515
Au 28.4629 12.6536 25.4028
Au 31.7106 28.6319 23.0617
Au 27.6307 10.0389 24.0705
Au 26.9771 31.0388 23.808
Au 26.61 12.6882 30.4453
Au 29.564 21.6341 29.3273
Au 26.2726 10.937 26.2139
Pd 20.6704 29.1149 27.4921
Au 25.2421 8.75629 24.8499
Pd 28.7625 27.6406 27.5957
Au 23.9532 12.5959 30.7379
Pd 28.316 24.0029 30.0281
Au 25.1402 11.2276 28.7319
Au 28.4251 24.7898 27.5027
Au 19.9925 10.5687 29.7882
Au 22.3287 28.0307 30.2573
Au 31.2184 16.0321 13.0957
Au 33.4943 24.2137 12.7827
Au 30.3494 13.8125 14.6027
Au 31.592 25.1846 14.3619
Au 28.9887 11.4904 15.0554
Pd 30.236 27.2928 15.5794
Au 28.1076 9.37779 16.6056
Au 27.6027 30.7168 12.5435
Au 28.8476 14.5371 12.4038
Au 31.4657 25.6699 11.5333
Pd 27.4518 12.2085 12.6998
Pd 27.4251 25.402 11.1504
Au 26.7445 10.0093 14.1872
Au 26.8512 27.852 9.49652
Pd 27.1005 15.3464 10.2477
Au 27.8805 25.7526 8.44749
Pd 25.2226 10.7133 11.995
Au 29.887 29.1307 12.6158
Au 25.863 12.9697 10.5448
Au 17.2296 29.1857 10.2651
Au 7.49129 19.0675 26.3679
Au 10.8798 20.3832 20.0234
Au 15.0342 8.99073 21.8921
Au 11.3968 24.3883 24.1328
Au 13.3744 7.00504 22.5264
Au 14.1919 31.7208 26.2936
Au 8.08963 9.81497 22.644
Au 10.952 27.6913 25.3485
Au 11.2369 13.0889 29.6742
Au 19.6655 31.5709 26.6264
Au 14.0111 12.9422 29.9699
Au 10.0033 25.1411 26.3257
Au 8.6744 10.1234 25.2561
Pd 17.6529 23.0881 30.947
Au 8.73698 12.7987 28.9971
Au 16.952 31.8418 26.5644
Pd 14.989 10.4291 29.9158
Au 16.0231 32.8238 24.1153
Au 17.7645 13.8781 33.1133
Au 23.5734 25.9433 31.4344
Au 8.70541 14.2099 12.7009
Pd 15.5402 25.2859 10.1467
Au 8.36803 12.6172 22.9785
Au 11.8747 27.8941 11.6678
Pd 14.3246 10.9937 10.1583
Au 13.5394 27.9591 18.6249
Au 13.7322 16.3768 8.45069
Au 15.3566 32.5863 16.0027
Pd 10.916 10.3167 15.909
Pd 17.7809 28.9085 13.0618
Au 9.38707 11.9375 11.632
Au 18.4187 31.1441 11.7411
Au 16.0216 12.4156 8.53582
Au 17.5247 31.2155 16.9046
Au 7.26612 11.7533 13.1807
Au 20.3029 26.1992 6.92008
Pd 16.9187 10.5124 10.1418
Pd 11.779 26.6431 16.933
Pd 13.9133 15.488 11.039
Au 10.6688 25.6249 12.3373
