923
Atoms. Timestep: 21165
Au 19.0164 11.5198 24.8552
Au 23.2259 27.5248 9.35129
Au 22.3132 4.83852 18.5789
Au 14.1924 28.2405 9.54983
Au 11.5091 22.2831 26.6841
Au 13.3577 22.667 20.7915
Au 22.3761 9.2266 24.658
Au 6.04805 23.5613 21.7538
Au 31.4405 17.333 22.9485
Au 16.4387 15.941 12.4298
Au 14.5584 30.5321 18.8313
Au 9.88915 23.4457 28.557
Au 4.98855 17.7223 17.7787
Pd 16.8579 11.4079 12.9642
Au 18.0982 12.6223 7.93502
Au 30.1281 15.1445 24.1007
Pd 9.71697 17.4598 18.5773
Au 20.5659 14.0079 24.1798
Au 22.2213 35.1815 18.8227
Pd 22.2917 15.7407 8.59307
Au 18.9281 24.6128 10.421
Au 23.3799 18.6881 12.5356
Pd 26.9004 22.1381 26.2094
Au 14.0804 13.4933 26.2322
Au 15.5318 16.2432 9.7882
Au 29.4858 23.6167 18.6975
Au 26.2197 10.9445 24.6367
Au 15.4728 33.0037 20.599
Au 21.2353 31.2431 16.6709
Au 22.7004 33.6706 16.5137
Au 17.4189 33.4877 18.4997
Au 17.2505 22.8057 33.3257
Au 11.7306 13.7726 24.7463
Au 7.38011 23.2757 12.3544
Au 20.1403 7.76288 20.883
Au 11.6099 10.8887 12.3253
Au 21.9779 4.65139 21.3359
Pd 19.8914 14.6701 8.02107
Au 24.2001 27.3617 16.8518
Pd 20.3817 26.7194 24.4488
Au 12.1397 21.8038 10.6222
Au 9.03889 11.9451 17.057
Au 17.2468 9.9914 8.79785
Au 14.6609 9.77087 25.3674
Au 26.4555 18.0548 19.5831
Au 16.3087 33.0215 15.7164
Au 9.85922 20.7138 28.6466
Au 12.9854 32.402 20.056
Au 23.8459 32.0681 25.1258
Au 24.7169 8.75091 19.6939
Au 11.6967 27.128 19.4248
Au 13.0335 13.3558 13.0196
Au 9.23671 25.944 19.1093
Au 25.8574 18.0926 11.0694
Au 25.6597 26.2586 9.95801
Au 20.1314 8.40638 13.1066
Au 19.0059 26.2967 21.8363
Au 7.79524 14.5192 22.085
Au 5.29342 22.368 16.4096
Au 29.1796 9.44202 14.4037
Au 19.1417 6.82032 11.0583
Au 29.7145 20.6704 14.4457
Pd 26.755 27.2201 15.1985
Au 14.4055 16.4847 33.7859
Au 28.2774 23.1714 10.127
Pd 12.3877 25.6297 22.7311
Au 20.9456 20.5687 22.0952
Au 9.8924 22.7579 13.2109
Au 29.2501 26.4465 14.3814
Au 22.7747 14.4804 14.572
Au 15.4571 12.1655 8.96524
Pd 17.0541 14.2528 21.4961
Pd 27.1812 8.55636 23.9149
Pd 23.0106 23.0973 16.1453
Au 24.4702 17.8457 8.23585
Pd 23.8695 23.4096 22.8847
Pd 22.7093 18.8497 25.6629
Pd 20.8363 27.246 17.5651
Au 24.1272 27.7651 28.3421
Pd 23.0119 24.412 20.5267
Au 27.3322 8.09854 18.9595
Pd 16.3384 19.1755 19.2475
Pd 15.4892 26.0508 18.2309
Au 21.9219 5.4669 15.8355
Au 20.897 26.773 10.5625
Au 13.3174 11.9938 10.658
Au 10.6228 16.8015 15.9966
Au 9.45926 22.2552 10.5066
Au 12.4535 24.3156 28.2592
Au 9.01288 11.3856 14.4261
Au 9.09509 27.8212 14.8604
Au 13.6437 25.3729 20.2178
Pd 21.6989 31.5271 21.2127
Au 15.2227 24.4576 27.7508
Au 22.4778 21.3605 6.15743
Pd 29.6941 26.4661 18.3212
Au 15.2087 25.0396 6.0626
Au 18.3827 20.4387 20.6803
Au 28.8846 14.3289 12.7283
Au 23.5531 29.3462 21.4409
Au 26.5863 29.4098 28.6106
Pd 20.3696 17.4074 7.76563
Au 8.24125 15.9864 14.792
Pd 25.1565 20.4135 19.1749
Au 22.427 9.89745 12.8349
Au 22.8453 21.6027 29.3743
Au 10.5453 26.1635 27.4485
Au 28.2839 10.1725 26.091
Au 13.1789 25.7937 31.9858
Au 23.3565 18.9986 28.4035
Pd 23.6231 13.3729 8.79939
Au 16.8607 29.7541 27.0421
Au 12.7296 22.8544 32.5462
Au 11.4974 14.3127 10.7933
Au 14.534 11.2652 27.7982
Au 17.4337 20.6313 5.70782
Pd 16.7221 28.5132 18.8802
Au 18.9714 10.9203 30.7398
Au 31.4726 29.3544 18.4346
Au 25.1614 20.5921 30.2376
Au 14.8284 24.3123 22.5986
Au 8.56857 18.2129 11.26
Au 26.7945 24.103 18.8
Au 22.5046 19.1548 20.0726
Au 32.1259 12.9933 21.1945
Au 11.9911 24.2023 12.337
Au 16.4022 7.49778 11.1119
Au 11.4108 28.569 26.634
Au 34.6154 24.5644 22.3397
Pd 20.7994 25.6197 19.8031
Au 6.36621 21.3634 14.0958
Au 17.9276 26.8793 17.0263
Au 19.582 31.3864 27.7561
Pd 24.4583 30.6091 12.4762
Au 29.7149 19.161 29.0032
Au 8.33612 21.9444 26.6455
Au 18.2793 7.47168 26.5244
Au 13.6806 14.3395 9.21309
Au 22.3926 31.4874 27.9858
Au 20.016 13.5073 21.5529
Au 18.8399 18.9333 26.7067
Au 10.7164 22.5319 15.9118
Pd 28.0212 23.5562 21.3963
Pd 6.38369 22.7913 19.0519
Au 7.89848 16.5214 27.4371
Pd 23.5935 30.0146 17.5466
Au 5.86508 24.2171 14.4504
Au 32.0944 19.0734 25.115
Pd 14.558 20.2755 26.0708
Au 30.2689 11.4447 15.9639
Au 30.6737 17.2001 19.511
Au 5.67219 21.6075 23.6177
Pd 12.9698 17.3892 29.2857
Au 14.8117 19.1797 16.9576
Au 7.86395 26.0856 24.9254
Au 9.81136 17.9015 13.6075
Au 17.7087 28.8951 31.2349
Au 18.9397 18.431 23.871
Au 15.3874 27.6202 11.9723
Au 14.0721 23.0092 25.5534
Au 13.8879 8.41185 12.2892
Au 19.1405 24.3171 23.83
Au 10.068 15.1299 20.3704
Au 20.6774 21.8007 8.39119
Au 18.0469 33.1596 21.3073
Au 19.4463 16.1096 17.399
Au 26.0656 12.9962 29.2154
Au 12.8259 20.1345 8.31246
Pd 25.6818 22.2289 21.1239
Au 25.9249 24.2584 11.8433
Au 19.8342 11.4007 12.4812
Au 22.8407 7.22375 12.5237
Au 13.6869 20.295 19.3312
Pd 25.8603 18.1075 13.8092
Au 21.8089 20.706 10.9033
Au 24.745 26.1371 13.8335
Pd 12.9099 27.4355 24.6995
Au 27.2346 24.2252 27.9687
Au 28.5294 29.2505 14.9617
Pd 18.7274 22.256 30.9644
Au 19.888 22.2971 5.78853
Au 11.9457 15.739 18.1931
Au 19.4961 15.7241 31.1443
Pd 27.8 19.5245 12.4394
Au 28.4477 15.0645 26.4718
Pd 18.2188 25.3302 19.2774
Au 18.951 4.43499 14.7492
Pd 28.1028 17.1015 29.941
Au 11.3848 10.7474 21.2092
Au 26.8187 10.7166 19.462
Au 25.2623 11.3561 9.72048
Pd 24.428 9.31591 14.627
Pd 16.0939 10.8375 15.5365
Pd 17.1303 32.5104 27.0732
Pd 27.7729 15.6783 19.9337
Au 9.51147 14.6987 17.7308
Au 15.9282 27.2106 7.67765
Pd 18.6108 22.6612 18.9295
Pd 16.0007 16.3504 23.1709
Au 20.5126 33.9235 20.589
Au 8.77842 13.2213 24.4633
Au 21.5726 14.6074 29.5688
Au 31.1793 23.5903 28.1109
Au 14.3056 18.5893 23.9785
Au 25.151 8.84594 25.9689
Pd 29.0966 10.4528 23.6162
Au 20.3526 23.0956 21.1145
Au 19.8006 5.10119 19.8978
Au 16.3868 11.9695 25.7166
Au 32.6839 16.0748 24.9776
Au 12.2946 28.3261 21.9721
Au 11.3269 15.5366 13.3765
Au 22.7619 24.1217 27.689
Pd 21.5845 28.9824 28.6209
Pd 18.9715 18.2015 18.9891
Au 15.8254 7.40118 25.5372
Au 12.0275 9.08653 14.2022
Au 16.6986 19.2704 22.6081
Au 18.3229 22.3619 15.6099
Au 19.1748 18.5116 33.9875
Au 28.0134 31.6086 16.4947
Au 18.0074 32.1848 13.586
Au 20.1099 9.48665 26.3345
Au 10.5746 11.1815 24.0233
Au 23.8638 13.7695 30.7074
Pd 15.4581 9.60666 17.8984
Au 19.2171 27.9157 19.6276
Au 19.9857 30.4342 30.2758
Au 23.8215 22.6411 11.3858
Au 12.7328 30.8714 26.2367
Au 17.9818 13.7917 17.1035
Au 22.1049 6.91038 22.9831
Au 25.956 12.2146 16.8013
Au 30.8531 13.4807 14.2701
Au 16.5494 17.8696 25.2945
Au 7.12641 18.5542 13.6523
Au 24.8446 20.4213 7.2905
Pd 17.3862 9.45471 24.5935
Au 25.2617 18.8665 32.3005
Au 18.5392 26.8273 8.7829
Au 27.082 20.077 28.1827
Au 25.8307 21.2492 23.7077
Au 9.52245 24.258 25.9374
Au 13.8711 23.6617 17.8726
Au 23.3161 22.2167 8.7557
Au 12.5232 11.2955 25.8132
Au 16.739 5.65659 15.67
Au 30.0805 23.8586 23.3131
Pd 24.4889 15.8224 12.9447
Au 25.9642 33.2523 21.0646
Au 30.7329 27.8528 16.1723
Pd 10.688 20.0921 12.3506
Au 27.4771 28.2521 24.1831
Pd 22.794 19.3051 31.1255
Au 21.1278 11.4269 14.9556
Au 32.3033 27.6102 25.0158
Pd 29.5121 25.8276 27.6261
Au 16.6041 15.1871 18.9428
Au 22.2471 19.4522 8.0029
Au 7.74856 17.3195 23.0842
Au 20.8582 32.5614 14.3393
Au 20.4717 22.8652 28.6614
Au 25.5983 9.79207 22.104
Au 9.96521 15.6533 23.3682
Pd 28.0127 25.7493 23.0293
Au 21.2682 12.3336 8.01636
Au 15.4073 15.2379 16.3832
Au 34.3891 21.835 22.4722
Au 10.9404 17.0559 10.9247
Au 24.7087 12.1354 21.189
Au 28.095 12.9457 24.7163
Au 20.1807 34.008 17.6581
Au 18.2747 27.6246 25.8781
Au 9.87412 29.5053 21.464
Pd 16.8177 20.0693 33.581
Au 14.6041 15.6656 31.2777
Pd 9.9531 22.0618 24.3646
Au 21.5634 22.1131 34.4422
Au 11.6409 11.838 14.9102
Au 23.865 9.13279 10.4714
Au 24.3496 4.949 16.8947
Au 21.1362 23.1638 11.9863
Pd 27.3467 25.9956 25.8333
Pd 28.5821 30.4257 22.9935
Au 20.7579 21.2603 16.2854
Pd 30.9663 25.1134 16.3302
Au 20.8308 7.41892 27.7538
Pd 26.0978 13.425 13.6109
Au 21.3308 14.6932 26.7213
Au 16.9942 16.7839 27.6762
Au 28.0391 9.78411 16.7545
Au 14.524 13.0301 30.0077
Au 15.0123 13.8238 23.5022
Pd 32.3727 26.7581 18.1212
Au 19.6502 31.9111 23.1537
Pd 20.0242 28.4606 12.6344
Au 18.322 12.7719 19.5519
Pd 19.7361 24.8941 30.4406
Pd 19.08 13.3118 29.5831
Au 16.5748 13.2207 28.1986
Au 28.9416 24.7182 12.1587
Au 12.5171 30.8355 14.435
Pd 24.1702 11.2994 18.744
Au 25.3098 32.1438 17.0562
Pd 15.1274 18.5153 32.1461
Pd 14.1983 15.6473 13.8728
Au 18.6047 8.75054 28.9099
Au 14.1165 12.5692 16.0703
Au 21.33 29.7327 19.1145
Au 27.3543 30.4981 25.6713
Pd 28.2778 13.2069 15.2085
Au 31.1275 12.3145 18.7681
Au 28.3702 32.0883 20.9284
Au 15.2829 6.2782 13.3803
Au 11.9418 17.8983 25.7384
Au 24.9798 18.4321 24.2511
Au 26.884 19.2202 8.76453
Pd 13.07 23.8864 15.2686
Pd 5.78044 20.9612 20.9578
Pd 15.4675 17.1334 7.20089
Pd 16.9848 17.3972 17.2526
Au 24.6925 23.0576 6.68421
Au 22.9997 6.99928 25.8604
Au 19.9728 23.8166 32.9609
Au 6.6059 25.5036 19.725
Pd 16.1842 22.1238 29.5159
Pd 29.0281 16.9985 12.9094
Pd 31.6661 21.1163 23.1806
Au 10.7208 26.9442 12.5669
Pd 26.796 10.9292 14.5763
Au 24.3472 5.70107 21.8626
Au 29.2339 24.1835 29.7986
Au 22.4758 11.4452 10.363
Au 19.3243 24.2442 7.72338
Au 28.5302 12.3671 17.7505
Au 28.3098 28.9363 20.3517
Au 8.47513 28.16 23.2944
Au 15.2353 31.7066 13.6004
Pd 22.9935 13.0299 17.116
Pd 7.32064 16.2976 17.6036
Au 13.2413 26.298 16.6755
Pd 29.6976 19.801 26.3627
Au 25.13 20.6088 12.7502
Au 14.8145 31.1727 28.0281
Au 16.7662 15.1216 32.8531
Au 26.0074 15.6841 25.0698
Au 17.9515 21.8072 8.1522
Au 19.2931 8.32534 8.82163
Au 19.7738 27.3837 15.0668
Au 14.4553 32.3953 23.0024
Au 11.5593 19.4734 15.2088
Au 26.3963 21.3237 10.5301
Au 31.6168 25.0381 25.8762
Au 8.53512 23.8068 20.6881
Pd 8.28734 18.376 16.126
Au 26.5482 23.84 24.0967
Pd 17.6702 17.5293 31.9041
Pd 21.4407 25.1949 22.4912
Au 5.14308 20.4149 18.3892
Au 13.0412 29.145 28.689
Pd 14.9197 12.7282 20.8477
Pd 24.4694 15.9195 10.1482
Pd 23.661 16.6456 31.5377
Au 24.6148 28.0371 11.6797
Au 21.8345 16.5323 12.6539
Au 12.6148 17.4433 31.9871
Au 8.8651 25.4531 16.3575
Au 14.0757 5.52865 15.7395
Au 17.0828 17.1688 20.8346
Au 9.63522 12.4363 19.6649
Au 21.2258 8.55108 10.6609
Pd 24.7062 13.4693 11.362
Au 21.2589 16.6892 24.5211
Au 18.9298 18.329 15.478
Au 27.0947 24.5916 14.2783
Pd 22.7344 25.242 17.8559
Au 16.5694 10.659 20.1373
Au 5.30858 15.6683 19.4436
Pd 23.4066 13.784 25.1094
Au 15.1858 21.5954 31.8839
Pd 12.1292 24.8573 25.4454
Au 12.2119 13.3551 20.2797
Pd 19.8349 10.7804 9.75708
Au 18.073 11.6664 22.285
Au 22.8113 9.24061 27.4226
Au 28.2661 9.26739 21.3413
Au 17.9662 23.9581 28.5771
Pd 26.0564 17.3669 16.4623
Au 27.376 11.8857 22.0893
Au 21.1827 18.5713 17.2551
Pd 17.5964 11.9878 10.5509
Pd 10.3185 13.1467 22.2412
Au 16.351 8.84839 13.4442
Pd 22.9094 23.8387 33.1231
Au 19.3343 15.7149 28.3594
Au 17.9235 14.8993 6.00037
Pd 22.7827 13.5562 22.4492
Au 12.5174 15.0449 22.3936
Au 13.5083 11.3392 18.9419
Au 26.1591 27.7178 21.7884
Au 12.9718 12.1779 22.8653
Au 26.0181 13.243 26.428
Au 22.2956 14.5471 10.9936
Au 22.0089 11.8871 20.2974
Au 18.5045 12.5399 14.8554
Au 32.2719 13.4978 24.1165
Au 24.93 23.229 31.2647
Au 20.0898 27.7515 30.7482
Au 27.8637 14.7907 22.5742
Au 30.1818 22.0647 12.0162
Pd 27.8774 26.1833 20.3226
Au 15.9561 14.4768 7.71901
Au 25.0131 14.7206 15.9186
Au 27.0969 15.7759 14.4224
Au 14.3602 19.8892 14.2499
Au 18.6089 9.8859 14.6347
Au 13.0459 17.1112 8.84557
Pd 19.0856 15.623 20.0896
Au 25.5816 21.95 16.8361
Au 20.0088 18.1158 21.3941
Au 23.2225 33.9533 21.0184
Au 7.26892 15.3954 24.8705
Au 20.0314 13.3567 10.4848
Au 27.3033 12.4917 11.3041
Au 17.0389 30.902 20.1565
Au 25.2808 26.3442 24.0306
Pd 10.6504 27.2877 16.9719
Au 17.7906 6.91626 23.7761
Pd 22.4288 27.4079 13.0987
Pd 29.435 10.1193 18.9669
Au 20.137 9.24335 16.8187
Au 20.0463 16.218 10.3284
Pd 7.3666 18.8956 18.6263
Au 20.4595 29.2127 26.071
Pd 14.3918 17.6625 26.9907
Au 21.3393 21.7083 31.6871
Au 24.2149 19.8904 15.4554
Au 15.4161 22.4995 15.4387
Pd 18.8135 32.2807 16.1829
Pd 8.91968 23.3122 17.9807
Pd 17.514 29.6857 12.3973
Pd 20.6823 23.5335 14.7666
Au 20.6888 5.8102 13.3368
Au 17.0447 15.2804 30.0654
Au 34.3718 23.1724 19.9487
Au 23.1996 20.8296 23.8189
Au 14.5479 20.9933 11.5669
Au 27.4324 19.8979 21.8581
Au 18.4327 20.3104 17.5503
Au 26.2999 17.2302 22.2263
Au 13.5853 26.1626 13.5611
Au 21.325 17.3788 29.9883
Pd 14.6535 15.502 20.9014
Pd 17.6427 14.6011 9.98112
Au 13.7375 28.3106 31.1805
Au 16.6817 23.0219 10.7976
Pd 21.203 31.8316 25.6047
Au 21.1067 17.4711 27.2661
Au 9.5767 28.9359 18.7677
Au 23.7235 25.183 8.25022
Au 15.8441 23.6857 19.7055
Au 30.2206 16.3098 28.4385
Au 14.6069 30.1697 21.4792
Pd 22.1989 32.4911 18.8065
Au 18.8573 15.9517 22.804
Au 12.5034 14.6368 15.7296
Au 12.9144 26.3138 10.8603
Au 17.1716 19.9731 30.8392
Pd 17.1401 27.567 14.2089
Au 15.8161 21.3124 20.9577
Pd 28.9525 13.0089 20.3053
Au 17.1903 8.25217 16.3114
Pd 31.018 21.3021 19.1385
Au 12.7265 28.8337 12.0746
Au 15.3064 8.24668 23.0204
Au 27.0884 21.7872 7.95989
Au 22.3357 23.9758 30.5818
Pd 14.894 25.6236 25.1644
Au 10.529 29.9025 16.1806
Au 32.0465 28.9166 22.7112
Au 28.6054 17.7489 10.4222
Au 10.9722 10.2744 18.5753
Au 25.4921 17.9718 26.931
Au 16.4881 25.2037 12.7452
Au 14.6986 27.3277 22.7136
Au 14.109 23.7103 30.3983
Pd 18.1683 8.55906 18.9831
Au 5.62165 18.989 23.0166
Au 7.83069 27.8327 20.5609
Pd 32.6958 23.5005 23.8975
Au 8.91054 15.5778 12.1542
Au 27.0091 26.7967 28.5484
Au 25.1027 6.05302 19.2592
Pd 13.3181 26.6437 27.2845
Pd 16.4652 22.2817 26.853
Au 28.2628 22.235 16.5412
Au 30.9487 27.5764 20.3651
Au 15.9504 21.5561 17.9783
Au 17.5048 26.5961 29.753
Au 30.3142 25.027 20.8102
Au 17.1019 28.5346 21.6726
Au 16.8398 24.3333 31.1134
Au 10.3431 19.6761 9.70531
Au 19.8815 8.87914 23.4196
Au 22.3138 14.2842 6.39358
Au 26.2942 13.3712 19.2422
Pd 16.7125 21.4949 13.1648
Au 16.0253 25.9156 10.0524
Au 21.1759 27.9925 21.7337
Pd 23.3492 25.4772 11.1844
Au 15.0131 19.7037 6.71507
Au 25.6342 17.9751 29.7521
Pd 14.5651 8.24819 15.2758
Au 17.8059 6.0785 18.149
Au 25.0125 29.7075 24.011
Pd 35.2616 23.2404 24.6041
Au 11.4693 24.2879 9.49982
Au 25.2879 28.6953 19.3227
Au 28.2454 25.03 16.5906
Pd 13.9365 21.9674 28.0864
Pd 24.8826 25.5419 26.6517
Au 27.3158 33.3299 18.6527
Au 25.3774 8.10465 12.428
Au 21.5265 15.8229 21.8108
Au 19.4811 34.5308 23.148
Pd 24.9199 25.9572 19.2802
Au 27.0909 26.6765 12.3574
Au 13.6985 29.8845 23.9659
Au 23.5445 16.2692 26.1749
Au 30.5003 30.5652 16.2433
Pd 26.17 29.4573 16.6452
Au 28.4842 12.4711 27.4841
Au 13.0436 10.1123 16.5669
Pd 15.88 13.5431 14.2536
Pd 19.8614 19.3764 31.4412
Pd 7.48386 23.5041 24.2666
Au 19.4625 6.84659 15.6999
Au 11.4407 22.1501 18.7702
Au 28.7795 29.0277 17.6745
Au 7.907 19.2418 27.3054
Pd 15.6812 17.6673 29.7667
Pd 10.0818 26.733 21.6657
Au 26.8712 20.5577 14.8495
Au 30.0472 19.5446 17.0407
Au 17.6798 23.6575 21.6033
Au 28.9529 20.5014 10.1154
Au 26.8857 25.1183 30.7774
Pd 13.4593 16.0481 11.4003
Au 10.1972 12.5337 26.6711
Pd 6.47715 24.6836 17.149
Au 10.8478 19.6509 20.0467
Au 29.7267 23.5656 14.4544
Au 20.5488 20.2206 24.8738
Au 19.8933 31.1041 12.0011
Au 24.2898 22.9994 25.5573
Au 21.8963 9.38201 19.0696
Au 22.7738 9.36736 21.7582
Pd 25.4509 9.45801 17.1227
Au 21.2552 12.226 28.098
Au 12.2788 15.5806 27.2978
Pd 17.7364 17.6572 10.6105
Pd 12.3937 22.986 23.3806
Au 15.1089 6.91764 17.702
Pd 16.9002 30.9996 22.8577
Au 32.441 19.0214 18.3514
Au 26.0042 15.4203 30.6324
Au 20.7963 19.8943 28.8042
Au 21.9838 8.06892 15.0742
Au 12.1903 18.5485 17.8697
Au 31.0403 22.1024 25.6157
Pd 31.7704 25.9674 22.942
Au 17.7155 18.9553 13.0305
Au 10.4929 16.7376 30.3965
Au 8.40044 25.4331 13.6231
Au 27.6511 22.2737 12.8404
Au 17.7957 25.9609 6.33166
Au 9.5233 24.8258 11.2805
Au 10.2939 9.67132 16.1134
Au 19.448 31.7644 18.977
Pd 11.3223 24.6857 17.6507
Au 14.2345 27.9966 19.8213
Au 31.0985 14.4275 26.5634
Au 15.5675 11.0625 23.1125
Au 12.3327 12.9407 28.2452
Au 21.4553 12.1795 30.8692
Au 20.8173 14.0793 18.837
Pd 15.4455 31.4005 25.3221
Au 21.5789 11.7951 25.5
Au 14.1668 10.882 13.547
Au 23.1587 29.5706 26.248
Au 31.8914 18.283 27.6774
Au 31.6252 13.9597 16.6863
Au 23.9257 18.1867 17.9015
Au 28.3367 18.2529 15.1596
Au 30.4851 10.8453 21.2159
Au 24.9999 10.9402 12.3834
Au 25.1106 22.6104 28.2932
Au 23.6724 16.2628 28.9168
Pd 16.1296 27.0044 27.353
Pd 25.2012 15.7984 18.5283
Au 5.58187 16.1996 22.1151
Au 30.424 19.3101 12.1839
Au 17.0243 30.1283 15.0788
Pd 28.9625 19.3089 19.5856
Au 28.6874 14.8747 10.056
Au 19.6932 19.3644 9.45319
Au 24.7306 20.4988 26.4383
Pd 24.2107 19.9182 9.99721
Pd 16.6187 9.51358 27.2044
Au 24.4074 31.4481 19.7431
Au 26.2299 10.7468 27.7022
Au 22.6175 15.7096 17.2035
Pd 25.5639 13.4095 23.5868
Pd 22.9816 24.2562 13.5436
Au 19.1501 15.8172 33.7835
Au 19.4621 29.1253 10.1131
Au 12.3887 19.7335 27.7733
Au 28.0928 17.1403 24.3317
Au 16.2771 26.1276 20.8981
Pd 10.1746 19.9942 26.0828
Au 23.7377 13.7409 27.8826
Pd 10.0264 19.6327 23.157
Au 19.6228 10.4569 20.326
Au 22.1142 29.3115 10.9488
Pd 18.7972 13.607 26.6281
Au 26.1453 6.89124 16.8841
Au 17.3778 19.1453 8.00754
Au 22.0789 26.9165 26.6877
Au 22.6721 17.0937 6.34008
Pd 29.0148 23.9112 25.7859
Au 14.722 33.0789 17.923
Pd 15.0078 24.2061 33.0688
Au 22.0259 30.2343 13.3972
Pd 33.5107 19.1981 22.7707
Pd 29.9985 12.8416 22.8237
Pd 12.3239 20.5255 24.6376
Au 22.562 21.4882 13.7759
Au 32.0762 22.9956 21.2216
Au 19.7843 5.63993 22.6039
Pd 23.7223 11.2847 23.6253
Au 19.6829 20.9771 13.5594
Au 20.5418 24.4671 26.2011
Pd 28.9497 17.4827 21.6654
Pd 27.249 19.5345 25.3059
Au 17.6875 6.39487 20.9682
Au 18.2812 25.1155 14.9186
Pd 9.88776 17.5651 21.4015
Au 17.6345 24.9528 26.1419
Au 29.9667 21.5593 30.177
Au 9.88083 24.4272 23.1219
Au 19.923 24.6816 17.1332
Pd 25.0932 22.808 14.2908
Au 30.1336 29.2884 24.8396
Pd 12.8763 28.9131 17.3315
Au 7.82589 19.2701 21.3073
Au 24.0755 30.1024 29.5335
Au 7.61804 16.6258 20.2891
Pd 24.062 25.871 31.7704
Au 6.65789 26.6391 15.2892
Au 13.2242 23.0275 7.77365
Au 10.0976 13.0739 12.6397
Au 33.4963 20.5603 20.3372
Au 22.9628 20.8357 17.7511
Au 16.6296 23.2287 24.2843
Au 28.5584 21.7451 24.027
Pd 15.0667 18.8539 9.37166
Au 26.8295 16.4797 8.81506
Au 13.7134 15.9594 24.804
Au 18.4468 21.0556 28.462
Au 25.4268 14.8227 21.3276
Au 30.4081 15.1419 21.2681
Pd 16.8881 31.0184 17.5596
Au 21.0027 9.84179 29.284
Pd 20.6508 7.00227 18.1798
Pd 19.2097 21.748 10.7722
Pd 20.4121 6.87883 25.0884
Pd 28.6128 17.2473 17.6999
Au 12.4449 21.7014 13.6649
Pd 9.19465 17.7381 25.2268
Au 15.9705 17.5349 14.7183
Au 17.9105 15.4683 15.0021
Pd 19.0875 22.2497 26.0159
Au 22.9698 21.7432 20.7373
Au 21.4375 26.05 32.315
Au 21.7509 14.605 32.2963
Au 19.8799 19.7514 6.55336
Au 10.3608 26.7623 24.5883
Au 13.1049 21.2929 16.6141
Au 17.5194 23.4382 5.64382
Pd 19.3978 30.1316 21.1585
Pd 21.1435 26.3039 7.93782
Au 25.1451 31.0782 27.196
Au 27.4549 9.79496 12.243
Au 16.9974 24.0638 17.1871
Au 26.8692 8.1733 14.6692
Au 14.995 30.2072 11.4013
Au 5.86464 16.816 15.4252
Pd 15.929 12.3896 18.0984
Au 28.3126 14.5408 29.2048
Pd 19.6205 30.1349 14.6389
Au 20.3369 15.8954 5.5656
Au 7.71342 20.1242 24.6179
Au 27.6744 21.6014 19.3318
Au 29.1778 11.6927 13.1498
Au 33.4277 21.6427 17.8263
Au 18.6297 11.2139 27.8501
Au 15.4588 28.1668 16.5005
Au 7.51362 21.0885 16.9956
Pd 23.6419 26.6233 21.81
Au 13.6159 33.0986 15.43
Au 14.1218 19.9257 29.9442
Au 18.1508 17.7085 5.82036
Pd 7.56712 25.7338 22.3288
Pd 24.0295 11.3705 26.3693
Au 26.251 30.4284 21.5736
Pd 10.9813 25.3937 14.7553
Au 23.5439 31.527 15.1015
Au 17.3956 31.0407 29.4195
Au 25.6724 23.6475 9.20021
Pd 20.4283 14.1329 13.3328
Au 15.5153 25.4692 15.379
Pd 20.6202 11.6515 17.8473
Au 18.6779 21.5943 23.1723
Au 25.2333 24.8283 16.4561
Au 14.6633 26.2905 29.6676
Au 24.7097 19.5748 21.7044
Au 19.6325 26.2677 27.9721
Au 16.2619 19.5939 27.9843
Pd 22.2827 17.8676 10.1859
Pd 18.22 9.38782 11.4092
Pd 9.91963 13.9154 15.2335
Au 22.8482 25.1356 24.7669
Pd 19.0556 16.5073 12.8629
Au 18.0489 10.8608 17.4386
Au 25.7164 24.9013 21.5865
Au 16.529 10.7993 29.5981
Pd 20.5559 13.8681 16.1061
Au 34.0729 25.6077 24.8526
Pd 16.1979 15.0504 25.8542
Au 26.7388 29.1803 12.9811
Au 22.0168 28.7837 15.6931
Pd 21.6829 19.6615 33.5703
Au 33.4154 23.1967 26.5981
Au 19.3045 21.137 33.4934
Pd 14.5946 30.7757 16.1594
Au 10.631 21.9815 21.5618
Pd 20.561 20.6366 19.193
Au 23.8091 21.2278 32.8323
Au 16.7312 17.4573 34.4058
Au 18.5473 23.4073 12.8866
Pd 26.3812 7.33152 21.4223
Au 29.6236 21.5165 21.4355
Au 19.4823 10.4762 7.10565
Au 26.9374 27.0245 17.8914
Au 16.9138 12.8445 31.2849
Au 11.9414 26.8078 29.6962
Au 8.07977 23.1134 15.2703
Pd 25.5133 27.7473 30.575
Au 15.3634 13.5886 11.4282
Au 12.667 6.58682 13.8794
Au 30.5747 30.2924 20.9412
Au 23.9321 16.9851 20.6713
Au 7.68438 13.6212 13.7077
Pd 26.9501 30.7836 18.9128
Au 14.6203 21.7316 34.3551
Au 15.1739 18.2942 12.0596
Au 33.7359 21.0937 25.0299
Au 25.7149 28.2678 26.2665
Pd 14.5138 17.026 18.6035
Au 14.0356 14.1843 18.4818
Pd 12.6196 17.9461 13.2604
Au 27.7524 19.6629 30.8541
Au 9.92283 15.3281 26.0508
Pd 16.2995 28.836 24.4125
Au 29.5688 27.8587 22.5325
Au 5.67804 19.4661 15.8677
Au 21.8425 9.67046 8.32162
Au 32.3946 20.1053 15.7716
Au 12.9347 20.1589 32.4998
Au 17.7416 13.8206 24.0501
Pd 29.7718 26.5944 24.912
Au 33.3631 28.4441 20.3133
Pd 27.3166 22.3224 30.0367
Pd 11.5854 12.7878 17.5647
Pd 18.0237 13.8223 12.5098
Pd 21.4524 23.0355 18.5726
Au 32.3825 15.0064 19.311
Pd 28.0934 17.6516 27.2988
Au 21.2525 17.2221 32.722
Au 16.8107 28.7814 9.8351
Au 23.6566 11.3312 29.1685
Au 19.8905 13.0782 5.84625
Au 16.445 24.1147 8.16307
Au 20.2756 18.76 12.0165
Pd 17.0558 20.2423 10.6282
Au 14.5807 23.3863 12.997
Au 34.0898 27.2156 22.6564
Pd 18.6027 18.1605 29.3755
Au 30.955 22.2779 16.627
Pd 11.1629 24.4289 20.4629
Pd 23.3904 7.46351 17.4296
Au 14.437 19.0807 34.5723
Au 12.7098 20.1666 21.9905
Au 24.4836 28.8678 14.5092
Au 12.3128 31.638 17.389
Au 19.1225 28.9341 23.5353
Pd 24.6926 15.3527 7.37289
Au 20.3347 25.6277 12.9667
Au 12.3338 14.8509 30.1426
Au 11.3024 24.3578 30.7266
Au 19.2166 33.5283 25.6324
Au 26.7704 15.5609 11.6152
Au 15.8537 26.8112 32.0503
Au 30.4284 12.0145 25.5141
Au 32.0179 22.1534 14.0859
Au 14.1019 23.7907 10.2955
Au 7.90313 13.8632 27.026
Au 14.5666 18.2779 21.2128
Au 10.0159 20.1572 17.3936
Au 13.7732 25.6718 8.28755
Au 22.8314 10.2121 16.6596
Au 12.7542 9.57226 23.503
Au 12.0944 28.0689 14.7841
Au 24.5818 7.77221 23.5897
Pd 21.5432 24.1826 9.56354
Au 18.488 26.2078 32.4211
Au 22.6748 6.97821 20.1826
Pd 24.3044 23.129 18.7381
Au 14.6245 29.0346 14.0547
Pd 12.0598 31.0921 22.2193
Au 6.41609 17.8835 25.4629
Au 24.6332 34.0668 18.7184
Pd 22.7727 27.5453 19.3939
Pd 12.0149 21.8678 29.9576
Au 15.4577 10.1874 10.9568
Au 33.1522 17.4837 20.6141
Au 15.2319 21.5253 8.85962
Au 12.2986 7.47676 16.5158
Au 18.792 28.7774 28.5294
Pd 9.02232 20.5123 14.6384
Au 26.2868 13.8916 9.16583
Pd 29.6203 15.6456 15.4593
Au 27.1705 19.6581 17.411
Pd 31.6903 20.9355 27.9095
Au 16.8408 20.0598 15.4541
Au 19.0876 29.4322 17.2444
Pd 26.1419 15.5586 27.9446
Au 17.0748 26.2323 23.698
Au 7.52342 27.4136 17.7092
Au 30.9557 18.0923 14.6293
Au 19.3284 13.3211 32.3507
Au 21.9185 23.9015 6.7669
Au 9.98414 14.7275 28.6518
Au 15.6565 7.95325 20.1541
Pd 22.5077 12.5465 12.7557
Au 21.919 33.3432 23.3837
Pd 11.3867 19.2765 30.3511
Au 31.2245 19.3386 21.1346
Pd 10.9459 29.3905 24.0889
Au 21.8949 30.2389 23.599
Au 23.5589 17.2197 15.1357
Au 14.0275 9.9044 21.1557
Au 10.4163 29.5805 13.3712
Au 29.6445 19.3108 23.6284
Au 33.1039 25.7097 20.4917
Au 8.0205 20.655 12.0715
Au 14.7769 21.3683 23.4453
Au 20.7942 16.4108 15.1097
Pd 24.0562 31.8542 22.5004
Au 26.1897 31.202 14.5581
Au 27.3992 14.9015 17.1352
Au 24.3717 6.62988 14.7738
Au 21.3535 22.7888 24.0149
Pd 21.4703 16.7893 19.3185
Pd 13.3822 17.2167 15.8647
Au 22.0267 26.2966 29.4071
Au 18.3498 30.9482 25.2444
Pd 22.4581 18.3566 22.8026
Au 29.8315 14.8099 18.3572
Pd 14.4375 28.8766 26.4081
Au 18.8136 16.1573 25.6063
Au 15.6947 28.8746 29.4011
Au 33.1501 23.6069 16.0606
Au 21.509 19.0744 14.5547
Au 13.1241 8.52909 18.9039
Au 19.8325 4.52 17.2438
Au 26.4615 32.103 23.6964
Au 11.9821 17.6617 23.0738
Au 22.9008 27.8123 24.1118
Au 17.8843 16.4952 8.17168
Au 11.9307 29.9584 19.6877
Au 29.6496 31.495 18.6618
Au 8.05156 21.723 22.3849
Au 30.3527 17.1618 25.8471
Au 23.8461 15.9706 23.3679
Au 15.2485 22.2979 6.21571
Pd 17.6818 8.94264 21.8545
Au 21.0075 11.2851 22.825
Au 23.3302 14.2486 19.6931
Pd 18.1477 27.007 11.5614
Au 24.7175 25.2333 29.3068
Au 28.551 28.3187 26.8368
Au 22.0517 21.5707 26.6469
Au 24.0829 11.9945 14.847
Pd 32.1385 24.0168 18.583
Au 17.1366 20.4666 25.0711
Au 7.44634 14.0271 19.2952
Pd 17.9674 6.70532 13.4379
Au 17.1042 33.3125 24.0693
Au 10.298 17.8003 27.98
Au 26.482 21.3454 32.4842
Pd 12.3171 17.1474 20.3804
Pd 10.847 21.9342 8.26455
Au 29.0544 22.0032 27.7975
Au 14.7018 15.2576 28.4313
Au 31.494 16.8088 16.9913
Au 5.29782 18.296 20.3849
Au 32.9998 15.2962 22.2425
Au 8.57403 21.2146 19.6258
Pd 22.8317 28.2183 31.0051
Pd 7.30611 13.9266 16.3613
Pd 22.1277 25.9316 15.4011
Au 12.7627 19.0267 10.807
