923
Atoms. Timestep: 20464
Au 35.4569 21.6983 23.8161
Au 6.00552 23.8776 24.8638
Au 21.6692 16.4552 29.2923
Au 35.3287 21.5405 20.917
Au 22.8301 27.1764 11.1277
Au 27.1292 11.3223 12.1897
Au 9.67498 17.6274 14.8103
Au 16.8253 22.2804 31.9879
Au 22.6423 14.2226 7.1771
Au 21.3699 30.5054 9.55889
Au 34.2409 16.6137 23.1724
Au 10.1415 8.64162 23.1882
Au 5.505 22.1249 16.2413
Pd 19.6018 10.4488 13.7115
Au 10.4917 22.2344 12.8081
Au 17.5046 18.6823 15.5973
Pd 7.381 14.7234 16.8409
Au 8.70387 23.4018 28.7653
Au 12.0931 26.8786 29.1894
Pd 28.0711 16.6768 21.3574
Au 13.5535 20.4313 19.7183
Au 26.9986 24.5987 13.0528
Pd 18.224 14.53 8.60699
Au 13.583 5.47284 23.0315
Au 25.8266 28.2811 14.6198
Au 19.3254 23.541 8.94404
Au 12.0891 20.4542 26.2769
Au 26.1943 25.5651 15.5747
Au 9.00489 28.4276 18.2373
Au 31.5479 19.7806 24.9721
Au 6.18938 17.0628 26.0483
Au 27.9875 20.3328 15.2429
Au 15.2469 17.4045 10.9551
Au 20.7825 10.975 25.7051
Au 6.86011 12.268 17.8319
Au 27.4389 12.045 14.7143
Au 21.222 29.339 27.0153
Pd 14.5635 18.7208 21.7416
Au 20.4186 23.9383 11.5232
Pd 21.6468 22.3711 23.1969
Au 14.1372 12.964 17.4229
Au 26.7943 27.8212 17.2689
Au 24.0293 13.2136 30.8939
Au 23.593 18.0884 22.5509
Au 24.3532 23.2633 19.6848
Au 29.6272 24.2719 12.1041
Au 20.6512 12.733 27.8652
Au 22.4496 11.8639 17.6047
Au 8.05966 15.3188 27.1386
Au 29.6084 17.6731 11.486
Au 17.9237 20.6606 18.0922
Au 17.1026 17.7567 12.9883
Au 15.902 18.8458 8.68945
Au 5.14525 16.7878 20.4417
Au 20.226 16.7438 18.7197
Au 14.7046 20.5537 31.4834
Au 19.9355 24.0916 6.2897
Au 24.678 18.1237 25.1801
Au 27.0818 13.5046 10.4558
Au 17.4615 17.5951 18.0657
Au 7.00648 18.4072 21.5235
Au 18.7757 13.7352 11.2814
Pd 31.2103 23.1261 14.2137
Au 17.312 24.2597 25.5489
Au 19.7057 7.68232 19.8545
Pd 17.178 23.0889 13.9981
Au 10.8284 20.5184 19.902
Au 27.9303 29.6576 20.296
Au 32.4117 16.0208 14.1338
Au 26.2014 20.5074 25.9957
Au 22.1959 23.3224 8.47617
Pd 30.5071 22.3429 25.8166
Pd 23.7341 9.26206 14.8557
Pd 15.2168 22.2206 25.4481
Au 12.1669 22.2624 10.1258
Pd 6.33191 24.1881 17.7162
Pd 12.2363 19.4744 17.5739
Pd 23.096 24.5102 11.208
Au 31.155 15.3057 11.9034
Pd 24.0454 25.4233 31.1929
Au 14.6593 25.9671 21.0722
Pd 26.1579 13.8841 13.0088
Pd 18.6157 32.3025 20.7999
Au 11.7741 30.7036 26.2884
Au 28.1913 14.9028 29.6139
Au 31.2601 24.324 9.97666
Au 24.8992 13.8561 18.2486
Au 28.4277 17.7543 16.1785
Au 17.3829 27.4253 29.0933
Au 8.7538 20.6465 28.4011
Au 10.381 26.1417 18.8774
Au 16.1043 13.6592 10.0497
Pd 19.0079 22.44 26.9987
Au 23.2969 26.573 23.5615
Au 32.1488 18.1027 12.3056
Pd 9.24573 19.5923 22.6336
Au 30.2121 13.8186 23.5552
Au 21.7676 19.7682 5.87954
Au 19.0586 32.8062 13.9525
Au 26.5542 30.7123 22.5467
Au 11.0497 29.8612 17.4422
Pd 18.3796 30.0514 12.8194
Au 33.3935 16.4792 16.5525
Pd 10.0942 25.5168 27.8395
Au 31.8181 27.4403 18.9241
Au 16.3881 13.0601 25.9227
Au 10.0631 8.96265 20.5276
Au 16.8034 15.9458 15.0692
Au 15.1611 7.81169 18.4518
Au 33.0293 14.7872 21.2215
Pd 28.4158 20.419 11.2728
Au 30.2635 15.0758 20.8854
Au 22.247 8.78136 24.9747
Au 26.4702 18.505 18.1558
Au 7.41342 17.3854 16.1493
Au 13.3742 20.3443 15.2254
Pd 14.9804 27.1373 15.1906
Au 28.4536 27.1275 15.1431
Au 22.1412 17.7253 7.95488
Au 29.7336 18.5816 22.8231
Au 16.0513 5.39645 19.1157
Au 10.8936 23.4672 19.6946
Au 11.0191 28.1822 27.1021
Au 26.7344 25.4717 30.9425
Au 15.4105 22.9932 11.7662
Au 8.22568 23.9414 12.8364
Au 18.2703 7.94082 13.5665
Au 19.4919 10.3706 28.5461
Au 29.0136 9.93329 21.1747
Pd 26.3876 15.9829 27.8277
Au 21.1402 25.6808 9.45093
Au 22.0369 28.9353 15.8904
Au 16.466 18.4111 30.7176
Pd 10.7424 15.5901 20.1935
Au 28.2346 25.3553 17.5485
Au 18.6036 17.9113 32.6951
Au 29.8477 21.193 29.5539
Au 23.5616 20.3263 26.4937
Au 23.1669 22.1641 17.3391
Au 10.9957 8.97374 28.6593
Au 24.1239 21.1185 5.46665
Au 22.8958 7.94127 12.4845
Pd 13.9738 24.2602 9.73529
Pd 25.3649 24.768 24.0201
Au 10.6412 23.0954 8.02154
Pd 16.2851 22.5134 16.5333
Au 16.6902 11.7505 16.703
Au 28.3595 16.4719 31.8869
Pd 13.2541 30.6086 20.841
Au 19.8439 19.0585 8.46061
Au 23.6673 20.9248 34.4401
Au 21.4512 16.2494 14.1372
Pd 30.2184 19.9435 13.1048
Au 22.0275 31.6475 24.2103
Au 21.2046 25.0728 22.6532
Au 10.0299 12.8336 14.1189
Au 35.1523 19.1978 22.1677
Au 5.22417 16.5992 17.4837
Au 14.3489 30.5395 25.6886
Au 27.6889 27.4305 9.71758
Au 13.4361 21.1657 12.5179
Au 11.4296 32.2791 21.5456
Au 27.2462 9.43747 19.1012
Au 25.1369 27.9067 9.12271
Au 27.6193 19.6027 28.4961
Au 10.458 9.88323 17.8375
Au 8.05845 22.0122 24.1759
Au 28.8375 20.291 17.8679
Pd 25.3906 28.5653 19.7107
Au 22.4183 27.9986 8.48879
Au 20.5087 27.4203 19.0395
Au 16.9487 10.9677 20.8296
Au 14.5095 16.589 28.7969
Pd 15.4699 13.6532 15.0265
Au 17.1913 10.7013 29.9578
Au 23.7219 11.1207 24.4788
Pd 17.5419 18.7123 22.1661
Au 19.0252 15.3094 31.6535
Au 16.8928 25.2825 15.65
Pd 25.0772 18.5996 28.085
Au 19.3329 25.2201 14.2577
Au 10.1721 12.1252 23.168
Au 14.8848 12.0348 30.4257
Pd 5.14195 19.5796 20.0154
Au 9.29683 25.0976 21.3434
Pd 8.79233 13.9101 19.0633
Au 27.4256 25.3389 22.3486
Pd 16.8262 18.2057 27.9096
Au 14.1375 6.49544 20.6309
Au 22.9172 14.541 16.2665
Au 22.7159 31.4573 12.4037
Pd 17.3962 14.5804 23.8672
Pd 29.5487 16.2152 13.8395
Pd 17.5284 15.3849 26.8546
Pd 21.34 9.96823 15.8645
Au 8.29265 15.141 14.2798
Au 4.5969 19.5137 22.5889
Pd 29.5064 22.7268 19.1459
Pd 15.118 21.4101 21.7406
Au 11.7046 16.8253 17.8437
Au 18.5143 7.03332 22.5942
Au 16.6783 26.7324 26.4194
Au 16.1311 24.5435 18.4961
Au 30.2463 25.3167 19.4097
Au 17.6862 16.1788 10.6684
Pd 34.2973 19.3354 24.6285
Au 23.6835 26.8414 15.635
Au 25.6668 18.6837 15.2649
Au 32.0213 12.452 22.1202
Au 24.3588 9.39964 26.6646
Au 30.7919 19.7247 10.2051
Au 20.0592 21.1109 10.3795
Au 30.7281 26.4291 16.5961
Pd 16.0444 30.4354 11.4507
Pd 30.9019 13.86 14.3751
Au 31.1257 26.0793 25.1561
Au 17.8656 12.7066 28.2083
Au 29.0405 27.1764 23.7242
Au 24.9797 9.44348 12.1282
Au 26.8924 28.0536 22.2908
Au 11.3415 7.76016 16.1839
Au 12.2443 13.3522 20.6672
Au 34.5934 23.0021 27.4776
Au 21.8617 18.7758 27.8634
Au 21.5527 22.7594 20.2611
Pd 19.3077 23.0672 21.9383
Au 28.1175 23.3442 32.071
Au 29.1881 29.6826 22.7121
Au 25.9068 9.57214 24.4455
Au 27.3265 11.4502 23.0589
Au 28.2941 10.6758 25.6686
Au 26.2029 30.9487 15.3412
Au 22.4211 16.5773 5.67997
Au 19.9415 17.8715 6.01108
Au 24.962 26.2139 21.3409
Au 23.5101 20.6087 29.2862
Au 28.5672 29.6709 15.8022
Pd 24.6061 11.2652 21.7945
Au 19.0885 26.4505 30.9016
Au 17.9725 22.3207 11.4162
Au 27.2269 12.5844 17.5404
Au 18.4297 20.1342 12.941
Au 12.6283 25.5484 14.5079
Au 22.8599 17.1369 11.9378
Au 32.7772 25.065 15.2174
Au 7.40454 19.9632 15.3793
Au 16.9906 10.4575 14.1857
Au 10.5245 25.1829 12.3649
Pd 10.5996 20.1803 15.3369
Au 30.1717 19.582 27.3532
Au 22.0778 11.6007 29.8244
Pd 18.1231 30.1007 22.322
Au 25.7801 20.8749 7.46992
Pd 20.0185 17.7809 12.0344
Au 13.7237 27.1209 26.9069
Au 22.2765 19.9027 24.0261
Pd 19.8693 26.661 7.30102
Au 6.16594 14.6317 22.0163
Au 32.1609 13.83 16.7659
Au 8.02835 16.5495 23.0968
Au 21.9954 9.55495 27.883
Au 25.6533 16.1792 22.5091
Au 16.4682 20.6898 29.1531
Au 8.36849 10.4368 21.9995
Pd 5.24673 18.3763 14.9773
Au 15.7255 15.961 8.69175
Au 12.6785 8.12034 22.4127
Au 23.6139 15.5889 24.393
Au 20.2567 31.9082 11.6423
Au 30.5043 21.0961 15.7386
Au 22.7076 13.3173 22.5764
Au 19.9195 34.2689 16.5005
Au 23.2455 32.6834 19.6325
Au 7.96403 18.9851 10.7182
Pd 31.0259 17.8546 20.4508
Au 29.8724 12.0622 16.1593
Pd 34.5558 20.9261 18.0474
Au 14.1969 32.7604 22.4022
Au 13.6812 33.1522 19.8906
Au 32.3657 24.2257 26.6941
Au 27.0626 18.2658 10.4594
Au 21.8939 19.0582 10.3092
Pd 19.1552 13.3787 25.7139
Pd 26.2386 23.6261 26.4787
Au 24.9866 11.6814 10.5895
Pd 22.6007 25.3748 20.0291
Au 26.2573 21.5834 33.3427
Pd 20.4142 12.1663 20.8821
Au 5.73889 15.7287 14.9187
Au 29.0362 16.6403 18.7464
Au 13.5382 19.4186 7.59554
Au 13.6905 23.6994 19.8177
Au 7.65118 21.5862 11.4006
Pd 12.481 28.4847 24.8251
Au 16.0624 13.2882 19.283
Pd 29.4916 12.5378 21.1747
Au 14.9335 17.7271 15.8027
Pd 16.4902 23.8579 21.1948
Pd 32.0409 21.4775 27.864
Au 12.4633 12.9083 31.061
Au 4.59662 22.4267 21.8797
Au 30.4634 26.6716 11.0563
Pd 13.4893 22.1403 17.4099
Au 29.1181 17.679 8.76753
Pd 11.8668 22.6878 15.0644
Pd 18.066 18.8302 10.4549
Au 20.8891 26.4652 16.3482
Au 26.2311 14.7389 31.465
Au 20.3537 21.469 7.57031
Au 8.17299 28.1876 23.3343
Pd 27.8858 10.1855 16.6214
Au 20.479 20.4897 21.6107
Au 18.4458 23.1839 19.234
Au 22.7205 15.545 18.7505
Au 16.0858 29.8611 17.3446
Au 15.1665 28.1296 24.6355
Au 32.7724 25.0924 17.9486
Pd 21.8306 17.5662 25.3618
Pd 15.6557 26.0938 10.7416
Pd 15.5456 8.16379 13.8017
Pd 7.82059 17.9106 28.1571
Au 28.1403 26.9518 12.3966
Au 13.1748 19.5218 10.2933
Au 32.4755 18.6916 22.6444
Au 32.7973 19.8016 16.273
Pd 11.0727 22.5132 27.9618
Pd 12.5625 30.982 23.6814
Pd 18.003 17.2045 7.931
Au 20.4318 8.67672 11.7327
Pd 12.4745 11.3291 18.9622
Au 23.5856 23.9007 22.2053
Au 24.5887 29.3658 16.977
Au 24.2898 22.3357 24.67
Au 11.7925 10.4275 24.563
Au 17.745 32.5246 11.4788
Au 11.3004 27.054 16.4814
Au 30.0876 28.6851 13.5714
Au 33.2357 19.1602 27.155
Pd 19.7715 29.2175 17.2566
Pd 24.6657 16.7302 17.1114
Au 14.8335 19.6443 26.472
Pd 24.67 25.9605 26.5824
Au 23.1388 11.8211 27.0479
Au 35.4046 20.7197 26.6032
Au 13.953 30.7959 13.122
Au 18.5287 12.1887 18.9304
Au 22.8666 18.7077 14.3723
Au 17.7532 22.5508 6.62912
Au 19.3436 26.1553 25.804
Au 14.9034 31.8198 15.7993
Au 25.6099 8.86024 17.0463
Au 9.72285 23.4109 25.915
Au 29.1524 27.624 26.4375
Au 10.2998 7.26084 18.5429
Pd 12.5454 17.2199 11.6476
Au 19.2795 6.33298 15.5773
Pd 18.1489 15.1578 19.3724
Pd 7.85313 16.0493 20.4013
Au 31.685 16.8919 27.7897
Au 19.741 25.2794 20.4643
Pd 20.5852 32.7951 18.8909
Pd 24.0396 23.9099 15.0318
Pd 8.91606 14.0972 21.8196
Au 13.6799 25.1437 30.512
Au 21.618 24.4876 32.3184
Au 7.56095 12.6188 15.1837
Au 13.2357 9.43456 17.0166
Au 13.1111 27.0437 9.22085
Au 9.14544 16.3825 17.9975
Au 16.078 20.0216 23.9096
Au 30.7304 18.4865 17.6712
Pd 11.0253 18.599 24.699
Au 19.0442 18.8894 19.9343
Au 20.0099 19.6269 25.9289
Au 17.2574 26.2809 20.2837
Pd 12.5504 8.67374 19.5543
Au 14.355 12.9426 12.5017
Au 32.7 20.6401 13.6611
Pd 18.5084 25.9919 17.8514
Au 24.6086 20.5567 19.2702
Pd 18.6611 21.0475 15.5493
Au 30.0834 17.5552 25.5713
Pd 26.8355 16.1779 14.5793
Au 20.0877 19.1384 17.253
Au 26.6592 29.8889 10.5333
Au 27.3254 22.4369 24.3033
Au 30.76 26.1429 13.7904
Pd 10.2894 18.4512 27.5177
Au 25.2526 13.7749 21.0144
Au 12.3556 22.1493 21.6542
Pd 28.1896 22.6447 16.8461
Pd 22.8139 25.5823 28.6511
Au 20.3517 31.7436 16.3986
Pd 15.8945 27.0853 17.7909
Au 10.3809 14.9316 15.9908
Au 25.5 13.9571 15.5795
Pd 18.9521 20.9651 23.8758
Au 8.64846 26.634 13.7436
Au 20.4405 21.8151 17.7936
Au 29.7013 14.0056 18.0184
Au 10.3399 10.0685 14.9896
Au 12.797 24.8826 7.47175
Au 19.0544 19.9983 28.4543
Au 10.4281 11.0237 26.9805
Au 12.767 12.3794 28.2154
Au 31.505 17.0302 9.83452
Au 27.729 13.2823 25.0851
Au 17.4705 28.0366 8.17905
Au 29.2972 15.2226 10.0112
Au 17.9855 14.116 16.8371
Pd 21.462 14.2394 30.837
Au 24.4265 17.996 9.65312
Au 13.3171 26.2774 18.6223
Au 10.5687 11.4775 29.7159
Au 24.8338 15.336 11.1472
Au 32.1979 21.1659 30.8899
Au 22.3668 22.7954 13.2606
Pd 13.9621 12.0005 25.6663
Au 34.4941 24.0453 24.8764
Au 27.5319 26.1073 28.3333
Au 7.22714 24.4178 15.2535
Au 25.6354 17.1156 32.6051
Au 8.6368 25.0544 24.0327
Au 11.2928 30.3388 13.0378
Au 30.7366 26.1624 27.9969
Au 13.4707 14.7418 26.7415
Pd 27.0139 11.7484 20.3584
Au 9.57698 16.2094 29.3543
Pd 23.0418 27.7045 18.4102
Pd 24.4819 16.1936 7.54624
Au 23.1609 20.6324 8.17356
Au 15.8506 5.43589 24.6228
Pd 18.347 22.6357 29.7283
Au 7.10946 12.4184 20.6169
Pd 8.57641 12.8176 25.858
Au 23.8881 31.6249 22.3214
Au 23.6139 16.4833 27.1757
Au 19.9912 28.0094 14.2447
Pd 24.3395 28.9412 22.3373
Pd 19.4922 32.1341 23.3897
Pd 28.7366 20.1132 24.9943
Pd 17.7698 21.1643 21.0728
Au 11.3527 6.42597 24.1283
Au 17.9575 9.77629 11.5629
Au 30.4136 20.583 20.6946
Au 15.3379 14.3742 21.6731
Au 22.103 22.6827 5.76598
Au 19.7357 23.6472 24.6194
Au 25.6633 20.5984 10.1687
Au 9.64463 18.8697 30.2096
Au 14.8018 8.67084 28.8252
Au 27.0306 30.4477 17.9237
Pd 18.4954 25.4991 22.9519
Pd 16.4324 22.9136 27.6817
Au 20.3939 14.0771 15.3821
Au 8.06542 20.4393 19.7936
Pd 28.3137 21.862 27.1562
Au 22.1032 27.6182 21.3065
Au 18.8119 11.6357 23.4442
Au 9.89508 30.4 19.9626
Au 23.6437 18.0118 19.4727
Au 12.9161 29.1205 11.1738
Au 27.9439 18.4044 13.4228
Pd 11.5596 13.8923 18.1428
Au 10.6121 27.0006 23.3219
Au 23.2061 18.4474 33.2166
Au 9.2817 14.6553 11.9032
Au 27.522 29.3412 24.7854
Pd 9.99674 11.851 20.1992
Au 7.78337 21.6578 17.4579
Pd 6.78638 21.0334 21.9919
Au 22.4972 33.3273 16.9687
Pd 16.9701 7.79128 20.5885
Au 10.8099 21.4393 24.0318
Au 16.2943 5.32592 21.9075
Au 11.4478 32.1684 18.8898
Au 29.7074 21.0253 32.3009
Pd 9.56847 18.1466 20.1875
Au 13.2793 26.0581 23.675
Au 10.0707 28.7569 14.9115
Au 27.6591 26.8444 19.8976
Au 13.4222 15.3982 16.4047
Au 31.5602 23.0963 21.0676
Au 23.8825 19.9337 12.1443
Au 21.3557 32.3397 21.4845
Au 22.7813 11.9245 8.64661
Pd 30.5887 15.9784 16.3388
Au 18.9213 15.5956 13.3609
Au 22.8472 12.9772 19.9517
Pd 9.74163 17.405 11.9627
Au 17.5632 21.0874 8.94024
Au 25.8761 25.4227 10.706
Au 15.7656 21.9994 19.1787
Pd 11.4074 6.48427 20.8734
Pd 21.3846 23.7434 15.6137
Au 14.6192 24.8321 25.7733
Au 29.3176 28.2546 18.1272
Au 22.7842 9.90453 10.4579
Au 11.8072 24.3635 17.2324
Au 26.5559 28.2332 27.0556
Au 18.1684 34.0293 18.6587
Au 30.5065 14.4085 28.3093
Au 13.0272 9.8413 27.0789
Au 27.3946 17.999 26.2812
Au 20.9776 7.92766 14.2981
Au 29.3586 11.2831 18.7564
Pd 14.4938 14.8153 30.9203
Au 14.2336 23.6143 23.0543
Au 13.1167 12.6627 23.2141
Pd 21.1417 15.2803 26.7843
Au 34.2214 20.8313 29.0895
Au 25.2616 20.2481 23.3559
Pd 28.7563 16.0566 23.8996
Au 12.6904 22.2546 30.4183
Au 16.6257 23.7752 9.32513
Pd 20.6459 12.8371 13.0577
Au 11.9499 17.5348 29.6565
Au 15.592 9.53002 25.6781
Au 29.3698 25.4431 30.2942
Pd 18.0456 19.7623 6.60691
Pd 9.13654 20.2366 25.8208
Au 24.6127 11.0837 29.0484
Au 14.6848 27.6005 29.5199
Au 11.967 15.6887 31.6533
Au 24.5472 23.4569 6.90205
Pd 20.7869 30.5845 14.0864
Au 22.9191 23.2128 30.1778
Au 31.8884 15.8972 18.796
Au 16.8473 32.4057 22.9927
Au 33.5951 23.0066 19.402
Pd 19.9243 26.6544 11.8276
Au 19.8454 28.8797 29.5598
Au 29.3835 18.7471 30.703
Pd 14.8121 21.5727 9.34877
Pd 27.4753 20.9952 30.7951
Pd 31.0474 18.2592 14.9243
Au 20.6864 14.8664 20.7108
Au 34.2248 23.7042 22.1417
Au 26.3577 9.60627 14.445
Au 14.3522 24.7421 16.507
Pd 20.0738 13.8872 23.1903
Pd 27.0532 24.1865 19.7885
Au 12.7713 28.3187 14.0884
Au 26.7221 15.8683 9.11272
Au 17.7936 27.9229 16.053
Au 15.232 28.5961 9.6314
Au 19.817 8.46557 26.6439
Pd 20.759 24.4513 18.1865
Au 24.5425 15.8004 29.728
Pd 15.4502 25.3145 28.3928
Au 8.89385 10.375 24.7797
Au 27.2622 22.8201 10.9914
Au 33.1547 22.6127 16.3937
Au 17.7607 28.7894 19.3017
Au 15.1408 30.3296 22.9851
Au 20.127 16.5481 9.59906
Au 17.4152 27.21 13.5049
Pd 19.6193 9.05764 24.0711
Au 15.3785 13.91 28.4556
Au 6.42623 26.4912 24.516
Pd 32.9709 23.336 29.5439
Pd 25.0378 27.1472 29.0991
Au 18.6324 16.2326 21.949
Pd 7.06389 19.1167 24.1571
Au 12.2006 11.2217 13.2605
Au 14.4695 22.8741 14.5279
Au 25.5792 19.1676 34.3351
Au 17.2997 8.79635 27.8202
Au 11.0351 24.3344 30.0535
Au 20.3431 11.252 10.8505
Pd 21.9052 25.7749 13.6141
Au 11.9484 11.7418 16.239
Au 22.6253 24.4317 25.0507
Au 20.5579 13.8551 18.1417
Au 24.1976 16.3378 14.4974
Au 16.2077 19.3415 19.7963
Au 15.8478 29.1038 27.4012
Au 30.6086 16.3268 30.2823
Au 28.2014 20.2432 8.61426
Pd 19.762 22.5232 13.6888
Au 23.7962 8.8494 22.6059
Au 15.3296 16.7603 26.0257
Au 7.64715 26.0645 19.1614
Au 12.5364 23.1013 25.5309
Au 11.2179 15.686 13.4717
Au 20.9625 29.1818 11.8096
Pd 26.3435 20.561 13.001
Au 23.9033 23.3042 33.1347
Au 16.4815 16.1848 32.2198
Au 14.0491 7.02696 15.9247
Au 9.26232 27.7963 20.8701
Au 31.2929 15.05 25.7647
Au 7.23613 22.2993 26.7677
Au 12.6858 13.6318 14.5387
Au 12.1058 19.6595 31.4209
Au 22.3338 7.52464 19.7345
Au 24.7487 8.59535 19.8627
Au 17.6501 18.106 25.1505
Pd 14.7955 10.3091 12.4936
Pd 18.1547 30.5798 15.4519
Au 21.4025 22.2858 33.8528
Au 25.7349 16.2703 19.6974
Au 26.5157 18.2229 7.76209
Pd 11.9741 10.5982 21.6509
Au 26.4002 25.4341 8.06615
Au 30.5208 23.5823 28.6025
Au 10.3543 20.317 10.8876
Pd 24.8917 23.0964 9.50758
Pd 13.8624 21.8582 27.9003
Au 8.0954 10.2561 16.4389
Au 9.47383 22.2133 21.76
Au 24.7294 14.0319 26.4681
Pd 11.5044 25.7543 25.6646
Pd 31.3831 16.2955 23.0308
Au 10.7317 18.0669 9.50549
Au 16.7309 19.7636 33.0942
Au 12.8499 24.5313 27.9677
Au 11.7375 13.5103 11.8592
Au 8.09099 10.2955 19.1462
Pd 10.7775 15.8734 26.9287
Au 27.8394 23.4179 29.3345
Pd 10.1087 21.6722 30.4585
Au 15.4829 11.143 27.8884
Au 30.2479 12.5875 26.0122
Pd 25.8421 18.7855 21.0284
Au 32.4188 24.6591 12.3063
Au 21.6823 26.7509 30.8898
Au 5.58321 22.0166 19.2082
Au 30.0326 11.1218 23.5564
Pd 11.2128 20.4253 8.30839
Au 33.9868 14.3363 18.675
Pd 21.8371 20.0466 19.2484
Au 34.9623 20.87 15.21
Pd 24.8565 11.1073 18.9177
Pd 13.3864 8.01531 25.0243
Pd 28.6946 15.2688 26.5645
Au 20.6867 13.5767 9.19725
Au 28.7761 23.1263 21.6466
Au 19.9394 18.4162 23.3856
Pd 23.5064 19.4374 17
Au 19.2416 27.8334 21.5094
Au 8.4719 26.6019 16.4195
Pd 20.9311 24.3022 27.1633
Pd 21.049 29.877 22.4196
Au 17.4836 33.121 16.1457
Au 22.5707 28.3131 29.0368
Pd 7.95601 23.2541 19.7565
Au 14.1105 15.8595 13.587
Au 13.2275 29.4337 28.0933
Au 15.9812 16.8225 23.2516
Au 24.0076 28.7739 26.8577
Pd 33.1011 20.1762 20.3599
Au 25.2888 24.4844 28.8704
Pd 33.2302 21.7803 25.4779
Au 11.8479 28.4558 19.667
Au 21.4631 21.8966 25.8563
Au 13.3302 28.2639 22.1691
Pd 16.8389 12.0666 12.063
Au 12.8354 17.7818 26.9369
Au 16.2575 33.6826 20.7115
Au 5.34796 16.9527 23.3376
Au 7.62004 25.0225 26.7192
Au 27.2321 26.0357 25.3924
Au 6.55242 19.7315 26.7068
Au 17.0936 9.53618 23.1533
Pd 20.538 22.0305 31.2934
Au 6.86486 26.417 21.789
Au 35.2492 16.6016 18.5523
Au 31.4963 27.9656 23.0754
Au 19.6994 21.406 5.07288
Au 19.3934 16.0656 24.8558
Pd 20.4697 24.3704 29.8304
Au 10.0859 13.9882 30.7349
Pd 18.5208 20.2127 31.1267
Pd 7.46198 12.5433 23.4171
Pd 19.2873 9.76438 21.3584
Pd 11.6874 20.1759 28.8873
Au 28.9271 24.4327 14.9798
Pd 22.2934 30.6996 17.8965
Au 25.7877 21.6784 28.4757
Au 14.274 10.1852 23.3832
Pd 30.7274 23.6941 16.9492
Au 12.7336 7.19988 27.6092
Au 24.2176 18.6381 6.43376
Au 8.73558 21.1205 8.96809
Au 21.1014 19.4802 30.3762
Au 22.0112 13.4208 25.1403
Au 6.74383 14.7777 24.7416
Au 15.2412 25.2594 13.3108
Pd 17.9896 13.4523 21.4373
Pd 15.1353 10.6274 18.623
Au 24.5416 25.8351 13.1801
Au 13.8615 14.997 10.7584
Au 15.3375 6.99647 26.7606
Au 30.7047 23.3193 31.269
Au 12.8242 23.7876 12.3653
Au 7.01276 23.6999 22.2881
Pd 16.3662 14.8068 12.5511
Au 18.5855 28.6956 26.9527
Pd 8.76215 17.4612 25.5555
Au 10.6789 27.8555 12.3475
Au 23.1071 9.20082 17.7201
Au 30.6123 25.4832 22.1744
Au 13.2422 17.0773 8.9553
Au 25.9317 20.9274 16.9537
Au 15.9297 20.1869 11.4586
Au 8.97475 27.1361 25.7397
Au 13.4003 16.2682 22.0593
Pd 20.7491 19.6899 33.027
Au 4.51284 18.8746 25.1458
Au 25.9453 22.6573 21.9307
Au 17.5622 28.1469 11.0023
Pd 10.0754 24.7989 15.0153
Pd 17.339 20.582 26.2977
Au 6.13731 19.7239 12.7449
Pd 6.61754 22.0651 13.8604
Au 5.40131 21.3201 24.4643
Au 23.4842 18.0924 30.522
Au 25.5018 31.2166 20.0947
Pd 11.969 19.5165 22.2627
Au 13.3636 5.4331 25.6879
Pd 27.0459 15.5437 17.3155
Au 20.1895 30.1743 19.8823
Au 11.4184 13.2241 25.5645
Au 27.3195 22.9204 8.23418
Au 18.4103 5.44994 20.3188
Au 20.8387 7.62708 17.3229
Au 18.952 23.9808 32.2244
Pd 9.50734 12.422 17.0245
Pd 22.9352 14.0299 28.5526
Pd 12.2951 17.9237 20.1973
Au 21.3395 17.8336 20.9789
Pd 20.0592 18.6171 14.5912
Au 9.51304 23.2611 10.4505
Au 16.682 6.59607 15.6383
Au 18.2282 31.362 18.238
Pd 31.2979 22.0809 11.7325
Au 14.6361 14.6303 24.3127
Pd 22.5126 12.1899 14.9993
Au 16.272 28.1193 21.9485
Au 22.6358 29.1024 24.5572
Pd 24.902 30.446 24.6625
Au 27.7242 19.0687 32.7874
Au 13.7719 18.2983 24.2632
Pd 29.2664 24.2496 24.1277
Au 19.4782 12.428 30.4545
Pd 27.095 21.4652 19.6247
Au 19.4287 14.8942 28.9685
Au 22.9611 21.007 31.9249
Au 16.4526 32.0778 13.6739
Pd 21.3972 16.1431 23.0766
Au 35.321 18.6174 16.7559
Au 25.9345 11.6036 26.5551
Au 17.0622 30.3856 25.0047
Au 16.9828 22.673 23.4622
Au 24.7033 11.7002 13.4977
Au 15.8871 29.548 14.5207
Pd 17.7388 24.9159 12.0154
Au 16.0957 30.9733 20.4029
Au 18.0836 11.8509 9.58601
Au 23.723 29.7068 10.5922
Au 17.5798 25.2656 7.01801
Au 18.8514 21.5011 33.5043
Pd 14.4108 11.8581 20.9612
Au 17.5414 7.59349 25.1871
Au 27.6126 14.1143 22.4335
Au 11.1324 15.5246 10.1936
Au 9.98168 13.551 28.0717
Pd 15.9928 25.7176 23.5096
Au 12.9638 8.90754 14.2904
Pd 25.3545 27.7752 24.6114
Au 23.5078 23.0714 27.3663
Au 33.9441 18.2703 14.4093
Pd 21.1171 21.795 28.6
Au 12.4884 30.7042 15.4206
Au 28.8774 13.6539 12.6316
Au 7.05179 18.0614 18.7746
Au 18.7216 8.9847 16.0672
Au 21.5217 10.7495 22.9494
Au 20.6095 27.4591 23.844
Pd 17.6932 9.55058 18.5848
Au 25.56 27.9472 11.8709
Pd 13.6768 15.2715 19.4334
Pd 11.9568 25.8711 21.1248
Pd 28.5101 14.3147 15.4825
Pd 17.9081 27.9327 24.1724
Au 23.2011 24.9241 17.404
Pd 23.1789 28.6825 13.4262
Au 15.5879 20.9446 6.82752
Au 21.6494 33.1867 14.3827
Au 22.2165 10.4985 12.9539
Au 10.7498 8.35605 25.9923
Au 16.8735 24.9586 30.6946
Au 18.5435 30.4619 10.0102
Pd 7.34052 17.4925 13.3376
Au 29.0188 17.2211 28.3979
Au 18.0445 10.7113 25.9988
Pd 16.1066 16.6623 20.4486
Au 33.0431 21.3274 22.7719
Pd 28.7211 22.1464 13.3824
Pd 22.1026 26.8713 26.2195
Au 18.256 24.94 28.2141
Au 10.643 21.8037 17.4796
Au 23.3976 31.2253 15.1523
Au 23.2848 14.177 13.3036
Au 15.7939 15.4759 17.6814
Pd 26.4484 22.6785 14.8022
Au 22.6757 12.8726 11.0845
Au 25.7198 23.5804 17.3829
Au 9.47958 14.956 24.6489
Au 9.04057 24.1249 17.4307
Au 25.1484 30.5558 12.8626
Au 25.2789 26.0154 18.6236
Au 25.5037 22.8538 31.0667
Au 35.64 19.0578 19.5614
Au 11.3471 14.5805 22.77
Au 27.8164 20.5754 22.2246
Au 29.6224 22.2956 9.65681
Au 25.3031 19.7259 31.5821
Au 4.76355 25.0219 22.8085
Au 12.9609 10.2516 29.9279
Au 21.2571 8.01528 22.1795
Au 28.2012 12.8074 27.7528
Au 23.408 15.6602 32.1337
Pd 24.9192 22.8259 12.3907
Au 16.0795 12.2119 23.3078
Au 30.281 21.5512 23.245
Pd 31.6494 21.2647 18.3139
Au 32.8464 25.5854 20.638
Pd 33.2075 18.4066 18.4464
Au 33.2207 25.9583 23.3336
Au 26.6986 17.6017 30.1509
Pd 26.4502 9.2539 21.7432
Pd 33.7654 17.2757 20.6957
Au 8.84731 19.9108 13.1774
Au 21.9929 17.2491 16.6365
Au 14.3687 18.621 13.248
Au 13.0235 26.4305 11.8121
Au 22.7031 21.8342 10.6905
Pd 15.0561 28.1079 12.4383
Au 19.098 17.6148 30.0357
Pd 23.3282 15.682 21.2948
Au 23.8448 25.5936 8.77715
Pd 18.0687 13.0575 14.2133
Au 31.7205 12.9947 19.4684
Au 19.7805 29.9416 24.8169
Pd 28.5539 24.9188 9.74432
Au 13.0629 22.1616 7.3839
Au 24.1634 21.1439 14.7346
Au 15.3889 7.54344 23.1271
Au 28.9952 24.5392 26.7062
Au 18.7969 23.5774 16.4336
Au 32.9873 14.2925 23.8708
Au 10.8732 29.5563 22.2532
Pd 25.4393 17.7581 12.56
Au 28.4042 18.948 20.1032
Pd 13.4853 20.9588 23.92
Au 25.2455 13.3093 23.8054
Pd 31.7914 19.0014 29.466
Au 17.056 13.5488 30.8798
Au 24.75 13.7917 8.88803
Au 10.6128 17.1396 22.4855
Au 9.39067 19.1623 17.5373
Au 27.6774 14.3182 19.7259
Au 23.3323 20.9353 21.5654
Au 15.3262 20.0299 17.1708
Au 21.2043 20.3 12.745
Au 11.2177 24.1314 23.2615
Pd 21.4819 20.9252 15.4363
Au 22.9762 30.0047 20.297
Au 12.7903 6.36859 18.2249
Au 20.4099 10.1132 18.579
Au 27.6653 29.7022 13.1681
Pd 21.0879 15.0888 11.6625
Pd 21.1268 17.1075 31.8992
Au 14.1645 19.2685 29.1703
Au 14.4029 11.1598 15.0311
Pd 14.7752 9.20452 20.9263
Au 5.99918 14.5241 19.1852
Pd 16.0216 20.5953 14.3017
Au 19.4331 11.7165 16.3183
Au 15.1849 22.9889 30.0265
Au 11.3893 25.0779 9.78994
Au 26.3214 15.7515 25.0895
Au 14.7275 28.5972 19.6644
Au 18.292 25.9491 9.5702
Au 27.4999 15.9322 11.8958
Au 13.661 30.9402 18.1706
Au 13.5413 28.5598 16.9443
Au 19.4463 17.3445 27.3401
Au 12.2459 16.1247 24.7011
Au 22.2357 25.411 6.70281
Au 29.987 27.8357 20.873
Au 27.084 18.2457 23.5811
Au 15.7911 32.7241 18.2318
Au 19.9229 28.2358 9.45845
Pd 24.9966 11.3548 16.2401
Au 14.0252 17.5568 31.5172
Au 22.4571 10.1657 20.4013
Pd 31.963 23.6723 23.871
Au 12.2202 14.8703 29.15
Au 20.3235 26.7468 28.3115
Au 12.3044 17.6948 15.244
Au 11.5799 19.2534 13.0539
Pd 22.6852 15.5273 9.52602
Au 15.9479 9.12219 16.3
Au 5.51238 19.6943 17.3355
Pd 25.847 13.4749 28.896
Au 15.2214 23.6792 7.04736
Au 14.3612 17.7631 18.507
Au 17.9701 6.90264 17.9462
Pd 8.98781 22.3214 15.1006
Pd 15.368 26.1851 8.1206
Au 24.8004 32.0145 17.5162
Au 19.2877 16.4912 16.1497
Au 20.3402 15.5213 7.15138
Au 16.9922 15.9052 29.5637
Au 33.892 22.9959 13.8097
Au 9.98666 29.5077 24.8021
Pd 5.51748 24.5322 20.2561
Pd 32.7663 17.222 25.2497
Pd 28.3844 9.00716 23.5885
Au 29.2274 29.1026 11.0706
