923
Atoms. Timestep: 20071
Au 19.7547 19.7757 19.7642
Au 22.0559 19.7841 18.3444
Au 22.0489 19.7885 21.1892
Au 17.4657 19.7551 18.3336
Au 17.4592 19.7686 21.1808
Au 18.3375 22.0736 19.7481
Au 21.1817 22.0678 19.742
Au 18.3311 17.4769 19.7737
Au 21.176 17.4877 19.7751
Au 19.7566 18.3688 22.0765
Au 19.7473 21.1968 22.0586
Au 19.7458 18.349 17.4747
Au 19.7626 21.1846 17.4624
Pd 24.3413 19.7741 16.9345
Au 24.4106 19.7973 19.7532
Au 24.335 19.8026 22.6276
Pd 15.1907 19.7401 16.9158
Au 15.105 19.7541 19.7461
Au 15.1638 19.7598 22.6054
Pd 16.9215 24.3656 19.7367
Au 19.7594 24.4455 19.7324
Au 22.5979 24.3584 19.7162
Pd 16.917 15.1915 19.7829
Au 19.7453 15.1146 19.7868
Au 22.6004 15.1902 19.7885
Au 19.7622 16.9707 24.3954
Au 19.7524 19.786 24.4593
Au 19.7497 22.6069 24.3569
Au 19.7414 16.9311 15.1784
Au 19.7577 19.7439 15.0982
Au 19.7738 22.5859 15.1584
Au 22.0918 18.3606 23.5732
Au 22.0851 21.2182 23.5541
Au 22.0894 18.3305 16.002
Au 22.1071 21.2107 15.9931
Au 17.4234 18.3369 23.5593
Au 17.4158 21.2126 23.5468
Pd 17.4316 18.2991 16.0038
Au 17.4328 21.1731 15.9854
Pd 23.5255 22.1031 18.3028
Au 23.5328 22.1175 21.1865
Au 15.9951 22.0927 18.2999
Au 15.9893 22.1142 21.1925
Au 23.5382 17.4597 18.322
Au 23.534 17.4587 21.233
Au 16.0007 17.4238 18.3115
Au 15.9836 17.4154 21.2235
Au 18.307 23.5658 22.0722
Au 21.1953 23.5509 22.0675
Au 18.3017 16.0167 22.1162
Au 21.204 16.015 22.1314
Au 18.3259 23.5477 17.409
Au 21.2223 23.5408 17.4119
Au 18.3039 15.9989 17.4415
Au 21.1987 15.9965 17.4431
Au 26.6383 19.7506 15.5259
Au 26.7438 19.7677 18.3273
Au 26.7401 19.7904 21.2019
Au 26.6202 19.7998 24.0442
Au 12.8899 19.7282 15.4886
Au 12.7736 19.7442 18.3208
Au 12.7638 19.7464 21.1974
Pd 12.8683 19.7605 24.0224
Au 15.4893 26.6645 19.7419
Au 18.3401 26.7733 19.7265
Pd 21.1913 26.7652 19.7138
Au 24.0107 26.6463 19.699
Au 15.5066 12.8911 19.7938
Au 18.3255 12.7744 19.7943
Au 21.1865 12.768 19.7873
Au 24.0283 12.8869 19.7974
Pd 19.7614 15.5744 26.6948
Pd 19.7525 18.3751 26.7777
Pd 19.7523 21.2004 26.7632
Au 19.7632 24.0334 26.6449
Pd 19.7671 15.5043 12.9073
Pd 19.7727 18.3014 12.7883
Pd 19.7814 21.1552 12.7733
Au 19.7872 23.9857 12.8424
Pd 24.393 18.3575 25.0098
Au 22.0953 16.9393 25.9058
Pd 24.3843 21.2347 24.9998
Pd 22.0981 19.7942 25.9559
Au 22.1039 22.6407 25.8759
Au 24.4018 18.2988 14.565
Au 22.0951 16.8784 13.677
Au 24.4001 21.2079 14.5429
Au 22.098 19.7462 13.571
Au 22.1169 22.6089 13.6336
Au 15.1038 18.3224 24.9934
Au 17.4277 16.9257 25.8977
Au 15.0857 21.2213 24.9887
Pd 17.404 19.7795 25.9558
Au 17.3994 22.6491 25.8679
Au 15.1493 18.2628 14.557
Pd 17.4294 16.8658 13.6956
Au 15.1225 21.1794 14.5353
Au 17.4313 19.6999 13.5974
Au 17.4392 22.6087 13.6487
Au 24.9663 24.4185 18.2702
Au 25.8358 22.1181 16.8795
Pd 24.9629 24.4281 21.1775
Au 25.9207 22.1547 19.7517
Pd 25.8396 22.1322 22.6369
Au 14.5396 24.4224 18.2844
Au 13.6709 22.093 16.8528
Au 14.5372 24.4388 21.196
Au 13.5769 22.1285 19.7493
Au 13.6588 22.1155 22.6511
Au 24.985 15.126 18.3197
Pd 25.8535 17.425 16.8931
Au 24.9915 15.1327 21.2765
Au 25.938 17.4189 19.7727
Au 25.853 17.4344 22.6934
Au 14.5603 15.1035 18.3238
Au 13.6858 17.3932 16.8804
Pd 14.544 15.1146 21.2445
Au 13.5889 17.3747 19.7818
Au 13.6609 17.4028 22.6762
Au 18.2955 25.0181 24.3971
Au 16.8691 25.8975 22.0787
Au 21.1967 25.0081 24.3872
Au 19.7608 25.9907 22.09
Au 22.6174 25.8857 22.0503
Au 18.3064 14.5951 24.4576
Au 16.8648 13.7061 22.1405
Au 21.219 14.578 24.4761
Au 19.7589 13.5993 22.1687
Au 22.6548 13.6852 22.1772
Pd 18.3328 24.9703 15.072
Au 16.896 25.8671 17.3793
Au 21.2271 24.9679 15.088
Au 19.788 25.9568 17.3658
Pd 22.6347 25.8645 17.384
Au 18.3161 14.5506 15.1143
Au 16.8818 13.6763 17.4321
Au 21.2239 14.5416 15.1201
Au 19.7647 13.5761 17.4205
Au 22.6394 13.6547 17.423
Au 23.5957 15.9773 23.6447
Au 23.5827 23.5844 23.567
Au 23.5884 15.9318 15.9549
Pd 23.577 23.5801 15.9308
Pd 15.928 15.9711 23.6146
Au 15.9207 23.6084 23.5923
Pd 15.9593 15.9297 15.9521
Au 15.9489 23.5793 15.9071
Au 28.9471 19.7221 14.0996
Pd 29.086 19.7428 16.9119
Au 29.1221 19.7526 19.7584
Au 29.0899 19.7682 22.6142
Au 28.9503 19.7827 25.445
Pd 10.5851 19.7166 14.054
Au 10.4314 19.7311 16.8891
Au 10.3928 19.7314 19.7635
Au 10.4334 19.7447 22.6271
Au 10.5709 19.7657 25.4194
Au 14.055 28.9673 19.7348
Au 16.8983 29.1108 19.7343
Au 19.7787 29.1317 19.7156
Au 22.6083 29.0833 19.7087
Au 25.4401 28.9463 19.7003
Au 14.1003 10.5557 19.7968
Au 16.9263 10.4133 19.7925
Au 19.7695 10.3893 19.7821
Au 22.6196 10.4288 19.7856
Au 25.4639 10.5861 19.7893
Au 19.7452 14.1626 28.9828
Pd 19.7525 16.9594 29.0908
Au 19.7528 19.7906 29.118
Au 19.7717 22.6408 29.078
Au 19.7719 25.4723 28.9386
Au 19.7894 14.0802 10.6282
Pd 19.7895 16.8703 10.4943
Au 19.8036 19.7015 10.454
Au 19.8112 22.5607 10.4446
Pd 19.7772 25.3852 10.5288
Au 26.7051 18.3185 26.4348
Au 24.4369 16.8936 27.3439
Pd 22.1024 15.507 28.2123
Au 26.6866 21.2574 26.4419
Au 24.4323 19.8107 27.4235
Au 22.1146 18.3675 28.3116
Pd 24.4127 22.6887 27.3338
Au 22.135 21.2469 28.2966
Pd 22.1197 24.1008 28.1738
Au 26.7101 18.2549 13.1197
Pd 24.4212 16.831 12.2288
Au 22.1234 15.4448 11.3913
Au 26.7158 21.1927 13.0908
Au 24.4332 19.7255 12.1058
Pd 22.1388 18.2796 11.2435
Pd 24.4317 22.621 12.1653
Pd 22.1416 21.1655 11.2185
Pd 22.128 24.0223 11.3176
Au 12.7833 18.3301 26.412
Au 15.0855 16.8955 27.3481
Pd 17.4167 15.5108 28.2078
Pd 12.7706 21.2237 26.4048
Au 15.0435 19.7971 27.4223
Au 17.3939 18.3515 28.3195
Au 15.0461 22.6875 27.3121
Au 17.3696 21.2224 28.3109
Au 17.3868 24.1101 28.1772
Au 12.8171 18.2563 13.1027
Pd 15.1145 16.8235 12.2111
Au 17.4461 15.4311 11.3971
Au 12.7996 21.1716 13.0786
Au 15.0853 19.697 12.1054
Au 17.4228 18.2573 11.2475
Au 15.0911 22.6152 12.1666
Au 17.4191 21.1339 11.2188
Au 17.4302 24.0264 11.3008
Pd 26.4197 26.7299 18.2568
Pd 27.3265 24.4522 16.8458
Au 28.1877 22.1085 15.4574
Au 26.4121 26.741 21.1721
Au 27.4061 24.4833 19.7249
Au 28.3083 22.1414 18.3046
Au 27.3136 24.4587 22.6281
Au 28.3026 22.1697 21.1925
Au 28.1708 22.1525 24.0674
Au 13.0638 26.7431 18.2733
Au 12.1738 24.432 16.8111
Au 11.3379 22.0831 15.4124
Pd 13.0807 26.7444 21.1963
Au 12.0696 24.484 19.7464
Au 11.1921 22.1311 18.2982
Au 12.1865 24.4525 22.6602
Au 11.1884 22.1355 21.2006
Au 11.3422 22.1131 24.0781
Au 26.4357 12.7984 18.3275
Au 27.3351 15.0762 16.8837
Au 28.1778 17.3901 15.47
Au 26.4424 12.8286 21.2816
Au 27.4303 15.0666 19.8069
Au 28.3103 17.3871 18.3346
Pd 27.3354 15.1025 22.7064
Au 28.3041 17.3725 21.231
Au 28.1787 17.404 24.0869
Au 13.1076 12.7713 18.3125
Au 12.2019 15.0465 16.8659
Au 11.3402 17.3732 15.4422
Au 13.1046 12.7913 21.2624
Au 12.097 15.0329 19.7903
Au 11.1978 17.3565 18.337
Au 12.1861 15.0899 22.6929
Au 11.1969 17.3611 21.2286
Pd 11.3361 17.4221 24.085
Au 18.2952 26.4709 26.701
Au 16.8521 27.3762 24.4134
Pd 15.4248 28.2146 22.0924
Au 21.2144 26.462 26.7017
Pd 19.7483 27.4686 24.4307
Au 18.3189 28.3485 22.1179
Au 22.6218 27.3721 24.3865
Pd 21.1907 28.3481 22.0887
Au 24.0489 28.2042 22.0603
Au 18.2971 13.1744 26.7783
Au 16.8751 12.2208 24.4891
Au 15.4599 11.3483 22.1682
Au 21.2158 13.1561 26.7915
Au 19.7751 12.1172 24.5267
Au 18.3292 11.208 22.1918
Pd 22.6713 12.2162 24.5083
Au 21.2185 11.2152 22.1958
Au 24.0932 11.3665 22.1867
Au 18.3268 26.389 12.7383
Au 16.883 27.3187 15.0167
Au 15.441 28.197 17.3531
Au 21.2295 26.3837 12.7397
Au 19.7816 27.4212 15.0121
Au 18.3454 28.3338 17.3284
Au 22.6536 27.3198 15.0489
Pd 21.2158 28.3166 17.344
Au 24.0624 28.1772 17.35
Pd 18.3352 13.0897 12.8168
Au 16.8845 12.1846 15.0976
Au 15.4791 11.3265 17.4225
Au 21.2418 13.106 12.8285
Au 19.7922 12.0855 15.0872
Au 18.3492 11.1932 17.4121
Pd 22.6727 12.1907 15.1063
Pd 21.2172 11.2022 17.4067
Au 24.0719 11.3433 17.4183
Pd 25.9334 15.9362 25.0724
Au 25.9105 23.6194 25.049
Pd 25.0644 13.6263 23.6702
Au 25.0282 25.9541 23.5806
Au 23.628 14.51 25.9745
Au 23.5995 25.054 25.9333
Au 25.9157 15.8849 14.4977
Au 25.924 23.6036 14.4635
Pd 25.0392 13.5775 15.9339
Au 25.0367 25.9233 15.8935
Pd 23.6088 14.4687 13.6205
Au 23.6129 25.0122 13.5576
Pd 13.5721 15.9323 25.074
Pd 13.5698 23.6261 25.0456
Au 14.4664 13.6255 23.6518
Au 14.4542 25.9568 23.5987
Au 15.9029 14.5252 25.9702
Pd 15.8924 25.0817 25.9257
Au 13.6251 15.8755 14.4797
Pd 13.5859 23.5846 14.4322
Pd 14.4925 13.5754 15.9281
Au 14.4571 25.9295 15.8506
Au 15.9395 14.465 13.6231
Au 15.9266 25.0294 13.5452
Au 31.2481 19.6879 12.6717
Pd 31.3752 19.7201 15.4681
Au 31.4645 19.7237 18.3224
Au 31.491 19.7214 21.1859
Au 31.4425 19.7702 24.0282
Au 31.2701 19.7781 26.8552
Au 8.30871 19.7077 12.6115
Au 8.12443 19.7089 15.4415
Pd 8.07999 19.7221 18.33
Pd 8.07659 19.7378 21.1908
Pd 8.13282 19.7562 24.035
Pd 8.28316 19.7817 26.8021
Au 12.6227 31.2804 19.7029
Au 15.4593 31.46 19.7067
Au 18.3389 31.5125 19.702
Au 21.2199 31.4871 19.7111
Pd 24.072 31.3793 19.7158
Pd 26.8496 31.2238 19.7081
Pd 12.7012 8.27216 19.794
Au 15.5025 8.07726 19.796
Pd 18.3479 8.04755 19.787
Au 21.1894 8.04106 19.7875
Au 24.0686 8.10483 19.7897
Au 26.889 8.28575 19.7766
Au 19.727 12.718 31.2878
Au 19.7201 15.5406 31.4302
Au 19.7348 18.3704 31.484
Au 19.7686 21.2483 31.4844
Au 19.7749 24.0908 31.4126
Pd 19.7796 26.8863 31.2131
Pd 19.7983 12.6592 8.34891
Au 19.7933 15.4398 8.1758
Pd 19.7866 18.2715 8.14417
Au 19.7784 21.1112 8.08212
Au 19.7922 23.9628 8.09302
Au 19.7674 26.7857 8.22586
Au 29.0481 18.3291 27.8769
Au 26.7875 16.8706 28.8169
Au 24.4589 15.458 29.7013
Au 22.1087 14.0703 30.5279
Au 29.0409 21.2613 27.8641
Au 26.7912 19.8216 28.9318
Au 24.4973 18.3736 29.8541
Au 22.1295 16.9394 30.6807
Au 26.7196 22.7355 28.7913
Pd 24.4766 21.2869 29.8006
Au 22.1652 19.8366 30.7198
Pd 24.4236 24.1235 29.6398
Pd 22.1509 22.6976 30.6227
Au 22.1375 25.5415 30.4833
Au 29.0354 18.2238 11.689
Pd 26.728 16.797 10.7974
Pd 24.4333 15.3942 9.93148
Pd 22.1353 14.0105 9.0949
Au 29.0567 21.1596 11.6508
Au 26.7913 19.6813 10.6309
Au 24.499 18.2377 9.74933
Au 22.1553 16.8425 8.90551
Au 26.766 22.6121 10.708
Au 24.4771 21.1568 9.7072
Au 22.1604 19.7033 8.85229
Au 24.4502 24.0292 9.81541
Pd 22.1599 22.5783 8.87383
Au 22.127 25.4261 8.99924
Au 10.4577 18.3358 27.8391
Au 12.7458 16.8993 28.8082
Pd 15.0845 15.4732 29.6569
Au 17.3658 14.0792 30.5124
Au 10.4488 21.2226 27.8174
Pd 12.6982 19.7966 28.8727
Au 15.0107 18.3578 29.8272
Pd 17.3659 16.9152 30.6495
Au 12.7265 22.6625 28.7587
Pd 14.9884 21.2471 29.805
Au 17.3265 19.7906 30.7382
Au 15.0362 24.1272 29.668
Au 17.3383 22.6753 30.6943
Au 17.3963 25.5692 30.5168
Pd 10.5167 18.2544 11.6641
Au 12.792 16.8192 10.7506
Au 15.124 15.3915 9.87947
Pd 17.4648 14.0085 9.07461
Pd 10.5096 21.1275 11.6463
Au 12.7515 19.6915 10.6078
Pd 15.0652 18.2539 9.74583
Au 17.4182 16.8378 8.89297
Au 12.7659 22.5817 10.6927
Pd 15.0545 21.1324 9.72223
Au 17.3775 19.6834 8.82697
Au 15.0685 24.0246 9.79548
Au 17.3811 22.547 8.83595
Au 17.4038 25.442 8.96414
Au 27.8588 29.0504 18.2485
Au 28.7786 26.7787 16.8308
Au 29.6848 24.4627 15.4142
Au 30.5346 22.0815 14.0114
Au 27.848 29.0901 21.19
Au 28.8894 26.8104 19.7327
Au 29.8327 24.5005 18.3029
Au 30.7078 22.1172 16.8756
Au 28.7902 26.8021 22.6369
Pd 29.8151 24.524 21.194
Au 30.7398 22.1647 19.753
Au 29.6821 24.4927 24.0736
Au 30.6941 22.1859 22.6245
Au 30.5304 22.1692 25.5124
Au 11.601 29.072 18.2435
Au 10.6773 26.7591 16.7863
Pd 9.83561 24.4016 15.3705
Au 9.02664 22.0654 13.9661
Au 11.6305 29.0496 21.1789
Au 10.5598 26.8169 19.7355
Au 9.64694 24.4892 18.2603
Au 8.8166 22.1155 16.856
Au 10.7094 26.7554 22.649
Au 9.64718 24.4917 21.2033
Au 8.76561 22.1138 19.7408
Pd 9.84412 24.4275 24.0721
Au 8.82982 22.128 22.6375
Pd 9.02402 22.0986 25.471
Pd 27.8639 10.4888 18.3417
Au 28.8165 12.7327 16.9126
Au 29.6946 15.0516 15.4435
Pd 30.4841 17.3711 14.0345
Au 27.8885 10.5126 21.2443
Pd 28.8813 12.7421 19.8025
Au 29.8462 15.0277 18.3751
Au 30.6676 17.3665 16.898
Au 28.8207 12.8093 22.6924
Pd 29.8006 15.043 21.2465
Pd 30.695 17.3544 19.7969
Pd 29.665 15.1023 24.0976
Pd 30.6457 17.3755 22.6401
Au 30.5197 17.4041 25.4887
Au 11.6725 10.4233 18.3212
Au 10.7302 12.7085 16.8603
Au 9.85298 15.0117 15.4117
Au 9.03771 17.3573 13.9787
Au 11.6662 10.4375 21.264
Au 10.6065 12.6834 19.7877
Au 9.67095 14.9966 18.3396
Au 8.81709 17.3302 16.889
Au 10.724 12.7441 22.6874
Pd 9.69223 15.0125 21.2253
Pd 8.79763 17.3539 19.773
Au 9.82837 15.1037 24.0996
Au 8.83046 17.3717 22.6371
Pd 9.01958 17.4474 25.4861
Au 18.313 27.9183 29.0311
Au 16.8459 28.854 26.7449
Au 15.4133 29.7219 24.4277
Au 13.9793 30.5402 22.0939
Au 21.2247 27.9046 29.0274
Au 19.7669 28.9575 26.7645
Pd 18.3032 29.8472 24.4618
Au 16.87 30.7203 22.1345
Au 22.6838 28.8383 26.724
Au 21.198 29.8678 24.4544
Au 19.7623 30.7614 22.1332
Pd 24.0828 29.6754 24.3888
Au 22.6607 30.6993 22.1067
Pd 25.4885 30.489 22.0416
Au 18.2644 11.7184 29.0763
Pd 16.8693 10.8038 26.8059
Au 15.4417 9.86128 24.5178
Au 14.0337 9.00517 22.174
Au 21.1974 11.6809 29.1103
Au 19.7233 10.6439 26.8618
Pd 18.306 9.71801 24.5665
Au 16.9053 8.81127 22.2119
Au 22.6542 10.7616 26.8276
Au 21.2092 9.69665 24.5583
Au 19.7612 8.78338 22.2099
Au 24.0998 9.87162 24.5143
Au 22.6603 8.82894 22.2072
Au 25.5374 9.02288 22.1589
Au 18.3056 27.8121 10.4121
Pd 16.8736 28.7349 12.6746
Au 15.4255 29.6636 14.9626
Au 13.9871 30.5292 17.3301
Pd 21.2156 27.7835 10.4186
Au 19.7866 28.8747 12.6447
Au 18.3325 29.8373 14.9269
Au 16.8786 30.7171 17.283
Pd 22.6617 28.732 12.703
Pd 21.2406 29.7956 14.9643
Au 19.7931 30.7434 17.2798
Au 24.1083 29.6476 14.988
Au 22.6518 30.6829 17.307
Au 25.5141 30.5105 17.3469
Au 18.3433 11.6656 10.501
Au 16.8885 10.7197 12.7755
Au 15.4556 9.8083 15.0834
Au 14.0592 8.98525 17.4315
Au 21.2612 11.6739 10.5059
Au 19.7906 10.6098 12.7491
Au 18.342 9.64677 15.0698
Pd 16.9186 8.83835 17.419
Au 22.6982 10.75 12.7917
Au 21.2372 9.66971 15.0727
Pd 19.7733 8.80606 17.4188
Au 24.1196 9.8528 15.093
Au 22.6474 8.84347 17.4028
Pd 25.5198 9.04238 17.4445
Au 28.2748 15.8919 26.5023
Au 28.2689 23.6824 26.5283
Pd 27.4384 13.5986 25.0939
Au 27.4162 26.0101 25.0813
Au 26.5401 11.2784 23.6949
Au 26.4906 28.3276 23.6032
Pd 25.9931 14.4771 27.4396
Pd 25.9477 25.0873 27.4144
Au 25.1174 12.1337 26.0222
Au 25.0804 27.4542 25.9647
Au 23.6494 13.0514 28.3272
Au 23.6416 26.5323 28.2701
Pd 28.2615 15.8591 13.0493
Au 28.2999 23.6261 12.9814
Au 27.4163 13.5224 14.4569
Au 27.4101 25.9843 14.4183
Au 26.5148 11.2387 15.9127
Pd 26.4852 28.2629 15.8647
Au 25.9448 14.4203 12.1392
Au 25.9796 25.0615 12.0563
Pd 25.0591 12.1204 13.5954
Pd 25.0664 27.3969 13.5251
Pd 23.6197 13.0365 11.3069
Au 23.634 26.4752 11.2027
Au 11.2135 15.9145 26.5095
Au 11.2179 23.6418 26.4752
Au 12.0756 13.5388 25.1218
Pd 12.0705 25.9824 25.0538
Pd 13.0247 11.24 23.6698
Au 12.978 28.2915 23.5947
Au 13.5378 14.4513 27.4657
Au 13.5028 25.1196 27.4023
Au 14.4439 12.108 26.0235
Au 14.4004 27.4534 25.9591
Pd 15.9045 13.0832 28.306
Au 15.8594 26.5645 28.2763
Pd 11.2734 15.8654 13.0247
Au 11.2449 23.5704 12.9658
Au 12.1253 13.5033 14.4194
Au 12.0558 25.9502 14.3472
Au 13.0423 11.2074 15.8894
Au 12.9728 28.2966 15.7961
Au 13.5764 14.3919 12.1059
Au 13.5508 25.0528 12.0333
Pd 14.4761 12.0793 13.5785
Au 14.4339 27.4116 13.4466
Au 15.9331 12.9969 11.2797
Pd 15.9176 26.449 11.1826
Pd 33.4426 19.6644 11.3071
Au 33.634 19.6864 14.0357
Pd 33.6546 19.7013 16.8586
Au 33.746 19.7075 19.7443
Au 33.7489 19.7291 22.6301
Au 33.6854 19.7628 25.5011
Au 33.4792 19.777 28.2248
Au 6.0937 19.6974 11.2274
Au 5.88965 19.7003 13.9733
Pd 5.87559 19.7125 16.8621
Au 5.81964 19.7512 19.7488
Au 5.83491 19.7645 22.6286
Au 5.87629 19.7729 25.4663
Au 6.05173 19.7905 28.1725
Au 11.2425 33.4921 19.6946
Au 13.9771 33.7019 19.6943
Au 16.871 33.7679 19.6862
Au 19.7965 33.774 19.7039
Pd 22.7017 33.6797 19.721
Au 25.519 33.6264 19.7197
Au 28.225 33.4514 19.7206
Au 11.3388 6.04301 19.7925
Au 14.042 5.85426 19.7908
Au 16.9109 5.78429 19.7813
Au 19.7779 5.77818 19.7824
Pd 22.6665 5.84479 19.7891
Au 25.5307 5.86665 19.7935
Au 28.2625 6.07383 19.7851
Au 19.7136 11.3542 33.5085
Au 19.7189 14.0782 33.6887
Au 19.7397 16.9289 33.7507
Au 19.7627 19.8184 33.7606
Au 19.7825 22.7144 33.7331
Au 19.7884 25.5749 33.6419
Au 19.7931 28.2759 33.4266
Au 19.8023 11.2728 6.12504
Au 19.7966 13.9891 5.92685
Pd 19.7922 16.8254 5.91681
Pd 19.7781 19.6625 5.87384
Au 19.7666 22.5232 5.80572
Au 19.7736 25.3885 5.82514
Au 19.7735 28.1274 5.98683
Pd 31.3418 18.3807 29.1941
Au 29.1014 16.9254 30.1781
Au 26.7631 15.4664 31.1116
Au 24.3849 14.0415 31.9773
Pd 22.007 12.6561 32.7741
Pd 31.3344 21.214 29.175
Au 29.1585 19.8109 30.2879
Au 26.8575 18.345 31.2721
Au 24.4737 16.8872 32.1651
Pd 22.07 15.4716 32.9359
Pd 29.0213 22.6877 30.1105
Au 26.8153 21.309 31.245
Au 24.5011 19.8642 32.1876
Au 22.119 18.3788 33.0467
Au 26.716 24.1476 31.0515
Au 24.4637 22.7499 32.0948
Pd 22.1192 21.303 32.9841
Au 24.4103 25.5597 31.9075
Pd 22.1196 24.1601 32.8885
Au 22.0752 26.9786 32.7393
Au 31.3233 18.2507 10.3107
Pd 29.01 16.8181 9.43442
Au 26.7182 15.389 8.5341
Au 24.4172 13.9704 7.66559
Au 22.101 12.5775 6.83257
Au 31.3481 21.0966 10.2837
Pd 29.1237 19.673 9.29958
Au 26.8266 18.2109 8.32896
Pd 24.4863 16.7703 7.49338
Au 22.1537 15.3816 6.61679
Pd 29.0588 22.5438 9.37199
Pd 26.8165 21.1381 8.33735
Pd 24.4824 19.6722 7.42338
Au 22.1288 18.2548 6.55075
Au 26.7472 23.9868 8.40778
Au 24.4825 22.5657 7.38112
Pd 22.116 21.1291 6.5613
Au 24.4037 25.4202 7.52594
Au 22.1317 23.9839 6.54188
Pd 22.0517 26.8023 6.7363
Pd 8.17627 18.396 29.1639
Au 10.4282 16.9388 30.1606
Au 12.799 15.4826 31.0731
Pd 15.1136 14.0711 31.9159
Au 17.4122 12.6577 32.7933
Au 8.14932 21.2001 29.1774
Au 10.3633 19.7987 30.2619
Au 12.6676 18.3483 31.2393
Pd 15.0428 16.8876 32.0751
Au 17.3566 15.48 32.9659
Pd 10.4359 22.63 30.086
Au 12.6515 21.2537 31.2101
Au 14.9733 19.8069 32.1812
Au 17.3601 18.33 33.0425
Pd 12.7517 24.0856 31.0116
Au 14.9839 22.7081 32.1294
Au 17.3867 21.2565 33.0691
Au 15.0984 25.5612 31.9356
Au 17.4037 24.1668 32.9876
Au 17.4877 27.0007 32.7691
Au 8.23484 18.266 10.2575
Au 10.5182 16.8428 9.35966
Pd 12.8537 15.407 8.50702
Au 15.184 13.9729 7.62196
Au 17.5081 12.5763 6.8119
Au 8.2284 21.1077 10.2446
Au 10.4352 19.6927 9.21873
Au 12.7589 18.2354 8.28968
Pd 15.1024 16.8021 7.47188
Au 17.4361 15.3829 6.60605
Pd 10.4976 22.5104 9.35943
Pd 12.7465 21.1398 8.31174
Pd 15.0621 19.6799 7.4196
Pd 17.4461 18.2352 6.57101
Au 12.7836 23.9717 8.4046
Pd 15.0629 22.5624 7.42209
Au 17.4045 21.0998 6.49827
Au 15.1216 25.4068 7.50746
Pd 17.434 23.9966 6.57281
Au 17.4663 26.8266 6.67055
Au 29.2277 31.3529 18.3048
Au 30.1688 29.0715 16.8619
Au 31.0748 26.7543 15.4226
Au 31.9609 24.3785 13.9808
Au 32.7944 21.9933 12.5805
Au 29.2198 31.3743 21.1464
Pd 30.2278 29.1438 19.7327
Pd 31.1891 26.835 18.2707
Au 32.1533 24.4811 16.8382
Au 32.995 22.0512 15.4074
Au 30.1535 29.1049 22.6073
Au 31.2309 26.8629 21.1894
Au 32.1849 24.5128 19.7622
Au 33.0681 22.0737 18.3066
Pd 31.0496 26.7713 24.0379
Au 32.1398 24.5276 22.6504
Pd 33.0238 22.0883 21.2055
Au 31.9578 24.4539 25.4974
Au 32.9999 22.1391 24.0891
Au 32.802 22.0939 26.9312
Au 10.2375 31.3767 18.2727
Au 9.30004 29.0665 16.8172
Au 8.4104 26.6861 15.3533
Au 7.57425 24.3374 13.9353
Au 6.76482 22.0024 12.5308
Pd 10.2932 31.3374 21.1177
Au 9.1817 29.159 19.7182
Au 8.22155 26.8244 18.2371
Au 7.35315 24.4455 16.7752
Pd 6.59952 22.049 15.3519
Pd 9.36225 29.0363 22.578
Au 8.22686 26.8265 21.2007
Pd 7.34127 24.4562 19.7241
Au 6.47347 22.0746 18.2809
Au 8.42342 26.7151 24.043
Au 7.35217 24.4502 22.6591
Pd 6.51344 22.0783 21.2013
Au 7.56794 24.3736 25.4673
Pd 6.59314 22.0832 24.0873
Au 6.74545 22.0634 26.875
Au 29.2567 8.20117 18.3795
Au 30.1845 10.4434 16.9543
Au 31.1022 12.757 15.4925
Au 31.9572 15.0927 14.0294
Au 32.7579 17.3859 12.6247
Pd 29.216 8.22512 21.2008
Pd 30.2436 10.4321 19.7872
Pd 31.2036 12.6956 18.3537
Au 32.1452 15.0314 16.8921
Pd 32.8951 17.3861 15.4254
Au 30.1899 10.5011 22.6389
Au 31.231 12.7268 21.2271
Au 32.1706 15.0269 19.8206
Pd 32.9719 17.3801 18.3353
Au 31.1049 12.8303 24.0794
Pd 32.073 15.0721 22.6832
Au 33.016 17.3628 21.2296
Au 31.9517 15.1396 25.4992
Pd 32.917 17.4131 24.0917
Au 32.7853 17.4737 26.9189
Au 10.3305 8.11987 18.3685
Pd 9.41048 10.4094 16.911
Au 8.47156 12.7187 15.4261
Pd 7.62477 15.0822 13.9819
Au 6.77781 17.3917 12.549
Au 10.3211 8.13246 21.2022
Au 9.23641 10.3315 19.7693
Pd 8.32437 12.6477 18.2905
Au 7.38334 14.9677 16.8343
Au 6.55528 17.35 15.3915
Au 9.35145 10.4382 22.6497
Au 8.26954 12.6735 21.2273
Au 7.33461 15.0028 19.7696
Au 6.48108 17.3785 18.3217
Pd 8.46679 12.8081 24.0776
Au 7.37134 15.0318 22.6655
Au 6.47497 17.4051 21.197
Au 7.5643 15.1623 25.5104
Au 6.5481 17.4248 24.0915
Au 6.74653 17.4983 26.8984
Pd 18.377 29.2381 31.3102
Au 16.9057 30.2204 29.0542
Au 15.4272 31.1323 26.7228
Au 13.9762 31.9907 24.3725
Au 12.5461 32.8104 22.0146
Pd 21.1873 29.2308 31.2988
Au 19.7778 30.3317 29.1173
Pd 18.296 31.2428 26.7935
Au 16.8407 32.1714 24.4815
Au 15.3909 33.0189 22.0814
Pd 22.642 30.1695 29.0157
Au 21.2412 31.2868 26.8061
Au 19.7461 32.212 24.4871
Au 18.3067 33.0921 22.0838
Au 24.1118 31.0894 26.6782
Au 22.712 32.1534 24.4503
Au 21.2434 33.0719 22.0857
Pd 25.5054 31.8972 24.3026
Au 24.1378 32.9593 22.0627
Pd 26.9032 32.7152 21.9843
Pd 18.314 10.3843 31.3621
Pd 16.8947 9.44566 29.0795
Pd 15.465 8.54039 26.7981
Au 14.0246 7.5865 24.4638
Pd 12.6332 6.77179 22.0735
Au 21.1472 10.3256 31.4177
Au 19.725 9.26083 29.2007
Au 18.27 8.32212 26.9018
Au 16.857 7.39506 24.5773
Au 15.4358 6.52072 22.1606
Au 22.6144 9.37986 29.1292
Pd 21.1997 8.3489 26.8957
Au 19.7562 7.35279 24.5689
Au 18.3379 6.45336 22.1542
Pd 24.0532 8.50252 26.7802
Au 22.6773 7.39566 24.551
Pd 21.2258 6.50876 22.1355
Pd 25.5128 7.62237 24.4244
Au 24.1218 6.54281 22.1579
Au 26.953 6.75416 22.0966
Au 18.3412 29.1552 8.08587
Au 16.8806 30.0992 10.3615
Au 15.437 31.0121 12.6562
Pd 13.9937 31.901 15.0391
Au 12.5507 32.7951 17.3801
Au 21.1972 29.141 8.10518
Au 19.7813 30.2304 10.2886
Au 18.2874 31.2061 12.564
Au 16.8295 32.1372 14.9096
Au 15.3886 33.0012 17.3115
Au 22.6435 30.0733 10.3901
Au 21.2566 31.1945 12.6047
Au 19.7966 32.1755 14.9174
Au 18.3228 33.0752 17.3112
Au 24.1013 31.0104 12.685
Au 22.6963 32.1165 14.9454
Au 21.2476 33.0659 17.3349
Au 25.544 31.9169 15.0383
Au 24.1279 32.9714 17.3602
Au 26.945 32.772 17.4167
Au 18.3814 10.2902 8.21578
Pd 16.9489 9.39168 10.494
Au 15.4784 8.4287 12.7846
Au 14.0323 7.54111 15.1508
Pd 12.6494 6.75941 17.5229
Au 21.2262 10.2905 8.22361
Pd 19.7948 9.28641 10.4173
Au 18.3281 8.26315 12.7023
Au 16.8711 7.34403 15.0892
Pd 15.4606 6.57875 17.4584
Pd 22.6565 9.40092 10.5084
Au 21.2652 8.27763 12.7086
Au 19.7972 7.30568 15.0904
Au 18.3408 6.48763 17.4433
Au 24.1131 8.46577 12.7954
Au 22.7164 7.36538 15.0813
Pd 21.2269 6.52713 17.4574
Au 25.5529 7.59426 15.1603
Pd 24.1388 6.61094 17.4528
Au 26.9471 6.76341 17.49
Pd 30.5895 15.9963 27.8849
Au 30.6069 23.6391 27.9239
Au 29.7918 13.609 26.4931
Pd 29.7464 25.9675 26.4607
Au 28.9109 11.2752 25.0827
Au 28.8536 28.3294 25.0402
Au 27.9552 8.94309 23.6174
Au 27.9053 30.6332 23.5458
Au 28.3316 14.4977 28.8792
Au 28.2698 25.118 28.8554
Au 27.4682 12.142 27.4448
Pd 27.3926 27.4231 27.4018
Au 26.5115 9.77059 26.0024
Pd 26.4691 29.7719 25.8921
Au 25.9832 13.0532 29.7929
Pd 25.9226 26.4984 29.7169
Au 25.0553 10.6659 28.3439
Au 25.0737 28.9006 28.2715
Au 23.5722 11.6297 30.6614
Au 23.5997 27.9657 30.579
Au 30.5858 15.8823 11.6323
Au 30.6276 23.5266 11.5562
Au 29.7651 13.5395 13.0397
Au 29.7646 25.9596 12.9954
Au 28.8936 11.2081 14.5041
Pd 28.8434 28.2651 14.4799
Au 27.9446 8.92473 15.9907
Au 27.9384 30.5767 15.8854
Au 28.2603 14.4278 10.7052
Au 28.3081 25.0044 10.5934
Pd 27.3809 12.1056 12.1469
Pd 27.408 27.3819 12.0807
Au 26.5049 9.78864 13.578
Au 26.5259 29.7018 13.5187
Pd 25.9111 13.0336 9.84575
Au 25.9672 26.4495 9.69988
Pd 25.0315 10.7156 11.3001
Au 25.0685 28.8145 11.1849
Au 23.6164 11.6057 8.99842
Au 23.5834 27.8546 8.86458
Au 8.8851 15.9804 27.9122
Au 8.88493 23.5893 27.8704
Au 9.72225 13.583 26.516
Au 9.72397 25.96 26.4527
Au 10.6449 11.2037 25.0747
Au 10.6194 28.306 25.0154
Au 11.6101 8.90439 23.6282
Au 11.5578 30.6157 23.54
Au 11.2037 14.4958 28.901
Au 11.1824 25.0695 28.8396
Au 12.0929 12.0805 27.4819
Au 12.0444 27.4693 27.3907
Au 13.0329 9.76652 26.0079
Pd 13.0162 29.782 25.8843
Au 13.5887 13.0569 29.7979
Au 13.5282 26.5451 29.7548
Pd 14.5176 10.7327 28.3262
Au 14.4469 28.9408 28.2738
Au 15.9166 11.6519 30.613
Au 15.9385 27.9963 30.6028
Au 8.98051 15.885 11.5781
Pd 8.96162 23.458 11.5703
Au 9.7961 13.5257 13.0014
Au 9.72946 25.8704 12.9285
Pd 10.6991 11.2026 14.5011
Au 10.595 28.2754 14.3705
Au 11.6312 8.87657 15.958
Au 11.5516 30.6182 15.8511
Pd 11.2863 14.4589 10.6872
Pd 11.2546 24.9304 10.6083
Au 12.1353 12.0409 12.092
Au 12.0818 27.3884 11.9781
Au 13.0558 9.73449 13.5651
Au 13.0102 29.7495 13.4456
Au 13.6234 12.9767 9.77262
Au 13.581 26.4302 9.67748
Pd 14.5406 10.6615 11.2723
Pd 14.5121 28.7876 11.1383
Pd 16.0252 11.6149 8.98271
Au 15.9343 27.846 8.84458
