923
Atoms. Timestep: 20575
Au 19.7921 23.7986 33.5345
Au 20.457 9.40334 14.7914
Au 8.84715 11.4015 15.2746
Au 21.7242 21.7516 29.5062
Au 22.692 12.7436 11.3672
Au 23.125 25.4083 6.61578
Au 15.9615 25.687 31.3325
Au 19.1799 17.247 35.0595
Au 28.4871 12.4458 30.6623
Au 30.0958 28.6142 16.3043
Au 17.5659 19.3393 34.5982
Au 10.7505 23.6505 15.9043
Au 16.8561 32.5062 14.4172
Pd 16.6606 7.85313 24.2242
Au 14.2225 23.3031 23.7631
Au 23.0736 17.0121 26.8804
Pd 11.7656 21.7329 12.0516
Au 18.6656 15.673 23.8027
Au 17.4214 31.9382 21.627
Pd 14.522 22.211 26.2306
Au 8.88179 10.3371 21.8879
Au 31.0265 14.8142 27.8091
Pd 19.8688 19.5791 25.888
Au 25.2879 24.8441 21.1842
Au 17.4198 22.6849 19.6072
Au 18.6613 27.6881 20.02
Au 9.81665 16.4856 27.6042
Au 31.8433 21.5556 14.3133
Au 27.7145 25.7198 9.95236
Au 21.8911 17.5129 35.1637
Au 9.45219 11.9907 24.0298
Au 27.7719 29.9882 16.4168
Au 11.4823 24.8102 12.1765
Au 22.0138 31.0953 19.9481
Au 14.0494 32.1991 14.7862
Au 18.2207 30.3231 9.41166
Au 13.5 11.9215 11.7305
Pd 15.2492 27.9667 26.4053
Au 22.5518 20.8201 14.4052
Pd 22.7861 33.3938 24.361
Au 25.3766 28.5135 30.3651
Au 14.5166 22.7198 11.8404
Au 18.9777 14.0185 21.5495
Au 12.9529 9.00295 16.4262
Au 22.8291 23.8738 20.6247
Au 14.1535 7.88474 25.4646
Au 17.5763 6.30428 22.0956
Au 10.8758 14.8095 20.5983
Au 13.985 22.5247 19.2008
Au 27.9996 18.0884 26.9616
Au 11.1446 23.742 19.1201
Au 17.6293 20.9845 6.49543
Au 20.6384 14.4832 12.3368
Au 23.447 28.3719 24.4416
Au 29.5772 25.1162 23.1402
Au 28.0986 13.9155 9.24573
Au 16.4052 23.3791 7.39703
Au 27.6554 19.7744 31.7157
Au 25.304 15.5216 27.8072
Au 16.2635 13.5857 33.3509
Au 6.49744 25.8995 20.3717
Au 14.1664 15.2521 24.9735
Pd 16.9182 9.64367 11.832
Au 30.3486 16.9508 26.0344
Au 16.008 14.3702 30.7482
Pd 19.5554 11.4678 22.7251
Au 13.6526 28.1791 20.7552
Au 11.7174 21.1418 20.1108
Au 6.18727 22.5136 16.2414
Au 24.3485 30.6271 29.1538
Au 22.3598 18.0776 16.5623
Pd 19.0584 20.7022 28.2205
Pd 26.8172 14.9369 15.6479
Pd 24.0938 12.5592 20.2053
Au 14.5794 31.7085 12.1852
Pd 9.84113 30.0138 16.5961
Pd 16.5647 21.8847 22.178
Pd 19.2478 6.82338 24.3064
Au 21.6655 20.211 11.6983
Pd 13.9566 20.7589 13.4525
Au 7.57181 13.8614 23.5744
Pd 11.5864 10.125 23.4371
Pd 16.6022 24.6137 23.4033
Au 17.8266 16.9641 17.7536
Au 18.6502 8.08931 13.087
Au 11.6671 8.4055 18.8714
Au 11.1252 26.5154 19.8242
Au 29.1813 21.9219 27.9597
Au 28.1057 20.5437 25.8613
Au 11.3993 17.1761 29.7327
Au 12.3427 29.6501 22.9685
Au 21.3023 15.9186 10.2424
Pd 8.2748 15.4151 21.4654
Au 15.9125 20.4084 19.7252
Au 15.4503 17.2835 7.63019
Pd 13.6027 33.0586 20.2417
Au 15.2621 8.29676 27.857
Au 18.8494 22.6354 8.25858
Au 11.4195 17.4785 15.6969
Au 6.88605 26.7272 17.6945
Au 19.5778 28.2656 25.2469
Pd 19.001 11.7858 7.59879
Au 21.0054 29.0062 23.0283
Pd 15.0021 11.0294 27.9186
Au 10.6146 26.167 17.0993
Au 27.4067 16.996 29.6131
Au 13.27 7.32429 20.9203
Au 23.0356 13.4795 13.9536
Au 22.7957 22.7779 5.89947
Au 27.5077 11.6056 24.2932
Pd 24.3619 20.0421 12.553
Au 10.8933 26.2652 26.4626
Au 17.5142 27.8496 30.2578
Au 17.4926 15.3619 7.24372
Au 26.6573 14.6551 18.212
Au 19.3369 23.1105 11.2784
Pd 16.6419 16.1826 28.6954
Au 23.1357 17.0171 23.9772
Au 9.39202 26.3473 24.047
Au 29.0812 12.6631 28.0584
Au 6.43606 13.3298 19.3561
Au 5.86375 20.4353 21.3428
Au 6.26897 24.1746 18.3405
Au 7.10477 23.5572 13.8608
Au 24.6523 15.6452 14.239
Au 8.4028 17.4369 17.3152
Au 11.4564 14.5078 28.7166
Au 13.3417 20.794 32.1977
Au 30.494 25.9581 16.4717
Pd 21.0297 16.2888 22.4005
Au 20.7557 24.9348 9.78626
Au 23.993 32.2327 21.5593
Au 22.1346 31.1567 10.4646
Pd 19.8918 21.0921 13.5398
Au 32.9542 17.0456 21.3586
Au 13.3121 15.402 30.6277
Au 20.6234 14.9971 35.5575
Au 20.1487 18.4178 18.1589
Au 25.1218 20.4336 15.2984
Au 18.6393 8.77569 22.6846
Au 28.6627 10.2287 17.8797
Au 19.3848 22.7762 17.572
Pd 26.8317 9.12334 11.3955
Pd 11.8103 17.1437 11.1448
Au 19.2635 7.95252 10.3622
Pd 26.7475 22.7449 27.0342
Au 23.3593 24.7673 14.1006
Au 23.9081 8.16821 11.7714
Pd 18.2655 20.3599 18.1085
Au 24.182 19.3049 9.9744
Au 11.5347 24.5261 28.8022
Au 15.3075 25.136 25.8408
Pd 23.6263 21.4217 19.6535
Au 10.3157 9.9464 17.1255
Au 8.37915 18.385 25.8883
Au 17.1648 23.8764 29.7192
Au 19.3603 14.4379 26.2329
Au 12.2719 21.8891 27.6544
Au 32.6507 14.7403 22.7864
Au 26.4973 20.7595 29.0041
Au 17.5105 6.46501 17.8834
Au 11.5455 21.0827 14.8033
Au 15.2359 19.5928 30.9888
Au 22.5014 30.6866 17.2066
Au 21.2027 23.1292 15.2491
Au 18.6995 7.63297 20.006
Au 25.0456 24.4073 32.4488
Au 10.0354 13.2698 26.5137
Pd 17.5641 28.7415 11.776
Au 25.7868 17.0047 19.5641
Au 31.5047 16.2547 15.1754
Au 12.5087 25.8887 8.11566
Au 12.9074 28.9736 27.3232
Pd 28.5511 13.4018 14.5807
Au 8.74541 27.1208 21.3239
Au 20.0456 33.8924 23.3244
Pd 15.3159 10.8181 19.9485
Au 20.3965 35.5006 20.3473
Au 20.8994 24.9199 31.219
Pd 28.5122 29.7885 23.5329
Au 19.8099 9.87608 18.4613
Au 8.24065 24.8064 16.1756
Au 9.75516 19.4803 16.1502
Pd 16.4662 19.278 28.5802
Au 26.3342 8.7763 25.2813
Pd 12.7963 30.7235 19.1504
Au 27.5808 19.2282 18.7057
Pd 13.6682 19.9646 18.2586
Au 19.6867 16.2058 5.85686
Au 25.8583 25.1646 13.1358
Au 23.0968 20.9971 7.89234
Pd 29.5167 19.3117 14.1169
Pd 15.4038 12.9525 18.3864
Pd 26.9279 14.1049 29.4009
Pd 21.7403 30.5167 25.2537
Au 25.2891 25.3126 8.37166
Au 18.2735 20.3111 23.782
Pd 13.5497 17.9332 24.7227
Pd 27.8366 25.6388 26.3547
Au 13.0606 24.0915 17.1489
Au 25.862 14.4834 20.8892
Au 16.8267 16.7398 33.726
Au 15.3078 33.4838 22.3685
Au 27.691 26.9727 12.3736
Au 21.4414 18.7613 9.33687
Pd 22.2499 11.6311 22.0444
Au 19.7481 32.2478 10.995
Au 20.4737 11.9218 25.3954
Au 24.895 9.1622 9.53865
Au 23.8382 7.80438 25.8093
Au 12.3358 19.8459 23.2874
Au 21.7407 14.2257 20.5923
Au 24.571 34.664 20.3216
Pd 26.7752 28.7383 18.6557
Pd 25.2695 23.6857 6.22096
Au 23.5686 27.3019 12.8857
Au 18.6092 17.9938 29.3425
Au 28.4849 13.989 19.9789
Au 13.6141 10.7317 14.4434
Au 28.3611 24.4441 17.345
Au 7.35752 26.2492 13.8406
Au 30.2698 26.457 25.4501
Au 20.6596 16.9943 25.3183
Au 9.40624 13.7542 16.33
Au 20.9935 20.7813 19.0525
Pd 27.3705 17.1249 17.0672
Au 10.5979 15.5589 9.40116
Au 20.4631 32.5257 17.875
Au 19.9724 14.1962 18.0453
Au 23.0891 8.2274 21.4863
Au 26.7174 13.3074 26.5913
Au 27.0403 12.4633 7.19549
Au 15.302 26.0095 7.7381
Au 23.4479 19.1129 21.9823
Au 24.1714 31.0745 24.0797
Au 19.493 26.827 22.5067
Au 29.9172 26.9449 14.0504
Pd 14.3167 8.60269 18.8401
Au 19.9747 28.5543 28.766
Au 27.1124 18.7078 9.95663
Au 20.3324 27.6855 31.2607
Au 8.62376 22.5937 20.561
Au 24.8833 27.6556 17.0238
Au 25.6816 8.50611 13.7227
Au 28.7321 18.9703 7.70044
Au 12.8471 19.674 10.7972
Au 18.0337 12.0524 26.8975
Au 29.1821 17.459 31.406
Pd 28.6134 16.7158 19.4571
Au 14.9875 28.4917 23.4481
Au 26.1766 11.4869 29.1028
Pd 27.0113 15.3526 12.8886
Au 25.7997 13.0193 13.8288
Pd 24.9651 11.9319 22.778
Au 32.1828 17.3242 24.0054
Au 24.6519 17.4493 34.7471
Pd 25.4862 27.5732 20.868
Au 16.7815 10.7775 23.2188
Au 20.284 25.9619 26.944
Au 17.0546 10.9779 32.3386
Au 26.8345 22.6126 15.5875
Au 26.5639 22.1495 32.4862
Au 20.8765 17.2426 30.6205
Au 18.1078 26.1907 7.25265
Pd 15.5059 31.3401 19.0884
Au 28.0267 21.2193 8.79831
Au 14.1063 13.7042 9.70238
Au 10.6849 10.8232 19.8117
Au 20.5476 18.6604 6.57931
Au 32.0847 18.8538 14.5899
Au 27.7322 21.2227 20.5604
Au 23.6137 14.391 22.6356
Au 14.0004 21.4452 21.7705
Au 13.9419 32.7316 17.4692
Pd 26.5817 9.54812 22.7751
Au 25.54 18.2324 28.0224
Pd 11.954 14.1726 11.2668
Au 20.1823 19.8164 35.3566
Au 9.26039 15.9887 14.9071
Au 31.3781 19.8834 12.1261
Au 14.471 15.6057 33.0086
Au 16.2116 26.7352 10.4228
Pd 30.076 15.703 23.709
Pd 21.7347 21.5482 26.885
Au 25.3961 24.9517 27.6629
Pd 19.0493 25.8459 29.3832
Au 17.4726 32.1555 26.3628
Pd 18.3975 14.1154 28.8559
Au 11.1517 28.6446 25.2194
Au 14.6435 12.1183 31.7836
Au 31.4603 12.4794 26.6833
Au 12.4138 22.5551 30.3646
Au 15.7423 30.6284 16.2713
Pd 20.5405 29.2925 15.6281
Au 27.0137 26.9174 28.6818
Pd 16.5543 17.1282 15.1028
Au 16.2093 9.92297 25.8219
Pd 16.8232 22.1007 27.725
Pd 31.5904 24.1983 24.6759
Au 28.7087 16.4752 8.55106
Au 8.41324 19.8567 21.3779
Au 30.3495 13.0944 10.6889
Pd 18.935 26.1645 14.9535
Au 15.6292 30.0029 10.3025
Pd 30.1045 17.2319 28.7653
Pd 23.7984 18.2103 14.4225
Au 21.6658 11.9971 7.44154
Au 17.1867 7.36679 29.3624
Au 17.7769 18.202 6.63182
Au 28.4194 18.1185 24.0794
Pd 30.6316 19.6868 24.1976
Au 15.7786 6.48588 19.888
Au 15.7071 20.0609 11.3803
Au 28.4002 15.3932 27.5474
Au 18.2372 10.8232 13.8895
Au 25.0896 34.1982 22.888
Au 33.0953 14.7013 19.9947
Pd 18.9714 33.8633 16.0088
Pd 16.9473 9.04702 18.6267
Pd 21.7254 16.4057 7.67449
Pd 23.1154 20.6417 17.1659
Au 30.8608 21.8516 25.8163
Au 6.42617 12.1882 21.8993
Au 19.8913 23.4365 28.2571
Au 18.3484 16.0043 31.3346
Pd 23.5543 15.2685 11.7822
Pd 10.8833 18.8653 21.245
Pd 13.7999 21.708 16.145
Au 19.6414 11.784 16.3646
Pd 20.5843 20.5023 16.2957
Au 15.0032 18.6578 33.5176
Au 33.9419 17.0074 18.8931
Au 12.9504 29.8696 10.9745
Au 29.053 10.6249 11.1573
Au 20.8975 31.8989 15.2147
Au 29.1915 11.601 8.71818
Au 23.9813 29.2358 19.1173
Au 25.8487 31.9363 27.5113
Pd 17.9241 29.0521 23.015
Pd 16.0957 20.0002 14.848
Au 23.5268 28.8975 10.6449
Pd 26.1868 21.9935 24.3573
Au 20.484 6.84714 21.8766
Au 16.2959 19.7304 8.56323
Au 26.1938 12.8992 31.8917
Au 25.0808 9.36494 27.6892
Au 31.3103 21.7945 18.9005
Au 23.6398 23.9731 23.3502
Au 29.312 29.6785 18.7192
Au 11.2228 28.3884 15.0396
Au 20.739 24.0895 7.09012
Au 16.5206 29.3721 20.6929
Au 24.9577 10.913 11.96
Au 24.8883 21.0053 5.5274
Pd 22.7145 19.3373 25.686
Au 25.8711 23.9132 10.7033
Pd 26.3442 9.1063 18.3548
Pd 9.11654 20.2153 18.8046
Au 20.5135 14.4381 30.4449
Au 21.9124 29.8039 13.1017
Pd 7.09123 15.2758 16.5013
Pd 15.7429 14.5078 14.3849
Pd 26.0726 23.4417 30.0759
Au 11.6699 24.7802 23.9649
Au 25.8447 27.6209 14.4517
Au 15.9911 26.1151 28.6408
Au 11.4155 11.766 28.5848
Au 12.0596 12.9024 31.0079
Au 16.0603 15.6271 9.62207
Au 10.0496 30.9068 19.0701
Au 21.8572 14.3179 5.99083
Pd 19.1317 22.3044 25.9602
Au 16.2192 19.0969 22.029
Au 11.1756 13.122 18.3347
Au 29.8864 18.3329 10.2519
Pd 13.2855 14.6721 18.2361
Au 8.94305 17.3576 10.4002
Au 19.5239 30.508 26.8475
Pd 23.9848 13.026 27.2006
Au 10.7232 29.5806 12.5605
Pd 14.0053 13.0738 29.3772
Au 13.1557 16.1473 8.94878
Pd 27.6163 22.9798 12.6991
Au 23.9591 8.00227 18.8643
Au 22.9478 9.65621 7.76869
Au 25.2664 15.8207 30.7892
Au 30.1561 19.2483 18.8839
Pd 21.0734 18.804 28.1931
Au 30.5588 22.496 12.1527
Au 27.4886 23.4426 22.4544
Pd 16.0487 30.0166 13.6219
Pd 25.0021 26.4939 23.334
Au 14.1127 12.9505 16.1009
Pd 25.1918 30.4734 16.9323
Au 25.3014 19.7492 33.2855
Au 25.8697 7.67596 20.8216
Pd 15.2415 30.6886 27.2158
Au 8.78082 12.8435 20.9418
Au 21.2461 7.8494 12.2599
Au 22.046 14.6555 25.9151
Au 9.93424 25.8075 14.2043
Au 16.1507 33.8284 19.7805
Au 10.8534 16.0492 17.976
Au 24.9867 7.29779 23.3402
Au 25.4734 13.5236 11.098
Au 17.7143 24.6165 26.9634
Au 20.5709 12.0305 13.3537
Au 21.8702 30.5792 28.1455
Au 25.9572 29.0426 23.2311
Au 13.0238 30.171 16.356
Pd 26.4943 17.8091 14.6634
Au 15.2827 10.4489 16.8752
Au 27.7459 18.5273 21.399
Au 17.9588 9.52116 16.2539
Au 32.0552 14.8151 25.3785
Au 15.029 32.7702 25.368
Au 11.5799 27.0769 22.5396
Pd 9.93674 22.7956 10.3985
Au 27.2017 31.4817 18.6054
Au 29.596 11.5603 19.9637
Au 22.7166 26.5605 21.9263
Au 25.3875 15.0799 33.3822
Au 18.9981 27.4769 9.61365
Au 11.1072 18.2628 8.87402
Au 20.1158 23.0978 20.2335
Au 7.02542 10.6876 19.8226
Pd 18.5745 18.7747 15.7614
Au 15.5602 15.4875 17.1284
Pd 21.3419 28.9306 8.94701
Pd 25.4049 22.4174 8.49881
Au 27.9251 9.50238 20.4618
Au 28.2845 20.7339 23.1592
Pd 13.6345 19.0734 15.6011
Au 15.7766 17.0026 31.182
Pd 10.9758 23.6247 7.93866
Au 23.6039 31.8324 14.7958
Au 16.6708 26.7633 13.6207
Au 15.7515 11.7676 13.3086
Pd 19.2737 27.4987 17.3025
Pd 15.0406 25.1593 15.4687
Pd 23.0033 23.7406 8.63949
Pd 19.0541 24.9864 24.6197
Au 9.43043 20.2799 13.4071
Au 30.5614 14.5505 13.1963
Au 23.8749 9.67549 23.6721
Au 19.7214 7.82974 28.708
Au 13.5666 25.4698 19.7527
Au 25.4475 17.7858 25.3377
Au 22.9893 26.6367 31.8869
Au 14.3764 9.2442 23.1432
Au 10.7529 8.43942 21.4248
Au 18.9214 22.8078 22.9755
Pd 24.1855 29.8646 26.568
Pd 30.9643 13.6727 18.7486
Au 23.655 22.0437 10.6598
Au 16.6002 26.8799 21.9472
Pd 12.2422 27.4131 12.6681
Au 11.8001 22.1801 24.8021
Au 21.1621 19.0235 23.4663
Au 18.0298 34.6145 21.543
Au 21.0735 21.8367 9.52336
Au 9.48679 15.1049 11.8992
Au 24.7746 18.1302 5.11877
Pd 23.0115 26.59 9.09863
Au 9.043 17.4943 22.9266
Au 9.24957 21.1066 26.343
Au 22.521 19.9042 5.26538
Au 14.9763 20.3119 24.2113
Pd 22.8988 33.3655 16.8423
Au 17.1452 26.9471 24.6975
Pd 11.6269 19.8446 25.9771
Au 8.50428 24.7209 11.7785
Pd 24.4861 32.1516 18.8988
Au 21.9377 28.1538 26.8117
Au 7.56459 24.7354 22.5354
Au 20.0505 29.6321 11.1593
Au 20.4786 32.8336 25.7988
Pd 29.1993 15.6272 11.1483
Au 10.7235 17.5647 25.0162
Au 15.4873 7.69107 16.6159
Au 28.0868 17.8582 12.3542
Au 14.9276 21.1588 6.73154
Au 21.073 12.8931 27.9683
Au 15.637 11.4374 10.2876
Au 25.4585 33.0837 25.2401
Au 17.4599 14.6119 19.1262
Pd 8.77521 11.9783 18.3056
Au 11.6757 15.2321 25.9023
Au 22.3959 6.69799 16.7965
Pd 17.6292 9.80142 28.2574
Au 18.8558 23.7123 13.8591
Au 17.41 18.0251 10.3728
Au 21.916 16.1842 14.0558
Pd 16.7615 16.3042 12.4178
Pd 20.9515 25.2525 12.9727
Au 21.3902 27.2304 11.185
Au 24.9109 25.9071 30.1718
Au 25.2031 11.1869 25.6244
Au 10.0658 24.7043 21.6932
Au 22.6857 19.8162 33.9831
Au 26.2484 21.2029 10.9122
Au 16.6427 12.764 21.1494
Au 15.408 17.4125 26.6351
Au 14.9856 14.9061 20.397
Au 21.8961 22.81 12.5406
Au 27.7769 15.0845 31.9291
Pd 15.4732 17.4207 19.5118
Au 7.89894 21.83 11.8226
Au 11.5817 11.8807 15.7767
Pd 18.1236 12.1862 11.4191
Au 20.8895 35.1548 17.4926
Au 5.76924 14.828 21.6373
Pd 30.3016 20.4762 21.2456
Au 12.1146 12.8373 24.4459
Au 22.367 34.5047 21.9824
Pd 30.309 22.428 23.0784
Au 14.308 21.5366 9.30378
Au 25.8399 25.1312 16.0122
Au 32.6467 19.3374 19.7709
Pd 16.6208 26.8728 16.7449
Pd 26.6159 30.4232 25.4345
Au 24.3376 13.288 29.9597
Au 9.57485 27.1924 11.9456
Au 29.4643 25.0292 12.082
Au 6.46319 16.1165 19.2252
Pd 26.5129 29.3698 27.9342
Au 10.5375 21.9418 22.3679
Au 28.8743 19.5162 29.3429
Au 6.70707 16.4341 23.8512
Au 22.3021 33.8316 19.3975
Pd 13.2589 29.8252 13.6454
Au 21.6911 21.9388 32.2323
Au 13.944 15.4112 27.853
Pd 18.4263 13.2368 31.6659
Pd 19.0216 21.1793 33.1377
Pd 17.3384 29.2367 18.0446
Au 20.4179 9.72341 8.66817
Au 11.2689 31.2897 14.6361
Au 17.8459 11.8938 18.4158
Au 10.2736 14.6903 23.3603
Pd 11.664 15.8473 13.4473
Pd 11.5756 31.6374 21.3206
Au 24.155 31.0458 12.2828
Au 11.2565 12.3279 21.9494
Au 11.3954 32.1576 17.1998
Au 22.9537 7.88697 14.4361
Au 23.0449 12.4704 24.5881
Pd 13.5373 17.2749 17.5553
Au 21.9597 26.4708 29.2279
Pd 17.9581 18.4745 19.9683
Au 13.2771 10.544 30.0666
Au 30.7992 17.2739 12.6993
Au 30.9846 24.794 18.8579
Au 16.7649 22.4857 24.9099
Au 14.5255 23.8405 28.4709
Au 24.7264 10.687 14.8933
Au 28.0194 13.0178 11.9089
Pd 15.6272 24.4469 18.1328
Au 22.0505 7.76811 9.65429
Au 13.8874 16.3324 14.9556
Pd 28.2752 24.8736 14.6113
Pd 17.1866 29.6097 25.6364
Au 8.65784 14.7317 18.7655
Pd 18.9508 20.694 21.0804
Au 22.9986 15.1321 34.4499
Au 14.0513 15.7091 11.9573
Au 32.6727 19.5262 22.4696
Au 30.5399 20.9535 9.72761
Au 12.0904 18.7958 13.3125
Au 17.9658 10.2692 9.49714
Pd 13.2787 13.621 13.6674
Au 18.5533 15.0433 10.7115
Au 21.4798 26.4826 24.3996
Au 20.3909 12.3287 9.95998
Au 31.9039 24.3577 21.9275
Au 30.6217 15.2178 21.0696
Au 25.5787 16.7849 22.6502
Au 25.3463 17.5438 12.1049
Au 10.3672 25.4748 9.81411
Pd 18.7104 26.0247 11.8476
Au 23.4641 18.3833 7.35168
Au 13.3572 26.4871 28.0045
Au 23.3194 17.3258 29.5782
Au 19.0128 30.6857 13.549
Au 17.7726 7.00087 15.2956
Au 8.74549 22.7494 17.9013
Pd 20.4069 14.0385 15.1109
Au 10.473 13.3341 13.7131
Au 24.0176 8.74642 30.0936
Au 25.8407 19.5092 23.2571
Au 21.4366 22.1099 34.839
Au 21.3656 7.53846 19.2691
Au 18.8489 18.0465 22.5114
Au 14.0333 28.162 9.05596
Au 24.1736 12.8295 6.59777
Au 29.4527 10.6513 22.5982
Au 27.4506 15.8689 25.0884
Au 23.2183 25.4442 16.7779
Pd 22.4996 19.5213 31.1231
Pd 20.606 21.3367 6.71024
Au 16.597 33.1466 17.1255
Au 22.0242 27.8635 17.5704
Au 25.9378 21.4601 18.0168
Pd 24.1976 15.6905 6.56021
Au 19.5482 16.234 20.0339
Au 23.4924 29.4042 21.8504
Au 22.5958 10.2623 13.197
Pd 23.6414 21.1184 23.8597
Pd 14.5872 21.2754 29.1084
Au 6.51275 21.4943 18.9258
Au 12.7909 24.3287 26.3457
Au 19.411 11.606 29.7247
Pd 22.8596 14.9127 31.6187
Pd 28.7795 20.5146 11.5968
Au 14.0987 25.882 22.6252
Au 15.4997 12.6074 25.2472
Au 21.4245 28.3314 20.2692
Au 18.9596 20.3244 11.0353
Au 17.8403 18.8517 13.1163
Pd 23.6468 25.8373 25.8107
Au 27.5465 23.9206 7.91374
Pd 16.9355 22.1136 10.0352
Au 26.5965 16.0167 10.2482
Au 30.38 17.8604 21.8435
Pd 18.1627 13.7582 13.5203
Au 29.4815 11.0296 15.5121
Au 14.267 11.9742 22.7053
Au 17.7963 28.7489 15.2187
Au 27.5057 10.7796 13.5201
Pd 28.0281 15.8915 22.0319
Au 22.2224 7.04235 23.8541
Pd 14.6686 17.826 10.2995
Au 25.9419 30.3545 20.7577
Pd 32.5236 15.3024 17.3492
Pd 22.667 14.9183 28.7221
Pd 20.6386 9.48879 21.113
Au 11.6546 28.5637 18.0213
Au 30.9541 13.5368 15.7939
Au 28.2229 29.0122 14.017
Pd 26.3207 26.0187 18.6758
Au 13.1888 26.9534 25.0494
Au 25.431 10.4646 7.28084
Pd 17.2674 21.233 30.4625
Pd 27.8576 25.7785 21.0858
Au 21.4695 23.919 25.4013
Au 13.585 10.6044 25.338
Pd 12.3378 17.5673 27.2378
Au 6.83483 12.6219 16.6187
Au 24.4239 21.42 31.0486
Au 22.6384 28.8502 30.1639
Au 21.9517 12.1838 30.9684
Pd 14.6034 16.8715 22.3915
Au 18.477 25.8543 32.107
Pd 17.3232 21.6234 12.7782
Au 10.8828 29.0812 20.6963
Au 21.1658 9.51902 23.8106
Au 17.2563 13.2115 9.01079
Pd 20.8128 18.6203 14.1266
Au 9.09193 17.4143 19.9126
Au 9.01656 28.1682 18.6523
Au 14.8965 6.5092 22.797
Au 7.64227 18.2636 14.6941
Au 20.336 16.1399 28.0883
Au 17.009 19.8936 26.0873
Au 24.4335 10.9344 31.3174
Pd 21.8028 32.5406 12.7855
Au 21.0025 24.4094 22.5733
Au 25.3157 18.7993 30.7213
Au 14.9665 22.9224 31.2634
Au 20.9252 13.3232 33.3132
Au 18.5187 12.2116 34.2161
Pd 18.5753 14.8047 33.897
Au 16.1393 21.0911 33.0681
Pd 17.4549 33.4082 24.0148
Pd 23.2687 24.8673 11.2602
Pd 20.2198 12.0906 20.0124
Pd 27.1357 23.5617 19.5691
Au 7.78396 13.857 14.155
Pd 30.7209 20.4645 16.4862
Au 25.8042 19.9009 7.80712
Au 12.5213 25.9751 14.9719
Pd 25.4797 19.6373 20.3395
Au 7.09847 19.976 16.7301
Au 25.8945 29.0025 12.0837
Au 27.1093 19.1742 5.60984
Au 17.8701 7.60281 26.668
Au 28.5562 31.0773 21.0433
Au 11.3168 18.6776 18.4719
Au 21.3763 34.4207 14.8781
Pd 24.734 8.35891 16.3297
Pd 12.5928 23.7028 21.5289
Au 28.3692 22.1101 30.478
Au 22.2455 12.7321 18.1782
Au 16.6715 28.3539 8.2731
Au 16.7428 24.2673 12.1279
Au 13.5263 19.1377 8.09192
Au 28.7724 23.2207 10.246
Pd 28.7818 12.9218 17.4216
Au 22.5215 24.2576 27.904
Pd 22.7001 14.0971 8.79618
Au 18.2389 24.8252 21.2113
Au 10.9763 10.795 26.0549
Au 12.2736 19.8347 29.6606
Au 15.1711 24.2505 9.70067
Au 27.2994 9.19162 15.7603
Au 17.9894 14.7792 16.1168
Au 10.0823 21.7447 28.9512
Au 17.901 24.8067 9.48298
Pd 30.6167 29.1819 20.9272
Au 16.7936 15.171 25.7948
Au 13.6174 18.9908 20.8707
Au 14.6634 28.9444 18.2289
Pd 20.1759 16.4968 16.315
Pd 20.5018 6.73389 14.6657
Au 15.9446 13.8037 11.6626
Pd 13.1281 17.9704 31.7122
Au 23.9857 16.5789 9.40708
Au 28.0997 28.4215 21.1979
Au 17.496 24.2017 16.1447
Pd 11.8769 16.9029 22.7185
Au 12.7337 16.6374 20.1118
Pd 24.006 14.8201 18.8681
Au 14.1229 19.7028 26.9726
Au 22.5088 14.941 16.4479
Au 22.5259 24.347 33.4431
Au 20.0433 29.8321 18.3534
Au 24.6902 14.9714 25.1845
Au 24.2773 27.6012 28.0956
Pd 18.7992 9.76652 25.2292
Pd 19.4655 30.1963 21.0669
Pd 6.79898 18.8272 19.1798
Au 26.6702 31.8361 23.0789
Pd 18.5869 34.3863 18.73
Au 15.984 9.14269 14.3792
Au 25.9176 30.4484 14.3483
Au 29.5679 14.8738 30.0398
Pd 9.73029 17.6986 12.9011
Au 25.0655 10.1499 20.5955
Pd 19.0447 19.8534 8.48727
Au 19.2623 33.377 13.3861
Au 14.3621 30.8212 21.5187
Pd 28.7305 21.7777 17.9431
Au 6.50398 17.6341 21.5152
Au 18.4849 9.22316 30.7954
Pd 21.8254 16.3164 18.674
Au 17.8818 27.5071 27.3554
Pd 26.5521 33.0081 20.7068
Au 23.383 17.3986 32.5187
Au 20.8168 25.734 19.7068
Au 9.24625 23.4339 24.2939
Pd 25.8482 27.5836 25.8461
Au 23.2684 32.3901 26.7711
Au 26.5588 13.9815 23.4637
Au 18.1115 31.717 19.0215
Au 26.0571 24.6045 24.7651
Au 14.6514 28.0247 15.1033
Au 27.2965 21.7828 6.29907
Pd 26.6163 11.9068 18.8971
Au 8.72834 15.5874 25.3718
Au 6.95698 19.2451 23.6872
Au 26.1895 17.2745 7.59764
Au 19.265 13.6293 5.78671
Au 23.708 12.8395 33.071
Pd 24.8717 22.5811 13.2448
Au 12.7855 9.47523 27.6262
Au 24.6763 13.3482 16.5352
Au 27.2169 15.0505 6.71388
Au 16.6049 17.581 24.2195
Pd 14.7549 28.1507 12.1125
Au 25.2119 18.8693 17.4393
Pd 18.0674 10.4684 20.6653
Au 30.4053 19.4759 27.0287
Au 29.2399 22.003 14.6368
Pd 8.69403 21.8813 15.4474
Au 20.944 18.5855 20.7668
Au 29.3322 13.7062 25.4652
Au 13.1381 12.9161 26.8713
Au 31.4347 12.5178 23.9748
Au 27.5707 10.6183 26.9465
Au 15.7332 9.52292 30.3258
Pd 9.84484 23.0525 13.3676
Au 13.7184 30.2321 25.1625
Pd 18.4667 31.1795 16.3101
Pd 17.3216 23.4232 32.4544
Pd 26.8258 11.7716 16.1625
Pd 23.5809 26.3561 19.3376
Au 20.5292 25.2003 16.9231
Pd 24.4181 10.8498 17.6663
Au 25.2889 26.6947 10.7589
Au 19.0357 16.3787 13.8854
Au 26.9895 20.3336 13.4872
Au 23.384 16.5642 20.9529
Au 16.1603 8.59566 21.3225
Au 21.5382 31.6702 22.6954
Pd 29.7569 10.9548 25.3957
Au 20.7908 7.94343 26.0757
Au 15.9845 14.4803 23.1309
Pd 16.7285 11.9544 29.8022
Au 29.2279 13.336 22.6447
Pd 11.9148 14.6588 15.8697
Pd 31.2433 16.8016 19.0664
Au 27.8154 27.1573 16.2638
Au 10.1047 19.1374 28.0774
Au 5.71488 25.1644 15.7417
Au 30.7733 23.189 16.6135
Au 32.4243 18.2716 17.1536
Pd 28.8943 16.3505 14.561
Au 8.62416 27.6655 15.8388
Au 8.93166 8.92021 19.3071
Au 22.0633 23.1454 18.0205
Au 19.9154 14.3515 8.2299
Au 20.9 13.8169 23.4638
Au 10.1234 23.5833 26.7841
Au 22.6166 17.7746 11.8853
Au 28.4233 28.3943 26.0819
Au 11.5973 21.1323 8.83945
Au 30.245 27.845 23.2048
Au 31.6101 12.6694 21.2915
Au 23.4759 19.8678 28.4653
Au 12.9268 23.3789 14.108
Au 22.2787 11.6559 15.7197
Au 9.9818 19.8932 10.7947
Au 15.9772 18.8833 17.2636
Au 21.2951 9.52837 30.3279
Pd 19.8817 10.1269 11.6268
Au 20.3385 10.2013 27.6125
Au 20.7983 26.6871 7.55631
Pd 24.1223 11.8425 9.1638
Au 17.4443 29.9487 28.4643
Pd 29.5512 15.4235 17.1548
Au 20.7641 26.3551 33.5282
Au 19.4129 22.7796 30.8524
Pd 15.9855 13.621 27.7608
Pd 28.1566 24.3997 28.7568
Au 13.2825 12.7589 20.2164
Au 26.6421 17.4196 32.7234
Au 19.1996 17.0339 8.66007
Au 16.1233 21.8342 17.2928
Au 7.38234 16.3538 12.8446
Pd 19.7768 28.0208 13.3074
Au 22.5107 10.3384 19.5184
Pd 12.9582 11.0252 18.1588
Au 19.1471 28.8008 7.33433
Pd 29.8322 17.9825 16.5087
Au 12.373 7.53247 23.4453
Au 9.62994 28.9595 23.0866
Pd 27.2351 11.9571 21.4528
Au 13.1849 32.293 23.4188
Au 11.3478 21.4287 17.4836
Au 26.7517 11.346 9.75017
Au 14.1525 17.8238 29.1669
Au 14.3685 25.4336 12.8791
Au 22.4297 8.25348 28.1311
Au 21.0166 21.5662 24.2251
Pd 23.2129 23.8332 30.5885
Au 25.4172 14.2605 8.50434
Pd 15.1391 28.583 28.991
Au 27.7057 26.9685 23.7946
Pd 9.61823 19.9898 23.9461
Au 16.8802 12.3493 15.8105
Au 24.6896 23.8372 18.5215
Au 18.1578 21.5355 15.4911
Au 13.5209 25.2253 30.485
Au 18.2325 25.2755 18.5551
Au 25.1801 22.0787 21.7271
Au 7.53451 9.99785 17.2029
Au 13.1066 14.5201 22.4318
Au 19.9941 32.9057 20.7391
Pd 15.4855 24.0905 20.9896
Au 13.6489 26.7096 17.3551
Au 20.3665 18.7167 32.9766
Au 24.0763 22.1725 33.7127
Au 29.5674 26.7523 28.0126
Pd 19.7972 7.60848 17.0565
Pd 22.6465 10.2394 26.1527
Au 20.7769 16.0368 33.024
Au 17.2621 31.6808 11.7433
Pd 24.7179 16.4119 16.815
Au 24.046 22.8772 15.9481
Pd 27.7751 19.9108 16.1241
Au 16.0139 31.0415 23.7266
Au 25.2057 20.4252 26.3246
Au 22.1571 9.27971 16.9768
Au 30.5555 26.4817 20.9222
Au 30.2984 11.8902 13.1492
Au 23.1161 10.98 28.7718
Au 29.667 23.3229 20.5877
Au 19.1128 31.2293 24.0662
Au 24.0391 22.9707 25.8622
Au 28.8948 26.8713 18.7736
Au 6.69471 20.771 14.0277
Au 21.6995 26.9153 14.9631
Au 30.2757 24.295 27.0848
Au 32.7139 21.8031 23.8811
Au 32.5594 21.9248 21.2306
Au 31.3349 27.7322 18.6023
Pd 24.3252 22.3574 28.4157
Au 18.2593 17.4252 26.6463
Au 15.7069 22.7999 14.4919
Pd 23.1388 18.6758 19.1652
Au 7.50674 21.8809 23.0038
Au 15.9758 26.8414 19.3841
Au 8.74581 25.2471 19.1328
Au 22.3996 10.2117 10.473
Pd 13.3659 26.1142 10.562
Au 23.5142 29.0821 15.1346
Au 22.2695 17.0594 5.11229
Pd 17.1468 16.2559 21.439
Au 11.415 27.9227 10.0629
Au 17.7307 18.8234 31.975
Au 21.7908 21.3782 21.683
Pd 12.9678 10.0274 20.9628
Pd 19.8538 17.7133 11.6086
Au 13.6483 23.5097 7.4446
Au 14.8227 18.1396 13.1214
Au 12.5249 23.541 10.0205
Au 19.8696 20.0555 30.6656
Au 30.9424 24.2854 14.2054
Au 28.6559 23.3052 25.1022
Pd 7.52405 19.0506 12.0056
Pd 18.0596 13.0109 24.2493
Pd 6.08043 23.2011 20.9439
Au 19.9097 10.9228 32.3589
