923
Atoms. Timestep: 20078
Au 19.755 19.7756 19.7643
Au 22.0597 19.7881 18.3501
Au 22.0457 19.789 21.1948
Au 17.4694 19.7543 18.328
Au 17.456 19.7644 21.1752
Au 18.3355 22.0721 19.7474
Au 21.1797 22.0692 19.7482
Au 18.3337 17.4753 19.7675
Au 21.1786 17.489 19.7759
Au 19.7526 18.3659 22.0749
Au 19.7405 21.194 22.0603
Au 19.7532 18.3515 17.473
Au 19.7671 21.1872 17.4641
Pd 24.3485 19.7821 16.9459
Au 24.4109 19.802 19.7647
Au 24.3283 19.8038 22.6389
Pd 15.198 19.7385 16.9047
Au 15.1053 19.7492 19.7347
Au 15.1572 19.7515 22.5941
Pd 16.9171 24.3626 19.7353
Au 19.755 24.4455 19.738
Au 22.5935 24.3613 19.7286
Pd 16.9219 15.1884 19.7706
Au 19.7503 15.1144 19.7813
Au 22.6053 15.193 19.7901
Au 19.754 16.9652 24.3921
Au 19.7412 19.7804 24.4593
Au 19.7358 22.6014 24.3602
Au 19.7559 16.9364 15.1751
Au 19.7695 19.7493 15.0983
Au 19.7825 22.5913 15.1619
Au 22.0842 18.3585 23.5772
Au 22.0746 21.216 23.5615
Au 22.1003 18.3372 16.0061
Au 22.1151 21.2175 16.0007
Au 17.4159 18.3299 23.5519
Au 17.4054 21.2057 23.5427
Pd 17.4426 18.3009 15.9964
Au 17.4409 21.175 15.9814
Pd 23.527 22.1086 18.3148
Au 23.5272 22.1196 21.1986
Au 15.9966 22.0904 18.2935
Au 15.9836 22.1085 21.1861
Au 23.5444 17.4652 18.3286
Au 23.5331 17.4607 21.2395
Au 16.007 17.4215 18.2996
Au 15.9827 17.4096 21.2115
Au 18.2977 23.5615 22.0732
Au 21.186 23.5496 22.0755
Au 18.3001 16.0123 22.1082
Au 21.2024 16.0136 22.1305
Au 18.328 23.5489 17.41
Au 21.2244 23.545 17.4201
Au 18.3137 15.9999 17.4335
Au 21.2086 16.0006 17.4422
Au 26.649 19.7626 15.5429
Au 26.7476 19.7765 18.3445
Au 26.7368 19.7958 21.2191
Au 26.61 19.8017 24.061
Au 12.9007 19.726 15.4718
Au 12.7775 19.7385 18.3037
Au 12.7606 19.7374 21.1803
Pd 12.8581 19.7483 24.0056
Au 15.4826 26.66 19.7396
Au 18.3332 26.7718 19.7314
Pd 21.1844 26.7666 19.7256
Au 24.004 26.6507 19.7175
Au 15.514 12.8865 19.7753
Au 18.333 12.7727 19.7825
Au 21.194 12.7692 19.7825
Au 24.0356 12.8911 19.7997
Pd 19.749 15.5662 26.6898
Pd 19.737 18.3667 26.776
Pd 19.7339 21.1921 26.7648
Au 19.7423 24.0253 26.6499
Pd 19.7886 15.5123 12.9024
Pd 19.7916 18.3095 12.7867
Pd 19.7973 21.1634 12.7751
Au 19.8 23.9939 12.8476
Pd 24.3819 18.356 25.0195
Au 22.0834 16.9343 25.9081
Pd 24.3703 21.2332 25.0128
Pd 22.0832 19.7893 25.9616
Au 22.0863 22.6359 25.8849
Au 24.4163 18.3096 14.5748
Au 22.1133 16.8879 13.6794
Au 24.4117 21.2188 14.5561
Au 22.1135 19.7559 13.5768
Au 22.1292 22.6185 13.6428
Au 15.0928 18.3113 24.9803
Au 17.4158 16.9159 25.8886
Au 15.0717 21.2102 24.979
Pd 17.3891 19.7696 25.95
Au 17.3818 22.6394 25.8655
Au 15.1639 18.264 14.5441
Pd 17.4475 16.8704 13.6866
Au 15.1341 21.1806 14.5258
Au 17.4468 19.7046 13.5918
Au 17.4515 22.6134 13.6465
Au 24.9655 24.4256 18.2885
Au 25.8407 22.1277 16.8973
Pd 24.9549 24.4317 21.1958
Au 25.9185 22.1609 19.7697
Pd 25.8304 22.135 22.6546
Au 14.5388 24.4187 18.2772
Au 13.6759 22.09 16.8407
Au 14.5292 24.4316 21.1888
Au 13.5748 22.1219 19.737
Au 13.6496 22.1058 22.6389
Au 24.9936 15.133 18.3271
Pd 25.8632 17.4346 16.9054
Au 24.9928 15.1362 21.2838
Au 25.9407 17.4251 19.7851
Au 25.8485 17.4371 22.7055
Au 14.5689 15.0996 18.3056
Au 13.6956 17.3901 16.8628
Pd 14.5455 15.1074 21.2262
Au 13.5916 17.3682 19.7639
Au 13.6565 17.3929 22.6585
Au 18.279 25.011 24.3997
Au 16.8574 25.8918 22.0789
Au 21.1803 25.0041 24.3969
Au 19.7489 25.9879 22.0974
Au 22.6058 25.8859 22.0645
Au 18.3005 14.588 24.4479
Au 16.8655 13.7001 22.1263
Au 21.213 14.5738 24.4735
Au 19.7596 13.5964 22.1615
Au 22.6554 13.6852 22.1771
Pd 18.3392 24.9742 15.0748
Au 16.8958 25.8669 17.3796
Au 21.2334 24.9748 15.0978
Au 19.7878 25.9596 17.3732
Pd 22.6345 25.8702 17.3983
Au 18.3332 14.5544 15.1046
Au 16.8942 13.6759 17.4179
Au 21.2409 14.5484 15.1175
Au 19.7771 13.5787 17.4132
Au 22.6517 13.6603 17.4228
Au 23.5903 15.9766 23.6496
Au 23.5697 23.5838 23.5809
Au 23.602 15.9401 15.9598
Pd 23.5827 23.5885 15.9447
Pd 15.9228 15.9625 23.6007
Au 15.9077 23.5998 23.5875
Pd 15.9729 15.93 15.9383
Au 15.9547 23.5797 15.9024
Au 28.9613 19.7382 14.1222
Pd 29.0933 19.7557 16.9348
Au 29.1225 19.7622 19.7814
Au 29.0832 19.7743 22.6371
Au 28.9367 19.7853 25.4675
Pd 10.5994 19.7136 14.0316
Au 10.4388 19.7247 16.8663
Au 10.3931 19.7216 19.7405
Au 10.4267 19.7316 22.6043
Au 10.5574 19.7495 25.3969
Au 14.0459 28.9614 19.7317
Au 16.889 29.1078 19.7383
Au 19.7695 29.1317 19.7266
Au 22.599 29.0863 19.7267
Au 25.431 28.9522 19.7251
Au 14.1101 10.5497 19.7722
Au 16.9362 10.4102 19.7746
Au 19.7795 10.3891 19.7711
Au 22.6295 10.4315 19.7816
Au 25.4736 10.5919 19.7925
Au 19.7286 14.1516 28.9761
Pd 19.7328 16.9483 29.0874
Au 19.7302 19.7795 29.1179
Au 19.7463 22.6298 29.0813
Au 19.7439 25.4615 28.9453
Au 19.818 14.091 10.6217
Pd 19.8155 16.8812 10.491
Au 19.8267 19.7124 10.4542
Au 19.8314 22.5717 10.4482
Pd 19.7942 25.3961 10.5356
Au 26.6905 18.3176 26.4501
Au 24.4216 16.8894 27.3519
Pd 22.0863 15.4994 28.213
Au 26.669 21.2565 26.4606
Au 24.4138 19.8064 27.435
Au 22.0953 18.3598 28.3156
Pd 24.3914 22.6845 27.3486
Au 22.1128 21.2393 28.3041
Pd 22.0949 24.0933 28.1846
Au 26.7282 18.2698 13.1351
Pd 24.4429 16.8446 12.2369
Au 22.1487 15.457 11.3921
Au 26.731 21.2077 13.1097
Au 24.4523 19.7393 12.1173
Pd 22.1615 18.2921 11.2477
Pd 24.4476 22.6348 12.1802
Pd 22.1614 21.1779 11.2261
Pd 22.1445 24.0346 11.3286
Au 12.7688 18.315 26.3932
Au 15.0702 16.8817 27.3333
Pd 17.4006 15.4983 28.197
Pd 12.7532 21.2085 26.3894
Au 15.025 19.7831 27.4107
Au 17.3746 18.3388 28.312
Au 15.0249 22.6737 27.304
Au 17.3474 21.2098 28.3067
Au 17.362 24.0977 28.1765
Au 12.8352 18.2568 13.084
Pd 15.1364 16.8274 12.1964
Au 17.4714 15.4385 11.3864
Au 12.8148 21.1721 13.0633
Au 15.1044 19.7011 12.094
Au 17.4455 18.2648 11.2401
Au 15.107 22.6192 12.1587
Au 17.4389 21.1415 11.2148
Au 17.4468 24.0339 11.3003
Pd 26.4165 26.7385 18.2814
Pd 27.3291 24.4634 16.87
Au 28.1962 22.1222 15.4809
Au 26.4017 26.7462 21.1966
Au 27.4016 24.4911 19.7493
Au 28.3097 22.1519 18.3285
Au 27.302 24.463 22.6522
Au 28.2969 22.1767 21.2164
Au 28.158 22.156 24.0909
Au 13.0606 26.7378 18.2652
Au 12.1765 24.4275 16.7982
Au 11.3465 22.0794 15.3946
Pd 13.0704 26.7357 21.1882
Au 12.0651 24.4759 19.7332
Au 11.1936 22.1238 18.2801
Au 12.1749 24.4412 22.6473
Au 11.1827 22.1248 21.1825
Au 11.3295 22.0992 24.0603
Au 26.4466 12.8068 18.3356
Au 27.3473 15.0873 16.8968
Au 28.1911 17.4038 15.4879
Au 26.4461 12.8336 21.2898
Au 27.4353 15.0743 19.8201
Au 28.3166 17.3975 18.3528
Pd 27.3333 15.1067 22.7194
Au 28.3033 17.3795 21.2491
Au 28.1708 17.4075 24.1047
Au 13.1187 12.7659 18.288
Au 12.2142 15.0419 16.8419
Au 11.3535 17.3693 15.4188
Au 13.1085 12.7825 21.2379
Au 12.1021 15.0248 19.766
Au 11.2041 17.3491 18.3133
Au 12.184 15.0785 22.6689
Au 11.1961 17.3505 21.2049
Pd 11.3283 17.4082 24.0616
Au 18.2715 26.4613 26.7053
Au 16.8332 27.3677 24.4153
Pd 15.4108 28.2074 22.0918
Au 21.1908 26.4554 26.7131
Pd 19.7292 27.4631 24.4398
Au 18.3046 28.3442 22.1245
Au 22.6029 27.3696 24.4025
Pd 21.1764 28.3468 22.1023
Au 24.0348 28.2059 22.0808
Au 18.287 13.1645 26.767
Au 16.8716 12.2121 24.4731
Au 15.463 11.3409 22.1478
Au 21.2056 13.1493 26.7872
Au 19.7716 12.1115 24.5177
Au 18.3323 11.2035 22.1782
Pd 22.6677 12.2136 24.5065
Au 21.2217 11.2137 22.1892
Au 24.0962 11.368 22.1874
Au 18.3374 26.3957 12.7427
Au 16.8871 27.3212 15.0186
Au 15.4385 28.1953 17.3525
Au 21.2401 26.3934 12.7512
Au 19.7856 27.4267 15.0213
Au 18.3428 28.3351 17.3351
Au 22.6576 27.3283 15.0649
Pd 21.2132 28.3209 17.3577
Au 24.0599 28.1844 17.3705
Pd 18.3594 13.0963 12.8055
Au 16.9041 12.187 15.0817
Au 15.4939 11.3247 17.4022
Au 21.2659 13.1156 12.8244
Au 19.8119 12.0909 15.0782
Au 18.3641 11.1943 17.3985
Pd 22.6922 12.199 15.1045
Pd 21.2321 11.2064 17.4002
Au 24.0866 11.3504 17.419
Pd 25.9246 15.9362 25.0829
Au 25.8939 23.6194 25.0687
Pd 25.0615 13.6271 23.6759
Au 25.0128 25.955 23.6008
Au 23.6185 14.5066 25.9777
Au 23.5792 25.0507 25.9489
Au 25.9329 15.8974 14.5083
Au 25.9333 23.6161 14.4833
Pd 25.0552 13.5874 15.9395
Au 25.0401 25.9332 15.9138
Pd 23.6296 14.4798 13.6237
Au 23.6229 25.0234 13.5734
Pd 13.5633 15.9196 25.0543
Pd 13.5532 23.6134 25.035
Au 14.4635 13.6153 23.6316
Au 14.4388 25.9467 23.593
Au 15.8933 14.5138 25.9546
Pd 15.8722 25.0704 25.9225
Au 13.6424 15.8752 14.4602
Pd 13.5953 23.5843 14.4218
Pd 14.5086 13.5743 15.908
Au 14.4606 25.9285 15.845
Au 15.9603 14.4681 13.6075
Au 15.9366 25.0327 13.5422
Au 31.2659 19.7082 12.6999
Pd 31.3861 19.7371 15.4966
Au 31.4684 19.7374 18.3511
Au 31.4878 19.7317 21.2147
Au 31.4323 19.7771 24.0569
Au 31.2529 19.7814 26.8834
Au 8.32664 19.7041 12.5835
Au 8.1354 19.7018 15.4129
Pd 8.08385 19.7116 18.3014
Pd 8.07342 19.724 21.1622
Pd 8.12267 19.7391 24.0066
Pd 8.26623 19.7615 26.7741
Au 12.6113 31.2731 19.699
Au 15.4477 31.4556 19.7099
Au 18.3273 31.5111 19.7123
Au 21.2082 31.4887 19.7285
Pd 24.0603 31.3838 19.74
Pd 26.8381 31.2312 19.739
Pd 12.7133 8.26466 19.7633
Au 15.5149 8.07263 19.7719
Pd 18.3602 8.04588 19.7698
Au 21.2017 8.04234 19.7773
Au 24.0809 8.10909 19.7866
Au 26.9011 8.29293 19.7806
Au 19.7062 12.7042 31.2793
Au 19.6962 15.5267 31.4251
Au 19.7078 18.3564 31.4822
Au 19.7387 21.2345 31.486
Au 19.7422 24.077 31.4176
Pd 19.7445 26.8728 31.2215
Pd 19.8339 12.6726 8.34068
Au 19.8265 15.4534 8.17086
Pd 19.8169 18.2852 8.1426
Au 19.8059 21.1249 8.08391
Au 19.8167 23.9765 8.09823
Au 19.7886 26.7992 8.23431
Au 29.0299 18.329 27.898
Au 26.7685 16.8671 28.8307
Au 24.4392 15.4511 29.7077
Au 22.0884 14.0599 30.5268
Au 29.0198 21.2612 27.8886
Au 26.7689 19.8179 28.9491
Au 24.4743 18.3665 29.8641
Au 22.1059 16.9289 30.6831
Au 26.6947 22.7321 28.8119
Pd 24.4507 21.2799 29.8139
Au 22.1386 19.8262 30.7257
Pd 24.3952 24.1168 29.6563
Pd 22.1216 22.6873 30.6319
Au 22.1056 25.5314 30.4958
Au 29.0571 18.243 11.7101
Pd 26.7533 16.8147 10.8111
Pd 24.4622 15.4105 9.93788
Pd 22.1677 14.0254 9.09402
Au 29.0754 21.1788 11.6754
Au 26.814 19.6993 10.6482
Au 24.5254 18.2544 9.75929
Au 22.1852 16.8577 8.90805
Au 26.7855 22.6301 10.7287
Au 24.5006 21.1735 9.72059
Au 22.1875 19.7187 8.85827
Au 24.4704 24.0457 9.83213
Pd 22.1839 22.5936 8.88321
Au 22.1477 25.4411 9.01191
Au 10.4397 18.3166 27.8146
Au 12.7269 16.8813 28.7876
Pd 15.0649 15.4566 29.6404
Au 17.3456 14.064 30.4998
Au 10.4279 21.2035 27.7964
Pd 12.6762 19.7785 28.8554
Au 14.9878 18.3409 29.8138
Pd 17.3424 16.8998 30.6402
Au 12.7019 22.6445 28.7449
Pd 14.9626 21.2302 29.795
Au 17.2999 19.7751 30.7322
Au 15.0078 24.1105 29.6616
Au 17.3088 22.6599 30.6917
Au 17.3642 25.554 30.5177
Pd 10.5384 18.2543 11.6397
Au 12.8175 16.8225 10.7302
Au 15.153 15.3982 9.86303
Pd 17.4972 14.0187 9.06225
Pd 10.5284 21.1273 11.6253
Au 12.7743 19.6949 10.5906
Pd 15.0917 18.2608 9.73267
Au 17.4481 16.8481 8.88386
Au 12.7855 22.585 10.6791
Pd 15.0779 21.1393 9.71247
Au 17.4047 19.6937 8.82119
Au 15.0888 24.0314 9.78918
Au 17.4052 22.5573 8.83357
Au 17.4246 25.4523 8.96523
Au 27.8531 29.0605 18.2794
Au 28.7788 26.7915 16.8614
Au 29.691 24.478 15.4442
Au 30.5466 22.0994 14.0407
Au 27.835 29.0967 21.2209
Au 28.8824 26.8199 19.7635
Au 29.8317 24.5125 18.3334
Au 30.7127 22.1318 16.9054
Au 28.7761 26.808 22.6674
Pd 29.8069 24.5326 21.2244
Au 30.7376 22.1759 19.7829
Au 29.6668 24.4978 24.1036
Au 30.6848 22.1936 22.6543
Au 30.514 22.1733 25.5417
Au 11.5955 29.0652 18.2346
Au 10.6777 26.7531 16.7724
Pd 9.84191 24.3963 15.3518
Au 9.0388 22.061 13.9427
Au 11.6179 29.0394 21.17
Au 10.5529 26.8073 19.7214
Au 9.64607 24.4804 18.2413
Au 8.82163 22.1075 16.832
Au 10.6955 26.7426 22.6352
Au 9.63908 24.4795 21.1842
Au 8.76353 22.1024 19.7167
Pd 9.8291 24.4122 24.0534
Au 8.82066 22.1133 22.6136
Pd 9.00795 22.0808 25.4475
Pd 27.8772 10.4987 18.3506
Au 28.8309 12.7453 16.9265
Au 29.7103 15.0669 15.4623
Pd 30.5009 17.3889 14.058
Au 27.8947 10.5191 21.2533
Pd 28.8888 12.7513 19.8165
Au 29.8547 15.0396 18.3942
Au 30.6774 17.381 16.922
Au 28.821 12.8151 22.7064
Pd 29.8022 15.0515 21.2655
Pd 30.6978 17.3655 19.8209
Pd 29.6595 15.1073 24.1163
Pd 30.6414 17.3832 22.664
Au 30.5084 17.4083 25.5123
Au 11.6861 10.4164 18.2904
Au 10.745 12.7024 16.8299
Au 9.86891 15.0063 15.3819
Au 9.05473 17.3528 13.9496
Au 11.6725 10.4272 21.2332
Au 10.6141 12.6737 19.757
Au 9.67968 14.9877 18.3093
Au 8.82698 17.3221 16.8593
Au 10.7244 12.7312 22.657
Pd 9.69388 15.0003 21.195
Pd 8.80041 17.3424 19.7433
Au 9.82287 15.0883 24.0697
Au 8.82619 17.357 22.6075
Pd 9.00825 17.4295 25.457
Au 18.2822 27.9058 29.0371
Au 16.8197 28.8428 26.7485
Au 15.392 29.712 24.4288
Au 13.9629 30.5314 22.0925
Au 21.1938 27.8952 29.0405
Au 19.7405 28.9493 26.7753
Pd 18.2816 29.8401 24.47
Au 16.8533 30.7146 22.1403
Au 22.6576 28.8332 26.7418
Au 21.1763 29.8638 24.4698
Au 19.7454 30.7586 22.1462
Pd 24.0614 29.6745 24.411
Au 22.6439 30.6996 22.1267
Pd 25.472 30.4923 22.0682
Au 18.2501 11.7058 29.0631
Pd 16.8615 10.7924 26.7883
Au 15.4406 9.85108 24.4956
Au 14.0392 8.99626 22.1474
Au 21.1831 11.6713 29.1042
Au 19.7156 10.6354 26.8509
Pd 18.3049 9.71075 24.5511
Au 16.9109 8.80528 22.1921
Au 22.6464 10.7562 26.824
Au 21.2082 9.6924 24.55
Au 19.7669 8.78038 22.197
Au 24.0987 9.87042 24.5132
Au 22.6659 8.82894 22.2015
Au 25.5428 9.0259 22.1604
Au 18.3204 27.8216 10.4181
Pd 16.8819 28.7402 12.6782
Au 15.4273 29.6647 14.9637
Au 13.9823 30.526 17.3287
Pd 21.2304 27.7959 10.4318
Au 19.7948 28.8831 12.6556
Au 18.3342 29.8414 14.9353
Au 16.8736 30.717 17.2889
Pd 22.67 28.7432 12.7207
Pd 21.2423 29.8027 14.9797
Au 19.7881 30.7463 17.2928
Au 24.11 29.6577 15.0104
Au 22.6468 30.6887 17.3269
Au 25.5092 30.5193 17.3737
Au 18.3747 11.675 10.4881
Au 16.9154 10.7248 12.7579
Au 15.4778 9.80916 15.0612
Au 14.0764 8.98191 17.4049
Au 21.2926 11.6863 10.5001
Au 19.8175 10.618 12.7384
Au 18.3642 9.65065 15.0545
Pd 16.936 8.83797 17.3993
Au 22.7249 10.7611 12.7882
Au 21.2594 9.6766 15.0644
Pd 19.7907 8.80866 17.4059
Au 24.1415 9.86266 15.092
Au 22.6647 8.84907 17.3971
Pd 25.5368 9.0509 17.446
Au 28.2626 15.8926 26.5185
Au 28.2485 23.6832 26.5538
Pd 27.432 13.6001 25.1054
Au 27.397 26.0117 25.1075
Au 26.5395 11.2807 23.7015
Au 26.4726 28.3301 23.6298
Pd 25.98 14.4744 27.4485
Pd 25.9237 25.0847 27.4358
Au 25.1102 12.1318 26.0263
Au 25.0575 27.4524 25.9868
Au 23.6356 13.0453 28.3288
Au 23.6141 26.5263 28.2875
Pd 28.2822 15.8757 13.0656
Au 28.3128 23.6429 13.0071
Au 27.436 13.5364 14.4683
Au 27.4171 25.9985 14.4446
Au 26.5333 11.25 15.9192
Pd 26.4863 28.2743 15.8913
Au 25.9692 14.4356 12.1481
Au 25.9933 25.077 12.078
Pd 25.0824 12.1331 13.5994
Pd 25.0741 27.4097 13.5472
Pd 23.6477 13.0503 11.3085
Au 23.6483 26.4892 11.2203
Au 11.2012 15.8977 26.484
Au 11.1978 23.625 26.4589
Au 12.0692 13.5245 25.0957
Pd 12.0515 25.9682 25.0424
Pd 13.0242 11.2283 23.6433
Au 12.9602 28.28 23.5881
Au 13.5247 14.4357 27.4442
Au 13.4789 25.104 27.3933
Au 14.4367 12.095 26.0015
Au 14.3777 27.4406 25.955
Pd 15.8907 13.069 28.2887
Au 15.8318 26.5504 28.2747
Pd 11.2942 15.8643 12.9993
Au 11.2579 23.5694 12.9496
Au 12.1452 13.5015 14.3934
Au 12.0629 25.9484 14.3357
Au 13.061 11.2048 15.863
Au 12.974 28.2941 15.7897
Au 13.6011 14.3944 12.0845
Au 13.5645 25.0554 12.0245
Pd 14.4996 12.0809 13.5565
Au 14.4417 27.4134 13.4427
Au 15.9612 13.0028 11.2624
Pd 15.9319 26.455 11.1812
Pd 33.4637 19.6886 11.3406
Au 33.6484 19.7075 14.0697
Pd 33.6621 19.719 16.8926
Au 33.7465 19.7218 19.7786
Au 33.7421 19.74 22.6644
Au 33.6716 19.7703 25.5353
Au 33.4586 19.781 28.2585
Au 6.11504 19.6931 11.1939
Au 5.90424 19.6925 13.9393
Pd 5.88308 19.7015 16.828
Au 5.82001 19.7368 19.7147
Au 5.82821 19.7467 22.5946
Au 5.86263 19.7519 25.4323
Au 6.03143 19.7664 28.1389
Au 11.2289 33.4833 19.6899
Au 13.9633 33.696 19.6965
Au 16.8571 33.765 19.6956
Au 19.7825 33.7741 19.7203
Pd 22.6877 33.6828 19.7444
Au 25.505 33.6324 19.75
Au 28.2111 33.4602 19.7575
Au 11.3532 6.03411 19.7559
Au 14.0566 5.84814 19.7605
Au 16.9256 5.78114 19.758
Au 19.7926 5.77799 19.7661
Pd 22.6811 5.84759 19.78
Au 25.5452 5.87241 19.7913
Au 28.2768 6.08243 19.7898
Au 19.6888 11.3379 33.4983
Au 19.6909 14.0616 33.6818
Au 19.7087 16.9123 33.7472
Au 19.7287 19.8018 33.7605
Au 19.7456 22.6979 33.7365
Au 19.7487 25.5586 33.6487
Au 19.7511 28.2598 33.4366
Au 19.8447 11.2889 6.11518
Au 19.8368 14.0054 5.9202
Pd 19.8295 16.8417 5.91355
Pd 19.8125 19.6789 5.87391
Au 19.7982 22.5397 5.80916
Au 19.8021 25.4049 5.83198
Au 19.7988 28.1436 5.99688
Pd 31.3203 18.3813 29.2209
Au 29.079 16.9226 30.1976
Au 26.74 15.4602 31.1237
Au 24.3611 14.0318 31.9818
Pd 21.9827 12.6429 32.7711
Pd 31.3101 21.2147 29.2051
Au 29.1329 19.808 30.311
Au 26.831 18.3387 31.2878
Au 24.4465 16.8774 32.1732
Pd 22.0425 15.4583 32.9364
Pd 28.9932 22.685 30.1366
Au 26.7858 21.3027 31.264
Au 24.4708 19.8545 32.1992
Au 22.0883 18.3655 33.0507
Au 26.6841 24.1416 31.0736
Au 24.4307 22.7403 32.1097
Pd 22.0856 21.2899 32.9915
Au 24.3748 25.5503 31.9256
Pd 22.0832 24.1471 32.8994
Au 22.0362 26.9657 32.7534
Au 31.3483 18.2739 10.3373
Pd 29.0386 16.84 9.45373
Au 26.7504 15.4095 8.54612
Au 24.4531 13.9895 7.67027
Au 22.1403 12.5951 6.82991
Au 31.3702 21.1199 10.3138
Pd 29.1497 19.6952 9.3226
Au 26.8565 18.2317 8.34462
Pd 24.5197 16.7897 7.50157
Au 22.1908 15.3995 6.6176
Pd 29.0816 22.5658 9.39827
Pd 26.8433 21.1589 8.35647
Pd 24.513 19.6916 7.43503
Au 22.163 18.2729 6.55493
Au 26.7709 24.0074 8.43011
Au 24.5101 22.5852 7.39619
Pd 22.1471 21.1471 6.56886
Au 24.428 25.4394 7.54419
Au 22.16 24.0019 6.55285
Pd 22.0765 26.8199 6.75038
Pd 8.15498 18.373 29.1339
Au 10.4059 16.9169 30.1344
Au 12.776 15.462 31.051
Pd 15.0899 14.0519 31.8978
Au 17.3879 12.6398 32.7791
Au 8.12512 21.177 29.1506
Au 10.3379 19.7766 30.2389
Au 12.6413 18.3274 31.2203
Pd 15.0159 16.8681 32.0601
Au 17.329 15.4618 32.9549
Pd 10.408 22.6082 30.0666
Au 12.6223 21.2328 31.1944
Au 14.9432 19.7872 32.1695
Au 17.3294 18.3118 33.0349
Pd 12.7201 24.065 30.9995
Au 14.951 22.6885 32.1211
Au 17.3529 21.2383 33.065
Au 15.0629 25.5419 31.931
Au 17.3671 24.1487 32.9869
Au 17.4486 26.983 32.772
Au 8.26002 18.2651 10.2276
Au 10.5471 16.8454 9.33361
Pd 12.8861 15.413 8.485
Au 15.22 13.9824 7.60398
Au 17.5475 12.5892 6.79795
Au 8.25066 21.1068 10.218
Au 10.4615 19.6953 9.1959
Au 12.7889 18.2416 8.27082
Pd 15.1359 16.8116 7.45707
Au 17.4732 15.396 6.59526
Pd 10.5205 22.513 9.34011
Pd 12.7734 21.1459 8.29632
Pd 15.0927 19.6895 7.40814
Pd 17.4803 18.2483 6.56366
Au 12.8073 23.9778 8.39264
Pd 15.0905 22.572 7.41407
Au 17.4359 21.113 6.49426
Au 15.146 25.4164 7.50295
Pd 17.4622 24.0097 6.57229
Au 17.4913 26.8396 6.67345
Au 29.2195 31.3643 18.3418
Au 30.1666 29.0856 16.8986
Au 31.0786 26.771 15.4589
Au 31.9706 24.3979 14.0164
Au 32.81 22.0153 12.6153
Au 29.2045 31.3824 21.1834
Pd 30.2184 29.1546 19.7695
Pd 31.1858 26.8486 18.3073
Au 32.1559 24.4972 16.8744
Au 33.0036 22.07 15.4427
Au 30.137 29.1122 22.6439
Au 31.2203 26.8729 21.226
Au 32.1803 24.5256 19.7984
Au 33.0696 22.0891 18.3421
Pd 31.032 26.7779 24.0739
Au 32.128 24.5369 22.6866
Pd 33.0181 22.1001 21.2409
Au 31.9391 24.4596 25.533
Au 32.9871 22.1475 24.1245
Au 32.7822 22.0987 26.9661
Au 10.2296 31.3686 18.2631
Au 9.298 29.0591 16.8027
Au 8.4144 26.6794 15.3338
Au 7.58414 24.3315 13.911
Au 6.78058 21.9973 12.5018
Pd 10.2783 31.3259 21.1082
Au 9.17248 29.1481 19.7035
Au 8.21834 26.8141 18.2173
Au 7.35598 24.436 16.7504
Pd 6.60832 22.0404 15.3225
Pd 9.34619 29.0222 22.5635
Au 8.21642 26.8129 21.1809
Pd 7.33685 24.4434 19.6993
Au 6.47504 22.0625 18.2511
Au 8.40617 26.6983 24.0236
Au 7.34058 24.434 22.6343
Pd 6.50786 22.0629 21.1717
Au 7.54956 24.3543 25.443
Pd 6.58048 22.0645 24.0578
Au 6.72598 22.0416 26.8458
Au 29.2723 8.21243 18.3891
Au 30.2012 10.4573 16.9688
Au 31.1201 12.7737 15.5119
Au 31.9763 15.112 14.0538
Au 32.7781 17.4078 12.6538
Pd 29.2246 8.23304 21.2104
Pd 30.2534 10.4427 19.8018
Pd 31.2146 12.7089 18.3733
Au 32.1573 15.0475 16.9169
Pd 32.9084 17.4047 15.4548
Au 30.1927 10.5083 22.6535
Au 31.235 12.7367 21.2468
Au 32.1756 15.0395 19.8453
Pd 32.9781 17.3953 18.3649
Au 31.1018 12.8368 24.0989
Pd 32.071 15.0812 22.7078
Au 33.0152 17.3746 21.2592
Au 31.9427 15.1453 25.5235
Pd 32.9091 17.4214 24.1212
Au 32.7703 17.4786 26.9481
Au 10.3463 8.11156 18.3317
Pd 9.42749 10.4019 16.8747
Au 8.48986 12.7119 15.3902
Pd 7.6442 15.0762 13.9466
Au 6.79833 17.3866 12.5144
Au 10.3299 8.12089 21.1654
Au 9.24649 10.3205 19.7324
Pd 8.33568 12.6374 18.2542
Au 7.39585 14.9582 16.7983
Au 6.56886 17.3413 15.3563
Au 9.35432 10.424 22.6132
Au 8.27361 12.6599 21.1908
Au 7.33984 14.9899 19.7336
Au 6.48742 17.3664 18.2864
Pd 8.46373 12.7913 24.0418
Au 7.36944 15.0155 22.6295
Au 6.47421 17.3897 21.1617
Au 7.5553 15.143 25.4751
Au 6.54022 17.406 24.0564
Au 6.73171 17.4764 26.8639
Pd 18.3392 29.2231 31.3179
Au 16.8724 30.2065 29.0595
Au 15.3987 31.1196 26.7255
Au 13.9526 31.9793 24.3727
Au 12.5275 32.8002 22.0123
Pd 21.1495 29.2187 31.3134
Au 19.7441 30.3207 29.1298
Pd 18.2672 31.233 26.8034
Au 16.8166 32.1629 24.4889
Au 15.372 33.0116 22.0862
Pd 22.6087 30.1617 29.035
Au 21.2122 31.2801 26.8232
Au 19.7219 32.2065 24.5017
Au 18.2876 33.0879 22.0959
Au 24.0833 31.0859 26.7021
Au 22.6879 32.151 24.472
Au 21.2242 33.0707 22.1049
Pd 25.4819 31.8979 24.3309
Au 24.1187 32.9612 22.0888
Pd 26.8845 32.72 22.017
Pd 18.2954 10.3691 31.3475
Pd 16.8828 9.43163 29.0604
Pd 15.4596 8.52754 26.7744
Au 14.0259 7.57492 24.4355
Pd 12.6412 6.76157 22.0409
Au 21.1286 10.3132 31.4099
Au 19.7129 9.24958 29.1882
Au 18.2645 8.31209 26.8847
Au 16.8582 7.38629 24.5557
Au 15.4439 6.51329 22.1345
Au 22.6024 9.3717 29.1239
Pd 21.1942 8.34192 26.8857
Au 19.7575 7.34703 24.5543
Au 18.346 6.44894 22.1351
Pd 24.0479 8.49863 26.7775
Au 22.6786 7.39296 24.5437
Pd 21.234 6.50739 22.1236
Pd 25.5142 7.62275 24.4242
Au 24.1298 6.54438 22.1531
Au 26.961 6.75872 22.0989
Au 18.3603 29.1674 8.0936
Au 16.8931 30.1073 10.3667
Au 15.4429 31.0159 12.6589
Pd 13.993 31.9005 15.0393
Au 12.5434 32.7904 17.3778
Au 21.2163 29.1561 8.11987
Au 19.7939 30.2415 10.3011
Au 18.2934 31.2129 12.5739
Au 16.8288 32.1398 14.917
Au 15.3812 32.9995 17.3164
Au 22.6561 30.0873 10.4094
Au 21.2626 31.2044 12.6219
Au 19.7958 32.1812 14.9321
Au 18.3153 33.0765 17.3233
Au 24.1072 31.0231 12.709
Au 22.6956 32.1251 14.9671
Au 21.2401 33.0703 17.3541
Au 25.5433 31.9284 15.0668
Au 24.1204 32.9787 17.3863
Au 26.9375 32.7822 17.4496
Au 18.4198 10.3023 8.20126
Pd 16.9827 9.39959 10.4749
Au 15.5077 8.43234 12.7609
Au 14.0566 7.54042 15.1225
Pd 12.6687 6.7545 17.4903
Au 21.2645 10.3056 8.21606
Pd 19.8288 9.29737 10.405
Au 18.3577 8.26984 12.6853
Au 16.8958 7.34633 15.0676
Pd 15.4802 6.57681 17.4325
Pd 22.6901 9.41472 10.5033
Au 21.2947 8.28736 12.6988
Au 19.8218 7.31103 15.0759
Au 18.3605 6.48869 17.4243
Au 24.1421 8.47833 12.7927
Au 22.7409 7.37379 15.074
Pd 21.2465 6.53117 17.4455
Au 25.577 7.60549 15.1602
Pd 24.1583 6.61801 17.4482
Au 26.9663 6.77334 17.4923
Pd 30.5737 15.9978 27.907
Au 30.5831 23.6406 27.9551
Au 29.7819 13.6114 26.5103
Pd 29.7237 25.9699 26.4926
Au 28.9069 11.2783 25.095
Au 28.8319 28.3326 25.0727
Au 27.9572 8.94691 23.6246
Au 27.8849 30.6372 23.5786
Au 28.3149 14.4957 28.8939
Au 28.2422 25.1161 28.8826
Au 27.4575 12.1408 27.4547
Pd 27.3661 27.422 27.4295
Au 26.5068 9.77016 26.0072
Pd 26.4439 29.7717 25.9203
Au 25.9658 13.0477 29.8002
Pd 25.8915 26.4932 29.7398
Au 25.0439 10.6612 28.3461
Au 25.0435 28.8962 28.2952
Au 23.5541 11.6207 30.661
Au 23.565 27.957 30.598
Au 30.6099 15.9032 11.6542
Au 30.6441 23.5475 11.5875
Au 29.7883 13.5577 13.0569
Au 29.7751 25.9779 13.0275
Au 28.9156 11.2236 14.5164
Pd 28.8479 28.2807 14.5124
Au 27.9653 8.93744 15.998
Au 27.937 30.5896 15.9183
Au 28.2883 14.4472 10.7198
Au 28.3254 25.024 10.6208
Pd 27.4077 12.1224 12.1566
Pd 27.4192 27.3988 12.1086
Au 26.5306 9.80273 13.5828
Au 26.5313 29.716 13.5472
Pd 25.9426 13.0515 9.85295
Au 25.9852 26.4677 9.72318
Pd 25.0618 10.731 11.3024
Au 25.0805 28.83 11.2087
Au 23.6514 11.6223 8.99831
Au 23.602 27.8713 8.88364
Au 8.86934 15.9596 27.8811
Au 8.86148 23.5685 27.8483
Au 9.71237 13.5647 26.4842
Au 9.70159 25.9417 26.4355
Au 10.6411 11.188 25.0423
Au 10.5982 28.2904 25.0032
Au 11.6121 8.89132 23.5955
Au 11.5378 30.6028 23.5327
Au 11.187 14.4762 28.8738
Au 11.1551 25.0499 28.8248
Au 12.0822 12.0634 27.4541
Au 12.0181 27.4524 27.3809
Au 13.0282 9.75212 25.9797
Pd 12.9913 29.7679 25.8796
Au 13.5713 13.0386 29.7749
Au 13.497 26.5269 29.7475
Pd 14.5062 10.717 28.3027
Au 14.4169 28.9253 28.2716
Au 15.8986 11.635 30.5941
Au 15.9037 27.9796 30.6031
Au 9.00497 15.8833 11.5472
Pd 8.97821 23.4563 11.5484
Au 9.81953 13.5231 12.9696
Au 9.74022 25.8679 12.9113
Pd 10.7213 11.1992 14.4689
Au 10.5998 28.2721 14.3583
Au 11.6521 8.87242 15.9254
Au 11.5503 30.6143 15.8439
Pd 11.3144 14.4606 10.6603
Pd 11.2719 24.9322 10.5937
Au 12.1625 12.0419 12.0643
Au 12.0932 27.3895 11.9685
Au 13.0817 9.73463 13.5369
Au 13.0156 29.7499 13.4409
Au 13.6552 12.982 9.74962
Au 13.599 26.4356 9.6704
Pd 14.5712 10.6659 11.2488
Pd 14.5241 28.7922 11.1362
Pd 16.0604 11.6237 8.96398
Au 15.9529 27.8549 8.84491
