923
Atoms. Timestep: 20520
Au 23.9359 17.8166 21.4834
Au 21.6751 18.4561 17.1309
Au 23.7648 17.9581 18.9033
Au 19.5809 22.1946 24.6736
Au 18.8562 18.4186 17.2236
Au 17.1522 22.3773 20.4545
Au 19.4837 21.0536 16.6356
Au 11.6055 18.7741 16.1045
Au 19.8297 21.588 21.5872
Au 19.5531 7.78749 18.3207
Au 16.9723 13.6612 19.5729
Au 15.1446 21.0513 14.5095
Au 17.9449 17.0195 15.0216
Pd 27.3227 17.794 8.67623
Au 20.0676 21.7066 11.2357
Au 22.3234 23.3361 25.5989
Pd 19.5108 16.7613 12.927
Au 7.4525 20.8644 17.1561
Au 14.6139 17.5986 28.6636
Pd 15.1964 32.6136 24.4528
Au 16.7137 30.9179 22.8173
Au 19.2698 30.6574 23.7532
Pd 19.2583 12.5176 20.4683
Au 23.0949 12.0753 14.9304
Au 21.6391 16.6288 20.7118
Au 21.1061 19.1359 25.1746
Au 17.4303 20.4916 28.8466
Au 18.7298 22.6784 27.2476
Au 20.94 15.1717 10.7963
Au 15.916 24.7778 16.4065
Au 14.1039 23.7805 14.6404
Au 22.9491 14.0081 26.4998
Au 18.6109 20.0911 26.2953
Au 25.6999 16.5392 10.4731
Au 23.0547 18.1184 14.6875
Au 18.6976 17.6144 25.3034
Au 16.1515 18.8856 26.7889
Pd 16.9642 13.4896 10.2556
Au 17.2449 26.2814 11.2843
Pd 20.135 25.2362 17.9669
Au 24.1515 22.6999 16.1634
Au 13.2332 19.0525 23.551
Au 8.85982 21.0662 11.9653
Au 27.1376 26.4579 17.3417
Au 26.5873 18.8071 21.7461
Au 15.787 16.0801 20.4777
Au 15.1284 20.584 19.4353
Au 16.3038 21.926 26.6293
Au 14.7723 21.2459 22.3835
Au 20.7883 13.9904 22.3906
Au 20.444 16.9718 23.1158
Au 15.0124 18.6171 21.4558
Au 18.9619 19.3712 12.1193
Au 17.3011 19.987 21.5997
Au 20.2504 18.8493 14.7753
Au 22.4554 15.8791 17.9236
Au 23.1676 22.0666 18.6185
Au 18.7788 20.4758 19.2353
Au 23.6491 20.7677 25.8674
Au 15.6257 30.0076 10.499
Au 17.8543 23.0433 17.9383
Au 15.0162 18.0819 14.296
Pd 16.5893 14.3449 22.4414
Au 12.3254 25.0522 19.8074
Au 19.9025 24.8135 25.895
Pd 15.8701 28.2903 22.2477
Au 20.9431 29.0439 20.7634
Au 10.7594 11.9778 18.7369
Au 16.1482 12.9539 17.1245
Au 19.7525 9.9284 19.8925
Au 27.6581 9.4071 26.5014
Pd 22.8783 13.5802 29.2648
Pd 26.9399 16.7078 26.5402
Pd 21.3694 16.184 25.5494
Au 16.0935 26.6758 28.7322
Pd 22.3392 13.7492 8.925
Pd 18.2959 15.8143 10.739
Pd 20.997 23.3245 16.069
Au 20.6862 25.6929 14.6195
Pd 26.3086 21.4404 24.8479
Au 22.2884 9.08684 23.9078
Pd 24.4866 15.9708 25.4976
Pd 20.4668 18.089 27.5066
Au 23.1062 20.0803 28.6362
Au 26.8238 22.1429 15.6429
Au 19.5466 14.1225 12.9196
Au 18.7499 23.9996 13.2462
Au 25.4411 13.6585 9.21506
Au 22.5747 22.5396 11.0362
Au 18.9177 15.3352 26.7839
Au 14.482 13.6087 20.7314
Au 14.7263 20.8506 28.4919
Pd 18.0252 17.7848 28.386
Au 17.5368 26.3918 26.3421
Au 15.8327 12.822 14.48
Pd 21.4029 14.0708 19.7771
Au 15.377 24.1197 19.2142
Au 15.772 28.3362 12.5469
Au 20.1638 27.5206 9.80256
Au 21.898 26.012 24.5261
Au 24.5209 20.3359 20.3423
Pd 22.5321 21.848 21.3506
Au 20.9438 29.3515 18.0375
Pd 21.8994 21.2908 23.846
Au 17.9372 20.0237 7.25646
Au 13.6521 28.4337 16.5529
Au 10.8114 23.9837 24.5723
Au 10.4075 25.4405 17.4014
Au 12.3416 20.1264 18.4386
Au 23.0681 15.2521 23.098
Pd 22.0797 20.8502 15.7752
Au 24.32 20.1407 23.1284
Au 18.6846 15.0701 24.0145
Au 26.3429 21.6798 22.1133
Au 11.639 12.294 21.4127
Au 11.6459 14.6835 17.3561
Pd 16.1983 18.7987 24.0471
Au 17.0662 18.2378 19.4066
Au 11.7503 17.237 18.438
Au 17.0373 21.4548 23.9591
Au 10.0634 18.4398 20.14
Au 19.8279 27.7327 25.8224
Au 25.1907 23.4667 26.2719
Au 29.4004 21.8533 25.2892
Au 20.7054 13.5668 25.083
Au 12.7095 17.1802 21.1572
Au 13.3875 12.6107 18.4766
Au 19.7883 7.8819 24.2355
Au 20.9704 11.1558 22.1226
Pd 21.6766 19.2726 22.1049
Au 13.5369 32.4703 17.1579
Au 21.8945 26.8691 19.3616
Au 19.4892 18.2995 20.7465
Pd 21.972 15.6536 13.292
Au 20.7695 13.4362 15.1923
Au 7.94824 11.6083 18.5605
Au 13.6507 13.8697 15.8656
Au 23.5588 9.35882 14.9421
Au 22.3149 13.2793 17.3471
Au 24.7656 13.3557 24.4601
Au 24.1642 22.9858 23.5252
Au 16.909 14.9367 13.016
Pd 18.4955 28.7092 11.9456
Pd 19.162 19.5919 23.4222
Au 11.9978 14.7236 19.9615
Pd 16.1093 17.8464 16.8443
Au 18.1727 30.8761 10.461
Au 31.8166 21.232 13.1523
Pd 26.047 21.7778 18.4484
Au 26.163 24.766 15.394
Au 26.3308 24.4932 22.4204
Au 26.4652 19.7286 30.2245
Pd 6.10355 23.2314 17.6936
Au 19.922 16.3604 18.5837
Au 13.2208 20.7884 10.0398
Au 5.7453 24.106 20.2792
Au 8.22042 23.2799 25.3396
Au 21.7797 27.0834 16.6097
Au 18.7754 26.1468 23.7337
Au 15.5932 23.9151 21.9743
Au 19.8691 29.778 8.52316
Au 25.9254 30.9689 18.5951
Au 10.7779 14.6063 28.4774
Au 17.9422 11.6815 8.46839
Au 21.1693 8.7662 26.609
Au 29.9807 11.379 22.985
Au 26.8657 11.5423 18.5741
Au 20.4332 13.4385 28.0289
Pd 22.1342 19.5855 31.2262
Au 20.1367 20.0805 29.2531
Au 17.2769 27.0296 31.1374
Au 16.8 29.0394 27.1629
Au 13.7332 18.8905 6.82711
Pd 21.4213 23.4036 13.3594
Au 22.3244 19.9286 10.3576
Au 20.4274 28.3074 13.9309
Pd 18.2782 23.6356 22.6719
Au 27.9422 19.6195 26.2155
Au 23.0912 17.8316 24.0571
Pd 21.8103 11.4158 26.8559
Au 25.7158 20.9238 27.6071
Au 29.0901 16.4454 30.8235
Au 29.2814 13.6316 30.0816
Pd 21.0414 23.7657 28.139
Au 24.5158 15.7318 28.1825
Pd 22.4283 25.2805 29.8215
Au 24.7437 20.514 14.4581
Pd 23.915 16.0019 8.50469
Au 21.4923 13.9988 6.37976
Au 26.8997 20.4898 8.60291
Au 26.2017 15.6152 15.0104
Pd 22.2508 21.1535 7.38874
Pd 26.0729 18.2251 13.9845
Pd 24.2868 21.5692 9.09531
Pd 22.5799 29.3228 9.40949
Au 12.8791 13.1451 29.5187
Au 16.4111 16.2048 25.1906
Pd 20.6589 16.0605 34.1622
Pd 16.3518 23.1174 29.3145
Au 18.4347 17.5143 34.63
Au 21.651 15.8527 28.3011
Au 13.6627 29.8249 21.9738
Au 13.6617 23.7511 29.2419
Au 14.354 27.6285 30.5216
Au 11.9409 21.6641 28.8927
Pd 16.2213 17.946 7.22557
Au 7.87858 24.5765 15.5534
Au 10.4505 24.9532 10.7626
Au 15.1706 15.8719 11.0123
Au 20.5422 22.5044 18.7591
Au 11.6517 23.5236 8.69398
Au 22.5957 25.5049 12.2057
Au 22.9906 19.1627 5.5106
Pd 27.9351 29.0375 16.9609
Pd 26.2571 28.2377 19.2295
Au 30.4547 22.3231 20.0722
Au 24.4172 26.8252 17.0899
Au 21.9758 24.2821 20.3317
Au 24.2521 20.052 17.1529
Au 21.5907 19.8842 19.4497
Au 24.7047 23.3711 20.5784
Au 29.7762 26.8632 25.7441
Au 5.52637 14.7562 15.881
Au 7.61224 18.5672 12.2881
Au 11.268 9.55353 21.2198
Pd 12.0641 27.4014 21.2773
Au 11.3022 27.0016 12.3385
Au 4.88042 18.4036 20.1297
Au 15.4442 24.583 27.0293
Au 12.1487 12.5731 24.2815
Au 13.5103 26.3036 28.089
Au 22.6055 6.29731 20.7071
Au 24.1452 23.0207 13.4315
Au 28.6348 20.9963 17.8402
Au 29.5404 14.0513 23.6434
Au 26.6629 13.9898 19.6463
Au 29.2242 17.3254 10.637
Pd 23.8993 15.2144 20.2639
Au 28.7669 18.2106 19.162
Au 26.2342 16.6869 19.9701
Au 17.5583 17.1641 22.4613
Au 12.615 9.81622 18.7902
Au 11.2734 10.3091 13.9384
Au 9.32713 16.5707 24.3493
Au 9.29372 13.6795 20.262
Au 11.5952 22.7478 18.2451
Au 7.82665 12.2404 23.1737
Au 16.3482 15.5971 27.8236
Pd 12.8834 19.3209 29.8439
Au 18.5669 28.4784 22.0195
Au 28.9814 30.6353 22.0919
Pd 14.6219 26.5305 18.2501
Au 25.7951 29.5327 28.3153
Pd 26.336 29.0036 24.1226
Au 21.6677 31.0203 22.3967
Au 30.446 27.3164 23.1936
Pd 16.9756 31.0935 25.5678
Au 24.1075 29.4389 30.5153
Au 16.6945 11.6038 21.2319
Au 8.44975 17.9775 26.6701
Au 6.82815 14.1567 18.3666
Au 18.5271 9.79466 22.5534
Au 20.16 10.7345 24.6769
Au 15.8205 6.90076 21.7769
Pd 26.2582 11.4152 25.7739
Au 18.2423 6.77831 26.337
Au 28.8054 15.5297 19.3903
Au 19.1951 27.5057 19.3967
Au 14.954 27.3254 25.9764
Au 12.7632 30.7642 15.1921
Au 24.6547 24.0897 10.8368
Au 14.5582 26.296 21.0035
Au 19.7116 33.6487 19.8359
Au 23.4339 30.9482 11.4441
Pd 23.2756 25.0081 15.078
Au 27.0859 32.3197 20.6185
Pd 22.8954 10.347 12.6271
Au 10.7983 16.8845 11.3209
Au 11.089 14.3694 14.414
Au 16.554 15.7857 8.72963
Au 15.8226 15.4304 15.695
Au 19.3872 13.6254 17.8474
Pd 26.9719 8.80971 18.8837
Pd 19.0383 14.5115 8.39881
Au 22.6328 11.8631 24.2132
Pd 30.3559 16.5838 24.0403
Au 28.9764 25.3373 22.1095
Pd 25.5584 16.7515 23.1958
Au 23.8139 31.0187 20.5597
Au 18.8466 15.3089 20.8982
Au 21.0819 23.829 22.9647
Au 24.8377 18.8855 9.38215
Au 24.4421 26.1879 19.8868
Pd 27.2861 12.4323 23.3414
Au 24.6206 33.0117 16.592
Pd 22.8777 17.1209 10.6036
Au 22.3359 20.7706 13.1064
Pd 17.5699 13.2404 28.6184
Pd 8.46295 20.7696 26.4741
Au 10.7327 19.1884 25.3656
Au 21.1663 21.2263 27.0096
Au 21.2083 15.0255 31.0172
Pd 14.5601 20.5571 25.2281
Au 9.13688 16.7217 13.5066
Pd 8.90399 23.088 17.454
Pd 9.2807 12.2578 14.2989
Au 13.2027 24.5161 17.1582
Au 9.88474 9.49077 18.7701
Au 13.5913 22.0239 12.5399
Au 31.6557 23.9294 12.3318
Pd 30.8514 19.9602 18.8853
Au 24.9913 17.5692 16.4599
Au 27.9162 17.6482 24.1924
Au 27.6751 23.9105 24.6798
Au 28.221 24.5251 29.2256
Au 12.4301 20.0862 21.1094
Au 14.2856 17.9502 18.8664
Pd 17.4655 28.5241 24.5302
Pd 8.15936 19.1791 24.2795
Pd 13.2086 31.4803 19.6897
Pd 10.1953 20.9219 16.5576
Au 8.50914 21.875 14.7292
Au 9.29267 25.4824 26.416
Au 14.4407 32.4776 21.9457
Au 25.3064 32.081 27.6018
Pd 23.2059 31.2569 17.8795
Pd 22.7355 29.4959 15.9246
Pd 18.4383 11.8181 15.5434
Au 13.6591 10.7461 28.2541
Pd 20.9572 8.29107 21.6334
Au 20.398 6.39736 15.7738
Au 26.1362 13.9576 26.7681
Au 25.2777 12.8838 16.3784
Au 25.6392 13.5903 29.5066
Au 27.1462 14.6777 31.6124
Au 18.2418 18.9043 31.0645
Au 13.3215 21.8397 33.5786
Au 19.1091 22.6326 29.8582
Pd 26.2274 22.7708 32.3898
Pd 25.6817 10.0487 16.6228
Au 22.0714 11.4206 10.2499
Pd 17.1863 22.6648 8.18769
Au 15.9697 24.182 12.6793
Au 19.8606 21.447 6.02942
Au 21.6022 23.495 6.13516
Au 25.4843 18.7299 25.2465
Au 30.4611 15.7665 28.5542
Au 29.7612 17.5505 26.5073
Au 25.0066 13.1515 32.2979
Au 30.5452 13.1596 27.5919
Au 25.412 18.3469 28.0793
Au 27.1698 11.9386 30.7383
Au 20.232 18.5282 32.9419
Au 24.4755 26.7338 31.0966
Pd 26.0755 16.8417 30.3067
Au 24.7037 18.6096 31.9727
Pd 23.6294 22.7841 28.2994
Pd 21.8552 22.1327 30.1144
Au 20.5736 23.8506 31.7929
Au 29.457 22.5399 12.9138
Pd 24.5231 16.3545 12.9419
Pd 24.6238 13.7458 13.6244
Pd 24.277 18.9172 12.1105
Au 27.9211 15.1532 9.73223
Au 29.73 19.6687 12.212
Au 23.4218 15.2298 15.5115
Au 18.1377 18.0806 5.27167
Au 25.0663 17.7713 6.82569
Au 25.1741 25.5526 8.58974
Au 20.1502 19.9959 8.74636
Au 19.9913 22.7344 8.46073
Pd 18.0398 23.5101 10.7063
Au 15.9873 33.4762 16.8772
Au 8.79858 15.3394 26.8706
Au 13.306 15.3424 27.6924
Pd 14.9327 13.2057 27.5176
Au 17.6894 10.8488 30.2193
Au 11.9858 16.7404 24.0033
Pd 16.4389 17.8845 32.8568
Au 13.9277 14.5572 25.1227
Pd 24.369 21.1492 30.9754
Au 11.2394 17.0761 27.0171
Pd 15.5651 19.2983 30.6633
Au 17.312 13.9652 31.2221
Au 12.9652 23.8719 31.9386
Au 22.8151 21.8378 35.416
Au 20.8288 18.3932 35.5484
Pd 6.29915 18.486 17.7177
Au 10.0294 16.6269 8.75201
Au 14.5977 21.7081 6.02931
Pd 12.6819 21.7192 15.8457
Pd 12.8703 19.6718 13.8521
Au 15.829 24.7481 9.52609
Pd 14.8913 22.3112 17.2207
Au 20.601 11.9204 7.82491
Au 12.3888 26.4966 9.86356
Pd 18.5608 24.7631 15.9171
Au 21.1903 16.1551 8.22603
Au 17.5458 31.5684 15.7631
Au 16.8088 20.4479 17.2365
Au 17.2448 22.5328 15.2479
Au 29.8181 25.7233 16.9324
Au 20.6919 30.2488 11.0872
Au 33.1013 19.3968 20.1785
Au 29.004 22.4601 8.41328
Au 27.2531 29.5905 14.0844
Au 29.0947 27.4806 19.0554
Au 29.1119 27.103 10.5454
Au 27.6832 23.15 20.2582
Au 23.8444 27.937 24.0525
Pd 25.7477 27.1427 22.1428
Au 29.7994 24.8768 19.5046
Au 32.8542 20.2837 25.6243
Au 27.9952 23.7396 17.6367
Au 21.1088 28.4711 23.4937
Au 9.2488 23.7767 12.9554
Au 20.5953 26.3247 21.7334
Pd 9.78997 21.4075 24.0074
Au 13.2022 28.7423 11.1282
Au 13.4346 16.7497 16.2432
Au 10.3563 20.9935 9.21055
Au 16.5633 28.1865 19.5952
Au 11.8653 17.0421 13.9207
Au 11.211 27.1566 27.2271
Au 12.1845 25.9199 30.3094
Au 9.81303 26.0928 14.4078
Pd 13.0914 25.3276 25.4602
Au 11.2779 10.437 25.823
Pd 7.38026 19.5105 19.8241
Pd 25.8561 11.7167 21.1383
Au 32.0438 11.9176 14.8967
Au 29.9108 13.2165 15.9173
Pd 27.3694 20.6395 13.4003
Au 24.1401 7.47587 22.6628
Pd 23.3632 9.85843 21.5486
Au 26.3476 19.0982 18.749
Au 29.485 20.9889 15.1829
Au 32.1199 17.6964 22.1081
Pd 27.8886 15.7786 22.0055
Pd 29.2213 12.8771 18.5085
Pd 30.8593 20.2535 21.7568
Pd 30.656 19.3125 24.3887
Au 28.1084 17.9093 28.7283
Au 13.1016 10.5114 11.7733
Au 13.1738 8.77858 26.3561
Au 9.18807 13.6551 17.0278
Au 13.3867 17.8005 11.787
Au 9.02324 11.0439 20.9768
Au 14.3392 7.79192 24.2275
Au 5.56472 13.9448 22.9422
Au 8.54267 20.5988 21.8437
Au 9.17509 10.6261 16.4024
Pd 16.5433 11.0213 27.4872
Pd 11.1366 14.7678 25.5976
Au 13.4637 22.6249 26.6572
Au 8.5694 23.2659 22.3882
Pd 12.4912 21.7907 23.9451
Au 20.8428 31.9143 27.9843
Au 17.8599 33.1407 24.1334
Au 8.36482 25.6506 23.88
Au 9.42446 21.2257 29.92
Au 19.8526 26.1828 30.6815
Au 18.6964 30.692 29.0854
Pd 19.9279 33.0184 22.4282
Au 11.917 30.2441 17.699
Au 27.1339 30.8504 26.0055
Au 24.8869 33.0236 22.1378
Au 18.3555 32.7173 27.1196
Pd 23.4419 28.383 21.4619
Au 24.1869 30.6308 23.2879
Pd 28.2734 30.0048 19.6386
Au 14.7762 8.11073 19.5702
Pd 18.5084 12.48 23.205
Au 5.93527 19.257 22.5909
Au 13.8344 9.26849 14.2192
Au 20.8536 8.76836 29.3475
Au 24.3535 11.3411 30.4063
Pd 17.227 9.04905 20.2955
Au 20.0068 6.59806 28.2532
Au 27.9384 12.3111 28.0519
Au 24.7908 7.47105 19.9489
Au 14.7703 12.3969 23.1721
Au 20.1046 5.98821 20.1041
Au 17.9206 6.29115 16.6674
Au 27.8503 9.89638 23.7804
Au 14.8312 23.325 24.4637
Pd 25.1491 25.6077 13.0632
Au 16.4704 27.9493 16.7841
Au 11.7209 31.7049 21.8967
Pd 15.3191 29.6952 14.9127
Au 23.6673 28.8385 18.7643
Au 14.0488 30.763 12.6862
Au 9.69325 24.0263 19.8713
Pd 21.226 31.4954 19.6847
Pd 22.0287 30.3958 13.5468
Au 27.6231 26.6405 24.2182
Au 17.3554 26.0214 21.293
Au 22.1255 33.6684 18.2235
Au 26.8855 31.6316 15.8626
Au 14.7531 13.2453 11.8568
Au 15.3412 19.7464 11.6874
Au 14.2963 16.1152 7.28859
Au 17.034 7.88206 24.1299
Au 27.9604 8.6956 16.3276
Au 16.4208 13.453 7.34653
Au 23.7458 7.81101 12.6746
Pd 17.7452 12.288 12.6209
Au 21.6486 8.55048 10.9318
Au 20.4508 11.0939 17.4029
Pd 22.2521 8.69102 19.2518
Au 21.0375 8.18884 13.6718
Au 22.0032 6.31076 17.9948
Pd 23.1712 10.7184 17.2791
Au 32.3087 17.9849 27.2065
Au 26.207 22.68 29.6157
Pd 27.0541 14.9154 24.4327
Au 28.2365 28.0391 21.7295
Au 31.499 12.9867 24.9632
Au 30.1758 22.5877 28.6791
Pd 23.2446 17.6039 29.712
Pd 20.9008 29.0855 28.393
Au 27.3021 17.5541 32.5915
Au 31.6923 27.0973 18.3141
Au 26.1862 10.3133 28.5944
Au 23.2307 25.47 26.9322
Pd 24.3202 12.7877 19.0452
Au 28.1889 25.2743 8.33275
Au 25.6426 11.1988 14.0685
Au 25.7378 27.4836 14.8843
Au 33.1658 15.532 20.7713
Pd 20.0859 30.2732 15.7043
Au 20.5923 16.1811 15.7162
Au 24.9213 20.4175 6.73677
Pd 24.5927 12.0216 11.4401
Pd 26.8448 23.4106 13.0005
Pd 18.2752 14.4228 15.4638
Au 20.6486 24.4788 10.4464
Au 12.8307 19.5446 27.0604
Au 12.8471 31.3591 24.2429
Au 12.047 16.71 29.7538
Pd 14.287 28.9517 28.1421
Pd 12.7264 14.5925 22.5709
Au 10.7432 23.6167 30.3076
Au 11.5332 8.315 24.0296
Au 13.996 17.4013 25.7943
Au 7.59001 14.3965 24.6999
Au 12.6321 28.9011 25.7537
Pd 16.7326 10.7483 24.5266
Au 20.8614 26.4529 28.0307
Pd 11.0509 21.6908 13.7016
Au 7.01579 12.4317 16.1121
Au 13.2766 7.96248 21.7821
Au 7.47632 18.634 15.2194
Au 10.8983 12.2153 12.0869
Au 15.9252 30.7617 20.248
Au 9.10639 18.5815 17.6169
Au 17.4028 15.7285 17.9372
Pd 13.0913 12.3208 13.7445
Au 19.7039 21.4549 14.005
Au 12.653 15.9655 9.46623
Pd 11.5362 24.3447 27.5393
Pd 28.8838 23.9535 15.1012
Au 30.5352 16.7646 12.9199
Pd 28.3625 20.5198 20.55
Au 32.6761 18.5363 17.4079
Au 28.4974 20.5897 28.7232
Au 32.951 21.9613 21.2142
Au 27.0826 20.2349 32.813
Au 5.091 20.2154 15.963
Au 8.22938 16.2843 10.8393
Pd 15.5726 9.47832 22.4527
Au 17.5484 28.389 9.34592
Au 8.50676 27.0785 16.5884
Au 15.3935 12.0763 29.9782
Au 7.99854 14.5611 14.743
Au 15.4431 30.6488 17.5221
Au 15.1473 33.2815 19.3921
Au 10.907 28.345 15.7849
Au 26.8759 33.3996 18.031
Pd 32.3735 24.2208 19.3625
Au 26.943 31.5992 23.3735
Au 16.2372 31.4294 28.2458
Au 16.2632 10.2497 15.6075
Au 15.4869 20.413 33.2696
Au 15.4292 6.30329 17.5877
Au 18.5054 7.08816 21.8975
Pd 29.2452 10.1872 18.216
Au 24.0677 9.47969 10.1356
Au 28.9747 11.9278 25.5441
Au 22.8103 14.5644 33.5182
Au 15.6247 9.32965 29.287
Au 19.8946 13.8032 32.9227
Au 22.7466 19.4163 33.9945
Au 19.8933 21.0684 31.9107
Au 24.0368 23.7954 31.1845
Au 18.5699 22.8002 33.51
Au 15.9654 19.6559 5.27162
Au 12.3742 21.0892 7.47552
Pd 20.1703 17.7824 10.2298
Pd 19.8809 26.3255 12.1644
Au 15.8464 24.211 6.52592
Au 17.2507 21.6 12.6202
Au 29.2915 19.7822 9.49831
Pd 30.3803 24.4986 24.3473
Au 28.9852 19.2413 31.1685
Au 30.6696 18.4384 29.2496
Au 23.9855 15.2527 31.0105
Pd 18.9685 15.3926 29.5026
Pd 28.3023 20.1805 23.3911
Au 21.9309 27.8949 30.7969
Au 24.8112 21.0971 33.8454
Au 25.4079 18.4904 34.4904
Pd 23.0868 17.9755 26.8303
Pd 25.1094 25.0332 28.783
Au 22.4134 25.61 32.5625
Au 23.9694 23.7724 33.872
Au 25.1773 16.0175 33.2864
Au 26.5329 25.0889 31.1481
Au 21.189 23.6667 34.3503
Pd 20.4658 20.951 34.5537
Au 27.7458 28.3057 26.7121
Pd 22.4094 21.9105 32.7331
Au 16.4896 29.2827 29.9204
Au 31.5032 11.6654 17.564
Pd 29.6944 11.9735 13.552
Au 30.1697 10.1992 15.6349
Au 28.7516 18.2679 14.3733
Au 26.2204 11.0513 9.64448
Au 27.5755 16.4605 12.5967
Pd 30.023 18.4753 16.7326
Au 26.3582 15.5351 7.5565
Pd 25.1599 15.2624 17.7686
Au 28.0216 9.79721 13.8429
Pd 24.758 29.0161 12.8238
Pd 22.5556 18.4681 8.07253
Pd 27.658 16.9286 17.0316
Au 20.5187 18.7124 6.29646
Au 26.3775 24.7481 6.41947
Au 22.7245 16.4854 6.02215
Pd 20.7548 25.462 7.71973
Au 26.4249 23.2014 8.85958
Au 18.7315 24.1446 6.41198
Pd 22.2317 28.1734 11.7651
Pd 12.4055 26.1363 15.1997
Au 6.66746 16.9215 24.42
Au 16.6932 16.6613 30.4532
Pd 20.4786 17.5408 30.2663
Au 18.4049 9.40799 26.1579
Au 6.02409 22.6103 15.1882
Au 13.1887 19.3346 32.4814
Au 14.1408 17.0876 31.4205
Pd 21.7032 11.2595 29.6066
Au 18.7518 16.2016 32.1998
Pd 15.9366 25.9512 23.821
Au 9.43525 16.9978 29.0615
Au 19.4258 10.8466 28.2395
Au 18.0471 20.0401 33.7462
Pd 14.2868 21.6719 31.016
Au 15.6367 23.1928 32.8592
Au 23.1548 16.9345 34.9903
Au 10.2847 19.453 28.1788
Au 24.5087 30.1022 25.9097
Au 23.1715 30.483 28.2275
Au 11.8309 18.6388 8.96644
Au 4.92354 17.4538 15.6481
Pd 14.5095 15.162 18.2722
Au 11.3909 12.1348 16.042
Au 15.469 20.4107 8.36624
Au 17.5111 19.644 14.6437
Au 9.82022 19.3287 14.0348
Au 17.2316 22.036 5.52923
Pd 18.7798 17.3266 7.92201
Au 16.8853 17.6159 12.4473
Pd 14.1843 19.599 16.5714
Pd 15.5524 22.2506 10.6027
Pd 17.2018 18.2739 9.86457
Pd 14.2458 22.8543 8.3392
Au 13.0238 28.4467 13.8092
Pd 13.8209 25.4483 7.94448
Au 19.9063 16.0142 5.76938
Au 26.4089 14.1642 11.724
Pd 22.7241 23.7819 8.64502
Au 19.9611 32.259 17.4112
Au 22.338 33.5139 21.0483
Au 31.2433 26.4802 11.8699
Au 31.5166 23.1682 14.9319
Au 30.7427 21.791 10.6221
Au 27.0514 18.9984 11.2163
Au 24.4739 31.1919 14.5
Pd 28.3319 26.8428 14.9302
Pd 23.0738 27.4802 14.1944
Au 33.089 16.0006 18.0431
Au 27.4975 11.7309 11.9239
Au 29.7146 24.4962 26.9067
Au 27.7917 29.515 11.2603
Au 26.0347 31.2649 12.2845
Au 31.0602 25.8199 14.4457
Pd 31.642 21.966 23.7292
Au 30.6715 20.2241 27.129
Pd 30.5999 22.9248 17.4464
Au 27.1361 25.5556 26.8581
Au 29.6344 28.3065 13.1201
Au 32.8745 21.6913 18.5732
Au 17.4315 25.7693 18.4241
Au 14.1422 15.464 13.5961
Au 9.58595 28.9668 18.0986
Au 16.3628 26.6236 7.52027
Au 18.3702 25.4229 8.8558
Pd 17.3945 23.9871 25.145
Au 17.8704 29.133 14.6028
Au 29.4602 30.44 15.3333
Au 10.048 16.4582 16.0526
Pd 11.1973 22.4579 11.1813
Pd 18.5854 27.8057 28.6665
Au 21.676 27.9574 7.3169
Pd 11.0635 22.4205 21.6689
Au 6.17249 24.0055 22.9726
Au 9.37871 27.7824 22.2645
Au 13.4437 22.5748 20.3238
Pd 9.40506 15.9121 18.7995
Au 14.9269 29.6225 24.4636
Pd 3.70962 18.7179 17.7442
Au 10.4973 25.3115 22.1261
Au 31.8122 13.1229 21.9887
Au 27.8612 11.4852 16.0332
Au 31.4342 18.938 14.4085
Au 27.0835 19.5109 16.1606
Au 29.1881 14.3187 12.174
Pd 22.0279 11.4434 19.6422
Pd 29.0424 15.6052 14.8824
Pd 27.593 14.2366 16.9516
Au 31.8956 16.5648 15.4539
Pd 31.8686 20.8046 16.2904
Au 32.5912 15.1656 23.5142
Au 30.5734 15.4586 21.4764
Au 31.2844 17.2724 19.4712
Pd 32.3844 14.0284 16.4856
Au 32.8748 17.6673 24.6828
Pd 30.3075 15.6599 17.3017
Au 33.27 19.9185 23.0084
Au 29.3613 18.0582 21.8169
Pd 27.1417 25.7942 20.0641
Au 29.1622 22.5929 22.5722
Au 9.24605 14.2854 12.3097
Pd 13.8981 10.8485 20.8885
Au 5.17418 20.8651 18.7766
Pd 15.5349 10.7452 12.8059
Au 9.13571 18.7918 10.0994
Au 16.051 7.60623 15.1333
Au 5.09429 14.7486 20.3636
Pd 16.8747 8.5883 17.6902
Au 5.69646 21.6383 21.4477
Au 14.0141 26.2013 12.2152
Au 13.8996 28.8906 19.4351
Au 11.5931 9.36928 16.3807
Au 11.9423 24.4138 13.0493
Au 10.7611 23.6702 15.4613
Pd 13.8606 11.1447 16.2179
Au 8.048 17.7515 21.975
Au 12.5945 12.5417 10.1062
Au 5.36544 16.6302 22.142
Au 10.9089 21.8146 26.3844
Au 4.80564 16.2208 18.0956
Pd 19.3496 30.2492 26.4524
Au 9.13814 23.1283 28.007
Au 7.57508 22.3095 19.7425
Au 10.5318 18.8425 30.8535
Au 11.8938 27.4452 18.3448
Pd 21.8528 30.5555 25.1939
Au 7.69176 25.6578 21.247
Pd 17.1488 21.5058 31.4364
Au 10.9055 26.844 24.4815
Au 13.5068 27.3029 23.5447
Pd 25.2308 27.4731 26.4795
Au 19.3902 28.9089 30.9614
Au 14.2621 31.1152 26.5533
Au 17.5923 32.3965 18.6714
Au 28.8104 31.6699 17.6881
Au 20.3101 32.7674 25.2811
Au 22.6142 33.0912 23.7935
Pd 31.4405 24.0594 21.934
Au 28.9539 29.2371 24.3812
Pd 32.3209 24.9281 16.7882
Pd 19.6349 12.747 30.5035
Pd 10.2688 16.1087 21.6422
Pd 17.9284 11.1611 18.2632
Au 15.8264 8.57879 26.5719
Pd 6.78705 12.728 20.7644
Au 14.8662 14.7864 30.0125
Au 23.4795 7.16099 25.3993
Au 22.6805 7.01443 27.9661
Au 9.98408 13.855 23.1251
Au 14.3111 11.1944 25.6824
Au 31.745 15.4467 26.1483
Pd 23.9097 9.92137 25.8985
Au 25.3266 8.09009 27.2661
Au 16.4052 13.4607 25.1532
Pd 24.3545 11.9895 27.6374
Au 21.0086 6.10751 25.8867
Pd 25.0055 10.7202 23.4856
Pd 23.3111 12.7637 21.6895
Au 14.1691 8.53279 16.878
Au 17.3596 6.45021 19.4566
Au 26.8955 27.6501 9.23792
Au 11.2483 19.6675 11.6251
Au 11.0642 29.6272 20.313
Pd 19.195 24.3075 20.2795
Au 7.61846 25.3166 18.4718
Au 23.2971 25.7045 6.68218
Au 24.3457 23.0675 6.64281
Au 29.737 24.2995 10.3909
Au 31.4486 26.4821 20.8724
Au 22.4654 28.1839 26.3536
Au 27.0047 22.1786 6.47498
Au 27.1038 25.1614 10.8037
Au 16.7245 31.0392 12.8563
Au 17.2431 33.1719 21.3621
Au 19.3553 31.0982 13.2443
Au 18.9864 27.4968 7.20098
Au 22.7454 24.6407 17.7356
Au 25.3165 29.6975 10.0997
Au 15.0607 26.6854 14.7205
Au 22.0985 32.2269 15.6559
Au 25.8768 8.178 14.5692
Pd 18.1281 9.82734 13.6514
Au 17.4352 10.2804 10.8617
Au 14.4732 13.9801 9.0508
Pd 12.2839 14.6168 11.9167
Au 25.8743 9.46906 12.0653
Pd 17.2886 15.6541 6.17039
Au 21.5403 8.6551 16.5803
Au 16.3478 8.23378 12.5315
Pd 18.9022 9.0289 16.0275
Pd 17.8072 20.8028 9.99674
Au 23.9219 11.6169 8.2563
Au 21.9736 12.9606 12.5512
Au 20.1284 10.689 12.1166
Au 24.2523 7.88866 17.3329
Au 19.6173 12.7471 10.4068
Pd 20.796 10.6672 14.703
Au 19.7211 9.87362 9.47671
Pd 18.4615 7.17595 14.0671
Au 23.0211 6.75211 15.1606
Pd 27.6879 22.7286 27.2111
Au 28.4325 22.0569 30.9585
Au 27.691 15.1892 28.7194
Pd 30.5984 28.9695 20.7119
Au 31.5568 13.9918 19.2294
Au 26.6035 27.1362 29.1435
Au 25.8377 8.41065 24.6355
Au 30.4899 29.6119 18.0131
Au 29.0179 14.7989 26.2559
Au 31.6805 22.6995 26.3453
Au 22.2576 12.625 31.8231
Pd 26.1299 29.8486 21.4262
Au 28.2921 10.4741 20.8573
Pd 25.0297 25.5332 24.6111
Au 22.476 17.0717 32.3845
Pd 23.6595 27.5784 28.6773
Au 21.7638 6.28952 23.2835
Au 25.1167 32.685 24.9582
Au 23.4192 9.51417 28.537
Au 15.2056 25.1378 30.964
Au 30.7767 11.3924 20.21
Au 27.9051 21.8667 10.8393
Au 25.6019 14.2746 22.0927
Au 25.2996 21.333 11.5859
Au 28.8386 13.1712 21.1574
Pd 25.3036 29.5053 16.5136
Au 26.1809 9.01491 21.6895
Au 30.585 28.0977 15.8454
Au 24.6885 10.0579 19.3107
Au 25.4232 24.3731 18.1029
Pd 27.4537 13.4012 14.1827
Pd 28.9626 25.3295 12.7774
Au 19.0177 8.18151 11.6339
Au 24.5786 33.3556 19.384
Pd 23.6667 14.5775 11.1017
Au 24.1452 14.0161 6.79692
Pd 21.5657 18.3214 12.485
Au 24.7554 27.1623 10.8743
Au 31.3197 14.3268 13.9027
Au 24.4016 28.0218 7.98648
Au 6.85372 21.5126 23.9335
Au 10.5669 18.8589 22.7321
Au 7.69242 15.0632 21.9806
Au 23.4403 25.5051 22.3361
Au 12.1646 12.6976 27.011
Au 11.5678 21.3071 31.6066
Au 6.99987 16.6579 19.6981
Au 9.79226 25.7226 29.0248
Au 14.7175 16.4092 23.0839
Au 12.9902 24.4545 22.6878
Au 18.5551 12.401 26.1627
Au 11.3408 29.3047 23.2656
Au 13.085 10.2108 23.4207
Pd 17.7724 24.3608 31.4321
Au 9.53357 12.5947 25.5498
Au 21.5138 30.5939 30.4149
Pd 10.2194 10.8542 23.4011
Au 18.3426 25.0274 28.6719
Au 18.0708 8.47839 28.6553
Au 22.9145 32.6816 26.4858
Au 15.3528 10.6759 18.6258
Pd 15.0566 27.3186 9.83777
Au 6.48454 20.5496 13.5972
Au 14.9936 32.3121 14.7644
Pd 7.45578 16.3095 16.7831
Au 9.63702 26.8617 19.7456
Au 18.852 13.3374 6.12366
Au 17.7211 26.4972 14.0076
Pd 9.87313 21.0105 19.3773
Pd 27.0865 27.3346 12.4546
Au 6.45118 16.4883 13.7294
Au 19.1301 27.5085 16.4869
Au 22.1038 9.61048 8.2999
Au 18.7823 30.9535 20.7571
Au 10.4657 14.3086 9.95577
Au 13.396 24.0847 10.6471
Pd 14.5167 18.0581 9.36432
Pd 18.2198 29.8539 17.9613
Pd 15.1777 11.4229 9.99164
Au 22.6211 26.4188 9.47169
