4033
Atoms. Timestep: 20166
Co 5.48025 13.0152 26.2153
Pd 3.55134 16.7316 24.3486
Pd 5.34264 14.8013 24.2756
Co 5.36518 16.7497 22.4405
Pd 3.62744 14.8588 26.2192
Pd 3.55368 16.7259 28.0957
Pd 5.34507 14.7955 28.1606
Co 5.37954 16.7091 26.2209
Co 5.36992 16.7382 30.0015
Pd 3.52299 20.5446 20.543
Pd 5.29435 18.6052 20.4969
Co 5.35331 20.5572 18.6449
Pd 3.53021 18.6398 22.4443
Pd 3.43956 20.5105 24.3224
Pd 5.34541 18.6373 24.3445
Co 5.32396 20.5203 22.4221
Pd 3.45915 18.604 26.225
Pd 3.44195 20.5047 28.1334
Pd 5.34776 18.6316 28.1032
Co 5.30015 20.5254 26.2268
Pd 3.53494 18.6283 30.0058
Pd 3.53011 20.5273 31.9128
Pd 5.30152 18.5878 31.9508
Co 5.32872 20.5087 30.0314
Co 5.3628 20.5341 33.8087
Pd 3.54697 24.3582 16.7432
Pd 5.3094 22.4165 16.6977
Co 5.4019 24.3639 14.8493
Pd 3.53037 22.4531 18.6371
Pd 3.44018 24.3265 20.5161
Pd 5.33093 22.4458 20.5446
Co 5.33999 24.3255 18.6267
Pd 3.43262 22.4181 22.4199
Pd 3.41469 24.3185 24.3278
Pd 5.28856 22.4197 24.3241
Co 5.2845 24.3306 22.4318
Pd 3.42284 22.4118 26.2308
Pd 3.41708 24.3127 28.1396
Pd 5.29094 22.4139 28.1352
Co 5.27162 24.3178 26.2326
Pd 3.43739 22.4065 30.0417
Pd 3.44734 24.3092 31.9513
Pd 5.33804 22.4286 31.9147
Co 5.28925 24.319 30.0333
Pd 3.53987 22.4301 33.8245
Pd 3.55885 24.3294 35.7242
Pd 5.32133 22.3876 35.7615
Co 5.34951 24.3024 33.8383
Co 5.41614 24.3293 37.6157
Pd 5.38906 26.2412 12.9775
Pd 3.61594 26.2383 14.8741
Pd 3.54689 28.1128 16.7489
Pd 5.39071 26.2355 16.762
Co 5.40182 28.1129 14.855
Pd 3.46056 26.2326 18.6157
Pd 3.4401 28.133 20.5218
Pd 5.30287 26.2298 20.525
Co 5.33991 28.1399 18.6325
Pd 3.4216 26.2269 22.423
Pd 3.41461 28.1294 24.3336
Pd 5.27461 26.224 24.3356
Co 5.28441 28.1232 22.4376
Pd 3.40864 26.2211 26.2366
Pd 3.41699 28.1236 28.1454
Pd 5.27699 26.2182 28.1353
Co 5.27154 28.1245 26.2383
Pd 3.42637 26.2153 30.0502
Pd 3.44725 28.1156 31.9571
Pd 5.31002 26.2125 31.9458
Co 5.28917 28.1117 30.0391
Pd 3.4701 26.2095 33.8574
Pd 3.55877 28.084 35.7299
Pd 5.40256 26.2067 35.7088
Co 5.34943 28.1168 33.8441
Pd 3.63016 26.2038 37.5988
Pd 5.40565 26.201 39.4932
Co 5.41606 28.0784 37.6214
Pd 5.30924 30.0546 16.7093
Pd 3.53021 30.0121 18.6486
Pd 3.52274 31.9148 20.5603
Pd 5.33076 30.0137 20.5561
Co 5.35306 31.9081 18.6621
Pd 3.43245 30.0356 22.4315
Pd 3.43931 31.9375 24.3398
Pd 5.28839 30.0283 24.3357
Co 5.32371 31.9335 22.4394
Pd 3.42267 30.0304 26.2424
Pd 3.4417 31.9317 28.1508
Pd 5.29077 30.0225 28.1467
Co 5.29989 31.9168 26.2441
Pd 3.43722 30.0241 30.0532
Pd 3.52986 31.8976 31.93
Pd 5.33788 29.9964 31.9262
Co 5.32847 31.9219 30.0487
Pd 3.53971 29.989 33.8359
Pd 5.32116 30.0257 35.7731
Co 5.36255 31.8851 33.8259
Pd 5.29402 33.8544 20.5201
Pd 3.52988 33.8138 22.4673
Pd 3.55092 35.7162 24.3774
Pd 5.34507 33.8106 24.3676
Co 5.36477 35.704 22.4693
Pd 3.45882 33.8382 26.2481
Pd 3.55326 35.7105 28.1245
Pd 5.34742 33.8049 28.1263
Co 5.37912 35.7331 26.2498
Pd 3.53461 33.8024 30.0288
Pd 5.30119 33.8371 31.9739
Co 5.3695 35.6926 30.0303
Pd 5.34214 37.6468 24.3102
Pd 3.62694 37.5833 26.2537
Pd 5.34457 37.6409 28.1952
Co 5.47967 39.427 26.2554
Co 9.2352 9.23335 26.2072
Pd 7.2306 12.8805 24.2884
Pd 9.09347 11.0029 24.2863
Co 9.12935 12.9234 22.4075
Pd 7.29033 11.0645 26.2112
Pd 7.23301 12.8747 28.1395
Pd 9.09588 10.9971 28.1336
Co 9.0976 12.8812 26.2128
Co 9.13411 12.9119 30.0182
Pd 7.19061 16.6812 20.4838
Pd 9.064 14.784 20.4637
Co 9.10821 16.7266 18.6075
Pd 7.21118 14.793 22.3604
Pd 7.21401 16.6876 24.294
Pd 9.08783 14.781 24.2863
Co 9.07474 16.6718 22.3637
Pd 7.23684 14.8072 26.2169
Pd 7.21642 16.6818 28.1455
Pd 9.09024 14.7751 28.1451
Co 9.10768 16.6869 26.2186
Pd 7.216 14.7813 30.0734
Pd 7.19779 16.6638 31.9557
Pd 9.0712 14.7665 31.9677
Co 9.07956 16.6601 30.0734
Co 9.11774 16.7035 33.8297
Pd 7.19112 20.4892 16.6871
Pd 9.05578 18.5919 16.671
Co 9.11654 20.535 14.8095
Pd 7.18634 18.6032 18.5699
Pd 7.19052 20.4958 20.5001
Pd 9.07072 18.5869 20.4777
Co 9.06656 20.4779 18.5694
Pd 7.19598 18.6023 22.388
Pd 7.21271 20.5186 24.3203
Pd 9.09957 18.5912 24.2947
Co 9.096 20.5012 22.4015
Pd 7.23598 18.6022 26.2227
Pd 7.21509 20.5128 28.1308
Pd 9.10198 18.5854 28.1482
Co 9.1105 20.5036 26.2244
Pd 7.20078 18.5906 30.0573
Pd 7.19769 20.4784 31.9509
Pd 9.07791 18.5694 31.9652
Co 9.10079 20.4896 30.0472
Pd 7.19592 18.58 33.8755
Pd 7.20306 20.4602 35.7639
Pd 9.06773 18.563 35.772
Co 9.07614 20.4547 33.8793
Co 9.13082 20.5003 37.6393
Pd 7.22849 24.3174 12.8957
Pd 9.07835 22.4108 12.8746
Co 9.15943 24.3738 11.0364
Pd 7.20719 22.4107 14.7683
Pd 7.22404 24.3 16.704
Pd 9.08046 22.39 16.6827
Co 9.08901 24.2943 14.7761
Pd 7.19731 22.4064 18.5936
Pd 7.21239 24.327 20.5226
Pd 9.09164 22.4012 20.4991
Co 9.10469 24.3127 18.6037
Pd 7.20659 22.4188 22.4254
Pd 7.1851 24.3226 24.33
Pd 9.10531 22.4177 24.3261
Co 9.10413 24.3194 22.4225
Pd 7.19083 22.4186 26.2285
Pd 7.18748 24.3169 28.1328
Pd 9.10769 22.4119 28.1285
Co 9.1005 24.3189 26.2302
Pd 7.21135 22.4073 30.0315
Pd 7.21953 24.3097 31.94
Pd 9.09881 22.3839 31.9553
Co 9.1089 24.3078 30.0378
Pd 7.20687 22.3833 33.8632
Pd 7.23596 24.271 35.7586
Pd 9.0924 22.361 35.7717
Co 9.11424 24.2895 33.8565
Pd 7.22153 22.376 37.6885
Pd 7.24518 24.2769 39.5668
Pd 9.09506 22.3703 39.5799
Co 9.10334 24.2596 37.6841
Co 9.17844 24.3277 41.4239
Pd 9.16582 26.2471 9.17775
Pd 7.31158 26.2442 11.0383
Pd 7.22841 28.1654 12.9016
Pd 9.1139 26.2414 12.917
Co 9.15935 28.1147 11.0421
Pd 7.24848 26.2385 14.803
Pd 7.22396 28.1713 16.7099
Pd 9.10399 26.2357 16.6984
Co 9.08892 28.1828 14.782
Pd 7.23544 26.2327 18.6286
Pd 7.2123 28.1326 20.5284
Pd 9.11264 26.2299 20.5275
Co 9.10461 28.1529 18.6096
Pd 7.18975 26.2269 22.4314
Pd 7.18502 28.1255 24.3357
Pd 9.09881 26.2241 24.3298
Co 9.10405 28.1346 22.4283
Pd 7.18106 26.2212 26.2343
Pd 7.1874 28.1197 28.1385
Pd 9.10119 26.2183 28.1363
Co 9.10042 28.1235 26.2359
Pd 7.19451 26.2154 30.0371
Pd 7.21945 28.1153 31.9458
Pd 9.11978 26.2125 31.9386
Co 9.10882 28.123 30.0436
Pd 7.24495 26.2096 33.8398
Pd 7.23588 28.1424 35.7644
Pd 9.11593 26.2067 35.7677
Co 9.11415 28.1298 33.8624
Pd 7.26278 26.2038 37.6654
Pd 7.2451 28.1249 39.5727
Pd 9.13056 26.201 39.5491
Co 9.10325 28.1481 37.69
Pd 7.33059 26.1981 41.43
Pd 9.18716 26.1953 43.2883
Co 9.17836 28.0686 41.4296
Pd 9.07818 30.0721 12.8863
Pd 7.20702 30.0664 14.7799
Pd 7.19087 31.9821 16.7046
Pd 9.08029 30.0814 16.6944
Co 9.11629 31.9421 14.8268
Pd 7.19715 30.0591 18.6053
Pd 7.19027 31.9639 20.5175
Pd 9.09147 30.0586 20.5108
Co 9.06631 31.9877 18.5869
Pd 7.20642 30.035 22.437
Pd 7.21246 31.9295 24.3376
Pd 9.10514 30.0305 24.3376
Co 9.09575 31.9528 22.4189
Pd 7.19066 30.0237 26.24
Pd 7.21484 31.9237 28.1482
Pd 9.10752 30.0247 28.14
Co 9.11025 31.9388 26.2417
Pd 7.21118 30.0235 30.0431
Pd 7.19743 31.9465 31.9683
Pd 9.09864 30.0412 31.967
Co 9.10053 31.9412 30.0646
Pd 7.2067 30.0359 33.8748
Pd 7.20281 31.9531 35.7814
Pd 9.09223 30.0524 35.7834
Co 9.07589 31.9645 33.8967
Pd 7.22137 30.0316 37.7002
Pd 9.09489 30.0316 39.5915
Co 9.13057 31.9075 37.6566
Pd 9.05544 33.8794 16.6942
Pd 7.18601 33.8624 18.593
Pd 7.19019 35.7785 20.5128
Pd 9.07039 33.873 20.5009
Co 9.1078 35.7389 18.6363
Pd 7.19565 33.8517 22.4112
Pd 7.21359 35.7605 24.3229
Pd 9.09924 33.857 24.3179
Co 9.07432 35.7823 22.3927
Pd 7.23564 33.8401 26.2458
Pd 7.216 35.7547 28.1745
Pd 9.10165 33.8512 28.1714
Co 9.10726 35.7555 26.2475
Pd 7.20044 33.8401 30.0804
Pd 7.19737 35.7611 31.9847
Pd 9.07758 33.8556 31.9884
Co 9.07914 35.7706 30.1024
Pd 7.19558 33.8391 33.8986
Pd 9.06739 33.8505 35.7952
Co 9.11732 35.7158 33.8586
Pd 9.0635 37.6759 20.4985
Pd 7.21067 37.661 22.3951
Pd 7.23001 39.5677 24.3289
Pd 9.08733 37.6673 24.3211
Co 9.12876 39.5306 22.4478
Pd 7.23634 37.6351 26.2515
Pd 7.23242 39.5618 28.18
Pd 9.08974 37.6614 28.1798
Co 9.09702 39.5612 26.2533
Pd 7.2155 37.6493 30.1081
Pd 9.0707 37.6584 32.0024
Co 9.13352 39.519 30.0586
Pd 9.0928 41.4453 24.3325
Pd 7.28966 41.3779 26.2572
Pd 9.09521 41.4395 28.1798
Co 9.23445 43.2091 26.2587
Co 13.0172 5.47857 26.1991
Pd 11.0007 9.09582 24.2822
Pd 12.8783 7.23304 24.2763
Co 12.9171 9.13582 22.3993
Pd 11.0664 7.28856 26.2031
Pd 11.0031 9.08998 28.1295
Pd 12.8807 7.2272 28.1274
Co 12.8831 9.09592 26.2047
Co 12.9219 9.12427 30.0101
Pd 10.9702 12.8638 20.4599
Pd 12.8533 10.9808 20.4558
Co 12.8987 12.9134 18.5899
Pd 10.9834 10.9899 22.3524
Pd 10.9822 12.8736 24.2813
Pd 12.8713 10.9846 24.2772
Co 12.8559 12.8625 22.3504
Pd 11.0127 11.011 26.2088
Pd 10.9846 12.8678 28.1419
Pd 12.8737 10.9788 28.1379
Co 12.885 12.8834 26.2104
Pd 10.9882 10.9782 30.0651
Pd 10.9774 12.8464 31.9633
Pd 12.8605 10.9634 31.9593
Co 12.8607 12.8508 30.0704
Co 12.9083 12.8903 33.831
Pd 10.9608 16.6677 16.661
Pd 12.8414 14.777 16.6521
Co 12.8937 16.7187 14.7916
Pd 10.965 14.7807 18.5426
Pd 10.9678 16.6682 20.4634
Pd 12.8534 14.7697 20.4554
Co 12.8454 16.6592 18.5434
Pd 10.9745 14.7756 22.3596
Pd 10.982 16.6758 24.2917
Pd 12.8726 14.7722 24.2863
Co 12.8734 16.6758 22.3791
Pd 10.9813 14.77 26.2145
Pd 10.9844 16.6699 28.1431
Pd 12.875 14.7664 28.1403
Co 12.8776 16.6714 26.2162
Pd 10.9793 14.7639 30.0694
Pd 10.975 16.6507 31.9713
Pd 12.8607 14.7522 31.9712
Co 12.8782 16.6642 30.0533
Pd 10.9746 14.7574 33.8864
Pd 10.9727 16.6387 35.7737
Pd 12.8534 14.748 35.7745
Co 12.855 16.6359 33.8889
Co 12.908 16.684 37.6408
Pd 10.9727 20.4824 12.8661
Pd 12.8461 18.5892 12.8573
Co 12.9086 20.5385 11.0029
Pd 10.964 18.5896 14.7463
Pd 10.9691 20.4748 16.6688
Pd 12.8494 18.5736 16.658
Co 12.8484 20.4695 14.7515
Pd 10.9651 18.5789 18.5584
Pd 10.9775 20.4873 20.4822
Pd 12.8686 18.5758 20.4711
Co 12.8712 20.4858 18.5767
Pd 10.9806 18.5794 22.3834
Pd 10.9952 20.4937 24.3087
Pd 12.8813 18.5808 24.3026
Co 12.8824 20.4876 22.3941
Pd 10.9907 18.5818 26.2203
Pd 10.9975 20.4879 28.1377
Pd 12.8837 18.5749 28.1356
Co 12.8915 20.4866 26.222
Pd 10.9854 18.5678 30.0572
Pd 10.9847 20.4699 31.9641
Pd 12.8757 18.5584 31.9671
Co 12.8872 20.476 30.0499
Pd 10.9747 18.5557 33.8821
Pd 10.9811 20.4458 35.7774
Pd 12.8614 18.5446 35.7801
Co 12.8808 20.4626 33.8673
Pd 10.9784 18.5548 37.6943
Pd 10.9895 20.4418 39.5802
Pd 12.8629 18.5486 39.5809
Co 12.8628 20.4347 37.6924
Co 12.9276 20.4923 41.4411
Pd 11.0139 24.326 9.09702
Pd 12.8737 22.4187 9.07793
Co 12.9601 24.3799 7.24985
Pd 10.9874 22.4163 10.9593
Pd 10.9917 24.3055 12.8875
Pd 12.8612 22.3927 12.8725
Co 12.8739 24.2994 10.978
Pd 10.9747 22.3918 14.7658
Pd 10.9808 24.3095 16.6832
Pd 12.8686 22.3925 16.6758
Co 12.8766 24.3148 14.7866
Pd 10.9792 22.3933 18.5845
Pd 10.9958 24.3123 20.5031
Pd 12.8825 22.3983 20.4935
Co 12.8794 24.3122 18.5906
Pd 10.9936 22.4026 22.4055
Pd 11.0055 24.3158 24.3216
Pd 12.8958 22.4001 24.3123
Co 12.8953 24.3126 22.4084
Pd 11.007 22.4027 26.2261
Pd 11.0079 24.3101 28.1363
Pd 12.8981 22.3943 28.1374
Co 12.9041 24.3096 26.2278
Pd 10.9984 22.3911 30.0466
Pd 11.003 24.2949 31.9548
Pd 12.8897 22.3809 31.9562
Co 12.9001 24.301 30.0471
Pd 10.9887 22.3701 33.8676
Pd 10.9927 24.2806 35.7747
Pd 12.8805 22.3635 35.7739
Co 12.8889 24.289 33.865
Pd 10.9891 22.357 37.6863
Pd 11.0084 24.265 39.5703
Pd 12.8779 22.3522 39.5772
Co 12.8909 24.28 37.669
Pd 11.0065 22.37 41.4928
Pd 11.0353 24.274 43.3608
Pd 12.8951 22.3667 43.3718
Co 12.893 24.2531 41.4775
Co 12.9838 24.3223 45.2057
Pd 12.9913 26.2529 5.38492
Pd 11.115 26.2501 7.23943
Pd 11.0138 28.1685 9.10285
Pd 12.9043 26.2472 9.12954
Co 12.96 28.1203 7.25553
Pd 11.0247 26.2444 11.0009
Pd 10.9916 28.1775 12.8934
Pd 12.8827 26.2415 12.893
Co 12.8738 28.1894 10.9839
Pd 10.9888 26.2386 14.7925
Pd 10.9807 28.1619 16.6891
Pd 12.8777 26.2358 16.6946
Co 12.8765 28.1625 14.7924
Pd 10.9918 26.2328 18.5996
Pd 10.9957 28.1476 20.5089
Pd 12.8891 26.23 20.5038
Co 12.8793 28.1535 18.5964
Pd 11.0056 26.227 22.4199
Pd 11.0054 28.1324 24.3274
Pd 12.9036 26.2242 24.3236
Co 12.8952 28.1415 22.4142
Pd 11.0055 26.2212 26.2319
Pd 11.0078 28.1266 28.1421
Pd 12.906 26.2184 28.1378
Co 12.904 28.133 26.2336
Pd 11.0104 26.2155 30.0438
Pd 11.0029 28.1302 31.9606
Pd 12.8963 26.2126 31.9575
Co 12.9 28.13 30.0529
Pd 11.0013 26.2097 33.8641
Pd 10.9927 28.133 35.7805
Pd 12.8896 26.2068 35.7667
Co 12.8888 28.1304 33.8708
Pd 11.0032 26.2039 37.6712
Pd 11.0083 28.137 39.5762
Pd 12.8994 26.2011 39.5684
Co 12.8908 28.1278 37.6748
Pd 11.0438 26.1981 41.4628
Pd 11.0352 28.1165 43.3667
Pd 12.9257 26.1953 43.3318
Co 12.8929 28.1432 41.4834
Pd 11.1387 26.1924 45.2241
Pd 13.0174 26.1897 47.0763
Co 12.9837 28.0627 45.2114
Pd 12.8735 30.0759 9.08955
Pd 10.9872 30.0725 10.9709
Pd 10.9725 32.0006 12.8836
Pd 12.861 30.0904 12.8842
Co 12.9083 31.9503 11.0202
Pd 10.9746 30.0855 14.7775
Pd 10.9689 31.9967 16.6863
Pd 12.8684 30.0791 16.6875
Co 12.8482 32.0079 14.769
Pd 10.979 30.0724 18.5962
Pd 10.9772 31.9726 20.4997
Pd 12.8824 30.0617 20.5051
Co 12.8709 31.9799 18.5941
Pd 10.9935 30.0514 22.4171
Pd 10.9949 31.9546 24.326
Pd 12.8956 30.0483 24.324
Co 12.8821 31.9666 22.4115
Pd 11.0069 30.0398 26.2377
Pd 10.9973 31.9488 28.1551
Pd 12.898 30.0425 28.149
Co 12.8913 31.956 26.2394
Pd 10.9983 30.0398 30.0582
Pd 10.9844 31.9551 31.9815
Pd 12.8896 30.0443 31.9679
Co 12.8869 31.955 30.0673
Pd 10.9885 30.0492 33.8792
Pd 10.9808 31.9677 35.7949
Pd 12.8804 30.0501 35.7856
Co 12.8805 31.9567 33.8847
Pd 10.9889 30.0507 37.6979
Pd 10.9892 31.9601 39.5976
Pd 12.8778 30.0499 39.5888
Co 12.8625 31.9731 37.7099
Pd 11.0063 30.0262 41.5044
Pd 12.895 30.0239 43.3834
Co 12.9273 31.9041 41.4584
Pd 12.8458 33.894 12.8805
Pd 10.9637 33.8877 14.7695
Pd 10.9604 35.8038 16.6901
Pd 12.8491 33.898 16.6813
Co 12.8933 35.7586 14.8205
Pd 10.9648 33.8868 18.5816
Pd 10.9674 35.7918 20.4925
Pd 12.8682 33.8842 20.4943
Co 12.845 35.8067 18.5725
Pd 10.9802 33.8747 22.4066
Pd 10.9816 35.7726 24.3207
Pd 12.881 33.8676 24.3258
Co 12.873 35.7784 22.4081
Pd 10.9904 33.8607 26.2435
Pd 10.984 35.7667 28.1721
Pd 12.8834 33.8618 28.1588
Co 12.8772 35.7712 26.2452
Pd 10.985 33.8631 30.0804
Pd 10.9746 35.7743 32.0003
Pd 12.8754 33.8668 31.9903
Co 12.8778 35.7668 30.0822
Pd 10.9744 33.8636 33.9054
Pd 10.9723 35.7748 35.8027
Pd 12.861 33.869 35.8034
Co 12.8546 35.7834 33.918
Pd 10.978 33.8529 37.7175
Pd 12.8625 33.8534 39.6041
Co 12.9076 35.7239 37.6697
Pd 12.8409 37.6946 16.6869
Pd 10.9645 37.6851 18.5774
Pd 10.9696 39.5961 20.5004
Pd 12.8529 37.6904 20.4902
Co 12.8982 39.5523 18.6303
Pd 10.974 37.6786 22.3944
Pd 10.9816 39.5747 24.3218
Pd 12.8721 37.6762 24.3211
Co 12.8553 39.5918 22.391
Pd 10.9808 37.6725 26.2492
Pd 10.984 39.5689 28.1824
Pd 12.8745 37.6704 28.175
Co 12.8845 39.5592 26.2509
Pd 10.9788 37.6669 30.1041
Pd 10.9768 39.5787 32.0039
Pd 12.8601 37.6729 32.006
Co 12.8601 39.5801 30.111
Pd 10.9741 37.6618 33.9211
Pd 12.8529 37.6656 35.8093
Co 12.9077 39.5292 33.8714
Pd 12.8526 41.4792 20.5021
Pd 10.9827 41.4643 22.3987
Pd 10.9999 43.3525 24.3342
Pd 12.8706 41.4638 24.3235
Co 12.9164 43.3183 22.4512
Pd 11.0121 41.4315 26.2549
Pd 11.0023 43.3467 28.1815
Pd 12.873 41.458 28.1841
Co 12.8823 43.3467 26.2567
Pd 10.9876 41.4526 30.1113
Pd 12.8598 41.4617 32.0056
Co 12.9211 43.3068 30.062
Pd 12.8775 45.2154 24.3339
Pd 11.0656 45.1539 26.2605
Pd 12.8799 45.2095 28.1851
Co 13.0163 46.964 26.2621
Pd 14.7992 5.3452 24.2553
Pd 16.7297 3.55384 24.3203
Co 16.7436 5.37178 22.4161
Pd 14.8609 3.62584 26.1952
Pd 14.8016 5.33931 28.1403
Pd 16.7321 3.54816 28.0674
Co 16.7111 5.37802 26.1967
Co 16.7483 5.3603 29.9771
Pd 14.7735 9.07473 20.4515
Pd 16.6709 7.20139 20.4635
Co 16.7122 9.12301 18.5912
Pd 14.7867 7.21784 22.3441
Pd 14.7787 9.09036 24.2741
Pd 16.6855 7.21662 24.2737
Co 16.6654 9.08148 22.3474
Pd 14.8092 7.23524 26.2007
Pd 14.7811 9.08451 28.1329
Pd 16.6879 7.21078 28.1252
Co 16.6888 9.10616 26.2023
Pd 14.7915 7.20614 30.0571
Pd 14.7807 9.05727 31.9554
Pd 16.6781 7.18398 31.9354
Co 16.6703 9.06978 30.0572
Co 16.7217 9.09991 33.8135
Pd 14.7582 12.8603 16.648
Pd 16.649 10.9797 16.6488
Co 16.6959 12.9167 14.7835
Pd 14.766 10.9799 18.5345
Pd 14.759 12.8642 20.4513
Pd 16.6576 10.9786 20.4512
Co 16.6444 12.8603 18.5353
Pd 14.7692 10.9812 22.3515
Pd 14.7698 12.8751 24.2823
Pd 16.6734 10.9846 24.2795
Co 16.6693 12.8801 22.371
Pd 14.7717 10.9797 26.2064
Pd 14.7722 12.8693 28.1362
Pd 16.6758 10.9788 28.1309
Co 16.6731 12.8761 26.2081
Pd 14.774 10.9695 30.0613
Pd 14.7662 12.8467 31.9671
Pd 16.6648 10.9611 31.9591
Co 16.6741 12.8684 30.0451
Pd 14.7756 10.9566 33.8782
Pd 14.7702 12.8313 35.7704
Pd 16.661 10.9507 35.7615
Co 16.654 12.837 33.8808
Co 16.7102 12.882 37.6327
Pd 14.7577 16.6694 12.8521
Pd 16.6424 14.7849 12.8481
Co 16.7007 16.7318 10.9899
Pd 14.7561 14.7791 14.733
Pd 14.7514 16.6627 16.6513
Pd 16.6438 14.7704 16.6473
Co 16.638 16.6611 14.7398
Pd 14.7542 14.769 18.5423
Pd 14.7607 16.6714 20.4651
Pd 16.6607 14.7715 20.461
Co 16.6608 16.6757 18.5643
Pd 14.7629 14.7696 22.3713
Pd 14.7746 16.6747 24.2973
Pd 16.6722 14.7772 24.2933
Co 16.6698 16.6765 22.3833
Pd 14.7743 14.7726 26.2121
Pd 14.777 16.6689 28.1327
Pd 16.6746 14.7714 28.1286
Co 16.6777 16.6762 26.2138
Pd 14.7677 14.7579 30.0529
Pd 14.7679 16.6539 31.9649
Pd 16.6679 14.754 31.9608
Co 16.6746 16.6648 30.0443
Pd 14.7638 14.7457 33.882
Pd 14.7633 16.6337 35.7786
Pd 16.6558 14.7413 35.7746
Co 16.6704 16.6524 33.8633
Pd 14.7704 14.7442 37.6912
Pd 14.7745 16.6288 39.5779
Pd 16.6591 14.7443 39.5738
Co 16.6524 16.6263 37.6878
Co 16.7197 16.6856 41.4378
Pd 14.7791 20.4928 9.07139
Pd 16.6622 18.61 9.06051
Co 16.736 20.5638 7.21683
Pd 14.7666 18.5955 10.9421
Pd 14.7582 20.4765 12.8659
Pd 16.6457 18.5796 12.8605
Co 16.6503 20.4783 10.9622
Pd 14.752 18.575 14.7494
Pd 14.7586 20.4825 16.6684
Pd 16.6561 18.5753 16.6638
Co 16.6602 20.488 14.7762
Pd 14.759 18.5738 18.5659
Pd 14.7748 20.4871 20.4855
Pd 16.6694 18.5815 20.4808
Co 16.6674 20.4878 18.5805
Pd 14.7742 18.5796 22.3885
Pd 14.785 20.4873 24.3077
Pd 16.6792 18.582 24.3033
Co 16.6803 20.4899 22.3974
Pd 14.7807 18.5767 26.2179
Pd 14.7874 20.4815 28.1339
Pd 16.6816 18.5762 28.1301
Co 16.6861 20.4863 26.2196
Pd 14.779 18.568 30.0473
Pd 14.782 20.4697 31.9561
Pd 16.6766 18.5641 31.9526
Co 16.6851 20.4783 30.0418
Pd 14.7686 18.5506 33.8698
Pd 14.7705 20.4536 35.7732
Pd 16.6681 18.5463 35.7696
Co 16.677 20.4646 33.8587
Pd 14.7664 18.5402 37.6864
Pd 14.775 20.436 39.5756
Pd 16.6624 18.5391 39.5729
Co 16.6745 20.4533 37.663
Pd 14.7857 18.5492 41.4937
Pd 14.8006 20.4407 43.3701
Pd 16.6837 18.558 43.3729
Co 16.6694 20.432 41.4769
Co 16.7598 20.5061 45.2224
Pd 14.8351 24.3325 5.3396
Pd 16.7265 22.4473 5.30656
Co 16.825 24.411 3.60392
Pd 14.8045 22.4218 7.17535
Pd 14.79 24.3106 9.10403
Pd 16.6706 22.4036 9.09596
Co 16.693 24.3057 7.21831
Pd 14.768 22.3963 10.9724
Pd 14.7662 24.314 12.8852
Pd 16.6615 22.3974 12.8837
Co 16.6744 24.3212 11.0049
Pd 14.761 22.3939 14.7768
Pd 14.7711 24.315 16.6886
Pd 16.6666 22.4008 16.6869
Co 16.666 24.3165 14.793
Pd 14.7726 22.3989 18.5856
Pd 14.7826 24.3139 20.4978
Pd 16.6788 22.4013 20.4948
Co 16.6755 24.3165 18.5958
Pd 14.7863 22.3988 22.4016
Pd 14.796 24.3104 24.316
Pd 16.6889 22.3987 24.3122
Co 16.6874 24.3131 22.4067
Pd 14.7931 22.3953 26.2237
Pd 14.7984 24.3046 28.1372
Pd 16.6913 22.3929 28.1327
Co 16.6948 24.3079 26.2254
Pd 14.791 22.3872 30.0458
Pd 14.7898 24.2965 31.9553
Pd 16.686 22.3839 31.9502
Co 16.6922 24.3015 30.0441
Pd 14.7821 22.3757 33.8618
Pd 14.783 24.2861 35.7645
Pd 16.6785 22.3718 35.7581
Co 16.685 24.2933 33.855
Pd 14.7753 22.3591 37.6705
Pd 14.7829 24.2735 39.5679
Pd 16.6782 22.3569 39.5613
Co 16.6803 24.2818 37.6578
Pd 14.7871 22.35 41.475
Pd 14.8114 24.2586 43.3491
Pd 16.6921 22.3516 43.349
Co 16.6935 24.275 41.4459
Pd 14.8284 22.364 45.272
Pd 14.8612 24.2692 47.1135
Pd 16.7527 22.3838 47.1384
Co 16.7168 24.248 45.2324
Co 16.8533 24.3423 48.8469
Pd 15.0179 26.2558 3.51597
Pd 14.835 28.1735 5.34543
Pd 16.7538 26.2529 5.42498
Co 16.8249 28.1005 3.60952
Pd 14.8254 26.2502 7.23135
Pd 14.7899 28.1841 9.10991
Pd 16.6885 26.2473 9.11901
Co 16.693 28.1947 7.22421
Pd 14.7806 26.2444 11.0025
Pd 14.7661 28.1692 12.8911
Pd 16.6694 26.2416 12.9054
Co 16.6744 28.1678 11.0107
Pd 14.7725 26.2387 14.7936
Pd 14.771 28.1566 16.6945
Pd 16.6716 26.2358 16.6988
Co 16.6659 28.1609 14.7989
Pd 14.7778 26.2329 18.5971
Pd 14.7825 28.1462 20.5037
Pd 16.6824 26.2301 20.5043
Co 16.6754 28.1495 18.6016
Pd 14.7911 26.2271 22.4101
Pd 14.7959 28.1381 24.3218
Pd 16.6936 26.2243 24.3183
Co 16.6873 28.1413 22.4125
Pd 14.8015 26.2213 26.2295
Pd 14.7983 28.1323 28.143
Pd 16.696 26.2185 28.1383
Co 16.6947 28.1348 26.2312
Pd 14.7959 26.2155 30.0489
Pd 14.7897 28.1288 31.9611
Pd 16.6896 26.2127 31.9523
Co 16.6921 28.1297 30.0499
Pd 14.7874 26.2098 33.8619
Pd 14.783 28.1276 35.7703
Pd 16.6835 26.2069 35.7578
Co 16.685 28.1263 33.8608
Pd 14.7869 26.204 37.6653
Pd 14.7828 28.1287 39.5738
Pd 16.686 26.2012 39.5512
Co 16.6802 28.1262 37.6636
Pd 14.7997 26.1982 41.4565
Pd 14.8113 28.1321 43.3549
Pd 16.7099 26.1954 43.3376
Co 16.6934 28.1216 41.4517
Pd 14.8492 26.1925 45.2276
Pd 14.8612 28.1101 47.1193
Pd 16.7798 26.1898 47.0315
Co 16.7167 28.1371 45.2383
Pd 15.0463 26.1869 48.9427
Co 16.8532 28.0318 48.8525
Pd 16.7264 30.0589 5.31811
Pd 14.8044 30.0787 7.18697
Pd 14.7789 32.002 9.08886
Pd 16.6705 30.0912 9.10763
Co 16.7358 31.9367 7.23409
Pd 14.7678 30.0927 10.984
Pd 14.758 32.0067 12.8834
Pd 16.6613 30.0859 12.8953
Co 16.6501 32.0107 10.9797
Pd 14.7608 30.0835 14.7885
Pd 14.7583 31.9891 16.6858
Pd 16.6664 30.0709 16.6985
Co 16.6599 31.9895 14.7937
Pd 14.7724 30.0669 18.5972
Pd 14.7746 31.973 20.5029
Pd 16.6786 30.0589 20.5065
Co 16.6671 31.9782 18.5979
Pd 14.7861 30.0554 22.4132
Pd 14.7848 31.9611 24.3251
Pd 16.6887 30.0499 24.3239
Co 16.6801 31.9644 22.4148
Pd 14.7929 30.0474 26.2353
Pd 14.7871 31.9553 28.1513
Pd 16.6911 30.0441 28.1444
Co 16.6859 31.9565 26.237
Pd 14.7909 30.0438 30.0574
Pd 14.7817 31.9556 31.9735
Pd 16.6858 30.0415 31.9618
Co 16.6849 31.9528 30.0592
Pd 14.782 30.0438 33.8734
Pd 14.7703 31.9601 35.7906
Pd 16.6783 30.042 35.7697
Co 16.6767 31.955 33.8761
Pd 14.7752 30.0488 37.6822
Pd 14.7747 31.9661 39.5931
Pd 16.678 30.0454 39.573
Co 16.6742 31.9548 37.6804
Pd 14.7869 30.0464 41.4866
Pd 14.8003 31.9499 43.3876
Pd 16.6919 30.0392 43.3607
Co 16.6691 31.9644 41.4944
Pd 14.8282 30.0209 45.2836
Pd 16.7526 29.9954 47.15
Co 16.7596 31.879 45.2397
Pd 16.6618 33.8848 9.08369
Pd 14.7663 33.8935 10.9653
Pd 14.7573 35.8138 12.8811
Pd 16.6454 33.9037 12.8838
Co 16.7003 35.7572 11.0187
Pd 14.7517 33.9025 14.7726
Pd 14.751 35.809 16.6804
Pd 16.6558 33.8964 16.687
Co 16.6376 35.8165 14.7689
Pd 14.7587 33.8921 18.5892
Pd 14.7603 35.7887 20.4941
Pd 16.6691 33.8787 20.504
Co 16.6604 35.7903 18.5933
Pd 14.7739 33.8746 22.4117
Pd 14.7742 35.7737 24.3263
Pd 16.6789 33.8666 24.3265
Co 16.6694 35.7779 22.4123
Pd 14.7803 33.8659 26.2411
Pd 14.7766 35.7679 28.1617
Pd 16.6813 33.8608 28.1533
Co 16.6773 35.7666 26.2428
Pd 14.7787 33.863 30.0705
Pd 14.7675 35.7713 31.9939
Pd 16.6763 33.8612 31.9758
Co 16.6742 35.7663 30.0733
Pd 14.7683 33.8689 33.8931
Pd 14.7629 35.78 35.8077
Pd 16.6678 33.8674 35.7929
Co 16.6699 35.7671 33.8923
Pd 14.7661 33.8677 37.7096
Pd 14.774 35.7733 39.6069
Pd 16.6621 33.8631 39.5961
Co 16.652 35.7817 37.7168
Pd 14.7854 33.8471 41.5169
Pd 16.6833 33.8327 43.3961
Co 16.7193 35.711 41.4667
Pd 16.6419 37.6985 12.8828
Pd 14.7556 37.6984 14.7678
Pd 14.7576 39.6114 16.6886
Pd 16.6433 37.7014 16.6821
Co 16.6953 39.5608 14.8239
Pd 14.7537 37.6969 18.577
Pd 14.7585 39.596 20.4919
Pd 16.6602 37.6887 20.4958
Co 16.6438 39.6057 18.5759
Pd 14.7624 37.6848 22.4061
Pd 14.7692 39.5734 24.3228
Pd 16.6717 37.6713 24.328
Co 16.6687 39.5743 22.4115
Pd 14.7738 37.67 26.2469
Pd 14.7716 39.5675 28.1767
Pd 16.6741 37.6655 28.1634
Co 16.6725 39.5667 26.2486
Pd 14.7672 37.6731 30.0877
Pd 14.7657 39.5785 32.0077
Pd 16.6674 37.6713 31.9956
Co 16.6735 39.5627 30.0856
Pd 14.7633 37.6737 33.9168
Pd 14.7696 39.5824 35.811
Pd 16.6553 37.6724 35.8094
Co 16.6534 39.5825 33.9214
Pd 14.7699 37.6636 37.726
Pd 16.6586 37.6579 39.6086
Co 16.7096 39.5261 37.6731
Pd 16.6484 41.492 16.6951
Pd 14.7654 41.4861 18.5808
Pd 14.7727 43.3854 20.5036
Pd 16.657 41.4816 20.4975
Co 16.7114 43.3428 18.6431
Pd 14.7685 41.4732 22.3977
Pd 14.7779 43.3582 24.3261
Pd 16.6728 41.464 24.3257
Co 16.6647 43.373 22.3995
Pd 14.7711 41.463 26.2526
Pd 14.7804 43.3523 28.1849
Pd 16.6752 41.4581 28.1771
Co 16.688 43.3366 26.2543
Pd 14.7733 41.4615 30.1075
Pd 14.7799 43.3679 32.0075
Pd 16.6642 41.4642 32.0054
Co 16.6695 43.3613 30.1092
Pd 14.775 41.4628 33.9245
Pd 16.6603 41.463 35.8078
Co 16.7209 43.3197 33.8654
Pd 16.67 45.2588 20.5213
Pd 14.7859 45.2365 22.4018
Pd 14.7983 47.1034 24.3187
Pd 16.6846 45.232 24.3314
Co 16.7427 47.0825 22.4794
Pd 14.8084 45.2074 26.2583
Pd 14.8007 47.0975 28.2037
Pd 16.687 45.2261 28.1829
Co 16.7102 47.0647 26.2599
Pd 14.7907 45.2248 30.1148
Pd 16.6772 45.2414 31.9931
Co 16.7474 47.071 30.0404
Pd 16.7287 48.8946 24.3891
Pd 14.8599 48.8168 26.2637
Pd 16.7311 48.8889 28.1362
Pd 18.5949 5.3052 20.4684
Pd 20.5345 3.53384 20.5066
Co 20.5429 5.36822 18.6123
Pd 18.6338 3.53689 22.4119
Pd 18.6353 5.34801 24.316
Pd 20.5085 3.44231 24.2858
Co 20.5142 5.33077 22.3896
Pd 18.6061 3.45773 26.1926
Pd 18.6377 5.3423 28.0748
Pd 20.5109 3.43652 28.0968
Co 20.5274 5.2988 26.1942
Pd 18.6385 3.52541 29.9734
Pd 18.6021 5.28782 31.9223
Pd 20.5416 3.51659 31.8763
Co 20.5189 5.31922 29.9988
Co 20.5524 5.34521 33.7761
Pd 18.5733 9.07481 16.6506
Pd 20.4707 7.21022 16.6587
Co 20.5124 9.13965 14.7851
Pd 18.5887 7.20131 18.5454
Pd 18.5764 9.0816 20.4574
Pd 20.4855 7.20145 20.4716
Co 20.4634 9.08162 18.545
Pd 18.596 7.20277 22.3636
Pd 18.5889 9.10227 24.2744
Pd 20.5165 7.21545 24.2918
Co 20.4948 9.10285 22.3771
Pd 18.6042 7.23455 26.1983
Pd 18.5914 9.09642 28.1279
Pd 20.5188 7.20967 28.1023
Co 20.5055 9.10916 26.1999
Pd 18.6008 7.19113 30.0329
Pd 18.5836 9.06417 31.9448
Pd 20.4927 7.18407 31.9225
Co 20.4996 9.09125 30.0228
Pd 18.5983 7.17809 33.851
Pd 18.5853 9.04583 35.7516
Pd 20.4826 7.18127 35.7355
Co 20.473 9.05839 33.8548
Co 20.5266 9.10501 37.6148
Pd 18.5622 12.8733 12.8451
Pd 20.4555 11 12.8458
Co 20.5076 12.9398 10.9866
Pd 18.5668 10.9872 14.73
Pd 18.5548 12.8685 16.6458
Pd 20.4561 10.9882 16.6485
Co 20.4466 12.8716 14.7352
Pd 18.5643 10.9801 18.5421
Pd 18.5652 12.8794 20.4589
Pd 20.4768 10.9884 20.4619
Co 20.4712 12.8862 18.5604
Pd 18.573 10.9873 22.3671
Pd 18.5783 12.884 24.2904
Pd 20.4914 10.9979 24.2883
Co 20.4811 12.8893 22.3778
Pd 18.5836 10.9893 26.204
Pd 18.5807 12.8782 28.1234
Pd 20.4938 10.9921 28.1173
Co 20.4883 12.8902 26.2057
Pd 18.5778 10.9757 30.0409
Pd 18.5724 12.862 31.9549
Pd 20.484 10.971 31.9437
Co 20.4859 12.8776 30.0336
Pd 18.5739 10.9569 33.8659
Pd 18.5668 12.8395 35.7679
Pd 20.468 10.9592 35.7571
Co 20.4807 12.863 33.851
Pd 18.5812 10.9524 37.678
Pd 18.579 12.8328 39.5686
Pd 20.4723 10.9595 39.5598
Co 20.4609 12.8368 37.6761
Co 20.5266 12.8936 41.4248
Pd 18.5748 16.6975 9.05641
Pd 20.4576 14.8145 9.05922
Co 20.5246 16.7754 7.20871
Pd 18.5644 14.7979 10.934
Pd 18.5525 16.6729 12.8564
Pd 20.4495 14.7855 12.8537
Co 20.4472 16.6817 10.9541
Pd 18.5521 14.7752 14.7412
Pd 18.5564 16.6752 16.6597
Pd 20.4637 14.7777 16.6561
Co 20.465 16.6833 14.7681
Pd 18.559 14.774 18.5578
Pd 18.5707 16.6803 20.4767
Pd 20.4764 14.7857 20.4733
Co 20.4729 16.6824 18.5723
Pd 18.5731 14.781 22.3804
Pd 18.5794 16.6819 24.2992
Pd 20.4849 14.7878 24.2954
Co 20.4833 16.6872 22.3893
Pd 18.5783 14.7792 26.2098
Pd 18.5818 16.6761 28.1261
Pd 20.4873 14.7819 28.1217
Co 20.4878 16.6848 26.2115
Pd 18.5778 14.7694 30.0391
Pd 18.5779 16.6629 31.9485
Pd 20.4836 14.7683 31.9439
Co 20.488 16.6756 30.0336
Pd 18.5686 14.7508 33.8617
Pd 18.5683 16.6462 35.7655
Pd 20.4756 14.7487 35.761
Co 20.4825 16.6592 33.8505
Pd 18.5664 14.7404 37.6782
Pd 18.5692 16.6324 39.5688
Pd 20.4662 14.745 39.5634
Co 20.4793 16.6486 37.6548
Pd 18.5835 14.7516 41.4855
Pd 18.5963 16.6454 43.3688
Pd 20.4791 14.7625 43.358
Co 20.4662 16.6353 41.4688
Co 20.5483 16.7177 45.2143
Pd 18.6262 20.557 5.28991
Pd 20.5136 18.6697 5.28586
Co 20.596 20.6432 3.56856
Pd 18.5978 18.6373 7.15007
Pd 18.5754 20.4982 9.08898
Pd 20.4629 18.6107 9.08493
Co 20.4821 20.5215 7.19362
Pd 18.5586 18.5899 10.9624
Pd 18.5589 20.4899 12.8817
Pd 20.4627 18.5861 12.8776
Co 20.4735 20.5047 11.0012
Pd 18.5556 18.5787 14.7693
Pd 18.5673 20.4907 16.6837
Pd 20.4717 18.5864 16.6796
Co 20.4702 20.4933 14.7909
Pd 18.5686 18.5836 18.5772
Pd 18.578 20.4927 20.4913
Pd 20.4818 18.5889 20.4873
Co 20.4802 20.4951 18.591
Pd 18.5787 18.5855 22.3932
Pd 18.5867 20.4915 24.3082
Pd 20.4889 18.5894 24.3042
Co 20.4887 20.4955 22.4002
Pd 18.5844 18.5829 26.2155
Pd 18.5891 20.4857 28.1286
Pd 20.4913 18.5836 28.1245
Co 20.4936 20.4923 26.2172
Pd 18.5835 18.5739 30.0378
Pd 18.5852 20.4753 31.9455
Pd 20.489 18.5716 31.9414
Co 20.4934 20.4839 30.0342
Pd 18.5782 18.5604 33.8538
Pd 18.5793 20.4618 35.7531
Pd 20.4836 18.5575 35.749
Co 20.4897 20.472 33.8435
Pd 18.5699 18.544 37.6617
Pd 18.5756 20.4494 39.5551
Pd 20.4794 18.5456 39.5511
Co 20.4845 20.4587 37.6435
Pd 18.5777 18.5436 41.4686
Pd 18.5968 20.4462 43.3478
Pd 20.4843 18.5587 43.3438
Co 20.4925 20.4586 41.4332
Pd 18.6217 18.5794 45.281
Pd 18.6524 20.4935 47.147
Pd 20.5398 18.6062 47.1429
Co 20.5059 20.4638 45.2408
Co 20.6244 20.5745 48.8661
Pd 18.7318 22.5594 3.44534
Pd 18.6491 24.3616 5.38437
Pd 20.5388 22.4725 5.36595
Co 20.5538 24.3843 3.51993
Pd 18.6001 22.4234 7.20999
Pd 18.5839 24.3229 9.12619
Pd 20.4879 22.4202 9.11897
Co 20.5249 24.3518 7.25535
Pd 18.5691 22.4027 11.0012
Pd 18.5696 24.321 12.9071
Pd 20.4735 22.4085 12.9097
Co 20.4818 24.3252 11.0297
Pd 18.5668 22.4036 14.7936
Pd 18.5726 24.3188 16.6992
Pd 20.4776 22.4058 16.6992
Co 20.4762 24.322 14.8114
Pd 18.5756 22.4034 18.5939
Pd 18.5835 24.3161 20.5026
Pd 20.4871 22.4053 20.5006
Co 20.4837 24.3185 18.6041
Pd 18.5861 22.4023 22.404
Pd 18.5924 24.3118 24.3156
Pd 20.4943 22.4027 24.3121
Co 20.4928 24.3152 22.4094
Pd 18.592 22.398 26.2213
Pd 18.5948 24.306 28.1329
Pd 20.4967 22.397 28.1281
Co 20.4977 24.3103 26.223
Pd 18.5909 22.3907 30.0387
Pd 18.5907 24.2987 31.9458
Pd 20.4942 22.388 31.9397
Co 20.4976 24.3036 30.0366
Pd 18.5852 22.3803 33.8487
Pd 18.5845 24.2899 35.7492
Pd 20.4895 22.3769 35.741
Co 20.4932 24.2954 33.8419
Pd 18.5811 22.3689 37.649
Pd 18.5863 24.2806 39.5413
Pd 20.4902 22.3681 39.5305
Co 20.4905 24.2873 37.6346
Pd 18.5882 22.3565 41.4413
Pd 18.6053 24.271 43.3222
Pd 20.5093 22.3683 43.3213