4033
Atoms. Timestep: 20161
Co 5.4927 12.9993 26.2142
Pd 3.56078 16.7137 24.3466
Pd 5.35387 14.7851 24.2742
Co 5.375 16.7332 22.4389
Pd 3.63818 14.8411 26.2175
Pd 3.56238 16.7084 28.0935
Pd 5.35557 14.7797 28.1592
Co 5.38869 16.6931 26.2193
Co 5.37836 16.7226 29.9997
Pd 3.52972 20.5261 20.5406
Pd 5.30284 18.5883 20.4952
Co 5.36035 20.5401 18.6428
Pd 3.53829 18.6216 22.4421
Pd 3.44567 20.4924 24.3199
Pd 5.3532 18.621 24.3427
Co 5.33042 20.5037 22.42
Pd 3.46655 18.5862 26.2227
Pd 3.44732 20.4871 28.1307
Pd 5.35488 18.6157 28.1012
Co 5.30597 20.5093 26.2246
Pd 3.54152 18.611 30.0032
Pd 3.53458 20.5101 31.9097
Pd 5.3079 18.5723 31.9484
Co 5.33379 20.493 30.0289
Co 5.36697 20.5188 33.8059
Pd 3.55096 24.3392 16.7403
Pd 5.3151 22.3991 16.6954
Co 5.40616 24.3463 14.8467
Pd 3.53573 22.4344 18.6345
Pd 3.44361 24.308 20.5131
Pd 5.33602 22.4289 20.5423
Co 5.34374 24.3083 18.6241
Pd 3.43739 22.3998 22.4172
Pd 3.41749 24.3004 24.3248
Pd 5.29307 22.4033 24.3217
Co 5.28767 24.3139 22.4292
Pd 3.42691 22.3939 26.228
Pd 3.41912 24.2951 28.1364
Pd 5.29476 22.3979 28.1326
Co 5.27416 24.3015 26.2298
Pd 3.44062 22.3891 30.0385
Pd 3.44848 24.292 31.9478
Pd 5.34096 22.413 31.9118
Co 5.29098 24.3032 30.0303
Pd 3.54212 22.413 33.8209
Pd 3.55898 24.3126 35.7203
Pd 5.32329 22.3723 35.7582
Co 5.35026 24.287 33.8349
Co 5.41584 24.3143 37.612
Pd 5.39196 26.2234 12.9746
Pd 3.61858 26.2191 14.871
Pd 3.54764 28.0937 16.7455
Pd 5.39308 26.2181 16.7591
Co 5.40286 28.0953 14.8519
Pd 3.46265 26.2138 18.6126
Pd 3.44025 28.1143 20.5184
Pd 5.3047 26.2128 20.5222
Co 5.34037 28.1226 18.6294
Pd 3.42308 26.2085 22.4198
Pd 3.41412 28.1112 24.3301
Pd 5.27585 26.2075 24.3327
Co 5.28432 28.1064 22.4344
Pd 3.40941 26.2032 26.2332
Pd 3.41574 28.1059 28.1417
Pd 5.2775 26.2022 28.1322
Co 5.27079 28.1081 26.2351
Pd 3.42629 26.1978 30.0465
Pd 3.44509 28.0984 31.9531
Pd 5.30961 26.1968 31.9424
Co 5.2876 28.0958 30.0356
Pd 3.46903 26.1925 33.8535
Pd 3.55569 28.0673 35.7256
Pd 5.40112 26.1916 35.705
Co 5.34685 28.1014 33.8403
Pd 3.62818 26.1873 37.5946
Pd 5.40329 26.1861 39.4893
Co 5.41255 28.0634 37.6174
Pd 5.30836 30.0371 16.7059
Pd 3.52906 29.9933 18.645
Pd 3.51966 31.8962 20.5564
Pd 5.32934 29.9966 20.5528
Co 5.35032 31.8908 18.6585
Pd 3.43066 30.0172 22.4278
Pd 3.43555 31.9192 24.3358
Pd 5.28634 30.0117 24.3323
Co 5.32033 31.9166 22.4358
Pd 3.42016 30.0124 26.2385
Pd 3.43717 31.914 28.1466
Pd 5.28799 30.0064 28.1432
Co 5.29586 31.9004 26.2404
Pd 3.43385 30.0066 30.0492
Pd 3.52448 31.8804 31.9257
Pd 5.3342 29.9808 31.9224
Co 5.32361 31.9061 30.0448
Pd 3.53545 29.9722 33.8316
Pd 5.31651 30.0105 35.769
Co 5.35684 31.8697 33.8218
Pd 5.28933 33.8373 20.5163
Pd 3.52485 33.7955 22.4631
Pd 3.54393 35.6981 24.3729
Pd 5.33975 33.794 24.3637
Co 5.35819 35.6871 22.4652
Pd 3.45304 33.8202 26.2438
Pd 3.54552 35.6928 28.1199
Pd 5.34139 33.7887 28.1223
Co 5.3718 35.7167 26.2457
Pd 3.52805 33.785 30.0243
Pd 5.2943 33.8213 31.9697
Co 5.36149 35.6766 30.026
Pd 5.33357 37.6301 24.306
Pd 3.61801 37.5655 26.2491
Pd 5.33527 37.6246 28.1909
Co 5.46923 39.4106 26.2509
Co 9.25093 9.22089 26.2076
Pd 7.24354 12.8659 24.2878
Pd 9.10802 10.9901 24.2864
Co 9.14253 12.9103 22.4073
Pd 7.3045 11.0502 26.2109
Pd 7.24529 12.8607 28.1388
Pd 9.10984 10.9848 28.1336
Co 9.11024 12.8686 26.2125
Co 9.14617 12.8998 30.0178
Pd 7.20079 16.6661 20.4827
Pd 9.07584 14.7706 20.4633
Co 9.11859 16.713 18.6067
Pd 7.22274 14.7782 22.3595
Pd 7.2236 16.6731 24.2928
Pd 9.09912 14.7681 24.2858
Co 9.08466 16.6587 22.3629
Pd 7.24774 14.7929 26.2159
Pd 7.22539 16.6677 28.1441
Pd 9.10098 14.7628 28.1443
Co 9.11705 16.6743 26.2177
Pd 7.22629 14.7675 30.0722
Pd 7.20607 16.6501 31.954
Pd 9.08132 14.7546 31.9667
Co 9.08836 16.6479 30.0723
Co 9.12579 16.6917 33.8283
Pd 7.19848 20.4735 16.6853
Pd 9.06477 18.5779 16.6698
Co 9.12408 20.5207 14.808
Pd 7.19511 18.5878 18.5684
Pd 7.19734 20.4807 20.4984
Pd 9.07923 18.5734 20.4767
Co 9.07367 20.4642 18.568
Pd 7.20419 18.5874 22.3866
Pd 7.21894 20.5039 24.3185
Pd 9.10757 18.5783 24.2936
Co 9.10261 20.488 22.4001
Pd 7.24358 18.5878 26.2211
Pd 7.22069 20.4986 28.1289
Pd 9.10942 18.5729 28.1469
Co 9.11657 20.4909 26.2229
Pd 7.20772 18.5766 30.0555
Pd 7.20255 20.4646 31.9487
Pd 9.08467 18.5574 31.9636
Co 9.10622 20.4773 30.0456
Pd 7.20203 18.5663 33.8733
Pd 7.20696 20.4466 35.7613
Pd 9.07359 18.5511 35.77
Co 9.08076 20.4427 33.8772
Co 9.13434 20.4885 37.6367
Pd 7.23304 24.3011 12.8933
Pd 9.08453 22.3962 12.8727
Co 9.16418 24.359 11.0342
Pd 7.21315 22.3947 14.7662
Pd 7.22808 24.2842 16.7016
Pd 9.08615 22.3759 16.681
Co 9.09332 24.2799 14.774
Pd 7.20275 22.391 18.5916
Pd 7.21588 24.3117 20.5204
Pd 9.09685 22.3877 20.4975
Co 9.10849 24.2988 18.6017
Pd 7.21147 22.4039 22.4234
Pd 7.18806 24.3078 24.3277
Pd 9.11 22.4047 24.3244
Co 9.10744 24.306 22.4205
Pd 7.19513 22.4041 26.2264
Pd 7.18978 24.3025 28.1303
Pd 9.1118 22.3994 28.1267
Co 9.10327 24.306 26.2282
Pd 7.21492 22.3932 30.0292
Pd 7.22095 24.2958 31.9373
Pd 9.10216 22.3717 31.9533
Co 9.11098 24.2954 30.0357
Pd 7.20951 22.3695 33.8605
Pd 7.23637 24.2575 35.7555
Pd 9.09474 22.3491 35.7692
Co 9.11538 24.2775 33.8541
Pd 7.22306 22.3624 37.6854
Pd 7.24447 24.2635 39.5633
Pd 9.09617 22.3584 39.5768
Co 9.10333 24.2477 37.6811
Co 9.17716 24.3159 41.4204
Pd 9.16923 26.232 9.17523
Pd 7.31474 26.2277 11.0356
Pd 7.22967 28.1491 12.8987
Pd 9.1168 26.2267 12.9145
Co 9.16092 28.0997 11.0394
Pd 7.25113 26.2224 14.8003
Pd 7.22468 28.1554 16.707
Pd 9.10639 26.2214 16.696
Co 9.08991 28.1683 14.7794
Pd 7.23756 26.2171 18.626
Pd 7.21253 28.1172 20.5256
Pd 9.11454 26.2162 20.5253
Co 9.10511 28.1388 18.607
Pd 7.19136 26.2118 22.4289
Pd 7.18469 28.1105 24.3329
Pd 9.10021 26.2109 24.3276
Co 9.10406 28.121 22.4258
Pd 7.18207 26.2065 26.2317
Pd 7.18639 28.1052 28.1356
Pd 9.10199 26.2056 28.1341
Co 9.09989 28.1105 26.2335
Pd 7.19474 26.2012 30.0343
Pd 7.21754 28.1013 31.9427
Pd 9.11973 26.2003 31.9361
Co 9.10757 28.1105 30.0411
Pd 7.24418 26.1959 33.8367
Pd 7.23288 28.1288 35.7609
Pd 9.11478 26.1948 35.7648
Co 9.1119 28.1176 33.8595
Pd 7.26089 26.1904 37.6619
Pd 7.2411 28.1117 39.5689
Pd 9.12822 26.1892 39.5457
Co 9.09978 28.1362 37.6867
Pd 7.32772 26.1849 41.4262
Pd 9.18379 26.1836 43.2846
Co 9.17388 28.057 41.426
Pd 9.07783 30.0573 12.8834
Pd 7.20642 30.0502 14.7768
Pd 7.18835 31.9661 16.7013
Pd 9.07939 30.067 16.6916
Co 9.11406 31.9275 14.8238
Pd 7.196 30.0433 18.6022
Pd 7.18721 31.9483 20.5143
Pd 9.09008 30.0447 20.508
Co 9.06351 31.9735 18.5839
Pd 7.20474 30.0198 22.4339
Pd 7.20883 31.9145 24.3344
Pd 9.10324 30.0171 24.3349
Co 9.09246 31.9391 22.416
Pd 7.18838 30.0089 26.2369
Pd 7.21054 31.9092 28.1448
Pd 9.10501 30.0118 28.1373
Co 9.1064 31.9256 26.2388
Pd 7.20811 30.0092 30.0398
Pd 7.19226 31.9324 31.9647
Pd 9.09527 30.0287 31.964
Co 9.09598 31.9285 30.0616
Pd 7.20262 30.0221 33.8713
Pd 7.19662 31.9395 35.7775
Pd 9.08772 30.0404 35.78
Co 9.07034 31.9522 33.8934
Pd 7.21624 30.0182 37.6963
Pd 9.08926 30.02 39.5878
Co 9.12393 31.8957 37.6529
Pd 9.05127 33.865 16.691
Pd 7.18161 33.8466 18.5896
Pd 7.18385 35.7629 20.5091
Pd 9.06569 33.859 20.4978
Co 9.10174 35.7247 18.633
Pd 7.19068 33.8363 22.4077
Pd 7.20667 35.7454 24.3192
Pd 9.09401 33.8435 24.3148
Co 9.06769 35.7684 22.3894
Pd 7.23005 33.8253 26.2423
Pd 7.20842 35.74 28.1707
Pd 9.09582 33.8381 28.1682
Co 9.10009 35.7422 26.2441
Pd 7.19411 33.8257 30.0767
Pd 7.18901 35.7469 31.9807
Pd 9.07095 33.8429 31.985
Co 9.0713 35.7576 30.0989
Pd 7.18833 33.8253 33.8947
Pd 9.05973 33.8384 35.7914
Co 9.10869 35.7035 33.8549
Pd 9.0555 37.6619 20.495
Pd 7.20243 37.6456 22.3912
Pd 7.21981 39.5525 24.3248
Pd 9.07878 37.6537 24.3175
Co 9.11886 39.5168 22.4441
Pd 7.22746 37.6202 26.2476
Pd 7.22157 39.547 28.1759
Pd 9.0806 37.6482 28.1762
Co 9.08651 39.5478 26.2495
Pd 7.20593 37.6348 30.104
Pd 9.06088 37.6457 31.9986
Co 9.12248 39.506 30.0548
Pd 9.08094 41.4317 24.3286
Pd 7.27755 41.3629 26.253
Pd 9.08277 41.4262 28.1759
Co 9.22073 43.1957 26.2547
Co 13.036 5.46936 26.2009
Pd 11.0168 9.08461 24.283
Pd 12.8959 7.22341 24.2777
Co 12.9334 9.126 22.4005
Pd 11.0837 7.2777 26.2042
Pd 11.0187 9.07942 28.1302
Pd 12.8979 7.21825 28.1288
Co 12.8989 9.08665 26.2057
Co 12.9373 9.11563 30.011
Pd 10.9836 12.8521 20.4601
Pd 12.8682 10.9707 20.4568
Co 12.9122 12.9031 18.5906
Pd 10.9982 10.9784 22.353
Pd 10.9951 12.8625 24.2814
Pd 12.8858 10.9751 24.278
Co 12.8691 12.8527 22.351
Pd 11.027 11.0001 26.2091
Pd 10.9971 12.8571 28.1419
Pd 12.8878 10.9698 28.1385
Co 12.8978 12.8742 26.2108
Pd 11.002 10.9678 30.0653
Pd 10.9893 12.8362 31.9631
Pd 12.8741 10.9549 31.9597
Co 12.873 12.842 30.0706
Co 12.92 12.882 33.831
Pd 10.9714 16.6555 16.6606
Pd 12.8535 14.7664 16.6524
Co 12.9043 16.7078 14.7915
Pd 10.977 14.7687 18.5425
Pd 10.9779 16.6565 20.463
Pd 12.8652 14.7597 20.4557
Co 12.8557 16.6489 18.5433
Pd 10.9861 14.7643 22.3595
Pd 10.9917 16.6646 24.2912
Pd 12.884 14.7628 24.2865
Co 12.8834 16.6661 22.379
Pd 10.9924 14.7591 26.2142
Pd 10.9937 16.6593 28.1424
Pd 12.886 14.7574 28.1402
Co 12.8872 16.6622 26.216
Pd 10.9899 14.7535 30.0689
Pd 10.9836 16.6404 31.9704
Pd 12.8711 14.7437 31.9709
Co 12.8873 16.6554 30.0529
Pd 10.9846 14.7473 33.8856
Pd 10.9806 16.6287 35.7724
Pd 12.8632 14.7397 35.774
Co 12.8635 16.6274 33.8882
Co 12.9157 16.6758 37.6397
Pd 10.9805 20.4695 12.8648
Pd 12.8555 18.5779 12.8566
Co 12.9165 20.527 11.0017
Pd 10.9732 18.577 14.7454
Pd 10.9764 20.4624 16.6676
Pd 12.8583 18.563 16.6575
Co 12.8559 20.4585 14.7505
Pd 10.9739 18.567 18.5576
Pd 10.9844 20.4756 20.4811
Pd 12.8771 18.5658 20.4706
Co 12.8783 20.4755 18.5758
Pd 10.9889 18.568 22.3826
Pd 11.0016 20.4825 24.3076
Pd 12.8895 18.5713 24.3021
Co 12.8892 20.4778 22.3933
Pd 10.9986 18.5708 26.2195
Pd 11.0035 20.4771 28.1365
Pd 12.8914 18.566 28.135
Co 12.8979 20.4773 26.2212
Pd 10.9927 18.5573 30.0562
Pd 10.9899 20.4596 31.9627
Pd 12.8829 18.5498 31.9664
Co 12.893 20.4672 30.0491
Pd 10.9813 18.5455 33.8808
Pd 10.9854 20.4356 35.7756
Pd 12.8678 18.5362 35.779
Co 12.8858 20.4542 33.8662
Pd 10.984 18.5446 37.6924
Pd 10.9927 20.4316 39.5777
Pd 12.8682 18.5402 39.5791
Co 12.8669 20.4262 37.6908
Co 12.9304 20.4836 41.4387
Pd 11.0189 24.3125 9.09493
Pd 12.8804 22.4068 9.0763
Co 12.9654 24.3677 7.24793
Pd 10.9938 22.403 10.9576
Pd 10.9962 24.2924 12.8855
Pd 12.8674 22.3813 12.8711
Co 12.8787 24.2877 10.9762
Pd 10.9807 22.3791 14.7642
Pd 10.9848 24.297 16.6814
Pd 12.8743 22.3817 16.6745
Co 12.8809 24.3036 14.7849
Pd 10.9846 22.3811 18.5831
Pd 10.9994 24.3003 20.5014
Pd 12.8879 22.3881 20.4924
Co 12.8832 24.3016 18.5891
Pd 10.9987 22.391 22.4041
Pd 11.0086 24.3044 24.32
Pd 12.9007 22.3904 24.3113
Co 12.8987 24.3026 22.407
Pd 11.0116 22.3916 26.2247
Pd 11.0105 24.2991 28.1347
Pd 12.9026 22.3851 28.1364
Co 12.9071 24.3001 26.2265
Pd 11.0024 22.3804 30.0452
Pd 11.0048 24.2845 31.953
Pd 12.8935 22.3722 31.9551
Co 12.9025 24.2921 30.0459
Pd 10.9918 22.3598 33.8658
Pd 10.9936 24.2703 35.7724
Pd 12.8834 22.3551 35.7724
Co 12.8906 24.2805 33.8636
Pd 10.9911 22.3468 37.6839
Pd 11.0079 24.2548 39.5675
Pd 12.8796 22.3436 39.5749
Co 12.8914 24.2716 37.667
Pd 11.0071 22.3596 41.4897
Pd 11.0334 24.2635 43.3574
Pd 12.8951 22.3577 43.3687
Co 12.892 24.2444 41.4747
Co 12.9811 24.3132 45.2023
Pd 12.9954 26.2405 5.38282
Pd 11.1187 26.2363 7.23708
Pd 11.0156 28.1549 9.10033
Pd 12.9078 26.2352 9.12744
Co 12.9622 28.1081 7.25325
Pd 11.0279 26.231 10.9986
Pd 10.9929 28.1643 12.891
Pd 12.8856 26.23 12.891
Co 12.8754 28.1776 10.9817
Pd 10.9915 26.2257 14.7904
Pd 10.9815 28.1492 16.6867
Pd 12.8802 26.2247 16.6928
Co 12.8775 28.1512 14.7902
Pd 10.9939 26.2205 18.5976
Pd 10.996 28.1353 20.5067
Pd 12.8911 26.2195 20.5021
Co 12.8798 28.1427 18.5944
Pd 11.0073 26.2152 22.418
Pd 11.0052 28.1208 24.3253
Pd 12.9052 26.2143 24.322
Co 12.8953 28.1312 22.4123
Pd 11.0067 26.2099 26.23
Pd 11.0071 28.1155 28.14
Pd 12.9071 26.209 28.1363
Co 12.9037 28.1232 26.2318
Pd 11.011 26.2047 30.042
Pd 11.0014 28.1195 31.9584
Pd 12.8968 26.2037 31.9561
Co 12.8991 28.1207 30.0513
Pd 11.001 26.1993 33.8619
Pd 10.99 28.1226 35.7779
Pd 12.8891 26.1983 35.7649
Co 12.8871 28.1216 33.869
Pd 11.0016 26.1937 37.6685
Pd 11.0043 28.1269 39.5731
Pd 12.8973 26.1926 39.5658
Co 12.8878 28.1193 37.6725
Pd 11.0408 26.188 41.4595
Pd 11.0301 28.1065 43.3632
Pd 12.922 26.1866 43.3285
Co 12.8881 28.1347 41.4803
Pd 11.1346 26.1822 45.2205
Pd 13.0126 26.1806 47.073
Co 12.9779 28.0541 45.2081
Pd 12.8737 30.0638 9.08714
Pd 10.9871 30.0591 10.9683
Pd 10.9705 31.9874 12.8808
Pd 12.8606 30.0788 12.8819
Co 12.9065 31.9385 11.0177
Pd 10.9739 30.0725 14.7749
Pd 10.9663 31.9839 16.6836
Pd 12.8675 30.0679 16.6852
Co 12.8458 31.9965 14.7665
Pd 10.9779 30.0599 18.5937
Pd 10.9742 31.9602 20.497
Pd 12.881 30.051 20.5029
Co 12.8681 31.969 18.5917
Pd 10.9919 30.0394 22.4147
Pd 10.9914 31.9427 24.3234
Pd 12.8938 30.0381 24.3219
Co 12.8789 31.9561 22.4091
Pd 11.0048 30.0283 26.2353
Pd 10.9932 31.9374 28.1525
Pd 12.8957 30.0328 28.1471
Co 12.8876 31.9459 26.2371
Pd 10.9956 30.0288 30.0559
Pd 10.9796 31.9442 31.9788
Pd 12.8867 30.0351 31.966
Co 12.8827 31.9454 30.0651
Pd 10.9849 30.0387 33.8766
Pd 10.9749 31.9573 35.7919
Pd 12.8764 30.0414 35.7834
Co 12.8755 31.9477 33.8825
Pd 10.9838 30.0406 37.6948
Pd 10.9819 31.9502 39.5942
Pd 12.8721 30.0415 39.5858
Co 12.856 31.9646 37.7071
Pd 11.0001 30.0163 41.5009
Pd 12.888 30.0156 43.3802
Co 12.9193 31.8961 41.4551
Pd 12.842 33.8824 12.8779
Pd 10.9597 33.8747 14.7666
Pd 10.9544 35.791 16.687
Pd 12.8448 33.8868 16.6787
Co 12.8875 35.7473 14.8178
Pd 10.9603 33.8742 18.5788
Pd 10.961 35.7793 20.4894
Pd 12.8635 33.8734 20.4917
Co 12.8387 35.7957 18.5698
Pd 10.9753 33.8625 22.4037
Pd 10.9747 35.7605 24.3176
Pd 12.8758 33.8573 24.3233
Co 12.8663 35.7678 22.4054
Pd 10.985 33.849 26.2407
Pd 10.9766 35.7551 28.169
Pd 12.8778 33.8519 28.1563
Co 12.8701 35.761 26.2425
Pd 10.979 33.8518 30.0775
Pd 10.9665 35.7632 31.9971
Pd 12.8692 33.8573 31.9879
Co 12.8702 35.7569 30.0795
Pd 10.9674 33.8528 33.9023
Pd 10.9633 35.7643 35.7992
Pd 12.8537 33.8601 35.8006
Co 12.8462 35.7741 33.9151
Pd 10.9698 33.8428 37.7139
Pd 12.8537 33.8453 39.6006
Co 12.8981 35.7155 37.6664
Pd 12.8332 37.6835 16.6841
Pd 10.9567 37.6725 18.5742
Pd 10.9599 39.5837 20.4971
Pd 12.8448 37.6796 20.4873
Co 12.8886 39.5415 18.6273
Pd 10.9657 37.6663 22.3912
Pd 10.9714 39.5627 24.3184
Pd 12.8636 37.6658 24.3182
Co 12.8453 39.5812 22.3879
Pd 10.972 37.6607 26.246
Pd 10.9733 39.5572 28.179
Pd 12.8655 37.6603 28.1721
Co 12.874 39.549 26.2478
Pd 10.9695 37.6554 30.1008
Pd 10.9655 39.5674 32.0003
Pd 12.8506 37.6632 32.0029
Co 12.8492 39.5702 30.1077
Pd 10.964 37.6509 33.9176
Pd 12.8425 37.6565 35.806
Co 12.8962 39.5198 33.8681
Pd 12.8412 41.4685 20.4989
Pd 10.9711 41.4521 22.3952
Pd 10.9864 43.3405 24.3305
Pd 12.8587 41.4534 24.3202
Co 12.903 43.3078 22.4478
Pd 10.9999 41.4197 26.2513
Pd 10.9882 43.335 28.1777
Pd 12.8606 41.4478 28.1808
Co 12.8685 43.3364 26.2532
Pd 10.9749 41.4411 30.1076
Pd 12.8469 41.452 32.0021
Co 12.9068 43.2969 30.0584
Pd 12.8622 45.205 24.3303
Pd 11.0501 45.1422 26.2567
Pd 12.8641 45.1995 28.1814
Co 12.9992 46.9539 26.2583
Pd 14.8183 5.33711 24.2574
Pd 16.7501 3.54725 24.3231
Co 16.7628 5.36496 22.4187
Pd 14.8811 3.61809 26.1976
Pd 14.8203 5.33194 28.1423
Pd 16.7522 3.5423 28.0699
Co 16.73 5.37187 26.1989
Co 16.7669 5.35483 29.9792
Pd 14.7899 9.06616 20.4532
Pd 16.6887 7.19426 20.4659
Co 16.7286 9.11569 18.5934
Pd 14.8045 7.20949 22.346
Pd 14.7948 9.08246 24.2755
Pd 16.703 7.21026 24.2757
Co 16.6817 9.0749 22.3492
Pd 14.8265 7.22757 26.2023
Pd 14.7968 9.07718 28.134
Pd 16.7051 7.20502 28.127
Co 16.7046 9.1002 26.2038
Pd 14.8085 7.19908 30.0586
Pd 14.796 9.05047 31.9565
Pd 16.6949 7.17874 31.937
Co 16.6858 9.06431 30.0585
Co 16.7367 9.09494 33.8147
Pd 14.7718 12.8513 16.6491
Pd 16.664 10.9721 16.6509
Co 16.7093 12.9089 14.7852
Pd 14.781 10.9711 18.5359
Pd 14.7724 12.8559 20.4522
Pd 16.6725 10.9718 20.4528
Co 16.6578 12.8533 18.5366
Pd 14.7839 10.9731 22.3526
Pd 14.7828 12.8674 24.283
Pd 16.688 10.9785 24.2808
Co 16.6825 12.8737 22.372
Pd 14.7861 10.9721 26.2073
Pd 14.7848 12.862 28.1368
Pd 16.69 10.9731 28.132
Co 16.6859 12.8703 26.2089
Pd 14.7879 10.9624 30.062
Pd 14.7784 12.8398 31.9675
Pd 16.6786 10.9559 31.9601
Co 16.6865 12.863 30.0459
Pd 14.7891 10.9499 33.8788
Pd 14.7818 12.8248 35.7706
Pd 16.6742 10.9459 35.7624
Co 16.666 12.832 33.8814
Co 16.7215 12.8773 37.6331
Pd 14.7684 16.6598 12.8523
Pd 16.6543 14.7768 12.8494
Co 16.7113 16.7236 10.9904
Pd 14.7681 14.7698 14.7338
Pd 14.7618 16.6538 16.6515
Pd 16.6557 14.7631 16.6482
Co 16.6485 16.6536 14.7404
Pd 14.766 14.7604 18.5428
Pd 14.7709 16.6631 20.4652
Pd 16.6725 14.7649 20.4617
Co 16.6711 16.6688 18.5647
Pd 14.7746 14.7616 22.3718
Pd 14.7845 16.667 24.2974
Pd 16.6837 14.7712 24.2939
Co 16.6799 16.6701 22.3836
Pd 14.7855 14.7652 26.2125
Pd 14.7865 16.6617 28.1327
Pd 16.6857 14.7658 28.1292
Co 16.6874 16.6704 26.2142
Pd 14.7785 14.7509 30.0531
Pd 14.7768 16.6471 31.9648
Pd 16.6785 14.7489 31.9613
Co 16.6838 16.6595 30.0447
Pd 14.7741 14.739 33.8819
Pd 14.7717 16.6271 35.7782
Pd 16.6659 14.7365 35.7748
Co 16.6791 16.6475 33.8634
Pd 14.7801 14.7377 37.6909
Pd 14.782 16.6223 39.5769
Pd 16.6685 14.7397 39.5738
Co 16.6605 16.6214 37.6875
Co 16.7271 16.6809 41.4372
Pd 14.7873 20.4825 9.07031
Pd 16.6718 18.6014 9.06014
Co 16.7445 20.5548 7.21582
Pd 14.7761 18.5857 10.9416
Pd 14.7659 20.4669 12.8651
Pd 16.6548 18.5718 12.8605
Co 16.6582 20.47 10.9614
Pd 14.761 18.5658 14.7491
Pd 14.7659 20.4735 16.6677
Pd 16.6651 18.5681 16.6637
Co 16.6677 20.4803 14.7757
Pd 14.7678 18.5652 18.5657
Pd 14.7818 20.4787 20.4849
Pd 16.6781 18.5749 20.4807
Co 16.6747 20.4807 18.58
Pd 14.7827 18.5716 22.3883
Pd 14.7916 20.4795 24.3072
Pd 16.6875 18.5759 24.3033
Co 16.6872 20.4834 22.3971
Pd 14.7887 18.5692 26.2177
Pd 14.7936 20.4742 28.1335
Pd 16.6895 18.5706 28.1303
Co 16.6926 20.4804 26.2194
Pd 14.7866 18.561 30.0471
Pd 14.7876 20.4628 31.9556
Pd 16.684 18.559 31.9527
Co 16.6911 20.473 30.0418
Pd 14.7756 18.5439 33.8694
Pd 14.7755 20.4469 35.7723
Pd 16.6749 18.5415 35.7694
Co 16.6825 20.4597 33.8586
Pd 14.7726 18.5336 37.6854
Pd 14.7788 20.4293 39.5741
Pd 16.6685 18.5343 39.5721
Co 16.6793 20.4485 37.6624
Pd 14.7909 18.5423 41.492
Pd 14.803 20.4335 43.3678
Pd 16.6886 18.553 43.3717
Co 16.673 20.427 41.4756
Co 16.7619 20.5006 45.2204
Pd 14.8409 24.3217 5.33791
Pd 16.7339 22.438 5.30527
Co 16.8311 24.4015 3.60257
Pd 14.8115 22.4112 7.17384
Pd 14.7951 24.3002 9.10232
Pd 16.6774 22.3948 9.09463
Co 16.6986 24.2966 7.21674
Pd 14.7744 22.3863 10.971
Pd 14.7708 24.3041 12.8837
Pd 16.6677 22.3892 12.8826
Co 16.6794 24.3126 11.0034
Pd 14.7669 22.3844 14.7756
Pd 14.7752 24.3057 16.6873
Pd 16.6724 22.3932 16.686
Co 16.6704 24.3085 14.7917
Pd 14.7782 22.3901 18.5846
Pd 14.7864 24.3052 20.4966
Pd 16.6843 22.3944 20.494
Co 16.6795 24.3091 18.5946
Pd 14.7915 22.3906 22.4007
Pd 14.7993 24.3023 24.3149
Pd 16.6939 22.3923 24.3117
Co 16.691 24.3063 22.4057
Pd 14.7979 22.3876 26.223
Pd 14.8013 24.2971 28.1364
Pd 16.6959 22.3872 28.1325
Co 16.6979 24.3018 26.2247
Pd 14.7954 22.3801 30.0452
Pd 14.7921 24.2895 31.9546
Pd 16.6901 22.3788 31.9501
Co 16.6949 24.296 30.0438
Pd 14.7858 22.369 33.8611
Pd 14.7846 24.2795 35.7635
Pd 16.682 22.3671 35.7578
Co 16.6873 24.2884 33.8548
Pd 14.778 22.3525 37.6692
Pd 14.783 24.2667 39.566
Pd 16.6806 22.352 39.5602
Co 16.6817 24.2772 37.6571
Pd 14.7883 22.343 41.4728
Pd 14.8097 24.2513 43.3463
Pd 16.6928 22.3461 43.3469
Co 16.6931 24.2698 41.4441
Pd 14.8277 22.3562 45.2689
Pd 14.8574 24.261 47.1102
Pd 16.7512 22.3771 47.1356
Co 16.7142 24.2418 45.2296
Co 16.8477 24.3345 48.844
Pd 15.0224 26.2449 3.51417
Pd 14.8375 28.1627 5.34343
Pd 16.758 26.2437 5.42338
Co 16.8276 28.0913 3.60787
Pd 14.8293 26.2395 7.22947
Pd 14.7917 28.1736 9.1079
Pd 16.692 26.2385 9.11731
Co 16.6951 28.1857 7.22245
Pd 14.7838 26.2342 11.0006
Pd 14.7674 28.1591 12.8891
Pd 16.6724 26.2332 12.9037
Co 16.6759 28.1591 11.0089
Pd 14.7753 26.229 14.7919
Pd 14.7718 28.147 16.6926
Pd 16.6741 26.228 16.6973
Co 16.6669 28.1527 14.7971
Pd 14.7801 26.2238 18.5955
Pd 14.7829 28.1372 20.5019
Pd 16.6846 26.2228 20.5029
Co 16.676 28.1418 18.6
Pd 14.7929 26.2186 22.4086
Pd 14.7959 28.1297 24.3202
Pd 16.6953 26.2177 24.3172
Co 16.6876 28.1342 22.4109
Pd 14.803 26.2134 26.2283
Pd 14.7978 28.1244 28.1417
Pd 16.6972 26.2125 28.1375
Co 16.6945 28.1283 26.23
Pd 14.7968 26.2081 30.0479
Pd 14.7887 28.1215 31.96
Pd 16.6905 26.2073 31.952
Co 16.6915 28.1238 30.0491
Pd 14.7877 26.2029 33.861
Pd 14.7811 28.1208 35.7691
Pd 16.6837 26.2021 35.7575
Co 16.6839 28.1211 33.8604
Pd 14.786 26.1973 37.6639
Pd 14.7792 28.122 39.5716
Pd 16.6849 26.1964 39.55
Co 16.6782 28.1215 37.663
Pd 14.7969 26.1913 41.4539
Pd 14.8056 28.1251 43.3518
Pd 16.7062 26.1898 43.3349
Co 16.6891 28.1166 41.4496
Pd 14.8445 26.185 45.2243
Pd 14.8544 28.1026 47.1162
Pd 16.7739 26.183 47.0285
Co 16.7097 28.131 45.235
Pd 15.0408 26.1791 48.9398
Co 16.8458 28.0258 48.8498
Pd 16.727 30.0499 5.31629
Pd 14.8048 30.0681 7.18483
Pd 14.7773 31.9916 9.08664
Pd 16.6705 30.0823 9.10576
Co 16.7343 31.9279 7.2322
Pd 14.7677 30.0824 10.9819
Pd 14.7558 31.9967 12.8812
Pd 16.6608 30.0774 12.8935
Co 16.648 32.0022 10.9778
Pd 14.7602 30.0737 14.7864
Pd 14.7557 31.9795 16.6836
Pd 16.6655 30.063 16.6967
Co 16.6574 31.9814 14.7918
Pd 14.7713 30.0576 18.5952
Pd 14.7715 31.9638 20.5007
Pd 16.6773 30.0514 20.5047
Co 16.6643 31.9705 18.5959
Pd 14.7846 30.0466 22.4112
Pd 14.7813 31.9525 24.323
Pd 16.687 30.043 24.3222
Co 16.6769 31.9572 22.4129
Pd 14.791 30.0391 26.2335
Pd 14.7833 31.9471 28.1494
Pd 16.6889 30.0377 28.143
Co 16.6823 31.9497 26.2352
Pd 14.7885 30.0361 30.056
Pd 14.7773 31.9479 31.9719
Pd 16.6833 30.0356 31.961
Co 16.6808 31.9465 30.0578
Pd 14.779 30.0365 33.8721
Pd 14.7651 31.953 35.7889
Pd 16.6753 30.0368 35.7693
Co 16.6723 31.9492 33.8752
Pd 14.7708 30.042 37.6804
Pd 14.7676 31.9596 39.5905
Pd 16.6732 30.0407 39.5716
Co 16.6689 31.9497 37.6794
Pd 14.7802 30.0398 41.4837
Pd 14.7913 31.9437 43.3843
Pd 16.6841 30.0341 43.3574
Co 16.6609 31.9598 41.4919
Pd 14.8203 30.014 45.2804
Pd 16.7435 29.9897 47.1472
Co 16.7491 31.8745 45.2363
Pd 16.6582 33.8763 9.08175
Pd 14.7626 33.8834 10.963
Pd 14.7516 35.8041 12.8788
Pd 16.6413 33.8955 12.8818
Co 16.6945 35.7491 11.0168
Pd 14.7475 33.8927 14.7703
Pd 14.7449 35.7995 16.678
Pd 16.6514 33.8886 16.685
Co 16.6315 35.8086 14.7668
Pd 14.7542 33.8828 18.5869
Pd 14.7538 35.7796 20.4916
Pd 16.6644 33.8712 20.5019
Co 16.6541 35.7827 18.5911
Pd 14.769 33.8657 22.4094
Pd 14.7674 35.765 24.3238
Pd 16.6738 33.8595 24.3244
Co 16.6627 35.7706 22.41
Pd 14.775 33.8574 26.2389
Pd 14.7694 35.7595 28.1593
Pd 16.6757 33.8541 28.1515
Co 16.6702 35.7596 26.2406
Pd 14.7729 33.8549 30.0684
Pd 14.7597 35.7632 31.9916
Pd 16.6703 33.855 31.9742
Co 16.6667 35.7597 30.0713
Pd 14.762 33.8612 33.8912
Pd 14.7544 35.7725 35.8052
Pd 16.6614 33.8616 35.7918
Co 16.662 35.7608 33.8905
Pd 14.7582 33.8608 37.7072
Pd 14.7638 35.767 39.6037
Pd 16.6537 33.8583 39.5938
Co 16.6432 35.7761 37.7149
Pd 14.7755 33.8411 41.5135
Pd 16.6719 33.8291 43.3927
Co 16.708 35.7073 41.4633
Pd 16.6342 37.6907 12.8808
Pd 14.7479 37.689 14.7653
Pd 14.7481 39.6021 16.686
Pd 16.6354 37.6938 16.6798
Co 16.6859 39.5533 14.8217
Pd 14.7457 37.6877 18.5745
Pd 14.7486 39.5869 20.4891
Pd 16.652 37.6813 20.4934
Co 16.6341 39.5983 18.5735
Pd 14.7541 37.6758 22.4035
Pd 14.759 39.5646 24.32
Pd 16.6632 37.6642 24.3256
Co 16.6587 39.5671 22.409
Pd 14.765 37.6614 26.2442
Pd 14.761 39.559 28.1739
Pd 16.6652 37.6587 28.161
Co 16.6621 39.5596 26.246
Pd 14.7581 37.6648 30.085
Pd 14.7545 39.5704 32.0047
Pd 16.658 37.6647 31.9934
Co 16.6627 39.5559 30.0831
Pd 14.7535 37.6658 33.914
Pd 14.7578 39.5748 35.8078
Pd 16.6453 37.6663 35.8069
Co 16.642 39.5761 33.9186
Pd 14.7594 37.6566 37.7229
Pd 16.6478 37.6528 39.6058
Co 16.6976 39.5204 37.67
Pd 16.6371 41.4846 16.6927
Pd 14.754 41.477 18.578
Pd 14.7596 43.3765 20.5006
Pd 16.6455 41.4743 20.4949
Co 16.6984 43.3356 18.6405
Pd 14.7568 41.4643 22.3948
Pd 14.7643 43.3494 24.323
Pd 16.6609 41.4569 24.323
Co 16.6513 43.3658 22.3967
Pd 14.7589 41.4543 26.2496
Pd 14.7663 43.3438 28.1816
Pd 16.6628 41.4513 28.1743
Co 16.6742 43.3296 26.2513
Pd 14.7607 41.4532 30.1044
Pd 14.7654 43.3599 32.004
Pd 16.6514 41.4576 32.0024
Co 16.6552 43.3546 30.1061
Pd 14.7618 41.455 33.9212
Pd 16.6469 41.457 35.8045
Co 16.7061 43.3136 33.862
Pd 16.6552 45.2516 20.5184
Pd 14.7708 45.2277 22.3986
Pd 14.7813 47.0947 24.3152
Pd 16.6693 45.225 24.3283
Co 16.726 47.0755 22.4763
Pd 14.7928 45.1989 26.2549
Pd 14.7832 47.0891 28.2
Pd 16.6712 45.2193 28.1797
Co 16.693 47.0579 26.2566
Pd 14.7747 45.2166 30.1113
Pd 16.6609 45.235 31.9896
Co 16.7297 47.0645 30.0368
Pd 16.7101 48.8878 24.3858
Pd 14.841 48.8084 26.26
Pd 16.7118 48.8824 28.1325
Pd 18.6143 5.29945 20.4716
Pd 20.5552 3.52943 20.5105
Co 20.5623 5.36347 18.6161
Pd 18.6543 3.53139 22.4152
Pd 18.6543 5.34315 24.3187
Pd 20.5291 3.43893 24.2891
Co 20.5333 5.32709 22.3926
Pd 18.6265 3.45304 26.1954
Pd 18.6564 5.33809 28.077
Pd 20.5312 3.43384 28.0996
Co 20.5464 5.29591 26.1968
Pd 18.6586 3.52142 29.9759
Pd 18.6205 5.28413 31.9244
Pd 20.5615 3.51446 31.8789
Co 20.5375 5.31686 30.0012
Co 20.5706 5.34337 33.7784
Pd 18.5898 9.06842 16.6535
Pd 20.4886 7.20499 16.6624
Co 20.5285 9.13403 14.7888
Pd 18.6066 7.19523 18.5484
Pd 18.5928 9.07629 20.4596
Pd 20.5033 7.19754 20.4745
Co 20.4798 9.0774 18.5477
Pd 18.6137 7.19768 22.366
Pd 18.605 9.09766 24.2762
Pd 20.534 7.21233 24.2942
Co 20.511 9.09956 22.3792
Pd 18.6215 7.23013 26.2004
Pd 18.607 9.09234 28.1295
Pd 20.5361 7.20711 28.1045
Co 20.5213 9.10645 26.2018
Pd 18.6178 7.18723 30.0347
Pd 18.5989 9.06053 31.9463
Pd 20.5095 7.18198 31.9245
Co 20.5151 9.089 30.0246
Pd 18.6149 7.17467 33.8528
Pd 18.6001 9.04263 35.753
Pd 20.499 7.17963 35.7375
Co 20.488 9.05654 33.8565
Co 20.5412 9.10365 37.6166
Pd 18.5754 12.8664 12.8476
Pd 20.4698 10.994 12.8497
Co 20.5199 12.9335 10.9903
Pd 18.5814 10.9805 14.7328
Pd 18.5682 12.8627 16.6475
Pd 20.471 10.9838 16.651
Co 20.4599 12.867 14.7374
Pd 18.5792 10.9746 18.5441
Pd 18.5785 12.8744 20.4601
Pd 20.4917 10.9849 20.4637
Co 20.4846 12.8825 18.5619
Pd 18.5877 10.9826 22.3687
Pd 18.5913 12.8796 24.2915
Pd 20.5059 10.995 24.2899
Co 20.4943 12.8862 22.3791
Pd 18.5979 10.9851 26.2054
Pd 18.5933 12.8742 28.1244
Pd 20.5079 10.9897 28.1189
Co 20.5011 12.8876 26.207
Pd 18.5917 10.9719 30.0422
Pd 18.5846 12.8584 31.9558
Pd 20.4977 10.969 31.9452
Co 20.4982 12.8755 30.0349
Pd 18.5874 10.9534 33.867
Pd 18.5785 12.8362 35.7687
Pd 20.4813 10.9576 35.7585
Co 20.4927 12.8613 33.8522
Pd 18.5942 10.9494 37.6791
Pd 18.5901 12.83 39.5694
Pd 20.485 10.9583 39.5613
Co 20.4724 12.8354 37.6773
Co 20.5375 12.8927 41.426
Pd 18.5852 16.6902 9.05741
Pd 20.4683 14.8079 9.06252
Co 20.5345 16.7686 7.21025
Pd 18.5757 14.7909 10.9361
Pd 18.563 16.6667 12.8573
Pd 20.4612 14.7806 12.8557
Co 20.4573 16.6765 10.9554
Pd 18.5639 14.7692 14.7426
Pd 18.5669 16.6697 16.6602
Pd 20.4757 14.7738 16.6573
Co 20.4756 16.6792 14.7687
Pd 18.5709 14.7688 18.5587
Pd 18.581 16.6753 20.4772
Pd 20.4882 14.7824 20.4742
Co 20.4834 16.6788 18.5728
Pd 18.5847 14.7763 22.3812
Pd 18.5893 16.6775 24.2997
Pd 20.4963 14.785 24.2964
Co 20.4933 16.6841 22.3899
Pd 18.5896 14.7751 26.2106
Pd 18.5913 16.6722 28.1267
Pd 20.4982 14.7797 28.1228
Co 20.4974 16.6823 26.2123
Pd 18.5887 14.7657 30.04
Pd 18.587 16.6595 31.9491
Pd 20.4942 14.7665 31.945
Co 20.4972 16.6736 30.0346
Pd 18.579 14.7474 33.8624
Pd 18.5769 16.643 35.7659
Pd 20.4858 14.7472 35.7619
Co 20.4913 16.6577 33.8514
Pd 18.5763 14.7373 37.6787
Pd 18.5772 16.6294 39.5688
Pd 20.4759 14.7438 39.5642
Co 20.4876 16.6473 37.6555
Pd 18.5928 14.7488 41.4859
Pd 18.6035 16.6428 43.3687
Pd 20.4881 14.7617 43.3588
Co 20.474 16.6343 41.4693
Co 20.5553 16.7172 45.2147
Pd 18.6351 20.5489 5.28909
Pd 20.5238 18.6627 5.28583
Co 20.6056 20.6358 3.56827
Pd 18.6076 18.6296 7.14985
Pd 18.5836 20.491 9.08818
Pd 20.472 18.6049 9.08517
Co 20.4909 20.5151 7.19265
Pd 18.5678 18.5832 10.9625
Pd 18.5666 20.4835 12.8812
Pd 20.472 18.5815 12.8777
Co 20.4814 20.4995 11.0007
Pd 18.5647 18.5728 14.7694
Pd 18.5749 20.485 16.6832
Pd 20.4809 18.5825 16.6795
Co 20.4781 20.4889 14.7903
Pd 18.5776 18.5783 18.5772
Pd 18.5852 20.4875 20.491
Pd 20.4906 18.5856 20.4874
Co 20.4876 20.4914 18.5906
Pd 18.5872 18.5807 22.3933
Pd 18.5934 20.487 24.3082
Pd 20.4971 18.5866 24.3046
Co 20.4955 20.4923 22.4002
Pd 18.5925 18.5788 26.2159
Pd 18.5953 20.4818 28.1289
Pd 20.499 18.5815 28.1253
Co 20.5 20.4897 26.2176
Pd 18.5912 18.5703 30.0384
Pd 18.591 20.472 31.9459
Pd 20.4964 18.57 31.9423
Co 20.4994 20.4821 30.035
Pd 18.5854 18.5572 33.8543
Pd 18.5846 20.4588 35.7534
Pd 20.4907 18.5562 35.7498
Co 20.4954 20.4708 33.8443
Pd 18.5766 18.5409 37.6617
Pd 18.5802 20.4464 39.5547
Pd 20.4859 18.5445 39.5514
Co 20.4897 20.4576 37.6441
Pd 18.5836 18.5405 41.4682
Pd 18.6002 20.443 43.3467
Pd 20.49 18.5578 43.3438
Co 20.4969 20.4574 41.4331
Pd 18.6266 18.5766 45.2803
Pd 18.6545 20.4904 47.1458
Pd 20.5445 18.6058 47.1428
Co 20.5092 20.4628 45.2404
Co 20.6263 20.5743 48.8655
Pd 18.7396 22.5511 3.44444
Pd 18.6551 24.3537 5.38305
Pd 20.5466 22.4658 5.36479
Co 20.5598 24.378 3.51887
Pd 18.6073 22.4157 7.2087
Pd 18.5892 24.3155 9.12471
Pd 20.4947 22.4144 9.1177
Co 20.5305 24.3458 7.25394
Pd 18.5756 22.3958 11.0001
Pd 18.5743 24.3142 12.9058
Pd 20.48 22.4033 12.9086
Co 20.4868 24.3195 11.0283
Pd 18.573 22.3973 14.7927
Pd 18.5769 24.3127 16.6981
Pd 20.4838 22.4015 16.6983
Co 20.4808 24.317 14.8102
Pd 18.5814 22.3978 18.5931
Pd 18.5874 24.3106 20.5017
Pd 20.4926 22.4017 20.4999
Co 20.4879 24.3143 18.603
Pd 18.5914 22.3973 22.4034
Pd 18.5957 24.307 24.3149
Pd 20.4993 22.3997 24.3119
Co 20.4964 24.3117 22.4087
Pd 18.5968 22.3937 26.2211
Pd 18.5977 24.3019 28.1327
Pd 20.5012 22.3947 28.1285
Co 20.5008 24.3075 26.2228
Pd 18.5953 22.3871 30.0389
Pd 18.5933 24.2953 31.9461
Pd 20.4984 22.3865 31.9405
Co 20.5003 24.3016 30.037
Pd 18.5892 22.3773 33.8491
Pd 18.5867 24.2871 35.7496
Pd 20.4935 22.3761 35.7419
Co 20.4957 24.2943 33.8429
Pd 18.5845 22.3661 37.649
Pd 18.5875 24.2778 39.541
Pd 20.4935 22.3673 39.5308
Co 20.4927 24.2868 37.6356
Pd 18.5903 22.3533 41.4404
Pd 18.6045 24.2672 43.3203
Pd 20.5112 22.367 43.3207
Co 20.5018 24.2781 41.4162