4033
Atoms. Timestep: 20158
Co 5.48771 13.0033 26.2164
Pd 3.55718 16.7173 24.3467
Pd 5.34965 14.788 24.2755
Co 5.37162 16.7352 22.4392
Pd 3.63381 14.8458 26.2186
Pd 3.55836 16.7141 28.0938
Pd 5.35087 14.7847 28.1605
Co 5.38481 16.6971 26.2196
Co 5.37399 16.7287 30.0002
Pd 3.52777 20.5277 20.5386
Pd 5.30029 18.5893 20.4944
Co 5.35867 20.5401 18.641
Pd 3.53552 18.6242 22.4411
Pd 3.44318 20.4961 24.318
Pd 5.35013 18.6241 24.3419
Co 5.32816 20.5057 22.4183
Pd 3.46331 18.5908 26.2219
Pd 3.44438 20.4928 28.129
Pd 5.35131 18.6208 28.1007
Co 5.30316 20.5133 26.2229
Pd 3.5379 18.6177 30.0026
Pd 3.53135 20.518 31.9084
Pd 5.3039 18.5795 31.9482
Co 5.33056 20.4992 30.0276
Co 5.36344 20.5271 33.8049
Pd 3.55068 24.3389 16.7363
Pd 5.31428 22.3982 16.6926
Co 5.4062 24.3444 14.843
Pd 3.53462 22.435 18.6315
Pd 3.44273 24.3096 20.5091
Pd 5.33458 22.43 20.5395
Co 5.34313 24.3084 18.6204
Pd 3.43571 22.4024 22.4143
Pd 3.41606 24.3041 24.3209
Pd 5.29105 22.4064 24.319
Co 5.28645 24.316 22.4255
Pd 3.42474 22.3986 26.2251
Pd 3.41726 24.3008 28.1327
Pd 5.29225 22.4031 28.1301
Co 5.2724 24.3057 26.2262
Pd 3.4381 22.3959 30.036
Pd 3.44633 24.2998 31.9444
Pd 5.33816 22.4203 31.9096
Co 5.28884 24.3095 30.027
Pd 3.53939 22.422 33.8188
Pd 3.55666 24.3226 35.7173
Pd 5.32027 22.3819 35.7565
Co 5.34792 24.2954 33.832
Co 5.41336 24.3249 37.6094
Pd 5.39283 26.2205 12.9699
Pd 3.61912 26.2178 14.866
Pd 3.54838 28.0934 16.7395
Pd 5.3933 26.2173 16.7544
Co 5.4039 28.0934 14.8462
Pd 3.46258 26.2145 18.6076
Pd 3.4404 28.116 20.5124
Pd 5.30429 26.214 20.5174
Co 5.34079 28.1228 18.6237
Pd 3.42244 26.2112 22.4149
Pd 3.41372 28.115 24.3242
Pd 5.27485 26.2107 24.328
Co 5.28412 28.1086 22.4287
Pd 3.40829 26.2079 26.2284
Pd 3.41492 28.1117 28.1359
Pd 5.27605 26.2074 28.1277
Co 5.27006 28.1124 26.2295
Pd 3.42483 26.2047 30.042
Pd 3.444 28.1062 31.9477
Pd 5.30789 26.2042 31.9382
Co 5.28651 28.1021 30.0302
Pd 3.46737 26.2014 33.8492
Pd 3.55435 28.0771 35.7205
Pd 5.39926 26.201 35.7012
Co 5.34558 28.1098 33.8352
Pd 3.62627 26.1983 37.5907
Pd 5.40117 26.1978 39.4857
Co 5.41106 28.0739 37.6126
Pd 5.30959 30.0363 16.6992
Pd 3.52998 29.994 18.6379
Pd 3.5208 31.898 20.5484
Pd 5.32994 29.9979 20.546
Co 5.35171 31.8911 18.6507
Pd 3.43103 30.02 22.4208
Pd 3.43617 31.9231 24.3278
Pd 5.28638 30.015 24.3256
Co 5.32116 31.919 22.4281
Pd 3.42007 30.0172 26.2317
Pd 3.43737 31.9198 28.1388
Pd 5.28758 30.0118 28.1366
Co 5.29617 31.9048 26.2327
Pd 3.43343 30.0134 30.0426
Pd 3.52437 31.8882 31.9181
Pd 5.33352 29.9882 31.9161
Co 5.32356 31.9124 30.0373
Pd 3.53476 29.981 33.8253
Pd 5.31559 30.02 35.763
Co 5.35648 31.8781 33.8146
Pd 5.29094 33.8386 20.5074
Pd 3.52621 33.7983 22.4541
Pd 3.54554 35.7019 24.363
Pd 5.34082 33.7974 24.355
Co 5.35999 35.6895 22.4554
Pd 3.45396 33.8251 26.2349
Pd 3.54671 35.6987 28.1101
Pd 5.342 33.7942 28.1137
Co 5.37314 35.7211 26.236
Pd 3.52859 33.7918 30.0156
Pd 5.29454 33.8288 31.9613
Co 5.36237 35.6831 30.0164
Pd 5.33563 37.6335 24.2951
Pd 3.61986 37.5703 26.2381
Pd 5.33686 37.6302 28.1801
Co 5.4715 39.4151 26.2391
Co 9.2449 9.22362 26.212
Pd 7.23874 12.8683 24.2902
Pd 9.10272 10.9919 24.2899
Co 9.13805 12.9111 22.4098
Pd 7.29894 11.0536 26.2142
Pd 7.23995 12.865 28.1414
Pd 9.10393 10.9886 28.1372
Co 9.10514 12.8714 26.2152
Co 9.14044 12.9046 30.0206
Pd 7.19769 16.6665 20.4831
Pd 9.07221 14.7703 20.4649
Co 9.11585 16.7118 18.6073
Pd 7.21879 14.7796 22.3609
Pd 7.2199 16.6755 24.2933
Pd 9.09485 14.7699 24.2875
Co 9.08124 16.6595 22.3636
Pd 7.24324 14.7963 26.2174
Pd 7.22111 16.6722 28.1448
Pd 9.09606 14.7666 28.1462
Co 9.11297 16.6771 26.2185
Pd 7.22121 14.773 30.0739
Pd 7.2013 16.6567 31.955
Pd 9.07583 14.7605 31.9688
Co 9.08366 16.6529 30.0733
Co 9.12064 16.6987 33.8296
Pd 7.19714 20.472 16.6839
Pd 9.06292 18.5758 16.6696
Co 9.12311 20.5176 14.8068
Pd 7.19288 18.5872 18.5679
Pd 7.19534 20.4811 20.4969
Pd 9.07668 18.5732 20.4763
Co 9.072 20.4631 18.5668
Pd 7.20133 18.5888 22.3861
Pd 7.21632 20.5064 24.3171
Pd 9.10433 18.5801 24.2933
Co 9.10023 20.4888 22.3989
Pd 7.24013 18.5913 26.2207
Pd 7.21752 20.5032 28.1276
Pd 9.10555 18.5768 28.1468
Co 9.11353 20.4938 26.2217
Pd 7.20375 18.5822 30.0553
Pd 7.19895 20.4713 31.9477
Pd 9.08029 18.5634 31.9638
Co 9.10263 20.4823 30.0446
Pd 7.1977 18.5741 33.8735
Pd 7.20314 20.4556 35.7607
Pd 9.06892 18.5594 35.7706
Co 9.07681 20.4499 33.8766
Co 9.13029 20.4981 37.6366
Pd 7.23343 24.2977 12.89
Pd 9.08442 22.3922 12.8707
Co 9.16491 24.354 11.0312
Pd 7.21267 22.3923 14.7638
Pd 7.2278 24.2828 16.6983
Pd 9.08535 22.3739 16.6788
Co 9.09337 24.277 14.771
Pd 7.2016 22.3905 18.5892
Pd 7.21493 24.3123 20.5169
Pd 9.09534 22.3877 20.4952
Co 9.10785 24.2978 18.5986
Pd 7.20967 22.4054 22.4209
Pd 7.18646 24.3104 24.3242
Pd 9.1078 22.4066 24.3222
Co 9.1061 24.3071 22.4173
Pd 7.19273 22.4077 26.224
Pd 7.18766 24.3072 28.127
Pd 9.109 22.4034 28.1246
Co 9.10127 24.3091 26.225
Pd 7.21206 22.3989 30.027
Pd 7.21853 24.3025 31.9343
Pd 9.09894 22.3778 31.9515
Co 9.10849 24.3005 30.0327
Pd 7.2064 22.3774 33.8587
Pd 7.23379 24.2664 35.7529
Pd 9.09135 22.3575 35.7678
Co 9.11265 24.2847 33.8514
Pd 7.21988 22.3726 37.6841
Pd 7.24182 24.2748 39.5611
Pd 9.09282 22.3693 39.576
Co 9.10057 24.2573 37.679
Co 9.17447 24.328 41.4188
Pd 9.17077 26.2261 9.17134
Pd 7.31595 26.2233 11.0314
Pd 7.23107 28.1457 12.8933
Pd 9.11769 26.2228 12.9105
Co 9.16262 28.0949 11.0345
Pd 7.25168 26.2201 14.796
Pd 7.22542 28.1541 16.7016
Pd 9.10661 26.2196 16.6919
Co 9.09098 28.1655 14.7743
Pd 7.23745 26.2168 18.6216
Pd 7.2126 28.118 20.5201
Pd 9.11406 26.2163 20.5211
Co 9.10549 28.1381 18.6019
Pd 7.19058 26.2135 22.4244
Pd 7.18413 28.1133 24.3275
Pd 9.09905 26.213 24.3234
Co 9.10376 28.1223 22.4206
Pd 7.1807 26.2102 26.2272
Pd 7.18533 28.11 28.1303
Pd 9.10024 26.2098 28.1299
Co 9.09894 28.1137 26.2283
Pd 7.19297 26.207 30.0301
Pd 7.21619 28.1082 31.9376
Pd 9.11765 26.2065 31.9322
Co 9.10615 28.1157 30.036
Pd 7.24223 26.2037 33.8328
Pd 7.23142 28.1377 35.7562
Pd 9.11261 26.2032 35.7613
Co 9.11029 28.125 33.8547
Pd 7.25887 26.2005 37.6584
Pd 7.23946 28.1228 39.5644
Pd 9.12607 26.2 39.5427
Co 9.09819 28.1458 37.6823
Pd 7.32551 26.1973 41.423
Pd 9.1815 26.1968 43.2819
Co 9.17218 28.0689 41.422
Pd 9.07971 30.0535 12.8773
Pd 7.20797 30.0479 14.7704
Pd 7.19009 31.9649 16.6937
Pd 9.08063 30.0653 16.6854
Co 9.11611 31.9248 14.8166
Pd 7.19691 30.0431 18.5957
Pd 7.18831 31.9492 20.5067
Pd 9.09064 30.045 20.5018
Co 9.06494 31.9728 18.5766
Pd 7.205 30.0216 22.4274
Pd 7.20932 31.9173 24.3268
Pd 9.10313 30.0194 24.3287
Co 9.0932 31.9405 22.4087
Pd 7.18806 30.0128 26.2305
Pd 7.21052 31.9141 28.1374
Pd 9.10433 30.0162 28.1311
Co 9.10652 31.929 26.2315
Pd 7.20739 30.0151 30.0335
Pd 7.19191 31.9394 31.9576
Pd 9.09424 30.0352 31.958
Co 9.09561 31.934 30.0544
Pd 7.20171 30.03 33.8653
Pd 7.19609 31.9485 35.7706
Pd 9.08663 30.0489 35.7744
Co 9.06975 31.9597 33.8865
Pd 7.21518 30.0282 37.6906
Pd 9.08812 30.0306 39.5825
Co 9.12329 31.9052 37.6464
Pd 9.05354 33.8633 16.6827
Pd 7.18352 33.8464 18.581
Pd 7.18597 35.7638 20.4995
Pd 9.0673 33.8594 20.4894
Co 9.10419 35.7241 18.6236
Pd 7.19198 33.8382 22.3991
Pd 7.2082 35.7483 24.3096
Pd 9.09497 33.846 24.3064
Co 9.06951 35.7699 22.38
Pd 7.23079 33.8292 26.2337
Pd 7.20941 35.745 28.1612
Pd 9.09618 33.8427 28.1599
Co 9.10127 35.7457 26.2348
Pd 7.19439 33.8317 30.0684
Pd 7.18958 35.754 31.9713
Pd 9.07092 33.8495 31.9769
Co 9.07194 35.7633 30.0897
Pd 7.18834 33.8333 33.8866
Pd 9.05955 33.8469 35.7837
Co 9.10898 35.711 33.8459
Pd 9.05817 37.6623 20.4845
Pd 7.20476 37.6475 22.3805
Pd 7.22237 39.5555 24.3131
Pd 9.08081 37.6562 24.3071
Co 9.12172 39.5183 22.4326
Pd 7.22923 37.6242 26.237
Pd 7.22358 39.5522 28.1642
Pd 9.08202 37.6529 28.1658
Co 9.08877 39.5514 26.2381
Pd 7.20718 37.6409 30.0935
Pd 9.06179 37.6524 31.9884
Co 9.12412 39.5117 30.0434
Pd 9.08404 41.4342 24.316
Pd 7.28035 41.367 26.2402
Pd 9.08525 41.4309 28.1633
Co 9.22405 43.1994 26.2412
Co 13.0292 5.47107 26.2076
Pd 11.0111 9.08586 24.2877
Pd 12.8898 7.22419 24.2836
Co 12.9281 9.12575 22.4054
Pd 11.0772 7.27991 26.2098
Pd 11.0123 9.08256 28.135
Pd 12.891 7.22089 28.1347
Co 12.8929 9.08834 26.2108
Co 12.9304 9.11922 30.0162
Pd 10.9795 12.8513 20.4628
Pd 12.8637 10.9695 20.4606
Co 12.9086 12.9008 18.5934
Pd 10.9933 10.9786 22.3567
Pd 10.9903 12.8636 24.2843
Pd 12.8805 10.9758 24.2821
Co 12.8646 12.8523 22.354
Pd 11.0214 11.0023 26.213
Pd 10.9915 12.8603 28.1449
Pd 12.8817 10.9725 28.1427
Co 12.8926 12.8758 26.214
Pd 10.9957 10.972 30.0693
Pd 10.9832 12.8415 31.9663
Pd 12.8674 10.9596 31.9641
Co 12.8671 12.8457 30.074
Co 12.9134 12.8877 33.8346
Pd 10.9691 16.6527 16.6615
Pd 12.8508 14.7631 16.6544
Co 12.9025 16.7036 14.7927
Pd 10.9738 14.7669 18.5443
Pd 10.9749 16.6557 20.4639
Pd 12.8617 14.7583 20.4577
Co 12.8531 16.6465 18.5445
Pd 10.9821 14.7644 22.3613
Pd 10.9879 16.6658 24.2921
Pd 12.8796 14.7634 24.2887
Co 12.8799 16.6657 22.3802
Pd 10.9877 14.7613 26.2162
Pd 10.9891 16.6625 28.1436
Pd 12.8808 14.7601 28.1426
Co 12.8829 16.6638 26.2173
Pd 10.9846 14.7578 30.0711
Pd 10.9785 16.6458 31.9718
Pd 12.8653 14.7484 31.9735
Co 12.8823 16.6591 30.0543
Pd 10.9787 14.7538 33.8881
Pd 10.9751 16.6363 35.7742
Pd 12.8568 14.7467 35.7768
Co 12.8579 16.6334 33.89
Co 12.9097 16.684 37.6419
Pd 10.98 20.4649 12.8641
Pd 12.8545 18.5728 12.8571
Co 12.9163 20.5209 11.0014
Pd 10.9718 18.5734 14.7455
Pd 10.9751 20.4598 16.6668
Pd 12.8566 18.5597 16.6578
Co 12.855 20.4543 14.75
Pd 10.9717 18.5652 18.5576
Pd 10.9823 20.4749 20.4802
Pd 12.8745 18.5644 20.4709
Co 12.8766 20.4732 18.5752
Pd 10.9859 18.5682 22.3826
Pd 10.9988 20.4838 24.3066
Pd 12.8861 18.5719 24.3024
Co 12.8866 20.4775 22.3926
Pd 10.9949 18.5731 26.2195
Pd 11 20.4805 28.1356
Pd 12.8873 18.5686 28.1354
Co 12.8946 20.4791 26.2205
Pd 10.9883 18.5616 30.0564
Pd 10.9859 20.465 31.9621
Pd 12.8781 18.5546 31.9669
Co 12.889 20.4709 30.0484
Pd 10.9765 18.552 33.8814
Pd 10.9812 20.4434 35.7754
Pd 12.8626 18.5433 35.7799
Co 12.8814 20.4601 33.8658
Pd 10.979 18.5537 37.6935
Pd 10.9884 20.442 39.5781
Pd 12.8629 18.5499 39.5807
Co 12.8623 20.4346 37.691
Co 12.9259 20.4948 41.4397
Pd 11.02 24.306 9.09245
Pd 12.8809 22.3998 9.0752
Co 12.9667 24.3598 7.24586
Pd 10.994 22.3975 10.956
Pd 10.9966 24.288 12.883
Pd 12.8673 22.3763 12.8698
Co 12.8795 24.2818 10.974
Pd 10.9802 22.3755 14.7625
Pd 10.9845 24.2945 16.6787
Pd 12.8735 22.3786 16.6731
Co 12.8809 24.2996 14.7826
Pd 10.9835 22.3795 18.5812
Pd 10.9984 24.2999 20.4985
Pd 12.8862 22.3869 20.4908
Co 12.8825 24.2996 18.5866
Pd 10.9967 22.3914 22.4022
Pd 11.0069 24.3059 24.3171
Pd 12.8983 22.3912 24.3096
Co 12.8972 24.3025 22.4044
Pd 11.0089 22.394 26.2228
Pd 11.0081 24.3026 28.1317
Pd 12.8995 22.388 28.1347
Co 12.9049 24.302 26.2238
Pd 10.9991 22.3849 30.0433
Pd 11.002 24.29 31.9503
Pd 12.8899 22.3771 31.9535
Co 12.8996 24.296 30.0431
Pd 10.9883 22.3664 33.8643
Pd 10.9906 24.2782 35.7701
Pd 12.8795 22.3622 35.7712
Co 12.8873 24.2865 33.861
Pd 10.9874 22.3559 37.683
Pd 11.005 24.2651 39.5658
Pd 12.8757 22.3534 39.5745
Co 12.8881 24.28 37.665
Pd 11.0037 22.3714 41.4895
Pd 11.0308 24.2767 43.3563
Pd 12.8917 22.3704 43.3691
Co 12.889 24.2556 41.4735
Co 12.9787 24.3273 45.2018
Pd 12.9975 26.2317 5.3797
Pd 11.1205 26.2289 7.23362
Pd 11.0176 28.1485 9.09574
Pd 12.9093 26.2284 9.12429
Co 12.9644 28.1003 7.24906
Pd 11.0291 26.2256 10.9951
Pd 10.9943 28.16 12.8863
Pd 12.8865 26.2252 12.8877
Co 12.8771 28.1718 10.9774
Pd 10.9921 26.2224 14.7867
Pd 10.9822 28.1469 16.682
Pd 12.8803 26.2219 16.6894
Co 12.8786 28.1474 14.7859
Pd 10.9938 26.2191 18.5938
Pd 10.996 28.1351 20.5018
Pd 12.8906 26.2186 20.4986
Co 12.8802 28.1409 18.5899
Pd 11.0064 26.2158 22.4141
Pd 11.0045 28.1225 24.3203
Pd 12.9039 26.2154 24.3183
Co 12.8949 28.1315 22.4077
Pd 11.0051 26.2126 26.226
Pd 11.0057 28.1192 28.135
Pd 12.9051 26.2121 28.1325
Co 12.9025 28.1254 26.2271
Pd 11.0088 26.2093 30.038
Pd 10.9996 28.1253 31.9535
Pd 12.8942 26.2088 31.9523
Co 12.8973 28.1249 30.0464
Pd 10.9986 26.206 33.8583
Pd 10.9882 28.1306 35.7734
Pd 12.8863 26.2056 35.7615
Co 12.885 28.1278 33.8643
Pd 10.9992 26.2028 37.6654
Pd 11.0026 28.1371 39.5691
Pd 12.8949 26.2023 39.5631
Co 12.8858 28.1278 37.6683
Pd 11.0387 26.1995 41.457
Pd 11.0284 28.1191 43.3596
Pd 12.92 26.1991 43.3266
Co 12.8867 28.1457 41.4769
Pd 11.1325 26.1964 45.2184
Pd 13.0106 26.1959 47.0711
Co 12.9764 28.0677 45.205
Pd 12.8762 30.057 9.08177
Pd 10.9894 30.0538 10.9626
Pd 10.9729 31.9831 12.8739
Pd 12.8626 30.074 12.8764
Co 12.9093 31.9327 11.0112
Pd 10.9755 30.0692 14.7691
Pd 10.9681 31.9817 16.6767
Pd 12.8688 30.0652 16.6797
Co 12.848 31.9928 14.7599
Pd 10.9787 30.0587 18.5878
Pd 10.9753 31.9601 20.49
Pd 12.8815 30.0504 20.4974
Co 12.8696 31.9673 18.5851
Pd 10.992 30.0402 22.4087
Pd 10.9918 31.9447 24.3164
Pd 12.8936 30.0395 24.3162
Co 12.8796 31.9565 22.4024
Pd 11.0043 30.0311 26.2293
Pd 10.993 31.9414 28.1455
Pd 12.8948 30.0362 28.1412
Co 12.8875 31.9484 26.2304
Pd 10.9945 30.0337 30.0499
Pd 10.9789 31.9503 31.9719
Pd 12.8852 30.0405 31.9601
Co 12.882 31.9499 30.0583
Pd 10.9835 30.0456 33.8709
Pd 10.9741 31.9653 35.7853
Pd 12.8748 30.0488 35.7778
Co 12.8744 31.9542 33.8757
Pd 10.9827 30.0496 37.6896
Pd 10.9813 31.9602 39.588
Pd 12.871 30.0511 39.5811
Co 12.8552 31.9731 37.7009
Pd 10.999 30.0276 41.4961
Pd 12.887 30.0276 43.3757
Co 12.9189 31.9066 41.4495
Pd 12.8451 33.8776 12.8702
Pd 10.9624 33.8714 14.7586
Pd 10.9573 35.7888 16.6779
Pd 12.8472 33.8841 16.671
Co 12.8909 35.7435 14.809
Pd 10.9623 33.8731 18.5707
Pd 10.9631 35.7793 20.4803
Pd 12.8651 33.8729 20.484
Co 12.8413 35.7941 18.5609
Pd 10.9765 33.8635 22.3957
Pd 10.9762 35.7626 24.3085
Pd 12.8767 33.8588 24.3155
Co 12.8681 35.7683 22.3966
Pd 10.9855 33.852 26.2326
Pd 10.9774 35.7593 28.1599
Pd 12.8779 33.8555 28.1485
Co 12.8712 35.7636 26.2336
Pd 10.979 33.8569 30.0695
Pd 10.9668 35.7694 31.9882
Pd 12.8687 33.863 31.98
Co 12.8706 35.7617 30.0707
Pd 10.9671 33.8599 33.8945
Pd 10.9633 35.7724 35.7906
Pd 12.8532 33.8677 35.7931
Co 12.8462 35.7809 33.9064
Pd 10.9696 33.8518 37.7066
Pd 12.8535 33.8547 39.5938
Co 12.898 35.7239 37.6582
Pd 12.8368 37.6807 16.6741
Pd 10.9598 37.6713 18.564
Pd 10.9631 39.5836 20.4858
Pd 12.8476 37.679 20.4774
Co 12.8923 39.5397 18.6163
Pd 10.9681 37.6673 22.381
Pd 10.9739 39.5648 24.3072
Pd 12.8656 37.6674 24.3083
Co 12.8482 39.5817 22.3769
Pd 10.9737 37.6638 26.2359
Pd 10.9752 39.5615 28.1678
Pd 12.8668 37.6641 28.1622
Co 12.8762 39.5517 26.2369
Pd 10.9705 37.6607 30.0908
Pd 10.9668 39.5738 31.9892
Pd 12.8512 37.6691 31.9932
Co 12.8507 39.5751 30.0969
Pd 10.9646 37.6582 33.9078
Pd 12.8428 37.6643 35.7965
Co 12.8971 39.5267 33.8574
Pd 12.845 41.4678 20.4868
Pd 10.9746 41.4531 22.3828
Pd 10.99 43.3426 24.3171
Pd 12.8618 41.455 24.3082
Co 12.9071 43.3083 22.4347
Pd 11.0027 41.4229 26.2391
Pd 10.9913 43.3393 28.1644
Pd 12.863 41.4517 28.1688
Co 12.8718 43.3391 26.2401
Pd 10.977 41.4465 30.0954
Pd 12.8487 41.458 31.9903
Co 12.9095 43.3017 30.0455
Pd 12.8665 45.2066 24.3162
Pd 11.054 45.1453 26.2422
Pd 12.8677 45.2033 28.1673
Co 13.0037 46.9565 26.2432
Pd 14.8118 5.33748 24.2644
Pd 16.7433 3.5473 24.3312
Co 16.7568 5.36398 22.4258
Pd 14.8739 3.61943 26.2054
Pd 14.813 5.33415 28.1495
Pd 16.7445 3.54409 28.0784
Co 16.7231 5.37271 26.2064
Co 16.7591 5.3575 29.9869
Pd 14.7851 9.06447 20.4582
Pd 16.6836 7.19226 20.472
Co 16.7243 9.11267 18.5984
Pd 14.7988 7.20884 22.352
Pd 14.7891 9.08263 24.2808
Pd 16.697 7.21002 24.2822
Co 16.6764 9.0736 22.3547
Pd 14.8201 7.2288 26.2086
Pd 14.7903 9.07932 28.1395
Pd 16.6982 7.20672 28.1337
Co 16.6985 9.10084 26.2096
Pd 14.8012 7.20223 30.065
Pd 14.7887 9.05461 31.9621
Pd 16.6872 7.18243 31.9439
Co 16.6789 9.06699 30.0644
Co 16.7291 9.09962 33.8207
Pd 14.7687 12.8475 16.6522
Pd 16.6607 10.9681 16.6548
Co 16.707 12.9038 14.7882
Pd 14.7771 10.9683 18.5399
Pd 14.7684 12.8539 20.4555
Pd 16.6681 10.9695 20.4572
Co 16.6544 12.8499 18.54
Pd 14.779 10.9722 22.3569
Pd 14.7779 12.8674 24.2864
Pd 16.6827 10.978 24.2855
Co 16.678 12.8722 22.3757
Pd 14.7804 10.9732 26.2118
Pd 14.7791 12.8641 28.1404
Pd 16.6839 10.9747 28.1369
Co 16.6806 12.8708 26.2128
Pd 14.7815 10.9655 30.0667
Pd 14.772 12.844 31.9713
Pd 16.6717 10.9596 31.9651
Co 16.6804 12.8656 30.0499
Pd 14.7819 10.9552 33.8837
Pd 14.7748 12.8311 35.7746
Pd 16.6667 10.9517 35.7675
Co 16.6592 12.8367 33.8855
Co 16.7142 12.8842 37.6374
Pd 14.7672 16.6541 12.8537
Pd 16.6529 14.7707 12.8515
Co 16.7107 16.7164 10.9921
Pd 14.7661 14.765 14.7359
Pd 14.7597 16.6499 16.653
Pd 16.6532 14.7587 16.6508
Co 16.6469 16.6482 14.7421
Pd 14.763 14.7575 18.5452
Pd 14.7678 16.6611 20.4667
Pd 16.6689 14.7624 20.4645
Co 16.6685 16.6653 18.5666
Pd 14.7706 14.7606 22.3742
Pd 14.7805 16.667 24.299
Pd 16.6793 14.7706 24.2968
Co 16.6763 16.6686 22.3855
Pd 14.7807 14.7662 26.215
Pd 14.7817 16.6637 28.1343
Pd 16.6805 14.7673 28.1321
Co 16.683 16.6708 26.2161
Pd 14.773 14.754 30.0558
Pd 14.7714 16.6513 31.9666
Pd 16.6725 14.7525 31.9643
Co 16.6787 16.662 30.0466
Pd 14.7678 14.7443 33.8849
Pd 14.7657 16.6335 35.7803
Pd 16.6592 14.7423 35.7781
Co 16.6733 16.6522 33.8656
Pd 14.7733 14.7453 37.6941
Pd 14.7756 16.6312 39.5795
Pd 16.6613 14.7478 39.5773
Co 16.6541 16.6285 37.69
Co 16.7203 16.6903 41.4401
Pd 14.7875 20.475 9.07053
Pd 16.6717 18.5934 9.06148
Co 16.7449 20.5459 7.21653
Pd 14.7756 18.579 10.9425
Pd 14.7655 20.4613 12.8651
Pd 16.6541 18.5655 12.8615
Co 16.6581 20.4629 10.9619
Pd 14.7598 18.561 14.7498
Pd 14.7646 20.4698 16.6675
Pd 16.6633 18.5637 16.6648
Co 16.6668 20.4751 14.7759
Pd 14.7656 18.5623 18.5663
Pd 14.7796 20.4769 20.4846
Pd 16.6754 18.5724 20.4818
Co 16.6728 20.4774 18.5802
Pd 14.7796 18.5707 22.3889
Pd 14.7886 20.4796 24.3068
Pd 16.684 18.5754 24.3043
Co 16.6846 20.4821 22.3972
Pd 14.7848 18.5703 26.2183
Pd 14.7898 20.4764 28.1331
Pd 16.6852 18.5721 28.1311
Co 16.6892 20.481 26.2193
Pd 14.782 18.5641 30.0477
Pd 14.7832 20.467 31.9552
Pd 16.679 18.5626 31.9536
Co 16.687 20.4755 30.0415
Pd 14.7704 18.5492 33.8702
Pd 14.7706 20.4534 35.7723
Pd 16.6693 18.5473 35.7706
Co 16.6776 20.4643 33.8584
Pd 14.767 18.5413 37.6868
Pd 14.7739 20.4384 39.5748
Pd 16.6625 18.5426 39.5739
Co 16.674 20.4555 37.6627
Pd 14.7852 18.5528 41.4941
Pd 14.7983 20.4456 43.3693
Pd 16.6825 18.564 43.3739
Co 16.6677 20.4368 41.4767
Co 16.7569 20.5134 45.2222
Pd 14.8424 24.3123 5.33622
Pd 16.735 22.4282 5.30501
Co 16.8327 24.3908 3.60111
Pd 14.8124 22.4028 7.17322
Pd 14.7961 24.2928 9.10065
Pd 16.6779 22.3869 9.09443
Co 16.6998 24.2878 7.21552
Pd 14.7747 22.3798 10.9702
Pd 14.7711 24.2987 12.8818
Pd 16.6676 22.3832 12.8821
Co 16.68 24.3058 11.0021
Pd 14.7665 22.3799 14.7747
Pd 14.7749 24.3023 16.6853
Pd 16.6714 22.3891 16.6854
Co 16.6703 24.3037 14.7902
Pd 14.7769 22.3874 18.5835
Pd 14.7852 24.3037 20.4945
Pd 16.6825 22.3922 20.4933
Co 16.6786 24.3061 18.593
Pd 14.7894 22.3899 22.3994
Pd 14.7974 24.3027 24.3126
Pd 16.6914 22.3921 24.3107
Co 16.6894 24.3052 22.4039
Pd 14.795 22.3888 26.2216
Pd 14.7986 24.2994 28.1338
Pd 16.6926 22.3888 28.1312
Co 16.6956 24.3026 26.2226
Pd 14.7918 22.3833 30.0437
Pd 14.7888 24.2939 31.9519
Pd 16.6861 22.3824 31.9486
Co 16.6918 24.2987 30.0413
Pd 14.7817 22.3743 33.8597
Pd 14.7809 24.2859 35.7611
Pd 16.6774 22.3728 35.7566
Co 16.6834 24.293 33.8522
Pd 14.7737 22.3602 37.6684
Pd 14.7795 24.2758 39.5645
Pd 16.6759 22.3604 39.5598
Co 16.6775 24.2841 37.655
Pd 14.7843 22.3536 41.4729
Pd 14.8069 24.2635 43.3457
Pd 16.6886 22.3576 43.3475
Co 16.6895 24.2797 41.4431
Pd 14.8244 22.3701 45.2699
Pd 14.8555 24.2765 47.1101
Pd 16.7481 22.3924 47.1369
Co 16.7117 24.2553 45.2296
Co 16.847 24.352 48.8441
Pd 15.0246 26.2345 3.51138
Pd 14.84 28.1533 5.33951
Pd 16.7599 26.2339 5.42093
Co 16.8305 28.0803 3.60427
Pd 14.831 26.2312 7.2267
Pd 14.7937 28.1663 9.10397
Pd 16.6934 26.2307 9.11494
Co 16.6974 28.1769 7.21886
Pd 14.785 26.2279 10.9978
Pd 14.7687 28.1539 12.8851
Pd 16.6732 26.2275 12.9013
Co 16.6776 28.1524 11.0054
Pd 14.7758 26.2247 14.789
Pd 14.7725 28.1438 16.6885
Pd 16.6742 26.2242 16.6948
Co 16.668 28.148 14.7935
Pd 14.7798 26.2214 18.5924
Pd 14.7828 28.1359 20.4977
Pd 16.6839 26.221 20.5002
Co 16.6763 28.1391 18.5963
Pd 14.7919 26.2182 22.4054
Pd 14.7951 28.1304 24.3159
Pd 16.6938 26.2177 24.3143
Co 16.687 28.1335 22.4071
Pd 14.8012 26.2149 26.2248
Pd 14.7963 28.1271 28.1371
Pd 16.6951 26.2144 28.1342
Co 16.6932 28.1295 26.2259
Pd 14.7943 26.2116 30.0443
Pd 14.7864 28.1261 31.9552
Pd 16.6875 26.2112 31.9483
Co 16.6894 28.1269 30.0446
Pd 14.7846 26.2083 33.8573
Pd 14.7785 28.1275 35.7644
Pd 16.6802 26.2079 35.7537
Co 16.6811 28.126 33.8555
Pd 14.7829 26.2051 37.6607
Pd 14.7771 28.1311 39.5679
Pd 16.6815 26.2046 39.5472
Co 16.6752 28.1284 37.6583
Pd 14.7946 26.2018 41.4519
Pd 14.8045 28.137 43.349
Pd 16.7042 26.2014 43.3335
Co 16.6872 28.1263 41.4464
Pd 14.843 26.1986 45.223
Pd 14.8532 28.1175 47.1134
Pd 16.773 26.1983 47.0275
Co 16.7093 28.1443 45.233
Pd 15.0389 26.1956 48.9382
Co 16.8447 28.0415 48.8473
Pd 16.7303 30.0398 5.31154
Pd 14.8077 30.0597 7.17978
Pd 14.7805 31.9842 9.08039
Pd 16.6732 30.0745 9.10102
Co 16.738 31.9188 7.22628
Pd 14.7699 30.0761 10.9768
Pd 14.7584 31.9914 12.8749
Pd 16.6628 30.0717 12.8887
Co 16.651 31.9953 10.9718
Pd 14.7618 30.0695 14.7813
Pd 14.7576 31.9764 16.6774
Pd 16.6667 30.0593 16.6919
Co 16.6597 31.9766 14.7858
Pd 14.7722 30.0555 18.59
Pd 14.7726 31.9628 20.4945
Pd 16.6778 30.0498 20.4999
Co 16.6658 31.9678 18.5901
Pd 14.7847 30.0465 22.406
Pd 14.7816 31.9534 24.3166
Pd 16.6867 30.0433 24.3173
Co 16.6775 31.9566 22.407
Pd 14.7903 30.041 26.2281
Pd 14.7828 31.9501 28.1429
Pd 16.6879 30.04 28.1378
Co 16.6821 31.9511 26.2292
Pd 14.7871 30.0399 30.0503
Pd 14.7762 31.9529 31.9651
Pd 16.6814 30.0399 31.9552
Co 16.6799 31.95 30.0513
Pd 14.777 30.0424 33.8662
Pd 14.7636 31.96 35.7822
Pd 16.6727 30.043 35.7631
Co 16.6706 31.9547 33.8683
Pd 14.769 30.0499 37.675
Pd 14.7668 31.9685 39.5846
Pd 16.6712 30.0489 39.5664
Co 16.6669 31.957 37.6726
Pd 14.7795 30.05 41.4795
Pd 14.7912 31.9548 43.3792
Pd 16.6839 30.0452 43.3541
Co 16.6606 31.9692 41.4866
Pd 14.8197 30.0271 45.2765
Pd 16.7434 30.004 47.1435
Co 16.7499 31.8863 45.2319
Pd 16.6623 33.8681 9.07457
Pd 14.7662 33.877 10.9556
Pd 14.7555 35.7986 12.8702
Pd 16.6447 33.8895 12.8746
Co 16.699 35.7418 11.0084
Pd 14.7504 33.8884 14.7629
Pd 14.7479 35.7962 16.6694
Pd 16.6539 33.8848 16.6779
Co 16.6351 35.8036 14.7585
Pd 14.7562 33.8806 18.5795
Pd 14.756 35.7785 20.4831
Pd 16.666 33.8695 20.4949
Co 16.6567 35.7799 18.5829
Pd 14.7702 33.8657 22.402
Pd 14.7688 35.766 24.3154
Pd 16.6746 33.86 24.3174
Co 16.6645 35.7701 22.4019
Pd 14.7755 33.8595 26.2314
Pd 14.77 35.7627 28.1507
Pd 16.6758 33.8567 28.1442
Co 16.6713 35.7613 26.2324
Pd 14.7726 33.8591 30.0608
Pd 14.7597 35.7686 31.983
Pd 16.6696 33.8597 31.9667
Co 16.667 35.7635 30.063
Pd 14.761 33.8675 33.8834
Pd 14.7539 35.7798 35.7967
Pd 16.6599 33.8684 35.7837
Co 16.6616 35.7668 33.8819
Pd 14.7576 33.8688 37.6999
Pd 14.7639 35.7757 39.596
Pd 16.6531 33.8666 39.587
Co 16.6424 35.7839 37.7064
Pd 14.7758 33.8508 41.5072
Pd 16.6731 33.8387 43.387
Co 16.7086 35.7157 41.4564
Pd 16.6389 37.6843 12.8712
Pd 14.752 37.6844 14.7556
Pd 14.7523 39.5986 16.6751
Pd 16.6391 37.6898 16.6704
Co 16.6906 39.5479 14.811
Pd 14.7489 37.6854 18.5648
Pd 14.752 39.5857 20.4784
Pd 16.6548 37.6796 20.4842
Co 16.638 39.5953 18.563
Pd 14.7565 37.6758 22.3939
Pd 14.7616 39.5657 24.3093
Pd 16.6652 37.6648 24.3164
Co 16.6617 39.5665 22.3986
Pd 14.7666 37.6636 26.2347
Pd 14.7628 39.5624 28.1633
Pd 16.6664 37.6615 28.1517
Co 16.6643 39.5613 26.2357
Pd 14.7589 37.6692 30.0755
Pd 14.7556 39.5758 31.9942
Pd 16.6585 37.6697 31.984
Co 16.6641 39.5599 30.0728
Pd 14.7538 37.6723 33.9045
Pd 14.7583 39.5822 35.7975
Pd 16.6452 37.6734 35.7977
Co 16.6428 39.5822 33.9085
Pd 14.7592 37.6647 37.7138
Pd 16.6473 37.6614 39.597
Co 16.6978 39.5283 37.6603
Pd 16.642 41.4804 16.681
Pd 14.7584 41.4746 18.566
Pd 14.764 43.3752 20.4876
Pd 16.6494 41.4725 20.4834
Co 16.7033 43.3325 18.6278
Pd 14.7603 41.4642 22.383
Pd 14.7681 43.3505 24.3102
Pd 16.664 41.4574 24.3116
Co 16.6554 43.3651 22.3841
Pd 14.7617 41.4565 26.2379
Pd 14.7693 43.3471 28.1689
Pd 16.6652 41.4541 28.163
Co 16.6775 43.3313 26.2389
Pd 14.7627 41.4576 30.0928
Pd 14.7677 43.3653 31.9915
Pd 16.653 41.4626 31.9913
Co 16.6578 43.3585 30.0938
Pd 14.7632 41.4614 33.9098
Pd 16.648 41.464 35.7937
Co 16.7081 43.3195 33.85
Pd 16.6602 45.2497 20.5046
Pd 14.7755 45.2276 22.3846
Pd 14.7862 47.0957 24.3002
Pd 16.6736 45.2254 24.3148
Co 16.7312 47.0747 22.4616
Pd 14.7968 45.201 26.2411
Pd 14.7874 47.0923 28.1853
Pd 16.6748 45.2221 28.1663
Co 16.6975 47.0594 26.2421
Pd 14.7779 45.2209 30.0976
Pd 16.6638 45.2398 31.9765
Co 16.7336 47.0682 30.0226
Pd 16.7155 48.8881 24.3701
Pd 14.8462 48.8104 26.2442
Pd 16.7167 48.8849 28.1172
Pd 18.6087 5.29722 20.4788
Pd 20.5494 3.52703 20.5187
Co 20.5573 5.36016 18.6232
Pd 18.648 3.53021 22.4234
Pd 18.6479 5.34259 24.3264
Pd 20.5222 3.43797 24.298
Co 20.5274 5.32519 22.4005
Pd 18.6192 3.45353 26.2041
Pd 18.6491 5.33937 28.0851
Pd 20.5234 3.43471 28.109
Co 20.5395 5.29574 26.2051
Pd 18.6504 3.52373 29.9849
Pd 18.6124 5.2874 31.9326
Pd 20.5529 3.51728 31.8885
Co 20.5298 5.31867 30.0098
Co 20.5621 5.34717 33.7871
Pd 18.5861 9.0643 16.6584
Pd 20.4846 7.20083 16.6683
Co 20.5257 9.12905 14.7935
Pd 18.602 7.19206 18.5545
Pd 18.588 9.0736 20.4652
Pd 20.4982 7.19459 20.4813
Co 20.4756 9.07347 18.5534
Pd 18.6081 7.19604 22.3727
Pd 18.5993 9.09679 24.2822
Pd 20.528 7.21112 24.3015
Co 20.5058 9.09725 22.3855
Pd 18.615 7.23035 26.2074
Pd 18.6005 9.09349 28.1357
Pd 20.5291 7.20786 28.112
Co 20.5153 9.10608 26.2084
Pd 18.6105 7.18946 30.042
Pd 18.5916 9.06375 31.9527
Pd 20.5018 7.18477 31.9321
Co 20.5082 9.09069 30.0312
Pd 18.6068 7.17894 33.8601
Pd 18.5921 9.04792 35.7594
Pd 20.4906 7.18448 35.7452
Co 20.4804 9.06035 33.8633
Co 20.5329 9.10948 37.6233
Pd 18.5739 12.8603 12.8504
Pd 20.4684 10.9881 12.853
Co 20.5198 12.9267 10.9925
Pd 18.5791 10.9754 14.7366
Pd 18.5653 12.8579 16.6511
Pd 20.4677 10.9788 16.6557
Co 20.4577 12.861 14.7411
Pd 18.5754 10.9709 18.5487
Pd 18.5745 12.8714 20.4642
Pd 20.4873 10.9816 20.469
Co 20.4811 12.8781 18.5663
Pd 18.5828 10.9806 22.3737
Pd 18.5865 12.8785 24.2957
Pd 20.5006 10.9936 24.2955
Co 20.4898 12.8836 22.3837
Pd 18.5922 10.9851 26.2106
Pd 18.5877 12.8752 28.1287
Pd 20.5018 10.9903 28.1245
Co 20.4959 12.8871 26.2116
Pd 18.5853 10.974 30.0475
Pd 18.5781 12.8616 31.9602
Pd 20.4909 10.9717 31.9509
Co 20.4922 12.8771 30.0395
Pd 18.5802 10.9577 33.8725
Pd 18.5714 12.8415 35.7733
Pd 20.4737 10.9625 35.7643
Co 20.4859 12.865 33.8569
Pd 18.5863 10.9557 37.6846
Pd 18.5823 12.8374 39.574
Pd 20.4768 10.9652 39.567
Co 20.4649 12.8413 37.6821
Co 20.5294 12.9006 41.4308
Pd 18.5854 16.682 9.05924
Pd 20.4694 14.8001 9.06387
Co 20.5357 16.7598 7.21209
Pd 18.5756 14.7836 10.9381
Pd 18.562 16.6599 12.8593
Pd 20.4601 14.7736 12.8584
Co 20.4572 16.6685 10.9575
Pd 18.562 14.7634 14.7453
Pd 18.5647 16.6646 16.6625
Pd 20.4731 14.7683 16.6608
Co 20.4739 16.6727 14.7715
Pd 18.5678 14.7647 18.5619
Pd 18.5778 16.6723 20.4796
Pd 20.4846 14.7789 20.4779
Co 20.4806 16.6743 18.5758
Pd 18.5807 14.7742 22.3844
Pd 18.5853 16.6764 24.302
Pd 20.4919 14.7834 24.3001
Co 20.4897 16.6816 22.3927
Pd 18.5848 14.775 26.2138
Pd 18.5865 16.6731 28.1289
Pd 20.4931 14.7801 28.1264
Co 20.4931 16.6817 26.2149
Pd 18.5831 14.7677 30.0432
Pd 18.5814 16.6624 31.9514
Pd 20.4882 14.769 31.9486
Co 20.4921 16.675 30.037
Pd 18.5726 14.7516 33.8658
Pd 18.5707 16.6483 35.7684
Pd 20.4791 14.7519 35.7656
Co 20.4854 16.6612 33.854
Pd 18.5693 14.7437 37.6823
Pd 18.5704 16.637 39.5716
Pd 20.4685 14.7507 39.5681
Co 20.4811 16.6531 37.6582
Pd 18.5852 14.7574 41.4896
Pd 18.5962 16.6526 43.3717
Pd 20.4801 14.7707 43.3626
Co 20.4668 16.6423 41.4723
Co 20.5477 16.7272 45.2177
Pd 18.6357 20.539 5.2902
Pd 20.5242 18.6528 5.28799
Co 20.606 20.6253 3.56941
Pd 18.6079 18.6205 7.15162
Pd 18.5837 20.4827 9.08929
Pd 20.4724 18.5963 9.08708
Co 20.491 20.5059 7.19451
Pd 18.5675 18.5756 10.964
Pd 18.5661 20.4768 12.882
Pd 20.471 18.5742 12.8797
Co 20.4813 20.4916 11.0021
Pd 18.5633 18.5669 14.7709
Pd 18.5733 20.4802 16.684
Pd 20.4788 18.577 16.6818
Co 20.4768 20.4827 14.7918
Pd 18.5752 18.5743 18.5788
Pd 18.5828 20.4847 20.4917
Pd 20.4878 18.5821 20.4894
Co 20.4856 20.487 18.5919
Pd 18.5841 18.5787 22.3948
Pd 18.5903 20.4861 24.3086
Pd 20.4936 18.5851 24.3063
Co 20.4929 20.4899 22.4011
Pd 18.5885 18.5787 26.2171
Pd 18.5915 20.4828 28.1289
Pd 20.4948 18.5818 28.1267
Co 20.4967 20.4892 26.2181
Pd 18.5865 18.5722 30.0394
Pd 18.5864 20.4749 31.9458
Pd 20.4914 18.5723 31.9436
Co 20.4953 20.4833 30.0351
Pd 18.58 18.5612 33.8554
Pd 18.5793 20.4639 35.7534
Pd 20.4848 18.5607 35.7512
Co 20.4904 20.474 33.8444
Pd 18.5706 18.5473 37.6633
Pd 18.5745 20.454 39.5555
Pd 20.4794 18.5513 39.5532
Co 20.484 20.4631 37.6444
Pd 18.5771 18.5494 41.4702
Pd 18.5945 20.4533 43.3482
Pd 20.4832 18.567 43.3459
Co 20.4908 20.4655 41.4341
Pd 18.6199 18.5878 45.2826
Pd 18.6489 20.5031 47.1473
Pd 20.5374 18.6169 47.1451
Co 20.503 20.4732 45.2418
Co 20.6203 20.5864 48.867
Pd 18.7408 22.5402 3.44435
Pd 18.6563 24.3436 5.38216
Pd 20.5472 22.4557 5.36558
Co 20.5617 24.3662 3.5183
Pd 18.6079 22.4066 7.20904
Pd 18.59 24.3074 9.12398
Pd 20.4951 22.4058 9.11861
Co 20.5316 24.3362 7.25373
Pd 18.5758 22.3885 11.0003
Pd 18.5745 24.3081 12.9049
Pd 20.4796 22.3966 12.9094
Co 20.4873 24.3121 11.0281
Pd 18.5723 22.3918 14.7927
Pd 18.5763 24.3083 16.697
Pd 20.4825 22.3965 16.6989
Co 20.4806 24.3114 14.8098
Pd 18.5799 22.3942 18.593
Pd 18.5861 24.3081 20.5004
Pd 20.4907 22.3985 20.5002
Co 20.4868 24.3104 18.6025
Pd 18.5892 22.3956 22.403
Pd 18.5937 24.3064 24.3134
Pd 20.4968 22.3984 24.3118
Co 20.4948 24.3096 22.4078
Pd 18.5939 22.3938 26.2204
Pd 18.5949 24.3031 28.1307
Pd 20.498 22.3951 28.1278
Co 20.4985 24.3072 26.2214
Pd 18.5916 22.389 30.0377
Pd 18.5897 24.2983 31.9436
Pd 20.4943 22.3887 31.9393
Co 20.4972 24.3031 30.035
Pd 18.5847 22.3811 33.8478
Pd 18.5823 24.292 35.747
Pd 20.4885 22.3801 35.7407
Co 20.4916 24.2973 33.8403
Pd 18.5795 22.3722 37.6481
Pd 18.5829 24.2852 39.5391
Pd 20.488 22.3738 39.5302
Co 20.4878 24.2918 37.633
Pd 18.5853 22.3624 41.4404
Pd 18.6008 24.2781 43.32
Pd 20.5059 22.3765 43.3209
Co 20.4968 24.2861 41.4147