4033
Atoms. Timestep: 21228
Co 12.555 35.3738 24.8329
Pd 23.5169 24.0728 48.6102
Pd 24.6916 9.62404 29.5149
Co 13.3588 32.424 40.6184
Pd 3.07727 24.9658 32.4186
Pd 36.3309 17.6365 12.2237
Pd 13.6271 18.8746 31.0257
Co 21.2788 13.4161 41.6455
Co 16.4779 12.8588 39.8789
Pd 20.2718 47.7858 28.6259
Pd 20.4218 33.2361 17.1437
Co 22.0935 38.2967 35.521
Pd 16.857 15.8731 19.179
Pd 36.9035 20.1793 16.903
Pd 42.2372 29.1155 38.5042
Co 20.8313 29.2799 31.8053
Pd 7.86648 15.8368 36.0225
Pd 20.9859 30.5184 40.9304
Pd 44.6173 28.3456 12.4161
Co 19.7066 25.857 24.4542
Pd 26.5201 30.5293 35.3119
Pd 12.4207 11.8039 37.5862
Pd 8.32387 36.368 21.898
Co 22.0102 18.1363 22.2445
Co 11.5246 37.2934 33.3392
Pd 30.6255 20.5733 21.5035
Pd 19.2853 23.1687 39.227
Co 28.0573 34.3216 24.3047
Pd 6.47064 29.0039 38.3607
Pd 18.4663 19.6618 10.4271
Pd 9.23847 27.2334 15.6368
Co 15.5312 37.6147 22.9007
Pd 18.8222 18.9321 34.315
Pd 27.8986 31.1081 43.7019
Pd 11.3321 18.6306 34.0842
Co 7.57944 15.9634 21.6995
Pd 36.8242 38.7299 40.5323
Pd 7.01177 19.9996 14.5471
Pd 26.4297 25.3345 48.9327
Co 26.296 24.2955 31.1676
Pd 26.8063 39.0978 44.2323
Pd 14.745 23.53 24.6596
Pd 19.5999 27.0435 47.5825
Co 23.223 18.7387 28.7101
Pd 9.02281 11.6624 33.2562
Pd 31.2409 22.2775 40.951
Pd 20.9508 30.9907 46.6436
Co 8.40142 22.5289 41.2289
Co 41.8224 28.4001 35.7438
Pd 10.8828 20.7537 16.4056
Pd 35.7443 34.3071 45.0961
Pd 13.1523 24.3552 10.9081
Pd 16.8737 18.7351 14.4466
Co 25.0589 22.6211 38.8871
Pd 8.15279 34.9786 27.5117
Pd 19.5805 28.8075 16.3787
Pd 9.87828 15.0838 20.8203
Co 15.9821 25.8062 44.2305
Pd 5.90467 27.1614 29.6284
Pd 10.4414 30.7421 29.69
Pd 13.7803 28.6773 29.7146
Co 35.8078 33.0484 8.93091
Pd 20.1829 9.83729 15.4983
Pd 22.8614 25.2773 44.2682
Pd 20.3169 47.9539 32.2963
Co 12.536 14.5982 18.6549
Pd 5.70327 15.0646 23.1619
Pd 9.57905 29.6239 42.6389
Pd 14.1459 21.8398 43.4323
Co 17.6428 16.7802 10.2081
Pd 29.2219 37.2785 31.0731
Pd 12.9977 36.3892 21.3715
Pd 22.3024 21.035 36.155
Co 21.1614 40.0939 41.7424
Pd 20.9741 8.24639 31.9684
Pd 24.5802 27.8578 28.282
Co 16.2157 20.8084 44.7256
Pd 34.8784 18.5944 15.7389
Pd 5.92017 28.9204 31.5661
Pd 17.7119 23.4569 19.074
Pd 36.0492 13.8241 28.5439
Co 26.131 19.2674 22.5047
Pd 14.5738 37.46 36.0926
Pd 22.6295 14.1021 13.2161
Pd 15.949 28.1557 13.0498
Co 34.3442 44.5521 32.0421
Pd 24.3725 29.1815 49.8561
Pd 4.46035 21.8006 35.3775
Pd 34.5169 23.5666 27.9513
Co 25.2122 6.10504 14.1445
Pd 33.1366 19.411 24.6313
Pd 24.1663 17.9353 18.8073
Pd 6.87851 28.8169 27.9151
Co 35.857 37.0497 35.7655
Pd 44.5399 37.9806 14.819
Pd 13.8018 31.9209 22.0338
Co 16.791 25.5318 35.2236
Pd 29.0974 48.0699 20.7409
Pd 11.9118 26.1952 12.5123
Pd 8.21538 35.0889 19.6213
Pd 10.7798 13.8607 29.9381
Co 25.184 31.5854 17.4985
Pd 29.924 20.4296 31.012
Pd 14.5673 38.902 13.0648
Pd 19.4474 29.1383 45.6907
Co 8.25485 27.482 26.1773
Pd 20.4238 25.0441 28.8058
Pd 18.703 16.0926 6.54668
Co 17.9818 37.7133 22.8932
Pd 12.1872 25.7846 42.2703
Pd 26.931 22.796 33.1003
Pd 16.8381 24.1384 5.25277
Co 12.4986 24.792 27.9789
Co 8.42823 30.9709 28.0977
Pd 12.2872 14.394 41.6647
Pd 18.0516 32.0425 10.3265
Co 26.2207 24.7759 39.9481
Pd 13.38 32.5627 17.4083
Pd 22.9095 39.306 28.4177
Pd 29.4157 36.5218 9.25533
Co 10.0298 21.4186 8.23155
Co 10.4897 11.6451 31.2824
Pd 11.532 20.2005 30.2037
Pd 34.7442 30.0826 39.7112
Co 25.6665 22.0814 45.8266
Pd 26.5743 17.3102 20.4616
Pd 10.008 20.0251 21.0178
Pd 18.1124 6.08588 17.7946
Co 28.0439 33.2281 17.6201
Pd 38.4369 17.8127 29.1341
Pd 24.4266 23.6893 32.8361
Pd 26.6057 8.33713 14.0236
Co 7.62948 16.1873 24.3264
Pd 25.3474 20.729 32.9798
Pd 9.64942 20.0589 35.5369
Pd 28.7535 19.6334 42.8774
Co 13.0736 16.9193 32.6687
Co 28.2577 22.7526 25.553
Pd 48.1144 21.9715 34.4693
Pd 28.3467 31.3215 7.49094
Co 22.1222 16.8319 19.8819
Pd 14.3001 19.762 8.77813
Pd 15.8011 8.85613 20.1613
Pd 28.1586 19.9759 13.6056
Co 27.4593 10.7802 40.9678
Pd 33.8216 23.104 16.1596
Pd 11.096 17.5856 21.6493
Pd 8.38724 26.6995 28.9438
Co 20.6766 25.9393 22.2031
Pd 41.8735 22.8722 40.6532
Pd 12.5009 21.661 7.34372
Pd 12.3015 7.91958 25.4477
Co 12.6621 25.7936 17.4375
Pd 11.0607 33.3601 40.7042
Pd 3.898 26.3426 34.8179
Pd 15.8005 23.831 42.0133
Co 28.8547 7.09412 36.3409
Pd 36.0348 39.7251 22.9955
Pd 23.4381 33.5768 25.6899
Pd 39.7479 12.763 20.5324
Co 6.8259 34.0209 21.5775
Co 36.4104 22.5342 39.9979
Pd 41.2005 17.2874 18.7194
Pd 17.3952 10.8362 19.4901
Co 31.5311 33.2913 32.9797
Pd 32.7065 15.4377 34.1782
Pd 10.4171 18.8586 41.3849
Pd 18.7403 11.0642 28.4957
Co 22.0138 18.0494 32.2351
Pd 21.4492 18.6759 18.2708
Pd 31.0403 28.9476 17.2343
Pd 7.56816 15.5882 18.9915
Co 14.7914 30.142 8.10958
Pd 28.8192 28.1014 3.10094
Pd 26.5929 16.7315 31.8162
Pd 31.0289 15.3026 26.3841
Co 18.7568 26.2422 33.0036
Pd 6.40791 17.2488 34.2819
Pd 26.4474 46.5291 25.744
Pd 11.8701 26.6556 7.3759
Co 24.7596 25.3176 41.9028
Pd 34.2642 44.2795 37.9368
Pd 24.9883 16.386 43.2873
Pd 25.8865 13.9961 26.4736
Co 22.3395 34.804 43.5843
Pd 30.6859 7.30895 25.3191
Pd 37.4247 42.1216 30.3616
Pd 13.121 32.949 34.0008
Co 28.8183 37.7918 45.193
Pd 25.2175 19.7632 47.1218
Pd 16.9864 45.2795 29.9311
Pd 11.6162 15.2801 9.84929
Co 23.8646 46.5506 29.719
Co 19.123 17.4095 43.4784
Pd 13.2636 28.3773 9.04749
Pd 32.1751 16.8883 28.0587
Pd 20.1428 26.7804 30.9088
Pd 6.04367 25.2725 19.0125
Co 28 28.1885 45.7178
Pd 18.4082 8.45895 28.5344
Pd 6.03761 27.0837 33.5383
Pd 26.1483 29.2397 23.979
Co 20.9278 32.329 7.53585
Pd 18.4876 14.5892 11.146
Pd 9.9281 27.8923 11.4405
Pd 16.0053 19.6861 30.014
Co 19.9322 26.5294 12.9928
Pd 10.6473 18.1843 15.6608
Pd 12.6865 37.7825 23.5637
Pd 19.7366 34.7786 13.1069
Co 22.053 44.6494 18.5117
Pd 19.8117 27.3262 5.88055
Pd 14.769 14.8327 32.1164
Pd 5.94772 28.6528 25.6043
Co 22.6141 27.3594 26.8297
Pd 12.6254 33.6469 26.726
Pd 14.1088 32.7713 8.05558
Pd 23.8174 32.6826 32.3232
Co 15.3246 17.5639 20.506
Pd 32.1897 15.9792 46.894
Pd 10.2915 25.0027 20.7056
Pd 22.5331 26.4912 41.8911
Co 25.4631 43.0451 37.6428
Pd 23.5865 46.7682 36.0812
Pd 12.1734 12.2045 26.4711
Pd 16.2042 28.2836 36.0372
Co 7.17735 22.2085 29.3432
Pd 23.5638 32.1819 43.3956
Pd 17.673 26.6521 17.0402
Co 16.9548 42.0504 35.4343
Pd 19.2602 31.7783 36.1285
Pd 15.8938 28.5679 25.3944
Pd 14.3221 30.1034 35.2576
Pd 8.11921 31.7549 21.672
Co 19.1378 18.4 17.1494
Pd 24.7638 18.8631 26.7824
Pd 23.708 34.3017 34.7393
Pd 10.2242 24.4163 8.36398
Co 7.54963 26.3256 17.3047
Pd 16.008 31.3137 24.9871
Pd 26.7665 40.2794 34.4106
Pd 16.8139 24.8035 28.9322
Co 25.2201 22.0517 30.7737
Pd 14.2467 26.3687 24.6072
Pd 24.7116 30.8225 19.8027
Pd 14.2136 24.8598 15.7233
Co 17.5219 28.5185 47.2499
Pd 11.5758 30.8615 41.6008
Pd 15.6008 12.0725 25.6547
Pd 8.66516 31.5294 34.5451
Co 6.15545 20.1381 28.9401
Pd 21.2643 29.8126 35.4906
Pd 5.34607 16.5559 25.3968
Pd 17.8283 36.6038 31.9639
Co 4.31732 20.7415 30.6169
Pd 21.0005 33.2097 34.995
Pd 29.7042 42.3616 43.0024
Co 40.8633 30.3313 36.8496
Pd 17.4595 25.8097 46.6287
Pd 29.9074 31.4823 17.3551
Pd 15.1016 33.0535 42.1955
Pd 13.1002 36.3138 27.1797
Co 24.5297 15.5427 19.7366
Pd 12.4408 28.2952 35.4781
Pd 26.8422 31.782 5.00869
Pd 18.5018 42.3555 22.7532
Co 5.31816 21.3382 21.3607
Pd 38.7289 44.4116 36.3053
Pd 14.8584 14.0864 19.3648
Pd 32.7341 27.1934 11.0792
Co 5.41666 28.4021 23.223
Pd 7.26227 24.4393 38.0332
Pd 36.2985 31.6707 41.1113
Pd 13.3754 34.981 42.1671
Co 20.9416 37.1784 8.5617
Pd 13.178 9.46171 14.2942
Pd 20.9728 28.9034 25.5235
Co 6.56582 23.7802 23.3516
Pd 20.7892 34.9251 7.32784
Pd 10.9938 39.658 32.2599
Pd 14.9449 20.4119 13.2941
Pd 11.963 31.2014 24.106
Co 12.1963 37.109 35.6792
Pd 9.93542 14.2792 18.3528
Pd 28.4587 37.5391 6.47961
Pd 5.14003 24.1705 33.8629
Co 25.1346 31.9079 3.01371
Pd 24.9152 30.3725 33.2326
Pd 41.7443 31.4944 25.5619
Co 22.6906 42.9072 23.7246
Pd 15.7909 40.9784 14.4893
Pd 19.3711 23.4428 25.3068
Pd 19.5856 38.1968 30.7689
Co 24.8507 15.6505 23.3823
Co 32.4259 18.2966 14.6867
Pd 5.60521 17.7061 31.8662
Pd 21.0983 43.2988 34.5515
Co 14.7796 30.7351 37.8023
Pd 32.9245 20.5379 19.3843
Pd 28.3279 35.8382 17.3867
Pd 16.1471 20.6001 47.139
Co 17.3891 19.3272 41.1277
Co 31.0979 31.2013 34.2575
Pd 32.6404 9.49234 16.7534
Pd 42.2786 15.9599 34.6333
Co 8.84328 24.533 23.1021
Pd 17.3856 18.9871 25.075
Pd 3.64119 22.2396 32.7296
Pd 17.7991 33.2867 24.9913
Co 37.7365 24.4703 32.1248
Pd 35.73 6.73302 26.7942
Pd 17.8626 16.9718 21.3598
Pd 8.90562 19.8375 29.9879
Co 19.2756 38.4101 19.1841
Pd 23.9189 13.5528 21.2426
Pd 28.9292 19.1482 23.79
Pd 14.2906 16.9557 15.7998
Co 12.0204 30.4345 17.0226
Co 10.9665 18.0606 31.5118
Pd 3.70186 28.7244 18.6573
Pd 36.8106 24.3633 19.0499
Co 32.2602 19.0163 31.6127
Pd 9.37525 12.0207 16.6936
Pd 29.9756 6.78463 27.7118
Pd 24.1705 46.2358 26.9517
Co 21.5737 7.69119 15.3238
Pd 6.03726 33.7573 25.9451
Pd 2.7546 23.8018 34.7541
Pd 14.209 10.1638 33.4959
Co 11.8981 16.4065 37.9315
Pd 29.6484 14.4791 19.1336
Pd 14.7275 16.2401 27.5504
Pd 31.19 13.5759 38.4732
Co 20.6711 16.2271 13.2006
Pd 39.7098 26.208 32.1401
Pd 15.1012 24.2931 31.1747
Pd 13.1639 41.6588 29.7029
Co 27.0185 10.011 27.6211
Pd 20.0743 35.6699 30.9987
Pd 16.1932 11.4149 35.0616
Pd 35.3924 20.2965 46.675
Co 15.6418 29.0107 31.4497
Co 28.3289 16.5663 33.8129
Pd 30.4128 42.5716 16.9704
Pd 28.8771 28.8883 27.7482
Co 14.8155 7.33541 25.0118
Pd 10.199 24.6819 11.2189
Pd 18.1635 21.2886 26.1115
Pd 40.1245 27.924 13.6287
Co 19.1639 25.3987 35.394
Pd 23.3632 18.4082 16.3515
Pd 29.3698 4.9229 29.4504
Pd 10.6198 32.8006 33.2342
Co 32.6432 44.9705 14.1518
Pd 10.988 26.2472 35.6255
Pd 38.6589 16.568 19.3947
Pd 27.202 33.8399 43.3732
Co 20.8892 36.9297 12.7629
Pd 8.27121 18.6688 12.2322
Pd 8.18 15.3768 33.2916
Pd 20.8103 18.4651 27.8589
Co 36.4273 10.6597 18.617
Pd 35.2723 34.9342 15.4282
Pd 17.7376 16.6827 41.4713
Pd 19.7881 29.4398 48.4527
Co 16.6437 14.4268 37.9739
Pd 20.1081 24.1566 33.3876
Pd 9.95496 15.5816 23.3443
Pd 13.4084 14.1337 16.2311
Co 28.5296 11.2094 22.0493
Pd 18.8842 14.593 45.235
Pd 16.9493 16.1417 44.1077
Pd 14.3825 30.0312 17.6634
Co 24.7148 30.193 29.0257
Co 20.4819 43.6459 27.1726
Pd 22.8067 36.4138 14.384
Pd 8.49826 33.7686 17.3888
Co 24.9643 29.6827 9.22706
Pd 12.0701 30.576 19.5342
Pd 29.6431 11.8271 17.8972
Pd 15.7079 15.4242 21.8402
Co 16.2111 40.786 12.0467
Pd 27.7453 19.2506 19.1359
Pd 28.8308 9.4313 13.0791
Pd 21.9134 39.6374 17.1351
Co 22.555 17.7273 26.2618
Pd 29.5908 35.6443 26.1199
Pd 14.7324 20.2936 6.27287
Pd 10.322 30.6813 10.7199
Co 21.0637 22.6879 27.0448
Pd 22.6607 15.3746 5.82547
Pd 23.8485 11.2239 14.8051
Pd 19.706 36.0053 39.4038
Co 25.0275 11.4008 40.4887
Pd 8.09183 28.0037 13.3192
Pd 18.112 22.9719 34.8714
Pd 13.401 34.8009 36.6201
Co 13.3002 10.4151 16.7719
Pd 11.9396 29.9995 44.0782
Pd 17.8461 26.781 37.5027
Pd 20.6734 5.57201 16.4849
Co 11.5409 10.2912 24.9673
Pd 21.0669 14.8815 46.6056
Pd 34.5789 32.9657 47.2499
Pd 20.445 45.4949 33.2291
Co 10.4538 24.9519 29.513
Pd 16.529 25.2006 7.72452
Pd 14.2066 28.1758 37.7047
Pd 19.7129 10.1537 23.673
Co 3.57052 29.1743 24.9716
Pd 7.68015 24.4583 33.2805
Pd 27.1108 26.8369 31.3038
Pd 10.2451 22.5116 22.4483
Co 6.6273 33.4673 34.5387
Co 36.4723 39.3939 43.2428
Pd 13.6673 33.0399 11.4501
Pd 23.0167 38.6031 7.86372
Pd 11.216 19.521 12.0208
Pd 10.7487 16.5153 40.2795
Co 11.0474 33.6 17.6574
Pd 14.4462 43.7382 22.883
Pd 25.8656 21.3447 26.4353
Pd 8.3126 22.3329 24.9321
Co 8.8222 22.4054 36.9336
Pd 19.2446 37.1475 28.1396
Pd 27.2425 24.5433 42.2677
Pd 34.1466 38.534 34.6605
Co 15.9406 14.8036 29.661
Pd 23.3505 3.32699 24.7486
Pd 34.0708 39.5459 9.58058
Pd 5.88049 18.2447 27.3049
Co 17.7478 15.7529 30.9456
Pd 24.43 25.3544 27.0642
Pd 13.6761 18.1931 38.3985
Pd 15.5692 23.2288 35.7448
Co 15.5998 24.9246 11.0012
Pd 20.7633 30.5036 23.3281
Pd 12.285 16.9888 42.4682
Pd 23.6647 27.8329 44.7356
Co 8.50565 13.4259 31.2379
Pd 16.9008 23.1025 46.7181
Pd 41.0022 26.777 37.4037
Pd 11.8749 20.1998 9.59088
Co 9.94178 15.7188 14.8352
Pd 9.86173 28.883 35.5458
Pd 20.4845 16.6927 33.9811
Pd 30.0654 31.4471 47.6307
Co 14.0857 30.6997 42.3817
Pd 30.9518 39.1616 46.0057
Pd 40.0402 34.16 35.5801
Pd 11.8199 28.0356 16.3606
Co 21.1368 16.0858 38.3754
Pd 17.0532 29.7277 44.92
Pd 10.7269 23.4341 41.3459
Pd 12.2653 23.2514 39.17
Co 23.1784 36.713 34.0473
Pd 31.1814 28.0556 29.0466
Pd 29.1721 36.9629 28.5175
Co 14.962 24.8954 33.6134
Pd 9.68106 33.1112 38.35
Pd 21.161 34.8249 21.6112
Pd 29.9187 9.47666 27.1254
Pd 25.0414 33.8869 5.14878
Co 17.9201 22.9941 7.32395
Pd 12.2837 29.0076 11.7663
Pd 12.3371 16.6922 23.8789
Pd 28.4005 14.1071 44.5515
Co 8.63159 19.6708 16.4972
Pd 22.8467 27.4481 35.5198
Pd 8.35802 17.8627 31.9254
Pd 21.632 24.5374 31.1618
Co 17.0842 38.7622 13.0809
Pd 12.9907 34.8742 39.5625
Pd 11.5011 35.006 34.5075
Pd 25.6815 23.3023 24.7242
Co 42.0204 24.1136 22.5188
Pd 24.4856 26.7123 39.853
Pd 27.4036 42.9034 27.9644
Pd 25.2965 19.858 20.1853
Co 21.9947 23.8319 46.4026
Pd 15.3382 40.092 36.0801
Pd 27.201 22.5184 37.5347
Pd 24.2268 27.5145 15.6383
Co 28.4697 33.6407 47.8245
Pd 21.4323 15.7257 27.5846
Pd 19.7623 40.8816 17.9974
Pd 15.1576 20.4782 37.0485
Co 33.1246 29.2854 36.9797
Pd 33.8659 18.5333 29.6254
Pd 13.14 39.2814 30.9165
Pd 35.4043 20.5237 23.6977
Co 12.3765 42.2175 22.6469
Pd 8.05887 29.3766 30.2188
Pd 18.4508 10.7081 36.2655
Co 26.7645 31.266 39.5282
Pd 35.8572 35.5586 8.53
Pd 4.55058 24.3283 36.6031
Pd 6.30143 26.7692 21.4364
Pd 10.1784 28.033 30.5313
Co 9.42135 35.8932 29.9072
Pd 11.602 14.6473 25.3522
Pd 9.63266 19.9755 14.0329
Pd 4.29654 22.7595 23.2617
Co 22.9511 29.4469 42.7629
Pd 21.7389 43.3174 13.423
Pd 24.8281 48.1964 31.6131
Pd 20.8533 14.5665 17.8274
Co 22.6581 19.329 20.3154
Pd 20.5544 42.9492 20.1586
Pd 39.2682 10.2682 33.8135
Pd 20.5769 38.4391 10.7488
Co 24.6328 46.4527 22.3014
Pd 15.1492 41.0498 38.516
Pd 23.4791 14.2815 34.3113
Pd 12.5311 23.1022 23.4117
Co 9.16674 31.6146 40.8757
Pd 42.4932 41.8461 24.0712
Pd 9.40261 34.0743 22.2046
Pd 29.6959 41.6781 23.3676
Co 26.3237 27.8266 48.7576
Pd 10.5344 35.2918 26.5701
Pd 5.69171 20.0179 19.2294
Co 18.3569 26.8362 29.0257
Pd 21.7923 31.4786 25.509
Pd 15.0233 18.0364 36.25
Pd 11.8266 23.2635 16.1031
Pd 9.76788 31.3721 17.5733
Co 23.0191 41.2988 12.2893
Pd 8.78327 17.6897 20.0757
Pd 29.6374 36.1019 35.898
Pd 24.0033 24.7291 6.53122
Co 34.095 26.4039 6.85122
Pd 24.0146 19.705 30.8349
Pd 12.8534 34.6615 9.30917
Pd 23.4544 22.6709 23.1975
Co 24.8508 38.6809 10.6317
Pd 39.8153 42.245 35.3218
Pd 9.21639 16.736 17.3145
Pd 21.944 19.9291 40.8567
Co 28.5759 47.0548 27.1388
Pd 29.6123 29.0025 43.763
Pd 21.0146 30.6507 43.7137
Co 37.004 32.4911 29.2678
Pd 27.3571 30.6265 18.2444
Pd 22.2007 33.7415 9.35997
Pd 15.8525 35.6535 43.2781
Pd 32.7917 30.7873 29.4438
Co 27.3171 34.3964 15.5259
Pd 21.5427 23.4998 21.4018
Pd 23.2109 34.9529 28.2155
Pd 36.4217 46.3138 26.0082
Co 33.8918 34.9639 38.8805
Pd 18.3976 28.3554 11.9602
Pd 24.2916 47.6292 24.5045
Co 14.6289 26.7185 31.5131
Pd 5.90661 30.718 29.3933
Pd 12.2814 33.1213 19.9304
Pd 38.928 42.5262 17.644
Co 14.6626 21.8848 40.7705
Pd 19.6468 9.95526 12.8001
Pd 14.7413 23.224 28.7168
Co 32.9136 43.3401 39.8052
Pd 21.0532 22.2245 48.1669
Pd 8.84631 22.2582 34.3808
Pd 27.377 22.4497 40.266
Co 40.1755 11.7068 26.8014
Co 26.9949 13.4447 37.8809
Pd 9.63138 11.0828 26.555
Pd 29.454 46.5361 33.4627
Co 23.0311 25.4498 22.2171
Pd 10.9209 9.90042 17.7103
Pd 28.1979 28.0487 17.6761
Pd 21.9911 17.7309 9.37299
Co 9.44522 22.6345 20.0539
Pd 31.7836 16.5906 31.9233
Pd 36.1232 16.5063 28.4803
Pd 25.0222 14.3884 36.4156
Co 21.6428 28.4718 46.4825
Pd 6.66171 21.1764 16.9103
Pd 24.2194 9.84377 26.8028
Pd 20.7897 7.7912 34.6389
Co 20.6569 13.8399 22.3757
Co 32.7449 7.53951 30.7479
Pd 30.2965 44.2326 14.9486
Pd 44.4056 24.902 22.3669
Co 16.3587 10.1825 27.4922
Pd 28.4884 10.5157 15.86
Pd 28.0109 12.6647 20.0512
Pd 20.3767 6.07467 13.7879
Co 21.5142 14.5094 20.2477
Pd 19.2762 14.2333 32.3449
Pd 37.3255 18.8336 37.7658
Pd 19.7242 20.0972 36.6022
Co 28.5848 14.1845 26.4227
Pd 37.3399 28.6545 12.8609
Pd 19.3876 21.9227 20.7954
Pd 12.4962 12.0861 40.2959
Co 19.806 40.0532 26.2367
Pd 28.4887 16.7735 25.7964
Pd 23.8926 24.1776 20.0302
Pd 41.2887 18.7086 16.5129
Co 14.6028 33.8478 44.5669
Pd 37.0848 26.2633 17.212
Pd 8.45412 13.4449 35.0661
Pd 20.4311 15.961 40.7892
Co 26.061 20.1082 7.08096
Co 19.7792 34.0314 43.5418
Pd 32.0414 24.8157 27.052
Pd 26.5443 24.7278 5.62583
Co 28.3721 29.8396 11.8814
Pd 28.6555 29.2849 23.1498
Pd 42.9801 26.7788 13.7658
Pd 27.114 17.5051 13.8153
Co 47.8064 21.1816 21.166
Pd 8.1271 20.0109 40.5624
Pd 20.6852 18.7247 38.6869
Pd 11.7408 11.1888 22.4001
Co 27.6818 20.9219 15.9262
Pd 23.126 12.0164 35.6779
Pd 23.3827 37.1833 40.4288
Pd 21.0822 23.2815 16.0251
Co 32.0444 15.7716 23.1486
Pd 27.2601 30.8235 21.3554
Pd 33.5483 21.1252 4.69874
Pd 33.8094 14.2621 13.7489
Co 10.2424 25.7467 31.871
Pd 34.767 25.0656 31.4396
Pd 9.95206 17.2486 25.3725
Pd 30.815 20.3849 25.3114
Co 38.5529 39.7985 38.8859
Pd 10.3686 13.8325 32.8954
Pd 26.9919 21.2294 23.8922
Pd 21.1493 35.3116 45.6967
Co 17.7386 35.5903 16.2423
Pd 18.1187 19.0553 27.7286
Pd 13.4216 31.6704 45.4799
Pd 30.8213 7.91806 32.5592
Co 25.3802 35.3382 47.7879
Co 19.8952 31.973 48.761
Pd 19.5192 43.0602 14.8263
Pd 10.3569 18.9902 18.3577
Co 21.0789 40.8576 13.6523
Pd 24.8851 18.0896 5.31888
Pd 35.834 15.9874 25.5449
Pd 31.3287 28.8562 3.56521
Co 31.0432 21.225 4.74247
Pd 12.2438 22.6879 29.341
Pd 12.3692 29.9676 14.5356
Pd 14.9482 29.6732 23.0918
Co 8.01484 26.0777 11.5797
Pd 19.6316 16.6371 19.0199
Pd 42.4568 12.9423 26.7095
Pd 20.8725 8.43766 37.1633
Co 16.9594 9.56939 11.7834
Pd 24.1517 11.0008 20.1848
Pd 12.3148 37.9268 19.3086
Pd 29.533 21.7977 23.5523
Co 16.191 15.7634 12.0563
Pd 28.4182 14.9795 40.6253
Pd 31.2506 23.5475 48.2522
Pd 13.4938 27.666 14.0471
Co 30.6998 23.1813 25.4258
Pd 18.3503 30.5475 40.3621
Pd 29.4277 24.4083 40.6345
Pd 40.5216 16.9277 11.7798
Co 18.7975 16.9481 39.0143
Pd 18.9873 7.36306 15.5078
Pd 22.6617 14.628 29.83
Pd 4.63408 19.1611 25.0784
Co 15.1045 39.8286 40.7989
Pd 11.4603 11.411 15.2857
Pd 44.7124 21.9864 30.6618
Pd 5.9528 17.7667 22.9809
Co 8.57206 21.5518 27.4608
Pd 7.43969 29.9013 14.9953
Pd 14.3532 39.7992 23.8035
Pd 9.08944 34.1219 35.307
Co 23.0998 9.47746 36.1783
Co 10.9364 13.8881 16.0851
Pd 29.0197 14.7512 10.0092
Pd 26.7643 28.573 33.2801
Co 32.6656 45.0285 20.9615
Pd 20.2869 28.9392 13.8502
Pd 11.2532 8.20561 20.2559
Pd 21.3242 15.037 10.887
Co 8.17426 19.0266 27.7695
Pd 18.7715 35.7433 8.641
Pd 33.491 25.8209 29.0265
Pd 17.1738 26.869 5.54847
Co 42.8703 34.3008 39.8335
Pd 24.4823 16.4987 9.53755
Pd 11.7526 26.3659 9.89156
Pd 30.7166 7.60525 13.0968
Co 12.723 19.6318 26.2854
Pd 3.76609 27.4514 32.1201
Pd 15.9087 33.5469 6.13109
Pd 6.25479 35.3846 23.6678
Co 14.2147 12.6217 12.225
Pd 14.5165 18.4794 24.9387
Pd 11.3889 19.1655 23.88
Pd 17.6837 46.9304 27.9905
Co 13.1955 22.2761 36.8851
Pd 33.0919 24.003 24.752
Pd 16.955 24.4547 39.7409
Pd 12.3722 39.1346 14.782
Co 20.7424 11.1807 40.456
Pd 27.6221 36.0039 48.6802
Pd 11.9971 11.7113 29.0946
Pd 20.8149 21.3439 45.679
Co 13.1994 23.2204 32.9727
Pd 14.0427 11.982 14.7628
Pd 25.8835 35.4277 41.45
Pd 21.4416 13.6399 44.2642
Co 19.9309 36.425 43.4894
Pd 10.0415 21.1074 42.5786
Pd 20.948 11.617 7.9495
Pd 36.1639 40.3553 34.282
Co 26.7445 20.4014 38.7916
Pd 18.6719 23.4811 41.888
Pd 25.066 28.5678 31.0611
Pd 19.4378 23.7772 46.7026
Co 29.548 22.6634 38.7537
Pd 16.4803 11.4861 42.0169
Pd 16.9908 21.455 42.4822
Pd 17.122 30.2842 29.6725
Co 23.9802 31.3848 47.4569
Co 31.3731 20.219 44.0545
Pd 16.768 24.1419 16.5458
Pd 29.1932 12.635 36.7937
Pd 30.2598 36.5536 19.3043
Co 34.7773 28.8002 6.87754
Pd 4.69406 22.1719 28.4923
Pd 25.0472 35.8908 15.8728
Pd 15.3102 34.4134 25.7064
Co 7.17984 31.3273 17.2488
Pd 29.0618 18.2498 32.1848
Pd 18.8954 9.11024 10.3691
Pd 26.1542 43.9629 10.7358
Co 14.9417 35.2331 7.89504
Pd 11.7851 40.4124 24.4426
Pd 19.7963 32.9223 26.7106
Pd 12.172 13.6162 13.7743
Co 16.5519 18.5995 9.05427
Pd 41.3642 38.8284 30.6902
Pd 17.1056 38.217 36.9
Pd 3.56648 17.29 27.2047
Co 42.84 24.5703 26.9813
Pd 8.2515 20.3383 19.1047
Pd 18.7227 22.2477 16.7915
Pd 14.5078 34.1981 20.8046
Co 23.2219 25.7291 37.5857
Pd 34.5756 28.8906 45.1121
Pd 27.5429 31.301 32.9636
Pd 30.4677 29.0848 46.3192
Co 23.8538 44.7392 14.5005
Pd 20.5352 37.2766 33.3563
Pd 31.0023 36.5271 46.0055
Pd 32.4729 21.2865 34.6522
Co 37.5866 18.4507 40.7938
Pd 23.1363 41.7121 37.9003
Pd 18.1789 40.7963 37.4289
Pd 37.4608 29.937 39.4592
Co 29.384 21.2987 44.7114
Pd 30.8483 41.5801 32.0061
Pd 21.5011 35.2895 26.1601
Pd 20.4394 34.7044 28.5362
Co 25.1082 34.8226 29.9375
Pd 24.5691 16.0012 40.6693
Pd 27.5145 40.8867 42.2737
Pd 32.0844 32.9663 48.3419
Co 15.1935 28.8037 40.9874
Pd 8.15711 32.0024 30.4165
Pd 27.8032 31.5418 49.0794
Pd 22.5982 15.4243 42.6161
Co 13.269 38.9607 25.9111
Pd 24.8449 33.0584 38.9746
Co 35.9153 14.2695 45.4679
Pd 27.0727 48.8788 30.4745
Pd 11.473 28.0083 37.984
Pd 21.3286 37.994 26.7483
Pd 17.7597 33.8802 31.605
Co 19.3363 18.5724 29.9245
Pd 18.0428 12.2463 26.4147
Pd 32.3717 18.8715 17.1817
Pd 26.6008 35.8583 13.5632
Co 28.1389 46.1769 21.941
Pd 10.7397 28.7355 8.99049
Pd 15.9667 7.65074 29.2698
Pd 24.1432 29.0954 6.92016
Co 27.5956 24.402 29.1797
Pd 8.97259 14.4654 25.6882
Pd 24.0949 29.1744 13.4215
Pd 13.7382 36.6019 14.309
Co 19.5988 39.08 13.0302
Pd 4.84855 26.7385 17.253
Pd 10.5731 24.2567 33.8995
Pd 12.3132 30.5563 7.56555
Co 19.7517 16.961 31.6449
Pd 23.3181 13.5657 27.6296
Pd 17.1758 34.9264 13.5655
Pd 13.6324 42.2587 24.9119
Co 8.59491 24.6087 18.6873
Pd 37.1122 29.1587 45.9316
Pd 28.9969 39.3231 15.6842
Pd 12.8028 14.4984 34.0465
Co 18.5042 31.1215 16.7871
Pd 27.4269 36.8466 39.8178
Pd 14.8005 38.8277 15.7939
Pd 8.76755 22.1821 15.0134
Co 18.3271 39.8776 11.1215
Pd 46.7755 32.4816 33.9498
Pd 31.4099 26.0146 24.7411
Pd 38.8997 18.7637 33.0959
Co 16.384 33.0974 29.6474
Pd 20.4002 33.35 24.1396
Pd 13.5172 27.0277 44.4561
Pd 26.8982 39.7015 37.0154
Co 21.1595 38.2403 39.8166
Pd 8.40849 14.6739 28.8734
Pd 37.7294 33.0823 36.5977
Co 8.55257 24.8547 40.5829
Pd 13.3615 12.2302 24.1244
Pd 19.9356 26.8844 18.3674
Pd 25.3496 39.091 27.9264
Pd 31.4405 40.9004 19.0222
Co 15.6482 22.5419 33.178
Pd 17.0915 22.9431 24.0235
Pd 17.0803 26.2434 31.0726
Pd 16.7236 30.8144 18.8704
Co 19.9302 25.2418 37.8184
Pd 12.9953 18.8795 40.8395
Pd 10.8641 28.3981 40.5921
Pd 21.002 16.846 16.5117
Co 10.3889 24.0428 24.7348
Pd 23.8801 36.648 42.8998
Pd 41.9735 37.1932 14.1088
Pd 23.5665 33.2537 20.7608
Co 21.6331 25.0412 17.9126
Pd 30.0854 37.7156 33.4818
Pd 38.9721 31.3416 44.6559
Pd 20.5932 41.0454 11.267
Co 30.4443 44.2765 32.9889
Pd 19.1369 41.7364 28.162
Pd 22.0525 26.2996 20.0185
Pd 21.1104 22.5918 18.7186
Co 30.38 34.9786 31.5395
Pd 46.2305 34.6225 32.5221
Pd 29.1789 25.1365 5.87161
Pd 38.5379 26.7103 45.4079
Co 6.34107 31.216 26.6351
Pd 32.6867 38.8103 26.7563
Pd 14.5571 31.2244 30.0603
Pd 20.7171 34.3795 3.16982
Co 18.4287 31.7688 23.0233
Pd 30.5525 28.5192 25.1643
Pd 16.7353 29.229 38.5906
Co 37.1357 22.9391 37.0661
Pd 10.8984 40.1288 29.4988
Pd 21.0086 26.8034 8.40921
Pd 12.7095 25.6391 37.7053
Pd 6.21247 20.927 23.7776
Co 22.7225 25.3876 15.7493
Pd 23.6828 15.311 25.6304
Pd 5.48958 29.4132 16.8514
Pd 17.1419 35.7699 24.2298
Co 19.0398 35.3155 26.1273
Pd 31.8574 37.017 24.6643
Pd 10.7958 37.8368 21.6267
Pd 13.8455 19.1626 11.2673
Co 22.8164 15.7164 21.8999
Pd 30.7537 36.3159 41.5813
Pd 21.2967 20.7081 22.2041
Pd 21.3242 31.4681 30.1099
Co 5.677 30.4857 19.1631
Pd 40.0854 39.9389 36.8114
Pd 20.5021 43.2853 29.879
Pd 31.6759 40.6887 43.8165
Co 28.6647 46.4738 24.4917
Pd 22.8818 28.7397 40.3322
Pd 32.5462 34.887 19.7054
Pd 31.0833 16.5095 20.881
Co 25.0902 21.0134 37.0614
Pd 20.3121 39.5383 28.6878
Pd 10.7769 35.3784 20.2473
Co 38.9884 31.3504 15.95
Pd 14.5181 27.5456 16.4655
Pd 39.6866 31.8407 10.0494
Pd 27.663 37.7869 35.0717
Pd 24.3051 25.1134 35.1891
Co 10.3218 23.8017 13.9507
Pd 18.8354 43.8606 25.0388
Pd 9.78385 35.6076 32.4758
Pd 31.1256 38.8352 28.8969
Co 23.4047 17.3903 7.25808
Pd 34.728 47.3955 28.0113
Pd 11.3963 22.7298 9.84631
Pd 38.529 34.9191 43.9507
Co 24.1118 33.501 48.7904
Pd 35.3081 39.6171 36.7547
Pd 5.57476 25.4613 31.5884
Pd 35.2585 30.2304 12.1474
Co 29.7915 33.7636 3.3301
Pd 11.182 27.552 20.5922
Pd 29.492 33.6095 37.3318
Co 18.3868 34.156 35.7131
Pd 21.9991 25.526 10.7932
Pd 30.0442 45.1831 17.6262
Pd 21.4237 18.9398 34.7824
Pd 32.509 19.9906 10.0278
Co 21.5356 26.7409 4.00016
Pd 32.9924 29.2294 12.892
Pd 40.0023 42.7839 21.3997
Pd 18.5762 34.1971 22.3563
Co 18.3381 27.6633 34.8671
Pd 23.3715 20.6594 18.066
Pd 21.2426 45.2696 36.3585
Co 6.70814 23.2341 35.71
Pd 35.3529 38.5876 32.2145
Pd 29.4368 40.2013 38.1557
Pd 9.8644 33.1865 28.2934
Pd 37.3009 31.1707 13.6905
Pd 20.7151 7.41732 29.3933
Co 24.7931 6.16549 18.9764
Pd 33.1723 23.0724 18.7654
Pd 17.8668 16.4558 33.4036
Pd 42.9178 29.701 27.3933
Co 28.1299 18.1298 11.4779
Pd 17.2467 20.0344 17.0182
Pd 14.7117 25.0653 26.838
Pd 11.4207 21.3626 19.0122
Co 14.54 13.1676 41.3055
Pd 30.6966 14.2992 32.7387
Pd 34.4304 9.00391 26.615
Pd 15.219 19.9906 21.312
Co 30.1424 9.09083 17.3164
Co 24.0022 24.1754 30.3052
Pd 22.0398 31.9356 19.0718
Pd 24.906 41.5388 10.6328
Co 23.0481 9.99626 40.3643
Pd 30.3775 20.0949 15.1423
Pd 32.1802 8.88193 34.6886
Pd 42.4422 13.7824 29.2319
Co 28.1355 13.6039 22.4418
Pd 7.10884 18.2169 17.8339
Pd 14.45 25.9028 6.32162
Pd 34.5825 32.6023 28.374
Co 32.4577 42.6809 15.0247
Pd 12.0148 21.3446 14.1875
Pd 21.8048 11.9127 21.0301
Pd 28.9672 7.97209 15.2768
Co 11.813 10.7224 19.9073
Pd 30.6896 17.9806 29.9392
Pd 16.7817 10.6021 32.5392
Pd 30.9956 14.2851 16.9887
Co 18.3047 5.16753 20.317
Pd 27.0041 27.0587 22.2612
Pd 15.4501 30.4823 46.7122
Pd 18.9792 9.58314 38.596
Co 40.1508 22.9309 13.4688
Co 26.1301 12.2324 21.6397
Pd 22.9564 24.6334 3.99153
Pd 23.643 26.8227 2.40631
Co 19.2857 24.6303 17.3649
Pd 15.4013 5.52855 22.8939
Pd 13.8873 20.6655 28.5139
Pd 11.4785 21.8861 34.8238
Co 34.5594 7.12414 24.4697
Pd 16.1066 11.2071 13.4146
Pd 9.10275 22.3002 17.5815
Pd 30.5094 11.9913 20.398
Co 25.9753 29.0362 11.5227
Pd 23.4945 21.803 47.2471
Pd 16.5294 18.4977 11.7794
Pd 14.0658 21.3054 34.688
Co 22.4859 22.7296 5.74448
Pd 45.4636 21.9432 35.1216
Pd 18.7339 25.4537 26.8406
Pd 30.8758 15.5402 8.18985
Co 6.39455 25.6549 35.5081
Pd 6.48513 19.7657 38.3591
Pd 7.62898 18.3814 36.4756
Pd 14.4474 17.823 43.8122
Co 34.584 18.3285 10.4789
Pd 15.8447 29.2282 5.64627
Pd 17.9508 30.2867 14.3665
Pd 32.3159 23.6282 39.0117
Co 7.67868 29.9174 36.4161
Pd 35.7051 12.8939 15.1705
Pd 20.9924 8.64584 39.8344
Pd 16.8216 14.157 42.2567
Co 26.6166 32.9142 13.6412
Co 18.0677 21.362 32.7115
Pd 4.62326 32.545 33.2646
Pd 19.4305 45.996 23.6591
Co 26.9673 11.0925 13.9426
Pd 31.871 21.4746 17.0112
Pd 25.3905 11.4361 8.06742
Pd 4.01701 26.5969 20.2526
Co 12.5233 24.5829 25.5067
Pd 23.547 28.4265 19.6291
Pd 32.62 27.6549 26.7393
Pd 31.8249 35.1334 3.17947
Co 33.5618 24.8809 12.1841
Pd 37.6303 12.0044 27.4393
Pd 9.61103 10.0277 21.2066
Pd 25.1041 24.9012 15.5799
Co 27.8053 21.537 8.19934
Pd 12.5081 17.0051 26.4343
Pd 29.3627 42.0714 25.9552
Pd 42.077 24.2945 12.2177
Co 5.64103 31.5232 21.3574
Pd 17.705 24.1367 37.2336
Pd 17.6302 21.5632 37.2797
Pd 16.8176 13.2771 31.5532
Co 27.78 26.565 7.41776
Pd 26.7409 4.12758 27.9438
Pd 14.5471 15.4502 42.6172
Pd 22.0151 39.2712 30.8688
Co 38.589 20.1535 27.9913
Pd 45.1804 18.4948 19.6758
Pd 11.2553 16.6989 19.2142
Pd 19.6668 17.332 36.4934
Co 27.3777 13.8214 35.4122
Pd 14.3219 30.7069 12.5423
Pd 28.6415 12.7284 42.2781
Pd 12.7285 18.8536 14.1916
Co 31.3681 18.3666 45.8094
Pd 41.7459 20.686 42.0004
Pd 16.2794 8.84636 34.7596
Pd 24.2683 19.4755 35.2215
Co 21.3471 37.3524 37.6091
Co 16.2077 20.6347 23.5445
Pd 13.1752 22.3974 26.5953
Pd 18.3626 37.1194 11.6221
Co 19.6667 27.5401 20.7759
Pd 17.4444 39.8969 18.1484
Pd 27.6462 21.7274 18.431
Pd 31.9774 23.5584 3.82973
Co 7.72271 22.0002 39.0195
Pd 14.7338 36.9983 25.2076
Pd 7.65237 24.6168 20.9887
Pd 19.184 29.9783 21.297
Co 36.2972 39.6359 14.1526
Pd 37.1083 28.2052 23.5693
Pd 32.134 10.9873 10.0175
Pd 24.8026 38.073 32.332
Co 11.0609 28.0326 23.2332
Pd 12.494 17.6295 9.12203
Pd 21.2983 37.1257 19.936
Pd 6.18293 28.0244 19.0766
Co 16.5888 26.7395 27.1048
Pd 37.1469 17.9442 35.1932
Pd 28.8683 19.0414 35.0372
Pd 12.3555 17.1057 11.7394
Co 25.8821 16.5395 25.6944
Pd 34.3199 17.2713 17.9822
Pd 26.7482 40.7511 31.8359
Pd 17.3802 11.6213 23.7287
Co 13.3156 12.0483 35.0293
Pd 32.4821 31.2342 46.3165
Pd 16.7684 20.7149 34.8841
Pd 16.0285 26.8863 39.5797
Co 24.2579 20.6322 24.6812
Pd 17.9803 13.8613 8.3121
Pd 40.6 29.0263 26.2278
Pd 12.4717 14.2068 36.6473
Co 20.9509 16.1801 44.4756
Pd 4.26474 21.9984 25.7643
Pd 34.7449 12.5578 19.1415
Pd 45.5487 22.1865 38.1104
Co 9.36675 20.2663 10.404
Pd 12.5126 10.0315 31.1061
Pd 14.4731 15.8101 37.475
Pd 19.4238 20.0189 42.9851
Co 9.08334 27.0364 41.6104
Pd 24.1732 28.0772 37.7797
Pd 14.0047 7.88005 27.4853
Pd 12.6335 16.8095 35.5135
Co 9.77658 25.1054 42.8776
Co 41.96 32.4903 36.2795
Pd 7.5686 11.4288 22.2841
Pd 27.1837 16.5283 9.54575
Pd 28.7681 29.7697 15.8217
Co 25.9085 42.2924 12.8655
Pd 23.4934 22.8663 26.125
Pd 25.8017 3.75966 25.4961
Pd 24.2347 17.9892 24.1763
Co 16.5941 13.4568 12.5119
Pd 47.7333 28.0295 22.0444
Pd 14.7862 11.4834 31.0832
Pd 15.3073 23.7548 20.1435
Co 23.6971 20.7977 12.8887
Pd 26.8602 23.7271 20.5203
Pd 26.7822 33.5346 22.0797
Pd 33.6927 15.7581 20.8188
Co 18.6063 33.4683 7.02888
Pd 31.7217 36.3706 27.4851
Pd 26.827 7.39506 19.9907
Pd 10.683 18.3793 27.8742
Co 22.0845 31.6437 36.9651
Pd 25.7605 29.3974 45.3856
Pd 21.8953 16.5476 24.1626
Pd 6.65952 20.1089 31.3983
Co 44.671 26.1054 27.5461
Pd 12.3574 23.2386 20.7557
Pd 13.7551 28.3614 33.207
Pd 28.856 13.141 15.4267
Co 15.2506 26.5288 20.6568
Pd 26.8888 45.0392 33.1245
Pd 35.9545 25.6011 48.1328
Pd 18.7545 22.147 9.57338
Co 24.1087 8.30618 14.5519
Pd 32.4119 19.3704 27.2868
Pd 23.5389 36.3828 36.6493
Pd 37.1406 32.756 43.4758
Co 18.7501 9.10602 31.1713
Pd 33.4585 21.6111 36.9478
Pd 39.417 21.1116 24.2698
Pd 30.4001 16.0217 44.9297
Co 13.2114 23.5798 41.7083
Pd 12.8845 39.4319 36.9197
Pd 41.002 30.4007 42.9934
Pd 19.7072 38.8287 35.8262
Co 16.1074 33.56 36.4981