4033
Atoms. Timestep: 20141
Co 5.47906 13.0151 26.2147
Pd 3.55139 16.7296 24.3429
Pd 5.34274 14.7993 24.273
Co 5.3665 16.7457 22.436
Pd 3.62625 14.8587 26.2155
Pd 3.55126 16.7277 28.09
Pd 5.3426 14.7973 28.1581
Co 5.37835 16.709 26.2165
Co 5.36623 16.7419 29.9971
Pd 3.52557 20.5387 20.5335
Pd 5.29696 18.5993 20.4905
Co 5.35714 20.5494 18.6365
Pd 3.53152 18.6359 22.4367
Pd 3.43964 20.5084 24.3129
Pd 5.34546 18.6353 24.3381
Co 5.32529 20.5163 22.4138
Pd 3.45797 18.6039 26.2174
Pd 3.4395 20.5065 28.1239
Pd 5.34533 18.6334 28.0968
Co 5.29896 20.5253 26.2184
Pd 3.53126 18.6321 29.9982
Pd 3.52517 20.533 31.9033
Pd 5.29655 18.5935 31.9444
Co 5.32502 20.5125 30.0231
Co 5.3566 20.5417 33.8004
Pd 3.55207 24.3485 16.7298
Pd 5.31452 22.4068 16.6875
Co 5.40824 24.3522 14.8372
Pd 3.53421 22.4453 18.6257
Pd 3.44278 24.3207 20.5026
Pd 5.3335 22.44 20.5343
Co 5.34384 24.3177 18.6146
Pd 3.43396 22.4141 22.4084
Pd 3.41477 24.3165 24.3144
Pd 5.28863 22.4177 24.3139
Co 5.28583 24.3266 22.4196
Pd 3.42166 22.4117 26.2193
Pd 3.41464 24.3146 28.1262
Pd 5.2885 22.4158 28.1249
Co 5.27044 24.3177 26.2203
Pd 3.43369 22.4103 30.0302
Pd 3.44237 24.3149 31.9379
Pd 5.3331 22.4342 31.9045
Co 5.28556 24.3228 30.0211
Pd 3.53367 22.4377 33.813
Pd 3.55139 24.3389 35.7108
Pd 5.31385 22.3972 35.7513
Co 5.3433 24.31 33.8261
Co 5.40744 24.3408 37.6036
Pd 5.39664 26.2277 12.9634
Pd 3.62227 26.2267 14.8589
Pd 3.55199 28.1031 16.7317
Pd 5.39579 26.2258 16.7479
Co 5.40816 28.1013 14.8391
Pd 3.46442 26.2248 18.6004
Pd 3.4427 28.1271 20.5046
Pd 5.30546 26.2239 20.5109
Co 5.34376 28.1321 18.6165
Pd 3.42294 26.2229 22.4077
Pd 3.41469 28.1274 24.3163
Pd 5.27469 26.222 24.3215
Co 5.28575 28.1193 22.4215
Pd 3.40746 26.221 26.2212
Pd 3.41456 28.1255 28.1281
Pd 5.27455 26.2201 28.1212
Co 5.27036 28.1244 26.2223
Pd 3.42267 26.2191 30.0348
Pd 3.44229 28.1213 31.9398
Pd 5.30506 26.2182 31.9317
Co 5.28548 28.1155 30.023
Pd 3.46388 26.2172 33.8421
Pd 3.55131 28.0935 35.7127
Pd 5.39512 26.2163 35.6947
Co 5.34322 28.1244 33.828
Pd 3.62146 26.2153 37.5836
Pd 5.3957 26.2144 39.4792
Co 5.40736 28.0898 37.6054
Pd 5.31436 30.0449 16.6913
Pd 3.53405 30.0043 18.6295
Pd 3.52532 31.909 20.5392
Pd 5.33334 30.0078 20.5382
Co 5.3569 31.9003 18.6422
Pd 3.43379 30.0317 22.4123
Pd 3.43939 31.9355 24.3186
Pd 5.28847 30.0263 24.3177
Co 5.32504 31.9296 22.4195
Pd 3.42149 30.0303 26.2232
Pd 3.43926 31.9336 28.1296
Pd 5.28833 30.0244 28.1287
Co 5.29872 31.9168 26.2242
Pd 3.43352 30.0279 30.034
Pd 3.52492 31.9033 31.909
Pd 5.33294 30.0021 31.9083
Co 5.32477 31.9257 30.0288
Pd 3.53351 29.9967 33.8168
Pd 5.31368 30.0353 35.7551
Co 5.35636 31.8927 33.8061
Pd 5.29663 33.8486 20.4982
Pd 3.5312 33.8099 22.4443
Pd 3.55098 35.7143 24.3525
Pd 5.34514 33.8086 24.3458
Co 5.36609 35.7001 22.4456
Pd 3.45764 33.8381 26.2251
Pd 3.55085 35.7124 28.0996
Pd 5.34501 33.8068 28.1045
Co 5.37794 35.7331 26.2261
Pd 3.53093 33.8061 30.0058
Pd 5.29622 33.8428 31.9521
Co 5.36583 35.6963 30.0066
Pd 5.34225 37.6447 24.2845
Pd 3.62576 37.5833 26.227
Pd 5.34211 37.6428 28.1696
Co 5.4785 39.427 26.228
Co 9.23401 9.23325 26.2129
Pd 7.23069 12.8785 24.2891
Pd 9.09355 11.0009 24.2901
Co 9.13067 12.9194 22.4094
Pd 7.28914 11.0644 26.2138
Pd 7.23055 12.8765 28.1402
Pd 9.09342 10.999 28.1374
Co 9.09642 12.8811 26.2147
Co 9.1304 12.9156 30.0201
Pd 7.19322 16.6753 20.4806
Pd 9.06662 14.778 20.4637
Co 9.11206 16.7188 18.6055
Pd 7.21254 14.789 22.3591
Pd 7.2141 16.6856 24.2908
Pd 9.08792 14.7789 24.2863
Co 9.0761 16.6678 22.3618
Pd 7.23565 14.8072 26.2156
Pd 7.21396 16.6837 28.1423
Pd 9.08778 14.777 28.1451
Co 9.1065 16.6868 26.2166
Pd 7.21227 14.7852 30.0721
Pd 7.19281 16.6695 31.9525
Pd 9.06621 14.7722 31.9677
Co 9.07583 16.664 30.0715
Co 9.11152 16.7111 33.8278
Pd 7.19624 20.4794 16.6801
Pd 9.0609 18.5822 16.6671
Co 9.1229 20.5233 14.8037
Pd 7.19022 18.5953 18.5647
Pd 7.19312 20.4899 20.4931
Pd 9.07334 18.5809 20.4738
Co 9.07044 20.4701 18.5636
Pd 7.19733 18.5983 22.3829
Pd 7.21278 20.5166 24.3132
Pd 9.09966 18.5892 24.2909
Co 9.09735 20.4972 22.3957
Pd 7.2348 18.6021 26.2175
Pd 7.21265 20.5147 28.1238
Pd 9.09953 18.5872 28.1443
Co 9.10932 20.5035 26.2186
Pd 7.19706 18.5944 30.0522
Pd 7.19272 20.4842 31.9439
Pd 9.07293 18.5752 31.9613
Co 9.09708 20.4934 30.0414
Pd 7.18967 18.5876 33.8703
Pd 7.19557 20.4698 35.7569
Pd 9.06023 18.5726 35.7681
Co 9.0699 20.4624 33.8735
Co 9.12209 20.5118 37.6335
Pd 7.23613 24.3038 12.8848
Pd 9.08599 22.3972 12.8669
Co 9.16829 24.3583 11.0267
Pd 7.21359 22.399 14.7593
Pd 7.22916 24.2902 16.6931
Pd 9.08558 22.3802 16.675
Co 9.0954 24.2826 14.7665
Pd 7.20118 22.3986 18.5847
Pd 7.21498 24.3211 20.5117
Pd 9.09425 22.3953 20.4914
Co 9.10855 24.3048 18.5941
Pd 7.20792 22.4149 22.4164
Pd 7.18518 24.3206 24.319
Pd 9.10539 22.4157 24.3183
Co 9.10547 24.3154 22.4128
Pd 7.18965 22.4185 26.2195
Pd 7.18504 24.3187 28.1218
Pd 9.10525 22.4138 28.1207
Co 9.09932 24.3188 26.2205
Pd 7.20765 22.4111 30.0225
Pd 7.21457 24.3154 31.9291
Pd 9.09384 22.3896 31.9476
Co 9.1052 24.3116 30.0282
Pd 7.20064 22.3909 33.8542
Pd 7.22848 24.2806 35.7477
Pd 9.08491 22.3706 35.764
Co 9.10801 24.2972 33.8469
Pd 7.21278 22.3875 37.6796
Pd 7.23518 24.2904 39.556
Pd 9.08505 22.3837 39.5721
Co 9.09459 24.2711 37.6745
Co 9.16722 24.343 41.4143
Pd 9.17591 26.2297 9.16617
Pd 7.32044 26.2287 11.0255
Pd 7.23605 28.1518 12.8868
Pd 9.12152 26.2278 12.9053
Co 9.16821 28.0992 11.0286
Pd 7.25485 26.2268 14.7901
Pd 7.22908 28.1615 16.695
Pd 9.10912 26.2259 16.6867
Co 9.09531 28.1711 14.7684
Pd 7.23928 26.2249 18.6158
Pd 7.2149 28.1268 20.5136
Pd 9.11523 26.224 20.5159
Co 9.10847 28.1451 18.596
Pd 7.19108 26.223 22.4185
Pd 7.18509 28.1235 24.3209
Pd 9.09889 26.2221 24.3182
Co 9.10539 28.1306 22.4147
Pd 7.17988 26.2211 26.2214
Pd 7.18496 28.1215 28.1237
Pd 9.09875 26.2202 28.1247
Co 9.09924 28.1234 26.2224
Pd 7.19081 26.2192 30.0242
Pd 7.21449 28.121 31.931
Pd 9.11483 26.2183 31.927
Co 9.10512 28.1268 30.0301
Pd 7.23875 26.2173 33.827
Pd 7.2284 28.1519 35.7496
Pd 9.10844 26.2163 35.7561
Co 9.10793 28.1374 33.8488
Pd 7.25404 26.2153 37.6526
Pd 7.2351 28.1384 39.5579
Pd 9.12058 26.2144 39.5375
Co 9.0945 28.1596 37.6764
Pd 7.31936 26.2134 41.4172
Pd 9.1747 26.2125 43.2767
Co 9.16714 28.0839 41.4161
Pd 9.08583 30.0585 12.8707
Pd 7.21342 30.0547 14.7632
Pd 7.196 31.9723 16.6858
Pd 9.08542 30.0716 16.6789
Co 9.12266 31.9304 14.8094
Pd 7.20102 30.0512 18.5885
Pd 7.19288 31.958 20.4988
Pd 9.09408 30.0527 20.4953
Co 9.0702 31.9799 18.5694
Pd 7.20776 30.0311 22.4202
Pd 7.21254 31.9275 24.319
Pd 9.10522 30.0285 24.3222
Co 9.0971 31.9489 22.4015
Pd 7.18949 30.0236 26.2233
Pd 7.21241 31.9256 28.1295
Pd 9.10509 30.0266 28.1245
Co 9.10907 31.9387 26.2243
Pd 7.20749 30.0273 30.0263
Pd 7.19247 31.9522 31.9497
Pd 9.09368 30.0469 31.9515
Co 9.09683 31.945 30.0472
Pd 7.20047 30.0436 33.8581
Pd 7.19532 31.9627 35.7627
Pd 9.08474 30.062 35.7679
Co 9.06965 31.9722 33.8793
Pd 7.21261 30.0431 37.6834
Pd 9.08488 30.0451 39.576
Co 9.12185 31.919 37.6392
Pd 9.06058 33.8697 16.6748
Pd 7.18989 33.8545 18.5724
Pd 7.19281 35.7726 20.4902
Pd 9.07301 33.8671 20.4815
Co 9.11165 35.7311 18.6151
Pd 7.19701 33.8477 22.3906
Pd 7.21369 35.7585 24.3004
Pd 9.09933 33.855 24.2985
Co 9.07569 35.7783 22.3714
Pd 7.23447 33.84 26.2252
Pd 7.21356 35.7566 28.1519
Pd 9.0992 33.8531 28.152
Co 9.10609 35.7554 26.2262
Pd 7.19673 33.8439 30.0598
Pd 7.1924 35.7669 31.9621
Pd 9.0726 33.8613 31.969
Co 9.07542 35.7744 30.0811
Pd 7.18935 33.8468 33.878
Pd 9.0599 33.8601 35.7758
Co 9.11111 35.7235 33.8374
Pd 9.06613 37.67 20.4752
Pd 7.21205 37.657 22.3706
Pd 7.23012 39.5656 24.3025
Pd 9.08743 37.6653 24.2978
Co 9.13011 39.5266 22.4227
Pd 7.23516 37.635 26.2271
Pd 7.22998 39.5637 28.1537
Pd 9.08729 37.6633 28.1566
Co 9.09585 39.5611 26.2281
Pd 7.21178 37.6531 30.0836
Pd 9.06572 37.6642 31.9792
Co 9.12984 39.5228 30.0335
Pd 9.0929 41.4433 24.3054
Pd 7.28849 41.3778 26.229
Pd 9.09277 41.4413 28.1527
Co 9.23329 43.209 26.23
Co 13.0161 5.47846 26.2111
Pd 11.0008 9.09376 24.2892
Pd 12.8784 7.23098 24.2864
Co 12.9184 9.13185 22.4076
Pd 11.0652 7.28845 26.212
Pd 11.0006 9.09183 28.1365
Pd 12.8783 7.22904 28.1376
Co 12.8819 9.09581 26.213
Co 12.9182 9.12802 30.0184
Pd 10.9728 12.8579 20.463
Pd 12.8559 10.9749 20.4622
Co 12.9026 12.9056 18.5943
Pd 10.9848 10.9859 22.3575
Pd 10.9823 12.8716 24.2845
Pd 12.8713 10.9826 24.2836
Co 12.8573 12.8584 22.3549
Pd 11.0115 11.0108 26.2139
Pd 10.9821 12.8696 28.1451
Pd 12.8712 10.9806 28.1442
Co 12.8839 12.8832 26.2149
Pd 10.9845 10.982 30.0701
Pd 10.9724 12.8521 31.9665
Pd 12.8555 10.9691 31.9657
Co 12.857 12.8546 30.0748
Co 12.9021 12.8979 33.8354
Pd 10.9659 16.658 16.6603
Pd 12.8466 14.7672 16.6546
Co 12.9001 16.707 14.7922
Pd 10.9689 14.7728 18.5438
Pd 10.9704 16.6623 20.4628
Pd 12.8561 14.7637 20.4579
Co 12.8493 16.6513 18.544
Pd 10.9759 14.7716 22.3609
Pd 10.9821 16.6737 24.291
Pd 12.8727 14.7702 24.2888
Co 12.8747 16.6718 22.3797
Pd 10.9801 14.7699 26.2157
Pd 10.982 16.6718 28.1424
Pd 12.8726 14.7682 28.1428
Co 12.8764 16.6713 26.2168
Pd 10.9756 14.7678 30.0706
Pd 10.97 16.6565 31.9706
Pd 12.8557 14.758 31.9737
Co 12.8745 16.668 30.0538
Pd 10.9684 14.7651 33.8876
Pd 10.9652 16.6483 35.773
Pd 12.8459 14.7576 35.777
Co 12.8487 16.6436 33.8895
Co 12.8993 16.6955 37.6414
Pd 10.9804 20.4687 12.8616
Pd 12.8538 18.5755 12.8559
Co 12.9174 20.5229 10.9996
Pd 10.9704 18.5779 14.7437
Pd 10.9742 20.465 16.6643
Pd 12.8546 18.5638 16.6567
Co 12.8548 20.4577 14.7482
Pd 10.969 18.5711 18.5558
Pd 10.9801 20.4814 20.4777
Pd 12.8712 18.5699 20.4697
Co 12.8751 20.478 18.5734
Pd 10.9819 18.5754 22.3807
Pd 10.9952 20.4917 24.3041
Pd 12.8814 18.5787 24.3012
Co 12.8837 20.4836 22.3908
Pd 10.9896 18.5817 26.2177
Pd 10.9951 20.4897 28.1331
Pd 12.8813 18.5768 28.1342
Co 12.8904 20.4865 26.2187
Pd 10.9816 18.5716 30.0546
Pd 10.9797 20.4757 31.9596
Pd 12.8708 18.5641 31.9657
Co 12.8835 20.4798 30.0466
Pd 10.9685 18.5634 33.8795
Pd 10.9736 20.4554 35.7729
Pd 12.8539 18.5542 35.7788
Co 12.8745 20.4703 33.864
Pd 10.9696 18.5663 37.6917
Pd 10.9795 20.4553 39.5756
Pd 12.8528 18.5621 39.5795
Co 12.854 20.4462 37.6892
Co 12.9164 20.5076 41.4378
Pd 11.024 24.3085 9.08861
Pd 12.8838 22.4012 9.07269
Co 12.9714 24.3605 7.24268
Pd 10.9963 22.4007 10.9528
Pd 10.9993 24.2919 12.8791
Pd 12.8689 22.379 12.8673
Co 12.8828 24.2839 10.9708
Pd 10.9811 22.3801 14.7593
Pd 10.9859 24.2998 16.6748
Pd 12.8737 22.3827 16.6706
Co 12.883 24.3031 14.7794
Pd 10.983 22.3854 18.578
Pd 10.9984 24.3064 20.4947
Pd 12.8852 22.3924 20.4883
Co 12.8832 24.3044 18.5834
Pd 10.995 22.3987 22.399
Pd 11.0056 24.3138 24.3132
Pd 12.8958 22.398 24.3071
Co 12.8966 24.3087 22.4013
Pd 11.0059 22.4026 26.2196
Pd 11.0054 24.3119 28.1279
Pd 12.8957 22.3961 28.1322
Co 12.9029 24.3095 26.2206
Pd 10.9947 22.3948 30.0402
Pd 10.998 24.3007 31.9464
Pd 12.8848 22.3866 31.951
Co 12.8963 24.3048 30.04
Pd 10.9825 22.3777 33.8611
Pd 10.9852 24.2902 35.7663
Pd 12.873 22.3731 35.7687
Co 12.8827 24.2967 33.8578
Pd 10.9803 22.3685 37.6798
Pd 10.9984 24.2784 39.562
Pd 12.8679 22.3656 39.572
Co 12.8822 24.2916 37.6618
Pd 10.9952 22.3854 41.4863
Pd 11.0228 24.2913 43.3525
Pd 12.8826 22.384 43.3666
Co 12.8817 24.2685 41.4703
Co 12.9701 24.3414 45.1986
Pd 13.0039 26.2317 5.37587
Pd 11.1263 26.2307 7.22913
Pd 11.024 28.151 9.09054
Pd 12.9144 26.2298 9.12043
Co 12.9713 28.101 7.24456
Pd 11.0336 26.2288 10.9905
Pd 10.9992 28.1639 12.8811
Pd 12.8903 26.2279 12.8839
Co 12.8827 28.1739 10.9728
Pd 10.9952 26.2269 14.7822
Pd 10.9858 28.1522 16.6767
Pd 12.8828 26.226 16.6855
Co 12.8829 28.1508 14.7813
Pd 10.9956 26.225 18.5893
Pd 10.9983 28.1417 20.4966
Pd 12.8917 26.2241 20.4947
Co 12.8831 28.1457 18.5853
Pd 11.0069 26.2231 22.4095
Pd 11.0055 28.1304 24.3151
Pd 12.9037 26.2222 24.3145
Co 12.8965 28.1376 22.4032
Pd 11.0043 26.2212 26.2215
Pd 11.0054 28.1285 28.1298
Pd 12.9036 26.2202 28.1287
Co 12.9028 28.1329 26.2225
Pd 11.0067 26.2192 30.0335
Pd 10.9979 28.1359 31.9483
Pd 12.8913 26.2183 31.9484
Co 12.8963 28.1337 30.0419
Pd 10.9951 26.2173 33.8537
Pd 10.9852 28.1426 35.7682
Pd 12.8822 26.2164 35.7576
Co 12.8826 28.138 33.8597
Pd 10.9944 26.2154 37.6609
Pd 10.9983 28.1505 39.5639
Pd 12.8894 26.2145 39.5593
Co 12.8821 28.1393 37.6638
Pd 11.0325 26.2135 41.4525
Pd 11.0227 28.1338 43.3544
Pd 12.9132 26.2126 43.3227
Co 12.8816 28.1585 41.4723
Pd 11.125 26.2116 45.2139
Pd 13.0025 26.2107 47.0673
Co 12.97 28.0819 45.2005
Pd 12.8837 30.0584 9.07654
Pd 10.9961 30.057 10.9567
Pd 10.9802 31.987 12.8674
Pd 12.8687 30.0768 12.8712
Co 12.9172 31.9348 11.0053
Pd 10.981 30.0738 14.7632
Pd 10.974 31.987 16.6701
Pd 12.8736 30.0693 16.6744
Co 12.8546 31.9962 14.754
Pd 10.9829 30.0646 18.5819
Pd 10.9799 31.9667 20.4835
Pd 12.885 30.0558 20.4921
Co 12.8748 31.9721 18.5791
Pd 10.9948 30.0475 22.4029
Pd 10.995 31.9526 24.3099
Pd 12.8957 30.0463 24.311
Co 12.8835 31.9626 22.3965
Pd 11.0057 30.0397 26.2234
Pd 10.9949 31.9507 28.1389
Pd 12.8955 30.0444 28.136
Co 12.8901 31.9559 26.2245
Pd 10.9946 30.0436 30.044
Pd 10.9794 31.9609 31.9653
Pd 12.8846 30.05 31.9549
Co 12.8832 31.9588 30.0524
Pd 10.9823 30.0569 33.865
Pd 10.9733 31.9773 35.7787
Pd 12.8729 30.0597 35.7726
Co 12.8743 31.9644 33.8698
Pd 10.9802 30.0623 37.6837
Pd 10.9792 31.9736 39.5814
Pd 12.8678 30.0634 39.5758
Co 12.8538 31.9847 37.695
Pd 10.9951 30.0416 41.4902
Pd 12.8825 30.0412 43.3705
Co 12.9161 31.9195 41.4436
Pd 12.8535 33.8803 12.8636
Pd 10.9701 33.876 14.7514
Pd 10.9655 35.794 16.67
Pd 12.8542 33.8882 16.6644
Co 12.8997 35.7469 14.8017
Pd 10.9687 33.879 18.5635
Pd 10.97 35.7858 20.4724
Pd 12.8708 33.8783 20.4774
Co 12.8489 35.7988 18.5536
Pd 10.9816 33.8707 22.3884
Pd 10.9817 35.7705 24.3006
Pd 12.8811 33.8656 24.3089
Co 12.8743 35.7744 22.3893
Pd 10.9892 33.8606 26.2253
Pd 10.9816 35.7686 28.152
Pd 12.8809 33.8637 28.1419
Co 12.876 35.7711 26.2264
Pd 10.9813 33.8669 30.0623
Pd 10.9696 35.7801 31.9803
Pd 12.8704 33.8725 31.9734
Co 12.874 35.7706 30.0634
Pd 10.9682 33.8713 33.8872
Pd 10.9648 35.7844 35.7827
Pd 12.8535 33.8786 35.7865
Co 12.8483 35.7911 33.8991
Pd 10.9693 33.8644 37.6993
Pd 12.8525 33.8669 39.5872
Co 12.8989 35.7354 37.651
Pd 12.8461 37.6848 16.6661
Pd 10.9684 37.6772 18.5554
Pd 10.9722 39.5902 20.4765
Pd 12.8556 37.6845 20.4694
Co 12.902 39.5445 18.6077
Pd 10.9754 37.6746 22.3724
Pd 10.9817 39.5727 24.2979
Pd 12.8722 37.6742 24.3004
Co 12.8567 39.5878 22.3683
Pd 10.9796 37.6725 26.2273
Pd 10.9816 39.5708 28.1585
Pd 12.8721 37.6722 28.1543
Co 12.8833 39.5592 26.2283
Pd 10.9751 37.6707 30.0822
Pd 10.9718 39.5844 31.98
Pd 12.8552 37.6787 31.9852
Co 12.8564 39.584 30.0883
Pd 10.9679 37.6695 33.8992
Pd 12.8454 37.6752 35.7886
Co 12.9015 39.5369 33.8488
Pd 12.8553 41.4733 20.4775
Pd 10.9841 41.4603 22.3729
Pd 11 43.3505 24.3065
Pd 12.8707 41.4618 24.2989
Co 12.9177 43.3144 22.4248
Pd 11.0109 41.4315 26.2292
Pd 10.9999 43.3486 28.1538
Pd 12.8706 41.4598 28.1596
Co 12.8812 43.3466 26.2302
Pd 10.9838 41.4565 30.0855
Pd 12.8548 41.4675 31.981
Co 12.9174 43.3106 30.0356
Pd 12.8776 45.2134 24.3055
Pd 11.0644 45.1539 26.231
Pd 12.8775 45.2114 28.1567
Co 13.0152 46.964 26.232
Pd 14.7993 5.34312 24.2686
Pd 16.7298 3.55182 24.3368
Co 16.7449 5.36782 22.4307
Pd 14.8597 3.62572 26.2103
Pd 14.7992 5.34116 28.1537
Pd 16.7296 3.54994 28.0839
Co 16.71 5.3779 26.2112
Co 16.7446 5.36402 29.9917
Pd 14.7761 9.06878 20.461
Pd 16.6735 7.19545 20.4762
Co 16.716 9.11517 18.602
Pd 14.7881 7.21381 22.3556
Pd 14.7788 9.08829 24.2837
Pd 16.6855 7.21455 24.2864
Co 16.6668 9.07746 22.3582
Pd 14.808 7.23512 26.2121
Pd 14.7786 9.08635 28.1424
Pd 16.6854 7.21262 28.1379
Co 16.6876 9.10605 26.2131
Pd 14.7878 7.20994 30.0686
Pd 14.7757 9.063 31.965
Pd 16.6731 7.18968 31.9481
Co 16.6665 9.07358 30.0679
Co 16.7155 9.10752 33.8242
Pd 14.7633 12.8505 16.6537
Pd 16.6542 10.9699 16.6577
Co 16.7023 12.905 14.7904
Pd 14.7699 10.972 18.5421
Pd 14.7617 12.8582 20.457
Pd 16.6603 10.9726 20.4601
Co 16.6483 12.8524 18.5422
Pd 14.7705 10.9771 22.3591
Pd 14.7699 12.8731 24.288
Pd 16.6735 10.9826 24.2883
Co 16.6706 12.8761 22.3779
Pd 14.7706 10.9796 26.214
Pd 14.7697 12.8711 28.1419
Pd 16.6734 10.9806 28.1398
Co 16.6719 12.876 26.215
Pd 14.7702 10.9733 30.0689
Pd 14.7613 12.8524 31.9728
Pd 16.6599 10.9669 31.968
Co 16.6704 12.8722 30.0521
Pd 14.7694 10.9642 33.8859
Pd 14.7627 12.8409 35.7761
Pd 16.6535 10.9603 35.7704
Co 16.6478 12.8447 33.8877
Co 16.7014 12.8935 37.6396
Pd 14.7654 16.6557 12.8539
Pd 16.65 14.7712 12.853
Co 16.7096 16.7162 10.9929
Pd 14.7625 14.7673 14.7368
Pd 14.7565 16.6529 16.6532
Pd 16.6489 14.7605 16.6523
Co 16.6444 16.6493 14.7429
Pd 14.7581 14.7611 18.546
Pd 14.7633 16.6655 20.4669
Pd 16.6633 14.7655 20.466
Co 16.6647 16.6678 18.5674
Pd 14.7643 14.7656 22.3751
Pd 14.7747 16.6727 24.2992
Pd 16.6723 14.7752 24.2983
Co 16.6711 16.6725 22.3864
Pd 14.7731 14.7725 26.2159
Pd 14.7746 16.6708 28.1345
Pd 16.6722 14.7732 28.1336
Co 16.6765 16.6761 26.2169
Pd 14.764 14.7617 30.0567
Pd 14.7629 16.6597 31.9667
Pd 16.6629 14.7598 31.9659
Co 16.6709 16.6686 30.0474
Pd 14.7575 14.7534 33.8857
Pd 14.7558 16.6433 35.7805
Pd 16.6483 14.7509 35.7796
Co 16.6641 16.6601 33.8664
Pd 14.7617 14.7558 37.695
Pd 14.7644 16.6423 39.5797
Pd 16.6491 14.7577 39.5789
Co 16.6436 16.6378 37.6909
Co 16.7085 16.7009 41.4409
Pd 14.7893 20.4753 9.06936
Pd 16.6723 18.5925 9.06163
Co 16.7474 20.5444 7.21602
Pd 14.7755 18.5799 10.942
Pd 14.7659 20.4629 12.8639
Pd 16.6534 18.566 12.8617
Co 16.6592 20.4627 10.9614
Pd 14.7584 18.5633 14.7493
Pd 14.7637 20.4728 16.6663
Pd 16.6613 18.5655 16.6649
Co 16.6666 20.4763 14.7754
Pd 14.7629 18.5659 18.5658
Pd 14.7774 20.4812 20.4834
Pd 16.672 18.5756 20.482
Co 16.6713 20.4799 18.5797
Pd 14.7756 18.5757 22.3884
Pd 14.7851 20.4853 24.3056
Pd 16.6793 18.5799 24.3044
Co 16.6817 20.4859 22.3967
Pd 14.7795 18.5766 26.2178
Pd 14.785 20.4834 28.1319
Pd 16.6791 18.578 28.1313
Co 16.685 20.4862 26.2188
Pd 14.7753 18.5718 30.0472
Pd 14.777 20.4754 31.9541
Pd 16.6716 18.5698 31.9538
Co 16.6814 20.4821 30.041
Pd 14.7624 18.5582 33.8697
Pd 14.763 20.4631 35.7712
Pd 16.6606 18.5559 35.7708
Co 16.6707 20.4722 33.8579
Pd 14.7576 18.5517 37.6863
Pd 14.7649 20.4494 39.5736
Pd 16.6524 18.5525 39.574
Co 16.6658 20.4648 37.6622
Pd 14.7745 18.5646 41.4936
Pd 14.7881 20.458 43.3681
Pd 16.6711 18.5753 43.3741
Co 16.6581 20.4474 41.4762
Co 16.7461 20.5253 45.2217
Pd 14.8477 24.3113 5.33371
Pd 16.7392 22.426 5.30383
Co 16.8387 24.3879 3.59927
Pd 14.816 22.4023 7.17138
Pd 14.8001 24.2931 9.09813
Pd 16.6808 22.3861 9.09324
Co 16.7044 24.2863 7.21367
Pd 14.7769 22.3807 10.9684
Pd 14.7738 24.3003 12.8793
Pd 16.6691 22.3837 12.8809
Co 16.6833 24.3056 11.0002
Pd 14.7674 22.3822 14.7728
Pd 14.7762 24.3053 16.6827
Pd 16.6717 22.391 16.6842
Co 16.6724 24.3048 14.7884
Pd 14.7765 22.3911 18.5816
Pd 14.7852 24.308 20.4919
Pd 16.6814 22.3954 20.4921
Co 16.6794 24.3086 18.5911
Pd 14.7876 22.3948 22.3976
Pd 14.7961 24.3084 24.3101
Pd 16.689 22.3966 24.3095
Co 16.6888 24.3091 22.402
Pd 14.7919 22.3952 26.2197
Pd 14.796 24.3064 28.1313
Pd 16.6888 22.3947 28.13
Co 16.6936 24.3078 26.2207
Pd 14.7873 22.391 30.0418
Pd 14.7848 24.3022 31.9494
Pd 16.681 22.3896 31.9474
Co 16.6885 24.3052 30.0395
Pd 14.7759 22.3834 33.8578
Pd 14.7756 24.2957 35.7586
Pd 16.671 22.3814 35.7554
Co 16.6788 24.3009 33.8503
Pd 14.7666 22.3706 37.6666
Pd 14.7729 24.2869 39.562
Pd 16.6682 22.3703 39.5586
Co 16.6716 24.2933 37.6531
Pd 14.7758 22.3654 41.471
Pd 14.7989 24.2759 43.3432
Pd 16.6796 22.3689 43.3463
Co 16.6823 24.2903 41.4412
Pd 14.8146 22.3832 45.2681
Pd 14.8463 24.2902 47.1076
Pd 16.7377 22.405 47.1358
Co 16.7031 24.2672 45.2278
Co 16.8371 24.3652 48.8423
Pd 15.0317 26.2327 3.50825
Pd 14.8476 28.1522 5.33564
Pd 16.7663 26.2317 5.41842
Co 16.8387 28.0774 3.60113
Pd 14.8368 26.2308 7.22351
Pd 14.8 28.1666 9.10008
Pd 16.6986 26.2299 9.1124
Co 16.7043 28.1754 7.21563
Pd 14.7895 26.2289 10.9946
Pd 14.7737 28.1556 12.8813
Pd 16.677 26.228 12.8988
Co 16.6832 28.1522 11.0022
Pd 14.7789 26.227 14.7858
Pd 14.7762 28.1468 16.6847
Pd 16.6767 26.2261 16.6922
Co 16.6723 28.1492 14.7903
Pd 14.7817 26.2251 18.5892
Pd 14.7852 28.1402 20.4939
Pd 16.685 26.2242 20.4977
Co 16.6793 28.1416 18.5931
Pd 14.7924 26.2232 22.4022
Pd 14.796 28.136 24.312
Pd 16.6937 26.2222 24.3117
Co 16.6887 28.1373 22.4039
Pd 14.8003 26.2212 26.2216
Pd 14.7959 28.1341 28.1332
Pd 16.6936 26.2203 28.1317
Co 16.6935 28.1347 26.2227
Pd 14.7922 26.2193 30.0411
Pd 14.7847 28.1345 31.9514
Pd 16.6846 26.2184 31.9457
Co 16.6884 28.1335 30.0414
Pd 14.7811 26.2174 33.8541
Pd 14.7755 28.1372 35.7606
Pd 16.676 26.2165 35.7512
Co 16.6787 28.1339 33.8523
Pd 14.7781 26.2155 37.6575
Pd 14.7728 28.1421 39.564
Pd 16.6761 26.2146 39.5447
Co 16.6715 28.1377 37.655
Pd 14.7884 26.2136 41.4487
Pd 14.7988 28.1494 43.3451
Pd 16.6974 26.2127 43.331
Co 16.6822 28.1369 41.4432
Pd 14.8355 26.2117 45.2198
Pd 14.8462 28.1312 47.1096
Pd 16.7649 26.2108 47.025
Co 16.703 28.1563 45.2297
Pd 15.0301 26.2098 48.935
Co 16.8371 28.0547 48.8442
Pd 16.739 30.0376 5.30766
Pd 14.8158 30.0593 7.17523
Pd 14.789 31.9845 9.07515
Pd 16.6806 30.0737 9.09711
Co 16.7472 31.9173 7.22174
Pd 14.7767 30.0771 10.9723
Pd 14.7656 31.993 12.8697
Pd 16.669 30.0722 12.8848
Co 16.659 31.9952 10.9672
Pd 14.7672 30.0718 14.7767
Pd 14.7635 31.9793 16.6721
Pd 16.6715 30.0612 16.688
Co 16.6663 31.9778 14.7812
Pd 14.7763 30.0591 18.5855
Pd 14.7772 31.9671 20.4892
Pd 16.6812 30.0529 20.496
Co 16.671 31.9703 18.5855
Pd 14.7874 30.0515 22.4014
Pd 14.7848 31.9591 24.3114
Pd 16.6888 30.0479 24.3134
Co 16.6814 31.9605 22.4024
Pd 14.7917 30.0473 26.2236
Pd 14.7847 31.9572 28.1377
Pd 16.6887 30.0459 28.1339
Co 16.6847 31.9564 26.2246
Pd 14.7872 30.0476 30.0457
Pd 14.7768 31.9613 31.9598
Pd 16.6808 30.0472 31.9513
Co 16.6812 31.9566 30.0468
Pd 14.7757 30.0514 33.8617
Pd 14.7628 31.9697 35.7769
Pd 16.6708 30.0516 35.7592
Co 16.6705 31.9626 33.8637
Pd 14.7664 30.0603 37.6705
Pd 14.7647 31.9796 39.5794
Pd 16.668 30.0588 39.5625
Co 16.6655 31.9663 37.668
Pd 14.7757 30.0618 41.4749
Pd 14.7878 31.9672 43.3739
Pd 16.6794 30.0565 43.3502
Co 16.6579 31.9798 41.482
Pd 14.8144 30.0401 45.2719
Pd 16.7375 30.0166 47.1396
Co 16.7458 31.8982 45.2274
Pd 16.672 33.8673 9.06932
Pd 14.7752 33.8779 10.9497
Pd 14.765 35.8002 12.8635
Pd 16.653 33.89 12.8694
Co 16.7092 35.7416 11.0025
Pd 14.7581 33.8907 14.757
Pd 14.7561 35.7992 16.6628
Pd 16.6609 33.8866 16.6726
Co 16.644 35.8048 14.7525
Pd 14.7626 33.8843 18.5735
Pd 14.7629 35.7828 20.4765
Pd 16.6717 33.8727 20.4897
Co 16.6642 35.7825 18.577
Pd 14.7752 33.8707 22.3961
Pd 14.7743 35.7717 24.3088
Pd 16.679 33.8646 24.3121
Co 16.6707 35.7739 22.396
Pd 14.7792 33.8658 26.2255
Pd 14.7742 35.7698 28.1441
Pd 16.6788 33.8626 28.139
Co 16.6761 35.7665 26.2265
Pd 14.775 33.8668 30.0549
Pd 14.7625 35.777 31.9764
Pd 16.6713 33.867 31.9614
Co 16.6704 35.7701 30.057
Pd 14.7621 33.8766 33.8774
Pd 14.7554 35.7896 35.7901
Pd 16.6603 33.877 35.7785
Co 16.6637 35.7748 33.876
Pd 14.7573 33.8792 37.694
Pd 14.764 35.7868 39.5894
Pd 16.6521 33.8766 39.5817
Co 16.6432 35.7932 37.7005
Pd 14.7741 33.8626 41.5013
Pd 16.6708 33.85 43.3818
Co 16.7081 35.7263 41.4505
Pd 16.6495 37.6848 12.8646
Pd 14.762 37.6867 14.7483
Pd 14.7628 39.6016 16.6671
Pd 16.6485 37.6916 16.6638
Co 16.7017 39.5491 14.8038
Pd 14.7576 37.6891 18.5575
Pd 14.7611 39.59 20.4705
Pd 16.6628 37.6828 20.4776
Co 16.6477 39.5979 18.5557
Pd 14.7638 37.6808 22.3866
Pd 14.7693 39.5714 24.3014
Pd 16.6718 37.6693 24.3098
Co 16.6701 39.5704 22.3914
Pd 14.7726 37.6699 26.2274
Pd 14.7692 39.5694 28.1553
Pd 16.6717 37.6674 28.1451
Co 16.6713 39.5666 26.2284
Pd 14.7635 37.6769 30.0682
Pd 14.7607 39.5843 31.9863
Pd 16.6624 37.677 31.9774
Co 16.6698 39.5665 30.0655
Pd 14.757 37.6814 33.8973
Pd 14.7621 39.592 35.7896
Pd 16.6478 37.682 35.7911
Co 16.6472 39.5902 33.9012
Pd 14.7612 37.6752 37.7065
Pd 16.6486 37.6714 39.5904
Co 16.7009 39.5376 37.653
Pd 16.6535 41.4822 16.673
Pd 14.7693 41.4782 18.5574
Pd 14.7754 43.3795 20.4783
Pd 16.6596 41.4757 20.4754
Co 16.7153 43.335 18.6192
Pd 14.7699 41.4692 22.3744
Pd 14.7781 43.3561 24.3009
Pd 16.6729 41.4619 24.3037
Co 16.6661 43.369 22.3755
Pd 14.7699 41.4629 26.2293
Pd 14.7779 43.3542 28.1596
Pd 16.6727 41.46 28.1551
Co 16.6868 43.3365 26.2303
Pd 14.7696 41.4653 30.0842
Pd 14.775 43.3737 31.9822
Pd 16.6592 41.4699 31.9833
Co 16.6658 43.3651 30.0852
Pd 14.7687 41.4705 33.9012
Pd 16.6528 41.4726 35.7857
Co 16.7147 43.3274 33.8415
Pd 16.6727 45.2529 20.4953
Pd 14.7873 45.2325 22.3747
Pd 14.7984 47.1013 24.2896
Pd 16.6847 45.2299 24.3055
Co 16.744 47.0785 22.4517
Pd 14.8072 45.2074 26.2312
Pd 14.7983 47.0994 28.1747
Pd 16.6846 45.228 28.157
Co 16.7091 47.0647 26.2322
Pd 14.787 45.2287 30.0877
Pd 16.6723 45.2471 31.9672
Co 16.7437 47.0747 30.0127
Pd 16.7288 48.8926 24.3596
Pd 14.8588 48.8168 26.233
Pd 16.7287 48.8907 28.1067
Pd 18.5975 5.29927 20.4843
Pd 20.5371 3.52795 20.5255
Co 20.5468 5.3604 18.6294
Pd 18.6351 3.53293 22.4296
Pd 18.6354 5.34598 24.3319
Pd 20.5086 3.44025 24.3049
Co 20.5155 5.32678 22.4067
Pd 18.6049 3.4576 26.2103
Pd 18.6352 5.34409 28.0906
Pd 20.5084 3.43833 28.1159
Co 20.5262 5.29868 26.2113
Pd 18.6348 3.52913 29.9911
Pd 18.5971 5.29351 31.9382
Pd 20.5367 3.52223 31.8953
Co 20.5152 5.32296 30.016
Co 20.5462 5.35278 33.7933
Pd 18.5785 9.065 16.6626
Pd 20.4758 7.20042 16.6739
Co 20.5187 9.12795 14.7983
Pd 18.5926 7.19343 18.5594
Pd 18.579 9.07566 20.4694
Pd 20.4881 7.19552 20.4869
Co 20.4673 9.07374 18.5583
Pd 18.5973 7.19876 22.3776
Pd 18.589 9.1002 24.2864
Pd 20.5165 7.21339 24.307
Co 20.4962 9.09885 22.3904
Pd 18.603 7.23443 26.2122
Pd 18.5889 9.09826 28.1399
Pd 20.5164 7.21148 28.1176
Co 20.5043 9.10904 26.2132
Pd 18.5971 7.1949 30.0468
Pd 18.5786 9.06988 31.9569
Pd 20.4877 7.18976 31.9377
Co 20.4959 9.095 30.0361
Pd 18.5921 7.18573 33.865
Pd 18.5778 9.0554 35.7636
Pd 20.4751 7.19083 35.7507
Co 20.4667 9.06604 33.8681
Co 20.5179 9.11647 37.6281
Pd 18.5699 12.8597 12.8533
Pd 20.4632 10.9864 12.8571
Co 20.5164 12.9243 10.996
Pd 18.5732 10.9754 14.7401
Pd 18.5599 12.8587 16.654
Pd 20.4612 10.9784 16.6599
Co 20.453 12.8599 14.7446
Pd 18.5682 10.9722 18.5522
Pd 18.5678 12.8735 20.467
Pd 20.4794 10.9825 20.4732
Co 20.475 12.8783 18.5698
Pd 18.5743 10.9833 22.3772
Pd 18.5784 12.8819 24.2986
Pd 20.4915 10.9958 24.2997
Co 20.4824 12.8853 22.3872
Pd 18.5824 10.9892 26.2141
Pd 18.5783 12.88 28.1316
Pd 20.4913 10.9939 28.1287
Co 20.4871 12.8901 26.2151
Pd 18.5741 10.9795 30.051
Pd 18.5674 12.8677 31.9631
Pd 20.479 10.9767 31.9551
Co 20.4822 12.8814 30.0431
Pd 18.5676 10.9645 33.876
Pd 18.5593 12.849 35.7761
Pd 20.4605 10.9688 35.7685
Co 20.4745 12.8707 33.8605
Pd 18.5724 10.9639 37.6881
Pd 18.5689 12.8462 39.5768
Pd 20.4622 10.9729 39.5712
Co 20.4522 12.8484 37.6856
Co 20.5153 12.909 41.4343
Pd 18.585 16.68 9.06074
Pd 20.4678 14.797 9.06671
Co 20.5359 16.756 7.21425
Pd 18.5733 14.7823 10.9402
Pd 18.5602 16.6592 12.8608
Pd 20.4572 14.7718 12.8612
Co 20.4561 16.6661 10.9596
Pd 18.5584 14.7634 14.7475
Pd 18.5615 16.6654 16.664
Pd 20.4688 14.7679 16.6637
Co 20.4714 16.6716 14.7737
Pd 18.5629 14.7661 18.5641
Pd 18.5734 16.6743 20.4811
Pd 20.479 14.7798 20.4808
Co 20.4768 16.6746 18.5779
Pd 18.5744 14.777 22.3866
Pd 18.5795 16.6798 24.3036
Pd 20.4849 14.7857 24.303
Co 20.4846 16.6832 22.3949
Pd 18.5772 14.7791 26.216
Pd 18.5794 16.6779 28.1304
Pd 20.4848 14.7838 28.1292
Co 20.4866 16.6847 26.217
Pd 18.5741 14.7731 30.0454
Pd 18.5729 16.6686 31.9529
Pd 20.4786 14.774 31.9514
Co 20.4843 16.6793 30.0392
Pd 18.5623 14.7584 33.868
Pd 18.5608 16.6558 35.7699
Pd 20.4681 14.7583 35.7685
Co 20.4763 16.6669 33.8562
Pd 18.5576 14.7519 37.6845
Pd 18.5592 16.6458 39.5731
Pd 20.4562 14.7584 39.5709
Co 20.4706 16.6601 37.6604
Pd 18.5722 14.767 41.4918
Pd 18.5837 16.6627 43.3732
Pd 20.4665 14.7798 43.3655
Co 20.455 16.6507 41.4744
Co 20.5346 16.7369 45.2199
Pd 18.6388 20.5357 5.29036
Pd 20.5263 18.6483 5.28948
Co 20.6098 20.6201 3.57023
Pd 18.6093 18.6178 7.15245
Pd 18.5855 20.4807 9.08945
Pd 20.473 18.5932 9.08857
Co 20.4935 20.5021 7.19533
Pd 18.5675 18.5743 10.9648
Pd 18.5665 20.4762 12.8821
Pd 20.4704 18.5725 12.8812
Co 20.4824 20.4892 11.003
Pd 18.562 18.567 14.7717
Pd 18.5724 20.4809 16.6842
Pd 20.4768 18.5766 16.6833
Co 20.4766 20.4816 14.7926
Pd 18.5725 18.5757 18.5796
Pd 18.5806 20.4868 20.4918
Pd 20.4844 18.583 20.4909
Co 20.484 20.4873 18.5927
Pd 18.5801 18.5815 22.3956
Pd 18.5868 20.4895 24.3087
Pd 20.4889 18.5874 24.3078
Co 20.49 20.4915 22.402
Pd 18.5832 18.5828 26.2179
Pd 18.5866 20.4875 28.1291
Pd 20.4888 18.5855 28.1282
Co 20.4925 20.4922 26.219
Pd 18.5798 18.5776 30.0403
Pd 18.5802 20.481 31.946
Pd 20.484 18.5773 31.9451
Co 20.4897 20.4877 30.036
Pd 18.572 18.568 33.8562
Pd 18.5718 20.4713 35.7536
Pd 20.4762 18.567 35.7527
Co 20.4835 20.4796 33.8452
Pd 18.5612 18.5555 37.6641
Pd 18.5656 20.4628 39.5556
Pd 20.4694 18.5591 39.5547
Co 20.4758 20.4702 37.6453
Pd 18.5664 18.559 41.4711
Pd 18.5843 20.4635 43.3483
Pd 20.4718 18.576 43.3474
Co 20.4813 20.4739 41.4349
Pd 18.6079 18.5986 45.2834
Pd 18.6373 20.5146 47.1475
Pd 20.5248 18.6273 47.1466
Co 20.4921 20.483 45.2426
Co 20.6082 20.5973 48.8678
Pd 18.7457 22.5362 3.44383
Pd 18.6617 24.3403 5.38098
Pd 20.5515 22.4513 5.36572
Co 20.5677 24.3611 3.51778
Pd 18.6114 22.404 7.20853
Pd 18.5941 24.3054 9.12279
Pd 20.498 22.4027 9.11876
Co 20.5363 24.3324 7.25321
Pd 18.578 22.3872 10.9998
Pd 18.5772 24.3074 12.9037
Pd 20.4811 22.3949 12.9095
Co 20.4906 24.3097 11.0276
Pd 18.5732 22.3919 14.7921
Pd 18.5777 24.309 16.6958
Pd 20.4827 22.3961 16.699
Co 20.4826 24.3103 14.8093
Pd 18.5795 22.3956 18.5924
Pd 18.5861 24.3102 20.4992
Pd 20.4897 22.3994 20.5004
Co 20.4875 24.3107 18.602
Pd 18.5875 22.3983 22.4025
Pd 18.5924 24.3098 24.3122
Pd 20.4944 22.4007 24.3119
Co 20.4941 24.3112 22.4073
Pd 18.5909 22.3979 26.2199
Pd 18.5923 24.3079 28.1295
Pd 20.4943 22.3988 28.1279
Co 20.4966 24.3102 26.2209
Pd 18.5872 22.3945 30.0372
Pd 18.5857 24.3044 31.9424
Pd 20.4893 22.3937 31.9395
Co 20.4939 24.3074 30.0345
Pd 18.5789 22.3879 33.8472
Pd 18.577 24.2994 35.7458
Pd 20.4821 22.3865 35.7408
Co 20.487 24.303 33.8398
Pd 18.5724 22.3804 37.6476
Pd 18.5763 24.294 39.5379
Pd 20.4802 22.3815 39.5303
Co 20.4818 24.2988 37.6325
Pd 18.5769 22.3719 41.4399
Pd 18.5928 24.2882 43.3188
Pd 20.4968 22.3855 43.3211