4033
Atoms. Timestep: 20175
Co 5.50116 13.0093 26.2191
Pd 3.56062 16.7012 24.3442
Pd 5.35654 14.7815 24.2553
Co 5.37109 16.7297 22.4248
Pd 3.55942 16.68 28.0426
Pd 5.30447 16.6382 30.0251
Pd 3.67924 14.8129 26.2313
Co 5.39409 16.6902 26.2046
Co 5.42105 14.827 28.0525
Pd 3.5265 20.5209 20.5248
Pd 5.29929 18.5845 20.4798
Co 5.35802 20.536 18.6261
Pd 3.5349 18.6129 22.4293
Pd 3.44092 20.4911 24.2998
Pd 5.34799 18.617 24.3274
Co 5.32539 20.5002 22.4032
Pd 3.45957 18.5881 26.204
Pd 3.4361 20.4956 28.1012
Pd 5.33824 18.6164 28.0854
Co 5.2994 20.5099 26.2053
Pd 3.49602 18.6397 29.9728
Pd 3.51332 20.5175 31.8921
Pd 5.28572 18.5892 31.942
Co 5.31753 20.4927 30.0115
Co 5.34998 20.5272 33.7913
Pd 3.55014 24.3344 16.7207
Pd 5.31434 22.3947 16.6776
Co 5.40663 24.3414 14.8281
Pd 3.53373 22.4294 18.616
Pd 3.4403 24.3052 20.4924
Pd 5.33237 22.4255 20.5244
Co 5.34143 24.3045 18.6053
Pd 3.43251 22.398 22.3972
Pd 3.41123 24.3012 24.3014
Pd 5.2877 22.4031 24.3019
Co 5.28326 24.3125 22.4091
Pd 3.41918 22.3979 26.2033
Pd 3.40889 24.296 28.1141
Pd 5.28543 22.3999 28.1131
Co 5.26694 24.3022 26.2094
Pd 3.42767 22.3905 30.0162
Pd 3.43372 24.2943 31.9248
Pd 5.32576 22.415 31.8931
Co 5.27872 24.3048 30.0103
Pd 3.52409 22.4192 33.8014
Pd 3.53977 24.3176 35.6986
Pd 5.30535 22.378 35.7397
Co 5.33398 24.2903 33.8147
Co 5.39528 24.3197 37.5909
Pd 5.39351 26.2179 12.9554
Pd 3.61877 26.2138 14.8506
Pd 3.54646 28.0897 16.7237
Pd 5.392 26.214 16.7397
Co 5.4029 28.0905 14.8317
Pd 3.46017 26.2104 18.5913
Pd 3.43635 28.1122 20.4955
Pd 5.30122 26.2106 20.5017
Co 5.33794 28.1197 18.6086
Pd 3.41798 26.2076 22.3971
Pd 3.40716 28.1103 24.3069
Pd 5.26972 26.2071 24.3117
Co 5.27922 28.1051 22.413
Pd 3.40117 26.203 26.2104
Pd 3.40514 28.1064 28.1178
Pd 5.26746 26.2029 28.1113
Co 5.26231 28.1081 26.2135
Pd 3.41375 26.1994 30.0233
Pd 3.43025 28.1006 31.9287
Pd 5.29521 26.1991 31.9212
Co 5.27514 28.0973 30.0136
Pd 3.45199 26.1953 33.8296
Pd 3.53639 28.0716 35.7001
Pd 5.38237 26.1959 35.6828
Co 5.33004 28.1047 33.8174
Pd 3.60689 26.1933 37.5706
Pd 5.38031 26.1922 39.466
Co 5.3914 28.0689 37.5933
Pd 5.3071 30.0334 16.6845
Pd 3.52627 29.9905 18.6218
Pd 3.51519 31.8939 20.5323
Pd 5.32529 29.9946 20.5309
Co 5.3475 31.888 18.6361
Pd 3.42493 30.0155 22.4042
Pd 3.42797 31.9183 24.3111
Pd 5.27921 30.011 24.3101
Co 5.31446 31.9152 22.4131
Pd 3.41107 30.0122 26.2143
Pd 3.426 31.9146 28.1212
Pd 5.27723 30.0072 28.1205
Co 5.28665 31.9005 26.2171
Pd 3.42077 30.0079 30.0242
Pd 3.5093 31.883 31.8994
Pd 5.31939 29.9833 31.8989
Co 5.31061 31.9078 30.0209
Pd 3.51806 29.9756 33.8057
Pd 5.29734 30.0149 35.7443
Co 5.33985 31.8732 33.797
Pd 5.28481 33.8351 20.4929
Pd 3.51854 33.794 22.438
Pd 3.53582 35.6975 24.3467
Pd 5.33196 33.7934 24.34
Co 5.35185 35.6858 22.4408
Pd 3.44332 33.8202 26.218
Pd 3.53396 35.6939 28.093
Pd 5.33011 33.7897 28.0979
Co 5.36207 35.7171 26.2208
Pd 3.51464 33.7868 29.9978
Pd 5.27919 33.824 31.9445
Co 5.34822 35.6785 30.0006
Pd 5.32544 37.6296 24.2804
Pd 3.60802 37.5659 26.2217
Pd 5.3236 37.6258 28.165
Co 5.45918 39.4111 26.2245
Co 9.24392 9.22504 26.1992
Pd 7.24201 12.8641 24.2724
Pd 9.10483 10.9902 24.2742
Co 9.14147 12.9093 22.3932
Pd 7.30087 11.0521 26.1989
Pd 7.21966 12.8822 28.1227
Pd 9.09623 10.9972 28.1227
Co 9.10503 12.8705 26.2001
Co 9.14049 12.8988 30.0023
Pd 7.19894 16.6645 20.4678
Pd 9.07565 14.7696 20.4486
Co 9.11831 16.7113 18.5927
Pd 7.22244 14.7764 22.3428
Pd 7.22324 16.6751 24.2732
Pd 9.09721 14.7684 24.2701
Co 9.08337 16.659 22.3474
Pd 7.24942 14.7989 26.1971
Pd 7.21883 16.6647 28.1249
Pd 9.09711 14.7644 28.1291
Co 9.1151 16.6789 26.2016
Pd 7.21469 14.7467 30.0369
Pd 7.21229 16.6468 31.9623
Pd 9.06697 14.7515 31.9478
Co 9.07344 16.6463 30.0607
Co 9.11845 16.6946 33.8218
Pd 7.19812 20.4697 16.6693
Pd 9.06513 18.575 16.6556
Co 9.1254 20.5168 14.7931
Pd 7.19352 18.5849 18.5531
Pd 7.19398 20.4782 20.482
Pd 9.07726 18.5723 20.4618
Co 9.07229 20.4617 18.5529
Pd 7.20017 18.5867 22.3702
Pd 7.21254 20.5028 24.3019
Pd 9.10314 18.5805 24.2792
Co 9.09858 20.4874 22.3848
Pd 7.23656 18.59 26.2076
Pd 7.20756 20.496 28.1168
Pd 9.09716 18.5722 28.1373
Co 9.10801 20.4909 26.2105
Pd 7.19407 18.5756 30.046
Pd 7.18827 20.4672 31.9325
Pd 9.07249 18.5614 31.9508
Co 9.09411 20.4788 30.0322
Pd 7.18675 18.5717 33.859
Pd 7.19068 20.452 35.7456
Pd 9.05887 18.5569 35.7573
Co 9.06648 20.447 33.8631
Co 9.11741 20.4942 37.6224
Pd 7.23503 24.296 12.876
Pd 9.08692 22.3915 12.8573
Co 9.16756 24.3537 11.0183
Pd 7.21398 22.3903 14.7495
Pd 7.22724 24.2803 16.6842
Pd 9.08576 22.3725 16.6654
Co 9.09404 24.2758 14.7579
Pd 7.20057 22.3876 18.5748
Pd 7.21231 24.3092 20.5024
Pd 9.09374 22.3857 20.4815
Co 9.10647 24.296 18.5853
Pd 7.20706 22.402 22.406
Pd 7.18217 24.3069 24.3099
Pd 9.10357 22.4036 24.3094
Co 9.10257 24.3045 22.4042
Pd 7.1875 22.4029 26.2101
Pd 7.18021 24.3034 28.1126
Pd 9.10072 22.3989 28.1126
Co 9.09496 24.3057 26.2126
Pd 7.20175 22.3942 30.0127
Pd 7.20676 24.2979 31.9191
Pd 9.08872 22.3743 31.9381
Co 9.09891 24.2968 30.0199
Pd 7.19447 22.3735 33.8433
Pd 7.21894 24.262 35.7368
Pd 9.07856 22.354 35.7538
Co 9.1003 24.2811 33.8376
Pd 7.20423 22.3676 37.6674
Pd 7.22207 24.269 39.5426
Pd 9.07624 22.3642 39.5602
Co 9.08445 24.2528 37.6637
Co 9.1522 24.3221 41.3992
Pd 9.17357 26.2263 9.15888
Pd 7.31773 26.2221 11.0178
Pd 7.23111 28.144 12.88
Pd 9.11857 26.222 12.8979
Co 9.16365 28.0946 11.0223
Pd 7.25148 26.2179 14.7823
Pd 7.22357 28.1517 16.6879
Pd 9.10556 26.218 16.6791
Co 9.09018 28.1643 14.7618
Pd 7.23537 26.2141 18.6076
Pd 7.20883 28.1152 20.5061
Pd 9.11094 26.2141 20.5082
Co 9.10274 28.1362 18.5892
Pd 7.18661 26.2104 22.41
Pd 7.1781 28.11 24.3132
Pd 9.09366 26.2103 24.3107
Co 9.09886 28.1198 22.4079
Pd 7.17409 26.2067 26.2128
Pd 7.17608 28.1061 28.1159
Pd 9.09196 26.2066 28.1173
Co 9.09147 28.1108 26.2157
Pd 7.18268 26.2028 30.0154
Pd 7.20326 28.1038 31.9224
Pd 9.106 26.2027 31.919
Co 9.09552 28.1121 30.0231
Pd 7.22816 26.1991 33.8171
Pd 7.21438 28.1331 35.7393
Pd 9.09739 26.1992 35.7468
Co 9.09611 28.1209 33.8407
Pd 7.24014 26.1957 37.6408
Pd 7.21756 28.1187 39.5452
Pd 9.10557 26.1954 39.5247
Co 9.07936 28.1419 37.666
Pd 7.30206 26.1921 41.4027
Pd 9.15585 26.1921 43.261
Co 9.147 28.0658 41.4014
Pd 9.07913 30.0527 12.8653
Pd 7.20644 30.0459 14.7571
Pd 7.18694 31.9627 16.6805
Pd 9.07817 30.0637 16.6731
Co 9.11394 31.9237 14.8048
Pd 7.19346 30.0406 18.5821
Pd 7.18303 31.9464 20.4933
Pd 9.08613 30.0428 20.4894
Co 9.06079 31.971 18.5646
Pd 7.19931 30.0186 22.4136
Pd 7.20143 31.9139 24.3131
Pd 9.09622 30.0167 24.3163
Co 9.08677 31.938 22.3965
Pd 7.17962 30.0091 26.2164
Pd 7.19963 31.9102 28.1231
Pd 9.09455 30.0128 28.1185
Co 9.0974 31.9259 26.2192
Pd 7.19563 30.0109 30.0188
Pd 7.17759 31.935 31.9422
Pd 9.08114 30.0312 31.9446
Co 9.08346 31.9303 30.0414
Pd 7.186 30.0255 33.8492
Pd 7.17782 31.9442 35.7537
Pd 9.06946 30.0448 35.7591
Co 9.05396 31.9558 33.8721
Pd 7.19496 30.0242 37.6725
Pd 9.06599 30.0277 39.5646
Co 9.10336 31.9019 37.6301
Pd 9.04973 33.8619 16.671
Pd 7.17865 33.8439 18.5679
Pd 7.17921 35.761 20.4865
Pd 9.06133 33.8572 20.4776
Co 9.09862 35.7223 18.6122
Pd 7.1847 33.8351 22.3858
Pd 7.19881 35.745 24.2963
Pd 9.08647 33.8432 24.2944
Co 9.06156 35.7674 22.3683
Pd 7.2207 33.8256 26.22
Pd 7.19706 35.7412 28.1472
Pd 9.08481 33.8393 28.1474
Co 9.09059 35.7427 26.2227
Pd 7.18109 33.8276 30.0538
Pd 7.17404 35.7498 31.9565
Pd 9.05633 33.8457 31.9633
Co 9.05826 35.7597 30.0768
Pd 7.17145 33.8291 33.8707
Pd 9.04124 33.8432 35.7686
Co 9.0921 35.7073 33.832
Pd 9.05074 37.6601 20.4731
Pd 7.19603 37.6445 22.3676
Pd 7.21154 39.5522 24.3001
Pd 9.07077 37.6535 24.2954
Co 9.11229 39.5158 22.4214
Pd 7.21761 37.6207 26.2236
Pd 7.20984 39.5485 28.1509
Pd 9.06912 37.6497 28.1536
Co 9.07654 39.5485 26.2264
Pd 7.19255 37.637 30.0795
Pd 9.04588 37.6487 31.9754
Co 9.10909 39.5084 30.0312
Pd 9.0725 41.4316 24.3047
Pd 7.26731 41.3636 26.2273
Pd 9.07087 41.4278 28.1517
Co 9.21035 43.1966 26.23
Co 13.0285 5.473 26.195
Pd 11.012 9.08623 24.2743
Pd 12.8906 7.22558 24.271
Co 12.9304 9.12673 22.3925
Pd 11.0764 7.28146 26.1967
Pd 11.0079 9.08526 28.1215
Pd 12.8886 7.22326 28.1221
Co 12.8922 9.08949 26.1985
Co 12.9275 9.11988 30.0036
Pd 10.9832 12.8513 20.448
Pd 12.8674 10.9703 20.4472
Co 12.9129 12.902 18.5801
Pd 10.9962 10.9783 22.3421
Pd 10.9916 12.8632 24.2702
Pd 12.8813 10.9763 24.2697
Co 12.8666 12.853 22.3411
Pd 11.0204 11.0026 26.1999
Pd 10.9925 12.8601 28.1302
Pd 12.8807 10.9724 28.1301
Co 12.8924 12.8765 26.2013
Pd 10.993 10.9712 30.0548
Pd 10.9792 12.8398 31.9529
Pd 12.8633 10.9595 31.952
Co 12.8641 12.8459 30.0621
Co 12.9075 12.8878 33.8233
Pd 10.9726 16.6532 16.6477
Pd 12.8554 14.7645 16.6412
Co 12.9072 16.705 14.7799
Pd 10.9777 14.7673 18.5299
Pd 10.9771 16.6561 20.4498
Pd 12.8643 14.7594 20.4447
Co 12.8559 16.6478 18.5317
Pd 10.9845 14.7643 22.3467
Pd 10.988 16.6666 24.278
Pd 12.8798 14.7644 24.2761
Co 12.8805 16.667 22.3679
Pd 10.9876 14.7616 26.2017
Pd 10.9854 16.6623 28.1317
Pd 12.8786 14.7615 28.1307
Co 12.8805 16.6651 26.206
Pd 10.9812 14.7564 30.0576
Pd 10.9692 16.6426 31.9594
Pd 12.8597 14.7486 31.9624
Co 12.8772 16.6591 30.044
Pd 10.9707 14.7512 33.8749
Pd 10.9678 16.6344 35.7636
Pd 12.849 14.7464 35.7658
Co 12.8496 16.6325 33.8789
Co 12.9008 16.684 37.6327
Pd 10.9835 20.4652 12.8512
Pd 12.8591 18.5741 12.8448
Co 12.9209 20.5223 10.9896
Pd 10.9752 18.5737 14.7322
Pd 10.9768 20.4597 16.6538
Pd 12.8594 18.5608 16.6453
Co 12.8579 20.4553 14.7379
Pd 10.9735 18.5654 18.5441
Pd 10.982 20.4746 20.4672
Pd 12.8753 18.5656 20.4587
Co 12.8775 20.474 18.5632
Pd 10.9858 18.5687 22.3693
Pd 10.996 20.4833 24.295
Pd 12.8842 18.573 24.2916
Co 12.8851 20.4781 22.3815
Pd 10.9914 18.5734 26.2085
Pd 10.993 20.4778 28.1253
Pd 12.8828 18.5687 28.1256
Co 12.8903 20.479 26.2109
Pd 10.9811 18.5587 30.0453
Pd 10.9777 20.4631 31.9502
Pd 12.8705 18.5531 31.9565
Co 12.8821 20.4698 30.0388
Pd 10.9685 18.5504 33.8694
Pd 10.9704 20.4411 35.7633
Pd 12.8535 18.5426 35.7695
Co 12.8726 20.4592 33.8555
Pd 10.9689 18.5515 37.6819
Pd 10.9752 20.4387 39.5655
Pd 12.8523 18.5498 39.5724
Co 12.851 20.433 37.6803
Co 12.9133 20.494 41.4315
Pd 11.0237 24.3071 9.08056
Pd 12.8855 22.4017 9.06397
Co 12.9713 24.3623 7.23522
Pd 10.9976 22.3981 10.9436
Pd 10.9984 24.2882 12.8709
Pd 12.8701 22.3774 12.8582
Co 12.8823 24.2832 10.963
Pd 10.9819 22.3754 14.7499
Pd 10.9844 24.294 16.6664
Pd 12.8744 22.3792 16.6614
Co 12.882 24.3003 14.7713
Pd 10.9832 22.379 18.5686
Pd 10.996 24.2987 20.4865
Pd 12.8849 22.3872 20.4797
Co 12.8814 24.2997 18.5755
Pd 10.9941 22.3904 22.3902
Pd 11.0018 24.3038 24.3059
Pd 12.8944 22.391 24.2997
Co 12.8937 24.302 22.3942
Pd 11.0031 22.3918 26.2121
Pd 11 24.2999 28.1208
Pd 12.8928 22.3866 28.1253
Co 12.8987 24.3007 26.2143
Pd 10.9909 22.3825 30.0321
Pd 10.9917 24.2873 31.9388
Pd 12.8813 22.376 31.9439
Co 12.8913 24.2943 30.0337
Pd 10.9776 22.3639 33.8524
Pd 10.9774 24.2751 35.7578
Pd 12.8684 22.3607 35.7608
Co 12.8767 24.2847 33.8513
Pd 10.974 22.3524 37.6701
Pd 10.9878 24.2608 39.5512
Pd 12.8619 22.3507 39.5626
Co 12.8745 24.2777 37.654
Pd 10.9877 22.3654 41.4746
Pd 11.0051 24.2714 43.3325
Pd 12.8768 22.3712 43.359
Co 12.8709 24.2521 41.4583
Co 12.9556 24.3323 45.1704
Pd 13.002 26.235 5.36958
Pd 11.1242 26.2306 7.22239
Pd 11.0197 28.1497 9.08475
Pd 12.9122 26.2304 9.1139
Co 12.9674 28.1029 7.23926
Pd 11.031 26.2262 10.9835
Pd 10.9945 28.1601 12.8749
Pd 12.8876 26.2261 12.877
Co 12.8783 28.1733 10.9672
Pd 10.9921 26.2221 14.7749
Pd 10.9805 28.1462 16.6705
Pd 12.8794 26.2221 16.6786
Co 12.8779 28.1479 14.7755
Pd 10.9918 26.2181 18.582
Pd 10.9921 28.1336 20.4905
Pd 12.8874 26.2181 20.4882
Co 12.8774 28.1406 18.5796
Pd 11.0021 26.214 22.4027
Pd 10.9983 28.1204 24.3093
Pd 12.8983 26.214 24.3086
Co 12.8898 28.1304 22.3979
Pd 10.9983 26.2101 26.2151
Pd 10.9969 28.1165 28.124
Pd 12.8971 26.2101 28.1232
Co 12.8951 28.1237 26.2176
Pd 10.9993 26.2064 30.0269
Pd 10.9879 28.122 31.9421
Pd 12.884 26.2066 31.9429
Co 12.8875 28.1225 30.0371
Pd 10.9862 26.2028 33.8465
Pd 10.9729 28.1271 35.7607
Pd 12.8734 26.2032 35.7515
Co 12.8725 28.1251 33.8545
Pd 10.9829 26.1992 37.6518
Pd 10.982 28.1345 39.5529
Pd 12.8775 26.1999 39.5499
Co 12.8697 28.1252 37.6567
Pd 11.0152 26.196 41.4375
Pd 10.9985 28.1183 43.3339
Pd 12.8946 26.1976 43.3047
Co 12.8641 28.1448 41.459
Pd 11.1021 26.1942 45.1944
Pd 22.4403 22.3913 49.0426
Co 12.9482 28.063 45.1712
Pd 12.8776 30.059 9.07214
Pd 10.9898 30.0544 10.9518
Pd 10.9716 31.9833 12.8634
Pd 12.8621 30.075 12.8665
Co 12.9091 31.9342 11.0018
Pd 10.9741 30.0689 14.758
Pd 10.9649 31.981 16.6659
Pd 12.8663 30.0652 16.6697
Co 12.8458 31.9932 14.7503
Pd 10.9753 30.0575 18.5767
Pd 10.97 31.9586 20.4792
Pd 12.8769 30.0496 20.4876
Co 12.8653 31.9669 18.5755
Pd 10.9864 30.0384 22.3978
Pd 10.9841 31.9425 24.3057
Pd 12.8867 30.038 24.3067
Co 12.8731 31.9553 22.393
Pd 10.9961 30.0286 26.2184
Pd 10.9826 31.9385 28.1345
Pd 12.8855 30.034 28.1319
Co 12.8787 31.9465 26.2211
Pd 10.9835 30.0305 30.0387
Pd 10.9655 31.9468 31.9601
Pd 12.8733 30.0376 31.9505
Co 12.8706 31.9472 30.0487
Pd 10.9693 30.042 33.8586
Pd 10.9569 31.9619 35.7717
Pd 12.8596 30.0458 35.7668
Co 12.86 31.951 33.8651
Pd 10.9639 30.0466 37.6749
Pd 10.9597 31.9581 39.572
Pd 12.851 30.0491 39.5664
Co 12.8366 31.9705 37.6878
Pd 10.9751 30.0276 41.4775
Pd 12.8621 30.0248 43.3591
Co 12.8958 31.9045 41.4355
Pd 12.8432 33.8785 12.8611
Pd 10.9595 33.8712 14.7483
Pd 10.9528 35.7881 16.6678
Pd 12.8433 33.8841 16.6617
Co 12.8873 35.744 14.8001
Pd 10.9574 33.8719 18.5602
Pd 10.9564 35.7778 20.4701
Pd 12.8591 33.8721 20.4748
Co 12.8357 35.7937 18.552
Pd 10.9694 33.8616 22.3852
Pd 10.967 35.7604 24.2981
Pd 12.8683 33.8573 24.3064
Co 12.8602 35.7671 22.3877
Pd 10.9758 33.8495 26.2219
Pd 10.9655 35.7565 28.1491
Pd 12.867 33.8532 28.1392
Co 12.8608 35.7617 26.2246
Pd 10.9664 33.8537 30.0582
Pd 10.9519 35.7661 31.9763
Pd 12.8551 33.86 31.9699
Co 12.8575 35.7591 30.061
Pd 10.9512 33.8565 33.8818
Pd 10.945 35.7691 35.7774
Pd 12.836 33.8645 35.7812
Co 12.8299 35.7779 33.8954
Pd 10.9497 33.849 37.6921
Pd 12.832 33.8519 39.5804
Co 12.8783 35.7209 37.6459
Pd 12.8315 37.6808 16.6655
Pd 10.9535 37.6702 18.5541
Pd 10.9549 39.5822 20.476
Pd 12.8401 37.6782 20.4687
Co 12.8852 39.5394 18.608
Pd 10.9594 37.6655 22.3709
Pd 10.9632 39.5627 24.2972
Pd 12.8556 37.6659 24.2995
Co 12.8388 39.5806 22.3685
Pd 10.9624 37.6614 26.2254
Pd 10.9617 39.5589 28.1572
Pd 12.8542 37.6619 28.153
Co 12.8642 39.55 26.2281
Pd 10.9563 37.6578 30.0796
Pd 10.9504 39.5707 31.9779
Pd 12.8358 37.6664 31.9829
Co 12.8359 39.5729 30.0873
Pd 10.9473 37.655 33.8955
Pd 12.8241 37.6612 35.785
Co 12.8794 39.524 33.8469
Pd 12.836 41.4671 20.4786
Pd 10.9643 41.4514 22.3731
Pd 10.9777 43.3407 24.3074
Pd 12.8503 41.4537 24.2998
Co 12.8961 43.3073 22.4266
Pd 10.9898 41.4208 26.2291
Pd 10.9762 43.337 28.1544
Pd 12.8488 41.4499 28.1599
Co 12.8582 43.3378 26.2317
Pd 10.9612 41.4439 30.0848
Pd 12.8316 41.4557 31.9805
Co 12.8931 43.3 30.0365
Pd 12.8534 45.2055 24.308
Pd 11.0395 45.1434 26.2327
Pd 12.8519 45.2018 28.1589
Co 12.9884 46.9554 26.2352
Pd 14.8128 5.33964 24.2524
Pd 16.7444 3.54979 24.32
Co 16.7591 5.36665 22.4149
Pd 14.8734 3.62152 26.193
Pd 14.8111 5.33601 28.1374
Pd 16.7428 3.54603 28.0666
Co 16.7227 5.37491 26.1953
Co 16.7562 5.35899 29.9755
Pd 14.7886 9.0664 20.4462
Pd 16.6871 7.19492 20.4612
Co 16.7288 9.11553 18.5877
Pd 14.8011 7.21083 22.3401
Pd 14.7899 9.08427 24.2693
Pd 16.6978 7.21238 24.2716
Co 16.6784 9.0761 22.3443
Pd 14.8196 7.23059 26.197
Pd 14.7891 9.08067 28.1282
Pd 16.6965 7.20855 28.123
Co 16.698 9.10306 26.1993
Pd 14.7982 7.20352 30.0533
Pd 14.7846 9.05563 31.951
Pd 16.6828 7.18366 31.9329
Co 16.6757 9.06887 30.0543
Co 16.7232 9.10098 33.8105
Pd 14.7738 12.8498 16.64
Pd 16.666 10.971 16.6438
Co 16.7129 12.907 14.7771
Pd 14.7816 10.9704 18.5278
Pd 14.7711 12.8558 20.4439
Pd 16.6709 10.9721 20.4468
Co 16.6579 12.8527 18.5295
Pd 14.7808 10.9738 22.3454
Pd 14.7781 12.8691 24.2753
Pd 16.683 10.9804 24.2754
Co 16.679 12.8748 22.3658
Pd 14.78 10.9748 26.2005
Pd 14.7767 12.8657 28.1297
Pd 16.6817 10.9771 28.1272
Co 16.6792 12.8733 26.2033
Pd 14.7784 10.9668 30.0558
Pd 14.767 12.8453 31.9611
Pd 16.6669 10.9616 31.9557
Co 16.6765 12.8679 30.0409
Pd 14.7761 10.9564 33.8732
Pd 14.7675 12.8325 35.7651
Pd 16.6592 10.9532 35.758
Co 16.6527 12.8388 33.8769
Co 16.7049 12.8864 37.629
Pd 14.773 16.6564 12.8418
Pd 16.6597 14.7739 12.8402
Co 16.7178 16.7197 10.981
Pd 14.7717 14.7673 14.7237
Pd 14.7633 16.652 16.6413
Pd 16.6574 14.7616 16.6401
Co 16.6516 16.6511 14.7312
Pd 14.7664 14.7596 18.5334
Pd 14.7691 16.6631 20.4557
Pd 16.6706 14.765 20.4545
Co 16.6707 16.668 18.5565
Pd 14.7714 14.7624 22.3631
Pd 14.7793 16.6689 24.2887
Pd 16.6784 14.7732 24.2874
Co 16.676 16.6712 22.3763
Pd 14.779 14.7681 26.2045
Pd 14.7783 16.6653 28.1249
Pd 16.6773 14.7697 28.1234
Co 16.6804 16.6732 26.2076
Pd 14.7688 14.7553 30.046
Pd 14.7655 16.6521 31.9575
Pd 16.6671 14.7545 31.9561
Co 16.6739 16.6641 30.0388
Pd 14.7612 14.7453 33.8753
Pd 14.757 16.6343 35.7711
Pd 16.6512 14.7446 35.7703
Co 16.6663 16.654 33.8581
Pd 14.7641 14.7475 37.6857
Pd 14.7652 16.6339 39.5734
Pd 16.6504 14.7505 39.5702
Co 16.6444 16.6309 37.6834
Co 16.7066 16.6948 41.4352
Pd 14.7932 20.4775 9.05975
Pd 16.6786 18.5966 9.05109
Co 16.7511 20.5497 7.20719
Pd 14.7813 18.5812 10.9311
Pd 14.7695 20.4632 12.8538
Pd 16.6592 18.5683 12.8506
Co 16.6634 20.4658 10.9515
Pd 14.7638 18.563 14.7382
Pd 14.7665 20.4715 16.6565
Pd 16.6659 18.5664 16.6546
Co 16.6698 20.4777 14.7658
Pd 14.7673 18.5641 18.5552
Pd 14.7792 20.4784 20.4743
Pd 16.6756 18.5749 20.4725
Co 16.6734 20.4798 18.5708
Pd 14.7788 18.5724 22.3787
Pd 14.7858 20.4808 24.2976
Pd 16.6818 18.5777 24.2959
Co 16.6827 20.4841 22.3887
Pd 14.7816 18.5717 26.2091
Pd 14.7847 20.4769 28.1247
Pd 16.6809 18.5741 28.1236
Co 16.6852 20.4827 26.2118
Pd 14.7766 18.5648 30.0392
Pd 14.7756 20.4671 31.9471
Pd 16.6727 18.5643 31.9467
Co 16.681 20.477 30.0348
Pd 14.7625 18.5495 33.8614
Pd 14.7612 20.4533 35.7637
Pd 16.6608 18.5488 35.7638
Co 16.6698 20.4655 33.8521
Pd 14.7569 18.5415 37.6782
Pd 14.762 20.4377 39.5657
Pd 16.6509 18.5452 39.568
Co 16.6642 20.4563 37.6559
Pd 14.7749 18.5582 41.4913
Pd 14.7849 20.4537 43.3706
Pd 16.6705 18.5701 43.3769
Co 16.6542 20.4392 41.4738
Co 16.7388 20.5239 45.2203
Pd 14.8476 24.3164 5.32679
Pd 16.7408 22.4332 5.29647
Co 16.8355 28.0853 3.59646
Pd 14.8177 22.406 7.16324
Pd 14.7999 24.2956 9.09081
Pd 16.6828 22.3903 9.08504
Co 16.7043 24.2922 7.207
Pd 14.7786 22.382 10.9597
Pd 14.7732 24.3005 12.8716
Pd 16.6707 22.3859 12.8722
Co 16.6831 24.3088 10.9929
Pd 14.7686 22.3815 14.7639
Pd 14.7749 24.3035 16.6751
Pd 16.6723 22.3914 16.6759
Co 16.6715 24.306 14.781
Pd 14.7767 22.3887 18.5732
Pd 14.7829 24.3044 20.4849
Pd 16.681 22.3941 20.4847
Co 16.6775 24.3079 18.5843
Pd 14.7867 22.3907 22.3901
Pd 14.7928 24.3028 24.3039
Pd 16.6876 22.3936 24.303
Co 16.6859 24.3065 22.396
Pd 14.7901 22.3891 26.2132
Pd 14.7917 24.2989 28.1259
Pd 16.6869 22.3899 28.1245
Co 16.6899 24.3033 26.2156
Pd 14.7848 22.3831 30.0358
Pd 14.7801 24.2932 31.9443
Pd 16.6786 22.3832 31.9426
Co 16.6844 24.299 30.0352
Pd 14.7728 22.3741 33.8518
Pd 14.77 24.2851 35.7533
Pd 16.6684 22.3736 35.7509
Co 16.6746 24.2933 33.8468
Pd 14.7623 22.3593 37.6595
Pd 14.7657 24.2741 39.5546
Pd 16.6645 22.3601 39.552
Co 16.6669 24.2841 37.6492
Pd 14.7708 22.3499 41.4617
Pd 14.7926 24.2598 43.3232
Pd 16.6723 22.362 43.3454
Co 16.6781 24.2784 41.4312
Pd 14.8103 22.3941 45.277
Pd 14.8078 24.3542 47.0761
Pd 16.7311 22.4231 47.1097
Co 16.6932 24.2669 45.2232
Co 13.0138 26.1987 46.8388
Pd 18.662 26.2426 3.41106
Pd 14.8439 28.1575 5.33077
Pd 16.7644 26.239 5.4129
Co 16.8382 24.3968 3.59286
Pd 14.8347 26.2347 7.21749
Pd 14.7959 28.1692 9.09494
Pd 16.6966 26.2344 9.10647
Co 16.7006 28.1812 7.21096
Pd 14.7871 26.2303 10.9882
Pd 14.7691 28.1557 12.8759
Pd 16.6744 26.2301 12.8926
Co 16.679 28.1555 10.9972
Pd 14.776 26.2261 14.7792
Pd 14.7708 28.1448 16.6793
Pd 16.6733 26.2261 16.6862
Co 16.6673 28.1502 14.7853
Pd 14.7779 26.2221 18.5829
Pd 14.7789 28.1361 20.4889
Pd 16.6807 26.2222 20.4922
Co 16.6734 28.1404 18.5884
Pd 14.7876 26.2182 22.3966
Pd 14.7888 28.1297 24.3075
Pd 16.6884 26.2183 24.307
Co 16.6819 28.134 22.3997
Pd 14.7946 26.2142 26.2167
Pd 14.7878 28.1258 28.1292
Pd 16.6877 26.2144 28.1278
Co 16.686 28.1293 26.2191
Pd 14.7859 26.2105 30.0366
Pd 14.776 28.1243 31.9476
Pd 16.6786 26.2108 31.9428
Co 16.6805 28.1261 30.0386
Pd 14.7742 26.2069 33.8497
Pd 14.7657 28.1254 35.7563
Pd 16.6697 26.2075 35.7485
Co 16.6706 28.1249 33.8501
Pd 14.7701 26.2037 37.6524
Pd 14.7609 28.1301 39.5573
Pd 16.6696 26.2046 39.5404
Co 16.6627 28.1276 37.6522
Pd 14.7772 26.2005 41.4377
Pd 14.7851 28.1412 43.3212
Pd 16.698 26.2031 43.3082
Co 16.6741 28.1283 41.4342
Pd 14.8433 26.203 45.1612
Pd 14.7991 28.0526 47.0844
Pd 16.7099 26.2177 47.039
Co 16.6849 28.1445 45.2213
Pd 16.8024 24.4457 48.9018
Co 20.6084 20.4933 48.78
Pd 16.7338 30.0444 5.30401
Pd 14.8101 30.0632 7.17128
Pd 14.7812 31.987 9.07212
Pd 16.6748 30.0782 9.09335
Co 16.7398 31.9229 7.21904
Pd 14.7705 30.0785 10.9681
Pd 14.7572 31.9932 12.8665
Pd 16.6624 30.0743 12.8809
Co 16.6509 31.9984 10.9645
Pd 14.7604 30.0708 14.7724
Pd 14.7543 31.9772 16.6689
Pd 16.6642 30.061 16.6842
Co 16.6575 31.9787 14.7785
Pd 14.7686 30.0559 18.5813
Pd 14.7672 31.9627 20.4862
Pd 16.673 30.0506 20.4925
Co 16.6614 31.969 18.5829
Pd 14.7789 30.0461 22.3976
Pd 14.7739 31.9525 24.3086
Pd 16.6797 30.0433 24.3104
Co 16.6709 31.9569 22.4001
Pd 14.7823 30.0398 26.2201
Pd 14.7729 31.9484 28.1351
Pd 16.6789 30.0392 28.1314
Co 16.6734 31.9505 26.2226
Pd 14.777 30.0379 30.0425
Pd 14.7639 31.9504 31.957
Pd 16.6707 30.0383 31.9494
Co 16.6691 31.9485 30.0451
Pd 14.7646 30.0399 33.8583
Pd 14.7484 31.9572 35.773
Pd 16.6601 30.0411 35.7572
Co 16.6577 31.9524 33.8619
Pd 14.7534 30.0476 37.6652
Pd 14.7469 31.9668 39.5718
Pd 16.6559 30.0483 39.5579
Co 16.6514 31.955 37.665
Pd 14.7592 30.0525 41.4642
Pd 14.7652 31.9476 43.3722
Pd 16.6611 30.044 43.3466
Co 16.6388 31.9669 41.4783
Pd 14.7898 30.0056 45.2725
Pd 16.696 29.9946 47.1273
Co 16.7156 31.883 45.2226
Pd 16.6625 33.8717 9.06763
Pd 14.7653 33.8793 10.9476
Pd 14.7528 35.8003 12.8625
Pd 16.6428 33.8921 12.8677
Co 16.6974 35.7448 11.0018
Pd 14.7475 33.8897 14.7548
Pd 14.7433 35.797 16.6617
Pd 16.6499 33.8863 16.671
Co 16.6315 35.8056 14.7519
Pd 14.7512 33.8809 18.5715
Pd 14.7492 35.7784 20.4755
Pd 16.6598 33.8702 20.4882
Co 16.6509 35.781 18.5765
Pd 14.763 33.8652 22.3942
Pd 14.7597 35.7651 24.3078
Pd 16.6662 33.8598 24.3109
Co 16.6565 35.7703 22.3956
Pd 14.7659 33.8581 26.2236
Pd 14.7585 35.761 28.1429
Pd 16.6652 33.8556 28.1379
Co 16.6609 35.7607 26.2262
Pd 14.7607 33.8569 30.0528
Pd 14.7454 35.7662 31.9744
Pd 16.6567 33.8576 31.9601
Co 16.6543 35.7619 30.0565
Pd 14.7464 33.8646 33.8744
Pd 14.7365 35.777 35.7865
Pd 16.6444 33.8657 35.7763
Co 16.6462 35.7644 33.8745
Pd 14.7391 33.8665 37.6891
Pd 14.7419 35.7723 39.5852
Pd 16.6327 33.8635 39.5785
Co 16.6231 35.7809 37.6977
Pd 14.7509 33.8455 41.4962
Pd 16.643 33.8367 43.3756
Co 16.6826 35.7137 41.4454
Pd 16.6355 37.6868 12.8649
Pd 14.7477 37.6857 14.7482
Pd 14.7462 39.5994 16.6681
Pd 16.6337 37.6913 16.6642
Co 16.6855 39.5499 14.8052
Pd 14.7425 37.6858 18.5575
Pd 14.7437 39.5857 20.4713
Pd 16.6472 37.6803 20.4781
Co 16.6307 39.5965 18.5571
Pd 14.7478 37.6753 22.3866
Pd 14.7508 39.565 24.3022
Pd 16.6553 37.6646 24.3104
Co 16.6521 39.5668 22.3929
Pd 14.7555 37.6624 26.2272
Pd 14.7495 39.5611 28.1557
Pd 16.6541 37.6606 28.1455
Co 16.6523 39.561 26.2298
Pd 14.7452 37.6673 30.0673
Pd 14.7395 39.574 31.9856
Pd 16.6434 37.668 31.9769
Co 16.6496 39.5589 30.0663
Pd 14.7369 37.6699 33.8951
Pd 14.739 39.5799 35.7877
Pd 16.6268 37.6709 35.7892
Co 16.6251 39.5807 33.9007
Pd 14.7385 37.6618 37.703
Pd 16.6242 37.6593 39.5863
Co 16.6762 39.5267 37.6504
Pd 16.635 41.4819 16.6754
Pd 14.7504 41.475 18.5593
Pd 14.7542 43.3752 20.481
Pd 16.6402 41.4732 20.4778
Co 16.6945 43.3337 18.6225
Pd 14.7501 41.4639 22.3762
Pd 14.7557 43.35 24.3034
Pd 16.6525 41.4575 24.306
Co 16.6443 43.3656 22.3787
Pd 14.7489 41.4557 26.2307
Pd 14.7543 43.3463 28.1616
Pd 16.6511 41.4537 28.157
Co 16.6639 43.3313 26.2333
Pd 14.7472 41.4563 30.0849
Pd 14.7499 43.3641 31.9834
Pd 16.6361 41.4618 31.9843
Co 16.6415 43.3582 30.0875
Pd 14.7444 41.4598 33.9008
Pd 16.6275 41.4632 35.785
Co 16.6887 43.3192 33.8425
Pd 16.6495 45.2506 20.4995
Pd 14.7636 45.2274 22.3781
Pd 14.7722 47.0954 24.2936
Pd 16.6605 45.2258 24.3094
Co 16.7184 47.0754 22.4565
Pd 14.7823 45.2006 26.2343
Pd 14.7708 47.0918 28.1783
Pd 16.6591 45.2222 28.1605
Co 16.6822 47.0599 26.2367
Pd 14.7607 45.2202 30.0902
Pd 16.6453 45.2398 31.9699
Co 16.7157 47.0685 30.0167
Pd 16.7007 48.8888 24.365
Pd 14.83 48.8102 26.2376
Pd 16.6993 48.8853 28.1117
Pd 18.6125 5.30054 20.4691
Pd 20.5533 3.53077 20.5102
Co 20.5621 5.36419 18.6149
Pd 18.6506 3.53328 22.4135
Pd 18.6489 5.34547 24.3166
Pd 20.5235 3.44129 24.289
Co 20.5296 5.32886 22.392
Pd 18.619 3.45596 26.1938
Pd 18.6474 5.34165 28.0749
Pd 20.5219 3.43716 28.0993
Co 20.5391 5.29893 26.1963
Pd 18.6473 3.52508 29.9737
Pd 18.6079 5.28855 31.9217
Pd 20.5483 3.51811 31.8773
Co 20.5264 5.3209 30.0002
Co 20.556 5.34764 33.7763
Pd 18.5916 9.06795 16.6488
Pd 20.4903 7.20497 16.6601
Co 20.5321 9.13339 14.7852
Pd 18.6066 7.19558 18.545
Pd 18.591 9.07699 20.4559
Pd 20.5013 7.19856 20.4731
Co 20.4795 9.07766 18.5453
Pd 18.6101 7.19924 22.3633
Pd 18.5998 9.0999 24.2732
Pd 20.5285 7.21473 24.2932
Co 20.5072 9.10119 22.3776
Pd 18.6145 7.23316 26.1979
Pd 18.5983 9.09627 28.1267
Pd 20.527 7.21096 28.1036
Co 20.5141 9.10971 26.2006
Pd 18.6072 7.19169 30.0322
Pd 18.5867 9.06597 31.9436
Pd 20.4968 7.18691 31.9231
Co 20.5044 9.09378 30.0234
Pd 18.6006 7.17993 33.8497
Pd 18.5844 9.04886 35.7496
Pd 20.4827 7.18455 35.7346
Co 20.4737 9.06238 33.8548
Co 20.5229 9.10939 37.6131
Pd 18.581 12.8643 12.8403
Pd 20.4755 10.9926 12.8445
Co 20.5279 12.9316 10.9835
Pd 18.5853 10.9793 14.7268
Pd 18.5698 12.8616 16.6417
Pd 20.4724 10.9832 16.6475
Co 20.4631 12.8655 14.7327
Pd 18.5791 10.9744 18.5394
Pd 18.5764 12.8749 20.4553
Pd 20.4895 10.9857 20.4612
Co 20.484 12.8823 18.5585
Pd 18.5841 10.9839 22.3648
Pd 18.5859 12.8818 24.2874
Pd 20.5003 10.9975 24.288
Co 20.4902 12.8877 22.3764
Pd 18.5909 10.9882 26.202
Pd 18.5848 12.8783 28.1208
Pd 20.499 10.9939 28.1173
Co 20.4938 12.891 26.2048
Pd 18.5814 10.9768 30.0392
Pd 18.5728 12.8644 31.9527
Pd 20.4854 10.9748 31.9438
Co 20.4878 12.8806 30.0331
Pd 18.5736 10.9601 33.8641
Pd 18.5632 12.8442 35.7659
Pd 20.4653 10.9646 35.7567
Co 20.4788 12.8682 33.8508
Pd 18.5763 10.957 37.6753
Pd 18.5709 12.839 39.5658
Pd 20.4645 10.9651 39.5572
Co 20.4547 12.8438 37.6755
Co 20.5147 12.9012 41.4224
Pd 18.594 16.6861 9.04898
Pd 20.4793 14.805 9.05322
Co 20.5452 16.7649 7.20284
Pd 18.584 14.7877 10.9274
Pd 18.5678 16.6637 12.8492
Pd 20.4663 14.7782 12.8497
Co 20.4644 16.6732 10.9479
Pd 18.5672 14.7672 14.7356
Pd 18.5678 16.6682 16.6534
Pd 20.4766 14.7726 16.6529
Co 20.4779 16.677 14.7634
Pd 18.5704 14.7682 18.5529
Pd 18.5785 16.6756 20.4712
Pd 20.4856 14.7829 20.4706
Co 20.4822 16.6784 18.5683
Pd 18.5808 14.7776 22.3762
Pd 18.5836 16.6795 24.2945
Pd 20.4905 14.7873 24.2934
Co 20.4889 16.6854 22.386
Pd 18.5825 14.7782 26.2062
Pd 18.5826 16.6761 28.1221
Pd 20.4894 14.7839 28.1203
Co 20.4901 16.6854 26.209
Pd 18.5786 14.7706 30.0362
Pd 18.5755 16.6653 31.9453
Pd 20.4823 14.7726 31.9431
Co 20.487 16.6786 30.032
Pd 18.5657 14.7545 33.8592
Pd 18.5625 16.6511 35.763
Pd 20.4706 14.7553 35.7608
Co 20.4782 16.6648 33.8498
Pd 18.5594 14.7469 37.6764
Pd 18.5589 16.6404 39.5677
Pd 20.4567 14.7536 39.5632
Co 20.4713 16.6567 37.6553
Pd 18.5713 14.7595 41.4829
Pd 18.578 16.6568 43.3639
Pd 20.4622 14.7732 43.3572
Co 20.4534 16.6455 41.4696
Co 20.5167 16.7421 45.2133
Pd 18.6417 20.5443 5.28274
Pd 20.5329 18.6579 5.27904
Co 20.6063 20.6383 3.56192
Pd 18.6156 18.6245 7.14199
Pd 18.5902 20.4865 9.07964
Pd 20.4809 18.6011 9.07626
Co 20.4987 20.5105 7.18537
Pd 18.5744 18.5794 10.9537
Pd 18.5701 20.4803 12.8726
Pd 20.4757 18.5785 12.8714
Co 20.4865 20.4959 10.9933
Pd 18.567 18.5704 14.7616
Pd 18.5749 20.4834 16.6754
Pd 20.4809 18.5811 16.6742
Co 20.4793 20.4868 14.7841
Pd 18.5763 18.5776 18.5703
Pd 18.582 20.4876 20.4839
Pd 20.4874 18.5859 20.4826
Co 20.4857 20.4908 18.585
Pd 18.5828 18.5818 22.3872
Pd 18.5873 20.4887 24.3017
Pd 20.491 18.5887 24.3003
Co 20.4907 20.4933 22.395
Pd 18.5852 18.5816 26.2104
Pd 18.5865 20.4852 28.1231
Pd 20.4902 18.5853 28.1217
Co 20.4924 20.4924 26.213
Pd 18.5812 18.5749 30.0336
Pd 18.5798 20.4772 31.941
Pd 20.485 18.5757 31.9397
Co 20.4893 20.4865 30.0312
Pd 18.5729 18.5638 33.8503
Pd 18.5711 20.4659 35.7494
Pd 20.4766 18.5641 35.7486
Co 20.483 20.4772 33.8418
Pd 18.5613 18.5498 37.6593
Pd 18.5636 20.4561 39.5519
Pd 20.4689 18.5544 39.5531
Co 20.4752 20.4659 37.644
Pd 18.5623 18.5543 41.4671
Pd 18.5774 20.4566 43.3498
Pd 20.4676 18.5721 43.3419
Co 20.4785 20.4679 41.4344
Pd 18.616 18.5911 45.2919
Pd 18.6411 20.5022 47.1154
Pd 22.3523 16.7075 47.0902
Co 20.485 20.4777 45.2437
Co 20.5461 18.6675 47.029
Pd 18.7455 22.5484 3.43678
Pd 18.6615 24.3497 5.37508
Pd 20.5533 22.463 5.35926
Co 20.5681 24.3728 3.51172
Pd 18.6134 22.4115 7.20096
Pd 18.5942 24.3117 9.11594
Pd 20.5004 22.4105 9.11038
Co 20.5367 24.3421 7.24702
Pd 18.5801 22.392 10.9913
Pd 18.5767 24.3114 12.8965
Pd 20.4825 22.4007 12.9016
Co 20.4904 24.3165 11.0208
Pd 18.5742 22.395 14.7841
Pd 18.5761 24.3111 16.6892
Pd 20.483 22.4002 16.6919
Co 20.4814 24.3152 14.8028
Pd 18.5794 22.397 18.5851
Pd 18.5836 24.3104 20.4933
Pd 20.4889 22.4018 20.4939
Co 20.4853 24.3138 18.5961
Pd 18.5865 22.398 22.396
Pd 18.5891 24.3082 24.307
Pd 20.4928 22.4014 24.3063
Co 20.4911 24.3125 22.4022
Pd 18.5891 22.3959 26.2143
Pd 18.5885 24.3045 28.1254
Pd 20.4922 22.3979 28.1235
Co 20.4928 24.3096 26.2167
Pd 18.5852 22.3909 30.0329
Pd 18.5818 24.2995 31.9396
Pd 20.4872 22.3915 31.9367
Co 20.4899 24.3052 30.0318
Pd 18.577 22.3829 33.844
Pd 18.5735 24.2931 35.7441
Pd 20.4804 22.3827 35.7396
Co 20.4836 24.2996 33.8391
Pd 18.5709 22.3735 37.6446
Pd 18.5733 24.2857 39.5351
Pd 20.478 22.3759 39.5319
Co 20.4794 24.2936 37.6333
Pd 18.5708 22.3631 41.438
Pd 18.585 24.282 43.3156
Pd 20.4892 22.3764 43.3189