4033
Atoms. Timestep: 20362
Co 7.44782 11.0896 26.2109
Pd 3.55697 16.6716 24.3479
Pd 5.35047 14.748 24.2795
Co 5.37945 16.6918 22.4491
Pd 3.55095 16.6685 28.108
Pd 3.5247 18.57 30.0132
Pd 5.34277 14.7433 28.1748
Co 5.38076 16.6516 26.2311
Co 5.36597 16.6839 30.0128
Pd 5.34953 24.2814 18.6335
Pd 5.307 18.5459 20.5078
Co 5.36255 20.4957 18.655
Pd 3.52175 20.4748 20.5465
Pd 3.43809 20.4485 24.3279
Pd 5.34816 18.579 24.3551
Co 5.32533 20.4567 22.4345
Pd 3.4574 18.5399 26.2298
Pd 3.53563 18.5765 22.4494
Pd 5.34248 18.576 28.1128
Co 5.29449 20.469 26.235
Pd 3.43147 20.4416 28.1367
Pd 3.51099 20.4649 31.9216
Pd 5.28877 18.5312 31.9601
Co 5.31536 20.4512 30.0413
Co 5.33927 20.4775 33.8178
Pd 3.55145 24.2887 16.6978
Pd 5.31828 22.3213 16.6942
Co 5.43561 24.2731 14.8799
Pd 3.50261 22.3665 18.6306
Pd 3.44215 24.2813 20.5313
Pd 5.32982 22.3624 20.5606
Co 5.30846 26.1609 20.5485
Pd 3.42995 22.3538 22.422
Pd 3.45441 26.1318 22.4136
Pd 5.2818 22.3649 24.3295
Co 5.28995 24.2732 22.4193
Pd 3.39881 24.2528 24.3335
Pd 3.41322 22.3492 26.2364
Pd 5.27759 22.3547 28.1458
Co 5.25667 24.2569 26.2453
Pd 3.41777 22.3383 30.0475
Pd 3.41815 24.2438 31.9504
Pd 5.31468 22.3703 31.9238
Co 5.26635 24.2602 30.0435
Pd 3.51045 22.3711 33.8297
Pd 3.52013 24.2738 35.7302
Pd 5.28718 22.3329 35.7694
Co 5.31436 24.2459 33.8449
Co 5.38463 24.2714 37.6295
Pd 9.14559 24.2572 11.0206
Pd 5.39354 26.1857 13.1269
Pd 5.33862 26.1854 16.64
Pd 3.47789 26.1751 18.6246
Co 5.42731 28.091 14.8762
Pd 3.56712 28.0527 16.7466
Pd 1.72723 29.9253 20.5278
Pd 3.50662 28.008 20.4809
Co 5.3405 28.0587 18.6195
Pd 1.71107 28.0765 22.3965
Pd 3.38703 28.0771 24.3996
Pd 5.25532 26.1641 24.3613
Co 5.23849 28.0606 22.4494
Pd 3.37595 26.1427 26.2507
Pd 3.38457 28.0551 28.1485
Pd 5.25306 26.1574 28.1473
Co 5.25271 28.0609 26.2618
Pd 3.39656 24.2445 28.1516
Pd 3.39523 26.1534 30.0548
Pd 5.27388 26.1591 31.9514
Co 5.25132 28.0605 30.0469
Pd 3.42838 26.1426 33.8497
Pd 3.47636 28.0023 35.7171
Pd 5.35127 26.1497 35.7182
Co 5.29975 28.0537 33.8591
Pd 5.31821 28.1005 37.687
Pd 3.60822 26.1046 37.6541
Co 7.25335 29.9386 37.6396
Pd 5.31649 30.0137 16.714
Pd 3.50141 29.9632 18.6025
Pd 3.4699 31.9018 20.5408
Pd 5.27562 29.982 20.5541
Co 5.33568 31.8688 18.6697
Pd 3.43732 30.0387 22.4894
Pd 3.39806 31.8974 24.3805
Pd 5.26898 29.9779 24.3816
Co 5.30342 31.9008 22.4547
Pd 3.37922 30.0072 26.287
Pd 3.36756 29.9743 30.0273
Pd 5.26282 29.9466 28.1405
Co 5.27426 31.8622 26.2769
Pd 5.28833 29.9204 31.9502
Pd 3.44752 31.8319 31.9711
Pd 7.17537 31.8948 32.0045
Co 3.50378 31.8667 28.1268
Pd 3.4894 29.9223 33.8544
Pd 5.28152 29.9797 35.7766
Co 5.31111 31.8287 33.8255
Pd 5.27342 33.8144 20.54
Pd 3.49044 33.749 22.486
Pd 3.41981 33.7619 26.3134
Pd 5.30985 33.753 24.3978
Co 5.32528 35.6418 22.496
Pd 3.40002 28.0633 31.9514
Pd 3.44258 33.7154 29.988
Pd 5.32199 33.7555 28.1299
Co 5.35003 35.6757 26.2671
Pd 3.55445 35.6818 28.1691
Pd 5.29758 31.857 30.0568
Co 5.32672 35.634 30.0347
Pd 5.29324 37.5792 24.3239
Pd 3.5068 35.6357 24.413
Pd 3.57865 37.4827 26.306
Co 5.36162 37.5045 28.146
Co 9.22722 9.23514 26.2241
Pd 5.43857 12.8481 26.2219
Pd 9.13956 10.9701 24.2802
Co 9.17891 12.8684 22.428
Pd 9.10691 10.9599 28.1516
Pd 3.61141 14.8219 26.225
Pd 7.25839 12.8132 28.1515
Co 9.12646 12.8492 26.2308
Co 9.14517 12.8714 30.041
Pd 7.20902 16.625 20.5034
Pd 9.08945 14.7382 20.4892
Co 9.13356 16.6752 18.6309
Pd 7.23442 14.7329 22.3819
Pd 7.22037 16.6327 24.3122
Pd 9.10377 14.7403 24.3088
Co 9.08874 16.6251 22.3872
Pd 7.23768 14.748 26.2309
Pd 7.21371 16.6283 28.1564
Pd 9.09594 14.7333 28.1621
Co 9.11124 16.6403 26.2386
Pd 7.2153 14.7262 30.0813
Pd 7.18998 16.6113 31.9658
Pd 9.06842 14.7221 31.9828
Co 9.07503 16.6146 30.0892
Co 9.1055 16.658 33.8451
Pd 7.21522 20.422 16.7007
Pd 9.08469 18.5362 16.6927
Co 9.15012 20.477 14.8309
Pd 7.20639 18.5446 18.5875
Pd 7.20239 20.4356 20.5172
Pd 9.08662 18.5344 20.501
Co 9.08858 20.4185 18.5926
Pd 7.2052 18.5474 22.4058
Pd 7.2112 20.4663 24.3355
Pd 9.10396 18.5437 24.3159
Co 9.1014 20.4521 22.4226
Pd 7.23466 18.5506 26.2371
Pd 7.20664 20.4617 28.1437
Pd 9.09767 18.5389 28.1657
Co 9.10612 20.4578 26.2424
Pd 7.19245 18.5393 30.0692
Pd 7.18037 20.4263 31.9639
Pd 9.06567 18.5235 31.9808
Co 9.08872 20.4437 30.0644
Pd 7.17883 18.5264 33.8863
Pd 7.17562 20.4061 35.7719
Pd 9.04691 18.516 35.7867
Co 9.0555 20.4072 33.8942
Co 9.10146 20.451 37.6531
Pd 7.23145 24.2626 12.9499
Pd 9.12358 22.342 12.8928
Co 11.0978 22.4257 11.0453
Pd 7.23785 22.3385 14.7829
Pd 7.25455 24.2426 16.7035
Pd 9.10145 22.3323 16.7049
Co 9.11675 24.2327 14.7993
Pd 7.22738 22.3262 18.6061
Pd 7.20945 24.2899 20.5549
Pd 9.09252 22.3564 20.5229
Co 9.09567 24.2699 18.6305
Pd 7.20596 22.3617 22.4389
Pd 7.17271 24.2716 24.3391
Pd 9.09961 22.3715 24.3437
Co 9.09433 24.2783 22.4418
Pd 7.18052 22.368 26.2408
Pd 7.17015 24.2633 28.1482
Pd 9.09524 22.3656 28.1457
Co 9.08683 24.2717 26.2453
Pd 7.19433 22.3548 30.0459
Pd 7.19061 24.258 31.9541
Pd 9.07796 22.337 31.9732
Co 9.08858 24.2592 30.0573
Pd 7.1788 22.3306 33.8746
Pd 7.19817 24.2176 35.7662
Pd 9.06309 22.3122 35.7835
Co 9.08455 24.2407 33.8727
Pd 7.18905 22.3135 37.6925
Pd 7.18934 24.2205 39.5588
Pd 9.0537 22.3238 39.5934
Co 9.06525 24.2068 37.6935
Co 9.12407 24.2791 41.4219
Pd 11.0838 24.2888 9.17472
Pd 7.33675 26.2215 11.1244
Pd 7.23669 28.1203 12.9498
Pd 9.13897 26.1946 12.9725
Co 9.16907 28.0785 11.113
Pd 7.3048 26.1885 14.8393
Pd 7.22361 28.1202 16.7277
Pd 9.11543 26.1911 16.7438
Co 9.10276 28.1484 14.8173
Pd 7.19612 26.2036 18.6309
Pd 7.14279 28.0667 20.5436
Pd 9.0882 26.194 20.5404
Co 9.08823 28.1093 18.6401
Pd 7.14011 26.1812 22.4303
Pd 7.1597 28.0709 24.3484
Pd 9.07492 26.1774 24.3363
Co 9.07222 28.0851 22.4396
Pd 7.1665 26.1647 26.2497
Pd 7.16763 28.0592 28.154
Pd 9.08369 26.1658 28.1559
Co 9.08197 28.0688 26.2503
Pd 7.16783 26.1624 30.0525
Pd 7.18499 28.0565 31.9644
Pd 9.09171 26.1598 31.9594
Co 9.09148 28.062 30.066
Pd 7.20354 26.1563 33.8556
Pd 7.19606 28.0929 35.7709
Pd 9.07845 26.1564 35.778
Co 9.08142 28.0746 33.8758
Pd 7.22433 26.1468 37.6655
Pd 7.17541 28.0821 39.551
Pd 9.07219 26.1502 39.5605
Co 9.0485 28.1064 37.6973
Pd 7.22725 26.1138 41.4088
Pd 12.8969 28.0601 45.2802
Co 5.44544 26.1105 39.4327
Pd 9.08377 30.0323 12.915
Pd 7.21445 30.0327 14.8036
Pd 7.18589 31.9425 16.7295
Pd 9.07341 30.0394 16.7273
Co 9.11543 31.9038 14.8562
Pd 7.17701 30.0085 18.6276
Pd 7.16679 31.9152 20.5353
Pd 9.05964 29.9986 20.537
Co 9.04898 31.9419 18.6172
Pd 7.16238 29.9812 22.4489
Pd 7.18678 31.8759 24.3568
Pd 9.07951 29.9774 24.347
Co 9.06699 31.8996 22.4386
Pd 7.18104 29.964 26.2571
Pd 7.21646 31.866 28.1459
Pd 9.09088 29.9653 28.1593
Co 9.09468 31.8853 26.2532
Pd 7.20579 29.9417 30.0621
Pd 7.13445 33.7782 33.9188
Pd 9.06861 29.9861 31.9915
Co 9.06605 31.889 30.0885
Pd 7.16292 29.9785 33.8856
Pd 7.1526 31.8766 35.8106
Pd 9.04933 29.9958 35.7933
Co 9.03418 31.9138 33.9223
Pd 9.00711 30.0108 39.5518
Pd 9.0463 28.085 41.4899
Co 9.0574 31.8451 37.6558
Pd 9.04374 33.8395 16.724
Pd 7.168 33.821 18.6166
Pd 7.16356 35.7331 20.5401
Pd 9.04588 33.8271 20.5282
Co 9.08522 35.6972 18.6671
Pd 7.16923 33.8025 22.4352
Pd 7.17962 35.7062 24.3432
Pd 9.07463 33.8062 24.3361
Co 9.04497 35.7344 22.419
Pd 7.21583 33.7845 26.2587
Pd 7.17667 35.7019 28.1833
Pd 9.07311 33.8046 28.1907
Co 9.07514 35.7048 26.2674
Pd 7.18851 33.8083 30.1038
Pd 7.14129 35.7057 32.0081
Pd 9.03677 33.8094 32.0187
Co 9.03629 35.7285 30.1253
Pd 5.23035 33.7994 31.9878
Pd 9.00753 33.7991 35.8083
Co 9.0585 35.6667 33.8805
Pd 9.03078 37.6336 20.5337
Pd 7.17137 37.609 22.4244
Pd 7.21767 39.5325 24.3342
Pd 9.04913 37.6116 24.3498
Co 9.09271 39.4935 22.4949
Pd 7.18837 37.585 26.2677
Pd 7.16529 39.4835 28.2136
Pd 9.04204 37.6086 28.2014
Co 9.05356 39.5038 26.2785
Pd 7.12844 37.5809 30.1013
Pd 9.00272 37.6046 32.0132
Co 9.07175 39.453 30.088
Pd 5.34513 39.4221 26.2979
Pd 7.26958 41.3189 26.2492
Pd 9.02559 41.3629 28.223
Co 9.10366 41.3109 24.417
Co 16.7899 3.66359 24.4927
Pd 11.0159 9.08343 24.2925
Pd 12.938 7.15145 24.3765
Co 11.058 11.0451 22.4355
Pd 11.0585 7.34509 26.2208
Pd 11.0208 9.0655 28.168
Pd 12.9092 7.20472 28.112
Co 12.9054 9.09328 26.226
Co 12.9385 9.07646 30.0282
Pd 10.9913 12.8092 20.5144
Pd 12.86 10.9652 20.4962
Co 12.9261 12.8784 18.6233
Pd 7.2699 12.8188 24.2993
Pd 11.0121 12.8432 24.3071
Pd 12.8917 10.9639 24.3033
Co 12.878 12.8273 22.3849
Pd 11.0324 10.9775 26.2345
Pd 10.9997 12.8321 28.1685
Pd 12.8921 10.9473 28.1675
Co 12.9059 12.8532 26.2434
Pd 10.9992 10.9417 30.0904
Pd 10.9839 12.8074 31.9849
Pd 12.8659 10.9131 31.984
Co 12.8694 12.816 30.0972
Co 12.9005 12.8551 33.8516
Pd 10.9899 16.6216 16.6877
Pd 12.8713 14.7369 16.6856
Co 12.9224 16.6791 14.823
Pd 10.9922 14.731 18.5761
Pd 10.9898 16.6256 20.4906
Pd 12.8768 14.73 20.4873
Co 12.8691 16.6185 18.5751
Pd 10.9981 14.7427 22.3891
Pd 10.9952 16.6382 24.319
Pd 12.8959 14.744 24.3186
Co 12.8928 16.6417 22.4092
Pd 10.9977 14.7353 26.2403
Pd 10.9881 16.6323 28.1661
Pd 12.8863 14.7348 28.1686
Co 12.8893 16.64 26.2454
Pd 10.9834 14.7275 30.0909
Pd 10.9678 16.6125 31.9916
Pd 12.859 14.7222 31.9955
Co 12.8786 16.6329 30.0794
Pd 10.9662 14.7189 33.9055
Pd 10.9566 16.5982 35.7934
Pd 12.8407 14.711 35.7958
Co 12.8454 16.6004 33.9139
Co 12.8856 16.6464 37.6625
Pd 11.0076 20.4589 12.8667
Pd 12.874 18.5506 12.8888
Co 12.9195 20.5171 11.0409
Pd 10.9931 18.5529 14.7658
Pd 10.9929 20.4277 16.6993
Pd 12.8725 18.5329 16.6881
Co 12.8709 20.4302 14.7816
Pd 10.9877 18.5318 18.5867
Pd 10.9868 20.4446 20.5095
Pd 12.8853 18.5392 20.5021
Co 12.8862 20.4481 18.6091
Pd 10.9921 18.5372 22.4097
Pd 10.9963 20.4526 24.3321
Pd 12.8907 18.5465 24.3313
Co 12.8891 20.452 22.4226
Pd 10.993 18.5424 26.2442
Pd 10.9904 20.4475 28.1597
Pd 12.8842 18.5419 28.1628
Co 12.8907 20.4516 26.2489
Pd 10.9789 18.5286 30.0787
Pd 10.97 20.4287 31.9856
Pd 12.8673 18.5231 31.9934
Co 12.8788 20.44 30.0769
Pd 10.9596 18.5144 33.9021
Pd 10.9573 20.4028 35.7964
Pd 12.8422 18.508 35.8048
Co 12.8637 20.4256 33.8937
Pd 10.9526 18.514 37.7143
Pd 10.9515 20.4025 39.603
Pd 12.8292 18.5106 39.6049
Co 12.8328 20.3972 37.7191
Co 12.8757 20.4568 41.4635
Pd 12.8777 22.3748 9.15611
Pd 16.727 22.3779 5.37414
Co 14.8433 26.2607 7.30127
Pd 14.8082 22.3591 7.22589
Pd 11.0175 24.2577 12.9208
Pd 12.8842 22.3599 12.905
Co 12.8807 24.2695 11.0279
Pd 11.0003 22.3435 14.7966
Pd 10.9895 24.2645 16.7185
Pd 12.8834 22.3546 16.7111
Co 12.8905 24.2801 14.8242
Pd 10.9858 22.351 18.6152
Pd 10.9885 24.2739 20.5288
Pd 12.887 22.363 20.5236
Co 12.885 24.2744 18.6247
Pd 10.9925 22.3622 22.4292
Pd 10.9948 24.2753 24.3418
Pd 12.8931 22.3642 24.3387
Co 12.8908 24.2762 22.4352
Pd 10.9995 22.3615 26.2474
Pd 10.9936 24.2658 28.1575
Pd 12.8892 22.3566 28.1639
Co 12.8935 24.2714 26.2527
Pd 10.9839 22.3487 30.0689
Pd 10.9818 24.2494 31.9777
Pd 12.8739 22.3423 31.9836
Co 12.8847 24.2604 30.0742
Pd 10.9667 22.3272 33.8888
Pd 10.9612 24.2365 35.7963
Pd 12.8544 22.3248 35.8008
Co 12.8655 24.2485 33.8935
Pd 10.9547 22.3109 37.7042
Pd 10.9647 24.221 39.5808
Pd 12.8356 22.316 39.6038
Co 12.8541 24.2415 37.6936
Pd 10.9592 22.3424 41.5198
Pd 10.9688 24.2824 43.3648
Pd 12.836 22.3418 43.398
Co 12.842 24.2185 41.5078
Co 12.9686 24.2624 45.189
Pd 13.075 24.3924 7.26417
Pd 16.7634 29.8924 5.42391
Pd 11.0252 28.0826 9.18308
Pd 12.9039 26.2177 9.15331
Co 13.0029 28.0581 7.3853
Pd 10.976 26.205 11.0041
Pd 11.0019 28.1358 12.9292
Pd 12.8701 26.206 12.9104
Co 12.873 28.1442 11.0208
Pd 11.001 26.1945 14.8332
Pd 10.981 28.1238 16.7257
Pd 12.8821 26.1991 16.7339
Co 12.8764 28.1262 14.8282
Pd 10.9931 26.1918 18.6345
Pd 10.984 28.1049 20.5354
Pd 12.8872 26.192 20.5353
Co 12.8767 28.1175 18.6307
Pd 10.9902 26.186 22.4384
Pd 10.9848 28.0859 24.3447
Pd 12.8913 26.1853 24.3473
Co 12.884 28.1017 22.4411
Pd 10.9869 26.1759 26.2497
Pd 10.9894 28.0766 28.1641
Pd 12.889 26.1761 28.163
Co 12.885 28.0905 26.2579
Pd 10.9915 26.1665 30.068
Pd 10.9774 28.0808 31.9848
Pd 12.8745 26.1698 31.9859
Co 12.8763 28.0871 30.0809
Pd 10.9743 26.1615 33.8858
Pd 10.9568 28.0846 35.7984
Pd 12.8562 26.1652 35.7968
Co 12.8589 28.0874 33.8991
Pd 10.9534 26.1646 37.6918
Pd 10.9504 28.1056 39.5873
Pd 12.8527 26.1671 39.5807
Co 12.8475 28.0885 37.6979
Pd 11.0095 26.1526 41.4494
Pd 10.9529 28.0113 43.3759
Pd 12.8226 26.1444 43.405
Co 12.8249 28.1002 41.5197
Pd 16.8677 28.0299 49.0221
Pd 22.3265 22.2735 49.1496
Co 9.15274 26.0968 43.1107
Pd 12.8648 30.0277 9.1357
Pd 10.9874 30.0288 11.0011
Pd 10.9702 31.9635 12.9121
Pd 12.8578 30.0563 12.9164
Co 12.9048 31.9156 11.0475
Pd 10.9748 30.0496 14.8114
Pd 10.9591 31.9574 16.7211
Pd 12.8632 30.0438 16.7238
Co 12.8412 31.9733 14.8035
Pd 10.9657 30.0308 18.6301
Pd 10.9532 31.9254 20.5286
Pd 12.871 30.023 20.5356
Co 12.8576 31.942 18.6286
Pd 10.9731 30.0043 22.4383
Pd 10.9722 31.9059 24.3458
Pd 12.8764 30.0051 24.3488
Co 12.8629 31.9245 22.439
Pd 10.9843 29.9901 26.2564
Pd 10.9667 31.9006 28.18
Pd 12.8714 29.9997 28.1762
Co 12.8642 31.912 26.2667
Pd 10.9702 29.9915 30.0842
Pd 10.9456 31.9085 32.0079
Pd 12.858 30.002 31.997
Co 12.8526 31.912 30.0971
Pd 10.9542 30.0016 33.9022
Pd 10.9336 31.9221 35.8148
Pd 12.8406 30.0088 35.8118
Co 12.8397 31.9152 33.9135
Pd 10.9415 30.0068 37.7107
Pd 10.9235 31.9113 39.6123
Pd 12.8201 30.0068 39.6126
Co 12.8086 31.9318 37.7357
Pd 10.9592 29.9957 41.5318
Pd 12.8283 29.9806 43.4187
Co 12.853 31.8681 41.4744
Pd 12.8367 33.8598 12.9148
Pd 10.9544 33.8492 14.8018
Pd 10.9427 35.7641 16.7233
Pd 12.8355 33.8618 16.7168
Co 12.8785 35.7234 14.8566
Pd 10.9462 33.8457 18.6147
Pd 10.9407 35.7494 20.5237
Pd 12.8473 33.8433 20.5261
Co 12.8233 35.769 18.6078
Pd 10.956 33.8281 22.4317
Pd 10.9524 35.7247 24.3468
Pd 12.8553 33.8242 24.3537
Co 12.8458 35.7371 22.4392
Pd 10.9628 33.813 26.267
Pd 10.9467 35.7188 28.2
Pd 12.8488 33.8173 28.1895
Co 12.8447 35.7259 26.2759
Pd 10.9442 33.8161 30.1083
Pd 10.9246 35.7293 32.0275
Pd 12.8323 33.8241 32.0204
Co 12.8351 35.7216 30.114
Pd 10.9279 33.819 33.9313
Pd 10.9109 35.7284 35.8262
Pd 12.8083 33.8275 35.8329
Co 12.8012 35.741 33.9478
Pd 10.91 33.8022 37.7348
Pd 12.7908 33.8144 39.6229
Co 12.8407 35.6834 37.6942
Pd 12.8174 37.6581 16.7242
Pd 10.9356 37.6439 18.6112
Pd 10.9296 39.5512 20.5359
Pd 12.8221 37.6507 20.5253
Co 12.8633 39.514 18.6688
Pd 10.9393 37.6329 22.4264
Pd 10.9358 39.5226 24.3621
Pd 12.8363 37.6327 24.3542
Co 12.8112 39.5476 22.4279
Pd 10.9438 37.6186 26.2808
Pd 10.9331 39.5154 28.215
Pd 12.8328 37.6243 28.2084
Co 12.8396 39.5118 26.2882
Pd 10.9312 37.6171 30.1317
Pd 10.9145 39.527 32.0309
Pd 12.8074 37.6281 32.0375
Co 12.8055 39.5332 30.1449
Pd 10.9095 37.6141 33.9436
Pd 12.7881 37.6237 35.8344
Co 12.8438 39.4858 33.8997
Pd 12.7981 41.4333 20.551
Pd 10.9066 41.4085 22.4569
Pd 10.9341 43.2805 24.3565
Pd 12.8187 41.4092 24.3607
Co 12.8621 43.2625 22.4859
Pd 10.9467 41.3768 26.2889
Pd 10.9403 43.2964 28.2196
Pd 12.8131 41.4068 28.2196
Co 12.8217 43.2782 26.2927
Pd 10.9226 41.4008 30.1406
Pd 12.7954 41.4159 32.0364
Co 12.8594 43.2565 30.1025
Pd 12.7986 45.1384 24.3633
Pd 9.1165 43.2315 26.2578
Pd 12.8012 45.1402 28.2295
Co 11.0902 44.9897 26.2898
Pd 16.707 7.21996 20.5012
Pd 18.7138 5.26143 20.5244
Co 16.3389 4.82423 20.1101
Pd 16.7013 5.25915 22.5004
Pd 14.8567 5.28439 28.0121
Pd 18.6978 3.4248 26.1904
Co 16.7699 5.35895 26.229
Co 14.9623 5.35912 24.4663
Pd 14.8045 9.0301 20.4837
Pd 14.8057 7.12608 22.4169
Co 16.7518 9.09773 18.6189
Pd 12.8631 9.04612 22.3849
Pd 14.7991 9.05563 24.3077
Pd 16.721 7.2112 24.3344
Co 16.6863 9.05035 22.3952
Pd 14.8001 7.2021 26.2297
Pd 14.8028 9.05554 28.1531
Pd 16.7125 7.18583 28.1416
Co 16.709 9.07861 26.2398
Pd 14.7855 7.16245 30.0434
Pd 14.7836 8.9925 32.0185
Pd 16.6882 7.14125 31.9586
Co 16.6767 9.02806 30.0896
Co 16.8272 9.0863 33.7236
Pd 14.791 12.8237 16.6884
Pd 16.6843 10.9482 16.6935
Co 16.731 12.8837 14.8278
Pd 14.7906 10.9441 18.5797
Pd 14.7886 12.8305 20.4871
Pd 16.6877 10.9417 20.4903
Co 16.6744 12.8281 18.5761
Pd 14.7974 10.951 22.3834
Pd 14.7956 12.8464 24.3138
Pd 16.6972 10.9526 24.3142
Co 16.6963 12.8514 22.4069
Pd 14.7941 10.9539 26.234
Pd 14.7874 12.838 28.1718
Pd 16.6925 10.9508 28.1668
Co 16.6925 12.8495 26.2432
Pd 14.7808 10.9227 30.0948
Pd 14.7647 12.8235 31.9808
Pd 16.6746 10.9446 31.9644
Co 16.6827 12.8467 30.072
Pd 14.7691 10.9389 33.8863
Pd 14.7498 12.7823 35.8023
Pd 16.6674 10.941 35.7911
Co 16.6563 12.8125 33.9034
Co 16.6941 12.8491 37.6626
Pd 14.7876 16.6336 12.8889
Pd 16.6749 14.7506 12.8925
Co 16.7268 16.6986 11.0334
Pd 14.7875 14.7427 14.7715
Pd 14.7779 16.628 16.6866
Pd 16.6736 14.7398 16.6873
Co 16.6662 16.6311 14.7785
Pd 14.7817 14.735 18.5784
Pd 14.7812 16.6389 20.4984
Pd 16.6861 14.7435 20.4979
Co 16.6848 16.6475 18.6011
Pd 14.7849 14.7384 22.404
Pd 14.7918 16.6465 24.33
Pd 16.692 14.7519 24.3282
Co 16.6883 16.6503 22.4183
Pd 14.7915 14.7432 26.2455
Pd 14.7843 16.6424 28.1626
Pd 16.6861 14.7481 28.1621
Co 16.6897 16.6524 26.2486
Pd 14.7734 14.7349 30.0805
Pd 14.7652 16.6239 31.9975
Pd 16.6696 14.7291 31.9928
Co 16.6779 16.6411 30.0797
Pd 14.7574 14.7092 33.911
Pd 14.749 16.6004 35.8065
Pd 16.6421 14.7056 35.8053
Co 16.6619 16.6235 33.8996
Pd 14.7496 14.7076 37.7139
Pd 14.7433 16.592 39.6007
Pd 16.6319 14.707 39.5975
Co 16.6297 16.595 37.7194
Co 16.6787 16.644 41.4538
Pd 14.7994 20.4617 9.10927
Pd 16.6836 18.575 9.10406
Co 16.7537 20.5257 7.25956
Pd 14.7885 18.5656 10.98
Pd 14.782 20.4428 12.902
Pd 16.6712 18.55 12.8974
Co 16.6746 20.4487 10.9984
Pd 14.7771 18.5403 14.7841
Pd 14.7763 20.4488 16.7023
Pd 16.6787 18.5467 16.7001
Co 16.6811 20.4591 14.8123
Pd 14.7782 18.5406 18.5995
Pd 14.7866 20.4558 20.5182
Pd 16.6863 18.5545 20.5159
Co 16.6831 20.4596 18.6157
Pd 14.7883 18.5494 22.4208
Pd 14.7897 20.4573 24.3386
Pd 16.6904 18.5576 24.3382
Co 16.69 20.4638 22.432
Pd 14.7875 18.5489 26.2492
Pd 14.7849 20.4508 28.1658
Pd 16.685 18.5516 28.1662
Co 16.6886 20.4606 26.255
Pd 14.7771 18.538 30.0794
Pd 14.7714 20.4376 31.9888
Pd 16.6707 18.5373 31.9907
Co 16.6796 20.4513 30.0796
Pd 14.7566 18.5197 33.9018
Pd 14.7488 20.4214 35.8068
Pd 16.6504 18.5185 35.8077
Co 16.6622 20.437 33.8989
Pd 14.74 18.5074 37.7161
Pd 14.737 20.4021 39.6089
Pd 16.6292 18.509 39.6061
Co 16.6463 20.4254 37.7037
Pd 14.7448 18.51 41.5217
Pd 14.725 20.4022 43.3883
Pd 16.6452 18.4977 43.3937
Co 16.6217 20.3976 41.5171
Co 18.6207 18.5841 45.2428
Pd 22.4178 26.1811 3.43081
Pd 18.5876 24.3564 5.30621
Co 24.3523 24.3617 3.51141
Pd 16.6065 24.3391 7.1804
Pd 14.8065 24.2934 9.19162
Pd 16.6882 22.3715 9.13061
Co 18.635 28.1202 5.41791
Pd 14.7935 22.3629 11.0126
Pd 14.7799 24.286 12.923
Pd 16.6806 22.3697 12.9221
Co 16.6958 24.2962 11.0468
Pd 14.777 22.3612 14.8122
Pd 14.7806 24.2831 16.7239
Pd 16.6805 22.3719 16.7224
Co 16.6763 24.2884 14.8308
Pd 14.7841 22.3661 18.6197
Pd 14.7865 24.281 20.5305
Pd 16.6878 22.3736 20.5296
Co 16.6831 24.2884 18.6302
Pd 14.7898 22.3672 22.4329
Pd 14.791 24.2772 24.3463
Pd 16.6902 22.3715 24.3469
Co 16.6887 24.2845 22.4412
Pd 14.7892 22.3632 26.2545
Pd 14.7868 24.2699 28.1684
Pd 16.685 22.3647 28.1693
Co 16.6875 24.2787 26.2608
Pd 14.7805 22.354 30.0782
Pd 14.7717 24.261 31.9892
Pd 16.672 22.3548 31.9897
Co 16.6775 24.2715 30.0823
Pd 14.7633 22.3418 33.8959
Pd 14.7553 24.2508 35.7996
Pd 16.6543 22.343 35.8014
Co 16.6627 24.263 33.8968
Pd 14.7427 22.3264 37.7064
Pd 14.7365 24.2423 39.6054
Pd 16.6376 22.3279 39.6055
Co 16.6455 24.2525 37.7047
Pd 14.7349 22.3167 41.5076
Pd 14.762 24.2322 43.3749
Pd 16.6222 22.3145 43.3894
Co 16.6376 24.2502 41.4886
Pd 14.7613 22.3485 45.322
Pd 14.8408 24.2684 47.1385
Pd 16.6523 20.3633 45.3489
Co 16.6394 24.2326 45.2762
Co 18.6326 29.9653 48.8465
Pd 24.2634 20.5783 3.48072
Pd 18.5124 31.96 5.46831
Pd 20.569 24.2629 3.44246
Co 28.1867 20.5932 3.59221
Pd 14.8033 28.0697 5.57129
Pd 14.8047 28.1272 9.15081
Pd 16.6808 26.2297 9.15256
Co 16.7093 28.1198 7.29366
Pd 14.7775 26.2159 11.0438
Pd 14.7622 28.137 12.9288
Pd 16.6764 26.2119 12.9467
Co 16.6811 28.1261 11.0673
Pd 14.7694 26.2077 14.8254
Pd 14.7703 28.1245 16.7285
Pd 16.6744 26.2082 16.7314
Co 16.666 28.1327 14.8335
Pd 14.7813 26.2004 18.6317
Pd 14.7779 28.1124 20.5366
Pd 16.6832 26.2012 20.5389
Co 16.6741 28.1207 18.6356
Pd 14.7875 26.193 22.4416
Pd 14.783 28.1019 24.3525
Pd 16.6863 26.194 24.3534
Co 16.68 28.1109 22.4474
Pd 14.7884 26.1859 26.2595
Pd 14.7767 28.0951 28.1745
Pd 16.68 26.1875 28.1747
Co 16.6781 28.1029 26.2672
Pd 14.7765 26.1791 30.0812
Pd 14.7626 28.0914 31.9952
Pd 16.6666 26.1813 31.9926
Co 16.6678 28.0972 30.0881
Pd 14.7607 26.1731 33.8975
Pd 14.7475 28.0909 35.8051
Pd 16.6528 26.1758 35.8009
Co 16.6539 28.0941 33.9028
Pd 14.7519 26.1689 37.6987
Pd 14.7293 28.0918 39.611
Pd 16.6328 26.1712 39.6044
Co 16.6374 28.0949 37.7108
Pd 14.7143 26.1668 41.5057
Pd 14.7455 28.0874 43.386
Pd 16.6294 26.1684 43.3922
Co 16.6311 28.0865 41.4947
Pd 14.7595 26.1463 45.3055
Pd 16.6212 29.9687 47.1711
Pd 16.6867 26.1747 47.1525
Co 16.6227 28.0979 45.278
Pd 16.6977 22.3085 47.2096
Co 18.6329 22.4354 48.9342
Pd 20.421 30.0743 5.2991
Pd 14.7918 30.0452 7.24344
Pd 14.781 31.9863 9.08967
Pd 16.6786 30.0105 9.19011
Co 16.7719 31.7117 7.34513
Pd 14.7569 30.0604 11.0155
Pd 14.7508 31.9745 12.9173
Pd 16.6578 30.0563 12.9292
Co 16.6417 31.9757 11.0129
Pd 14.7563 30.0524 14.8233
Pd 14.7494 31.9567 16.7211
Pd 16.6623 30.0426 16.7327
Co 16.6526 31.9611 14.8281
Pd 14.7667 30.0338 18.6312
Pd 14.761 31.9379 20.5363
Pd 16.6704 30.0285 20.5413
Co 16.657 31.9486 18.6332
Pd 14.7736 30.0196 22.445
Pd 14.7628 31.9232 24.3572
Pd 16.6721 30.0177 24.3598
Co 16.6633 31.9326 22.4509
Pd 14.7707 30.0096 26.2667
Pd 14.7571 31.9164 28.1842
Pd 16.6658 30.0107 28.1813
Co 16.6605 31.9228 26.2737
Pd 14.7619 30.0058 30.0904
Pd 14.7447 31.9173 32.0079
Pd 16.6537 30.0081 32.0014
Co 16.6518 31.9184 30.0973
Pd 14.7472 30.0065 33.9082
Pd 14.7245 31.9229 35.8264
Pd 16.6376 30.0095 35.814
Co 16.6358 31.921 33.9177
Pd 14.7282 30.0114 37.7178
Pd 14.7115 31.9298 39.6251
Pd 16.6215 30.0148 39.6204
Co 16.6222 31.923 37.7256
Pd 14.7151 30.0044 41.5196
Pd 14.6884 31.8964 43.4122
Pd 16.6048 30.0011 43.4059
Co 16.5864 31.9379 41.5361
Pd 14.8317 28.0581 47.1408
Pd 18.5332 31.9081 47.2033
Co 14.7977 29.8974 45.2659
Pd 16.6481 33.8684 9.14426
Pd 14.7474 33.8607 10.9965
Pd 14.7431 35.784 12.9201
Pd 16.6334 33.8748 12.9176
Co 16.6825 35.7396 11.0677
Pd 14.7406 33.8703 14.8085
Pd 14.7337 35.7767 16.7178
Pd 16.6429 33.8673 16.7235
Co 16.6215 35.789 14.8077
Pd 14.7431 33.8583 18.6248
Pd 14.7366 35.7536 20.5298
Pd 16.6512 33.8479 20.5406
Co 16.6405 35.7611 18.6316
Pd 14.7522 33.8379 22.4449
Pd 14.7447 35.7358 24.3601
Pd 16.6534 33.8335 24.3634
Co 16.6434 35.7464 22.4497
Pd 14.7504 33.8267 26.2743
Pd 14.7391 35.7271 28.1967
Pd 16.648 33.826 28.1908
Co 16.6443 35.7325 26.2802
Pd 14.7412 33.823 30.1048
Pd 14.7207 35.7307 32.0288
Pd 16.6347 33.8259 32.0153
Co 16.6325 35.7303 30.1118
Pd 14.7219 33.8302 33.9284
Pd 14.7056 35.7421 35.8415
Pd 16.6169 33.8336 35.8351
Co 16.6188 35.7311 33.9319
Pd 14.7078 33.8317 37.7433
Pd 14.7 35.7422 39.6339
Pd 16.5944 33.8355 39.6377
Co 16.5892 35.7509 37.7558
Pd 14.6985 33.8137 41.5442
Pd 16.5861 33.8478 43.4021
Co 16.637 35.7027 41.4867
Pd 16.6234 37.6787 12.9298
Pd 14.735 37.6685 14.8088
Pd 14.7279 39.5799 16.7314
Pd 16.6214 37.6755 16.7237
Co 16.6721 39.5374 14.8698
Pd 14.7276 37.6633 18.6154
Pd 14.7219 39.5598 20.5299
Pd 16.6326 37.6594 20.535
Co 16.6122 39.5796 18.6194
Pd 14.7308 37.6486 22.4421
Pd 14.729 39.5311 24.362
Pd 16.6392 37.6389 24.3661
Co 16.6348 39.5423 22.4506
Pd 14.736 37.6287 26.2827
Pd 14.7237 39.5247 28.2134
Pd 16.6326 37.6295 28.2018
Co 16.6313 39.5301 26.2878
Pd 14.7205 37.6317 30.1236
Pd 14.7086 39.5369 32.0437
Pd 16.6161 37.6344 32.0344
Co 16.6223 39.5245 30.1252
Pd 14.7063 37.6335 33.9502
Pd 14.7015 39.5475 35.8377
Pd 16.593 37.6394 35.8449
Co 16.5903 39.5495 33.9564
Pd 14.7008 37.6303 37.7538
Pd 16.586 37.6354 39.6393
Co 16.6363 39.4989 37.7022
Pd 16.6114 41.4636 16.741
Pd 14.72 41.4531 18.6282
Pd 14.7091 43.3493 20.564
Pd 16.6142 41.4549 20.5429
Co 16.6525 43.3078 18.691
Pd 14.7223 41.424 22.4385
Pd 14.7226 43.3043 24.3602
Pd 16.6291 41.4244 24.3664
Co 16.6031 43.3366 22.4488
Pd 14.7213 41.4179 26.2919
Pd 14.7203 43.3005 28.2315
Pd 16.624 41.4174 28.2178
Co 16.6359 43.289 26.2976
Pd 14.7144 41.4138 30.1441
Pd 14.7106 43.3397 32.0246
Pd 16.5994 41.432 32.0402
Co 16.6013 43.3294 30.1443
Pd 14.7064 41.4309 33.9509
Pd 16.5862 41.4351 35.8372
Co 16.6438 43.2941 33.8925
Pd 16.5837 45.2155 20.5812
Pd 14.7201 45.224 22.4839
Pd 14.7553 47.0817 24.469
Pd 16.6213 45.187 24.3929
Co 16.656 47.0587 22.5822
Pd 14.7292 45.1211 26.299
Pd 12.8345 46.9316 26.2987
Pd 16.6197 45.1838 28.2133
Co 16.6413 47.025 26.3059
Pd 14.7184 45.216 30.1176
Pd 16.5956 45.2175 32.0146
Co 16.6608 47.045 30.048
Pd 16.6606 48.8499 24.5135
Pd 16.659 48.834 28.1147
Pd 14.7535 47.0753 28.1397
Pd 20.5981 3.46816 20.5843
Pd 22.4907 3.41123 22.4272
Co 20.6047 5.32914 18.6677
Pd 18.6558 3.47185 22.4934
Pd 18.7019 5.32536 24.359
Pd 22.4804 3.39986 26.2197
Co 20.5698 5.29701 22.4403
Pd 20.5842 3.41402 24.3094
Pd 18.6899 5.30208 28.0949
Pd 18.7335 3.44931 29.9808
Co 20.5898 5.28063 26.2253
Pd 16.8024 3.50007 27.9988
Pd 18.6398 5.22393 31.9266
Pd 22.4363 3.40469 30.0499
Co 20.5553 5.29001 30.0222
Co 20.6013 3.57775 31.8336
Pd 18.6177 9.03859 16.7058
Pd 20.5225 7.17838 16.7143
Co 20.5507 9.11233 14.8452
Pd 18.6147 7.13959 18.595
Pd 18.6229 9.05855 20.4945
Pd 20.538 7.18955 20.517
Co 20.5022 9.0526 18.5897
Pd 18.6345 7.17908 22.4042
Pd 18.6254 9.07974 24.313
Pd 20.5619 7.19945 24.3282
Co 20.5349 9.08648 22.4197
Pd 18.6488 7.21388 26.2381
Pd 18.6139 9.07082 28.167
Pd 20.554 7.18653 28.1378
Co 20.5385 9.09215 26.2399
Pd 18.6215 7.14897 30.0509
Pd 18.6313 9.03469 31.9278
Pd 20.5091 7.15028 31.945
Co 20.5293 9.06963 30.0459
Pd 18.5822 7.1498 33.8709
Pd 18.5269 8.98987 35.7812
Pd 20.4985 7.15318 35.7765
Co 20.4649 9.0244 33.8905
Co 20.509 9.06916 37.6375
Pd 18.601 12.8399 12.898
Pd 20.4988 10.9645 12.9074
Co 20.5393 12.9165 11.0454
Pd 18.6043 10.9542 14.7831
Pd 18.5891 12.8424 16.6895
Pd 20.4959 10.9641 16.6977
Co 20.4829 12.847 14.7853
Pd 18.6015 10.9567 18.5848
Pd 18.593 12.8537 20.4993
Pd 20.5137 10.9698 20.5042
Co 20.5045 12.867 18.6036
Pd 18.6023 10.9612 22.406
Pd 18.5996 12.8595 24.329
Pd 20.5203 10.9811 24.3298
Co 20.5071 12.8705 22.4193
Pd 18.605 10.9642 26.2423
Pd 18.5962 12.8588 28.1565
Pd 20.5158 10.975 28.1527
Co 20.5077 12.8733 26.2456
Pd 18.5966 10.9601 30.0655
Pd 18.5826 12.844 31.9845
Pd 20.5001 10.9559 31.9753
Co 20.5002 12.8629 30.0708
Pd 18.5923 10.9407 33.8898
Pd 18.5727 12.8191 35.8034
Pd 20.4541 10.9155 35.7926
Co 20.485 12.8439 33.8915
Pd 18.5616 10.907 37.7049
Pd 18.556 12.7936 39.5917
Pd 20.4536 10.9175 39.5819
Co 20.4464 12.8033 37.711
Co 20.4927 12.844 41.44
Pd 18.5979 16.6552 9.10799
Pd 20.4883 14.7761 9.11486
Co 20.5481 16.7219 7.26266
Pd 18.5935 14.763 10.9857
Pd 18.5809 16.6466 12.8977
Pd 20.4833 14.7633 12.9025
Co 20.476 16.6517 10.9991
Pd 18.5838 14.7492 14.7848
Pd 18.5828 16.6515 16.6989
Pd 20.4943 14.7581 16.6994
Co 20.4933 16.6648 14.809
Pd 18.5867 14.7496 18.5982
Pd 18.5921 16.6576 20.5152
Pd 20.5014 14.7668 20.5146
Co 20.4968 16.6644 18.6129
Pd 18.5955 14.758 22.419
Pd 18.5944 16.6612 24.3369
Pd 20.5032 14.7699 24.3365
Co 20.5011 16.6697 22.4301
Pd 18.5939 14.7592 26.2466
Pd 18.5894 16.6562 28.1647
Pd 20.499 14.7662 28.1628
Co 20.4987 16.6685 26.2535
Pd 18.5857 14.7502 30.0755
Pd 18.5763 16.6411 31.9897
Pd 20.4874 14.7516 31.9871
Co 20.491 16.659 30.0786
Pd 18.5664 14.7282 33.8993
Pd 18.5527 16.6205 35.8067
Pd 20.4692 14.7305 35.8053
Co 20.4756 16.6408 33.8985
Pd 18.5483 14.7125 37.7125
Pd 18.541 16.6023 39.6026
Pd 20.4404 14.7118 39.5977
Co 20.4601 16.6253 37.7011
Pd 18.5448 14.7135 41.5111
Pd 18.5345 16.6147 43.3928
Pd 20.4363 14.6919 43.3659
Co 20.4263 16.5975 41.5043
Co 26.1586 18.5719 45.2665
Pd 18.6382 20.4866 5.35464
Pd 20.5293 18.604 5.33686
Co 22.4798 22.5223 3.4996
Pd 18.6157 18.5808 7.20144
Pd 18.593 20.4734 9.11658
Pd 20.4836 18.5731 9.12812
Co 20.4888 20.4793 7.24066
Pd 18.5823 18.563 10.9996
Pd 18.5803 20.4669 12.9148
Pd 20.4874 18.5651 12.9133
Co 20.4892 20.4838 11.031
Pd 18.5802 18.5556 14.8061
Pd 18.5862 20.4668 16.7206
Pd 20.4944 18.5684 16.7177
Co 20.4909 20.4742 14.8252
Pd 18.5891 18.5606 18.6148
Pd 18.5912 20.4701 20.5283
Pd 20.4989 18.5713 20.5273
Co 20.4965 20.4769 18.6293
Pd 18.5929 18.564 22.4308
Pd 18.5931 20.47 24.3465
Pd 20.499 18.5726 24.3459
Co 20.4982 20.4779 22.4408
Pd 18.5916 18.5624 26.2545
Pd 18.5877 20.4637 28.1699
Pd 20.4937 18.5667 28.1695
Co 20.4956 20.4747 26.2611
Pd 18.5826 18.5525 30.0799
Pd 18.5751 20.4521 31.9908
Pd 20.4825 18.5534 31.9908
Co 20.4869 20.4656 30.0827
Pd 18.5668 18.5372 33.8987
Pd 18.5589 20.4384 35.8017
Pd 20.4663 18.5368 35.8011
Co 20.4738 20.4529 33.8971
Pd 18.5466 18.5194 37.7057
Pd 18.5407 20.4248 39.6028
Pd 20.451 18.5208 39.6012
Co 20.4579 20.4392 37.701
Pd 18.539 18.5138 41.5032
Pd 18.5446 20.4074 43.3941
Pd 20.4377 18.5184 43.379
Co 20.4524 20.434 41.4851
Pd 20.4376 16.6125 45.3078
Pd 20.4091 24.229 49.1102
Pd 22.3772 18.6886 48.9977
Co 20.4732 20.4225 45.2271
Co 18.7136 20.4734 46.9047
Pd 18.675 22.4003 3.53455
Pd 24.3683 22.5204 1.72429
Pd 20.5339 22.4343 5.40653
Co 31.8906 29.8956 1.97322
Pd 18.6116 22.4154 7.21714
Pd 18.5848 24.3143 9.13725
Pd 20.4855 22.4057 9.14228
Co 20.482 24.3442 7.24371
Pd 18.5833 22.3855 11.0297
Pd 18.5839 24.2953 12.9475
Pd 20.4888 22.3887 12.9402
Co 20.4863 24.3081 11.0541
Pd 18.5843 22.3781 14.8305
Pd 18.5825 24.2943 16.7353
Pd 20.4929 22.3863 16.7356
Co 20.4898 24.3004 14.8475
Pd 18.5879 22.3798 18.63
Pd 18.5883 24.2924 20.5386
Pd 20.4959 22.3868 20.5393
Co 20.4916 24.299 18.6408
Pd 18.5921 22.3795 22.4413
Pd 18.5897 24.2875 24.3543
Pd 20.4957 22.3842 24.3545
Co 20.4935 24.2958 22.4497
Pd 18.5899 22.3749 26.2613
Pd 18.5835 24.2811 28.1749
Pd 20.4898 22.3779 28.1748
Co 20.4903 24.2901 26.2678
Pd 18.5807 22.3668 30.0824
Pd 18.5716 24.2734 31.9922
Pd 20.4786 22.3683 31.9918
Co 20.4816 24.2829 30.0862
Pd 18.5662 22.3564 33.8972
Pd 18.556 24.265 35.8016
Pd 20.4644 22.3574 35.7995
Co 20.4687 24.2748 33.8982
Pd 18.5507 22.3458 37.7021
Pd 18.5435 24.2566 39.6002
Pd 20.4518 22.3491 39.5956
Co 20.4549 24.2676 37.6986
Pd 18.5349 22.3284 41.4975
Pd 18.536 24.2571 43.3686
Pd 20.4568 22.35 43.3662