4033
Atoms. Timestep: 20147
Co 5.48118 13.0129 26.2175
Pd 3.55298 16.7268 24.3451
Pd 5.34458 14.7967 24.2756
Co 5.36804 16.7428 22.4382
Pd 3.62813 14.8563 26.2181
Pd 3.55293 16.7256 28.0922
Pd 5.34453 14.7955 28.1606
Co 5.37998 16.7068 26.2187
Co 5.36794 16.7405 29.9992
Pd 3.52657 20.5352 20.535
Pd 5.29821 18.596 20.4924
Co 5.35809 20.5457 18.638
Pd 3.53282 18.6327 22.4385
Pd 3.44072 20.5056 24.3144
Pd 5.3468 18.6328 24.3399
Co 5.32633 20.5134 22.4153
Pd 3.45935 18.6014 26.2193
Pd 3.44067 20.5044 28.1254
Pd 5.34675 18.6316 28.0987
Co 5.30009 20.5231 26.2199
Pd 3.53272 18.6303 30
Pd 3.52642 20.5316 31.9048
Pd 5.29806 18.5924 31.9462
Co 5.32623 20.511 30.0245
Co 5.35789 20.541 33.8018
Pd 3.55247 24.3443 16.7306
Pd 5.31519 22.4028 16.6886
Co 5.4086 24.3479 14.8379
Pd 3.53491 22.4415 18.6268
Pd 3.44327 24.3171 20.5034
Pd 5.33425 22.4367 20.5354
Co 5.34429 24.314 18.6153
Pd 3.43474 22.411 22.4096
Pd 3.41535 24.3137 24.3152
Pd 5.28946 22.4151 24.315
Co 5.28636 24.3237 22.4203
Pd 3.42253 22.4092 26.2205
Pd 3.4153 24.3125 28.127
Pd 5.28941 22.4139 28.126
Co 5.27106 24.3155 26.2211
Pd 3.43465 22.4086 30.0313
Pd 3.44312 24.3135 31.9387
Pd 5.3341 22.4331 31.9056
Co 5.28626 24.3213 30.0218
Pd 3.53471 22.4367 33.8142
Pd 3.55222 24.3383 35.7116
Pd 5.31494 22.3968 35.7524
Co 5.34409 24.3092 33.8269
Co 5.40831 24.3407 37.6043
Pd 5.39671 26.223 12.9638
Pd 3.62238 26.2221 14.8593
Pd 3.55189 28.0988 16.7318
Pd 5.39595 26.2218 16.7483
Co 5.40803 28.0969 14.8391
Pd 3.46461 26.2209 18.6008
Pd 3.44268 28.1236 20.5046
Pd 5.3057 26.2206 20.5113
Co 5.3437 28.1284 18.6165
Pd 3.42322 26.2197 22.4081
Pd 3.41476 28.1246 24.3164
Pd 5.27501 26.2194 24.3218
Co 5.28578 28.1163 22.4215
Pd 3.40783 26.2185 26.2217
Pd 3.41471 28.1234 28.1282
Pd 5.27496 26.2182 28.1215
Co 5.27047 28.1222 26.2223
Pd 3.42312 26.2173 30.0352
Pd 3.44254 28.12 31.9399
Pd 5.30556 26.217 31.9321
Co 5.28568 28.114 30.023
Pd 3.46442 26.2161 33.8425
Pd 3.55164 28.0929 35.7128
Pd 5.3957 26.2159 35.6951
Co 5.3435 28.1236 33.8281
Pd 3.62209 26.215 37.584
Pd 5.39637 26.2147 39.4796
Co 5.40773 28.0898 37.6055
Pd 5.31401 30.0409 16.691
Pd 3.53374 30.0004 18.6292
Pd 3.52481 31.9055 20.5386
Pd 5.33308 30.0046 20.5378
Co 5.35634 31.8967 18.6415
Pd 3.43357 30.0285 22.412
Pd 3.43896 31.9327 24.318
Pd 5.28829 30.0238 24.3174
Co 5.32457 31.9266 22.4188
Pd 3.42136 30.0278 26.2229
Pd 3.43891 31.9315 28.129
Pd 5.28824 30.0226 28.1284
Co 5.29833 31.9146 26.2235
Pd 3.43347 30.0261 30.0337
Pd 3.52466 31.9019 31.9083
Pd 5.33293 30.001 31.9079
Co 5.32447 31.9242 30.0281
Pd 3.53354 29.9956 33.8165
Pd 5.31376 30.0349 35.7548
Co 5.35614 31.8919 33.8054
Pd 5.29586 33.8453 20.4971
Pd 3.53047 33.8068 22.4433
Pd 3.55005 35.7115 24.3511
Pd 5.34446 33.8061 24.3447
Co 5.36512 35.6972 22.4441
Pd 3.457 33.8357 26.2241
Pd 3.55 35.7103 28.0982
Pd 5.34441 33.8049 28.1034
Co 5.37705 35.7309 26.2247
Pd 3.53037 33.8044 30.0048
Pd 5.29571 33.8417 31.951
Co 5.36502 35.6948 30.0052
Pd 5.34105 37.6422 24.2828
Pd 3.62462 37.5808 26.2252
Pd 5.341 37.641 28.1678
Co 5.47711 39.4248 26.2258
Co 9.23664 9.23156 26.2164
Pd 7.23279 12.8761 24.2919
Pd 9.0959 10.9988 24.2933
Co 9.13273 12.917 22.4122
Pd 7.29152 11.0624 26.2169
Pd 7.23274 12.8749 28.1431
Pd 9.09585 10.9976 28.1406
Co 9.09856 12.8794 26.2175
Co 9.13263 12.9146 30.023
Pd 7.19473 16.6723 20.4828
Pd 9.06838 14.7752 20.4662
Co 9.11352 16.7156 18.6076
Pd 7.21434 14.7863 22.3616
Pd 7.21569 16.6833 24.2929
Pd 9.08976 14.7768 24.2888
Co 9.07765 16.6654 22.3639
Pd 7.23754 14.8052 26.2181
Pd 7.21564 16.6821 28.1445
Pd 9.08971 14.7756 28.1475
Co 9.10813 16.6851 26.2187
Pd 7.21424 14.7839 30.0746
Pd 7.19458 16.6687 31.9546
Pd 9.06823 14.7716 31.9701
Co 9.07755 16.663 30.0736
Co 9.11332 16.7109 33.8299
Pd 7.19716 20.4757 16.6815
Pd 9.06208 18.5786 16.6688
Co 9.12377 20.5194 14.805
Pd 7.19143 18.5919 18.5665
Pd 7.19413 20.4869 20.4945
Pd 9.07459 18.5781 20.4756
Co 9.0714 20.4669 18.565
Pd 7.19863 18.5956 22.3847
Pd 7.21387 20.5143 24.3147
Pd 9.101 18.5871 24.2926
Co 9.09839 20.4948 22.3971
Pd 7.23618 18.6002 26.2193
Pd 7.21382 20.5131 28.1252
Pd 9.10095 18.5859 28.1461
Co 9.11045 20.5018 26.2199
Pd 7.19853 18.5932 30.0539
Pd 7.19398 20.4833 31.9453
Pd 9.07444 18.5745 31.9631
Co 9.09829 20.4924 30.0428
Pd 7.19123 18.5871 33.8721
Pd 7.19691 20.4697 35.7583
Pd 9.06183 18.5726 35.7698
Co 9.0712 20.4621 33.8749
Co 9.12347 20.5122 37.6348
Pd 7.23645 24.2993 12.8855
Pd 9.08657 22.393 12.8679
Co 9.16857 24.3538 11.0274
Pd 7.21421 22.3949 14.7604
Pd 7.22957 24.2865 16.6938
Pd 9.08625 22.3767 16.676
Co 9.09577 24.2787 14.7671
Pd 7.20189 22.3952 18.5857
Pd 7.21547 24.3181 20.5124
Pd 9.09499 22.3925 20.4924
Co 9.10901 24.3017 18.5947
Pd 7.20871 22.4122 22.4175
Pd 7.18575 24.3183 24.3197
Pd 9.10622 22.4136 24.3193
Co 9.10601 24.313 22.4134
Pd 7.19052 22.4166 26.2205
Pd 7.1857 24.3171 28.1225
Pd 9.10617 22.4124 28.1217
Co 9.09994 24.3171 26.2211
Pd 7.20861 22.4098 30.0236
Pd 7.21532 24.3145 31.9298
Pd 9.09485 22.3889 31.9486
Co 9.10591 24.3106 30.0288
Pd 7.20169 22.3904 33.8553
Pd 7.22932 24.2805 35.7484
Pd 9.086 22.3707 35.765
Co 9.10881 24.2969 33.8475
Pd 7.21391 22.3877 37.6807
Pd 7.23611 24.2909 39.5567
Pd 9.08622 22.3846 39.5732
Co 9.09547 24.2715 37.6751
Co 9.16817 24.3442 41.4149
Pd 9.1759 26.2248 9.16647
Pd 7.32047 26.2239 11.0259
Pd 7.23586 28.1473 12.8868
Pd 9.12159 26.2236 12.9056
Co 9.16799 28.0946 11.0286
Pd 7.25496 26.2227 14.7905
Pd 7.22897 28.1578 16.695
Pd 9.10927 26.2224 16.687
Co 9.09517 28.1673 14.7684
Pd 7.23948 26.2215 18.6161
Pd 7.21488 28.1237 20.5136
Pd 9.11547 26.2212 20.5162
Co 9.10841 28.1419 18.5959
Pd 7.19137 26.2203 22.4189
Pd 7.18517 28.1211 24.3209
Pd 9.09921 26.22 24.3185
Co 9.10542 28.1282 22.4146
Pd 7.18024 26.2191 26.2217
Pd 7.18512 28.1199 28.1237
Pd 9.09916 26.2188 28.125
Co 9.09935 28.1217 26.2223
Pd 7.19127 26.2179 30.0245
Pd 7.21473 28.1201 31.931
Pd 9.11532 26.2176 31.9273
Co 9.10532 28.1258 30.03
Pd 7.23928 26.2167 33.8273
Pd 7.22872 28.1518 35.7496
Pd 9.10902 26.2164 35.7564
Co 9.10822 28.1371 33.8487
Pd 7.25467 26.2155 37.653
Pd 7.23551 28.1389 39.5579
Pd 9.12125 26.2152 39.5378
Co 9.09487 28.1601 37.6763
Pd 7.32007 26.2144 41.4175
Pd 9.17545 26.2141 43.277
Co 9.1676 28.0851 41.4161
Pd 9.08539 30.0543 12.8703
Pd 7.21303 30.0505 14.7628
Pd 7.19539 31.9686 16.6851
Pd 9.08506 30.0681 16.6784
Co 9.12201 31.9266 14.8086
Pd 7.2007 30.0478 18.5881
Pd 7.19236 31.955 20.4981
Pd 9.09381 30.0499 20.4948
Co 9.06963 31.9767 18.5686
Pd 7.20753 30.0284 22.4199
Pd 7.21211 31.9252 24.3182
Pd 9.10504 30.0264 24.3217
Co 9.09662 31.9465 22.4007
Pd 7.18935 30.0217 26.2229
Pd 7.21206 31.924 28.1288
Pd 9.10499 30.0252 28.1241
Co 9.10868 31.937 26.2235
Pd 7.20743 30.026 30.026
Pd 7.19221 31.9514 31.9489
Pd 9.09366 30.0463 31.951
Co 9.09652 31.9441 30.0464
Pd 7.2005 30.043 33.8577
Pd 7.19514 31.9626 35.7619
Pd 9.08481 30.0621 35.7674
Co 9.06943 31.9719 33.8785
Pd 7.21273 30.0433 37.6831
Pd 9.08504 30.0459 39.5756
Co 9.12171 31.9194 37.6384
Pd 9.05972 33.8662 16.6736
Pd 7.18907 33.8511 18.5713
Pd 7.19178 35.7696 20.4888
Pd 9.07223 33.8643 20.4804
Co 9.11059 35.728 18.6136
Pd 7.19627 33.845 22.3895
Pd 7.21275 35.7562 24.2989
Pd 9.09864 33.8529 24.2974
Co 9.0747 35.7758 22.3699
Pd 7.23382 33.8381 26.2241
Pd 7.2127 35.755 28.1505
Pd 9.09859 33.8517 28.1509
Co 9.10519 35.7537 26.2247
Pd 7.19617 33.8426 30.0587
Pd 7.19163 35.766 31.9606
Pd 9.07208 33.8607 31.9679
Co 9.0746 35.7734 30.0796
Pd 7.18887 33.8463 33.8769
Pd 9.05947 33.8602 35.7746
Co 9.11039 35.7232 33.8359
Pd 9.06485 37.6672 20.4734
Pd 7.21081 37.6543 22.3688
Pd 7.22867 39.5633 24.3003
Pd 9.08623 37.6632 24.296
Co 9.12862 39.5242 22.4205
Pd 7.23401 37.6331 26.2253
Pd 7.22862 39.5621 28.1515
Pd 9.08618 37.662 28.1547
Co 9.09444 39.5594 26.2259
Pd 7.21071 37.6519 30.0818
Pd 9.0647 37.6636 31.9773
Co 9.12852 39.5218 30.0313
Pd 9.0912 41.4412 24.3029
Pd 7.28684 41.3759 26.2265
Pd 9.09115 41.44 28.1502
Co 9.23139 43.2073 26.2271
Co 13.0192 5.47727 26.2153
Pd 11.0034 9.09194 24.2927
Pd 12.8813 7.22941 24.2902
Co 12.921 9.12993 22.411
Pd 11.0681 7.28701 26.2158
Pd 11.0033 9.09074 28.14
Pd 12.8812 7.2282 28.1414
Co 12.8845 9.0946 26.2164
Co 12.9209 9.12754 30.0218
Pd 10.9748 12.8554 20.4658
Pd 12.8582 10.9726 20.4652
Co 12.9046 12.9029 18.597
Pd 10.9871 10.9837 22.3607
Pd 10.9844 12.8697 24.2872
Pd 12.8737 10.981 24.2867
Co 12.8593 12.8565 22.3576
Pd 11.0139 11.0094 26.217
Pd 10.9843 12.8685 28.1479
Pd 12.8736 10.9798 28.1473
Co 12.886 12.882 26.2176
Pd 10.987 10.9813 30.0733
Pd 10.9747 12.8517 31.9693
Pd 12.858 10.969 31.9687
Co 12.8592 12.8541 30.0776
Co 12.9044 12.8981 33.8382
Pd 10.9673 16.6547 16.6624
Pd 12.8482 14.7642 16.657
Co 12.9014 16.7036 14.7942
Pd 10.9706 14.7699 18.5463
Pd 10.9719 16.6597 20.4648
Pd 12.8578 14.7614 20.4603
Co 12.8507 16.6486 18.546
Pd 10.9777 14.7694 22.3633
Pd 10.9837 16.6719 24.2931
Pd 12.8745 14.7686 24.2912
Co 12.8763 16.6699 22.3817
Pd 10.982 14.7684 26.2182
Pd 10.9836 16.6707 28.1445
Pd 12.8745 14.7674 28.1452
Co 12.8781 16.6701 26.2188
Pd 10.9776 14.767 30.0731
Pd 10.9718 16.6561 31.9727
Pd 12.8577 14.7578 31.9761
Co 12.8762 16.6675 30.0559
Pd 10.9704 14.7651 33.8901
Pd 10.9671 16.6487 35.7751
Pd 12.848 14.7582 35.7794
Co 12.8505 16.6438 33.8915
Co 12.9012 16.6964 37.6434
Pd 10.9812 20.4648 12.8629
Pd 12.8549 18.5718 12.8576
Co 12.9182 20.5189 11.0009
Pd 10.9716 18.5743 14.7454
Pd 10.9752 20.4617 16.6656
Pd 12.8557 18.5608 16.6583
Co 12.8557 20.4544 14.7495
Pd 10.9702 18.5682 18.5575
Pd 10.9811 20.4789 20.479
Pd 12.8724 18.5676 20.4714
Co 12.876 20.4753 18.5747
Pd 10.9832 18.5733 22.3824
Pd 10.9963 20.4899 24.3054
Pd 12.8827 18.5771 24.3029
Co 12.8848 20.4817 22.3921
Pd 10.9909 18.5802 26.2194
Pd 10.9963 20.4886 28.1345
Pd 12.8827 18.5759 28.1359
Co 12.8915 20.4853 26.22
Pd 10.9831 18.5708 30.0563
Pd 10.981 20.4753 31.9609
Pd 12.8723 18.564 31.9674
Co 12.8847 20.4793 30.0479
Pd 10.97 18.5633 33.8812
Pd 10.9749 20.4557 35.7743
Pd 12.8555 18.5548 35.7804
Co 12.8758 20.4705 33.8653
Pd 10.9713 18.5671 37.6934
Pd 10.9809 20.4564 39.577
Pd 12.8545 18.5634 39.5812
Co 12.8554 20.4471 37.6905
Co 12.9178 20.5093 41.4391
Pd 11.0243 24.3038 9.08922
Pd 12.8843 22.3968 9.07362
Co 12.9716 24.3558 7.24324
Pd 10.9968 22.3964 10.9538
Pd 10.9996 24.2879 12.8797
Pd 12.8694 22.3753 12.8683
Co 12.8831 24.2798 10.9714
Pd 10.9818 22.3764 14.7603
Pd 10.9863 24.2965 16.6754
Pd 12.8744 22.3797 16.6715
Co 12.8834 24.2997 14.78
Pd 10.9837 22.3825 18.579
Pd 10.9989 24.3039 20.4953
Pd 12.8859 22.3901 20.4892
Co 12.8837 24.3017 18.584
Pd 10.9958 22.3965 22.4
Pd 11.0061 24.312 24.3138
Pd 12.8967 22.3965 24.3081
Co 12.8972 24.3067 22.4018
Pd 11.0067 22.4012 26.2206
Pd 11.0061 24.3108 28.1285
Pd 12.8966 22.3953 28.1331
Co 12.9035 24.3083 26.2212
Pd 10.9957 22.3941 30.0411
Pd 10.9987 24.3003 31.947
Pd 12.8858 22.3865 31.9519
Co 12.8971 24.3043 30.0405
Pd 10.9835 22.3777 33.8621
Pd 10.9861 24.2905 35.7669
Pd 12.8741 22.3737 35.7696
Co 12.8835 24.2969 33.8584
Pd 10.9815 22.3692 37.6808
Pd 10.9993 24.2795 39.5626
Pd 12.8691 22.3669 39.5729
Co 12.8831 24.2925 37.6624
Pd 10.9964 22.3868 41.4873
Pd 11.0238 24.2931 43.3531
Pd 12.8839 22.386 43.3675
Co 12.8827 24.2702 41.4709
Co 12.9711 24.3438 45.1992
Pd 13.0038 26.2266 5.37608
Pd 11.1263 26.2257 7.22939
Pd 11.0237 28.1463 9.09043
Pd 12.9144 26.2254 9.12064
Co 12.971 28.0962 7.24441
Pd 11.0336 26.2245 10.9908
Pd 10.9991 28.1599 12.8809
Pd 12.8904 26.2242 12.8841
Co 12.8825 28.1698 10.9726
Pd 10.9953 26.2233 14.7824
Pd 10.9857 28.1489 16.6766
Pd 12.883 26.223 16.6857
Co 12.8828 28.1475 14.7812
Pd 10.9958 26.2221 18.5895
Pd 10.9983 28.1391 20.4965
Pd 12.892 26.2218 20.4949
Co 12.8831 28.1431 18.5852
Pd 11.0072 26.2209 22.4098
Pd 11.0056 28.1286 24.315
Pd 12.904 26.2206 24.3147
Co 12.8966 28.1357 22.403
Pd 11.0047 26.2197 26.2218
Pd 11.0055 28.1274 28.1297
Pd 12.904 26.2194 28.1289
Co 12.9029 28.1317 26.2224
Pd 11.0071 26.2185 30.0337
Pd 10.9982 28.1355 31.9482
Pd 12.8918 26.2182 31.9487
Co 12.8965 28.1333 30.0417
Pd 10.9956 26.2173 33.854
Pd 10.9855 28.1429 35.7681
Pd 12.8827 26.217 35.7578
Co 12.8829 28.1383 33.8596
Pd 10.995 26.2161 37.6611
Pd 10.9987 28.1515 39.5638
Pd 12.89 26.2158 39.5595
Co 12.8825 28.1403 37.6636
Pd 11.0332 26.2149 41.4527
Pd 11.0232 28.1356 43.3543
Pd 12.914 26.2146 43.3229
Co 12.8821 28.1602 41.4721
Pd 11.1258 26.2138 45.2141
Pd 13.0033 26.2135 47.0675
Co 12.9705 28.0843 45.2003
Pd 12.8831 30.054 9.07603
Pd 10.9957 30.0526 10.9562
Pd 10.9795 31.983 12.8665
Pd 12.8683 30.0731 12.8707
Co 12.9165 31.9307 11.0044
Pd 10.9806 30.0702 14.7627
Pd 10.9734 31.9837 16.6693
Pd 12.8732 30.0663 16.6739
Co 12.8539 31.9928 14.7531
Pd 10.9825 30.0617 18.5814
Pd 10.9793 31.9641 20.4826
Pd 12.8847 30.0535 20.4916
Co 12.8742 31.9695 18.5783
Pd 10.9946 30.0453 22.4024
Pd 10.9946 31.9508 24.309
Pd 12.8955 30.0447 24.3105
Co 12.883 31.9607 22.3957
Pd 11.0056 30.0383 26.223
Pd 10.9945 31.9496 28.1381
Pd 12.8954 30.0435 28.1355
Co 12.8897 31.9547 26.2236
Pd 10.9945 30.0429 30.0435
Pd 10.9792 31.9605 31.9645
Pd 12.8846 30.0499 31.9544
Co 12.8829 31.9583 30.0515
Pd 10.9823 30.0569 33.8645
Pd 10.9731 31.9777 35.7779
Pd 12.8729 30.0603 35.7721
Co 12.874 31.9646 33.8689
Pd 10.9803 30.063 37.6832
Pd 10.9791 31.9746 39.5806
Pd 12.8679 30.0647 39.5753
Co 12.8536 31.9856 37.6941
Pd 10.9953 30.043 41.4897
Pd 12.8827 30.0432 43.37
Co 12.9161 31.9211 41.4427
Pd 12.8525 33.8766 12.8624
Pd 10.9692 33.8723 14.7502
Pd 10.9644 35.7907 16.6684
Pd 12.8534 33.8852 16.6631
Co 12.8985 35.7435 14.8002
Pd 10.9679 33.8761 18.5623
Pd 10.969 35.7833 20.4708
Pd 12.8701 33.876 20.4762
Co 12.8478 35.7962 18.552
Pd 10.9808 33.8686 22.3873
Pd 10.9807 35.7687 24.2991
Pd 12.8804 33.8641 24.3077
Co 12.8733 35.7725 22.3877
Pd 10.9886 33.8592 26.2242
Pd 10.9807 35.7675 28.1505
Pd 12.8803 33.8629 28.1407
Co 12.8751 35.7699 26.2248
Pd 10.9807 33.8661 30.0611
Pd 10.9688 35.7797 31.9787
Pd 12.8699 33.8724 31.9722
Co 12.8732 35.7701 30.0619
Pd 10.9677 33.8712 33.8861
Pd 10.9641 35.7847 35.7811
Pd 12.8531 33.8792 35.7853
Co 12.8476 35.7914 33.8975
Pd 10.9689 33.8651 37.6982
Pd 12.8522 33.8682 39.586
Co 12.8982 35.7364 37.6494
Pd 12.8447 37.6818 16.6642
Pd 10.9671 37.6743 18.5535
Pd 10.9707 39.5877 20.4742
Pd 12.8543 37.6822 20.4675
Co 12.9005 39.5419 18.6054
Pd 10.9741 37.6724 22.3705
Pd 10.9803 39.5709 24.2956
Pd 12.871 37.6726 24.2984
Co 12.8552 39.5859 22.366
Pd 10.9785 37.671 26.2254
Pd 10.9802 39.5697 28.1563
Pd 12.8709 37.6714 28.1524
Co 12.8819 39.558 26.226
Pd 10.974 37.67 30.0803
Pd 10.9706 39.584 31.9777
Pd 12.8541 37.6785 31.9833
Co 12.8551 39.5835 30.086
Pd 10.9669 37.6695 33.8973
Pd 12.8445 37.6758 35.7866
Co 12.9003 39.5371 33.8465
Pd 12.8535 41.471 20.4748
Pd 10.9824 41.4581 22.3702
Pd 10.9981 43.3487 24.3035
Pd 12.869 41.4602 24.2963
Co 12.9157 43.3125 22.4218
Pd 11.0092 41.43 26.2265
Pd 10.998 43.3475 28.1508
Pd 12.8689 41.459 28.1569
Co 12.8792 43.3454 26.2272
Pd 10.9823 41.4557 30.0829
Pd 12.8533 41.4674 31.9783
Co 12.9156 43.3101 30.0326
Pd 12.8754 45.2118 24.3022
Pd 11.0623 45.1524 26.2277
Pd 12.8753 45.2106 28.1533
Co 13.0128 46.9628 26.2283
Pd 14.8024 5.3418 24.2727
Pd 16.7331 3.55077 24.3412
Co 16.748 5.36642 22.4348
Pd 14.8631 3.62478 26.2147
Pd 14.8024 5.34058 28.1578
Pd 16.733 3.5496 28.0883
Co 16.7131 5.37721 26.2153
Co 16.7479 5.36404 29.9958
Pd 14.7786 9.06674 20.4644
Pd 16.6762 7.19367 20.4799
Co 16.7185 9.11304 18.6053
Pd 14.7909 7.21213 22.3593
Pd 14.7814 9.08697 24.2871
Pd 16.6884 7.21349 24.2901
Co 16.6694 9.07603 22.3616
Pd 14.8109 7.23418 26.2158
Pd 14.7813 9.08576 28.1458
Pd 16.6884 7.21228 28.1416
Co 16.6902 9.10535 26.2165
Pd 14.7908 7.20971 30.0723
Pd 14.7785 9.06313 31.9684
Pd 16.6761 7.19006 31.9518
Co 16.6693 9.0736 30.0713
Co 16.7183 9.10826 33.8276
Pd 14.7653 12.8477 16.6564
Pd 16.6564 10.9674 16.6607
Co 16.7041 12.9021 14.793
Pd 14.7722 10.9696 18.5451
Pd 14.7637 12.8562 20.4597
Pd 16.6625 10.9709 20.4631
Co 16.6503 12.8503 18.5449
Pd 14.7728 10.9755 22.3621
Pd 14.772 12.8717 24.2906
Pd 16.6759 10.9815 24.2913
Co 16.6727 12.8746 22.3806
Pd 14.773 10.9786 26.217
Pd 14.7719 12.8705 28.1446
Pd 16.6758 10.9803 28.1428
Co 16.6741 12.8753 26.2176
Pd 14.7727 10.973 30.0719
Pd 14.7635 12.8526 31.9755
Pd 16.6624 10.9672 31.971
Co 16.6726 12.8722 30.0547
Pd 14.772 10.9647 33.8889
Pd 14.765 12.8417 35.7788
Pd 16.6561 10.9614 35.7734
Co 16.6501 12.8454 33.8904
Co 16.7038 12.8949 37.6423
Pd 14.7667 16.6522 12.8559
Pd 16.6516 14.768 12.8553
Co 16.7109 16.7127 10.9948
Pd 14.7641 14.7642 14.7391
Pd 14.7579 16.6501 16.6551
Pd 16.6506 14.758 16.6546
Co 16.6458 16.6465 14.7449
Pd 14.7598 14.7587 18.5483
Pd 14.7648 16.6634 20.4689
Pd 16.6651 14.7638 20.4683
Co 16.6661 16.6656 18.5693
Pd 14.7661 14.7639 22.3774
Pd 14.7763 16.6714 24.3011
Pd 16.6742 14.7741 24.3006
Co 16.6727 16.671 22.3883
Pd 14.775 14.7716 26.2182
Pd 14.7763 16.6702 28.1365
Pd 16.6741 14.7729 28.1359
Co 16.6781 16.6754 26.2188
Pd 14.766 14.7615 30.059
Pd 14.7647 16.6598 31.9687
Pd 16.6649 14.7601 31.9681
Co 16.6726 16.6686 30.0494
Pd 14.7596 14.7539 33.8881
Pd 14.7577 16.6441 35.7825
Pd 16.6504 14.752 35.7819
Co 16.6659 16.6608 33.8683
Pd 14.7638 14.757 37.6973
Pd 14.7664 16.6438 39.5817
Pd 16.6512 14.7596 39.5811
Co 16.6455 16.6392 37.6928
Co 16.7105 16.7031 41.4429
Pd 14.79 20.4711 9.07061
Pd 16.6733 18.5886 9.0632
Co 16.7481 20.5401 7.21722
Pd 14.7766 18.5761 10.9436
Pd 14.7667 20.4594 12.8651
Pd 16.6545 18.5627 12.8632
Co 16.66 20.4592 10.9626
Pd 14.7596 18.5602 14.7509
Pd 14.7646 20.47 16.6676
Pd 16.6624 18.563 16.6665
Co 16.6674 20.4734 14.7766
Pd 14.7641 18.5635 18.5675
Pd 14.7784 20.4791 20.4847
Pd 16.6733 18.5738 20.4835
Co 16.6722 20.4778 18.5809
Pd 14.7769 18.574 22.39
Pd 14.7862 20.484 24.3069
Pd 16.6806 18.5789 24.306
Co 16.6827 20.4845 22.3979
Pd 14.7809 18.5757 26.2194
Pd 14.7861 20.4828 28.1331
Pd 16.6806 18.5777 28.1329
Co 16.6861 20.4855 26.22
Pd 14.7768 18.5716 30.0488
Pd 14.7783 20.4755 31.9553
Pd 16.6731 18.5702 31.9553
Co 16.6826 20.4821 30.0422
Pd 14.7639 18.5587 33.8714
Pd 14.7644 20.464 35.7724
Pd 16.6622 18.557 35.7724
Co 16.672 20.473 33.8591
Pd 14.7593 18.553 37.6879
Pd 14.7664 20.451 39.5749
Pd 16.6541 18.5544 39.5756
Co 16.6671 20.4662 37.6634
Pd 14.7762 18.5665 41.4952
Pd 14.7896 20.4603 43.3694
Pd 16.6729 18.5778 43.3757
Co 16.6596 20.4496 41.4774
Co 16.7476 20.5282 45.2229
Pd 14.8479 24.3064 5.33424
Pd 16.7396 22.4214 5.30468
Co 16.8388 24.383 3.59974
Pd 14.8164 22.3978 7.17227
Pd 14.8004 24.2889 9.09867
Pd 16.6813 22.3822 9.0941
Co 16.7046 24.282 7.21417
Pd 14.7774 22.3769 10.9693
Pd 14.7741 24.2969 12.8798
Pd 16.6697 22.3805 12.8818
Co 16.6836 24.3021 11.0007
Pd 14.768 22.379 14.7737
Pd 14.7766 24.3025 16.6833
Pd 16.6723 22.3885 16.685
Co 16.6728 24.302 14.7889
Pd 14.7772 22.3887 18.5825
Pd 14.7857 24.306 20.4925
Pd 16.6821 22.3936 20.493
Co 16.6798 24.3065 18.5916
Pd 14.7884 22.3932 22.3985
Pd 14.7967 24.307 24.3106
Pd 16.6898 22.3956 24.3104
Co 16.6893 24.3077 22.4025
Pd 14.7928 22.3942 26.2206
Pd 14.7966 24.3058 28.1318
Pd 16.6897 22.3944 28.1309
Co 16.6942 24.3071 26.2212
Pd 14.7883 22.3908 30.0427
Pd 14.7856 24.3024 31.95
Pd 16.682 22.39 31.9483
Co 16.6892 24.3053 30.04
Pd 14.777 22.3839 33.8587
Pd 14.7764 24.2965 35.7592
Pd 16.6721 22.3825 35.7562
Co 16.6796 24.3017 33.8508
Pd 14.7677 22.3718 37.6675
Pd 14.7738 24.2885 39.5626
Pd 16.6694 22.3721 39.5595
Co 16.6725 24.2948 37.6536
Pd 14.777 22.3673 41.4719
Pd 14.7999 24.2782 43.3437
Pd 16.6808 22.3714 43.3472
Co 16.6832 24.2925 41.4417
Pd 14.8159 22.3858 45.269
Pd 14.8473 24.2932 47.1082
Pd 16.7391 22.4082 47.1366
Co 16.7041 24.2701 45.2283
Co 16.8383 24.3687 48.8428
Pd 15.0316 26.2275 3.50842
Pd 14.8473 28.1474 5.33545
Pd 16.7662 26.2271 5.41854
Co 16.8383 28.0725 3.6009
Pd 14.8368 26.2263 7.22368
Pd 14.7998 28.1624 9.09989
Pd 16.6986 26.226 9.11253
Co 16.704 28.1711 7.21539
Pd 14.7895 26.2251 10.9948
Pd 14.7735 28.1521 12.8811
Pd 16.6771 26.2248 12.8989
Co 16.683 28.1487 11.0019
Pd 14.779 26.2239 14.7859
Pd 14.7761 28.1441 16.6845
Pd 16.6769 26.2236 16.6923
Co 16.6722 28.1464 14.7901
Pd 14.7819 26.2227 18.5894
Pd 14.7851 28.1382 20.4937
Pd 16.6853 26.2224 20.4978
Co 16.6792 28.1395 18.5928
Pd 14.7927 26.2215 22.4024
Pd 14.7961 28.1347 24.3118
Pd 16.694 26.2212 24.3119
Co 16.6887 28.1359 22.4037
Pd 14.8007 26.2203 26.2218
Pd 14.7961 28.1335 28.133
Pd 16.694 26.22 28.1318
Co 16.6936 28.134 26.2224
Pd 14.7926 26.2191 30.0412
Pd 14.785 28.1346 31.9512
Pd 16.6851 26.2188 31.9459
Co 16.6886 28.1335 30.0412
Pd 14.7817 26.2179 33.8542
Pd 14.7758 28.1381 35.7604
Pd 16.6766 26.2176 35.7513
Co 16.679 28.1347 33.852
Pd 14.7787 26.2167 37.6577
Pd 14.7732 28.1437 39.5638
Pd 16.6767 26.2164 39.5448
Co 16.6719 28.1392 37.6548
Pd 14.7891 26.2155 41.4488
Pd 14.7993 28.1517 43.345
Pd 16.6981 26.2152 43.3311
Co 16.6826 28.1391 41.4429
Pd 14.8363 26.2143 45.2199
Pd 14.8467 28.1342 47.1094
Pd 16.7657 26.2141 47.0251
Co 16.7035 28.1591 45.2295
Pd 15.031 26.2132 48.9352
Co 16.8377 28.0583 48.8439
Pd 16.7384 30.033 5.30707
Pd 14.8152 30.0548 7.17467
Pd 14.7883 31.9803 9.07423
Pd 16.6801 30.0698 9.09651
Co 16.7463 31.913 7.22079
Pd 14.7762 30.0733 10.9717
Pd 14.7649 31.9896 12.8688
Pd 16.6685 30.069 12.8842
Co 16.6582 31.9916 10.9663
Pd 14.7668 30.0687 14.7761
Pd 14.7629 31.9766 16.6712
Pd 16.6712 30.0587 16.6874
Co 16.6657 31.9749 14.7803
Pd 14.776 30.0567 18.5849
Pd 14.7766 31.965 20.4883
Pd 16.681 30.0512 20.4954
Co 16.6705 31.9682 18.5845
Pd 14.7872 30.0498 22.4009
Pd 14.7844 31.9578 24.3105
Pd 16.6886 30.0468 24.3128
Co 16.6809 31.9591 22.4015
Pd 14.7916 30.0464 26.223
Pd 14.7844 31.9566 28.1368
Pd 16.6886 30.0456 28.1333
Co 16.6843 31.9557 26.2236
Pd 14.7871 30.0474 30.0451
Pd 14.7765 31.9614 31.9589
Pd 16.6808 30.0476 31.9507
Co 16.6808 31.9566 30.0458
Pd 14.7758 30.0519 33.8611
Pd 14.7626 31.9706 35.776
Pd 16.6709 30.0527 35.7587
Co 16.6703 31.9634 33.8628
Pd 14.7665 30.0615 37.6699
Pd 14.7646 31.9812 39.5785
Pd 16.6682 30.0606 39.5619
Co 16.6654 31.9677 37.667
Pd 14.7758 30.0637 41.4743
Pd 14.7878 31.9695 43.373
Pd 16.6796 30.059 43.3496
Co 16.6578 31.982 41.481
Pd 14.8147 30.0428 45.2714
Pd 16.7379 30.0198 47.139
Co 16.7459 31.9011 45.2265
Pd 16.671 33.8633 9.068
Pd 14.7742 33.8741 10.9484
Pd 14.7638 35.7967 12.8619
Pd 16.6521 33.8868 12.8681
Co 16.7079 35.7381 11.0008
Pd 14.7572 33.8876 14.7557
Pd 14.755 35.7965 16.6612
Pd 16.6601 33.8841 16.6713
Co 16.6428 35.8019 14.7509
Pd 14.7618 33.8819 18.5723
Pd 14.7619 35.7808 20.4749
Pd 16.6709 33.871 20.4883
Co 16.6632 35.7803 18.5753
Pd 14.7745 33.869 22.3948
Pd 14.7734 35.7704 24.3071
Pd 16.6783 33.8635 24.3108
Co 16.6697 35.7725 22.3943
Pd 14.7785 33.8649 26.2242
Pd 14.7733 35.7692 28.1425
Pd 16.6782 33.8623 28.1377
Co 16.6752 35.7658 26.2248
Pd 14.7744 33.8666 30.0536
Pd 14.7617 35.7772 31.9747
Pd 16.6708 33.8674 31.9601
Co 16.6696 35.7701 30.0554
Pd 14.7616 33.8771 33.8762
Pd 14.7547 35.7904 35.7885
Pd 16.6598 33.8781 35.7772
Co 16.663 35.7755 33.8743
Pd 14.7569 33.8804 37.6927
Pd 14.7634 35.7883 39.5877
Pd 16.6517 33.8784 39.5804
Co 16.6425 35.7947 37.6988
Pd 14.7738 33.8645 41.5
Pd 16.6705 33.8526 43.3805
Co 16.7075 35.7285 41.4488
Pd 16.6481 37.6816 12.8625
Pd 14.7606 37.6836 14.7463
Pd 14.7611 39.5988 16.6648
Pd 16.6471 37.6891 16.6618
Co 16.7 39.5462 14.8014
Pd 14.7563 37.6867 18.5555
Pd 14.7596 39.588 20.4681
Pd 16.6615 37.681 20.4755
Co 16.6461 39.5957 18.5533
Pd 14.7626 37.6791 22.3846
Pd 14.7679 39.57 24.299
Pd 16.6706 37.6683 24.3078
Co 16.6686 39.5689 22.389
Pd 14.7714 37.669 26.2254
Pd 14.7678 39.5688 28.153
Pd 16.6706 37.667 28.1431
Co 16.6699 39.5659 26.226
Pd 14.7625 37.6767 30.0662
Pd 14.7594 39.5844 31.9839
Pd 16.6614 37.6774 31.9754
Co 16.6685 39.5665 30.0631
Pd 14.7561 37.6818 33.8953
Pd 14.7609 39.5928 35.7872
Pd 16.6468 37.6831 35.7891
Co 16.6459 39.5909 33.8988
Pd 14.7603 37.6764 37.7045
Pd 16.6477 37.6732 39.5883
Co 16.6997 39.5391 37.6506
Pd 16.6516 41.4797 16.6703
Pd 14.7674 41.4758 18.5547
Pd 14.7733 43.3774 20.4752
Pd 16.6578 41.4739 20.4727
Co 16.7132 43.3329 18.6161
Pd 14.7681 41.4675 22.3717
Pd 14.7761 43.3548 24.2978
Pd 16.6712 41.4609 24.3009
Co 16.6641 43.3676 22.3724
Pd 14.7682 41.4619 26.2266
Pd 14.776 43.3536 28.1566
Pd 16.6711 41.4597 28.1523
Co 16.6849 43.3358 26.2272
Pd 14.768 41.4651 30.0815
Pd 14.7732 43.3738 31.9792
Pd 16.6577 41.4703 31.9806
Co 16.664 43.3651 30.0821
Pd 14.7672 41.471 33.8985
Pd 16.6514 41.4737 35.783
Co 16.713 43.3281 33.8384
Pd 16.6704 45.2511 20.4919
Pd 14.785 45.2309 22.3713
Pd 14.796 47.1 24.2859
Pd 16.6825 45.2289 24.302
Co 16.7415 47.0771 22.4479
Pd 14.805 45.2064 26.2278
Pd 14.7959 47.0988 28.1709
Pd 16.6825 45.2277 28.1536
Co 16.7067 47.064 26.2284
Pd 14.7849 45.2284 30.0843
Pd 16.6702 45.2475 31.9638
Co 16.7414 47.0748 30.0089
Pd 16.7261 48.8916 24.3554
Pd 14.8561 48.8158 26.2289
Pd 16.726 48.8904 28.1025
Pd 18.6006 5.29774 20.4884
Pd 20.5404 3.52668 20.5299
Co 20.5497 5.35879 18.6334
Pd 18.6384 3.53177 22.434
Pd 18.6385 5.34518 24.3359
Pd 20.5119 3.4397 24.3092
Co 20.5186 5.32588 22.4107
Pd 18.6083 3.45716 26.2147
Pd 18.6384 5.344 28.0947
Pd 20.5119 3.4385 28.1202
Co 20.5294 5.29849 26.2153
Pd 18.6383 3.5294 29.9955
Pd 18.6004 5.29414 31.9422
Pd 20.5402 3.52311 31.8996
Co 20.5185 5.32348 30.02
Co 20.5495 5.35402 33.7973
Pd 18.5809 9.06275 16.666
Pd 20.4785 7.19842 16.6775
Co 20.5211 9.12561 14.8016
Pd 18.5953 7.19154 18.5631
Pd 18.5815 9.07413 20.4727
Pd 20.4909 7.19424 20.4905
Co 20.4697 9.0721 18.5616
Pd 18.6002 7.19759 22.3813
Pd 18.5916 9.09939 24.2897
Pd 20.5194 7.21284 24.3106
Co 20.4987 9.09794 22.3936
Pd 18.6059 7.23399 26.2159
Pd 18.5916 9.09818 28.1432
Pd 20.5193 7.21165 28.1212
Co 20.507 9.10884 26.2165
Pd 18.6001 7.19518 30.0505
Pd 18.5814 9.07052 31.9602
Pd 20.4907 7.19064 31.9413
Co 20.4986 9.09553 30.0394
Pd 18.5951 7.18673 33.8687
Pd 18.5807 9.05675 35.767
Pd 20.4783 7.19243 35.7543
Co 20.4695 9.06728 33.8714
Co 20.5208 9.11844 37.6314
Pd 18.5717 12.8567 12.8559
Pd 20.4653 10.9836 12.8601
Co 20.5182 12.9212 10.9986
Pd 18.5754 10.9728 14.7431
Pd 18.5619 12.8564 16.6566
Pd 20.4634 10.9764 16.6628
Co 20.4549 12.8575 14.7472
Pd 18.5704 10.9703 18.5552
Pd 18.5698 12.872 20.4696
Pd 20.4817 10.9812 20.4762
Co 20.477 12.8767 18.5724
Pd 18.5766 10.9822 22.3802
Pd 18.5805 12.8811 24.3012
Pd 20.4938 10.9953 24.3026
Co 20.4845 12.8843 22.3898
Pd 18.5848 10.9887 26.2171
Pd 18.5805 12.8799 28.1342
Pd 20.4938 10.9941 28.1316
Co 20.4893 12.8899 26.2177
Pd 18.5765 10.9798 30.054
Pd 18.5697 12.8683 31.9657
Pd 20.4816 10.9776 31.958
Co 20.4844 12.8819 30.0456
Pd 18.5702 10.9655 33.879
Pd 18.5616 12.8504 35.7787
Pd 20.4631 10.9704 35.7714
Co 20.4768 12.8719 33.863
Pd 18.5751 10.9656 37.6911
Pd 18.5714 12.8483 39.5794
Pd 20.4649 10.9752 39.5741
Co 20.4546 12.8503 37.6882
Co 20.5178 12.9116 41.4368
Pd 18.5862 16.6763 9.06263
Pd 20.4693 14.7936 9.0689
Co 20.5371 16.7522 7.21608
Pd 18.5749 14.779 10.9425
Pd 18.5615 16.6563 12.8627
Pd 20.4588 14.7691 12.8634
Co 20.4574 16.663 10.9615
Pd 18.5601 14.7608 14.7497
Pd 18.5629 16.6631 16.6659
Pd 20.4705 14.7659 16.6659
Co 20.4728 16.6693 14.7755
Pd 18.5646 14.7642 18.5663
Pd 18.5749 16.6728 20.483
Pd 20.4808 14.7785 20.483
Co 20.4783 16.6729 18.5798
Pd 18.5762 14.7758 22.3889
Pd 18.5811 16.679 24.3054
Pd 20.4868 14.7851 24.3052
Co 20.4862 16.6823 22.3967
Pd 18.5791 14.7787 26.2183
Pd 18.581 16.6778 28.1323
Pd 20.4867 14.7839 28.1314
Co 20.4883 16.6845 26.2189
Pd 18.5761 14.7734 30.0477
Pd 18.5747 16.6692 31.9548
Pd 20.4806 14.7749 31.9536
Co 20.4861 16.6799 30.0411
Pd 18.5644 14.7594 33.8702
Pd 18.5627 16.6571 35.7718
Pd 20.4702 14.7599 35.7707
Co 20.4781 16.6681 33.858
Pd 18.5598 14.7536 37.6868
Pd 18.5612 16.6479 39.575
Pd 20.4584 14.7607 39.5731
Co 20.4725 16.6621 37.6623
Pd 18.5745 14.7694 41.4941
Pd 18.5858 16.6655 43.3751
Pd 20.4688 14.7828 43.3677
Co 20.457 16.6534 41.4763
Co 20.5366 16.7403 45.2217
Pd 18.6395 20.5313 5.29152
Pd 20.5272 18.6442 5.29095
Co 20.6104 20.6157 3.57133
Pd 18.6102 18.6138 7.15397
Pd 18.5863 20.477 9.09062
Pd 20.474 18.5898 9.09005
Co 20.4942 20.4983 7.19645
Pd 18.5686 18.571 10.9663
Pd 18.5674 20.4733 12.8833
Pd 20.4714 18.5698 12.8827
Co 20.4832 20.4861 11.0041
Pd 18.5631 18.5644 14.7732
Pd 18.5734 20.4787 16.6853
Pd 20.478 18.5746 16.6848
Co 20.4775 20.4793 14.7938
Pd 18.5737 18.5738 18.5811
Pd 18.5816 20.4852 20.493
Pd 20.4857 18.5817 20.4924
Co 20.485 20.4857 18.5938
Pd 18.5814 18.5803 22.3971
Pd 18.5879 20.4887 24.3099
Pd 20.4903 18.5868 24.3093
Co 20.491 20.4906 22.4031
Pd 18.5846 18.5824 26.2195
Pd 18.5878 20.4875 28.1302
Pd 20.4902 18.5856 28.1297
Co 20.4936 20.492 26.2201
Pd 18.5813 18.5779 30.0418
Pd 18.5815 20.4816 31.9471
Pd 20.4855 18.5781 31.9466
Co 20.4909 20.4882 30.0371
Pd 18.5735 18.569 33.8578
Pd 18.5731 20.4727 35.7548
Pd 20.4778 18.5686 35.7542
Co 20.4848 20.4809 33.8463
Pd 18.5628 18.5572 37.6657
Pd 18.567 20.4649 39.5568
Pd 20.4711 18.5614 39.5562
Co 20.4772 20.4721 37.6464
Pd 18.5682 18.5614 41.4726
Pd 18.5858 20.4662 43.3495
Pd 20.4736 18.579 43.3489
Co 20.4828 20.4766 41.4361
Pd 18.6097 18.6018 45.285
Pd 18.6389 20.5181 47.1486
Pd 20.5266 18.631 47.1481
Co 20.4937 20.4863 45.2437
Co 20.6098 20.6014 48.8689
Pd 18.7461 22.5314 3.44461
Pd 18.6618 24.3359 5.38142
Pd 20.5519 22.4472 5.36648
Co 20.5678 24.3567 3.51817
Pd 18.6119 22.3999 7.20933
Pd 18.5943 24.3018 9.12323
Pd 20.4985 22.3993 9.11952
Co 20.5365 24.3286 7.25361
Pd 18.5785 22.3838 11.0006
Pd 18.5776 24.3045 12.9041
Pd 20.4817 22.3922 12.9103
Co 20.4909 24.3066 11.028
Pd 18.5738 22.3893 14.7929
Pd 18.5781 24.3068 16.6963
Pd 20.4834 22.3941 16.6998
Co 20.483 24.308 14.8097
Pd 18.5802 22.3937 18.5933
Pd 18.5866 24.3086 20.4997
Pd 20.4904 22.3981 20.5011
Co 20.488 24.309 18.6024
Pd 18.5883 22.3971 22.4033
Pd 18.593 24.309 24.3126
Pd 20.4952 22.4001 24.3127
Co 20.4947 24.3103 22.4077
Pd 18.5917 22.3975 26.2207
Pd 18.593 24.3078 28.1299
Pd 20.4952 22.3989 28.1287
Co 20.4972 24.31 26.2213
Pd 18.5882 22.3947 30.038
Pd 18.5865 24.305 31.9428
Pd 20.4903 22.3946 31.9403
Co 20.4946 24.3079 30.0349
Pd 18.58 22.3889 33.8481
Pd 18.5778 24.3008 35.7462
Pd 20.4832 22.3881 35.7416
Co 20.4878 24.3042 33.8402
Pd 18.5735 22.3821 37.6484
Pd 18.5772 24.2961 39.5384
Pd 20.4814 22.3838 39.5311
Co 20.4827 24.3008 37.6329
Pd 18.5781 22.3743 41.4407
Pd 18.5939 24.291 43.3193
Pd 20.498 22.3886 43.3218