4033
Atoms. Timestep: 20904
Co 16.859 40.4583 29.6866
Pd 12.4625 29.0817 30.7939
Pd 19.5075 10.5212 18.2673
Co 7.73561 23.1854 35.334
Pd 7.24584 38.7104 31.436
Pd 11.8356 20.6701 25.4133
Pd 21.705 7.02316 36.2338
Co 9.57407 25.3873 29.5706
Co 10.8561 24.9057 39.2221
Pd 7.50173 19.6509 27.2068
Pd 6.82944 23.0792 37.8351
Co 7.05766 29.9113 33.4346
Pd 6.0969 28.8561 27.9058
Pd 4.7243 19.4426 23.8786
Pd 12.9746 23.6162 40.8289
Co 11.7966 19.4104 40.4899
Pd 6.45068 21.0233 25.1496
Pd 19.3317 38.7665 40.4448
Pd 15.3283 30.8218 24.8514
Co 13.6249 39.8474 22.3376
Pd 26.8486 34.0229 46.6018
Pd 13.9107 34.515 34.9919
Pd 8.52663 17.5776 16.0662
Co 10.5737 19.4431 30.4693
Co 10.3134 36.1878 24.4598
Pd 28.0875 21.9273 4.9204
Pd 16.0161 10.5677 16.9109
Co 28.4673 29.3537 21.5029
Pd 7.74435 19.6589 34.7874
Pd 17.7324 14.513 15.8951
Pd 20.8408 14.8312 36.8809
Co 13.6628 26.8128 33.5932
Pd 8.69408 21.7905 23.4954
Pd 8.05509 34.3928 31.2377
Pd 10.391 28.6743 37.0841
Co 10.9398 11.3652 28.2543
Pd 16.7894 34.3226 22.8223
Pd 19.2038 27.0677 43.2034
Pd 20.2458 28.3693 48.6279
Co 15.0612 24.785 39.949
Pd 19.1012 37.6617 32.2457
Pd 14.6815 46.257 22.3061
Pd 9.06128 33.916 33.7229
Co 20.9504 33.2885 26.7139
Pd 6.69974 26.3293 31.4909
Pd 9.64105 21.7867 43.1338
Pd 10.5595 35.4259 31.8045
Co 15.0528 39.0673 37.8722
Co 15.4552 34.5854 40.0113
Pd 12.4994 15.4112 10.1687
Pd 5.29525 30.6411 31.4991
Pd 10.2284 24.0732 9.58125
Pd 8.30011 20.2883 19.5032
Co 9.74638 18.1732 18.3149
Pd 8.02599 22.7467 16.0043
Pd 14.1235 38.5045 11.3528
Pd 5.07763 15.8072 21.9299
Co 7.21187 21.8747 28.5853
Pd 3.04153 26.278 25.8964
Pd 9.32396 32.1546 35.7455
Pd 11.1425 33.3293 41.0616
Co 23.8404 34.017 9.61383
Pd 8.48296 14.2914 25.5809
Pd 21.0049 39.8829 35.2304
Pd 12.1508 42.2361 23.9932
Co 12.474 10.8764 30.247
Pd 8.96279 38.2691 22.7465
Pd 15.5936 29.5579 41.6553
Pd 8.06839 28.1679 26.2096
Co 19.7824 31.4093 32.359
Pd 10.7697 40.3514 22.8035
Pd 15.9545 38.3166 28.4972
Pd 5.11913 32.3319 24.9454
Co 21.9529 33.5201 41.1244
Pd 17.0311 15.5575 30.6
Pd 15.3454 44.0923 20.946
Co 9.26226 31.3322 33.3554
Pd 6.82209 26.1446 12.2632
Pd 3.07895 24.3094 30.1125
Pd 16.5867 27.113 27.7171
Pd 12.7468 15.8312 20.8033
Co 5.37316 18.6908 26.3908
Pd 10.5308 26.2415 8.24438
Pd 3.75026 27.6719 22.0358
Pd 5.26622 28.2837 32.8085
Co 5.19252 23.0972 29.2973
Pd 18.5047 41.685 35.7389
Pd 5.3699 23.9065 31.6945
Pd 15.3403 27.121 21.0757
Co 13.69 23.9816 19.3126
Pd 9.36946 13.4694 36.498
Pd 7.72298 30.5886 13.9291
Pd 17.8966 31.9418 34.0977
Co 22.7577 42.8284 41.2062
Pd 8.58014 29.5582 35.3772
Pd 10.2511 26.6538 41.0532
Co 18.6614 38.7344 22.526
Pd 20.389 33.0087 19.3852
Pd 14.1833 43.793 23.3635
Pd 10.3229 24.1451 41.6702
Pd 10.8625 32.827 38.242
Co 21.4145 39.3718 16.5651
Pd 12.061 39.1045 20.4522
Pd 6.27003 27.1307 21.8209
Pd 14.4373 34.5431 26.0249
Co 14.3383 33.0251 29.7909
Pd 8.61289 29.3372 28.6648
Pd 14.4803 33.2619 23.418
Co 11.7625 28.6783 41.5984
Pd 9.63634 19.3348 32.9153
Pd 8.55409 36.719 32.7804
Pd 16.2242 30.8691 18.9286
Co 21.3661 25.4619 42.4995
Co 7.18032 24.574 33.3031
Pd 21.0559 11.7761 9.13307
Pd 16.0013 10.6493 13.0821
Co 13.4425 29.9039 43.0664
Pd 9.76368 13.9591 18.7123
Pd 18.4874 29.4255 18.5868
Pd 17.7504 7.46378 19.8193
Co 16.2491 15.2724 17.8227
Co 15.1327 16.6587 39.7669
Pd 10.6823 40.9213 25.9364
Pd 18.1713 21.4261 11.389
Co 28.1881 14.1591 11.7635
Pd 11.7007 20.1332 16.0937
Pd 18.752 19.2411 16.0979
Pd 12.8605 15.4591 25.5595
Co 7.15261 15.8561 23.5924
Pd 16.6359 20.4254 17.5887
Pd 23.6085 11.1128 37.0982
Pd 21.6492 4.38611 18.1281
Co 12.9337 13.1301 24.6407
Pd 12.9298 15.3924 28.3162
Pd 17.1303 21.7429 35.1665
Pd 27.9055 11.2588 33.4889
Co 13.0066 11.7107 33.8995
Co 11.3386 16.8908 27.1621
Pd 9.07587 13.4924 28.3435
Pd 18.0551 22.0976 16.1479
Co 11.7302 13.5016 16.5713
Pd 10.5566 9.65291 24.3352
Pd 11.5593 14.8539 23.176
Pd 11.5161 12.269 14.2869
Co 15.8942 21.7139 26.113
Pd 20.8048 8.54581 17.1069
Pd 8.98205 17.2516 22.6621
Pd 8.5123 25.6009 26.5548
Co 7.62126 15.4833 14.922
Pd 15.0592 14.6319 20.025
Pd 9.03485 15.9171 37.4586
Pd 8.55175 21.3015 36.7478
Co 7.10633 19.4388 32.23
Pd 13.0657 19.9954 38.2869
Pd 11.5076 24.639 31.8807
Pd 11.6785 32.7045 34.5915
Co 9.0164 16.6928 33.0161
Pd 13.2031 25.1289 38.1846
Pd 9.21601 26.0117 32.0813
Pd 28.564 13.5574 8.0191
Co 8.25686 37.4231 25.3256
Co 20.2573 17.5569 33.6532
Pd 23.3132 9.07238 16.8281
Pd 16.0288 13.3059 13.4559
Co 20.4569 27.7416 19.4473
Pd 8.12531 23.0257 10.9453
Pd 4.18276 28.7749 26.2175
Pd 15.2331 9.23511 29.9273
Co 16.5324 31.6749 22.768
Pd 17.2101 25.0065 8.31401
Pd 10.3528 23.2001 36.2137
Pd 4.72932 19.4591 31.2438
Co 22.4698 12.756 14.8288
Pd 10.5002 15.7798 29.4471
Pd 15.0318 19.2187 19.2539
Pd 18.0367 24.7507 28.6135
Co 14.1821 32.5104 33.4626
Pd 14.8006 11.7985 29.5133
Pd 10.5472 24.5393 44.2742
Pd 10.745 13.2377 21.0979
Co 15.3548 19.2216 31.5577
Pd 24.5228 27.2079 48.4512
Pd 24.1808 42.2018 43.323
Pd 6.65527 13.0805 29.4787
Co 13.3167 41.4913 26.1564
Pd 7.54953 23.3466 25.6661
Pd 12.2737 40.3345 32.4542
Pd 2.80676 23.2423 25.7203
Co 20.1377 36.8704 41.8152
Pd 11.5179 24.7674 27.9004
Pd 14.8653 44.3292 34.3133
Pd 9.41382 28.897 32.675
Co 25.053 36.2991 36.7732
Co 11.7716 25.4498 34.3603
Pd 3.72902 27.2457 28.4418
Pd 21.0928 7.70927 25.1817
Pd 8.86449 20.1803 16.6839
Pd 7.14842 26.4153 16.7323
Co 6.50307 30.2936 25.6992
Pd 15.31 18.7308 10.1144
Pd 6.98015 25.9195 24.3291
Pd 13.6103 10.6765 38.205
Co 8.19087 22.8191 13.4694
Pd 15.6675 20.668 11.9696
Pd 16.6882 16.3561 7.52026
Pd 6.21485 16.445 16.8113
Co 12.9843 35.8113 32.9384
Pd 16.2115 19.0493 26.0888
Pd 10.2449 29.1664 17.0442
Pd 22.2416 24.8282 31.9629
Co 18.3717 29.2739 27.8999
Pd 5.28082 19.5128 33.9396
Pd 4.34918 22.1474 23.8731
Pd 10.1948 39.1995 36.2447
Co 9.5375 26.964 15.7571
Pd 7.53915 13.9337 16.8866
Pd 28.4898 37.1742 26.7869
Pd 14.4771 42.4522 32.4808
Co 11.2331 12.8479 35.0218
Pd 15.8449 21.5406 32.675
Pd 11.9788 37.6607 31.4992
Pd 16.5291 27.2276 43.0518
Co 15.1826 15.288 34.4284
Pd 22.5841 28.8834 31.6577
Pd 20.6934 5.77303 26.8889
Pd 7.5821 28.8675 38.0352
Co 6.24097 36.3604 31.6656
Pd 9.26267 25.041 34.6572
Pd 18.2609 20.2394 39.4665
Co 18.2328 32.7766 46.8673
Pd 8.72966 29.9711 24.2382
Pd 14.1709 22.8778 27.7576
Pd 14.0686 29.3478 19.7581
Pd 16.8353 28.903 29.8095
Co 6.54537 30.8847 29.2177
Pd 11.2193 25.6184 19.6879
Pd 9.27331 35.2158 19.5025
Pd 6.23095 19.1242 15.8399
Co 4.88071 32.4811 20.2461
Pd 4.1275 23.091 21.4134
Pd 20.5243 31.3876 22.028
Pd 19.7611 26.2647 21.6452
Co 6.40522 38.6824 26.0841
Pd 15.5622 22.9635 41.7546
Pd 23.3232 37.8063 26.4335
Pd 12.0689 32.3088 22.9976
Co 12.1566 41.1548 28.1191
Pd 12.0191 22.6676 43.1554
Pd 12.6652 27.8709 35.6581
Pd 8.68419 36.5434 35.337
Co 20.1169 37.5434 34.4927
Pd 17.0052 38.4326 30.976
Pd 10.3681 40.8198 34.0895
Pd 21.8529 35.8846 45.5963
Co 11.9496 34.4932 25.4562
Pd 17.6322 36.3325 40.9795
Pd 21.3557 37.6698 31.0728
Co 16.2072 32.3956 31.8119
Pd 9.25068 23.3469 32.5271
Pd 7.68864 31.6917 31.39
Pd 5.74816 33.3583 22.469
Pd 14.0014 37.4481 21.9971
Co 15.2774 43.5097 17.4179
Pd 11.4734 31.2999 27.2574
Pd 8.02744 36.0306 14.9798
Pd 14.8349 46.497 29.5111
Co 8.35325 35.0148 25.8203
Pd 21.2082 34.8385 43.0647
Pd 23.7925 28.2169 16.8784
Pd 14.8569 34.5281 31.6783
Co 14.8842 35.8143 23.9442
Pd 13.6751 44.292 30.5561
Pd 13.838 45.0586 18.9284
Pd 25.9789 39.6403 34.9728
Co 10.8096 33.1728 15.7913
Pd 8.4598 39.6744 27.0462
Pd 20.9161 39.498 38.343
Co 12.9986 41.6953 30.3695
Pd 11.888 40.2112 16.2155
Pd 17.3102 44.53 26.4403
Pd 16.8094 40.2873 23.5966
Pd 8.38774 38.9795 34.1527
Co 10.8527 33.7946 21.2868
Pd 6.39115 20.9517 22.3973
Pd 21.3684 41.5721 23.6491
Pd 6.60556 23.4783 23.1724
Co 22.0355 39.661 25.377
Pd 24.5899 48.2979 22.1515
Pd 13.3976 38.1288 29.2428
Co 21.4082 36.3552 22.546
Pd 16.613 37.8094 15.2388
Pd 5.69719 28.9989 14.4506
Pd 27.4094 40.3252 40.7559
Co 17.8318 40.8053 21.3505
Co 16.804 17.2586 19.2605
Pd 22.1754 7.49083 31.8468
Pd 21.0615 12.4091 39.9194
Co 7.21691 18.5037 18.0305
Pd 32.9201 8.65528 14.7888
Pd 28.7238 32.5168 5.30281
Pd 15.3238 17.697 35.2441
Co 11.015 17.2796 31.6513
Co 17.1349 24.3872 43.2919
Pd 22.2577 10.2643 14.5584
Pd 35.9108 10.4723 25.1644
Co 19.8241 8.37711 32.5532
Pd 23.6204 3.74061 29.7915
Pd 7.00532 17.2972 28.4587
Pd 9.36389 11.3783 22.6922
Co 21.6604 28.553 21.4982
Pd 21.3145 21.5162 33.0592
Pd 17.4104 15.354 20.9955
Pd 9.28487 11.7311 26.2331
Co 6.91422 14.849 27.5828
Pd 18.3005 12.1642 9.56378
Pd 29.2124 7.2161 19.614
Pd 13.4991 29.5049 26.3547
Co 7.012 19.5059 29.7445
Co 14.8748 9.16365 36.5007
Pd 10.2537 19.5741 23.5796
Pd 17.0012 9.11637 15.0618
Co 14.9024 12.1167 20.6438
Pd 14.1883 14.0774 11.7812
Pd 10.4753 23.0297 30.0473
Pd 9.15015 23.3872 27.8315
Co 18.0717 9.1311 21.7313
Pd 4.97035 24.5145 25.1219
Pd 11.0446 25.898 36.7817
Pd 25.5842 9.29934 21.8519
Co 17.7549 9.32791 33.1982
Pd 33.6363 8.4279 19.5181
Pd 14.8131 8.58691 26.0872
Pd 13.1887 23.7015 30.1084
Co 15.7974 8.78684 20.9308
Pd 17.3336 9.80435 25.6412
Pd 6.09862 21.9217 19.9578
Pd 8.80772 12.8324 30.9394
Co 18.5169 14.0068 13.5144
Pd 20.1551 23.6342 48.8328
Pd 26.3002 13.9035 22.4828
Pd 8.29363 22.4284 41.0569
Co 9.29282 31.7978 40.0123
Co 17.5665 22.8533 30.7294
Pd 9.80631 15.1795 16.2893
Pd 30.849 17.466 13.4073
Co 13.7587 16.0675 13.3932
Pd 15.8971 12.2888 10.8561
Pd 9.99348 21.5709 14.5571
Pd 37.4101 16.3169 8.69687
Co 18.4371 16.824 17.1722
Pd 7.05278 19.0749 11.5763
Pd 11.1538 23.0126 19.3696
Pd 7.33799 14.8701 32.3884
Co 9.20346 17.7653 12.0287
Pd 18.3479 29.9853 23.3965
Pd 19.1425 10.7294 31.2934
Pd 10.6221 18.7562 20.6314
Co 11.2221 22.2 23.4671
Pd 14.9094 16.9253 25.1338
Pd 11.0727 29.8509 34.57
Pd 9.84917 9.38399 26.9917
Co 10.3633 23.918 21.7126
Pd 20.0875 15.035 29.7643
Pd 7.71499 27.47 40.5286
Pd 7.74578 20.723 39.1547
Co 18.5021 15.8049 45.3584
Pd 19.4942 7.93719 37.6558
Pd 15.6958 24.4795 37.6305
Pd 11.005 21.7664 40.7428
Co 25.4027 20.5474 17.0383
Pd 13.6467 17.0601 32.9951
Pd 12.1321 10.6114 35.9633
Pd 18.7344 13.4111 31.3703
Co 16.6546 19.5163 33.9767
Co 14.7309 15.7273 42.4013
Pd 14.1766 20.5132 14.2337
Pd 23.079 24.3283 17.4324
Co 14.3166 28.893 5.97366
Pd 12.6949 13.5596 19.2088
Pd 19.1101 16.2588 12.3463
Pd 14.3509 16.8422 8.46489
Co 23.8772 27.5163 5.01257
Pd 7.73966 15.6302 12.4623
Pd 12.1921 8.51295 26.2445
Pd 17.6357 14.321 11.078
Co 8.75282 22.4594 18.5531
Pd 7.31036 17.8118 13.7997
Pd 5.8641 14.4033 25.1856
Pd 12.3461 18.1137 25.1645
Co 16.8891 33.7438 29.8553
Pd 11.295 29.1719 28.5513
Pd 13.574 26.7269 19.0073
Pd 2.94288 22.2432 28.1416
Co 14.0764 20.4069 27.1872
Pd 8.98379 13.1661 33.7315
Pd 10.3065 19.5772 35.7763
Pd 15.7487 23.9264 35.0701
Co 10.9339 21.4478 32.0061
Pd 12.6103 15.1745 41.2347
Pd 11.3349 43.3309 29.5686
Pd 23.0784 26.36 40.5291
Co 19.8559 9.9222 25.7295
Pd 13.04 8.34887 31.0363
Pd 6.19005 28.4304 35.6634
Pd 12.3334 24.5046 23.6104
Co 9.92754 30.3347 30.6922
Pd 11.7011 22.0968 27.6378
Pd 9.55388 20.8158 28.6092
Pd 13.3728 12.947 27.4307
Co 28.8073 18.369 46.2697
Pd 23.3569 23.8323 42.0615
Pd 19.5914 19.6358 34.9487
Pd 14.2695 13.2227 42.5541
Co 15.4824 23.8942 31.6825
Co 16.5443 40.8806 32.3215
Pd 12.9496 30.2156 9.99168
Pd 26.3113 40.2431 10.7859
Pd 16.9108 28.324 5.14191
Pd 6.4469 21.2011 17.509
Co 23.9128 15.9585 13.2061
Pd 14.2258 19.6184 16.6849
Pd 9.70702 18.5962 25.9736
Pd 14.2548 16.7719 18.7641
Co 16.6415 26.2778 16.982
Pd 18.7383 32.7311 23.3548
Pd 10.7023 22.8269 12.2386
Pd 7.04785 21.8645 33.2687
Co 12.2964 24.6681 12.8604
Pd 8.16256 12.8232 20.7703
Pd 5.7802 26.5317 26.7218
Pd 4.59695 18.0132 28.9717
Co 6.60136 28.4943 24.0499
Pd 8.90179 30.834 26.6381
Pd 11.0676 35.2726 34.548
Pd 6.54583 25.505 35.7297
Co 9.09162 27.2827 20.8592
Pd 13.8574 26.0303 31.2487
Pd 5.21335 23.5297 34.6314
Pd 17.1507 28.5542 25.3603
Co 6.10421 21.532 30.8981
Pd 11.2831 37.6997 39.4259
Pd 26.7407 26.2621 33.9122
Pd 14.7438 37.0699 31.225
Co 18.3891 33.4851 32.033
Pd 12.4285 33.5066 31.9794
Pd 16.8842 17.2084 37.5156
Pd 20.903 40.9041 40.7443
Co 12.7797 36.9312 35.2594
Pd 15.3259 17.2011 44.4395
Pd 11.6259 30.5465 39.2859
Pd 17.9933 30.8463 40.0134
Co 8.37655 27.1381 36.3496
Pd 14.1849 17.6776 37.6465
Pd 16.2062 20.4352 41.2043
Pd 31.8369 30.3322 36.7289
Co 12.4224 39.529 34.9659
Pd 16.4589 31.0297 45.8947
Pd 32.0953 19.6175 48.9785
Co 21.7288 27.8503 42.3872
Pd 6.87066 24.037 18.0877
Pd 8.65401 24.8057 37.3167
Pd 8.28706 16.07 18.4058
Pd 22.342 26.4776 12.636
Co 12.116 28.3232 15.2548
Pd 16.9097 30.4073 14.0456
Pd 4.06628 20.4586 21.5133
Pd 7.64199 23.8596 30.3428
Co 26.4886 23.1788 29.7767
Pd 4.66493 25.9183 17.5972
Pd 8.03188 30.9061 18.0067
Pd 3.97965 29.8602 29.2733
Co 11.8327 30.7322 15.6155
Pd 11.5544 44.7614 23.7506
Pd 31.2194 43.2892 35.6289
Pd 21.9419 32.5352 16.0921
Co 15.0737 26.1243 9.18254
Pd 15.7008 40.2709 26.2071
Pd 10.7587 36.95 29.3122
Pd 18.0492 32.8965 18.1305
Co 8.24884 32.9417 38.0957
Pd 8.23481 40.0723 24.5091
Pd 3.87694 26.4026 31.4256
Pd 12.7035 44.627 21.3648
Co 29.9851 38.8486 33.414
Pd 17.0973 22.1365 28.2917
Pd 11.7771 30.9822 20.6507
Pd 25.7072 27.0683 39.8665
Co 14.923 34.3587 37.6614
Pd 13.2358 28.1879 45.21
Pd 9.03107 32.0929 29.0189
Pd 8.23834 18.7277 37.4504
Co 20.5411 39.8591 27.6664
Pd 16.7256 42.1962 27.9475
Pd 4.40522 21.7072 32.9982
Co 12.1756 35.8009 41.1888
Pd 17.1275 35.0743 16.349
Pd 9.58307 42.6057 24.3145
Pd 8.23671 33.8418 21.755
Pd 14.2094 34.2342 12.7581
Co 9.75305 27.8149 30.3359
Pd 9.48076 24.8273 17.2205
Pd 16.3972 41.5713 19.2883
Pd 6.36295 32.9297 18.0397
Co 21.863 44.4352 16.9854
Pd 12.1827 35.2619 14.2788
Pd 18.2064 37.1132 27.2034
Pd 5.93761 34.8081 24.8013
Co 12.6416 29.3511 17.6739
Pd 10.4182 38.5474 25.0503
Pd 22.3199 26.3135 20.5729
Pd 22.0154 19.7042 22.3147
Co 4.68686 25.2476 22.7085
Pd 17.3752 46.509 30.685
Pd 16.6673 21.7633 37.7844
Pd 21.3452 49.2028 27.7587
Co 10.0088 32.8014 31.4999
Pd 11.8773 41.2439 36.7994
Pd 17.6062 35.5746 24.9247
Pd 10.081 41.5526 31.255
Co 26.2728 36.5432 46.3042
Pd 16.5023 32.4674 38.2891
Pd 6.41033 36.297 26.8807
Co 17.5461 37.3628 34.4433
Pd 16.5765 35.0512 18.9613
Pd 8.98029 17.398 35.3695
Pd 22.0949 35.5719 27.419
Pd 21.2546 30.2736 14.8116
Co 28.2827 42.7121 17.846
Pd 10.2053 27.4114 34.6587
Pd 27.2029 48.9602 21.8107
Pd 6.48045 37.913 23.5977
Co 19.5035 45.5452 26.906
Pd 6.6328 38.2132 28.7693
Pd 16.7893 37.6112 36.84
Pd 13.9366 43.0711 28.1578
Co 8.99083 39.0813 29.4752
Pd 27.6982 42.4139 22.5216
Pd 21.4305 35.2051 14.4206
Pd 19.2529 24.9823 38.9288
Co 20.2501 36.5566 28.7333
Pd 12.5984 45.3013 28.2501
Pd 13.7434 41.5425 14.8211
Co 10.5387 43.0937 22.0136
Pd 16.8751 43.9677 36.11
Pd 14.8337 38.5701 24.2577
Pd 15.5157 31.5826 43.3946
Pd 13.6646 31.7928 18.9058
Co 12.3891 32.8363 14.0184
Pd 28.8336 34.5586 28.0049
Pd 28.3209 42.8128 31.6224
Pd 18.5298 39.7155 33.8503
Co 22.3583 33.5433 45.0457
Pd 12.594 35.1981 16.7889
Pd 17.7763 39.5499 13.5755
Co 6.77061 33.2464 29.3973
Pd 9.9718 33.3596 26.7001
Pd 11.572 37.805 22.7113
Pd 13.7088 46.384 24.7236
Co 22.3394 30.2055 42.5155
Pd 24.4114 15.4795 21.7084
Pd 38.5581 9.13532 29.1463
Co 25.5844 11.0218 32.5117
Pd 35.3533 8.66086 36.2333
Pd 12.7767 22.8872 21.4836
Pd 33.4112 5.55513 20.1465
Co 11.9467 12.6518 37.503
Co 17.262 20.121 20.2737
Pd 5.80738 19.3509 19.9084
Pd 43.8332 14.9082 19.5951
Co 24.5566 13.9733 15.0219
Pd 16.1351 10.2678 27.7814
Pd 16.7525 20.0392 14.6782
Pd 23.3554 6.6596 34.1577
Co 14.022 10.1171 21.7791
Pd 27.0976 5.22943 15.6672
Pd 21.6186 11.3198 24.4156
Pd 11.0953 12.3394 32.3301
Co 12.7754 23.8817 35.9196
Pd 22.9275 16.9408 17.6647
Pd 17.6912 10.4036 35.6616
Pd 14.6823 17.0619 30.3298
Co 28.2472 4.86825 30.6874
Co 33.8217 4.30963 22.649
Pd 18.9248 18.6939 10.8113
Pd 24.4352 11.776 21.6668
Co 21.7218 7.131 21.3497
Pd 25.0259 12.4936 11.0438
Pd 16.1659 23.0554 18.1127
Pd 26.9938 5.94959 18.1543
Co 15.7934 13.7847 22.3453
Pd 13.8903 14.5866 17.1633
Pd 26.7155 11.3141 28.5528
Pd 5.07479 16.9487 24.4054
Co 6.73406 24.4018 27.9169
Pd 36.9614 13.1973 11.5734
Pd 13.9568 17.7224 27.4477
Pd 17.864 6.76617 32.8601
Co 8.22789 22.653 21.1285
Pd 18.552 21.9477 18.8107
Pd 15.1944 28.3732 31.8753
Pd 35.0116 8.4472 26.7568
Co 5.34227 28.0494 30.1996
Pd 20.3121 6.52357 19.0659
Pd 14.9753 11.4599 40.4172
Pd 15.2124 12.8224 33.6195
Co 29.6714 8.54675 17.6046
Co 9.30526 26.8813 38.6294
Pd 13.2911 22.0115 17.6746
Pd 29.9365 28.1027 7.16801
Co 14.5789 16.5012 11.0711
Pd 26.5449 11.8399 17.6505
Pd 21.0101 8.97754 12.8048
Pd 28.6783 15.847 13.9522
Co 23.5258 17.7013 14.8781
Pd 25.398 5.0213 20.3315
Pd 11.2323 17.5027 37.1832
Pd 11.6453 15.9211 18.1636
Co 14.1075 15.554 23.1039
Pd 20.0428 8.86383 20.2202
Pd 19.7975 22.7655 21.2201
Pd 36.9324 15.7892 11.2959
Co 20.7375 17.8135 26.1906
Pd 16.2668 23.4369 24.2858
Pd 13.0429 16.2646 35.5847
Pd 18.3604 17.818 29.9691
Co 16.191 10.9005 37.6409
Pd 7.55506 26.8111 28.9397
Pd 8.36421 11.0116 28.6788
Pd 26.1899 8.62926 36.9564
Co 20.8298 25.3785 34.3551
Pd 16.5634 25.6181 47.5928
Pd 8.59273 21.1746 31.0284
Pd 8.59805 17.8129 30.8791
Co 15.214 36.4231 33.8999
Pd 4.89834 16.2476 26.9736
Pd 9.6055 29.1346 39.909
Pd 32.4187 12.3501 40.222
Co 8.13217 17.8628 20.2396
Co 14.5238 40.5471 28.5536
Pd 15.9562 29.833 27.3658
Pd 10.4553 17.1521 9.64625
Co 23.7143 26.7779 10.5292
Pd 20.2086 11.7651 13.5142
Pd 9.98708 10.6887 20.2756
Pd 15.0955 18.0004 14.433
Co 31.2442 24.0771 8.07191
Pd 20.6633 20.5015 11.8707
Pd 19.42 7.92677 14.7537
Pd 38.308 31.4907 14.9308
Co 13.5321 17.0653 16.3719
Pd 6.32888 13.6457 22.5238
Pd 40.0516 15.751 24.7938
Pd 17.8965 24.7134 22.6434
Co 16.904 12.0885 24.669
Pd 24.4009 8.76518 14.2754
Pd 6.86129 32.3446 33.892
Pd 21.0692 4.7148 20.884
Co 15.4663 12.7433 18.3686
Pd 24.917 6.79836 15.9679
Pd 14.3075 28.1872 29.0525
Pd 13.2415 25.5489 21.3907
Co 15.2598 15.1669 27.0344
Pd 13.2401 20.9651 44.6235
Pd 18.3497 25.5202 34.2529
Pd 12.7956 27.3139 24.3339
Co 14.4684 24.5181 46.6172
Pd 16.4674 7.9955 34.9553
Pd 10.7099 17.3918 41.7278
Pd 6.73897 26.3595 38.2437
Co 15.7778 24.0155 29.3713
Pd 8.9961 14.2738 22.905
Pd 12.6778 14.4729 33.4599
Pd 6.11608 17.1825 31.182
Co 17.5853 16.8012 43.4167
Pd 9.46747 22.7677 38.78
Pd 17.0741 35.9467 32.0422
Pd 24.1626 31.6811 29.2445
Co 15.0101 26.0015 44.7089
Co 13.139 29.4314 37.4916
Pd 41.607 27.1924 7.83367
Pd 29.9902 30.644 6.93268
Co 42.5741 22.1791 17.9417
Pd 8.28205 39.3885 20.3859
Pd 17.0852 16.775 10.1349
Pd 14.0472 7.71983 22.7031
Co 18.8697 34.6762 9.70249
Pd 29.7914 18.2161 6.05528
Pd 4.83471 31.2851 27.2953
Pd 11.7502 14.4251 12.79
Co 9.01192 27.5005 12.0229
Pd 23.2885 3.48953 20.038
Pd 5.92252 35.5619 29.3872
Pd 19.7352 15.8301 14.9197
Co 18.9188 23.9504 14.3425
Pd 19.0855 21.2286 13.9124
Pd 8.3662 11.7904 18.4027
Pd 9.07905 27.2627 18.3948
Co 8.18102 25.4129 22.0705
Pd 21.033 17.8095 15.9042
Pd 19.9079 14.141 20.8441
Pd 27.9218 29.7952 19.0553
Co 37.5312 21.2484 13.9687
Pd 25.8543 22.6511 20.9219
Pd 20.9502 22.7827 42.7025
Pd 21.098 29.5079 23.725
Co 17.1421 25.5836 41.0821
Pd 25.2809 30.2886 45.6375
Pd 9.02367 27.3786 23.7441
Pd 12.1188 21.331 36.2243
Co 21.2468 26.9799 25.7242
Pd 19.0509 32.0607 30.0553
Pd 23.1219 40.4581 36.7485
Pd 21.5162 21.2795 35.7893
Co 16.6069 26.1906 35.9732
Pd 10.8163 37.8374 33.9722
Pd 6.83004 12.4567 26.8927
Pd 13.8499 27.5091 42.7847
Co 14.4682 40.2852 33.774
Pd 10.9459 26.3904 22.3552
Pd 14.5582 39.7697 31.1073
Pd 24.1315 26.5262 30.9633
Co 17.402 23.4572 33.2168
Pd 21.2484 14.5037 42.0117
Pd 17.7987 28.0827 40.9338
Pd 12.1216 22.6797 38.4638
Co 20.7246 6.36265 33.6981
Co 22.6019 31.3624 35.5584
Pd 35.3251 22.4836 7.16882
Pd 23.8303 37.5939 16.3553
Pd 21.7911 26.3077 5.6717
Co 32.3509 25.2261 17.0372
Pd 9.74256 34.3682 13.7849
Pd 22.6561 23.0045 7.9651
Pd 13.5372 8.08091 20.1123
Co 9.88426 16.3954 13.9667
Pd 25.656 28.3846 15.0801
Pd 10.3992 24.2597 14.7535
Pd 7.87845 25.0993 14.6601
Co 10.651 20.5411 18.5503
Pd 6.63858 26.4124 19.3121
Pd 8.45439 37.4951 18.3774
Pd 11.5596 26.874 17.3046
Co 10.9975 17.5663 16.289
Pd 12.3925 21.1386 29.8732
Pd 13.6043 22.5813 25.1168
Pd 7.56589 27.236 33.8329
Co 30.1226 22.8456 12.8503
Pd 16.9691 15.8044 23.5923
Pd 12.9206 26.2339 40.6877
Pd 10.0855 33.8442 23.8131
Co 24.9535 34.3689 35.0418
Pd 25.0606 32.7936 45.0301
Pd 18.4813 40.9443 41.7192
Pd 20.0025 29.0584 36.4413
Co 13.3298 21.9252 32.1424
Pd 12.7763 35.368 30.1227
Pd 18.9473 26.6136 26.7077
Pd 4.98792 20.5281 28.552
Co 16.031 38.6195 33.1924
Pd 21.284 35.5975 32.9417
Pd 23.3712 31.6022 38.0419
Pd 28.3596 39.4766 43.1612
Co 17.5632 17.7472 39.887
Pd 16.516 41.2744 37.4297
Pd 22.6802 23.3059 48.8616
Pd 31.925 36.8947 37.8242
Co 22.1427 31.255 33.0984
Pd 17.7044 28.0272 47.8834
Pd 8.27196 24.8906 39.9795
Pd 20.4547 20.4726 41.2921
Co 23.2792 40.4069 41.8117
Pd 13.6639 33.9404 42.0177
Pd 23.3209 32.4742 47.1891
Pd 15.5704 27.8136 46.394
Co 20.1572 30.7893 34.6827
Pd 18.8116 14.4092 43.288
Co 15.0578 19.468 45.6434
Pd 30.0149 34.9785 13.5156
Pd 34.3241 40.6112 11.2242
Pd 5.97723 23.8661 13.2078
Pd 10.6683 22.4508 16.8538
Co 16.4408 33.1202 25.0888
Pd 15.8097 25.4359 19.1364
Pd 15.3593 21.6681 7.10037
Pd 6.23749 31.1186 16.0691
Co 14.2208 28.7704 8.38151
Pd 15.1147 28.5817 23.534
Pd 11.715 16.954 12.1892
Pd 24.4134 26.2667 18.8342
Co 16.6667 28.4497 15.9065
Pd 10.3625 21.2942 21.2207
Pd 16.4942 29.5193 21.2148
Pd 16.9187 34.5954 27.2729
Co 14.2608 39.0442 15.6627
Pd 6.74797 17.3095 33.7613
Pd 6.55771 31.0262 23.1207
Pd 14.6471 28.9202 14.4324
Co 4.69746 27.118 24.2892
Pd 25.7693 29.8264 22.4167
Pd 18.9779 35.8843 22.4322
Pd 12.8276 36.2882 27.4787
Co 21.7817 20.8636 5.44894
Pd 19.1712 28.4879 38.8273
Pd 30.8461 36.1365 27.6394
Pd 24.0943 33.9269 39.8567
Co 25.175 33.9342 37.5841
Pd 20.741 32.1492 43.2342
Pd 25.063 36.6449 39.428
Pd 11.0526 31.4443 17.972
Co 12.5773 39.7114 24.5263
Pd 22.0345 37.3362 43.4594
Pd 9.71787 41.3943 28.5823
Pd 31.949 23.0026 39.1603
Co 20.1414 35.1625 37.8682
Pd 21.6614 31.1568 30.6138
Pd 16.1735 34.2154 42.4286
Pd 20.1091 26.8011 40.7085
Co 18.8643 36.3149 36.2384
Pd 19.7104 24.7062 44.3535
Pd 27.638 28.8492 45.4837
Co 13.5643 38.164 33.2614
Pd 31.6136 20.7933 12.4768
Pd 5.38948 28.4279 17.0058
Pd 11.4866 33.911 18.7363
Pd 7.29331 33.9304 35.9579
Co 8.67796 37.2499 27.6672
Pd 15.2535 32.4613 27.3931
Pd 5.64308 33.5572 31.7204
Pd 11.5405 27.2923 32.3909
Co 10.0099 35.8801 22.0004
Pd 10.9706 38.7607 27.5441
Pd 10.5933 29.1201 22.3918
Pd 10.7843 26.1372 25.4193
Co 8.93855 19.2853 9.85891
Pd 21.6007 46.8114 27.0968
Pd 17.572 42.248 17.0538
Pd 20.6614 34.2549 24.2684
Co 5.73524 35.815 22.2905
Pd 6.48658 34.5654 20.0324
Pd 17.3884 28.4206 36.7882
Pd 27.7872 38.3293 19.9038
Co 24.585 36.0494 25.168
Pd 23.1246 33.9357 25.5888
Pd 16.836 43.1402 23.5982
Pd 11.448 39.7202 29.9679
Co 20.8732 45.6553 18.8562
Pd 25.913 31.3663 38.3784
Pd 14.0786 34.6228 18.7622
Pd 29.5477 35.913 37.2324
Co 27.6429 37.999 33.6536
Pd 29.9043 40.811 39.6878
Pd 18.1125 47.3966 21.1299
Pd 18.3765 24.4245 17.4503
Co 20.6478 32.4392 36.4467
Pd 23.9842 35.7089 32.6887
Pd 24.1035 22.1935 32.9941
Co 20.9865 18.2691 42.4487
Pd 8.95331 33.3298 17.4205
Pd 10.0126 35.5322 16.4151
Pd 15.0643 35.2886 21.243
Pd 9.68189 34.5899 36.7133
Co 19.3708 27.5053 24.0439
Pd 13.2696 32.0438 11.775
Pd 15.6189 32.9749 17.2533
Pd 14.2119 27.5188 16.629
Co 10.6298 31.5165 24.8524
Pd 17.7238 44.7446 16.2338
Pd 25.3908 41.7062 21.1009
Pd 14.8258 36.6709 16.8385
Co 20.5239 27.5776 7.53801
Pd 30.295 27.4255 42.2973
Pd 16.0737 39.0646 21.1016
Pd 5.23185 30.5974 18.582
Co 16.3083 37.8187 12.5536
Pd 17.8527 31.9458 27.8029
Pd 24.9441 29.7015 27.4573
Pd 21.7868 44.1989 26.3158
Co 14.5766 34.5413 15.3041
Pd 21.3352 40.327 30.1325
Pd 15.9953 44.6007 31.8506
Pd 23.4882 33.3101 31.3126
Co 20.2206 29.1314 32.685
Pd 22.9279 43.9441 30.4989
Pd 19.5447 48.099 23.4946
Co 18.9213 41.6741 23.279
Pd 12.7697 36.9869 24.9758
Pd 25.8395 43.8022 28.7633
Pd 27.7219 39.229 28.4133
Pd 16.4875 35.2708 35.8522
Co 18.7421 38.7665 9.49853
Pd 25.9588 39.7887 15.9238
Pd 26.5526 46.718 22.996
Pd 24.7439 44.1243 25.8735
Co 19.4689 25.933 9.34073
Pd 17.7376 37.0505 20.3947
Pd 23.4426 34.8935 16.0155
Pd 22.4192 41.8412 32.136
Co 21.0594 36.9384 39.2947
Pd 16.3386 41.2009 40.1937
Pd 18.0172 39.7524 27.3295
Pd 17.6755 42.7931 30.734
Co 20.2499 32.7613 11.0407
Pd 20.4569 30.9429 27.8792
Pd 25.46 33.771 24.5459
Co 26.0264 32.6582 31.1389
Pd 15.1001 36.1004 11.2406
Pd 27.5971 48.06 29.594
Pd 26.6851 33.4122 39.9381
Pd 23.2715 43.1748 37.2408
Co 25.3991 34.3652 18.2601
Pd 28.4037 41.7161 27.0286
Pd 28.7576 45.9803 28.2322
Pd 9.41677 32.4811 19.7813
Co 25.1369 41.6122 40.9402
Pd 19.4992 43.8398 24.6459
Pd 22.9821 40.5072 27.6432
Co 29.6559 45.1798 30.9639
Pd 28.2238 43.7564 20.2332
Pd 29.1033 48.2047 26.9764
Pd 18.9188 40.5021 31.3862
Pd 40.5913 16.5159 28.7056
Pd 18.9263 5.73783 24.7592
Co 25.4669 19.346 10.4509
Pd 29.2054 23.566 9.77139
Pd 15.531 8.22904 32.4643
Pd 20.6927 13.9605 23.3258
Co 27.236 20.1003 21.639
Pd 25.6968 9.60858 30.3137
Pd 22.3843 8.28678 19.1828
Pd 6.31802 18.045 22.1156
Co 24.2821 6.61022 36.5913
Pd 27.2605 5.07583 22.5308
Pd 22.6767 9.68223 26.2426
Pd 24.7094 7.99411 25.4283
Co 19.8895 6.23101 31.3366
Co 19.7709 13.9076 27.1725
Pd 32.7268 18.1108 9.20393
Pd 19.51 24.9697 6.87251
Co 39.3958 13.39 12.566
Pd 37.9247 23.8008 13.4023
Pd 32.2129 10.8491 11.0049
Pd 24.6079 20.1815 21.1456
Co 22.9474 5.8674 19.6227
Pd 11.5975 10.606 16.2255
Pd 14.1409 11.1333 14.9262
Pd 21.5278 11.8332 21.9538
Co 36.6177 21.753 27.1216
Pd 13.6145 9.1326 34.2573
Pd 19.8942 10.5717 11.0826
Pd 17.7469 8.38475 30.6659
Co 19.4462 12.6851 25.1305
Pd 3.50128 21.7681 30.6345
Pd 21.7519 6.05673 29.4997
Pd 35.1669 6.03607 24.0803
Co 12.8872 18.8994 35.7278
Pd 27.4153 14.8996 31.9242
Pd 11.7786 19.4092 27.7598
Pd 22.8879 13.5062 38.1239
Co 10.4701 12.9105 24.4183
Co 20.9204 8.56618 27.6968
Pd 37.9154 18.7711 13.1395
Pd 15.6799 8.17636 18.3254
Co 28.465 30.4069 11.2856
Pd 25.474 6.90191 23.0961
Pd 8.43171 25.927 10.069
Pd 9.41227 13.9304 13.9243
Co 28.6182 13.4064 13.9571
Pd 13.2968 13.4592 21.8913
Pd 25.6446 12.3105 8.40313
Pd 24.3394 11.481 16.0629
Co 23.9561 10.1987 23.9105
Pd 25.2741 19.0084 41.943
Pd 20.6885 17.926 21.0727
Pd 18.5759 8.20163 23.9793
Co 20.3163 16.5149 7.28395
Pd 26.1929 9.57921 34.5406
Pd 24.4327 25.0921 33.4346
Pd 21.0817 12.0492 36.9415
Co 14.8911 27.2488 25.8948
Pd 23.5188 12.6848 32.8146
Pd 25.3616 9.96216 39.0175
Pd 9.53189 18.1613 28.5384
Co 37.1594 10.2123 33.0979
Pd 11.5661 17.3852 22.686
Pd 5.31355 15.3792 29.4826
Pd 29.0074 7.51909 36.7788
Co 14.2442 19.5366 33.7396
Pd 18.2205 21.8821 42.1024
Pd 26.628 15.9522 26.9112
Pd 19.004 13.2718 38.0497
Co 12.1163 24.4209 17.4169
Co 9.11461 15.9331 27.385
Pd 9.04265 20.6966 12.0895
Pd 22.0912 7.52995 14.9255
Co 18.539 9.79794 13.1817
Pd 42.6891 16.9023 13.4351
Pd 27.1967 8.80407 18.6019
Pd 17.1364 10.2832 19.3922
Co 15.6352 12.9759 16.0143
Pd 15.5562 14.6676 9.46694
Pd 26.8084 25.3212 6.80811
Pd 34.5509 26.8885 10.6833
Co 28.1974 15.9975 9.22602
Pd 10.2099 14.811 31.9266
Pd 20.5591 15.4913 17.3848
Pd 30.6411 10.995 16.6297
Co 18.8913 29.2768 6.38676
Pd 19.8241 10.447 34.129
Pd 9.2788 21.2662 25.9851
Pd 3.72622 20.6158 26.071
Co 24.4803 15.0663 10.9042
Pd 24.7057 14.84 24.9436
Pd 21.4455 30.7551 48.6298
Pd 32.9624 10.103 26.1339
Co 29.7001 9.49323 32.7728
Pd 23.259 8.63227 29.7241
Pd 18.9579 10.892 23.4861
Pd 13.5214 12.9795 31.4448
Co 21.6882 8.61569 34.1172
Pd 22.1829 19.1043 33.6614
Pd 15.8071 32.5663 35.7256
Pd 16.8614 14.7995 38.7026
Co 16.6054 10.6458 31.5616
Pd 23.2806 17.3227 42.9345
Pd 17.0641 20.7305 46.2995
Pd 15.841 36.9806 39.1966
Co 21.129 14.8601 39.4467
Pd 27.925 13.096 39.1812
Pd 10.408 20.2152 38.4457
Pd 15.975 17.8838 41.8444
Co 11.3673 14.8899 36.8573
Co 9.53162 21.561 34.29
Pd 10.2954 39.4385 18.3633
Pd 16.893 18.4178 12.3914
Co 7.76264 20.3219 14.2416
Pd 28.0868 38.8306 7.044
Pd 33.6434 21.2857 14.1939
Pd 13.7644 27.7395 10.6883
Co 8.41383 19.663 21.8846
Pd 27.8099 29.4026 16.3386
Pd 13.8243 22.5438 12.5142
Pd 17.4999 22.4496 8.85142
Co 13.8217 19.5288 8.20717
Pd 24.3029 21.1105 11.8716
Pd 22.351 21.859 20.9601
Pd 12.6325 29.9573 23.9415
Co 14.6309 24.3095 14.0817
Pd 22.2349 11.6703 11.853
Pd 17.2469 22.138 21.7619
Pd 18.9228 16.1901 27.7587
Co 21.2006 17.8656 11.3563
Pd 19.6211 15.6579 25.1246
Pd 21.75 22.5534 38.0718
Pd 28.4336 22.5262 14.7343
Co 9.98887 27.1461 27.829
Pd 18.3772 18.6055 32.4687
Pd 13.4219 25.0566 25.9126
Pd 42.8553 11.0167 23.2599
Co 25.1096 24.5612 40.4959
Pd 30.3352 21.5116 49.1464
Pd 18.852 27.0241 29.5596
Pd 17.5154 36.2328 29.4964
Co 25.9744 16.5266 14.2133
Pd 19.2137 16.5478 19.6176
Pd 29.0291 16.2226 25.2996
Pd 14.0622 21.9266 34.5792
Co 24.481 19.0512 44.4599
Pd 13.7658 7.63927 28.3646
Pd 9.32419 19.8005 41.1193
Pd 26.3299 22.0698 37.118
Co 15.9486 19.3773 38.6837
Pd 19.6123 22.9491 34.9086
Pd 29.1688 15.7881 28.034
Pd 14.6479 21.8728 39.4699
Co 5.10985 25.8817 33.6061
Pd 25.9634 7.07653 34.752
Pd 35.8666 14.4845 42.2085
Pd 13.5621 13.6666 35.8072
Co 31.2627 18.2305 45.8046
Co 24.7179 16.6329 44.9685
Pd 18.2905 14.6072 8.5032
Pd 29.7875 28.9372 9.6558
Pd 31.0804 31.4332 4.65365
Co 17.0651 26.1053 10.6052
Pd 21.0596 14.2393 13.3619
Pd 11.3156 19.4682 8.57236
Pd 24.7641 30.4956 13.2396
Co 18.1878 27.4593 7.90854
Pd 23.6561 9.49468 11.8016
Pd 5.84843 16.7429 19.4897
Pd 9.48119 28.3665 9.73906
Co 6.54693 21.4509 12.3669
Pd 28.8157 27.4643 18.0779
Pd 29.6747 35.6873 22.538
Pd 24.2263 21.7636 29.8915
Co 5.36474 25.5789 29.5231
Pd 10.9195 23.4432 25.6611
Pd 7.35857 16.8885 25.8702
Pd 13.0382 28.2277 21.8684
Co 21.9704 26.5877 17.9529
Pd 33.9493 7.70589 31.5285
Pd 14.7353 21.9123 22.8353
Pd 15.0719 21.6083 30.094
Co 29.5084 26.9597 20.478
Pd 7.85676 29.2168 21.8475
Pd 4.05363 25.6099 20.2312
Pd 25.7863 22.6984 15.9599
Co 20.3544 31.5951 25.0986
Pd 20.1144 37.981 18.1861
Pd 35.3928 26.8505 34.3968
Pd 26.9741 24.6088 27.1468
Co 22.8774 24.7517 29.4107
Pd 19.593 18.6044 13.5156
Pd 36.6594 35.4136 25.4342
Pd 23.5195 17.2494 32.3081
Co 33.9691 15.0512 17.4535
Pd 16.3107 14.6383 43.9509
Pd 19.9279 34.8786 40.3509
Pd 22.0542 29.1196 34.5904
Co 12.601 25.1334 42.9104
Pd 14.2985 31.1986 38.8294
Pd 8.00012 15.3541 29.9705
Pd 13.8069 30.861 45.3588