4033
Atoms. Timestep: 20250
Co 5.47072 13.0283 26.1935
Pd 3.61862 14.87 26.1974
Pd 5.33625 14.8156 24.2556
Co 5.36123 16.7648 22.4244
Pd 3.54464 16.7356 28.0733
Pd 3.52623 18.6333 29.9831
Pd 5.33587 14.8059 28.1397
Co 5.37341 16.7197 26.2018
Co 5.36156 16.7446 29.9806
Pd 3.51841 20.5627 20.5375
Pd 5.2911 18.6216 20.4866
Co 5.34986 20.5699 18.6433
Pd 3.52505 18.6547 22.4312
Pd 3.43649 20.5261 24.3073
Pd 5.34182 18.6505 24.329
Co 5.32162 20.5369 22.4109
Pd 3.45301 18.6159 26.2056
Pd 3.545 16.7449 24.33
Pd 5.34224 18.6395 28.0839
Co 5.29716 20.5367 26.2112
Pd 3.4367 20.513 28.1139
Pd 3.51918 20.5281 31.8871
Pd 5.29274 18.59 31.9295
Co 5.3229 20.5135 30.0121
Co 5.35079 20.5308 33.7842
Pd 3.4827 26.2601 18.6154
Pd 5.30358 22.4104 16.7106
Co 7.29665 24.4022 12.9648
Pd 3.52133 22.4721 18.6352
Pd 3.43947 24.3503 20.5081
Pd 5.32825 22.4653 20.5356
Co 5.33918 24.3453 18.6136
Pd 3.43048 22.4397 22.4109
Pd 3.41488 24.3383 24.3224
Pd 5.28706 22.4348 24.3134
Co 5.28343 24.3492 22.4262
Pd 3.41943 22.4245 26.2168
Pd 3.41375 24.3236 28.1251
Pd 5.28803 22.4227 28.1198
Co 5.2707 24.3314 26.2229
Pd 3.42997 22.411 30.0201
Pd 3.52271 22.4262 33.795
Pd 5.32958 22.4303 31.8948
Co 5.28502 24.3255 30.0168
Pd 3.46243 26.2255 33.7948
Pd 3.52425 24.3362 35.6384
Pd 5.29873 22.3741 35.7305
Co 5.33378 24.3058 33.8145
Co 9.15212 22.4757 39.4008
Pd 7.30619 26.2816 11.0499
Pd 5.35215 24.3479 14.781
Pd 3.5878 28.1238 16.723
Pd 5.346 26.2493 16.6771
Co 5.43494 28.1286 14.8515
Pd 3.54366 24.3758 16.7744
Pd 3.44156 28.1453 20.5093
Pd 5.30641 26.2446 20.525
Co 5.34699 28.148 18.6136
Pd 3.42052 26.2511 22.423
Pd 3.41515 28.1587 24.3458
Pd 5.27417 26.2445 24.332
Co 5.28804 28.1323 22.4294
Pd 3.41035 26.2429 26.2339
Pd 3.42008 26.2297 30.0301
Pd 5.27725 26.2275 28.1273
Co 5.27391 28.1514 26.2383
Pd 3.43895 24.3113 31.9246
Pd 3.43857 28.1482 31.9139
Pd 5.30259 26.2248 31.9161
Co 5.28774 28.1391 30.0229
Pd 3.53168 28.0659 35.6803
Pd 5.32579 28.0367 37.6853
Pd 5.32973 26.1985 35.7309
Co 5.33784 28.11 33.8371
Pd 5.31477 24.3354 37.6532
Pd 7.31635 26.1329 41.4085
Co 5.56203 26.1633 39.4712
Pd 5.32287 30.0799 16.7017
Pd 3.53681 30.0117 18.6263
Pd 3.5271 31.9153 20.5441
Pd 5.33672 30.0176 20.5411
Co 5.36001 31.9189 18.6561
Pd 3.4339 30.0342 22.4142
Pd 3.44508 31.933 24.2971
Pd 5.29939 30.0301 24.315
Co 5.33293 31.9322 22.4215
Pd 3.44263 28.15 28.1406
Pd 3.45776 30.0802 26.247
Pd 5.26809 30.1108 28.1409
Co 5.32939 31.906 26.2102
Pd 3.47224 30.0927 30.0325
Pd 3.53593 31.889 31.9777
Pd 5.34379 29.9911 31.9399
Co 5.37237 31.9031 30.0852
Pd 3.52702 29.9754 33.8403
Pd 5.30644 30.0221 35.7681
Co 5.36589 31.8803 33.8388
Pd 5.30148 33.8593 20.5159
Pd 3.53124 33.8129 22.4476
Pd 3.5339 35.6499 24.4044
Pd 5.35471 33.7939 24.3528
Co 5.36299 35.699 22.4827
Pd 3.48872 33.7564 26.271
Pd 3.56784 35.6432 28.1415
Pd 5.33596 33.7002 28.1258
Co 5.38038 35.6591 26.264
Pd 3.54979 33.6581 29.9728
Pd 5.29353 33.8278 31.9729
Co 5.35579 35.633 30.0246
Pd 5.32877 37.5928 24.325
Pd 3.64627 37.4811 26.2761
Pd 5.33676 37.5874 28.2197
Co 7.50207 41.3224 26.2826
Co 9.21832 9.25616 26.186
Pd 7.22264 12.8958 24.2671
Pd 9.08396 11.0206 24.2637
Co 9.12459 12.9397 22.3879
Pd 7.27866 11.0803 26.1897
Pd 7.22214 12.8862 28.1202
Pd 9.08392 11.0113 28.1165
Co 9.09031 12.8926 26.194
Co 9.12473 12.9198 30.0011
Pd 7.18823 16.6983 20.4689
Pd 9.06165 14.8006 20.4476
Co 9.1069 16.7437 18.5954
Pd 7.20693 14.8087 22.3421
Pd 7.21041 16.7003 24.2777
Pd 9.08355 14.7936 24.2692
Co 9.07288 16.6861 22.349
Pd 7.2305 14.8179 26.1979
Pd 7.21066 16.6897 28.1268
Pd 9.08363 14.7828 28.1274
Co 9.1038 16.6966 26.2025
Pd 7.20693 14.7885 30.0542
Pd 7.18875 16.6673 31.9373
Pd 9.06155 14.7701 31.9506
Co 9.07269 16.6646 30.0562
Co 9.10643 16.7055 33.8154
Pd 7.19111 20.5089 16.6738
Pd 9.0547 18.6078 16.6635
Co 9.11647 20.5466 14.8083
Pd 7.1842 18.6224 18.5591
Pd 7.18973 20.5125 20.4923
Pd 9.07026 18.6029 20.466
Co 9.06649 20.4942 18.5599
Pd 7.19438 18.6166 22.3752
Pd 7.21107 20.5319 24.3069
Pd 9.09814 18.6032 24.281
Co 9.09612 20.5154 22.3907
Pd 7.23274 18.6126 26.2065
Pd 7.21148 20.5205 28.1159
Pd 9.09805 18.5925 28.1329
Co 9.10899 20.5133 26.2116
Pd 7.19457 18.5953 30.0392
Pd 7.19026 20.4808 31.9334
Pd 9.06969 18.5711 31.9484
Co 9.09583 20.4944 30.0337
Pd 7.18677 18.5801 33.8578
Pd 7.19037 20.4594 35.7443
Pd 9.05385 18.5679 35.7632
Co 9.06491 20.455 33.8621
Co 9.11589 20.5123 37.6639
Pd 5.44888 26.2736 13.0053
Pd 9.05539 22.4345 12.8894
Co 9.23397 26.3125 9.26298
Pd 7.21404 22.4369 14.748
Pd 7.22113 24.3155 16.7024
Pd 9.07934 22.4078 16.6761
Co 9.08901 24.3112 14.7699
Pd 7.1971 22.4216 18.5868
Pd 7.2116 24.3435 20.5098
Pd 9.09288 22.416 20.4901
Co 9.10534 24.3276 18.5965
Pd 7.20557 22.4363 22.4153
Pd 7.18412 24.3373 24.3233
Pd 9.10526 22.4302 24.3154
Co 9.10553 24.3319 22.4115
Pd 7.19005 22.4292 26.2167
Pd 7.18704 24.3253 28.1222
Pd 9.10568 22.4185 28.1181
Co 9.10048 24.3287 26.2228
Pd 7.207 22.4135 30.0179
Pd 7.20868 24.3161 31.9288
Pd 9.09072 22.3878 31.944
Co 9.10385 24.3142 30.0305
Pd 7.19357 22.3842 33.8471
Pd 7.20799 24.2649 35.7401
Pd 9.08012 22.3582 35.7577
Co 9.10169 24.2887 33.8489
Pd 7.21992 22.3465 37.6813
Pd 7.24834 24.2134 39.5584
Pd 8.92907 21.0469 41.3888
Co 9.09675 24.2597 37.6366
Co 9.16858 24.2615 41.2667
Pd 11.0817 26.2874 7.27702
Pd 9.08092 24.3439 10.9864
Pd 7.25398 28.198 12.9062
Pd 9.11992 26.2623 12.9181
Co 9.16629 28.129 11.0377
Pd 7.29661 26.2594 14.8078
Pd 7.22697 28.1806 16.7077
Pd 9.11633 26.2482 16.709
Co 9.10536 28.2087 14.7902
Pd 7.20438 26.2428 18.5965
Pd 7.21777 28.1376 20.5124
Pd 9.11033 26.2386 20.5054
Co 9.10958 28.1599 18.6029
Pd 7.19549 26.2379 22.4242
Pd 7.19212 28.1321 24.3282
Pd 9.10321 26.231 24.324
Co 9.11164 28.1373 22.4165
Pd 7.18036 26.2358 26.2295
Pd 7.16532 28.1435 28.1327
Pd 9.09727 26.2311 28.1294
Co 9.10545 28.1253 26.2324
Pd 7.19368 26.226 30.025
Pd 7.21731 28.1103 31.9469
Pd 9.10869 26.2094 31.9448
Co 9.10941 28.1188 30.0432
Pd 7.20341 26.2051 33.8496
Pd 7.21306 28.1274 35.7611
Pd 9.1056 26.2013 35.7441
Co 9.10428 28.1198 33.861
Pd 7.27901 26.1873 37.6455
Pd 7.25244 28.0964 39.5963
Pd 9.12005 26.1915 39.511
Co 9.09363 28.1425 37.6778
Pd 9.19106 25.9038 43.264
Pd 9.1216 22.8562 43.2915
Co 9.17188 27.9897 41.4487
Pd 9.09124 30.0997 12.8914
Pd 7.21803 30.0879 14.7838
Pd 7.20433 32.0033 16.7064
Pd 9.09011 30.0954 16.6974
Co 9.12836 31.9637 14.8352
Pd 7.20541 30.0703 18.5984
Pd 7.19936 31.9698 20.5111
Pd 9.10189 30.0647 20.5024
Co 9.07731 32.0018 18.5876
Pd 7.21747 30.0347 22.4221
Pd 7.22915 31.9229 24.3235
Pd 9.11639 30.0273 24.3299
Co 9.10681 31.9544 22.4134
Pd 7.20106 30.0233 26.2343
Pd 7.26291 31.9099 28.1505
Pd 9.12133 30.0092 28.14
Co 9.12615 31.9293 26.2367
Pd 7.2199 30.0156 30.0458
Pd 7.20619 31.9402 31.9848
Pd 9.09959 30.0326 31.9728
Co 9.11093 31.9321 30.0744
Pd 7.2041 30.0247 33.8839
Pd 7.1983 31.94 35.7931
Pd 9.08335 30.0373 35.7871
Co 9.07454 31.9552 33.9076
Pd 7.21632 30.0173 37.707
Pd 9.08795 29.9981 39.6023
Co 9.1281 31.8858 37.6685
Pd 9.06838 33.9013 16.7021
Pd 7.19365 33.8783 18.5966
Pd 7.18986 35.7889 20.5292
Pd 9.07543 33.8805 20.505
Co 9.10955 35.7512 18.6473
Pd 7.20381 33.8539 22.4104
Pd 7.2143 35.7497 24.3441
Pd 9.10632 33.8549 24.3215
Co 9.07058 35.7858 22.4106
Pd 7.24776 33.8166 26.2471
Pd 7.19503 35.7182 28.1723
Pd 9.11236 33.8494 28.1745
Co 9.08755 35.762 26.259
Pd 7.21141 33.8245 30.0839
Pd 7.1902 35.7453 31.9834
Pd 9.07958 33.8479 31.9983
Co 9.0749 35.7583 30.1045
Pd 7.19237 33.8322 33.9079
Pd 9.065 33.8342 35.8077
Co 9.11397 35.7013 33.8697
Pd 9.05483 37.6809 20.524
Pd 7.20359 37.6661 22.4331
Pd 7.22735 39.56 24.4216
Pd 9.07332 37.6579 24.3597
Co 9.10598 39.5163 22.487
Pd 7.14652 37.6576 26.2698
Pd 7.23394 39.5465 28.1323
Pd 9.07192 37.6349 28.174
Co 9.12885 39.5266 26.2744
Pd 7.20801 37.6287 30.0997
Pd 9.06228 37.6384 32.0086
Co 9.11723 39.4876 30.0588
Pd 10.9674 41.4358 22.4086
Pd 9.09924 41.4306 24.3435
Pd 9.10114 41.4155 28.2207
Co 9.22281 43.1762 26.2947
Co 15.0555 3.72142 26.1704
Pd 10.9912 9.11888 24.2478
Pd 12.872 7.25168 24.2792
Co 12.9128 9.14026 22.3916
Pd 11.0464 7.3696 26.182
Pd 10.9907 9.11018 28.1241
Pd 12.8718 7.24467 28.0847
Co 12.8791 9.12946 26.1858
Co 12.9142 9.12194 29.9811
Pd 10.968 12.8805 20.4419
Pd 12.8491 10.9938 20.4424
Co 12.8964 12.9297 18.5758
Pd 10.9785 11.0075 22.331
Pd 10.9769 12.8864 24.264
Pd 12.8662 10.9993 24.259
Co 12.8529 12.8773 22.3347
Pd 11.0037 11.0209 26.19
Pd 10.9775 12.8757 28.1246
Pd 12.8671 10.9886 28.1213
Co 12.8789 12.893 26.1942
Pd 10.9803 10.9881 30.0505
Pd 10.9688 12.85 31.9486
Pd 12.8535 10.9632 31.9411
Co 12.8541 12.8554 30.0551
Co 12.8987 12.8873 33.8137
Pd 10.961 16.6844 16.6505
Pd 12.8415 14.7944 16.6391
Co 12.8951 16.735 14.782
Pd 10.9642 14.7976 18.5286
Pd 10.9675 16.6836 20.4504
Pd 12.8529 14.7854 20.4414
Co 12.8473 16.6748 18.5313
Pd 10.9722 14.7896 22.3441
Pd 10.98 16.6872 24.2773
Pd 12.8699 14.7834 24.2717
Co 12.8735 16.6885 22.366
Pd 10.9765 14.7796 26.1984
Pd 10.9797 16.6761 28.1282
Pd 12.87 14.7721 28.1254
Co 12.8753 16.679 26.2029
Pd 10.9722 14.7679 30.0533
Pd 10.9661 16.6518 31.9555
Pd 12.8523 14.7529 31.9566
Co 12.8725 16.6663 30.0394
Pd 10.9631 14.7599 33.8715
Pd 10.9568 16.6412 35.764
Pd 12.839 14.7452 35.7583
Co 12.8433 16.6339 33.8752
Co 12.8868 16.6813 37.6272
Pd 10.9645 20.5009 12.8672
Pd 12.8448 18.6059 12.8537
Co 12.9092 20.5474 11.0073
Pd 10.9638 18.6045 14.7405
Pd 10.9711 20.4905 16.6622
Pd 12.8529 18.5893 16.6484
Co 12.8517 20.484 14.7451
Pd 10.9668 18.5944 18.5481
Pd 10.9795 20.5013 20.4716
Pd 12.8713 18.5893 20.4593
Co 12.8763 20.4995 18.5665
Pd 10.981 18.5927 22.371
Pd 10.9954 20.5044 24.2978
Pd 12.8816 18.5903 24.2908
Co 12.8853 20.4982 22.3835
Pd 10.989 18.5903 26.2073
Pd 10.9953 20.4938 28.1264
Pd 12.8811 18.5793 28.1237
Co 12.8915 20.4933 26.2123
Pd 10.98 18.5713 30.0432
Pd 10.9776 20.471 31.9517
Pd 12.8687 18.5571 31.9538
Co 12.8839 20.4775 30.0397
Pd 10.9624 18.5527 33.8668
Pd 10.9656 20.4382 35.7577
Pd 12.8462 18.5386 35.7669
Co 12.874 20.4562 33.8533
Pd 10.9552 18.5678 37.6925
Pd 10.9089 20.4523 39.638
Pd 12.8244 18.55 39.5756
Co 12.8485 20.4138 37.6808
Co 12.8761 20.4554 41.4322
Pd 11.0043 24.3641 9.09414
Pd 12.8571 22.4411 9.08587
Co 12.9403 24.4153 7.2724
Pd 10.9999 22.4097 10.9636
Pd 10.9981 24.3171 12.8915
Pd 12.8662 22.4069 12.8737
Co 12.871 24.3154 10.9809
Pd 10.9763 22.4059 14.7621
Pd 10.9876 24.3217 16.6766
Pd 12.876 22.4053 16.6673
Co 12.8864 24.3286 14.783
Pd 10.9825 22.4073 18.5756
Pd 11.0005 24.3229 20.494
Pd 12.8882 22.409 20.4836
Co 12.8893 24.3218 18.5821
Pd 10.9965 22.4138 22.3956
Pd 11.0085 24.3235 24.3129
Pd 12.8986 22.4074 24.3038
Co 12.9011 24.3198 22.4002
Pd 11.007 22.411 26.2171
Pd 11.0049 24.3158 28.1308
Pd 12.8973 22.3984 28.1301
Co 12.9068 24.3132 26.2221
Pd 10.9947 22.3945 30.038
Pd 10.9989 24.2939 31.9491
Pd 12.8874 22.3786 31.948
Co 12.9001 24.3001 30.0428
Pd 10.9814 22.3679 33.8563
Pd 10.9971 24.2758 35.7597
Pd 12.8837 22.3514 35.7535
Co 12.8927 24.2829 33.8551
Pd 11.001 22.3305 37.6563
Pd 11.0402 24.2923 39.4631
Pd 12.8996 22.3251 39.5269
Co 12.9172 24.2779 37.6293
Pd 10.9784 22.559 45.0453
Pd 10.9036 20.6477 43.1413
Pd 11.0632 22.5186 41.3941
Co 12.9608 24.2852 41.4289
Co 11.1803 24.3135 43.2313
Pd 14.7911 24.3579 5.39702
Pd 13.0223 26.3334 5.47141
Pd 11.0041 28.1889 9.12056
Pd 12.9027 26.2742 9.13989
Co 12.9697 28.1473 7.27553
Pd 11.0341 26.2663 11.0095
Pd 10.9971 28.1974 12.899
Pd 12.8887 26.2566 12.8956
Co 12.8797 28.212 10.9945
Pd 10.9944 26.2537 14.7923
Pd 10.9945 28.1753 16.6893
Pd 12.8902 26.2469 16.687
Co 12.8882 28.1768 14.7913
Pd 11.0074 26.2422 18.5949
Pd 11.0043 28.1532 20.5013
Pd 12.8999 26.237 20.4988
Co 12.893 28.163 18.5924
Pd 11.0077 26.233 22.4087
Pd 11.0137 28.133 24.3207
Pd 12.9092 26.2268 24.3162
Co 12.9039 28.1449 22.4087
Pd 11.0102 26.2242 26.2271
Pd 11.0178 28.1219 28.142
Pd 12.91 26.2154 28.1372
Co 12.9115 28.131 26.2312
Pd 11.0065 26.2139 30.0438
Pd 11.0021 28.1234 31.9621
Pd 12.8995 26.2078 31.9537
Co 12.9041 28.1245 30.0551
Pd 11.0033 26.2036 33.857
Pd 10.992 28.1315 35.7644
Pd 12.9004 26.205 35.7506
Co 12.8943 28.1261 33.8663
Pd 11.0065 26.2244 37.6334
Pd 10.9996 28.1151 39.5748
Pd 12.9178 26.2107 39.5373
Co 12.8971 28.1262 37.6651
Pd 11.0459 26.1535 41.4315
Pd 10.9883 28.0197 43.3592
Pd 12.9392 26.1823 43.3286
Co 12.8857 28.1136 41.4833
Pd 11.0727 26.0509 45.1884
Pd 20.5191 27.8706 49.0655
Co 12.9467 28.0063 45.1942
Pd 12.8717 30.0947 9.10636
Pd 10.9926 30.0997 10.9839
Pd 10.9829 32.0264 12.8964
Pd 12.871 30.1086 12.8923
Co 12.9094 31.9747 11.0393
Pd 10.9871 30.1055 14.7835
Pd 10.9804 32.0132 16.6927
Pd 12.8824 30.093 16.6879
Co 12.8606 32.0267 14.7764
Pd 10.9911 30.0826 18.5945
Pd 10.9882 31.9816 20.4986
Pd 12.8934 30.0682 20.5024
Co 12.8831 31.9922 18.5969
Pd 11.0036 30.0543 22.4112
Pd 11.004 31.953 24.3256
Pd 12.9041 30.0482 24.3216
Co 12.8913 31.9705 22.4119
Pd 11.0171 30.0348 26.2355
Pd 11.0016 31.9422 28.1584
Pd 12.9037 30.0385 28.152
Co 12.8967 31.9525 26.2435
Pd 11.0035 30.0328 30.0629
Pd 10.9865 31.9472 31.989
Pd 12.8929 30.037 31.972
Co 12.8904 31.9477 30.0733
Pd 10.987 30.0433 33.881
Pd 10.9773 31.9511 35.8046
Pd 12.8832 30.0414 35.7877
Co 12.8822 31.9455 33.8928
Pd 10.9853 30.0319 37.7018
Pd 10.9831 31.9271 39.614
Pd 12.8725 30.0237 39.5979
Co 12.8604 31.9502 37.7231
Pd 10.9911 29.9748 41.5175
Pd 12.8684 29.9628 43.3921
Co 12.9156 31.8637 41.476
Pd 12.8555 33.9201 12.8957
Pd 10.9752 33.9113 14.782
Pd 10.9782 35.8273 16.702
Pd 12.8603 33.9141 16.6907
Co 12.9007 35.7877 14.8378
Pd 10.9752 33.9036 18.5883
Pd 10.9621 35.7948 20.5086
Pd 12.8776 33.8963 20.5001
Co 12.8527 35.83 18.5827
Pd 10.9861 33.8763 22.4128
Pd 10.9819 35.7702 24.3341
Pd 12.888 33.8643 24.335
Co 12.8796 35.7688 22.4313
Pd 10.9932 33.8596 26.2483
Pd 10.988 35.7585 28.1796
Pd 12.8878 33.8542 28.1655
Co 12.887 35.7631 26.2541
Pd 10.9886 33.8547 30.0882
Pd 10.9732 35.7604 32.0111
Pd 12.8774 33.8551 32.0011
Co 12.881 35.7539 30.0938
Pd 10.9742 33.85 33.9175
Pd 10.9714 35.7532 35.8197
Pd 12.8606 33.8477 35.8185
Co 12.8543 35.7639 33.9331
Pd 10.9763 33.827 37.734
Pd 12.8589 33.8204 39.623
Co 12.9072 35.6954 37.6897
Pd 12.834 37.7667 16.7009
Pd 10.955 37.693 18.5969
Pd 10.9643 39.5967 20.5173
Pd 12.8606 37.6533 20.5492
Co 12.9141 39.4421 18.7534
Pd 10.9622 37.6778 22.4192
Pd 10.9871 39.5611 24.3383
Pd 12.8804 37.6712 24.3289
Co 12.8586 39.5968 22.3926
Pd 10.9935 37.6562 26.2636
Pd 10.9864 39.5442 28.2045
Pd 12.8824 37.6559 28.1919
Co 12.8876 39.5477 26.2693
Pd 10.9725 37.6476 30.1132
Pd 10.9718 39.5528 32.0176
Pd 12.8598 37.6527 32.0201
Co 12.8624 39.5578 30.132
Pd 10.9715 37.64 33.9357
Pd 12.8527 37.6398 35.8277
Co 12.9068 39.5041 33.8896
Pd 12.7201 41.1651 17.1185
Pd 12.8574 41.4902 20.4345
Pd 10.9928 43.3485 24.3729
Pd 12.864 41.4531 24.3439
Co 14.8517 43.3632 20.5999
Pd 11.0077 41.4138 26.28
Pd 11.0063 43.3284 28.2151
Pd 12.8721 41.4375 28.2096
Co 12.875 43.3283 26.2865
Pd 10.9888 41.4273 30.137
Pd 12.8609 41.438 32.0294
Co 12.9245 43.2874 30.0936
Pd 12.8662 43.367 22.3819
Pd 12.8968 45.2295 24.3753
Pd 12.8826 45.1906 28.2301
Co 14.8701 47.0256 24.5082
Pd 14.812 5.33904 24.2692
Pd 18.6443 3.52895 22.3614
Co 16.7238 5.37847 22.4089
Pd 16.7396 3.55069 24.2872
Pd 14.8078 5.33381 28.0836
Pd 16.7254 3.54839 28.058
Co 16.7454 5.40246 26.1769
Co 16.7254 5.36872 29.9529
Pd 14.76 9.08336 20.4431
Pd 16.6487 7.21165 20.4514
Co 16.69 9.14487 18.5744
Pd 14.7715 7.21732 22.3448
Pd 14.7679 9.09357 24.2729
Pd 16.6679 7.22738 24.2672
Co 16.6481 9.0893 22.336
Pd 14.7372 7.1762 26.1809
Pd 14.7701 9.08317 28.0986
Pd 16.6708 7.21649 28.0962
Co 16.66 9.09263 26.1857
Pd 14.774 7.20012 30.0196
Pd 14.7648 9.05376 31.9287
Pd 16.6584 7.18416 31.9126
Co 16.6548 9.06683 30.0352
Co 16.7006 9.09925 33.7904
Pd 14.7548 12.878 16.6333
Pd 16.6402 10.9989 16.6305
Co 16.6937 12.9363 14.7663
Pd 14.7572 10.9955 18.5202
Pd 14.7553 12.8774 20.4389
Pd 16.6477 10.9902 20.4383
Co 16.6406 12.8733 18.5211
Pd 14.7618 10.9895 22.3403
Pd 14.7669 12.8869 24.2662
Pd 16.6649 10.9893 24.2661
Co 16.6657 12.8888 22.3575
Pd 14.7674 10.995 26.1901
Pd 14.7678 12.8757 28.122
Pd 16.6672 10.9782 28.1137
Co 16.6705 12.8825 26.1939
Pd 14.7644 10.968 30.0395
Pd 14.7579 12.8438 31.951
Pd 16.6536 10.9574 31.9382
Co 16.6677 12.8668 30.0298
Pd 14.7734 10.9514 33.8649
Pd 14.7575 12.8249 35.751
Pd 16.6665 10.9519 35.7679
Co 16.6448 12.8299 33.8651
Co 16.7113 12.8583 37.6072
Pd 14.7598 16.6853 12.8429
Pd 16.6453 14.8041 12.8326
Co 16.7065 16.7469 10.9776
Pd 14.7573 14.7959 14.7196
Pd 14.7548 16.678 16.6394
Pd 16.6453 14.7854 16.6333
Co 16.6433 16.6763 14.7272
Pd 14.7547 14.7835 18.5292
Pd 14.7631 16.6845 20.452
Pd 16.6608 14.7825 20.4471
Co 16.6647 16.6886 18.5504
Pd 14.7626 14.7823 22.3575
Pd 14.7746 16.6834 24.2852
Pd 16.6718 14.7848 24.2802
Co 16.6716 16.6857 22.3708
Pd 14.7717 14.7794 26.1984
Pd 14.7744 16.672 28.1204
Pd 16.6722 14.7737 28.1162
Co 16.6773 16.6802 26.2027
Pd 14.7624 14.7593 30.0395
Pd 14.7616 16.6515 31.9514
Pd 16.6619 14.7491 31.9474
Co 16.6721 16.6628 30.0331
Pd 14.7535 14.7417 33.8662
Pd 14.75 16.6263 35.7641
Pd 16.645 14.7328 35.7564
Co 16.6639 16.6447 33.8493
Pd 14.7578 14.7325 37.6705
Pd 14.7489 16.6177 39.5579
Pd 16.6415 14.7333 39.549
Co 16.6397 16.6143 37.6697
Co 16.7003 16.6611 41.4144
Pd 14.7653 20.5062 9.08278
Pd 16.6633 18.6199 9.0636
Co 16.6936 20.5702 7.27891
Pd 14.7666 18.6054 10.9404
Pd 14.7643 20.4909 12.8608
Pd 16.6529 18.5942 12.8499
Co 16.6512 20.4943 10.9571
Pd 14.7572 18.5895 14.7394
Pd 14.7665 20.4959 16.657
Pd 16.6637 18.589 16.6496
Co 16.6709 20.5021 14.7625
Pd 14.7645 18.5874 18.5537
Pd 14.7803 20.4978 20.4747
Pd 16.6741 18.5921 20.4684
Co 16.6754 20.4989 18.5679
Pd 14.777 18.5896 22.3771
Pd 14.7875 20.4941 24.2984
Pd 16.6811 18.588 24.2931
Co 16.6849 20.4973 22.3877
Pd 14.7806 18.5821 26.2075
Pd 14.7869 20.4836 28.1254
Pd 16.6813 18.5767 28.1208
Co 16.6881 20.4888 26.2119
Pd 14.776 18.5674 30.036
Pd 14.7798 20.4648 31.9452
Pd 16.6742 18.5582 31.9416
Co 16.6856 20.4751 30.0335
Pd 14.761 18.5429 33.8566
Pd 14.7661 20.4387 35.7586
Pd 16.6617 18.5332 35.7558
Co 16.6767 20.4538 33.8473
Pd 14.7501 18.5252 37.6725
Pd 14.7705 20.4075 39.5581
Pd 16.6498 18.5156 39.557
Co 16.6722 20.4328 37.6473
Pd 14.7574 18.526 41.4796
Pd 14.7568 20.3949 43.3666
Pd 16.666 18.523 43.357
Co 16.6544 20.3999 41.4684
Co 16.7446 20.4427 45.207
Pd 16.6438 26.2901 5.3481
Pd 16.7006 22.4239 5.39963
Co 16.7999 28.1407 3.57555
Pd 14.7672 22.4382 7.19295
Pd 14.7849 24.3272 9.11101
Pd 16.6693 22.4257 9.09279
Co 16.6768 24.316 7.21403
Pd 14.7676 22.4127 10.9712
Pd 14.776 24.3288 12.8791
Pd 16.672 22.4125 12.8715
Co 16.6895 24.3347 10.9934
Pd 14.7717 22.4079 14.7684
Pd 14.7831 24.3266 16.6795
Pd 16.6779 22.4125 16.674
Co 16.6794 24.33 14.7803
Pd 14.7818 22.4095 18.575
Pd 14.7917 24.3213 20.4896
Pd 16.6865 22.4092 20.485
Co 16.686 24.3254 18.5859
Pd 14.7918 22.4062 22.3929
Pd 14.8014 24.3142 24.3101
Pd 16.6933 22.4025 24.3054
Co 16.6946 24.3178 22.4002
Pd 14.7955 22.3985 26.217
Pd 14.8022 24.3038 28.1332
Pd 16.694 22.3917 28.1272
Co 16.6993 24.3086 26.2214
Pd 14.7915 22.3854 30.0391
Pd 14.7939 24.2912 31.9497
Pd 16.6893 22.3771 31.9423
Co 16.6968 24.2974 30.0404
Pd 14.7853 22.3659 33.8498
Pd 14.7952 24.2777 35.7473
Pd 16.6844 22.3577 35.7436
Co 16.6932 24.2851 33.8469
Pd 14.7868 22.3407 37.6451
Pd 14.8003 24.2638 39.5377
Pd 16.6799 22.3347 39.5409
Co 16.6903 24.2703 37.6439
Pd 14.7997 22.3153 41.4411
Pd 14.842 24.235 43.3306
Pd 16.67 22.3098 43.351
Co 16.6954 24.2522 41.4304
Pd 12.9222 22.3445 43.3092
Pd 12.9559 24.2329 45.2522
Pd 14.821 22.2958 45.2921
Co 16.6912 24.2228 45.2645
Co 13.0261 26.1995 46.8814
Pd 18.5909 26.2167 3.44806
Pd 18.6271 30.0942 3.45448
Pd 16.7173 24.3672 3.57984
Co 20.6337 26.273 1.793
Pd 14.8457 26.2774 7.27298
Pd 14.7988 28.2054 9.12956
Pd 16.7021 26.2547 9.13216
Co 16.6812 28.2098 7.21752
Pd 14.785 26.2591 11.0047
Pd 14.7792 28.1839 12.8888
Pd 16.6872 26.2545 12.888
Co 16.6914 28.1825 11.0038
Pd 14.7883 26.2518 14.7848
Pd 14.7843 28.1673 16.6887
Pd 16.6843 26.2463 16.6896
Co 16.6812 28.1722 14.7884
Pd 14.7891 26.2418 18.5899
Pd 14.7936 28.1525 20.4997
Pd 16.692 26.2361 20.4978
Co 16.6867 28.1574 18.5962
Pd 14.8004 26.2315 22.4049
Pd 14.8033 28.1391 24.3192
Pd 16.7002 26.2261 24.3156
Co 16.696 28.1448 22.41
Pd 14.8061 26.2214 26.2266
Pd 14.8032 28.1288 28.144
Pd 16.7012 26.2161 28.1369
Co 16.7006 28.1333 26.2318
Pd 14.8012 26.2116 30.0475
Pd 14.7962 28.1235 31.9609
Pd 16.6972 26.2068 31.9499
Co 16.6986 28.1248 30.0514
Pd 14.7966 26.2049 33.8548
Pd 14.7926 28.1234 35.7662
Pd 16.6951 26.2 35.7511
Co 16.6944 28.1198 33.8612
Pd 14.8038 26.2018 37.6496
Pd 14.7944 28.1217 39.5712
Pd 16.697 26.191 39.5459
Co 16.6921 28.1182 37.6659
Pd 14.816 26.1955 41.4442
Pd 14.8121 28.1089 43.3631
Pd 16.7147 26.1766 43.3238
Co 16.7021 28.1089 41.458
Pd 14.8949 26.1641 45.2134
Pd 14.8152 28.0333 47.0647
Pd 16.7018 26.1983 47.1818
Co 16.7085 28.1028 45.2497
Pd 14.8554 24.288 47.1344
Co 20.6181 20.5111 48.8071
Pd 16.6581 32.0356 7.18075
Pd 14.771 30.0538 7.1751
Pd 14.7543 32.0251 9.1145
Pd 16.6662 30.1131 9.10202
Co 14.892 28.1465 5.44708
Pd 14.7765 30.1144 10.9925
Pd 14.7687 32.0266 12.8908
Pd 16.6754 30.1006 12.8895
Co 16.6551 32.0335 10.9775
Pd 14.7752 30.0975 14.7875
Pd 14.7715 32.0028 16.6886
Pd 16.6791 30.0805 16.6942
Co 16.6717 32.0032 14.7943
Pd 14.7854 30.0761 18.5952
Pd 14.7841 31.9806 20.5034
Pd 16.6888 30.065 20.5051
Co 16.6782 31.9871 18.5979
Pd 14.7956 30.0592 22.4119
Pd 14.793 31.959 24.3299
Pd 16.6966 30.0492 24.3259
Co 16.6905 31.9648 22.4189
Pd 14.7991 30.0446 26.2376
Pd 14.793 31.9491 28.1575
Pd 16.6974 30.039 28.1487
Co 16.6941 31.9513 26.2436
Pd 14.7961 30.038 30.0615
Pd 14.7859 31.946 31.9805
Pd 16.6931 30.0339 31.9667
Co 16.6914 31.9442 30.0671
Pd 14.7886 30.0367 33.8768
Pd 14.7744 31.9449 35.8012
Pd 16.6871 30.0314 35.7775
Co 16.6834 31.9421 33.8865
Pd 14.7806 30.0373 37.6893
Pd 14.7723 31.9382 39.6116
Pd 16.6864 30.0297 39.589
Co 16.6803 31.9345 37.6974
Pd 14.781 30.0181 41.5001
Pd 14.7843 31.9075 43.4053
Pd 16.6885 30.0113 43.3791
Co 16.6707 31.932 41.518
Pd 14.8099 29.9803 45.2959
Pd 16.7369 29.9377 47.1536
Co 16.7456 31.8361 45.2636
Pd 16.664 33.9413 9.11198
Pd 14.7701 33.9214 10.9809
Pd 14.7653 35.8403 12.9003
Pd 16.6537 33.9231 12.8927
Co 16.7067 35.7909 11.0435
Pd 14.761 33.9226 14.7826
Pd 14.75 35.8331 16.6882
Pd 16.6651 33.9127 16.6913
Co 16.6463 35.8355 14.781
Pd 14.7696 33.9066 18.5941
Pd 14.7816 35.7855 20.5126
Pd 16.6834 33.8792 20.5109
Co 16.6782 35.7935 18.6028
Pd 14.7853 33.8723 22.4211
Pd 14.7859 35.768 24.34
Pd 16.6899 33.8622 24.3363
Co 16.6855 35.775 22.4276
Pd 14.789 33.8587 26.2499
Pd 14.784 35.7573 28.1726
Pd 16.689 33.8518 28.1639
Co 16.6862 35.7599 26.2559
Pd 14.7832 33.8526 30.08
Pd 14.7707 35.754 32.0085
Pd 16.6819 33.8468 31.9885
Co 16.6804 35.7518 30.088
Pd 14.7712 33.8522 33.9064
Pd 14.763 35.754 35.827
Pd 16.6722 33.8458 35.8107
Co 16.6735 35.7446 33.9105
Pd 14.7669 33.8403 37.7289
Pd 14.7736 35.7378 39.6301
Pd 16.6649 33.8303 39.6203
Co 16.6535 35.7499 37.7394
Pd 14.7815 33.8092 41.5382
Pd 16.6788 33.7899 43.4177
Co 16.7218 35.671 41.4935
Pd 16.6518 37.7232 12.905
Pd 14.757 37.7292 14.7861
Pd 14.7869 39.6229 16.7148
Pd 16.6642 37.7069 16.6943
Co 16.7098 39.5785 14.8371
Pd 14.7818 37.6871 18.5991
Pd 14.783 39.594 20.5237
Pd 16.681 37.6894 20.5164
Co 16.6628 39.6179 18.5994
Pd 14.7819 37.6804 22.4286
Pd 14.7707 39.5744 24.3344
Pd 16.6824 37.6694 24.3471
Co 16.6839 39.5749 22.4356
Pd 14.7795 37.6643 26.2593
Pd 14.7761 39.553 28.1964
Pd 16.6802 37.6534 28.1797
Co 16.6763 39.5586 26.2679
Pd 14.7733 37.6562 30.1052
Pd 14.7681 39.5548 32.0304
Pd 16.6718 37.6498 32.016
Co 16.6784 39.5431 30.1088
Pd 14.7635 37.6484 33.9354
Pd 14.7692 39.5542 35.83
Pd 16.6554 37.6425 35.8299
Co 16.6538 39.5565 33.9425
Pd 14.7702 37.6316 37.7482
Pd 16.6584 37.618 39.6346
Co 16.706 39.4907 37.6956
Pd 16.644 41.5067 16.6883
Pd 14.7982 41.5241 18.6381
Pd 14.7826 45.248 22.4477
Pd 16.6707 41.498 20.5359
Co 18.7333 45.1326 18.6954
Pd 14.7638 41.4746 22.4013
Pd 14.7732 43.3424 24.3524
Pd 16.6734 41.4578 24.346
Co 16.6503 43.3769 22.4257
Pd 14.7704 41.4523 26.2761
Pd 14.7807 43.3287 28.2242
Pd 16.6804 41.4401 28.2056
Co 16.6992 43.3089 26.293
Pd 14.7746 41.437 30.1339
Pd 14.7826 43.3552 32.0199
Pd 16.6653 41.4434 32.028
Co 16.6724 43.3444 30.1353
Pd 14.7756 41.4416 33.9433
Pd 16.6576 41.4341 35.8287
Co 16.7187 43.2988 33.8851
Pd 16.6579 43.4791 18.6146
Pd 16.6635 45.3196 20.5339
Pd 16.6398 47.1458 22.5341
Pd 16.6824 45.2035 24.3949
Co 16.8429 48.6649 20.5522
Pd 14.8059 45.1508 26.302
Pd 16.7571 48.8588 28.112
Pd 16.6994 45.2008 28.212
Co 16.7008 47.0425 26.2977
Pd 14.7985 45.234 30.1206
Pd 16.6777 45.2281 32.0103
Co 16.7533 47.0627 30.0504
Pd 13.0008 47.0295 26.2864
Pd 11.0514 45.1275 26.2979
Pd 14.8494 47.1028 28.1672
Pd 22.3218 3.42271 22.3003
Pd 22.4436 3.49067 18.6112
Co 20.5126 3.62792 20.5178
Pd 18.5551 5.3085 20.4625
Pd 18.6211 5.3577 24.2849
Pd 20.451 3.41774 24.2728
Co 20.4829 5.34393 22.3506
Pd 18.5843 3.45702 26.1836
Pd 18.6264 5.34821 28.0694
Pd 20.4795 3.42103 28.0963
Co 20.4942 5.30812 26.1837
Pd 18.6108 3.52728 29.9683
Pd 18.5851 5.29205 31.907
Pd 20.5234 3.51142 31.8565
Co 20.5022 5.31784 29.9882
Co 20.5433 5.33605 33.7489
Pd 18.5587 9.09506 16.6251
Pd 20.4544 7.23365 16.6202
Co 20.4986 9.16462 14.7617
Pd 18.5426 7.23682 18.5203
Pd 18.5606 9.09333 20.4406
Pd 20.4629 7.21024 20.4458
Co 20.449 9.08909 18.5225
Pd 18.5742 7.21842 22.3445
Pd 18.5763 9.10825 24.2585
Pd 20.5037 7.22307 24.2673
Co 20.485 9.10649 22.3572
Pd 18.6016 7.24509 26.1808
Pd 18.5796 9.09714 28.1114
Pd 20.5084 7.21322 28.0906
Co 20.5006 9.10978 26.1825
Pd 18.5857 7.1944 30.0176
Pd 18.572 9.06052 31.9305
Pd 20.4831 7.18265 31.912
Co 20.4901 9.0897 30.01
Pd 18.5796 7.17861 33.8359
Pd 18.5408 9.05367 35.7297
Pd 20.4723 7.14313 35.7013
Co 20.466 9.04623 33.8514
Co 20.1641 8.59244 40.0259
Pd 18.5616 12.8957 12.8249
Pd 20.4517 11.0162 12.8294
Co 20.5018 12.9596 10.9782
Pd 18.5585 11.0097 14.7094
Pd 18.5525 12.8827 16.6304
Pd 20.4499 11.0017 16.6304
Co 20.4472 12.8859 14.7167
Pd 18.5552 10.9911 18.5248
Pd 18.5611 12.8876 20.4434
Pd 20.4687 10.9938 20.4435
Co 20.4677 12.8954 18.544
Pd 18.5649 10.9934 22.3519
Pd 18.5743 12.8866 24.2769
Pd 20.4849 10.9969 24.2723
Co 20.4759 12.8927 22.3623
Pd 18.5726 10.9862 26.1889
Pd 18.5755 12.8759 28.1096
Pd 20.4865 10.9888 28.1025
Co 20.482 12.8882 26.192
Pd 18.5704 10.9718 30.0265
Pd 18.5667 12.8554 31.9403
Pd 20.4789 10.9616 31.9352
Co 20.482 12.8701 30.0229
Pd 18.5624 10.9511 33.8475
Pd 18.5623 12.8283 35.7511
Pd 20.4585 10.954 35.7376
Co 20.4805 12.8523 33.8354
Pd 20.4259 9.05832 37.6273
Pd 18.5429 12.8004 39.5165
Pd 20.4437 10.9971 39.5411
Co 20.4514 12.8149 37.6453
Co 20.5111 12.8801 41.4097
Pd 18.5834 16.7373 9.02002
Pd 20.4597 14.8404 9.04331
Co 20.5203 16.8175 7.19301
Pd 18.5677 14.8286 10.9119
Pd 18.5606 16.6877 12.8458
Pd 20.4559 14.8028 12.8358
Co 20.4578 16.6984 10.9358
Pd 18.5558 14.7893 14.7261
Pd 18.562 16.6886 16.6435
Pd 20.466 14.789 16.6393
Co 20.4734 16.6973 14.7507
Pd 18.5597 14.7857 18.5427
Pd 18.5729 16.6897 20.4633
Pd 20.4748 14.7929 20.4582
Co 20.4756 16.6927 18.5564
Pd 18.572 14.7873 22.3668
Pd 18.5798 16.6868 24.2877
Pd 20.4816 14.7904 24.2826
Co 20.483 16.6929 22.3766
Pd 18.5769 14.7814 26.1978
Pd 18.5813 16.675 28.1161
Pd 20.4845 14.778 28.1116
Co 20.4872 16.6848 26.2018
Pd 18.5749 14.7647 30.0275
Pd 18.5759 16.6551 31.9375
Pd 20.4823 14.7585 31.9332
Co 20.4876 16.6688 30.0249
Pd 18.5635 14.7403 33.8476
Pd 18.5635 16.6347 35.7486
Pd 20.4747 14.7356 35.7424
Co 20.4817 16.6481 33.8386
Pd 18.5555 14.7295 37.6543
Pd 18.5598 16.6116 39.5482
Pd 20.4519 14.7131 39.534
Co 20.472 16.633 37.6367
Pd 18.57 14.7208 41.4541
Pd 18.5748 16.6128 43.3404
Pd 20.4625 14.7469 43.3442
Co 20.4484 16.6104 41.4423
Co 20.524 16.7 45.2087
Pd 20.4484 22.3473 5.30571
Pd 20.5445 18.7238 5.33497
Co 22.4191 24.4265 1.79674
Pd 18.6136 18.7486 7.1368
Pd 18.5804 20.512 9.11985
Pd 20.4809 18.6269 9.074
Co 20.5211 20.5276 7.21408
Pd 18.5694 18.596 10.9548
Pd 18.5708 20.5058 12.8608
Pd 20.4773 18.6008 12.8579
Co 20.4938 20.5206 10.9839
Pd 18.566 18.5949 14.7524
Pd 18.577 20.5031 16.6684
Pd 20.4791 18.5989 16.6619
Co 20.4817 20.5076 14.7698
Pd 18.5748 18.5947 18.5627
Pd 18.5838 20.5011 20.4797
Pd 20.4847 18.5971 20.4741
Co 20.4865 20.5052 18.5766
Pd 18.5817 18.5926 22.3821
Pd 18.5898 20.4952 24.3002
Pd 20.49 18.5925 24.2948
Co 20.4918 20.5009 22.3906
Pd 18.5855 18.5844 26.2068
Pd 18.5911 20.4838 28.1218
Pd 20.4921 18.5806 28.117
Co 20.4958 20.4922 26.2106
Pd 18.5836 18.5692 30.0292
Pd 18.5869 20.4678 31.9372
Pd 20.4895 18.5629 31.9329
Co 20.4955 20.4784 30.028
Pd 18.5766 18.5505 33.8422
Pd 18.5797 20.4482 35.7424
Pd 20.4815 18.5455 35.7381
Co 20.4912 20.4624 33.8361
Pd 18.5632 18.5283 37.6476
Pd 18.566 20.4305 39.5457
Pd 20.4681 18.531 39.5359
Co 20.4808 20.4464 37.6369
Pd 18.5603 18.5174 41.4488
Pd 18.577 20.4104 43.334
Pd 20.464 18.5268 43.316
Co 20.4766 20.4387 41.4234
Pd 18.6275 18.5264 45.2726
Pd 18.6528 20.4128 47.1179
Pd 22.3751 16.6728 47.1026
Co 20.4791 20.4215 45.2141
Co 20.5667 18.6217 47.0415
Pd 24.3109 22.6743 1.72137
Pd 18.59 24.3084 5.39727
Pd 22.3916 22.442 3.44668
Co 22.4024 24.3149 5.34093
Pd 18.6011 22.3441 7.18851
Pd 18.5957 24.3182 9.06675
Pd 20.4998 22.4306 9.09514
Co 20.5224 24.3083 7.17398
Pd 18.5814 22.4303 10.9861
Pd 18.5848 24.3367 12.8919
Pd 20.4879 22.4241 12.8855
Co 20.4918 24.3411 10.991
Pd 18.5798 22.4161 14.7761
Pd 18.5836 24.3294 16.6853
Pd 20.487 22.4169 16.6827
Co 20.4879 24.3342 14.7934
Pd 18.5846 22.4132 18.5815
Pd 18.5912 24.3226 20.4945
Pd 20.4926 22.4124 20.4903
Co 20.4914 24.3268 18.5927
Pd 18.5916 22.4075 22.396
Pd 18.5976 24.314 24.311
Pd 20.4978 22.4051 24.306
Co 20.498 24.3192 22.4033
Pd 18.5955 22.3985 26.2159
Pd 18.5992 24.3036 28.1299
Pd 20.4999 22.3942 28.1236
Co 20.5019 24.3097 26.2199
Pd 18.5946 22.3861 30.0332
Pd 18.5966 24.2919 31.9421
Pd 20.498 22.3805 31.9349
Co 20.5024 24.2985 30.0345
Pd 18.5903 22.3706 33.8412
Pd 18.5911 24.2789 35.745
Pd 20.4923 22.3655 35.7376
Co 20.4989 24.2859 33.8411
Pd 18.5837 22.3533 37.6401
Pd 18.587 24.2629 39.5377
Pd 20.4833 22.3518 39.5333
Co 20.494 24.2724 37.6384
Pd 18.5698 22.3358 41.44
Pd 18.5764 24.2475 43.3381
Pd 20.4847 22.3421 43.3162
Co 20.4879 24.2591 41.4297