4033
Atoms. Timestep: 20991
Co 42.0843 24.3207 38.3999
Pd 15.7604 28.4427 31.5215
Pd 15.2393 23.0751 47.1693
Co 28.4743 24.7857 37.6816
Pd 4.98082 33.5839 21.878
Pd 44.4138 11.5215 23.4201
Pd 15.7791 23.3477 40.9845
Co 17.9396 15.4894 38.6261
Co 20.193 7.21894 36.9335
Pd 41.6513 35.2385 24.9916
Pd 13.9986 15.9817 36.5462
Co 21.9407 27.8113 39.5798
Pd 22.0241 24.4041 4.69881
Pd 23.7258 28.8696 3.44765
Pd 26.2917 37.5959 43.8477
Co 11.4677 19.1197 38.1907
Pd 41.366 12.7353 26.4678
Pd 29.0764 14.6807 28.8428
Pd 40.6058 25.7122 14.273
Co 16.9413 31.1507 8.86029
Pd 19.774 21.4336 39.2689
Pd 37.724 5.59001 33.3714
Pd 19.6292 42.9575 16.6211
Co 14.941 42.8178 20.6224
Co 17.1963 23.7957 36.2227
Pd 19.1258 43.7038 39.45
Pd 24.2446 17.6927 38.0771
Co 32.8893 18.3891 8.92973
Pd 5.32237 19.8899 22.4135
Pd 23.91 22.2301 11.3109
Pd 29.3371 25.3432 7.95477
Co 19.612 30.5393 21.064
Pd 18.1228 16.4716 31.5611
Pd 26.5101 12.7591 33.4512
Pd 17.9778 14.6987 33.7044
Co 7.00608 31.207 20.0661
Pd 40.3087 9.4712 18.1854
Pd 23.961 8.98642 18.8024
Pd 23.3894 36.6246 46.259
Co 22.4855 30.606 27.8547
Pd 9.78873 34.5913 39.5365
Pd 14.2508 34.3245 8.96013
Pd 17.8183 34.1377 46.0344
Co 27.9156 23.1741 42.2608
Pd 17.6308 17.4637 40.173
Pd 33.1002 14.9384 43.3659
Pd 9.37765 40.5059 33.8631
Co 21.053 8.91781 24.1209
Co 15.6829 23.8544 29.1705
Pd 27.155 3.65543 28.4823
Pd 16.6724 36.744 33.0851
Pd 36.1299 28.127 10.2341
Pd 23.9653 23.1605 28.3684
Co 15.9615 32.3702 36.6651
Pd 20.3216 34.4901 27.2355
Pd 32.9766 22.6615 33.7051
Pd 12.4128 39.0805 31.238
Co 25.9849 29.0621 37.3482
Pd 30.8565 27.2973 45.8632
Pd 19.5212 28.3498 31.0338
Pd 4.2188 29.7666 17.0235
Co 11.8118 27.2419 14.2346
Pd 28.192 14.1685 38.0586
Pd 28.4787 14.9972 43.8985
Pd 27.6175 47.4193 25.8928
Co 27.3745 23.5741 22.8351
Pd 19.9633 25.2351 16.084
Pd 14.768 31.6154 20.9966
Pd 16.4927 15.2569 36.5942
Co 22.7853 33.1743 4.45154
Pd 16.3061 34.8976 27.5425
Pd 19.8485 33.2703 24.692
Pd 20.7186 19.3235 33.0083
Co 36.0704 42.0198 35.8755
Pd 30.4787 14.3887 39.2203
Pd 15.6948 16.6278 17.1695
Co 23.7978 12.3558 38.9868
Pd 25.8004 27.6368 28.8771
Pd 15.7181 44.1794 18.386
Pd 25.1527 12.5247 9.20816
Pd 23.6617 28.0706 41.6531
Co 23.9161 10.956 25.4215
Pd 13.9501 40.9868 22.2089
Pd 31.0546 15.8226 30.675
Pd 31.4692 24.2537 12.9801
Co 23.111 39.0127 12.2267
Pd 9.51297 18.5417 24.59
Pd 21.0445 5.11739 18.7485
Pd 29.9333 22.5454 46.3071
Co 25.2661 22.7149 22.1239
Pd 36.9265 10.3661 34.5398
Pd 36.2911 17.8246 27.4133
Pd 11.0237 35.6112 17.1452
Co 16.237 32.7462 44.7628
Pd 28.82 29.322 10.9639
Pd 20.8553 25.1192 13.3178
Co 14.1161 36.5971 27.006
Pd 25.489 43.5627 19.56
Pd 20.3656 38.6647 7.96118
Pd 18.0707 37.2171 7.5071
Pd 29.8142 10.1898 14.0252
Co 35.5473 23.4707 12.106
Pd 9.65666 21.4843 22.1469
Pd 36.7431 25.5105 10.8502
Pd 38.7834 26.312 41.4113
Co 23.9327 31.886 44.0187
Pd 30.7703 35.8719 34.6198
Pd 23.3172 38.973 7.70018
Co 7.56397 35.2438 38.6858
Pd 42.3548 27.0879 32.9236
Pd 29.6633 26.1824 31.4216
Pd 33.4479 39.3251 21.7883
Co 12.7385 25.7968 9.46504
Co 10.8422 37.5725 23.791
Pd 3.29678 24.6874 27.4837
Pd 18.4353 44.3559 18.4745
Co 32.8339 16.3043 38.9522
Pd 30.0714 46.4714 25.6576
Pd 9.31999 30.5782 21.7824
Pd 39.9928 21.8684 27.7651
Co 33.4386 12.3773 11.4807
Co 12.3085 13.982 37.0361
Pd 14.9959 26.5666 8.65024
Pd 39.3738 34.973 29.2869
Co 21.4523 21.1849 34.631
Pd 18.6045 21.6773 25.6798
Pd 10.4189 37.624 21.1893
Pd 45.7108 36.2617 27.5009
Co 35.0471 16.1215 16.2294
Pd 30.9006 18.8633 38.4517
Pd 16.8706 29.4482 39.6901
Pd 26.5473 17.5992 18.177
Co 25.6835 35.4051 10.1692
Pd 35.974 10.466 39.1868
Pd 7.69561 20.631 23.6441
Pd 10.9445 16.8128 29.5698
Co 41.9645 30.7502 34.4394
Co 16.6115 22.8139 27.041
Pd 34.0908 33.0497 36.9205
Pd 9.55563 27.8517 25.9016
Co 12.8033 12.7346 39.1416
Pd 16.0896 10.2362 19.3633
Pd 8.09683 34.9006 13.8468
Pd 20.9211 26.5787 4.06267
Co 30.5057 9.90858 36.4187
Pd 21.6058 13.0476 18.1457
Pd 24.4148 29.4966 35.3864
Pd 4.23894 32.166 26.0156
Co 20.0773 16.3291 9.76057
Pd 11.4476 22.0035 39.9817
Pd 17.6231 8.63513 17.3008
Pd 22.1144 9.98516 27.071
Co 7.57005 34.8872 24.6478
Pd 12.0307 34.531 34.4365
Pd 32.4088 23.3577 46.8453
Pd 32.9356 39.3142 43.9378
Co 30.0668 30.8877 19.7849
Pd 23.4979 34.376 47.4726
Pd 36.832 36.1423 24.3359
Pd 37.8298 11.9514 29.2406
Co 17.525 15.0772 20.6677
Co 32.6309 28.4893 44.166
Pd 29.5666 33.2457 9.25042
Pd 23.5417 18.8075 8.06335
Co 19.4528 30.815 31.7117
Pd 29.4487 21.4405 20.3152
Pd 21.1111 14.2062 20.6748
Pd 36.0679 10.6872 27.631
Co 12.6834 30.9512 36.9717
Pd 13.5054 14.4315 17.586
Pd 43.9453 20.2479 18.9467
Pd 9.8511 15.9045 25.4075
Co 6.1482 35.9532 21.1986
Pd 20.0081 9.00024 19.2937
Pd 34.1545 24.7704 26.4914
Pd 9.14382 14.42 19.4546
Co 25.4619 15.2741 33.6939
Pd 9.3451 25.81 12.6142
Pd 34.9596 37.6159 37.2139
Pd 6.78776 20.133 15.9773
Co 24.5056 16.2792 42.6655
Pd 31.4952 31.6606 33.0914
Pd 43.4403 13.6507 32.9109
Pd 44.8461 15.973 28.004
Co 21.1911 34.8358 5.19183
Pd 19.5277 8.53076 34.9218
Pd 17.8066 24.986 40.5917
Pd 18.7429 36.023 39.2891
Co 36.4186 43.9588 31.877
Pd 17.7112 31.3931 46.66
Pd 20.7461 41.5498 31.9764
Pd 25.8892 33.5571 18.9674
Co 34.3964 31.3204 16.9749
Co 34.0748 9.96345 29.0025
Pd 29.8785 48.6957 21.1025
Pd 31.2708 8.91393 15.9718
Pd 19.6785 20.7889 29.6371
Pd 15.8243 12.1182 29.9734
Co 32.268 23.4301 30.9599
Pd 30.0228 6.96243 24.9525
Pd 25.4263 34.9788 21.1322
Pd 27.9075 30.1754 29.6612
Co 29.0604 23.0294 6.53464
Pd 15.3561 7.14505 20.9454
Pd 9.49518 31.3449 15.7717
Pd 42.4851 24.932 18.1915
Co 17.6881 15.5706 26.6918
Pd 22.5159 34.0823 31.0465
Pd 18.8411 48.1093 20.7082
Pd 38.1956 23.3398 12.0645
Co 26.2305 29.5151 25.7068
Pd 22.2068 20.7421 6.8014
Pd 29.9015 10.6094 31.1433
Pd 21.7408 31.9043 32.4911
Co 19.0824 23.8894 42.6873
Pd 26.4772 20.4099 37.67
Pd 25.8274 47.0445 23.7722
Pd 23.3185 20.148 33.3681
Co 14.9121 12.9539 40.7433
Pd 14.9399 11.0807 34.9425
Pd 11.0265 18.568 13.2953
Pd 14.2007 26.5015 43.8403
Co 14.5725 26.6555 46.3588
Pd 35.4743 39.0894 39.493
Pd 24.9251 7.67188 38.4309
Pd 12.564 23.3587 38.0929
Co 15.0982 43.206 35.0055
Pd 26.5965 16.5556 40.8987
Pd 19.9881 32.6869 46.3239
Co 20.6305 47.1394 22.2164
Pd 5.63591 24.3002 14.4811
Pd 16.5484 12.4377 17.3299
Pd 17.8743 27.602 41.2353
Pd 18.9283 40.1253 30.7138
Co 26.9341 12.5854 11.2047
Pd 17.1006 25.7608 43.1138
Pd 7.48106 20.0859 33.2846
Pd 38.6785 44.0739 23.7713
Co 18.4567 27.7728 38.4797
Pd 12.0735 31.8913 20.3922
Pd 19.9672 37.6968 30.4455
Pd 14.4132 26.3855 11.2748
Co 29.4412 41.2816 26.2432
Pd 3.71588 29.1841 22.3378
Pd 27.6967 33.1984 5.00553
Pd 15.7439 16.9001 14.5288
Co 33.109 18.0025 37.3266
Pd 16.5181 27.8046 26.5263
Pd 29.425 4.04057 27.3517
Pd 22.784 37.0367 23.535
Co 9.95091 33.2095 13.7765
Pd 6.21538 28.4221 16.0382
Pd 10.8615 32.7838 22.4582
Pd 12.4621 40.3839 27.1817
Co 15.5883 21.9569 9.57909
Pd 35.3162 30.3198 11.6804
Pd 15.3795 24.4408 38.5517
Co 25.7233 27.254 42.8988
Pd 22.7802 15.8007 47.7935
Pd 40.0125 18.3685 37.7242
Pd 13.4792 25.313 21.0148
Pd 18.1508 21.1872 17.9957
Co 38.29 17 28.913
Pd 3.74961 22.3874 26.1578
Pd 27.6303 50.4815 18.1752
Pd 24.6247 32.4759 40.2886
Co 14.7842 33.7533 17.0291
Pd 27.9748 36.6291 40.9518
Pd 13.8127 9.15208 20.1126
Pd 15.5771 30.7372 10.9673
Co 13.6575 31.2726 13.1531
Pd 18.5945 34.9889 22.8305
Pd 18.1208 32.9032 26.7939
Pd 25.7994 26.908 26.0225
Co 33.6187 21.7989 20.2394
Pd 25.2558 6.52726 31.0687
Pd 21.1272 46.0399 24.6814
Co 27.9715 20.929 5.636
Pd 28.1094 34.7715 34.8203
Pd 18.139 42.1314 24.5176
Pd 14.4792 31.5607 8.63318
Pd 11.8594 33.6162 24.7224
Co 8.83538 28.3258 31.251
Pd 20.94 34.6352 9.43698
Pd 30.9362 41.9629 24.1769
Pd 23.46 34.3237 36.4637
Co 15.6275 16.0545 27.6778
Pd 29.0806 14.841 19.8218
Pd 26.5669 36.3742 19.0066
Co 24.7265 31.0385 19.9785
Pd 17.322 35.4127 20.3541
Pd 10.0935 35.8537 32.8482
Pd 13.1262 35.925 24.2345
Co 17.4241 10.7033 15.8314
Co 11.0905 20.9658 17.5853
Pd 30.7936 34.83 46.6955
Pd 25.4222 31.4026 12.2665
Co 8.79084 23.955 31.1864
Pd 21.784 7.01294 20.5344
Pd 31.248 40.8286 21.7377
Pd 41.6566 16.081 33.2287
Co 17.9369 44.3326 28.5696
Co 25.6535 20.3109 40.1465
Pd 32.3565 7.60579 26.131
Pd 42.079 30.6563 36.956
Co 20.3456 18.2891 21.0126
Pd 22.4316 14.0273 36.304
Pd 14.3392 25.9837 27.9068
Pd 41.8048 27.0768 39.4224
Co 40.534 29.8863 14.6219
Pd 29.2565 16.7707 11.0809
Pd 15.1867 30.9152 40.9795
Pd 17.0877 8.96307 26.8205
Co 30.3529 36.0837 18.5029
Pd 39.8925 28.672 40.44
Pd 27.9211 3.97934 19.6567
Pd 16.6781 11.171 36.9987
Co 18.8335 22.8376 28.0082
Co 16.8368 21.9473 7.35752
Pd 10.7006 32.1341 38.4931
Pd 19.4749 15.7234 12.4315
Co 18.4635 35.4729 36.7199
Pd 13.0708 17.2334 38.8693
Pd 12.7474 29.7429 28.7934
Pd 15.7482 40.7717 24.6717
Co 15.8872 26.2076 29.9617
Pd 13.2299 29.4361 20.1102
Pd 14.6263 27.5246 18.8144
Pd 34.4094 10.5882 31.5098
Co 23.9048 18.744 40.2963
Pd 37.7593 10.305 12.3111
Pd 20.5972 35.2722 29.7454
Pd 20.7296 18.5635 28.402
Co 14.5225 22.0218 33.722
Pd 12.171 32.7544 9.10451
Pd 11.2558 10.8969 34.5941
Pd 15.7859 39.0429 22.4887
Co 46.0278 33.2353 33.1099
Pd 27.6008 35.413 38.6502
Pd 23.1764 19.2844 28.104
Pd 20.5535 39.6893 41.3628
Co 24.9117 5.1844 16.557
Co 41.9201 13.7637 28.7622
Pd 31.4095 24.7303 17.6404
Pd 37.1605 9.23897 37.1189
Co 29.2452 19.4473 22.2147
Pd 34.3979 7.59995 13.3578
Pd 27.6223 32.6095 33.2127
Pd 22.6507 29.552 7.88599
Co 5.22115 21.9513 30.1977
Pd 12.068 25.3061 12.5003
Pd 23.0446 18.402 42.7797
Pd 25.5219 41.9777 24.3477
Co 32.7145 41.1528 19.5822
Pd 13.4376 36.9089 9.84197
Pd 26.9458 24.1757 7.54169
Pd 11.3379 36.8824 35.3348
Co 24.2403 24.391 35.4063
Pd 11.7557 21.888 33.0923
Pd 17.0704 29.747 21.5276
Pd 20.5218 26.7101 37.7075
Co 21.1541 8.4211 28.7739
Pd 31.912 27.3805 18.1825
Pd 22.2516 33.0009 26.3096
Pd 28.592 26.5827 39.5243
Co 24.5356 17.3923 46.9735
Pd 15.1916 8.97553 33.3568
Pd 3.56199 31.7229 28.8076
Pd 34.0783 32.5101 24.092
Co 27.2794 15.9362 23.0378
Pd 18.3547 28.5919 46.6532
Pd 30.1848 14.3443 36.1197
Pd 23.6319 22.4529 5.1733
Co 46.1461 22.3772 30.5474
Co 44.2977 31.3803 20.6066
Pd 38.0572 32.1027 18.3657
Pd 21.604 42.2355 22.3893
Co 18.3666 16.9658 24.5023
Pd 22.0358 38.5483 25.5769
Pd 27.4286 30.5029 23.2173
Pd 10.627 37.2014 30.5982
Co 32.1784 26.4665 10.9132
Pd 12.7585 25.6729 23.5786
Pd 30.1856 13.9083 26.0212
Pd 30.2151 38.1934 7.09062
Co 5.12338 20.4018 18.0178
Pd 35.0418 44.2777 18.1764
Pd 6.09526 27.0453 19.8948
Pd 17.4299 36.0071 11.108
Co 39.6206 12.0773 31.4699
Pd 13.4465 16.6488 28.6306
Pd 36.5213 24.6653 16.5479
Pd 17.3771 10.0926 34.5291
Co 21.78 20.0204 40.4671
Pd 12.6134 22.9642 35.4017
Pd 30.9722 12.7634 28.1945
Pd 12.8215 34.8766 42.1585
Co 28.2426 6.29119 26.5817
Pd 9.34351 21.4483 30.951
Pd 7.82534 38.1927 20.5289
Pd 22.7439 11.8321 44.0607
Co 34.9682 10.9237 18.9176
Pd 28.1236 12.7215 35.7767
Pd 25.9788 22.9015 37.265
Pd 16.2062 41.9325 36.7963
Co 25.9075 34.1284 14.2958
Pd 10.3822 22.0092 9.96061
Pd 25.8421 23.7914 32.4337
Pd 18.7924 11.1319 38.5151
Co 9.79473 14.8407 37.344
Pd 14.4387 35.7929 20.0979
Pd 13.7849 35.3247 36.408
Pd 37.1915 36.9796 17.6669
Co 28.5377 20.0017 39.288
Co 43.8352 29.5857 30.6434
Pd 7.91211 36.8303 29.8131
Pd 21.0973 44.6943 18.449
Pd 19.9843 15.8176 22.4633
Pd 35.1264 21.701 35.3741
Co 21.3166 46.1505 27.2156
Pd 40.5207 23.0149 13.9992
Pd 33.1024 20.3517 38.3336
Pd 26.6964 25.0331 35.9687
Co 42.4116 29.8606 20.7555
Pd 14.9212 38.3307 31.7846
Pd 26.3991 16.0854 38.3255
Pd 13.4081 21.7858 41.9051
Co 7.41684 34.1057 22.351
Pd 22.8622 15.1559 22.8814
Pd 41.1312 29.583 12.0197
Pd 14.3864 18.6901 19.7865
Co 16.4514 21.2479 23.1616
Pd 15.4285 25.126 23.0463
Pd 21.814 25.5518 48.377
Pd 4.48686 19.6007 29.446
Co 18.6444 29.9042 10.1115
Pd 12.9085 30.6844 10.7881
Pd 9.37897 28.5104 41.6157
Pd 10.1215 38.8637 37.5351
Co 39.5008 6.53749 24.5625
Pd 30.4007 23.8688 32.8372
Pd 34.0917 20.12 33.177
Pd 11.7469 14.5989 24.2337
Co 7.54595 27.3047 17.8668
Pd 18.4335 38.2793 40.6661
Pd 13.4398 38.1253 36.1494
Pd 38.9446 17.0795 33.4465
Co 24.994 32.8831 45.9125
Pd 35.4823 32.8055 18.7709
Pd 29.7486 19.756 45.9134
Pd 20.4147 42.0865 14.373
Co 36.9147 20.5857 41.4056
Pd 9.15479 27.1239 15.635
Pd 13.3449 12.294 30.7867
Pd 14.8658 31.2015 46.076
Co 36.4738 27.4685 29.9073
Pd 18.3754 10.6382 21.187
Pd 9.5498 18.2805 27.6389
Co 8.61158 20.5321 28.5637
Pd 24.9326 35.2204 39.0883
Pd 21.0673 17.6986 18.6562
Pd 32.0033 18.2293 45.1521
Pd 32.1528 28.2034 21.9604
Co 32.8332 31.2003 28.3777
Pd 12.2868 22.8601 13.8505
Pd 16.1319 24.7549 45.3213
Pd 43.5667 10.8673 32.9995
Co 13.1725 31.6693 23.1803
Pd 18.0039 5.20922 26.8259
Pd 8.26016 29.0145 19.7176
Pd 40.9281 44.0338 31.4998
Co 13.8351 31.6023 18.5598
Pd 14.3633 38.218 15.473
Pd 17.7277 39.7641 36.1109
Pd 15.3863 14.4245 15.6093
Co 16.3747 13.682 27.795
Pd 17.7025 19.7052 46.199
Pd 8.62171 26.0776 20.0622
Pd 30.6545 18.8048 12.5017
Co 20.9128 15.5796 46.1397
Pd 7.8438 36.951 23.0413
Pd 6.2072 16.0316 27.933
Pd 41.7803 18.588 18.8733
Co 28.4053 23.3915 26.7819
Pd 38.2685 30.4409 39.3702
Pd 23.9223 35.1505 18.5547
Pd 9.00748 15.6678 27.9714
Co 29.8384 30.6523 38.9499
Pd 35.8417 21.9188 7.67879
Pd 29.4951 47.8525 27.8787
Pd 14.9829 22.5798 36.6263
Co 22.0807 25.2608 34.3071
Pd 17.638 33.6217 18.0976
Pd 38.2763 31.5037 43.6154
Co 30.9961 39.3761 39.254
Pd 44.7684 25.6853 15.0279
Pd 20.6809 32.0131 39.4548
Pd 10.5935 27.9996 23.4774
Pd 18.5466 20.7853 15.3793
Co 9.12274 39.135 22.7082
Pd 38.4471 26.0984 29.44
Pd 18.2778 29.3851 7.58708
Pd 6.04506 19.1653 19.9998
Co 45.2171 20.8202 33.2582
Pd 24.0457 37.462 10.0433
Pd 19.7819 26.2487 42.8999
Pd 26.4916 16.869 25.3162
Co 15.4378 33.5165 19.4224
Pd 24.6351 46.2283 16.7867
Pd 39.6282 14.5308 32.446
Pd 20.2161 36.0026 20.8432
Co 37.0952 43.6218 29.6025
Pd 11.8685 35.336 8.39681
Pd 39.2566 26.7717 44.0209
Pd 23.9913 44.7801 14.6227
Co 18.5946 19.9632 21.8064
Pd 40.8946 38.139 32.5206
Pd 13.2996 40.7071 15.0019
Pd 16.8675 40.3134 11.4852
Co 18.5161 42.1987 35.3222
Pd 23.8422 46.9141 35.1374
Pd 5.47248 17.278 30.1755
Co 7.64281 31.9703 28.3134
Pd 29.9848 18.2048 26.7705
Pd 34.2795 35.9039 30.2593
Pd 12.127 23.4008 8.53853
Pd 25.4034 26.0297 8.82064
Co 15.3693 40.3601 20.1393
Pd 16.1735 32.5395 28.6678
Pd 26.355 39.7342 45.566
Pd 24.055 16.0908 14.9752
Co 38.2962 43.4856 21.4006
Pd 6.5518 17.8614 32.4514
Pd 19.5179 20.8747 7.51793
Pd 34.3966 26.3071 9.37622
Co 41.8856 30.595 29.4964
Pd 15.7563 35.3111 44.687
Pd 18.3032 17.0491 17.7182
Pd 44.6926 23.4434 37.6654
Co 20.1447 42.897 20.0497
Pd 27.1288 48.2522 21.7039
Pd 11.7939 40.988 32.7967
Co 28.2437 37.3405 28.3779
Pd 39.6923 22.4964 10.0109
Pd 8.59181 29.7924 24.31
Pd 13.0691 19.3934 11.6586
Pd 27.4722 36.912 36.4332
Co 39.6168 43.2606 25.8481
Pd 21.7812 40.6461 20.2019
Pd 21.2711 32.3572 43.9226
Pd 38.1636 28.7503 28.2561
Co 43.6013 34.4182 37.4425
Pd 22.9213 21.7416 18.5632
Pd 35.8731 30.0047 6.25154
Co 18.4371 26.2156 45.2964
Pd 4.83667 16.5749 25.6531
Pd 31.1949 47.6376 32.8436
Pd 40.1781 15.177 8.77712
Co 6.08871 26.8723 22.2894
Pd 7.05418 28.2821 11.8194
Pd 22.0381 22.7138 13.35
Co 16.8851 26.4739 47.1866
Pd 46.3344 40.853 27.2066
Pd 7.06676 19.8508 30.5415
Pd 36.463 9.46531 29.9659
Co 39.4888 29.1442 23.5365
Co 46.7973 14.6893 34.5103
Pd 16.8102 44.3507 21.5491
Pd 20.1528 31.1831 26.5675
Co 24.127 7.47651 16.6221
Pd 12.6188 24.696 25.9146
Pd 17.4926 25.3032 34.0968
Pd 21.95 23.5176 7.17117
Co 16.727 10.6582 32.0124
Pd 34.0786 23.9136 15.9224
Pd 27.0738 19.3678 32.9134
Pd 44.0577 22.7207 32.0612
Co 23.3141 7.87974 27.7359
Pd 4.94561 20.0954 32.0277
Pd 36.4007 19.2736 22.3353
Pd 20.2867 5.27085 25.4982
Co 13.6897 35.905 17.3309
Co 21.5134 10.8955 29.5598
Pd 40.7516 35.5 31.8606
Pd 38.2005 32.6994 12.3472
Co 20.5608 9.33881 38.2873
Pd 34.326 5.72238 29.5203
Pd 24.096 11.2651 17.0627
Pd 18.5186 34.4446 6.05032
Co 11.9965 27.1131 25.7304
Pd 22.4635 7.55328 37.7531
Pd 35.1749 21.7795 37.9545
Pd 39.2622 15.6535 16.52
Co 19.2648 6.86801 18.1277
Pd 28.2171 19.1861 9.33948
Pd 34.5833 32.4626 47.2077
Pd 42.8115 27.2779 30.1116
Co 20.5696 35.5297 35.2359
Pd 17.3578 31.7968 19.9441
Pd 28.8863 4.40456 24.7126
Pd 40.618 44.4682 22.0218
Co 14.9577 41.7762 18.2234
Pd 34.6648 26.3766 31.364
Pd 15.2096 27.3974 21.5171
Pd 38.1798 7.92485 31.957
Co 34.3696 15.698 13.7037
Co 22.2721 38.4254 37.5096
Pd 24.3696 22.4101 7.74275
Pd 15.4088 21.0333 5.56693
Co 42.6858 31.5454 22.6376
Pd 40.4445 15.9345 28.12
Pd 33.9215 48.1912 23.9324
Pd 25.747 10.7383 12.5571
Co 31.0213 22.8548 8.44071
Pd 37.6199 13.6067 19.6719
Pd 45.2552 24.8383 31.0334
Pd 14.738 23.215 20.167
Co 32.8617 24.4295 8.7488
Pd 29.289 17.3067 32.3227
Pd 26.1325 37.6858 32.368
Pd 25.3524 2.38782 24.797
Co 35.9789 19.7525 39.1894
Pd 21.4355 44.7828 22.0476
Pd 11.9157 27.6473 11.5259
Pd 23.2543 5.51006 22.2756
Co 15.0259 36.8055 13.3837
Pd 39.8098 24.5416 21.0781
Pd 21.208 12.1162 37.5167
Pd 11.4362 26.0774 16.7591
Co 39.8141 41.6402 33.9979
Pd 30.4326 2.61358 22.9559
Pd 14.2124 14.6983 38.7789
Pd 37.2383 27.8911 40.029
Co 12.7506 27.6949 22.0615
Pd 16.1053 26.0975 36.4612
Pd 25.5316 21.5519 48.1451
Pd 45.7535 26.9012 22.1034
Co 44.5244 20.5258 30.7716
Co 9.65858 38.9105 29.0508
Pd 5.97233 29.1193 23.6063
Pd 12.6214 16.7929 11.6012
Co 30.6561 46.4012 22.0936
Pd 25.568 8.22761 11.9924
Pd 29.1541 10.6174 28.6269
Pd 40.2292 20.5517 18.4368
Co 26.5849 36.0351 12.6214
Pd 15.8683 6.6881 26.2473
Pd 10.8582 24.7347 19.0873
Pd 12.8192 32.635 32.7524
Co 17.309 20.3638 8.99925
Pd 31.4202 30.263 45.644
Pd 15.4251 18.8169 28.2869
Pd 42.2699 17.4722 38.9013
Co 15.2735 13.1455 13.136
Pd 5.39169 29.0503 34.1149
Pd 7.85128 38.1027 27.4589
Pd 18.0852 25.8284 18.1623
Co 21.0353 25.3939 8.80721
Pd 21.7508 7.75183 17.8552
Pd 38.0985 19.7244 32.9268
Pd 30.546 36.0841 15.8871
Co 22.7816 28.5725 15.6848
Pd 17.0219 23.4454 21.7099
Pd 34.9955 27.6645 44.9085
Pd 35.1921 10.9925 36.6474
Co 14.8667 30.5805 27.6437
Pd 34.44 28.4388 37.7658
Pd 16.0067 21.0251 16.0845
Pd 16.756 13.5756 25.2369
Co 9.29289 33.6266 28.4031
Pd 17.0039 18.0906 26.2922
Pd 40.5223 20.3109 14.1755
Pd 38.5233 27.7973 11.0313
Co 14.5693 36.6553 34.4178
Pd 23.0958 3.64031 17.6504
Pd 10.0099 35.1962 23.2181
Pd 16.7411 34.1129 12.8387
Co 33.3081 16.7734 29.6724
Co 11.9598 27.2019 28.2296
Pd 26.0412 24.7277 27.6591
Pd 4.0183 28.8723 19.6048
Co 32.36 25.7177 15.5516
Pd 22.2649 19.5956 17.1527
Pd 19.2949 12.6284 16.7121
Pd 19.0559 20.0894 12.8767
Co 20.0599 23.2543 30.1009
Pd 39.9817 24.6829 16.5711
Pd 19.3937 29.1807 36.5341
Pd 20.9727 32.6114 21.734
Co 19.502 33.3806 41.9082
Pd 12.123 10.44 21.8918
Pd 17.2675 44.5486 16.0614
Pd 18.9677 13.706 19.0812
Co 27.2465 36.794 26.221
Pd 31.3973 23.4161 40.9496
Pd 21.9337 39.2948 10.003
Pd 11.2388 28.3959 30.5539
Co 15.9738 21.0725 31.9263
Pd 42.853 35.8243 14.9952
Pd 9.10217 36.6453 25.4308
Pd 25.1171 42.4727 32.9129
Co 6.74269 25.0804 18.4746
Pd 38.5251 12.5207 33.9002
Pd 33.9363 16.4182 41.3191
Pd 26.6863 44.3279 17.1687
Co 43.434 31.3486 24.983
Pd 30.5434 20.9802 36.6735
Pd 27.038 17.005 45.9369
Pd 32.3307 32.6646 45.7798
Co 20.3102 44.3177 28.4531
Pd 32.6744 11.8183 19.9136
Pd 27.0831 44.0439 33.6358
Pd 31.4682 29.1932 34.6961
Co 28.1722 23.8385 31.1686
Pd 39.5231 39.177 23.4452
Pd 38.9363 20.7621 11.9185
Pd 28.3551 39.6845 34.7015
Co 25.7475 15.247 44.633
Pd 16.8051 39.7444 38.8746
Pd 16.7136 42.9106 39.2484
Pd 30.9605 26.0503 40.649
Co 26.1488 27.668 48.6599
Pd 39.7146 15.1658 22.5403
Pd 14.5827 9.74489 30.7596
Pd 9.52577 34.8258 30.536
Co 19.7425 31.9839 18.8114
Co 29.1635 16.767 42.0004
Pd 15.1078 11.7789 15.178
Pd 32.1402 9.40587 30.8526
Pd 31.6509 10.2339 21.9809
Co 30.5779 42.1216 15.3627
Pd 26.2914 41.5686 35.235
Pd 27.6628 18.6449 30.4745
Pd 4.1611 22.763 32.2805
Co 30.414 28.4024 23.9098
Pd 18.4563 13.3783 36.9515
Pd 34.6932 31.3027 26.6327
Pd 26.6659 16.7017 12.1735
Co 8.99479 26.4159 8.47066
Pd 12.2203 28.6451 17.744
Pd 27.5127 48.0911 32.5216
Pd 28.4537 14.4212 10.0959
Co 25.0273 23.9962 16.0514
Pd 20.7124 10.3465 33.4202
Pd 17.0804 46.7467 24.7546
Pd 30.7354 16.4451 37.5661
Co 40.9465 25.6397 28.9475
Pd 12.1314 19.0428 28.7451
Pd 23.2971 13.1992 24.6001
Pd 6.42654 35.8506 31.8434
Co 31.8847 39.1152 41.5256
Pd 48.8267 16.9151 24.3243
Pd 21.5176 24.3682 43.3489
Pd 8.23067 16.8751 36.8312
Co 13.0822 19.7218 17.6749
Pd 16.5114 33.4678 10.2053
Pd 18.3968 36.5831 28.4543
Pd 23.7435 21.1378 41.6049
Co 35.7554 12.2431 22.8242
Pd 29.207 39.208 41.2199
Pd 29.429 41.8612 11.2784
Pd 31.2652 42.2728 30.8554
Co 33.7178 30.8478 38.0863
Pd 42.5775 31.3134 18.2698
Pd 41.7018 38.4495 14.3089
Pd 16.782 43.1543 26.5497
Co 26.3968 27.5949 40.5263
Pd 34.7693 29.3373 42.9104
Pd 26.2058 24.9887 44.2406
Pd 26.6573 34.1941 40.88
Co 13.4499 17.8666 13.7808
Pd 11.5535 15.0508 39.2404
Pd 46.168 25.0843 28.6915
Pd 34.4799 35.8109 43.0355
Co 27.905 27.2158 11.7515
Pd 12.9799 34.0029 18.8378
Co 24.4374 28.271 46.9356
Pd 34.6996 25.4095 23.9617
Pd 30.4892 38.2844 17.3207
Pd 11.487 40.0028 21.875
Pd 12.9299 42.4908 37.1299
Co 8.38649 18.2072 34.6564
Pd 22.4449 18.3735 22.8483
Pd 38.6498 28.5272 18.5741
Pd 12.5425 36.7084 12.4393
Co 39.9435 31.6172 10.7777
Pd 28.9012 32.3049 21.6469
Pd 43.7521 15.5254 37.8866
Pd 34.5887 21.2915 22.5008
Co 12.9222 15.373 21.9757
Pd 25.4376 23.8259 49.3257
Pd 31.0965 29.1144 9.32023
Pd 22.8164 41.654 24.7304
Co 25.8238 38.4544 8.09398
Pd 9.83247 31.6902 9.23082
Pd 29.6579 14.8652 23.4856
Pd 15.6474 35.6749 15.4769
Co 31.8359 28.3271 41.6732
Pd 32.2287 31.5057 35.6555
Pd 24.4878 44.5531 38.5309
Pd 4.73407 27.0265 17.7153
Co 24.1374 13.7502 18.1294
Pd 30.5438 44.5937 23.9868
Pd 27.1805 38.1133 23.8371
Pd 9.73638 27.8276 35.589
Co 37.3004 43.9962 19.3133
Pd 25.4962 23.5416 41.9915
Pd 13.4455 16.7208 24.1064
Pd 34.8219 27.3702 26.0588
Co 20.5394 35.9453 15.2386
Pd 44.6763 20.5878 16.4006
Pd 33.7414 30.9967 14.4562
Pd 28.3033 37.0662 33.807
Co 21.2903 29.7674 38.1081
Pd 20.6563 29.9735 17.0803
Pd 27.4465 8.0804 30.6097
Pd 37.4261 41.9937 15.2676
Co 26.2892 36.7006 14.9462
Pd 30.0297 33.2892 6.34983
Pd 39.3974 44.2364 33.6739
Co 4.62358 30.7505 32.2977
Pd 19.6005 18.4807 30.7363
Pd 30.1232 35.3262 29.5056
Pd 3.38112 29.368 27.6033
Pd 35.1511 44.4439 20.8913
Co 27.3506 9.34545 14.3315
Pd 19.2367 9.60115 40.6416
Pd 11.9311 41.5056 39.4396
Pd 16.9485 39.7025 18.2161
Co 28.7372 33.299 42.3498
Pd 20.3119 16.0691 29.5097
Pd 26.0687 22.9006 29.8936
Pd 23.5732 22.9153 31.0122
Co 28.0391 29.1498 39.7172
Pd 10.5416 21.3553 37.5407
Pd 28.9395 35.6 5.53261
Pd 24.8947 25.5249 23.8029
Co 17.3028 27.1414 7.78607
Pd 18.9903 44.9723 26.1579
Pd 46.4959 12.7775 24.3608
Pd 21.9942 46.7693 17.2716
Co 27.6239 30.7337 37.8533
Pd 8.97265 38.0736 35.1658
Pd 18.8331 48.2865 23.4744
Pd 24.0952 38.9431 31.2751
Co 18.334 18.3826 35.5218
Pd 19.2657 45.416 20.7076
Pd 34.6617 23.7181 21.6771
Pd 19.7173 37.0856 10.0202
Co 22.6956 42.9809 13.3203
Pd 11.1112 40.2147 16.4737
Pd 14.1032 24.0987 42.9616
Pd 38.9115 32.0178 15.029
Co 24.3111 37.2089 19.9438
Pd 16.8583 12.5482 20.1511
Pd 13.8701 13.6687 28.4032
Co 42.3939 42.7581 22.6928
Pd 10.3647 38.451 26.6289
Pd 25.0227 43.2925 12.4369
Pd 16.9258 20.6978 36.6282
Pd 21.4472 23.4785 10.8771
Co 26.4846 23.1964 12.3438
Pd 14.0355 17.1637 33.9455
Pd 9.21781 16.6956 17.9004
Pd 20.5303 29.1958 3.59749
Co 25.3589 29.8944 48.7196
Pd 35.2852 12.5504 29.7822
Pd 40.5055 32.9189 17.9914
Pd 23.4882 29.6591 32.2736
Co 28.2795 7.64874 18.4861
Pd 33.9586 17.9383 34.7675
Pd 42.5756 15.2957 26.7322
Pd 36.4575 39.2509 41.9139
Co 21.6427 28.6292 23.8471
Pd 11.9831 37.0384 38.0149
Pd 19.1234 31.5761 29.0218
Pd 27.4396 35.0072 28.6857
Co 18.8632 21.9511 23.1494
Pd 8.00429 28.537 33.637
Pd 15.3619 12.6687 32.6573
Pd 26.5347 16.814 31.9496
Co 27.1844 6.65329 32.7497
Pd 21.5262 37.3892 42.2807
Pd 22.1901 44.7122 34.9098
Co 32.0817 30.0783 16.7973
Pd 11.6566 27.0156 37.3769
Pd 37.6583 7.82205 34.7223
Pd 7.13524 26.7408 35.4643
Pd 30.0769 33.8584 33.0191
Co 31.3756 29.2026 6.83844
Pd 25.8128 23.4511 9.85633
Pd 10.8558 40.043 24.5966
Pd 20.6649 23.903 37.9861
Co 14.7738 22.629 14.552
Pd 43.0069 33.2617 13.6161
Pd 15.5787 37.9695 11.1896
Pd 26.7619 49.3971 24.292
Co 20.4377 23.6096 47.5548
Pd 25.1573 31.7246 36.7052
Pd 9.6507 28.2842 13.1351
Pd 40.069 27.7075 16.3538
Co 27.2461 42.4526 13.2638
Pd 8.35988 37.9302 32.1621
Pd 23.7419 31.5699 30.41
Co 46.8409 20.0065 27.0295
Pd 17.2191 7.35581 34.0537
Pd 40.5118 23.1867 18.6432
Pd 19.8796 39.2544 38.5013
Pd 11.4417 42.384 25.813
Co 22.5493 31.7706 6.40862
Pd 39.5936 40.4926 14.2127
Pd 40.3563 39.386 20.6672
Pd 34.928 37.1024 11.5801
Co 17.0008 27.7852 19.7515
Pd 45.7192 22.4906 23.3985
Pd 24.3805 39.6354 35.7204
Co 28.2107 24.7935 46.4638
Pd 48.2919 14.496 25.6184
Pd 16.0725 25.431 19.9118
Pd 16.1315 33.767 21.9556
Pd 41.5991 35.041 27.7491
Pd 20.1821 13.8501 34.882
Co 11.7784 29.6934 12.9665
Pd 28.6758 33.7245 47.7953
Pd 8.65081 32.5944 24.011
Pd 21.1957 10.3844 42.4704
Co 15.2031 10.1305 17.0953
Pd 11.7042 25.155 43.9927
Pd 12.9344 21.9389 46.5014
Pd 7.22154 16.6465 19.7675
Co 24.7662 26.9355 36.0865
Pd 39.4486 35.4738 26.4729
Pd 26.2355 22.7614 5.5259
Pd 37.2157 14.6619 29.1559
Co 21.8494 23.8143 17.3028
Co 24.0259 16.12 31.9507
Pd 15.7938 25.882 16.972
Pd 46.2845 29.3097 17.1596
Co 32.9666 10.1104 17.5468
Pd 31.5073 21.6339 6.33058
Pd 16.6324 9.15126 38.7103
Pd 31.7795 20.5683 19.0157
Co 12.1026 21.0244 22.8004
Pd 22.4942 12.1972 9.63612
Pd 22.567 36.9692 30.2467
Pd 41.9989 17.8766 14.1091
Co 14.4102 34.405 33.6265
Pd 32.0314 17.103 10.9833
Pd 33.5719 9.65238 11.5843
Pd 31.7265 32.3363 21.1234
Co 19.0765 26.9306 26.8743
Pd 36.6902 19.0351 17.9388
Pd 40.0701 39.3337 30.231
Pd 26.3691 27.4364 13.82
Co 36.6586 31.8548 16.2431
Pd 19.236 24.5103 23.1023
Pd 16.1998 26.8975 39.0187
Pd 24.5758 9.10212 40.5143
Co 33.4629 24.4571 11.2257
Co 30.5859 18.6821 9.83933
Pd 24.6143 31.4426 7.96779
Pd 25.6993 26.0009 11.4109
Co 16.3475 11.2209 27.5998
Pd 6.71095 19.8554 35.9863
Pd 9.58282 14.7953 30.5184
Pd 5.12465 21.2954 34.3359
Co 40.521 21.9622 16.2639
Pd 18.3356 30.3917 4.67171
Pd 16.0776 31.0697 6.3516
Pd 18.3372 16.004 15.1184
Co 14.2106 27.9148 37.3465
Pd 28.4906 4.53625 22.0929
Pd 33.4876 28.4902 5.67647
Pd 26.1043 13.8477 39.7856
Co 21.8586 28.7495 12.6801
Pd 42.8079 18.0602 27.9511
Pd 21.4091 28.5063 26.4865
Pd 16.5396 12.2085 22.8062
Co 9.11822 26.097 37.4841
Pd 42.8823 8.49788 27.4289
Pd 35.9094 12.8245 34.3965
Pd 38.7959 23.2584 41.3363
Co 46.8701 16.5582 26.0554
Pd 14.8406 33.102 31.2442
Pd 30.7014 24.6361 10.1594
Pd 32.4419 28.5219 28.8509
Co 9.20015 31.6 26.3863
Pd 31.5012 23.0747 15.4557
Pd 13.2715 14.9561 41.2446
Pd 21.8786 43.8308 30.3873
Co 25.5506 26.2079 19.4163
Co 19.6682 14.4933 41.9533
Pd 33.1194 13.3984 34.6181
Pd 18.5971 28.3379 43.7171
Co 17.4689 36.4504 13.7529
Pd 21.2623 34.8421 23.0375
Pd 15.731 28.0922 14.8399
Pd 17.4019 37.6893 30.7838
Co 11.7464 20.5801 30.9282
Pd 9.47899 36.2989 37.2248
Pd 38.1156 40.0239 39.6769
Pd 21.8559 30.9318 19.7884
Co 29.0256 23.956 16.6952
Pd 35.2416 15.3933 19.8534
Pd 7.96854 18.8384 21.8136
Pd 24.7225 37.1376 17.0915
Co 33.3916 28.5294 8.17797
Pd 14.9726 19.965 7.94999
Pd 31.5043 39.4805 31.2597
Pd 45.437 34.7829 23.493
Co 21.6636 46.5665 20.1006
Pd 21.3338 11.5274 25.04
Pd 45.6058 25.3263 35.7666
Pd 26.6573 8.20502 36.6966
Co 35.8418 39.4965 12.2531
Pd 14.156 19.2947 42.6194
Pd 44.3422 16.3061 24.8561
Pd 12.0214 24.5253 28.5103
Co 38.3303 21.6582 14.3704
Pd 31.5571 11.3314 12.603
Pd 24.4142 30.0314 5.77152
Pd 20.2485 30.4253 47.5587
Co 43.9426 32.0379 33.9465
Pd 6.01029 34.3883 34.2732
Pd 35.1301 14.1093 41.9213
Pd 34.3299 6.17325 15.6883
Co 23.4156 6.08335 29.4684
Pd 36.9099 26.0044 45.3722
Pd 48.4454 24.181 27.8829
Pd 42.8826 25.0446 40.6662
Co 18.0359 37.768 37.7144
Co 22.547 6.29697 24.7848
Pd 32.84 22.7704 36.4552
Pd 17.9831 31.8088 11.6898
Co 16.386 27.4656 44.9418
Pd 30.0614 31.0491 13.0097
Pd 26.2664 25.3839 4.81916
Pd 34.0798 13.3506 7.53499
Co 13.5585 14.4369 32.4329
Pd 6.05774 24.9175 23.7535
Pd 12.5482 30.5304 31.269
Pd 16.528 17.1228 19.7295
Co 32.3246 44.9612 25.9748
Pd 25.3338 14.7449 24.2256
Pd 16.7044 28.5669 5.55553
Pd 10.9731 34.6382 20.4616
Co 16.3513 30.4354 15.3497
Pd 4.55535 21.8609 20.7295
Pd 15.9781 36.278 8.94084
Pd 9.15438 20.4583 35.4087
Co 5.66822 18.7048 26.475
Pd 34.7202 15.474 33.9842
Pd 45.9516 28.0347 34.3239
Pd 14.5058 29.5603 22.6247
Co 10.5316 24.2012 33.2584
Pd 36.4593 25.2906 13.457
Pd 19.5952 39.5138 28.0798
Pd 34.9887 26.7454 14.8887
Co 25.2159 8.275 29.1599
Pd 24.6204 29.1521 44.3237
Pd 23.0694 19.0005 45.5487
Pd 9.84648 22.9634 35.5067
Co 40.3073 41.9595 23.9738
Pd 29.0917 17.3274 18.907
Pd 16.8169 46.1002 27.2172
Pd 12.0843 9.70245 24.4847
Co 14.4462 16.646 42.7346
Pd 19.4871 23.4561 18.1863
Pd 30.7724 26.8136 33.8107
Pd 47.9968 32.2217 28.952
Co 7.99818 22.3981 26.9375
Pd 26.857 16.1216 29.3968
Pd 20.1136 15.2192 17.2415
Pd 22.5203 32.0113 37.2803
Co 21.8921 8.94059 40.4901
Pd 23.9084 20.6163 38.3017
Pd 10.1784 25.5975 24.5913
Pd 22.1952 27.2359 43.8499
Co 35.137 25.0611 43.6244
Co 37.8354 16.1581 31.209
Pd 23.6552 11.2661 14.1512
Pd 27.8612 5.2773 17.4558
Pd 28.2029 35.4042 10.2356
Co 30.6914 46.9205 16.2934
Pd 15.9979 8.5359 24.3948
Pd 13.6556 23.1576 22.7665
Pd 41.9741 14.4717 16.8737
Co 14.5805 33.8433 14.0687
Pd 48.8489 19.1108 25.8649
Pd 13.4241 18.7602 22.4043
Pd 23.4747 19.1347 35.9717
Co 29.9579 8.6828 26.902
Pd 20.2844 30.7927 23.6399
Pd 10.466 25.2151 10.1967
Pd 33.9216 8.90788 15.5086
Co 15.728 42.8165 32.5281
Pd 32.9167 25.7105 22.029
Pd 21.3747 21.5662 31.8772
Pd 18.8983 8.0468 30.0754
Co 7.92804 21.8032 37.3074
Pd 30.4171 18.9491 40.9495
Pd 28.3984 14.4879 12.7609
Pd 29.0511 23.3014 11.636
Co 21.787 10.4306 18.1245
Pd 5.06317 24.9736 36.7436
Pd 12.1259 36.695 19.2542
Pd 33.2971 14.9549 11.5496
Co 33.4554 17.0431 27.0003
Pd 29.5279 35.5643 26.9721
Pd 28.8937 42.0073 21.2246
Pd 17.5165 18.91 10.9425
Co 9.19977 23.7214 21.2117
Pd 21.4527 16.9855 31.7569
Pd 28.111 38.9829 18.6532
Pd 21.0878 17.4761 44.4002
Co 24.3215 6.36305 36.2169
Pd 37.7401 39.7613 21.3193
Pd 8.20857 28.1746 22.1958
Pd 34.9845 21.279 43.402
Co 7.4481 26.7025 30.2228
Pd 15.5921 38.8911 34.651
Pd 46.2989 16.1089 30.2973
Pd 6.81879 33.6631 16.884
Co 20.8953 34.1573 37.4134
Pd 39.2061 35.5356 38.7866