4033
Atoms. Timestep: 20135
Co 5.4759 13.0211 26.217
Pd 3.54911 16.736 24.345
Pd 5.33994 14.8052 24.2752
Co 5.3641 16.7515 22.438
Pd 3.62358 14.8652 26.2178
Pd 3.5492 16.7344 28.0921
Pd 5.34004 14.8035 28.1602
Co 5.37618 16.7151 26.2185
Co 5.3643 16.7483 29.9991
Pd 3.52407 20.5448 20.5353
Pd 5.29494 18.6049 20.4924
Co 5.35553 20.5548 18.6382
Pd 3.52963 18.6421 22.4386
Pd 3.43836 20.5148 24.3147
Pd 5.34369 18.6412 24.34
Co 5.3239 20.5221 22.4155
Pd 3.4563 18.6104 26.2194
Pd 3.43846 20.5132 28.1257
Pd 5.34378 18.6396 28.0987
Co 5.2978 20.5314 26.2201
Pd 3.52982 18.6389 30.0001
Pd 3.52435 20.54 31.9051
Pd 5.29523 18.6 31.9463
Co 5.32409 20.5189 30.0248
Co 5.35591 20.5484 33.8021
Pd 3.55135 24.3543 16.7313
Pd 5.31329 22.4121 16.689
Co 5.40741 24.3574 14.8386
Pd 3.5331 22.4513 18.6273
Pd 3.44228 24.3267 20.5042
Pd 5.33251 22.4455 20.5359
Co 5.34323 24.3231 18.616
Pd 3.43307 22.4204 22.4101
Pd 3.4145 24.3229 24.3159
Pd 5.28786 22.4236 24.3154
Co 5.28545 24.3324 22.421
Pd 3.421 22.4182 26.221
Pd 3.4146 24.3213 28.1277
Pd 5.28796 22.4219 28.1265
Co 5.27029 24.3237 26.2218
Pd 3.43326 22.4171 30.0319
Pd 3.44257 24.3219 31.9394
Pd 5.3328 22.4407 31.906
Co 5.28564 24.3291 30.0225
Pd 3.53348 22.4448 33.8147
Pd 3.55183 24.3462 35.7123
Pd 5.31377 22.404 35.7529
Co 5.34361 24.3166 33.8275
Co 5.40798 24.3477 37.605
Pd 5.39619 26.2327 12.9647
Pd 3.62194 26.2323 14.8603
Pd 3.55226 28.1088 16.7329
Pd 5.39557 26.2311 16.7492
Co 5.40832 28.1064 14.8402
Pd 3.46431 26.2308 18.6018
Pd 3.44321 28.1332 20.5058
Pd 5.30547 26.2295 20.5122
Co 5.34416 28.1375 18.6176
Pd 3.42306 26.2292 22.4091
Pd 3.41544 28.1338 24.3175
Pd 5.27493 26.2279 24.3227
Co 5.28637 28.125 22.4226
Pd 3.40781 26.2275 26.2226
Pd 3.41553 28.1322 28.1293
Pd 5.27502 26.2263 28.1224
Co 5.27122 28.1304 26.2234
Pd 3.42326 26.2259 30.0362
Pd 3.4435 28.1283 31.9411
Pd 5.30576 26.2247 31.933
Co 5.28657 28.1218 30.0241
Pd 3.46469 26.2243 33.8435
Pd 3.55274 28.1008 35.7139
Pd 5.39605 26.223 35.696
Co 5.34454 28.131 33.8292
Pd 3.62251 26.2227 37.5849
Pd 5.39686 26.2214 39.4804
Co 5.4089 28.0967 37.6065
Pd 5.31515 30.0502 16.6923
Pd 3.53495 30.0102 18.6305
Pd 3.52685 31.915 20.5401
Pd 5.33436 30.0134 20.5391
Co 5.3583 31.9058 18.643
Pd 3.43493 30.0379 22.4133
Pd 3.44115 31.9419 24.3195
Pd 5.28972 30.0322 24.3187
Co 5.32668 31.9353 22.4203
Pd 3.42286 30.0368 26.2242
Pd 3.44125 31.9402 28.1305
Pd 5.28982 30.0306 28.1297
Co 5.30059 31.9228 26.225
Pd 3.43512 30.0347 30.0351
Pd 3.52713 31.9102 31.9099
Pd 5.33464 30.0086 31.9092
Co 5.32688 31.9321 30.0296
Pd 3.53533 30.0038 33.8179
Pd 5.31563 30.0421 35.7561
Co 5.35868 31.8993 33.8069
Pd 5.29866 33.8541 20.4989
Pd 3.53334 33.8162 22.4451
Pd 3.55375 35.7206 24.3531
Pd 5.3474 33.8145 24.3464
Co 5.36874 35.7059 22.4461
Pd 3.46002 33.8447 26.2258
Pd 3.55384 35.719 28.1002
Pd 5.34749 33.8129 28.1051
Co 5.38082 35.7391 26.2266
Pd 3.53353 33.813 30.0066
Pd 5.29895 33.8493 31.9527
Co 5.36893 35.7027 30.0071
Pd 5.34552 37.6506 24.2849
Pd 3.62914 37.5898 26.2274
Pd 5.34562 37.649 28.1699
Co 5.48236 39.4329 26.2282
Co 9.22985 9.23825 26.2153
Pd 7.22738 12.8838 24.2913
Pd 9.08975 11.0058 24.2924
Co 9.12726 12.9242 22.4114
Pd 7.28547 11.0699 26.2161
Pd 7.22747 12.8822 28.1424
Pd 9.08984 11.0041 28.1397
Co 9.09322 12.8862 26.2168
Co 9.12745 12.9209 30.0222
Pd 7.19068 16.6804 20.4825
Pd 9.06358 14.7826 20.4656
Co 9.10943 16.7232 18.6073
Pd 7.20962 14.7943 22.3612
Pd 7.2118 16.691 24.2927
Pd 9.08511 14.7838 24.2882
Co 9.07368 16.6726 22.3636
Pd 7.23297 14.8127 26.2177
Pd 7.2119 16.6893 28.1442
Pd 9.08521 14.7822 28.147
Co 9.10432 16.6918 26.2184
Pd 7.20982 14.791 30.0742
Pd 7.19097 16.6755 31.9544
Pd 9.06387 14.7777 31.9696
Co 9.07388 16.6693 30.0733
Co 9.10981 16.7168 33.8296
Pd 7.19449 20.4842 16.6817
Pd 9.05865 18.5865 16.6687
Co 9.12105 20.5274 14.8052
Pd 7.18808 18.6003 18.5665
Pd 7.19161 20.495 20.4947
Pd 9.07131 18.5855 20.4755
Co 9.0688 20.4745 18.5651
Pd 7.19543 18.6035 22.3847
Pd 7.21151 20.522 24.3148
Pd 9.09787 18.594 24.2925
Co 9.09595 20.5019 22.3972
Pd 7.23312 18.6077 26.2193
Pd 7.2116 20.5203 28.1254
Pd 9.09797 18.5924 28.146
Co 9.10815 20.5086 26.22
Pd 7.19562 18.6003 30.0539
Pd 7.1919 20.4902 31.9455
Pd 9.0716 18.5807 31.963
Co 9.09614 20.4987 30.0429
Pd 7.18846 18.5938 33.8721
Pd 7.19497 20.4761 35.7585
Pd 9.05913 18.5784 35.7697
Co 9.06919 20.468 33.875
Co 9.12162 20.5177 37.6349
Pd 7.23516 24.3083 12.8861
Pd 9.08452 22.4012 12.8682
Co 9.16723 24.3621 11.0279
Pd 7.21223 22.4037 14.7607
Pd 7.22842 24.295 16.6944
Pd 9.08434 22.3845 16.6763
Co 9.09454 24.2867 14.7676
Pd 7.20005 22.4035 18.5861
Pd 7.21448 24.3262 20.513
Pd 9.09324 22.3999 20.4927
Co 9.10794 24.3093 18.5952
Pd 7.20703 22.4201 22.4179
Pd 7.18491 24.326 24.3203
Pd 9.10461 22.4206 24.3197
Co 9.10509 24.3202 22.414
Pd 7.18899 22.4241 26.2209
Pd 7.18501 24.3244 28.1231
Pd 9.10471 22.4189 28.122
Co 9.09917 24.3238 26.2217
Pd 7.20722 22.4169 30.0239
Pd 7.21477 24.3214 31.9304
Pd 9.09352 22.3951 31.949
Co 9.10528 24.3169 30.0293
Pd 7.20044 22.3971 33.8557
Pd 7.2289 24.2869 35.749
Pd 9.08482 22.3764 35.7653
Co 9.10832 24.3028 33.8481
Pd 7.21281 22.3939 37.681
Pd 7.23584 24.2969 39.5573
Pd 9.08519 22.3898 39.5735
Co 9.09512 24.277 37.6756
Co 9.168 24.3493 41.4154
Pd 9.17523 26.2334 9.16719
Pd 7.31988 26.233 11.0267
Pd 7.2361 28.1563 12.8878
Pd 9.12107 26.2318 12.9064
Co 9.16814 28.103 11.0295
Pd 7.25451 26.2315 14.7913
Pd 7.22937 28.1663 16.696
Pd 9.10889 26.2302 16.6878
Co 9.09549 28.1753 14.7693
Pd 7.23918 26.2298 18.6169
Pd 7.21541 28.1319 20.5146
Pd 9.11524 26.2286 20.5169
Co 9.10887 28.1495 18.5969
Pd 7.19121 26.2282 22.4197
Pd 7.18584 28.1288 24.3219
Pd 9.09912 26.227 24.3192
Co 9.10602 28.1354 22.4156
Pd 7.18023 26.2266 26.2225
Pd 7.18593 28.1272 28.1247
Pd 9.09922 26.2253 28.1257
Co 9.1001 28.1285 26.2233
Pd 7.1914 26.225 30.0253
Pd 7.2157 28.127 31.932
Pd 9.11553 26.2237 31.928
Co 9.10621 28.1321 30.031
Pd 7.23956 26.2234 33.8281
Pd 7.22985 28.1582 35.7506
Pd 9.10938 26.2221 35.7572
Co 9.10926 28.143 33.8497
Pd 7.25509 26.2218 37.6538
Pd 7.23678 28.145 39.5589
Pd 9.12174 26.2205 39.5386
Co 9.09607 28.1656 37.6773
Pd 7.32064 26.2201 41.4183
Pd 9.17609 26.2189 43.2777
Co 9.16891 28.0901 41.417
Pd 9.08639 30.0625 12.8715
Pd 7.2141 30.0593 14.764
Pd 7.1973 31.9771 16.6865
Pd 9.08622 30.0759 16.6796
Co 9.12383 31.9346 14.81
Pd 7.20192 30.0562 18.5893
Pd 7.19441 31.9631 20.4995
Pd 9.09511 30.0572 20.496
Co 9.07162 31.9843 18.57
Pd 7.20889 30.0363 22.4211
Pd 7.21429 31.9329 24.3197
Pd 9.10647 30.0334 24.3229
Co 9.09875 31.9536 22.402
Pd 7.19085 30.0292 26.2241
Pd 7.21439 31.9313 28.1302
Pd 9.10657 30.0318 28.1253
Co 9.11095 31.9437 26.2249
Pd 7.20908 30.0331 30.0272
Pd 7.1947 31.9582 31.9504
Pd 9.0954 30.0524 31.9522
Co 9.09894 31.9504 30.0478
Pd 7.20231 30.0497 33.8589
Pd 7.19778 31.969 35.7634
Pd 9.0867 30.0678 35.7686
Co 9.072 31.9778 33.8798
Pd 7.21468 30.0496 37.6843
Pd 9.08706 30.0512 39.5767
Co 9.12441 31.9249 37.6398
Pd 9.06238 33.874 16.6752
Pd 7.19181 33.8595 18.573
Pd 7.19535 35.7777 20.4906
Pd 9.07505 33.8717 20.482
Co 9.11407 35.7355 18.6154
Pd 7.19915 33.853 22.3911
Pd 7.21646 35.7639 24.3008
Pd 9.1016 33.8599 24.299
Co 9.07835 35.783 22.3717
Pd 7.23685 33.8456 26.2257
Pd 7.21656 35.7622 28.1523
Pd 9.1017 33.8583 28.1525
Co 9.10898 35.7605 26.2265
Pd 7.19935 33.8497 30.0604
Pd 7.19564 35.7728 31.9625
Pd 9.07534 33.8668 31.9695
Co 9.07855 35.7797 30.0814
Pd 7.19219 33.853 33.8786
Pd 9.06287 33.8659 35.7762
Co 9.11446 35.7291 33.8376
Pd 9.06918 37.6746 20.4753
Pd 7.21521 37.6622 22.3709
Pd 7.2339 39.571 24.3026
Pd 9.09071 37.6702 24.298
Co 9.13376 39.5313 22.4227
Pd 7.23855 37.6405 26.2274
Pd 7.234 39.5694 28.1538
Pd 9.0908 37.6685 28.1567
Co 9.09974 39.5662 26.2281
Pd 7.2154 37.659 30.0839
Pd 9.06947 37.6697 31.9793
Co 9.13396 39.5281 30.0335
Pd 9.09718 41.4482 24.3053
Pd 7.29287 41.3833 26.2289
Pd 9.09728 41.4465 28.1526
Co 9.23815 43.214 26.2297
Co 13.0109 5.48245 26.2136
Pd 10.9965 9.09814 24.2915
Pd 12.8736 7.23486 24.2887
Co 12.914 9.13557 22.4097
Pd 11.0605 7.29297 26.2144
Pd 10.9965 9.09651 28.1388
Pd 12.8737 7.23322 28.1399
Co 12.8777 9.09984 26.2151
Co 12.9142 9.13234 30.0205
Pd 10.9693 12.862 20.465
Pd 12.8519 10.9785 20.4642
Co 12.899 12.909 18.5962
Pd 10.9808 10.9901 22.3596
Pd 10.979 12.8759 24.2864
Pd 12.8675 10.9864 24.2856
Co 12.8538 12.8622 22.3567
Pd 11.0078 11.0154 26.216
Pd 10.9791 12.8743 28.1471
Pd 12.8676 10.9848 28.1462
Co 12.8807 12.8873 26.2167
Pd 10.981 10.9868 30.0723
Pd 10.9696 12.8571 31.9685
Pd 12.8521 10.9736 31.9677
Co 12.854 12.8589 30.0767
Co 12.8993 12.9025 33.8373
Pd 10.9631 16.6617 16.662
Pd 12.8433 14.7705 16.6563
Co 12.8972 16.7101 14.7937
Pd 10.9658 14.7768 18.5457
Pd 10.9679 16.6663 20.4644
Pd 12.853 14.7673 20.4596
Co 12.8466 16.6547 18.5456
Pd 10.9729 14.7759 22.3627
Pd 10.9798 16.6781 24.2927
Pd 12.8699 14.774 24.2905
Co 12.8723 16.6756 22.3813
Pd 10.9774 14.7744 26.2176
Pd 10.9799 16.6765 28.1441
Pd 12.87 14.7724 28.1445
Co 12.8742 16.6753 26.2183
Pd 10.9731 14.7726 30.0725
Pd 10.9682 16.6615 31.9723
Pd 12.8533 14.7624 31.9754
Co 12.8725 16.6723 30.0554
Pd 10.9661 14.7702 33.8895
Pd 10.9636 16.6536 35.7747
Pd 12.8438 14.7624 35.7787
Co 12.847 16.6482 33.8911
Co 12.8978 16.7004 37.643
Pd 10.9784 20.4722 12.8629
Pd 12.8513 18.5785 12.8573
Co 12.9154 20.5258 11.0008
Pd 10.9681 18.5815 14.7452
Pd 10.9725 20.4688 16.6657
Pd 12.8523 18.5671 16.6581
Co 12.8529 20.4609 14.7494
Pd 10.9669 18.575 18.5573
Pd 10.9786 20.4855 20.479
Pd 12.8691 18.5735 20.4711
Co 12.8734 20.4814 18.5746
Pd 10.98 18.5797 22.3823
Pd 10.994 20.496 24.3055
Pd 12.8796 18.5826 24.3026
Co 12.8823 20.4873 22.392
Pd 10.9879 18.5862 26.2192
Pd 10.994 20.4944 28.1345
Pd 12.8797 18.581 28.1356
Co 12.8892 20.4906 26.2199
Pd 10.9802 18.5764 30.0561
Pd 10.9789 20.4806 31.9609
Pd 12.8694 18.5686 31.9671
Co 12.8825 20.4841 30.0479
Pd 10.9673 18.5685 33.8811
Pd 10.973 20.4607 35.7743
Pd 12.8528 18.559 35.7802
Co 12.8738 20.4749 33.8653
Pd 10.9686 18.5718 37.6932
Pd 10.9791 20.4609 39.577
Pd 12.852 18.5672 39.5809
Co 12.8535 20.4511 37.6904
Co 12.9161 20.5128 41.4391
Pd 11.0228 24.3117 9.08967
Pd 12.8821 22.4039 9.07379
Co 12.9701 24.363 7.24361
Pd 10.9947 22.404 10.954
Pd 10.9984 24.2953 12.8802
Pd 12.8674 22.382 12.8684
Co 12.8817 24.2867 10.9718
Pd 10.9798 22.3837 14.7605
Pd 10.9852 24.3035 16.6759
Pd 12.8725 22.386 16.6717
Co 12.8821 24.3062 14.7803
Pd 10.9819 22.3893 18.5793
Pd 10.9979 24.3105 20.4957
Pd 12.8841 22.3959 20.4894
Co 12.8826 24.3078 18.5844
Pd 10.9941 22.4029 22.4002
Pd 11.0053 24.3182 24.3143
Pd 12.8951 22.4019 24.3082
Co 12.8962 24.3124 22.4022
Pd 11.0052 22.4071 26.2208
Pd 11.0054 24.3166 28.1289
Pd 12.8952 22.4003 28.1333
Co 12.9028 24.3135 26.2216
Pd 10.9943 22.3997 30.0414
Pd 10.9982 24.3056 31.9475
Pd 12.8844 22.3911 31.9521
Co 12.8964 24.3091 30.0409
Pd 10.9823 22.3829 33.8623
Pd 10.9857 24.2954 35.7673
Pd 12.873 22.3779 35.7698
Co 12.883 24.3013 33.8588
Pd 10.9803 22.374 37.681
Pd 10.999 24.284 39.563
Pd 12.8681 22.3707 39.5731
Co 12.8827 24.2965 37.6628
Pd 10.9955 22.3911 41.4875
Pd 11.0237 24.2972 43.3535
Pd 12.883 22.3894 43.3677
Co 12.8825 24.2737 41.4713
Co 12.9711 24.3469 45.1995
Pd 13.003 26.234 5.37666
Pd 11.1255 26.2337 7.23004
Pd 11.0238 28.1542 9.0913
Pd 12.9138 26.2325 9.12122
Co 12.971 28.1035 7.2452
Pd 11.0331 26.2321 10.9914
Pd 10.9993 28.1674 12.8818
Pd 12.8899 26.2309 12.8847
Co 12.8827 28.1767 10.9734
Pd 10.9949 26.2305 14.7831
Pd 10.9861 28.1559 16.6775
Pd 12.8826 26.2293 16.6863
Co 12.8831 28.154 14.782
Pd 10.9955 26.2289 18.5902
Pd 10.9988 28.1457 20.4974
Pd 12.8917 26.2277 20.4955
Co 12.8835 28.1491 18.586
Pd 11.0071 26.2273 22.4104
Pd 11.0062 28.1348 24.3159
Pd 12.904 26.226 24.3153
Co 12.8972 28.1413 22.4038
Pd 11.0046 26.2257 26.2224
Pd 11.0063 28.1332 28.1306
Pd 12.9041 26.2244 28.1295
Co 12.9037 28.1369 26.2232
Pd 11.0072 26.2241 30.0344
Pd 10.9991 28.1409 31.9491
Pd 12.892 26.2228 31.9492
Co 12.8974 28.1381 30.0425
Pd 10.9959 26.2225 33.8547
Pd 10.9866 28.1478 35.769
Pd 12.8831 26.2212 35.7584
Co 12.8839 28.1427 33.8604
Pd 10.9955 26.2208 37.6618
Pd 11 28.156 39.5647
Pd 12.8905 26.2196 39.5601
Co 12.8837 28.1443 37.6644
Pd 11.0338 26.2192 41.4534
Pd 11.0246 28.1397 43.3552
Pd 12.9146 26.218 43.3235
Co 12.8834 28.1638 41.4729
Pd 11.1265 26.2176 45.2148
Pd 13.0041 26.2164 47.0681
Co 12.972 28.0874 45.2011
Pd 12.884 30.0611 9.07704
Pd 10.9966 30.0603 10.9573
Pd 10.9812 31.9905 12.8678
Pd 12.8693 30.0798 12.8717
Co 12.9181 31.9376 11.0057
Pd 10.9816 30.0774 14.7638
Pd 10.9753 31.9907 16.6706
Pd 12.8743 30.0726 16.6749
Co 12.8558 31.9993 14.7543
Pd 10.9838 30.0685 18.5825
Pd 10.9814 31.9707 20.4839
Pd 12.886 30.0594 20.4926
Co 12.8762 31.9755 18.5795
Pd 10.996 30.0517 22.4035
Pd 10.9968 31.957 24.3103
Pd 12.8969 30.0502 24.3115
Co 12.8851 31.9664 22.3969
Pd 11.0071 30.0442 26.224
Pd 10.9968 31.9553 28.1394
Pd 12.897 30.0485 28.1365
Co 12.892 31.9599 26.2248
Pd 10.9962 30.0485 30.0446
Pd 10.9817 31.9659 31.9658
Pd 12.8863 30.0545 31.9554
Co 12.8853 31.9631 30.0527
Pd 10.9842 30.062 33.8656
Pd 10.9758 31.9826 35.7792
Pd 12.8748 30.0645 35.7731
Co 12.8766 31.969 33.8701
Pd 10.9822 30.0677 37.6843
Pd 10.9819 31.9792 39.5819
Pd 12.8699 30.0684 39.5763
Co 12.8563 31.9896 37.6953
Pd 10.9974 30.0473 41.4908
Pd 12.8849 30.0465 43.371
Co 12.9189 31.9247 41.4439
Pd 12.855 33.8833 12.8638
Pd 10.9718 33.8796 14.7517
Pd 10.9678 35.7978 16.6701
Pd 12.856 33.8915 16.6646
Co 12.9019 35.75 14.8018
Pd 10.9706 33.8829 18.5638
Pd 10.9725 35.7899 20.4725
Pd 12.8729 33.8819 20.4776
Co 12.8513 35.8023 18.5537
Pd 10.9837 33.875 22.3887
Pd 10.9845 35.7749 24.3008
Pd 12.8833 33.8695 24.3091
Co 12.877 35.7782 22.3894
Pd 10.9916 33.8652 26.2257
Pd 10.9846 35.7733 28.1522
Pd 12.8834 33.8679 28.1421
Co 12.8789 35.7751 26.2264
Pd 10.9839 33.8717 30.0626
Pd 10.9728 35.785 31.9804
Pd 12.8732 33.877 31.9736
Co 12.8772 35.7749 30.0635
Pd 10.971 33.8764 33.8876
Pd 10.9683 35.7897 35.7828
Pd 12.8565 33.8834 35.7867
Co 12.8517 35.7958 33.8992
Pd 10.9724 33.8699 37.6997
Pd 12.8557 33.872 39.5874
Co 12.9024 35.7403 37.651
Pd 12.8489 37.6881 16.666
Pd 10.9713 37.6811 18.5554
Pd 10.9758 39.5943 20.4763
Pd 12.8586 37.688 20.4693
Co 12.9055 39.5479 18.6075
Pd 10.9785 37.6788 22.3724
Pd 10.9855 39.5771 24.2978
Pd 12.8755 37.6781 24.3003
Co 12.8604 39.5916 22.3681
Pd 10.983 37.677 26.2273
Pd 10.9856 39.5755 28.1584
Pd 12.8756 37.6764 28.1542
Co 12.8872 39.5632 26.228
Pd 10.9787 37.6755 30.0822
Pd 10.9761 39.5894 31.9798
Pd 12.8589 37.6831 31.9851
Co 12.8605 39.5883 30.088
Pd 10.9717 37.6746 33.8992
Pd 12.8494 37.68 35.7885
Co 12.9058 39.5415 33.8486
Pd 12.8593 41.4769 20.4771
Pd 10.9883 41.4646 22.3726
Pd 11.0048 43.3549 24.306
Pd 12.875 41.4657 24.2985
Co 12.9224 43.3181 22.4242
Pd 11.0153 41.436 26.2289
Pd 11.0049 43.3532 28.1533
Pd 12.8751 41.464 28.1592
Co 12.8861 43.3506 26.2296
Pd 10.9885 41.4613 30.0852
Pd 12.8596 41.472 31.9806
Co 12.9226 43.3149 30.035
Pd 12.8829 45.2172 24.3049
Pd 11.0698 45.1584 26.2305
Pd 12.883 45.2156 28.156
Co 13.021 46.9679 26.2312
Pd 14.794 5.34648 24.2709
Pd 16.724 3.55468 24.3391
Co 16.7395 5.37053 22.4329
Pd 14.8541 3.62923 26.2127
Pd 14.7941 5.34484 28.156
Pd 16.7241 3.55309 28.0862
Co 16.7048 5.38092 26.2134
Co 16.7397 5.36732 29.9939
Pd 14.7716 9.07185 20.4631
Pd 16.6684 7.19802 20.4783
Co 16.7113 9.11758 18.6039
Pd 14.7832 7.21703 22.3578
Pd 14.7745 9.09166 24.2857
Pd 16.6807 7.21742 24.2884
Co 16.6624 9.08018 22.3601
Pd 14.8033 7.23864 26.2143
Pd 14.7746 9.09003 28.1444
Pd 16.6808 7.21579 28.14
Co 16.6834 9.10907 26.215
Pd 14.7833 7.21376 30.0708
Pd 14.7718 9.06697 31.967
Pd 16.6687 7.19315 31.9501
Co 16.6626 9.0769 30.0699
Co 16.7117 9.11113 33.8262
Pd 14.7596 12.8533 16.6554
Pd 16.6499 10.9722 16.6595
Co 16.6984 12.9071 14.792
Pd 14.7658 10.9749 18.544
Pd 14.7581 12.8613 20.4587
Pd 16.6562 10.9752 20.4619
Co 16.6446 12.8548 18.5439
Pd 14.7666 10.9804 22.361
Pd 14.7666 12.8764 24.2897
Pd 16.6697 10.9854 24.2901
Co 16.6672 12.8788 22.3795
Pd 14.7669 10.9831 26.2159
Pd 14.7667 12.8748 28.1436
Pd 16.6698 10.9838 28.1415
Co 16.6687 12.879 26.2166
Pd 14.7668 10.9771 30.0707
Pd 14.7584 12.8564 31.9746
Pd 16.6565 10.9703 31.9698
Co 16.6674 12.8755 30.0537
Pd 14.7661 10.9684 33.8878
Pd 14.76 12.8452 35.7779
Pd 16.6504 10.9641 35.7722
Co 16.645 12.8483 33.8894
Co 16.699 12.8974 37.6412
Pd 14.7624 16.6582 12.8554
Pd 16.6465 14.7732 12.8545
Co 16.7065 16.7181 10.9942
Pd 14.7591 14.7699 14.7383
Pd 14.7538 16.6557 16.6546
Pd 16.6457 14.7628 16.6538
Co 16.6415 16.6515 14.7442
Pd 14.7549 14.7641 18.5476
Pd 14.7608 16.6685 20.4684
Pd 16.6603 14.7681 20.4675
Co 16.662 16.6702 18.5687
Pd 14.7614 14.7688 22.3767
Pd 14.7724 16.6761 24.3006
Pd 16.6695 14.778 24.2997
Co 16.6687 16.6752 22.3877
Pd 14.7704 14.7761 26.2175
Pd 14.7725 16.6744 28.1359
Pd 16.6696 14.7764 28.1351
Co 16.6743 16.6791 26.2182
Pd 14.7616 14.7655 30.0583
Pd 14.7611 16.6636 31.9682
Pd 16.6605 14.7632 31.9673
Co 16.6689 16.6719 30.0487
Pd 14.7553 14.7575 33.8873
Pd 14.7542 16.6475 35.7819
Pd 16.6461 14.7547 35.7811
Co 16.6624 16.6637 33.8677
Pd 14.7597 14.7602 37.6966
Pd 14.7631 16.6469 39.5812
Pd 16.6472 14.7618 39.5803
Co 16.6421 16.6417 37.6922
Co 16.7072 16.7051 41.4423
Pd 14.7871 20.4774 9.07049
Pd 16.6696 18.5942 9.0628
Co 16.7451 20.5459 7.21703
Pd 14.7729 18.5823 10.9433
Pd 14.7639 20.4654 12.865
Pd 16.6509 18.5679 12.8628
Co 16.6571 20.4646 10.9624
Pd 14.7561 18.5659 14.7505
Pd 14.762 20.4755 16.6675
Pd 16.659 18.5678 16.6661
Co 16.6647 20.4784 14.7765
Pd 14.7608 18.5688 18.5671
Pd 14.7759 20.4843 20.4846
Pd 16.67 18.5782 20.4831
Co 16.6696 20.4823 18.5807
Pd 14.7736 18.5789 22.3897
Pd 14.7838 20.4887 24.3068
Pd 16.6775 18.5828 24.3056
Co 16.6803 20.4887 22.3977
Pd 14.7778 18.5802 26.2191
Pd 14.7839 20.4871 28.133
Pd 16.6776 18.5812 28.1325
Co 16.6838 20.4892 26.2198
Pd 14.7738 18.5756 30.0485
Pd 14.7762 20.4794 31.9552
Pd 16.6703 18.5733 31.9549
Co 16.6805 20.4854 30.042
Pd 14.7612 18.5624 33.871
Pd 14.7625 20.4674 35.7723
Pd 16.6595 18.5597 35.772
Co 16.67 20.4759 33.859
Pd 14.7566 18.5562 37.6876
Pd 14.7646 20.454 39.5747
Pd 16.6515 18.5566 39.5752
Co 16.6653 20.4687 37.6632
Pd 14.7737 18.5693 41.4949
Pd 14.7879 20.4629 43.3693
Pd 16.6705 18.5797 43.3753
Co 16.6579 20.4516 41.4772
Co 16.7461 20.5298 45.2227
Pd 14.8463 24.3131 5.33454
Pd 16.7373 22.4274 5.30469
Co 16.8372 24.3891 3.59997
Pd 14.8141 22.4044 7.17236
Pd 14.7989 24.2953 9.09897
Pd 16.6791 22.3878 9.09411
Co 16.7031 24.2878 7.21439
Pd 14.7753 22.3831 10.9694
Pd 14.7728 24.3028 12.8801
Pd 16.6676 22.3857 12.8818
Co 16.6823 24.3075 11.001
Pd 14.766 22.3848 14.7738
Pd 14.7755 24.308 16.6836
Pd 16.6704 22.3933 16.685
Co 16.6715 24.307 14.7891
Pd 14.7753 22.394 18.5826
Pd 14.7847 24.3111 20.4928
Pd 16.6804 22.3979 20.493
Co 16.6787 24.311 18.5919
Pd 14.7867 22.3981 22.3986
Pd 14.7958 24.3117 24.3109
Pd 16.6882 22.3995 24.3104
Co 16.6884 24.3118 22.4027
Pd 14.7912 22.3987 26.2207
Pd 14.7959 24.3101 28.1321
Pd 16.6883 22.3979 28.1309
Co 16.6934 24.3109 26.2215
Pd 14.7869 22.3948 30.0428
Pd 14.785 24.3062 31.9503
Pd 16.6807 22.3931 31.9483
Co 16.6886 24.3086 30.0402
Pd 14.7757 22.3875 33.8588
Pd 14.776 24.2999 35.7595
Pd 16.6709 22.3852 35.7563
Co 16.6791 24.3046 33.8511
Pd 14.7666 22.3751 37.6676
Pd 14.7735 24.2915 39.5629
Pd 16.6683 22.3744 39.5595
Co 16.6721 24.2973 37.6538
Pd 14.7761 22.3701 41.472
Pd 14.7998 24.2807 43.344
Pd 16.6799 22.3732 43.3472
Co 16.683 24.2945 41.442
Pd 14.8151 22.3882 45.269
Pd 14.8474 24.2954 47.1085
Pd 16.7383 22.4096 47.1366
Co 16.7041 24.2717 45.2285
Co 16.8384 24.3699 48.843
Pd 15.0307 26.2343 3.50892
Pd 14.8472 28.1541 5.33617
Pd 16.7654 26.2331 5.41898
Co 16.8381 28.0786 3.60154
Pd 14.836 26.2328 7.22419
Pd 14.7999 28.1688 9.10061
Pd 16.6979 26.2316 9.11297
Co 16.7041 28.1769 7.21604
Pd 14.7889 26.2312 10.9953
Pd 14.7738 28.158 12.8818
Pd 16.6765 26.23 12.8993
Co 16.6832 28.1541 11.0026
Pd 14.7786 26.2296 14.7865
Pd 14.7764 28.1496 16.6852
Pd 16.6765 26.2283 16.6928
Co 16.6725 28.1513 14.7907
Pd 14.7816 26.228 18.5899
Pd 14.7857 28.1433 20.4944
Pd 16.685 26.2267 20.4982
Co 16.6797 28.144 18.5935
Pd 14.7925 26.2264 22.4029
Pd 14.7968 28.1394 24.3125
Pd 16.6939 26.2251 24.3123
Co 16.6893 28.14 22.4043
Pd 14.8007 26.2248 26.2223
Pd 14.7969 28.1378 28.1338
Pd 16.694 26.2235 28.1322
Co 16.6944 28.1377 26.2231
Pd 14.7927 26.2231 30.0417
Pd 14.786 28.1385 31.9519
Pd 16.6853 26.2219 31.9463
Co 16.6895 28.1368 30.0418
Pd 14.782 26.2215 33.8547
Pd 14.7769 28.1415 35.7611
Pd 16.677 26.2203 35.7518
Co 16.6801 28.1376 33.8527
Pd 14.7792 26.2199 37.6582
Pd 14.7745 28.1467 39.5645
Pd 16.6772 26.2187 39.5452
Co 16.673 28.1416 37.6555
Pd 14.7897 26.2183 41.4493
Pd 14.8007 28.1543 43.3457
Pd 16.6988 26.217 43.3316
Co 16.684 28.1411 41.4436
Pd 14.837 26.2167 45.2205
Pd 14.8483 28.1364 47.1101
Pd 16.7665 26.2155 47.0256
Co 16.705 28.1608 45.2302
Pd 15.0318 26.2151 48.9357
Co 16.8393 28.0594 48.8446
Pd 16.7391 30.039 5.30792
Pd 14.816 30.0613 7.17561
Pd 14.7899 31.9867 9.07538
Pd 16.6809 30.0754 9.09737
Co 16.7479 31.9188 7.22186
Pd 14.7772 30.0794 10.9726
Pd 14.7667 31.9955 12.8699
Pd 16.6695 30.0742 12.8851
Co 16.6599 31.997 10.9673
Pd 14.7679 30.0745 14.7771
Pd 14.7648 31.9821 16.6724
Pd 16.6723 30.0634 16.6883
Co 16.6675 31.9799 14.7813
Pd 14.7772 30.062 18.5858
Pd 14.7787 31.9701 20.4894
Pd 16.6823 30.0555 20.4962
Co 16.6724 31.9728 18.5856
Pd 14.7886 30.0547 22.4018
Pd 14.7866 31.9625 24.3116
Pd 16.69 30.0507 24.3136
Co 16.6831 31.9632 22.4025
Pd 14.7931 30.0508 26.2239
Pd 14.7867 31.9608 28.1379
Pd 16.6901 30.0491 28.1342
Co 16.6866 31.9594 26.2247
Pd 14.7888 30.0515 30.0461
Pd 14.779 31.9653 31.9601
Pd 16.6825 30.0507 31.9516
Co 16.6833 31.9599 30.0469
Pd 14.7776 30.0556 33.8621
Pd 14.7653 31.974 35.7772
Pd 16.6728 30.0553 35.7595
Co 16.6728 31.9663 33.8638
Pd 14.7685 30.0648 37.6708
Pd 14.7674 31.9842 39.5796
Pd 16.6702 30.0629 39.5627
Co 16.6681 31.9702 37.6681
Pd 14.778 30.0665 41.4753
Pd 14.7907 31.9721 43.3742
Pd 16.6818 30.0608 43.3504
Co 16.6607 31.984 41.4821
Pd 14.817 30.0452 45.2723
Pd 16.7402 30.0212 47.1399
Co 16.7488 31.9027 45.2275
Pd 16.6734 33.869 9.06928
Pd 14.7767 33.8802 10.9498
Pd 14.7671 35.8027 12.8635
Pd 16.6546 33.892 12.8693
Co 16.7111 35.7435 11.0023
Pd 14.7598 33.8934 14.7571
Pd 14.7584 35.802 16.6627
Pd 16.6628 33.8889 16.6726
Co 16.6462 35.8069 14.7524
Pd 14.7645 33.8872 18.5736
Pd 14.7654 35.7859 20.4765
Pd 16.6737 33.8753 20.4896
Co 16.6667 35.7849 18.5768
Pd 14.7774 33.8739 22.3962
Pd 14.7771 35.7751 24.3087
Pd 16.6812 33.8674 24.3121
Co 16.6734 35.7767 22.3958
Pd 14.7816 33.8694 26.2256
Pd 14.7772 35.7735 28.1441
Pd 16.6813 33.8658 28.1389
Co 16.679 35.7695 26.2263
Pd 14.7776 33.8706 30.055
Pd 14.7657 35.781 31.9763
Pd 16.674 33.8704 31.9614
Co 16.6736 35.7734 30.0569
Pd 14.7649 33.8807 33.8775
Pd 14.7589 35.7939 35.79
Pd 16.6632 33.8808 35.7785
Co 16.6671 35.7784 33.8758
Pd 14.7604 33.8836 37.6941
Pd 14.7677 35.7913 39.5893
Pd 16.6553 33.8807 39.5817
Co 16.6468 35.7972 37.7003
Pd 14.7774 33.8673 41.5014
Pd 16.6742 33.8544 43.3818
Co 16.7119 35.7305 41.4503
Pd 16.6521 37.6868 12.8642
Pd 14.7647 37.6893 14.7481
Pd 14.7661 39.6044 16.6668
Pd 16.6513 37.6939 16.6635
Co 16.7049 39.5512 14.8033
Pd 14.7605 37.692 18.5573
Pd 14.7646 39.5931 20.4701
Pd 16.6659 37.6854 20.4772
Co 16.6512 39.6003 18.5552
Pd 14.767 37.684 22.3864
Pd 14.7731 39.5747 24.301
Pd 16.6751 37.6722 24.3095
Co 16.6737 39.5731 22.3909
Pd 14.776 37.6735 26.2272
Pd 14.7732 39.5731 28.155
Pd 16.6752 37.6706 28.1448
Co 16.6752 39.5696 26.2279
Pd 14.7672 37.6808 30.068
Pd 14.7649 39.5882 31.9859
Pd 16.6661 37.6805 31.9771
Co 16.6739 39.5698 30.065
Pd 14.7609 37.6855 33.8971
Pd 14.7666 39.5963 35.7892
Pd 16.6518 37.6858 35.7908
Co 16.6516 39.5938 33.9007
Pd 14.7653 37.6796 37.7063
Pd 16.6528 37.6755 39.59
Co 16.7055 39.5415 37.6526
Pd 16.6574 41.4845 16.6724
Pd 14.7732 41.4812 18.5569
Pd 14.7799 43.3826 20.4776
Pd 16.6637 41.4783 20.4748
Co 16.7197 43.3375 18.6184
Pd 14.774 41.4724 22.3739
Pd 14.7828 43.3595 24.3002
Pd 16.6772 41.4648 24.303
Co 16.6708 43.3717 22.3747
Pd 14.7743 41.4664 26.2288
Pd 14.7829 43.3579 28.159
Pd 16.6773 41.4632 28.1545
Co 16.6917 43.3395 26.2295
Pd 14.7742 41.4692 30.0837
Pd 14.7802 43.3777 31.9816
Pd 16.664 41.4734 31.9827
Co 16.6709 43.3684 30.0844
Pd 14.7736 41.4746 33.9007
Pd 16.6578 41.4764 35.7851
Co 16.7201 43.331 33.8407
Pd 16.6777 45.2555 20.4944
Pd 14.7924 45.2358 22.3739
Pd 14.8042 47.1047 24.2887
Pd 16.69 45.2328 24.3046
Co 16.7497 47.0813 22.4506
Pd 14.8126 45.2109 26.2304
Pd 14.8043 47.103 28.1737
Pd 16.6901 45.2312 28.1561
Co 16.715 47.0677 26.2311
Pd 14.7926 45.2325 30.0869
Pd 16.678 45.2506 31.9663
Co 16.7499 47.078 30.0116
Pd 16.735 48.8955 24.3583
Pd 14.8651 48.8203 26.2319
Pd 16.7351 48.8939 28.1055
Pd 18.592 5.30133 20.4864
Pd 20.5311 3.52949 20.5277
Co 20.5411 5.3618 18.6314
Pd 18.6292 3.53513 22.4318
Pd 18.6301 5.34833 24.334
Pd 20.5027 3.4421 24.307
Co 20.5101 5.32848 22.4087
Pd 18.5992 3.46011 26.2126
Pd 18.6302 5.34674 28.0927
Pd 20.5028 3.44048 28.118
Co 20.521 5.30068 26.2133
Pd 18.6294 3.53192 29.9934
Pd 18.5923 5.29647 31.9403
Pd 20.5314 3.52467 31.8974
Co 20.5103 5.32526 30.018
Co 20.5415 5.35536 33.7953
Pd 18.5737 9.06677 16.6644
Pd 20.4705 7.20168 16.6757
Co 20.5138 9.12906 14.8
Pd 18.5874 7.19534 18.5613
Pd 18.5745 9.07772 20.4712
Pd 20.483 7.19707 20.4887
Co 20.4626 9.07515 18.56
Pd 18.5924 7.20097 22.3795
Pd 18.5847 9.10256 24.2882
Pd 20.5117 7.21524 24.3088
Co 20.4918 9.10055 22.3921
Pd 18.5983 7.23694 26.2142
Pd 18.5848 9.10092 28.1417
Pd 20.5118 7.21363 28.1194
Co 20.5001 9.11104 26.2149
Pd 18.5926 7.19771 30.0488
Pd 18.5748 9.07285 31.9587
Pd 20.4833 7.19221 31.9395
Co 20.4919 9.09731 30.0378
Pd 18.5878 7.18884 33.867
Pd 18.5742 9.05866 35.7655
Pd 20.471 7.19359 35.7525
Co 20.463 9.06865 33.8698
Co 20.5144 9.11937 37.6298
Pd 18.5659 12.8611 12.8548
Pd 20.4587 10.9873 12.8587
Co 20.5123 12.9251 10.9974
Pd 18.5688 10.977 14.7418
Pd 18.5562 12.8604 16.6555
Pd 20.4569 10.9797 16.6614
Co 20.4491 12.861 14.746
Pd 18.564 10.9742 18.5539
Pd 18.5643 12.8756 20.4685
Pd 20.4754 10.9841 20.4748
Co 20.4714 12.8798 18.5712
Pd 18.5704 10.9856 22.3788
Pd 18.5751 12.8843 24.3001
Pd 20.4877 10.9977 24.3012
Co 20.479 12.887 22.3886
Pd 18.5787 10.9917 26.2158
Pd 18.5752 12.8827 28.1331
Pd 20.4878 10.9961 28.1302
Co 20.4839 12.8921 26.2165
Pd 18.5706 10.9823 30.0527
Pd 18.5645 12.8707 31.9646
Pd 20.4757 10.9792 31.9567
Co 20.4792 12.8837 30.0444
Pd 18.5644 10.9677 33.8776
Pd 18.5566 12.8523 35.7776
Pd 20.4574 10.9716 35.77
Co 20.4718 12.8733 33.8618
Pd 18.5694 10.9673 37.6898
Pd 18.5665 12.8498 39.5783
Pd 20.4593 10.976 39.5728
Co 20.4497 12.8513 37.687
Co 20.5131 12.9122 41.4357
Pd 18.5817 16.6812 9.06194
Pd 20.464 14.7977 9.06794
Co 20.5326 16.7565 7.21533
Pd 18.5697 14.7836 10.9416
Pd 18.5572 16.6607 12.862
Pd 20.4537 14.7728 12.8625
Co 20.4529 16.6669 10.9607
Pd 18.5551 14.7651 14.7488
Pd 18.5588 16.6671 16.6652
Pd 20.4655 14.7692 16.6649
Co 20.4685 16.6727 14.7747
Pd 18.5597 14.7681 18.5654
Pd 18.5708 16.6764 20.4823
Pd 20.476 14.7814 20.482
Co 20.4741 16.676 18.579
Pd 18.5715 14.7792 22.388
Pd 18.5772 16.6822 24.3048
Pd 20.4821 14.7876 24.3042
Co 20.4822 16.6849 22.396
Pd 18.5745 14.7816 26.2174
Pd 18.5773 16.6806 28.1316
Pd 20.4822 14.7859 28.1305
Co 20.4845 16.6867 26.2181
Pd 18.5717 14.7759 30.0468
Pd 18.5711 16.6715 31.9541
Pd 20.4763 14.7765 31.9526
Co 20.4824 16.6816 30.0403
Pd 18.5601 14.7616 33.8693
Pd 18.5592 16.659 35.7711
Pd 20.466 14.7611 35.7697
Co 20.4745 16.6695 33.8572
Pd 18.5556 14.7553 37.6859
Pd 18.5578 16.6494 39.5744
Pd 20.4543 14.7615 39.5722
Co 20.4691 16.663 37.6615
Pd 18.5705 14.7707 41.4932
Pd 18.5826 16.6666 43.3744
Pd 20.4649 14.7831 43.3667
Co 20.4537 16.6539 41.4755
Co 20.5336 16.7404 45.221
Pd 18.6364 20.5365 5.29125
Pd 20.5233 18.6487 5.2904
Co 20.6073 20.6203 3.571
Pd 18.6064 18.6188 7.1535
Pd 18.5833 20.4818 9.09035
Pd 20.4703 18.5939 9.0895
Co 20.4912 20.5026 7.19612
Pd 18.5649 18.5756 10.9658
Pd 18.5645 20.4777 12.883
Pd 20.4679 18.5734 12.8822
Co 20.4803 20.49 11.0038
Pd 18.5596 18.5686 14.7728
Pd 18.5707 20.4827 16.6851
Pd 20.4746 18.5779 16.6842
Co 20.4747 20.4828 14.7934
Pd 18.5704 18.5776 18.5807
Pd 18.5791 20.4888 20.4927
Pd 20.4824 18.5846 20.4919
Co 20.4824 20.4887 18.5935
Pd 18.5782 18.5837 22.3967
Pd 18.5855 20.4918 24.3096
Pd 20.4872 18.5892 24.3088
Co 20.4886 20.4932 22.4028
Pd 18.5815 18.5853 26.219
Pd 18.5856 20.4902 28.13
Pd 20.4872 18.5876 28.1291
Co 20.4913 20.4942 26.2197
Pd 18.5783 18.5805 30.0413
Pd 18.5794 20.484 31.9469
Pd 20.4827 18.5797 31.946
Co 20.4888 20.49 30.0367
Pd 18.5708 18.5712 33.8573
Pd 18.5712 20.4746 35.7545
Pd 20.4751 18.5698 35.7536
Co 20.4828 20.4822 33.846
Pd 18.5602 18.5589 37.6652
Pd 18.5652 20.4664 39.5565
Pd 20.4685 18.5621 39.5557
Co 20.4753 20.4731 37.646
Pd 18.5657 18.5627 41.4721
Pd 18.5842 20.4673 43.3492
Pd 20.4712 18.5794 43.3484
Co 20.481 20.4771 41.4357
Pd 18.6074 18.6026 45.2845
Pd 18.6375 20.5188 47.1484
Pd 20.5244 18.6309 47.1475
Co 20.4921 20.4865 45.2434
Co 20.6085 20.6011 48.8686
Pd 18.7437 22.5368 3.44456
Pd 18.6603 24.3412 5.38157
Pd 20.5495 22.4516 5.36635
Co 20.5661 24.3613 3.51825
Pd 18.6096 22.405 7.20928
Pd 18.5929 24.3066 9.12339
Pd 20.4963 22.4034 9.11939
Co 20.535 24.3329 7.25369
Pd 18.5764 22.3885 11.0005
Pd 18.5763 24.3089 12.9043
Pd 20.4797 22.3959 12.9102
Co 20.4895 24.3105 11.028
Pd 18.5719 22.3935 14.7929
Pd 18.5769 24.3108 16.6964
Pd 20.4815 22.3973 16.6997
Co 20.4818 24.3114 14.8098
Pd 18.5784 22.3975 18.5932
Pd 18.5856 24.3122 20.4998
Pd 20.4886 22.401 20.501
Co 20.4869 24.3121 18.6025
Pd 18.5866 22.4005 22.4032
Pd 18.5922 24.3121 24.3128
Pd 20.4936 22.4026 24.3125
Co 20.4938 24.3129 22.4078
Pd 18.5902 22.4004 26.2206
Pd 18.5923 24.3105 28.1301
Pd 20.4937 22.4009 28.1286
Co 20.4964 24.3122 26.2214
Pd 18.5868 22.3973 30.038
Pd 18.5859 24.3074 31.943
Pd 20.4889 22.3961 31.9401
Co 20.4939 24.3097 30.035
Pd 18.5787 22.391 33.848
Pd 18.5774 24.3027 35.7464
Pd 20.482 22.3892 35.7415
Co 20.4873 24.3056 33.8403
Pd 18.5724 22.3838 37.6483
Pd 18.5769 24.2976 39.5386
Pd 20.4803 22.3846 39.531
Co 20.4823 24.3017 37.633
Pd 18.5772 22.3756 41.4407
Pd 18.5937 24.2921 43.3194
Pd 20.4972 22.3889 43.3217
Co 20.4903 24.2976 41.4147
Pd 18.6106 22.3889 45.2319