4033
Atoms. Timestep: 21149
Co 4.81868 19.5851 28.774
Pd 6.46092 17.9935 22.5109
Pd 6.19517 18.3625 26.9544
Co 12.218 19.6987 27.6544
Pd 3.56296 22.7317 25.8395
Pd 4.54619 21.6909 30.2051
Pd 5.82135 21.2098 26.91
Co 7.48983 23.0827 27.8274
Co 6.79998 21.0412 29.1975
Pd 6.03053 20.4771 21.9918
Pd 6.70596 22.3257 18.4123
Co 9.14782 20.1834 10.0305
Pd 7.08394 24.5858 19.939
Pd 4.35383 24.0889 23.654
Pd 6.52923 19.4868 19.506
Co 7.66096 21.7323 20.5803
Pd 8.82137 12.8455 22.9766
Pd 6.0791 25.9696 24.5089
Pd 4.11099 25.3975 26.0715
Co 5.98026 23.5933 25.8186
Pd 8.25039 19.9266 27.3276
Pd 4.0111 24.3461 30.4131
Pd 5.18563 21.8408 34.824
Co 8.49421 20.2266 30.878
Co 6.76367 23.4993 35.7891
Pd 4.40777 27.8722 24.3619
Pd 5.5368 27.3068 16.7576
Co 8.54073 23.8204 14.9202
Pd 4.7524 21.4641 19.8844
Pd 5.68788 24.7865 17.4479
Pd 4.46826 24.1803 19.7189
Co 4.40212 28.7101 18.6446
Pd 8.46488 19.3857 21.3156
Pd 3.32043 29.2561 26.2872
Pd 4.27309 19.2974 23.4705
Co 5.24745 27.833 27.059
Pd 5.06484 23.4443 28.2002
Pd 2.43762 26.9167 27.2344
Pd 6.56941 25.2742 29.7188
Co 4.47486 26.0933 28.5249
Pd 2.62167 24.3044 28.0609
Pd 5.04349 27.3504 33.5297
Pd 3.25767 21.4348 27.9897
Co 4.76762 27.0348 30.7286
Pd 2.3737 26.4147 29.963
Pd 4.96714 30.0658 34.2285
Pd 7.21667 23.6956 33.3774
Co 10.7142 26.5513 35.3358
Co 7.46806 26.1469 33.8056
Pd 13.1292 28.9897 7.24897
Pd 13.8109 28.5883 9.82401
Pd 6.05767 24.9683 14.5787
Pd 8.10493 25.9952 13.0992
Co 9.39756 27.9093 14.5332
Pd 8.17459 28.7492 12.5523
Pd 5.22622 28.7509 21.0619
Pd 8.43816 24.9924 25.3552
Co 7.21896 27.2957 20.704
Pd 5.77769 23.1112 21.6319
Pd 4.18699 31.5896 25.5019
Pd 5.14959 30.5062 27.7523
Co 8.44308 29.9822 25.5628
Pd 3.67157 32.6341 28.0089
Pd 3.48586 28.5513 28.928
Pd 7.53513 27.6841 25.9047
Co 6.17856 32.8393 28.2882
Pd 3.15564 28.5712 31.7316
Pd 4.68333 33.4588 30.3503
Pd 7.1722 27.2221 31.3383
Co 5.87309 28.9319 29.5511
Pd 6.80403 31.4173 39.293
Pd 7.90491 36.4401 38.2557
Pd 8.63614 27.9393 35.5503
Co 5.4808 29.4329 31.7925
Pd 4.90782 24.7043 34.4274
Pd 13.2627 27.2506 44.752
Co 7.19233 33.7742 30.3609
Pd 6.93513 29.042 18.6405
Pd 4.91222 30.3195 23.2081
Pd 7.57316 34.5259 25.792
Pd 6.83375 31.9942 25.9278
Co 5.29047 26.6053 19.35
Pd 6.35822 27.7513 14.2226
Pd 5.01505 34.0421 26.1304
Pd 10.2444 31.081 27.0364
Co 7.27793 31.1111 23.6071
Pd 5.83808 35.5301 23.9531
Pd 7.10023 31.314 32.7263
Pd 8.68112 33.0196 27.5999
Co 5.94422 29.6378 25.4419
Pd 3.81667 30.8154 30.1173
Pd 9.76941 33.2392 36.6798
Pd 7.6093 27.5886 28.5505
Co 10.5772 37.4596 25.6244
Pd 5.71258 28.4935 36.1744
Pd 8.37349 30.7678 41.2803
Co 8.80264 32.2475 34.6143
Pd 6.24666 32.009 21.4727
Pd 7.70043 29.844 21.1137
Pd 4.61296 35.2141 28.434
Pd 9.78914 35.7005 27.403
Co 5.43838 32.9207 23.7562
Pd 8.20513 36.8654 24.8612
Pd 7.7379 30.2854 28.0746
Pd 8.62958 35.3947 31.8991
Co 9.07207 36.9216 34.1772
Pd 5.91467 37.6326 28.73
Pd 9.51102 30.0611 33.4361
Co 9.39545 34.421 29.5625
Pd 11.9846 34.7858 28.9119
Pd 7.15512 35.206 28.2086
Pd 8.67812 40.6004 27.3222
Co 9.94952 41.6371 25.2778
Co 8.41154 14.5028 27.44
Pd 8.44497 11.9191 27.0607
Pd 11.1398 8.96562 23.9412
Co 8.93006 17.2864 22.5439
Pd 5.01051 17.0682 28.8832
Pd 7.47874 13.9881 25.1668
Pd 6.28625 15.7325 26.8079
Co 12.5358 14.2574 29.3133
Co 10.2101 15.5761 29.0249
Pd 9.49869 16.5843 16.1439
Pd 9.3313 10.8104 24.6852
Co 10.2056 18.9186 17.0698
Pd 8.94681 15.0287 21.1547
Pd 5.37085 17.174 24.7548
Pd 9.46978 15.192 23.831
Co 8.21133 17.9426 18.0108
Pd 14.4557 18.3202 27.531
Pd 6.0138 17.1566 31.4221
Pd 7.0421 15.5022 29.4079
Co 15.9609 16.5557 25.913
Pd 4.82555 22.8532 32.4888
Pd 7.15083 21.1486 32.9482
Pd 8.51017 13.2987 29.8279
Co 8.9795 12.8989 32.3891
Co 5.77015 25.2475 32.1073
Pd 9.81399 17.9223 10.9676
Pd 9.548 12.6806 20.3275
Co 12.2869 21.9918 10.0296
Pd 9.88924 17.4761 20.0042
Pd 8.99267 20.347 18.7975
Pd 10.7091 12.8222 18.0537
Co 12.0499 17.9973 12.6564
Pd 7.00079 15.5208 23.0395
Pd 8.91723 23.6386 21.7257
Pd 14.349 20.8688 28.8097
Co 8.26982 21.3581 22.9979
Pd 6.78998 19.5367 24.6906
Pd 3.64628 21.7401 22.3459
Pd 8.48102 17.0553 27.8166
Co 12.3978 19.1725 25.2678
Pd 9.3071 21.7965 29.1063
Pd 8.73465 25.0574 31.7337
Pd 10.1175 18.9957 29.1616
Co 9.16041 22.4467 31.8409
Pd 5.74981 19.2093 34.0252
Pd 7.35128 20.0851 38.1894
Pd 5.85431 22.1179 37.6011
Co 5.19913 19.9643 36.5249
Co 10.7076 17.6828 36.5723
Pd 9.44558 22.2129 11.4536
Pd 13.516 23.7749 6.25373
Co 11.2906 19.9749 8.98779
Pd 7.44977 23.3357 12.8014
Pd 6.34962 22.7553 15.887
Pd 8.62044 19.0697 15.22
Co 10.0246 24.1452 13.0788
Pd 6.90651 20.0655 16.9453
Pd 7.95872 25.923 22.7305
Pd 8.82515 21.7613 16.5046
Co 9.24772 28.1974 19.382
Pd 10.6141 25.6791 22.7803
Pd 9.96357 23.1597 24.0754
Pd 11.2977 21.0402 23.707
Co 9.23829 25.8142 20.4227
Pd 8.03586 21.9065 25.5211
Pd 6.66634 25.5371 27.1902
Pd 9.07775 24.5412 29.2436
Co 9.46585 26.1668 27.3616
Pd 9.31631 19.3634 24.1767
Pd 8.82783 24.9134 35.7313
Pd 3.27466 25.791 32.4461
Co 11.4688 25.9911 31.3169
Pd 5.96176 27.0482 38.515
Pd 6.43472 26.0659 36.0693
Pd 7.90019 18.549 32.6068
Co 9.74238 20.2693 33.0795
Pd 9.12693 24.3907 39.3964
Pd 10.8962 30.6549 41.6883
Pd 6.85401 24.4974 38.1944
Co 9.38206 20.1884 40.061
Co 9.48198 29.1611 39.5848
Pd 10.9916 31.7627 11.4954
Pd 17.1479 25.0038 4.55808
Pd 8.49911 31.357 12.5276
Pd 12.3132 26.3209 9.90151
Co 15.0495 27.4665 7.94265
Pd 12.0167 22.4835 12.4869
Pd 7.6467 26.5731 18.3033
Pd 5.26789 29.9126 16.5962
Co 7.57227 28.8537 16.179
Pd 8.27024 24.2477 17.3129
Pd 9.70181 27.3725 24.5568
Pd 10.3835 30.1652 20.6043
Co 9.59093 27.738 16.9664
Pd 5.38746 21.645 24.2766
Pd 7.14516 23.5794 23.6386
Pd 11.0881 25.1273 25.3978
Co 9.33319 27.8154 21.7801
Pd 9.57794 27.157 30.1179
Pd 10.4998 34.2345 34.2009
Pd 13.674 25.027 25.6796
Co 9.67017 28.5809 27.2355
Pd 8.22222 29.5259 30.9887
Pd 9.687 27.2765 33.0059
Pd 10.5355 24.6086 33.6037
Co 11.2715 28.6824 31.6418
Pd 11.5427 28.8905 34.5461
Pd 5.13163 29.4773 38.6418
Pd 8.45085 26.7095 37.8863
Co 7.68235 32.05 37.0535
Pd 7.64737 26.2197 40.4954
Pd 13.6287 36.6675 41.7622
Pd 10.1886 26.7445 39.8297
Co 11.5678 30.2035 39.0423
Pd 9.20655 38.521 39.1965
Pd 15.574 38.3661 42.7228
Co 12.7856 32.5173 42.5554
Pd 12.4499 34.3949 19.3055
Pd 5.44333 30.9926 19.2118
Pd 7.23743 31.535 16.9931
Pd 8.31946 31.8379 19.4534
Co 8.88956 30.3934 14.9288
Pd 9.33133 30.126 17.7614
Pd 5.36397 25.9356 21.8723
Pd 12.8061 25.1431 18.6583
Co 9.83918 32.203 16.3507
Pd 9.35775 29.7724 23.2548
Pd 13.8771 31.9767 22.4793
Pd 11.7389 27.2355 26.7095
Co 11.5444 30.9787 23.0329
Pd 10.3128 29.7677 29.41
Pd 8.22656 36.8141 29.7896
Pd 11.1635 33.5635 26.6536
Co 6.25706 31.335 30.2578
Pd 8.71553 31.8908 29.9843
Pd 7.25278 28.6572 33.4442
Pd 14.3894 28.7705 28.904
Co 11.0502 32.4028 29.1648
Pd 5.37795 31.1854 36.7647
Pd 10.3069 40.8183 35.8872
Pd 9.50979 31.6235 38.9303
Co 11.8982 34.8046 36.8491
Pd 7.0634 28.7433 40.2717
Pd 7.70934 29.3773 37.7778
Co 7.08014 34.3514 36.7141
Pd 7.88181 32.7392 14.7492
Pd 12.1931 33.7429 14.78
Pd 7.72004 36.2641 22.2
Pd 9.66056 32.1518 24.6571
Co 7.92942 33.8333 20.9562
Pd 10.112 37.1108 22.985
Pd 6.73339 38.5781 31.1866
Pd 9.09278 39.2046 29.7565
Co 10.9597 39.71 26.3745
Pd 8.36493 37.9125 27.3627
Pd 4.55952 31.8252 32.4111
Pd 6.94476 28.392 23.2905
Co 10.6735 36.5044 30.1885
Pd 5.91053 36.6759 26.3056
Pd 10.3517 43.8107 30.3548
Pd 6.99177 36.7974 35.7055
Co 9.03968 37.9263 31.9819
Pd 6.12014 33.973 32.5767
Pd 9.37025 35.6632 36.2611
Co 6.26463 32.6195 34.8484
Pd 11.9385 33.402 23.7214
Pd 6.3119 38.2199 23.9602
Pd 10.0876 34.6097 22.1144
Pd 9.97978 42.8631 27.6867
Co 9.22086 32.0271 22.0025
Pd 8.57402 40.4755 32.0393
Pd 8.67995 41.8441 29.7423
Pd 11.0063 36.3824 32.7169
Co 14.0899 43.7188 27.9976
Pd 11.3901 38.7347 31.1062
Pd 6.67608 36.6958 33.0302
Co 10.8007 41.3174 31.0722
Pd 5.67357 34.5959 21.508
Pd 6.41894 39.2862 26.425
Pd 6.75005 40.0867 28.9997
Co 12.1758 41.9095 24.284
Co 14.88 6.39097 25.5474
Pd 14.8395 11.4518 21.2158
Pd 15.4004 8.92304 25.5731
Co 18.4584 11.1165 18.5115
Pd 10.2691 8.93956 26.4305
Pd 12.6316 13.9343 26.7257
Pd 14.5312 10.3551 27.6082
Co 14.4878 7.80071 27.6351
Co 11.7278 10.0872 30.6804
Pd 11.3718 13.4955 22.0581
Pd 10.3998 10.8837 22.1117
Co 17.6181 13.9546 13.0505
Pd 11.2268 11.2698 26.5779
Pd 10.4989 15.6877 26.4097
Pd 12.5608 17.2917 20.5016
Co 13.2156 16.7513 25.6492
Pd 14.8302 12.9926 28.528
Pd 12.5648 11.6394 28.6897
Pd 9.39094 10.6186 31.5366
Co 16.4984 12.5741 24.3687
Pd 4.05674 19.6243 26.0284
Pd 10.491 13.2763 28.0914
Pd 9.96283 10.6311 28.8591
Co 16.3134 13.1153 30.7326
Co 13.4021 9.94703 32.5565
Pd 15.1188 19.7937 7.72286
Pd 15.9477 15.7121 12.0052
Co 13.5063 14.3285 15.2392
Pd 12.7715 10.9123 17.65
Pd 10.0095 13.2821 25.4453
Pd 9.29114 15.2857 18.429
Co 13.1605 13.4709 17.8787
Pd 11.0307 17.2906 24.2339
Pd 10.288 18.3441 26.4998
Pd 13.5219 15.3993 22.1671
Co 11.0576 16.0939 22.0219
Pd 13.7266 12.1083 30.9369
Pd 12.0868 17.1055 28.0597
Pd 14.3287 15.6393 27.8237
Co 14.4819 14.8915 30.6577
Pd 16.8558 15.4931 31.7283
Pd 7.13521 18.5653 29.4695
Pd 10.197 14.9669 31.4597
Co 13.6419 17.833 32.1792
Pd 7.57466 15.0273 31.9517
Pd 11.9132 13.8195 38.3109
Pd 11.7397 10.1439 35.1762
Co 5.84481 19.7878 31.2718
Co 11.7773 23.6366 42.703
Pd 11.1093 14.6651 14.1456
Pd 12.1751 17.8281 10.0553
Co 8.71023 24.7146 10.9542
Pd 15.1622 13.5407 10.6586
Pd 7.23746 21.0708 14.2304
Pd 9.72734 17.2402 13.5232
Co 14.4378 22.0167 11.4196
Pd 11.5562 17.008 18.0199
Pd 11.835 17.008 15.0454
Pd 12.0419 14.7411 24.2795
Co 12.5682 18.8695 16.5716
Pd 7.3707 16.9691 20.2684
Pd 8.07271 17.058 25.1322
Pd 13.3038 17.9617 23.0184
Co 13.8675 18.195 18.6044
Pd 12.7918 21.8954 21.6023
Pd 9.87257 23.396 26.9706
Pd 12.734 19.0857 30.0389
Co 16.486 19.8489 27.7786
Pd 8.84298 17.0362 30.6357
Pd 10.8083 18.312 31.7903
Pd 14.9944 19.8092 31.2129
Co 10.9618 20.8728 30.8832
Pd 10.9418 12.5824 30.5744
Pd 6.93271 22.9414 30.7399
Pd 9.48576 13.6344 36.598
Co 10.8309 20.7271 35.2224
Pd 9.44006 16.5566 33.4769
Pd 6.65988 18.0199 36.2329
Pd 9.82308 22.7151 41.3089
Co 12.3301 21.194 37.278
Co 12.5431 18.8255 37.6378
Pd 19.677 25.895 4.33561
Pd 16.2912 18.3697 9.89398
Co 19.2939 30.5216 7.30142
Pd 10.8236 28.1224 8.53085
Pd 14.182 22.8455 14.1552
Pd 13.4183 20.26 12.9929
Co 16.7734 21.6453 7.50657
Pd 10.0621 22.3984 8.96403
Pd 7.87671 26.2756 15.7512
Pd 11.2951 21.1827 16.8617
Co 11.0152 24.2269 10.8176
Pd 11.633 23.111 14.9683
Pd 19.4159 20.0298 21.5007
Pd 12.0619 22.3125 19.1548
Co 17.1297 21.0204 20.8065
Pd 11.3325 24.2694 20.7142
Pd 12.3102 22.7102 25.8519
Pd 15.4448 22.1837 22.4159
Co 10.1726 25.7397 18.2797
Pd 13.8275 20.5727 23.601
Pd 11.6616 24.9211 28.2959
Pd 11.8698 22.0695 28.5248
Co 14.6617 22.889 24.8461
Pd 11.1155 23.5805 30.7142
Pd 13.6233 24.8946 30.207
Pd 12.6253 20.1103 32.8269
Co 18.2862 22.8625 31.059
Pd 7.44516 20.7606 35.6481
Pd 9.10983 22.4294 34.5104
Pd 13.0722 22.24 34.9253
Co 11.2726 22.1951 33.0664
Pd 9.86541 25.3832 42.0344
Pd 11.4414 20.9391 42.1917
Pd 7.74879 22.1918 39.6871
Co 10.9331 23.0496 36.1493
Pd 14.0945 24.2648 41.8018
Pd 9.7251 33.1227 41.1025
Pd 15.2139 20.7074 41.3945
Co 10.632 18.0461 39.1454
Co 13.0153 17.9251 40.0953
Pd 18.0942 27.6896 13.9028
Pd 19.6905 32.2358 5.5016
Pd 9.05264 27.2394 10.5074
Pd 13.1407 30.2236 11.8432
Co 14.2915 31.5039 9.9613
Pd 17.4811 27.6141 4.14772
Pd 12.1064 27.5967 14.4256
Pd 13.449 27.2414 12.2498
Co 10.3771 32.1821 13.9913
Pd 9.38746 29.9227 10.3902
Pd 12.7504 31.1692 14.2126
Pd 13.3977 23.13 17.0527
Co 12.4646 24.9482 13.1299
Pd 9.43971 23.0229 19.1769
Pd 11.0374 29.626 15.8213
Pd 11.4109 27.2415 20.0616
Co 10.8811 23.7699 17.2129
Pd 12.7314 26.9868 24.2496
Pd 11.2593 29.3807 25.1342
Pd 16.0902 25.0699 26.6805
Co 16.1877 29.238 24.9867
Pd 16.1771 27.7668 27.1357
Pd 11.9614 27.5893 29.2573
Pd 10.4632 20.933 26.2759
Co 16.7702 29.1913 29.3877
Pd 14.0758 23.508 27.971
Pd 12.5394 26.6515 33.4858
Pd 13.2975 22.0567 30.8724
Co 13.9281 28.3766 26.1261
Pd 12.9371 27.3739 36.3073
Pd 10.7081 28.1739 37.5095
Pd 14.9472 26.4484 34.9526
Co 14.0308 30.8802 34.8203
Pd 10.6669 22.3392 38.86
Pd 9.56236 35.8463 40.4255
Pd 11.7364 24.5541 40.2626
Co 14.985 27.0245 37.8934
Pd 12.1924 32.5581 40.0958
Pd 12.439 26.2352 42.3437
Pd 13.9141 28.6618 42.6713
Co 12.5245 40.219 39.6497
Pd 15.2714 26.4506 42.9871
Pd 33.6613 30.5341 47.1513
Co 12.6328 30.5262 43.7566
Pd 11.9346 30.4712 9.26127
Pd 16.3841 35.2431 7.69939
Pd 14.8569 34.0685 10.2278
Pd 13.8263 34.301 7.82694
Co 15.3046 29.9629 8.23837
Pd 10.6577 29.6813 13.1546
Pd 8.35105 34.0634 17.3048
Pd 11.9722 27.1499 17.2105
Co 15.5715 29.897 11.1801
Pd 14.581 33.5291 20.4492
Pd 7.79859 33.7019 23.3955
Pd 11.9305 29.5144 18.4684
Co 10.7815 32.0736 18.6768
Pd 13.7452 29.7607 24.0071
Pd 12.6425 31.5749 25.5074
Pd 15.1921 30.4609 26.9962
Co 13.1918 31.8047 19.1164
Pd 12.3979 29.8001 27.5739
Pd 12.8056 30.5315 30.0992
Pd 15.1975 29.834 31.3029
Co 15.2098 31.5397 29.3664
Pd 7.86574 34.596 34.3553
Pd 8.99587 38.4361 36.4266
Pd 14.4305 28.5864 33.614
Co 8.8513 33.0017 32.3185
Pd 12.8245 30.4215 32.7124
Pd 9.86836 30.4358 36.4613
Pd 15.2097 31.7509 39.9513
Co 12.5647 29.9187 36.6073
Pd 8.6374 22.5497 37.2391
Pd 7.41151 30.3283 35.3103
Pd 12.6133 26.6165 38.8045
Co 15.6655 37.7179 37.7798
Pd 9.21446 28.1438 41.8488
Pd 17.1127 29.2515 46.1399
Co 10.6871 34.143 38.9012
Pd 11.0589 34.2505 12.4312
Pd 13.5235 28.9637 16.2052
Pd 14.8796 31.1474 15.8894
Pd 12.7437 40.7737 17.7317
Co 19.2208 29.3317 9.46199
Pd 14.7632 35.7834 18.655
Pd 9.82047 34.2757 19.5035
Pd 12.3674 35.95 24.2953
Co 12.4301 37.8637 22.4249
Pd 11.6275 28.4388 22.5043
Pd 9.96618 34.9317 24.7545
Pd 13.6235 34.0557 25.8971
Co 8.71739 39.3372 25.1519
Pd 13.2828 32.3735 27.9621
Pd 13.264 35.7056 31.4165
Pd 10.7583 31.4447 31.6167
Co 10.8532 37.9561 28.192
Pd 11.317 37.4424 35.6182
Pd 12.877 35.5729 34.5895
Pd 11.4209 31.6827 34.7501
Co 5.98059 35.8653 30.6548
Pd 13.7271 29.0982 38.7883
Pd 12.3273 42.6201 29.3781
Pd 10.6227 36.62 38.216
Co 14.9119 39.4257 33.8972
Pd 8.15015 33.8925 38.9716
Pd 12.4282 42.5907 34.9643
Co 13.8356 38.0567 39.6903
Pd 9.70392 34.6124 14.8235
Pd 11.6269 32.5948 21.0678
Pd 6.31026 33.4568 18.9837
Pd 10.7562 39.331 21.3073
Co 12.3113 36.5386 18.0168
Pd 11.7657 44.7107 27.7873
Pd 11.2394 43.9452 25.3496
Pd 13.4153 40.1258 23.0166
Co 15.2189 38.9121 21.8801
Pd 11.0094 40.504 28.7181
Pd 14.7992 41.3531 28.0681
Pd 12.7622 33.2727 33.1162
Co 13.817 43.5883 25.6186
Pd 14.9371 36.6845 33.2232
Pd 10.3447 39.2432 33.7645
Pd 12.723 39.9614 35.3247
Co 16.7203 41.4673 30.1739
Pd 11.3251 39.1487 37.7236
Pd 10.3552 41.9294 33.4484
Co 12.3441 41.5563 37.4027
Pd 7.4589 35.7707 19.5168
Pd 10.1335 41.5586 22.6377
Pd 15.418 45.2607 29.4091
Pd 18.6502 42.0605 26.5385
Co 12.9784 44.3267 23.4705
Pd 13.3182 40.3692 30.1464
Pd 16.3541 47.3371 27.852
Pd 12.3039 41.9401 26.8293
Co 19.4639 43.4392 28.5881
Pd 7.6642 38.9751 34.0241
Pd 14.6628 42.8233 30.5857
Co 20.2626 43.7834 34.9211
Pd 15.7137 46.4388 22.718
Pd 16.1377 42.3462 25.6676
Pd 13.8177 46.2796 27.5864
Co 20.4664 45.5848 28.6241
Pd 15.1339 9.61868 17.6779
Pd 23.1361 3.34575 27.597
Co 19.7499 11.7671 16.6643
Pd 14.6076 14.6957 24.727
Pd 15.886 13.9535 22.2236
Pd 22.0094 5.74421 27.675
Co 15.5396 9.39943 34.0451
Co 19.4956 11.2703 25.8474
Pd 14.2857 12.2172 25.715
Pd 17.015 11.083 16.4751
Co 15.7801 11.0639 14.1056
Pd 12.914 10.1239 22.3796
Pd 14.511 7.76719 32.0814
Pd 15.2532 12.0666 18.605
Co 14.9874 10.6414 23.7858
Pd 12.5409 7.43389 26.0264
Pd 12.2016 8.98598 28.2314
Pd 13.7863 7.87445 23.665
Co 13.8106 12.8162 23.0831
Pd 13.0251 9.87041 25.4211
Pd 14.1921 9.87857 36.1274
Pd 17.9645 6.50166 31.6044
Co 16.7494 5.11079 20.4773
Co 16.2948 6.78844 33.5222
Pd 11.7782 12.5361 15.6864
Pd 21.963 10.0711 16.7398
Co 16.6789 13.2885 15.2349
Pd 13.3029 11.6115 13.7652
Pd 14.1353 9.57473 15.3409
Pd 17.6765 13.3952 17.738
Co 9.58157 14.0244 16.1152
Pd 13.9054 13.6709 20.3334
Pd 14.0686 9.46586 30.0958
Pd 16.8295 11.373 26.6015
Co 17.8075 15.6233 21.6918
Pd 15.5781 5.56421 31.0809
Pd 15.7056 11.1612 32.2859
Pd 16.5354 15.131 29.1461
Co 18.6708 13.4513 25.5734
Pd 13.3497 8.11774 34.3742
Pd 9.45559 11.7276 34.6288
Pd 16.2606 10.7041 29.5875
Co 17.4726 12.7917 28.5579
Pd 7.98053 14.1463 34.4005
Pd 13.678 11.7882 34.1289
Pd 12.5233 11.1611 37.8748
Co 16.7519 10.0791 36.1862
Co 16.0648 11.8832 34.8176
Pd 16.7131 11.9096 11.951
Pd 19.6663 12.4756 12.082
Co 15.6701 19.9909 11.897
Pd 17.2576 9.42235 12.4786
Pd 14.5112 12.1316 16.0544
Pd 15.0443 13.5235 13.3431
Co 16.8133 18.0911 12.7702
Pd 11.8042 11.8649 24.1266
Pd 15.4024 14.5058 17.1126
Pd 12.1502 11.7532 20.1446
Co 11.6664 14.9454 16.7511
Pd 11.0732 18.9591 22.0194
Pd 10.2616 21.3879 21.1457
Pd 15.2399 17.2161 20.6552
Co 13.832 15.7206 18.8609
Pd 18.696 16.5693 25.7261
Pd 15.017 17.3189 29.9842
Pd 17.6241 13.3268 33.2278
Co 19.7421 19.0347 26.0973
Pd 15.0614 13.7053 32.8991
Pd 13.2707 17.2315 35.6523
Pd 16.6922 12.3964 37.4155
Co 13.2613 14.3565 34.669
Pd 15.7461 7.64225 35.8351
Pd 11.416 11.6855 32.9423
Pd 12.5649 14.062 32.1623
Co 11.2797 18.4723 34.3129
Pd 9.88328 15.6048 38.3406
Pd 6.81867 16.6144 34.0172
Pd 8.49274 17.8146 38.0126
Co 11.3719 15.3729 36.0694
Co 12.184 16.4732 38.1444
Pd 17.9094 23.3865 8.67873
Pd 13.6199 15.5868 10.449
Co 16.6312 17.6275 7.25175
Pd 11.2454 15.8098 11.716
Pd 12.7167 13.6132 12.1495
Pd 15.9544 20.4419 14.3843
Co 14.9814 21.7404 5.98919
Pd 9.74354 21.6802 14.0074
Pd 13.9291 16.5876 16.4727
Pd 8.83918 19.6738 12.6032
Co 17.8058 19.5978 8.17081
Pd 11.5507 19.5814 19.2973
Pd 15.0974 19.0786 16.5712
Pd 18.1021 15.7393 16.5313
Co 13.4208 20.8443 15.4644
Pd 11.514 14.7897 19.715
Pd 16.3892 20.9947 24.6385
Pd 14.996 18.6357 24.9389
Co 17.3396 18.7519 25.7557
Pd 17.2215 17.3677 27.9367
Pd 14.1412 20.8133 26.2703
Pd 17.3423 18.7708 30.1556
Co 18.1868 20.9918 26.439
Pd 14.8939 16.218 33.6787
Pd 12.0793 16.2904 33.4226
Pd 17.53 18.5534 34.5462
Co 16.2864 17.8462 32.2999
Pd 12.3177 16.4032 30.585
Pd 8.90057 18.7347 35.1056
Pd 14.263 12.5064 36.5544
Co 17.0243 17.7139 38.4481
Pd 8.74228 16.1188 35.9634
Pd 11.4269 16.0329 40.5673
Pd 14.619 13.0046 39.1011
Co 13.0139 19.7767 35.4247
Pd 17.9919 13.4345 42.287
Pd 11.8521 20.1571 39.7183
Pd 14.3375 20.196 38.9536
Co 11.0409 18.4916 41.479
Co 16.7345 15.6664 42.8722
Pd 27.5641 22.4148 2.78268
Pd 16.9455 25.7073 9.01071
Co 26.3503 29.3586 6.12809
Pd 13.8066 19.962 9.98703
Pd 16.1073 24.0419 6.77362
Pd 14.6336 22.4693 8.71021
Co 21.9283 25.0435 9.14848
Pd 19.3668 18.7215 6.09956
Pd 12.0776 23.8996 8.38527
Pd 14.2746 17.4424 8.5634
Co 15.0202 26.3284 10.4813
Pd 15.4667 21.7679 16.8426
Pd 11.1859 19.5785 14.4848
Pd 11.2418 20.1239 11.5385
Co 17.8909 20.6077 12.5621
Pd 16.0433 19.5746 19.0379
Pd 14.8842 21.9264 19.6247
Pd 17.9514 17.6348 23.4077
Co 18.4598 18.0439 17.8079
Pd 16.097 19.3357 22.431
Pd 13.9063 19.6546 20.8354
Pd 12.5894 23.8436 23.3526
Co 16.6309 23.6305 20.8275
Pd 18.5788 23.8283 26.8151
Pd 16.2172 22.3522 27.0561
Pd 18.9462 22.1563 28.7685
Co 21.1892 20.7397 29.2406
Pd 14.8348 21.7273 33.0152
Pd 16.6856 21.3734 29.8719
Pd 14.945 19.0928 33.998
Co 19.4545 24.7243 29.6728
Pd 13.018 23.9833 32.7547
Pd 12.7133 24.8175 35.4549
Pd 16.3478 21.2156 35.1048
Co 15.5854 23.3532 31.2011
Pd 9.95239 20.0563 37.4843
Pd 17.2012 24.4867 38.4278
Pd 14.7759 22.0179 36.9852
Co 17.2711 22.0243 37.6396
Pd 14.529 24.917 39.3242
Pd 16.8238 24.8773 44.3719
Pd 16.2411 18.2192 42.735
Co 13.2988 30.4777 40.9883
Pd 13.8148 24.6537 44.3299
Pd 15.4133 22.7582 45.1846
Pd 17.9381 22.0937 44.37
Co 15.4163 18.393 40.3992
Co 19.0652 34.2113 45.9819
Pd 20.3383 19.252 8.44883
Pd 14.404 25.1059 8.40531
Pd 20.1022 23.3995 5.26842
Co 22.0932 25.0345 4.47342
Pd 12.6667 35.4884 10.6704
Pd 6.55493 30.3796 14.2878
Pd 12.7337 21.3465 7.46654
Co 20.5232 36.1799 5.85937
Pd 10.0369 25.4827 8.8088
Pd 17.8331 36.2641 12.3901
Pd 15.0746 24.9955 12.8085
Co 15.9588 23.7935 10.4332
Pd 16.8425 27.2525 18.5853
Pd 14.6461 26.6848 17.2476
Pd 13.0774 25.3005 15.5686
Co 16.0574 28.6873 16.3519
Pd 10.4168 25.603 15.3185
Pd 14.0758 24.0611 20.7145
Pd 18.3852 24.8729 19.6144
Co 13.5567 20.549 18.0466
Pd 13.0697 26.1273 21.7729
Pd 15.3736 26.863 24.6297
Pd 17.9071 26.4867 25.1617
Co 17.0624 27.761 22.8733
Pd 18.2285 26.2978 27.9119
Pd 13.9697 26.3146 27.9108
Pd 16.8351 24.0464 29.0334
Co 18.1336 29.5185 32.111
Pd 13.6796 27.5947 31.2101
Pd 15.9251 26.5832 29.619
Pd 17.4471 25.2605 31.3003
Co 17.0974 28.2118 34.4222
Pd 10.7744 25.2282 37.524
Pd 16.2559 29.3408 38.5438
Pd 15.0815 24.6469 36.8126
Co 15.1097 23.8403 34.4141
Pd 19.2529 26.2204 37.9124
Pd 14.8933 35.3681 36.5684
Pd 17.0231 33.642 40.5303
Co 18.6796 28.7395 38.218
Pd 11.9302 28.3437 40.7929
Pd 15.2257 35.7104 39.3018
Pd 12.832 23.5883 37.9202
Co 14.8859 31.1105 42.6746
Pd 15.659 20.3994 44.0535
Pd 16.5527 33.7681 45.5566
Pd 16.6923 28.9697 43.3339
Co 12.5741 35.5336 39.614
Pd 13.4509 19.1308 42.3057
Co 28.4654 22.5573 40.3117
Pd 19.71 29.9798 13.9978
Pd 14.6428 26.1759 5.7329
Pd 18.3135 29.9976 4.8775
Pd 11.3885 28.4892 11.0257
Co 17.3512 30.7633 9.15226
Pd 18.1328 32.1948 13.2492
Pd 12.3324 33.0851 9.62408
Pd 12.3869 31.7159 16.7439
Co 16.5398 32.1295 10.9623
Pd 10.601 26.5157 12.4734
Pd 14.7739 29.7471 18.3842
Pd 15.1216 26.8317 14.6488
Co 13.6696 33.8541 17.13
Pd 13.9874 27.5644 19.6287
Pd 13.0542 29.8778 20.9025
Pd 15.926 26.163 20.8641
Co 15.1464 31.1167 20.4845
Pd 14.6274 28.1294 22.3
Pd 15.2585 31.9551 24.72
Pd 18.6495 29.211 24.3708
Co 19.0615 33.256 20.9587
Pd 18.351 29.1775 27.1375
Pd 13.1328 37.3711 29.3881
Pd 16.4758 27.6863 32.0181
Co 17.3445 31.4015 28.2046
Pd 14.9586 32.0814 32.5504
Pd 15.166 34.2903 34.061
Pd 14.9774 25.5879 32.3999
Co 17.2259 33.0568 33.2006
Pd 18.6836 31.4222 34.3305
Pd 12.7339 38.0589 33.4443
Pd 15.1014 28.9683 36.1435
Co 13.7515 33.7629 38.3719
Pd 16.1371 32.196 35.4507
Pd 11.4912 37.8104 40.4007
Pd 17.4929 30.0336 36.2865
Co 14.1357 37.7969 35.5772
Pd 11.6698 34.7612 41.7751
Pd 14.787 40.1112 40.7711
Pd 16.0869 35.809 41.9392
Co 16.106 37.9092 40.2789
Pd 15.5659 36.237 44.4873
Pd 15.7987 27.0984 45.4658
Co 17.7915 36.0328 40.052
Pd 15.9147 32.7076 8.36973
Pd 13.598 31.6604 7.50552
Pd 14.7922 33.6282 14.6784
Pd 13.4125 32.9513 12.1607
Co 16.0825 34.0519 12.4699
Pd 15.4717 31.5872 13.171
Pd 12.4002 38.5057 16.2348
Pd 15.5616 35.7292 21.2246
Co 15.1829 40.6736 18.7771
Pd 13.3439 35.9489 15.7038
Pd 15.1159 36.1228 25.4133
Pd 12.8175 35.1635 21.8052
Co 14.4604 36.9609 23.0896
Pd 14.5434 35.0228 28.4161
Pd 12.6116 36.4158 26.9194
Pd 17.068 35.6458 27.1533
Co 13.6161 37.248 20.4551
Pd 13.5196 33.1503 30.493
Pd 11.0431 34.0644 31.3591
Pd 13.1569 39.2927 27.5951
Co 14.1786 38.3897 31.4547
Pd 13.5284 33.1722 35.7578
Pd 13.1094 36.9484 37.6283
Pd 18.627 34.1668 31.4266
Co 16.4004 30.3648 33.6651
Pd 11.9324 32.1616 37.5169
Pd 15.1065 44.0023 34.6915
Pd 17.902 39.0825 34.3008
Co 15.3337 40.5787 31.8524
Pd 16.4327 39.9693 38.6822
Pd 13.9495 39.5793 37.6585
Pd 17.5904 36.1768 37.5844
Co 14.526 41.6939 36.137
Pd 17.4326 40.0899 41.1718
Pd 20.1606 39.0256 40.809
Co 18.2878 38.2413 39.2927
Pd 13.0841 37.7867 11.8403
Pd 16.246 38.0317 7.80563
Pd 11.1978 38.7284 18.7181
Pd 8.80518 37.8789 20.3657
Co 16.4524 38.839 14.8519
Pd 15.1 42.5286 16.9829
Pd 11.0896 36.6059 20.415
Pd 14.0543 38.4357 18.2963
Co 17.3122 41.5721 17.6978
Pd 11.0938 41.3776 19.7793
Pd 10.9843 39.4908 23.9348
Pd 13.141 38.3042 25.0889
Co 16.3486 40.8795 23.2561
Pd 15.6386 39.2569 29.4293
Pd 16.8069 43.028 28.1954
Pd 17.9261 37.9229 28.262
Co 18.1634 40.6361 28.4666
Pd 15.732 34.4628 31.4891
Pd 15.7751 36.6877 30.0603
Pd 16.6281 38.3084 32.2103
Co 17.9146 39.3452 30.4587
Pd 19.632 38.5597 32.2939
Pd 12.596 40.5553 32.7093
Pd 14.5958 41.8975 38.7527
Co 14.3064 42.1046 33.3968
Pd 12.4 43.2196 32.112
Pd 17.6492 38.0248 44.4872
Co 15.9205 39.5706 36.1278
Pd 19.8939 45.2372 16.8433
Pd 9.60395 36.5246 18.1501
Pd 13.4779 42.6644 19.3463
Pd 8.44891 39.1541 22.6907
Co 21.1734 42.6537 21.141
Pd 13.1635 39.8192 20.3391
Pd 14.1345 46.0459 24.9481
Pd 16.2432 37.8979 19.9423
Co 18.1628 40.2175 24.6274
Pd 14.2099 40.6762 25.48
Pd 18.195 42.9132 24.1585
Pd 15.8604 44.9251 26.64
Co 14.5228 42.4532 23.5349
Pd 17.3585 43.8612 30.6306
Pd 17.7218 43.7494 35.1066
Pd 19.2373 46.0681 34.9326
Co 20.5338 45.4177 32.8502
Pd 12.9392 45.0531 30.1492
Pd 24.1997 47.3693 34.8655
Co 16.4323 42.9722 32.6641
Pd 19.0138 47.9491 24.1582
Pd 16.9961 43.0757 21.9216
Pd 18.0076 47.5011 21.7163
Pd 20.6674 43.8029 23.3363
Co 15.8643 44.3615 24.0653
Pd 17.7528 38.6914 22.5188
Pd 20.7335 49.126 30.8746
Pd 17.9206 45.4533 28.5718
Co 22.6743 45.3635 23.7481
Pd 16.871 46.7507 30.88
Pd 17.5037 45.3594 33.0144
Co 21.166 47.8931 28.485
Pd 22.2639 46.0875 26.9138
Pd 21.7182 47.7989 33.0421
Pd 18.1221 45.3908 23.3541
Pd 17.5811 8.65493 17.7783
Pd 15.366 7.43497 19.432
Co 19.4689 7.01717 18.2412
Pd 17.2173 5.84966 18.1272
Pd 15.4035 8.87525 21.8291
Pd 19.8004 6.15244 26.5006
Co 20.1018 9.3541 18.512
Pd 20.6963 5.83534 22.336
Pd 13.6421 6.85172 29.73
Pd 13.675 9.53459 19.8276
Co 21.7267 7.90452 26.0137
Pd 16.7181 9.9146 19.8977
Pd 20.909 3.75972 26.1394
Pd 19.8749 4.39021 28.5364
Co 19.1437 4.946 24.3737
Co 24.2366 7.19843 31.973
Pd 21.438 8.42376 14.2916
Pd 24.3744 6.32778 17.8348
Co 18.93 8.11666 13.8496
Pd 22.7887 6.76665 20.9637
Pd 17.1644 12.5735 20.3515
Pd 19.2486 5.17999 19.9442
Co 25.4396 8.94205 17.3929
Pd 18.1317 6.22179 22.2184
Pd 16.5965 7.62511 23.7685
Pd 19.4153 7.5649 24.2275
Co 17.749 7.44343 20.0407
Pd 18.9836 8.65687 30.2718
Pd 15.8769 5.7899 28.2402
Pd 16.9173 8.78354 27.6301
Co 15.4025 6.36265 21.9563
Pd 16.1902 7.83105 29.8817
Pd 11.1347 8.9965 32.8846
Pd 22.5044 8.09808 33.7692
Co 22.9653 6.7664 29.9316
Pd 18.3718 6.7006 28.6389
Pd 20.5076 7.62955 35.4247
Pd 17.7559 4.54547 29.9942
Co 17.8282 10.7104 33.7752
Co 23.2731 7.11634 38.5946
Pd 16.7828 8.87262 15.0562
Pd 18.3148 11.1824 14.1141
Co 24.4295 12.5559 11.7201
Pd 15.5548 7.26056 16.6762
Pd 19.3708 9.38074 15.9911
Pd 22.5542 8.95219 11.9249
Co 21.0709 7.49295 16.6115
Pd 18.7803 15.7827 19.3166
Pd 19.1313 13.5536 15.0126
Pd 21.2683 11.7208 18.7233
Co 19.3952 13.2109 19.7141
Pd 17.1267 11.0468 22.4571
Pd 15.5823 16.6725 23.1963
Pd 17.727 9.82793 24.6877
Co 24.4096 17.5313 16.7205
Pd 18.6867 10.5229 28.4775
Pd 18.7914 16.3616 29.9697
Pd 19.9492 12.7233 27.9007
Co 22.0408 12.5219 26.4228
Pd 17.3248 6.62823 26.0597
Pd 18.9262 13.6971 30.3867
Pd 18.6982 12.0912 35.5973
Co 18.5988 14.9215 27.7066
Pd 18.1772 11.3462 31.2344
Pd 17.3953 13.6337 39.6447
Pd 18.0867 8.36508 34.5372
Co 24.4186 14.4995 32.4318
Pd 13.8638 15.0121 37.0162
Pd 20.5764 10.2316 34.9054
Pd 21.2271 5.18445 34.3772
Co 17.6077 10.5135 38.8782
Co 19.8325 13.9452 40.0442
Pd 21.0549 10.7194 10.13
Pd 17.863 13.9416 10.571
Co 18.2047 14.6715 8.14688
Pd 24.9872 9.99637 12.2374
Pd 21.9316 13.3431 10.5403
Pd 18.4303 16.1317 13.9082
Co 22.9373 14.5327 12.5337
Pd 18.4377 10.7974 10.4237
Pd 13.4929 15.8583 13.2207
Pd 20.6535 16.7058 17.7463
Co 21.3797 13.4867 13.9281
Pd 20.207 14.1303 17.4749
Pd 16.2425 14.9217 19.6754
Pd 16.183 17.0037 18.0055
Co 19.6859 17.8203 15.5209
Pd 19.9328 17.2353 21.765
Pd 17.3027 15.0192 24.1903
Pd 16.3717 14.0973 26.6076
Co 20.8548 12.3755 21.4451
Pd 20.0238 17.1911 27.7834
Pd 18.8351 17.7702 32.1644
Pd 20.8039 14.7539 26.2669
Co 20.2275 14.8098 21.3544
Pd 20.939 14.8482 28.9676
Pd 20.0972 14.425 34.9177
Pd 20.0136 12.3374 33.1805
Co 18.9666 19.5838 28.3403
Pd 11.7386 12.6688 35.8525
Pd 10.5693 14.1316 34.0155
Pd 22.5422 15.1217 35.7632
Co 16.1142 15.1407 38.0674
Pd 18.2214 6.98385 36.8185
Pd 15.1001 10.4981 38.4796
Pd 19.7043 18.4882 38.6401
Co 18.4996 15.85 38.9094
Pd 19.0254 9.507 36.9424
Pd 13.8217 15.3268 39.7845
Pd 19.995 9.61786 39.4471
Co 20.8275 18.2955 41.6101
Co 16.2862 11.634 40.5909
Pd 17.63 22.4698 5.27488
Pd 17.0065 19.8712 5.77153
Co 21.6361 21.2286 7.36958
Pd 18.6264 17.2031 8.70333
Pd 20.6497 20.8201 5.04276
Pd 20.2582 15.0577 12.2817
Co 19.1434 21.3347 6.97339
Pd 14.3648 17.8405 11.5769
Pd 16.6926 21.2281 10.0219
Pd 15.8529 15.7597 14.7096
Co 21.9715 20.6119 9.9077
Pd 17.1486 18.0455 15.3
Pd 19.004 20.2479 14.8048
Pd 20.7729 15.5318 15.3059
Co 20.5785 17.7922 10.6653
Pd 14.367 18.1506 14.2427
Pd 20.3366 18.4828 19.584
Pd 22.1627 16.7186 20.3613
Co 22.1388 17.6389 15.9303
Pd 19.9566 15.3645 23.7844
Pd 18.7221 20.0707 23.9331
Pd 22.2752 16.49 23.1651
Co 20.4595 18.0773 24.0483
Pd 21.9637 17.0011 25.7731
Pd 20.5784 21.399 26.8768
Pd 24.216 17.8591 26.7441
Co 23.3923 18.8037 24.324
Pd 17.7401 15.9091 34.2296
Pd 21.4279 18.4436 32.3458
Pd 20.2176 17.1173 34.4401
Co 20.4591 18.4334 29.9368
Pd 16.0538 16.8864 36.0751
Pd 16.3748 16.0952 40.4093
Pd 22.5365 19.3096 36.7713
Co 20.1442 19.22 36.061
Pd 17.1311 20.1593 39.4617
Pd 17.7385 19.5692 36.9158
Pd 16.1718 22.7749 42.5796
Co 19.6106 19.6284 33.6971
Pd 14.2569 16.5739 42.0275
Pd 14.5861 17.3251 38.2384
Pd 17.7549 20.3909 42.2337
Co 21.9195 20.7395 41.6201
Pd 15.4061 13.9204 41.5174
Pd 18.0331 19.4772 44.9452
Pd 16.6893 31.32 44.578
Co 20.0017 19.8612 43.3701
Co 16.6662 8.52262 38.0143
Pd 12.4389 26.3943 7.24336
Pd 20.0568 28.5047 3.47313
Pd 23.4837 20.9881 5.3152
Co 30.3055 24.6007 4.39977
Pd 20.575 14.2767 7.08147
Pd 19.4929 21.405 9.5343
Pd 18.2694 16.544 11.2015
Co 25.883 23.3085 9.18276
Pd 18.5683 19.249 10.6448
Pd 16.4442 22.6856 12.8085
Pd 19.2612 22.5454 13.5121
Co 22.5556 18.3937 9.26156
Pd 17.286 22.4338 18.629
Pd 20.5295 19.657 17.0882
Pd 21.5186 19.518 14.306
Co 18.0148 24.3835 17.0669
Pd 17.7344 18.1037 20.4638
Pd 15.6627 24.5834 18.5497
Pd 20.9724 21.9617 22.4743
Co 18.727 20.2808 19.0298
Pd 15.1137 24.8033 23.0874
Pd 17.087 23.6874 24.5987
Pd 21.4355 20.3848 24.6226
Co 21.56 20.6884 19.9384
Pd 19.4618 22.4109 24.7182
Pd 23.019 19.0681 30.2277
Pd 24.5561 20.0577 28.4427
Co 22.7801 26.0443 27.6516
Pd 19.3619 20.4212 30.9652
Pd 17.2947 23.0157 33.3001
Pd 19.8796 21.9719 33.0094
Co 20.747 22.8728 30.6476
Pd 17.279 20.408 32.5747
Pd 18.908 21.4999 35.4371
Pd 24.0168 21.4993 36.2995
Co 20.3929 23.569 34.9159
Pd 15.1622 19.3363 36.6497
Pd 17.0593 26.7262 36.579
Pd 18.0681 22.5044 40.3783
Co 22.8509 23.6102 35.2221
Pd 13.051 22.2801 40.4763
Pd 13.6514 21.9735 43.2327
Pd 15.5623 22.5678 39.5426
Co 19.7593 20.2785 40.5936