4033
Atoms. Timestep: 20150
Co 5.48809 13.0038 26.2297
Pd 3.55663 16.7175 24.3603
Pd 5.34908 14.7883 24.2886
Co 5.37014 16.7351 22.4519
Pd 3.63417 14.8463 26.2325
Pd 3.55961 16.7148 28.1075
Pd 5.35217 14.7855 28.1736
Co 5.38516 16.6976 26.2324
Co 5.37617 16.7297 30.013
Pd 3.52534 20.5274 20.5518
Pd 5.29786 18.589 20.5069
Co 5.35532 20.5396 18.6533
Pd 3.53402 18.6241 22.4545
Pd 3.44257 20.4963 24.3312
Pd 5.34955 18.6243 24.3545
Co 5.32664 20.5057 22.4306
Pd 3.46363 18.5913 26.2353
Pd 3.44561 20.4935 28.1422
Pd 5.35254 18.6216 28.1132
Co 5.30347 20.5138 26.2352
Pd 3.54005 18.6187 30.016
Pd 3.5344 20.5193 31.9215
Pd 5.30699 18.5808 31.9608
Co 5.3327 20.5003 30.0398
Co 5.36741 20.5287 33.8171
Pd 3.54637 24.338 16.7489
Pd 5.30997 22.3974 16.7047
Co 5.40097 24.3433 14.8547
Pd 3.53124 22.4344 18.6443
Pd 3.44024 24.3093 20.5218
Pd 5.33213 22.4297 20.5515
Co 5.33973 24.3079 18.6321
Pd 3.43416 22.4024 22.4272
Pd 3.41541 24.3043 24.3336
Pd 5.29042 22.4066 24.3311
Co 5.28488 24.316 22.4372
Pd 3.42503 22.3991 26.2381
Pd 3.41845 24.3016 28.1453
Pd 5.29345 22.4039 28.1421
Co 5.27267 24.3062 26.238
Pd 3.44023 22.3969 30.0489
Pd 3.44936 24.3011 31.9571
Pd 5.34119 22.4216 31.9216
Co 5.29094 24.3105 30.0387
Pd 3.54335 22.4235 33.8317
Pd 3.56151 24.3244 35.7299
Pd 5.32516 22.3837 35.7685
Co 5.35186 24.2969 33.8437
Co 5.41912 24.327 37.6211
Pd 5.38668 26.2191 12.9814
Pd 3.61389 26.2167 14.8783
Pd 3.54403 28.0926 16.7516
Pd 5.38898 26.2164 16.7658
Co 5.39863 28.0923 14.8574
Pd 3.45915 26.2139 18.6199
Pd 3.43787 28.1157 20.5245
Pd 5.30179 26.2137 20.5289
Co 5.33735 28.1223 18.6349
Pd 3.42085 26.2111 22.4273
Pd 3.41304 28.1152 24.3363
Pd 5.27418 26.2109 24.3395
Co 5.28252 28.1086 22.4399
Pd 3.40854 26.2084 26.2408
Pd 3.41608 28.1125 28.1481
Pd 5.27721 26.2082 28.1392
Co 5.27029 28.1129 26.2407
Pd 3.42693 26.2057 30.0544
Pd 3.44699 28.1075 31.9598
Pd 5.31089 26.2055 31.9497
Co 5.28858 28.1032 30.0414
Pd 3.4713 26.203 33.8616
Pd 3.55917 28.079 35.7326
Pd 5.40409 26.2028 35.7126
Co 5.34948 28.1113 33.8464
Pd 3.63201 26.2004 37.603
Pd 5.40782 26.2001 39.4971
Co 5.41679 28.076 37.6238
Pd 5.3052 30.0355 16.7101
Pd 3.52653 29.9934 18.6498
Pd 3.51825 31.8977 20.5599
Pd 5.32741 29.9976 20.557
Co 5.34825 31.8905 18.6614
Pd 3.42941 30.0199 22.4327
Pd 3.43545 31.9233 24.3394
Pd 5.28567 30.0153 24.3365
Co 5.31952 31.9189 22.4388
Pd 3.42028 30.0177 26.2435
Pd 3.43849 31.9206 28.1504
Pd 5.28871 30.0125 28.1476
Co 5.29637 31.9053 26.2434
Pd 3.43548 30.0144 30.0544
Pd 3.52731 31.8895 31.9297
Pd 5.33647 29.9895 31.9271
Co 5.32559 31.9135 30.048
Pd 3.53864 29.9825 33.8371
Pd 5.3204 30.0218 35.774
Co 5.36033 31.8796 33.8253
Pd 5.28835 33.8383 20.5179
Pd 3.52456 33.7982 22.4654
Pd 3.54479 35.7021 24.374
Pd 5.34009 33.7976 24.3654
Co 5.35832 35.6895 22.4655
Pd 3.45413 33.8255 26.2463
Pd 3.54777 35.6995 28.1211
Pd 5.34308 33.7949 28.1241
Co 5.3733 35.7216 26.2461
Pd 3.53059 33.7928 30.0269
Pd 5.29748 33.8301 31.9717
Co 5.36435 35.6841 30.0266
Pd 5.33483 37.6337 24.305
Pd 3.62 37.5708 26.2488
Pd 5.33793 37.6309 28.19
Co 5.47162 39.4156 26.2487
Co 9.24532 9.22416 26.224
Pd 7.2382 12.8686 24.3026
Pd 9.1022 10.9921 24.3017
Co 9.1366 12.9111 22.4213
Pd 7.29935 11.0541 26.2269
Pd 7.24127 12.8658 28.1538
Pd 9.10526 10.9894 28.149
Co 9.10553 12.8719 26.2267
Co 9.14266 12.9057 30.0321
Pd 7.19527 16.6662 20.495
Pd 9.0698 14.7701 20.4761
Co 9.11252 16.7113 18.6183
Pd 7.21729 14.7796 22.3731
Pd 7.21932 16.6757 24.3052
Pd 9.09428 14.7701 24.2987
Co 9.07972 16.6595 22.3746
Pd 7.2436 14.7969 26.2296
Pd 7.22239 16.6729 28.1567
Pd 9.09736 14.7674 28.1575
Co 9.11332 16.6776 26.2294
Pd 7.22344 14.774 30.0861
Pd 7.20441 16.658 31.9669
Pd 9.07897 14.7618 31.9801
Co 9.08587 16.6539 30.0843
Co 9.12466 16.7003 33.8406
Pd 7.19284 20.4711 16.6953
Pd 9.05863 18.575 16.6803
Co 9.11791 20.5166 14.8173
Pd 7.18952 18.5866 18.5795
Pd 7.19289 20.4808 20.5083
Pd 9.07424 18.573 20.4871
Co 9.06861 20.4625 18.5773
Pd 7.19981 18.5888 22.3977
Pd 7.21571 20.5067 24.3284
Pd 9.10373 18.5804 24.3041
Co 9.09869 20.4888 22.4093
Pd 7.24046 18.5918 26.2323
Pd 7.21875 20.5039 28.139
Pd 9.1068 18.5776 28.1576
Co 9.11384 20.4944 26.2322
Pd 7.20592 18.5833 30.067
Pd 7.20202 20.4726 31.9591
Pd 9.08339 18.5647 31.9746
Co 9.10478 20.4834 30.055
Pd 7.20172 18.5757 33.8851
Pd 7.20805 20.4575 35.7721
Pd 9.07386 18.5613 35.7813
Co 9.08082 20.4515 33.8871
Co 9.13611 20.5002 37.6471
Pd 7.22726 24.2963 12.9008
Pd 9.07826 22.3909 12.8809
Co 9.15785 24.3525 11.0411
Pd 7.20743 22.3912 14.7749
Pd 7.22347 24.282 16.7091
Pd 9.08103 22.3731 16.689
Co 9.08811 24.2759 14.7809
Pd 7.1982 22.3899 18.6003
Pd 7.21245 24.312 20.5277
Pd 9.09286 22.3874 20.5054
Co 9.10444 24.2973 18.6085
Pd 7.20812 22.4054 22.432
Pd 7.18582 24.3107 24.3351
Pd 9.10717 22.4069 24.3324
Co 9.10453 24.3071 22.4272
Pd 7.19302 22.4082 26.2351
Pd 7.18885 24.308 28.1378
Pd 9.1102 22.4042 28.1347
Co 9.10154 24.3096 26.2349
Pd 7.21419 22.3999 30.0381
Pd 7.22155 24.3039 31.9451
Pd 9.10199 22.3792 31.9617
Co 9.1106 24.3016 30.0426
Pd 7.21038 22.379 33.8699
Pd 7.23866 24.2683 35.7637
Pd 9.09625 22.3594 35.778
Co 9.1166 24.2864 33.8613
Pd 7.2257 22.3747 37.6952
Pd 7.24853 24.2772 39.572
Pd 9.09955 22.3717 39.5862
Co 9.10637 24.2595 37.6889
Co 9.18207 24.3307 41.4287
Pd 9.16279 26.2242 9.18097
Pd 7.30887 26.2217 11.0419
Pd 7.22486 28.1444 12.9036
Pd 9.11151 26.2215 12.9202
Co 9.15551 28.0933 11.0438
Pd 7.24641 26.219 14.8065
Pd 7.22105 28.1533 16.7119
Pd 9.10226 26.2188 16.7016
Co 9.08568 28.1644 14.7837
Pd 7.23403 26.2162 18.6322
Pd 7.21008 28.1177 20.5304
Pd 9.11156 26.216 20.5307
Co 9.10204 28.1375 18.6113
Pd 7.189 26.2135 22.435
Pd 7.18344 28.1135 24.3378
Pd 9.09838 26.2133 24.333
Co 9.10215 28.1223 22.43
Pd 7.18096 26.2107 26.2378
Pd 7.18648 28.1108 28.1406
Pd 9.10141 26.2106 28.1396
Co 9.09917 28.1143 26.2377
Pd 7.19506 26.208 30.0406
Pd 7.21918 28.1095 31.9479
Pd 9.12065 26.2079 31.9418
Co 9.10822 28.1168 30.0453
Pd 7.24616 26.2053 33.8434
Pd 7.23625 28.1396 35.7665
Pd 9.11746 26.2051 35.771
Co 9.1142 28.1266 33.8641
Pd 7.26464 26.2026 37.669
Pd 7.24613 28.1252 39.5747
Pd 9.13275 26.2024 39.5524
Co 9.10395 28.148 37.6917
Pd 7.3331 26.1999 41.4335
Pd 9.18998 26.1998 43.2915
Co 9.17974 28.0715 41.4313
Pd 9.07348 30.0522 12.8864
Pd 7.20265 30.0468 14.7804
Pd 7.18567 31.9641 16.7035
Pd 9.07623 30.0645 16.6946
Co 9.11079 31.9237 14.8255
Pd 7.19343 30.0425 18.6058
Pd 7.18574 31.9489 20.5165
Pd 9.08808 30.0447 20.5109
Co 9.06143 31.9723 18.5855
Pd 7.20338 30.0216 22.4375
Pd 7.2086 31.9176 24.3366
Pd 9.10243 30.0197 24.3378
Co 9.09155 31.9405 22.4175
Pd 7.18828 30.0133 26.2405
Pd 7.21163 31.9149 28.1472
Pd 9.10546 30.017 28.1402
Co 9.10671 31.9295 26.2404
Pd 7.20944 30.0161 30.0436
Pd 7.19487 31.9407 31.9673
Pd 9.09722 30.0365 31.9671
Co 9.09764 31.935 30.0633
Pd 7.20561 30.0316 33.8753
Pd 7.20088 31.9504 35.7803
Pd 9.09145 30.0508 35.7836
Co 9.07364 31.9613 33.8954
Pd 7.22093 30.0304 37.7007
Pd 9.09477 30.033 39.5917
Co 9.129 31.9073 37.6553
Pd 9.0491 33.8625 16.6913
Pd 7.18 33.8458 18.5905
Pd 7.18336 35.7635 20.5087
Pd 9.0647 33.8591 20.4981
Co 9.10067 35.7236 18.632
Pd 7.1903 33.8382 22.4087
Pd 7.20743 35.7486 24.3189
Pd 9.09421 33.8462 24.315
Co 9.06781 35.7699 22.3883
Pd 7.23096 33.8297 26.2432
Pd 7.2105 35.7458 28.1704
Pd 9.09728 33.8435 28.1685
Co 9.10143 35.7463 26.2431
Pd 7.19641 33.8327 30.0779
Pd 7.19251 35.7553 31.9806
Pd 9.07386 33.8509 31.9855
Co 9.07395 35.7644 30.098
Pd 7.1922 33.8349 33.8961
Pd 9.06433 33.8488 35.7923
Co 9.11281 35.7127 33.8542
Pd 9.05553 37.662 20.4926
Pd 7.20303 37.6475 22.3895
Pd 7.22156 39.5558 24.3218
Pd 9.08001 37.6565 24.3151
Co 9.12 39.5183 22.4404
Pd 7.22937 37.6247 26.246
Pd 7.22463 39.553 28.1729
Pd 9.08309 37.6537 28.1739
Co 9.08889 39.5519 26.2459
Pd 7.20918 37.642 30.1025
Pd 9.0647 37.6538 31.9965
Co 9.12607 39.5128 30.0512
Pd 9.08321 41.4345 24.3236
Pd 7.28044 41.3675 26.2486
Pd 9.08628 41.4317 28.1709
Co 9.22413 43.1999 26.2484
Co 13.0296 5.47165 26.2183
Pd 11.0106 9.08615 24.2988
Pd 12.8893 7.2245 24.2941
Co 12.9266 9.1258 22.4156
Pd 11.0777 7.28047 26.2211
Pd 11.0136 9.08339 28.1461
Pd 12.8924 7.22174 28.1452
Co 12.8933 9.08892 26.221
Co 12.9327 9.12034 30.0264
Pd 10.9772 12.8511 20.4735
Pd 12.8614 10.9692 20.4706
Co 12.9053 12.9003 18.6031
Pd 10.9918 10.9787 22.3675
Pd 10.9898 12.8639 24.2949
Pd 12.88 10.9761 24.292
Co 12.8632 12.8524 22.3637
Pd 11.0218 11.0028 26.2238
Pd 10.9929 12.8612 28.1555
Pd 12.8831 10.9733 28.1527
Co 12.893 12.8764 26.2237
Pd 10.9979 10.9731 30.0802
Pd 10.9863 12.8428 31.9769
Pd 12.8705 10.961 31.9741
Co 12.8693 12.8468 30.0837
Co 12.9175 12.8894 33.8443
Pd 10.9648 16.652 16.6716
Pd 12.8466 14.7623 16.6639
Co 12.8974 16.7026 14.8018
Pd 10.9705 14.7664 18.5547
Pd 10.9724 16.6555 20.474
Pd 12.8592 14.7581 20.4672
Co 12.8497 16.646 18.5537
Pd 10.9806 14.7644 22.3717
Pd 10.9873 16.6661 24.3022
Pd 12.8791 14.7637 24.2981
Co 12.8784 16.6658 22.3894
Pd 10.9881 14.7618 26.2266
Pd 10.9904 16.6633 28.1536
Pd 12.8821 14.7609 28.152
Co 12.8833 16.6644 26.2264
Pd 10.9868 14.7589 30.0815
Pd 10.9816 16.6472 31.9819
Pd 12.8684 14.7498 31.983
Co 12.8845 16.6602 30.0635
Pd 10.9827 14.7554 33.8985
Pd 10.98 16.6382 35.7843
Pd 12.8618 14.7486 35.7863
Co 12.862 16.635 33.8992
Co 12.9156 16.6862 37.651
Pd 10.9738 20.4636 12.8736
Pd 12.8483 18.5715 12.866
Co 12.9093 20.5193 11.01
Pd 10.9666 18.5723 14.7553
Pd 10.9708 20.459 16.6764
Pd 12.8523 18.5589 16.6667
Co 12.8498 20.4533 14.7587
Pd 10.9683 18.5647 18.5674
Pd 10.9799 20.4746 20.4897
Pd 12.8721 18.5642 20.4798
Co 12.8732 20.4727 18.5838
Pd 10.9844 18.5682 22.3924
Pd 10.9982 20.484 24.3161
Pd 12.8855 18.5722 24.3113
Co 12.8851 20.4776 22.4012
Pd 10.9952 18.5737 26.2293
Pd 11.0012 20.4813 28.1452
Pd 12.8885 18.5695 28.1443
Co 12.8949 20.4796 26.2292
Pd 10.9905 18.5627 30.0662
Pd 10.989 20.4664 31.9716
Pd 12.8812 18.556 31.9758
Co 12.8912 20.4721 30.0571
Pd 10.9805 18.5537 33.8912
Pd 10.9861 20.4453 35.785
Pd 12.8675 18.5452 35.7889
Co 12.8854 20.4618 33.8745
Pd 10.9848 18.5558 37.7033
Pd 10.9951 20.4444 39.5877
Pd 12.8697 18.5523 39.5896
Co 12.8681 20.4368 37.6996
Co 12.9335 20.4975 41.4483
Pd 11.012 24.3042 9.10145
Pd 12.8729 22.398 9.08357
Co 12.9578 24.3578 7.25391
Pd 10.987 22.396 10.9653
Pd 10.9905 24.2867 12.892
Pd 12.8611 22.375 12.8782
Co 12.8724 24.2802 10.9821
Pd 10.975 22.3745 14.7718
Pd 10.9802 24.2938 16.6877
Pd 12.8692 22.3778 16.6815
Co 12.8757 24.2986 14.7907
Pd 10.9801 22.379 18.5905
Pd 10.9959 24.2996 20.5075
Pd 12.8838 22.3867 20.4992
Co 12.8791 24.2991 18.5947
Pd 10.9952 22.3915 22.4115
Pd 11.0062 24.3062 24.3261
Pd 12.8976 22.3916 24.318
Co 12.8957 24.3026 22.4125
Pd 11.0092 22.3946 26.232
Pd 11.0092 24.3035 28.1407
Pd 12.9007 22.3888 28.143
Co 12.9051 24.3026 26.2319
Pd 11.0013 22.386 30.0526
Pd 11.005 24.2914 31.9593
Pd 12.8929 22.3785 31.9619
Co 12.9018 24.2971 30.0512
Pd 10.9922 22.368 33.8736
Pd 10.9954 24.2801 35.7791
Pd 12.8844 22.3641 35.7796
Co 12.8913 24.2882 33.8691
Pd 10.9933 22.358 37.6923
Pd 11.0117 24.2676 39.5748
Pd 12.8824 22.3558 39.5828
Co 12.8939 24.2822 37.6731
Pd 11.0113 22.3741 41.4988
Pd 11.0393 24.2796 43.3653
Pd 12.9003 22.3734 43.3775
Co 12.8967 24.2584 41.4816
Co 12.9881 24.3305 45.2098
Pd 12.9876 26.2293 5.38748
Pd 11.1116 26.2268 7.24231
Pd 11.0096 28.1467 9.10421
Pd 12.9013 26.2266 9.13211
Co 12.9555 28.0982 7.2566
Pd 11.022 26.2241 11.0038
Pd 10.988 28.1587 12.8948
Pd 12.8803 26.2239 12.8956
Co 12.8699 28.1703 10.9849
Pd 10.9868 26.2213 14.7954
Pd 10.9778 28.1462 16.6904
Pd 12.876 26.2211 16.6972
Co 12.8733 28.1464 14.7934
Pd 10.9903 26.2186 18.6026
Pd 10.9935 28.1349 20.5103
Pd 12.888 26.2184 20.5064
Co 12.8767 28.1405 18.5975
Pd 11.0048 26.2159 22.4228
Pd 11.0038 28.1228 24.3288
Pd 12.9032 26.2157 24.3262
Co 12.8933 28.1315 22.4153
Pd 11.0054 26.2131 26.2348
Pd 11.0069 28.1201 28.1435
Pd 12.9062 26.213 28.1404
Co 12.9028 28.126 26.2346
Pd 11.0109 26.2104 30.0467
Pd 11.0026 28.1266 31.962
Pd 12.8972 26.2102 31.9601
Co 12.8994 28.126 30.054
Pd 11.0025 26.2077 33.867
Pd 10.993 28.1325 35.7819
Pd 12.8912 26.2075 35.7693
Co 12.8889 28.1295 33.8719
Pd 11.005 26.2049 37.6741
Pd 11.0093 28.1396 39.5776
Pd 12.9016 26.2047 39.571
Co 12.8915 28.13 37.6759
Pd 11.0463 26.2022 41.4657
Pd 11.0369 28.1221 43.3681
Pd 12.9285 26.2021 43.3344
Co 12.8942 28.1484 41.4844
Pd 11.1419 26.1996 45.227
Pd 13.0209 26.1994 47.0789
Co 12.9858 28.071 45.2125
Pd 12.8682 30.0552 9.08907
Pd 10.9822 30.0522 10.9708
Pd 10.9666 31.9818 12.8819
Pd 12.8563 30.0728 12.8837
Co 12.9022 31.9312 11.0182
Pd 10.9702 30.0682 14.7773
Pd 10.9637 31.981 16.6846
Pd 12.8644 30.0645 16.687
Co 12.8426 31.9918 14.767
Pd 10.9753 30.0582 18.596
Pd 10.9727 31.9599 20.498
Pd 12.879 30.0501 20.5047
Co 12.8661 31.9668 18.5921
Pd 10.9904 30.0403 22.4169
Pd 10.991 31.945 24.3244
Pd 12.8929 30.0398 24.3235
Co 12.8779 31.9566 22.4095
Pd 11.0045 30.0317 26.2375
Pd 10.9941 31.9422 28.1534
Pd 12.8959 30.0371 28.1485
Co 12.8877 31.949 26.2374
Pd 10.9965 30.0348 30.0581
Pd 10.9818 31.9516 31.9799
Pd 12.8881 30.0419 31.9674
Co 12.884 31.9511 30.0653
Pd 10.9874 30.0472 33.8791
Pd 10.9789 31.9672 35.7932
Pd 12.8796 30.0508 35.7851
Co 12.8783 31.9559 33.8827
Pd 10.9885 30.0518 37.6978
Pd 10.9879 31.9627 39.596
Pd 12.8776 30.0536 39.5884
Co 12.8609 31.9753 37.7079
Pd 11.0065 30.0303 41.5043
Pd 12.8955 30.0306 43.383
Co 12.9264 31.9093 41.4565
Pd 12.8388 33.8763 12.877
Pd 10.957 33.8704 14.7663
Pd 10.9529 35.788 16.6853
Pd 12.8427 33.8833 16.6777
Co 12.8855 35.7425 14.8155
Pd 10.9588 33.8726 18.5784
Pd 10.9605 35.779 20.4877
Pd 12.8625 33.8726 20.4908
Co 12.8378 35.7936 18.5674
Pd 10.9749 33.8635 22.4034
Pd 10.9754 35.7629 24.3159
Pd 12.8759 33.8591 24.3223
Co 12.8664 35.7684 22.4031
Pd 10.9857 33.8526 26.2403
Pd 10.9785 35.7601 28.1674
Pd 12.879 33.8564 28.1553
Co 12.8713 35.7642 26.2401
Pd 10.981 33.858 30.0772
Pd 10.9697 35.7708 31.9956
Pd 12.8717 33.8644 31.9868
Co 12.8726 35.7628 30.0772
Pd 10.971 33.8616 33.9022
Pd 10.9681 35.7743 35.798
Pd 12.858 33.8696 35.7999
Co 12.85 35.7826 33.9129
Pd 10.9753 33.8539 37.7143
Pd 12.8601 33.8571 39.6006
Co 12.9037 35.7261 37.6647
Pd 12.8323 37.6799 16.6803
Pd 10.9562 37.6708 18.5711
Pd 10.9605 39.5834 20.4926
Pd 12.845 37.6788 20.4836
Co 12.8887 39.5393 18.6223
Pd 10.9663 37.6673 22.3881
Pd 10.9731 39.5651 24.3141
Pd 12.8648 37.6677 24.3145
Co 12.8465 39.5817 22.3829
Pd 10.9738 37.6644 26.243
Pd 10.9762 39.5623 28.1747
Pd 12.8678 37.6649 28.1685
Co 12.8763 39.5523 26.2428
Pd 10.9725 37.6618 30.0979
Pd 10.9697 39.5751 31.9961
Pd 12.8541 37.6705 31.9994
Co 12.8526 39.5762 30.1029
Pd 10.9684 37.6598 33.9149
Pd 12.8475 37.6662 35.8027
Co 12.9009 39.5283 33.8634
Pd 12.8424 41.4676 20.4925
Pd 10.9728 41.4531 22.3894
Pd 10.9892 43.3429 24.3234
Pd 12.861 41.4553 24.3139
Co 12.9053 43.3083 22.4401
Pd 11.0028 41.4234 26.2457
Pd 10.9923 43.3401 28.1707
Pd 12.8641 41.4525 28.1745
Co 12.8719 43.3397 26.2456
Pd 10.9789 41.4476 30.102
Pd 12.8515 41.4594 31.996
Co 12.9114 43.3029 30.0509
Pd 12.8656 45.2069 24.3213
Pd 11.0541 45.1459 26.2483
Pd 12.8687 45.2041 28.1725
Co 13.0038 46.9571 26.2481
Pd 14.8113 5.3378 24.2742
Pd 16.7429 3.54765 24.3404
Co 16.7554 5.36407 22.4347
Pd 14.8744 3.62003 26.2155
Pd 14.8144 5.33502 28.1593
Pd 16.7459 3.54497 28.0875
Co 16.7236 5.37332 26.2153
Co 16.7614 5.35865 29.9957
Pd 14.7827 9.06427 20.4675
Pd 16.6812 7.19208 20.4807
Co 16.721 9.11223 18.6068
Pd 14.7974 7.2089 22.3616
Pd 14.7886 9.08296 24.2901
Pd 16.6965 7.21037 24.2908
Co 16.675 9.07368 22.3631
Pd 14.8205 7.2294 26.2181
Pd 14.7916 9.08019 28.1488
Pd 16.6995 7.20761 28.1424
Co 16.699 9.10145 26.218
Pd 14.8035 7.20337 30.0746
Pd 14.7919 9.05602 31.9714
Pd 16.6904 7.18385 31.9525
Co 16.6811 9.06814 30.0728
Co 16.7332 9.10131 33.8291
Pd 14.7645 12.8468 16.661
Pd 16.6565 10.9674 16.663
Co 16.7018 12.9028 14.7961
Pd 14.7738 10.9679 18.5489
Pd 14.766 12.8537 20.4643
Pd 16.6657 10.9693 20.4654
Co 16.651 12.8494 18.5479
Pd 14.7776 10.9722 22.3659
Pd 14.7774 12.8677 24.2952
Pd 16.6822 10.9784 24.2936
Co 16.6766 12.8723 22.3836
Pd 14.7808 10.9738 26.2208
Pd 14.7805 12.865 28.1492
Pd 16.6852 10.9756 28.145
Co 16.681 12.8714 26.2207
Pd 14.7837 10.9667 30.0757
Pd 14.7752 12.8454 31.9801
Pd 16.6749 10.961 31.9733
Co 16.6827 12.8668 30.0577
Pd 14.786 10.9569 33.8927
Pd 14.7798 12.8331 35.7834
Pd 16.6717 10.9537 35.7757
Co 16.6633 12.8384 33.8934
Co 16.7201 12.8864 37.6453
Pd 14.7611 16.6528 12.862
Pd 16.6468 14.7694 12.8592
Co 16.7037 16.7149 10.9994
Pd 14.7609 14.764 14.7444
Pd 14.7554 16.6492 16.6613
Pd 16.649 14.758 16.6584
Co 16.6417 16.6472 14.7494
Pd 14.7597 14.757 18.5537
Pd 14.7653 16.6609 20.475
Pd 16.6665 14.7622 20.4721
Co 16.6651 16.6648 18.5739
Pd 14.7691 14.7606 22.3828
Pd 14.78 16.6674 24.3072
Pd 16.6787 14.771 24.3044
Co 16.6748 16.6687 22.3929
Pd 14.781 14.7668 26.2236
Pd 14.783 16.6646 28.1426
Pd 16.6818 14.7682 28.1397
Co 16.6833 16.6714 26.2234
Pd 14.7752 14.7551 30.0643
Pd 14.7745 16.6527 31.9748
Pd 16.6756 14.7539 31.972
Co 16.6809 16.6632 30.0539
Pd 14.7719 14.746 33.8934
Pd 14.7706 16.6355 35.7886
Pd 16.6642 14.7443 35.7857
Co 16.6773 16.6538 33.8729
Pd 14.7792 14.7476 37.7027
Pd 14.7824 16.6337 39.5878
Pd 16.6682 14.7503 39.585
Co 16.66 16.6307 37.6974
Co 16.728 16.6931 41.4474
Pd 14.7795 20.4732 9.07825
Pd 16.6637 18.5916 9.06855
Co 16.7361 20.5439 7.22329
Pd 14.7685 18.5775 10.9505
Pd 14.7593 20.46 12.8728
Pd 16.6479 18.5642 12.8686
Co 16.6511 20.4614 10.9687
Pd 14.7546 18.56 14.7578
Pd 14.7603 20.469 16.6752
Pd 16.659 18.563 16.6718
Co 16.6616 20.4741 14.7828
Pd 14.7622 18.5618 18.5743
Pd 14.7772 20.4767 20.4923
Pd 16.6729 18.5722 20.4889
Co 16.6694 20.4769 18.587
Pd 14.778 18.5707 22.3969
Pd 14.788 20.48 24.3145
Pd 16.6834 18.5757 24.3113
Co 16.683 20.4822 22.404
Pd 14.7852 18.5709 26.2263
Pd 14.7911 20.4772 28.1408
Pd 16.6864 18.573 28.1382
Co 16.6895 20.4816 26.2261
Pd 14.7842 18.5652 30.0557
Pd 14.7863 20.4684 31.963
Pd 16.6821 18.564 31.9607
Co 16.6891 20.4767 30.0483
Pd 14.7744 18.5508 33.8782
Pd 14.7755 20.4553 35.7801
Pd 16.6742 18.5493 35.7777
Co 16.6816 20.466 33.8652
Pd 14.7729 18.5435 37.6948
Pd 14.7806 20.4408 39.5825
Pd 16.6692 18.5451 39.581
Co 16.6798 20.4577 37.6695
Pd 14.7929 18.5555 41.5021
Pd 14.8069 20.4486 43.377
Pd 16.6911 18.567 43.381
Co 16.6754 20.4395 41.4835
Co 16.7664 20.5166 45.2289
Pd 14.8326 24.31 5.34337
Pd 16.7251 22.4259 5.31152
Co 16.8221 24.3882 3.60729
Pd 14.8035 22.4007 7.18065
Pd 14.7881 24.291 9.10783
Pd 16.6699 22.3852 9.10097
Co 16.6908 24.2858 7.22178
Pd 14.7676 22.3782 10.9777
Pd 14.7649 24.2974 12.889
Pd 16.6614 22.382 12.8887
Co 16.6729 24.3043 11.0084
Pd 14.7613 22.3789 14.7821
Pd 14.7705 24.3016 16.6924
Pd 16.6671 22.3884 16.6919
Co 16.6651 24.3027 14.7965
Pd 14.7735 22.3869 18.5909
Pd 14.7827 24.3035 20.5016
Pd 16.68 22.392 20.4998
Co 16.6752 24.3056 18.5993
Pd 14.7878 22.3899 22.4069
Pd 14.7968 24.303 24.3198
Pd 16.6907 22.3924 24.3172
Co 16.6878 24.3053 22.4101
Pd 14.7953 22.3894 26.229
Pd 14.7998 24.3003 28.141
Pd 16.6938 22.3897 28.1377
Co 16.6958 24.3032 26.2289
Pd 14.7939 22.3844 30.0511
Pd 14.7918 24.2953 31.9591
Pd 16.6891 22.3838 31.9552
Co 16.6939 24.2998 30.0476
Pd 14.7857 22.376 33.8671
Pd 14.7857 24.2879 35.7683
Pd 16.6823 22.3748 35.7631
Co 16.6874 24.2947 33.8585
Pd 14.7795 22.3624 37.6759
Pd 14.7862 24.2783 39.5717
Pd 16.6827 22.3628 39.5663
Co 16.6833 24.2863 37.6612
Pd 14.7919 22.3564 41.4803
Pd 14.8154 24.2665 43.3529
Pd 16.6972 22.3606 43.354
Co 16.6972 24.2825 41.4494
Pd 14.8339 22.3734 45.2773
Pd 14.8659 24.2801 47.1173
Pd 16.7585 22.3959 47.1434
Co 16.7212 24.2585 45.2359
Co 16.8582 24.3558 48.8503
Pd 15.0139 26.2319 3.51818
Pd 14.8302 28.151 5.34613
Pd 16.7501 26.2317 5.4269
Co 16.8198 28.0778 3.60994
Pd 14.8221 26.2292 7.23359
Pd 14.7857 28.1645 9.11061
Pd 16.6854 26.229 9.12093
Co 16.6884 28.1749 7.22458
Pd 14.7779 26.2264 11.0047
Pd 14.7625 28.1527 12.8918
Pd 16.667 26.2262 12.9073
Co 16.6705 28.1509 11.0111
Pd 14.7705 26.2237 14.7959
Pd 14.7681 28.1431 16.6952
Pd 16.6698 26.2235 16.7008
Co 16.6627 28.1471 14.7993
Pd 14.7764 26.221 18.5993
Pd 14.7803 28.1357 20.5044
Pd 16.6813 26.2208 20.5062
Co 16.6728 28.1386 18.602
Pd 14.7903 26.2182 22.4123
Pd 14.7944 28.1307 24.3225
Pd 16.6932 26.2181 24.3203
Co 16.6854 28.1335 22.4129
Pd 14.8014 26.2155 26.2317
Pd 14.7974 28.128 28.1437
Pd 16.6962 26.2153 28.1402
Co 16.6934 28.1301 26.2316
Pd 14.7964 26.2128 30.0512
Pd 14.7894 28.1275 31.9619
Pd 16.6905 26.2126 31.9543
Co 16.6915 28.1281 30.0504
Pd 14.7886 26.21 33.8642
Pd 14.7833 28.1294 35.7711
Pd 16.685 26.2098 35.7597
Co 16.685 28.1277 33.8612
Pd 14.7887 26.2073 37.6676
Pd 14.7838 28.1335 39.5745
Pd 16.6882 26.2071 39.5532
Co 16.6809 28.1307 37.664
Pd 14.8022 26.2046 41.4588
Pd 14.813 28.14 43.3557
Pd 16.7127 26.2044 43.3395
Co 16.6948 28.1291 41.4521
Pd 14.8524 26.2019 45.2298
Pd 14.8635 28.121 47.12
Pd 16.7832 26.2018 47.0335
Co 16.7187 28.1476 45.2387
Pd 15.0501 26.1994 48.9449
Co 16.8559 28.0453 48.853
Pd 16.7204 30.0375 5.31698
Pd 14.7987 30.0577 7.18615
Pd 14.7724 31.9824 9.08651
Pd 16.6651 30.0728 9.10648
Co 16.729 31.9168 7.23146
Pd 14.7628 30.0746 10.9832
Pd 14.7521 31.9901 12.8811
Pd 16.6566 30.0705 12.8942
Co 16.6439 31.9938 10.977
Pd 14.7565 30.0685 14.7877
Pd 14.7531 31.9756 16.6835
Pd 16.6623 30.0586 16.6974
Co 16.6544 31.9756 14.791
Pd 14.7687 30.055 18.5964
Pd 14.77 31.9625 20.5006
Pd 16.6752 30.0496 20.5053
Co 16.6623 31.9674 18.5953
Pd 14.783 30.0466 22.4124
Pd 14.7809 31.9538 24.3227
Pd 16.686 30.0437 24.3227
Co 16.6759 31.9567 22.4122
Pd 14.7905 30.0416 26.2345
Pd 14.7839 31.951 28.149
Pd 16.689 30.0409 28.1432
Co 16.6823 31.9518 26.2344
Pd 14.7891 30.0411 30.0566
Pd 14.7792 31.9543 31.9712
Pd 16.6844 30.0414 31.9607
Co 16.682 31.9512 30.0565
Pd 14.7809 30.044 33.8726
Pd 14.7684 31.9619 35.7883
Pd 16.6775 30.0449 35.7686
Co 16.6745 31.9564 33.8735
Pd 14.7747 30.0521 37.6814
Pd 14.7734 31.971 39.5908
Pd 16.6779 30.0514 39.5718
Co 16.6726 31.9592 37.6778
Pd 14.7871 30.0527 41.4858
Pd 14.7997 31.9578 43.3853
Pd 16.6924 30.0482 43.3595
Co 16.6682 31.9719 41.4918
Pd 14.8291 30.0303 45.2828
Pd 16.7537 30.0075 47.1489
Co 16.7593 31.8895 45.2371
Pd 16.6542 33.8663 9.07951
Pd 14.759 33.8754 10.9615
Pd 14.7492 35.7973 12.8757
Pd 16.6384 33.8883 12.8796
Co 16.6918 35.7403 11.0131
Pd 14.745 33.8874 14.7688
Pd 14.7435 35.7955 16.675
Pd 16.6494 33.8841 16.6828
Co 16.6298 35.8026 14.7632
Pd 14.7527 33.8801 18.5853
Pd 14.7534 35.7783 20.4887
Pd 16.6634 33.8694 20.4999
Co 16.6532 35.7795 18.5876
Pd 14.7685 33.8657 22.4079
Pd 14.768 35.7664 24.321
Pd 16.6738 33.8604 24.3223
Co 16.6629 35.7702 22.4066
Pd 14.7756 33.8601 26.2373
Pd 14.7711 35.7636 28.1563
Pd 16.6769 33.8576 28.1492
Co 16.6714 35.7619 26.2371
Pd 14.7746 33.8602 30.0667
Pd 14.7626 35.77 31.9886
Pd 16.6725 33.8611 31.9716
Co 16.669 35.7647 30.0676
Pd 14.7649 33.8692 33.8892
Pd 14.7587 35.7818 35.8023
Pd 16.6647 33.8704 35.7887
Co 16.6654 35.7685 33.8866
Pd 14.7633 33.871 37.7058
Pd 14.7705 35.7781 39.6015
Pd 16.6597 33.8691 39.592
Co 16.6481 35.7861 37.7111
Pd 14.7833 33.8535 41.513
Pd 16.6816 33.8417 43.392
Co 16.7161 35.7185 41.4611
Pd 16.6326 37.6831 12.8756
Pd 14.7466 37.6834 14.7609
Pd 14.7478 39.5979 16.6802
Pd 16.6347 37.6891 16.6749
Co 16.6852 39.5469 14.8152
Pd 14.7454 37.6849 18.5701
Pd 14.7493 39.5855 20.4835
Pd 16.6522 37.6794 20.4886
Co 16.6344 39.5949 18.5671
Pd 14.7548 37.6758 22.3992
Pd 14.7607 39.566 24.3144
Pd 16.6644 37.6651 24.3208
Co 16.6599 39.5666 22.4028
Pd 14.7668 37.6642 26.24
Pd 14.7638 39.5632 28.1683
Pd 16.6675 37.6624 28.1561
Co 16.6644 39.562 26.2398
Pd 14.7609 37.6703 30.0808
Pd 14.7585 39.5773 31.9993
Pd 16.6614 37.6712 31.9884
Co 16.666 39.5611 30.0769
Pd 14.7576 37.6739 33.9099
Pd 14.7631 39.5842 35.8026
Pd 16.6499 37.6753 35.8022
Co 16.6466 39.5839 33.9126
Pd 14.7649 37.6669 37.7191
Pd 16.6539 37.6639 39.6014
Co 16.7034 39.5306 37.6644
Pd 16.6375 41.4797 16.6849
Pd 14.7548 41.4741 18.5708
Pd 14.7613 43.375 20.4921
Pd 16.6467 41.4723 20.4873
Co 16.6997 43.3321 18.6314
Pd 14.7586 41.4643 22.3878
Pd 14.7672 43.3508 24.3147
Pd 16.6632 41.4577 24.3155
Co 16.6536 43.3652 22.3877
Pd 14.7618 41.4571 26.2427
Pd 14.7703 43.348 28.1734
Pd 16.6662 41.455 28.1669
Co 16.6776 43.3319 26.2425
Pd 14.7647 41.4588 30.0976
Pd 14.7705 43.3667 31.9961
Pd 16.6559 41.4641 31.9952
Co 16.6598 43.3597 30.0974
Pd 14.767 41.4631 33.9146
Pd 16.6527 41.466 35.7976
Co 16.7118 43.3212 33.8536
Pd 16.6575 45.2495 20.508
Pd 14.7737 45.2276 22.3889
Pd 14.7853 47.096 24.3042
Pd 16.6728 45.2258 24.3181
Co 16.7294 47.0748 22.4647
Pd 14.7968 45.2016 26.2454
Pd 14.7884 47.0932 28.1893
Pd 16.6758 45.223 28.1697
Co 16.6976 47.0601 26.2452
Pd 14.7798 45.2221 30.1019
Pd 16.6666 45.2413 31.9798
Co 16.7354 47.0694 30.0257
Pd 16.7146 48.8884 24.3729
Pd 14.8462 48.8111 26.2479
Pd 16.7176 48.8858 28.12
Pd 18.6064 5.29705 20.4868
Pd 20.5471 3.52689 20.526
Co 20.5541 5.35976 18.6303
Pd 18.6467 3.53032 22.4316
Pd 18.6475 5.34296 24.3343
Pd 20.5218 3.43836 24.3053
Co 20.526 5.32531 22.4076
Pd 18.6197 3.45416 26.2124
Pd 18.6505 5.34027 28.0931
Pd 20.5248 3.43563 28.1163
Co 20.5399 5.2964 26.2122
Pd 18.6527 3.5249 29.9932
Pd 18.6156 5.28884 31.9406
Pd 20.5562 3.51873 31.8958
Co 20.5321 5.31985 30.0168
Co 20.5662 5.34888 33.7941
Pd 18.5819 9.0636 16.6659
Pd 20.4804 7.20015 16.6752
Co 20.5206 9.12812 14.8
Pd 18.5988 7.19162 18.5623
Pd 18.5856 9.07343 20.4727
Pd 20.4959 7.19444 20.4881
Co 20.4723 9.07306 18.56
Pd 18.6067 7.19614 22.3804
Pd 18.5988 9.09716 24.2897
Pd 20.5275 7.21151 24.3083
Co 20.5044 9.09737 22.3921
Pd 18.6155 7.23099 26.2151
Pd 18.6019 9.0944 28.1432
Pd 20.5305 7.20878 28.1188
Co 20.5157 9.10674 26.2149
Pd 18.6128 7.19064 30.0497
Pd 18.5948 9.06519 31.9602
Pd 20.505 7.18623 31.939
Co 20.5105 9.09189 30.0378
Pd 18.611 7.18064 33.8679
Pd 18.5972 9.04989 35.7669
Pd 20.4956 7.18647 35.752
Co 20.4845 9.06208 33.8698
Co 20.5388 9.11174 37.6298
Pd 18.5679 12.8591 12.8574
Pd 20.4623 10.9869 12.8593
Co 20.5128 12.9252 10.9985
Pd 18.5739 10.9744 14.7438
Pd 18.5611 12.8572 16.6581
Pd 20.4635 10.9782 16.662
Co 20.4525 12.86 14.7472
Pd 18.5721 10.9704 18.5559
Pd 18.5721 12.8713 20.4711
Pd 20.4849 10.9814 20.4753
Co 20.4778 12.8777 18.5723
Pd 18.5814 10.9807 22.3809
Pd 18.5859 12.8789 24.3027
Pd 20.5001 10.994 24.3018
Co 20.4884 12.8838 22.3897
Pd 18.5926 10.9857 26.2178
Pd 18.589 12.8761 28.1357
Pd 20.5032 10.9912 28.1308
Co 20.4962 12.8878 26.2176
Pd 18.5875 10.9752 30.0547
Pd 18.5813 12.863 31.9672
Pd 20.4941 10.9732 31.9572
Co 20.4945 12.8783 30.0456
Pd 18.5843 10.9594 33.8797
Pd 18.5764 12.8435 35.7802
Pd 20.4787 10.9644 35.7706
Co 20.49 12.8667 33.863
Pd 18.5922 10.958 37.6918
Pd 18.5892 12.8399 39.5809
Pd 20.4836 10.9677 39.5733
Co 20.4708 12.8436 37.6881
Co 20.5371 12.9034 41.4368
Pd 18.5775 16.6802 9.06565
Pd 20.4614 14.7984 9.06965
Co 20.5269 16.7578 7.21756
Pd 18.5686 14.7821 10.9447
Pd 18.5559 16.6586 12.8657
Pd 20.454 14.7724 12.8642
Co 20.4502 16.667 10.963
Pd 18.5569 14.7624 14.752
Pd 18.5604 16.6639 16.669
Pd 20.4688 14.7676 16.6666
Co 20.4687 16.6718 14.777
Pd 18.5645 14.7643 18.5686
Pd 18.5754 16.6721 20.486
Pd 20.4822 14.7787 20.4837
Co 20.4773 16.6739 18.5813
Pd 18.5792 14.7743 22.3911
Pd 18.5847 16.6768 24.3085
Pd 20.4913 14.7838 24.3059
Co 20.4882 16.6817 22.3982
Pd 18.5851 14.7757 26.2205
Pd 18.5878 16.674 28.1353
Pd 20.4944 14.7811 28.1321
Co 20.4935 16.6824 26.2204
Pd 18.5853 14.7688 30.0499
Pd 18.5845 16.6639 31.9578
Pd 20.4914 14.7705 31.9543
Co 20.4943 16.6762 30.0425
Pd 18.5767 14.7533 33.8725
Pd 18.5756 16.6502 35.7748
Pd 20.4841 14.7539 35.7714
Co 20.4894 16.6629 33.8595
Pd 18.5752 14.746 37.689
Pd 18.5772 16.6395 39.5781
Pd 20.4753 14.7532 39.5739
Co 20.4869 16.6553 37.6637
Pd 18.5929 14.7602 41.4963
Pd 18.6049 16.6556 43.3781
Pd 20.4888 14.7738 43.3684
Co 20.4745 16.6451 41.4778
Co 20.5572 16.7305 45.2232
Pd 18.6259 20.5367 5.29605
Pd 20.5145 18.6505 5.2932
Co 20.5954 20.6228 3.5743
Pd 18.599 18.6184 7.15776
Pd 18.5758 20.4809 9.09518
Pd 20.4644 18.5946 9.09232
Co 20.4822 20.5039 7.19948
Pd 18.5605 18.5741 10.9701
Pd 18.5599 20.4756 12.8879
Pd 20.4649 18.573 12.885
Co 20.4742 20.4902 11.0071
Pd 18.5581 18.566 14.777
Pd 18.569 20.4795 16.6899
Pd 20.4746 18.5763 16.687
Co 20.4716 20.4818 14.7968
Pd 18.5718 18.5739 18.5849
Pd 18.5804 20.4845 20.4975
Pd 20.4853 18.5819 20.4947
Co 20.4822 20.4866 18.5969
Pd 18.5826 18.5788 22.4009
Pd 18.5897 20.4864 24.3144
Pd 20.493 18.5855 24.3116
Co 20.4913 20.49 22.4061
Pd 18.5889 18.5794 26.2233
Pd 18.5928 20.4837 28.1348
Pd 20.4961 18.5827 28.1319
Co 20.497 20.4899 26.2231
Pd 18.5886 18.5734 30.0456
Pd 18.5895 20.4763 31.9517
Pd 20.4945 18.5737 31.9488
Co 20.4974 20.4845 30.0401
Pd 18.584 18.5629 33.8616
Pd 18.5842 20.4658 35.7593
Pd 20.4898 18.5627 35.7564
Co 20.4944 20.4757 33.8493
Pd 18.5764 18.5495 37.6695
Pd 18.5812 20.4565 39.5614
Pd 20.4862 18.5539 39.5585
Co 20.4898 20.4654 37.6494
Pd 18.5848 18.5522 41.4764
Pd 18.6031 20.4563 43.354
Pd 20.4918 18.57 43.3512
Co 20.4985 20.4683 41.4391
Pd 18.6294 18.5911 45.2887
Pd 18.6593 20.5067 47.1531
Pd 20.5478 18.6205 47.1503
Co 20.5125 20.4766 45.2467
Co 20.6315 20.5903 48.8719
Pd 18.7301 22.5377 3.44987
Pd 18.6465 24.3414 5.38747
Pd 20.5374 22.4535 5.37024
Co 20.551 24.3637 3.52269
Pd 18.599 22.4046 7.21465
Pd 18.5821 24.3056 9.12933
Pd 20.4871 22.4041 9.12331
Co 20.5227 24.3342 7.25814
Pd 18.5687 22.387 11.0059
Pd 18.5684 24.3068 12.9102
Pd 20.4734 22.3954 12.9141
Co 20.4802 24.3106 11.0325
Pd 18.5671 22.3909 14.7983
Pd 18.572 24.3076 16.7024
Pd 20.4782 22.3958 16.7036
Co 20.4753 24.3104 14.8143
Pd 18.5765 22.3938 18.5986
Pd 18.5836 24.3079 20.5058
Pd 20.4883 22.3983 20.5049
Co 20.4834 24.31 18.6069
Pd 18.5877 22.3957 22.4086
Pd 18.5931 24.3067 24.3187
Pd 20.4962 22.3988 24.3165
Co 20.4932 24.3097 22.4122
Pd 18.5942 22.3945 26.226
Pd 18.5961 24.304 28.136
Pd 20.4992 22.3961 28.1325
Co 20.4988 24.3078 26.2258
Pd 18.5938 22.3902 30.0433
Pd 18.5927 24.2997 31.9489
Pd 20.4974 22.3901 31.944
Co 20.4993 24.3043 30.0394
Pd 18.5887 22.3828 33.8534
Pd 18.5872 24.2939 35.7523
Pd 20.4934 22.3821 35.7454
Co 20.4956 24.2991 33.8448
Pd 18.5853 22.3745 37.6537
Pd 18.5896 24.2877 39.5445
Pd 20.4947 22.3763 39.5349
Co 20.4935 24.2941 37.6374
Pd 18.593 22.3651 41.446
Pd 18.6093 24.2811 43.3254
Pd 20.5144 22.3796 43.3256