4033
Atoms. Timestep: 20787
Co 6.90936 18.8194 32.2283
Pd 14.3211 34.2972 24.1407
Pd 10.3944 11.272 20.1411
Co 13.4043 22.5217 22.757
Pd 9.12595 24.9635 30.2265
Pd 12.3888 15.7192 22.2712
Pd 10.4492 12.9039 34.0186
Co 9.80085 15.7179 23.1997
Co 3.73515 26.0868 27.3036
Pd 8.42016 14.4523 17.72
Pd 11.0762 17.8941 33.6586
Co 3.78091 23.0695 22.9687
Pd 3.51345 23.9275 20.6031
Pd 9.62794 20.0668 21.3044
Pd 12.8255 28.164 26.547
Co 3.94724 23.5435 27.4111
Pd 12.6236 12.9301 20.9455
Pd 4.0286 32.3026 30.5687
Pd 18.8157 29.5177 20.5195
Co 9.88412 34.1779 36.0036
Pd 7.09779 29.3647 35.4978
Pd 7.56964 24.0901 28.3531
Pd 16.7633 14.5978 23.3251
Co 15.4926 16.1532 25.0246
Co 12.0199 31.0494 39.5127
Pd 7.67823 22.1015 14.8441
Pd 10.4118 9.19874 25.7976
Co 11.5906 40.2295 19.4258
Pd 11.8901 19.7083 19.9377
Pd 10.6366 14.0094 16.3105
Pd 11.3734 21.2647 27.0271
Co 12.1021 25.7496 26.3321
Pd 8.52521 21.8983 23.9865
Pd 4.88967 25.3887 22.4047
Pd 6.81757 21.3337 31.6321
Co 11.0471 11.5311 25.0522
Pd 14.293 30.5283 27.0739
Pd 9.37186 23.2627 38.9965
Pd 9.24527 20.1991 32.3477
Co 4.69672 30.8446 26.4504
Pd 12.9803 33.867 19.1175
Pd 21.2101 39.5446 30.2511
Pd 4.90712 37.1412 28.5765
Co 17.8311 41.2615 34.3819
Pd 10.2828 20.0427 24.7799
Pd 12.1049 19.4617 42.5814
Pd 5.92288 26.0533 31.4806
Co 7.31998 30.8748 29.2829
Co 13.4868 26.4405 35.0167
Pd 19.5179 20.4897 8.46294
Pd 4.83669 19.1215 25.6908
Pd 7.59875 25.1426 13.141
Pd 9.81382 20.6651 18.6686
Co 4.96097 29.8993 22.2438
Pd 9.11922 24.2181 15.1124
Pd 16.4719 39.6977 21.1091
Pd 5.49723 17.378 19.3382
Co 7.14971 28.8182 21.8394
Pd 14.6055 26.6773 27.8423
Pd 21.6591 26.3845 28.3905
Pd 9.9702 25.8818 24.9657
Co 16.006 44.9551 27.3169
Pd 7.75355 14.3287 22.2531
Pd 8.54926 34.8104 31.5953
Pd 7.22775 38.9181 25.1354
Co 9.23836 32.7147 22.9441
Pd 6.81698 38.6254 29.9747
Pd 9.56325 31.4716 28.1637
Pd 9.91176 28.9962 21.7652
Co 16.912 29.3492 24.1787
Pd 17.8121 40.9905 26.2265
Pd 4.55682 27.5514 29.3613
Pd 8.41176 33.7516 29.0388
Co 17.9674 40.8462 28.9148
Pd 16.1402 13.2571 33.7775
Pd 7.90381 26.9535 36.72
Co 8.56687 28.9249 28.3415
Pd 16.4895 40.8497 18.6449
Pd 2.94622 26.4568 20.458
Pd 8.36 33.4601 20.6897
Pd 20.8584 8.17327 12.9782
Co 11.6567 16.4591 13.3019
Pd 9.11567 22.6436 21.3052
Pd 5.82164 28.086 16.321
Pd 6.22596 28.7853 27.595
Co 7.64801 23.4709 17.1631
Pd 10.7386 38.7406 36.1916
Pd 8.11902 23.9849 25.7742
Pd 9.12772 16.8796 25.5698
Co 14.901 16.2259 22.5522
Pd 7.90028 26.7929 26.5355
Pd 14.2761 36.7662 22.1678
Pd 9.17047 35.9808 33.9218
Co 14.3723 36.8188 41.3582
Pd 8.72438 21.5052 26.6694
Pd 11.7142 22.8665 40.1971
Co 11.0824 38.0182 33.6381
Pd 16.596 45.7134 23.9117
Pd 12.4641 42.4858 15.6806
Pd 4.25792 20.6833 27.7155
Pd 8.54043 30.3188 23.5272
Co 22.3682 47.008 21.9654
Pd 6.6258 35.1375 19.8972
Pd 7.18896 26.627 29.0766
Pd 4.23664 34.6412 29.3123
Co 6.66681 35.106 25.2531
Pd 8.78869 24.4605 23.1157
Pd 10.1039 41.2306 15.1772
Co 5.45439 33.1048 26.1384
Pd 6.24217 18.5159 23.5408
Pd 9.83012 39.7534 13.0093
Pd 11.5834 42.8775 23.0166
Co 5.90465 32.6725 28.5263
Co 12.701 8.39588 26.6751
Pd 15.5787 12.8232 13.0461
Pd 17.7897 11.6568 25.4665
Co 18.6451 13.3404 30.1627
Pd 7.51621 20.8466 17.1733
Pd 13.1353 23.7841 25.0095
Pd 17.0084 9.1084 19.0389
Co 16.4225 14.9589 13.9016
Co 13.2566 12.2982 28.1736
Pd 6.664 15.3483 28.0499
Pd 21.5882 13.1367 8.90087
Co 21.8605 9.66352 18.1209
Pd 6.2008 18.5652 17.0595
Pd 11.899 25.6228 8.56617
Pd 18.9643 3.49353 25.954
Co 7.51001 16.3457 23.6162
Pd 13.8171 7.58807 28.9451
Pd 25.355 12.014 31.5097
Pd 16.2818 10.2569 16.8174
Co 14.56 13.8813 22.1243
Pd 10.3185 13.8185 21.6299
Pd 6.77959 20.5829 34.1424
Pd 23.1304 15.2201 30.6076
Co 14.4343 11.623 35.3043
Co 17.4669 23.3497 26.1605
Pd 14.2989 14.7936 27.0267
Pd 17.9631 20.0564 15.2053
Co 12.6945 20.1257 8.22322
Pd 16.0129 15.4967 20.346
Pd 15.5347 18.7034 21.8085
Pd 7.82917 16.9461 18.3673
Co 16.9194 10.5929 14.2565
Pd 19.0371 12.181 20.3468
Pd 7.98763 14.5138 25.4779
Pd 11.9944 10.5667 34.7395
Co 9.82171 18.1608 19.2839
Pd 13.9229 18.0041 23.9587
Pd 13.8494 6.0468 26.6223
Pd 8.67719 22.3173 33.7283
Co 14.1861 12.2974 37.7316
Pd 11.8395 13.8237 31.8845
Pd 2.43947 25.3981 22.9143
Pd 16.6669 28.5324 21.6744
Co 12.0766 13.6985 23.6342
Pd 7.43006 16.3818 32.8908
Pd 14.0322 24.6171 29.3639
Pd 20.2029 11.1176 13.3929
Co 9.03348 22.6349 31.1629
Co 23.2254 13.2435 38.9936
Pd 13.9984 15.0918 9.29523
Pd 19.2381 9.49729 11.3225
Co 5.41996 25.5462 19.9534
Pd 6.97618 30.2317 17.5013
Pd 6.15001 22.4626 26.8615
Pd 12.4645 16.0052 15.7316
Co 13.8519 23.8242 20.6113
Pd 12.3415 16.4705 10.8921
Pd 9.66033 18.0976 37.5923
Pd 8.40953 13.0093 19.8957
Co 13.1469 11.9325 13.1197
Pd 4.12503 24.6934 25.0193
Pd 11.0878 18.7421 12.4304
Pd 15.7875 32.9465 31.4416
Co 5.36524 27.2579 25.8981
Pd 18.099 8.68101 26.0986
Pd 7.76672 29.7516 32.9452
Pd 4.90179 21.7332 20.9178
Co 14.9659 11.5771 21.2949
Pd 18.8886 12.932 42.1698
Pd 8.71509 30.2806 37.6887
Pd 6.37982 16.8758 25.8194
Co 10.4735 33.7381 19.5391
Pd 5.21583 17.8183 28.0428
Pd 4.73491 30.3625 29.0186
Pd 8.51796 11.732 22.2783
Co 27.0183 33.5384 29.4585
Pd 13.0805 19.358 34.7405
Pd 4.2834 29.4955 31.4869
Pd 9.75437 22.4935 36.2885
Co 11.0709 35.0262 40.0358
Co 10.7603 14.8606 25.4171
Pd 5.29951 27.6904 23.4825
Pd 13.5036 6.64377 19.8556
Pd 14.0091 15.5086 13.1648
Pd 4.40464 27.559 18.5124
Co 10.2643 26.6372 22.4604
Pd 15.2825 25.375 10.399
Pd 6.14684 24.262 15.1028
Pd 9.1713 18.8693 16.75
Co 6.64474 22.8872 12.5473
Pd 5.47433 21.1152 14.0656
Pd 14.1853 28.4759 20.7798
Pd 11.5259 27.742 12.5861
Co 5.89915 25.0811 26.8071
Pd 10.758 17.6219 21.5375
Pd 11.312 33.6607 24.276
Pd 10.7584 28.4326 24.4522
Co 22.8137 39.4318 20.3638
Pd 6.58215 23.6326 21.4866
Pd 9.84468 19.0597 27.1862
Pd 5.34528 30.5228 33.6727
Co 12.2103 30.4416 21.4584
Pd 5.62867 16.4381 21.9282
Pd 21.5655 43.2977 27.4915
Pd 5.06901 24.9448 29.2313
Co 16.3825 8.81131 29.2141
Pd 11.1311 12.546 29.5712
Pd 12.3272 31.7528 28.3116
Pd 9.87246 15.3465 32.7217
Co 15.4872 20.4427 33.918
Pd 7.37341 32.5294 33.2683
Pd 27.3453 10.7356 32.5397
Pd 10.8503 26.2528 31.7683
Co 8.97066 34.3764 24.7408
Pd 3.46836 32.5367 27.8771
Pd 13.1984 24.8727 32.8986
Co 17.3348 25.431 41.978
Pd 3.02307 27.0863 24.9523
Pd 12.0836 39.6765 11.6569
Pd 11.705 22.4714 20.6403
Pd 7.73854 21.6562 29.1897
Co 12.264 28.3107 22.4326
Pd 7.51976 26.2907 21.6345
Pd 12.9731 36.565 14.7412
Pd 12.1811 24.8553 18.7016
Co 9.84765 31.3861 20.9686
Pd 8.75528 18.0073 13.5243
Pd 22.3131 35.5231 28.6215
Pd 9.5445 25.5541 17.4768
Co 12.8636 34.8282 26.1133
Pd 7.89683 17.5393 27.9691
Pd 21.1494 36.0679 26.2964
Pd 9.34792 38.1029 29.3913
Co 11.0413 29.3309 28.5907
Pd 12.2631 19.1538 38.0239
Pd 12.7617 27.5652 33.0179
Pd 12.3621 33.626 35.4195
Co 13.3569 32.1525 23.1685
Pd 18.5199 36.4543 26.6827
Pd 10.2281 42.9785 25.3152
Pd 16.156 35.0973 35.127
Co 7.91749 33.4511 26.6768
Pd 11.7533 28.6113 30.8452
Pd 7.53414 34.2686 35.3751
Co 17.5252 37.7404 38.3885
Pd 6.09647 23.0704 24.0052
Pd 11.6242 36.51 27.403
Pd 12.92 32.8568 12.7196
Pd 5.88992 37.0332 23.3521
Co 12.2863 38.1424 23.341
Pd 6.32783 35.1092 27.7834
Pd 22.9675 47.1046 19.5912
Pd 9.84642 35.1624 22.4152
Co 7.65635 36.2046 29.6322
Pd 6.22503 31.9727 35.6356
Pd 11.5767 33.1122 21.6565
Pd 11.6927 40.1786 16.8945
Co 12.0106 38.5441 25.8547
Pd 4.68023 35.5745 21.573
Pd 12.7948 42.7978 25.5577
Pd 15.5355 43.4551 38.4078
Co 13.9846 37.9619 27.2878
Pd 9.61446 38.4123 26.5825
Pd 17.9431 32.7536 29.5554
Co 8.78984 25.7238 39.4092
Pd 11.8004 40.3713 21.9973
Pd 13.9842 39.3483 29.556
Pd 23.8896 47.1018 36.0442
Pd 3.9057 34.9541 26.6422
Co 14.9207 33.4431 26.5246
Pd 4.02873 21.9582 25.3767
Pd 12.34 41.5155 29.3813
Pd 5.44356 23.3099 18.7544
Co 18.2639 38.806 27.4597
Pd 8.73155 38.5014 34.4023
Pd 16.5461 40.4173 23.718
Co 24.076 42.8666 35.0746
Pd 14.1401 44.2545 22.6634
Pd 13.9592 38.265 12.9506
Pd 32.3246 46.7403 37.8947
Co 25.1654 44.5481 30.1267
Co 23.2162 6.09391 31.9199
Pd 20.3919 3.04682 23.6065
Pd 14.9614 16.3019 30.8769
Co 7.73814 17.4974 21.1949
Pd 14.7905 8.08944 17.9205
Pd 16.8939 8.65412 12.5531
Pd 19.1853 5.08804 32.7124
Co 16.799 10.3788 27.4981
Co 15.3562 11.742 29.1998
Pd 27.306 4.76643 17.3541
Pd 20.0345 10.5537 22.3103
Co 14.7108 10.545 19.047
Pd 29.5044 7.01681 20.5453
Pd 17.6878 9.78283 23.6162
Pd 12.1431 9.37434 23.8352
Co 16.1907 28.1783 18.9055
Pd 15.5202 28.4246 25.8989
Pd 15.6114 7.84404 26.8779
Pd 12.4694 11.706 18.5922
Co 17.9768 22.5852 23.8046
Pd 29.4985 8.5641 16.3644
Pd 15.0394 9.41546 22.8057
Pd 16.8704 14.1908 25.9585
Co 14.6026 13.8519 24.5424
Co 17.7971 12.4806 27.9461
Pd 7.83135 16.8317 15.7488
Pd 18.8668 11.1851 15.6736
Co 17.4874 11.1455 12.0505
Pd 15.4672 12.2061 10.5393
Pd 13.3681 13.729 11.414
Pd 11.827 14.4618 27.8281
Co 10.9269 18.0277 15.0539
Pd 12.4189 8.94211 19.1548
Pd 5.51771 19.6854 29.969
Pd 23.1135 6.18775 21.9757
Co 9.61966 13.3031 24.0033
Pd 22.757 7.56043 15.0364
Pd 12.2867 12.0678 15.8882
Pd 3.57433 28.685 27.089
Co 12.6464 13.0845 25.8969
Pd 19.3297 10.3067 18.1079
Pd 15.012 23.9623 26.9718
Pd 9.33822 15.3097 27.7886
Co 16.7536 13.1529 21.1328
Pd 9.87723 12.8884 26.849
Pd 17.4565 16.9655 22.0955
Pd 16.6117 18.462 45.4455
Co 14.3622 16.808 38.9018
Co 14.7444 9.60611 30.6621
Pd 21.7658 14.0343 17.4371
Pd 23.1945 18.5109 17.9423
Co 17.239 16.6037 17.4496
Pd 13.3889 17.6009 8.56515
Pd 10.9127 21.304 11.8728
Pd 19.154 12.9244 17.6339
Co 9.03831 22.8541 12.7676
Pd 16.3576 13.9528 8.75088
Pd 8.29396 24.4359 10.8096
Pd 14.2709 9.92229 27.9566
Co 32.1971 20.073 14.9129
Pd 19.8788 22.9048 25.5842
Pd 15.932 16.5856 28.2944
Pd 10.4867 24.975 12.6968
Co 12.3404 35.5962 23.1057
Pd 5.24327 20.4581 18.6453
Pd 22.1989 23.5879 30.1781
Pd 11.0816 11.5067 22.6293
Co 10.864 15.1752 30.0786
Pd 8.52958 11.3966 25.1133
Pd 16.066 13.2905 31.134
Pd 6.57215 28.7983 30.5288
Co 18.8437 21.0039 26.9643
Pd 6.45396 17.1477 30.3265
Pd 18.138 27.2822 28.3661
Pd 11.5019 16.9002 26.8259
Co 23.5085 16.967 42.4414
Pd 15.2032 10.9131 32.8674
Pd 10.2433 20.5254 29.4198
Pd 14.114 17.5011 26.7488
Co 19.355 13.7931 25.4829
Co 12.9082 18.0195 40.5382
Pd 11.8436 30.4619 11.7138
Pd 21.7248 16.6815 16.5085
Co 13.9639 29.6138 13.0951
Pd 10.1636 16.3815 17.2049
Pd 9.0803 19.3288 10.9118
Pd 9.71077 15.6139 14.4288
Co 12.7891 21.7302 10.0916
Pd 15.2375 16.387 15.538
Pd 22.2696 10.0147 20.529
Pd 15.128 19.574 8.90713
Co 11.4144 23.8935 16.4351
Pd 14.8648 22.2749 18.8579
Pd 8.8744 18.4771 23.2401
Pd 10.8462 13.9462 19.041
Co 12.3121 34.2491 28.705
Pd 11.2339 21.4305 33.989
Pd 8.21224 27.6632 23.8666
Pd 7.4594 21.9562 19.5263
Co 16.3944 21.5383 27.2269
Pd 9.26682 15.7336 20.2604
Pd 8.13683 24.8529 32.6676
Pd 18.6526 20.0224 38.5483
Co 7.87723 19.0238 25.5094
Pd 24.2336 27.328 27.9394
Pd 10.2592 37.7197 21.6828
Pd 16.424 22.357 35.5742
Co 11.6321 16.3324 19.4054
Pd 17.7873 14.299 38.0064
Pd 20.1076 15.5562 29.8974
Pd 20.814 26.7353 25.8282
Co 13.3903 25.3615 37.0962
Pd 16.2072 24.4212 24.214
Pd 12.3485 19.0982 28.3271
Pd 18.9958 16.6612 32.2856
Co 12.3335 28.8468 35.1974
Pd 14.6289 19.77 41.6913
Pd 15.9735 10.1806 36.9329
Pd 10.6631 23.9277 32.9654
Co 19.1065 27.1666 32.553
Co 13.6464 26.4249 43.8028
Pd 20.3465 37.4464 14.4077
Pd 19.3243 43.661 15.0873
Pd 18.0296 33.3658 7.73928
Pd 16.0358 31.8662 6.60873
Co 14.7774 25.0712 18.7382
Pd 10.5481 20.9105 9.2492
Pd 2.87588 28.1269 22.5123
Pd 14.1851 25.0563 22.7567
Co 9.69048 22.0506 16.4177
Pd 19.0332 28.3448 22.9768
Pd 6.19431 25.6485 17.4203
Pd 7.50904 19.3426 19.5168
Co 14.7252 29.8425 5.94685
Pd 17.2354 28.4425 16.2918
Pd 14.6069 27.7308 23.3102
Pd 6.73301 15.108 19.9148
Co 11.771 28.6796 19.8364
Pd 14.4965 28.7311 16.7051
Pd 9.37308 39.4073 31.9438
Pd 12.9022 21.4772 29.416
Co 18.1734 38.8313 14.1886
Pd 16.195 34.9427 29.9179
Pd 9.27914 17.6275 31.6879
Pd 12.2573 23.6635 27.6973
Co 7.26985 19.466 14.9912
Pd 12.0306 24.0448 35.2646
Pd 33.0563 37.2467 38.0633
Pd 6.74413 19.8902 27.541
Co 26.5631 44.3619 38.7932
Pd 5.30618 37.0706 25.8998
Pd 18.3554 14.1822 32.5456
Pd 13.9514 39.6136 40.5835
Co 10.3608 27.6271 26.9697
Pd 8.97642 24.6492 35.0712
Pd 12.3061 36.6236 29.9386
Pd 4.8641 33.0144 32.969
Co 6.48688 20.8135 24.9613
Pd 11.4798 19.0804 31.2753
Pd 11.7405 22.2223 42.6712
Pd 14.7903 25.3961 41.7102
Co 18.5435 39.9923 38.1638
Pd 18.1583 26.9736 43.8346
Pd 23.991 23.5372 45.7391
Co 18.9128 19.3497 44.0286
Pd 11.9908 28.1475 10.0472
Pd 7.04208 31.4354 21.7266
Pd 12.9738 19.3254 10.6818
Pd 18.1919 36.0711 13.9739
Co 16.5189 35.3372 15.6545
Pd 12.8334 32.2691 25.7284
Pd 10.296 28.5856 15.5189
Pd 14.9107 30.2856 22.5077
Co 20.4104 26.4374 18.9753
Pd 10.2406 24.9209 20.6123
Pd 14.4187 26.0793 25.3019
Pd 11.8935 35.7466 20.6383
Co 9.53076 39.6737 18.0904
Pd 7.16504 32.4786 24.3951
Pd 22.2499 38.6651 43.3405
Pd 19.4435 31.6957 27.1435
Co 11.0168 35.6107 18.1056
Pd 16.1409 28.9838 28.3976
Pd 11.1449 31.2891 30.5285
Pd 11.2261 30.2949 26.3059
Co 9.98886 22.9048 28.7149
Pd 10.571 33.7581 26.9628
Pd 7.13505 20.7257 22.1184
Pd 15.8165 40.0465 27.7915
Co 26.1528 37.1228 35.8235
Pd 17.1821 18.6559 32.7078
Pd 11.3212 36.2605 35.5384
Pd 10.7518 37.0402 38.2781
Co 17.1395 34.621 37.3974
Pd 5.89993 27.9308 33.2527
Pd 9.21084 29.5569 30.6561
Pd 13.878 22.7466 31.5487
Co 18.6909 38.6792 29.8676
Pd 10.663 41.0238 27.1838
Pd 12.3557 13.6521 38.7937
Co 13.8032 29.5632 38.501
Pd 14.0353 41.3998 11.7853
Pd 7.76947 36.3123 15.7871
Pd 9.90688 38.8728 23.9903
Pd 16.6538 37.9288 12.1429
Co 8.29998 38.2615 19.7591
Pd 10.7725 23.5976 10.2523
Pd 16.3811 40.3611 15.637
Pd 3.17051 29.2772 20.2065
Co 28.3633 46.3944 20.3371
Pd 14.6415 39.1434 10.6006
Pd 19.7559 37.753 34.3215
Pd 8.33374 36.7665 24.2275
Co 12.3349 26.4947 23.9964
Pd 10.8904 33.9156 30.8109
Pd 14.2864 39.5341 22.3353
Pd 24.5939 30.1689 26.0902
Co 16.2185 35.1569 22.6119
Pd 16.3326 41.1 32.2119
Pd 10.1018 25.3611 37.2289
Pd 18.3309 34.3936 31.6613
Co 18.7181 34.3015 35.3201
Pd 8.64416 32.1566 31.0237
Pd 19.955 38.273 37.0233
Pd 8.32466 27.2355 31.5822
Co 17.0034 28.6403 33.5892
Pd 9.85003 33.4895 33.6001
Pd 11.3379 31.2061 35.1484
Co 10.0525 35.6303 29.1779
Pd 10.4799 35.9062 15.635
Pd 4.60014 34.3635 23.9909
Pd 20.9604 40.7506 37.8284
Pd 15.5978 32.8957 19.4253
Co 20.2568 42.0396 16.8712
Pd 8.85961 35.8493 26.9003
Pd 12.2038 45.0135 24.2739
Pd 18.6089 39.6786 17.0044
Co 14.8375 39.3598 36.9188
Pd 6.67106 25.6114 24.3526
Pd 13.3203 37.2095 32.663
Pd 20.8858 39.5395 32.7927
Co 10.0038 40.5647 29.7405
Pd 25.4551 41.0782 33.603
Pd 8.19538 40.168 27.9385
Pd 13.5233 31.7937 37.2918
Co 9.47819 31.9455 25.4478
Pd 10.7499 32.3652 37.4803
Pd 15.1424 40.3317 34.5485
Co 15.034 38.9484 32.2092
Pd 23.2685 43.4286 22.3845
Pd 25.0421 36.6972 33.4346
Pd 7.02995 22.7308 35.682
Pd 15.0617 34.4398 17.4482
Co 10.9268 33.2004 17.2316
Pd 23.6102 39.0582 32.3405
Pd 15.1284 43.4674 31.9648
Pd 16.3811 41.543 36.7501
Co 22.3702 37.9409 40.7739
Pd 10.4823 42.2615 20.5698
Pd 14.1273 43.212 27.8042
Co 28.3876 45.6625 34.4857
Pd 7.76032 39.0143 22.3967
Pd 17.1367 34.2859 27.5037
Pd 7.71185 37.3514 32.0979
Co 17.2135 45.2068 31.0902
Pd 17.2593 7.9843 21.6078
Pd 28.8344 3.79068 30.3914
Co 21.5301 6.44299 33.7416
Pd 22.1803 14.3892 25.4256
Pd 18.4335 22.4999 18.5385
Pd 31.2184 3.58824 31.5149
Co 18.3139 4.44679 28.1274
Co 28.2811 13.8813 25.1658
Pd 7.65685 20.5209 12.6789
Pd 35.8691 12.2126 12.6905
Co 28.6321 10.0746 11.0051
Pd 25.1318 14.7016 21.3737
Pd 11.5446 24.3829 22.8474
Pd 18.8539 9.26251 28.6834
Co 17.1486 5.40477 21.7371
Pd 19.2415 6.21774 26.1649
Pd 18.2531 8.49161 16.4572
Pd 24.2032 3.59554 31.9356
Co 20.6833 18.7191 18.3609
Pd 22.5339 21.0749 16.9264
Pd 18.9578 9.20035 36.2455
Pd 18.1773 15.0567 28.0494
Co 22.8484 14.846 34.2317
Co 14.5926 12.1977 17.2295
Pd 24.1812 10.9202 12.0845
Pd 19.1627 3.88196 21.4439
Co 18.7966 9.08305 14.0245
Pd 13.6126 18.0883 13.0222
Pd 25.9471 14.0871 14.4884
Pd 27.3572 7.73666 13.2676
Co 14.8684 8.6639 20.4802
Pd 9.91601 11.9245 17.6593
Pd 26.0802 20.7079 33.6792
Pd 11.0537 22.662 14.2246
Co 9.54355 9.75514 23.5473
Pd 24.3045 3.6396 21.4894
Pd 18.8402 16.0229 24.2428
Pd 21.5678 7.26072 24.9896
Co 12.7872 21.2501 24.7817
Pd 17.9363 4.75762 19.2336
Pd 20.3931 19.9553 28.6645
Pd 15.5814 5.43211 28.5039
Co 14.7242 20.4355 23.3219
Pd 26.1497 2.8391 29.9216
Pd 22.1914 14.7051 43.1397
Pd 15.2198 12.2339 26.5289
Co 21.3022 13.3218 30.1218
Co 6.83788 23.7715 30.7766
Pd 16.4792 23.7888 17.1983
Pd 17.2723 17.8043 10.56
Co 27.3049 23.6061 20.2459
Pd 25.4912 5.90726 20.9848
Pd 16.1128 6.52711 19.6717
Pd 24.1092 13.1853 16.3887
Co 23.135 7.4922 17.6866
Pd 16.7163 12.7519 15.8174
Pd 15.6996 6.9636 30.6327
Pd 19.5351 9.0384 20.3109
Co 17.831 14.3915 19.1114
Pd 18.2096 13.0437 13.6093
Pd 11.953 13.9485 14.0139
Pd 27.2959 16.7866 13.4842
Co 13.029 15.685 24.9049
Pd 19.2454 25.0828 27.1947
Pd 14.9756 19.8202 28.4773
Pd 11.3166 17.4989 24.1704
Co 13.8581 21.6878 27.0354
Pd 12.214 12.8051 36.1491
Pd 14.156 14.5875 32.654
Pd 27.4803 15.3445 32.0643
Co 22.4153 21.0893 29.8187
Pd 6.13727 23.3271 33.2491
Pd 12.3597 16.5178 31.8079
Pd 19.3591 7.71106 33.2125
Co 19.0602 33.9672 25.8836
Pd 11.0236 11.3164 32.0023
Pd 8.10656 19.1993 29.9761
Pd 28.865 10.767 44.8598
Co 16.0053 13.9982 28.6978
Co 13.7694 35.7772 34.8696
Pd 3.64503 25.082 18.1615
Pd 21.2665 19.8068 6.51252
Co 23.7539 25.6257 6.99022
Pd 27.831 13.4671 7.7892
Pd 15.7843 14.5446 17.5693
Pd 18.6491 20.2012 6.00611
Co 13.5219 23.8997 9.62923
Pd 10.9565 18.2597 9.4557
Pd 26.902 3.73793 21.8078
Pd 26.7408 21.7563 11.1821
Co 20.9762 22.5801 18.2254
Pd 11.9302 18.1914 17.7583
Pd 20.5106 5.14477 18.9678
Pd 21.6988 22.7203 20.6498
Co 23.6724 5.82594 25.3593
Pd 14.1796 16.7378 18.0516
Pd 9.60482 27.2667 19.7486
Pd 22.961 4.00487 23.6532
Co 14.7613 13.1618 19.4985
Pd 16.8764 11.9762 18.7174
Pd 21.8276 30.5674 33.9504
Pd 16.1362 17.9327 19.4211
Co 13.5642 15.1532 20.0946
Pd 10.612 23.2471 25.4058
Pd 11.674 24.1599 30.3482
Pd 16.2247 13.0052 36.3878
Co 6.57254 25.3328 34.8632
Pd 18.3249 4.92941 23.8909
Pd 15.4373 22.4291 29.3033
Pd 10.4988 19.6268 35.6855
Co 17.7944 24.5758 22.164
Pd 18.5162 7.41602 30.691
Pd 19.4916 18.6134 26.0871
Pd 11.8597 15.0336 34.4607
Co 17.7181 11.6666 32.4307
Pd 11.3479 21.7898 31.4612
Pd 10.2738 28.5193 33.1235
Pd 16.503 37.2933 28.4537
Co 16.8826 10.9297 34.7727
Co 16.0328 30.3201 39.0419
Pd 29.0064 17.5571 5.92326
Pd 21.4678 31.7394 11.3057
Co 33.7533 11.3626 14.1922
Pd 14.7011 27.4088 6.37658
Pd 16.2215 23.5216 6.03857
Pd 12.4761 20.2919 14.0747
Co 16.4445 33.783 13.3769
Pd 10.0893 26.3237 10.4788
Pd 5.37453 22.129 16.4546
Pd 16.0169 18.6543 16.6635
Co 18.4866 30.7204 18.3418
Pd 20.3955 14.7059 10.6154
Pd 5.94998 37.6753 20.5608
Pd 23.5078 14.4324 10.3849
Co 18.8845 21.6324 13.4266
Pd 14.5842 11.0469 14.8959
Pd 10.6781 9.0007 21.4339
Pd 23.0257 20.7545 21.9496
Co 13.7539 27.2336 18.6752
Pd 20.8373 9.4105 15.6054
Pd 20.3937 14.381 19.8812
Pd 20.0936 29.5665 25.0357
Co 24.0441 17.6047 15.6725
Pd 18.4295 27.58 25.5076
Pd 22.3279 30.0052 36.6299
Pd 22.7032 28.3999 30.1678
Co 17.7922 24.8142 35.7769
Pd 9.22631 34.8507 38.3639
Pd 9.9054 25.1937 27.6178
Pd 15.1336 14.4374 38.6609
Co 16.0843 30.7961 30.0617
Pd 22.4234 38.3762 27.8951
Pd 12.2679 32.6413 32.7387
Pd 21.8135 24.3145 26.4416
Co 13.6557 36.88 24.9165
Pd 8.46064 18.571 34.3157
Pd 13.2635 15.3374 37.0305
Pd 7.62284 24.4689 37.4238
Co 18.1546 26.6837 37.3084
Pd 13.6662 14.2013 29.8414
Pd 20.0955 28.5568 36.715
Pd 28.1165 20.1215 35.4897
Co 27.579 17.5206 29.996
Pd 25.5902 17.4185 44.564
Pd 13.7769 23.8841 43.8549
Pd 14.8351 7.99354 32.8477
Co 17.6926 14.7636 35.2908
Co 13.4481 26.5378 30.8659
Pd 12.859 34.9149 9.93996
Pd 23.6419 45.0818 11.5263
Pd 16.2861 27.7941 10.3902
Co 21.5913 19.1514 9.04669
Pd 12.2162 30.1549 16.6827
Pd 17.4401 23.742 11.0297
Pd 9.71783 16.7573 11.4401
Co 16.4383 26.654 7.98056
Pd 16.5947 20.6334 20.017
Pd 5.32555 19.1018 21.1331
Pd 15.6426 29.3513 8.25468
Co 22.9077 36.276 10.6726
Pd 13.833 30.0885 18.8648
Pd 17.9523 46.8543 21.9792
Pd 12.5873 26.2671 20.9335
Co 11.9202 32.8154 15.1527
Pd 18.3255 26.7685 20.754
Pd 15.917 32.6696 22.1899
Pd 17.5907 25.8663 18.5152
Co 26.3464 20.4292 24.8334
Pd 14.088 27.1044 8.99273
Pd 4.60532 20.5979 23.2618
Pd 10.8454 36.3542 24.9166
Co 23.745 31.055 29.4108
Pd 20.2105 30.7056 38.3484
Pd 11.8084 35.2161 33.1237
Pd 11.6459 38.9183 28.444
Co 13.8237 31.894 20.7079
Pd 8.24318 27.1487 34.1815
Pd 15.3455 31.5308 24.8088
Pd 13.5479 11.9044 31.0249
Co 6.16797 31.2285 31.3628
Pd 22.4902 30.8291 31.448
Pd 17.7592 38.9701 33.1124
Pd 22.2161 37.0342 33.316
Co 19.9271 31.0784 35.8596
Pd 12.1672 37.6143 40.4112
Pd 12.0267 29.9361 41.7432
Pd 22.1586 38.7054 35.4766
Co 12.4987 35.3763 41.8824
Pd 16.3169 23.6725 40.2307
Pd 9.61204 27.8951 38.4494
Pd 16.1586 21.4469 38.7369
Co 13.0881 36.8191 37.2946
Pd 8.78199 31.5345 35.3075
Pd 24.8584 33.8988 42.0486
Pd 20.6145 15.9845 45.3945
Co 13.5633 21.6859 38.7005
Pd 21.4482 23.1074 46.0844
Co 12.4488 20.4439 40.352
Pd 22.3656 36.835 15.8513
Pd 22.8785 38.5045 17.9275
Pd 14.2711 24.9345 7.36526
Pd 8.47986 21.8831 10.5524
Co 31.4627 42.5479 21.6956
Pd 20.2951 32.0149 24.2079
Pd 19.0899 35.176 16.9438
Pd 6.89752 34.2723 14.3788
Co 14.9529 34.0699 11.3324
Pd 13.6398 32.2682 17.1151
Pd 9.90092 23.2334 18.6367
Pd 18.312 33.5051 22.8076
Co 11.1872 34.6303 13.5459
Pd 7.16483 31.149 26.8181
Pd 13.2997 26.0267 16.3233
Pd 4.31059 34.2433 19.1977
Co 11.8943 30.4754 14.2336
Pd 6.26266 29.6747 24.7596
Pd 12.7954 38.2439 20.6291
Pd 20.8356 27.8544 20.8929
Co 15.8403 30.0467 14.8971
Pd 20.6155 39.9736 23.7072
Pd 19.2908 41.3411 19.0209
Pd 18.029 36.013 24.1946
Co 24.8685 31.9894 23.3965
Pd 13.7084 31.3448 30.7734
Pd 25.0081 37.102 30.7959
Pd 13.9202 21.3253 43.7981
Co 22.8706 29.4359 27.949
Pd 9.72424 28.8064 35.7029
Pd 15.7555 35.8627 25.844
Pd 16.2204 38.3558 25.9679
Co 30.8148 40.744 38.9865
Pd 15.7827 32.8477 38.8456
Pd 13.2947 42.3449 33.8264
Pd 23.1356 34.7685 34.3515
Co 25.3946 35.8223 37.8459
Pd 17.3451 25.3374 33.333
Pd 16.005 37.564 43.224
Pd 11.6581 16.5658 38.8075
Co 24.3756 39.7448 44.4742
Pd 15.371 30.8677 45.2782
Pd 29.4026 34.038 46.6638
Co 16.1176 28.1405 37.99
Pd 17.3915 18.6706 7.8993
Pd 10.9306 26.1087 15.0891
Pd 11.4683 43.469 27.8185
Pd 3.77508 31.7293 19.5773
Co 10.7149 35.6032 11.3696
Pd 3.08616 32.4973 25.2537
Pd 12.0228 39.5547 14.3563
Pd 7.82867 24.8024 19.3997
Co 7.82795 36.6274 21.7187
Pd 7.22172 37.75 27.5312
Pd 6.04069 34.7406 17.1912
Pd 16.6383 21.1251 17.2439
Co 16.0811 37.8204 14.8269
Pd 4.99715 32.9882 21.5559
Pd 20.9659 45.8811 18.2718
Pd 16.4284 43.0431 23.5153
Co 5.06191 27.7033 21.0306
Pd 20.3788 34.619 23.8441
Pd 22.1231 32.3498 37.7398
Pd 23.3767 43.5311 41.8861
Co 28.3778 36.4957 26.7358
Pd 21.2662 42.6353 35.4065
Pd 15.3424 41.8368 25.723
Pd 13.1948 43.8601 30.2272
Co 16.46 39.3891 30.2724
Pd 14.4999 34.0151 41.2148
Pd 6.30556 33.7502 30.7863
Pd 19.6958 35.5623 45.2537
Co 16.3422 37.8724 40.6962
Pd 24.5591 31.2318 37.3587
Pd 14.0016 41.3151 38.3426
Pd 19.4106 35.795 38.117
Co 26.1125 39.2537 31.9277
Pd 24.4609 39.0416 41.961
Pd 14.6468 20.5728 36.5239
Co 10.1554 21.1049 40.9984
Pd 11.8763 41.877 13.2039
Pd 18.6338 44.1738 22.5699
Pd 20.0705 48.1834 22.9042
Pd 7.01531 34.5043 22.7311
Co 4.93972 31.7426 23.8342
Pd 7.30333 32.5338 16.3493
Pd 18.0463 38.7947 19.335
Pd 11.0854 31.0066 23.6052
Co 18.7417 41.7688 24.0233
Pd 11.6378 40.7011 24.631
Pd 19.0108 46.9268 30.7699
Pd 13.0318 42.6839 20.8679
Co 27.4781 42.3062 21.6227
Pd 21.1435 31.0289 29.0953
Pd 20.0241 47.5952 33.4728
Pd 19.2419 35.828 21.8132
Co 15.1798 38.0631 19.581
Pd 27.5212 35.8326 33.8877
Pd 28.1119 41.176 34.9912
Pd 24.1235 44.7013 39.5138
Co 9.5593 39.968 20.7364
Pd 17.4036 39.1975 35.9614
Pd 11.8556 39.0487 31.1518
Pd 17.2358 37.1156 31.27
Co 24.6419 38.9149 34.6872
Pd 21.015 36.0474 35.8252
Pd 19.9271 45.9246 38.8738
Co 11.6975 34.7933 37.6148
Pd 14.8102 44.405 25.2038
Pd 24.9182 44.5367 36.766
Pd 19.8552 48.1138 25.8389
Pd 22.8145 39.9842 25.3699
Co 7.00894 36.9069 18.2101
Pd 28.1919 44.662 23.1831
Pd 16.2082 45.2837 33.5859
Pd 22.7571 41.0034 33.938
Co 20.7313 42.4095 22.6085
Pd 20.7114 39.8023 13.385
Pd 20.4723 40.2865 21.0969
Pd 29.4386 43.5601 33.2473
Co 13.3456 35.7106 39.4119
Pd 22.2591 37.346 38.1139
Pd 15.543 35.5208 32.5585
Pd 30.5626 36.2095 37.9709
Co 19.1303 42.7136 27.6597
Pd 20.8756 35.0402 30.8316
Pd 10.5923 40.4811 34.1906
Co 21.7113 34.7848 37.8499
Pd 9.41519 41.2976 22.9871
Pd 24.6423 48.1185 21.459
Pd 23.694 36.5622 35.991
Pd 28.8211 49.5594 27.5482
Co 20.1006 43.5863 24.8261
Pd 23.0179 49.0736 26.2269
Pd 27.3774 42.0693 39.449
Pd 16.1979 37.7896 23.4726
Co 14.2532 42.7349 36.1796
Pd 26.4561 40.7279 25.8273
Pd 21.3108 48.0204 29.6891
Co 16.624 35.4721 44.6627
Pd 26.99 48.5754 20.2134
Pd 26.2705 45.9789 40.5962
Pd 17.7178 43.8089 25.6708
Pd 27.4626 9.71747 24.7058
Pd 17.7227 6.82198 14.5012
Co 23.4237 11.6886 18.3903
Pd 28.1212 12.5651 19.2429
Pd 23.6235 12.5698 29.4603
Pd 26.2935 12.6491 12.1967
Co 20.5432 13.757 12.9312
Pd 25.6961 2.82884 27.2607
Pd 26.9251 13.6136 17.0122
Pd 23.86 7.64577 33.9284
Co 17.2917 20.6321 25.1874
Pd 26.9505 5.35006 37.7147
Pd 11.3667 10.7796 27.552
Pd 31.0672 8.27249 24.6209
Co 13.1795 10.6367 25.8246
Co 22.1441 6.04308 27.4004
Pd 30.922 7.30346 18.3703
Pd 25.6338 6.62367 18.408
Co 35.0822 17.9335 19.2404
Pd 28.3069 12.8512 10.3782
Pd 25.5644 8.41784 11.4816
Pd 32.0876 4.38755 22.8999
Co 26.5424 15.5944 25.7031
Pd 15.0003 6.62903 22.2075
Pd 21.5898 7.36761 19.8937
Pd 23.3857 13.4206 23.199
Co 28.991 13.7792 22.7536
Pd 20.5083 6.73477 36.2516
Pd 15.7167 8.44429 15.0769
Pd 24.7639 13.6745 27.2051
Co 24.0103 7.70736 20.0771
Pd 13.2735 10.1276 37.0351
Pd 27.4518 6.2645 30.8009
Pd 25.0754 11.5674 14.4865
Co 17.5878 16.7095 26.2654
Pd 22.063 10.1166 28.5095
Pd 12.3242 9.91319 29.8217
Pd 25.4082 8.31799 36.1372
Co 22.9979 7.37986 36.1785
Co 21.4413 8.95558 37.1609
Pd 34.4746 16.6588 12.1717
Pd 10.8401 14.4955 11.8269
Co 21.8386 16.7211 9.86926
Pd 21.8484 5.52574 16.6548
Pd 17.929 19.2226 12.6374
Pd 20.8734 21.8093 14.9349
Co 21.403 11.6604 16.6345
Pd 22.356 14.9221 28.1138
Pd 27.7892 12.1242 14.8957
Pd 30.8777 15.3889 16.1992
Co 30.2178 11.1152 15.5761
Pd 20.3902 20.8031 22.1835
Pd 24.126 16.6348 19.8498
Pd 30.9025 6.64236 26.7817
Co 23.2805 8.11443 12.3446
Pd 21.34 8.76892 34.6758
Pd 20.5774 14.351 23.1881
Pd 25.0286 5.31188 30.2843
Co 17.917 29.6067 26.6905
Pd 25.0844 7.84418 31.4099
Pd 27.0411 4.85472 28.5021
Pd 20.6512 4.45817 34.8365
Co 29.2345 14.0777 40.43
Pd 16.7802 25.9119 26.4092
Pd 17.4872 11.0046 30.0832
Pd 23.6689 3.19861 29.0423
Co 20.8376 6.41227 31.3291
Pd 11.8175 23.5148 37.7979
Pd 24.7009 11.9869 37.143
Pd 25.2175 11.1574 42.4368
Co 18.5489 14.7208 21.5193
Co 9.42373 13.3241 31.2878
Pd 9.06755 27.318 13.2992
Pd 32.5746 19.8801 17.4155
Co 21.8718 17.4068 7.26218
Pd 25.5644 3.98641 19.1456
Pd 35.0551 6.75891 26.873
Pd 26.7249 8.93773 17.8649
Co 19.9366 19.6679 10.9828
Pd 18.1256 15.5661 9.76833
Pd 27.1621 6.86971 15.7683
Pd 37.3791 13.9779 14.5006
Co 23.559 9.3563 10.1635
Pd 15.8598 22.5855 22.1515
Pd 19.0192 5.56597 16.773
Pd 25.8347 18.1784 17.8713
Co 22.2753 26.1006 8.84202
Pd 20.2664 16.0468 26.646
Pd 16.7548 18.2429 24.3705
Pd 18.5858 12.5902 23.0823
Co 28.0637 14.3513 12.875
Pd 26.0272 15.9979 28.2582
Pd 15.0076 14.6333 42.4449
Pd 26.7168 21.9902 31.381
Co 27.476 12.1731 23.7742
Pd 22.1705 8.55291 32.0386
Pd 21.0507 12.0902 24.5708
Pd 30.2004 15.1577 31.4052
Co 21.9632 10.8792 30.9263
Pd 18.7518 12.6092 34.6017
Pd 17.0082 17.9224 37.5057
Pd 13.8161 22.3157 34.3256
Co 27.1027 12.5967 36.3986
Pd 14.3845 18.7838 44.1291
Pd 16.3449 16.0359 33.3196
Pd 14.7292 28.9401 31.5068
Co 14.4944 23.1861 37.0292
Pd 25.5435 13.7653 42.3526
Pd 14.8399 10.3123 39.3172
Pd 16.9813 6.4343 32.8385
Co 27.4744 10.0538 42.8713
Co 13.0617 12.4285 33.5428
Pd 13.1216 25.5302 13.5875
Pd 24.4378 22.33 9.91807
Co 12.5458 23.4237 12.0281
Pd 18.1528 25.8309 9.63175
Pd 22.1494 29.1445 4.88715
Pd 20.3822 24.8004 7.66582
Co 14.6773 36.7363 16.6611
Pd 18.6095 22.8369 15.8021
Pd 17.7762 15.9176 7.26162
Pd 17.5192 20.4746 10.1144
Co 15.8789 16.679 8.70114
Pd 15.5256 19.6182 14.1707
Pd 9.71857 20.338 14.3352
Pd 20.0099 34.1002 19.4377
Co 22.2056 12.5612 11.5661
Pd 18.3393 15.5746 12.4358
Pd 14.1975 19.5747 18.4924
Pd 29.9514 22.9624 28.0891
Co 25.9587 25.4857 29.0561
Pd 13.0413 14.2682 17.6763
Pd 21.4415 20.656 26.3706
Pd 17.3894 20.324 22.744
Co 23.922 20.6859 25.6774
Pd 14.2996 13.8311 15.243
Pd 18.5957 22.9761 34.1777
Pd 28.4744 19.7716 30.8053
Co 29.0621 28.4324 28.7995
Pd 25.0552 5.70329 35.6996
Pd 20.0021 21.969 30.5334
Pd 18.0933 36.6622 36.0201
Co 12.3992 19.1403 25.8014
Pd 25.4266 19.4978 22.5914
Pd 23.4562 24.0996 32.515
Pd 20.0268 29.9636 31.4335
Co 23.0369 16.7391 44.9233
Pd 18.7167 17.5909 28.5996
Pd 19.8716 13.7842 36.5456
Pd 20.3729 21.149 34.4212
Co 21.1752 23.0047 32.7948
Pd 10.3279 17.5001 29.3027
Pd 17.4334 14.3258 43.8278
Pd 17.56 9.79013 39.0321
Co 13.3312 20.455 32.457
Pd 27.521 6.86978 35.6691
Pd 29.3449 24.7764 41.6057
Pd 24.5879 6.48602 38.1429
Co 12.421 24.6588 41.8636
Co 23.3138 12.6372 41.4756
Pd 18.0627 27.1529 13.9094
Pd 20.5703 23.711 12.8954
Pd 30.8481 19.222 6.78181
Co 25.2202 36.1437 11.7386
Pd 23.7118 11.782 9.55132
Pd 20.1899 13.6265 15.3544
Pd 15.1223 23.7837 12.4529
Co 28.3176 27.3557 11.0597
Pd 18.8596 25.0753 24.5847
Pd 13.5324 22.9468 14.4459
Pd 15.4947 19.4833 11.5234
Co 17.9642 24.8165 7.23186
Pd 24.5147 22.4648 16.1048
Pd 22.725 35.5846 24.1171
Pd 32.4517 17.0203 30.0857
Co 10.4526 32.2342 13.2828
Pd 24.1864 23.5434 25.5158
Pd 21.8509 19.4275 23.9949
Pd 19.3892 18.4863 23.4312
Co 24.5403 24.6643 14.8489
Pd 25.8812 19.4007 31.4112
Pd 14.0175 20.8797 20.9004
Pd 16.2373 22.7262 32.9705
Co 26.8212 27.6252 28.3177
Pd 14.6185 18.2389 32.7929
Pd 18.5466 30.1277 29.1794
Pd 18.1304 19.1701 18.2999
Co 26.988 37.8594 22.8449
Pd 21.7636 34.5503 17.1486
Pd 22.148 31.3167 40.2233
Pd 14.9065 19.7509 25.7588
Co 23.6665 26.4134 22.2064
Pd 24.844 23.4251 30.1261
Pd 24.2394 32.7332 39.5203
Pd 25.2567 27.6869 30.4401
Co 25.8562 20.594 27.2456
Pd 19.6373 9.83576 31.4088
Pd 15.4662 30.9124 33.0644
Pd 11.7936 27.2702 37.171
Co 20.0063 11.4264 29.4379
Pd 20.8019 22.6079 28.1153
Pd 13.8677 18.7355 30.4474