4033
Atoms. Timestep: 21552
Co 20.8605 42.6827 40.1237
Pd 8.1808 24.707 37.194
Pd 24.8047 5.68655 14.8889
Co 13.2296 33.0208 30.1315
Pd 16.6522 36.3776 44.9279
Pd 24.2553 15.3647 30.4008
Pd 16.4756 6.15818 30.702
Co 14.0115 17.9395 26.6786
Co 27.1955 44.204 29.8557
Pd 13.0305 27.5895 22.5329
Pd 10.8263 39.447 35.8709
Co 18.6724 27.2964 43.5298
Pd 8.76788 17.8317 28.3228
Pd 26.6029 24.7494 9.39874
Pd 36.3892 33.4222 45.207
Co 15.2081 36.2098 36.0343
Pd 3.28633 20.0942 22.4192
Pd 19.749 14.1514 45.3428
Pd 43.9355 27.2538 18.2462
Co 7.36399 30.8289 29.5717
Pd 10.9407 23.9623 33.4591
Pd 17.913 17.886 22.102
Pd 14.8992 11.4217 16.1539
Co 18.3383 23.7305 26.4724
Co 13.5991 35.2984 34.2954
Pd 19.7652 31.3712 14.0611
Pd 12.9846 21.0007 17.9031
Co 25.005 23.2674 7.86468
Pd 15.9792 26.5511 45.4262
Pd 20.2298 13.3983 12.128
Pd 8.32707 18.9075 18.7057
Co 10.2349 21.9749 17.776
Pd 7.60674 20.4679 14.2561
Pd 16.3632 43.6362 36.4818
Pd 23.0602 17.0849 32.2476
Co 9.48846 14.9993 34.1092
Pd 28.6978 26.54 27.8216
Pd 13.8892 27.8068 29.6384
Pd 23.3811 22.6067 36.8864
Co 18.4727 13.8215 37.1363
Pd 11.5776 33.1245 40.9725
Pd 4.20031 33.9922 20.7748
Pd 13.0952 18.7767 41.7863
Co 17.3485 44.0782 28.0402
Pd 15.2451 11.3864 22.5478
Pd 32.2305 38.3793 39.6799
Pd 19.3146 34.3908 42.1631
Co 3.08619 26.9502 31.1028
Co 20.509 29.1015 36.0186
Pd 11.5987 14.4714 22.1899
Pd 19.056 18.5698 46.8609
Pd 21.9268 17.7332 6.36619
Pd 12.5256 7.90164 21.6833
Co 29.4117 35.0719 44.6386
Pd 6.26872 27.4588 24.7949
Pd 27.1049 37.4082 11.5781
Pd 9.89053 18.2839 12.6653
Co 8.74508 24.2539 30.4474
Pd 6.90942 33.5426 35.8664
Pd 13.9271 32.3189 27.7497
Pd 6.46003 36.0505 28.1592
Co 37.0179 40.2913 18.1187
Pd 16.6993 10.4989 20.5437
Pd 18.2144 35.2119 39.7574
Pd 32.9831 37.2968 22.2106
Co 10.8882 17.4643 15.1847
Pd 9.60736 22.9223 21.4192
Pd 21.6367 24.7651 45.4763
Pd 3.98943 30.1181 34.5274
Co 18.1033 15.1479 21.9296
Pd 21.9059 40.9879 16.6859
Pd 19.1621 39.7707 30.5393
Pd 11.5996 31.3569 28.6253
Co 29.8614 37.4243 39.1127
Pd 28.2689 12.7655 28.1375
Pd 20.44 45.9288 20.218
Co 7.25906 20.7054 38.7726
Pd 30.981 19.3579 17.6558
Pd 7.91843 16.3173 30.4007
Pd 18.8029 28.7294 23.8986
Pd 24.564 3.94976 29.3551
Co 11.7704 26.5176 29.6669
Pd 17.0817 39.2976 38.7819
Pd 15.3194 34.912 18.5122
Pd 6.40318 25.1087 20.1577
Co 7.19028 30.8052 20.7152
Pd 18.3229 33.1647 38.1055
Pd 9.54886 33.1381 39.136
Pd 26.6737 11.6158 30.3827
Co 19.2657 9.17225 28.2172
Pd 18.8363 18.8786 24.3828
Pd 19.8407 13.0563 14.7962
Pd 15.5864 29.3026 28.4221
Co 28.4025 44.2838 40.3036
Pd 23.7046 29.5333 36.1855
Pd 27.1464 28.2527 38.5808
Co 19.9933 33.8976 24.7575
Pd 28.0688 33.3879 23.2928
Pd 13.9664 28.2447 17.3121
Pd 6.69814 33.2221 28.9705
Pd 5.97297 24.8281 33.4117
Co 26.5471 33.7247 14.76
Pd 21.2726 27.9177 24.8814
Pd 7.49701 16.7397 17.1712
Pd 10.4464 41.5792 27.1947
Co 10.5885 24.5233 19.5326
Pd 22.2073 35.1551 25.2555
Pd 6.19322 26.8874 18.3317
Co 3.89248 28.0261 23.9282
Pd 6.65913 23.235 35.3792
Pd 15.4743 19.5387 40.9385
Pd 20.1588 25.991 19.2527
Co 13.8391 30.5985 29.8365
Co 8.71176 19.8657 32.0267
Pd 29.1613 4.3889 20.3049
Pd 12.9735 15.9017 10.631
Co 15.1548 17.0886 31.4473
Pd 14.6985 26.466 24.2819
Pd 22.2747 19.3256 17.5137
Pd 15.5644 21.4621 17.1014
Co 9.13461 21.0491 19.8609
Co 31.045 11.6415 19.387
Pd 10.582 27.0198 19.9553
Pd 11.9433 18.1512 21.8734
Co 29.8787 15.6853 27.0371
Pd 20.6415 18.021 21.6848
Pd 14.5365 27.2438 26.8705
Pd 25.3631 9.82457 13.1067
Co 16.3486 39.2185 26.6549
Pd 28.7558 10.6041 34.6978
Pd 23.9937 17.4916 40.6812
Pd 28.5814 8.88434 21.737
Co 10.2516 11.6462 26.4466
Pd 5.64679 16.9301 31.4997
Pd 13.7049 34.333 42.0115
Pd 17.3559 19.222 44.9652
Co 10.7705 20.4595 21.6107
Co 16.3971 7.37983 24.3823
Pd 33.4657 7.84913 29.9013
Pd 16.4274 24.0771 17.5837
Co 11.5587 29.5913 23.6839
Pd 22.8518 12.3415 23.405
Pd 16.6481 9.05519 16.1464
Pd 26.1405 12.9776 10.1615
Co 13.2437 13.3461 34.4355
Pd 24.5635 26.3222 12.5279
Pd 26.6591 12.4456 19.4933
Pd 12.5655 23.9691 39.5375
Co 3.91465 30.1636 18.1224
Pd 25.4282 24.7671 28.2759
Pd 26.1856 26.8703 26.8992
Pd 10.2256 16.1176 26.743
Co 9.0878 18.2145 25.7436
Pd 17.4114 20.6979 42.5028
Pd 11.933 11.7792 32.4791
Pd 17.166 23.3351 42.1405
Co 24.0464 9.30169 34.0008
Pd 21.7373 39.6001 29.2757
Pd 13.9359 22.7062 24.152
Pd 27.537 22.6326 8.04773
Co 9.57658 22.0664 31.0541
Co 10.8827 13.0859 34.8326
Pd 41.8386 12.9325 17.3267
Pd 23.2685 5.47141 16.9787
Co 20.5102 24.3251 27.4658
Pd 14.6944 31.9474 32.0173
Pd 2.27424 23.6701 25.778
Pd 32.8472 4.00024 24.4359
Co 21.3205 26.7222 34.8884
Pd 23.9239 21.4609 17.3439
Pd 16.1756 35.7241 33.6768
Pd 4.75246 17.5336 22.5413
Co 12.9109 20.4547 20.5682
Pd 27.7587 5.92757 15.9429
Pd 24.7166 21.3486 22.6448
Pd 29.249 9.84694 24.139
Co 9.09123 35.0903 31.8973
Pd 23.4489 19.9099 24.8779
Pd 6.76393 34.5509 33.3149
Pd 13.0003 20.4712 23.1406
Co 17.4236 11.6555 37.6203
Pd 22.7653 29.8389 46.4126
Pd 18.5645 21.4041 46.4826
Pd 24.4643 18.9239 15.8841
Co 22.3516 45.756 32.3746
Pd 9.93821 9.4265 25.2445
Pd 16.8207 38.7502 43.0601
Pd 21.6393 11.9646 31.5268
Co 38.3065 21.1804 32.5259
Pd 30.1783 25.7242 42.3667
Pd 11.0398 37.4675 37.6516
Pd 8.79423 32.9904 20.807
Co 8.66972 37.3462 27.6352
Co 8.49285 19.1448 37.0907
Pd 13.7205 36.2292 24.6643
Pd 42.4156 11.5124 24.5052
Pd 13.8631 24.7262 25.946
Pd 21.5149 21.8251 18.237
Co 22.755 31.7983 27.8604
Pd 29.9369 6.82684 19.4373
Pd 4.03938 26.7049 33.7964
Pd 30.9552 18.9958 14.9502
Co 12.9763 34.517 10.0414
Pd 20.8675 17.0336 13.8795
Pd 13.1516 18.2828 19.1177
Pd 8.42984 11.5295 24.5349
Co 7.26186 34.7436 22.1183
Pd 26.3998 29.8948 35.5108
Pd 11.192 40.9112 33.699
Pd 16.0978 36.0737 30.4111
Co 21.0645 35.4948 29.5867
Pd 5.38113 28.4275 35.9415
Pd 8.12071 28.0363 39.8102
Pd 8.98849 33.7098 12.8709
Co 26.8794 12.5963 38.7479
Pd 13.2736 32.917 18.598
Pd 14.5583 43.4638 27.754
Pd 32.7944 47.0415 25.7057
Co 5.20342 20.4009 18.0307
Pd 15.5179 19.6172 27.886
Pd 4.95347 33.3933 31.5371
Pd 12.8902 32.5159 43.6386
Co 22.9781 32.8045 43.0098
Pd 20.5002 33.1654 46.9228
Pd 20.836 12.3815 25.0509
Pd 15.9073 38.3484 34.575
Co 21.1757 41.9311 30.2665
Pd 7.97558 27.792 35.9138
Pd 6.73253 29.4897 37.9838
Co 20.9654 29.1318 42.651
Pd 21.5842 33.1078 31.1698
Pd 16.0503 39.0599 19.3567
Pd 7.90859 32.1594 33.8904
Pd 6.58301 33.4699 17.0295
Co 19.6057 34.644 27.2227
Pd 21.2415 30.6086 25.3254
Pd 19.7444 22.0929 42.1452
Pd 14.1922 18.1983 9.95431
Co 7.13411 16.8285 26.4108
Pd 12.5264 34.0549 25.8012
Pd 23.1162 43.675 31.1198
Pd 11.8184 17.6722 8.84873
Co 10.9691 28.9198 26.1295
Pd 15.2282 33.2211 34.2859
Pd 21.7561 30.7495 29.9393
Pd 6.96451 38.8465 28.9572
Co 3.59452 25.2026 27.1391
Pd 25.0171 31.5911 46.73
Pd 8.70733 23.8193 41.6091
Pd 5.25362 32.3789 33.996
Co 13.8982 34.2401 36.4565
Pd 12.5204 39.6073 31.7525
Pd 27.7094 28.5505 22.4417
Pd 32.1057 44.5776 17.0833
Co 11.2198 21.3174 29.4178
Pd 24.7064 42.2572 42.2353
Pd 19.612 33.3399 35.8179
Co 27.573 34.7022 33.5417
Pd 16.9703 20.0452 25.6925
Pd 26.5728 32.513 29.624
Pd 12.2739 41.8301 35.8263
Pd 5.08348 36.0183 25.6883
Co 26.883 25.519 24.4584
Pd 14.1255 37.4543 33.0166
Pd 23.5871 43.494 12.3443
Pd 13.4589 31.143 38.475
Co 10.2007 33.0444 32.8074
Pd 29.9446 33.7544 39.4791
Pd 24.4127 16.2064 27.0158
Pd 24.5188 25.674 20.5271
Co 13.2415 38.8585 18.9731
Pd 14.254 34.9117 31.7959
Pd 35.2107 30.6741 25.664
Pd 19.5924 38.971 43.5789
Co 5.88992 25.9092 26.9269
Pd 8.0104 22.9666 13.3182
Pd 21.8411 48.1233 27.0793
Co 7.63637 31.6321 23.2497
Pd 19.8903 36.7347 22.3694
Pd 12.6979 43.3718 21.5789
Pd 17.9053 11.0889 22.8258
Pd 10.2981 26.9245 33.6638
Co 11.6939 30.4338 10.6005
Pd 8.46165 17.8908 14.8966
Pd 12.01 43.1461 28.7713
Pd 7.81198 27.571 20.5188
Co 6.11092 31.0032 18.3349
Pd 17.5782 40.6737 33.0411
Pd 30.4293 48.0055 29.1302
Co 19.0193 43.87 19.5103
Pd 27.6631 37.3967 14.2686
Pd 20.697 27.0354 14.8405
Pd 24.3636 44.766 22.1451
Co 25.0754 31.0129 10.9218
Co 30.6027 11.8635 25.1031
Pd 13.3104 15.3995 30.2879
Pd 19.3191 16.3304 36.4591
Co 5.80627 19.9101 22.4886
Pd 32.4381 4.08354 31.1088
Pd 22.2708 23.962 23.2037
Pd 18.3285 24.1961 33.0129
Co 9.62714 22.7027 28.3121
Co 15.3167 24.1405 30.2188
Pd 20.6524 6.05308 17.0365
Pd 23.687 10.3253 31.0573
Co 15.5073 8.83849 33.6747
Pd 30.0407 5.36345 24.5675
Pd 8.19743 12.0552 20.1588
Pd 3.72622 24.532 32.2106
Co 29.8346 17.9885 34.2566
Pd 34.9095 10.8467 17.7958
Pd 13.4313 16.2175 23.1065
Pd 8.34822 14.1126 18.1275
Co 12.3864 16.8299 28.1421
Pd 21.3616 11.648 16.9808
Pd 20.059 24.5071 3.5567
Pd 4.10778 24.0649 20.9394
Co 15.005 16.1151 25.1489
Co 13.4821 14.8746 18.8671
Pd 6.92608 19.3262 27.1524
Pd 24.8036 19.7716 10.7716
Co 26.3871 21.3114 17.2537
Pd 21.0357 14.1083 9.63562
Pd 13.3277 28.632 25.1173
Pd 22.7112 37.3032 13.4332
Co 29.2483 13.6844 25.9325
Pd 15.8551 32.3184 39.9822
Pd 16.7717 33.1746 45.4693
Pd 15.7621 18.3409 24.0551
Co 11.8479 29.1547 30.2236
Pd 26.1527 21.1106 6.34875
Pd 28.6708 10.8322 19.8217
Pd 16.0607 26.4099 28.7089
Co 24.8018 17.2812 11.1524
Pd 19.4161 21.4654 26.8592
Pd 18.5036 25.8357 28.0533
Pd 25.3109 25.9125 39.2825
Co 13.5311 10.36 14.2614
Pd 17.0389 29.0583 33.7443
Pd 43.2193 20.428 40.9707
Pd 19.666 16.4806 42.0777
Co 17.4562 27.9833 41.4201
Co 9.62223 18.4085 20.8439
Pd 11.0632 38.0662 17.6761
Pd 34.6569 17.3503 19.5701
Co 17.0055 21.7164 27.5202
Pd 12.283 19.1124 13.8961
Pd 8.9813 22.3524 15.6254
Pd 34.2074 22.2058 15.4186
Co 24.0206 12.7746 30.4905
Pd 28.6298 20.2509 7.32387
Pd 22.7861 9.49318 27.7032
Pd 14.5912 12.3561 38.7767
Co 19.773 20.0124 17.8025
Pd 14.9811 37.7594 38.2938
Pd 28.2233 19.2981 24.8888
Pd 15.3079 26.4985 31.2221
Co 18.1284 21.1408 10.6996
Pd 8.35062 23.3777 19.0807
Pd 11.3546 31.003 36.7089
Pd 20.9265 26.9127 27.583
Co 16.2266 23.9484 28.0023
Pd 20.3349 19.0653 15.4748
Pd 12.9005 20.1972 27.8153
Pd 16.6734 17.3137 35.3132
Co 22.5443 15.3321 36.3418
Pd 9.45313 16.0139 22.0059
Pd 20.1271 17.5326 28.8855
Pd 11.0889 11.661 24.0106
Co 25.3799 21.6453 12.4219
Pd 14.6501 11.2899 27.0153
Pd 14.5122 15.1578 38.2899
Pd 9.83995 25.4355 25.8778
Co 37.2419 22.3272 29.0013
Co 22.7057 40.3062 34.1213
Pd 25.8673 28.7573 12.0038
Pd 15.2952 31.6575 14.2359
Co 12.2101 18.9092 16.6226
Pd 9.63282 24.5556 17.0629
Pd 15.8157 16.1218 10.1379
Pd 14.1416 30.2709 19.1614
Co 27.4505 30.2108 10.5761
Pd 14.5038 25.4848 38.1828
Pd 23.7048 16.2881 15.1848
Pd 4.98549 31.48 16.0835
Co 18.8054 18.8936 19.9184
Pd 9.41006 22.8519 25.8367
Pd 10.1013 19.1944 10.1629
Pd 18.9369 7.59214 30.1271
Co 11.9452 17.2924 30.9992
Pd 24.4679 25.334 25.4394
Pd 12.0542 27.26 13.5134
Pd 17.7874 30.5289 27.7813
Co 26.3923 16.4988 35.2696
Pd 13.0034 26.97 36.3099
Pd 31.6415 4.76836 19.4615
Pd 9.84031 24.9845 39.4595
Co 10.9564 17.9496 35.8977
Pd 13.5258 15.9155 33.0208
Pd 14.7097 40.3132 39.2735
Pd 23.0943 10.0964 14.6644
Co 28.9919 10.8225 26.6499
Pd 4.55305 13.4814 24.5445
Pd 28.1109 21.89 34.1754
Pd 16.2506 43.2951 25.626
Co 7.78445 21.2723 17.7717
Pd 20.9673 13.2941 19.2342
Pd 8.56511 15.9205 24.6316
Pd 19.4022 8.92188 23.8082
Co 13.4847 41.7931 33.1776
Pd 6.32926 38.2818 26.4145
Pd 26.7924 30.342 40.396
Pd 12.6727 38.1779 39.5531
Co 10.5293 25.5101 31.5863
Co 26.7155 27.7727 47.3916
Pd 17.7641 32.8513 15.0321
Pd 29.6348 31.0569 11.5368
Pd 13.143 21.9629 13.5504
Pd 9.55956 12.9328 32.564
Co 11.5392 20.6552 11.9746
Pd 5.35715 30.1152 22.7891
Pd 4.29341 21.4949 20.4479
Pd 19.0367 21.4116 19.8349
Co 13.2609 22.7317 29.4733
Pd 23.275 37.992 20.0588
Pd 19.6142 12.0375 29.0988
Pd 17.0686 28.0374 26.4547
Co 19.038 6.49582 25.156
Pd 22.1802 16.1207 22.9347
Pd 24.653 34.3535 16.4355
Pd 12.2985 12.9658 19.8962
Co 16.8566 35.3899 27.9872
Pd 25.6346 27.992 40.8279
Pd 21.4545 38.6748 41.7746
Pd 15.034 19.3999 34.5153
Co 21.8919 29.2221 4.53157
Pd 14.6596 28.2114 41.8483
Pd 8.09766 15.1942 28.0441
Pd 19.0592 29.7967 40.8941
Co 8.47383 10.6679 22.2238
Pd 27.4898 22.4017 49.9822
Pd 32.0003 18.7129 43.1582
Pd 11.9583 21.5227 25.6899
Co 20.9267 35.5102 13.0056
Pd 5.43382 29.1512 29.8524
Pd 16.7049 11.1175 39.9311
Pd 20.4997 20.5025 39.9358
Co 22.9148 30.5533 42.2056
Pd 31.6913 29.5049 39.5368
Pd 14.9824 27.3762 33.5895
Pd 12.6597 30.9662 34.0295
Co 11.6673 14.3443 32.7876
Pd 9.53478 26.997 37.7409
Pd 5.79889 25.7242 35.8588
Pd 30.3148 46.1289 27.0465
Co 21.4054 32.9413 26.3339
Pd 24.007 27.9448 25.6718
Pd 43.4051 28.1628 34.5516
Co 9.71731 21.0056 38.6314
Pd 14.334 20.2869 25.4978
Pd 6.9789 34.2344 24.5323
Pd 15.9185 20.9654 23.3803
Pd 21.2888 30.1572 12.1517
Co 11.2385 23.7163 15.3813
Pd 10.0291 30.1724 17.3278
Pd 10.1263 14.637 36.7449
Pd 10.4949 15.8296 29.418
Co 12.115 16.6017 13.1208
Pd 6.67178 20.4404 20.0387
Pd 15.1232 30.3829 26.1201
Pd 9.76559 16.8821 37.9294
Co 11.8051 28.9383 18.6179
Pd 10.7907 36.5574 29.0496
Pd 27.5583 28.3688 45.0137
Pd 21.9831 25.1453 29.3807
Co 11.807 19.5212 34.2494
Pd 9.0184 38.2281 24.9211
Pd 11.5391 26.7525 24.427
Pd 20.8354 38.9103 26.7686
Co 12.708 33.3414 32.8371
Pd 18.5761 41.9973 29.3833
Pd 4.43377 18.7829 28.9921
Pd 6.19529 30.1938 14.0422
Co 32.4686 34.4575 25.5868
Pd 19.426 20.3848 22.2305
Pd 25.2936 48.3978 30.7031
Pd 25.4525 27.58 43.5309
Co 24.8765 27.9789 28.9245
Pd 25.4617 20.9872 35.1506
Pd 12.9098 29.2536 27.7399
Pd 19.0188 24.0025 37.5913
Co 23.9932 47.5675 25.805
Pd 14.66 38.3451 30.57
Pd 21.3873 18.3032 43.1842
Co 26.0068 34.9798 40.1976
Pd 14.7082 37.1946 14.1835
Pd 14.8115 34.8353 26.7332
Pd 7.30575 28.7227 31.6842
Pd 5.02112 23.2049 25.6405
Co 4.78602 26.9596 28.8268
Pd 9.94111 20.3625 27.0184
Pd 11.7042 21.2807 15.6687
Pd 10.5067 23.2733 37.5722
Co 16.6213 43.9691 19.3428
Pd 5.64348 28.869 16.4874
Pd 22.3409 43.5349 28.6517
Pd 16.4495 5.54311 19.5172
Co 9.84875 27.6731 17.5877
Pd 19.8429 38.4033 9.92118
Pd 18.1359 22.0105 17.3819
Pd 24.3289 25.5918 16.9863
Co 6.47909 29.9376 34.0499
Pd 13.4007 31.8509 21.208
Pd 15.1343 19.2621 43.5339
Pd 8.34111 39.8737 26.9879
Co 21.3196 32.753 37.6132
Pd 20.0302 40.1777 34.2932
Pd 12.4189 31.0843 8.28176
Pd 16.5596 40.5735 30.4955
Co 20.1002 31.4273 39.274
Pd 9.63295 30.7784 24.7776
Pd 9.98767 31.0112 22.1281
Co 24.4463 47.2073 32.8607
Pd 20.9265 41.51 27.6424
Pd 12.7035 13.7891 36.9625
Pd 11.6015 37.7556 24.8329
Pd 9.8813 14.0766 20.2093
Co 17.5098 42.9007 21.2606
Pd 22.0172 29.0046 34.0973
Pd 18.5907 41.4644 39.5818
Pd 15.0801 33.0433 16.5512
Co 38.3802 43.2209 24.0427
Pd 11.8491 31.3468 31.4962
Pd 14.5649 32.7188 24.9538
Pd 26.5664 20.9024 19.7749
Co 18.3978 41.6534 23.1668
Pd 37.7242 40.3332 39.7548
Pd 20.5234 32.5091 21.4779
Pd 25.0975 23.5707 35.1051
Co 26.2688 32.0031 25.3546
Pd 28.7348 42.0887 41.6023
Pd 11.4303 34.6422 30.8863
Co 17.0812 32.633 24.4466
Pd 37.8663 35.5 21.0365
Pd 9.51874 29.5261 20.0134
Pd 12.7404 29.1733 40.4075
Pd 19.5854 36.7176 19.3428
Co 9.35904 36.6216 18.8841
Pd 30.3681 43.7035 36.3831
Pd 15.7999 45.3599 34.3111
Pd 22.8161 34.3695 28.0391
Co 21.8673 34.585 41.8922
Pd 24.6073 33.3833 9.96109
Pd 15.8194 34.6507 14.1269
Co 7.95906 24.3215 27.4709
Pd 30.6949 23.8533 30.139
Pd 9.12396 28.11 24.7544
Pd 24.6553 32.1338 19.7472
Co 18.1714 32.3908 43.2669
Pd 20.4764 5.39798 29.9253
Pd 26.3483 9.28063 35.0829
Co 32.357 28.2053 42.0026
Pd 21.1024 10.5203 39.641
Pd 11.667 24.0467 24.5047
Pd 38.8393 12.4314 26.5684
Co 22.0424 8.30437 35.2026
Co 20.3737 7.47529 33.6822
Pd 17.6985 34.8663 25.647
Pd 42.1599 27.774 27.7558
Co 17.0874 16.8743 12.1489
Pd 13.6426 26.3757 15.6227
Pd 23.7736 29.4872 30.9889
Pd 19.2961 9.29564 21.0612
Co 5.79167 31.1075 36.139
Pd 22.3715 15.4912 7.70521
Pd 31.8668 13.8535 26.4078
Pd 19.8798 14.7672 25.5301
Co 24.1336 36.1359 36.047
Pd 10.1577 17.2987 17.672
Pd 11.483 13.3665 30.3846
Pd 10.5233 9.31082 22.6589
Co 22.3202 11.7343 28.9685
Co 31.9117 10.2358 23.7375
Pd 13.8258 33.2485 12.4029
Pd 34.2178 7.00326 27.633
Co 21.2201 7.68521 28.7184
Pd 30.3183 11.1533 21.9714
Pd 26.4707 23.16 21.1783
Pd 21.5832 14.2472 16.7406
Co 12.1255 18.2733 11.4181
Pd 22.0321 21.4881 22.2214
Pd 24.985 14.5506 19.9756
Pd 24.9586 20.4229 37.9231
Co 37.5792 20.6518 17.7621
Pd 35.2876 25.3193 5.85431
Pd 12.6863 10.702 18.3761
Pd 28.9783 20.1026 43.489
Co 12.5651 20.0393 9.80055
Pd 22.1174 12.054 13.3292
Pd 18.4099 13.4394 23.8802
Pd 34.1245 20.9245 10.6163
Co 20.8978 13.9079 37.3833
Pd 26.3886 5.36612 23.5902
Pd 7.34218 12.6533 28.2402
Pd 11.8693 15.5346 35.142
Co 27.7364 13.4524 16.1989
Co 19.507 31.0821 36.9521
Pd 7.04637 25.8232 29.2978
Pd 27.9972 33.4679 4.37833
Co 17.2045 39.2457 17.1598
Pd 17.8281 20.1686 15.3952
Pd 29.6389 4.77787 17.6509
Pd 18.6733 12.4625 10.354
Co 36.6515 12.8815 31.0239
Pd 28.3284 13.1379 44.1755
Pd 12.9184 7.73483 29.9875
Pd 11.3163 16.3682 19.9417
Co 27.6912 9.81561 14.3261
Pd 16.635 12.3323 25.4981
Pd 21.7334 31.339 35.4447
Pd 28.9035 19.9918 10.1008
Co 32.3684 13.2223 10.2735
Pd 21.2319 38.8633 24.0829
Pd 27.035 14.7669 26.8383
Pd 28.7535 16.2713 24.8468
Co 20.4465 14.0771 32.4889
Pd 40.4215 24.4983 36.3307
Pd 16.1252 6.21106 22.1026
Pd 12.6691 15.7626 25.8183
Co 29.6762 30.5063 32.4347
Pd 14.2557 22.4194 27.1603
Pd 5.30029 16.0591 24.6543
Pd 22.7201 20.14 45.041
Co 20.4565 46.0076 34.2864
Pd 7.26046 24.8441 25.1218
Pd 15.3628 29.6903 39.812
Pd 35.7369 14.8005 20.0239
Co 28.2358 24.2426 42.2651
Co 15.0645 17.0971 42.0479
Pd 6.90006 18.8267 30.2429
Pd 18.6192 23.9901 5.94208
Co 25.0186 22.2462 9.99853
Pd 28.2969 11.4806 9.747
Pd 22.2561 3.39023 24.3604
Pd 19.0444 13.0987 17.2903
Co 20.3037 27.9015 5.82882
Pd 10.2372 21.8618 23.6647
Pd 23.9794 19.2939 6.15421
Pd 19.9541 41.1362 11.2509
Co 18.2902 24.2454 24.0843
Pd 20.7032 3.86002 21.1291
Pd 35.8942 11.1378 35.155
Pd 9.3036 15.3967 15.9593
Co 18.5112 6.74931 22.9056
Pd 25.9762 12.0563 14.4092
Pd 15.6889 32.796 37.4636
Pd 20.9682 22.6595 6.38188
Co 16.5151 14.3957 12.046
Pd 27.6256 11.5759 12.2669
Pd 13.1472 19.6561 36.4662
Pd 20.3314 10.5414 14.8082
Co 26.5064 14.6099 17.9336
Pd 12.9218 24.0568 36.6231
Pd 22.6558 24.5664 34.6462
Pd 23.5682 10.245 17.3698
Co 19.0944 11.8193 31.5454
Pd 22.0408 21.3368 26.8573
Pd 16.9951 20.3934 35.8029
Pd 15.9927 14.9095 30.4513
Co 8.35179 22.9347 39.2249
Pd 28.9813 5.45947 34.9513
Pd 32.1816 37.0634 27.0403
Pd 13.2924 20.3629 30.5331
Co 21.0311 22.783 35.971
Pd 14.7857 24.122 41.0511
Pd 16.8598 38.1492 31.8946
Pd 17.932 46.7243 27.7304
Co 27.9245 24.1057 47.8807
Co 10.0692 32.6052 30.3651
Pd 27.0661 25.132 6.81085
Pd 38.4187 42.293 17.317
Co 41.6939 31.8544 21.7968
Pd 15.4492 34.1635 10.1291
Pd 19.2204 7.85279 15.4913
Pd 17.2823 13.9533 15.4349
Co 12.8775 12.1559 22.3314
Pd 16.0778 18.8717 13.7277
Pd 14.9863 25.2805 35.4576
Pd 17.9816 12.304 12.9917
Co 20.3671 33.8472 14.7759
Pd 27.7325 18.3383 20.5399
Pd 3.767 27.6423 17.9751
Pd 26.2554 9.99089 20.9166
Co 23.5246 28.1801 8.30655
Pd 8.99137 26.5227 41.7206
Pd 8.08581 25.1092 14.7528
Pd 6.77201 32.8323 14.4525
Co 4.49876 29.776 25.4523
Pd 18.9075 21.9895 34.8999
Pd 21.555 15.7266 34.0622
Pd 28.5535 28.2537 11.9447
Co 11.9652 10.8826 16.03
Pd 16.542 17.8636 16.1365
Pd 29.7973 22.5138 46.2527
Pd 6.86131 27.6297 14.2805
Co 24.016 22.245 39.3591
Pd 25.5415 32.4456 39.2967
Pd 10.9506 19.6162 18.9621
Pd 30.9031 20.5264 47.7486
Co 24.8 5.6815 21.6824
Pd 9.0417 30.755 31.9398
Pd 17.6357 18.5293 37.5428
Pd 13.9012 27.6817 44.3057
Co 26.2582 25.7685 35.4119
Pd 15.8944 26.5705 40.1064
Pd 16.5908 22.4549 5.28967
Pd 20.7322 36.2867 43.4915
Co 34.8161 31.6294 41.5343
Pd 9.36783 29.6578 38.0394
Pd 31.4812 28.4356 26.999
Pd 21.0253 28.8142 31.7101
Co 18.1378 25.5698 41.6206
Pd 33.4789 18.1783 28.1113
Pd 11.8687 7.78876 24.4824
Pd 14.1242 36.22 40.3281
Co 17.7269 19.9987 39.731
Co 36.3825 20.9836 43.6264
Pd 17.7942 28.4065 5.67111
Pd 37.1016 25.6526 37.4589
Pd 18.6535 25.9284 16.8204
Co 37.3322 17.7924 14.6439
Pd 19.4936 28.8908 26.5541
Pd 31.5165 31.4468 9.43732
Pd 11.4165 35.4101 39.5131
Co 14.7316 35.6318 16.1802
Pd 20.09 24.1284 30.9144
Pd 13.8821 17.3668 15.1244
Pd 12.7231 30.7898 17.0415
Co 3.95319 27.4734 26.3588
Pd 11.4293 34.0002 28.2264
Pd 17.378 30.1757 14.351
Pd 4.52462 18.8876 20.3744
Co 10.2783 24.7464 13.38
Pd 26.9295 34.5194 48.2865
Pd 25.2248 31.7754 32.396
Pd 15.778 24.6433 32.9232
Co 33.5945 28.7925 13.1738
Pd 21.9494 5.50101 19.3876
Pd 17.4137 26.2087 19.2436
Pd 18.522 37.0487 27.1915
Co 20.5971 17.9388 33.1922
Pd 25.1118 28.9694 45.8121
Pd 17.7981 26.9458 32.1883
Pd 13.778 33.7788 39.336
Co 17.0021 34.7516 16.5167
Pd 30.3461 21.9563 32.6252
Pd 22.4173 29.1872 27.4622
Pd 28.9898 15.9611 35.4973
Co 15.3528 10.1431 31.6612
Pd 23.3652 39.7841 14.3053
Pd 8.22704 36.938 30.2008
Pd 30.7194 30.6583 25.4463
Co 22.0939 22.7107 40.8795
Pd 22.3031 35.0983 37.8676
Pd 26.9996 25.7733 21.7602
Pd 15.0919 37.2431 28.0259
Co 20.0625 37.7812 29.0703
Pd 4.61847 19.9752 31.2923
Pd 21.4817 26.7097 39.3216
Pd 13.4812 16.472 40.267
Co 16.0978 34.5955 41.006
Pd 27.2277 29.9771 33.0332
Pd 21.4719 26.7239 43.6833
Pd 27.6868 19.122 35.1308
Co 7.59786 36.3079 25.784
Pd 16.1353 21.4872 44.8595
Co 21.335 18.1546 45.7697
Pd 25.7442 46.0901 26.898
Pd 28.5947 36.5257 28.5967
Pd 15.523 32.5642 42.8941
Pd 4.77898 34.6716 23.2714
Co 15.5106 41.9138 20.2208
Pd 12.1979 22.799 22.0764
Pd 27.4857 26.9414 4.93092
Pd 4.39984 24.9508 18.2394
Co 17.5885 30.4389 25.3061
Pd 14.5593 18.8048 21.7376
Pd 18.9185 17.0217 26.3445
Pd 12.62 29.2137 6.13558
Co 11.6435 28.4589 16.0617
Pd 8.05377 26.0871 32.009
Pd 16.1992 16.0128 14.2881
Pd 9.69069 38.9212 29.3935
Co 21.1838 27.3454 8.04449
Pd 4.5946 28.8273 32.3766
Pd 5.34127 26.2389 15.9544
Pd 22.7696 27.0581 18.9539
Co 13.5461 11.2583 30.5973
Pd 25.6629 18.6939 23.5239
Pd 3.64621 29.5174 27.8766
Pd 14.7472 39.41 21.4956
Co 27.6399 7.68553 28.2911
Pd 30.9871 42.8249 31.4773
Pd 22.4023 27.7292 29.7018
Pd 24.109 13.5713 37.4929
Co 21.87 46.0599 36.4502
Pd 19.0892 37.2364 45.3887
Pd 26.786 35.907 16.4181
Pd 19.234 26.2041 25.5893
Co 13.2324 35.9863 37.9316
Pd 39.5703 37.984 41.1022
Pd 20.9068 44.7523 14.9337
Pd 41.096 19.3707 35.7252
Co 20.6661 22.7429 47.4975
Pd 20.6731 34.0561 18.9814
Pd 17.0153 15.6859 41.0259
Pd 23.2251 37.242 43.1064
Co 28.195 28.4406 31.2341
Pd 18.4059 23.5171 48.2492
Pd 30.5909 40.0594 35.2974
Co 17.0462 41.3392 37.3459
Pd 18.1562 17.2157 9.23222
Pd 10.9335 30.9201 15.0528
Pd 29.6189 42.7662 17.0977
Pd 21.0121 41.2469 22.7594
Co 10.0339 20.1988 14.1437
Pd 5.49525 26.5664 31.3107
Pd 22.1438 29.0118 48.7571
Pd 6.98988 29.8879 25.0394
Co 7.54008 22.6379 29.2879
Pd 8.21623 30.4136 35.8651
Pd 16.5308 25.4705 25.9902
Pd 8.27884 20.4634 22.2802
Co 13.3149 30.7142 12.4565
Pd 35.1778 25.7 47.381
Pd 19.433 35.1005 16.9338
Pd 41.499 29.0231 14.7131
Co 9.27935 24.3324 23.5296
Pd 29.2132 24.3563 32.3059
Pd 22.5429 31.7028 48.2416
Pd 27.4349 27.5865 9.59764
Co 29.6484 37.4794 26.3196
Pd 29.8486 44.6044 33.8569
Pd 31.8899 39.4495 18.9377
Pd 10.8553 38.8827 27.0392
Co 16.0609 31.7811 10.0462
Pd 41.8214 36.7756 36.3313
Pd 18.5141 35.6674 14.4069
Pd 23.102 27.6692 41.5206
Co 21.943 42.3187 32.775
Pd 20.5822 31.8602 41.9579
Pd 10.2128 37.6954 31.718
Pd 34.0212 27.7375 19.2774
Co 13.7499 38.7822 26.4734
Pd 25.3502 27.2972 23.1504
Pd 4.77405 17.7887 26.5388
Co 22.2234 10.6599 35.1329
Pd 16.1166 29.123 31.1278
Pd 20.1181 27.5017 21.749
Pd 17.2819 38.2341 29.2171
Pd 8.35518 30.8041 40.1096
Co 15.7849 30.408 12.0955
Pd 9.70319 25.7398 28.62
Pd 9.30974 33.4399 23.4166
Pd 28.0255 39.2183 16.2944
Co 8.76025 28.9607 33.7448
Pd 31.5106 39.3123 25.8649
Pd 17.1539 46.8134 24.8792
Pd 16.6137 18.933 10.7943
Co 13.8264 16.4831 20.6075
Pd 29.5111 30.1854 45.1392
Pd 32.4849 39.4954 8.46934
Pd 21.6897 19.0793 31.0738
Co 11.2672 24.194 9.18103
Pd 21.2829 44.6586 38.6324
Pd 19.7644 43.6188 33.7595
Pd 27.9047 39.145 27.237
Co 7.88877 26.9377 16.455
Pd 16.1998 42.5763 39.2543
Pd 31.0868 46.9776 16.5314
Pd 18.325 34.3491 23.0407
Co 36.6617 29.5015 23.0989
Pd 25.4845 47.429 21.7147
Pd 11.202 42.4778 23.7476
Co 21.9152 25.5136 25.6411
Pd 3.3225 22.586 27.9265
Pd 28.2684 41.9752 26.4606
Pd 25.5776 43.1157 31.3202
Pd 18.6536 35.706 29.7104
Co 8.85723 18.174 23.1762
Pd 26.1615 42.423 18.9688
Pd 34.7939 45.3536 31.8687
Pd 26.325 43.6439 25.8222
Co 28.4971 35.7957 18.4362
Pd 28.9026 43.4748 22.0569
Pd 20.7651 19.7919 12.9845
Pd 36.7325 41.3396 37.39
Co 16.9704 34.5389 43.2321
Pd 26.0665 37.408 28.851
Pd 7.79313 39.1499 31.4872
Pd 27.9297 43.9469 15.1643
Co 27.5658 31.4953 15.5169
Pd 9.60891 38.7966 20.2154
Pd 15.7897 41.3305 34.8534
Co 18.3438 22.4793 44.2314
Pd 7.55006 30.6708 16.1683
Pd 32.9256 31.974 24.7974
Pd 19.7101 28.8197 38.4631
Pd 25.9854 42.8193 21.4741
Co 13.6835 21.9054 10.8176
Pd 26.8107 39.3065 7.73793
Pd 29.7207 34.3147 42.2179
Pd 12.5787 37.1095 15.7172
Co 18.0804 35.6573 32.1548
Pd 27.1213 36.7182 26.2465
Pd 28.3737 42.1565 31.4351
Co 15.3933 33.8598 29.2448
Pd 25.3757 43.0477 14.3535
Pd 33.8638 43.0858 40.5108
Pd 11.6352 35.5956 35.9457
Pd 35.0725 7.59409 23.6663
Pd 14.6158 6.19679 25.8143
Co 35.2043 17.5845 15.8061
Pd 27.0543 15.9329 10.0431
Pd 17.946 8.53093 26.0801
Pd 42.1205 12.8468 22.2595
Co 34.0124 18.1821 6.62296
Pd 17.0046 13.1847 28.5443
Pd 16.1341 15.5743 33.1671
Pd 15.4084 7.26566 17.7933
Co 14.4823 22.4732 31.7111
Pd 30.7554 4.57119 33.1255
Pd 28.6529 15.6837 17.3008
Pd 23.9849 16.6194 21.2696
Co 24.1347 19.7674 31.697
Co 23.5304 19.5368 36.0014
Pd 37.2968 34.6835 11.4355
Pd 27.0917 32.8059 11.0825
Co 26.0253 9.25012 37.5382
Pd 32.2557 30.0837 11.5039
Pd 29.7512 4.50563 30.4657
Pd 20.4412 20.1462 29.0084
Co 38.3462 21.1025 15.5286
Pd 25.6734 3.53871 25.2805
Pd 25.5546 12.2624 17.1284
Pd 30.19 14.1034 15.7777
Co 31.2065 30.4564 30.3695
Pd 8.20531 23.3416 32.8596
Pd 25.7683 16.3798 13.3753
Pd 23.4023 3.62054 20.6095
Co 22.72 7.24049 33.145
Pd 26.9596 24.0654 40.1574
Pd 9.09667 13.3226 22.7008
Pd 39.8904 11.895 15.4614
Co 26.6943 12.2101 34.2662
Pd 29.2582 15.3329 32.8885
Pd 11.1698 25.0952 41.7092
Pd 18.6589 17.7066 39.9038
Co 40.007 11.2546 18.0259
Co 28.2775 11.0475 32.2252
Pd 31.7871 27.4843 11.468
Pd 14.302 20.2221 15.1523
Co 23.0769 35.5961 7.263
Pd 20.4495 6.62331 21.3376
Pd 22.6778 14.0424 21.2629
Pd 5.83724 31.1259 27.4008
Co 30.0592 9.68224 15.4725
Pd 21.138 8.50835 13.4906
Pd 9.41102 23.6863 11.2092
Pd 22.7845 24.2225 18.7126
Co 29.4221 17.6333 18.7195
Pd 23.1821 18.1329 38.0945
Pd 34.5033 23.4798 9.94189
Pd 22.957 27.1203 32.3797
Co 21.0097 27.0081 3.72897
Pd 43.363 18.5685 34.4801
Pd 23.0286 14.2858 32.45
Pd 20.6578 8.30081 26.223
Co 19.0375 30.1639 21.3826
Pd 23.9127 5.13614 33.6123
Pd 19.383 26.8542 36.6742
Pd 10.2399 21.4138 33.4563
Co 37.9148 18.4808 16.7894
Pd 13.9118 23.2182 15.9423
Pd 14.5266 17.2339 12.4011
Pd 41.5259 20.2677 43.1228
Co 8.87123 16.771 35.5647
Pd 22.2241 24.9577 12.4168
Pd 17.3902 10.7065 27.4957
Pd 13.5006 21.3635 40.4123
Co 27.9412 29.6182 8.13482
Co 14.2375 28.0207 38.3702
Pd 9.24904 19.0113 34.3335
Pd 22.7679 37.9079 8.56891
Co 23.0536 22.6331 11.4045
Pd 33.5293 24.6319 7.75473
Pd 35.8901 8.38931 25.9898
Pd 16.1634 28.2205 7.57532
Co 13.1965 13.8876 24.0949
Pd 14.2896 35.7811 11.9074
Pd 16.6323 25.7501 6.17214
Pd 33.0067 30.6906 7.42303
Co 21.0535 15.7179 11.6712
Pd 26.6168 6.19135 33.84
Pd 14.9517 16.5209 17.7337
Pd 40.4892 14.4811 15.0843
Co 10.195 26.4248 8.79042
Pd 13.437 18.5516 32.5357
Pd 17.932 32.5254 21.0865
Pd 27.7863 19.7304 30.1374
Co 8.82991 32.7135 15.9601
Pd 18.6315 23.0996 28.9527
Pd 16.6511 18.4185 30.0042
Pd 12.8448 7.69958 27.1417
Co 18.3045 16.537 19.8342
Pd 17.3642 16.1877 24.2939
Pd 21.0629 20.2927 35.7052
Pd 24.7541 30.4286 28.4994
Co 18.0584 7.10968 20.5127
Pd 29.9519 9.08333 32.7039
Pd 7.44908 22.5401 23.8678
Pd 6.65344 26.8604 37.9794
Co 11.5576 18.3828 26.4153
Pd 33.349 22.8891 23.8997
Pd 27.4687 21.6866 47.4641
Pd 5.2903 32.1092 24.6246
Co 23.8784 25.7248 43.0495
Pd 33.507 13.5374 35.7264
Pd 22.747 19.2102 33.7099
Pd 10.5942 14.1406 24.8388
Co 18.6446 29.2415 31.7092
Co 8.36015 20.378 24.9369
Pd 16.6535 13.7698 9.43939
Pd 23.369 34.368 18.8672
Co 18.5975 15.1238 10.7563
Pd 9.81025 28.3898 10.6789
Pd 29.8241 26.1024 12.9366
Pd 14.3726 28.3645 12.621
Co 11.0359 29.2931 32.7602
Pd 34.1104 35.4694 6.45333
Pd 9.75278 15.7459 13.4495
Pd 20.8774 25.3731 5.89383
Co 38.9219 33.9046 7.28436
Pd 22.4839 23.3436 16.1006
Pd 21.9534 6.44498 14.8292
Pd 30.206 20.8331 26.2319
Co 20.0368 18.7109 7.75989
Pd 23.043 18.9941 22.3504
Pd 13.1494 24.7075 31.4967
Pd 13.8936 6.43972 23.3452
Co 6.01134 18.0809 18.6549
Pd 17.5965 8.84311 18.7427
Pd 23.1866 28.0838 21.3295
Pd 28.1465 19.9565 4.7788
Co 23.028 15.9747 10.0896
Pd 33.6324 14.8906 33.3834
Pd 23.2818 37.1372 28.5596
Pd 26.3628 3.10081 27.6806
Co 14.9349 17.8039 37.0494
Pd 18.7773 34.7031 45.0408
Pd 21.414 30.9962 44.3841
Pd 6.28076 38.8895 21.7964
Co 13.4826 24.9207 22.7837
Pd 31.287 9.19074 30.3814
Pd 38.0978 23.9657 12.0236
Pd 23.9305 27.1129 34.8607
Co 9.3836 23.1173 35.2465
Pd 9.58266 19.7257 16.5276
Pd 13.1633 8.07706 19.0332
Pd 35.1643 18.018 40.844
Co 15.0519 39.9971 32.5664
Pd 6.16766 14.4388 29.8938
Pd 32.4118 6.00215 36.4003
Pd 4.11092 22.415 30.5539
Co 13.4644 34.1442 23.0938
Pd 6.39282 19.221 32.9456
Pd 31.7693 12.0815 40.8186
Pd 16.8901 13.6849 39.2643
Co 23.43 11.2381 40.7101
Co 22.7542 16.3015 42.4738
Pd 6.98577 14.0631 24.104
Pd 43.7179 37.0373 15.7015
Pd 22.938 9.84678 11.9537
Co 24.7237 32.182 14.9886
Pd 27.9867 11.0268 17.1303
Pd 19.3904 17.4974 11.7658
Pd 19.863 26.0407 9.80157
Co 25.698 23.4621 5.62695
Pd 30.0047 9.87846 41.2376
Pd 6.19477 20.6761 36.4408
Pd 21.9834 31.9305 19.3101
Co 23.7653 35.7675 9.53898
Pd 27.8315 34.1811 8.90537
Pd 36.4913 35.0564 14.0176
Pd 32.0014 6.16221 26.0304
Co 11.8735 26.8929 6.93876
Pd 22.3949 21.7198 31.6115
Pd 15.4916 12.865 13.9568
Pd 11.192 23.9155 29.8671
Co 25.5855 17.7531 38.795
Pd 31.2269 26.0955 28.453
Pd 16.8441 13.0623 21.3197
Pd 10.7713 9.39072 27.8601
Co 42.3292 30.5447 19.7619
Pd 12.2648 31.1495 25.9831
Pd 12.8706 39.7618 37.4714
Pd 36.1386 21.0126 8.79949
Co 20.1998 28.9771 29.0869
Pd 27.5564 36.7917 31.5781
Pd 30.3968 37.9946 33.4529
Pd 26.2721 16.9446 16.3257
Co 33.4278 17.746 23.8295
Pd 25.2155 8.32884 27.6713
Pd 19.3146 31.6501 23.6999
Pd 33.8676 26.2343 28.5658
Co 17.0282 8.29744 31.8368
Pd 16.7459 23.6249 46.2216
Pd 36.9211 28.6581 27.5257
Pd 10.2292 20.6088 36.1612
Co 15.0942 30.4156 34.4335
Pd 23.6323 34.1736 39.9012
Pd 16.6969 12.9003 41.919
Pd 34.3446 23.2448 47.6524