4033
Atoms. Timestep: 21291
Co 23.3254 43.9543 33.1532
Pd 18.8224 24.2185 23.1372
Pd 19.9033 11.6555 15.4693
Co 19.7333 44.0706 36.9199
Pd 18.7078 40.9972 40.0422
Pd 23.9155 18.7581 32.3324
Pd 28.1732 3.34228 30.3735
Co 18.3532 22.5725 30.4861
Co 23.1542 27.5354 27.2165
Pd 9.6847 35.7083 11.9076
Pd 17.2576 34.6023 20.1151
Co 13.591 22.477 44.2427
Pd 12.1138 22.3689 29.7151
Pd 29.5419 30.7158 8.02399
Pd 24.6508 31.3633 40.8559
Co 8.60831 31.9881 32.8755
Pd 8.11349 21.5651 27.0721
Pd 27.8728 31.3404 46.6804
Pd 40.4919 25.8554 15.1018
Co 8.31814 32.6496 20.5059
Pd 12.436 30.2868 33.0566
Pd 33.1702 12.496 33.302
Pd 18.7292 6.19725 31.5449
Co 8.6579 27.6785 22.2337
Co 9.06417 26.8675 37.2573
Pd 20.4189 24.8885 12.1013
Pd 14.5158 16.1471 30.0541
Co 40.8811 25.5301 10.7054
Pd 11.3455 29.177 35.1942
Pd 20.5429 17.3441 6.79547
Pd 15.5393 5.21576 27.7945
Co 15.0509 17.4689 23.9263
Pd 6.29431 14.748 24.0136
Pd 17.8897 30.6535 41.8691
Pd 23.8528 29.1956 46.5737
Co 6.96776 15.7034 30.1078
Pd 37.6162 26.7037 29.26
Pd 19.969 27.0451 37.1375
Pd 31.5455 28.4573 33.3343
Co 26.6469 20.0494 36.2839
Pd 24.4282 36.4689 44.1696
Pd 12.0211 25.1905 20.2862
Pd 16.7121 26.0685 46.4215
Co 14.3153 26.9785 28.1795
Pd 25.0233 6.9215 32.6155
Pd 22.7363 36.2519 46.0738
Pd 15.7605 32.02 35.6062
Co 7.00646 21.8279 29.6408
Co 17.6116 31.9199 37.4243
Pd 12.1312 17.2543 13.0097
Pd 13.0284 24.5929 43.0286
Pd 19.9002 23.3266 14.3287
Pd 16.3265 6.71927 22.5671
Co 26.977 37.0801 43.8003
Pd 7.09451 16.9353 34.2223
Pd 24.2003 22.3955 14.757
Pd 12.8199 13.6258 27.3374
Co 14.9935 24.5352 28.1552
Pd 18.106 36.133 30.0403
Pd 7.39995 33.3149 18.0406
Pd 6.49595 35.3924 30.3943
Co 33.2494 37.3013 17.602
Pd 19.4347 5.73424 16.9858
Pd 12.9853 31.723 35.545
Pd 26.8461 47.9116 20.4092
Co 7.17647 18.7514 22.0036
Pd 13.8539 22.3139 41.4429
Pd 29.1281 35.8852 44.08
Pd 6.15808 28.5512 33.3439
Co 15.9216 22.3988 21.699
Pd 11.1725 42.0393 25.8458
Pd 16.0292 44.5919 31.4765
Pd 10.9233 33.5051 36.0567
Co 35.308 40.1033 29.8684
Pd 21.3102 19.9683 35.8965
Pd 21.7693 45.3014 14.7165
Co 14.0215 25.5884 35.5741
Pd 21.7056 16.7157 31.5887
Pd 7.60692 12.3741 29.2571
Pd 4.26921 30.71 28.6171
Pd 26.554 12.9351 30.4504
Co 8.49202 15.0348 25.7143
Pd 30.4719 46.4496 35.0689
Pd 7.50596 24.9016 14.0475
Pd 12.6822 45.4418 28.7157
Co 19.6357 33.9805 23.717
Pd 24.5187 34.2665 45.7192
Pd 9.55086 25.1438 32.8243
Pd 24.7445 14.3649 34.1573
Co 21.5563 7.65318 16.8568
Pd 15.5745 14.8089 34.4592
Pd 10.2923 19.3708 17.8403
Pd 9.64427 27.1105 34.7031
Co 41.5829 41.7882 32.0094
Pd 18.632 38.8556 34.7363
Pd 27.9624 33.9023 29.2915
Co 21.3806 31.0111 20.426
Pd 27.5316 32.6268 19.0827
Pd 19.0887 32.9854 21.4037
Pd 7.38297 27.7241 29.7814
Pd 12.7363 17.9704 42.0093
Co 25.3726 18.222 10.474
Pd 14.5652 30.1056 29.3333
Pd 9.65919 25.709 17.332
Pd 19.65 44.3132 34.3574
Co 8.01973 23.6842 34.2406
Pd 4.5414 32.8041 26.884
Pd 12.9017 28.6953 22.9029
Co 6.12884 31.7887 19.6665
Pd 14.7555 29.1224 39.2331
Pd 11.0005 25.2333 38.2515
Pd 28.1173 17.845 13.2705
Co 8.25953 24.117 26.364
Co 11.9206 13.5848 18.3361
Pd 20.398 6.51228 14.7181
Pd 11.1236 36.6702 19.1254
Co 15.984 19.0467 39.4998
Pd 10.6902 22.9321 17.5437
Pd 22.1153 23.0289 12.9642
Pd 21.323 16.6235 20.2778
Co 9.9018 13.9452 21.6405
Co 34.0752 12.2021 11.0566
Pd 13.0236 15.0091 32.1028
Pd 16.5554 20.4609 20.1156
Co 24.2634 11.8916 34.2056
Pd 18.8276 20.6321 18.8907
Pd 19.0882 18.3901 35.2299
Pd 36.2237 22.4036 17.254
Co 17.0783 38.3677 14.4015
Pd 35.5601 14.3975 29.6387
Pd 34.0468 28.1021 48.8092
Pd 33.1057 16.5388 8.85144
Co 21.6583 13.374 25.7308
Pd 21.3496 12.2842 38.0208
Pd 5.86111 20.7854 25.5368
Pd 18.163 21.1386 46.3469
Co 13.6791 13.571 30.0589
Co 22.3088 13.2427 34.8145
Pd 36.907 13.7254 27.5832
Pd 11.1729 19.8543 13.1404
Co 7.50508 10.8561 27.174
Pd 24.1802 20.4491 25.5148
Pd 23.4574 9.486 13.9233
Pd 21.6737 17.4061 4.50901
Co 24.7972 8.58243 30.4579
Pd 16.3221 15.9758 12.5021
Pd 28.0736 7.54305 12.8186
Pd 4.75989 16.0614 28.1467
Co 11.1202 30.6966 15.7799
Pd 20.7518 26.7679 34.3933
Pd 10.6449 20.6132 35.4429
Pd 10.6075 22.9075 34.1599
Co 8.39282 15.8447 32.1227
Pd 13.4773 27.3494 30.7666
Pd 16.9269 12.1829 38.9267
Pd 20.2386 29.7402 40.8202
Co 6.75234 17.6165 31.6627
Pd 30.6837 30.2181 31.2576
Pd 10.2499 24.0853 30.4249
Pd 37.3193 10.7596 18.8049
Co 10.1006 30.2225 31.9951
Co 26.8513 9.27695 40.5468
Pd 31.127 11.5529 12.0547
Pd 16.6465 8.72688 14.761
Co 8.65561 19.4146 28.5911
Pd 7.03016 33.8243 33.9119
Pd 9.98477 17.4083 25.6332
Pd 17.5989 6.89706 27.2031
Co 14.2287 20.8498 29.3144
Pd 26.84 23.3197 11.293
Pd 12.2177 41.5946 33.9783
Pd 13.821 15.6993 22.6009
Co 6.12878 18.6587 24.1804
Pd 38.8891 16.7301 11.3557
Pd 22.6951 15.8827 34.7497
Pd 32.2994 17.2815 20.7443
Co 7.33845 27.7095 35.5206
Pd 14.3341 6.43582 31.3722
Pd 6.86521 36.6305 23.6326
Pd 6.3927 28.2096 25.43
Co 18.9017 24.852 37.945
Pd 20.3187 32.5574 42.0393
Pd 29.8265 26.2841 41.3037
Pd 18.7873 26.296 16.8872
Co 20.2036 36.2324 31.367
Pd 16.8521 11.0007 25.6126
Pd 27.1874 39.7494 41.0907
Pd 17.0872 19.6363 44.488
Co 33.2158 20.4724 27.968
Pd 28.8809 16.2895 42.7226
Pd 7.81859 39.7314 27.5017
Pd 13.5975 31.0555 25.4847
Co 18.6236 45.197 17.9611
Co 12.3473 20.3361 40.5829
Pd 14.5463 33.9095 26.8007
Pd 35.2031 10.9928 34.2897
Pd 21.0319 20.8056 29.5504
Pd 18.65 9.77729 31.1885
Co 19.2101 26.288 27.13
Pd 25.3735 9.55218 25.1932
Pd 8.28068 30.6911 18.6362
Pd 21.3231 12.9596 17.2202
Co 15.8914 25.6266 16.1865
Pd 11.8436 13.308 13.397
Pd 13.1445 27.2369 16.668
Pd 16.4624 8.89867 23.936
Co 4.9053 31.2455 31.2364
Pd 12.9211 34.2093 30.1335
Pd 5.65517 28.4045 27.9468
Pd 11.9937 29.5357 11.9695
Co 17.7416 36.0021 13.9112
Pd 14.6182 42.7762 27.9464
Pd 11.1097 27.9818 32.566
Pd 14.2929 37.0495 34.7013
Co 28.0714 17.5067 26.4298
Pd 3.71495 29.2475 26.4706
Pd 12.4144 39.2442 35.5449
Pd 21.0533 46.2017 36.1205
Co 10.496 15.1378 19.4965
Pd 25.2449 17.0809 34.6231
Pd 9.33226 40.5825 18.5049
Pd 15.9101 28.6757 45.7811
Co 26.7087 41.9627 42.1999
Pd 35.6471 41.762 40.8609
Pd 32.6194 10.4818 34.877
Pd 13.7559 35.739 42.3992
Co 12.0542 38.4813 28.3514
Pd 11.8527 25.3353 34.1134
Pd 6.24397 21.888 34.5613
Co 18.9142 36.3351 37.0309
Pd 20.1862 42.3989 30.9888
Pd 23.3415 34.3667 17.9331
Pd 13.4551 28.9186 41.6349
Pd 6.44801 31.1742 16.8196
Co 18.0261 38.8935 23.8384
Pd 5.70377 23.8776 30.4078
Pd 23.8599 31.0495 33.6763
Pd 10.9251 22.484 12.9898
Co 10.585 27.2839 23.7954
Pd 12.8256 17.8428 31.2748
Pd 15.2042 35.8322 30.3963
Pd 23.3631 27.4964 11.0561
Co 13.4126 35.9631 19.7865
Pd 22.6838 33.1158 31.8885
Pd 16.083 28.9005 27.2506
Pd 5.4967 34.8332 25.2924
Co 7.3041 25.378 35.9104
Pd 22.1793 46.7712 38.8157
Pd 8.1448 23.0041 31.656
Pd 6.00889 23.0293 27.557
Co 11.2905 37.0398 38.9857
Pd 13.5773 41.0059 29.7042
Pd 17.1003 30.8103 22.0699
Pd 19.3048 46.0414 27.1713
Co 16.9456 19.2867 41.8907
Pd 28.2168 43.5498 32.1346
Pd 27.3349 40.9166 33.0712
Co 38.8902 27.0927 37.4545
Pd 21.6333 21.8146 44.117
Pd 19.2645 27.0943 24.0322
Pd 9.87416 42.437 23.51
Pd 16.8322 26.2895 27.8724
Co 26.1187 22.9577 16.3746
Pd 8.64937 29.5885 33.9989
Pd 17.3671 40.3635 12.6383
Pd 8.64307 29.8197 16.0395
Co 13.822 37.5716 24.2889
Pd 37.8821 39.1306 37.2429
Pd 25.6633 10.3125 17.5427
Pd 27.9416 21.4364 17.4279
Co 21.9531 35.9088 19.4798
Pd 11.7119 38.0106 25.7645
Pd 32.9164 34.2375 24.5907
Pd 32.9241 41.5394 40.8351
Co 8.49667 16.6979 27.653
Pd 6.86319 17.2762 19.7354
Pd 15.7082 43.4165 33.8348
Co 4.52487 29.8508 24.222
Pd 13.4987 21.6063 13.2819
Pd 12.5132 44.2745 26.4107
Pd 15.1872 11.1061 27.7254
Pd 10.1803 34.1558 29.5681
Co 16.5225 36.8598 16.3211
Pd 20.346 10.2974 24.0047
Pd 21.3208 48.7329 28.95
Pd 19.8348 14.1157 28.1966
Co 9.36224 26.5832 20.0129
Pd 9.08847 36.4157 30.5652
Pd 28.7354 48.0703 33.504
Co 13.9796 42.448 25.5052
Pd 14.8618 39.8137 8.64786
Pd 21.8065 10.3738 21.7161
Pd 17.404 41.7156 28.0732
Co 22.7059 24.9677 10.6732
Co 33.1447 20.3334 23.6742
Pd 9.72923 16.5237 38.5049
Pd 24.9186 10.9193 31.7343
Co 19.0446 20.1365 31.1026
Pd 38.9826 8.64386 23.3343
Pd 21.7965 21.9355 15.672
Pd 21.4861 6.94419 37.2993
Co 11.2728 17.8364 40.0205
Co 18.4483 14.5764 40.0654
Pd 25.129 13.4222 5.79291
Pd 28.0035 5.29505 28.7766
Co 17.4363 8.78214 37.0121
Pd 20.0764 9.90806 17.5383
Pd 21.7891 4.88294 16.4311
Pd 5.92869 24.1683 32.9966
Co 32.2366 22.1274 33.5143
Pd 32.1973 15.4741 14.0142
Pd 21.9597 3.66818 26.1918
Pd 16.6311 7.76057 31.697
Co 20.5682 6.73316 33.0687
Pd 29.3016 14.3698 7.18907
Pd 16.5276 14.4958 17.8368
Pd 9.4153 17.9169 13.5043
Co 22.1752 18.7187 38.2984
Co 16.3288 15.5429 23.3056
Pd 15.6414 6.09682 25.2979
Pd 24.046 16.2397 9.42157
Co 20.6098 22.7451 18.7802
Pd 16.9022 16.7853 10.0546
Pd 22.4447 11.6785 32.5697
Pd 27.9726 36.3908 17.6772
Co 25.2798 6.11482 21.7379
Pd 9.92178 35.7805 37.0784
Pd 15.5098 38.4474 39.0242
Pd 19.2874 12.1487 21.0111
Co 13.9988 19.1703 33.2179
Pd 42.839 21.7659 18.4401
Pd 36.5309 7.71293 23.449
Pd 6.01862 20.2198 28.1024
Co 32.9108 25.9473 11.4318
Pd 17.0749 19.2403 32.6946
Pd 18.5753 23.6398 27.409
Pd 20.7741 37.973 36.3124
Co 32.4355 13.6813 12.0463
Pd 22.5526 31.1529 42.725
Pd 33.5337 10.5757 37.3631
Pd 16.0556 25.3125 37.2226
Co 30.4629 41.2973 39.8943
Co 16.2276 16.9083 28.2672
Pd 19.1999 22.2497 4.84465
Pd 31.0286 17.6733 15.7676
Co 10.9035 10.1059 32.7602
Pd 6.45752 21.6077 18.1062
Pd 11.1195 20.811 15.659
Pd 46.4718 26.234 14.9432
Co 14.8825 8.55535 33.26
Pd 17.6713 19.0926 8.69317
Pd 23.8671 5.47638 30.5994
Pd 15.5819 23.2483 38.8684
Co 23.8115 25.8261 17.1189
Pd 7.37767 30.0303 31.5236
Pd 38.893 23.3927 25.5764
Pd 17.1092 27.5886 37.9293
Co 17.6845 13.6502 22.2518
Pd 11.5468 16.0243 21.5853
Pd 3.69419 23.7613 27.1248
Pd 18.1295 7.89709 29.5304
Co 17.8523 16.0467 21.4036
Pd 22.6112 14.5066 15.6001
Pd 16.3258 29.7407 36.753
Pd 17.5205 23.486 41.5783
Co 24.1579 11.1166 43.2687
Pd 10.7376 19.3461 30.3935
Pd 23.8397 14.1777 36.7448
Pd 8.40712 19.1268 35.1036
Co 35.4192 12.7867 16.8633
Pd 9.56607 11.4616 30.8813
Pd 19.6932 13.7532 42.2201
Pd 3.68975 19.4935 24.5242
Co 28.316 18.8413 32.5686
Co 21.5735 40.2791 30.395
Pd 15.1462 27.7841 15.1306
Pd 13.6323 40.3507 17.635
Co 17.8634 19.5543 15.6003
Pd 9.63692 14.0863 17.218
Pd 12.214 11.2516 19.4141
Pd 10.5297 31.7405 11.4922
Co 17.3573 23.4704 7.77637
Pd 17.7188 23.2343 36.3504
Pd 21.2221 11.4102 19.3535
Pd 19.7792 23.2221 7.62893
Co 15.6242 17.2015 21.524
Pd 12.3185 25.6193 22.9166
Pd 7.91628 16.7981 23.8308
Pd 11.4291 8.61497 27.7476
Co 9.18415 20.1582 37.4646
Pd 25.0077 20.6728 21.16
Pd 13.3247 23.2676 19.1752
Pd 20.2827 37.9132 41.431
Co 20.7771 14.2819 39.4403
Pd 3.22321 28.6695 22.5136
Pd 30.7628 5.38329 18.6444
Pd 12.3845 23.2563 32.1242
Co 21.4688 17.1427 43.1252
Pd 6.96693 14.5973 27.7995
Pd 15.3348 34.3896 34.403
Pd 25.3673 5.66144 15.2467
Co 27.9514 9.94852 12.0752
Pd 10.9479 14.4285 33.716
Pd 35.3226 36.1853 28.3125
Pd 24.7587 42.6757 12.8225
Co 15.7257 12.0262 21.9024
Pd 19.5083 14.7911 9.51008
Pd 5.65857 26.5197 31.5717
Pd 19.4624 11.8418 26.1359
Co 22.0761 37.9289 30.6056
Pd 11.6716 40.8653 22.3211
Pd 23.2125 33.7148 34.5088
Pd 8.31086 23.931 23.8711
Co 11.3905 33.0543 40.2637
Co 27.1617 30.3629 41.6262
Pd 12.7715 31.9162 10.076
Pd 36.7007 24.4563 6.48682
Pd 9.56601 23.4978 15.1417
Pd 15.1705 14.4237 28.1533
Co 20.2373 20.823 13.9394
Pd 18.0358 31.4447 10.4389
Pd 8.04922 14.7268 19.2824
Pd 24.0553 12.6398 17.012
Co 25.1869 27.1394 25.7978
Pd 19.9914 36.7355 12.9938
Pd 21.8883 15.0289 41.5409
Pd 24.9804 32.3759 35.8133
Co 16.5312 16.4644 19.3774
Pd 11.9525 12.4759 31.7504
Pd 27.9176 35.2295 20.4051
Pd 19.8836 5.55396 26.1385
Co 17.9749 21.799 32.7593
Pd 26.1404 32.0733 30.1963
Pd 18.7538 34.4257 43.5295
Pd 10.0787 21.1543 39.8718
Co 16.3641 26.5128 11.3384
Pd 29.3545 33.2119 40.4896
Pd 14.6051 12.7267 35.9333
Pd 21.5095 43.0203 41.0768
Co 20.4748 11.5093 31.0529
Pd 26.2212 29.6141 45.6212
Pd 25.7825 20.3333 46.7772
Pd 9.72986 10.5745 28.3863
Co 11.4971 33.4851 13.101
Pd 9.74762 20.7413 22.237
Pd 25.7309 10.1102 36.2657
Pd 9.0275 18.8318 39.5508
Co 14.173 26.6529 41.9547
Pd 37.5494 30.7108 47.094
Pd 22.1786 33.5241 25.0993
Pd 5.93641 25.5603 26.0768
Co 23.6662 26.7132 47.3285
Pd 18.1422 22.598 38.9639
Pd 7.99446 31.3111 37.8055
Pd 12.4301 36.777 36.7046
Co 11.7023 34.1188 19.7474
Pd 26.9841 24.3509 23.2907
Pd 37.6766 33.6576 31.2132
Co 12.6187 26.9028 43.9952
Pd 12.4037 20.9018 22.7069
Pd 10.6869 28.2002 16.3656
Pd 16.9815 18.7828 18.0945
Pd 27.0799 21.1987 6.57525
Co 9.64048 28.9106 20.0075
Pd 15.2969 32.8273 21.811
Pd 9.56843 12.2374 33.3488
Pd 12.0378 11.84 34.5398
Co 15.0612 12.9346 26.037
Pd 5.90954 23.2827 24.8492
Pd 13.4087 27.4573 33.7665
Pd 14.2044 20.9561 38.995
Co 16.6817 21.9468 12.5232
Pd 18.1774 38.4888 39.5722
Pd 33.8266 36.574 26.1454
Pd 25.0631 24.415 18.9275
Co 13.991 12.9803 33.3287
Pd 18.4987 36.3269 27.3502
Pd 21.447 35.1046 33.0866
Pd 16.5077 34.8047 28.2444
Co 7.29503 26.1238 33.6172
Pd 12.2736 34.8867 17.4407
Pd 3.78014 26.5727 27.1324
Pd 18.231 30.3399 4.35628
Co 27.1538 33.9698 32.2121
Pd 14.3226 9.29148 22.0035
Pd 22.013 44.6861 23.9317
Pd 20.9307 32.3353 44.6872
Co 26.9641 32.2203 34.1832
Pd 30.211 21.7765 30.9041
Pd 7.67532 33.4729 29.0973
Pd 13.3495 31.7599 31.0816
Co 22.0685 43.987 35.3545
Pd 7.42434 38.3738 31.3059
Pd 21.485 14.6743 44.1868
Co 25.48 47.5078 36.4545
Pd 26.3375 31.6462 11.1967
Pd 5.13831 28.8884 30.5153
Pd 6.82729 30.4736 23.7329
Pd 10.6999 22.8537 27.2399
Co 18.3595 18.9338 26.8766
Pd 17.5719 16.6292 33.8904
Pd 14.6946 23.5573 16.993
Pd 14.1255 25.1561 32.4169
Co 25.7125 38.097 28.923
Pd 12.974 31.8986 20.8737
Pd 22.9339 44.4969 28.4344
Pd 17.9637 11.2315 23.2655
Co 7.21363 23.3804 19.8274
Pd 23.9884 26.7592 19.468
Pd 19.8212 17.453 22.3862
Pd 23.5324 27.4797 21.9554
Co 13.3581 29.1105 27.3034
Pd 13.5236 43.6761 35.2483
Pd 23.5746 20.594 45.3876
Pd 7.30813 33.2031 24.2974
Co 10.5721 39.6935 33.848
Pd 40.8267 31.5655 40.2657
Pd 14.2368 44.1126 15.062
Pd 15.1604 41.6358 23.3782
Co 12.3052 24.9088 40.5799
Pd 10.5604 33.6168 21.871
Pd 5.00475 20.9683 22.6535
Co 20.7198 38.5767 38.8219
Pd 18.4162 36.2306 24.6465
Pd 17.2991 15.2215 42.1229
Pd 28.0173 47.0514 36.1197
Pd 18.1901 23.0984 18.092
Co 11.9729 42.232 31.2719
Pd 16.3732 31.1762 31.2215
Pd 31.1786 43.5319 40.6346
Pd 16.2918 25.3805 9.10059
Co 39.5881 34.1864 23.4178
Pd 6.02463 27.9773 22.7389
Pd 4.80406 14.4943 26.1283
Pd 28.0474 24.4842 15.5088
Co 15.771 35.2751 10.636
Pd 32.1492 30.1055 28.7585
Pd 3.82749 18.7699 28.836
Pd 21.452 28.2185 38.9059
Co 17.3611 39.6786 19.7583
Pd 30.3842 38.1093 37.7904
Pd 7.20877 36.1644 32.7091
Co 24.5618 33.7964 25.8381
Pd 28.9581 38.0572 21.1568
Pd 7.62866 38.9774 24.8207
Pd 12.6355 27.2815 39.4551
Pd 19.4013 39.3524 14.2176
Co 6.84935 32.5708 31.3177
Pd 24.4591 36.9675 30.5953
Pd 29.4878 47.3604 19.3934
Pd 21.0074 32.1828 27.3156
Co 27.8426 30.9304 44.0265
Pd 19.9557 33.2937 9.92674
Pd 10.4099 35.6049 8.99089
Co 10.6424 11.8417 23.1998
Pd 13.4867 34.342 36.192
Pd 8.78475 33.6657 10.6636
Pd 18.6418 48.2738 28.3664
Co 14.503 33.5567 43.4833
Pd 16.4039 5.00941 17.3147
Pd 17.7416 7.47952 20.4486
Co 39.9968 30.5068 46.3657
Pd 21.3821 9.67569 37.3068
Pd 10.7028 15.2701 27.1172
Pd 34.7398 15.0989 17.9931
Co 23.1015 4.05601 18.6206
Co 18.0461 5.04881 21.5873
Pd 17.3259 33.8846 25.7768
Pd 45.399 26.7823 28.8279
Co 19.4239 22.5866 25.1323
Pd 7.75166 17.9869 37.3391
Pd 26.9965 26.1237 27.1739
Pd 19.7883 9.05528 11.1892
Co 11.6344 35.546 34.6204
Pd 18.7976 8.41038 22.8251
Pd 23.1054 13.1456 19.3967
Pd 23.8267 17.1237 36.8203
Co 16.1783 36.1539 32.6846
Pd 12.8588 12.2567 24.9924
Pd 14.8946 8.4685 35.9441
Pd 31.132 10.5429 32.543
Co 31.0369 14.7267 16.213
Co 34.3628 11.4159 21.8479
Pd 21.088 27.6954 12.8706
Pd 33.116 13.6761 29.6779
Co 12.5306 8.05832 32.1733
Pd 27.8321 10.0651 19.0055
Pd 18.2836 15.3988 14.2278
Pd 22.7586 10.2583 17.0812
Co 20.7251 16.6888 10.8989
Pd 19.9964 13.0091 23.6851
Pd 28.33 13.6282 35.3435
Pd 25.1258 27.1483 45.0182
Co 30.9539 18.1208 9.46172
Pd 29.9733 30.9341 23.1404
Pd 12.9342 18.5823 17.3245
Pd 33.1588 17.3563 38.2135
Co 9.29304 20.6277 11.6743
Pd 23.9804 17.1521 20.1181
Pd 15.2292 11.0675 15.1648
Pd 31.3544 12.9345 14.4015
Co 23.5247 31.8129 44.9949
Pd 29.8566 8.63963 23.1818
Pd 22.3811 9.98361 41.6968
Pd 18.961 21.0418 41.6698
Co 33.2921 19.119 9.06553
Co 10.6917 43.3456 32.8997
Pd 13.8416 23.2902 34.2758
Pd 25.0742 27.8973 9.05129
Co 19.1645 29.1481 10.8791
Pd 20.9876 23.1947 10.0658
Pd 35.4664 18.566 7.87674
Pd 21.6687 8.74606 19.4771
Co 41.982 28.8967 28.0169
Pd 21.8165 5.42392 24.0134
Pd 15.7735 31.5657 27.0347
Pd 17.5922 6.1563 15.1474
Co 36.146 18.1337 13.9371
Pd 13.3314 10.48 32.4618
Pd 19.8838 29.502 30.6765
Pd 35.1821 31.8592 15.3504
Co 30.7617 23.4276 9.95549
Pd 24.2815 37.7592 14.9645
Pd 25.689 12.4521 19.1876
Pd 21.9866 10.5683 34.8567
Co 13.0705 14.4588 34.9932
Pd 32.9466 25.8088 27.0604
Pd 20.4637 7.74006 24.9479
Pd 15.5966 19.6837 22.3745
Co 32.7323 22.1313 29.897
Pd 8.13553 14.3706 34.066
Pd 13.953 21.0276 20.5979
Pd 18.4984 34.1672 40.8101
Co 21.8493 46.5981 27.5737
Pd 7.036 27.6891 20.3071
Pd 22.819 33.0357 37.5189
Pd 42.1738 10.8829 25.622
Co 27.503 28.5621 31.4409
Co 17.6706 27.1906 44.4461
Pd 8.50508 27.7212 32.1723
Pd 10.0071 25.2101 13.0672
Co 27.0148 28.5019 7.51606
Pd 32.9172 9.67925 11.9086
Pd 39.1482 8.87752 19.2514
Pd 15.2381 25.795 13.4191
Co 16.7985 31.0623 6.44174
Pd 8.02101 24.0739 28.9057
Pd 18.5305 15.7058 7.01228
Pd 19.155 44.7455 15.406
Co 9.9952 19.8338 26.5997
Pd 14.7941 10.5711 19.6384
Pd 40.7661 26.8194 39.1766
Pd 23.2864 11.4266 26.2852
Co 17.4518 17.9226 23.1013
Pd 23.3756 15.2157 4.78569
Pd 23.1994 38.9243 44.5352
Pd 12.9325 24.2574 13.1332
Co 26.3458 12.8997 16.0943
Pd 35.1226 18.1469 16.2583
Pd 21.8088 24.6825 41.9891
Pd 23.5615 8.82775 11.432
Co 18.4674 11.1719 11.3461
Pd 18.3594 34.8963 32.7875
Pd 19.2079 21.0537 37.1171
Pd 22.5925 20.6813 27.5462
Co 20.6516 23.0814 37.8249
Pd 21.5919 20.6014 18.0279
Pd 19.181 29.6031 37.9667
Pd 6.51586 17.8299 28.8605
Co 13.6033 18.4396 39.6155
Pd 14.7938 18.6155 43.6154
Pd 30.0959 23.8348 21.4313
Pd 9.71945 16.7306 34.2925
Co 14.55 19.7045 41.3644
Pd 19.9977 32.8405 33.8211
Pd 12.898 40.6384 27.2374
Pd 17.5474 43.4732 35.62
Co 34.6019 14.3112 42.6847
Co 14.0739 38.3664 29.715
Pd 27.8002 27.1777 9.79809
Pd 26.4468 46.4164 22.5904
Co 25.4151 37.31 8.4589
Pd 12.1087 36.3261 7.14006
Pd 29.4366 16.4071 17.4649
Pd 32.4363 21.965 4.65337
Co 18.5556 9.15576 25.6019
Pd 19.1066 22.3724 11.9581
Pd 4.50882 18.464 22.2142
Pd 16.0999 11.8751 10.9672
Co 25.4954 33.0906 27.9966
Pd 28.3136 16.4249 5.86516
Pd 12.2631 21.6151 25.4751
Pd 26.7105 16.7293 20.8321
Co 17.4495 20.4678 10.728
Pd 6.44085 34.3921 20.3326
Pd 15.0309 29.4361 7.64165
Pd 13.1181 29.8931 16.9313
Co 7.03299 33.0445 26.7672
Pd 21.1156 27.0965 41.2671
Pd 14.8522 10.7061 34.5251
Pd 14.3617 33.6682 19.3157
Co 12.6048 15.0328 25.1253
Pd 19.4244 14.6558 25.7739
Pd 34.1776 17.9227 45
Pd 13.9677 21.2576 15.8804
Co 17.5005 12.6637 41.3647
Pd 23.4806 44.6142 39.9457
Pd 9.14988 12.8938 27.2553
Pd 32.7762 30.4659 48.2918
Co 25.0911 10.9629 15.1289
Pd 4.55224 16.7246 24.3836
Pd 14.8868 31.657 38.1225
Pd 15.9593 27.5055 35.139
Co 18.4617 24.0383 33.9511
Pd 23.2965 41.8665 39.5707
Pd 7.57052 19.3289 18.2328
Pd 19.6975 41.56 42.3848
Co 29.0477 27.3626 34.1347
Pd 13.6448 25.0033 38.2657
Pd 28.7476 29.8581 33.2897
Pd 29.6055 22.6715 33.4212
Co 17.6462 28.8514 31.5949
Pd 26.3297 23.5489 32.2007
Pd 15.5535 7.57589 29.0109
Pd 12.7448 33.5821 24.8187
Co 11.9756 35.2864 40.6895
Co 35.3068 30.2556 48.1888
Pd 19.596 37.1579 7.51569
Pd 35.3416 29.6443 35.8051
Pd 15.4029 18.755 15.9834
Co 36.8256 25.8062 11.615
Pd 19.9671 22.207 34.8147
Pd 22.6046 27.5897 7.76324
Pd 19.2783 42.7177 26.5294
Co 16.6567 28.3201 13.0482
Pd 28.8458 16.4723 3.29702
Pd 11.5287 15.971 17.263
Pd 16.1137 35.7496 8.19065
Co 10.6874 31.5819 34.2054
Pd 5.07681 33.1107 29.5055
Pd 23.5325 29.0701 13.3265
Pd 10.5871 13.3741 25.2602
Co 7.99953 35.9103 13.6508
Pd 29.9212 46.0951 37.6925
Pd 27.6985 31.74 27.6347
Pd 15.8461 28.6405 22.8024
Co 26.9652 25.2061 13.2195
Pd 17.6069 4.35538 26.3745
Pd 14.8516 10.9121 24.0241
Pd 12.6231 24.9655 27.0649
Co 16.3635 22.6349 34.3122
Pd 29.3784 35.5817 37.3363
Pd 22.3101 28.8072 31.2032
Pd 8.46585 28.8082 38.9149
Co 14.7455 31.1833 18.6248
Pd 27.1761 42.4677 37.1573
Pd 30.8216 34.4091 29.3578
Pd 31.2038 20.8153 35.4899
Co 19.9313 18.6236 40.3506
Pd 22.0877 38.3926 25.1787
Pd 24.9845 40.8108 43.687
Pd 33.6158 29.7079 21.5645
Co 19.1668 25.4531 41.5553
Pd 11.8906 35.7983 23.7691
Pd 16.9226 27.6383 25.1501
Pd 25.8703 48.8198 27.291
Co 22.1397 36.9146 39.9008
Pd 5.92241 15.2686 32.4169
Pd 23.2592 35.7335 41.8296
Pd 23.461 21.3323 47.8748
Co 24.5348 40.3307 41.197
Pd 23.3898 37.592 37.5789
Pd 26.9255 26.6986 35.7056
Pd 30.6878 14.1247 36.6944
Co 14.1132 39.5338 33.7015
Pd 20.6701 35.2882 41.8922
Co 26.1342 32.3959 44.9982
Pd 17.6435 46.0426 29.6688
Pd 17.1306 26.3084 22.7886
Pd 21.9126 48.0691 34.2298
Pd 9.45855 36.6357 24.1106
Co 14.7 17.5779 13.5888
Pd 11.591 17.5164 19.4357
Pd 29.4098 25.3614 5.02388
Pd 15.562 37.771 20.6167
Co 14.2993 30.8462 23.1085
Pd 10.4082 18.1509 22.5214
Pd 13.9716 6.52889 34.0504
Pd 17.9983 27.3589 9.55795
Co 8.93933 25.0248 10.8106
Pd 12.4572 17.135 37.8481
Pd 11.5307 20.4843 10.4802
Pd 16.8546 43.5504 14.3585
Co 23.1651 32.1252 6.30301
Pd 3.67754 24.8099 24.7503
Pd 8.87651 20.922 14.1502
Pd 8.08273 23.5851 17.4234
Co 20.6758 10.3341 39.6711
Pd 20.5701 16.2701 16.5345
Pd 12.1012 37.0561 30.5955
Pd 7.78119 39.5149 20.3889
Co 31.7205 19.5004 5.07613
Pd 28.9133 36.311 25.5759
Pd 24.9799 29.6186 23.0135
Pd 26.168 12.9416 43.0881
Co 43.1919 42.8809 29.7764
Pd 29.3226 40.937 42.1376
Pd 29.4947 40.7744 19.9612
Pd 6.79223 30.8557 29.0873
Co 23.0599 40.4823 26.255
Pd 35.4256 38.0715 44.0037
Pd 14.525 42.4018 18.9642
Pd 40.9335 34.2786 44.6769
Co 21.8885 29.8853 45.0408
Pd 16.3722 46.2681 18.8111
Pd 11.4142 29.1298 43.2486
Pd 27.5073 39.8101 43.7565
Co 22.276 22.9391 35.6319
Pd 21.067 33.91 39.5327
Pd 33.9792 43.7254 39.9444
Co 14.3935 37.7822 32.0518
Pd 10.111 22.7611 10.4076
Pd 12.3113 30.8529 7.75641
Pd 29.1285 40.2123 13.8855
Pd 27.6588 42.6774 20.9165
Co 13.8149 9.21132 28.4969
Pd 17.6095 20.5857 35.0661
Pd 32.7638 26.5312 47.2154
Pd 12.2734 23.2023 15.4434
Co 10.6498 35.5971 26.1015
Pd 5.8611 21.7056 31.9691
Pd 4.84982 18.304 26.5264
Pd 11.8965 20.4332 28.0972
Co 21.5323 29.6699 11.3646
Pd 31.9776 37.7397 40.0804
Pd 20.6078 34.2227 12.3204
Pd 29.6943 35.7324 15.5367
Co 7.55816 25.4752 21.5279
Pd 26.82 22.159 34.482
Pd 18.5846 31.0564 35.2356
Pd 32.8121 28.1284 19.637
Co 34.9301 42.6737 23.6451
Pd 37.4767 45.9895 25.5993
Pd 20.181 46.7106 19.6925
Pd 14.9622 39.427 15.5031
Co 22.2224 24.5708 18.5349
Pd 31.5126 33.1252 38.9872
Pd 8.07557 26.977 12.4542
Pd 29.7585 22.3461 46.3017
Co 20.8155 42.0821 36.1509
Pd 32.0364 32.9071 47.5467
Pd 9.3854 29.4069 29.7142
Pd 29.4993 28.8634 16.3274
Co 17.9345 42.9152 16.5764
Pd 35.4335 27.6094 20.8634
Pd 5.09594 30.2396 21.5383
Co 24.8761 21.5549 38.9082
Pd 9.93884 26.7961 30.1655
Pd 21.4466 22.2453 3.64702
Pd 14.246 38.3239 26.7727
Pd 15.8826 42.2764 30.301
Co 13.71 25.2664 15.3224
Pd 9.54626 21.6766 29.3348
Pd 10.1785 25.2889 27.9786
Pd 16.4126 29.2397 10.6816
Co 13.4925 22.6822 27.6211
Pd 18.027 46.746 22.9772
Pd 10.2538 37.7383 35.4259
Pd 17.516 21.375 26.2866
Co 11.1133 19.5957 24.4234
Pd 35.4946 30.9786 45.4145
Pd 25.6026 31.5378 13.7438
Pd 21.0454 19.6606 22.635
Co 17.9096 21.7697 14.447
Pd 22.8908 46.7702 29.9597
Pd 31.1574 33.3582 15.9249
Pd 30.0977 41.2476 24.4343
Co 15.0455 39.1487 12.905
Pd 22.9468 42.2258 31.1942
Pd 26.3498 48.8494 32.3991
Pd 20.7087 23.8618 21.2524
Co 20.0417 21.9624 22.9011
Pd 15.3076 44.3137 20.7025
Pd 9.99299 33.766 24.4542
Co 19.6771 30.2933 28.2348
Pd 12.0448 37.6737 33.319
Pd 29.4533 28.9939 25.0362
Pd 28.4852 33.2272 22.1926
Pd 15.0957 26.4668 44.3571
Co 14.9509 27.5548 9.39008
Pd 23.8996 42.9869 23.3794
Pd 31.0598 46.7498 23.8534
Pd 32.4042 42.5455 38.1777
Co 21.6384 26.7103 3.54828
Pd 25.0171 44.5015 18.2962
Pd 13.4798 20.8584 8.73406
Pd 29.6024 38.9336 40.1316
Co 23.1652 39.2544 39.455
Pd 28.7815 29.6644 37.8916
Pd 14.9916 36.579 37.2127
Pd 22.9539 37.0402 17.3301
Co 20.5969 32.4364 14.1097
Pd 10.8581 40.3627 14.1134
Pd 13.7534 36.7279 39.754
Co 25.0964 32.9302 32.6109
Pd 15.634 24.8428 6.58578
Pd 26.0279 42.3244 31.1106
Pd 13.7894 29.0819 44.3527
Pd 13.956 46.3751 19.8222
Co 11.8165 13.6471 15.9085
Pd 39.4981 42.1167 26.0464
Pd 28.4109 38.5482 29.316
Pd 16.9906 38.2889 7.70957
Co 16.2853 38.4242 33.7331
Pd 20.3143 27.0498 31.5594
Pd 30.3814 43.9119 33.9185
Co 13.1648 35.9036 25.9587
Pd 33.737 40.3605 23.214
Pd 38.1477 41.8912 39.6881
Pd 8.49936 41.4233 25.5765
Pd 36.8328 18.172 23.0704
Pd 15.798 8.6266 26.4893
Co 33.1643 15.4478 22.3679
Pd 31.9371 15.9217 11.1995
Pd 22.4248 9.85661 30.3941
Pd 36.5975 16.6838 28.2168
Co 22.847 29.4167 9.3823
Pd 16.5999 12.5424 33.6767
Pd 15.2129 18.7664 30.813
Pd 17.7302 10.4807 16.2007
Co 12.5693 21.155 33.7885
Pd 35.7388 9.86829 31.565
Pd 22.4955 11.7977 14.9132
Pd 13.1735 11.7647 21.9423
Co 26.311 17.5304 32.4666
Co 20.278 15.722 33.9439
Pd 35.597 34.6421 10.0917
Pd 17.9661 38.9338 16.9475
Co 27.7669 6.72383 21.9849
Pd 34.3919 38.1362 15.3751
Pd 30.2453 8.6946 26.1006
Pd 27.7439 19.9444 27.7757
Co 25.6989 14.3401 9.67779
Pd 24.818 10.4003 9.78989
Pd 13.7613 15.1027 12.9662
Pd 32.0986 11.4752 9.62477
Co 34.4388 25.6093 24.9176
Pd 12.708 18.9828 35.4701
Pd 31.1904 16.9303 4.47838
Pd 24.4794 14.439 11.8635
Co 22.3252 14.3941 32.6251
Pd 14.6239 29.3898 32.0241
Pd 11.061 12.9468 29.2659
Pd 41.0503 10.4235 22.8729
Co 19.8333 18.7752 37.8086
Pd 20.3838 23.2757 29.2708
Pd 18.3245 28.3331 46.7908
Pd 26.1195 24.9908 47.1516
Co 31.4335 13.2024 7.8436
Co 30.9006 10.8398 29.7856
Pd 33.6686 21.6182 8.76437
Pd 12.3494 26.761 12.8609
Co 25.2198 32.4007 7.4319
Pd 14.8306 9.5354 12.8743
Pd 19.4765 17.8249 14.6273
Pd 12.4456 32.1051 18.1646
Co 41.4435 13.5136 16.7094
Pd 12.4846 11.1733 14.8584
Pd 3.68736 20.9046 27.0505
Pd 22.9004 18.2019 29.4758
Co 14.409 16.2126 8.99727
Pd 29.0285 23.4664 38.4724
Pd 37.923 19.8396 9.04643
Pd 17.919 18.4096 29.625
Co 23.3263 22.9619 5.24708
Pd 46.6784 19.4646 31.6506
Pd 30.649 4.65733 29.7039
Pd 18.9474 9.80455 13.7136
Co 16.1895 30.3949 24.7263
Pd 20.0257 16.5576 38.8628
Pd 14.1165 16.6721 35.8292
Pd 11.1365 19.134 33.1607
Co 42.5825 15.6103 17.1891
Pd 3.73735 26.1119 22.3372
Pd 16.2399 17.1174 7.51264
Pd 34.7775 16.8418 35.934
Co 19.8957 23.2391 42.9794
Pd 20.1301 19.6326 5.08542
Pd 16.5669 5.44467 30.1637
Pd 11.4471 14.6633 38.8256
Co 20.1274 18.8234 20.0598
Co 11.728 26.9402 41.8246
Pd 11.0188 10.1681 21.406
Pd 25.6204 35.2092 19.154
Co 25.6273 16.2076 5.65312
Pd 37.6908 23.322 12.9383
Pd 32.7479 13.1475 18.2008
Pd 12.7375 31.4723 13.7799
Co 20.8758 9.77233 26.6087
Pd 24.5475 36.1092 6.49354
Pd 18.2743 24.5634 5.35145
Pd 34.2741 32.3002 10.962
Co 31.6007 19.7308 7.50507
Pd 27.9403 9.99695 26.1905
Pd 10.9723 18.0023 15.5785
Pd 34.3416 22.9313 6.21853
Co 17.0022 17.7654 14.1813
Pd 7.91347 22.0135 38.5899
Pd 19.8852 34.3088 26.2061
Pd 27.5035 19.0932 21.8948
Co 12.5901 36.4395 15.181
Pd 16.7061 27.7559 17.3691
Pd 24.2774 15.8062 40.7386
Pd 18.8886 11.897 29.1848
Co 19.0346 14.4804 17.2331
Pd 25.9939 18.0687 28.3654
Pd 10.4521 24.9365 42.3495
Pd 24.6321 27.7733 35.0033
Co 20.3892 4.18393 21.9891
Pd 30.6975 4.14551 25.3846
Pd 4.10158 27.3374 24.6326
Pd 9.85357 23.7423 40.1032
Co 10.0297 9.39974 23.6946
Pd 22.4485 21.1295 33.6394
Pd 23.7552 23.1981 43.5753
Pd 4.87602 32.3479 24.2087
Co 27.0358 37.189 40.5273
Pd 39.452 15.8803 40.6746
Pd 19.1605 18.4414 42.8592
Pd 13.2505 16.2349 27.4091
Co 10.9623 31.2567 41.8229
Co 20.6152 14.1422 19.3213
Pd 17.0638 7.42654 17.6768
Pd 9.75212 30.8439 13.7594
Co 23.4984 16.1095 25.0228
Pd 20.813 32.7724 7.30038
Pd 25.0593 24.9134 14.9652
Pd 11.5277 24.9308 10.9051
Co 8.5702 34.1847 31.6479
Pd 35.3957 38.3508 12.9442
Pd 10.8612 11.5793 17.0996
Pd 16.8091 29.4518 19.3486
Co 38.6671 24.0409 10.6731
Pd 17.7601 24.0566 15.6678
Pd 26.0777 12.2762 11.1112
Pd 27.1586 21.8227 22.6284
Co 12.182 24.9572 17.4968
Pd 13.5942 15.742 19.726
Pd 14.6028 26.4454 23.4153
Pd 14.5002 18.4106 19.6384
Co 6.71096 23.1962 36.6598
Pd 25.7727 16.4443 26.1878
Pd 18.3958 28.1153 28.9802
Pd 15.7043 20.1637 13.8741
Co 14.4072 17.0148 11.2079
Pd 36.9981 25.6408 24.9158
Pd 33.9052 38.3916 28.1702
Pd 28.7409 2.70901 24.1291
Co 8.19796 34.001 36.4325
Pd 26.9408 33.8498 46.8867
Pd 34.2757 22.0104 47.0864
Pd 5.06814 33.893 32.1589
Co 11.1812 27.4263 21.3657
Pd 28.261 5.15571 17.6676
Pd 40.0118 25.2371 28.5401
Pd 17.0102 36.084 38.9167
Co 10.5543 19.4566 41.7589
Pd 9.13692 16.9916 18.3298
Pd 8.854 16.3911 21.273
Pd 47.9588 23.0251 29.1288
Co 5.92982 25.5304 23.459
Pd 13.2547 10.5351 36.7052
Pd 23.7752 15.7103 43.3233
Pd 12.3279 22.7687 39.2168
Co 8.96963 31.8454 30.4912
Pd 8.51075 15.6513 36.3421
Pd 24.1196 4.88124 25.3882
Pd 28.3914 23.5497 48.3303
Co 20.0539 30.3421 43.355
Co 35.9795 27.0201 43.4
Pd 5.4371 19.5569 20.0015
Pd 42.0913 26.365 12.9137
Pd 24.6177 13.3448 14.2532
Co 19.9291 28.2036 15.252
Pd 19.4747 9.56041 20.5613
Pd 23.8705 11.6912 7.62571
Pd 17.7154 16.7473 16.5687
Co 29.4326 18.6878 4.44445
Pd 38.4306 8.83703 32.2271
Pd 9.83852 13.2816 35.823
Pd 14.3197 13.0746 19.498
Co 21.1848 30.0771 13.7411
Pd 25.975 27.1399 23.4017
Pd 24.2809 44.6072 14.6342
Pd 36.6814 9.46843 14.6148
Co 21.0796 24.0309 5.6539
Pd 28.394 31.7151 25.1317
Pd 25.2949 7.53762 13.2374
Pd 12.356 18.5175 26.3606
Co 27.1906 15.3815 33.9316
Pd 26.5337 24.7312 29.8048
Pd 13.4543 23.2794 22.1035
Pd 24.4393 10.9061 29.0438
Co 43.6698 27.253 27.0602
Pd 14.3082 32.3119 16.1114
Pd 18.198 33.8854 35.476
Pd 27.7455 12.7033 6.0517
Co 17.2187 30.4299 28.9335
Pd 31.2403 36.3948 24.3804
Pd 32.6784 38.0966 30.8157
Pd 25.8133 14.1976 21.4521
Co 27.729 8.55761 16.9063
Pd 19.034 16.6691 27.7974
Pd 14.9946 30.1718 14.2925
Pd 35.716 24.4708 29.3908
Co 14.4263 12.4184 38.434
Pd 24.0242 23.4157 33.6298
Pd 36.3571 33.8706 28.8129
Pd 21.6139 25.2656 47.0583
Co 18.2874 28.4698 35.5827
Pd 37.2859 42.1032 27.5325
Pd 23.8374 13.3203 44.6432
Pd 15.673 31.1408 44.0472