4033
Atoms. Timestep: 20196
Co 5.49279 13.0123 26.219
Pd 3.6388 14.8544 26.2221
Pd 5.35449 14.7979 24.2789
Co 5.376 16.7455 22.4438
Pd 3.56363 16.7226 28.097
Pd 3.54208 18.6265 30.0048
Pd 5.35645 14.7933 28.1633
Co 5.39022 16.7061 26.2234
Co 5.37949 16.737 30.0024
Pd 3.5308 20.5385 20.5471
Pd 5.30374 18.6003 20.5004
Co 5.3607 20.5515 18.6489
Pd 3.53947 18.6341 22.4475
Pd 3.44861 20.5061 24.324
Pd 5.35548 18.6336 24.3469
Co 5.33307 20.5159 22.4245
Pd 3.46849 18.6002 26.2265
Pd 3.56186 16.7268 24.3515
Pd 5.35705 18.6297 28.1044
Co 5.30946 20.5227 26.2276
Pd 3.45022 20.5024 28.1328
Pd 3.53347 20.528 31.9098
Pd 5.30836 18.5877 31.9485
Co 5.33576 20.5082 30.0313
Co 5.3644 20.5334 33.7992
Pd 3.55015 24.3512 16.7494
Pd 5.31406 22.4102 16.703
Co 5.40348 24.3572 14.8555
Pd 3.53566 22.4464 18.6424
Pd 3.44675 24.3214 20.5193
Pd 5.33859 22.4408 20.5475
Co 5.34557 24.3199 18.6303
Pd 3.44028 22.4133 22.4223
Pd 3.42279 24.3152 24.3283
Pd 5.2975 22.4164 24.325
Co 5.29254 24.3268 22.433
Pd 3.4309 22.4087 26.2303
Pd 3.42487 24.3111 28.1366
Pd 5.29929 22.4122 28.1341
Co 5.28032 24.3155 26.2316
Pd 3.44374 22.406 30.0386
Pd 3.45165 24.313 31.9434
Pd 5.34151 22.4296 31.9142
Co 5.29686 24.3184 30.03
Pd 3.53155 22.4414 33.8182
Pd 3.52975 24.3694 35.7075
Pd 5.31294 22.3759 35.7331
Co 5.34954 24.3029 33.8355
Co 3.73023 26.2553 37.5416
Pd 5.38822 26.2342 12.9843
Pd 3.61632 26.2316 14.8812
Pd 3.54935 28.1076 16.7538
Pd 5.39375 26.2297 16.7665
Co 5.40271 28.1068 14.86
Pd 3.4645 26.2273 18.6199
Pd 3.44588 28.1289 20.5238
Pd 5.3095 26.2255 20.5265
Co 5.34465 28.1354 18.6347
Pd 3.42842 26.223 22.4242
Pd 3.42209 28.1269 24.3325
Pd 5.28289 26.2213 24.3351
Co 5.29176 28.12 22.4373
Pd 3.41621 26.2192 26.2349
Pd 3.42478 28.1235 28.1414
Pd 5.28562 26.2173 28.1323
Co 5.2799 28.1231 26.236
Pd 3.43319 26.2156 30.0436
Pd 3.45302 28.1191 31.9437
Pd 5.31859 26.2135 31.9391
Co 5.29792 28.1124 30.0337
Pd 3.47573 26.2221 33.8394
Pd 3.56584 28.0672 35.7369
Pd 5.41103 26.206 35.6958
Co 5.3563 28.1184 33.8378
Pd 5.34373 24.2745 37.675
Pd 5.38147 26.2459 39.4902
Co 5.41538 28.0788 37.6115
Pd 5.31233 30.0495 16.712
Pd 3.53393 30.0081 18.6512
Pd 3.52818 31.9118 20.5602
Pd 5.33682 30.0102 20.5563
Co 5.35803 31.9039 18.6622
Pd 3.4386 30.0328 22.4312
Pd 3.44623 31.9358 24.3374
Pd 5.2961 30.0263 24.3337
Co 5.33052 31.931 22.4377
Pd 3.42975 30.0291 26.2391
Pd 3.44854 31.9318 28.1451
Pd 5.29901 30.0225 28.1425
Co 5.30766 31.9159 26.2405
Pd 3.44403 30.0268 30.0463
Pd 3.53506 31.895 31.9277
Pd 5.34421 29.9966 31.9223
Co 5.33524 31.9216 30.045
Pd 3.54271 29.9795 33.8334
Pd 5.32426 30.025 35.7641
Co 5.36631 31.883 33.8207
Pd 5.30016 33.851 20.5182
Pd 3.53594 33.8118 22.465
Pd 3.55752 35.7148 24.3733
Pd 5.35226 33.8089 24.3642
Co 5.3716 35.7014 22.4657
Pd 3.4656 33.8377 26.244
Pd 3.55987 35.7093 28.1207
Pd 5.3545 33.804 28.1225
Co 5.3861 35.7316 26.2458
Pd 3.54059 33.8004 30.0248
Pd 5.30673 33.8358 31.9693
Co 5.37596 35.6914 30.0259
Pd 5.34904 37.6445 24.3058
Pd 3.63356 37.5817 26.2494
Pd 5.35148 37.6394 28.1905
Co 5.48654 39.425 26.2502
Co 9.24902 9.23251 26.2127
Pd 7.24331 12.8782 24.2925
Pd 9.10669 11.0017 24.2911
Co 9.14178 12.9217 22.4114
Pd 7.30363 11.0626 26.2158
Pd 7.24555 12.8734 28.1433
Pd 9.10926 10.9967 28.1383
Co 9.1103 12.8803 26.217
Co 9.14674 12.9119 30.0218
Pd 7.20124 16.6774 20.4871
Pd 9.07555 14.7816 20.467
Co 9.1186 16.7232 18.6103
Pd 7.22307 14.79 22.364
Pd 7.22522 16.6852 24.297
Pd 9.09984 14.7796 24.2899
Co 9.08596 16.6697 22.3666
Pd 7.24868 14.8053 26.2203
Pd 7.22724 16.6807 28.1477
Pd 9.10224 14.7748 28.1483
Co 9.11902 16.686 26.2215
Pd 7.22731 14.7807 30.0757
Pd 7.20748 16.6641 31.956
Pd 9.08268 14.7674 31.9695
Co 9.09055 16.6605 30.0753
Co 9.12775 16.7049 33.8294
Pd 7.19785 20.4835 16.6912
Pd 9.06434 18.5875 16.674
Co 9.12256 20.5291 14.8135
Pd 7.19535 18.5983 18.5733
Pd 7.19963 20.4917 20.5026
Pd 9.08097 18.5839 20.48
Co 9.0754 20.4739 18.5714
Pd 7.20637 18.5989 22.3906
Pd 7.22249 20.5158 24.3218
Pd 9.1103 18.5896 24.297
Co 9.10599 20.4986 22.4031
Pd 7.2463 18.6004 26.2247
Pd 7.22416 20.5118 28.1318
Pd 9.11249 18.5852 28.1501
Co 9.12054 20.5026 26.2259
Pd 7.21015 18.5904 30.0579
Pd 7.20542 20.4793 31.9494
Pd 9.08766 18.5706 31.9652
Co 9.1103 20.4902 30.0478
Pd 7.20332 18.5806 33.8728
Pd 7.2075 20.4608 35.7578
Pd 9.07631 18.5644 35.7691
Co 9.08487 20.4557 33.8774
Co 9.14412 20.494 37.6364
Pd 7.22837 24.3099 12.9024
Pd 9.08005 22.4036 12.881
Co 9.15651 24.366 11.0441
Pd 7.21027 22.404 14.7739
Pd 7.22882 24.2945 16.7074
Pd 9.08726 22.3852 16.6849
Co 9.09282 24.2884 14.7795
Pd 7.20466 22.4015 18.5964
Pd 7.22005 24.3229 20.5239
Pd 9.10056 22.3979 20.5002
Co 9.11212 24.3084 18.6046
Pd 7.21572 22.4154 22.4267
Pd 7.19405 24.32 24.33
Pd 9.11497 22.4157 24.3268
Co 9.11304 24.3166 22.4226
Pd 7.20029 22.4166 26.2287
Pd 7.19628 24.3156 28.1315
Pd 9.11689 22.4114 28.1293
Co 9.10987 24.3174 26.2299
Pd 7.21848 22.4069 30.0313
Pd 7.2256 24.3092 31.9378
Pd 9.10757 22.3848 31.9543
Co 9.1174 24.3076 30.0372
Pd 7.21386 22.3843 33.8595
Pd 7.24197 24.2641 35.7571
Pd 9.10056 22.3604 35.7685
Co 9.12177 24.2897 33.855
Pd 7.24352 22.3529 37.6885
Pd 7.26193 24.2831 39.5887
Pd 9.10143 22.3699 39.5813
Co 9.10335 24.2596 37.6851
Co 9.18395 24.3342 41.425
Pd 9.15976 26.2397 9.18587
Pd 7.30822 26.237 11.0461
Pd 7.22762 28.1594 12.907
Pd 9.11403 26.2349 12.9223
Co 9.15589 28.1087 11.0487
Pd 7.25005 26.2324 14.8075
Pd 7.22786 28.1659 16.7121
Pd 9.10951 26.2305 16.6993
Co 9.09174 28.1771 14.7844
Pd 7.24154 26.228 18.6301
Pd 7.21917 28.1289 20.5284
Pd 9.12049 26.2263 20.5272
Co 9.11117 28.1484 18.6092
Pd 7.19797 26.2237 22.4313
Pd 7.19339 28.1233 24.3343
Pd 9.10776 26.222 24.3289
Co 9.11226 28.1317 22.4269
Pd 7.19018 26.2195 26.2329
Pd 7.19623 28.1192 28.1357
Pd 9.11032 26.2176 28.1349
Co 9.10935 28.1223 26.2342
Pd 7.2035 26.215 30.034
Pd 7.22741 28.1152 31.9428
Pd 9.1273 26.2122 31.9369
Co 9.1172 28.1229 30.0417
Pd 7.25183 26.2066 33.8371
Pd 7.24179 28.1416 35.7607
Pd 9.11678 26.2043 35.7697
Co 9.1202 28.1289 33.8608
Pd 7.26187 26.206 37.6689
Pd 7.25061 28.1328 39.566
Pd 9.13415 26.2066 39.545
Co 9.10723 28.151 37.6848
Pd 7.32639 26.2103 41.4225
Pd 9.18846 26.2018 43.2832
Co 9.17919 28.075 41.4224
Pd 9.07831 30.0666 12.8903
Pd 7.20857 30.061 14.7831
Pd 7.19506 31.9772 16.705
Pd 9.08517 30.0761 16.6945
Co 9.11949 31.9369 14.8277
Pd 7.20271 30.0547 18.6055
Pd 7.19696 31.9603 20.516
Pd 9.09882 30.0548 20.5091
Co 9.07255 31.9833 18.5852
Pd 7.21411 30.0322 22.4354
Pd 7.22026 31.9276 24.3348
Pd 9.11357 30.0285 24.3353
Co 9.10354 31.9499 22.4162
Pd 7.19931 30.0226 26.2372
Pd 7.22274 31.9231 28.1449
Pd 9.11599 30.0241 28.1378
Co 9.11849 31.9374 26.2389
Pd 7.21893 30.0234 30.04
Pd 7.20415 31.9463 31.9648
Pd 9.10628 30.0412 31.9644
Co 9.10839 31.9408 30.0618
Pd 7.21355 30.0359 33.8707
Pd 7.20651 31.9547 35.7748
Pd 9.09727 30.0543 35.7791
Co 9.08236 31.9656 33.8926
Pd 7.22203 30.0338 37.6919
Pd 9.0973 30.0388 39.5821
Co 9.13389 31.9115 37.6489
Pd 9.0605 33.8745 16.6927
Pd 7.19162 33.8583 18.5914
Pd 7.19675 35.7749 20.5094
Pd 9.07743 33.8692 20.4979
Co 9.11405 35.7345 18.633
Pd 7.20293 33.849 22.4082
Pd 7.22092 35.7582 24.319
Pd 9.10707 33.8547 24.3145
Co 9.08163 35.779 22.3887
Pd 7.24327 33.8386 26.2423
Pd 7.22325 35.7534 28.1704
Pd 9.10951 33.8501 28.168
Co 9.11491 35.7535 26.2434
Pd 7.20751 33.8393 30.0766
Pd 7.20364 35.761 31.9795
Pd 9.08464 33.8557 31.9843
Co 9.08651 35.7699 30.098
Pd 7.20059 33.8398 33.8929
Pd 9.0724 33.8528 35.7886
Co 9.12363 35.717 33.8527
Pd 9.07022 37.6718 20.4939
Pd 7.21754 37.6578 22.3906
Pd 7.23689 39.5648 24.3235
Pd 9.09463 37.6645 24.3163
Co 9.1356 39.5268 22.4422
Pd 7.24352 37.6331 26.2469
Pd 7.23951 39.5604 28.1745
Pd 9.09714 37.6599 28.1748
Co 9.10412 39.5589 26.2476
Pd 7.22243 37.6486 30.1029
Pd 9.0777 37.6585 31.9966
Co 9.14076 39.5183 30.0525
Pd 9.09947 41.442 24.3259
Pd 7.29646 41.3756 26.2509
Pd 9.10224 41.4379 28.1731
Co 9.24095 43.2066 26.2512
Co 13.0316 5.47854 26.2058
Pd 11.0138 9.0955 24.2875
Pd 12.891 7.23344 24.2819
Co 12.929 9.13625 22.4036
Pd 11.0805 7.28832 26.2093
Pd 11.0172 9.09001 28.135
Pd 12.8954 7.22737 28.1337
Co 12.8964 9.09643 26.2102
Co 12.9365 9.12451 30.0154
Pd 10.9819 12.8628 20.4632
Pd 12.8647 10.9809 20.459
Co 12.91 12.9128 18.5921
Pd 10.9958 10.9893 22.3567
Pd 10.9946 12.8733 24.2855
Pd 12.8836 10.9852 24.2817
Co 12.8676 12.8626 22.3539
Pd 11.026 11.0109 26.2137
Pd 10.9976 12.8681 28.146
Pd 12.8872 10.9794 28.1429
Co 12.8976 12.8842 26.2147
Pd 11.0018 10.9785 30.0695
Pd 10.9904 12.8474 31.9663
Pd 12.8745 10.9641 31.9631
Co 12.8739 12.852 30.0743
Co 12.9213 12.8919 33.8331
Pd 10.9708 16.6646 16.6632
Pd 12.8524 14.7754 16.6534
Co 12.904 16.7157 14.7926
Pd 10.9762 14.7786 18.545
Pd 10.9787 16.6664 20.4657
Pd 12.8647 14.7692 20.4578
Co 12.8562 16.6577 18.5447
Pd 10.9862 14.7747 22.3628
Pd 10.9934 16.6752 24.2946
Pd 12.8843 14.7727 24.2897
Co 12.8844 16.6756 22.3814
Pd 10.9934 14.77 26.2181
Pd 10.996 16.6706 28.1459
Pd 12.8873 14.7678 28.1439
Co 12.8891 16.6723 26.2192
Pd 10.9915 14.7648 30.0723
Pd 10.9864 16.6524 31.9726
Pd 12.8731 14.7543 31.9736
Co 12.89 16.6663 30.0559
Pd 10.9863 14.759 33.8874
Pd 10.9833 16.6407 35.7728
Pd 12.8653 14.7505 35.7748
Co 12.8667 16.6387 33.8898
Co 12.919 16.6863 37.6397
Pd 10.9782 20.4761 12.8701
Pd 12.8544 18.5846 12.8592
Co 12.9135 20.5318 11.0071
Pd 10.9723 18.5847 14.7488
Pd 10.9777 20.4708 16.6701
Pd 12.8595 18.571 16.6583
Co 12.8573 20.4655 14.7515
Pd 10.9753 18.5761 18.5599
Pd 10.9873 20.4849 20.4832
Pd 12.879 18.5746 20.4722
Co 12.8809 20.4835 18.5766
Pd 10.9913 18.578 22.3853
Pd 11.0054 20.4927 24.3101
Pd 12.8921 18.5809 24.3047
Co 12.8925 20.4867 22.395
Pd 11.0017 18.5818 26.2226
Pd 11.0079 20.4885 28.1392
Pd 12.8949 18.5765 28.138
Co 12.9021 20.4873 26.2237
Pd 10.9963 18.5692 30.0588
Pd 10.9948 20.4719 31.9646
Pd 12.8871 18.5613 31.9687
Co 12.898 20.4783 30.0516
Pd 10.9851 18.5576 33.8818
Pd 10.9914 20.4475 35.7758
Pd 12.8722 18.5477 35.7795
Co 12.8913 20.4662 33.868
Pd 10.9891 18.5546 37.6924
Pd 10.9977 20.4422 39.5781
Pd 12.8725 18.5506 39.5795
Co 12.8712 20.4381 37.6918
Co 12.9343 20.4935 41.4373
Pd 11.0071 24.3172 9.10617
Pd 12.869 22.4097 9.08888
Co 12.9463 24.3706 7.26167
Pd 10.9857 22.408 10.9667
Pd 10.9945 24.2992 12.8908
Pd 12.8679 22.3875 12.8723
Co 12.8752 24.2925 10.9812
Pd 10.9815 22.3865 14.7673
Pd 10.988 24.305 16.6832
Pd 12.8772 22.389 16.675
Co 12.8838 24.31 14.785
Pd 10.9879 22.3898 18.5848
Pd 11.0044 24.3093 20.5027
Pd 12.8919 22.3962 20.4932
Co 12.8879 24.309 18.5893
Pd 11.0033 22.4006 22.406
Pd 11.0148 24.3143 24.3215
Pd 12.9056 22.3995 24.313
Co 12.9044 24.3109 22.4079
Pd 11.0169 22.4022 26.227
Pd 11.0172 24.3101 28.1365
Pd 12.9084 22.3954 28.1387
Co 12.9137 24.3095 26.2281
Pd 11.0084 22.3922 30.0473
Pd 11.0118 24.2964 31.9548
Pd 12.8999 22.3837 31.9574
Co 12.9097 24.3027 30.048
Pd 10.998 22.3723 33.8671
Pd 10.9983 24.2823 35.7753
Pd 12.8889 22.3675 35.775
Co 12.8972 24.292 33.8664
Pd 10.9942 22.359 37.6855
Pd 11.0117 24.268 39.5678
Pd 12.8843 22.3558 39.5752
Co 12.8976 24.2834 37.6688
Pd 11.011 22.371 41.4887
Pd 11.034 24.2782 43.3512
Pd 12.8973 22.3684 43.3646
Co 12.8969 24.2565 41.473
Co 12.9765 24.3294 45.1873
Pd 12.9764 26.2449 5.39348
Pd 11.1045 26.2426 7.24967
Pd 11.0067 28.163 9.11118
Pd 12.898 26.24 9.13797
Co 12.9458 28.1152 7.26718
Pd 11.0214 26.2376 11.0068
Pd 10.9932 28.1715 12.8958
Pd 12.8873 26.2356 12.8916
Co 12.8735 28.1834 10.9864
Pd 10.9941 26.2331 14.7929
Pd 10.9869 28.1569 16.6881
Pd 12.8853 26.2313 16.6924
Co 12.8825 28.1569 14.7901
Pd 10.9995 26.2288 18.5986
Pd 11.0036 28.1441 20.5072
Pd 12.8976 26.2271 20.5021
Co 12.887 28.1495 18.5938
Pd 11.0144 26.2246 22.4189
Pd 11.0141 28.1306 24.3258
Pd 12.9127 26.2229 24.3227
Co 12.9037 28.1391 22.4122
Pd 11.0148 26.2203 26.2311
Pd 11.0166 28.1262 28.1409
Pd 12.9153 26.2187 28.1378
Co 12.9129 28.1321 26.2324
Pd 11.0192 26.2159 30.0434
Pd 11.0104 28.1303 31.9601
Pd 12.9046 26.2142 31.959
Co 12.9086 28.1303 30.0528
Pd 11.0068 26.2104 33.8651
Pd 10.9972 28.1337 35.7786
Pd 12.8968 26.2095 35.767
Co 12.8963 28.1317 33.871
Pd 11.0077 26.2058 37.6689
Pd 11.0116 28.1423 39.57
Pd 12.9041 26.2053 39.5649
Co 12.8967 28.1315 37.6724
Pd 11.046 26.2038 41.4559
Pd 11.0323 28.1216 43.3548
Pd 12.9274 26.1992 43.3219
Co 12.8946 28.1495 41.4758
Pd 11.1477 26.1963 45.224
Pd 20.5267 24.425 49.073
Co 12.9754 28.0596 45.1939
Pd 12.8676 30.072 9.0974
Pd 10.9844 30.0678 10.9763
Pd 10.9746 31.9956 12.885
Pd 12.8645 30.0845 12.8837
Co 12.9089 31.9459 11.0226
Pd 10.9788 30.0801 14.7774
Pd 10.9747 31.9916 16.6844
Pd 12.8752 30.074 16.6844
Co 12.8536 32.0024 14.7666
Pd 10.9861 30.068 18.594
Pd 10.9847 31.9687 20.4967
Pd 12.8903 30.0581 20.5021
Co 12.8782 31.9753 18.5905
Pd 11.0017 30.0486 22.4147
Pd 11.0031 31.9523 24.3231
Pd 12.9041 30.0463 24.3217
Co 12.8902 31.9635 22.4081
Pd 11.0155 30.0385 26.2356
Pd 11.0056 31.9478 28.1526
Pd 12.9067 30.0419 28.1476
Co 12.8997 31.9543 26.2368
Pd 11.0067 30.0395 30.0567
Pd 10.9922 31.9554 31.979
Pd 12.8977 30.0447 31.9671
Co 12.8954 31.9546 30.0653
Pd 10.9954 30.0499 33.8772
Pd 10.9872 31.9704 35.7902
Pd 12.8873 30.0522 35.7834
Co 12.8884 31.958 33.8823
Pd 10.994 30.0548 37.6925
Pd 10.9925 31.9671 39.5889
Pd 12.882 30.0562 39.5835
Co 12.8689 31.9778 37.705
Pd 11.0046 30.0339 41.4938
Pd 12.8884 30.0327 43.3686
Co 12.9281 31.914 41.4483
Pd 12.8495 33.8887 12.8795
Pd 10.968 33.8828 14.7682
Pd 10.9661 35.7987 16.6867
Pd 12.8555 33.8927 16.6776
Co 12.8987 35.7532 14.8171
Pd 10.9715 33.8823 18.5784
Pd 10.9745 35.7877 20.4882
Pd 12.8757 33.8802 20.4901
Co 12.8519 35.8019 18.5679
Pd 10.988 33.8715 22.4029
Pd 10.9893 35.7698 24.3164
Pd 12.889 33.865 24.3221
Co 12.8806 35.7748 22.4035
Pd 10.9985 33.8588 26.2401
Pd 10.9919 35.7653 28.1679
Pd 12.8917 33.8605 28.1556
Co 12.8851 35.769 26.2409
Pd 10.993 33.8625 30.0771
Pd 10.9821 35.7746 31.9956
Pd 12.8836 33.8671 31.9871
Co 12.8859 35.766 30.078
Pd 10.9816 33.8651 33.9009
Pd 10.9788 35.7777 35.7961
Pd 12.8685 33.8719 35.7987
Co 12.8625 35.7849 33.913
Pd 10.9829 33.8579 37.7099
Pd 12.8673 33.8608 39.5958
Co 12.9144 35.7287 37.6625
Pd 12.847 37.6892 16.6819
Pd 10.9709 37.6804 18.5726
Pd 10.9762 39.5916 20.4946
Pd 12.86 37.686 20.4848
Co 12.9045 39.5473 18.6242
Pd 10.9812 37.6749 22.3894
Pd 10.9887 39.5716 24.3159
Pd 12.8796 37.6732 24.3158
Co 12.8622 39.588 22.3848
Pd 10.9884 37.6702 26.2442
Pd 10.9913 39.5673 28.1764
Pd 12.8823 37.6688 28.1698
Co 12.8917 39.5568 26.2447
Pd 10.9864 37.6662 30.0988
Pd 10.9842 39.5789 31.9972
Pd 12.868 37.6731 32.0003
Co 12.8677 39.5794 30.1045
Pd 10.9814 37.6634 33.9147
Pd 12.8605 37.6683 35.8025
Co 12.9154 39.5306 33.8643
Pd 12.8589 41.4745 20.495
Pd 10.9892 41.4603 22.3919
Pd 11.0062 43.3491 24.3263
Pd 12.8773 41.4606 24.3164
Co 12.9224 43.3142 22.4431
Pd 11.0189 41.4292 26.248
Pd 11.009 43.3452 28.1735
Pd 12.88 41.4564 28.1768
Co 12.8887 43.3444 26.2484
Pd 10.9947 41.452 30.1041
Pd 12.8672 41.4621 31.9978
Co 12.9279 43.3063 30.0535
Pd 12.8831 45.2121 24.3246
Pd 11.0714 45.1515 26.2516
Pd 12.886 45.2083 28.1756
Co 13.0215 46.9618 26.2516
Pd 14.81 5.34631 24.2604
Pd 16.7377 3.55523 24.3193
Co 16.753 5.37378 22.4179
Pd 14.8764 3.62587 26.2013
Pd 14.817 5.33939 28.1464
Pd 16.7476 3.54817 28.0761
Co 16.7227 5.37903 26.2007
Co 16.7662 5.35905 29.984
Pd 14.7841 9.07574 20.4545
Pd 16.6807 7.20291 20.4659
Co 16.7223 9.12413 18.5935
Pd 14.7973 7.21896 22.3478
Pd 14.7904 9.09157 24.2785
Pd 16.6958 7.21823 24.2768
Co 16.6757 9.08321 22.3503
Pd 14.8223 7.23633 26.2061
Pd 14.795 9.08535 28.1384
Pd 16.7014 7.2115 28.1308
Co 16.7005 9.10802 26.2065
Pd 14.8074 7.2058 30.063
Pd 14.7964 9.05704 31.9599
Pd 16.6955 7.18211 31.9409
Co 16.6847 9.07049 30.0626
Co 16.7378 9.09857 33.817
Pd 14.7691 12.86 16.6492
Pd 16.6595 10.9802 16.6504
Co 16.7068 12.9165 14.7837
Pd 14.7768 10.9803 18.5366
Pd 14.77 12.8647 20.4538
Pd 16.6681 10.9799 20.4536
Co 16.6549 12.8611 18.5368
Pd 14.7804 10.9822 22.3549
Pd 14.7813 12.8765 24.2859
Pd 16.6844 10.9867 24.2828
Co 16.68 12.8818 22.3735
Pd 14.7842 10.981 26.2109
Pd 14.7847 12.8711 28.1406
Pd 16.6882 10.9811 28.1354
Co 16.6845 12.8786 26.2118
Pd 14.7879 10.9706 30.066
Pd 14.7797 12.8487 31.9705
Pd 16.6788 10.9625 31.9635
Co 16.6867 12.8713 30.0494
Pd 14.7895 10.9573 33.8809
Pd 14.7834 12.8333 35.7711
Pd 16.6749 10.9509 35.7624
Co 16.6671 12.8398 33.8834
Co 16.7216 12.8849 37.6319
Pd 14.7684 16.6663 12.8522
Pd 16.6544 14.7836 12.8464
Co 16.7126 16.7283 10.9885
Pd 14.7675 14.7775 14.7331
Pd 14.7621 16.6614 16.6513
Pd 16.6545 14.7703 16.6475
Co 16.6493 16.6601 14.7382
Pd 14.7651 14.7688 18.5435
Pd 14.7713 16.6714 20.4664
Pd 16.6711 14.7725 20.4625
Co 16.6711 16.6758 18.5645
Pd 14.774 14.7703 22.3739
Pd 14.7856 16.6759 24.2999
Pd 16.6831 14.7793 24.2961
Co 16.6802 16.6777 22.385
Pd 14.786 14.7744 26.2157
Pd 14.7887 16.6714 28.1359
Pd 16.6864 14.7745 28.1324
Co 16.6887 16.6787 26.2168
Pd 14.7802 14.7606 30.0565
Pd 14.78 16.6577 31.9676
Pd 16.6803 14.7582 31.9643
Co 16.6864 16.6689 30.0478
Pd 14.7761 14.7489 33.8838
Pd 14.7752 16.638 35.7791
Pd 16.6678 14.746 35.7754
Co 16.6825 16.6581 33.866
Pd 14.7818 14.7471 37.6903
Pd 14.7848 16.6321 39.5756
Pd 16.6694 14.7483 39.5722
Co 16.6633 16.6321 37.6876
Co 16.7282 16.6893 41.4352
Pd 14.7836 20.485 9.07679
Pd 16.6712 18.6042 9.06239
Co 16.7407 20.5548 7.22676
Pd 14.7749 18.5896 10.9436
Pd 14.7677 20.4727 12.8642
Pd 16.657 18.5774 12.857
Co 16.661 20.4755 10.9573
Pd 14.7627 18.5725 14.7482
Pd 14.7682 20.4803 16.667
Pd 16.6664 18.5745 16.6622
Co 16.67 20.4859 14.773
Pd 14.7693 18.5727 18.5659
Pd 14.7846 20.4862 20.4854
Pd 16.6794 18.5818 20.4811
Co 16.6769 20.4869 18.5791
Pd 14.7846 18.5798 22.3899
Pd 14.7952 20.4879 24.3089
Pd 16.6896 18.5835 24.3051
Co 16.69 20.4903 22.3979
Pd 14.7917 18.5784 26.2203
Pd 14.7982 20.4838 28.1361
Pd 16.6927 18.5794 28.133
Co 16.6965 20.4883 26.2214
Pd 14.7906 18.5713 30.05
Pd 14.7931 20.4738 31.9584
Pd 16.6884 18.5693 31.9558
Co 16.6963 20.4824 30.0446
Pd 14.7804 18.5553 33.8716
Pd 14.7807 20.4589 35.7746
Pd 16.6797 18.5532 35.7721
Co 16.6884 20.4708 33.862
Pd 14.7761 18.545 37.6859
Pd 14.7836 20.4402 39.5749
Pd 16.6721 18.5455 39.5712
Co 16.6852 20.4605 37.6651
Pd 14.7965 18.5497 41.4912
Pd 14.8071 20.4378 43.362
Pd 16.6951 18.5573 43.376
Co 16.6781 20.4364 41.4771
Co 16.7661 20.4924 45.2175
Pd 14.8115 24.319 5.35404
Pd 16.7016 22.4229 5.33777
Co 16.7536 28.1511 3.62712
Pd 14.7879 22.4096 7.18937
Pd 14.7897 24.3029 9.10624
Pd 16.6819 22.3993 9.08433
Co 16.6898 24.2944 7.2174
Pd 14.7772 22.3906 10.9699
Pd 14.7734 24.3091 12.8814
Pd 16.6702 22.3943 12.8796
Co 16.6822 24.3165 10.9966
Pd 14.7696 22.3904 14.7743
Pd 14.7793 24.3116 16.6859
Pd 16.6755 22.3986 16.6837
Co 16.6741 24.3132 14.7884
Pd 14.7818 22.3967 18.5841
Pd 14.7914 24.3119 20.4964
Pd 16.6879 22.4004 20.4937
Co 16.684 24.3142 18.5931
Pd 14.7958 22.3981 22.4015
Pd 14.8053 24.31 24.3158
Pd 16.6985 22.3993 24.3127
Co 16.6963 24.3123 22.4056
Pd 14.8032 22.3963 26.2248
Pd 14.8082 24.306 28.1382
Pd 16.7016 22.3954 28.1346
Co 16.7043 24.309 26.2258
Pd 14.8017 22.3902 30.0478
Pd 14.7996 24.2997 31.9574
Pd 16.6969 22.3886 31.9534
Co 16.7024 24.3044 30.0462
Pd 14.7923 22.3803 33.8642
Pd 14.7922 24.2905 35.7665
Pd 16.6894 22.3782 35.7617
Co 16.6957 24.2981 33.8584
Pd 14.7843 22.3641 37.6716
Pd 14.7901 24.2783 39.5678
Pd 16.6873 22.3635 39.5633
Co 16.69 24.2881 37.661
Pd 14.7939 22.3525 41.4726
Pd 14.8171 24.2588 43.3422
Pd 16.6983 22.3556 43.3496
Co 16.7011 24.2814 41.4467
Pd 14.8319 22.3494 45.2562
Pd 14.8178 24.2549 47.0657
Pd 16.7427 22.3542 47.1288
Co 16.7125 24.2597 45.2438
Co 13.0529 26.1885 46.9257
Pd 18.4983 26.2856 3.40894
Pd 14.809 28.1728 5.3636
Pd 16.7291 26.2419 5.44135
Co 16.7841 24.3627 3.62281
Pd 14.8099 26.2421 7.24083
Pd 14.7871 28.1785 9.11159
Pd 16.6919 26.2408 9.10845
Co 16.6838 28.1932 7.22333
Pd 14.7858 26.2383 10.9991
Pd 14.7718 28.163 12.887
Pd 16.6771 26.2364 12.8979
Co 16.68 28.1606 11.0026
Pd 14.7802 26.2338 14.7894
Pd 14.7784 28.1519 16.6905
Pd 16.6793 26.2322 16.6946
Co 16.6732 28.1555 14.7929
Pd 14.786 26.2296 18.5944
Pd 14.7906 28.1432 20.5009
Pd 16.6907 26.2279 20.5017
Co 16.6831 28.1459 18.5976
Pd 14.7998 26.2254 22.4085
Pd 14.8046 28.1367 24.3201
Pd 16.7024 26.2238 24.3173
Co 16.6956 28.1394 22.4099
Pd 14.8108 26.2213 26.2292
Pd 14.8073 28.1324 28.1427
Pd 16.7054 26.2197 28.139
Co 16.7035 28.1345 26.2302
Pd 14.8052 26.2171 30.0501
Pd 14.7986 28.1302 31.9619
Pd 16.6997 26.2156 31.9547
Co 16.7015 28.1309 30.0506
Pd 14.7967 26.2128 33.8637
Pd 14.7913 28.1309 35.771
Pd 16.6935 26.2117 35.7609
Co 16.6947 28.1292 33.8627
Pd 14.7949 26.2086 37.6662
Pd 14.7885 28.135 39.572
Pd 16.6941 26.2081 39.5537
Co 16.6891 28.1317 37.6658
Pd 14.8037 26.2037 41.4528
Pd 14.8105 28.1418 43.3461
Pd 16.7138 26.2038 43.3302
Co 16.6979 28.1313 41.4505
Pd 14.8628 26.1908 45.21
Pd 14.8181 28.1121 47.0498
Pd 16.7416 26.228 47.0771
Co 16.7094 28.1474 45.2188
Pd 14.8417 26.1778 48.8123
Co 20.6196 20.5174 48.8977
Pd 16.7023 30.0796 5.33461
Pd 14.7903 30.0801 7.19805
Pd 14.7775 32 9.09281
Pd 16.6711 30.0863 9.10457
Co 16.7323 31.9405 7.23943
Pd 14.7704 30.0872 10.9827
Pd 14.7632 32.0009 12.8803
Pd 16.6677 30.0791 12.8886
Co 16.6547 32.0052 10.9756
Pd 14.7676 30.0776 14.7841
Pd 14.7653 31.9837 16.6812
Pd 16.6738 30.0658 16.6931
Co 16.6668 31.9832 14.7876
Pd 14.7801 30.0626 18.5932
Pd 14.7823 31.9691 20.4988
Pd 16.6864 30.0556 20.5025
Co 16.6746 31.9735 18.5927
Pd 14.7943 30.0528 22.4102
Pd 14.7929 31.9588 24.3219
Pd 16.697 30.0482 24.3213
Co 16.6879 31.9615 22.4109
Pd 14.8016 30.0462 26.2335
Pd 14.7957 31.9543 28.1492
Pd 16.6999 30.0438 28.1433
Co 16.6942 31.955 26.2343
Pd 14.7997 30.044 30.0569
Pd 14.7903 31.956 31.972
Pd 16.6951 30.0426 31.9621
Co 16.6937 31.9526 30.0577
Pd 14.7907 30.0455 33.8732
Pd 14.7784 31.9629 35.7885
Pd 16.6876 30.0453 35.7707
Co 16.686 31.9565 33.8754
Pd 14.7826 30.0536 37.6808
Pd 14.781 31.9734 39.5888
Pd 16.6856 30.0528 39.573
Co 16.6832 31.9594 37.6794
Pd 14.79 30.056 41.4814
Pd 14.7981 31.9665 43.374
Pd 16.6922 30.0529 43.3589
Co 16.6757 31.9741 41.4918
Pd 14.8088 30.0467 45.2579
Pd 16.7241 30.0047 47.0749
Co 16.7577 31.8946 45.2299
Pd 16.6646 33.8821 9.08249
Pd 14.7694 33.8901 10.9647
Pd 14.7624 35.8086 12.8778
Pd 16.6515 33.8977 12.8789
Co 16.7053 35.7523 11.0147
Pd 14.758 33.8969 14.7684
Pd 14.7576 35.8036 16.6753
Pd 16.6628 33.8908 16.6812
Co 16.6441 35.8108 14.7633
Pd 14.7661 33.8872 18.5843
Pd 14.7676 35.7844 20.4888
Pd 16.6766 33.8745 20.4988
Co 16.6674 35.7853 18.5873
Pd 14.7817 33.8712 22.4074
Pd 14.782 35.7708 24.3216
Pd 16.6868 33.864 24.3224
Co 16.6768 35.7743 22.4069
Pd 14.7886 33.8639 26.2376
Pd 14.7847 35.7664 28.1575
Pd 16.6896 33.8595 28.1502
Co 16.6852 35.7644 26.2382
Pd 14.7872 33.8624 30.0676
Pd 14.7759 35.7714 31.9897
Pd 16.6851 33.8614 31.9733
Co 16.6825 35.7655 30.0693
Pd 14.7771 33.8702 33.8901
Pd 14.7715 35.7827 35.8026
Pd 16.6771 33.8699 35.7906
Co 16.6788 35.7682 33.8882
Pd 14.7741 33.8724 37.7051
Pd 14.7813 35.7805 39.599
Pd 16.6708 33.8696 39.5923
Co 16.6614 35.7858 37.7121
Pd 14.7901 33.8592 41.5076
Pd 16.6873 33.8449 43.3893
Co 16.7269 35.7201 41.4597
Pd 16.6474 37.6927 12.877
Pd 14.7614 37.6931 14.7626
Pd 14.7636 39.6059 16.6822
Pd 16.6498 37.696 16.6758
Co 16.701 39.5551 14.8171
Pd 14.7605 37.692 18.5712
Pd 14.7652 39.5915 20.4853
Pd 16.6672 37.6843 20.4895
Co 16.6502 39.6008 18.5689
Pd 14.7697 37.6809 22.4004
Pd 14.7763 39.5702 24.3163
Pd 16.6791 37.6683 24.3222
Co 16.6755 39.5705 22.4046
Pd 14.7814 37.6676 26.2415
Pd 14.7791 39.566 28.1703
Pd 16.682 37.664 28.158
Co 16.6797 39.5643 26.2419
Pd 14.7753 37.6723 30.0823
Pd 14.7735 39.5788 32.0008
Pd 16.6757 37.6715 31.9902
Co 16.6811 39.5621 30.0789
Pd 14.7715 37.6751 33.9108
Pd 14.7776 39.5852 35.8032
Pd 16.664 37.6749 35.8032
Co 16.6615 39.584 33.9141
Pd 14.7783 37.6685 37.7187
Pd 16.6676 37.6638 39.6017
Co 16.7179 39.5304 37.6649
Pd 16.6539 41.4866 16.6874
Pd 14.7713 41.481 18.5734
Pd 14.7785 43.3807 20.4952
Pd 16.6631 41.4772 20.4898
Co 16.7168 43.3379 18.6346
Pd 14.775 41.4693 22.3904
Pd 14.7841 43.3551 24.3177
Pd 16.6793 41.461 24.318
Co 16.6705 43.3693 22.3908
Pd 14.7779 41.4606 26.2452
Pd 14.7868 43.351 28.1761
Pd 16.6821 41.4568 28.1693
Co 16.6942 43.3346 26.2454
Pd 14.7804 41.461 30.0997
Pd 14.7868 43.3688 31.9982
Pd 16.6714 41.4649 31.9971
Co 16.676 43.3613 30.0998
Pd 14.7823 41.4646 33.9161
Pd 16.6678 41.4662 35.7986
Co 16.7277 43.3221 33.8553
Pd 16.6751 45.2545 20.5116
Pd 14.7912 45.2326 22.3924
Pd 14.8032 47.1005 24.3079
Pd 16.69 45.2293 24.3216
Co 16.7473 47.0791 22.4686
Pd 14.814 45.2055 26.2486
Pd 14.806 47.0968 28.1926
Pd 16.6927 45.2254 28.1726
Co 16.7151 47.0634 26.2487
Pd 14.7967 45.2249 30.1047
Pd 16.6832 45.2429 31.9822
Co 16.7526 47.0717 30.0286
Pd 16.7328 48.8925 24.377
Pd 14.8641 48.8153 26.2517
Pd 16.7354 48.889 28.1235
Pd 18.6047 5.30667 20.4714
Pd 20.544 3.53486 20.5102
Co 20.553 5.36884 18.6165
Pd 18.6434 3.53784 22.4143
Pd 18.6442 5.35028 24.3168
Pd 20.5178 3.44417 24.2887
Co 20.5236 5.33276 22.3923
Pd 18.6104 3.45951 26.1908
Pd 18.6492 5.34341 28.0785
Pd 20.5147 3.43697 28.0853
Co 20.5355 5.30217 26.1927
Pd 18.6623 3.52433 29.981
Pd 18.6241 5.28439 31.9282
Pd 20.5713 3.51346 31.896
Co 20.53 5.32001 30.0023
Co 20.5813 5.33636 33.7798
Pd 18.5833 9.07535 16.6531
Pd 20.4802 7.21029 16.6626
Co 20.5216 9.13924 14.7881
Pd 18.5985 7.20238 18.5485
Pd 18.5864 9.08354 20.4597
Pd 20.4953 7.20328 20.4747
Co 20.4732 9.08305 18.5476
Pd 18.6054 7.20531 22.3657
Pd 18.5988 9.10492 24.2771
Pd 20.5255 7.21873 24.293
Co 20.5045 9.10581 22.3792
Pd 18.614 7.23654 26.2008
Pd 18.6026 9.09891 28.1318
Pd 20.5279 7.21304 28.1033
Co 20.5147 9.11303 26.2018
Pd 18.6152 7.19183 30.0381
Pd 18.5983 9.06484 31.9499
Pd 20.5074 7.18483 31.9276
Co 20.5106 9.09465 30.0261
Pd 18.6184 7.17389 33.8552
Pd 18.6027 9.0429 35.7527
Pd 20.5051 7.17212 35.7376
Co 20.4873 9.05925 33.8595
Co 20.5365 9.10733 37.6148
Pd 18.5732 12.8728 12.8449
Pd 20.4648 10.9992 12.8476
Co 20.5182 12.939 10.9855
Pd 18.5767 10.9873 14.7315
Pd 18.565 12.8693 16.6465
Pd 20.4657 10.9891 16.6503
Co 20.4563 12.8722 14.7357
Pd 18.5743 10.9816 18.5439
Pd 18.5753 12.8812 20.4605
Pd 20.4866 10.9907 20.4638
Co 20.4808 12.888 18.5614
Pd 18.583 10.9897 22.3694
Pd 18.5887 12.8868 24.2931
Pd 20.501 11.0014 24.2904
Co 20.4908 12.8922 22.3796
Pd 18.5942 10.9924 26.2073
Pd 18.5919 12.8818 28.1274
Pd 20.504 10.9964 28.1205
Co 20.4984 12.8942 26.2085
Pd 18.59 10.9785 30.0454
Pd 18.5846 12.866 31.9591
Pd 20.4957 10.9751 31.9477
Co 20.4968 12.8825 30.0377
Pd 18.5873 10.9586 33.8693
Pd 18.579 12.8435 35.769
Pd 20.4806 10.9621 35.7589
Co 20.4925 12.8684 33.8546
Pd 18.5918 10.9541 37.6769
Pd 18.5885 12.8363 39.5663
Pd 20.4809 10.9609 39.558
Co 20.4707 12.8417 37.6763
Co 20.5302 12.8995 41.4217
Pd 18.588 16.6922 9.05513
Pd 20.474 14.812 9.05085
Co 20.5376 16.7663 7.20399
Pd 18.5789 14.7954 10.9308
Pd 18.5644 16.6723 12.8524
Pd 20.4598 14.7857 12.8524
Co 20.46 16.6817 10.9469
Pd 18.5626 14.7756 14.7403
Pd 18.5664 16.6756 16.6587
Pd 20.4733 14.7789 16.6559
Co 20.4746 16.6842 14.7659
Pd 18.569 14.7752 18.5584
Pd 18.5806 16.6816 20.4773
Pd 20.486 14.7879 20.4742
Co 20.4823 16.6838 18.5719
Pd 18.5832 14.7832 22.3822
Pd 18.5896 16.6843 24.3014
Pd 20.4947 14.7911 24.2976
Co 20.4928 16.6895 22.3904
Pd 18.5891 14.7825 26.2129
Pd 18.5928 16.68 28.1295
Pd 20.4978 14.7865 28.1253
Co 20.498 16.6885 26.2141
Pd 18.5896 14.7739 30.0432
Pd 18.5898 16.6688 31.9524
Pd 20.4951 14.7743 31.9482
Co 20.4991 16.6811 30.0377
Pd 18.5808 14.7567 33.8649
Pd 18.5801 16.6539 35.7684
Pd 20.4869 14.7561 35.7639
Co 20.4943 16.6671 33.8551
Pd 18.5765 14.7461 37.678
Pd 18.5789 16.6394 39.5679
Pd 20.4741 14.7526 39.5615
Co 20.4901 16.6583 37.6576
Pd 18.5918 14.7561 41.4831
Pd 18.6019 16.6494 43.3643
Pd 20.4839 14.7709 43.3592
Co 20.4741 16.6426 41.4676
Co 20.5455 16.7359 45.2184
Pd 18.6476 20.5571 5.31868
Pd 20.517 18.6594 5.2871
Co 20.5266 22.4598 5.35355
Pd 18.6056 18.6247 7.15351
Pd 18.5876 20.4975 9.07948
Pd 20.4751 18.612 9.07223
Co 20.4934 20.5398 7.16912
Pd 18.5716 18.5889 10.9559
Pd 18.5686 20.4882 12.876
Pd 20.4731 18.586 12.8718
Co 20.483 20.5036 10.9928
Pd 18.566 18.5781 14.7659
Pd 18.5765 20.49 16.6807
Pd 20.4807 18.587 16.6775
Co 20.479 20.493 14.7857
Pd 18.5782 18.584 18.5763
Pd 18.5872 20.493 20.4907
Pd 20.491 18.5903 20.487
Co 20.4888 20.4955 18.5891
Pd 18.5885 18.5869 22.394
Pd 18.5964 20.4932 24.3092
Pd 20.4985 18.592 24.3055
Co 20.4978 20.4968 22.4002
Pd 18.5948 18.5859 26.2179
Pd 18.5996 20.4893 28.1311
Pd 20.5017 18.588 28.1275
Co 20.5034 20.4952 26.2189
Pd 18.5949 18.5789 30.0414
Pd 18.5966 20.4813 31.9493
Pd 20.5004 18.5784 31.9459
Co 20.5042 20.4892 30.0376
Pd 18.5902 18.5678 33.8579
Pd 18.5913 20.4702 35.7577
Pd 20.4956 18.5673 35.7543
Co 20.5015 20.4804 33.8488
Pd 18.5819 18.5535 37.665
Pd 18.5858 20.4597 39.56
Pd 20.4902 18.5564 39.5562
Co 20.4968 20.4703 37.6518
Pd 18.5842 18.5497 41.4671
Pd 18.6014 20.4481 43.349
Pd 20.4906 18.5652 43.3377
Co 20.4996 20.47 41.4386
Pd 18.6503 18.573 45.2925
Pd 18.6743 20.4602 47.144
Pd 22.3897 16.6915 47.0869
Co 20.5071 20.4626 45.2421
Co 20.5787 18.6611 47.0614
Pd 18.6741 22.4765 3.49211
Pd 18.6473 24.3333 5.36987
Pd 20.5037 24.3314 3.39526
Co 20.4858 26.3948 1.93561
Pd 18.6341 22.4241 7.18611
Pd 18.5908 24.3185 9.11102
Pd 20.494 22.4209 9.11324
Co 20.523 24.3296 7.20177
Pd 18.5757 22.4008 10.9935
Pd 18.577 24.318 12.8994
Pd 20.4814 22.4069 12.9008
Co 20.4878 24.3234 11.0181
Pd 18.5759 22.4017 14.7884
Pd 18.5805 24.3163 16.695
Pd 20.4858 22.4048 16.6952
Co 20.4834 24.3192 14.8048
Pd 18.5843 22.4024 18.5915
Pd 18.5919 24.315 20.5005
Pd 20.4955 22.4054 20.4989
Co 20.4916 24.3171 18.6006
Pd 18.5952 22.4026 22.4034
Pd 18.6013 24.3123 24.3151
Pd 20.5034 22.4042 24.3122
Co 20.5012 24.3152 22.4079
Pd 18.6018 22.4001 26.2224
Pd 18.6045 24.3084 28.1341
Pd 20.5066 22.4004 28.13
Co 20.5069 24.312 26.2232
Pd 18.6016 22.395 30.0415
Pd 18.6014 24.3033 31.9491
Pd 20.5052 22.3941 31.9439
Co 20.5077 24.3075 30.039
Pd 18.597 22.387 33.8533
Pd 18.5958 24.2966 35.7547
Pd 20.5019 22.386 35.7484
Co 20.5047 24.3019 33.8475
Pd 18.5932 22.3774 37.6547
Pd 18.5958 24.2892 39.5465
Pd 20.5007 22.3808 39.5428
Co 20.5026 24.2963 37.6438
Pd 18.5938 22.3698 41.449
Pd 18.6012 24.2896 43.3433
Pd 20.5045 22.3786 43.329
Co 20.504 24.2941 41.435