4033
Atoms. Timestep: 21127
Co 34.8299 35.5557 29.0252
Pd 16.9954 26.63 35.0462
Pd 19.6142 22.5681 27.4415
Co 22.5553 27.8789 49.3939
Pd 7.36461 33.3075 23.6003
Pd 42.6309 12.1388 23.6483
Pd 11.5724 20.7851 21.2233
Co 21.4483 26.5022 29.6453
Co 14.5618 10.2461 33.9387
Pd 31.5467 43.2979 24.4517
Pd 14.2489 32.0012 32.178
Co 13.8678 32.1951 37.4892
Pd 23.1967 22.2397 24.5184
Pd 30.4375 20.8888 5.72296
Pd 23.2169 35.082 44.3124
Co 22.4942 39.3923 37.9396
Pd 19.1947 12.9462 32.4872
Pd 25.0072 16.4472 44.0944
Pd 33.4112 35.8892 5.9951
Co 17.5467 38.7831 15.5468
Pd 12.5785 26.278 43.9977
Pd 36.7192 13.9743 18.6251
Pd 14.4239 32.6753 25.383
Co 19.0584 43.0472 18.5847
Co 15.5557 31.1814 41.457
Pd 17.514 38.1193 43.573
Pd 27.3992 25.0944 38.8872
Co 27.9769 19.9181 5.96508
Pd 9.54799 23.1673 25.1141
Pd 17.0563 20.0226 6.8305
Pd 26.0619 16.833 9.76836
Co 22.2702 31.2378 11.5346
Pd 14.3287 26.7711 35.208
Pd 25.327 23.4445 39.0922
Pd 16.1427 28.0579 37.2256
Co 10.9356 23.4489 18.4042
Pd 32.0768 20.922 18.6493
Pd 14.0632 13.1339 20.7345
Pd 15.7294 33.3614 35.8484
Co 28.1834 29.5759 30.8737
Pd 12.7491 25.385 22.0254
Pd 37.9851 27.7322 11.221
Pd 12.4992 23.1465 20.421
Co 32.7448 21.7444 33.8353
Pd 7.03999 26.8363 37.686
Pd 34.5624 17.0157 40.5589
Pd 11.1164 28.3972 29.5185
Co 18.4972 14.5016 24.7168
Co 19.7992 37.9133 20.7848
Pd 16.3498 10.3073 25.4594
Pd 7.47188 35.8351 33.0488
Pd 30.7877 21.243 3.22143
Pd 12.9872 27.6919 20.4028
Co 14.4979 27.9941 43.7866
Pd 10.0769 30.906 29.4787
Pd 26.8821 29.613 28.7342
Pd 16.027 14.476 24.0881
Co 35.6112 27.9875 44.1482
Pd 20.6391 28.467 44.7701
Pd 17.0883 23.4255 27.1768
Pd 15.2498 24.0389 8.48268
Co 17.9264 29.1352 23.6764
Pd 28.0049 6.5732 31.7659
Pd 31.449 15.603 37.9639
Pd 22.1392 38.1573 40.5937
Co 12.2063 29.3945 12.469
Pd 16.2227 12.5361 28.2701
Pd 12.2023 23.157 25.1412
Pd 18.026 31.3229 30.895
Co 19.7863 29.1462 10.4185
Pd 26.8649 37.5756 39.8437
Pd 29.2515 37.549 24.6437
Pd 23.6648 5.74157 21.3282
Co 24.0284 45.4588 41.5235
Pd 35.8114 7.35932 27.5974
Pd 23.7477 19.8246 6.6592
Co 13.1339 24.4267 34.6178
Pd 25.834 21.7181 23.5973
Pd 10.5724 30.1899 43.4589
Pd 25.466 11.4505 11.6656
Pd 35.1628 23.0286 33.6103
Co 5.01591 22.8869 24.8583
Pd 19.7838 43.5839 31.7868
Pd 27.9636 19.6308 34.1171
Pd 22.8741 12.7413 18.2471
Co 23.8661 28.8372 18.944
Pd 11.0204 19.7522 42.3917
Pd 21.3552 11.8962 33.6893
Pd 48.215 18.7912 31.4512
Co 22.9223 25.325 9.37937
Pd 29.1886 20.3014 39.5391
Pd 33.878 7.27919 23.7667
Pd 12.1643 32.0596 28.0543
Co 24.0556 22.8243 44.4838
Pd 20.9105 42.4138 20.5763
Pd 21.6878 42.7132 29.9154
Co 14.6843 26.4575 26.5878
Pd 36.0794 31.9404 19.0106
Pd 27.5242 26.502 6.35127
Pd 11.5706 37.5883 30.0391
Pd 23.2231 15.0745 25.2752
Co 16.2886 34.4496 15.2568
Pd 5.4051 30.2035 32.4526
Pd 31.3784 20.6438 9.19034
Pd 23.1364 28.3571 45.8728
Co 11.2501 33.1265 30.2574
Pd 26.3937 31.9882 27.3926
Pd 21.0581 41.6908 13.1226
Co 8.64638 28.7167 14.9195
Pd 39.7898 12.3957 35.7242
Pd 44.8682 21.4951 26.9351
Pd 31.6486 33.7308 9.71471
Co 10.6094 14.7119 20.238
Co 8.9979 29.5555 20.3985
Pd 17.4179 20.2792 15.1367
Pd 6.36504 35.3895 25.182
Co 46.0416 13.5117 31.7992
Pd 32.3327 47.9695 32.1986
Pd 31.8328 29.2675 28.8976
Pd 32.9194 38.3635 11.2714
Co 30.6216 25.1895 15.4787
Co 25.6013 9.49673 35.2081
Pd 23.0226 28.7454 12.2474
Pd 30.4557 23.6121 35.1281
Co 39.3083 16.5745 36.3756
Pd 21.4073 16.917 24.9086
Pd 16.736 30.1374 19.2717
Pd 45.7422 18.0993 31.6163
Co 25.7931 20.7813 5.21191
Pd 46.6192 20.1406 33.3536
Pd 9.80474 29.7867 33.9455
Pd 27.4972 11.0374 34.6578
Co 4.91882 30.1596 24.9592
Pd 25.4817 24.9637 43.3927
Pd 7.42321 19.3012 24.2017
Pd 18.1963 17.067 40.2025
Co 39.005 40.6026 28.9496
Co 19.3071 12.2269 25.1198
Pd 24.3198 41.9222 44.5506
Pd 7.22936 22.0082 24.1386
Co 15.8278 6.83065 22.6296
Pd 18.6231 14.3016 11.5436
Pd 3.17603 18.2544 24.7976
Pd 16.1298 9.07316 15.0997
Co 44.0131 14.1768 33.1091
Pd 44.2052 12.8985 18.755
Pd 9.54962 9.28679 24.0304
Pd 9.45512 34.7392 25.594
Co 13.5563 33.7106 11.7403
Pd 18.7886 26.6467 33.1025
Pd 10.1029 11.2185 25.6593
Pd 32.9412 8.21532 32.582
Co 4.90624 19.6523 27.9651
Pd 13.508 38.9901 34.918
Pd 13.2209 21.0011 37.733
Pd 18.5432 31.9008 46.4108
Co 12.455 17.4985 11.801
Pd 27.8649 32.0397 29.6714
Pd 27.2821 34.4476 30.6935
Pd 39.5635 22.5715 8.08718
Co 6.83587 28.9217 24.0493
Co 13.0574 36.8408 41.4878
Pd 34.8579 22.1278 5.39222
Pd 11.6621 16.6915 21.5648
Co 22.2858 35.7871 30.7003
Pd 17.4905 28.352 21.1711
Pd 17.8473 8.43128 27.1756
Pd 32.4381 7.86333 19.9738
Co 24.4205 7.8992 29.8829
Pd 15.985 8.39532 20.6158
Pd 40.2757 15.1579 30.1058
Pd 5.04413 17.4825 21.0053
Co 6.80757 32.2875 17.0379
Pd 35.5965 28.2513 9.66042
Pd 47.6722 29.6787 26.2748
Pd 24.2995 14.928 6.06874
Co 30.5169 24.3672 28.4106
Pd 8.87791 24.6588 27.3463
Pd 34.0164 42.519 38.6619
Pd 24.0785 22.5747 6.49845
Co 18.8137 18.3576 32.5508
Pd 32.8161 35.5925 46.331
Pd 43.1699 33.3963 40.4236
Pd 44.2019 17.2754 29.5076
Co 10.7666 30.7023 18.9039
Pd 17.045 5.57175 34.7596
Pd 10.073 31.524 31.9795
Pd 10.7829 27.7904 37.475
Co 32.4659 46.2435 28.3396
Pd 27.273 26.6917 36.7137
Pd 20.0737 49.0842 24.5999
Pd 15.3603 28.7971 9.30341
Co 40.2996 21.0994 21.3257
Co 25.1221 17.5712 39.5827
Pd 18.9123 46.7844 24.9562
Pd 38.9709 9.99833 13.4223
Pd 27.0449 21.4151 38.3372
Pd 11.3031 16.2784 18.238
Co 27.3992 42.2383 39.9058
Pd 29.905 7.26247 20.6092
Pd 8.75927 27.835 17.3274
Pd 33.6704 27.5028 27.8571
Co 19.5655 24.1924 6.05667
Pd 12.9202 10.4317 36.1922
Pd 15.2733 18.6396 8.68081
Pd 16.3407 19.3337 28.8509
Co 12.1388 22.294 33.7551
Pd 26.1632 33.4757 20.4636
Pd 17.8102 44.4415 24.5825
Pd 31.4538 40.419 12.6545
Co 28.1589 36.5184 17.45
Pd 25.0828 13.6583 13.4099
Pd 19.4495 6.09839 35.8143
Pd 7.33319 16.2662 24.6648
Co 7.23038 17.9377 32.397
Pd 12.6016 26.2879 30.8888
Pd 15.4534 36.7232 23.3323
Pd 33.5433 21.8772 41.1235
Co 21.4593 24.2274 28.684
Pd 36.0217 10.1753 34.952
Pd 11.5083 18.8166 19.2872
Pd 4.42453 25.0076 36.6283
Co 16.9086 22.6535 41.7401
Pd 34.8996 31.6975 36.0551
Pd 22.7168 16.2887 45.4509
Pd 7.56251 30.9387 30.7267
Co 17.5248 37.2019 33.2885
Pd 16.8415 19.2245 33.9669
Pd 25.436 45.8867 36.6184
Co 18.3969 43.7958 27.0183
Pd 7.75756 31.3913 33.2274
Pd 12.0677 13.9709 22.1956
Pd 9.10647 25.9916 36.2452
Pd 32.1636 47.7378 19.3827
Co 16.3768 22.5287 14.2623
Pd 21.0295 35.6597 36.0631
Pd 14.0419 28.5778 30.8442
Pd 27.5976 39.9362 18.0259
Co 17.0287 39.5041 37.3046
Pd 15.8269 37.0091 14.3665
Pd 21.6601 35.4008 39.3757
Pd 10.3756 25.1602 13.0079
Co 45.8516 36.9939 31.9031
Pd 6.55169 28.4333 30.7964
Pd 14.042 41.1233 14.4828
Pd 4.85981 23.8163 20.7034
Co 14.0305 32.3863 39.9342
Pd 18.1284 36.1941 29.0891
Pd 21.1683 10.3364 30.7329
Pd 12.3471 33.8744 20.5058
Co 6.85496 27.0555 15.7982
Pd 9.94284 34.816 21.0498
Pd 6.89288 28.5791 19.037
Pd 17.817 35.3582 35.774
Co 13.1665 20.1907 15.001
Pd 11.5607 36.433 19.6528
Pd 11.2258 37.8084 38.7226
Co 29.4107 37.7282 40.6141
Pd 20.5997 15.3772 43.7513
Pd 40.1285 39.4244 14.0658
Pd 12.7071 35.3189 29.7235
Pd 4.54129 15.9097 24.9245
Co 27.8029 10.3266 24.2096
Pd 14.6892 18.1306 32.7303
Pd 27.3941 38.883 21.0121
Pd 15.2859 34.2049 38.4985
Co 13.3003 28.4292 10.5621
Pd 38.8161 31.8949 33.2404
Pd 16.2159 14.1002 10.0944
Pd 19.6721 36.4654 31.3785
Co 28.3009 40.5629 12.1328
Pd 14.4232 20.9458 25.0087
Pd 31.178 44.4747 39.4205
Pd 23.4459 25.6515 27.7712
Co 24.7242 19.2206 17.9779
Pd 25.7523 19.1616 27.6694
Pd 31.6758 39.862 28.8764
Co 36.0217 16.3695 18.319
Pd 20.5111 39.1269 12.8232
Pd 26.6686 40.5995 29.6397
Pd 20.1557 22.473 21.275
Pd 8.44578 37.9498 34.278
Co 26.3163 38.469 45.8971
Pd 16.1204 34.3374 27.8806
Pd 20.6384 45.176 26.6813
Pd 26.3609 28.6065 32.3283
Co 20.3786 13.5839 13.8424
Pd 28.0935 25.4509 25.1228
Pd 39.9585 30.4001 19.2412
Co 15.947 39.4638 13.8192
Pd 29.6595 40.9426 9.90488
Pd 30.0094 46.1467 27.8636
Pd 15.2385 35.5265 25.7531
Co 25.9824 7.5649 17.7465
Co 6.9908 22.1443 21.4596
Pd 21.4908 44.9547 41.8335
Pd 25.6304 34.0817 25.826
Co 3.88638 31.7323 28.5576
Pd 13.6257 18.3203 20.8983
Pd 17.7295 43.1958 14.6627
Pd 19.1039 11.2262 34.8591
Co 26.0288 36.6815 26.5976
Co 30.439 27.0846 44.8323
Pd 13.0917 11.3417 22.4143
Pd 44.7586 29.1032 33.2308
Co 15.4624 28.5921 17.3249
Pd 31.7807 12.4883 33.4787
Pd 11.0578 18.3704 25.9065
Pd 32.0046 26.0856 34.7608
Co 46.6632 29.1231 14.4164
Pd 30.6317 5.80182 31.7291
Pd 13.7707 30.6782 23.3515
Pd 18.816 9.84483 11.8291
Co 24.0437 41.0404 36.7691
Pd 24.7065 5.33558 28.9911
Pd 19.0126 9.68821 25.0778
Pd 10.9842 15.8121 34.1594
Co 11.7836 40.8678 32.941
Co 13.5542 16.8591 30.2979
Pd 14.5811 23.9471 30.8508
Pd 17.259 20.8446 17.8714
Co 31.6716 44.023 27.4256
Pd 13.1288 9.65191 29.4782
Pd 16.8992 15.5134 26.5208
Pd 27.7618 46.6708 31.7154
Co 14.8097 17.2606 37.2911
Pd 10.4902 39.8475 30.7861
Pd 24.9098 31.6591 25.0131
Pd 17.2141 13.3342 36.9004
Co 8.35919 14.2095 29.9522
Pd 45.5121 11.7173 23.1178
Pd 26.6548 13.4447 33.2546
Pd 26.3721 22.3599 43.5418
Co 33.381 8.20572 17.7104
Pd 18.0115 38.1518 13.0912
Pd 19.4864 12.139 37.3944
Pd 20.8252 44.6905 17.9771
Co 31.4665 24.6435 37.239
Pd 29.3678 47.8767 19.8914
Pd 32.234 15.9864 30.5073
Pd 29.6802 27.8889 47.1547
Co 18.2468 15.9717 9.8231
Co 23.5197 39.609 31.9461
Pd 34.0654 36.693 13.41
Pd 31.5621 7.33384 34.709
Co 16.9537 14.5212 17.6055
Pd 27.5571 14.7166 5.02192
Pd 12.4336 28.8598 45.1592
Pd 40.2578 25.2282 7.64239
Co 10.7789 10.6436 29.7525
Pd 25.459 41.3742 27.277
Pd 29.8019 12.3931 31.3858
Pd 18.2747 33.1617 22.042
Co 35.4253 32.0808 12.078
Pd 6.14938 26.3751 20.7101
Pd 38.2062 20.322 7.35876
Pd 10.0819 25.9191 31.5792
Co 19.3152 18.0493 34.8935
Pd 11.0656 14.3215 38.4478
Pd 5.59219 27.4769 28.5405
Pd 20.3392 17.5014 41.7751
Co 27.4009 13.5634 27.8619
Pd 27.8774 27.6581 20.4973
Pd 23.2704 40.7597 40.3333
Pd 27.1967 29.015 47.8182
Co 34.744 11.4527 36.7986
Pd 44.2019 10.3393 25.0842
Pd 9.45767 16.9534 20.194
Pd 11.6434 34.0581 15.9348
Co 22.25 19.2359 21.0104
Pd 20.3779 23.0815 24.0437
Pd 20.0005 13.2985 39.845
Pd 25.0103 23.6477 9.13405
Co 43.1801 21.3746 40.9199
Co 37.7593 32.7885 12.695
Pd 32.1975 40.4639 9.9252
Pd 22.4627 43.9853 13.6729
Co 25.06 7.6603 22.3359
Pd 28.8177 27.6834 29.2714
Pd 13.6898 17.4585 18.2979
Pd 18.2539 48.1363 22.7577
Co 20.7872 31.1532 9.26468
Pd 8.84148 20.2832 39.1819
Pd 28.8399 11.6199 22.3094
Pd 38.5832 35.367 8.32894
Co 5.7645 17.4201 28.7125
Pd 29.1316 38.0862 19.2447
Pd 9.3682 27.508 27.0153
Pd 3.17433 26.4403 24.207
Co 34.2095 14.2745 23.7434
Pd 27.4946 13.4231 30.5288
Pd 26.1753 16.7545 12.7324
Pd 26.7457 27.6006 39.5764
Co 31.126 26.8495 29.0072
Pd 7.26579 17.3438 36.4165
Pd 17.7075 9.34102 39.6858
Pd 18.6633 40.1952 22.0475
Co 25.2185 11.3821 33.6686
Pd 11.1742 35.6259 40.2666
Pd 17.2769 43.3712 31.0277
Pd 15.212 6.20374 31.5553
Co 19.8048 4.89089 21.9729
Pd 39.9849 20.903 33.4417
Pd 14.8587 35.4704 42.8922
Pd 14.372 34.641 31.8774
Co 24.6525 35.1244 30.6924
Pd 19.2176 33.2811 8.92583
Pd 11.4659 20.6623 23.9045
Pd 19.5254 10.8885 22.7635
Co 28.2405 2.64043 28.1268
Pd 3.94459 29.3331 27.4277
Pd 16.2188 25.3669 37.3066
Pd 17.1403 33.563 10.6661
Co 22.5746 27.6151 43.4525
Co 23.335 35.8764 22.2664
Pd 23.8389 48.8082 31.9998
Pd 21.1007 47.2988 17.8687
Pd 19.1939 14.5518 16.3546
Pd 28.9813 28.0973 42.9241
Co 23.9621 37.2236 31.8893
Pd 18.6614 35.5652 21.0222
Pd 40.5623 26.8629 24.8829
Pd 7.98338 15.6446 38.3701
Co 21.8516 30.4916 39.8632
Pd 8.30357 37.0413 26.7638
Pd 33.3514 23.6469 45.802
Pd 7.65705 30.2925 40.1333
Co 7.0133 21.2047 35.1416
Pd 20.2127 17.5101 16.834
Pd 25.6279 25.7235 4.71886
Pd 8.27065 24.5784 38.376
Co 6.49229 29.0627 36.2881
Pd 19.1988 16.8278 26.249
Pd 9.78759 15.87 40.2298
Pd 22.1528 24.2535 31.1458
Co 15.2569 15.9239 13.7408
Pd 11.2672 36.7933 14.7233
Pd 21.4817 4.05752 32.0971
Pd 14.7098 31.2258 34.6206
Co 43.781 13.9508 27.3965
Pd 36.2787 21.9871 41.2222
Pd 33.4754 29.2833 40.1744
Pd 21.4759 8.77963 26.4639
Co 13.6705 20.7245 19.8784
Pd 12.2415 39.8282 28.9166
Pd 4.68889 27.5118 32.2908
Pd 28.5698 23.0957 44.9596
Co 14.4564 20.2384 39.7372
Pd 16.4911 28.093 25.5871
Pd 25.6181 29.3184 41.4045
Pd 6.00132 35.5522 19.9497
Co 23.9955 12.98 37.6468
Pd 4.6014 14.5908 31.7769
Pd 9.66287 15.2383 31.9812
Pd 18.6703 38.0807 27.1837
Co 26.2238 39.7095 38.0333
Pd 26.2294 5.3201 22.3416
Pd 24.7095 36.2307 24.4165
Co 4.39773 21.0006 31.1034
Pd 17.4348 37.0273 41.1562
Pd 22.1404 24.8924 14.8628
Pd 28.7809 4.74588 29.7424
Pd 17.2619 22.4536 7.77765
Co 23.4227 17.2517 18.7179
Pd 14.1691 22.7647 18.3478
Pd 28.0809 35.1291 44.0578
Pd 33.6248 15.6278 27.8874
Co 19.7832 34.6905 23.3541
Pd 23.9648 20.0924 40.259
Pd 16.0736 13.422 12.7892
Pd 27.7792 33.9665 18.2709
Co 16.4266 46.2956 23.4823
Pd 4.89648 24.9925 27.6696
Pd 20.4611 42.6131 43.2949
Pd 25.2034 19.2458 25.0487
Co 26.951 9.55442 21.9249
Pd 18.885 34.8178 33.3875
Pd 27.4028 38.6072 36.166
Pd 25.8941 18.4805 6.42836
Co 20.3451 26.5496 42.9475
Pd 6.65156 28.8904 21.5652
Pd 19.1511 15.6039 33.0282
Pd 30.1879 12.3925 12.941
Co 39.2628 33.9975 34.8789
Pd 36.3835 30.4107 43.5745
Pd 15.0013 45.3268 19.9619
Pd 15.6054 24.3047 35.0804
Co 23.9881 34.2489 38.9735
Pd 41.5618 21.3521 19.0094
Pd 26.1102 35.5759 22.2075
Pd 17.3837 17.0235 24.3934
Co 34.1814 39.7533 28.6792
Pd 25.6098 43.0237 23.229
Pd 40.6231 27.3345 38.257
Co 24.7318 37.136 44.5056
Pd 35.9808 36.0626 15.1842
Pd 20.9809 41.769 33.782
Pd 11.317 26.8956 16.7172
Pd 18.9438 22.1807 14.0713
Co 14.4495 45.8259 24.9803
Pd 35.8848 14.3612 32.3771
Pd 21.1074 21.9 9.63256
Pd 23.5509 5.41522 14.5898
Co 14.6075 29.0475 41.4388
Pd 28.3723 43.6377 23.1102
Pd 16.0903 42.9867 37.4057
Pd 14.2634 15.8091 22.481
Co 3.97448 23.8597 34.2203
Pd 18.9587 36.6697 18.6635
Pd 29.7355 7.19598 36.8387
Pd 27.099 41.3261 9.74821
Co 34.824 35.9919 17.7974
Pd 14.437 41.4731 17.2951
Pd 40.746 20.6004 41.7414
Pd 25.1478 44.1651 27.6251
Co 28.6259 5.05216 20.9044
Pd 45.2433 28.9347 27.0355
Pd 3.15484 31.5195 26.1126
Pd 13.7192 35.938 21.3701
Co 26.1147 33.6597 46.9745
Pd 27.1293 43.0567 29.0549
Pd 16.3414 20.0987 21.5498
Co 7.18174 31.2221 25.0663
Pd 14.1197 37.1387 19.0067
Pd 25.5136 24.5787 48.0422
Pd 23.7756 36.9247 8.23168
Pd 27.2428 7.60913 11.4546
Co 12.6003 41.261 25.0429
Pd 8.2315 30.9078 35.8653
Pd 30.5848 44.2461 42.0239
Pd 19.4772 34.1831 11.645
Co 38.3664 35.0374 15.3828
Pd 14.7628 12.9132 32.3159
Pd 24.072 33.1875 11.2187
Pd 24.7452 20.7244 11.2497
Co 17.5636 36.0365 11.232
Pd 21.4826 39.1281 33.4593
Pd 26.4657 22.8801 14.6431
Pd 38.3755 25.0377 34.9364
Co 35.6325 38.634 14.8448
Pd 39.3429 46.8623 29.2527
Pd 11.4048 34.564 34.7196
Co 38.4052 21.2528 31.3699
Pd 30.0617 27.3635 7.114
Pd 8.77996 15.4074 18.1243
Pd 22.9776 39.5773 9.19168
Pd 33.8806 21.8359 31.3696
Co 44.0852 29.3782 22.5883
Pd 25.6164 40.1883 22.8254
Pd 24.8885 45.8831 39.1766
Pd 36.7083 29.1979 27.6661
Co 39.2012 32.9597 26.1475
Pd 17.6575 28.0639 8.03683
Pd 27.5766 47.7659 26.4545
Co 14.3537 25.8169 32.8231
Pd 9.36388 18.1367 17.8825
Pd 26.5847 44.2946 21.2016
Pd 34.9434 21.9926 8.09831
Co 8.49551 34.9598 28.1928
Pd 7.01494 17.1711 19.1621
Pd 13.4867 7.77893 21.7156
Co 27.515 31.6586 47.0041
Pd 43.2358 29.7232 31.1944
Pd 19.5203 19.1238 24.6727
Pd 22.0667 9.5615 39.7384
Co 40.0317 12.7382 33.2954
Co 37.5156 13.2786 38.5491
Pd 3.50881 26.3477 29.6862
Pd 30.203 39.2922 33.0547
Co 25.5032 12.7729 9.56603
Pd 4.59083 30.7589 20.9227
Pd 27.1798 33.2811 22.9932
Pd 27.9747 22.0268 16.9549
Co 8.88964 34.1782 16.5618
Pd 26.717 14.8662 16.8601
Pd 22.4463 21.6168 30.2097
Pd 38.9867 22.462 40.5891
Co 14.9543 22.8836 37.924
Pd 6.23512 20.6669 39.5626
Pd 28.7087 18.7172 22.3584
Pd 28.345 15.1689 32.327
Co 15.3035 20.0385 10.9751
Co 29.4585 10.573 33.0821
Pd 43.2556 32.093 29.9702
Pd 33.3034 42.904 20.543
Co 20.364 16.0074 39.5661
Pd 28.6155 4.1028 32.4318
Pd 41.1151 14.2635 27.6149
Pd 23.6229 21.5282 8.97002
Co 25.905 29.591 26.2613
Pd 31.7825 12.2233 27.0395
Pd 14.9801 14.7943 36.4697
Pd 33.2475 23.9018 35.223
Co 40.2642 11.1553 23.6537
Pd 47.0297 15.6801 22.4308
Pd 23.9441 25.156 45.5032
Pd 41.5116 17.022 28.5779
Co 31.6697 37.7015 41.6345
Pd 22.96 34.4905 25.8055
Pd 23.6203 6.94404 18.9529
Pd 41.3981 37.9823 37.1095
Co 22.9869 42.032 31.8951
Pd 36.1508 7.16655 14.523
Pd 6.73819 20.7002 26.4997
Pd 35.6459 13.9295 36.6355
Co 34.4024 19.353 8.44186
Co 23.1599 46.8535 22.2521
Pd 13.1828 7.68645 27.6639
Pd 32.5126 22.8955 4.70755
Co 26.1656 28.2638 4.73588
Pd 29.6105 22.8307 15.0404
Pd 40.5174 36.2392 14.1448
Pd 31.9454 9.78579 9.21364
Co 37.1383 33.4443 7.8215
Pd 24.1318 4.48142 32.9034
Pd 35.6014 42.1949 28.5299
Pd 5.84836 23.5874 18.1025
Co 37.6418 30.5776 5.60906
Pd 44.8945 23.2668 31.1653
Pd 18.9362 41.6105 29.8092
Pd 26.2212 13.3289 6.9449
Co 35.4515 22.7914 24.1675
Pd 24.0393 31.3035 19.6504
Pd 23.4892 33.2008 14.1957
Pd 6.98108 19.346 17.4497
Co 16.0496 30.6765 24.4179
Pd 30.6426 28.4291 31.163
Pd 8.30995 11.3929 29.9836
Pd 15.8068 25.9039 18.0472
Co 38.7589 42.5454 24.7453
Pd 13.7837 5.33015 26.4899
Pd 11.4053 18.978 30.4685
Pd 22.6763 25.0032 43.1266
Co 13.4244 26.8806 28.6657
Pd 27.659 17.8418 25.9451
Pd 19.4247 14.8039 37.5243
Pd 41.9664 13.8975 17.6075
Co 22.0798 17.8493 35.2345
Co 11.1567 43.1357 26.5222
Pd 31.2251 40.8383 31.3159
Pd 17.4356 20.6138 12.329
Co 21.9863 42.9576 25.1593
Pd 20.0726 9.22121 20.5194
Pd 36.1216 12.5326 30.3082
Pd 38.639 23.5291 13.935
Co 23.3427 45.6918 17.7627
Pd 24.3538 21.4162 37.7503
Pd 19.4951 20.0174 8.43919
Pd 5.93444 21.6105 29.1189
Co 18.3334 21.7748 25.3712
Pd 16.9849 6.41048 18.9294
Pd 28.1328 8.42869 16.8285
Pd 34.7464 21.3558 45.4054
Co 25.0128 35.332 9.749
Pd 4.38902 13.5543 29.2018
Pd 20.5789 42.6767 27.4868
Pd 14.5744 26.5899 15.7918
Co 10.6973 11.2395 22.9921
Pd 29.1515 8.57185 25.5774
Pd 41.5469 23.0985 41.9277
Pd 24.0906 42.0367 12.6349
Co 40.3324 27.6915 7.69814
Pd 8.41788 20.6765 41.8462
Pd 40.7236 29.2221 36.3965
Pd 45.8066 32.5696 17.1335
Co 28.3421 28.8459 37.9258
Pd 32.405 17.1834 33.6742
Pd 22.4747 19.267 24.6831
Pd 21.8368 21.2608 47.2687
Co 4.96959 21.9527 22.7281
Pd 19.7767 7.20589 25.2884
Pd 45.1304 18.7807 15.5421
Pd 16.9752 40.6753 18.3641
Co 8.31213 33.0099 18.7886
Pd 12.5519 16.1362 13.9596
Pd 23.4464 37.0684 26.617
Pd 12.2764 26.6941 12.0077
Co 44.0325 15.7505 35.0896
Co 4.44295 30.162 36.8613
Pd 17.7825 17.8865 8.16569
Pd 14.4679 14.4579 17.9396
Co 29.4954 30.2436 28.8634
Pd 21.7497 14.0218 16.299
Pd 3.47236 17.5538 27.3961
Pd 12.174 9.11332 23.6975
Co 20.9247 18.0384 19.3196
Pd 25.0428 27.1519 20.9443
Pd 23.8289 27.4422 39.2901
Pd 14.6638 33.4795 16.8579
Co 21.3244 40.5934 42.0748
Pd 15.4282 18.814 16.1947
Pd 5.49407 37.5534 26.4538
Pd 22.597 11.9111 14.8178
Co 21.8775 31.0315 28.1756
Pd 9.66737 17.8821 38.1265
Pd 25.0522 44.7384 13.0193
Pd 11.1779 20.0666 11.6297
Co 17.7758 22.676 16.3006
Pd 38.4 17.3574 14.3303
Pd 15.8683 30.7228 36.9543
Pd 42.6216 38.8324 23.6981
Co 1.89642 22.4083 26.7928
Pd 44.8083 21.3189 16.0829
Pd 39.4901 16.1221 41.1955
Pd 34.0503 47.4902 24.8834
Co 41.7972 16.3576 34.0381
Pd 40.6819 16.8295 38.8997
Pd 24.4219 5.2704 35.3736
Pd 33.9317 16.3504 44.6202
Co 10.7483 36.9266 34.3608
Pd 26.7111 10.5137 17.7873
Pd 36.8839 40.1741 41.3006
Pd 6.40476 13.7462 33.7055
Co 25.7625 18.038 32.4841
Pd 43.7675 18.5555 25.3838
Pd 36.4332 33.786 16.9768
Pd 21.2163 33.4575 37.6273
Co 33.6294 30.0541 45.3734
Pd 9.27168 40.048 32.9695
Pd 16.3897 37.9643 35.3955
Pd 18.9026 24.7502 37.6058
Co 21.2914 12.9592 31.2092
Pd 46.0964 15.5267 33.4155
Pd 16.0364 8.09647 38.1663
Pd 6.59024 34.8095 17.4625
Co 6.76848 24.4898 36.3625
Co 38.1972 20.3856 41.7722
Pd 20.1574 23.5474 15.8217
Pd 30.1146 11.2751 38.0195
Pd 31.0937 24.0277 13.1708
Co 21.5275 37.534 16.8713
Pd 13.9491 40.0696 26.9991
Pd 32.8765 21.0106 6.92914
Pd 18.5821 20.1417 38.0705
Co 30.3044 38.6486 8.7258
Pd 24.8549 21.2301 29.0839
Pd 23.8963 29.3627 21.5428
Pd 29.2219 24.6146 6.94767
Co 29.1376 40.7116 19.8277
Pd 14.037 34.4722 23.5677
Pd 29.0474 33.6684 20.9532
Pd 31.3447 14.5088 28.2467
Co 24.1462 9.03949 17.5603
Pd 27.0322 32.552 34.8657
Pd 23.7519 32.6076 27.3077
Pd 26.41 15.1088 39.9173
Co 23.8474 23.6848 29.3857
Pd 6.6392 20.5988 32.598
Pd 35.9467 9.76527 14.6774
Pd 4.54787 21.3374 33.9334
Co 21.1844 33.3848 27.5765
Pd 45.2513 30.5477 29.1742
Pd 26.9658 42.2411 44.3592
Pd 18.726 19.2062 30.1072
Co 22.4506 37.2244 12.5514
Pd 29.2949 45.5884 15.1049
Pd 36.1709 44.6153 29.862
Pd 26.9737 17.0656 46.0481
Co 25.6974 11.2858 36.8235
Pd 16.8273 37.939 30.8312
Pd 17.3151 41.1569 39.1994
Pd 41.98 19.5662 39.4432
Co 36.3265 23.0847 31.3165
Pd 29.6235 29.0186 9.32409
Pd 29.0097 29.9653 11.7877
Pd 32.8911 45.8756 30.8835
Co 22.0964 33.9626 23.381
Pd 34.2006 30.3281 47.9266
Pd 23.9941 33.9283 41.8829
Pd 20.9223 28.183 47.3649
Co 16.1371 32.8964 23.5295
Pd 7.82459 22.6162 40.1045
Pd 39.6078 27.4402 33.894
Pd 13.2709 20.9897 43.8302
Co 24.7766 43.1069 14.8434
Pd 17.8392 41.745 36.0086
Co 13.4839 19.1002 41.9213
Pd 37.8091 37.084 22.18
Pd 21.3011 45.6736 15.5814
Pd 35.0757 43.9381 34.1501
Pd 9.6617 37.6358 36.6041
Co 4.67399 21.3033 20.4109
Pd 2.86896 20.1057 26.582
Pd 37.9935 31.1332 17.6355
Pd 24.3864 32.1275 6.91766
Co 25.1643 44.6111 19.1887
Pd 12.0952 39.1279 18.5353
Pd 20.5747 28.8947 26.8423
Pd 17.1075 25.7332 20.4605
Co 15.8185 8.28927 17.5887
Pd 17.3725 9.8598 29.5913
Pd 28.8037 26.3815 9.10406
Pd 19.5577 44.2932 29.2615
Co 26.6271 44.9009 15.216
Pd 13.0908 28.0396 22.8972
Pd 24.9168 19.2152 9.01679
Pd 6.157 35.6667 22.5375
Co 11.6705 16.7768 38.9424
Pd 22.7306 23.6442 34.093
Pd 12.4847 41.5349 35.2598
Pd 4.57095 28.8873 34.5886
Co 16.6759 15.939 11.8445
Pd 46.133 33.1036 33.94
Pd 31.8529 35.5935 15.0108
Pd 6.02412 18.8687 34.6379
Co 38.4215 40.2563 31.2411
Pd 29.4128 30.6609 43.3363
Pd 25.7964 19.2546 13.6402
Pd 24.1663 20.5401 20.0551
Co 23.4827 36.2636 35.2257
Pd 36.7932 9.78788 19.8822
Pd 27.3302 32.6304 7.4549
Pd 36.5485 36.161 31.532
Co 20.3145 32.2529 29.7723
Pd 15.0698 35.9285 36.3708
Pd 18.632 10.3967 31.9969
Pd 33.5099 37.953 38.9418
Co 16.1548 37.3483 27.5413
Pd 23.053 17.2133 5.49588
Pd 26.7388 44.0204 38.1539
Co 14.8006 22.7078 40.3989
Pd 14.5088 5.6951 29.0234
Pd 30.1609 23.6144 23.2769
Pd 30.1233 22.9493 32.5253
Pd 40.2703 33.9445 21.4983
Co 25.3996 7.37047 34.2714
Pd 29.539 16.3082 42.5886
Pd 9.39179 39.4015 25.5266
Pd 25.6749 35.6462 17.5021
Co 21.7818 40.4503 35.8488
Pd 8.13197 16.9048 30.1533
Pd 31.711 22.9349 30.1567
Pd 23.8417 27.7348 32.8235
Co 15.2712 36.232 40.2928
Pd 17.5057 31.321 34.9471
Pd 35.3253 38.2342 22.4227
Pd 13.0447 28.8344 15.9129
Co 29.4358 27.4345 11.5226
Pd 20.6505 40.1557 39.6969
Pd 32.3844 32.4649 16.1107
Pd 29.1467 41.8845 17.3843
Co 21.8164 38.062 35.819
Pd 16.0324 44.6599 26.6037
Pd 34.4403 37.7435 27.036
Pd 22.8785 46.4582 37.1805
Co 19.7115 27.9624 31.1701
Pd 29.9498 35.0089 26.1792
Pd 32.5808 10.9046 11.6788
Pd 13.7432 33.0168 29.8822
Co 12.8199 43.08 33.136
Pd 18.4808 40.6795 13.9118
Pd 13.8991 20.4798 22.464
Pd 26.7655 42.2473 13.4018
Co 17.2868 44.4277 19.4467
Pd 9.65454 17.9291 23.8122
Pd 22.1822 6.25996 25.6593
Co 36.8815 33.4113 25.4314
Pd 17.2192 46.6289 20.7608
Pd 25.3052 39.7467 16.9281
Pd 3.57836 18.6983 29.8957
Pd 7.39686 37.7744 24.4596
Co 12.7115 17.8459 16.0522
Pd 25.438 26.9913 46.8219
Pd 28.3578 5.34629 13.9849
Pd 17.7827 25.2382 7.53052
Co 23.1448 21.0414 33.4869
Pd 34.6428 29.5752 29.3977
Pd 15.9416 40.5772 21.2342
Pd 15.4392 30.1932 26.7423
Co 21.4231 10.6831 24.7307
Pd 32.8913 25.7815 39.4484
Pd 23.8397 7.61476 36.26
Pd 37.0733 22.2962 38.6011
Co 23.0625 44.8528 26.2862
Pd 36.8402 39.899 27.9382
Pd 34.9606 40.3071 26.2571
Pd 24.4043 38.4683 39.1911
Co 25.4331 38.7182 30.6461
Pd 19.7419 33.2505 35.4357
Pd 23.0956 29.3547 34.8221
Pd 27.1773 7.58683 23.96
Co 40.1177 13.1015 22.157
Pd 19.783 38.64 41.835
Pd 29.649 42.2221 43.6255
Co 40.7289 24.2502 9.9746
Pd 13.1885 29.6489 18.5294
Pd 26.0266 16.4065 27.6913
Pd 16.1428 22.0588 23.4505
Pd 20.1436 24.1101 43.3786
Co 21.3937 45.3037 30.9254
Pd 30.0048 23.4333 4.49477
Pd 11.6013 28.5308 32.1597
Pd 29.7635 37.5454 43.3517
Co 21.8466 22.6761 13.6322
Pd 43.8185 39.9872 29.6364
Pd 26.0034 23.2286 11.6881
Pd 37.913 43.8309 34.8652
Co 14.8342 27.5079 39.5212
Pd 17.9679 25.6765 43.5741
Pd 7.25124 28.8269 33.7408
Pd 30.2284 44.2295 17.3146
Co 39.6949 33.1949 8.88911
Pd 16.3882 40.5599 31.3955
Pd 17.3354 28.8813 30.2859
Co 26.1902 30.6646 33.635
Pd 19.8251 6.79193 27.9885
Pd 30.5896 9.72506 13.306
Pd 18.8933 43.9605 41.811
Pd 18.7136 44.7379 16.4336
Co 22.0305 26.7838 16.4036
Pd 43.7931 30.7934 16.058
Pd 30.4541 35.6246 36.9504
Pd 27.4792 35.5533 24.741
Co 18.3111 31.6891 24.0586
Pd 31.8842 27.1384 37.1414
Pd 13.4906 36.418 34.0988
Co 23.3004 14.4652 31.108
Pd 45.0386 20.3443 13.3528
Pd 18.7647 40.8281 27.2111
Pd 20.5606 44.7192 24.1168
Pd 38.647 32.9141 19.6737
Pd 21.6228 16.0895 27.418
Co 10.2827 18.8008 21.646
Pd 28.0006 18.4767 28.641
Pd 8.3452 16.4947 34.1457
Pd 47.62 23.9873 30.8094
Co 26.4721 4.32065 17.9211
Pd 6.91108 13.2033 28.14
Pd 12.6268 24.1763 41.6462
Pd 23.5709 16.2101 29.0513
Co 25.632 18.6527 34.765
Pd 38.7304 13.1973 29.2975
Pd 29.524 10.2761 8.17614
Pd 13.5956 22.9927 22.9654
Co 20.3773 13.2497 18.4261
Co 21.9505 21.8306 35.6996
Pd 34.6034 42.8281 17.7031
Pd 34.0764 38.3223 20.098
Co 31.6466 10.4839 31.8551
Pd 39.2998 22.8116 18.4644
Pd 30.9721 10.3636 23.215
Pd 43.18 17.5295 16.7956
Co 22.9941 29.479 37.5218
Pd 12.9324 24.1365 12.2082
Pd 16.4164 41.0755 15.6562
Pd 34.252 24.571 22.8851
Co 31.7913 41.975 42.2786
Pd 29.456 18.9986 3.955
Pd 28.1399 3.20415 25.5555
Pd 21.1301 25.9551 24.4053
Co 5.6145 19.3141 19.5062
Pd 22.1687 16.6741 21.1124
Pd 45.0778 31.6344 31.9648
Pd 24.698 7.28541 24.9462
Co 32.9631 28.9269 9.43166
Pd 26.1374 21.3254 7.5642
Pd 24.0282 30.4299 32.4802
Pd 30.1879 10.2152 27.7425
Co 23.7398 21.3249 17.6412
Co 31.5669 16.7045 15.215
Pd 25.7335 23.0594 4.29985
Pd 24.6495 29.7975 8.17217
Co 23.4999 18.6688 33.4491
Pd 11.6416 19.5291 39.716
Pd 10.3285 11.4394 35.0466
Pd 5.7175 16.3159 33.8885
Co 40.2187 27.1963 12.4617
Pd 21.8332 36.2828 24.4568
Pd 8.76008 19.4547 15.5286
Pd 20.8942 11.6517 27.2123
Co 7.84304 24.449 31.6031
Pd 24.2193 20.5665 45.9768
Pd 21.6255 18.1702 7.43531
Pd 19.8503 10.8681 40.6818
Co 22.546 16.6002 9.75138
Pd 46.7767 18.3944 19.8722
Pd 13.337 13.9937 24.6324
Pd 31.7414 8.39584 30.1703
Co 14.6426 20.6789 33.1796
Pd 28.1032 14.2476 41.7999
Pd 36.2795 13.0133 27.7926
Pd 40.7193 29.2909 42.097
Co 42.3081 21.499 27.1187
Pd 21.2321 15.2897 11.8454
Pd 27.4131 25.7571 11.3458
Pd 27.5152 34.4922 27.8351
Co 8.4321 11.6429 23.8914
Pd 34.5006 8.7153 21.4764
Pd 26.5226 12.2386 40.9121
Pd 12.5453 31.2949 20.6213
Co 17.647 23.2911 21.4578
Co 21.8643 11.6886 38.3374
Pd 23.018 14.1385 43.1679
Pd 27.7852 44.8388 35.8338
Co 35.8391 20.183 6.59992
Pd 30.0633 16.6125 22.7501
Pd 27.4809 19.0609 8.54258
Pd 3.98333 29.1386 30.2062
Co 12.436 16.8763 32.3677
Pd 23.2197 38.3149 23.5846
Pd 31.2019 33.7354 47.3034
Pd 21.2842 20.753 22.956
Co 24.0541 17.1918 7.79693
Pd 24.3893 21.6513 13.5411
Pd 7.36221 21.9921 37.5321
Pd 21.4002 36.002 19.6322
Co 16.1065 41.9162 13.1854
Pd 5.70311 23.6896 38.6694
Pd 41.1333 34.4258 25.4002
Pd 42.1385 19.2464 20.4969
Co 22.706 40.6564 19.4971
Pd 14.0812 19.3777 30.3849
Pd 28.7641 12.7703 39.701
Pd 16.971 15.914 37.7938
Co 32.7441 38.2547 8.77045
Pd 11.3342 13.6968 35.7955
Pd 39.6597 17.5059 9.79196
Pd 15.2426 30.6962 29.897
Co 38.4963 21.0004 13.2992
Pd 34.4415 19.4956 18.2759
Pd 10.5475 37.3361 21.8984
Pd 25.1206 27.4076 44.2628
Co 40.3736 26.1263 27.3649
Pd 14.554 38.1377 25.3701
Pd 41.0788 25.2072 34.0595
Pd 22.576 7.37268 16.2484
Co 26.7779 19.3225 39.8609
Pd 42.9786 30.9395 33.5858
Pd 42.763 25.8562 38.2454
Pd 19.8943 19.7882 46.1939
Co 10.1303 29.3497 39.3249
Co 24.1001 15.0777 17.5608
Pd 29.9789 20.9274 23.2662
Pd 23.5286 27.0969 4.92927
Co 15.1017 26.8783 21.6975
Pd 17.1334 40.2558 11.5981
Pd 37.6532 7.5344 19.2355
Pd 46.7749 33.2751 22.1857
Co 19.0684 14.1502 30.3
Pd 23.165 29.9843 26.1308
Pd 21.5735 21.0183 7.24435
Pd 15.5761 14.183 15.4802
Co 29.9038 39.3583 26.5376
Pd 34.3592 10.0926 19.2305
Pd 18.5425 13.3223 8.99264
Pd 10.5412 29.6039 16.5453
Co 10.5852 33.9277 18.6282
Pd 15.7648 10.3755 18.9248
Pd 30.9778 39.7589 24.2662
Pd 12.8162 21.5187 41.3068
Co 3.08476 24.26 25.7096
Pd 28.9486 15.8757 27.8154
Pd 25.8035 20.81 33.1597
Pd 5.24906 16.9722 31.2605
Co 18.5463 28.1974 43.5237
Pd 29.436 26.2477 4.54528
Pd 31.3034 47.4554 34.6186
Pd 27.4346 19.2287 17.2485
Co 19.2886 4.85435 33.5056
Pd 30.8964 29.5293 45.3412
Pd 26.732 27.0409 42.2002
Pd 4.39951 18.9756 32.6063
Co 23.4828 33.0537 31.943
Pd 22.108 28.7439 31.0763
Pd 37.9668 38.2065 29.7249
Pd 18.9111 13.7817 34.9592
Co 15.2743 16.832 34.8818
Pd 29.6599 34.6415 8.00348
Pd 27.9532 22.3884 34.1042
Pd 46.9716 21.2157 19.7616
Co 3.76787 24.1677 23.2218
Pd 40.0556 9.00821 28.0679
Pd 7.61762 17.4194 22.0373
Pd 28.129 32.1642 32.3812
Co 21.427 14.4006 33.2501
Pd 30.294 8.87305 39.0007
Pd 2.98935 22.7027 32.1528
Pd 19.2257 4.86206 19.5024
Co 23.5757 32.4892 44.1163
Co 40.4582 23.1778 32.28
Pd 30.206 9.84538 20.5663
Pd 30.983 11.1291 40.6312
Pd 27.3631 34.9404 15.6191
Co 38.4901 35.9712 33.6949
Pd 34.9982 7.90952 30.1303
Pd 10.6069 13.1209 30.4429
Pd 42.9066 16.8966 11.5613
Co 15.2602 20.3059 13.7962
Pd 47.3789 22.1503 22.1946
Pd 26.8425 6.76084 29.3203
Pd 26.4944 26.4317 23.04
Co 21.8534 10.422 22.1912
Pd 16.9546 34.6712 17.9971
Pd 19.4337 40.5455 19.3094
Pd 28.5751 10.4255 15.0575
Co 27.6458 44.3407 17.451
Pd 28.361 30.4051 26.4899
Pd 23.3705 14.8172 35.9434
Pd 9.69834 15.8015 36.4841
Co 7.56432 26.7586 32.2823
Pd 30.44 35.4319 41.8079
Pd 38.2238 17.267 21.881
Pd 25.6843 16.6263 4.58069
Co 36.269 14.5635 10.8566
Pd 3.04468 26.6993 26.9636
Pd 12.9224 43.6966 20.4038
Pd 24.9779 15.847 15.0379
Co 32.763 25.1942 29.3254
Pd 39.1646 44.6958 30.7643
Pd 35.5676 43.5167 12.562
Pd 21.3726 15.6133 18.4841
Co 9.88686 22.0783 16.239
Pd 32.2024 20.6127 39.0064
Pd 20.8146 37.6231 38.2178
Pd 17.439 20.4808 42.882
Co 23.2784 6.78818 33.4889
Pd 21.9393 36.3937 33.1463
Pd 17.6359 15.6238 22.2417
Pd 31.8125 17.1711 45.9697
Co 12.4665 32.1742 35.4763
Pd 6.25891 38.5777 22.2447
Pd 45.4141 17.8277 34.304
Pd 9.03322 29.4852 25.119
Co 13.8573 33.7382 34.1754