4033
Atoms. Timestep: 20159
Co 5.47614 13.0215 26.2212
Pd 3.54908 16.7363 24.3494
Pd 5.33987 14.8055 24.2794
Co 5.36376 16.7517 22.4421
Pd 3.62385 14.8656 26.2222
Pd 3.54981 16.7349 28.0965
Pd 5.34063 14.804 28.1644
Co 5.37647 16.7154 26.2226
Co 5.36523 16.7488 30.0031
Pd 3.52346 20.545 20.5396
Pd 5.29429 18.605 20.4964
Co 5.3546 20.5549 18.6422
Pd 3.52932 18.6423 22.4429
Pd 3.43839 20.5152 24.3189
Pd 5.34369 18.6415 24.344
Co 5.3236 20.5223 22.4194
Pd 3.45662 18.6108 26.2237
Pd 3.43913 20.5137 28.1299
Pd 5.34442 18.6401 28.1027
Co 5.29816 20.5317 26.2241
Pd 3.53079 18.6394 30.0045
Pd 3.52567 20.5406 31.9093
Pd 5.29652 18.6006 31.9503
Co 5.32508 20.5194 30.0287
Co 5.35754 20.5491 33.806
Pd 3.55015 24.3543 16.7354
Pd 5.31206 22.4121 16.6929
Co 5.4059 24.3573 14.8423
Pd 3.5322 22.4514 18.6315
Pd 3.44173 24.3269 20.5083
Pd 5.33193 22.4457 20.5398
Co 5.34235 24.3232 18.6197
Pd 3.43281 22.4206 22.4143
Pd 3.4146 24.3232 24.32
Pd 5.28792 22.4239 24.3193
Co 5.28522 24.3326 22.4248
Pd 3.42138 22.4187 26.2252
Pd 3.41534 24.3218 28.1318
Pd 5.28866 22.4224 28.1303
Co 5.2707 24.3241 26.2255
Pd 3.43429 22.4177 30.0361
Pd 3.44395 24.3225 31.9435
Pd 5.33414 22.4413 31.9099
Co 5.28669 24.3297 30.0263
Pd 3.53515 22.4455 33.8188
Pd 3.55384 24.347 35.7164
Pd 5.31576 22.4048 35.7567
Co 5.34531 24.3173 33.8313
Co 5.41032 24.3486 37.6087
Pd 5.3944 26.2325 12.9684
Pd 3.62046 26.2323 14.8643
Pd 3.55113 28.1088 16.7368
Pd 5.39441 26.2311 16.7529
Co 5.40687 28.1063 14.8438
Pd 3.46346 26.2309 18.6058
Pd 3.44272 28.1334 20.5097
Pd 5.30495 26.2297 20.5159
Co 5.34334 28.1376 18.6212
Pd 3.42286 26.2294 22.4131
Pd 3.41559 28.1342 24.3215
Pd 5.27505 26.2282 24.3264
Co 5.2862 28.1253 22.4262
Pd 3.40826 26.228 26.2266
Pd 3.41633 28.1327 28.1333
Pd 5.27579 26.2267 28.1261
Co 5.27169 28.1308 26.227
Pd 3.42435 26.2265 30.0402
Pd 3.44494 28.129 31.945
Pd 5.30717 26.2253 31.9367
Co 5.28768 28.1223 30.0277
Pd 3.46643 26.225 33.8475
Pd 3.55482 28.1016 35.7178
Pd 5.39809 26.2238 35.6996
Co 5.3463 28.1317 33.8328
Pd 3.62487 26.2236 37.5889
Pd 5.39955 26.2224 39.4841
Co 5.4113 28.0976 37.6102
Pd 5.31404 30.0502 16.6958
Pd 3.53416 30.0103 18.6344
Pd 3.52642 31.9152 20.5439
Pd 5.3339 30.0136 20.5427
Co 5.35755 31.9058 18.6465
Pd 3.43479 30.0382 22.4172
Pd 3.44136 31.9422 24.3233
Pd 5.2899 30.0325 24.3222
Co 5.32657 31.9355 22.4238
Pd 3.42336 30.0373 26.2281
Pd 3.4421 31.9407 28.1343
Pd 5.29064 30.0311 28.1333
Co 5.30112 31.9232 26.2284
Pd 3.43627 30.0353 30.039
Pd 3.52863 31.9109 31.9137
Pd 5.33611 30.0092 31.9128
Co 5.32805 31.9326 30.0331
Pd 3.53712 30.0045 33.8217
Pd 5.31775 30.0429 35.7596
Co 5.3605 31.9 33.8104
Pd 5.29826 33.8543 20.5023
Pd 3.53327 33.8164 22.4488
Pd 3.55402 35.721 24.3567
Pd 5.34764 33.8148 24.3498
Co 5.36869 35.7061 22.4494
Pd 3.46058 33.8451 26.2295
Pd 3.55475 35.7195 28.1038
Pd 5.34837 33.8134 28.1085
Co 5.38142 35.7395 26.2299
Pd 3.53473 33.8135 30.0103
Pd 5.30049 33.8499 31.9561
Co 5.37016 35.7032 30.0104
Pd 5.34582 37.6509 24.2881
Pd 3.62976 37.5902 26.2309
Pd 5.34657 37.6494 28.1732
Co 5.48301 39.4333 26.2313
Co 9.23003 9.23857 26.219
Pd 7.22728 12.8841 24.2952
Pd 9.08962 11.006 24.2961
Co 9.12685 12.9243 22.415
Pd 7.28567 11.0702 26.2201
Pd 7.22803 12.8826 28.1464
Pd 9.09037 11.0046 28.1433
Co 9.09346 12.8865 26.2204
Co 9.12833 12.9214 30.0258
Pd 7.19001 16.6805 20.4863
Pd 9.06287 14.7827 20.4692
Co 9.10843 16.7232 18.6107
Pd 7.20923 14.7945 22.365
Pd 7.21177 16.6913 24.2965
Pd 9.08505 14.784 24.2918
Co 9.07332 16.6727 22.367
Pd 7.23324 14.813 26.2215
Pd 7.21252 16.6898 28.148
Pd 9.0858 14.7826 28.1505
Co 9.10461 16.6922 26.2219
Pd 7.21073 14.7915 30.078
Pd 7.19224 16.6761 31.9582
Pd 9.06511 14.7783 31.9731
Co 9.07482 16.6698 30.0767
Co 9.11139 16.7174 33.833
Pd 7.19323 20.4842 16.6853
Pd 9.05736 18.5864 16.6721
Co 9.11947 20.5273 14.8084
Pd 7.18711 18.6003 18.5702
Pd 7.19099 20.4951 20.4983
Pd 9.07066 18.5856 20.4789
Co 9.06786 20.4745 18.5684
Pd 7.1951 18.6037 22.3884
Pd 7.21154 20.5222 24.3184
Pd 9.09787 18.5943 24.2959
Co 9.09565 20.5021 22.4005
Pd 7.23345 18.608 26.223
Pd 7.21228 20.5208 28.129
Pd 9.09862 18.5928 28.1494
Co 9.10851 20.5089 26.2233
Pd 7.19659 18.6008 30.0576
Pd 7.19322 20.4907 31.9491
Pd 9.0729 18.5812 31.9664
Co 9.09714 20.4992 30.0462
Pd 7.19008 18.5944 33.8758
Pd 7.19694 20.4769 35.7621
Pd 9.06107 18.5791 35.7731
Co 9.07084 20.4687 33.8783
Co 9.12391 20.5185 37.6382
Pd 7.23332 24.3081 12.8896
Pd 9.08264 22.4009 12.8714
Co 9.16507 24.3618 11.031
Pd 7.21067 22.4036 14.7643
Pd 7.22722 24.295 16.6979
Pd 9.08311 22.3844 16.6796
Co 9.09302 24.2866 14.7708
Pd 7.19915 22.4036 18.5896
Pd 7.21393 24.3263 20.5165
Pd 9.09265 22.4 20.496
Co 9.10706 24.3093 18.5984
Pd 7.20677 22.4203 22.4214
Pd 7.185 24.3263 24.3238
Pd 9.10467 22.4208 24.3229
Co 9.10486 24.3203 22.4171
Pd 7.18938 22.4244 26.2244
Pd 7.18574 24.3248 28.1266
Pd 9.10541 22.4193 28.1253
Co 9.09958 24.3242 26.2248
Pd 7.20825 22.4174 30.0275
Pd 7.21615 24.322 31.9339
Pd 9.09488 22.3956 31.9522
Co 9.10634 24.3174 30.0325
Pd 7.20211 22.3977 33.8592
Pd 7.23092 24.2877 35.7525
Pd 9.08681 22.3771 35.7686
Co 9.11002 24.3034 33.8512
Pd 7.21513 22.3948 37.6846
Pd 7.2385 24.2978 39.5607
Pd 9.08783 22.3907 39.5767
Co 9.09747 24.2778 37.6788
Co 9.17098 24.3502 41.4186
Pd 9.17279 26.233 9.17024
Pd 7.31775 26.2328 11.03
Pd 7.23432 28.1561 12.8911
Pd 9.11926 26.2316 12.9094
Co 9.16605 28.1027 11.0325
Pd 7.25302 26.2313 14.7946
Pd 7.22823 28.1663 16.6993
Pd 9.10773 26.2301 16.6908
Co 9.09403 28.1751 14.7723
Pd 7.23833 26.2299 18.6203
Pd 7.21492 28.132 20.5179
Pd 9.11472 26.2287 20.52
Co 9.10806 28.1495 18.5999
Pd 7.19101 26.2284 22.4231
Pd 7.18599 28.1291 24.3252
Pd 9.09925 26.2272 24.3223
Co 9.10585 28.1355 22.4186
Pd 7.18067 26.227 26.2259
Pd 7.18673 28.1277 28.128
Pd 9.09999 26.2258 28.1288
Co 9.10057 28.1288 26.2263
Pd 7.19249 26.2255 30.0287
Pd 7.21714 28.1276 31.9353
Pd 9.11693 26.2243 31.9311
Co 9.10733 28.1326 30.0339
Pd 7.24129 26.2241 33.8315
Pd 7.23193 28.159 35.7539
Pd 9.11143 26.2228 35.7602
Co 9.11102 28.1437 33.8527
Pd 7.25747 26.2226 37.6571
Pd 7.23951 28.1459 39.5622
Pd 9.12444 26.2214 39.5416
Co 9.09848 28.1664 37.6803
Pd 7.32365 26.2211 41.4217
Pd 9.17942 26.2199 43.2808
Co 9.17195 28.0911 41.42
Pd 9.08464 30.0623 12.8744
Pd 7.21267 30.0592 14.7672
Pd 7.19622 31.9771 16.6897
Pd 9.08511 30.0758 16.6825
Co 9.12244 31.9344 14.8128
Pd 7.20114 30.0562 18.5926
Pd 7.19398 31.9632 20.5027
Pd 9.09464 30.0573 20.4989
Co 9.07086 31.9843 18.5728
Pd 7.20875 30.0365 22.4243
Pd 7.21451 31.9332 24.3228
Pd 9.10666 30.0336 24.3258
Co 9.09863 31.9538 22.4049
Pd 7.19136 30.0295 26.2274
Pd 7.21525 31.9317 28.1333
Pd 9.10739 30.0322 28.1282
Co 9.11148 31.9441 26.2277
Pd 7.21023 30.0336 30.0304
Pd 7.1962 31.9588 31.9535
Pd 9.09687 30.0529 31.9551
Co 9.10012 31.9509 30.0506
Pd 7.2041 30.0504 33.8622
Pd 7.19993 31.9698 35.7665
Pd 9.08882 30.0685 35.7715
Co 9.07383 31.9784 33.8827
Pd 7.21712 30.0504 37.6875
Pd 9.08983 30.052 39.5796
Co 9.12687 31.9257 37.6426
Pd 9.06133 33.8739 16.678
Pd 7.19108 33.8595 18.576
Pd 7.19498 35.7778 20.4936
Pd 9.07464 33.8718 20.4847
Co 9.11338 35.7356 18.618
Pd 7.19907 33.8532 22.3942
Pd 7.21673 35.7642 24.3038
Pd 9.10184 33.8601 24.3017
Co 9.0783 35.7832 22.3743
Pd 7.23741 33.8459 26.2288
Pd 7.21748 35.7627 28.1553
Pd 9.10259 33.8587 28.1552
Co 9.10957 35.7608 26.2292
Pd 7.20056 33.8502 30.0634
Pd 7.19721 35.7734 31.9655
Pd 9.07687 33.8674 31.9722
Co 9.07979 35.7802 30.0841
Pd 7.19405 33.8536 33.8816
Pd 9.06505 33.8666 35.779
Co 9.11634 35.7297 33.8403
Pd 9.06883 37.6747 20.4779
Pd 7.21518 37.6624 22.3738
Pd 7.23423 39.5713 24.3054
Pd 9.09101 37.6704 24.3005
Co 9.13378 39.5315 22.4252
Pd 7.23918 37.6409 26.2303
Pd 7.23498 39.5698 28.1566
Pd 9.09176 37.6689 28.1593
Co 9.1004 39.5665 26.2306
Pd 7.21668 37.6595 30.0868
Pd 9.07107 37.6703 31.9819
Co 9.13525 39.5286 30.036
Pd 9.09754 41.4484 24.3077
Pd 7.29356 41.3837 26.2317
Pd 9.09829 41.4469 28.155
Co 9.23887 43.2143 26.232
Co 13.011 5.48271 26.2168
Pd 10.9963 9.09836 24.295
Pd 12.8734 7.23504 24.2919
Co 12.9135 9.13567 22.4128
Pd 11.0607 7.29326 26.2179
Pd 10.997 9.09688 28.1422
Pd 12.8742 7.23357 28.1431
Co 12.8779 9.1001 26.2182
Co 12.915 9.13276 30.0236
Pd 10.9685 12.862 20.4683
Pd 12.8511 10.9785 20.4672
Co 12.8979 12.9089 18.5991
Pd 10.9804 10.9902 22.363
Pd 10.9789 12.8762 24.2897
Pd 12.8674 10.9866 24.2886
Co 12.8534 12.8623 22.3597
Pd 11.0081 11.0157 26.2193
Pd 10.9796 12.8747 28.1504
Pd 12.8682 10.9852 28.1493
Co 12.8809 12.8875 26.2197
Pd 10.9819 10.9873 30.0756
Pd 10.9708 12.8576 31.9718
Pd 12.8533 10.9741 31.9707
Co 12.8549 12.8593 30.0797
Co 12.9009 12.9031 33.8403
Pd 10.9618 16.6616 16.6652
Pd 12.8419 14.7704 16.6592
Co 12.8956 16.7099 14.7965
Pd 10.9647 14.7767 18.5489
Pd 10.9672 16.6664 20.4676
Pd 12.8523 14.7674 20.4625
Co 12.8456 16.6547 18.5484
Pd 10.9726 14.776 22.3659
Pd 10.9798 16.6783 24.2958
Pd 12.8698 14.7742 24.2934
Co 12.872 16.6757 22.3841
Pd 10.9777 14.7747 26.2208
Pd 10.9805 16.6769 28.1472
Pd 12.8706 14.7728 28.1474
Co 12.8745 16.6756 26.2211
Pd 10.9741 14.773 30.0757
Pd 10.9694 16.662 31.9754
Pd 12.8546 14.7629 31.9783
Co 12.8734 16.6727 30.0582
Pd 10.9677 14.7709 33.8927
Pd 10.9655 16.6543 35.7779
Pd 12.8457 14.763 35.7816
Co 12.8486 16.6488 33.8939
Co 12.9 16.7012 37.6458
Pd 10.9765 20.472 12.8659
Pd 12.8494 18.5782 12.8601
Co 12.9131 20.5254 11.0035
Pd 10.9664 18.5813 14.7482
Pd 10.9712 20.4687 16.6686
Pd 12.851 18.567 16.6608
Co 12.8514 20.4607 14.7521
Pd 10.9659 18.575 18.5604
Pd 10.978 20.4856 20.482
Pd 12.8685 18.5735 20.4738
Co 12.8725 20.4814 18.5773
Pd 10.9797 18.5798 22.3853
Pd 10.994 20.4963 24.3084
Pd 12.8796 18.5828 24.3054
Co 12.882 20.4875 22.3947
Pd 10.9882 18.5865 26.2222
Pd 10.9947 20.4948 28.1375
Pd 12.8803 18.5813 28.1384
Co 12.8895 20.4908 26.2226
Pd 10.9812 18.5769 30.0592
Pd 10.9802 20.4812 31.9639
Pd 12.8707 18.5691 31.9699
Co 12.8835 20.4845 30.0505
Pd 10.9689 18.5691 33.8841
Pd 10.9749 20.4613 35.7773
Pd 12.8547 18.5596 35.7829
Co 12.8755 20.4755 33.8679
Pd 10.9709 18.5726 37.6962
Pd 10.9817 20.4617 39.58
Pd 12.8546 18.568 39.5837
Co 12.8558 20.4519 37.6931
Co 12.919 20.5137 41.4417
Pd 11.0204 24.3113 9.09248
Pd 12.8796 22.4035 9.07637
Co 12.9673 24.3625 7.2461
Pd 10.9925 22.4037 10.9569
Pd 10.9965 24.2951 12.883
Pd 12.8655 22.3817 12.871
Co 12.8796 24.2863 10.9743
Pd 10.9782 22.3835 14.7634
Pd 10.984 24.3034 16.6787
Pd 12.8712 22.3858 16.6743
Co 12.8806 24.306 14.7828
Pd 10.981 22.3893 18.5822
Pd 10.9973 24.3106 20.4986
Pd 12.8836 22.396 20.492
Co 12.8817 24.3078 18.5869
Pd 10.9938 22.403 22.4031
Pd 11.0054 24.3184 24.3171
Pd 12.8951 22.4021 24.3108
Co 12.896 24.3125 22.4047
Pd 11.0056 22.4074 26.2237
Pd 11.0061 24.317 28.1318
Pd 12.8959 22.4006 28.1359
Co 12.9032 24.3138 26.2241
Pd 10.9953 22.4001 30.0443
Pd 10.9996 24.3062 31.9503
Pd 12.8858 22.3916 31.9547
Co 12.8975 24.3096 30.0434
Pd 10.984 22.3835 33.8652
Pd 10.9877 24.2961 35.7702
Pd 12.8749 22.3785 35.7724
Co 12.8847 24.3019 33.8613
Pd 10.9827 22.3747 37.6839
Pd 11.0017 24.2849 39.5658
Pd 12.8707 22.3715 39.5756
Co 12.8851 24.2972 37.6653
Pd 10.9984 22.392 41.4904
Pd 11.027 24.2982 43.3564
Pd 12.8863 22.3903 43.3703
Co 12.8855 24.2746 41.4738
Co 12.9747 24.348 45.202
Pd 12.9999 26.2334 5.37906
Pd 11.1228 26.2332 7.23276
Pd 11.0214 28.1538 9.09395
Pd 12.9113 26.232 9.12364
Co 12.9683 28.103 7.24753
Pd 11.0309 26.2318 10.9942
Pd 10.9975 28.1671 12.8845
Pd 12.8881 26.2306 12.8871
Co 12.8806 28.1764 10.9758
Pd 10.9934 26.2304 14.7858
Pd 10.985 28.1558 16.6802
Pd 12.8814 26.2291 16.6887
Co 12.8816 28.1538 14.7843
Pd 10.9947 26.2289 18.5929
Pd 10.9983 28.1458 20.5
Pd 12.8912 26.2277 20.4979
Co 12.8827 28.1491 18.5883
Pd 11.0069 26.2274 22.4132
Pd 11.0064 28.135 24.3186
Pd 12.9041 26.2262 24.3177
Co 12.897 28.1414 22.4062
Pd 11.0051 26.226 26.2252
Pd 11.0071 28.1335 28.1332
Pd 12.9048 26.2248 28.1319
Co 12.9042 28.1372 26.2255
Pd 11.0083 26.2245 30.0371
Pd 11.0006 28.1414 31.9518
Pd 12.8934 26.2233 31.9517
Co 12.8985 28.1385 30.0449
Pd 10.9976 26.2231 33.8574
Pd 10.9887 28.1485 35.7716
Pd 12.8852 26.2218 35.7608
Co 12.8857 28.1432 33.8627
Pd 10.9978 26.2216 37.6645
Pd 11.0027 28.1569 39.5673
Pd 12.8932 26.2204 39.5625
Co 12.8861 28.145 37.6668
Pd 11.0368 26.2201 41.4561
Pd 11.028 28.1407 43.3578
Pd 12.918 26.2189 43.3259
Co 12.8865 28.1647 41.4753
Pd 11.1302 26.2187 45.2175
Pd 13.008 26.2175 47.0705
Co 12.9757 28.0884 45.2035
Pd 12.8816 30.0606 9.0793
Pd 10.9945 30.06 10.9599
Pd 10.9795 31.9902 12.8703
Pd 12.8675 30.0795 12.8739
Co 12.9161 31.9372 11.0078
Pd 10.9802 30.0772 14.7664
Pd 10.9742 31.9906 16.6731
Pd 12.8732 30.0725 16.6772
Co 12.8544 31.9991 14.7565
Pd 10.983 30.0685 18.5851
Pd 10.9809 31.9708 20.4864
Pd 12.8856 30.0594 20.4949
Co 12.8755 31.9755 18.5817
Pd 10.9958 30.0519 22.406
Pd 10.997 31.9572 24.3128
Pd 12.8971 30.0504 24.3137
Co 12.885 31.9665 22.3991
Pd 11.0076 30.0445 26.2266
Pd 10.9977 31.9557 28.1419
Pd 12.8979 30.0489 28.1388
Co 12.8925 31.9602 26.227
Pd 10.9973 30.0489 30.0472
Pd 10.9832 31.9664 31.9683
Pd 12.8878 30.055 31.9576
Co 12.8865 31.9635 30.0549
Pd 10.986 30.0627 33.8682
Pd 10.9779 31.9833 35.7817
Pd 12.8769 30.0652 35.7753
Co 12.8784 31.9696 33.8723
Pd 10.9847 30.0685 37.6869
Pd 10.9847 31.98 39.5844
Pd 12.8727 30.0693 39.5786
Co 12.8588 31.9903 37.6975
Pd 11.0004 30.0483 41.4934
Pd 12.8883 30.0475 43.3732
Co 12.922 31.9256 41.4461
Pd 12.8533 33.883 12.8659
Pd 10.9704 33.8794 14.7541
Pd 10.9668 35.7977 16.6725
Pd 12.855 33.8914 16.6667
Co 12.9005 35.7498 14.8038
Pd 10.9699 33.8829 18.5662
Pd 10.9722 35.79 20.4749
Pd 12.8725 33.8819 20.4797
Co 12.8506 35.8022 18.5557
Pd 10.9837 33.8751 22.3912
Pd 10.9847 35.7751 24.3031
Pd 12.8836 33.8697 24.3112
Co 12.8769 35.7783 22.3914
Pd 10.9922 33.8655 26.2281
Pd 10.9855 35.7737 28.1545
Pd 12.8843 33.8682 28.1442
Co 12.8795 35.7754 26.2285
Pd 10.9851 33.8722 30.065
Pd 10.9744 35.7856 31.9828
Pd 12.8747 33.8775 31.9757
Co 12.8784 35.7753 30.0655
Pd 10.9729 33.877 33.89
Pd 10.9705 35.7903 35.7852
Pd 12.8587 33.884 35.7888
Co 12.8536 35.7963 33.9012
Pd 10.9749 33.8706 37.7021
Pd 12.8585 33.8728 39.5895
Co 12.905 35.7411 37.6531
Pd 12.8479 37.688 16.668
Pd 10.9707 37.6811 18.5577
Pd 10.9755 39.5943 20.4785
Pd 12.8583 37.6881 20.4713
Co 12.9048 39.5479 18.6093
Pd 10.9785 37.6789 22.3747
Pd 10.9858 39.5773 24.3
Pd 12.8758 37.6782 24.3022
Co 12.8604 39.5917 22.3699
Pd 10.9836 37.6773 26.2295
Pd 10.9866 39.5758 28.1606
Pd 12.8765 37.6768 28.1562
Co 12.8878 39.5634 26.2299
Pd 10.98 37.676 30.0844
Pd 10.9777 39.5899 31.982
Pd 12.8605 37.6837 31.9871
Co 12.8619 39.5887 30.0899
Pd 10.9737 37.6753 33.9015
Pd 12.8516 37.6807 35.7904
Co 12.9078 39.5421 33.8505
Pd 12.859 41.4769 20.4789
Pd 10.9883 41.4647 22.3747
Pd 11.0052 43.3551 24.3081
Pd 12.8753 41.4658 24.3003
Co 12.9224 43.3182 22.4259
Pd 11.016 41.4363 26.231
Pd 11.006 43.3536 28.1554
Pd 12.8761 41.4644 28.161
Co 12.8868 43.3509 26.2314
Pd 10.9898 41.4617 30.0873
Pd 12.8613 41.4725 31.9824
Co 12.9239 43.3153 30.0367
Pd 12.8833 45.2174 24.3065
Pd 11.0705 45.1587 26.2324
Pd 12.884 45.216 28.1576
Co 13.0218 46.9682 26.2327
Pd 14.7938 5.34664 24.2739
Pd 16.7237 3.55481 24.3418
Co 16.739 5.37058 22.4355
Pd 14.8542 3.62946 26.2158
Pd 14.7945 5.34515 28.1589
Pd 16.7245 3.55337 28.0889
Co 16.7049 5.38112 26.2161
Co 16.7404 5.36768 29.9966
Pd 14.7708 9.07185 20.4659
Pd 16.6676 7.19799 20.4808
Co 16.7102 9.11748 18.6064
Pd 14.7826 7.21711 22.3606
Pd 14.7743 9.09182 24.2885
Pd 16.6806 7.21755 24.291
Co 16.6619 9.08022 22.3626
Pd 14.8035 7.23888 26.2171
Pd 14.7751 9.09034 28.1472
Pd 16.6813 7.21607 28.1425
Co 16.6835 9.10927 26.2175
Pd 14.7841 7.21416 30.0736
Pd 14.773 9.06745 31.9698
Pd 16.6698 7.1936 31.9527
Co 16.6634 9.07727 30.0724
Co 16.7132 9.11165 33.8286
Pd 14.7582 12.8531 16.6581
Pd 16.6485 10.972 16.6619
Co 16.6967 12.9068 14.7943
Pd 14.7647 10.9748 18.5467
Pd 14.7574 12.8613 20.4614
Pd 16.6554 10.9752 20.4643
Co 16.6436 12.8547 18.5462
Pd 14.7661 10.9804 22.3637
Pd 14.7665 12.8766 24.2923
Pd 16.6696 10.9855 24.2925
Co 16.6668 12.8788 22.3819
Pd 14.7671 10.9833 26.2186
Pd 14.7672 12.8751 28.1463
Pd 16.6703 10.9841 28.1439
Co 16.669 12.8792 26.2189
Pd 14.7676 10.9775 30.0735
Pd 14.7596 12.8569 31.9772
Pd 16.6577 10.9708 31.9722
Co 16.6683 12.8759 30.056
Pd 14.7676 10.9689 33.8905
Pd 14.7619 12.8458 35.7805
Pd 16.6522 10.9647 35.7746
Co 16.6466 12.8488 33.8917
Co 16.7011 12.8981 37.6436
Pd 14.7604 16.6579 12.8579
Pd 16.6445 14.7728 12.8568
Co 16.7042 16.7176 10.9964
Pd 14.7574 14.7697 14.7409
Pd 14.7524 16.6555 16.6571
Pd 16.6443 14.7626 16.656
Co 16.6399 16.6512 14.7464
Pd 14.7539 14.764 18.5502
Pd 14.7601 16.6685 20.4709
Pd 16.6595 14.7681 20.4698
Co 16.661 16.6701 18.5709
Pd 14.761 14.7689 22.3793
Pd 14.7724 16.6762 24.3031
Pd 16.6695 14.7782 24.302
Co 16.6684 16.6752 22.3899
Pd 14.7706 14.7763 26.22
Pd 14.7731 16.6748 28.1384
Pd 16.6702 14.7767 28.1373
Co 16.6746 16.6793 26.2204
Pd 14.7625 14.7659 30.0608
Pd 14.7623 16.6641 31.9707
Pd 16.6618 14.7637 31.9696
Co 16.6698 16.6723 30.0509
Pd 14.7569 14.7581 33.8899
Pd 14.7561 16.6482 35.7844
Pd 16.648 14.7553 35.7833
Co 16.664 16.6642 33.8699
Pd 14.7619 14.7609 37.6992
Pd 14.7656 16.6476 39.5837
Pd 16.6497 14.7626 39.5826
Co 16.6443 16.6424 37.6944
Co 16.7101 16.706 41.4444
Pd 14.7845 20.477 9.07283
Pd 16.667 18.5937 9.0649
Co 16.7422 20.5453 7.21903
Pd 14.7707 18.5819 10.9457
Pd 14.762 20.465 12.8674
Pd 16.6489 18.5676 12.8649
Co 16.6549 20.4641 10.9645
Pd 14.7545 18.5657 14.753
Pd 14.7607 20.4754 16.6698
Pd 16.6577 18.5676 16.6682
Co 16.6631 20.4781 14.7785
Pd 14.7598 18.5688 18.5695
Pd 14.7753 20.4843 20.4869
Pd 16.6694 18.5781 20.4852
Co 16.6687 20.4822 18.5827
Pd 14.7733 18.579 22.3921
Pd 14.7838 20.4888 24.3091
Pd 16.6775 18.5829 24.3077
Co 16.68 20.4887 22.3997
Pd 14.7781 18.5804 26.2215
Pd 14.7846 20.4874 28.1354
Pd 16.6782 18.5815 28.1346
Co 16.6841 20.4894 26.2219
Pd 14.7748 18.576 30.0509
Pd 14.7775 20.4799 31.9575
Pd 16.6716 18.5737 31.957
Co 16.6815 20.4858 30.044
Pd 14.7628 18.5629 33.8734
Pd 14.7644 20.4681 35.7746
Pd 16.6614 18.5603 35.7741
Co 16.6717 20.4764 33.861
Pd 14.7589 18.5569 37.69
Pd 14.7672 20.4548 39.5771
Pd 16.6541 18.5574 39.5773
Co 16.6676 20.4694 37.6652
Pd 14.7766 18.5702 41.4973
Pd 14.7912 20.4638 43.3716
Pd 16.6737 18.5806 43.3774
Co 16.6608 20.4525 41.4792
Co 16.7496 20.5308 45.2247
Pd 14.8432 24.3125 5.33671
Pd 16.7341 22.4267 5.30662
Co 16.8338 24.3884 3.6018
Pd 14.8113 22.4038 7.17461
Pd 14.7964 24.2948 9.10115
Pd 16.6765 22.3873 9.09605
Co 16.7003 24.2873 7.21625
Pd 14.7731 22.3827 10.9716
Pd 14.771 24.3025 12.8823
Pd 16.6658 22.3854 12.8838
Co 16.6801 24.307 11.0028
Pd 14.7645 22.3845 14.7761
Pd 14.7743 24.3079 16.6857
Pd 16.6692 22.3931 16.687
Co 16.67 24.3067 14.7909
Pd 14.7744 22.3939 18.5848
Pd 14.7842 24.3111 20.4949
Pd 16.6798 22.3979 20.4949
Co 16.6779 24.3109 18.5937
Pd 14.7864 22.3981 22.4008
Pd 14.7959 24.3119 24.3131
Pd 16.6882 22.3996 24.3123
Co 16.6882 24.3118 22.4046
Pd 14.7916 22.3989 26.223
Pd 14.7967 24.3104 28.1343
Pd 16.689 22.3982 28.1328
Co 16.6939 24.3111 26.2233
Pd 14.7879 22.3952 30.0451
Pd 14.7864 24.3067 31.9524
Pd 16.682 22.3935 31.9502
Co 16.6896 24.3089 30.0421
Pd 14.7774 22.388 33.8611
Pd 14.778 24.3006 35.7616
Pd 16.6729 22.3858 35.7582
Co 16.6808 24.3051 33.8529
Pd 14.7689 22.3758 37.6698
Pd 14.7762 24.2923 39.565
Pd 16.671 22.3751 39.5614
Co 16.6745 24.2979 37.6557
Pd 14.779 22.371 41.4743
Pd 14.8031 24.2817 43.3462
Pd 16.6832 22.3742 43.3491
Co 16.686 24.2954 41.4438
Pd 14.8187 22.3892 45.2713
Pd 14.8513 24.2965 47.1106
Pd 16.7422 22.4107 47.1386
Co 16.7077 24.2727 45.2304
Co 16.8426 24.371 48.8448
Pd 15.0273 26.2336 3.51098
Pd 14.8442 28.1535 5.33818
Pd 16.7623 26.2325 5.42074
Co 16.8348 28.0779 3.60321
Pd 14.8333 26.2323 7.22628
Pd 14.7974 28.1683 9.10263
Pd 16.6955 26.2311 9.11474
Co 16.7013 28.1763 7.21774
Pd 14.7868 26.2308 10.9974
Pd 14.772 28.1577 12.8838
Pd 16.6747 26.2296 12.9011
Co 16.6811 28.1536 11.0043
Pd 14.7771 26.2294 14.7886
Pd 14.7753 28.1494 16.6872
Pd 16.6753 26.2282 16.6946
Co 16.671 28.1511 14.7924
Pd 14.7807 26.2279 18.592
Pd 14.7852 28.1433 20.4964
Pd 16.6845 26.2267 20.5
Co 16.6789 28.1439 18.5952
Pd 14.7923 26.2265 22.405
Pd 14.7969 28.1396 24.3145
Pd 16.694 26.2252 24.3141
Co 16.6891 28.1401 22.406
Pd 14.8011 26.225 26.2244
Pd 14.7977 28.1381 28.1358
Pd 16.6948 26.2238 28.134
Co 16.6948 28.1379 26.2248
Pd 14.7938 26.2235 30.0438
Pd 14.7874 28.1389 31.9539
Pd 16.6867 26.2223 31.9481
Co 16.6906 28.1372 30.0435
Pd 14.7837 26.2221 33.8568
Pd 14.779 28.1421 35.7631
Pd 16.679 26.2209 35.7535
Co 16.6818 28.1381 33.8544
Pd 14.7815 26.2206 37.6603
Pd 14.7772 28.1475 39.5665
Pd 16.6799 26.2194 39.547
Co 16.6755 28.1423 37.6572
Pd 14.7927 26.2192 41.4514
Pd 14.8041 28.1552 43.3477
Pd 16.7021 26.2179 43.3334
Co 16.687 28.142 41.4453
Pd 14.8406 26.2177 45.2225
Pd 14.8523 28.1375 47.1121
Pd 16.7704 26.2165 47.0273
Co 16.7087 28.1617 45.2319
Pd 15.0361 26.2162 48.9378
Co 16.8436 28.0606 48.8462
Pd 16.7361 30.0383 5.30954
Pd 14.8133 30.0608 7.17754
Pd 14.7875 31.9862 9.07724
Pd 16.6785 30.0749 9.099
Co 16.7452 31.9182 7.22339
Pd 14.7751 30.079 10.9746
Pd 14.765 31.9952 12.8718
Pd 16.6678 30.0739 12.8867
Co 16.6579 31.9966 10.9689
Pd 14.7665 30.0742 14.779
Pd 14.7637 31.982 16.6742
Pd 16.6712 30.0632 16.6899
Co 16.6661 31.9797 14.7829
Pd 14.7764 30.062 18.5878
Pd 14.7783 31.9701 20.4913
Pd 16.6818 30.0555 20.4979
Co 16.6717 31.9726 18.5871
Pd 14.7884 30.0548 22.4038
Pd 14.7868 31.9626 24.3135
Pd 16.6902 30.0509 24.3153
Co 16.683 31.9632 22.4041
Pd 14.7936 30.0511 26.2259
Pd 14.7876 31.9612 28.1398
Pd 16.691 30.0494 28.1358
Co 16.6871 31.9596 26.2263
Pd 14.7899 30.0519 30.048
Pd 14.7805 31.9658 31.9619
Pd 16.684 30.0511 31.9532
Co 16.6844 31.9603 30.0484
Pd 14.7794 30.0561 33.864
Pd 14.7674 31.9746 35.779
Pd 16.6749 30.0559 35.7611
Co 16.6747 31.9668 33.8654
Pd 14.7709 30.0655 37.6728
Pd 14.7702 31.985 39.5815
Pd 16.673 30.0637 39.5644
Co 16.6706 31.9709 37.6696
Pd 14.781 30.0673 41.4772
Pd 14.7942 31.973 43.376
Pd 16.6852 30.0617 43.3521
Co 16.6638 31.9849 41.4837
Pd 14.8207 30.0462 45.2742
Pd 16.7442 30.0223 47.1415
Co 16.7526 31.9037 45.2291
Pd 16.671 33.8685 9.07075
Pd 14.7747 33.8798 10.9516
Pd 14.7654 35.8024 12.8652
Pd 16.6529 33.8917 12.8708
Co 16.7091 35.743 11.0037
Pd 14.7584 33.8931 14.7588
Pd 14.7574 35.8018 16.6644
Pd 16.6617 33.8887 16.6741
Co 16.6449 35.8066 14.7538
Pd 14.7638 33.8871 18.5754
Pd 14.7651 35.7859 20.4782
Pd 16.6733 33.8753 20.4911
Co 16.666 35.7848 18.5782
Pd 14.7773 33.874 22.398
Pd 14.7774 35.7752 24.3104
Pd 16.6815 33.8675 24.3136
Co 16.6733 35.7767 22.3972
Pd 14.7821 33.8696 26.2274
Pd 14.7781 35.7738 28.1458
Pd 16.6822 33.8661 28.1404
Co 16.6796 35.7697 26.2277
Pd 14.7788 33.871 30.0567
Pd 14.7673 35.7815 31.978
Pd 16.6756 33.8709 31.9629
Co 16.6748 35.7738 30.0582
Pd 14.7668 33.8812 33.8793
Pd 14.7611 35.7945 35.7918
Pd 16.6654 33.8814 35.7799
Co 16.669 35.7789 33.8772
Pd 14.7629 33.8843 37.6959
Pd 14.7706 35.7921 39.591
Pd 16.6581 33.8814 39.5832
Co 16.6493 35.7978 37.7017
Pd 14.7806 33.8681 41.5031
Pd 16.6777 33.8553 43.3832
Co 16.7151 35.7314 41.4517
Pd 16.6505 37.6864 12.8655
Pd 14.7634 37.6891 14.7497
Pd 14.7651 39.6042 16.6683
Pd 16.6503 37.6937 16.6648
Co 16.7036 39.5509 14.8045
Pd 14.7598 37.6919 18.559
Pd 14.7643 39.5931 20.4716
Pd 16.6655 37.6853 20.4785
Co 16.6505 39.6002 18.5564
Pd 14.7669 37.6841 22.388
Pd 14.7734 39.5749 24.3026
Pd 16.6754 37.6723 24.3108
Co 16.6737 39.5731 22.3921
Pd 14.7766 37.6737 26.2288
Pd 14.7742 39.5734 28.1565
Pd 16.6762 37.6708 28.1461
Co 16.6759 39.5698 26.2292
Pd 14.7684 37.6812 30.0696
Pd 14.7666 39.5887 31.9875
Pd 16.6677 37.6809 31.9784
Co 16.6752 39.5702 30.0662
Pd 14.7628 37.686 33.8987
Pd 14.7688 39.5969 35.7908
Pd 16.654 37.6864 35.7921
Co 16.6535 39.5943 33.9019
Pd 14.7678 37.6803 37.7079
Pd 16.6557 37.6762 39.5914
Co 16.7081 39.5422 37.6538
Pd 16.6564 41.4843 16.6736
Pd 14.7726 41.4811 18.5584
Pd 14.7797 43.3826 20.479
Pd 16.6634 41.4782 20.476
Co 16.7191 43.3374 18.6195
Pd 14.7741 41.4725 22.3754
Pd 14.7832 43.3597 24.3016
Pd 16.6775 41.4649 24.3042
Co 16.6708 43.3718 22.3758
Pd 14.775 41.4667 26.2303
Pd 14.784 43.3582 28.1604
Pd 16.6783 41.4635 28.1556
Co 16.6925 43.3397 26.2306
Pd 14.7756 41.4696 30.0852
Pd 14.7819 43.3782 31.983
Pd 16.6656 41.4738 31.9838
Co 16.6723 43.3688 30.0855
Pd 14.7756 41.4752 33.9022
Pd 16.6601 41.477 35.7863
Co 16.7221 43.3315 33.8417
Pd 16.6775 45.2554 20.4954
Pd 14.7925 45.2358 22.3752
Pd 14.8046 47.1048 24.2899
Pd 16.6904 45.2329 24.3056
Co 16.7498 47.0813 22.4515
Pd 14.8133 45.2111 26.2317
Pd 14.8054 47.1034 28.1749
Pd 16.6912 45.2315 28.1571
Co 16.7157 47.0679 26.232
Pd 14.794 45.2329 30.0882
Pd 16.6797 45.251 31.9673
Co 16.7513 47.0784 30.0126
Pd 16.7355 48.8956 24.3592
Pd 14.8659 48.8205 26.2331
Pd 16.7363 48.8942 28.1063
Pd 18.5911 5.30127 20.4887
Pd 20.5302 3.5294 20.5297
Co 20.5399 5.36163 18.6334
Pd 18.6286 3.53515 22.4342
Pd 18.6299 5.34843 24.3363
Pd 20.5025 3.44216 24.3091
Co 20.5095 5.32847 22.4107
Pd 18.5993 3.46029 26.215
Pd 18.6306 5.34699 28.095
Pd 20.5032 3.44071 28.1201
Co 20.5212 5.30082 26.2153
Pd 18.6301 3.53225 29.9957
Pd 18.5934 5.29688 31.9426
Pd 20.5324 3.52505 31.8995
Co 20.511 5.32556 30.0199
Co 20.5429 5.35582 33.7972
Pd 18.5722 9.06655 16.6666
Pd 20.4691 7.20143 16.6776
Co 20.5121 9.12873 14.8019
Pd 18.5863 7.1952 18.5636
Pd 18.5737 9.07766 20.4734
Pd 20.4822 7.19698 20.4906
Co 20.4615 9.07498 18.5618
Pd 18.5919 7.20099 22.3818
Pd 18.5846 9.10265 24.2904
Pd 20.5115 7.21531 24.3108
Co 20.4913 9.10054 22.3939
Pd 18.5984 7.23711 26.2164
Pd 18.5853 9.10118 28.1439
Pd 20.5123 7.21385 28.1213
Co 20.5003 9.11118 26.2168
Pd 18.5934 7.19805 30.051
Pd 18.5759 9.07326 31.9609
Pd 20.4844 7.1926 31.9414
Co 20.4928 9.09761 30.0396
Pd 18.5893 7.18933 33.8692
Pd 18.576 9.05923 35.7676
Pd 20.4728 7.19413 35.7544
Co 20.4645 9.06911 33.8717
Co 20.5165 9.11999 37.6317
Pd 18.5638 12.8608 12.8568
Pd 20.4566 10.9869 12.8604
Co 20.51 12.9246 10.9991
Pd 18.5671 10.9767 14.7439
Pd 18.5548 12.8602 16.6575
Pd 20.4555 10.9794 16.6632
Co 20.4474 12.8607 14.7477
Pd 18.5629 10.974 18.556
Pd 18.5635 12.8755 20.4706
Pd 20.4746 10.984 20.4765
Co 20.4703 12.8796 18.5729
Pd 18.57 10.9856 22.3809
Pd 18.575 12.8844 24.3021
Pd 20.4875 10.9978 24.303
Co 20.4786 12.8869 22.3903
Pd 18.5789 10.9919 26.2179
Pd 18.5758 12.8829 28.1351
Pd 20.4883 10.9963 28.132
Co 20.4842 12.8922 26.2182
Pd 18.5715 10.9826 30.0548
Pd 18.5657 12.8711 31.9666
Pd 20.4769 10.9796 31.9584
Co 20.4801 12.884 30.0461
Pd 18.5659 10.9681 33.8797
Pd 18.5585 12.8529 35.7796
Pd 20.4592 10.9721 35.7718
Co 20.4733 12.8737 33.8635
Pd 18.5715 10.9679 37.6918
Pd 18.569 12.8505 39.5804
Pd 20.4618 10.9767 39.5745
Co 20.4518 12.8519 37.6887
Co 20.5159 12.9129 41.4373
Pd 18.5791 16.6806 9.06379
Pd 20.4614 14.7971 9.06955
Co 20.5297 16.7559 7.21685
Pd 18.5674 14.7832 10.9435
Pd 18.5552 16.6603 12.8638
Pd 20.4517 14.7724 12.8641
Co 20.4507 16.6664 10.9623
Pd 18.5534 14.7648 14.7508
Pd 18.5574 16.6669 16.6671
Pd 20.4642 14.7689 16.6665
Co 20.4669 16.6724 14.7763
Pd 18.5587 14.7679 18.5673
Pd 18.5701 16.6764 20.4841
Pd 20.4753 14.7813 20.4836
Co 20.4731 16.6758 18.5805
Pd 18.5711 14.7792 22.3899
Pd 18.5772 16.6823 24.3066
Pd 20.4821 14.7876 24.3058
Co 20.4818 16.6849 22.3975
Pd 18.5747 14.7818 26.2193
Pd 18.5779 16.6808 28.1335
Pd 20.4828 14.7862 28.1321
Co 20.4848 16.6868 26.2197
Pd 18.5726 14.7763 30.0487
Pd 18.5724 16.672 31.9559
Pd 20.4775 14.7769 31.9543
Co 20.4833 16.6819 30.0418
Pd 18.5617 14.7621 33.8713
Pd 18.5611 16.6596 35.773
Pd 20.4679 14.7616 35.7713
Co 20.4761 16.6699 33.8588
Pd 18.5578 14.756 37.6878
Pd 18.5604 16.6501 39.5762
Pd 20.4569 14.7622 39.5738
Co 20.4713 16.6636 37.663
Pd 18.5733 14.7715 41.4951
Pd 18.5858 16.6675 43.3763
Pd 20.4681 14.784 43.3683
Co 20.4566 16.6547 41.4771
Co 20.5371 16.7413 45.2225
Pd 18.6332 20.5358 5.29294
Pd 20.5201 18.648 5.29185
Co 20.6038 20.6195 3.57235
Pd 18.6035 18.6182 7.15527
Pd 18.5808 20.4813 9.09205
Pd 20.4678 18.5933 9.09096
Co 20.4883 20.502 7.19749
Pd 18.5627 18.5752 10.9676
Pd 18.5626 20.4773 12.8847
Pd 20.4659 18.573 12.8836
Co 20.4781 20.4895 11.0051
Pd 18.558 18.5683 14.7745
Pd 18.5694 20.4825 16.6868
Pd 20.4733 18.5776 16.6857
Co 20.4731 20.4824 14.7948
Pd 18.5694 18.5775 18.5824
Pd 18.5785 20.4888 20.4944
Pd 20.4818 18.5845 20.4933
Co 20.4815 20.4885 18.5949
Pd 18.5778 18.5837 22.3984
Pd 18.5855 20.4919 24.3113
Pd 20.4872 18.5893 24.3102
Co 20.4883 20.4932 22.4041
Pd 18.5818 18.5855 26.2208
Pd 18.5863 20.4905 28.1317
Pd 20.4879 18.5878 28.1306
Co 20.4916 20.4943 26.2211
Pd 18.5793 18.5808 30.0431
Pd 18.5807 20.4844 31.9486
Pd 20.484 18.5801 31.9475
Co 20.4898 20.4903 30.0381
Pd 18.5724 18.5716 33.8591
Pd 18.5731 20.4752 35.7562
Pd 20.477 18.5703 35.7551
Co 20.4844 20.4827 33.8474
Pd 18.5625 18.5595 37.667
Pd 18.5678 20.4671 39.5582
Pd 20.4711 18.5628 39.5571
Co 20.4776 20.4737 37.6474
Pd 18.5686 18.5635 41.4739
Pd 18.5874 20.4682 43.3509
Pd 20.4744 18.5802 43.3498
Co 20.484 20.4779 41.4371
Pd 18.6109 18.6036 45.2863
Pd 18.6413 20.5198 47.15
Pd 20.5282 18.6319 47.149
Co 20.4957 20.4874 45.2448
Co 20.6126 20.6022 48.8699
Pd 18.7402 22.5361 3.44615
Pd 18.6572 24.3405 5.3831
Pd 20.5464 22.4509 5.36763
Co 20.5627 24.3605 3.51945
Pd 18.6068 22.4044 7.21089
Pd 18.5904 24.3061 9.12492
Pd 20.4938 22.4028 9.12069
Co 20.5322 24.3323 7.25489
Pd 18.5742 22.388 11.0021
Pd 18.5744 24.3085 12.9058
Pd 20.4778 22.3955 12.9114
Co 20.4874 24.31 11.0293
Pd 18.5703 22.3932 14.7945
Pd 18.5757 24.3106 16.698
Pd 20.4803 22.3971 16.7009
Co 20.4802 24.3111 14.811
Pd 18.5775 22.3974 18.5948
Pd 18.5851 24.3122 20.5014
Pd 20.4881 22.4009 20.5023
Co 20.486 24.3119 18.6037
Pd 18.5863 22.4005 22.4049
Pd 18.5923 24.3122 24.3143
Pd 20.4937 22.4026 24.3138
Co 20.4935 24.3129 22.409
Pd 18.5906 22.4006 26.2222
Pd 18.593 24.3108 28.1316
Pd 20.4944 22.4012 28.1299
Co 20.4968 24.3123 26.2226
Pd 18.5878 22.3976 30.0396
Pd 18.5873 24.3078 31.9445
Pd 20.4903 22.3965 31.9414
Co 20.495 24.31 30.0362
Pd 18.5804 22.3915 33.8496
Pd 18.5795 24.3033 35.7479
Pd 20.484 22.3898 35.7428
Co 20.489 24.3061 33.8415
Pd 18.5748 22.3844 37.6499
Pd 18.5796 24.2983 39.5401
Pd 20.483 22.3853 39.5322
Co 20.4847 24.3023 37.6342
Pd 18.5801 22.3764 41.4423
Pd 18.597 24.293 43.321