4033
Atoms. Timestep: 20273
Co 5.48333 13.0053 26.203
Pd 3.55413 16.7205 24.3355
Pd 5.34628 14.7913 24.2633
Co 5.36943 16.7391 22.4282
Pd 3.6299 14.848 26.2063
Pd 3.55437 16.7145 28.0835
Pd 5.34644 14.785 28.1487
Co 5.38132 16.6986 26.2093
Co 5.36964 16.7273 29.9904
Pd 3.5266 20.5321 20.5297
Pd 5.29919 18.594 20.4843
Co 5.35843 20.5452 18.6322
Pd 3.53369 18.628 22.431
Pd 3.44084 20.4981 24.3099
Pd 5.34768 18.6264 24.3327
Co 5.32667 20.5087 22.4101
Pd 3.46038 18.5922 26.2127
Pd 3.44111 20.4925 28.1218
Pd 5.34776 18.6206 28.0923
Co 5.30049 20.5139 26.2157
Pd 3.53407 18.6165 29.9943
Pd 3.5276 20.5154 31.902
Pd 5.29966 18.5766 31.9402
Co 5.32698 20.4975 30.021
Co 5.35947 20.5229 33.7986
Pd 3.55068 24.3442 16.7299
Pd 5.31461 22.4038 16.6849
Co 5.40675 24.3505 14.8368
Pd 3.53434 22.4398 18.6237
Pd 3.44183 24.3127 20.5033
Pd 5.33386 22.4335 20.5324
Co 5.34301 24.3124 18.6145
Pd 3.43445 22.405 22.4072
Pd 3.41422 24.305 24.3159
Pd 5.28918 22.4076 24.3129
Co 5.28523 24.3178 22.4205
Pd 3.42241 22.399 26.219
Pd 3.41467 24.2998 28.1284
Pd 5.28944 22.4022 28.1246
Co 5.27028 24.3054 26.2219
Pd 3.43504 22.3942 30.0306
Pd 3.44333 24.2968 31.9408
Pd 5.33473 22.4172 31.9047
Co 5.28606 24.3072 30.0232
Pd 3.5361 22.4182 33.8143
Pd 3.55406 24.3176 35.7148
Pd 5.31681 22.3764 35.752
Co 5.34485 24.291 33.8287
Co 5.41107 24.3181 37.6071
Pd 5.39364 26.2275 12.9653
Pd 3.61966 26.2242 14.8611
Pd 3.54876 28.0982 16.7363
Pd 5.39358 26.2219 16.7499
Co 5.40475 28.0992 14.8432
Pd 3.46249 26.2183 18.603
Pd 3.43971 28.1184 20.5099
Pd 5.3036 26.2164 20.5137
Co 5.34056 28.126 18.6213
Pd 3.42136 26.2127 22.411
Pd 3.41225 28.1152 24.3223
Pd 5.2733 26.211 24.3249
Co 5.28302 28.1097 22.4269
Pd 3.40644 26.2075 26.2253
Pd 3.41294 28.1101 28.1345
Pd 5.27388 26.2058 28.1251
Co 5.26838 28.1115 26.2281
Pd 3.42245 26.2023 30.0394
Pd 3.44182 28.1027 31.9468
Pd 5.30533 26.2006 31.936
Co 5.28446 28.0993 30.0291
Pd 3.4651 26.1971 33.8475
Pd 3.55268 28.0713 35.7206
Pd 5.397 26.1953 35.6997
Co 5.3435 28.1048 33.8346
Pd 3.62512 26.1917 37.5904
Pd 5.4003 26.1897 39.4856
Co 5.40976 28.0669 37.6131
Pd 5.31012 30.0406 16.6982
Pd 3.53015 29.9974 18.6367
Pd 3.52055 31.9001 20.5491
Pd 5.32927 29.9997 20.5457
Co 5.35177 31.8941 18.6518
Pd 3.43016 30.0211 22.4202
Pd 3.43513 31.9231 24.3289
Pd 5.2851 30.0149 24.3256
Co 5.32026 31.9197 22.4295
Pd 3.41861 30.0163 26.2315
Pd 3.436 31.9178 28.1401
Pd 5.28598 30.0097 28.1368
Co 5.29494 31.9035 26.2342
Pd 3.43175 30.0106 30.0427
Pd 3.52295 31.8841 31.9198
Pd 5.33176 29.984 31.9165
Co 5.32219 31.9092 30.0389
Pd 3.53325 29.9759 33.8261
Pd 5.31409 30.0138 35.7641
Co 5.35511 31.8728 33.8164
Pd 5.29068 33.8406 20.5104
Pd 3.52575 33.7994 22.4567
Pd 3.54512 35.7022 24.367
Pd 5.33993 33.7972 24.3579
Co 5.35963 35.6906 22.4599
Pd 3.45298 33.8241 26.2376
Pd 3.54597 35.6966 28.1141
Pd 5.34098 33.7918 28.1165
Co 5.37249 35.7199 26.2402
Pd 3.52748 33.7886 30.0183
Pd 5.29348 33.8244 31.9641
Co 5.36164 35.6796 30.0205
Pd 5.33545 37.6337 24.301
Pd 3.6195 37.5695 26.2435
Pd 5.33648 37.6278 28.1857
Co 5.47153 39.4141 26.2462
Co 9.23899 9.22527 26.1965
Pd 7.23485 12.8716 24.2768
Pd 9.09817 10.9949 24.2755
Co 9.13485 12.9155 22.3966
Pd 7.29392 11.0555 26.1996
Pd 7.2349 12.8652 28.1284
Pd 9.09816 10.9886 28.1233
Co 9.10062 12.8727 26.2025
Co 9.13485 12.9029 30.0084
Pd 7.19633 16.6717 20.4719
Pd 9.07043 14.7759 20.4525
Co 9.11549 16.7183 18.5958
Pd 7.21625 14.7839 22.3487
Pd 7.21708 16.678 24.283
Pd 9.09157 14.7725 24.276
Co 9.07918 16.6631 22.3533
Pd 7.23937 14.7978 26.2059
Pd 7.21711 16.6719 28.1351
Pd 9.09156 14.7662 28.1353
Co 9.10958 16.6779 26.2089
Pd 7.21626 14.7714 30.0628
Pd 7.19649 16.6536 31.9456
Pd 9.07042 14.7572 31.9582
Co 9.0792 16.6509 30.0641
Co 9.1155 16.694 33.8206
Pd 7.1978 20.4783 16.6746
Pd 9.06389 18.5832 16.6588
Co 9.12517 20.5255 14.7969
Pd 7.19286 18.593 18.5576
Pd 7.19458 20.485 20.4887
Pd 9.07581 18.5777 20.467
Co 9.0722 20.4682 18.5583
Pd 7.1997 18.5921 22.3768
Pd 7.2143 20.508 24.3098
Pd 9.102 18.5819 24.285
Co 9.09887 20.4914 22.3916
Pd 7.23709 18.5921 26.2123
Pd 7.21444 20.5023 28.1211
Pd 9.10208 18.576 28.139
Co 9.111 20.4939 26.2153
Pd 7.19978 18.5804 30.0474
Pd 7.19507 20.468 31.9414
Pd 9.07599 18.5599 31.9562
Co 9.09922 20.4799 30.0384
Pd 7.19311 18.5696 33.8657
Pd 7.19892 20.4498 35.7546
Pd 9.06409 18.5533 35.7629
Co 9.07271 20.4451 33.8704
Co 9.12588 20.4905 37.6302
Pd 7.23455 24.3048 12.8836
Pd 9.08703 22.4004 12.8619
Co 9.16692 24.3624 11.0248
Pd 7.21411 22.3989 14.7557
Pd 7.22829 24.2876 16.6922
Pd 9.08636 22.3795 16.6712
Co 9.09487 24.2829 14.7645
Pd 7.20174 22.3949 18.582
Pd 7.21434 24.315 20.5119
Pd 9.09482 22.3908 20.489
Co 9.10792 24.3014 18.5934
Pd 7.20842 22.4076 22.4148
Pd 7.18485 24.311 24.3201
Pd 9.1061 22.4074 24.3169
Co 9.10505 24.3084 22.4132
Pd 7.19046 22.4076 26.2186
Pd 7.1853 24.3056 28.1233
Pd 9.10642 22.4019 28.1198
Co 9.0994 24.3083 26.2215
Pd 7.20894 22.3966 30.0221
Pd 7.21561 24.2989 31.9309
Pd 9.09567 22.3741 31.9467
Co 9.10598 24.2977 30.0294
Pd 7.20277 22.3727 33.8539
Pd 7.23064 24.2605 35.7496
Pd 9.08759 22.3513 35.7629
Co 9.10963 24.2797 33.848
Pd 7.21623 22.3656 37.6796
Pd 7.23974 24.2666 39.5591
Pd 9.08905 22.3605 39.5709
Co 9.09726 24.2498 37.6754
Co 9.17346 24.3177 41.4168
Pd 9.17151 26.2353 9.16742
Pd 7.31679 26.2315 11.027
Pd 7.2321 28.1523 12.8905
Pd 9.11911 26.2292 12.9057
Co 9.16378 28.1026 11.0318
Pd 7.25257 26.2256 14.7914
Pd 7.2256 28.158 16.6994
Pd 9.10706 26.2236 16.6881
Co 9.09163 28.17 14.7721
Pd 7.23729 26.22 18.6178
Pd 7.21184 28.1197 20.5186
Pd 9.11346 26.2182 20.5183
Co 9.10517 28.1404 18.6006
Pd 7.18949 26.2146 22.4215
Pd 7.18279 28.113 24.3263
Pd 9.09771 26.2129 24.3211
Co 9.10275 28.1227 22.4198
Pd 7.17891 26.2093 26.2248
Pd 7.18358 28.1079 28.1293
Pd 9.09837 26.2077 28.1279
Co 9.09755 28.1123 26.2276
Pd 7.19069 26.2041 30.0279
Pd 7.21413 28.104 31.9367
Pd 9.11532 26.2024 31.9302
Co 9.1044 28.1124 30.0352
Pd 7.23954 26.1988 33.8308
Pd 7.2293 28.1316 35.7558
Pd 9.10981 26.1969 35.7591
Co 9.10814 28.1196 33.854
Pd 7.25665 26.1932 37.6571
Pd 7.23864 28.1138 39.5656
Pd 9.12398 26.191 39.5413
Co 9.096 28.1382 37.682
Pd 7.32632 26.1871 41.4241
Pd 9.18457 26.1829 43.2837
Co 9.17242 28.0573 41.4242
Pd 9.08093 30.0591 12.8767
Pd 7.20893 30.053 14.7697
Pd 7.19043 31.9686 16.6954
Pd 9.08054 30.0682 16.686
Co 9.1166 31.9289 14.8188
Pd 7.19653 30.0456 18.5958
Pd 7.18758 31.9506 20.5087
Pd 9.08985 30.046 20.5027
Co 9.06428 31.9747 18.5794
Pd 7.20392 30.0221 22.4278
Pd 7.20827 31.9168 24.3287
Pd 9.10206 30.0188 24.3294
Co 9.09234 31.9406 22.4111
Pd 7.1867 30.0114 26.2308
Pd 7.20935 31.9116 28.139
Pd 9.10305 30.0136 28.1317
Co 9.1056 31.9272 26.2335
Pd 7.20576 30.0117 30.0339
Pd 7.19055 31.9348 31.9592
Pd 9.09265 30.0306 31.9585
Co 9.09451 31.9302 30.0561
Pd 7.19994 30.0246 33.8659
Pd 7.19476 31.9418 35.7727
Pd 9.08479 30.0423 35.7752
Co 9.06837 31.9539 33.8883
Pd 7.21396 30.0204 37.6922
Pd 9.08695 30.0211 39.5848
Co 9.12193 31.897 37.6489
Pd 9.05341 33.8666 16.6872
Pd 7.18336 33.8491 18.5846
Pd 7.18571 35.7657 20.5047
Pd 9.06654 33.8605 20.494
Co 9.10366 35.7266 18.63
Pd 7.19114 33.8388 22.4027
Pd 7.20767 35.748 24.3144
Pd 9.0943 33.8452 24.3101
Co 9.069 35.7703 22.3856
Pd 7.22991 33.8277 26.2369
Pd 7.20889 35.7424 28.1654
Pd 9.09552 33.8399 28.163
Co 9.10093 35.744 26.2395
Pd 7.19347 33.828 30.0712
Pd 7.18904 35.7492 31.9754
Pd 9.07008 33.8446 31.9798
Co 9.0716 35.7593 30.0938
Pd 7.18738 33.8275 33.8895
Pd 9.05854 33.8399 35.7868
Co 9.10847 35.7049 33.8499
Pd 9.05788 37.6643 20.4921
Pd 7.2045 37.6486 22.3871
Pd 7.22261 39.5556 24.3207
Pd 9.08073 37.6557 24.3136
Co 9.12192 39.5193 22.441
Pd 7.22897 37.6228 26.2429
Pd 7.22385 39.5497 28.1713
Pd 9.0821 37.6501 28.1715
Co 9.08916 39.5499 26.2455
Pd 7.20703 37.6372 30.0989
Pd 9.06182 37.6473 31.9936
Co 9.12465 39.5078 30.0501
Pd 9.08476 41.4342 24.3253
Pd 7.28088 41.366 26.2489
Pd 9.08617 41.4282 28.1717
Co 9.22532 43.1982 26.2513
Co 13.0211 5.47163 26.1908
Pd 11.0055 9.08855 24.2724
Pd 12.8832 7.22618 24.2677
Co 12.9229 9.1293 22.3906
Pd 11.0703 7.28117 26.1935
Pd 11.0055 9.08226 28.1202
Pd 12.8833 7.22003 28.1192
Co 12.8865 9.08891 26.1964
Co 12.9231 9.1169 30.0022
Pd 10.9769 12.8569 20.4496
Pd 12.86 10.9746 20.4467
Co 12.9065 12.9076 18.5802
Pd 10.9892 10.9829 22.3425
Pd 10.9863 12.8661 24.2719
Pd 12.8756 10.9778 24.2688
Co 12.8611 12.8559 22.3418
Pd 11.0161 11.0033 26.1994
Pd 10.9863 12.8597 28.133
Pd 12.8757 10.9715 28.1299
Co 12.8878 12.8762 26.2024
Pd 10.9892 10.9701 30.0561
Pd 10.977 12.838 31.9547
Pd 12.8604 10.9557 31.9516
Co 12.8613 12.8431 30.0627
Co 12.9068 12.8824 33.8235
Pd 10.9697 16.6609 16.6495
Pd 12.8505 14.7715 16.6416
Co 12.9042 16.7137 14.78
Pd 10.9729 14.7739 18.5317
Pd 10.9735 16.6605 20.4534
Pd 12.8595 14.7632 20.4464
Co 12.8525 16.6528 18.5338
Pd 10.9795 14.7681 22.35
Pd 10.9851 16.6677 24.2827
Pd 12.8762 14.7652 24.2782
Co 12.8777 16.6687 22.3708
Pd 10.9837 14.762 26.2056
Pd 10.9852 16.6616 28.1347
Pd 12.8763 14.7589 28.1327
Co 12.8795 16.6639 26.2086
Pd 10.9795 14.7556 30.0608
Pd 10.9737 16.6421 31.9629
Pd 12.8598 14.7444 31.9636
Co 12.8779 16.6564 30.0459
Pd 10.9728 14.7487 33.8779
Pd 10.9696 16.6299 35.7653
Pd 12.8506 14.7399 35.767
Co 12.8527 16.6278 33.8814
Co 12.904 16.6758 37.6331
Pd 10.9837 20.475 12.8532
Pd 12.8583 18.5846 12.8445
Co 12.9224 20.5339 10.9889
Pd 10.9743 18.5826 14.7339
Pd 10.9764 20.4664 16.6578
Pd 12.8576 18.5672 16.6477
Co 12.8577 20.463 14.7403
Pd 10.9718 18.571 18.5479
Pd 10.9817 20.4785 20.4728
Pd 12.8736 18.5685 20.4623
Co 12.8769 20.4783 18.5674
Pd 10.9843 18.5711 22.3742
Pd 10.9969 20.4848 24.3003
Pd 12.8838 18.5731 24.2949
Co 12.8853 20.4796 22.3862
Pd 10.9921 18.5732 26.2119
Pd 10.9971 20.479 28.1298
Pd 12.884 18.5671 28.1284
Co 12.8922 20.4785 26.2149
Pd 10.9845 18.5591 30.0491
Pd 10.9823 20.4611 31.9562
Pd 12.874 18.5504 31.9599
Co 12.8859 20.468 30.043
Pd 10.9719 18.5468 33.8739
Pd 10.9769 20.4369 35.769
Pd 12.8578 18.5364 35.7724
Co 12.8777 20.4546 33.86
Pd 10.9739 18.5457 37.6856
Pd 10.9839 20.4326 39.5712
Pd 12.8578 18.5402 39.5726
Co 12.8579 20.4263 37.6841
Co 12.9221 20.4831 41.4315
Pd 11.0228 24.3163 9.08593
Pd 12.8889 22.4134 9.06318
Co 12.97 24.3724 7.2415
Pd 10.9992 22.4075 10.9461
Pd 10.9993 24.2955 12.8756
Pd 12.8713 22.3859 12.8607
Co 12.8842 24.2918 10.9655
Pd 10.9826 22.3828 14.7542
Pd 10.9855 24.2993 16.6732
Pd 12.8749 22.3845 16.666
Co 12.8832 24.306 14.7763
Pd 10.9838 22.3838 18.5747
Pd 10.9979 24.3021 20.4944
Pd 12.8859 22.3897 20.4854
Co 12.8829 24.3029 18.5823
Pd 10.9957 22.3932 22.3969
Pd 11.0055 24.306 24.3138
Pd 12.8968 22.3915 24.3052
Co 12.8965 24.3034 22.4013
Pd 11.0069 22.3934 26.2182
Pd 11.0061 24.3006 28.1287
Pd 12.8972 22.386 28.1306
Co 12.9034 24.3008 26.2211
Pd 10.9964 22.382 30.039
Pd 10.9994 24.2859 31.9472
Pd 12.887 22.3728 31.9494
Co 12.8976 24.2927 30.0405
Pd 10.9849 22.3612 33.8596
Pd 10.9875 24.2717 35.7666
Pd 12.8761 22.3555 35.7664
Co 12.8848 24.2811 33.8581
Pd 10.9836 22.348 37.6776
Pd 11.0018 24.2559 39.5612
Pd 12.8722 22.3437 39.5683
Co 12.8853 24.2721 37.661
Pd 10.9993 22.3608 41.4831
Pd 11.0336 24.2635 43.3542
Pd 12.8905 22.3555 43.3561
Co 12.8869 24.2442 41.4664
Co 13.0005 24.3025 45.1874
Pd 12.9951 26.247 5.3795
Pd 11.1201 26.2409 7.23082
Pd 11.0183 28.1583 9.09373
Pd 12.9132 26.2391 9.11788
Co 12.9641 28.1141 7.24918
Pd 11.0317 26.2338 10.9896
Pd 10.9953 28.1654 12.8838
Pd 12.8891 26.2317 12.8825
Co 12.8793 28.1789 10.974
Pd 10.9934 26.2273 14.7824
Pd 10.9823 28.1498 16.6809
Pd 12.8812 26.2254 16.6863
Co 12.8794 28.1509 14.7847
Pd 10.9938 26.2217 18.591
Pd 10.9955 28.1361 20.5014
Pd 12.8903 26.22 20.4967
Co 12.8801 28.1425 18.5898
Pd 11.0056 26.2164 22.4121
Pd 11.0035 28.1218 24.32
Pd 12.903 26.2148 24.3169
Co 12.8944 28.1314 22.4077
Pd 11.0037 26.2112 26.2243
Pd 11.0044 28.1166 28.1346
Pd 12.9037 26.2096 28.1312
Co 12.9017 28.1236 26.227
Pd 11.0069 26.206 30.0363
Pd 10.9979 28.1207 31.953
Pd 12.8923 26.2043 31.9508
Co 12.8961 28.1211 30.0462
Pd 10.9963 26.2006 33.8564
Pd 10.986 28.124 35.7727
Pd 12.8842 26.1989 35.7598
Co 12.8833 28.1221 33.864
Pd 10.9962 26.1951 37.6629
Pd 11.0003 28.1279 39.5686
Pd 12.8921 26.1932 39.5591
Co 12.8836 28.1201 37.6674
Pd 11.0373 26.1882 41.4547
Pd 11.0308 28.1032 43.363
Pd 12.9207 26.1852 43.3211
Co 12.8846 28.1351 41.4751
Pd 11.1434 26.1767 45.2211
Pd 18.672 26.1578 49.0282
Co 12.9851 28.0434 45.2063
Pd 12.879 30.0651 9.07948
Pd 10.9914 30.0609 10.9619
Pd 10.9734 31.9876 12.8768
Pd 12.863 30.0775 12.8777
Co 12.9099 31.937 11.0141
Pd 10.9756 30.0725 14.77
Pd 10.9673 31.9838 16.6804
Pd 12.8684 30.0669 16.6817
Co 12.8468 31.9948 14.7649
Pd 10.9782 30.0601 18.5893
Pd 10.9746 31.9606 20.4932
Pd 12.8812 30.0508 20.4992
Co 12.8689 31.9681 18.5892
Pd 10.9913 30.0401 22.41
Pd 10.9912 31.9436 24.3189
Pd 12.8931 30.0383 24.3175
Co 12.8793 31.956 22.4055
Pd 11.0034 30.0292 26.2302
Pd 10.9923 31.9384 28.1475
Pd 12.8941 30.0332 28.1423
Co 12.8873 31.9462 26.2327
Pd 10.9933 30.0299 30.0506
Pd 10.9779 31.9452 31.9737
Pd 12.8841 30.0355 31.961
Co 12.8815 31.9457 30.0603
Pd 10.9819 30.0398 33.8715
Pd 10.9725 31.9582 35.7873
Pd 12.8731 30.0418 35.7785
Co 12.8733 31.9479 33.8776
Pd 10.9807 30.0415 37.6905
Pd 10.9797 31.9501 39.5914
Pd 12.8688 30.0417 39.5822
Co 12.8534 31.9645 37.7031
Pd 10.998 30.0151 41.4994
Pd 12.8864 30.0118 43.3796
Co 12.9171 31.894 41.4537
Pd 12.8438 33.8809 12.8775
Pd 10.9618 33.8749 14.7644
Pd 10.9563 35.792 16.6858
Pd 12.8456 33.8858 16.6784
Co 12.8883 35.747 14.8193
Pd 10.9611 33.8746 18.5763
Pd 10.9626 35.7803 20.4869
Pd 12.8647 33.8733 20.4892
Co 12.8403 35.7957 18.5691
Pd 10.976 33.8633 22.4001
Pd 10.9761 35.7616 24.3137
Pd 12.8768 33.8575 24.3195
Co 12.8683 35.7681 22.4025
Pd 10.9852 33.85 26.2361
Pd 10.9774 35.7562 28.1644
Pd 12.8779 33.8522 28.1518
Co 12.8716 35.7613 26.2384
Pd 10.9785 33.8528 30.0725
Pd 10.9665 35.764 31.9923
Pd 12.8683 33.8575 31.9831
Co 12.8708 35.7572 30.075
Pd 10.9662 33.8536 33.8974
Pd 10.9627 35.7647 35.7948
Pd 12.8521 33.8599 35.7962
Co 12.8458 35.774 33.9105
Pd 10.9685 33.8429 37.7102
Pd 12.852 33.844 39.5978
Co 12.8971 35.7146 37.6626
Pd 12.8349 37.6847 16.6859
Pd 10.9586 37.6742 18.5732
Pd 10.9633 39.5859 20.4953
Pd 12.8475 37.6802 20.4859
Co 12.8919 39.5432 18.6277
Pd 10.968 37.6677 22.3883
Pd 10.9746 39.5643 24.3152
Pd 12.8662 37.6663 24.3149
Co 12.849 39.5822 22.3858
Pd 10.974 37.6619 26.2419
Pd 10.976 39.5584 28.1747
Pd 12.8675 37.6606 28.1679
Co 12.8773 39.5495 26.2442
Pd 10.9708 37.6564 30.0961
Pd 10.9675 39.5683 31.9956
Pd 12.8516 37.6633 31.9984
Co 12.8517 39.5704 30.1034
Pd 10.9646 37.6516 33.9129
Pd 12.8426 37.6563 35.8015
Co 12.8977 39.5198 33.8635
Pd 12.8458 41.4703 20.4983
Pd 10.9752 41.4543 22.3929
Pd 10.9916 43.3425 24.3277
Pd 12.8632 41.4543 24.3175
Co 12.9088 43.3094 22.4461
Pd 11.0038 41.4213 26.2478
Pd 10.993 43.3365 28.1739
Pd 12.8646 41.4483 28.1769
Co 12.8737 43.3373 26.25
Pd 10.9782 41.4423 30.1032
Pd 12.85 41.4523 31.9976
Co 12.9114 43.2974 30.0543
Pd 12.8688 45.2063 24.3278
Pd 11.056 45.1441 26.2535
Pd 12.8701 45.2003 28.1779
Co 13.0064 46.9551 26.2554
Pd 14.8041 5.33866 24.2481
Pd 16.7345 3.54749 24.3144
Co 16.7491 5.36571 22.4101
Pd 14.8649 3.6192 26.1881
Pd 14.8042 5.33262 28.1333
Pd 16.7348 3.54176 28.0617
Co 16.7147 5.37174 26.1908
Co 16.7497 5.35392 29.9715
Pd 14.78 9.06886 20.4437
Pd 16.6772 7.19559 20.4572
Co 16.7192 9.11765 18.5845
Pd 14.7924 7.21164 22.3367
Pd 14.783 9.08406 24.2668
Pd 16.6898 7.21059 24.2677
Co 16.6705 9.07579 22.3412
Pd 14.8127 7.2287 26.1935
Pd 14.7833 9.07777 28.1259
Pd 16.6901 7.20444 28.1194
Co 16.6918 9.10007 26.1964
Pd 14.7928 7.19932 30.0503
Pd 14.7807 9.05028 31.9487
Pd 16.6782 7.17745 31.9298
Co 16.6712 9.06332 30.0515
Co 16.7205 9.0933 33.808
Pd 14.7668 12.8555 16.6389
Pd 16.6571 10.9748 16.6415
Co 16.7049 12.9125 14.7752
Pd 14.7735 10.9746 18.5261
Pd 14.7651 12.8585 20.4434
Pd 16.6635 10.9732 20.4446
Co 16.6512 12.8554 18.5281
Pd 14.7743 10.9752 22.3439
Pd 14.7735 12.8688 24.2751
Pd 16.6772 10.9788 24.2734
Co 16.6739 12.8745 22.3647
Pd 14.7747 10.9732 26.1993
Pd 14.7738 12.8625 28.1295
Pd 16.6776 10.9725 28.1252
Co 16.6756 12.87 26.2023
Pd 14.7748 10.9625 30.0545
Pd 14.7657 12.8395 31.9605
Pd 16.6645 10.9545 31.9535
Co 16.6745 12.862 30.0396
Pd 14.7743 10.9494 33.8717
Pd 14.7676 12.8241 35.764
Pd 16.6586 10.944 35.7561
Co 16.6524 12.8303 33.8752
Co 16.7064 12.8753 37.6272
Pd 14.7695 16.6664 12.8403
Pd 16.6529 14.7817 12.8385
Co 16.713 16.7304 10.9785
Pd 14.766 14.7752 14.7227
Pd 14.7596 16.6577 16.642
Pd 16.6516 14.766 16.6392
Co 16.6471 16.6575 14.7307
Pd 14.7613 14.7637 18.5337
Pd 14.7661 16.6654 20.4573
Pd 16.6661 14.7662 20.4543
Co 16.6671 16.6707 18.5569
Pd 14.7675 14.7634 22.3639
Pd 14.7776 16.6681 24.2905
Pd 16.6754 14.7714 24.2874
Co 16.6737 16.6707 22.3772
Pd 14.7765 14.766 26.2054
Pd 14.7778 16.662 28.1264
Pd 16.6757 14.7652 28.1232
Co 16.6794 16.67 26.2084
Pd 14.7679 14.7509 30.0464
Pd 14.7667 16.6467 31.9585
Pd 16.667 14.7475 31.9554
Co 16.6744 16.6584 30.0391
Pd 14.762 14.7383 33.8753
Pd 14.7603 16.6262 35.7717
Pd 16.6529 14.7346 35.769
Co 16.6683 16.6458 33.8578
Pd 14.7666 14.7372 37.6848
Pd 14.7695 16.622 39.5716
Pd 16.6539 14.7375 39.5682
Co 16.6483 16.6195 37.682
Co 16.7129 16.6789 41.4319
Pd 14.7959 20.4928 9.05555
Pd 16.6772 18.6111 9.04686
Co 16.7546 20.569 7.19926
Pd 14.7806 18.5942 10.9284
Pd 14.7695 20.4726 12.8544
Pd 16.6565 18.577 12.85
Co 16.6634 20.4772 10.9502
Pd 14.7617 18.5705 14.7389
Pd 14.7659 20.4766 16.6592
Pd 16.6635 18.5708 16.6556
Co 16.6689 20.4841 14.7669
Pd 14.7653 18.5678 18.5575
Pd 14.779 20.4801 20.4781
Pd 16.674 18.5758 20.4743
Co 16.6728 20.4821 18.5734
Pd 14.7778 18.5729 22.3815
Pd 14.7868 20.4801 24.3013
Pd 16.6815 18.5757 24.2978
Co 16.6832 20.4835 22.3917
Pd 14.782 18.5697 26.2116
Pd 14.7872 20.4743 28.128
Pd 16.6819 18.5698 28.1251
Co 16.6869 20.4798 26.2145
Pd 14.7784 18.5609 30.0412
Pd 14.78 20.4625 31.9501
Pd 16.6751 18.5577 31.9474
Co 16.6841 20.4719 30.0369
Pd 14.7661 18.5433 33.8633
Pd 14.7669 20.4462 35.7664
Pd 16.6649 18.5396 35.7637
Co 16.6743 20.4582 33.8535
Pd 14.7623 18.5322 37.679
Pd 14.77 20.4279 39.5663
Pd 16.6572 18.5325 39.567
Co 16.6706 20.4464 37.6563
Pd 14.7792 18.5442 41.4874
Pd 14.7942 20.4377 43.367
Pd 16.6749 18.5505 43.3659
Co 16.6633 20.4257 41.471
Co 16.7475 20.4958 45.2111
Pd 14.8463 24.333 5.3281
Pd 16.7523 22.4614 5.281
Co 14.9582 26.2549 3.65823
Pd 14.8268 22.4226 7.15557
Pd 14.8031 24.3068 9.09044
Pd 16.6862 22.4036 9.08322
Co 16.7104 24.3051 7.20737
Pd 14.7807 22.3926 10.9597
Pd 14.7751 24.3076 12.8744
Pd 16.6718 22.3941 12.873
Co 16.6863 24.3186 10.9927
Pd 14.7693 22.3879 14.7668
Pd 14.7763 24.3071 16.6806
Pd 16.6729 22.395 16.6791
Co 16.6732 24.3106 14.7845
Pd 14.7774 22.3915 18.5778
Pd 14.7851 24.3055 20.4913
Pd 16.6822 22.3945 20.4889
Co 16.6793 24.3091 18.5897
Pd 14.7885 22.3911 22.3951
Pd 14.7964 24.3023 24.3101
Pd 16.6901 22.3918 24.3071
Co 16.6889 24.3056 22.4014
Pd 14.7932 22.3876 26.2178
Pd 14.797 24.2969 28.1315
Pd 16.6906 22.3862 28.1279
Co 16.6944 24.3009 26.2205
Pd 14.7894 22.3799 30.0401
Pd 14.7868 24.2893 31.9496
Pd 16.6837 22.3776 31.9453
Co 16.6901 24.2948 30.0394
Pd 14.7789 22.3686 33.8557
Pd 14.7786 24.2792 35.7582
Pd 16.6748 22.3657 35.7526
Co 16.6815 24.2872 33.8501
Pd 14.7705 22.3519 37.663
Pd 14.7777 24.2663 39.5594
Pd 16.6741 22.35 39.5526
Co 16.6759 24.2762 37.6516
Pd 14.7835 22.3397 41.4632
Pd 14.8119 24.2494 43.3283
Pd 16.6848 22.3458 43.3442
Co 16.6909 24.268 41.4337
Pd 14.8159 22.3769 45.2728
Pd 13.0735 26.1176 47.0135
Pd 16.7182 22.3729 47.1089
Co 16.7093 24.2528 45.2303
Co 14.9104 24.3006 46.972
Pd 16.8473 28.0113 3.46766
Pd 14.8384 28.1686 5.33545
Pd 16.7704 26.256 5.42201
Co 18.7676 26.2642 3.51442
Pd 14.8372 26.2465 7.21616
Pd 14.7973 28.1762 9.0987
Pd 16.7007 26.245 9.10542
Co 16.7054 28.1946 7.21429
Pd 14.7897 26.2374 10.9911
Pd 14.7706 28.1587 12.8834
Pd 16.6772 26.235 12.896
Co 16.6817 28.1599 11.0016
Pd 14.778 26.2296 14.7853
Pd 14.7731 28.146 16.6886
Pd 16.6757 26.2276 16.6926
Co 16.6698 28.1512 14.7933
Pd 14.7803 26.2235 18.5906
Pd 14.7829 28.1364 20.4981
Pd 16.6841 26.222 20.4991
Co 16.677 28.1403 18.5969
Pd 14.7915 26.2183 22.4042
Pd 14.7947 28.1292 24.3161
Pd 16.6934 26.2167 24.3134
Co 16.6872 28.133 22.4076
Pd 14.8002 26.2131 26.2237
Pd 14.7955 28.1241 28.1372
Pd 16.6941 26.2114 28.1334
Co 16.6929 28.1272 26.2262
Pd 14.793 26.2079 30.0432
Pd 14.7853 28.1212 31.9553
Pd 16.6862 26.2062 31.9476
Co 16.6888 28.1227 30.0451
Pd 14.7829 26.2027 33.856
Pd 14.777 28.1207 35.7642
Pd 16.6788 26.2012 35.7525
Co 16.6802 28.12 33.8559
Pd 14.7815 26.1974 37.6588
Pd 14.7756 28.123 39.5661
Pd 16.6815 26.1964 39.5449
Co 16.6744 28.1209 37.658
Pd 14.7921 26.1928 41.4446
Pd 14.8054 28.1269 43.3421
Pd 16.7119 26.1934 43.3111
Co 16.6886 28.1193 41.4423
Pd 14.8697 26.1852 45.1854
Pd 14.8607 28.0728 47.1166
Pd 16.6981 26.1862 47.093
Co 16.7081 28.1254 45.2425
Pd 16.73 24.3096 48.883
Co 22.4525 26.1143 48.9574
Pd 16.7404 30.0444 5.2949
Pd 14.8153 30.0688 7.17166
Pd 14.7803 31.9878 9.08202
Pd 16.6761 30.0812 9.10005
Co 16.7383 31.922 7.22452
Pd 14.771 30.0807 10.9775
Pd 14.7566 31.993 12.8813
Pd 16.6638 30.0742 12.891
Co 16.6486 31.9962 10.9791
Pd 14.762 30.0712 14.7839
Pd 14.7569 31.9772 16.6828
Pd 16.6673 30.0605 16.695
Co 16.6588 31.9773 14.7927
Pd 14.7721 30.0561 18.5925
Pd 14.7727 31.9628 20.4982
Pd 16.6783 30.0498 20.5019
Co 16.6662 31.9682 18.5944
Pd 14.7847 30.0459 22.4077
Pd 14.7818 31.9519 24.3194
Pd 16.6869 30.0418 24.3188
Co 16.6782 31.9557 22.4101
Pd 14.7901 30.0387 26.2294
Pd 14.7828 31.9467 28.1453
Pd 16.6878 30.0366 28.1393
Co 16.6826 31.9485 26.2318
Pd 14.7865 30.0357 30.0515
Pd 14.7758 31.9474 31.9673
Pd 16.681 30.0345 31.9568
Co 16.68 31.9453 30.0539
Pd 14.776 30.0362 33.8674
Pd 14.7625 31.9524 35.7843
Pd 16.6721 30.0357 35.7647
Co 16.6703 31.948 33.8709
Pd 14.7674 30.0421 37.6757
Pd 14.7648 31.9583 39.587
Pd 16.6706 30.0404 39.5671
Co 16.6662 31.9482 37.6751
Pd 14.7786 30.0405 41.4801
Pd 14.7886 31.9372 43.3867
Pd 16.6819 30.0302 43.3616
Co 16.6586 31.956 41.4919
Pd 14.8139 29.9965 45.2868
Pd 16.7327 29.9901 47.1396
Co 16.7424 31.8714 45.2343
Pd 16.6562 33.8688 9.08614
Pd 14.7629 33.8791 10.9649
Pd 14.7504 35.8025 12.884
Pd 16.6399 33.8903 12.8881
Co 16.6873 35.7455 11.0298
Pd 14.7472 33.8899 14.7724
Pd 14.7462 35.7983 16.6796
Pd 16.6532 33.886 16.6855
Co 16.6315 35.8061 14.7717
Pd 14.7558 33.8812 18.5859
Pd 14.7564 35.779 20.4899
Pd 16.6668 33.8696 20.4999
Co 16.6571 35.7811 18.5907
Pd 14.7706 33.865 22.4065
Pd 14.7696 35.7645 24.3206
Pd 16.6755 33.8582 24.3213
Co 16.6658 35.7693 22.4076
Pd 14.7759 33.8569 26.2351
Pd 14.7707 35.759 28.1553
Pd 16.6764 33.8529 28.1479
Co 16.6724 35.7584 26.2373
Pd 14.7727 33.8544 30.0642
Pd 14.7599 35.7626 31.9873
Pd 16.6698 33.8537 31.9704
Co 16.6677 35.7584 30.0676
Pd 14.7606 33.8606 33.8867
Pd 14.7534 35.7714 35.801
Pd 16.6595 33.8601 35.7876
Co 16.6618 35.7593 33.8866
Pd 14.7563 33.8594 37.7034
Pd 14.7624 35.7643 39.6008
Pd 16.6512 33.8549 39.5915
Co 16.6414 35.7736 37.7112
Pd 14.7733 33.8363 41.5123
Pd 16.6687 33.8253 43.3909
Co 16.7053 35.7035 41.4601
Pd 16.63 37.6921 12.8941
Pd 14.7465 37.6896 14.7711
Pd 14.7511 39.604 16.6892
Pd 16.6381 37.6931 16.6824
Co 16.6872 39.556 14.8297
Pd 14.7485 37.6877 18.5748
Pd 14.753 39.5873 20.4884
Pd 16.6561 37.6804 20.4921
Co 16.6389 39.5983 18.5743
Pd 14.7575 37.6755 22.4011
Pd 14.7631 39.5645 24.3171
Pd 16.6668 37.6631 24.3228
Co 16.6637 39.5663 22.407
Pd 14.7678 37.661 26.2407
Pd 14.7642 39.5586 28.1701
Pd 16.6678 37.6574 28.1575
Co 16.6662 39.5585 26.2429
Pd 14.7598 37.6642 30.081
Pd 14.7566 39.5697 32.0005
Pd 16.6593 37.6633 31.9896
Co 16.6656 39.5546 30.0794
Pd 14.754 37.6649 33.9098
Pd 14.7586 39.574 35.8033
Pd 16.645 37.6644 35.8031
Co 16.6435 39.5745 33.9147
Pd 14.7583 37.6549 37.7187
Pd 16.6454 37.6508 39.601
Co 16.6972 39.5191 37.6653
Pd 16.6421 41.4871 16.6973
Pd 14.7586 41.4791 18.5795
Pd 14.7663 43.378 20.5003
Pd 16.6517 41.4743 20.4945
Co 16.7058 43.3374 18.6424
Pd 14.7621 41.4648 22.3931
Pd 14.7705 43.3497 24.3206
Pd 16.6665 41.4561 24.3205
Co 16.6585 43.3657 22.3953
Pd 14.7637 41.4542 26.2464
Pd 14.7715 43.3436 28.178
Pd 16.6674 41.4501 28.171
Co 16.6803 43.3287 26.2485
Pd 14.7644 41.4527 30.1004
Pd 14.7696 43.3596 31.9997
Pd 16.6546 41.4563 31.9985
Co 16.6602 43.3534 30.1023
Pd 14.7642 41.4544 33.9166
Pd 16.6485 41.4561 35.7997
Co 16.7097 43.3128 33.8574
Pd 16.6639 45.2525 20.5186
Pd 14.7783 45.2289 22.3972
Pd 14.7895 47.0953 24.3129
Pd 16.6771 45.2245 24.3262
Co 16.7354 47.0757 22.4753
Pd 14.7994 45.1991 26.252
Pd 14.7905 47.0893 28.1968
Pd 16.6778 45.2184 28.1763
Co 16.7009 47.0573 26.2539
Pd 14.7805 45.2165 30.1073
Pd 16.6663 45.2343 31.9852
Co 16.7369 47.0639 30.0329
Pd 16.7193 48.8875 24.3842
Pd 14.8491 48.8089 26.2572
Pd 16.7203 48.8818 28.1289
Pd 18.6012 5.29946 20.4636
Pd 20.5407 3.52811 20.5032
Co 20.5498 5.36265 18.6089
Pd 18.6393 3.53096 22.4071
Pd 18.6396 5.34221 24.3113
Pd 20.5129 3.43666 24.2823
Co 20.5192 5.32535 22.386
Pd 18.6097 3.45179 26.1879
Pd 18.64 5.33631 28.0702
Pd 20.5133 3.4308 28.0935
Co 20.5305 5.29327 26.1907
Pd 18.6401 3.51937 29.969
Pd 18.6024 5.28173 31.9178
Pd 20.5421 3.51083 31.8731
Co 20.5201 5.3135 29.9955
Co 20.5516 5.33946 33.7729
Pd 18.5809 9.06961 16.6451
Pd 20.4781 7.20473 16.6549
Co 20.5203 9.13442 14.781
Pd 18.5956 7.19587 18.5404
Pd 18.5821 9.07638 20.4521
Pd 20.4911 7.19622 20.4679
Co 20.4696 9.07665 18.5409
Pd 18.601 7.19728 22.3587
Pd 18.5927 9.09675 24.2695
Pd 20.5202 7.21013 24.2882
Co 20.4992 9.09778 22.3733
Pd 18.6072 7.22873 26.1936
Pd 18.5932 9.09056 28.1233
Pd 20.5207 7.20411 28.0989
Co 20.508 9.10384 26.1965
Pd 18.6018 7.1851 30.0283
Pd 18.5834 9.05804 31.9403
Pd 20.4926 7.17832 31.9191
Co 20.5003 9.08567 30.0194
Pd 18.5973 7.17192 33.8466
Pd 18.583 9.03958 35.7472
Pd 20.4805 7.17544 35.7323
Co 20.4716 9.0526 33.8515
Co 20.5232 9.09916 37.6117
Pd 18.5716 12.8693 12.8379
Pd 20.4642 10.9951 12.841
Co 20.517 12.9355 10.981
Pd 18.5751 10.9826 14.7238
Pd 18.562 12.8641 16.6394
Pd 20.4629 10.9835 16.6439
Co 20.4541 12.8675 14.7299
Pd 18.5707 10.9753 18.5364
Pd 18.5704 12.8745 20.4533
Pd 20.4818 10.9836 20.4578
Co 20.4768 12.8818 18.5558
Pd 18.5774 10.9821 22.362
Pd 18.5816 12.8786 24.2856
Pd 20.4946 10.9928 24.2847
Co 20.4849 12.8845 22.3739
Pd 18.5861 10.9837 26.1993
Pd 18.582 12.8724 28.1189
Pd 20.4951 10.9868 28.1139
Co 20.4903 12.8851 26.2022
Pd 18.5783 10.9697 30.0364
Pd 18.5717 12.8559 31.9505
Pd 20.4834 10.9654 31.9404
Co 20.486 12.8723 30.0303
Pd 18.5724 10.9507 33.8614
Pd 18.564 12.8332 35.7634
Pd 20.4654 10.9534 35.7538
Co 20.4789 12.8574 33.8477
Pd 18.5775 10.946 37.6736
Pd 18.5738 12.8264 39.5642
Pd 20.4673 10.9535 39.5566
Co 20.4569 12.831 37.6728
Co 20.52 12.8877 41.4217
Pd 18.5872 16.6961 9.04645
Pd 20.4684 14.8109 9.05256
Co 20.5371 16.7727 7.20109
Pd 18.5749 14.7952 10.9255
Pd 18.5621 16.6704 12.8476
Pd 20.4579 14.782 12.8474
Co 20.4568 16.6793 10.9464
Pd 18.5602 14.7717 14.7338
Pd 18.5634 16.6712 16.6527
Pd 20.4701 14.7737 16.6509
Co 20.4723 16.6801 14.7617
Pd 18.565 14.7696 18.5517
Pd 18.5754 16.6754 20.4712
Pd 20.4809 14.7812 20.469
Co 20.4781 16.6783 18.5674
Pd 18.577 14.7759 22.3753
Pd 18.582 16.6764 24.2946
Pd 20.4875 14.7828 24.2919
Co 20.4865 16.6824 22.3854
Pd 18.5803 14.7737 26.2053
Pd 18.5824 16.6704 28.1219
Pd 20.4881 14.7768 28.1185
Co 20.4892 16.6798 26.2082
Pd 18.5779 14.7635 30.0348
Pd 18.5767 16.657 31.9443
Pd 20.4825 14.763 31.9407
Co 20.4876 16.6704 30.0306
Pd 18.5666 14.7447 33.8573
Pd 18.5653 16.6401 35.7611
Pd 20.4725 14.7431 35.7576
Co 20.4802 16.654 33.8474
Pd 18.5623 14.7341 37.6737
Pd 18.5638 16.6261 39.5641
Pd 20.4606 14.7391 39.5601
Co 20.4748 16.6431 37.6515
Pd 18.5767 14.7453 41.4811
Pd 18.5874 16.6391 43.3647
Pd 20.4705 14.7564 43.3548
Co 20.4587 16.6295 41.4656
Co 20.5369 16.712 45.2112
Pd 18.6444 20.5616 5.27695
Pd 20.529 18.6678 5.27792
Co 20.6225 20.6373 3.55971
Pd 18.6123 18.6383 7.1381
Pd 18.5894 20.5 9.07533
Pd 20.4743 18.6098 9.07546
Co 20.4965 20.5233 7.18247
Pd 18.5699 18.5894 10.9517
Pd 18.5688 20.4879 12.8721
Pd 20.4712 18.5838 12.87
Co 20.4838 20.504 10.9917
Pd 18.5638 18.5756 14.7612
Pd 18.5739 20.4865 16.6766
Pd 20.4778 18.5828 16.6739
Co 20.4775 20.4906 14.7839
Pd 18.5741 18.579 18.571
Pd 18.5819 20.4872 20.4861
Pd 20.4858 18.5843 20.4829
Co 20.4849 20.4907 18.586
Pd 18.5819 18.58 22.3883
Pd 18.5884 20.4856 24.3039
Pd 20.4909 18.5844 24.3007
Co 20.4913 20.4903 22.3965
Pd 18.5856 18.5772 26.2113
Pd 18.5889 20.4799 28.1247
Pd 20.4914 18.5786 28.1215
Co 20.4943 20.4871 26.2141
Pd 18.5829 18.5682 30.0338
Pd 18.5834 20.4697 31.9416
Pd 20.4875 18.5665 31.9384
Co 20.4924 20.4789 30.0314
Pd 18.5759 18.5545 33.8495
Pd 18.576 20.4561 35.7485
Pd 20.4802 18.5524 35.7459
Co 20.4871 20.4672 33.8405
Pd 18.5656 18.5381 37.6571
Pd 18.5703 20.4439 39.5507
Pd 20.4734 18.5403 39.5477
Co 20.48 20.4541 37.6406
Pd 18.5707 18.5373 41.4638
Pd 18.5879 20.4408 43.3427
Pd 20.4742 18.553 43.3409
Co 20.4843 20.4538 41.43
Pd 18.6095 18.5747 45.2773
Pd 18.6324 20.4942 47.1445
Pd 20.524 18.6019 47.1386
Co 20.4913 20.459 45.2385
Co 20.6097 20.5664 48.8599
Pd 18.7759 22.546 3.42751
Pd 18.6734 24.3723 5.36583
Pd 20.5597 22.4778 5.35547
Co 20.5575 24.4132 3.5106
Pd 18.6157 22.4303 7.1927
Pd 18.5994 24.325 9.11329
Pd 20.5009 22.4213 9.10705
Co 20.5448 24.3553 7.24571
Pd 18.5815 22.4023 10.99
Pd 18.579 24.318 12.8973
Pd 20.4824 22.407 12.9012
Co 20.4934 24.3259 11.0183
Pd 18.5746 22.4 14.7854
Pd 18.5779 24.3129 16.6932
Pd 20.4833 22.4016 16.6936
Co 20.483 24.3181 14.8048
Pd 18.5802 22.3978 18.5882
Pd 18.5862 24.3094 20.4981
Pd 20.4903 22.4 20.4965
Co 20.4876 24.3129 18.5999
Pd 18.5884 22.3961 22.3995
Pd 18.593 24.3054 24.3114
Pd 20.4955 22.3973 24.3088
Co 20.4945 24.3094 22.4059
Pd 18.5923 22.392 26.2173
Pd 18.5936 24.3 28.129
Pd 20.496 22.3918 28.1252
Co 20.4975 24.3047 26.2199
Pd 18.5895 22.385 30.0349
Pd 18.588 24.2932 31.9421
Pd 20.492 22.3832 31.937
Co 20.4956 24.2986 30.0338
Pd 18.5823 22.3749 33.8447
Pd 18.5807 24.2849 35.745
Pd 20.4861 22.3725 35.7379
Co 20.49 24.291 33.8393
Pd 18.5775 22.3633 37.6438
Pd 18.5823 24.2759 39.5348
Pd 20.4841 22.3643 39.5282
Co 20.4865 24.2835 37.6313
Pd 18.5808 22.3528 41.437
Pd 18.5943 24.2697 43.3217
Pd 20.4971 22.3644 43.3186
Co 20.4918 24.2772 41.4167