4033
Atoms. Timestep: 20757
Co 11.0546 10.1847 25.1697
Pd 11.257 13.2087 20.2668
Pd 15.161 12.5574 18.7083
Co 14.7196 10.3581 20.126
Pd 3.69116 22.1756 22.2975
Pd 6.68415 21.1853 27.7359
Pd 8.37591 22.8136 26.5087
Co 11.2611 14.7175 31.4463
Co 10.0554 12.8871 30.4905
Pd 11.7752 19.2191 24.0911
Pd 7.58412 17.3518 21.2551
Co 8.9622 19.3315 20.3585
Pd 6.70248 19.7173 22.0927
Pd 9.21178 18.0518 25.2992
Pd 7.46958 16.0258 25.7484
Co 6.49599 29.3393 29.525
Pd 3.21698 22.1301 24.9
Pd 11.3054 12.0995 32.6338
Pd 6.62013 18.1398 24.3514
Co 2.52174 25.5083 24.6974
Pd 5.41343 26.1971 27.0482
Pd 6.1485 17.5144 29.4671
Pd 7.73678 15.7611 28.2967
Co 7.08645 16.9861 31.7357
Co 7.66852 24.8486 38.9078
Pd 4.64328 26.6331 21.8121
Pd 6.01407 23.5256 19.003
Co 12.3412 24.8029 12.1336
Pd 10.2121 22.9678 20.5306
Pd 5.74347 25.6821 17.5171
Pd 7.41911 20.5447 24.8187
Co 8.27001 25.8291 16.5656
Pd 5.21263 19.5769 26.3603
Pd 5.55723 21.5009 20.5382
Pd 3.80426 24.1835 26.4441
Co 2.94201 26.6298 27.0397
Pd 2.32492 28.1155 25.1192
Pd 2.59795 29.4964 27.4744
Pd 5.92762 23.685 27.9342
Co 5.64675 22.2186 25.5704
Pd 4.04096 21.6894 27.4716
Pd 4.48572 31.3735 30.0261
Pd 8.33286 14.7792 30.7933
Co 5.16486 19.8866 29.2237
Pd 5.91417 25.5732 34.9993
Pd 5.49427 27.9974 36.0053
Pd 11.7736 26.3918 44.7358
Co 5.18426 27.3655 33.4612
Co 15.5213 26.4044 43.1473
Pd 8.73272 31.1888 13.1038
Pd 10.5554 24.8453 17.0433
Pd 11.8007 20.8143 11.8819
Pd 7.46438 28.6652 13.5466
Co 7.31565 27.455 18.1924
Pd 3.96868 25.278 19.6171
Pd 3.02784 28.5517 20.723
Pd 4.90555 27.7179 19.0639
Co 6.92414 25.3898 22.9585
Pd 7.30622 30.5831 15.4503
Pd 2.2242 27.0994 22.7459
Pd 8.52289 23.1131 24.0086
Co 5.23802 24.0471 21.4105
Pd 5.55512 29.3233 21.1067
Pd 3.98879 25.113 29.0609
Pd 3.47861 30.5718 25.1754
Co 4.51591 28.415 26.3092
Pd 3.26994 32.1872 27.2759
Pd 7.02469 28.3213 27.347
Pd 9.65669 27.9863 36.7818
Co 4.61055 29.1299 31.3641
Pd 4.82303 32.1537 32.8285
Pd 7.74868 29.1665 38.3679
Pd 7.22812 23.9646 36.5558
Co 8.2104 29.91 33.2303
Pd 7.94462 20.9478 32.9525
Pd 8.04687 25.9045 41.2107
Co 7.29442 32.278 33.2838
Pd 7.89519 34.9742 14.3106
Pd 8.86455 32.5983 22.1609
Pd 6.72332 29.949 18.831
Pd 7.6619 30.1341 22.6245
Co 9.66917 36.2306 12.9872
Pd 10.0581 29.1252 22.346
Pd 10.1745 34.2028 26.1746
Pd 4.74855 26.7114 24.4843
Co 9.02511 29.2271 18.1954
Pd 4.51912 33.6435 21.9076
Pd 5.50252 32.1077 25.813
Pd 8.45612 34.5909 24.2016
Co 9.87096 31.6702 26.1855
Pd 6.39598 31.8616 20.7532
Pd 5.1225 30.3919 27.7183
Pd 4.2798 28.0372 28.9139
Co 6.17868 33.2376 30.9314
Pd 6.23898 34.5848 33.0281
Pd 7.48633 29.6952 35.8305
Co 8.77967 34.0815 32.9868
Pd 8.88493 29.2533 24.8861
Pd 7.08311 34.3679 21.568
Pd 7.56184 30.8407 26.8001
Pd 12.8272 33.944 25.2541
Co 5.97245 35.812 27.8556
Pd 4.06704 28.9806 23.2179
Pd 8.35688 35.9723 27.046
Pd 11.8333 38.7395 26.356
Co 6.03647 33.8187 23.9975
Pd 5.66401 35.602 30.3688
Pd 5.42765 31.4296 23.2095
Co 7.19382 31.7326 29.121
Pd 6.75901 33.6458 18.8298
Pd 3.58205 31.1442 21.4186
Pd 9.14216 39.6744 30.1629
Co 3.65626 32.9838 24.2537
Co 9.29602 16.4286 32.577
Pd 10.9877 10.6562 22.3145
Pd 16.396 7.62235 26.0393
Co 7.13682 18.1758 27.1451
Pd 9.43227 13.9318 33.0366
Pd 12.5617 7.91974 28.7381
Pd 9.07704 11.0084 29.1646
Co 9.54936 11.8107 24.0869
Co 9.23012 16.1719 37.8469
Pd 14.9755 9.9077 17.6713
Pd 10.977 18.211 18.3829
Co 9.68247 16.8734 16.7351
Pd 8.87295 13.4137 28.1745
Pd 8.16622 13.4578 25.6074
Pd 9.9522 15.2542 26.3714
Co 8.65534 17.2534 19.0045
Pd 11.4084 12.4325 28.2581
Pd 8.87037 20.0388 27.0671
Pd 11.1271 17.2773 31.1518
Co 11.561 13.0634 22.8595
Pd 9.32709 18.1724 36.1873
Pd 6.47736 27.1336 39.4015
Pd 7.31083 15.5184 33.7466
Co 9.36669 21.3433 30.5563
Co 7.04519 19.1294 36.348
Pd 8.04986 21.6113 19.6499
Pd 6.62591 19.2072 19.4596
Co 10.033 21.1813 14.0108
Pd 10.4114 15.3813 18.7916
Pd 7.0607 23.6085 16.4909
Pd 9.41038 15.2883 21.2651
Co 10.4699 17.4806 20.8015
Pd 6.45691 21.2468 17.6762
Pd 11.7228 17.2245 25.9295
Pd 12.4741 14.8116 27.1841
Co 8.26892 16.3893 23.4193
Pd 7.86788 19.3989 29.4199
Pd 6.80829 21.5471 30.4063
Pd 9.65107 17.5326 27.7718
Co 13.6977 19.3105 25.9957
Pd 7.77579 18.2583 33.9603
Pd 6.10799 24.1968 30.6231
Pd 10.4697 15.2708 29.1025
Co 8.83309 17.14 30.1033
Pd 7.72659 22.3102 38.445
Pd 7.38946 21.4381 35.6969
Pd 7.26821 16.6246 36.1942
Co 5.47396 22.0543 32.3601
Co 9.4881 22.7939 36.284
Pd 11.1796 27.1309 12.7787
Pd 13.6553 25.6104 10.1489
Co 11.5163 22.9166 13.3023
Pd 9.23342 23.6329 14.8825
Pd 10.6401 20.7467 19.0295
Pd 8.58449 19.5188 17.7185
Co 9.855 24.7132 12.5333
Pd 11.8632 23.0068 18.4537
Pd 8.77421 27.0052 11.7185
Pd 10.0014 20.929 24.846
Co 6.61103 27.8242 22.8749
Pd 6.27962 22.3017 23.0195
Pd 4.81988 20.2837 23.879
Pd 10.0103 24.678 22.707
Co 12.2567 24.2395 21.5392
Pd 11.4539 19.6863 26.9466
Pd 9.6217 27.3567 27.0264
Pd 10.3615 21.9271 28.0918
Co 9.9253 24.5796 27.8473
Pd 4.54619 26.5355 31.2325
Pd 7.19012 25.6884 32.5393
Pd 4.78058 24.4983 32.8655
Co 7.82161 25.5701 27.5702
Pd 7.79287 27.5869 34.32
Pd 10.2772 24.8041 39.9109
Pd 8.39291 23.3479 31.8188
Co 10.551 23.611 30.2783
Pd 9.56336 25.7634 43.3131
Pd 8.38838 23.2561 40.8203
Pd 8.81408 20.6082 40.2569
Co 10.1811 29.1222 39.2579
Co 12.0282 28.6212 40.8951
Pd 12.429 33.7467 15.0716
Pd 12.366 27.9757 10.3231
Pd 18.7076 31.5824 8.73013
Pd 13.767 26.8524 12.5531
Co 16.0762 22.3603 11.6374
Pd 8.84559 26.3882 14.2085
Pd 5.70488 28.8392 16.7136
Pd 14.0017 28.9516 17.1091
Co 8.27027 28.3119 16.0574
Pd 2.80591 24.6841 22.0435
Pd 9.31986 33.2316 19.6803
Pd 6.58616 25.9651 20.2266
Co 8.92274 27.0086 23.1536
Pd 6.66057 24.511 25.3941
Pd 7.37929 27.017 25.1801
Pd 8.6782 27.8699 29.4617
Co 11.2575 30.3105 24.1277
Pd 4.58761 24.176 23.8685
Pd 5.35972 33.3849 28.4759
Pd 6.40585 26.5654 29.4736
Co 10.8622 29.5097 26.3914
Pd 4.38251 22.4 29.9403
Pd 5.71072 29.781 33.7935
Pd 10.0069 29.6061 34.8705
Co 8.94733 30.0877 30.9012
Pd 8.73401 31.9516 35.3175
Pd 8.74075 31.2028 39.7521
Pd 7.5341 26.6615 36.8867
Co 11.7861 29.2289 37.145
Pd 9.7426 25.1538 37.2789
Pd 13.4949 25.1217 46.4572
Pd 12.8736 20.8767 41.1622
Co 8.94188 26.955 39.0781
Pd 5.37989 25.5359 37.6409
Pd 14.4753 27.4925 47.2911
Co 14.0247 27.5922 44.8386
Pd 16.8491 28.738 9.44416
Pd 12.351 26.8421 17.9253
Pd 6.40883 26.8002 15.2078
Pd 10.9792 31.5947 14.5638
Co 12.8914 33.6339 12.4637
Pd 11.3955 25.2206 14.5773
Pd 4.33008 32.8969 19.4017
Pd 11.2502 31.4038 21.3009
Co 6.51498 35.9815 17.7083
Pd 7.92726 31.981 24.4933
Pd 7.69791 39.6109 23.6685
Pd 11.3648 33.9717 21.5703
Co 8.20676 35.6921 19.4786
Pd 6.18593 29.5172 24.8798
Pd 4.45128 34.4271 26.203
Pd 10.7094 32.7191 23.9628
Co 8.49981 32.5716 31.0304
Pd 6.91816 28.1423 31.714
Pd 7.81655 34.5262 29.2977
Pd 6.59133 30.7907 31.4686
Co 10.9542 29.7635 32.4667
Pd 11.4633 33.6564 32.8418
Pd 8.07691 36.2769 34.2409
Pd 7.24266 31.6958 37.5338
Co 9.75043 31.7765 32.979
Pd 8.48635 28.6255 41.0361
Pd 12.8258 29.713 43.3097
Co 6.03876 31.8532 35.2502
Pd 4.1325 30.2861 18.9536
Pd 9.32309 39.493 16.4608
Pd 7.89593 38.1107 18.4923
Pd 8.69182 34.7349 17.2289
Co 12.1085 36.498 15.9559
Pd 8.4389 39.5389 20.9377
Pd 8.41815 42.0842 24.6695
Pd 11.0592 35.3651 23.8209
Co 13.2138 35.2025 20.2422
Pd 11.0565 42.0912 24.6744
Pd 11.9276 39.5595 30.5354
Pd 7.44981 33.587 26.7131
Co 13.8259 39.6772 22.6835
Pd 12.4218 31.57 26.1167
Pd 7.97778 36.035 31.5375
Pd 9.58035 32.7362 28.531
Co 13.3011 35.552 28.825
Pd 10.1917 37.7798 35.0501
Pd 12.4023 36.354 31.098
Co 11.7456 35.8986 36.1809
Pd 15.7507 44.0326 17.9256
Pd 6.31487 35.957 25.338
Pd 14.6514 42.2524 27.1998
Pd 5.34754 35.5127 19.9953
Co 9.5902 43.2064 22.6549
Pd 9.90488 37.1487 25.3272
Pd 7.60804 37.4187 29.1791
Pd 7.80356 37.0308 23.5331
Co 11.8479 39.698 24.0086
Pd 10.4095 36.0827 33.0079
Pd 9.00238 38.3769 32.6618
Co 9.66365 38.0593 27.7969
Pd 15.9433 44.9422 21.7922
Pd 7.51002 38.2599 26.084
Pd 10.3985 44.3689 25.6794
Co 12.8333 43.6261 25.7782
Co 23.7785 3.71789 20.7287
Pd 12.7049 9.19617 20.892
Pd 13.0036 11.3265 24.0039
Co 18.4887 5.90393 23.4481
Pd 12.4472 8.73407 23.593
Pd 9.29559 11.3207 26.592
Pd 16.9147 13.2737 29.12
Co 18.258 7.90901 21.8057
Co 18.9098 8.20352 29.5259
Pd 9.24674 12.725 21.817
Pd 14.0802 7.22223 22.1923
Co 14.5405 9.84765 22.518
Pd 9.75725 14.4421 23.8283
Pd 12.7894 11.3713 18.9012
Pd 14.0546 13.7174 22.8854
Co 13.6583 13.9282 20.3208
Pd 14.6792 8.99032 27.4444
Pd 13.3741 13.9288 32.8389
Pd 14.249 12.6286 28.2809
Co 13.0089 10.8859 26.5998
Pd 11.0434 9.79709 27.8232
Pd 12.7239 12.7401 30.5479
Pd 15.2096 14.4803 30.844
Co 12.9856 15.0595 29.6234
Co 13.4946 16.416 31.4941
Pd 8.0265 21.219 15.5577
Pd 14.1563 12.0289 16.3396
Co 13.2983 17.0748 14.6038
Pd 13.4864 14.5179 15.5076
Pd 12.6393 16.3881 19.5696
Pd 14.7336 15.4451 18.3209
Co 12.1149 16.1321 16.9219
Pd 9.10941 18.8432 22.8952
Pd 14.5298 16.0067 21.7104
Pd 13.9246 13.1191 25.7027
Co 11.9752 15.2302 21.7547
Pd 11.2402 12.8485 25.6198
Pd 12.2355 17.3584 28.6085
Pd 14.2269 16.9715 26.7225
Co 16.0696 14.4936 20.2728
Pd 11.7196 15.9238 33.5495
Pd 6.25178 19.3471 31.6756
Pd 14.5272 16.1772 33.8089
Co 12.8091 19.0045 30.6583
Pd 9.52149 15.6268 35.1694
Pd 11.5691 17.0219 36.0234
Pd 15.1955 11.4248 36.1531
Co 13.0192 15.1302 35.5708
Co 10.8654 17.8623 38.3354
Pd 12.7875 20.5462 17.3357
Pd 9.06745 18.777 15.194
Co 12.402 20.5593 14.5843
Pd 11.6867 18.4686 15.8502
Pd 9.28473 22.493 17.4758
Pd 13.547 18.9073 12.7913
Co 16.8071 20.8036 15.3314
Pd 12.8634 21.9063 20.6074
Pd 8.81011 21.3283 22.1902
Pd 11.1277 20.0623 21.5806
Co 12.7964 19.3792 19.6401
Pd 10.8176 16.8467 23.3227
Pd 12.9475 21.4879 24.9792
Pd 15.5957 19.3007 24.4493
Co 13.7988 23.0758 22.9743
Pd 12.3847 15.0411 24.4599
Pd 12.1233 21.4461 29.9363
Pd 14.8098 17.2633 29.4531
Co 12.9903 21.7147 27.4967
Pd 10.519 19.3419 29.5017
Pd 10.5463 18.2799 33.7941
Pd 13.8607 19.582 28.5272
Co 14.0946 23.0266 29.9961
Pd 13.8162 18.2249 35.637
Pd 10.0044 22.7135 33.7372
Pd 13.5345 19.1515 38.3769
Co 8.92902 18.8994 31.7426
Pd 8.11165 18.3591 38.5479
Pd 9.2405 20.4572 37.5229
Pd 12.5611 18.0995 40.5063
Co 12.6009 23.4323 40.2918
Co 13.1341 22.95 42.694
Pd 19.4249 25.6164 7.33062
Pd 12.3416 29.0577 7.70071
Co 15.7585 26.2182 5.64078
Pd 11.6707 22.6966 15.7856
Pd 13.9132 21.9292 13.0928
Pd 18.298 22.8211 10.5874
Co 18.8277 26.9707 11.5783
Pd 10.807 25.7815 10.3582
Pd 9.93218 29.0828 14.0143
Pd 13.3056 24.5238 16.8736
Co 9.64134 26.9226 18.3106
Pd 7.7723 23.7182 21.2709
Pd 8.4414 24.6138 18.7974
Pd 15.5048 21.9664 24.3409
Co 11.4209 29.1108 17.5243
Pd 11.311 22.3384 23.0268
Pd 11.1224 27.5573 24.6271
Pd 12.4486 24.987 24.0398
Co 14.2629 25.4301 22.0797
Pd 11.0891 23.1976 25.7803
Pd 8.21968 23.2126 29.082
Pd 12.2692 23.8674 28.4539
Co 15.3534 24.5792 24.2615
Pd 10.9871 20.391 32.1907
Pd 9.47574 27.6817 32.0076
Pd 12.4112 20.5962 34.3494
Co 11.0186 28.8003 30.0867
Pd 11.365 24.4543 35.2315
Pd 6.93853 23.305 33.9654
Pd 11.6495 19.6398 36.658
Co 12.7265 25.9897 40.2006
Pd 8.79643 25.0763 34.6722
Pd 10.4498 22.5504 38.7588
Pd 11.1598 20.1065 39.3764
Co 10.4123 26.9519 41.079
Pd 10.596 28.2553 43.1269
Pd 11.5873 16.8922 42.4213
Pd 9.70355 17.8622 40.5295
Co 13.0375 19.009 42.9806
Co 14.4911 21.0184 43.2329
Pd 16.4204 30.8963 7.64603
Pd 26.4066 32.9157 4.03622
Pd 14.3466 30.1346 6.18158
Pd 15.0581 32.8126 6.43137
Co 21.7381 27.5864 3.51923
Pd 10.0362 29.253 11.3954
Pd 13.772 24.3136 14.2344
Pd 16.1856 26.5287 10.8292
Co 18.3592 26.9594 14.4573
Pd 10.6332 27.3431 15.9137
Pd 7.97911 28.2359 20.6133
Pd 11.1037 25.3783 19.6806
Co 15.069 24.534 12.0791
Pd 11.3921 26.7772 22.0478
Pd 13.608 27.4502 23.3242
Pd 12.8638 29.5759 22.1743
Co 9.78462 30.3534 16.2448
Pd 9.40434 25.3101 25.2634
Pd 12.2515 27.9276 27.6155
Pd 14.0737 26.6623 25.71
Co 9.05173 26.0695 20.8651
Pd 11.7617 25.6581 26.5078
Pd 12.2503 27.6362 32.1983
Pd 13.917 23.7593 26.1425
Co 14.1447 29.4775 27.8354
Pd 13.5263 27.706 29.8726
Pd 12.5773 29.2616 34.5796
Pd 8.69496 25.4712 30.2985
Co 12.9564 30.0917 30.7765
Pd 12.2893 26.8671 36.1818
Pd 10.0494 31.0561 37.4546
Pd 11.3771 31.7769 35.011
Co 14.0365 31.4622 35.0005
Pd 12.0618 30.7387 39.4367
Pd 14.2432 29.9048 41.0308
Pd 17.8113 29.645 37.1988
Co 13.4124 28.5938 38.9681
Pd 13.1108 27.1504 42.5596
Pd 13.5802 22.5503 45.2159
Pd 11.6747 24.9476 42.2195
Co 17.6455 27.4181 43.6162
Pd 11.3615 23.759 44.4459
Pd 32.2952 28.2402 47.3913
Co 19.4149 26.6308 48.2922
Pd 24.276 35.3403 6.16708
Pd 12.0076 33.1008 9.88672
Pd 11.1844 31.6438 11.9793
Pd 13.3836 31.3522 13.7266
Co 15.9055 31.0655 13.0072
Pd 13.841 31.4982 11.1555
Pd 8.76567 32.7821 15.2651
Pd 17.4148 27.6049 18.726
Co 6.58743 33.8221 16.2464
Pd 8.86287 30.6774 20.314
Pd 9.94075 37.5508 20.1642
Pd 10.8421 35.1836 19.1833
Co 10.2104 35.2169 15.2862
Pd 13.3097 31.9676 23.5141
Pd 13.2828 29.2154 25.3066
Pd 16.4428 30.5699 28.131
Co 13.6142 32.889 21.1991
Pd 11.8679 30.6448 28.4843
Pd 15.0133 31.3509 26.0673
Pd 12.0599 33.4516 27.9431
Co 12.5416 37.354 24.1189
Pd 9.33489 30.0726 28.3989
Pd 10.1799 34.4886 30.7484
Pd 10.9627 31.7349 30.7066
Co 14.3656 37.7963 29.7435
Pd 16.063 31.7176 33.5565
Pd 9.03031 33.5585 37.6556
Pd 17.269 35.9344 35.1376
Co 11.5294 33.5118 37.2855
Pd 10.6958 32.9651 39.7876
Pd 10.7343 35.4324 38.7768
Pd 14.793 31.5249 43.2042
Co 12.7262 31.41 37.0821
Pd 15.6024 28.9712 43.1461
Pd 15.6303 24.8305 48.0524
Co 20.4761 33.6792 45.5714
Pd 10.3386 37.8141 14.7744
Pd 8.0302 37.0197 15.8971
Pd 13.0613 34.9904 17.6269
Pd 11.876 40.0027 14.4498
Co 12.0685 35.8126 13.5794
Pd 8.26254 31.8179 17.6862
Pd 10.3154 39.7608 18.8023
Pd 15.2112 30.1497 23.6307
Co 11.7785 38.789 16.689
Pd 10.0939 38.1006 22.8678
Pd 14.2666 44.0022 23.5938
Pd 14.1358 38.9339 25.2272
Co 15.4502 35.256 21.1949
Pd 14.6435 34.1277 27.253
Pd 12.168 36.1013 26.4675
Pd 15.907 36.0549 28.6843
Co 14.324 37.2472 27.1797
Pd 10.0486 37.3076 30.4685
Pd 11.3231 40.2344 34.7466
Pd 15.1115 38.0326 34.7125
Co 14.57 37.7841 32.1742
Pd 10.09 34.2672 35.1407
Pd 13.5479 46.9233 28.9371
Pd 12.085 39.6385 38.7541
Co 11.1222 37.7266 37.5095
Pd 7.34498 34.0896 35.4717
Pd 12.928 34.8173 40.7676
Co 12.2389 37.2261 39.7836
Pd 13.3032 37.197 11.2338
Pd 11.6082 41.3693 17.0506
Pd 5.42207 35.9995 22.7773
Pd 12.2351 45.7634 27.0839
Co 15.7136 35.2073 17.1164
Pd 7.10942 37.2652 21.0304
Pd 11.7135 39.5235 21.06
Pd 14.8713 42.914 30.3957
Co 12.0167 41.8351 19.5456
Pd 12.2704 41.8941 22.2533
Pd 9.65238 39.8713 25.5349
Pd 14.4661 40.1436 30.986
Co 17.2193 44.5416 26.5834
Pd 10.4943 35.585 28.4805
Pd 8.20686 40.1162 27.7892
Pd 11.7598 38.3677 32.8305
Co 12.6583 38.0817 35.3831
Pd 16.3134 36.8762 37.5222
Pd 14.6702 42.6667 36.8847
Co 11.6767 43.4526 27.9223
Pd 11.303 44.0328 20.7171
Pd 9.72025 41.848 20.4496
Pd 9.92266 40.6911 22.7939
Pd 17.4563 42.1803 27.3167
Co 18.623 40.413 22.8487
Pd 13.7149 41.4707 24.6504
Pd 11.6818 44.2976 23.3085
Pd 12.0534 37.7409 28.7172
Co 10.8373 40.1413 28.2793
Pd 10.5034 42.0497 29.9347
Pd 10.3523 40.6696 32.3455
Co 12.246 41.2931 26.7202
Pd 15.2004 46.6549 23.6946
Pd 9.74133 42.132 27.0818
Pd 12.4379 44.2041 30.2582
Co 13.3516 45.7406 21.9424
Pd 23.4895 4.60795 22.9759
Pd 20.4964 4.60364 27.37
Co 22.5213 7.3638 19.2068
Pd 20.9103 6.75888 28.8775
Pd 18.5662 5.51467 29.4081
Pd 27.9538 9.6301 21.4608
Co 23.5331 11.6185 23.3862
Co 20.5433 6.03387 25.2201
Pd 20.2504 8.30563 17.6168
Pd 20.4682 5.86539 18.8285
Co 22.7526 8.66645 17.2125
Pd 18.1949 7.63984 19.2838
Pd 14.0974 6.96861 24.829
Pd 20.5317 7.3859 22.9517
Co 21.3046 10.4586 16.2098
Pd 20.7215 4.55727 23.1916
Pd 18.7305 7.96618 24.7967
Pd 14.358 6.44668 27.4364
Co 20.4286 9.78764 28.3612
Pd 16.26 7.98497 23.434
Pd 18.5917 4.51803 25.5047
Pd 16.2715 5.48187 24.5291
Co 12.5531 8.45544 26.1878
Co 17.4275 10.69 33.3984
Pd 16.5769 5.93952 21.7933
Pd 18.8678 10.7788 15.2735
Co 13.152 11.7368 21.4231
Pd 18.5674 10.9449 12.6722
Pd 15.7452 12.2866 21.3141
Pd 17.0381 10.1748 19.2727
Co 16.8788 11.4566 16.9925
Pd 16.9747 10.1318 22.0373
Pd 18.852 16.5594 22.6301
Pd 18.0746 11.8026 27.2529
Co 19.2009 16.8962 19.7917
Pd 15.6668 11.9274 23.9657
Pd 19.5517 13.4503 30.1125
Pd 17.2065 10.0755 24.8979
Co 14.5926 9.50738 24.947
Pd 16.2111 10.4711 28.8808
Pd 15.1005 16.0401 36.4982
Pd 16.38 9.79704 31.4272
Co 17.9551 14.9986 31.2392
Pd 13.5159 10.4617 31.9554
Pd 11.1736 10.4512 30.5291
Pd 11.2929 13.5195 34.8835
Co 17.5012 11.8214 37.5353
Co 15.0955 11.9108 30.62
Pd 10.8749 18.8443 13.3641
Pd 19.3677 14.584 11.1711
Co 20.3687 12.6361 12.4586
Pd 15.846 8.16171 20.5567
Pd 15.316 16.3589 15.9083
Pd 13.5683 15.1665 12.9247
Co 11.948 16.9476 12.3318
Pd 16.3157 11.7498 14.5625
Pd 13.7661 17.9702 17.4608
Pd 16.0519 13.81 16.4932
Co 14.4913 19.2371 15.2535
Pd 16.8975 16.8089 20.7806
Pd 16.4115 16.9031 23.4785
Pd 17.412 19.2425 20.0249
Co 14.7359 17.8664 19.7998
Pd 20.2114 14.221 22.7991
Pd 13.7504 20.4384 22.6351
Pd 15.0852 14.9858 28.0939
Co 16.8944 16.1861 26.829
Pd 15.1406 15.2564 24.9032
Pd 17.2739 12.6136 31.6526
Pd 17.3898 19.1036 32.4394
Co 17.1493 16.0462 29.254
Pd 11.1337 14.6299 37.321
Pd 11.9988 22.222 36.4785
Pd 16.4452 17.7288 34.6288
Co 16.4395 14.5615 33.1633
Pd 13.4431 13.1665 36.9607
Pd 11.0294 15.7429 39.8424
Pd 13.2043 11.7565 34.4724
Co 14.8276 17.3229 39.6225
Co 14.9063 13.7814 34.9075
Pd 13.7657 27.4893 6.28458
Pd 14.6821 19.382 8.48724
Co 20.1474 14.9384 13.5912
Pd 12.2624 21.1928 9.2698
Pd 15.5043 17.0635 13.3139
Pd 10.9847 16.2184 14.5873
Co 12.622 18.8706 10.3785
Pd 15.9002 15.3276 11.262
Pd 19.067 24.0449 17.9945
Pd 15.4512 20.0927 17.5575
Co 10.4429 20.5614 16.3436
Pd 12.6359 13.8412 17.9638
Pd 12.7999 17.9946 21.7389
Pd 16.8932 22.6654 16.9246
Co 16.8431 21.6238 19.273
Pd 13.7602 17.3881 24.052
Pd 16.1315 18.6745 27.3128
Pd 17.8714 19.1391 22.9558
Co 14.9077 20.3627 20.0869
Pd 17.8489 17.9446 25.4105
Pd 15.7141 21.1087 29.6716
Pd 19.7386 19.388 26.6946
Co 18.4985 17.7909 28.1898
Pd 20.3163 15.9747 29.0611
Pd 13.7058 22.8542 34.449
Pd 16.168 16.8257 31.7516
Co 15.0772 19.0889 31.3836
Pd 16.2371 22.4375 34.8641
Pd 15.098 19.9677 33.9765
Pd 12.9826 16.3809 38.1527
Co 14.3102 20.6435 36.3339
Pd 9.70489 20.4648 34.9051
Pd 10.6868 19.6235 42.0494
Pd 15.8604 18.4567 37.3885
Co 18.2221 17.627 36.5978
Pd 14.5917 17.1557 42.4089
Pd 17.4539 20.9889 40.601
Pd 15.4432 18.8853 44.1329
Co 13.1355 21.6861 38.7136
Co 13.817 24.9467 44.0714
Pd 27.3268 23.0687 7.15216
Pd 22.3507 33.9201 7.58378
Co 21.6739 25.0313 2.69427
Pd 17.8796 24.8451 5.33363
Pd 16.0485 26.2498 13.7174
Pd 14.2404 25.1589 7.60337
Co 20.3159 23.2703 8.86516
Pd 14.2206 22.4335 8.11979
Pd 20.3564 24.5329 11.3416
Pd 21.704 20.6128 9.49647
Co 14.5125 27.5126 8.803
Pd 14.4276 20.6138 10.7789
Pd 16.1761 26.9885 23.8917
Pd 14.3952 21.9843 15.7458
Co 21.1043 25.6285 9.31497
Pd 16.4044 24.4545 18.7888
Pd 13.3451 27.415 20.412
Pd 13.7253 24.8218 19.5486
Co 15.7348 26.4358 20.3391
Pd 14.504 22.4726 18.3943
Pd 17.8354 22.8672 23.3188
Pd 17.1808 23.1434 26.0104
Co 19.1811 24.9679 22.283
Pd 15.3961 21.2285 26.8988
Pd 12.1142 23.0759 32.2604
Pd 17.8876 20.5136 28.1411
Co 17.8602 25.1434 24.5092
Pd 13.1099 18.3753 33.0541
Pd 11.0377 26.3156 29.4012
Pd 16.4801 24.7456 36.7705
Co 13.9313 24.9341 35.9559
Pd 10.4771 25.2027 32.3629
Pd 12.3438 24.5109 37.9343
Pd 14.7154 22.902 37.2115
Co 16.6874 27.4034 33.5979
Pd 17.075 20.0696 35.7533
Pd 11.4009 27.0567 38.5675
Pd 14.7387 24.6035 39.2394
Co 17.2886 22.1553 37.1804
Pd 16.9956 23.3772 39.3338
Pd 11.8757 21.1136 43.8217
Pd 16.7933 25.0797 41.3702
Co 15.8277 26.0487 45.5925
Pd 17.888 22.7139 44.94
Pd 15.8419 21.1048 45.4902
Pd 21.8954 16.4726 46.4775
Co 14.2666 24.8228 41.6997
Co 18.5604 26.956 45.8296
Pd 25.5354 17.0113 3.90068
Pd 21.8321 35.1605 5.15515
Pd 20.2845 31.1613 6.57034
Co 27.5514 18.7512 3.4904
Pd 19.1951 29.5668 4.58522
Pd 20.0394 32.054 4.06188
Pd 18.399 25.244 9.74379
Co 15.9888 28.3619 7.09949
Pd 20.6212 29.8426 8.80836
Pd 16.1432 27.6759 15.969
Pd 17.7584 24.6787 12.3983
Co 12.4278 29.3943 12.4368
Pd 12.3367 29.2155 15.0292
Pd 14.9561 26.5741 17.9556
Pd 13.5491 26.8046 15.3477
Co 18.0679 24.4342 14.9162
Pd 16.1517 23.0829 14.0817
Pd 19.6439 29.24 21.8731
Pd 17.7366 27.4924 21.5333
Co 15.209 28.8105 19.3418
Pd 17.6407 29.1316 23.816
Pd 13.9673 25.7531 28.1494
Pd 21.0046 26.3484 25.4944
Co 17.1716 31.6113 24.5938
Pd 16.3288 25.6557 26.5626
Pd 14.1563 31.8885 28.6864
Pd 12.9101 25.1979 30.8151
Co 15.5001 25.4464 30.0779
Pd 10.5939 27.0658 34.2957
Pd 14.4553 27.3303 34.8093
Pd 13.0244 25.4376 33.5351
Co 12.7554 31.4164 32.8385
Pd 16.0814 29.4717 34.9959
Pd 18.3131 30.9606 34.8835
Pd 18.5656 28.3231 35.0333
Co 19.9457 29.8062 33.4253
Pd 14.3017 29.295 36.7405
Pd 15.3899 32.6444 45.4654
Pd 10.683 22.3783 41.6672
Co 15.6393 33.8536 34.9079
Pd 16.888 30.4654 41.2215
Pd 16.4458 28.4084 45.6435
Pd 16.9705 27.0375 47.9379
Co 21.2074 29.4034 40.5124
Pd 15.7197 23.2811 43.2718
Pd 23.5085 24.31 50.3508
Pd 26.0303 21.3656 47.8904
Co 15.6388 23.7383 45.735
Pd 25.1091 21.8811 50.3097
Co 18.0908 24.287 49.0212
Pd 26.2492 27.6138 2.30773
Pd 28.2582 19.3744 0.998161
Pd 17.0725 28.5888 12.3889
Pd 16.7667 31.2121 10.6441
Co 16.6854 29.5814 5.21867
Pd 14.7505 28.9683 11.2671
Pd 10.2651 33.7911 13.1536
Pd 15.1136 30.9152 15.635
Co 11.3592 37.9876 12.5358
Pd 5.58695 31.7178 17.2575
Pd 17.9317 34.2509 21.618
Pd 12.6074 31.3261 16.7408
Co 14.2256 35.5122 15.2824
Pd 12.8588 30.0507 19.4976
Pd 17.4873 29.7928 20.031
Pd 17.0942 32.3929 19.8558
Co 15.4252 28.4275 21.776
Pd 15.0416 30.8324 20.9964
Pd 15.4236 33.6019 24.8098
Pd 15.9004 28.7364 25.9643
Co 17.9921 33.8105 24.2088
Pd 17.2704 32.903 26.8515
Pd 16.2536 33.4298 29.4091
Pd 15.9182 27.5977 28.3712
Co 20.4084 31.5269 30.3863
Pd 12.848 33.5866 30.483
Pd 12.8336 33.8918 35.1102
Pd 14.8295 31.8654 31.2185
Co 15.5569 35.7809 33.3371
Pd 14.4413 35.8588 36
Pd 9.12314 36.0679 36.7523
Pd 16.3008 31.7301 36.3937
Co 17.9856 33.416 34.6004
Pd 14.3746 33.3075 37.0152
Pd 10.4999 30.4761 41.6023
Pd 19.6741 31.4141 42.0458
Co 19.3709 32.3948 39.784
Pd 14.1331 34.0931 43.1676
Pd 13.7774 36.7158 42.32
Pd 17.9891 33.0572 45.9412
Co 19.9727 31.548 44.6026
Pd 20.3205 24.9605 50.1599
Pd 21.045 26.5712 46.3205
Co 16.0258 29.5138 47.9164
Pd 17.2163 35.8698 12.5738
Pd 11.7724 30.4566 9.7741
Pd 13.4457 37.8998 14.1893
Pd 14.7683 28.871 13.9599
Co 17.6872 33.3123 12.8057
Pd 11.3842 35.3859 11.203
Pd 13.2667 34.3432 7.81863
Pd 16.7469 29.8958 17.4042
Co 10.6261 31.106 18.5929
Pd 10.7912 28.4224 19.9613
Pd 9.34602 35.6051 21.7885
Pd 10.7466 33.2069 17.0515
Co 14.4751 36.0628 25.1011
Pd 12.0902 36.8488 21.6765
Pd 14.98 37.4643 22.9591
Pd 18.9167 31.4426 28.422
Co 16.9223 33.0367 17.383
Pd 16.7666 35.4703 26.1721
Pd 17.4211 35.9316 30.8723
Pd 17.3853 37.49 32.9007
Co 17.5486 38.1698 22.9908
Pd 14.8257 35.3537 30.9588
Pd 17.2188 41.9069 31.1525
Pd 14.1143 33.6711 32.9046
Co 16.4181 38.3559 27.9907
Pd 13.0208 36.1426 33.6981
Pd 17.679 37.0077 39.8545
Pd 19.0146 36.6321 37.2435
Co 15.6132 39.4078 36.9625
Pd 13.7754 39.0602 40.7666
Pd 14.7281 36.7502 39.8222
Pd 15.1238 32.6436 40.8753
Co 13.1282 33.0145 39.15
Pd 18.4218 35.5865 45.086
Pd 12.6217 32.16 41.6921
Co 17.5904 32.9291 41.6544
Pd 18.1998 43.7015 16.9341
Pd 10.0781 37.034 17.466
Pd 16.4035 39.5518 16.1363
Pd 14.2452 37.6405 16.8658
Co 15.3364 39.3425 18.5647
Pd 14.1883 38.1688 20.5967
Pd 14.1726 40.8346 20.4442
Pd 13.6571 34.9246 22.922
Co 12.9049 39.7116 18.6197
Pd 12.357 37.326 18.8538
Pd 18.3079 40.1098 25.4405
Pd 16.1544 40.1431 23.874
Co 18.2425 35.2474 17.0592
Pd 13.8986 39.627 27.9599
Pd 12.9526 41.6866 29.2053
Pd 16.0936 40.7457 29.0817
Co 15.9764 40.2232 26.4751
Pd 18.8466 39.9123 30.8071
Pd 16.4261 39.8534 32.8012
Pd 17.4772 38.7211 35.3708
Co 16.5907 38.484 30.5296
Pd 13.231 42.3601 34.5641
Pd 13.7559 44.2536 32.5703
Pd 17.2634 34.1907 37.0817
Co 20.6233 42.7843 39.7452
Pd 13.7312 37.9114 37.6975
Pd 13.341 40.3353 36.4123
Co 13.1313 35.3865 38.1754
Pd 13.2923 39.6545 12.0646
Pd 14.3068 41.9035 18.1359
Pd 12.8496 43.9975 18.4292
Pd 16.2963 42.742 20.1963
Co 19.0473 38.625 21.1378
Pd 13.8375 43.4733 20.8083
Pd 21.0205 47.8917 24.9909
Pd 14.1983 44.4543 28.342
Co 19.9483 41.5034 26.7994
Pd 16.3925 44.2012 32.2078
Pd 17.3899 46.5481 32.763
Pd 15.4653 43.9601 34.6393
Co 21.3378 43.2695 30.8179
Pd 12.6157 41.9365 31.911
Pd 16.4733 44.0901 38.253
Pd 18.2443 45.2868 36.5702
Co 15.1191 42.0532 32.8309
Pd 15.0808 45.6774 30.5944
Pd 16.3803 41.029 40.8358
Co 17.8396 42.9882 40.0732
Pd 17.2489 45.4854 19.5698
Pd 14.3233 47.4518 26.3779
Pd 14.9289 45.008 25.9037
Pd 21.8573 47.2456 33.5772
Co 7.73647 41.7084 22.1665
Pd 12.8044 46.1501 24.6042
Pd 21.6802 48.8188 27.3421
Pd 19.2462 42.3723 29.4757
Co 18.559 46.0769 27.8638
Pd 16.0379 46.4041 28.1378
Pd 22.3634 45.7026 31.4385
Co 18.0689 44.5986 34.1086
Pd 26.7463 48.7297 31.857
Pd 22.1756 48.3306 31.1801
Pd 20.5167 46.4912 22.8453
Pd 25.9329 4.91064 16.7754
Pd 19.9352 6.64188 31.4167
Co 21.0915 5.39328 33.4954
Pd 23.649 9.29755 14.9595
Pd 21.8229 9.46762 24.1127
Pd 22.6343 4.62939 28.8927
Co 23.0377 4.98231 18.8641
Pd 25.5448 4.38313 24.5911
Pd 17.2564 7.18933 31.2553
Pd 27.8113 5.80404 37.3633
Co 22.5056 6.32706 26.8947
Pd 21.9103 5.90821 21.2561
Pd 21.5744 7.82998 33.2276
Pd 17.1213 8.19182 33.7393
Co 24.1756 9.26036 23.4197
Co 19.2653 7.00613 33.8662
Pd 21.2207 8.26605 15.03
Pd 20.859 10.4693 11.0712
Co 23.0367 10.5445 9.57648
Pd 24.8382 6.81855 18.3518
Pd 20.5493 8.10364 20.4325
Pd 21.2194 3.71904 20.3569
Co 21.3422 12.5598 17.5015
Pd 19.218 5.61679 21.0784
Pd 18.2663 12.5352 24.4764
Pd 19.3853 9.87552 23.0483
Co 25.1457 9.03534 17.191
Pd 20.8696 8.239 26.3727
Pd 18.8257 6.6928 27.119
Pd 22.1231 13.8541 29.3207
Co 23.4596 8.52453 25.879
Pd 13.3565 10.4156 29.2025
Pd 18.8131 7.90594 36.2548
Pd 21.4295 8.91535 30.6272
Co 21.139 11.355 30.2618
Pd 16.7021 5.19316 27.246
Pd 16.5873 7.43681 28.7182
Pd 15.0932 9.82072 33.992
Co 17.3318 13.8478 39.0343
Co 16.1951 13.7269 36.9428
Pd 23.093 11.442 11.9807
Pd 19.9875 13.8631 8.5102
Co 21.6966 13.02 10.439
Pd 17.196 13.134 11.7963
Pd 20.7975 12.8116 15.0208
Pd 18.3522 13.2687 14.092
Co 19.5264 17.1926 14.623
Pd 17.8076 12.7023 19.217
Pd 19.3171 10.2663 20.436
Pd 21.9633 10.501 21.4515
Co 21.5636 10.1562 18.8666
Pd 16.8137 14.3199 22.8212
Pd 19.3435 10.9157 17.8831
Pd 25.8286 11.2612 18.7478
Co 15.412 18.6569 21.93
Pd 19.7826 10.6118 25.6675
Pd 20.4226 13.5487 25.6494
Pd 18.0871 9.22868 27.3478
Co 22.4378 13.1136 21.8069
Pd 18.6078 10.8592 29.8598
Pd 17.2077 12.5938 34.8313
Pd 19.49 9.61951 34.3844
Co 15.5539 11.2077 26.5071
Pd 19.5052 11.6894 32.3555
Pd 15.2512 12.0633 38.7527
Pd 20.3454 10.4383 39.5207
Co 15.2722 12.1641 33.0597
Pd 12.5949 13.5794 39.3561
Pd 23.4371 14.9288 40.6398
Pd 17.6694 11.5553 40.0845
Co 15.5918 13.3476 40.8624
Co 21.9792 15.7342 42.7659
Pd 15.7858 23.633 6.27145
Pd 19.0608 12.139 10.2185
Co 19.154 21.0767 8.99024
Pd 18.7641 13.2656 16.7274
Pd 15.844 14.3518 13.8956
Pd 21.8874 15.4234 11.3204
Co 22.2561 15.0979 8.90681
Pd 15.707 16.8558 8.8642
Pd 13.8163 16.7523 10.7627
Pd 18.9507 17.2761 17.2428
Co 19.761 19.7965 12.6467
Pd 17.4786 15.2558 18.2719
Pd 17.0271 18.2699 15.428
Pd 17.6623 9.02316 16.9694
Co 19.9352 14.6634 18.5299
Pd 16.4841 17.6702 18.0359
Pd 20.1393 18.3491 24.2331
Pd 20.5311 12.6031 20.0368
Co 21.313 15.0263 20.5668
Pd 16.5313 13.5944 26.2753
Pd 16.291 21.5532 32.2797
Pd 20.5887 12.2625 27.9017
Co 19.8015 16.6464 26.4888
Pd 19.1144 14.0225 33.5566
Pd 21.1376 20.0497 34.0951
Pd 18.8302 17.419 30.7343
Co 19.9048 19.2736 32.0481
Pd 16.2545 15.797 40.9696
Pd 25.8687 14.1039 39.4025
Pd 22.5309 16.2342 36.0202
Co 20.3931 15.393 31.6973
Pd 14.8676 14.715 38.8365
Pd 13.4461 15.4337 40.9348
Pd 19.8453 14.2579 43.2031
Co 18.919 18.6803 34.5027
Pd 22.204 13.2461 42.4093
Pd 18.063 13.9551 41.3713
Pd 20.5908 14.7826 40.6336
Co 16.9876 18.3566 39.7954
Co 18.6032 16.4074 40.4176
Pd 12.0545 26.488 8.13271
Pd 10.86 23.0866 10.8049
Co 17.8644 15.7042 12.9277
Pd 13.5338 23.024 10.7157
Pd 15.8832 24.0645 9.57801
Pd 25.3016 19.2374 2.40796
Co 12.1648 23.9618 8.78174
Pd 16.5432 18.4625 6.38369
Pd 17.449 19.0133 8.75539
Pd 17.8675 16.9442 10.5637
Co 21.8644 19.3661 11.6531
Pd 15.8831 20.1175 13.1741
Pd 17.8338 18.2765 12.931
Pd 15.7482 18.4305 10.9839
Co 20.9927 18.3986 16.4142
Pd 18.0582 19.9364 17.4067
Pd 16.3923 21.0758 21.9952
Pd 19.2956 19.7689 15.077
Co 22.1418 18.874 20.4383
Pd 19.0065 20.9786 21.3269
Pd 17.6365 20.6126 25.4365
Pd 19.6862 21.1363 23.9579
Co 19.7423 18.6647 21.304
Pd 18.7718 14.4911 27.5982
Pd 20.2746 19.6547 29.5002
Pd 22.0401 21.0059 27.9633
Co 22.1722 22.272 23.6321
Pd 18.6397 21.0684 33.7588
Pd 13.7456 21.1282 31.9682
Pd 18.2642 19.7555 38.1809
Co 16.9241 18.7944 29.8276
Pd 17.4022 15.3368 35.4564
Pd 19.5908 20.9804 36.2825
Pd 20.6774 18.4749 36.2782
Co 22.6094 19.3325 32.1269
Pd 16.9822 16.2593 38.3418
Pd 15.1177 19.4977 41.1727
Pd 19.2614 22.1554 38.8125
Co 18.8149 24.4659 37.6563
Pd 17.2377 18.1707 42.2961
Pd 15.0506 22.364 40.8669
Pd 19.2768 18.9899 40.7612
Co 19.8887 21.9456 43.7096
Pd 19.8501 16.1696 44.9492
Pd 23.1259 21.7434 46.3495
Pd 22.1771 25.8392 48.639
Co 22.2704 23.0348 44.2241
Co 27.0479 23.7955 47.9287
Pd 17.8004 19.7519 4.22254
Pd 24.3182 24.2026 0.854764
Pd 18.5137 20.4569 6.64575
Co 31.0276 23.4222 4.41912
Pd 22.8314 20.3818 3.04602
Pd 18.9697 21.321 2.496
Pd 17.9822 16.6669 7.65691
Co 23.6177 25.8388 9.08854
Pd 16.7519 26.104 7.95047
Pd 25.0051 23.161 11.1525
Pd 16.418 21.4267 9.11541
Co 23.179 21.4054 11.5865
Pd 17.6604 20.2956 11.1508
Pd 20.343 25.0839 15.8797
Pd 18.2496 21.7452 13.3132
Co 23.1829 19.6825 15.4979
Pd 15.2837 23.1488 20.9173
Pd 20.3155 26.4413 18.2946
Pd 19.4054 21.7127 18.7569
Co 24.8389 27.6239 20.4405
Pd 16.7233 25.0105 22.1264
Pd 20.1571 23.8236 24.5481
Pd 19.7732 22.0425 26.6031
Co 22.9611 25.8166 19.9171
Pd 21.6539 25.083 29.5126
Pd 15.7045 23.5949 28.1973
Pd 18.352 21.1699 30.694
Co 20.7381 22.4967 29.3898
Pd 14.8871 23.8537 32.181
Pd 18.0706 23.3993 33.0238
Pd 20.9152 22.7693 34.4073
Co 16.8179 23.4001 30.5563
Pd 15.7788 25.048 34.2152
Pd 14.5096 26.6994 37.7442
Pd 22.2281 20.8598 36.2984
Co 18.6462 23.2781 35.5262
Pd 17.1645 26.2222 38.9075
Pd 19.6968 27.2331 40.0053
Pd 21.1108 23.0879 37.2261
Co 16.582 27.338 36.4195
Pd 15.6598 20.7874 38.6805
Pd 19.2606 25.9379 42.3312
Pd 20.0084 21.4668 41.2567
Co 18.1874 23.1301 42.2523