4033
Atoms. Timestep: 20147
Co 5.48595 13.0066 26.2165
Pd 3.55641 16.7204 24.3451
Pd 5.34858 14.7908 24.2749
Co 5.37124 16.7373 22.438
Pd 3.63234 14.8494 26.2177
Pd 3.55681 16.7184 28.0922
Pd 5.34899 14.7887 28.16
Co 5.38364 16.7005 26.2185
Co 5.37205 16.7333 29.999
Pd 3.5284 20.5296 20.5358
Pd 5.30062 18.5909 20.4925
Co 5.3597 20.5411 18.6386
Pd 3.53545 18.6266 22.4389
Pd 3.44302 20.4991 24.3152
Pd 5.34966 18.6268 24.3401
Co 5.3284 20.5079 22.4159
Pd 3.46244 18.5945 26.2197
Pd 3.44343 20.4971 28.1262
Pd 5.35006 18.6248 28.0989
Co 5.30261 20.5167 26.2205
Pd 3.53626 18.6226 30.0004
Pd 3.52962 20.5235 31.9056
Pd 5.30184 18.5848 31.9464
Co 5.32921 20.5038 30.0251
Co 5.36132 20.533 33.8024
Pd 3.55272 24.3395 16.7322
Pd 5.316 22.3985 16.6896
Co 5.40862 24.3441 14.8393
Pd 3.53595 22.4362 18.628
Pd 3.44398 24.3115 20.5051
Pd 5.33552 22.4316 20.5365
Co 5.34477 24.3093 18.6167
Pd 3.43625 22.4049 22.4108
Pd 3.41651 24.3072 24.3168
Pd 5.29119 22.4092 24.316
Co 5.28729 24.3182 22.4218
Pd 3.42449 22.4023 26.2217
Pd 3.41692 24.3051 28.1286
Pd 5.2916 22.4071 28.127
Co 5.27245 24.3091 26.2225
Pd 3.43706 22.4008 30.0326
Pd 3.4452 24.3054 31.9404
Pd 5.33673 22.4255 31.9066
Co 5.28811 24.3141 30.0233
Pd 3.53757 22.4282 33.8154
Pd 3.55474 24.3293 35.7132
Pd 5.31804 22.3883 35.7534
Co 5.34639 24.3012 33.8283
Co 5.41105 24.3319 37.6057
Pd 5.39595 26.2196 12.9657
Pd 3.62184 26.2178 14.8614
Pd 3.55101 28.094 16.7342
Pd 5.39563 26.2176 16.7501
Co 5.40692 28.0931 14.8413
Pd 3.46452 26.2157 18.6029
Pd 3.44225 28.1179 20.5071
Pd 5.30584 26.2155 20.5131
Co 5.34304 28.1237 18.6188
Pd 3.42359 26.2137 22.4102
Pd 3.41479 28.1181 24.3189
Pd 5.27561 26.2135 24.3237
Co 5.28558 28.1108 22.4238
Pd 3.40865 26.2116 26.2237
Pd 3.41519 28.1161 28.1306
Pd 5.27601 26.2114 28.1234
Co 5.27073 28.1158 26.2246
Pd 3.4244 26.2096 30.0373
Pd 3.44347 28.1118 31.9424
Pd 5.30706 26.2094 31.9339
Co 5.28639 28.1068 30.0253
Pd 3.46615 26.2076 33.8446
Pd 3.55304 28.0839 35.7152
Pd 5.39766 26.2075 35.6969
Co 5.34467 28.1156 33.8303
Pd 3.62427 26.2057 37.5861
Pd 5.39878 26.2055 39.4814
Co 5.40935 28.081 37.6077
Pd 5.31255 30.0366 16.6937
Pd 3.53253 29.9952 18.6321
Pd 3.52325 31.8998 20.5419
Pd 5.33209 29.9995 20.5405
Co 5.35456 31.892 18.6446
Pd 3.4328 30.0224 22.4149
Pd 3.43785 31.9262 24.3213
Pd 5.28775 30.0178 24.32
Co 5.32323 31.9211 22.4219
Pd 3.42104 30.0209 26.2258
Pd 3.43825 31.9241 28.1323
Pd 5.28815 30.0158 28.1311
Co 5.29745 31.9082 26.2266
Pd 3.43361 30.0184 30.0366
Pd 3.52447 31.8938 31.9116
Pd 5.3333 29.9934 31.9106
Co 5.32404 31.9171 30.0312
Pd 3.53415 29.9871 33.8194
Pd 5.31458 30.0265 35.7575
Co 5.35618 31.8839 33.8085
Pd 5.29371 33.8402 20.5007
Pd 3.52858 33.8007 22.447
Pd 3.54781 35.705 24.3552
Pd 5.34279 33.8002 24.3482
Co 5.36265 35.6917 22.4481
Pd 3.45554 33.8288 26.2278
Pd 3.54821 35.703 28.1023
Pd 5.34319 33.7982 28.1069
Co 5.37503 35.7245 26.2286
Pd 3.52938 33.7967 30.0085
Pd 5.29494 33.8341 31.9545
Co 5.36346 35.6877 30.0091
Pd 5.33823 37.6363 24.2871
Pd 3.62205 37.574 26.2298
Pd 5.33865 37.6342 28.1721
Co 5.47399 39.4185 26.2306
Co 9.24253 9.22638 26.2141
Pd 7.23736 12.8708 24.2907
Pd 9.10104 10.994 24.2914
Co 9.13706 12.9126 22.4107
Pd 7.29687 11.0567 26.2153
Pd 7.23777 12.8687 28.1418
Pd 9.10145 10.992 28.1387
Co 9.10336 12.8742 26.216
Co 9.13788 12.9086 30.0214
Pd 7.19771 16.6677 20.4823
Pd 9.07193 14.7713 20.4651
Co 9.11627 16.7121 18.6069
Pd 7.21811 14.7814 22.3607
Pd 7.21913 16.6779 24.2925
Pd 9.09377 14.772 24.2877
Co 9.08087 16.661 22.3632
Pd 7.24177 14.7994 26.2173
Pd 7.21954 16.6759 28.144
Pd 9.09418 14.77 28.1464
Co 9.1118 16.6799 26.2181
Pd 7.21894 14.7773 30.0738
Pd 7.19893 16.6616 31.9542
Pd 9.07316 14.7651 31.969
Co 9.08169 16.6569 30.0729
Co 9.11789 16.704 33.8292
Pd 7.19856 20.472 16.6819
Pd 9.06403 18.5755 16.6686
Co 9.12493 20.5167 14.8052
Pd 7.19361 18.5878 18.5665
Pd 7.19597 20.4823 20.4949
Pd 9.07701 18.5742 20.4753
Co 9.07303 20.4634 18.5651
Pd 7.20127 18.5907 22.3847
Pd 7.21616 20.5089 24.315
Pd 9.10387 18.5823 24.2923
Co 9.10046 20.4904 22.3972
Pd 7.23927 18.5944 26.2193
Pd 7.21657 20.5069 28.1256
Pd 9.10428 18.5802 28.1458
Co 9.11298 20.4966 26.2201
Pd 7.20208 18.5866 30.0539
Pd 7.1972 20.4762 31.9457
Pd 9.07823 18.568 31.9628
Co 9.10128 20.4863 30.0429
Pd 7.19524 18.5797 33.8721
Pd 7.20059 20.4618 35.7587
Pd 9.06607 18.5653 35.7696
Co 9.07466 20.4552 33.875
Co 9.12736 20.5045 37.635
Pd 7.23625 24.2964 12.8867
Pd 9.08694 22.3906 12.8685
Co 9.16813 24.3519 11.0284
Pd 7.2148 22.3916 14.7612
Pd 7.22983 24.2828 16.695
Pd 9.08707 22.3736 16.6766
Co 9.0958 24.276 14.7681
Pd 7.20293 22.3911 18.5865
Pd 7.21618 24.3136 20.5136
Pd 9.09627 22.3886 20.493
Co 9.10949 24.2981 18.5957
Pd 7.21021 22.4073 22.4183
Pd 7.18691 24.3129 24.3209
Pd 9.10795 22.4088 24.3199
Co 9.10694 24.3086 22.4144
Pd 7.19248 22.4108 26.2213
Pd 7.18732 24.3109 28.1237
Pd 9.10835 22.4068 28.1223
Co 9.10133 24.3119 26.2221
Pd 7.21102 22.4032 30.0244
Pd 7.2174 24.3075 31.931
Pd 9.0975 22.3825 31.9492
Co 9.10775 24.3046 30.0298
Pd 7.20456 22.383 33.8561
Pd 7.23186 24.2726 35.7496
Pd 9.08911 22.3634 35.7656
Co 9.11112 24.29 33.8485
Pd 7.21725 22.3794 37.6814
Pd 7.2391 24.2822 39.5579
Pd 9.08979 22.3764 39.5737
Co 9.09824 24.2638 37.6761
Co 9.17137 24.3357 41.4159
Pd 9.17468 26.2233 9.16786
Pd 7.31947 26.2215 11.0275
Pd 7.23451 28.1445 12.8888
Pd 9.12082 26.2213 12.907
Co 9.16643 28.0928 11.0304
Pd 7.25442 26.2194 14.7921
Pd 7.22807 28.1541 16.6971
Pd 9.10895 26.2193 16.6884
Co 9.09404 28.1646 14.7702
Pd 7.23939 26.2174 18.6177
Pd 7.21445 28.1192 20.5156
Pd 9.11561 26.2172 20.5176
Co 9.10775 28.1384 18.5978
Pd 7.19173 26.2154 22.4205
Pd 7.18519 28.1158 24.323
Pd 9.0998 26.2152 24.3199
Co 9.10521 28.1238 22.4165
Pd 7.18107 26.2133 26.2233
Pd 7.1856 28.1137 28.1257
Pd 9.10021 26.2132 28.1264
Co 9.09961 28.1165 26.2241
Pd 7.19254 26.2113 30.0262
Pd 7.21567 28.1131 31.9331
Pd 9.11683 26.2112 31.9287
Co 9.10603 28.1198 30.0318
Pd 7.24102 26.2093 33.8289
Pd 7.23011 28.1439 35.7517
Pd 9.11099 26.2091 35.7578
Co 9.10938 28.1303 33.8506
Pd 7.25686 26.2073 37.6546
Pd 7.23736 28.1303 39.5599
Pd 9.12366 26.2071 39.5392
Co 9.09648 28.1524 37.6782
Pd 7.32271 26.2053 41.4192
Pd 9.17832 26.2051 43.2784
Co 9.16968 28.0766 41.4179
Pd 9.08347 30.052 12.8725
Pd 7.21133 30.0472 14.7652
Pd 7.19335 31.9649 16.688
Pd 9.08359 30.065 16.6807
Co 9.11976 31.9239 14.8113
Pd 7.19947 30.0437 18.5906
Pd 7.19078 31.9504 20.501
Pd 9.0928 30.0459 20.4971
Co 9.06781 31.9731 18.5713
Pd 7.20676 30.0235 22.4223
Pd 7.211 31.9198 24.3211
Pd 9.1045 30.0216 24.324
Co 9.09528 31.9421 22.4033
Pd 7.18903 30.0159 26.2254
Pd 7.2114 31.9178 28.1316
Pd 9.1049 30.0196 28.1264
Co 9.1078 31.9318 26.2262
Pd 7.20757 30.0194 30.0284
Pd 7.192 31.9443 31.9518
Pd 9.09403 30.0398 31.9533
Co 9.09609 31.938 30.049
Pd 7.2011 30.0356 33.8602
Pd 7.19539 31.9547 35.7648
Pd 9.08563 30.0548 35.7697
Co 9.06945 31.965 33.8811
Pd 7.21378 30.035 37.6855
Pd 9.08632 30.0377 39.5778
Co 9.1222 31.9117 37.6411
Pd 9.05711 33.863 16.6767
Pd 7.1867 33.847 18.5746
Pd 7.18906 35.765 20.4925
Pd 9.07008 33.8603 20.4835
Co 9.10766 35.7244 18.6171
Pd 7.19436 33.8401 22.3928
Pd 7.21049 35.7508 24.3026
Pd 9.09696 33.8481 24.3005
Co 9.07221 35.7715 22.3734
Pd 7.23237 33.8323 26.2274
Pd 7.2109 35.7488 28.1542
Pd 9.09737 33.8461 28.1539
Co 9.10316 35.7485 26.2282
Pd 7.19518 33.836 30.062
Pd 7.19029 35.7589 31.9644
Pd 9.07131 33.8542 31.971
Co 9.07303 35.7673 30.0831
Pd 7.18833 33.8389 33.8802
Pd 9.05915 33.8528 35.7777
Co 9.10928 35.7163 33.8393
Pd 9.06156 37.6632 20.4773
Pd 7.20776 37.6494 22.3729
Pd 7.22527 39.558 24.3049
Pd 9.0834 37.6584 24.2999
Co 9.12501 39.5198 22.4248
Pd 7.23143 37.6273 26.2294
Pd 7.22568 39.5559 28.156
Pd 9.08382 37.6563 28.1586
Co 9.09128 39.5542 26.2302
Pd 7.20858 37.6453 30.0859
Pd 9.06279 37.6571 31.9812
Co 9.12583 39.5158 30.0356
Pd 9.08725 41.4364 24.3076
Pd 7.28314 41.3701 26.2314
Pd 9.08766 41.4344 28.1549
Co 9.22714 43.2021 26.2322
Co 13.0262 5.47322 26.2117
Pd 11.0091 9.08771 24.2902
Pd 12.8875 7.22574 24.287
Co 12.9265 9.12668 22.4082
Pd 11.0746 7.28238 26.2128
Pd 11.0095 9.08567 28.1375
Pd 12.8879 7.22369 28.1382
Co 12.8905 9.09051 26.2136
Co 12.9273 9.12263 30.019
Pd 10.979 12.852 20.4641
Pd 12.8629 10.9698 20.4629
Co 12.9084 12.9005 18.5951
Pd 10.992 10.9799 22.3585
Pd 10.9889 12.8655 24.2855
Pd 12.8788 10.9773 24.2843
Co 12.8637 12.8533 22.3556
Pd 11.0193 11.0047 26.2148
Pd 10.9894 12.8634 28.1461
Pd 12.8792 10.9753 28.1449
Co 12.8908 12.878 26.2156
Pd 10.9928 10.9758 30.0711
Pd 10.9802 12.8458 31.9676
Pd 12.8641 10.9636 31.9664
Co 12.8645 12.8491 30.0756
Co 12.9101 12.8924 33.8362
Pd 10.9699 16.6521 16.6615
Pd 12.8513 14.7622 16.6554
Co 12.9037 16.702 14.793
Pd 10.9739 14.7669 18.5449
Pd 10.9749 16.6563 20.4639
Pd 12.8614 14.7586 20.4587
Co 12.8535 16.6462 18.5449
Pd 10.9814 14.7656 22.3619
Pd 10.9871 16.6677 24.2921
Pd 12.8785 14.7649 24.2897
Co 12.8795 16.6666 22.3806
Pd 10.9862 14.7638 26.2168
Pd 10.9875 16.6656 28.1436
Pd 12.879 14.7629 28.1436
Co 12.8817 16.666 26.2176
Pd 10.9823 14.7615 30.0717
Pd 10.9761 16.6502 31.9718
Pd 12.8626 14.7525 31.9745
Co 12.8803 16.6626 30.0547
Pd 10.9756 14.7588 33.8887
Pd 10.9719 16.6419 35.7742
Pd 12.8534 14.752 35.7779
Co 12.8551 16.638 33.8904
Co 12.9062 16.6899 37.6423
Pd 10.9822 20.463 12.8628
Pd 12.8564 18.5706 12.8569
Co 12.9189 20.5181 11.0006
Pd 10.9733 18.5721 14.7449
Pd 10.9766 20.4591 16.6656
Pd 12.8577 18.5588 16.6576
Co 12.8569 20.4528 14.7492
Pd 10.9724 18.5652 18.557
Pd 10.9829 20.4755 20.4789
Pd 12.8748 18.5647 20.4706
Co 12.8776 20.4729 18.5744
Pd 10.9859 18.5694 22.3819
Pd 10.9986 20.4856 24.3054
Pd 12.8856 18.5735 24.3022
Co 12.8869 20.4784 22.3918
Pd 10.994 18.5756 26.2189
Pd 10.999 20.4836 28.1344
Pd 12.886 18.5714 28.1352
Co 12.894 20.4812 26.2197
Pd 10.9867 18.5654 30.0558
Pd 10.9842 20.4694 31.9608
Pd 12.8761 18.5586 31.9667
Co 12.8877 20.4744 30.0476
Pd 10.9741 18.557 33.8807
Pd 10.9786 20.449 35.7742
Pd 12.8597 18.5486 35.7797
Co 12.8793 20.4648 33.865
Pd 10.9757 18.5599 37.6929
Pd 10.985 20.4488 39.5769
Pd 12.8592 18.5564 39.5804
Co 12.8593 20.4405 37.6902
Co 12.9222 20.5019 41.4388
Pd 11.0236 24.3029 9.08997
Pd 12.8842 22.3965 9.07373
Co 12.9707 24.3558 7.24377
Pd 10.997 22.3951 10.9541
Pd 10.9994 24.2862 12.8805
Pd 12.8698 22.3741 12.8684
Co 12.8827 24.279 10.9719
Pd 10.9824 22.3743 14.7606
Pd 10.9866 24.2939 16.6762
Pd 12.8752 22.3777 16.6716
Co 12.8834 24.2981 14.7805
Pd 10.9848 22.3795 18.5794
Pd 10.9996 24.3005 20.496
Pd 12.8872 22.3872 20.4893
Co 12.8842 24.2993 18.5845
Pd 10.9973 22.3927 22.4003
Pd 11.0073 24.3078 24.3146
Pd 12.8984 22.3928 24.3082
Co 12.8981 24.3035 22.4024
Pd 11.0087 22.3965 26.2209
Pd 11.0077 24.3057 28.1293
Pd 12.8988 22.3908 28.1332
Co 12.9049 24.3042 26.2217
Pd 10.9981 22.3886 30.0415
Pd 11.0008 24.2944 31.9478
Pd 12.8884 22.3811 31.9521
Co 12.8989 24.2994 30.0411
Pd 10.9864 22.3714 33.8624
Pd 10.9886 24.2838 35.7676
Pd 12.8772 22.3675 35.7698
Co 12.8858 24.2912 33.8589
Pd 10.9848 22.3621 37.6811
Pd 11.0023 24.2719 39.5633
Pd 12.8727 22.3599 39.573
Co 12.8858 24.2859 37.6629
Pd 11.0002 22.3788 41.4876
Pd 11.0273 24.2847 43.3538
Pd 12.8879 22.3782 43.3677
Co 12.8859 24.2628 41.4714
Co 12.9748 24.3356 45.1997
Pd 13.0022 26.2271 5.37701
Pd 11.1248 26.2252 7.23054
Pd 11.0219 28.1454 9.09202
Pd 12.9132 26.225 9.12158
Co 12.969 28.0963 7.24576
Pd 11.0326 26.2232 10.992
Pd 10.9977 28.1582 12.8825
Pd 12.8896 26.223 12.885
Co 12.8809 28.169 10.974
Pd 10.9948 26.2211 14.7836
Pd 10.9848 28.1463 16.6782
Pd 12.8827 26.221 16.6867
Co 12.8816 28.1459 14.7825
Pd 10.9957 26.2191 18.5907
Pd 10.9979 28.1357 20.4981
Pd 12.8921 26.219 20.4959
Co 12.8824 28.1406 18.5866
Pd 11.0076 26.2171 22.411
Pd 11.0056 28.1244 24.3166
Pd 12.9046 26.2169 24.3156
Co 12.8964 28.1324 22.4044
Pd 11.0055 26.2151 26.2229
Pd 11.006 28.1223 28.1313
Pd 12.905 26.2149 28.1298
Co 12.9032 28.1276 26.2237
Pd 11.0084 26.213 30.0349
Pd 10.9991 28.1296 31.9498
Pd 12.8933 26.2129 31.9496
Co 12.8972 28.1283 30.0431
Pd 10.9974 26.211 33.8552
Pd 10.9869 28.1362 35.7697
Pd 12.8847 26.2108 35.7588
Co 12.884 28.1325 33.861
Pd 10.9972 26.209 37.6623
Pd 11.0005 28.1439 39.5654
Pd 12.8925 26.2088 39.5604
Co 12.8841 28.1337 37.665
Pd 11.0359 26.207 41.4539
Pd 11.0255 28.1272 43.3559
Pd 12.9168 26.2068 43.3239
Co 12.8842 28.1528 41.4735
Pd 11.1289 26.205 45.2153
Pd 13.0066 26.2049 47.0684
Co 12.9731 28.0761 45.2017
Pd 12.8808 30.0536 9.07781
Pd 10.9935 30.0513 10.9582
Pd 10.977 31.9813 12.869
Pd 12.8663 30.0719 12.8725
Co 12.9138 31.9299 11.0066
Pd 10.9789 30.068 14.7647
Pd 10.9713 31.9811 16.6717
Pd 12.8717 30.0643 16.6757
Co 12.8516 31.9912 14.7553
Pd 10.9813 30.0587 18.5835
Pd 10.9777 31.9607 20.4851
Pd 12.8837 30.0507 20.4934
Co 12.8724 31.967 18.5805
Pd 10.9938 30.0415 22.4044
Pd 10.9934 31.9465 24.3115
Pd 12.8949 30.0411 24.3122
Co 12.8817 31.9574 22.3979
Pd 11.0052 30.0336 26.225
Pd 10.9938 31.9445 28.1405
Pd 12.8953 30.039 28.1373
Co 12.8888 31.9506 26.2258
Pd 10.9946 30.0374 30.0455
Pd 10.979 31.9546 31.9669
Pd 12.8849 30.0446 31.9561
Co 12.8825 31.9534 30.0537
Pd 10.9829 30.0506 33.8665
Pd 10.9734 31.9709 35.7803
Pd 12.8738 30.0541 35.7738
Co 12.8741 31.9589 33.8711
Pd 10.9813 30.0558 37.6852
Pd 10.9798 31.9671 39.583
Pd 12.8692 30.0577 39.5771
Co 12.8541 31.979 37.6963
Pd 10.9968 30.035 41.4917
Pd 12.8844 30.0354 43.3717
Co 12.917 31.9137 41.4449
Pd 12.8494 33.8754 12.865
Pd 10.9664 33.8702 14.753
Pd 10.9612 35.7881 16.6717
Pd 12.8507 33.8832 16.6658
Co 12.8951 35.742 14.8032
Pd 10.9655 33.8731 18.5651
Pd 10.9662 35.7799 20.4741
Pd 12.8679 33.8732 20.4788
Co 12.8448 35.7938 18.5551
Pd 10.9789 33.8647 22.3901
Pd 10.9785 35.7645 24.3023
Pd 12.8787 33.8604 24.3103
Co 12.8708 35.7692 22.3908
Pd 10.9871 33.8545 26.227
Pd 10.9789 35.7624 28.1537
Pd 12.8791 33.8583 28.1433
Co 12.8731 35.7658 26.2278
Pd 10.9797 33.8607 30.0639
Pd 10.9675 35.7738 31.982
Pd 12.8691 33.8671 31.9748
Co 12.8717 35.7652 30.0649
Pd 10.9671 33.8649 33.8889
Pd 10.9632 35.778 35.7844
Pd 12.8528 33.873 35.7879
Co 12.8465 35.7856 33.9006
Pd 10.9688 33.858 37.701
Pd 12.8523 33.8612 39.5886
Co 12.8976 35.7298 37.6524
Pd 12.841 37.6798 16.6676
Pd 10.9636 37.6713 18.5571
Pd 10.9669 39.5843 20.4783
Pd 12.851 37.6793 20.4709
Co 12.8964 39.5395 18.6093
Pd 10.9711 37.6686 22.3741
Pd 10.9769 39.5666 24.2997
Pd 12.8682 37.6689 24.3019
Co 12.8516 39.5826 22.3699
Pd 10.9759 37.6663 26.229
Pd 10.9773 39.5646 28.1604
Pd 12.8686 37.6669 28.1558
Co 12.8787 39.5539 26.2298
Pd 10.9719 37.6645 30.0839
Pd 10.9681 39.5781 31.9818
Pd 12.8522 37.6732 31.9867
Co 12.8524 39.5785 30.0898
Pd 10.9652 37.6631 33.9009
Pd 12.843 37.6696 35.7901
Co 12.898 39.5313 33.8504
Pd 12.849 41.4681 20.4791
Pd 10.9782 41.4543 22.3747
Pd 10.9936 43.3444 24.3084
Pd 12.865 41.4565 24.3005
Co 12.911 43.3092 22.4264
Pd 11.0055 41.4254 26.231
Pd 10.994 43.3424 28.1557
Pd 12.8654 41.4545 28.1612
Co 12.875 43.3413 26.2319
Pd 10.979 41.4502 30.0874
Pd 12.8503 41.462 31.9826
Co 12.9118 43.3052 30.0372
Pd 12.8703 45.2081 24.3073
Pd 11.0574 45.1478 26.233
Pd 12.8707 45.2061 28.1584
Co 13.0074 46.9587 26.2338
Pd 14.8092 5.33871 24.2689
Pd 16.7405 3.54824 24.3367
Co 16.7546 5.36431 22.4307
Pd 14.8707 3.62129 26.2105
Pd 14.8096 5.33664 28.1539
Pd 16.7409 3.54625 28.0838
Co 16.7201 5.37426 26.2112
Co 16.7554 5.36028 29.9917
Pd 14.7839 9.06448 20.4614
Pd 16.6821 7.19196 20.4763
Co 16.7235 9.11176 18.6021
Pd 14.7969 7.20946 22.3559
Pd 14.7871 9.08387 24.284
Pd 16.6947 7.21096 24.2864
Co 16.6748 9.07391 22.3583
Pd 14.8174 7.23066 26.2124
Pd 14.7875 9.08182 28.1428
Pd 16.6951 7.20891 28.138
Co 16.6961 9.1024 26.2132
Pd 14.7977 7.20535 30.0689
Pd 14.7851 9.05835 31.9654
Pd 16.6833 7.18585 31.9481
Co 16.6757 9.0698 30.0681
Co 16.7251 9.10365 33.8243
Pd 14.7689 12.8463 16.6542
Pd 16.6606 10.9665 16.6579
Co 16.7076 12.9017 14.7906
Pd 14.7766 10.9677 18.5425
Pd 14.7678 12.8539 20.4575
Pd 16.6672 10.9692 20.4603
Co 16.6542 12.849 18.5425
Pd 14.7777 10.9728 22.3595
Pd 14.7765 12.8686 24.2884
Pd 16.681 10.979 24.2885
Co 16.677 12.8725 22.3782
Pd 14.7783 10.9751 26.2144
Pd 14.777 12.8666 28.1424
Pd 16.6814 10.9769 28.1399
Co 16.6789 12.8723 26.2152
Pd 14.7786 10.9687 30.0693
Pd 14.769 12.8478 31.9733
Pd 16.6684 10.963 31.9682
Co 16.6779 12.8684 30.0523
Pd 14.7782 10.9595 33.8863
Pd 14.771 12.8361 35.7766
Pd 16.6626 10.9564 35.7706
Co 16.6558 12.8408 33.888
Co 16.71 12.8895 37.6399
Pd 14.7688 16.6516 12.8545
Pd 16.6542 14.7679 12.8533
Co 16.7127 16.713 10.9932
Pd 14.767 14.7632 14.7373
Pd 14.7605 16.6487 16.6538
Pd 16.6537 14.7572 16.6526
Co 16.6481 16.646 14.7433
Pd 14.7631 14.7569 18.5466
Pd 14.7678 16.6611 20.4675
Pd 16.6686 14.7621 20.4663
Co 16.6689 16.6643 18.5677
Pd 14.7699 14.7612 22.3756
Pd 14.7798 16.6683 24.2998
Pd 16.6782 14.7716 24.2986
Co 16.6759 16.6689 22.3867
Pd 14.7792 14.7681 26.2164
Pd 14.7802 16.6662 28.1351
Pd 16.6786 14.7695 28.1339
Co 16.6818 16.6724 26.2172
Pd 14.7707 14.7571 30.0572
Pd 14.769 16.655 31.9674
Pd 16.6698 14.7559 31.9661
Co 16.6767 16.6648 30.0478
Pd 14.7648 14.7487 33.8863
Pd 14.7625 16.6385 35.7811
Pd 16.6558 14.747 35.7799
Co 16.6705 16.6562 33.8667
Pd 14.7694 14.7509 37.6956
Pd 14.7717 16.6374 39.5803
Pd 16.6571 14.7537 39.5791
Co 16.6506 16.6338 37.6912
Co 16.7159 16.6968 41.4413
Pd 14.7905 20.4713 9.07008
Pd 16.6744 18.5894 9.06203
Co 16.7483 20.5413 7.21646
Pd 14.7779 18.5759 10.9427
Pd 14.7677 20.4588 12.8646
Pd 16.656 18.5627 12.8621
Co 16.6607 20.4595 10.9619
Pd 14.7613 18.5591 14.7499
Pd 14.766 20.4686 16.6671
Pd 16.6644 18.5622 16.6653
Co 16.6686 20.473 14.7759
Pd 14.7663 18.5617 18.5665
Pd 14.7803 20.4769 20.4842
Pd 16.6757 18.5721 20.4824
Co 16.6738 20.4765 18.5802
Pd 14.7795 18.5713 22.3891
Pd 14.7885 20.4809 24.3063
Pd 16.6835 18.5763 24.3048
Co 16.6848 20.4824 22.3971
Pd 14.784 18.5722 26.2185
Pd 14.7889 20.4789 28.1326
Pd 16.6839 18.5743 28.1317
Co 16.6886 20.4825 26.2193
Pd 14.7803 18.5672 30.0479
Pd 14.7815 20.4708 31.9548
Pd 16.6769 18.566 31.9542
Co 16.6856 20.4783 30.0414
Pd 14.768 18.5535 33.8704
Pd 14.7681 20.4584 35.7719
Pd 16.6664 18.552 35.7712
Co 16.6755 20.4683 33.8584
Pd 14.7638 18.5469 37.687
Pd 14.7705 20.4446 39.5743
Pd 16.6588 18.5485 39.5744
Co 16.671 20.4608 37.6626
Pd 14.7811 18.5596 41.4942
Pd 14.7942 20.453 43.3689
Pd 16.6781 18.5711 43.3745
Co 16.664 20.4433 41.4767
Co 16.7524 20.5211 45.2221
Pd 14.8468 24.3074 5.33453
Pd 16.739 22.423 5.30433
Co 16.8375 24.385 3.59981
Pd 14.8161 22.3984 7.17215
Pd 14.7997 24.2891 9.09896
Pd 16.6812 22.383 9.09375
Co 16.7038 24.2832 7.21423
Pd 14.7776 22.3767 10.9692
Pd 14.7739 24.2963 12.8801
Pd 16.6701 22.3805 12.8814
Co 16.6832 24.3024 11.0008
Pd 14.7686 22.378 14.7736
Pd 14.7769 24.3011 16.6836
Pd 16.6732 22.3876 16.6847
Co 16.6728 24.3015 14.7889
Pd 14.7782 22.3868 18.5824
Pd 14.7864 24.3037 20.4928
Pd 16.6834 22.3919 20.4926
Co 16.6803 24.3052 18.5917
Pd 14.7899 22.3905 22.3984
Pd 14.7979 24.3039 24.3109
Pd 16.6915 22.393 24.31
Co 16.6902 24.3055 22.4026
Pd 14.7947 22.3907 26.2205
Pd 14.7983 24.3019 28.1321
Pd 16.6919 22.391 28.1305
Co 16.6956 24.3042 26.2213
Pd 14.7907 22.3864 30.0426
Pd 14.7877 24.2976 31.9503
Pd 16.6846 22.3858 31.9479
Co 16.6911 24.3015 30.0401
Pd 14.7798 22.3787 33.8586
Pd 14.7789 24.2909 35.7595
Pd 16.6752 22.3775 35.7559
Co 16.6819 24.2971 33.8509
Pd 14.7711 22.3658 37.6674
Pd 14.7768 24.282 39.5629
Pd 16.6729 22.3663 39.5591
Co 16.6752 24.2893 37.6537
Pd 14.7808 22.3605 41.4718
Pd 14.8034 24.2709 43.344
Pd 16.6848 22.3647 43.3468
Co 16.6864 24.2862 41.4418
Pd 14.8202 22.3782 45.2688
Pd 14.8512 24.2852 47.1085
Pd 16.7435 22.4007 47.1363
Co 16.7078 24.263 45.2283
Co 16.8423 24.3609 48.8428
Pd 15.0297 26.229 3.50911
Pd 14.845 28.1484 5.33658
Pd 16.7646 26.2287 5.41903
Co 16.8358 28.0745 3.60178
Pd 14.8353 26.2269 7.22439
Pd 14.7979 28.1627 9.10103
Pd 16.6974 26.2267 9.11302
Co 16.702 28.1723 7.2163
Pd 14.7885 26.2249 10.9955
Pd 14.7722 28.1515 12.8822
Pd 16.6763 26.2247 12.8994
Co 16.6814 28.149 11.0029
Pd 14.7785 26.2229 14.7867
Pd 14.7752 28.1426 16.6856
Pd 16.6765 26.2227 16.6928
Co 16.671 28.1459 14.791
Pd 14.7818 26.2208 18.5901
Pd 14.7847 28.1359 20.4948
Pd 16.6854 26.2207 20.4983
Co 16.6785 28.1382 18.5937
Pd 14.7931 26.2188 22.4031
Pd 14.7961 28.1316 24.3129
Pd 16.6946 26.2186 24.3124
Co 16.6885 28.1338 22.4046
Pd 14.8015 26.2168 26.2225
Pd 14.7965 28.1296 28.1342
Pd 16.695 26.2166 28.1323
Co 16.6939 28.1311 26.2233
Pd 14.7939 26.2147 30.0419
Pd 14.7859 28.1298 31.9523
Pd 16.6866 26.2146 31.9464
Co 16.6893 28.1297 30.0421
Pd 14.7834 26.2127 33.8549
Pd 14.7772 28.1325 35.7615
Pd 16.6786 26.2125 35.7518
Co 16.6802 28.1301 33.8529
Pd 14.7809 26.2107 37.6584
Pd 14.775 28.1373 39.5649
Pd 16.6791 26.2105 39.5453
Co 16.6735 28.1337 37.6557
Pd 14.7918 26.2087 41.4495
Pd 14.8016 28.1444 43.3461
Pd 16.701 26.2085 43.3316
Co 16.6847 28.1328 41.4439
Pd 14.8394 26.2067 45.2207
Pd 14.8495 28.1262 47.1105
Pd 16.769 26.2066 47.0256
Co 16.7061 28.152 45.2304
Pd 15.0345 26.2048 48.9359
Co 16.8407 28.0504 48.8448
Pd 16.7356 30.0346 5.30839
Pd 14.8126 30.0554 7.17623
Pd 14.7853 31.9805 9.07621
Pd 16.6777 30.0705 9.09784
Co 16.7432 31.9142 7.22252
Pd 14.7741 30.0731 10.9733
Pd 14.7624 31.989 12.8708
Pd 16.6666 30.069 12.8855
Co 16.6555 31.992 10.968
Pd 14.7651 30.0677 14.7777
Pd 14.7608 31.9751 16.6732
Pd 16.6697 30.0578 16.6888
Co 16.6634 31.9745 14.782
Pd 14.7747 30.0549 18.5865
Pd 14.7751 31.9628 20.4903
Pd 16.68 30.0495 20.4967
Co 16.6686 31.9669 18.5863
Pd 14.7864 30.0471 22.4024
Pd 14.7833 31.9547 24.3124
Pd 16.6881 30.0443 24.3141
Co 16.6796 31.9569 22.4032
Pd 14.7913 30.0429 26.2246
Pd 14.7837 31.9526 28.1387
Pd 16.6885 30.0422 28.1346
Co 16.6834 31.9527 26.2254
Pd 14.7873 30.0431 30.0467
Pd 14.7763 31.9567 31.9609
Pd 16.6812 30.0434 31.952
Co 16.6804 31.9529 30.0476
Pd 14.7764 30.0467 33.8627
Pd 14.7629 31.965 35.778
Pd 16.6717 30.0476 35.76
Co 16.6703 31.9588 33.8645
Pd 14.7676 30.0555 37.6715
Pd 14.7653 31.9747 39.5805
Pd 16.6694 30.0548 39.5632
Co 16.6658 31.9623 37.6688
Pd 14.7773 30.0568 41.4759
Pd 14.789 31.9622 43.375
Pd 16.6814 30.0523 43.3509
Co 16.6588 31.9757 41.4828
Pd 14.8167 30.0351 45.2729
Pd 16.7401 30.0123 47.1403
Co 16.7473 31.894 45.2282
Pd 16.6675 33.8641 9.07017
Pd 14.7709 33.8739 10.9508
Pd 14.7601 35.7961 12.8647
Pd 16.649 33.8868 12.8702
Co 16.7041 35.7384 11.0034
Pd 14.7544 33.8866 14.7581
Pd 14.7518 35.795 16.664
Pd 16.6575 33.8833 16.6735
Co 16.6394 35.8014 14.7535
Pd 14.7594 33.88 18.5747
Pd 14.7591 35.7785 20.4777
Pd 16.6688 33.8693 20.4905
Co 16.6602 35.779 18.5779
Pd 14.7726 33.8663 22.3972
Pd 14.7711 35.7673 24.3099
Pd 16.6766 33.861 24.313
Co 16.6672 35.7704 22.3969
Pd 14.7771 33.8614 26.2266
Pd 14.7715 35.7652 28.1453
Pd 16.677 33.8589 28.1398
Co 16.6732 35.7629 26.2274
Pd 14.7734 33.8622 30.056
Pd 14.7604 35.7724 31.9775
Pd 16.67 33.8631 31.9623
Co 16.6681 35.7663 30.0579
Pd 14.761 33.8719 33.8786
Pd 14.7539 35.7848 35.7913
Pd 16.6595 33.8731 35.7793
Co 16.6619 35.7709 33.8769
Pd 14.7568 33.8744 37.6951
Pd 14.763 35.7819 39.5905
Pd 16.6519 33.8725 39.5826
Co 16.6419 35.7892 37.7014
Pd 14.7742 33.8576 41.5024
Pd 16.6711 33.8459 43.3826
Co 16.7073 35.7222 41.4514
Pd 16.6439 37.6815 12.8655
Pd 14.7566 37.6826 14.7495
Pd 14.7568 39.5974 16.6684
Pd 16.6433 37.6883 16.6648
Co 16.6955 39.5458 14.8048
Pd 14.7527 37.6848 18.5588
Pd 14.7557 39.5857 20.4717
Pd 16.6582 37.6793 20.4785
Co 16.6421 39.5944 18.5567
Pd 14.7595 37.6764 22.3878
Pd 14.7645 39.5669 24.3027
Pd 16.6678 37.6657 24.3108
Co 16.665 39.5668 22.3924
Pd 14.7688 37.6655 26.2286
Pd 14.7649 39.5649 28.1566
Pd 16.6682 37.6637 28.1461
Co 16.6668 39.5629 26.2294
Pd 14.7603 37.6723 30.0694
Pd 14.7569 39.5796 31.9876
Pd 16.6595 37.6732 31.9783
Co 16.6658 39.5627 30.0665
Pd 14.7544 37.6766 33.8985
Pd 14.7589 39.5872 35.7909
Pd 16.6454 37.6781 35.7921
Co 16.6437 39.5863 33.9022
Pd 14.7591 37.6703 37.7078
Pd 16.6467 37.6673 39.5913
Co 16.6979 39.5336 37.654
Pd 16.6468 41.4789 16.6741
Pd 14.7628 41.474 18.5588
Pd 14.7683 43.3752 20.4797
Pd 16.6534 41.4722 20.4765
Co 16.708 43.3316 18.6203
Pd 14.7639 41.4649 22.3758
Pd 14.7716 43.3517 24.3023
Pd 16.6672 41.4583 24.3047
Co 16.6593 43.3654 22.3766
Pd 14.7645 41.4584 26.2307
Pd 14.772 43.3497 28.161
Pd 16.6676 41.4563 28.1562
Co 16.6806 43.3329 26.2314
Pd 14.7648 41.4607 30.0855
Pd 14.7696 43.369 31.9836
Pd 16.6546 41.4661 31.9844
Co 16.6601 43.3613 30.0863
Pd 14.7644 41.4658 33.9026
Pd 16.6488 41.4687 35.7868
Co 16.7096 43.3235 33.8426
Pd 16.6648 45.2494 20.4965
Pd 14.7797 45.2282 22.3762
Pd 14.7903 47.0969 24.2911
Pd 16.6774 45.2263 24.3067
Co 16.7357 47.075 22.4529
Pd 14.8002 45.2029 26.2326
Pd 14.7907 47.0948 28.1762
Pd 16.6779 45.2243 28.1582
Co 16.7013 47.061 26.2334
Pd 14.7805 45.2241 30.0892
Pd 16.666 45.2433 31.9684
Co 16.7365 47.071 30.0139
Pd 16.7199 48.889 24.3608
Pd 14.8502 48.8123 26.2346
Pd 16.7203 48.8871 28.108
Pd 18.6069 5.29661 20.484
Pd 20.5473 3.52612 20.5249
Co 20.5559 5.35864 18.6289
Pd 18.6455 3.53023 22.4293
Pd 18.6453 5.34322 24.3316
Pd 20.5193 3.4383 24.3043
Co 20.5252 5.3249 22.4062
Pd 18.6159 3.45478 26.21
Pd 18.6457 5.34122 28.0904
Pd 20.5197 3.43627 28.1153
Co 20.5365 5.29668 26.2108
Pd 18.6464 3.5262 29.9908
Pd 18.6082 5.29051 31.9379
Pd 20.5485 3.52007 31.8947
Co 20.526 5.32084 30.0154
Co 20.5575 5.35057 33.7927
Pd 18.5857 9.06245 16.6625
Pd 20.4839 7.19869 16.6734
Co 20.5257 9.12629 14.7979
Pd 18.6009 7.19083 18.5592
Pd 18.5868 9.07299 20.4692
Pd 20.4967 7.19368 20.4864
Co 20.4748 9.07194 18.5579
Pd 18.6062 7.19605 22.3774
Pd 18.5973 9.09742 24.2863
Pd 20.5257 7.21145 24.3065
Co 20.5042 9.09696 22.3899
Pd 18.6124 7.23161 26.212
Pd 18.5977 9.09537 28.1398
Pd 20.5261 7.20942 28.1171
Co 20.5129 9.10703 26.2128
Pd 18.607 7.19196 30.0466
Pd 18.588 9.06687 31.9567
Pd 20.4979 7.18758 31.9372
Co 20.505 9.09288 30.0357
Pd 18.6025 7.18267 33.8648
Pd 18.5877 9.05228 35.7635
Pd 20.4859 7.18853 35.7502
Co 20.4764 9.06379 33.8677
Co 20.5281 9.11414 37.6277
Pd 18.5749 12.8572 12.8532
Pd 20.4691 10.9847 12.8568
Co 20.5212 12.9227 10.9957
Pd 18.5794 10.9729 14.74
Pd 18.5655 12.8561 16.6539
Pd 20.4676 10.9767 16.6595
Co 20.4583 12.8582 14.7443
Pd 18.5749 10.9696 18.5521
Pd 18.5739 12.8708 20.467
Pd 20.4864 10.9807 20.4729
Co 20.4809 12.8766 18.5695
Pd 18.5816 10.9806 22.3771
Pd 18.5851 12.8792 24.2985
Pd 20.499 10.9939 24.2993
Co 20.4888 12.8833 22.3869
Pd 18.5901 10.9864 26.214
Pd 18.5855 12.8771 28.1315
Pd 20.4994 10.9919 28.1283
Co 20.4941 12.8881 26.2148
Pd 18.5824 10.9765 30.0509
Pd 18.5752 12.8647 31.963
Pd 20.4876 10.9745 31.9547
Co 20.4897 12.8793 30.0427
Pd 18.5765 10.9615 33.8759
Pd 18.5676 12.8459 35.7761
Pd 20.4697 10.9665 35.7681
Co 20.4825 12.8684 33.8601
Pd 18.5818 10.9607 37.688
Pd 18.5778 12.843 39.5768
Pd 20.4719 10.9705 39.5708
Co 20.4608 12.846 37.6853
Co 20.5244 12.9065 41.434
Pd 18.5878 16.6777 9.06081
Pd 20.4714 14.7955 9.06645
Co 20.5385 16.7546 7.21404
Pd 18.5773 14.7799 10.9402
Pd 18.5636 16.6568 12.8608
Pd 20.4614 14.7702 12.861
Co 20.4592 16.6645 10.9594
Pd 18.563 14.7609 14.7475
Pd 18.5655 16.6628 16.6641
Pd 20.4736 14.7662 16.6634
Co 20.4751 16.6699 14.7735
Pd 18.5679 14.7635 18.5641
Pd 18.5778 16.6717 20.4811
Pd 20.4843 14.778 20.4805
Co 20.481 16.6728 18.5777
Pd 18.58 14.7743 22.3866
Pd 18.5845 16.677 24.3036
Pd 20.4908 14.7837 24.3027
Co 20.4894 16.6813 22.3947
Pd 18.5833 14.7763 26.216
Pd 18.5849 16.675 28.1305
Pd 20.4912 14.7817 28.129
Co 20.4919 16.6827 26.2168
Pd 18.5808 14.7702 30.0454
Pd 18.5791 16.6656 31.9529
Pd 20.4856 14.7719 31.9511
Co 20.4902 16.6772 30.039
Pd 18.5695 14.7554 33.868
Pd 18.5675 16.6526 35.77
Pd 20.4756 14.756 35.7682
Co 20.4826 16.6646 33.856
Pd 18.5654 14.7487 37.6845
Pd 18.5664 16.6426 39.5732
Pd 20.4642 14.756 39.5707
Co 20.4775 16.6578 37.6602
Pd 18.5805 14.7637 41.4918
Pd 18.5915 16.6594 43.3733
Pd 20.4751 14.7772 43.3652
Co 20.4625 16.6482 41.4742
Co 20.5426 16.7343 45.2197
Pd 18.6395 20.5335 5.29053
Pd 20.5277 18.647 5.28932
Co 20.6102 20.6188 3.57013
Pd 18.611 18.6155 7.15257
Pd 18.5867 20.4784 9.08963
Pd 20.4751 18.5917 9.08842
Co 20.4944 20.5006 7.19524
Pd 18.5699 18.5719 10.9649
Pd 18.5683 20.4738 12.8823
Pd 20.4729 18.5708 12.8811
Co 20.4839 20.4876 11.0029
Pd 18.5649 18.5645 14.7718
Pd 18.5748 20.4784 16.6844
Pd 20.48 18.5749 16.6831
Co 20.4786 20.48 14.7926
Pd 18.5759 18.5731 18.5797
Pd 18.5835 20.4841 20.492
Pd 20.4881 18.5812 20.4908
Co 20.4866 20.4855 18.5926
Pd 18.584 18.5788 22.3957
Pd 18.5902 20.4867 24.3089
Pd 20.4932 18.5854 24.3077
Co 20.4931 20.4896 22.4019
Pd 18.5877 18.58 26.2181
Pd 18.5906 20.4847 28.1293
Pd 20.4936 18.5834 28.128
Co 20.4961 20.4902 26.2189
Pd 18.5848 18.5747 30.0404
Pd 18.5847 20.478 31.9462
Pd 20.4893 18.5751 31.9449
Co 20.4939 20.4855 30.0359
Pd 18.5775 18.565 33.8564
Pd 18.5768 20.4682 35.7538
Pd 20.482 18.5647 35.7526
Co 20.4882 20.4774 33.8451
Pd 18.5673 18.5523 37.6643
Pd 18.5711 20.4596 39.5558
Pd 20.4758 18.5566 39.5546
Co 20.4811 20.4678 37.6452
Pd 18.5731 18.5557 41.4712
Pd 18.5904 20.4601 43.3485
Pd 20.4787 18.5735 43.3473
Co 20.4871 20.4714 41.4349
Pd 18.6151 18.5952 45.2836
Pd 18.644 20.5112 47.1476
Pd 20.5322 18.6247 47.1464
Co 20.4985 20.4804 45.2425
Co 20.615 20.5947 48.8677
Pd 18.7453 22.5341 3.44405
Pd 18.6607 24.3381 5.38126
Pd 20.5513 22.4499 5.36568
Co 20.5664 24.3598 3.51779
Pd 18.6116 22.4017 7.20876
Pd 18.5936 24.3031 9.12308
Pd 20.4984 22.4012 9.11872
Co 20.5356 24.331 7.25322
Pd 18.5787 22.3848 11
Pd 18.5774 24.305 12.904
Pd 20.4821 22.3933 12.9095
Co 20.4905 24.3081 11.0276
Pd 18.5744 22.3894 14.7924
Pd 18.5783 24.3065 16.6961
Pd 20.4842 22.3943 16.699
Co 20.483 24.3086 14.8093
Pd 18.5812 22.393 18.5927
Pd 18.5873 24.3075 20.4995
Pd 20.4917 22.3976 20.5003
Co 20.4885 24.3089 18.602
Pd 18.5898 22.3956 22.4027
Pd 18.5942 24.307 24.3125
Pd 20.497 22.3987 24.3119
Co 20.4956 24.3093 22.4073
Pd 18.5937 22.3951 26.2201
Pd 18.5946 24.305 28.1298
Pd 20.4974 22.3967 28.1279
Co 20.4986 24.3081 26.2209
Pd 18.5906 22.3915 30.0375
Pd 18.5885 24.3014 31.9427
Pd 20.4929 22.3915 31.9395
Co 20.4964 24.3053 30.0345
Pd 18.5829 22.3849 33.8475
Pd 18.5804 24.2963 35.7461
Pd 20.4863 22.3842 35.7408
Co 20.4901 24.3008 33.8398
Pd 18.5769 22.3772 37.6478
Pd 18.5802 24.2908 39.5382
Pd 20.4849 22.3791 39.5303
Co 20.4854 24.2965 37.6325
Pd 18.5819 22.3686 41.4401
Pd 18.5973 24.2849 43.3191