4033
Atoms. Timestep: 21551
Co 21.8724 44.8953 26.4451
Pd 24.2381 26.9995 39.315
Pd 13.423 10.0114 20.9724
Co 21.5392 33.4864 30.0042
Pd 8.07289 39.3613 34.126
Pd 33.4504 11.002 13.1547
Pd 14.0767 20.7504 22.898
Co 28.8159 15.7929 30.928
Co 13.0022 13.322 35.0315
Pd 11.0554 41.9895 19.9418
Pd 13.3283 35.1985 29.8502
Co 9.6604 34.1339 36.6382
Pd 3.78011 19.2223 20.6911
Pd 33.1664 12.5909 17.4631
Pd 41.9023 25.9893 41.3135
Co 12.3828 32.6076 33.0089
Pd 25.4604 10.4059 36.2034
Pd 23.6771 32.6721 42.8415
Pd 39.7728 35.295 19.2402
Co 22.629 20.4188 23.3792
Pd 11.4146 31.9134 26.2028
Pd 15.5184 6.59601 31.0295
Pd 10.1888 21.3975 20.4566
Co 8.43746 21.7625 15.2233
Co 11.256 37.1262 39.4072
Pd 27.6265 25.1763 17.5377
Pd 12.6246 10.9643 35.8815
Co 26.4376 25.6103 15.4522
Pd 18.3068 30.8756 45.9519
Pd 7.75824 20.7472 19.8291
Pd 5.18841 32.997 27.8451
Co 20.2992 29.744 24.2724
Pd 15.731 17.2424 42.1027
Pd 23.9351 36.1275 36.5209
Pd 12.8752 15.3036 37.2896
Co 10.1218 19.7235 27.6821
Pd 31.4241 26.4499 37.296
Pd 3.13584 25.3953 29.0208
Pd 23.3117 42.3275 36.3794
Co 26.4712 25.6091 43.4018
Pd 21.8705 34.0216 44.2723
Pd 6.44023 21.4603 23.9366
Pd 18.4895 26.0531 47.1817
Co 17.4328 7.71221 23.8131
Pd 20.981 24.5622 37.0045
Pd 39.4829 23.0475 38.2097
Pd 14.0422 40.7903 40.7361
Co 6.61579 19.3873 25.5154
Co 26.1767 29.9263 37.6231
Pd 9.72816 14.8034 17.7604
Pd 22.2893 36.59 40.4473
Pd 5.12613 17.5826 18.5601
Pd 9.46605 17.9473 14.2744
Co 23.4034 30.2819 47.5205
Pd 3.41967 18.4516 27.3779
Pd 22.174 30.4083 16.6234
Pd 20.3399 10.4174 18.8422
Co 12.8804 27.3465 42.0311
Pd 9.3384 28.0857 33.8922
Pd 9.30065 30.2732 27.7872
Pd 9.00085 23.6331 19.2386
Co 46.3471 33.5127 22.008
Pd 29.2696 5.30274 18.7991
Pd 13.1662 36.1479 37.9969
Pd 28.8152 49.3705 22.8847
Co 11.5942 14.7524 23.9166
Pd 5.79669 27.8476 36.9835
Pd 22.6519 30.3392 43.3735
Pd 5.9249 24.8466 35.9755
Co 22.0185 27.7368 17.6721
Pd 22.2783 47.0741 34.0699
Pd 11.6147 33.3333 30.5894
Pd 16.4805 13.8561 38.9268
Co 27.1308 44.7189 36.6901
Pd 20.1452 21.5978 37.153
Pd 22.3227 43.0566 21.8651
Co 16.2802 12.4845 42.5668
Pd 33.2743 16.7009 16.3374
Pd 9.75197 30.6706 42.1368
Pd 21.651 32.6033 20.4018
Pd 33.4179 25.6627 31.7732
Co 20.4692 23.8549 17.8186
Pd 15.1162 41.7099 34.2025
Pd 31.7806 25.1407 11.5277
Pd 11.845 31.3048 19.2053
Co 29.1864 44.5255 22.3002
Pd 22.0995 28.1556 47.9768
Pd 10.5865 12.7543 35.3406
Pd 22.9196 25.8687 30.5641
Co 27.2191 8.31361 19.9466
Pd 14.3679 24.3798 27.3116
Pd 31.966 22.9078 17.611
Pd 6.74225 35.4543 21.2406
Co 36.0267 39.7533 39.3953
Pd 38.6064 35.746 13.1298
Pd 12.6713 30.0828 24.2971
Co 24.5256 32.8845 30.7606
Pd 36.5385 40.152 11.644
Pd 11.7765 23.3769 20.0201
Pd 16.174 36.4191 21.6327
Pd 11.3856 21.9641 26.9037
Co 37.5179 38.6238 16.6525
Pd 26.6666 36.2148 25.1506
Pd 18.3625 32.8176 5.86585
Pd 9.38274 40.4058 36.315
Co 6.45307 28.7663 28.2454
Pd 11.9809 23.894 28.7541
Pd 16.0144 24.0871 6.12067
Co 14.0586 26.4626 12.0562
Pd 24.2044 22.5319 48.6367
Pd 19.6906 35.5204 40.7167
Pd 16.8731 18.6819 6.99001
Co 7.02826 20.8623 17.1485
Co 15.8303 16.664 20.229
Pd 20.9203 13.5279 31.4023
Pd 12.536 31.3211 14.8004
Co 20.2033 19.6591 47.269
Pd 12.5129 32.2342 12.3009
Pd 25.2849 39.4839 22.084
Pd 33.5444 36.3702 11.7949
Co 16.5575 9.64727 25.1212
Co 14.0902 13.9931 23.913
Pd 10.5125 28.1932 42.7325
Pd 19.1005 29.2414 28.3546
Co 26.7152 25.9902 45.7931
Pd 17.8467 11.8708 25.2668
Pd 15.7077 17.861 29.524
Pd 22.7685 6.52915 17.5905
Co 16.4079 24.3621 9.19246
Pd 37.3254 14.5924 31.9399
Pd 22.3162 16.3684 30.869
Pd 30.6407 10.2625 14.0094
Co 15.3263 15.3493 22.2148
Pd 12.3914 30.0429 42.3145
Pd 12.4198 31.0159 37.4791
Pd 29.1815 24.6004 42.1806
Co 20.2987 10.8239 38.2778
Co 34.034 21.5891 27.3148
Pd 32.7546 11.6037 40.3861
Pd 14.6775 34.754 16.6052
Co 7.25672 17.6955 15.9449
Pd 15.0465 9.07012 31.9522
Pd 6.47721 12.8321 26.7
Pd 26.2241 21.1329 14.5566
Co 20.5557 20.8778 34.7221
Pd 25.0613 24.8923 12.221
Pd 10.4354 14.4778 20.3953
Pd 15.6526 24.6005 31.7248
Co 16.1027 41.147 16.0333
Pd 32.7339 40.32 28.1375
Pd 10.3593 12.3882 18.3257
Pd 21.5447 4.79997 30.8107
Co 10.8375 14.995 28.6701
Pd 13.2756 36.0265 43.2387
Pd 17.27 14.2862 30.1227
Pd 14.8043 23.1341 41.5841
Co 20.4525 11.5474 24.8416
Pd 40.71 39.7529 13.6562
Pd 33.6138 25.7743 29.1563
Pd 39.6019 11.1717 16.8837
Co 8.39452 23.1375 23.8462
Co 30.1989 15.289 40.6608
Pd 45.7199 17.972 19.5787
Pd 11.7651 13.7001 16.1205
Co 15.7198 40.1817 26.9502
Pd 18.7851 29.1759 39.1163
Pd 15.7648 9.21672 34.4187
Pd 10.43 13.0947 30.3313
Co 17.463 27.5949 34.2251
Pd 19.2031 20.9422 13.1296
Pd 30.0751 31.8836 22.3394
Pd 18.4287 21.0976 30.8738
Co 6.84652 29.7148 19.7745
Pd 23.8103 26.0625 7.84995
Pd 23.0831 22.9987 23.9747
Pd 27.7272 20.4101 25.1218
Co 19.1013 19.233 22.1584
Pd 13.1213 10.8048 26.9639
Pd 22.5155 47.2969 25.8392
Pd 11.3019 21.7499 9.18153
Co 12.1597 33.862 36.9269
Pd 27.0581 25.5044 40.8121
Pd 28.2529 24.0407 44.7571
Pd 13.7476 21.9699 28.2752
Co 31.7699 27.6738 40.4932
Pd 13.9536 8.06731 29.5722
Pd 30.8569 40.421 43.0376
Pd 6.68558 30.9123 26.9585
Co 21.9806 25.5444 39.453
Pd 28.798 16.8624 38.7978
Pd 11.9828 39.8081 29.5022
Pd 6.50848 14.394 22.5791
Co 24.7049 43.5335 17.1647
Co 19.2521 13.0467 37.5955
Pd 16.97 34.1559 20.111
Pd 44.973 13.3432 28.0291
Pd 26.2194 26.244 24.4954
Pd 13.6825 23.3762 24.9472
Co 29.1373 26.3178 45.9217
Pd 24.2927 9.51197 25.1159
Pd 18.5488 23.1759 26.0689
Pd 36.0787 23.0404 24.0356
Co 21.0463 29.1738 6.3723
Pd 24.7369 22.0163 12.3751
Pd 13.4613 23.3695 16.3232
Pd 9.12923 23.522 32.8784
Co 10.2502 32.3789 14.4729
Pd 10.7333 25.8598 19.421
Pd 7.42422 23.9567 28.173
Pd 16.3032 39.5729 9.61704
Co 7.84397 37.8772 21.0484
Pd 8.44811 30.5431 13.6343
Pd 20.5128 12.3752 44.4205
Pd 4.66534 25.7069 24.592
Co 14.5165 28.2014 40.4511
Pd 17.0414 28.8704 23.2812
Pd 5.3222 33.2849 22.4483
Pd 28.122 38.5196 33.6705
Co 14.3089 27.6037 9.84545
Pd 22.9565 23.8758 46.3772
Pd 14.52 27.5935 23.3189
Pd 29.2256 30.9652 46.696
Co 28.0989 42.9813 32.0866
Pd 18.2789 40.2981 42.0249
Pd 21.0922 7.30596 34.4829
Pd 16.2295 27.775 31.9247
Co 7.61111 32.2765 28.868
Pd 6.21674 19.0249 29.9102
Pd 20.8417 31.7106 22.6492
Co 24.3704 41.9458 29.7511
Pd 26.0375 39.7502 42.6162
Pd 25.5805 26.9654 29.3716
Pd 11.7376 29.4625 27.1108
Pd 7.45331 39.2304 29.5818
Co 7.69033 19.7334 27.7145
Pd 20.0579 34.1089 23.6972
Pd 20.1937 27.8765 26.1213
Pd 11.0371 34.1115 11.1525
Co 4.53788 30.3337 28.1528
Pd 16.9213 40.2142 24.7414
Pd 21.7105 33.471 36.5414
Pd 11.2664 26.3149 30.2463
Co 13.8932 25.9963 25.3602
Pd 5.98581 31.9749 34.609
Pd 24.8923 33.0752 10.2427
Pd 10.9737 30.173 12.9085
Co 9.20592 28.6453 40.5536
Pd 9.54331 38.8463 38.5739
Pd 9.18221 12.4602 32.9797
Pd 13.4314 30.7728 44.6445
Co 6.32945 30.5118 36.9571
Pd 11.2684 24.1596 39.5781
Pd 10.1398 33.1662 40.9517
Pd 28.6789 37.6379 26.609
Co 14.2197 24.6433 36.482
Pd 17.7909 34.0833 32.5566
Pd 20.181 45.7446 35.1765
Co 44.8119 31.3607 39.5977
Pd 17.8761 23.8198 45.8597
Pd 32.0422 26.56 26.9506
Pd 8.96027 33.7144 30.4472
Pd 32.4874 32.0807 27.8701
Co 29.4761 28.2336 13.4825
Pd 15.5653 15.9145 37.4053
Pd 37.219 27.2046 11.8203
Pd 9.41604 39.741 20.1043
Co 9.34288 27.8226 31.2544
Pd 34.147 45.0885 33.0941
Pd 14.0201 9.23721 18.449
Pd 24.7944 32.4693 7.3855
Co 14.7417 33.7963 25.7191
Pd 5.73832 20.8164 34.0165
Pd 33.9715 38.5729 40.3465
Pd 19.3834 34.0188 43.1587
Co 8.04866 26.2638 15.2382
Pd 20.0219 26.1071 16.3566
Pd 18.5021 35.4357 22.0338
Co 12.4471 13.0092 28.6318
Pd 10.3652 28.674 10.9018
Pd 17.8098 47.3646 31.5263
Pd 22.4406 26.9876 15.3306
Pd 5.36388 14.8269 25.1279
Co 10.228 29.7013 25.1337
Pd 14.3623 12.3196 21.962
Pd 27.3074 44.686 12.5508
Pd 18.4036 10.8866 36.4679
Co 9.48589 25.3876 13.4381
Pd 25.4279 35.4965 27.4381
Pd 37.0024 38.603 22.8462
Co 16.5518 41.5134 13.6294
Pd 18.3483 40.2344 27.2294
Pd 19.219 20.7018 19.8743
Pd 28.4054 45.5336 16.0087
Co 21.0173 15.8655 16.4879
Co 30.7108 19.4671 19.9107
Pd 11.1498 20.8003 34.364
Pd 22.7595 31.503 34.68
Co 13.9199 27.0373 35.965
Pd 29.4635 12.1448 20.6999
Pd 29.3313 36.0709 15.0227
Pd 23.9918 10.6817 41.9633
Co 17.7445 21.455 34.1228
Co 21.0684 22.0923 42.98
Pd 24.7605 7.63842 13.6103
Pd 30.2355 16.7561 26.2631
Co 10.0384 18.5166 23.4839
Pd 16.5499 10.8295 22.733
Pd 14.0344 7.52075 20.7861
Pd 15.3088 25.9857 33.9253
Co 40.0634 8.26351 29.6767
Pd 45.1086 12.6866 25.4646
Pd 16.186 14.0008 25.4867
Pd 14.4574 13.5322 17.2089
Co 28.5338 40.7551 13.2348
Pd 18.829 12.9165 19.3855
Pd 28.1571 16.6608 21.9651
Pd 9.18842 23.4064 26.3239
Co 10.1424 13.0504 24.9433
Co 13.6429 9.08213 25.1797
Pd 7.09952 15.3861 27.2561
Pd 24.9581 17.2105 11.8751
Co 36.3153 19.0978 31.3938
Pd 2.23491 19.1771 25.0671
Pd 25.3918 3.06506 25.473
Pd 20.9611 45.4072 16.5264
Co 28.054 9.28783 13.5318
Pd 10.2858 34.8664 22.8252
Pd 9.64262 40.8988 29.1756
Pd 9.20891 13.9284 22.6515
Co 7.3895 12.251 21.6848
Pd 41.0888 31.0985 21.3957
Pd 18.826 5.5875 25.0332
Pd 23.1802 17.5719 33.3656
Co 23.4164 23.4944 10.6436
Pd 28.7222 16.0017 33.4886
Pd 19.909 25.225 26.9681
Pd 24.3579 38.4168 44.1122
Co 31.5874 15.0889 27.8152
Pd 26.7735 45.2097 32.6132
Pd 23.6808 9.94316 29.4374
Pd 28.6482 19.8595 47.4765
Co 16.075 29.4424 27.0682
Co 26.5636 16.9391 31.0423
Pd 27.1019 26.9405 13.4253
Pd 33.9246 28.0578 5.28495
Co 14.0401 13.4034 26.8246
Pd 12.929 28.8071 11.7946
Pd 19.9677 21.0265 26.5387
Pd 37.1714 16.0075 13.919
Co 12.1482 25.6722 16.743
Pd 13.5355 24.6998 18.6549
Pd 31.7393 9.78658 33.3583
Pd 25.2431 31.7017 36.0131
Co 36.5449 34.1929 17.5092
Pd 22.7438 36.512 45.0134
Pd 37.6456 13.7744 26.3226
Pd 19.3265 32.8878 40.5495
Co 9.45109 34.4806 13.3209
Pd 20.6468 16.2418 11.2175
Pd 13.9407 17.6435 27.6093
Pd 8.84838 22.8749 30.228
Co 32.5 13.525 12.2988
Pd 29.6474 30.7953 14.3437
Pd 26.7473 18.7569 43.283
Pd 24.4883 28.2171 48.9956
Co 19.6238 19.3679 38.3194
Pd 16.1983 23.5675 35.1004
Pd 18.0803 7.35316 30.7362
Pd 11.7841 21.2119 18.2991
Co 32.7779 20.8911 21.1992
Pd 22.6507 17.494 43.2712
Pd 14.7267 19.238 43.5765
Pd 11.1794 20.757 22.8654
Co 29.4062 22.6686 32.5417
Co 27.5749 40.5059 32.1318
Pd 17.2845 37.7751 8.13875
Pd 16.8351 43.1028 32.6324
Co 21.434 32.732 12.8662
Pd 6.11703 22.5579 18.9338
Pd 17.7887 23.0592 7.68965
Pd 16.9541 26.345 22.7071
Co 21.4427 36.1747 7.22221
Pd 28.2849 26.1094 19.838
Pd 25.9348 15.5126 7.93247
Pd 25.9886 42.0828 14.1585
Co 34.434 23.3248 25.8374
Pd 29.4956 35.1235 17.7248
Pd 12.2341 22.8782 6.92198
Pd 10.8144 18.9396 29.9763
Co 19.0862 19.7156 32.9667
Pd 24.5269 18.5754 23.4517
Pd 17.4025 12.4918 11.7705
Pd 20.3898 31.3365 35.6924
Co 22.2754 10.757 39.8215
Pd 2.85708 22.7749 29.5529
Pd 7.47205 21.5615 32.0861
Pd 12.9186 22.5186 35.2537
Co 15.4591 12.011 40.2982
Pd 22.1033 24.5962 43.9053
Pd 10.0466 29.6051 38.2742
Pd 18.7813 6.03556 22.4542
Co 25.139 10.2793 27.3034
Pd 13.2799 18.184 41.6421
Pd 23.6961 33.8644 28.6247
Pd 30.6217 47.5045 32.0465
Co 15.7225 31.2162 28.6816
Pd 23.4191 16.3652 7.50227
Pd 15.6493 20.7497 29.9927
Pd 13.0438 8.94014 34.028
Co 10.6207 35.6229 29.551
Pd 10.906 22.7716 24.4701
Pd 32.3988 28.0754 29.8931
Pd 5.34616 34.0968 25.099
Co 7.94283 26.3067 26.6556
Co 38.7941 39.9687 33.2926
Pd 20.2194 34.9149 16.5824
Pd 27.2684 28.4046 9.11399
Pd 4.37412 21.6289 17.2434
Pd 17.5711 16.6402 31.3642
Co 18.4434 35.9332 14.8496
Pd 19.4563 31.8569 9.6039
Pd 29.3654 26.2991 26.9624
Pd 8.59847 20.0732 30.2026
Co 10.2528 16.6485 33.201
Pd 9.75843 33.9772 25.3371
Pd 18.4695 22.8433 38.7702
Pd 32.6214 28.6335 38.1431
Co 11.6694 10.7941 29.166
Pd 20.8763 3.69988 28.5728
Pd 23.5439 45.4141 15.9019
Pd 17.0242 10.2666 41.1946
Co 13.2973 15.3464 28.3409
Pd 15.4787 27.8981 18.2888
Pd 14.3038 15.6946 35.0312
Pd 17.7325 10.1418 27.5798
Co 19.223 29.2803 12.9173
Pd 11.8919 34.0246 27.8399
Pd 13.6607 17.7393 36.7847
Pd 26.209 36.9518 43.049
Co 19.8729 7.81139 23.9148
Pd 22.2565 20.1695 45.8349
Pd 29.2975 24.7153 30.9296
Pd 7.2342 21.9101 12.8322
Co 8.85901 28.1788 16.4086
Pd 4.11451 27.7437 28.5315
Pd 17.592 13.346 27.5958
Pd 12.7821 23.3613 43.6186
Co 18.2057 31.8748 43.5906
Pd 33.5108 25.8771 34.3572
Pd 36.3288 43.801 33.9867
Pd 9.31439 35.8316 20.5164
Co 16.4122 11.4035 38.0603
Pd 19.8198 20.2642 44.6099
Pd 10.7784 34.7419 38.8211
Pd 14.9464 31.6541 42.6914
Co 24.3971 39.5369 19.598
Pd 26.2012 37.997 27.1258
Pd 33.6134 23.3141 33.7602
Co 8.86892 24.279 40.1997
Pd 9.16557 32.0134 23.0925
Pd 15.3196 34.9278 10.014
Pd 17.9092 20.8933 15.6487
Pd 25.0633 30.7104 4.747
Co 10.3887 19.7422 10.3654
Pd 5.7254 26.3352 21.9867
Pd 17.7553 18.5666 24.371
Pd 11.3781 19.9289 40.9698
Co 9.17283 14.6627 34.4444
Pd 15.1581 18.1459 22.5588
Pd 14.0186 18.7912 34.3874
Pd 23.8857 33.8339 40.3241
Co 16.6838 31.447 23.2574
Pd 10.9107 29.8881 44.608
Pd 26.5164 35.7017 37.2231
Pd 28.0315 24.2346 24.9562
Co 24.5095 15.6587 32.2193
Pd 18.3962 33.5483 45.5968
Pd 27.8858 41.8439 27.6286
Pd 10.0596 23.931 22.0131
Co 26.6476 19.7477 45.8039
Pd 18.4297 43.7928 34.6685
Pd 20.2467 26.822 35.5416
Pd 13.9262 37.5736 21.1172
Co 23.4582 28.7972 41.2349
Pd 27.6666 25.0627 22.2471
Pd 32.5132 46.2878 24.6829
Pd 11.4369 25.8554 43.6281
Co 35.9333 31.6363 43.8452
Pd 28.3917 38.3601 18.8873
Pd 12.4986 36.7712 23.1769
Pd 32.0566 29.2461 27.3254
Co 7.14104 36.8792 34.063
Pd 15.0449 26.0825 20.5278
Pd 35.935 15.7267 42.5446
Co 15.8064 28.5287 36.3151
Pd 32.1801 42.1723 19.1468
Pd 10.1448 14.7696 37.0254
Pd 10.1829 21.7231 36.7525
Pd 3.6599 24.3255 31.6695
Co 16.5389 19.4078 33.6654
Pd 5.40486 17.0127 31.9989
Pd 7.15782 19.6921 14.4793
Pd 4.87907 21.9845 31.5489
Co 20.3405 31.5036 29.1692
Pd 3.7268 28.3499 21.3202
Pd 19.2525 45.9454 29.9707
Pd 16.8927 13.1553 16.0304
Co 15.8663 27.5419 15.5346
Pd 20.7607 40.6666 13.8619
Pd 28.4295 4.55748 21.2251
Pd 23.8763 27.1033 13.007
Co 19.5904 41.5369 25.3788
Pd 5.80473 33.2188 19.8376
Pd 22.5757 21.725 33.1257
Pd 3.97577 17.6589 29.7768
Co 6.62834 33.0485 36.82
Pd 35.3216 36.6049 39.3015
Pd 15.2283 42.7336 20.6525
Pd 33.87 45.7058 15.6721
Co 15.7395 40.7512 42.6186
Pd 18.7144 31.0762 14.7532
Pd 4.51343 17.5485 25.1975
Co 9.66332 24.3581 37.6796
Pd 19.4739 44.0392 25.8338
Pd 30.0876 16.7806 42.9814
Pd 5.82057 22.2217 36.23
Pd 9.78396 22.7317 13.3956
Co 22.3763 32.6928 7.87702
Pd 2.5871 20.9922 27.3284
Pd 38.1381 30.4265 32.7217
Pd 15.8373 21.9307 9.55919
Co 40.1767 39.4135 17.5821
Pd 18.1715 21.236 24.2684
Pd 5.5706 21.2737 21.4367
Pd 19.8437 20.7488 10.5891
Co 22.959 26.9868 4.16297
Pd 22.2145 41.8191 39.7614
Pd 6.08011 17.7784 27.3748
Pd 19.5099 24.9979 39.6581
Co 36.8685 39.4288 14.2216
Pd 29.7823 38.8002 44.8559
Pd 11.0602 34.7085 43.0259
Co 31.9577 24.0809 30.39
Pd 27.6129 31.8875 15.481
Pd 23.3908 26.1721 10.4581
Pd 9.92372 38.2113 29.8715
Pd 34.9965 28.8285 21.1047
Co 21.4845 27.5169 20.0039
Pd 20.5305 30.7553 26.5841
Pd 26.5659 36.4791 34.3979
Pd 36.9059 41.9286 25.955
Co 29.3111 21.6338 38.7987
Pd 20.7735 25.0465 4.40201
Pd 17.8958 46.2918 19.2043
Co 20.6329 26.7655 31.0825
Pd 16.0417 30.273 40.8557
Pd 13.2578 39.4133 23.0044
Pd 45.096 37.2236 21.5144
Co 8.24115 25.0794 34.7671
Pd 18.153 8.03526 14.9407
Pd 11.5127 12.4482 22.7322
Co 32.9682 33.4837 41.3368
Pd 24.6721 27.891 46.4472
Pd 3.86203 20.3753 29.6
Pd 30.1231 17.9535 34.4729
Co 32.2508 6.81018 29.8117
Co 25.1626 7.73475 23.5516
Pd 11.6062 18.1167 34.9647
Pd 30.5467 43.1965 31.2149
Co 26.4239 24.6142 6.94164
Pd 10.6877 16.4493 30.7331
Pd 32.9974 39.7185 18.2586
Pd 28.2319 14.2198 13.5145
Co 6.28618 27.408 19.8723
Pd 11.1152 20.0917 14.4122
Pd 34.8522 15.5609 30.4265
Pd 32.8535 17.5803 34.6421
Co 5.15277 29.1274 30.3759
Pd 11.2231 8.38972 29.7968
Pd 26.2734 20.4595 20.5756
Pd 28.0591 11.0855 35.7746
Co 15.5978 10.5835 11.7481
Co 29.5074 11.4923 33.6489
Pd 23.3208 33.6431 16.8963
Pd 39.5373 28.5564 22.9579
Co 27.7714 6.96542 27.8557
Pd 26.261 15.5072 10.4742
Pd 34.1605 16.2404 20.9469
Pd 30.0897 13.155 23.0756
Co 11.323 18.7642 12.3705
Pd 20.1134 14.0563 25.1337
Pd 28.0478 7.5029 32.7906
Pd 18.4656 13.9533 43.8698
Co 32.4863 17.6725 26.8513
Pd 39.8096 25.0101 14.722
Pd 9.85768 38.5802 14.6127
Pd 21.5951 19.4214 32.3847
Co 25.7466 29.4634 20.7941
Pd 25.4834 23.9579 23.3262
Pd 14.2151 22.0557 18.5655
Pd 38.3341 8.93881 23.504
Co 20.4982 25.4368 42.0005
Pd 27.4171 16.0246 28.7716
Pd 14.6439 6.89836 33.6744
Pd 26.9268 20.9269 38.2443
Co 28.2747 21.7689 10.0507
Co 17.513 40.8499 33.517
Pd 23.3855 31.9135 14.7697
Pd 29.2751 24.4566 6.5257
Co 25.346 22.7684 21.0054
Pd 32.4261 28.5077 7.75254
Pd 36.1717 18.8773 9.37712
Pd 20.2978 21.0129 17.4401
Co 44.6147 22.6883 19.3143
Pd 16.0993 16.4077 24.3656
Pd 20.6304 24.1472 30.9759
Pd 14.8646 13.3571 29.3845
Co 32.7536 15.1797 14.1288
Pd 34.7789 7.54808 30.5755
Pd 24.6663 27.5892 31.9018
Pd 31.199 35.3271 6.42862
Co 28.3135 13.1617 25.1873
Pd 29.2681 41.2479 15.7906
Pd 34.5795 19.1108 20.4998
Pd 32.8687 23.695 20.0408
Co 5.78661 29.4928 24.9675
Pd 25.3328 25.4071 35.8051
Pd 4.47778 15.7249 27.7064
Pd 19.2998 25.6096 21.5469
Co 39.7836 32.2504 36.2917
Pd 9.24691 16.9361 35.6297
Pd 18.206 35.8001 9.58831
Pd 20.9398 27.0767 43.8799
Co 19.9982 47.2285 21.439
Pd 10.4407 23.79 35.2411
Pd 16.2434 15.1113 43.4465
Pd 33.7767 6.34934 18.971
Co 26.8953 32.1174 33.809
Co 30.2189 28.6043 36.24
Pd 18.5079 37.2314 17.0579
Pd 13.6713 21.01 8.17072
Co 16.7456 32.4456 13.4824
Pd 14.9699 10.9781 16.2994
Pd 41.0499 14.201 32.851
Pd 12.0055 34.1938 16.2347
Co 27.1064 36.5296 7.61478
Pd 10.3761 26.6566 22.0415
Pd 7.53387 23.1665 21.281
Pd 12.5932 37.3089 25.7538
Co 11.7915 34.0928 13.7028
Pd 23.1519 16.8645 10.0264
Pd 30.7376 7.78628 38.9457
Pd 19.2256 14.5336 39.673
Co 18.8034 16.9375 16.3311
Pd 27.823 8.88397 30.4301
Pd 10.2522 36.7514 24.5979
Pd 20.1453 25.9706 13.7143
Co 24.9049 21.5871 16.6627
Pd 18.354 6.96791 17.3755
Pd 27.5349 17.542 46.8043
Pd 6.89486 24.4993 25.4298
Co 29.3601 19.6906 10.7305
Pd 15.1557 25.9622 41.4232
Pd 31.8332 30.6917 47.2242
Pd 30.5756 11.6083 16.2989
Co 23.7624 29.3769 38.6239
Pd 22.1781 7.9966 22.7087
Pd 29.766 28.5212 28.7109
Pd 15.9575 20.5363 17.5469
Co 23.6325 38.072 38.2853
Pd 16.2527 6.32856 21.6231
Pd 34.5862 33.7559 22.042
Pd 7.61574 16.5581 33.5536
Co 14.6126 22.3077 37.091
Pd 9.32149 26.3986 11.1225
Pd 15.2151 37.4169 30.7207
Pd 13.7501 37.1101 40.7273
Co 18.2874 18.7257 46.0322
Co 12.2395 22.3741 41.2461
Pd 27.4465 27.8034 3.25615
Pd 27.3013 40.7742 23.1738
Co 33.2472 41.8853 13.7069
Pd 20.781 36.4049 14.2678
Pd 11.6864 21.485 11.9665
Pd 29.2982 17.7928 6.41063
Co 19.785 14.1439 21.476
Pd 17.6016 27.4489 9.22464
Pd 22.0337 18.2331 15.106
Pd 16.8952 19.4868 13.4343
Co 41.9588 29.84 43.6504
Pd 38.4541 13.2562 18.1298
Pd 9.74152 30.1178 18.0662
Pd 32.4347 14.324 23.1905
Co 5.39396 20.0792 18.9458
Pd 11.7658 24.7952 26.2962
Pd 13.2176 24.0671 12.2827
Pd 14.3905 34.9813 20.2816
Co 6.43177 16.0763 20.2727
Pd 14.0028 15.7134 25.8318
Pd 22.3697 26.0821 26.2844
Pd 14.2574 44.7318 16.5471
Co 16.5282 14.3131 32.6052
Pd 34.4052 27.2756 17.2606
Pd 26.7481 23.5482 34.5162
Pd 15.8104 32.8951 6.68557
Co 20.6304 12.4588 40.1868
Pd 21.9826 44.1873 37.7598
Pd 11.3307 17.3509 27.8262
Pd 25.1584 27.0428 41.7655
Co 21.8187 15.6446 23.4164
Pd 17.6539 16.9401 13.977
Pd 19.7492 34.7826 38.1407
Pd 14.0799 25.7552 43.9131
Co 23.8607 37.1277 34.2431
Pd 21.7042 21.8024 47.8594
Pd 28.1763 12.267 17.8756
Pd 34.4592 41.197 32.0515
Co 11.9876 25.4116 37.2172
Pd 16.334 24.2625 43.63
Pd 29.1674 36.0171 24.6244
Pd 31.3764 30.1731 39.9912
Co 25.7037 17.1014 45.0625
Pd 31.153 19.6782 38.4649
Pd 20.4035 14.0868 42.0311
Pd 13.6494 39.2764 31.706
Co 18.7563 28.0137 42.9355
Co 30.3577 23.9091 46.3935
Pd 21.6123 26.649 6.31488
Pd 26.201 7.49132 39.7871
Pd 23.5883 37.0457 18.8573
Co 27.7865 38.1921 13.6912
Pd 10.9841 28.7079 20.0338
Pd 20.03 23.3571 13.4433
Pd 18.1788 29.6441 32.449
Co 23.3776 38.64 23.8739
Pd 27.3011 27.9272 27.1925
Pd 22.4728 9.09232 13.3507
Pd 18.4036 39.9444 12.804
Co 9.70165 32.8513 27.8289
Pd 18.7964 40.1732 8.99931
Pd 30.4481 39.9617 17.8605
Pd 8.90611 25.7525 17.5902
Co 19.4399 29.2019 8.18614
Pd 39.0766 42.0814 37.0467
Pd 26.4044 33.925 29.3151
Pd 17.4839 14.8137 20.8879
Co 30.8866 12.652 18.5617
Pd 17.5169 21.9104 28.38
Pd 16.9298 24.097 21.4222
Pd 16.7661 34.6202 34.9225
Co 19.9699 23.1108 41.1456
Pd 37.8755 32.6886 45.0076
Pd 19.3756 33.5488 26.4228
Pd 20.4979 29.5833 30.8983
Co 17.4913 43.1519 22.0105
Pd 15.9632 35.4771 37.439
Pd 31.7182 32.8567 43.6183
Pd 26.4727 22.9512 39.7742
Co 25.3246 14.0927 38.7328
Pd 40.765 39.2441 31.8289
Pd 8.27475 33.6959 38.7431
Pd 34.0982 34.1747 28.479
Co 21.5252 11.3472 42.2179
Pd 28.8676 36.0315 20.2834
Pd 21.8499 39.1209 19.2796
Pd 27.4299 30.4988 27.0599
Co 23.3259 29.2534 14.4521
Pd 22.337 17.0268 35.9366
Pd 18.1464 41.4301 37.9555
Pd 28.7756 29.1585 44.4258
Co 22.2683 35.4164 38.2833
Pd 12.3849 31.5118 28.7703
Pd 36.1995 25.969 38.027
Pd 30.4468 17.6654 31.4519
Co 5.5593 27.3111 26.425
Pd 7.47117 35.4094 36.452
Co 21.647 9.20153 30.7584
Pd 37.255 47.0573 25.9735
Pd 16.1988 24.7023 25.1437
Pd 15.6691 35.581 28.923
Pd 11.5007 40.2249 18.0482
Co 19.758 28.4159 18.1153
Pd 25.8265 14.1234 25.0064
Pd 30.375 34.7126 13.0528
Pd 17.6335 29.4933 18.9658
Co 14.2611 18.6702 7.18669
Pd 14.7916 35.7487 23.892
Pd 19.8091 8.52886 32.4365
Pd 25.8277 31.9131 13.2916
Co 11.6302 28.1233 32.161
Pd 18.914 4.92067 30.1954
Pd 27.6333 30.4865 3.77999
Pd 14.3879 39.9044 14.3476
Co 11.0385 31.9619 16.7922
Pd 6.33915 34.3228 29.9821
Pd 13.0783 17.4962 30.1101
Pd 13.7517 29.5247 19.8948
Co 21.3329 23.1222 38.9946
Pd 9.84354 25.244 28.1202
Pd 11.7992 40.3759 15.3226
Pd 5.92674 35.5144 27.4616
Co 22.5811 15.6431 14.5704
Pd 39.3978 29.9173 40.1754
Pd 31.9301 35.6493 16.2158
Pd 24.2249 17.9684 38.2199
Co 30.5798 44.8571 18.0943
Pd 16.996 43.7194 38.6131
Pd 18.9954 42.7023 13.057
Pd 3.7494 24.0251 18.3764
Co 30.1208 43.7204 15.9908
Pd 33.9319 36.5729 45.4329
Pd 25.4174 30.4234 15.5833
Pd 40.2622 23.5218 40.7253
Co 14.7941 33.5553 33.3769
Pd 22.1295 40.4393 25.4106
Pd 14.0239 16.5707 39.4493
Pd 30.3278 33.1474 37.2053
Co 4.92715 26.3116 30.7723
Pd 20.0252 27.9165 33.1372
Pd 38.7333 25.7104 37.1201
Co 7.43366 29.1292 32.5207
Pd 15.1395 16.2602 6.9891
Pd 8.6366 27.9787 18.9877
Pd 29.5356 48.494 20.4435
Pd 30.1357 33.5486 15.4745
Co 17.1318 19.0746 31.4227
Pd 22.5537 27.3404 37.0688
Pd 17.3095 34.2057 39.467
Pd 8.61098 36.7786 16.228
Co 9.11942 14.8177 32.0142
Pd 13.6309 30.6186 39.9726
Pd 15.2155 28.8342 45.3206
Pd 4.34186 20.5289 25.3665
Co 22.9455 36.1325 27.5327
Pd 16.3886 46.1152 29.5979
Pd 40.7205 36.0336 21.6071
Pd 16.1294 46.6897 27.0373
Co 18.1121 24.5861 17.5872
Pd 29.4543 41.0907 30.0172
Pd 30.5771 34.3667 41.5295
Pd 12.7343 35.7369 9.75913
Co 32.7216 46.3048 17.9584
Pd 31.4806 48.054 29.569
Pd 23.578 35.613 21.0515
Pd 25.9233 45.7921 17.3911
Co 23.6644 23.7564 19.1956
Pd 43.4381 28.8807 39.276
Pd 21.2127 21.2693 15.02
Pd 24.585 30.1884 45.2175
Co 6.87493 27.0608 34.8467
Pd 38.4089 39.9704 38.3763
Pd 12.5639 25.2624 34.6985
Pd 30.4441 38.8273 9.61341
Co 18.4851 41.3896 15.0426
Pd 38.9113 26.9616 18.8342
Pd 5.32323 25.4115 33.4854
Co 28.796 21.9786 41.2953
Pd 20.0076 36.8023 23.5783
Pd 23.6424 31.5569 18.6383
Pd 12.8377 18.9294 39.0073
Pd 15.6743 16.876 33.1527
Co 14.6161 28.2691 13.6302
Pd 27.7857 21.5498 35.8559
Pd 8.19912 25.7682 20.4859
Pd 13.7312 31.1514 7.91636
Co 20.2692 19.6657 24.2985
Pd 30.3995 38.6103 24.9548
Pd 9.09113 41.0294 24.9279
Pd 6.5078 21.6361 29.3865
Co 12.8557 21.1738 20.6657
Pd 28.4855 38.3638 42.616
Pd 16.5945 18.5249 15.7797
Pd 22.7785 33.5267 22.8126
Co 15.7937 44.2062 23.4868
Pd 35.5387 33.814 45.5856
Pd 40.8007 37.2222 35.8425
Pd 35.9178 27.3678 40.3841
Co 17.6566 42.506 17.1901
Pd 17.7138 30.4723 36.7192
Pd 30.5318 43.9154 24.4474
Pd 26.7427 15.3368 15.4591
Co 20.1445 27.7369 46.2561
Pd 16.6529 41.4926 29.0148
Pd 16.1842 31.9814 15.9976
Co 23.1713 38.0864 21.3969
Pd 10.4088 35.9895 27.0363
Pd 33.8831 31.7207 17.626
Pd 29.07 45.4578 31.2614
Pd 10.085 26.4295 35.805
Co 22.5452 17.5131 12.7112
Pd 19.2369 42.311 28.5284
Pd 13.1506 43.4272 35.0786
Pd 23.2406 39.6864 29.7083
Co 13.5036 22.4911 10.3223
Pd 34.6986 47.865 26.558
Pd 9.48223 17.1975 16.9784
Pd 29.7875 39.637 40.6196
Co 19.0713 29.3164 34.9542
Pd 22.9862 34.4654 34.5258
Pd 7.84887 26.2144 37.173
Pd 30.9822 36.5776 11.2231
Co 35.3569 34.3294 8.64622
Pd 7.58322 31.8735 31.9609
Pd 17.8147 30.7309 30.1294
Co 19.383 37.388 32.186
Pd 15.6533 26.6204 5.42529
Pd 24.2989 45.4894 26.7152
Pd 17.5503 22.846 41.5554
Pd 29.6105 32.2978 12.1658
Co 14.4236 23.5038 8.06888
Pd 34.7988 35.4709 15.8335
Pd 41.2205 36.9831 24.0491
Pd 14.5145 41.786 12.3171
Co 9.20689 27.6759 24.0876
Pd 34.3318 24.3296 22.2402
Pd 29.604 42.4294 18.0851
Co 11.0278 21.5754 29.3845
Pd 40.2272 36.999 26.9613
Pd 35.7404 43.5435 31.3559
Pd 11.0504 39.2844 24.487
Pd 39.0733 20.5662 19.5799
Pd 32.7842 15.6685 25.3731
Co 18.1768 8.85897 19.1785
Pd 35.8762 17.6972 22.5268
Pd 18.4009 8.78491 34.7553
Pd 49.2212 17.8646 23.9653
Co 32.9794 29.3895 16.9777
Pd 20.9239 12.0941 20.7332
Pd 21.8099 23.4117 26.4221
Pd 15.7377 18.0742 18.1809
Co 17.055 13.1325 36.4587
Pd 34.4118 9.23365 33.0445
Pd 30.5802 3.65948 22.2622
Pd 7.52154 18.5536 18.3445
Co 28.1514 16.5196 17.2893
Co 11.8631 30.2417 33.7083
Pd 25.0722 36.2423 16.562
Pd 26.1571 39.9158 12.7266
Co 28.8212 10.348 42.3864
Pd 44.8339 19.2978 14.7071
Pd 34.0123 16.0149 27.8148
Pd 33.868 19.8046 31.1496
Co 24.4061 27.928 24.2791
Pd 8.99888 13.511 27.4863
Pd 25.9446 15.1641 21.1557
Pd 29.5525 36.9578 28.9106
Co 36.3224 31.5455 28.3184
Pd 14.1737 18.3472 25.1353
Pd 20.03 8.49284 21.2779
Pd 29.2325 21.9068 7.6242
Co 10.9392 12.0289 27.0484
Pd 26.1623 32.3966 43.7357
Pd 19.0181 13.2896 34.8639
Pd 25.7124 12.1186 18.7885
Co 16.6591 9.18954 36.8426
Pd 36.4602 17.0571 19.9162
Pd 20.7098 33.2247 46.8673
Pd 24.6042 9.66395 39.6033
Co 27.2009 23.1016 16.1202
Co 27.3525 13.4363 11.3503
Pd 27.8943 33.199 4.35752
Pd 17.5687 30.9758 7.92476
Co 17.374 26.246 19.7377
Pd 6.6541 14.7332 31.6838
Pd 17.1721 11.1524 18.2092
Pd 22.6977 22.1195 36.6559
Co 27.4606 10.802 20.1503
Pd 14.6603 14.2379 20.0322
Pd 4.89963 28.8684 16.1624
Pd 27.091 19.2377 22.7836
Co 18.5781 22.0181 21.9195
Pd 20.8667 17.91 45.373
Pd 25.4537 17.9572 9.17811
Pd 24.5504 20.3216 37.1463
Co 40.0055 20.6216 10.5346
Pd 45.9234 15.9199 27.738
Pd 4.28207 15.1148 30.3994
Pd 17.1445 14.5045 10.2005
Co 19.9673 20.1912 28.8284
Pd 17.5427 9.82678 32.1883
Pd 14.2132 8.89977 36.5802
Pd 13.8348 11.1929 38.2765
Co 32.9187 12.8888 14.7299
Pd 13.6849 26.0719 14.592
Pd 18.1755 24.7477 12.3053
Pd 38.3543 16.565 41.9928
Co 20.7995 20.9353 21.915
Pd 27.8564 20.0948 6.14538
Pd 22.8116 9.66485 37.6253
Pd 18.0939 15.4008 37.3526
Co 23.0503 21.8835 21.4706
Co 11.7922 23.2458 33.0994
Pd 10.3757 9.53806 27.315
Pd 34.4808 44.0818 13.3205
Co 29.5056 14.6974 21.0943
Pd 42.8204 17.3024 10.294
Pd 26.3322 13.6781 27.603
Pd 5.28538 24.235 16.3179
Co 9.53955 15.8509 26.6183
Pd 18.928 31.7224 12.2455
Pd 26.9601 29.3181 29.4885
Pd 39.9683 27.2966 8.08006
Co 37.538 10.7905 18.4461
Pd 31.6312 8.14248 19.7286
Pd 17.524 10.5923 15.5317
Pd 33.6357 30.7628 14.8742
Co 24.634 25.7594 5.49202
Pd 13.395 21.0917 32.9161
Pd 26.9497 36.1933 18.439
Pd 40.034 7.4614 25.166
Co 10.37 26.8834 8.7773
Pd 14.0095 28.2781 33.2737
Pd 19.8312 10.0069 40.7629
Pd 22.2092 14.6054 20.9398
Co 28.8842 21.7933 14.7831
Pd 31.2508 5.04786 31.5474
Pd 16.1058 17.3747 44.9655
Pd 25.5582 43.2529 27.9261
Co 36.3299 29.9376 26.4965
Pd 33.2082 10.7536 26.6591
Pd 16.6981 20.2469 22.3058
Pd 15.1416 19.8446 37.4423
Co 21.5352 33.0568 27.601
Pd 15.1456 26.9116 27.7899
Pd 32.4419 16.4097 41.7777
Pd 13.4453 17.0322 20.7997
Co 20.1423 26.866 38.135
Pd 26.0612 18.3156 40.4494
Pd 16.2432 20.133 45.5818
Pd 8.59159 31.4669 36.9145
Co 14.4574 41.8063 36.6263
Co 17.6384 25.7107 7.33436
Pd 13.9104 15.4742 15.5784
Pd 13.9617 37.805 16.1001
Co 15.2938 29.8539 24.7283
Pd 26.3791 49.3582 25.9021
Pd 28.8841 13.9357 16.0448
Pd 20.7961 20.0799 7.84909
Co 8.69913 22.2945 38.7446
Pd 26.1244 34.7989 21.1538
Pd 19.402 27.6223 23.2537
Pd 13.4637 40.9099 25.0747
Co 30.2366 29.8783 11.7795
Pd 23.4887 30.8704 21.3768
Pd 27.3134 16.8848 13.2607
Pd 31.7499 31.6589 25.4699
Co 11.0605 23.7992 17.6845
Pd 8.58599 20.9893 22.4774
Pd 24.4685 24.4985 25.8103
Pd 11.6661 17.0167 25.211
Co 2.44386 24.5398 24.5624
Pd 36.6371 15.1304 21.6274
Pd 16.5324 26.1442 29.8624
Pd 9.68031 11.8792 20.7572
Co 20.8414 32.4364 15.441
Pd 36.4219 22.5428 11.8389
Pd 31.4683 38.107 27.3852
Pd 24.9727 6.52832 16.0257
Co 15.2685 14.5825 41.1924
Pd 20.8574 30.6014 39.8089
Pd 19.0468 25.5307 29.4265
Pd 10.0252 19.5142 38.5789
Co 23.2095 27.1393 28.4197
Pd 17.8599 9.98887 12.9736
Pd 31.5638 31.4222 19.274
Pd 14.1193 11.3351 33.6269
Co 19.5854 27.3076 40.6792
Pd 6.79031 27.2419 24.2294
Pd 36.646 21.9249 26.7999
Pd 44.5485 26.3175 29.267
Co 7.12913 29.6607 17.3171
Pd 22.2687 14.0231 35.6117
Pd 17.712 7.6264 26.3091
Pd 16.2751 27.1665 43.5055
Co 20.6317 19.046 40.616
Pd 9.61393 21.9168 41.0963
Pd 19.5058 17.4728 36.6409
Pd 13.4174 22.952 30.9783
Co 13.2621 32.3236 35.3216
Co 36.7773 23.0833 30.4886
Pd 10.0506 10.6064 31.1662
Pd 33.56 30.706 7.04037
Pd 23.5951 22.7003 14.7335
Co 25.7674 37.2755 12.3591
Pd 20.29 15.4657 19.2292
Pd 25.3582 5.40044 24.2225
Pd 26.374 22.3353 18.5678
Co 16.8116 14.1006 7.80513
Pd 45.6179 25.4025 25.8951
Pd 10.8327 8.53633 32.6082
Pd 14.5309 23.1939 20.9056
Co 31.2526 33.5379 8.33466
Pd 28.1576 28.7393 19.7159
Pd 23.7746 40.4976 13.7569
Pd 31.8321 11.9615 24.7922
Co 16.2744 26.1033 10.7918
Pd 27.551 33.7367 19.0519
Pd 26.1579 12.2945 13.468
Pd 11.6399 19.0155 20.7406
Co 19.8882 29.6494 44.318
Pd 26.1607 20.5929 48.2607
Pd 27.3974 22.177 23.0084
Pd 13.0594 25.6242 32.2044
Co 40.5451 34.9345 25.3637
Pd 26.0578 31.844 20.0446
Pd 7.75756 20.6307 37.0962
Pd 10.3376 15.5455 14.9984
Co 18.701 40.9699 23.0706
Pd 32.3045 46.7948 27.3164
Pd 41.6563 30.7088 35.3382
Pd 13.0506 18.8033 18.479
Co 34.161 18.8727 15.2004
Pd 8.5172 14.9918 29.6006
Pd 34.6998 34.9561 36.9926
Pd 22.5011 31.2287 37.5514
Co 16.6498 6.76452 28.6247
Pd 33.721 26.3742 39.2691
Pd 41.0918 27.8925 25.4372
Pd 21.8767 15.7208 46.8933
Co 6.82321 23.2371 34.0649
Pd 16.7394 42.6869 36.173
Pd 44.3678 23.7377 33.1193
Pd 17.4588 38.9 31.5872
Co 14.4796 33.2679 37.4162