4033
Atoms. Timestep: 21559
Co 10.9458 8.58457 22.0454
Pd 4.68817 17.8316 25.4421
Pd 9.04245 11.8641 29.0123
Co 8.05779 16.8078 28.3862
Pd 7.11278 19.5563 32.9102
Pd 9.65964 13.1621 34.9767
Pd 5.76481 14.6078 31.5898
Co 5.35991 20.3006 29.259
Co 12.4714 10.4381 21.9658
Pd 7.97002 19.273 17.2104
Pd 5.69324 16.0575 29.1847
Co 7.63804 17.1277 18.8103
Pd 4.62015 24.5811 24.1076
Pd 4.13337 20.3242 24.6384
Pd 3.56392 19.578 27.3719
Co 5.82181 22.4628 24.6997
Pd 4.10255 18.162 29.5024
Pd 6.18988 15.7491 26.5412
Pd 5.1184 17.0616 31.637
Co 4.71039 26.4245 28.2654
Pd 5.19143 20.8684 34.1303
Pd 7.27866 16.4524 33.0307
Pd 6.68195 19.3142 35.7463
Co 2.66522 23.1811 30.3534
Co 10.4181 14.8087 36.9179
Pd 5.47275 21.138 26.7718
Pd 6.11835 27.5753 20.4224
Co 5.35155 18.4105 23.0973
Pd 6.60691 23.1871 17.1137
Pd 5.6792 30.1384 21.2967
Pd 6.37127 20.9775 18.6016
Co 8.49404 26.0491 13.1383
Pd 4.6787 25.4971 21.5478
Pd 3.16672 25.8113 25.985
Pd 3.76026 22.2178 28.3187
Co 7.54937 25.5855 20.717
Pd 2.4115 30.8585 25.0804
Pd 2.73734 24.5873 28.1831
Pd 2.14975 27.2186 27.9569
Co 8.10984 26.9924 24.6395
Pd 3.52798 28.5605 29.5876
Pd 2.54042 30.1447 27.6813
Pd 5.14571 22.2572 30.9441
Co 3.74593 24.3851 32.0377
Pd 5.04897 23.4834 34.0329
Pd 2.9431 30.8674 30.7486
Pd 3.25128 21.8844 32.5858
Co 7.39808 23.8344 30.4618
Co 6.12612 24.757 32.1803
Pd 8.54757 23.698 11.9156
Pd 8.81207 34.4094 14.3488
Pd 7.30601 23.9858 14.5498
Pd 10.0791 17.8417 18.5087
Co 8.32117 26.0718 15.5423
Pd 3.71346 28.474 21.5973
Pd 3.62242 26.8842 19.5635
Pd 6.39672 23.5332 22.3007
Co 5.38888 27.406 17.9592
Pd 3.38072 22.7206 25.6576
Pd 3.43686 26.8516 23.5492
Pd 7.25674 24.5744 25.0685
Co 4.38643 29.4137 19.1759
Pd 5.51641 26.7009 25.2658
Pd 3.43652 30.93 22.5916
Pd 7.12304 27.1223 27.2559
Co 6.55651 28.988 25.4496
Pd 2.95333 20.5773 30.1399
Pd 5.15546 26.9607 31.2093
Pd 4.49245 28.4813 26.9889
Co 6.00513 28.5039 29.1697
Pd 3.12367 28.3805 32.1835
Pd 5.15495 27.7714 35.5799
Pd 4.29669 26.2006 33.6447
Co 5.18091 29.7223 31.0939
Pd 4.80967 19.6994 31.7313
Pd 7.03942 27.4107 37.2491
Co 8.12907 28.9048 38.9729
Pd 5.01346 29.5026 16.5974
Pd 5.54452 34.2704 20.0613
Pd 10.233 36.5851 15.2584
Pd 7.67365 26.1166 18.0557
Co 7.39526 34.1728 21.8246
Pd 5.15507 22.4834 20.3509
Pd 5.87908 32.9287 26.5962
Pd 5.87896 30.866 23.892
Co 6.71565 25.8842 22.9786
Pd 2.82714 26.0712 30.3692
Pd 6.37525 35.6223 26.4489
Pd 4.24335 34.943 27.8792
Co 4.16417 29.1102 24.3826
Pd 6.00726 36.5769 28.9757
Pd 3.23898 32.6648 26.9273
Pd 4.84893 31.0019 28.7831
Co 4.1429 32.5723 24.441
Pd 6.79622 30.5978 32.8002
Pd 5.46882 30.456 35.3178
Co 5.61413 32.6982 34.0412
Pd 5.15723 35.2632 22.7186
Pd 7.99741 31.5297 25.4141
Pd 4.08911 31.9089 20.1177
Pd 7.62894 36.0486 23.7813
Co 5.43497 32.6672 22.1262
Pd 3.20634 33.58 22.2832
Pd 3.44708 33.0994 29.5959
Pd 4.19357 34.879 25.1943
Co 6.27155 37.2264 31.4218
Pd 3.52634 33.358 32.3949
Pd 5.56851 32.4266 31.3037
Co 7.43458 38.5503 29.6643
Pd 8.20329 35.329 28.3972
Pd 5.49669 37.2231 24.6327
Pd 6.72108 36.5152 21.0451
Co 10.7537 40.8451 28.1119
Co 16.3574 6.93017 25.333
Pd 10.7183 13.3444 18.2634
Pd 14.5788 11.2379 17.3086
Co 10.4844 13.6631 20.7308
Pd 11.2816 9.24661 19.6511
Pd 8.81593 15.7448 26.2263
Pd 9.06185 13.1355 26.7464
Co 11.8991 11.8322 20.1031
Co 12.6958 13.1943 30.8235
Pd 5.80012 20.9284 22.6831
Pd 6.7867 16.9712 21.2612
Co 8.76992 15.3286 20.7121
Pd 5.67008 19.398 20.6391
Pd 7.70253 13.1289 30.8563
Pd 7.41292 14.0409 24.7053
Co 7.32924 14.2359 28.4285
Pd 6.65001 14.3484 21.7857
Pd 7.42409 13.8566 33.5582
Pd 8.8661 13.2955 22.5602
Co 11.2268 14.5915 26.7504
Pd 10.8596 10.2003 24.0012
Pd 11.6086 13.0752 33.072
Pd 9.26982 12.0268 32.6295
Co 10.5952 16.9306 33.1824
Co 6.82928 16.7594 35.5099
Pd 9.62397 21.4171 13.381
Pd 10.7021 20.0497 17.1813
Co 13.4608 14.3642 12.3954
Pd 6.85617 14.8347 19.1405
Pd 8.12874 19.3225 19.8324
Pd 8.5125 15.9517 23.199
Co 8.99674 24.0822 16.8498
Pd 5.7115 15.9151 23.6662
Pd 7.74823 21.5269 21.058
Pd 6.89077 19.9981 25.0023
Co 11.0038 16.4308 25.2009
Pd 7.30267 17.5036 24.8491
Pd 7.63176 20.2426 28.1274
Pd 8.88658 18.5047 26.6146
Co 6.34049 22.4919 28.6952
Pd 6.87217 18.3566 30.1837
Pd 7.73229 20.8643 30.7296
Pd 8.73093 18.1714 34.3699
Co 8.8452 18.0806 31.7709
Pd 5.23191 18.0738 33.9926
Pd 9.14246 21.5618 39.6333
Pd 8.55328 17.8365 37.0945
Co 9.58329 20.3581 32.8733
Co 9.50206 14.8351 32.7092
Pd 6.23552 26.8641 14.2521
Pd 13.8693 16.1134 10.2818
Co 11.521 20.2428 14.7174
Pd 9.88538 24.1054 14.1592
Pd 7.6636 23.5206 19.4517
Pd 10.2073 16.6375 14.1464
Co 12.0123 22.5628 14.1134
Pd 8.73605 16.8656 16.3907
Pd 10.0926 22.8341 20.8209
Pd 8.8329 21.6508 18.1192
Co 12.3174 25.4848 18.2992
Pd 5.46768 24.9568 19.0707
Pd 7.91739 22.2495 26.4213
Pd 9.99232 18.2033 23.8416
Co 8.08015 22.0896 23.6575
Pd 7.55767 24.5452 27.8095
Pd 6.06123 18.2989 27.5247
Pd 5.18811 24.1601 26.858
Co 10.0622 20.7645 27.663
Pd 8.87808 22.506 29.0407
Pd 6.10148 25.1909 35.7736
Pd 9.38001 23.0345 31.8575
Co 9.54704 23.6498 25.1677
Pd 7.938 21.4454 34.7874
Pd 7.9444 20.7512 37.4496
Pd 8.15936 23.5187 36.8491
Co 6.92144 22.2906 32.6411
Pd 5.92269 22.3367 36.2753
Pd 11.1603 23.2883 39.1678
Pd 10.1353 23.1183 41.7099
Co 6.70216 22.5034 38.7104
Co 8.45215 25.1198 42.0349
Pd 8.25673 26.0374 10.6215
Pd 10.69 26.6246 14.3728
Pd 6.34888 25.1281 12.2969
Pd 7.8426 21.444 15.5529
Co 10.7199 32.1939 11.5927
Pd 6.82757 27.7876 11.9714
Pd 10.3103 26.4963 16.9812
Pd 9.81256 25.1431 19.2813
Co 7.04797 28.0258 16.3217
Pd 3.81884 22.5295 22.844
Pd 8.2607 29.7191 20.9695
Pd 11.0433 23.03 18.2978
Co 8.77632 27.6109 19.7171
Pd 2.18848 28.2871 25.5848
Pd 8.86361 24.3683 22.613
Pd 12.4788 21.4743 21.6598
Co 12.4563 26.7346 23.3474
Pd 9.54973 20.5739 25.0354
Pd 9.08341 28.6773 26.2246
Pd 11.6278 21.7584 26.0521
Co 10.3469 25.7194 24.0875
Pd 4.99598 24.5049 29.7148
Pd 7.48732 28.3526 31.5673
Pd 7.89475 24.0636 34.1224
Co 7.00979 26.2707 29.7139
Pd 6.90902 26.6417 33.6711
Pd 6.42472 32.7623 36.6472
Pd 7.58576 28.9174 34.8531
Co 8.57944 26.119 35.5175
Pd 7.4954 30.314 37.0835
Pd 7.89143 26.707 40.1155
Pd 8.40883 23.9941 39.7212
Co 5.35975 28.6101 33.2828
Pd 6.48735 25.0463 38.3332
Pd 10.6935 25.2776 43.1816
Co 10.2926 27.7888 39.3584
Pd 10.7269 32.4882 14.0953
Pd 5.80474 25.5077 16.3474
Pd 5.58785 31.7476 17.8874
Pd 6.88758 29.4418 18.6703
Co 11.1047 34.2229 16.0316
Pd 6.90593 32.0275 20.1166
Pd 6.05402 28.191 23.0063
Pd 8.8127 31.3973 18.4502
Co 7.41301 33.5688 18.2452
Pd 11.6167 28.5553 21.6036
Pd 6.55062 33.5898 24.1931
Pd 8.29214 29.5153 23.642
Co 7.72296 31.7376 22.4915
Pd 8.82178 27.2859 22.2093
Pd 6.16726 33.5266 29.0556
Pd 10.0096 30.6329 27.5695
Co 10.2842 30.6954 24.8219
Pd 7.04394 30.2596 27.5108
Pd 8.38014 32.619 27.876
Pd 8.51778 28.5708 29.0337
Co 10.1137 34.9264 29.9844
Pd 7.33791 30.8232 30.0913
Pd 7.91829 32.9808 32.5996
Pd 7.8708 31.7154 34.8241
Co 8.71268 32.9775 30.2616
Pd 8.24134 31.6241 39.2877
Pd 9.63176 27.4791 42.0959
Co 8.94583 32.4786 36.9883
Pd 6.66526 33.197 15.8182
Pd 8.52454 37.8367 18.9226
Pd 8.57242 35.3224 19.6813
Pd 9.3307 32.9213 20.7688
Co 10.9199 38.892 18.3484
Pd 12.0985 36.4068 22.6354
Pd 10.0958 37.7379 23.8847
Pd 9.56308 35.5275 22.2119
Co 12.7813 38.4462 20.0487
Pd 9.32186 33.2039 23.6232
Pd 8.93742 36.7639 26.0233
Pd 8.47022 34.248 25.8599
Co 10.6331 35.2607 24.6319
Pd 4.62194 35.1414 30.6945
Pd 7.76569 36.7804 33.3632
Pd 9.46714 35.0725 32.4272
Co 8.81757 36.9664 30.7802
Pd 4.04252 30.8352 33.1274
Pd 7.73756 34.4361 34.9247
Co 4.74692 30.7615 26.1573
Pd 9.50921 40.0876 20.1531
Pd 7.72124 38.7237 24.522
Pd 10.6043 37.2541 20.3494
Pd 11.2108 39.1593 21.9754
Co 17.5469 46.1469 17.5932
Pd 6.99607 38.1686 27.0433
Pd 8.13287 39.0442 32.1428
Pd 10.0073 39.2293 26.192
Co 10.7316 41.7617 21.8797
Pd 9.89765 36.2331 34.7641
Pd 10.4351 38.9259 35.0482
Co 8.47698 39.9285 28.0275
Pd 11.5488 44.6458 26.1068
Pd 5.82026 34.9435 33.0365
Pd 8.34999 41.1816 25.5808
Co 12.7896 42.5011 26.8759
Co 23.8756 5.37152 31.5356
Pd 13.5621 10.5477 24.3235
Pd 18.7658 6.17658 24.6537
Co 14.8031 7.10921 16.6431
Pd 14.2917 6.3307 23.6104
Pd 13.4277 8.03368 21.5682
Pd 13.4091 10.9788 26.9304
Co 11.8733 9.19736 26.07
Co 12.5573 8.24707 23.8908
Pd 9.91538 10.9879 21.461
Pd 9.60871 11.0469 18.6983
Co 10.119 14.2307 24.5481
Pd 13.0205 8.84444 17.1756
Pd 12.859 14.1855 21.2505
Pd 11.5004 12.6438 22.9225
Co 16.0579 10.695 19.5162
Pd 13.6726 9.97409 19.5746
Pd 11.7125 12.3529 25.5271
Pd 11.6748 9.71141 28.568
Co 9.20876 11.913 24.5996
Pd 15.693 11.6869 28.0436
Pd 14.806 13.5186 29.5334
Pd 13.1408 11.0018 32.12
Co 10.1636 10.8022 26.7626
Co 14.0783 15.4775 31.0373
Pd 10.0121 14.5933 15.8995
Pd 11.396 17.7085 16.1502
Co 11.2102 14.2527 13.6311
Pd 8.24728 13.2284 17.4199
Pd 7.72589 19.0676 22.6021
Pd 13.4749 16.7438 21.5021
Co 9.30484 15.3641 18.3671
Pd 11.3201 15.9635 19.9439
Pd 12.8311 14.6075 24.5701
Pd 16.6276 13.9006 23.5964
Co 15.404 14.6893 21.2772
Pd 15.5738 15.073 25.8587
Pd 7.95162 15.7117 30.6348
Pd 12.2849 14.9843 29.1078
Co 9.61255 14.7911 28.5993
Pd 11.4615 12.5189 28.3433
Pd 10.2641 13.6562 30.6691
Pd 13.6961 14.6813 33.938
Co 11.9638 15.3135 32.0445
Pd 10.9824 11.0802 30.7329
Pd 12.0922 12.8898 36.2002
Pd 11.3109 10.9606 34.4243
Co 11.2897 15.0682 34.5769
Co 12.4058 14.5359 38.8009
Pd 11.8897 16.3622 12.202
Pd 8.24374 12.8198 20.0265
Co 15.9276 17.6077 11.0255
Pd 10.6772 18.8074 12.6332
Pd 9.29648 19.1378 14.9395
Pd 12.8857 15.7399 14.7705
Co 10.154 22.1676 15.8181
Pd 12.6218 18.2765 19.2277
Pd 10.5451 20.2796 19.8391
Pd 14.2105 17.2378 17.4026
Co 14.7906 19.484 18.5821
Pd 11.1007 15.7334 22.6362
Pd 13.7067 20.075 26.0592
Pd 11.4713 18.8408 26.1422
Co 12.0292 20.1022 23.9281
Pd 9.52516 18.8292 29.3672
Pd 12.2368 19.8585 28.5823
Pd 10.4027 16.4542 30.4779
Co 17.1358 17.0779 26.9841
Pd 11.2829 18.759 31.4865
Pd 12.2191 20.9591 32.7402
Pd 13.3697 17.5083 32.4108
Co 14.8995 21.2185 32.6622
Pd 13.2497 17.1787 34.9041
Pd 10.7567 17.1916 35.8617
Pd 12.4102 18.9325 36.9147
Co 11.4609 18.9688 34.1013
Pd 12.9105 15.3335 36.5677
Pd 10.9862 16.8423 38.4265
Pd 13.5779 17.0894 38.4359
Co 8.89252 15.6193 35.0034
Co 11.3652 21.0849 40.8107
Pd 15.8873 22.9776 5.76278
Pd 16.1446 16.3828 8.87644
Co 12.9851 26.8636 10.2868
Pd 10.301 20.8376 10.7922
Pd 12.562 21.9148 16.4429
Pd 12.9678 18.31 14.0173
Co 10.152 24.5667 9.87497
Pd 12.4058 20.7165 12.3058
Pd 11.6934 24.4506 16.0521
Pd 12.8165 21.0406 18.9574
Co 14.8921 21.4928 17.2508
Pd 9.86214 20.4689 22.3326
Pd 12.5475 23.902 20.4371
Pd 11.8595 18.7655 21.7482
Co 13.6644 23.4699 18.208
Pd 15.1101 21.9472 19.7774
Pd 13.4834 22.1628 24.2448
Pd 15.0789 17.6686 25.3699
Co 12.4581 24.3747 22.9826
Pd 10.6181 21.0031 30.4663
Pd 11.2177 23.3824 29.7865
Pd 13.0319 22.9316 27.906
Co 10.3443 23.5893 27.4049
Pd 13.5018 22.0804 30.5246
Pd 8.53822 25.7721 31.763
Pd 12.1515 23.4914 32.4131
Co 13.5056 24.5156 30.0779
Pd 10.3253 22.4655 34.2746
Pd 9.11795 25.8622 37.9545
Pd 12.1317 21.1602 35.5308
Co 12.6333 24.8591 34.6661
Pd 9.85583 19.9279 35.7974
Pd 11.7115 25.6958 38.1455
Pd 10.2081 19.5254 38.3965
Co 10.2306 21.9795 37.2114
Pd 10.3628 25.5169 40.4264
Pd 13.8331 23.1976 45.3198
Pd 12.4633 22.3043 43.0125
Co 15.9819 23.6812 40.477
Co 15.7992 21.2604 41.5964
Pd 12.0686 25.4215 8.26687
Pd 15.5484 30.7777 12.3593
Pd 10.4135 27.1808 9.62219
Pd 16.0157 27.9293 12.6414
Co 12.1839 28.7879 8.96807
Pd 13.4647 23.1433 7.3455
Pd 7.85804 30.1354 11.9483
Pd 15.0896 26.1238 14.633
Co 9.32321 28.0196 11.9231
Pd 8.68097 28.4753 14.3523
Pd 10.029 30.4206 15.5834
Pd 12.9055 27.0142 15.8813
Co 10.1237 30.2672 12.9226
Pd 10.9051 25.8368 21.492
Pd 11.2419 27.5939 19.153
Pd 13.2572 26.5871 20.4213
Co 13.7061 28.016 18.2676
Pd 10.8591 22.5591 23.4784
Pd 10.5813 28.2798 24.0286
Pd 12.0364 24.3723 25.6192
Co 14.0356 27.0005 25.1442
Pd 9.52303 25.9124 26.539
Pd 10.8074 27.8036 28.2036
Pd 11.9892 25.5243 28.2557
Co 11.7854 26.8466 25.8942
Pd 9.44093 25.5939 29.2353
Pd 10.123 28.0483 31.0288
Pd 11.2457 25.5806 31.1021
Co 12.5021 27.5745 30.2483
Pd 10.3062 25.1277 33.6116
Pd 9.46704 27.726 33.6066
Pd 10.5151 24.2984 36.1867
Co 11.8677 27.2099 32.8568
Pd 11.2004 26.7737 35.5708
Pd 10.2881 30.4136 38.2635
Pd 9.4804 28.3012 36.7803
Co 11.5868 29.0155 34.3675
Pd 12.5573 24.3158 41.2957
Pd 11.4618 29.5587 42.4426
Pd 12.1527 26.9781 41.5631
Co 11.982 29.3707 39.9913
Pd 13.5729 19.8772 42.109
Pd 27.3489 26.9833 47.2541
Co 14.6462 28.4429 45.8057
Pd 8.13622 31.7239 13.9734
Pd 6.31054 29.5525 14.1362
Pd 11.1858 34.9718 13.3238
Pd 11.8567 29.211 17.0655
Co 12.6354 31.1551 15.1989
Pd 7.42441 30.6164 16.2732
Pd 9.13412 32.7505 16.3039
Pd 11.5658 31.847 17.4398
Co 10.1061 33.764 18.3801
Pd 9.17895 28.7781 17.4558
Pd 10.517 29.9918 19.6318
Pd 12.8558 31.0283 22.0465
Co 13.0393 29.9325 19.5734
Pd 10.2903 30.9219 22.311
Pd 11.7329 33.5763 22.7837
Pd 13.2234 29.0944 23.8217
Co 13.682 33.6959 20.9401
Pd 11.922 29.3043 26.2033
Pd 11.0344 32.7949 28.837
Pd 12.221 29.8944 28.9427
Co 12.6227 31.5818 27.1077
Pd 10.0066 30.6748 30.2607
Pd 10.8408 32.8442 31.6986
Pd 12.1131 29.7481 31.7603
Co 12.941 31.8812 30.2917
Pd 9.48042 30.3852 32.861
Pd 10.097 33.3178 34.4673
Pd 11.8631 31.4748 33.7327
Co 13.3374 33.2318 32.4437
Pd 9.98091 30.5757 35.5607
Pd 10.3891 33.2507 39.0032
Pd 12.5853 31.6731 38.6847
Co 11.3851 32.7079 36.6833
Pd 9.40866 29.7586 40.8458
Pd 12.1257 32.0958 43.0866
Co 11.0355 31.6251 40.7872
Pd 11.8984 38.658 15.9751
Pd 12.8225 35.9288 15.5338
Pd 8.44115 35.3192 16.8365
Pd 14.9957 35.941 17.0935
Co 15.6183 40.237 17.7718
Pd 10.6113 36.2783 17.862
Pd 11.3111 34.806 20.4354
Pd 14.1357 32.1981 18.8919
Co 12.8859 37.233 17.8878
Pd 11.7411 32.2639 20.0334
Pd 12.8527 34.401 25.5839
Pd 12.65 31.5777 24.6263
Co 14.4407 35.5618 22.4806
Pd 10.6735 32.8451 26.0196
Pd 10.716 35.0677 27.4397
Pd 13.6418 33.6033 28.108
Co 12.9346 36.0395 28.1103
Pd 12.6638 34.5974 30.3115
Pd 13.2339 37.5936 32.2895
Pd 14.6492 35.442 31.8504
Co 13.8994 37.2537 29.8942
Pd 11.9755 35.2876 32.9064
Pd 8.73218 42.3441 28.0731
Pd 12.0809 34.7927 35.572
Co 12.2904 37.1911 34.6371
Pd 9.73871 34.8222 36.9482
Pd 12.8006 33.646 40.4174
Co 12.0372 35.1545 38.3191
Pd 11.0266 43.1208 19.5376
Pd 14.7189 40.2532 20.3015
Pd 8.54193 38.1019 21.793
Pd 15.1943 37.9775 18.9299
Co 9.50674 42.7729 23.8171
Pd 12.0902 43.0821 23.9833
Pd 8.74253 40.4817 22.831
Pd 14.2395 38.1721 22.0757
Co 10.7642 44.1241 21.9472
Pd 10.962 40.6407 24.1864
Pd 9.68351 37.5639 28.3698
Pd 12.1507 38.8254 28.5675
Co 12.4281 40.1116 26.2805
Pd 11.4304 37.0019 30.3524
Pd 10.5055 37.7989 32.6527
Pd 14.6003 39.9538 32.37
Co 12.2931 39.6598 31.0928
Pd 7.29495 34.9816 30.9069
Pd 11.1712 37.1345 36.9603
Co 12.5431 39.5426 33.7523
Pd 12.0675 40.7892 19.9981
Pd 12.6159 45.5702 21.1297
Pd 12.7061 45.7773 23.7847
Pd 14.5201 44.0437 23.2553
Co 15.4525 42.181 21.736
Pd 14.264 44.265 25.8623
Pd 8.95204 43.9398 26.027
Pd 12.8621 41.5157 29.3037
Co 14.588 43.2597 28.3435
Pd 10.3957 40.4504 32.7676
Pd 16.9325 41.2637 31.9405
Co 10.6046 42.1467 26.1013
Pd 11.0138 43.4601 28.4355
Pd 12.9827 45.1738 28.2584
Pd 15.1354 45.0689 30.0593
Co 13.2175 46.6111 26.0901
Pd 16.8334 6.66308 22.8232
Pd 22.1957 6.47171 16.1392
Co 15.7531 8.30512 20.5434
Pd 17.5867 9.70395 21.6295
Pd 16.225 7.16765 27.7936
Pd 22.8424 8.20705 24.7713
Co 16.2221 6.63905 18.5759
Co 26.0226 4.32349 32.0637
Pd 14.5638 14.6354 16.5548
Pd 19.0668 6.66338 18.1091
Co 18.2572 9.36514 14.7348
Pd 15.1379 5.95607 20.9744
Pd 14.9664 10.4193 21.8535
Pd 19.2306 7.94212 12.8665
Co 17.6447 8.70595 19.0783
Pd 19.2296 7.73309 22.3294
Pd 14.1011 8.00934 25.9551
Pd 18.452 12.035 28.409
Co 11.9741 11.0598 17.7494
Pd 15.3577 8.39598 32.6426
Pd 13.9767 10.7937 36.3778
Pd 14.4419 9.09037 28.3885
Co 13.4051 11.2958 29.4969
Co 18.2118 6.9642 34.6587
Pd 12.603 12.1854 13.2492
Pd 12.6661 10.5851 15.3106
Co 18.6343 12.8092 17.6159
Pd 12.316 13.2586 15.8246
Pd 13.267 13.1893 18.3683
Pd 17.1959 10.6603 17.0628
Co 19.2338 11.6756 13.2806
Pd 13.7594 7.24885 19.091
Pd 17.1336 12.665 26.0706
Pd 16.627 11.1726 23.832
Co 15.4585 8.90461 18.0468
Pd 14.2753 12.8116 22.9324
Pd 13.6493 13.7279 27.1753
Pd 16.012 9.81997 26.0885
Co 14.3715 12.3691 20.3934
Pd 15.4338 10.4469 30.6579
Pd 14.8709 13.1358 32.1411
Pd 15.5836 10.8703 33.3232
Co 14.7884 12.5229 25.3379
Pd 17.7396 9.29623 33.7857
Pd 13.4112 9.41832 34.1454
Pd 18.7822 13.4674 38.7015
Co 13.6454 12.1234 34.2954
Co 16.5273 12.7882 37.8548
Pd 15.2707 12.5513 12.3565
Pd 17.1438 9.71886 12.4718
Co 14.4051 16.5272 12.7452
Pd 16.7874 13.3218 16.0768
Pd 9.55994 17.6365 21.1945
Pd 17.8952 14.254 9.45209
Co 15.3012 14.62 14.044
Pd 10.1877 11.805 16.0942
Pd 15.396 16.9727 15.183
Pd 14.1099 15.4273 19.2385
Co 20.4815 17.4112 18.3174
Pd 16.103 13.1755 18.6585
Pd 13.1159 16.4673 26.6873
Pd 18.232 15.3901 25.0728
Co 14.7916 15.6873 23.4625
Pd 10.7646 16.9928 27.8681
Pd 15.61 17.6798 30.5069
Pd 15.0194 15.9099 28.524
Co 19.3237 15.6796 27.8867
Pd 16.5404 15.0981 30.9807
Pd 18.0781 16.9453 32.6097
Pd 15.6195 16.2995 33.1953
Co 17.572 16.6389 29.3472
Pd 14.7893 13.3359 36.1326
Pd 15.5354 15.9001 35.8396
Pd 16.436 13.7986 34.14
Co 18.7814 14.3084 29.8456
Pd 14.0952 12.455 38.5577
Pd 14.9914 14.897 38.2714
Pd 17.4734 11.5047 40.0017
Co 17.402 15.2023 37.3886
Co 14.4355 18.075 40.6391
Pd 14.9272 20.9094 7.5762
Pd 16.9324 11.4442 14.3263
Co 20.1222 21.3365 6.47196
Pd 12.0126 15.5594 17.437
Pd 12.6933 20.286 9.56606
Pd 13.2982 18.4203 11.3367
Co 13.6747 22.8592 12.1845
Pd 14.5902 12.3677 14.942
Pd 16.9047 19.8009 19.8378
Pd 13.3223 19.464 16.4748
Co 16.6814 21.0109 13.1789
Pd 16.5104 15.8218 17.9285
Pd 14.3786 19.6626 21.1781
Pd 15.5997 17.4217 20.1181
Co 16.7283 18.3832 17.72
Pd 12.8945 17.6462 23.9788
Pd 16.3635 19.8864 26.2903
Pd 17.492 17.998 24.5439
Co 15.3886 17.9378 22.7648
Pd 12.8603 17.4392 29.6499
Pd 14.7065 20.8813 28.4798
Pd 14.6632 18.3759 27.9344
Co 17.0507 19.0125 28.6149
Pd 13.8117 19.5901 30.8853
Pd 16.5211 20.4266 34.9689
Pd 16.0255 18.9279 32.7462
Co 17.3441 21.5225 32.6121
Pd 13.9662 19.6185 34.3205
Pd 14.6036 21.1942 36.5174
Pd 17.158 17.8703 35.1483
Co 18.8873 19.8933 36.0542
Pd 15.009 18.4779 36.5254
Pd 12.4685 21.1477 38.3574
Pd 16.2363 17.2815 38.6163
Co 14.5031 19.6479 38.8283
Pd 12.2132 18.8752 39.9037
Pd 14.3512 17.1811 42.9557
Pd 14.0317 15.5235 40.6666
Co 16.4901 19.2905 40.3651
Co 16.0837 19.0206 42.7934
Pd 27.4163 20.5755 3.16085
Pd 18.5325 22.8769 9.07336
Co 25.2551 20.978 4.83757
Pd 17.6348 21.2537 7.01292
Pd 13.3785 27.2948 12.9019
Pd 16.0851 23.2011 8.31764
Co 12.6306 24.5107 10.61
Pd 11.5476 22.6532 9.16445
Pd 10.8776 25.9004 11.8995
Pd 11.0759 23.1029 11.8493
Co 18.9344 23.9301 11.5489
Pd 14.1942 21.1272 14.2898
Pd 14.2719 23.7674 15.7366
Pd 16.5251 22.0697 15.4785
Co 18.0297 22.9586 13.4989
Pd 15.1755 24.714 20.016
Pd 14.5938 23.1431 22.1165
Pd 16.5855 21.2959 21.9402
Co 17.652 25.5502 19.7458
Pd 15.15 20.1584 23.8396
Pd 14.4556 24.5177 24.7299
Pd 16.4509 22.8379 24.1091
Co 16.818 24.4002 22.0646
Pd 15.2137 22.399 26.3917
Pd 15.6106 23.4909 28.994
Pd 17.2882 21.5502 28.2803
Co 16.6363 24.4993 26.3497
Pd 16.2529 20.6685 30.5528
Pd 13.7769 25.5606 32.3917
Pd 15.4522 23.5258 31.9296
Co 16.7578 25.1338 30.5259
Pd 13.9229 22.7573 34.3434
Pd 13.9843 25.7883 36.8285
Pd 16.5064 22.9759 34.5489
Co 15.2159 25.1165 34.5263
Pd 12.8954 23.3395 36.8214
Pd 13.8864 24.2177 39.0616
Pd 15.5451 21.9868 38.7177
Co 15.6576 23.802 36.8416
Pd 13.6672 22.0103 40.5576
Pd 14.91 25.7575 45.5165
Pd 17.5905 21.1641 44.455
Co 17.6345 23.8424 38.6077
Pd 14.9184 21.1161 44.0185
Pd 13.1945 25.2332 43.6685
Pd 15.7633 21.4804 46.5038
Co 16.8479 27.5899 45.0255
Co 18.2187 20.2399 46.8142
Pd 18.3027 27.662 5.1507
Pd 9.92833 29.9958 10.2618
Pd 15.6229 27.309 10.0234
Co 19.3203 25.1627 5.05925
Pd 14.0294 27.4169 7.84536
Pd 11.762 28.9404 14.2892
Pd 14.809 25.3476 11.7151
Co 17.008 29.8821 5.78863
Pd 16.3598 22.9527 11.1661
Pd 17.3791 24.6216 15.3997
Pd 12.7838 24.8666 13.5778
Co 16.4063 29.7139 10.0741
Pd 14.6824 25.8159 17.4407
Pd 15.7581 28.2071 16.629
Pd 16.2359 23.7407 17.7263
Co 17.3294 27.1538 14.9269
Pd 15.7911 27.2527 19.5126
Pd 14.4467 28.7062 21.4776
Pd 18.8862 27.8799 20.8025
Co 17.2219 26.1495 17.3739
Pd 14.6244 25.9252 22.479
Pd 16.1738 27.3793 26.2649
Pd 16.6078 25.8474 24.1912
Co 16.8105 26.898 21.8014
Pd 14.4013 25.2722 27.2963
Pd 13.654 27.8062 27.7617
Pd 18.2687 24.1609 28.2651
Co 16.6716 26.1262 28.3402
Pd 14.7517 26.5882 29.9296
Pd 14.2315 28.1497 32.3321
Pd 16.3131 26.4658 32.5936
Co 16.8874 27.7715 30.3576
Pd 13.6746 27.2264 34.72
Pd 14.8293 28.3329 36.9191
Pd 16.6323 26.3056 36.2831
Co 16.1293 28.1344 34.5697
Pd 13.6156 27.0544 39.3315
Pd 12.1451 28.2898 37.5486
Pd 15.991 25.7506 38.7725
Co 17.2164 27.9359 38.1087
Pd 14.0033 28.6901 41.5643
Pd 12.1144 27.6263 44.1321
Pd 14.8394 25.9008 41.4628
Co 15.9093 27.926 40.0757
Pd 15.6495 24.1506 47.3722
Pd 14.8651 23.4626 42.7408
Pd 16.7928 29.6153 46.7538
Co 14.5828 27.3865 43.6514
Pd 23.606 25.7395 49.2165
Co 23.0484 15.0586 47.1077
Pd 21.1625 35.317 8.86785
Pd 13.0653 33.2852 11.2037
Pd 14.3961 30.0121 8.35948
Pd 14.3898 29.2276 14.4904
Co 16.4689 28.6243 7.85253
Pd 12.8325 30.9383 12.6544
Pd 16.1046 36.0606 12.4379
Pd 15.3532 31.9088 14.7647
Co 15.52 33.3609 12.4601
Pd 13.6381 33.243 16.3671
Pd 14.2996 30.4422 16.9588
Pd 17.1237 30.563 17.1867
Co 15.9889 32.8014 17.1893
Pd 15.6518 29.834 19.21
Pd 15.1941 31.4647 21.2778
Pd 17.0207 29.4969 21.5815
Co 16.7867 32.2237 19.5833
Pd 15.8759 28.3946 23.8165
Pd 15.5326 30.9991 23.8023
Pd 18.0972 30.1565 23.9795
Co 17.7594 31.8757 22.0904
Pd 14.5183 29.7026 26.0672
Pd 14.858 31.2154 28.2966
Pd 16.3487 28.9912 28.2206
Co 16.7353 30.7977 26.107
Pd 14.4929 29.296 30.0704
Pd 14.5154 31.0341 32.1896
Pd 16.2068 31.17 34.3918
Co 16.5193 30.8064 30.2735
Pd 14.0743 29.7791 34.4765
Pd 13.7863 32.6278 34.9314
Pd 14.8668 31.2174 36.9223
Co 16.063 33.341 35.8524
Pd 12.4634 30.4806 36.3322
Pd 15.0461 32.2562 39.421
Pd 14.3507 29.6951 39.0888
Co 17.1118 32.1287 37.6786
Pd 13.6515 29.882 43.8342
Pd 14.5933 31.0273 45.9483
Pd 14.7634 32.2703 43.3581
Co 13.4111 31.1884 41.1951
Pd 16.0671 27.0229 47.5215
Pd 16.3232 30.08 44.2281
Co 16.1949 32.8228 45.4248
Pd 20.1272 35.5744 11.3878
Pd 13.5873 35.5406 12.3535
Pd 12.0231 37.5101 13.4433
Pd 17.8562 37.2251 10.8556
Co 15.3266 34.6066 10.4039
Pd 13.1847 33.3374 13.813
Pd 13.5857 39.5722 14
Pd 15.4925 34.4753 19.1355
Co 14.4312 37.186 14.0735
Pd 12.6914 34.5748 18.2554
Pd 13.6233 36.1514 20.1729
Pd 16.2367 33.8611 21.7679
Co 13.2787 39.6845 18.0304
Pd 14.228 33.2329 23.3926
Pd 14.1074 36.6092 24.7697
Pd 16.1549 34.819 24.276
Co 16.1543 36.2957 20.8645
Pd 14.9362 32.6559 25.8772
Pd 15.2367 35.4531 26.8402
Pd 16.5156 33.2824 27.8864
Co 17.7103 35.1548 26.1217
Pd 15.2391 33.0032 30.4338
Pd 16.9003 36.6443 33.6219
Pd 15.913 33.3204 32.9935
Co 15.2434 35.2232 29.3799
Pd 14.4681 35.1574 34.4134
Pd 14.7188 37.8883 34.4797
Pd 16.4165 35.8221 36.1446
Co 16.8418 39.129 33.3816
Pd 13.9259 33.7926 37.4055
Pd 14.6885 36.5093 41.9803
Pd 16.2803 34.4497 38.5257
Co 14.2002 35.6255 39.5548
Pd 13.3333 34.4227 42.8558
Pd 18.1526 34.5511 45.027
Co 17.3635 38.748 38.5769
Pd 14.2631 38.1267 11.7967
Pd 16.6038 38.6286 12.9002
Pd 11.4548 41.35 17.5027
Pd 14.5745 38.4265 16.2289
Co 17.1568 38.631 16.8236
Pd 13.8958 42.2382 18.6165
Pd 13.6619 41.2005 16.0171
Pd 16.346 37.2633 23.2986
Co 13.0378 44.5458 18.8489
Pd 12.6314 38.6499 24.182
Pd 13.309 40.7412 22.5961
Pd 16.8866 37.5244 25.9377
Co 15.9189 40.1237 22.9494
Pd 11.7344 37.1787 26.1711
Pd 14.8086 42.3637 30.9096
Pd 14.2005 38.0726 27.1868
Co 14.4237 40.7936 27.3776
Pd 14.7078 39.6644 29.6845
Pd 17.3635 39.4637 29.991
Pd 18.5772 37.2276 30.7821
Co 16.4414 39.5792 27.4551
Pd 15.9178 37.7377 31.4299
Pd 13.8109 36.473 36.671
Pd 16.9057 38.3743 36.0152
Co 18.9211 39.6847 32.0546
Pd 13.1047 37.8103 38.7404
Pd 12.9304 39.1414 36.2798
Co 15.0195 39.3512 37.6801
Pd 15.6276 44.6237 18.1714
Pd 16.1081 40.3093 15.0492
Pd 13.7456 43.8669 16.4116
Pd 14.8159 46.6428 22.0509
Co 25.2889 45.7066 19.3183
Pd 13.002 42.9691 21.2459
Pd 17.8528 43.9066 20.4685
Pd 16.7695 42.5022 23.8491
Co 19.1757 42.0024 19.3134
Pd 14.2684 41.7184 24.8291
Pd 16.2971 42.2933 26.5126
Pd 16.5122 41.7466 29.0253
Co 21.2109 42.7045 24.4696
Pd 10.6055 41.9216 30.5546
Pd 17.0139 46.9187 29.3469
Pd 18.9019 41.7023 30.1882
Co 17.1546 43.5908 30.821
Pd 9.8977 39.4118 30.2275
Pd 12.9872 41.6375 35.0711
Co 14.9673 44.3501 32.547
Pd 21.3123 47.4338 19.8223
Pd 20.5336 44.0743 20.7104
Pd 15.3782 46.5604 24.6161
Pd 16.9014 46.3396 20.0985
Co 19.4837 47.5663 17.672
Pd 15.1085 44.3656 20.6276
Pd 17.0278 44.3412 28.1938
Pd 20.6224 45.1438 24.3021
Co 21.711 46.1272 26.4621
Pd 12.7212 43.8726 30.565
Pd 12.6812 41.9114 32.4319
Co 17.1978 43.5153 33.2529
Pd 19.9469 47.925 25.7624
Pd 20.0542 48.1363 22.7942
Pd 16.8524 45.0071 22.6956
Pd 21.6827 6.8931 13.5424
Pd 23.6383 7.00239 22.5683
Co 20.4145 6.59782 20.3186
Pd 23.411 4.98146 26.4033
Pd 23.4618 3.00649 28.0693
Pd 26.9358 4.86193 20.5358
Co 21.9193 5.53853 18.618
Pd 26.6126 4.19742 23.3892
Pd 15.2794 8.65747 23.61
Pd 18.2762 7.27229 29.6165
Co 20.274 8.31325 24.6683
Pd 19.7528 5.04536 30.1948
Pd 23.8438 3.03576 32.4095
Pd 21.6677 4.49161 32.6008
Co 22.2656 3.79882 30.2848
Co 17.6677 7.41067 32.1006
Pd 20.8819 9.66417 13.7983
Pd 17.6285 12.1121 11.2389
Co 19.3162 9.22068 17.4475
Pd 19.5686 11.1813 15.8319
Pd 15.3689 9.4038 15.4899
Pd 17.3015 7.8492 16.5248
Co 21.2262 6.42472 23.3717
Pd 17.8283 6.54562 20.4521
Pd 19.4141 5.13955 22.1839
Pd 24.2196 9.42179 21.0347
Co 22.691 7.34396 20.214
Pd 18.4358 11.1883 19.5201
Pd 17.7908 8.7802 24.2991
Pd 19.714 9.60065 29.041
Co 20.9354 8.8567 26.9106
Pd 13.3111 8.84671 30.7369
Pd 20.2361 8.37147 34.2113
Pd 22.3787 8.65278 29.5774
Co 21.7938 6.31761 30.7518
Pd 15.6556 8.88462 35.3866
Pd 18.0265 8.85556 36.4875
Pd 20.624 8.37634 40.2303
Co 15.9144 7.96289 30.2506
Co 24.5092 8.95757 39.303
Pd 15.9638 14.8231 11.1963
Pd 19.5143 12.2162 9.3622
Co 21.1286 12.1015 7.26097
Pd 14.548 10.2594 13.2496
Pd 21.794 12.0128 14.5902
Pd 19.4451 10.1165 11.2864
Co 21.5214 14.346 13.5502
Pd 20.0103 9.09474 20.051
Pd 19.7632 10.2658 23.1634
Pd 21.521 11.2571 20.9369
Co 22.6684 13.009 19.2362
Pd 20.0378 13.4103 19.7059
Pd 18.921 12.5776 24.2164
Pd 23.1495 10.0273 27.4007
Co 19.2141 12.1682 21.7115
Pd 21.5882 10.5725 25.1554
Pd 18.8389 10.5212 26.0296
Pd 20.8568 11.4691 27.4663
Co 21.8501 12.15 32.1664
Pd 20.2643 8.28903 31.3301
Pd 17.0224 12.4863 30.6315
Pd 25.8129 9.75024 31.7717
Co 20.1227 10.4173 32.6701
Pd 17.997 11.8509 33.1558
Pd 16.669 11.3552 35.6305
Pd 19.4662 10.761 35.2357
Co 22.7137 12.943 35.2246
Pd 16.0637 10.2477 37.9656
Pd 16.7538 16.69 43.9826
Pd 18.4346 9.23473 39.164
Co 18.439 11.1973 37.5646
Co 17.9878 15.0405 42.1291
Pd 16.6794 18.6968 7.22374
Pd 19.7802 14.3437 6.94554
Co 21.7364 13.2252 5.23966
Pd 19.4992 15.8492 13.51
Pd 17.5795 13.8261 13.2138
Pd 20.4696 15.1246 9.38735
Co 17.7888 18.458 9.40926
Pd 19.4413 13.6366 15.052
Pd 17.6791 15.6419 15.4659
Pd 20.7747 15.8589 15.9487
Co 18.6698 17.4877 16.7912
Pd 19.0917 15.2395 17.9255
Pd 17.7148 14.6513 20.1769
Pd 21.6805 15.3516 18.8494
Co 21.469 19.5108 17.7372
Pd 16.753 12.4337 21.3679
Pd 17.219 16.2647 22.3105
Pd 19.1962 14.5655 22.5118
Co 19.9971 15.9742 20.6091
Pd 19.6397 13.6492 26.4649
Pd 19.4534 18.0929 28.4971
Pd 21.0557 13.8141 28.7313
Co 21.4624 15.6748 26.6418
Pd 17.0668 14.3835 28.0169
Pd 19.7973 16.492 30.6461
Pd 19.5843 12.1068 30.8818
Co 20.9532 14.303 31.2526
Pd 18.5526 14.2993 32.4201
Pd 18.3339 15.5427 34.9142
Pd 18.5094 13.2506 35.9771
Co 20.5049 15.7958 33.08
Pd 18.4392 16.0301 39.6592
Pd 18.9249 18.9381 39.7561
Pd 16.8632 12.6394 42.3244
Co 19.9167 15.3386 37.4516
Pd 16.3841 16.7384 41.2129
Pd 16.5182 14.1218 40.189
Pd 17.531 14.1521 44.4357
Co 20.1978 11.3271 39.3338
Co 15.5582 14.8007 42.6641
Pd 19.2915 18.9554 7.07661
Pd 21.2118 18.5392 5.14941
Co 17.9287 24.1208 6.93263
Pd 14.8784 18.7808 9.14582
Pd 14.9393 20.5288 11.3546
Pd 19.6517 20.5219 9.07429
Co 21.6956 21.9887 8.15089
Pd 16.9306 16.4184 12.9933
Pd 15.5507 23.5689 13.5667
Pd 17.8326 19.1321 11.7919
Co 18.4695 21.5663 11.4224
Pd 15.4557 18.8129 13.2362
Pd 18.5236 20.0621 16.129
Pd 17.9373 18.2547 14.4259
Co 19.1024 20.5137 13.72
Pd 18.1442 17.3026 19.6214
Pd 19.2981 20.9827 20.3512
Pd 20.2838 18.5344 20.709
Co 19.1092 19.3949 18.4304
Pd 17.7604 18.832 22.0222
Pd 17.9668 20.5844 24.2361
Pd 19.7251 17.3053 23.2043
Co 19.8522 20.062 22.7085
Pd 19.6674 17.3955 25.973
Pd 19.5792 20.6538 29.1925
Pd 21.3363 18.8629 30.2087
Co 18.8393 19.84 26.7283
Pd 18.2999 18.9317 30.8713
Pd 18.5261 19.4588 33.5185
Pd 20.6048 18.2365 32.5199
Co 22.3323 20.1239 32.3042
Pd 19.9586 17.5616 35.0671
Pd 21.1009 19.2137 36.9789
Pd 18.667 17.6018 37.3883
Co 20.8519 19.9091 34.4282
Pd 17.0042 19.7375 37.8363
Pd 17.7978 21.5581 39.9028
Pd 20.828 17.1685 39.0486
Co 19.7229 21.0226 38.3346
Pd 19.5062 23.508 40.3871
Pd 22.0389 21.3826 44.1591
Pd 20.2417 20.9686 41.1096
Co 19.7568 22.2484 43.1382
Pd 18.4894 17.7958 42.2428
Pd 18.317 16.065 46.1177
Pd 16.1077 19.0607 45.3433
Co 18.0317 20.3266 42.1313
Co 23.1904 19.7418 46.2106
Pd 20.5079 26.825 3.61884
Pd 18.505 22.7272 4.94685
Pd 22.1729 22.4077 2.44044
Co 25.4248 27.478 2.95125
Pd 17.2413 25.1718 10.0459
Pd 20.3688 23.8609 7.13848
Pd 16.8057 20.7471 9.52081
Co 20.6528 22.6091 10.3532
Pd 14.0937 22.4496 9.78422
Pd 17.2266 25.5328 12.8248
Pd 20.5175 22.5453 13.3716
Co 21.2802 24.6145 11.7501
Pd 15.8684 19.5606 15.7584
Pd 18.9014 24.0984 17.7506
Pd 17.4404 21.4378 17.951
Co 18.9229 22.5148 15.7235
Pd 17.5179 23.0405 20.0306
Pd 20.1188 23.5331 20.1511
Pd 21.3867 21.8832 21.9574
Co 20.0736 21.7831 18.0029
Pd 18.7849 22.6362 22.3913
Pd 18.6968 24.3892 24.3473
Pd 20.3012 22.2182 24.4952
Co 20.9454 24.1863 22.8862
Pd 18.2327 22.4291 26.1271
Pd 20.4405 23.1509 29.374
Pd 20.8316 21.6031 27.034
Co 20.2738 24.0606 26.5552
Pd 18.0345 22.7851 30.5693
Pd 18.0152 24.2889 32.83
Pd 19.9622 20.9963 31.836
Co 20.2826 23.4903 31.9232
Pd 19.0795 21.9869 34.3637
Pd 18.3438 24.3468 35.9735
Pd 20.9515 21.8507 36.245
Co 20.2889 24.1682 34.284
Pd 17.7551 22.0226 36.8868
Pd 19.7575 24.7853 42.645
Pd 20.2768 23.7704 37.8262
Co 20.3366 25.9653 35.8708
Pd 17.5155 23.0573 42.3822
Pd 16.746 25.5129 43.4642
Pd 18.6773 23.9268 44.7256