4033
Atoms. Timestep: 20142
Co 5.4783 13.0178 26.2191
Pd 3.55071 16.7323 24.3472
Pd 5.34186 14.8018 24.2773
Co 5.36553 16.748 22.4401
Pd 3.62567 14.8616 26.22
Pd 3.55115 16.7308 28.0943
Pd 5.34232 14.8002 28.1623
Co 5.37796 16.7117 26.2206
Co 5.36642 16.745 30.0011
Pd 3.52468 20.541 20.5374
Pd 5.29587 18.6014 20.4944
Co 5.35596 20.5513 18.6402
Pd 3.53074 18.6383 22.4408
Pd 3.43933 20.5111 24.3168
Pd 5.34497 18.6378 24.342
Co 5.32468 20.5186 22.4175
Pd 3.45776 18.6067 26.2216
Pd 3.43978 20.5096 28.1278
Pd 5.34542 18.6363 28.1007
Co 5.29894 20.528 26.2221
Pd 3.53164 18.6353 30.0023
Pd 3.52602 20.5365 31.9072
Pd 5.29723 18.5968 31.9483
Co 5.32559 20.5156 30.0267
Co 5.35775 20.5452 33.804
Pd 3.55096 24.3504 16.7333
Pd 5.31322 22.4085 16.6909
Co 5.40685 24.3537 14.8404
Pd 3.53321 22.4474 18.6294
Pd 3.44225 24.3229 20.5062
Pd 5.3328 22.4421 20.5378
Co 5.34302 24.3196 18.6178
Pd 3.43354 22.4166 22.4122
Pd 3.41483 24.3192 24.3179
Pd 5.28851 22.4202 24.3173
Co 5.2856 24.3289 22.4229
Pd 3.42182 22.4146 26.2231
Pd 3.41528 24.3176 28.1297
Pd 5.28896 22.4186 28.1284
Co 5.27079 24.3204 26.2236
Pd 3.43444 22.4136 30.034
Pd 3.44361 24.3184 31.9415
Pd 5.33415 22.4375 31.9079
Co 5.2865 24.3259 30.0244
Pd 3.53501 22.4413 33.8168
Pd 3.55321 24.3428 35.7143
Pd 5.31548 22.4009 35.7548
Co 5.34483 24.3135 33.8294
Co 5.40955 24.3446 37.6068
Pd 5.39514 26.229 12.9665
Pd 3.62106 26.2284 14.8622
Pd 3.55125 28.1049 16.7348
Pd 5.39487 26.2275 16.751
Co 5.40714 28.1028 14.8419
Pd 3.46379 26.2269 18.6037
Pd 3.44255 28.1294 20.5077
Pd 5.30513 26.226 20.514
Co 5.34332 28.134 18.6194
Pd 3.4229 26.2254 22.411
Pd 3.41513 28.1301 24.3195
Pd 5.27494 26.2245 24.3245
Co 5.28589 28.1216 22.4244
Pd 3.408 26.2239 26.2246
Pd 3.41558 28.1286 28.1313
Pd 5.27539 26.223 28.1242
Co 5.27109 28.1271 26.2251
Pd 3.4238 26.2223 30.0382
Pd 3.4439 28.1248 31.943
Pd 5.30648 26.2214 31.9348
Co 5.28679 28.1185 30.0259
Pd 3.46559 26.2208 33.8454
Pd 3.5535 28.0973 35.7158
Pd 5.39712 26.2199 35.6978
Co 5.34512 28.1279 33.8309
Pd 3.62376 26.2193 37.5869
Pd 5.39829 26.2184 39.4822
Co 5.40983 28.0937 37.6083
Pd 5.31381 30.0466 16.694
Pd 3.53379 30.0064 18.6324
Pd 3.52555 31.9112 20.542
Pd 5.33338 30.0099 20.5408
Co 5.35683 31.9022 18.6447
Pd 3.43412 30.0342 22.4152
Pd 3.4402 31.9381 24.3214
Pd 5.28909 30.0288 24.3204
Co 5.32556 31.9318 22.422
Pd 3.42241 30.0332 26.2261
Pd 3.44066 31.9366 28.1324
Pd 5.28954 30.0273 28.1314
Co 5.29982 31.9194 26.2267
Pd 3.43503 30.0311 30.037
Pd 3.5269 31.9067 31.9117
Pd 5.33473 30.0054 31.9109
Co 5.32646 31.9288 30.0313
Pd 3.53559 30.0003 33.8198
Pd 5.31607 30.039 35.7578
Co 5.35863 31.8962 33.8086
Pd 5.29704 33.8506 20.5005
Pd 3.5319 33.8124 22.4469
Pd 3.55217 35.7169 24.3548
Pd 5.34614 33.8111 24.348
Co 5.36698 35.7024 22.4476
Pd 3.45893 33.841 26.2276
Pd 3.55261 35.7154 28.1019
Pd 5.34658 33.8096 28.1068
Co 5.37942 35.7357 26.2282
Pd 3.5328 33.8094 30.0084
Pd 5.2984 33.8461 31.9544
Co 5.36788 35.6994 30.0087
Pd 5.34361 37.6472 24.2864
Pd 3.62742 37.5861 26.2291
Pd 5.34407 37.6457 28.1715
Co 5.48033 39.4296 26.2296
Co 9.23289 9.23554 26.2171
Pd 7.22962 12.8807 24.2932
Pd 9.0923 11.003 24.2942
Co 9.12932 12.9214 22.4132
Pd 7.28819 11.0668 26.2181
Pd 7.23008 12.8792 28.1444
Pd 9.09276 11.0015 28.1415
Co 9.09565 12.8834 26.2186
Co 9.13023 12.9183 30.024
Pd 7.19194 16.6772 20.4844
Pd 9.06515 14.7797 20.4674
Co 9.1105 16.7203 18.609
Pd 7.21136 14.7911 22.3631
Pd 7.21341 16.6879 24.2946
Pd 9.08704 14.781 24.29
Co 9.07511 16.6698 22.3652
Pd 7.23507 14.8096 26.2196
Pd 7.21387 16.6864 28.1461
Pd 9.0875 14.7795 28.1487
Co 9.1061 16.6891 26.2201
Pd 7.21228 14.788 30.0761
Pd 7.1933 16.6726 31.9563
Pd 9.06652 14.7752 31.9713
Co 9.07603 16.6667 30.075
Co 9.1123 16.7142 33.8313
Pd 7.19475 20.4809 16.6834
Pd 9.05923 18.5835 16.6704
Co 9.12112 20.5244 14.8067
Pd 7.18883 18.597 18.5683
Pd 7.19222 20.4918 20.4964
Pd 9.07224 18.5827 20.4771
Co 9.06924 20.4716 18.5667
Pd 7.19653 18.6004 22.3865
Pd 7.21247 20.5189 24.3166
Pd 9.09916 18.5913 24.2941
Co 9.09674 20.4991 22.3988
Pd 7.23459 18.6046 26.2211
Pd 7.21292 20.5173 28.1271
Pd 9.09961 18.5897 28.1476
Co 9.1093 20.5058 26.2216
Pd 7.19744 18.5973 30.0557
Pd 7.19358 20.4872 31.9473
Pd 9.07361 18.5781 31.9646
Co 9.09764 20.4961 30.0445
Pd 7.19064 18.5909 33.8739
Pd 7.19702 20.4733 35.7603
Pd 9.06149 18.5759 35.7714
Co 9.07106 20.4655 33.8766
Co 9.12383 20.5153 37.6365
Pd 7.23443 24.3049 12.8878
Pd 9.0841 22.3981 12.8698
Co 9.16631 24.3591 11.0294
Pd 7.21199 22.4003 14.7625
Pd 7.22804 24.2917 16.6961
Pd 9.08428 22.3815 16.6779
Co 9.09399 24.2837 14.7692
Pd 7.20017 22.4003 18.5878
Pd 7.21445 24.323 20.5147
Pd 9.09353 22.3971 20.4943
Co 9.10773 24.3064 18.5968
Pd 7.2075 22.417 22.4196
Pd 7.18524 24.3229 24.322
Pd 9.10526 22.4178 24.3212
Co 9.10524 24.3174 22.4155
Pd 7.18982 22.421 26.2226
Pd 7.18569 24.3214 28.1248
Pd 9.10571 22.4163 28.1236
Co 9.09968 24.3211 26.2232
Pd 7.2084 22.4139 30.0257
Pd 7.21581 24.3185 31.9321
Pd 9.09489 22.3925 31.9505
Co 9.10614 24.3143 30.0309
Pd 7.20198 22.3942 33.8574
Pd 7.2303 24.2841 35.7507
Pd 9.08654 22.3739 35.7669
Co 9.10954 24.3003 33.8496
Pd 7.21471 22.3912 37.6828
Pd 7.23759 24.2942 39.5589
Pd 9.08727 22.3874 39.575
Co 9.0967 24.2746 37.6771
Co 9.16992 24.3469 41.4169
Pd 9.17383 26.2302 9.16865
Pd 7.31864 26.2296 11.0283
Pd 7.23472 28.1529 12.8894
Pd 9.12001 26.2288 12.9078
Co 9.1666 28.0999 11.0309
Pd 7.25363 26.2281 14.7929
Pd 7.22834 28.163 16.6976
Pd 9.10819 26.2272 16.6892
Co 9.09428 28.1723 14.7707
Pd 7.23865 26.2266 18.6185
Pd 7.21475 28.1287 20.5162
Pd 9.11489 26.2257 20.5184
Co 9.10803 28.1466 18.5983
Pd 7.19104 26.2251 22.4213
Pd 7.18553 28.1258 24.3235
Pd 9.09913 26.2242 24.3207
Co 9.10553 28.1325 22.417
Pd 7.18042 26.2236 26.2242
Pd 7.18598 28.1242 28.1263
Pd 9.09959 26.2227 28.1272
Co 9.09997 28.1258 26.2247
Pd 7.19194 26.2221 30.027
Pd 7.2161 28.1241 31.9336
Pd 9.11625 26.2211 31.9295
Co 9.10644 28.1295 30.0324
Pd 7.24046 26.2205 33.8298
Pd 7.2306 28.1554 35.7522
Pd 9.11045 26.2196 35.7586
Co 9.10984 28.1405 33.8511
Pd 7.25635 26.219 37.6554
Pd 7.23789 28.1423 39.5605
Pd 9.12317 26.2181 39.54
Co 9.097 28.1631 37.6787
Pd 7.32225 26.2175 41.42
Pd 9.17787 26.2166 43.2792
Co 9.1702 28.0878 41.4184
Pd 9.08469 30.0594 12.8728
Pd 7.21258 30.056 14.7655
Pd 7.19564 31.9738 16.688
Pd 9.08487 30.0729 16.681
Co 9.122 31.9316 14.8113
Pd 7.20076 30.0529 18.5909
Pd 7.1931 31.9599 20.501
Pd 9.09412 30.0544 20.4974
Co 9.07012 31.9814 18.5713
Pd 7.20809 30.0332 22.4226
Pd 7.21335 31.9298 24.3212
Pd 9.10585 30.0306 24.3243
Co 9.09762 31.9508 22.4034
Pd 7.1904 30.0261 26.2257
Pd 7.2138 31.9283 28.1317
Pd 9.1063 30.0291 28.1266
Co 9.11018 31.941 26.2262
Pd 7.20899 30.0302 30.0287
Pd 7.19446 31.9553 31.9519
Pd 9.09548 30.0498 31.9536
Co 9.09852 31.9477 30.0491
Pd 7.20257 30.0468 33.8605
Pd 7.1979 31.9662 35.7649
Pd 9.08713 30.0653 35.77
Co 9.07194 31.9753 33.8812
Pd 7.21529 30.0468 37.6858
Pd 9.08786 30.0487 39.5781
Co 9.12471 31.9224 37.6411
Pd 9.0604 33.871 16.6765
Pd 7.19 33.8562 18.5744
Pd 7.1934 35.7745 20.492
Pd 9.07342 33.8688 20.4832
Co 9.11196 35.7326 18.6166
Pd 7.19771 33.8498 22.3926
Pd 7.21488 35.7608 24.3022
Pd 9.10033 33.8571 24.3002
Co 9.07658 35.7802 22.3729
Pd 7.23576 33.8425 26.2272
Pd 7.21533 35.7593 28.1537
Pd 9.10079 33.8556 28.1537
Co 9.10757 35.7577 26.2277
Pd 7.19862 33.8468 30.0618
Pd 7.19476 35.7699 31.9639
Pd 9.07478 33.8642 31.9707
Co 9.07749 35.7771 30.0826
Pd 7.19182 33.8501 33.88
Pd 9.06266 33.8634 35.7775
Co 9.11376 35.7265 33.8389
Pd 9.06691 37.6717 20.4765
Pd 7.21312 37.6591 22.3722
Pd 7.23167 39.5679 24.3039
Pd 9.0888 37.6674 24.2991
Co 9.13137 39.5285 22.4238
Pd 7.23683 37.6375 26.2287
Pd 7.23213 39.5664 28.1551
Pd 9.08925 37.6658 28.1579
Co 9.0977 39.5634 26.2293
Pd 7.21404 37.656 30.0852
Pd 9.06828 37.6671 31.9805
Co 9.13227 39.5255 30.0346
Pd 9.09464 41.4454 24.3064
Pd 7.29052 41.3803 26.2302
Pd 9.0951 41.4439 28.1537
Co 9.2355 43.2113 26.2307
Co 13.0146 5.48038 26.2152
Pd 10.9993 9.09569 24.2932
Pd 12.8768 7.23272 24.2903
Co 12.9167 9.13339 22.4112
Pd 11.0639 7.29057 26.2161
Pd 10.9998 9.09415 28.1405
Pd 12.8772 7.23118 28.1415
Co 12.8808 9.09774 26.2166
Co 12.9176 9.13034 30.022
Pd 10.9712 12.8594 20.4666
Pd 12.8541 10.9762 20.4656
Co 12.9007 12.9067 18.5976
Pd 10.9832 10.9876 22.3613
Pd 10.9812 12.8735 24.288
Pd 12.8701 10.9843 24.2871
Co 12.8559 12.86 22.3582
Pd 11.0106 11.013 26.2176
Pd 10.9817 12.8719 28.1487
Pd 12.8705 10.9828 28.1477
Co 12.8831 12.8852 26.2181
Pd 10.9841 10.9845 30.0739
Pd 10.9725 12.8548 31.9701
Pd 12.8554 10.9716 31.9691
Co 12.8568 12.8569 30.0781
Co 12.9025 12.9006 33.8387
Pd 10.964 16.6591 16.6635
Pd 12.8445 14.7682 16.6577
Co 12.8979 16.7077 14.795
Pd 10.9671 14.7742 18.5472
Pd 10.9691 16.6638 20.4659
Pd 12.8546 14.7651 20.461
Co 12.8477 16.6524 18.5469
Pd 10.9747 14.7734 22.3642
Pd 10.9814 16.6757 24.2942
Pd 12.8718 14.7719 24.2919
Co 12.8737 16.6734 22.3826
Pd 10.9795 14.772 26.2191
Pd 10.9819 16.6741 28.1456
Pd 12.8723 14.7704 28.1459
Co 12.876 16.6732 26.2197
Pd 10.9756 14.7703 30.074
Pd 10.9705 16.6592 31.9738
Pd 12.856 14.7605 31.9768
Co 12.8746 16.6703 30.0567
Pd 10.969 14.768 33.891
Pd 10.9663 16.6514 35.7762
Pd 12.8468 14.7605 35.7801
Co 12.8495 16.6463 33.8924
Co 12.9006 16.6986 37.6443
Pd 10.9783 20.4695 12.8644
Pd 12.8515 18.5761 12.8586
Co 12.9151 20.5233 11.0021
Pd 10.9684 18.5788 14.7467
Pd 10.9728 20.4661 16.6671
Pd 12.8529 18.5648 16.6594
Co 12.853 20.4585 14.7507
Pd 10.9676 18.5724 18.5588
Pd 10.9792 20.483 20.4805
Pd 12.8701 18.5712 20.4724
Co 12.8739 20.4791 18.5759
Pd 10.9811 18.5772 22.3837
Pd 10.9949 20.4936 24.3069
Pd 12.8809 18.5804 24.3039
Co 12.8831 20.4852 22.3933
Pd 10.9894 18.5838 26.2206
Pd 10.9954 20.4921 28.1359
Pd 12.8814 18.5789 28.1369
Co 12.8903 20.4885 26.2212
Pd 10.982 18.5741 30.0576
Pd 10.9806 20.4784 31.9624
Pd 12.8714 18.5666 31.9684
Co 12.884 20.4821 30.0491
Pd 10.9695 18.5663 33.8825
Pd 10.975 20.4585 35.7757
Pd 12.8551 18.5571 35.7815
Co 12.8757 20.473 33.8665
Pd 10.9712 18.5697 37.6946
Pd 10.9815 20.4588 39.5784
Pd 12.8547 18.5654 39.5822
Co 12.8557 20.4493 37.6917
Co 12.9187 20.5111 41.4403
Pd 11.0217 24.3089 9.091
Pd 12.8814 22.4014 9.07499
Co 12.9689 24.3605 7.24476
Pd 10.9941 22.4013 10.9554
Pd 10.9976 24.2926 12.8815
Pd 12.867 22.3796 12.8696
Co 12.8808 24.2842 10.973
Pd 10.9795 22.381 14.7619
Pd 10.9848 24.3009 16.6772
Pd 12.8724 22.3836 16.6729
Co 12.8816 24.3038 14.7815
Pd 10.982 22.3867 18.5806
Pd 10.9979 24.308 20.4971
Pd 12.8844 22.3937 20.4906
Co 12.8824 24.3055 18.5855
Pd 10.9946 22.4004 22.4016
Pd 11.0056 24.3157 24.3156
Pd 12.8957 22.3998 24.3094
Co 12.8964 24.3102 22.4034
Pd 11.006 22.4047 26.2222
Pd 11.0061 24.3142 28.1303
Pd 12.8962 22.3982 28.1345
Co 12.9033 24.3114 26.2227
Pd 10.9955 22.3974 30.0428
Pd 10.9992 24.3034 31.9488
Pd 12.8858 22.3891 31.9533
Co 12.8973 24.3071 30.0421
Pd 10.9838 22.3806 33.8637
Pd 10.9871 24.2933 35.7687
Pd 12.8747 22.376 35.771
Co 12.8842 24.2994 33.8599
Pd 10.9822 22.3718 37.6824
Pd 11.0008 24.2819 39.5644
Pd 12.8701 22.3689 39.5743
Co 12.8843 24.2947 37.6639
Pd 10.9977 22.389 41.4889
Pd 11.0258 24.2952 43.3549
Pd 12.8854 22.3877 43.3689
Co 12.8844 24.272 41.4725
Co 12.9734 24.3453 45.2007
Pd 13.0013 26.2315 5.37776
Pd 11.124 26.2309 7.23131
Pd 11.022 28.1514 9.09253
Pd 12.9123 26.23 9.12233
Co 12.9692 28.1009 7.24626
Pd 11.0318 26.2294 10.9927
Pd 10.9979 28.1646 12.8831
Pd 12.8888 26.2285 12.8858
Co 12.8811 28.1743 10.9745
Pd 10.994 26.2279 14.7843
Pd 10.9851 28.1533 16.6787
Pd 12.8819 26.227 16.6874
Co 12.8819 28.1516 14.783
Pd 10.995 26.2263 18.5915
Pd 10.9982 28.1432 20.4986
Pd 12.8914 26.2254 20.4966
Co 12.8827 28.1469 18.587
Pd 11.0069 26.2248 22.4117
Pd 11.0059 28.1323 24.3171
Pd 12.904 26.2239 24.3164
Co 12.8967 28.1391 22.4049
Pd 11.0048 26.2233 26.2237
Pd 11.0064 28.1308 28.1318
Pd 12.9044 26.2224 28.1306
Co 12.9036 28.1348 26.2242
Pd 11.0078 26.2218 30.0357
Pd 10.9995 28.1386 31.9503
Pd 12.8928 26.2208 31.9503
Co 12.8976 28.1361 30.0436
Pd 10.9968 26.2202 33.8559
Pd 10.9874 28.1457 35.7702
Pd 12.8842 26.2193 35.7595
Co 12.8845 28.1408 33.8615
Pd 10.9967 26.2187 37.6631
Pd 11.0011 28.154 39.5659
Pd 12.892 26.2178 39.5612
Co 12.8846 28.1425 37.6655
Pd 11.0354 26.2172 41.4547
Pd 11.0261 28.1377 43.3564
Pd 12.9164 26.2163 43.3246
Co 12.8847 28.1621 41.474
Pd 11.1285 26.2157 45.2161
Pd 13.0062 26.2148 47.0692
Co 12.9737 28.0858 45.2022
Pd 12.882 30.0586 9.07805
Pd 10.9947 30.0575 10.9585
Pd 10.9792 31.9878 12.869
Pd 12.8676 30.0774 12.8727
Co 12.9159 31.9351 11.0066
Pd 10.9801 30.0747 14.765
Pd 10.9736 31.9881 16.6717
Pd 12.873 30.0703 16.676
Co 12.8539 31.997 14.7553
Pd 10.9826 30.0659 18.5837
Pd 10.9801 31.9682 20.4851
Pd 12.885 30.0572 20.4936
Co 12.8747 31.9733 18.5805
Pd 10.9952 30.0492 22.4047
Pd 10.9958 31.9545 24.3115
Pd 12.8963 30.048 24.3125
Co 12.884 31.9642 22.3979
Pd 11.0066 30.0418 26.2252
Pd 10.9963 31.953 28.1405
Pd 12.8968 30.0465 28.1375
Co 12.8912 31.9578 26.2258
Pd 10.9961 30.0462 30.0458
Pd 10.9814 31.9636 31.9669
Pd 12.8864 30.0526 31.9564
Co 12.8849 31.9611 30.0537
Pd 10.9844 30.0598 33.8668
Pd 10.9759 31.9805 35.7803
Pd 12.8753 30.0626 35.7741
Co 12.8766 31.9671 33.8711
Pd 10.9828 30.0656 37.6855
Pd 10.9824 31.9771 39.583
Pd 12.8707 30.0667 39.5773
Co 12.8566 31.9878 37.6963
Pd 10.9983 30.0453 41.492
Pd 12.886 30.0449 43.372
Co 12.9196 31.923 41.4449
Pd 12.8527 33.8809 12.8648
Pd 10.9696 33.8769 14.7528
Pd 10.9655 35.7951 16.6712
Pd 12.854 33.8892 16.6655
Co 12.8994 35.7477 14.8027
Pd 10.9688 33.8803 18.5649
Pd 10.9706 35.7874 20.4736
Pd 12.8712 33.8797 20.4785
Co 12.8492 35.8 18.5546
Pd 10.9823 33.8725 22.3898
Pd 10.9829 35.7725 24.3018
Pd 12.8821 33.8674 24.31
Co 12.8752 35.776 22.3902
Pd 10.9905 33.8628 26.2268
Pd 10.9833 35.7709 28.1532
Pd 12.8825 33.8658 28.143
Co 12.8775 35.773 26.2273
Pd 10.9832 33.8694 30.0637
Pd 10.972 35.7828 31.9815
Pd 12.8726 33.8751 31.9746
Co 12.8761 35.7729 30.0644
Pd 10.9706 33.8742 33.8887
Pd 10.9678 35.7875 35.7839
Pd 12.8563 33.8815 35.7876
Co 12.851 35.7939 33.9001
Pd 10.9723 33.8677 37.7008
Pd 12.8559 33.8702 39.5883
Co 12.9021 35.7385 37.6519
Pd 12.8463 37.6858 16.6668
Pd 10.9689 37.6786 18.5564
Pd 10.9732 39.5917 20.4773
Pd 12.8564 37.6858 20.4702
Co 12.9027 39.5457 18.6082
Pd 10.9764 37.6763 22.3734
Pd 10.9833 39.5746 24.2987
Pd 12.8736 37.6759 24.3011
Co 12.8579 39.5894 22.3688
Pd 10.9813 37.6746 26.2283
Pd 10.9837 39.5731 28.1594
Pd 12.874 37.6744 28.155
Co 12.8851 39.5611 26.2288
Pd 10.9774 37.6732 30.0832
Pd 10.9746 39.5871 31.9808
Pd 12.8577 37.6812 31.986
Co 12.8589 39.5863 30.0888
Pd 10.9707 37.6724 33.9002
Pd 12.8485 37.6781 35.7893
Co 12.9045 39.5396 33.8494
Pd 12.8564 41.4746 20.4778
Pd 10.9855 41.4621 22.3735
Pd 11.002 43.3524 24.3069
Pd 12.8724 41.4635 24.2993
Co 12.9193 43.3159 22.4249
Pd 11.0129 41.4336 26.2298
Pd 11.0024 43.3509 28.1542
Pd 12.8729 41.462 28.1599
Co 12.8834 43.3485 26.2303
Pd 10.9865 41.459 30.0861
Pd 12.8578 41.47 31.9813
Co 12.9202 43.3129 30.0357
Pd 12.8797 45.2151 24.3055
Pd 11.0668 45.156 26.2313
Pd 12.8802 45.2136 28.1567
Co 13.0177 46.9659 26.2318
Pd 14.7975 5.34467 24.2724
Pd 16.7278 3.55319 24.3404
Co 16.7428 5.36899 22.4342
Pd 14.8581 3.62747 26.2142
Pd 14.798 5.34311 28.1574
Pd 16.7282 3.55169 28.0875
Co 16.7085 5.37947 26.2147
Co 16.7437 5.36597 29.9952
Pd 14.7741 9.06994 20.4644
Pd 16.6713 7.19642 20.4795
Co 16.7137 9.11595 18.605
Pd 14.7862 7.21517 22.3591
Pd 14.7773 9.08984 24.287
Pd 16.6839 7.21592 24.2897
Co 16.6651 9.07862 22.3613
Pd 14.8067 7.23687 26.2157
Pd 14.7778 9.0883 28.1458
Pd 16.6844 7.21438 28.1412
Co 16.6864 9.10761 26.2162
Pd 14.7871 7.21208 30.0722
Pd 14.7755 9.06534 31.9684
Pd 16.6726 7.19184 31.9514
Co 16.666 9.07554 30.071
Co 16.7155 9.10986 33.8273
Pd 14.7611 12.8513 16.6567
Pd 16.6517 10.9705 16.6606
Co 16.6997 12.9053 14.7931
Pd 14.7678 10.9729 18.5453
Pd 14.76 12.8594 20.46
Pd 16.6584 10.9736 20.463
Co 16.6464 12.8532 18.5449
Pd 14.769 10.9785 22.3623
Pd 14.7688 12.8746 24.2909
Pd 16.6723 10.9839 24.2912
Co 16.6693 12.8772 22.3806
Pd 14.7696 10.9813 26.2172
Pd 14.7693 12.8731 28.1449
Pd 16.6727 10.9824 28.1426
Co 16.6711 12.8775 26.2177
Pd 14.7699 10.9754 30.0721
Pd 14.7614 12.8548 31.9758
Pd 16.6598 10.969 31.9709
Co 16.6702 12.8742 30.0548
Pd 14.7696 10.9668 33.8891
Pd 14.7634 12.8436 35.7791
Pd 16.654 10.9629 35.7733
Co 16.6482 12.847 33.8904
Co 16.7024 12.8962 37.6423
Pd 14.7629 16.6561 12.8565
Pd 16.6474 14.7714 12.8555
Co 16.7068 16.7162 10.9952
Pd 14.7601 14.7679 14.7395
Pd 14.7546 16.6537 16.6558
Pd 16.6469 14.7611 16.6548
Co 16.6423 16.6497 14.7452
Pd 14.7563 14.7621 18.5488
Pd 14.762 16.6666 20.4695
Pd 16.6618 14.7665 20.4685
Co 16.6631 16.6686 18.5697
Pd 14.7631 14.7669 22.3779
Pd 14.774 16.6743 24.3018
Pd 16.6715 14.7765 24.3008
Co 16.6701 16.6736 22.3887
Pd 14.7725 14.7743 26.2187
Pd 14.7745 16.6727 28.1371
Pd 16.6719 14.775 28.1361
Co 16.6761 16.6776 26.2192
Pd 14.764 14.7638 30.0595
Pd 14.7634 16.662 31.9693
Pd 16.6632 14.7619 31.9684
Co 16.6711 16.6706 30.0497
Pd 14.7581 14.756 33.8885
Pd 14.7569 16.646 35.7831
Pd 16.6492 14.7535 35.7821
Co 16.6649 16.6624 33.8687
Pd 14.7629 14.7587 37.6978
Pd 14.7661 16.6454 39.5823
Pd 16.6505 14.7607 39.5814
Co 16.645 16.6405 37.6932
Co 16.7104 16.7041 41.4432
Pd 14.7866 20.4752 9.07156
Pd 16.6695 18.5923 9.06374
Co 16.7445 20.544 7.21792
Pd 14.773 18.5801 10.9444
Pd 14.7638 20.4633 12.8661
Pd 16.6511 18.5662 12.8638
Co 16.6568 20.4627 10.9633
Pd 14.7565 18.5638 14.7517
Pd 14.7622 20.4735 16.6685
Pd 16.6596 18.5661 16.667
Co 16.6648 20.4767 14.7774
Pd 14.7615 18.5669 18.5682
Pd 14.7765 20.4823 20.4856
Pd 16.6709 18.5766 20.4841
Co 16.6701 20.4807 18.5816
Pd 14.7748 18.577 22.3908
Pd 14.7848 20.4869 24.3078
Pd 16.6788 18.5813 24.3065
Co 16.6811 20.4871 22.3986
Pd 14.7793 18.5784 26.2202
Pd 14.7852 20.4853 28.1341
Pd 16.6792 18.5798 28.1334
Co 16.6849 20.4878 26.2207
Pd 14.7757 18.574 30.0496
Pd 14.7779 20.4778 31.9563
Pd 16.6723 18.572 31.9559
Co 16.682 20.4841 30.0429
Pd 14.7634 18.5608 33.8721
Pd 14.7645 20.4659 35.7734
Pd 16.6619 18.5585 35.7729
Co 16.6719 20.4746 33.8598
Pd 14.7592 18.5547 37.6887
Pd 14.767 20.4526 39.5758
Pd 16.6543 18.5555 39.5762
Co 16.6675 20.4675 37.6641
Pd 14.7766 18.5679 41.496
Pd 14.7907 20.4615 43.3703
Pd 16.6736 18.5786 43.3762
Co 16.6605 20.4505 41.4781
Co 16.749 20.5288 45.2236
Pd 14.8449 24.3108 5.33551
Pd 16.7361 22.4254 5.30554
Co 16.8356 24.3871 3.60076
Pd 14.8132 22.4021 7.17338
Pd 14.7978 24.2931 9.09994
Pd 16.6783 22.3859 9.09496
Co 16.7019 24.2859 7.21519
Pd 14.7747 22.3809 10.9704
Pd 14.7721 24.3007 12.8811
Pd 16.6672 22.3839 12.8827
Co 16.6813 24.3056 11.0018
Pd 14.7658 22.3827 14.7748
Pd 14.7751 24.306 16.6845
Pd 16.6704 22.3916 16.6859
Co 16.671 24.3052 14.7899
Pd 14.7754 22.392 18.5836
Pd 14.7847 24.3092 20.4937
Pd 16.6807 22.3964 20.4938
Co 16.6785 24.3094 18.5927
Pd 14.7872 22.3962 22.3996
Pd 14.7962 24.3099 24.3119
Pd 16.6888 22.398 24.3112
Co 16.6885 24.3102 22.4035
Pd 14.7921 22.3969 26.2217
Pd 14.7966 24.3084 28.1331
Pd 16.6893 22.3965 28.1318
Co 16.6939 24.3094 26.2223
Pd 14.7881 22.3931 30.0439
Pd 14.7861 24.3046 31.9512
Pd 16.682 22.3918 31.9492
Co 16.6894 24.3072 30.041
Pd 14.7773 22.3859 33.8598
Pd 14.7774 24.2984 35.7604
Pd 16.6726 22.384 35.7571
Co 16.6803 24.3033 33.8519
Pd 14.7685 22.3736 37.6686
Pd 14.7753 24.29 39.5638
Pd 16.6704 22.3733 39.5603
Co 16.6737 24.2961 37.6546
Pd 14.7783 22.3687 41.473
Pd 14.8019 24.2794 43.345
Pd 16.6824 22.3722 43.348
Co 16.6849 24.2935 41.4428
Pd 14.8177 22.3869 45.2701
Pd 14.8498 24.2941 47.1094
Pd 16.7411 22.4087 47.1375
Co 16.7064 24.2707 45.2293
Co 16.841 24.369 48.8438
Pd 15.0287 26.2321 3.50983
Pd 14.8452 28.1518 5.33705
Pd 16.7637 26.2312 5.41973
Co 16.8359 28.0766 3.60223
Pd 14.8344 26.2306 7.22511
Pd 14.7981 28.1666 9.10149
Pd 16.6965 26.2297 9.11372
Co 16.7022 28.175 7.21675
Pd 14.7877 26.2291 10.9962
Pd 14.7724 28.1559 12.8827
Pd 16.6755 26.2282 12.9001
Co 16.6816 28.1522 11.0033
Pd 14.7777 26.2276 14.7874
Pd 14.7754 28.1476 16.6861
Pd 16.6758 26.2267 16.6935
Co 16.6713 28.1496 14.7914
Pd 14.7811 26.226 18.5908
Pd 14.785 28.1414 20.4953
Pd 16.6847 26.2251 20.499
Co 16.6788 28.1424 18.5942
Pd 14.7924 26.2245 22.4038
Pd 14.7965 28.1376 24.3134
Pd 16.6939 26.2236 24.3131
Co 16.6888 28.1385 22.405
Pd 14.8009 26.223 26.2233
Pd 14.7969 28.1361 28.1346
Pd 16.6944 26.2221 28.133
Co 16.6942 28.1363 26.2238
Pd 14.7933 26.2215 30.0427
Pd 14.7864 28.1368 31.9528
Pd 16.6861 26.2206 31.9471
Co 16.6897 28.1354 30.0425
Pd 14.7829 26.2199 33.8557
Pd 14.7777 28.14 35.762
Pd 16.678 26.219 35.7525
Co 16.6806 28.1363 33.8534
Pd 14.7804 26.2184 37.6591
Pd 14.7756 28.1453 39.5654
Pd 16.6786 26.2175 39.546
Co 16.674 28.1405 37.6562
Pd 14.7913 26.2169 41.4503
Pd 14.8022 28.1529 43.3466
Pd 16.7006 26.216 43.3323
Co 16.6852 28.1401 41.4443
Pd 14.839 26.2154 45.2214
Pd 14.8501 28.1351 47.111
Pd 16.7686 26.2145 47.0263
Co 16.7067 28.1598 45.2309
Pd 15.0341 26.2139 48.9366
Co 16.8413 28.0585 48.8453
Pd 16.7367 30.037 5.30858
Pd 14.8138 30.0591 7.17644
Pd 14.7875 31.9845 9.07617
Pd 16.6789 30.0735 9.09804
Co 16.7453 31.9169 7.22247
Pd 14.7753 30.0773 10.9735
Pd 14.7647 31.9934 12.8707
Pd 16.6678 30.0724 12.8857
Co 16.6577 31.9952 10.9679
Pd 14.7664 30.0724 14.7779
Pd 14.7631 31.9801 16.6731
Pd 16.671 30.0617 16.689
Co 16.6657 31.9782 14.782
Pd 14.776 30.0601 18.5867
Pd 14.7774 31.9682 20.4902
Pd 16.6813 30.0539 20.4969
Co 16.671 31.9711 18.5862
Pd 14.7878 30.0528 22.4027
Pd 14.7857 31.9607 24.3124
Pd 16.6894 30.0492 24.3143
Co 16.6819 31.9616 22.4032
Pd 14.7927 30.0491 26.2248
Pd 14.7861 31.9591 28.1387
Pd 16.6899 30.0477 28.1348
Co 16.6858 31.9579 26.2253
Pd 14.7887 30.0498 30.0469
Pd 14.7788 31.9636 31.9609
Pd 16.6826 30.0493 31.9522
Co 16.6828 31.9586 30.0475
Pd 14.7778 30.054 33.8629
Pd 14.7654 31.9725 35.778
Pd 16.6732 30.0541 35.7602
Co 16.6728 31.965 33.8644
Pd 14.7691 30.0633 37.6717
Pd 14.7679 31.9827 39.5804
Pd 16.671 30.0618 39.5634
Co 16.6684 31.969 37.6687
Pd 14.7789 30.0651 41.4761
Pd 14.7916 31.9707 43.3749
Pd 16.6829 30.0598 43.3511
Co 16.6613 31.983 41.4827
Pd 14.8183 30.0439 45.2731
Pd 16.7417 30.0203 47.1405
Co 16.7498 31.9017 45.2281
Pd 16.6707 33.8671 9.06985
Pd 14.7742 33.8781 10.9505
Pd 14.7644 35.8006 12.8642
Pd 16.6523 33.8902 12.8699
Co 16.7083 35.7416 11.0028
Pd 14.7576 33.8913 14.7578
Pd 14.7561 35.8 16.6634
Pd 16.6608 33.8872 16.6732
Co 16.6437 35.8052 14.7529
Pd 14.7627 33.8852 18.5744
Pd 14.7635 35.784 20.4772
Pd 16.6721 33.8737 20.4902
Co 16.6646 35.7833 18.5774
Pd 14.7759 33.872 22.3969
Pd 14.7755 35.7733 24.3094
Pd 16.68 33.8659 24.3127
Co 16.6716 35.7751 22.3963
Pd 14.7805 33.8676 26.2263
Pd 14.776 35.7717 28.1447
Pd 16.6804 33.8644 28.1395
Co 16.6776 35.7681 26.2268
Pd 14.7768 33.869 30.0557
Pd 14.7649 35.7794 31.977
Pd 16.6735 33.8691 31.962
Co 16.6725 35.7721 30.0574
Pd 14.7645 33.8791 33.8783
Pd 14.7584 35.7923 35.7907
Pd 16.663 33.8796 35.779
Co 16.6664 35.7771 33.8764
Pd 14.7604 33.8821 37.6948
Pd 14.7676 35.7899 39.59
Pd 16.6554 33.8795 39.5823
Co 16.6464 35.796 37.7008
Pd 14.7778 33.8659 41.5021
Pd 16.6747 33.8534 43.3823
Co 16.7119 35.7295 41.4508
Pd 16.6491 37.685 12.8647
Pd 14.7619 37.6873 14.7487
Pd 14.7631 39.6024 16.6674
Pd 16.6486 37.6922 16.664
Co 16.7018 39.5495 14.8037
Pd 14.7581 37.69 18.558
Pd 14.7621 39.5912 20.4707
Pd 16.6636 37.6838 20.4777
Co 16.6484 39.5987 18.5556
Pd 14.7649 37.6821 22.3871
Pd 14.7709 39.5729 24.3016
Pd 16.6732 37.6707 24.3099
Co 16.6713 39.5715 22.3913
Pd 14.7742 37.6717 26.2278
Pd 14.7713 39.5714 28.1556
Pd 16.6737 37.6691 28.1453
Co 16.6732 39.5681 26.2284
Pd 14.7658 37.6791 30.0686
Pd 14.7634 39.5866 31.9865
Pd 16.6649 37.6792 31.9775
Co 16.6722 39.5685 30.0654
Pd 14.7599 37.6839 33.8977
Pd 14.7654 39.5947 35.7898
Pd 16.6509 37.6846 35.7913
Co 16.6502 39.5925 33.9011
Pd 14.7646 37.6781 37.707
Pd 16.6523 37.6743 39.5905
Co 16.7045 39.5403 37.653
Pd 16.6541 41.4828 16.6728
Pd 14.7701 41.4792 18.5575
Pd 14.7767 43.3806 20.4781
Pd 16.6608 41.4767 20.4752
Co 16.7163 43.3358 18.6187
Pd 14.7713 41.4706 22.3745
Pd 14.78 43.3577 24.3007
Pd 16.6746 41.4633 24.3034
Co 16.6677 43.3702 22.375
Pd 14.7719 41.4647 26.2294
Pd 14.7804 43.3561 28.1595
Pd 16.6751 41.4618 28.1548
Co 16.6891 43.3381 26.2299
Pd 14.7722 41.4675 30.0842
Pd 14.7781 43.376 31.9821
Pd 16.6621 41.4721 31.9831
Co 16.6686 43.3671 30.0848
Pd 14.772 41.4731 33.9013
Pd 16.6564 41.4752 35.7855
Co 16.7181 43.3297 33.841
Pd 16.6742 45.2539 20.4947
Pd 14.7891 45.2339 22.3744
Pd 14.8007 47.1029 24.2891
Pd 16.6868 45.2313 24.3049
Co 16.746 47.0797 22.4508
Pd 14.8096 45.2091 26.2308
Pd 14.8012 47.1013 28.1741
Pd 16.6873 45.2298 28.1564
Co 16.7117 47.0662 26.2314
Pd 14.79 45.2308 30.0874
Pd 16.6755 45.2493 31.9666
Co 16.7469 47.0767 30.0119
Pd 16.7313 48.894 24.3585
Pd 14.8615 48.8185 26.2323
Pd 16.7317 48.8925 28.1056
Pd 18.5951 5.30005 20.4875
Pd 20.5345 3.52854 20.5286
Co 20.5441 5.36081 18.6323
Pd 18.6328 3.53391 22.433
Pd 18.6336 5.34716 24.3351
Pd 20.5066 3.44124 24.308
Co 20.5134 5.32758 22.4096
Pd 18.6032 3.45898 26.2137
Pd 18.634 5.34566 28.0938
Pd 20.507 3.43971 28.119
Co 20.5247 5.29987 26.2142
Pd 18.6337 3.53089 29.9945
Pd 18.5965 5.29547 31.9414
Pd 20.5359 3.524 31.8984
Co 20.5143 5.32454 30.0189
Co 20.5459 5.35474 33.7962
Pd 18.5759 9.0654 16.6654
Pd 20.473 7.20063 16.6766
Co 20.5158 9.12796 14.8008
Pd 18.5901 7.19402 18.5624
Pd 18.577 9.07644 20.4722
Pd 20.4859 7.19612 20.4896
Co 20.4649 9.07414 18.5608
Pd 18.5954 7.19974 22.3806
Pd 18.5876 9.10138 24.2892
Pd 20.5149 7.21438 24.3097
Co 20.4945 9.09965 22.3929
Pd 18.6017 7.23581 26.2152
Pd 18.5881 9.09983 28.1427
Pd 20.5154 7.21286 28.1202
Co 20.5032 9.11023 26.2157
Pd 18.5963 7.19667 30.0498
Pd 18.5784 9.07185 31.9597
Pd 20.4872 7.19154 31.9404
Co 20.4954 9.09659 30.0386
Pd 18.5919 7.1879 33.868
Pd 18.5781 9.05776 35.7664
Pd 20.4753 7.193 35.7534
Co 20.4668 9.06802 33.8706
Co 20.5185 9.11884 37.6306
Pd 18.567 12.8597 12.8557
Pd 20.4602 10.9862 12.8594
Co 20.5133 12.9239 10.9981
Pd 18.5705 10.9756 14.7427
Pd 18.5577 12.8591 16.6564
Pd 20.4588 10.9786 16.6622
Co 20.4504 12.8599 14.7467
Pd 18.566 10.9728 18.5548
Pd 18.5661 12.8743 20.4694
Pd 20.4776 10.9831 20.4755
Co 20.4731 12.8788 18.5719
Pd 18.5728 10.9843 22.3798
Pd 18.5774 12.8831 24.301
Pd 20.4902 10.9968 24.302
Co 20.4811 12.886 22.3893
Pd 18.5814 10.9906 26.2167
Pd 18.5778 12.8816 28.134
Pd 20.4907 10.9953 28.131
Co 20.4864 12.8913 26.2172
Pd 18.5737 10.9813 30.0536
Pd 18.5675 12.8697 31.9655
Pd 20.479 10.9785 31.9574
Co 20.482 12.883 30.0452
Pd 18.5679 10.9667 33.8786
Pd 18.56 12.8514 35.7785
Pd 20.461 10.971 35.7708
Co 20.4749 12.8726 33.8626
Pd 18.5732 10.9664 37.6907
Pd 18.5702 12.849 39.5792
Pd 20.4633 10.9755 39.5735
Co 20.4532 12.8507 37.6877
Co 20.5169 12.9117 41.4364
Pd 18.5819 16.6796 9.06275
Pd 20.4645 14.7964 9.06862
Co 20.5326 16.7552 7.21595
Pd 18.5704 14.7821 10.9424
Pd 18.5577 16.6592 12.8628
Pd 20.4545 14.7717 12.8631
Co 20.4533 16.6657 10.9614
Pd 18.5561 14.7636 14.7497
Pd 18.5597 16.6658 16.6661
Pd 20.4668 14.7681 16.6656
Co 20.4692 16.6716 14.7754
Pd 18.5611 14.7667 18.5663
Pd 18.5721 16.6751 20.4831
Pd 20.4776 14.7804 20.4827
Co 20.4752 16.675 18.5796
Pd 18.5732 14.778 22.3888
Pd 18.5788 16.681 24.3056
Pd 20.4841 14.7867 24.3049
Co 20.4836 16.684 22.3966
Pd 18.5766 14.7805 26.2182
Pd 18.5793 16.6795 28.1324
Pd 20.4845 14.7852 28.1311
Co 20.4863 16.6859 26.2188
Pd 18.5741 14.7749 30.0476
Pd 18.5734 16.6705 31.9549
Pd 20.4789 14.7758 31.9533
Co 20.4845 16.6809 30.0409
Pd 18.5629 14.7606 33.8702
Pd 18.5619 16.6581 35.7719
Pd 20.469 14.7605 35.7704
Co 20.477 16.6688 33.8579
Pd 18.5588 14.7545 37.6867
Pd 18.5609 16.6486 39.5752
Pd 20.4577 14.761 39.5729
Co 20.4719 16.6625 37.6621
Pd 18.574 14.7699 41.494
Pd 18.586 16.6659 43.3752
Pd 20.4686 14.7827 43.3674
Co 20.4569 16.6535 41.4762
Co 20.5371 16.74 45.2216
Pd 18.6356 20.5349 5.29196
Pd 20.5228 18.6474 5.29099
Co 20.6063 20.619 3.57152
Pd 18.6061 18.6172 7.15426
Pd 18.5829 20.4803 9.09107
Pd 20.4702 18.5927 9.09009
Co 20.4905 20.5013 7.19665
Pd 18.565 18.5741 10.9666
Pd 18.5644 20.4762 12.8838
Pd 20.4681 18.5723 12.8828
Co 20.48 20.4888 11.0043
Pd 18.56 18.5672 14.7735
Pd 18.571 20.4813 16.6858
Pd 20.4752 18.5768 16.6848
Co 20.4748 20.4817 14.794
Pd 18.5711 18.5763 18.5814
Pd 18.5797 20.4875 20.4934
Pd 20.4834 18.5836 20.4924
Co 20.4828 20.4877 18.594
Pd 18.5793 18.5825 22.3974
Pd 18.5865 20.4906 24.3103
Pd 20.4884 18.5884 24.3093
Co 20.4894 20.4923 22.4033
Pd 18.583 18.5842 26.2197
Pd 18.5869 20.4891 28.1307
Pd 20.4889 18.5869 28.1297
Co 20.4924 20.4934 26.2203
Pd 18.5802 18.5794 30.0421
Pd 18.5811 20.483 31.9476
Pd 20.4847 18.579 31.9466
Co 20.4903 20.4892 30.0373
Pd 18.5729 18.5702 33.8581
Pd 18.5732 20.4737 35.7552
Pd 20.4774 18.5692 35.7542
Co 20.4846 20.4816 33.8465
Pd 18.5627 18.558 37.666
Pd 18.5676 20.4656 39.5573
Pd 20.4713 18.5616 39.5563
Co 20.4775 20.4725 37.6466
Pd 18.5686 18.5619 41.4729
Pd 18.5869 20.4666 43.3499
Pd 20.4743 18.579 43.349
Co 20.4836 20.4767 41.4363
Pd 18.6106 18.602 45.2853
Pd 18.6405 20.5181 47.1491
Pd 20.5278 18.6306 47.1481
Co 20.495 20.4861 45.2439
Co 20.6117 20.6009 48.8691
Pd 18.7424 22.5352 3.44522
Pd 18.6588 24.3395 5.38219
Pd 20.5484 22.4503 5.36684
Co 20.5645 24.36 3.51869
Pd 18.6087 22.4034 7.20994
Pd 18.5918 24.305 9.12401
Pd 20.4955 22.4022 9.11988
Co 20.5337 24.3316 7.25413
Pd 18.5758 22.387 11.0012
Pd 18.5755 24.3074 12.9049
Pd 20.4793 22.3947 12.9106
Co 20.4886 24.3093 11.0285
Pd 18.5716 22.3921 14.7936
Pd 18.5766 24.3094 16.6971
Pd 20.4814 22.3963 16.7001
Co 20.4812 24.3103 14.8102
Pd 18.5785 22.3962 18.5939
Pd 18.5856 24.311 20.5005
Pd 20.4889 22.4 20.5015
Co 20.4867 24.3111 18.6029
Pd 18.5871 22.3993 22.4039
Pd 18.5925 24.311 24.3134
Pd 20.4943 22.4017 24.313
Co 20.4939 24.312 22.4082
Pd 18.591 22.3993 26.2213
Pd 18.593 24.3094 28.1307
Pd 20.4947 22.4002 28.1291
Co 20.4969 24.3113 26.2218
Pd 18.588 22.3962 30.0386
Pd 18.5869 24.3064 31.9436
Pd 20.4903 22.3954 31.9406
Co 20.4948 24.309 30.0354
Pd 18.5803 22.3901 33.8487
Pd 18.5788 24.3018 35.747
Pd 20.4837 22.3887 35.742
Co 20.4885 24.305 33.8407
Pd 18.5743 22.3829 37.649
Pd 18.5787 24.2968 39.5392
Pd 20.4824 22.3841 39.5314
Co 20.4839 24.3012 37.6334
Pd 18.5794 22.3748 41.4413
Pd 18.5958 24.2914 43.3201
Pd 20.4996 22.3885 43.3222