4033
Atoms. Timestep: 20141
Co 5.48003 13.0157 26.214
Pd 3.55241 16.7302 24.3422
Pd 5.34377 14.7999 24.2724
Co 5.36758 16.7463 22.4354
Pd 3.62722 14.8593 26.2148
Pd 3.55216 16.7283 28.0893
Pd 5.3435 14.7979 28.1574
Co 5.37931 16.7096 26.2159
Co 5.36707 16.7425 29.9964
Pd 3.5267 20.5393 20.5328
Pd 5.29809 18.5999 20.4899
Co 5.35833 20.55 18.6359
Pd 3.5326 18.6364 22.436
Pd 3.44065 20.509 24.3122
Pd 5.34648 18.6359 24.3375
Co 5.32636 20.5169 22.4132
Pd 3.45892 18.6044 26.2167
Pd 3.44039 20.5071 28.1232
Pd 5.34622 18.634 28.0962
Co 5.29991 20.5259 26.2178
Pd 3.53209 18.6326 29.9975
Pd 3.52593 20.5335 31.9026
Pd 5.29732 18.594 31.9438
Co 5.32584 20.5131 30.0225
Co 5.35731 20.5423 33.7998
Pd 3.5533 24.3491 16.7292
Pd 5.31577 22.4074 16.6869
Co 5.40954 24.3529 14.8366
Pd 3.53539 22.4459 18.625
Pd 3.4439 24.3213 20.502
Pd 5.33463 22.4406 20.5337
Co 5.34502 24.3183 18.614
Pd 3.43502 22.4147 22.4078
Pd 3.41577 24.3171 24.3137
Pd 5.28963 22.4182 24.3133
Co 5.28688 24.3272 22.419
Pd 3.4226 22.4123 26.2187
Pd 3.41551 24.3151 28.1255
Pd 5.28938 22.4163 28.1243
Co 5.27137 24.3183 26.2198
Pd 3.4345 22.4108 30.0295
Pd 3.44312 24.3154 31.9373
Pd 5.33386 22.4348 31.9038
Co 5.28637 24.3233 30.0205
Pd 3.53437 22.4382 33.8124
Pd 3.55202 24.3394 35.7101
Pd 5.31448 22.3977 35.7507
Co 5.34399 24.3105 33.8255
Co 5.408 24.3413 37.603
Pd 5.398 26.2284 12.9629
Pd 3.62356 26.2273 14.8583
Pd 3.55321 28.1037 16.7311
Pd 5.39702 26.2264 16.7473
Co 5.40945 28.1019 14.8385
Pd 3.46559 26.2254 18.5997
Pd 3.4438 28.1277 20.5039
Pd 5.30658 26.2245 20.5103
Co 5.34492 28.1327 18.6159
Pd 3.42399 26.2235 22.407
Pd 3.41567 28.128 24.3157
Pd 5.27568 26.2226 24.3209
Co 5.28679 28.1199 22.4209
Pd 3.40839 26.2216 26.2206
Pd 3.41541 28.126 28.1275
Pd 5.27542 26.2206 28.1206
Co 5.27128 28.1249 26.2217
Pd 3.42348 26.2196 30.0342
Pd 3.44303 28.1219 31.9392
Pd 5.3058 26.2187 31.9311
Co 5.28627 28.116 30.0224
Pd 3.46456 26.2177 33.8415
Pd 3.55193 28.094 35.7121
Pd 5.39574 26.2168 35.6941
Co 5.34389 28.1249 33.8275
Pd 3.62203 26.2158 37.583
Pd 5.3962 26.2148 39.4786
Co 5.40791 28.0903 37.6049
Pd 5.31558 30.0455 16.6908
Pd 3.53521 30.0049 18.6289
Pd 3.52642 31.9096 20.5386
Pd 5.33444 30.0084 20.5376
Co 5.35805 31.9009 18.6417
Pd 3.43483 30.0323 22.4117
Pd 3.44036 31.936 24.318
Pd 5.28944 30.0269 24.3171
Co 5.32607 31.9301 22.419
Pd 3.42241 30.0309 26.2225
Pd 3.4401 31.9341 28.129
Pd 5.28919 30.025 28.1282
Co 5.29962 31.9173 26.2236
Pd 3.43431 30.0284 30.0334
Pd 3.52565 31.9038 31.9084
Pd 5.33367 30.0026 31.9077
Co 5.32556 31.9263 30.0283
Pd 3.53418 29.9972 33.8162
Pd 5.31429 30.0358 35.7546
Co 5.35702 31.8932 33.8055
Pd 5.29771 33.8492 20.4977
Pd 3.53222 33.8105 22.4437
Pd 3.55194 35.7148 24.3519
Pd 5.3461 33.8092 24.3452
Co 5.36711 35.7007 22.445
Pd 3.45854 33.8387 26.2245
Pd 3.55168 35.7129 28.099
Pd 5.34585 33.8073 28.104
Co 5.37884 35.7336 26.2256
Pd 3.53171 33.8067 30.0052
Pd 5.29694 33.8433 31.9515
Co 5.3666 35.6969 30.0061
Pd 5.3432 37.6453 24.284
Pd 3.62665 37.5838 26.2264
Pd 5.34293 37.6433 28.1691
Co 5.47938 39.4275 26.2275
Co 9.235 9.23382 26.2123
Pd 7.23172 12.879 24.2885
Pd 9.0946 11.0015 24.2896
Co 9.13177 12.92 22.4088
Pd 7.29012 11.0649 26.2131
Pd 7.23146 12.8771 28.1396
Pd 9.09434 10.9995 28.1369
Co 9.09739 12.8817 26.2142
Co 9.13126 12.9162 30.0196
Pd 7.19436 16.6759 20.48
Pd 9.06777 14.7786 20.4632
Co 9.11327 16.7194 18.605
Pd 7.21363 14.7896 22.3585
Pd 7.21512 16.6862 24.2902
Pd 9.08895 14.7795 24.2858
Co 9.07719 16.6684 22.3612
Pd 7.23662 14.8077 26.215
Pd 7.21486 16.6842 28.1418
Pd 9.08869 14.7775 28.1445
Co 9.10746 16.6874 26.2161
Pd 7.21311 14.7857 30.0715
Pd 7.19359 16.6701 31.9519
Pd 9.067 14.7728 31.9671
Co 9.07667 16.6645 30.071
Co 9.11224 16.7117 33.8273
Pd 7.1975 20.4801 16.6795
Pd 9.06217 18.5828 16.6666
Co 9.12421 20.5239 14.8032
Pd 7.19142 18.5959 18.5642
Pd 7.19426 20.4905 20.4925
Pd 9.07448 18.5815 20.4733
Co 9.07164 20.4707 18.5631
Pd 7.19841 18.5989 22.3823
Pd 7.21379 20.5172 24.3127
Pd 9.10068 18.5898 24.2903
Co 9.09842 20.4978 22.3952
Pd 7.23575 18.6027 26.217
Pd 7.21354 20.5152 28.1232
Pd 9.10042 18.5878 28.1438
Co 9.11027 20.5041 26.2181
Pd 7.19789 18.595 30.0516
Pd 7.19348 20.4847 31.9433
Pd 9.0737 18.5757 31.9608
Co 9.0979 20.4939 30.0409
Pd 7.19038 18.5881 33.8698
Pd 7.19621 20.4703 35.7563
Pd 9.06087 18.5731 35.7676
Co 9.0706 20.4629 33.873
Co 9.12267 20.5123 37.633
Pd 7.23749 24.3044 12.8843
Pd 9.08736 22.3978 12.8664
Co 9.16972 24.359 11.0263
Pd 7.2149 22.3997 14.7588
Pd 7.2304 24.2908 16.6926
Pd 9.08683 22.3809 16.6745
Co 9.0967 24.2833 14.766
Pd 7.20237 22.3992 18.5841
Pd 7.2161 24.3217 20.5112
Pd 9.09537 22.396 20.4909
Co 9.10973 24.3055 18.5936
Pd 7.20898 22.4155 22.4159
Pd 7.18617 24.3212 24.3185
Pd 9.10639 22.4163 24.3178
Co 9.10653 24.316 22.4123
Pd 7.19059 22.4191 26.2189
Pd 7.18591 24.3193 28.1213
Pd 9.10613 22.4143 28.1202
Co 9.10025 24.3194 26.22
Pd 7.20847 22.4116 30.022
Pd 7.21532 24.3159 31.9286
Pd 9.0946 22.3901 31.9471
Co 9.10601 24.3122 30.0277
Pd 7.20133 22.3914 33.8537
Pd 7.22911 24.2811 35.7472
Pd 9.08554 22.3711 35.7635
Co 9.1087 24.2977 33.8464
Pd 7.21335 22.388 37.679
Pd 7.23569 24.2908 39.5554
Pd 9.08556 22.3842 39.5717
Co 9.09515 24.2716 37.674
Co 9.16766 24.3435 41.4138
Pd 9.17739 26.2304 9.16572
Pd 7.32186 26.2294 11.025
Pd 7.2374 28.1525 12.8863
Pd 9.12288 26.2285 12.9049
Co 9.16962 28.0999 11.0282
Pd 7.25615 26.2275 14.7896
Pd 7.2303 28.1622 16.6945
Pd 9.11035 26.2266 16.6863
Co 9.0966 28.1718 14.768
Pd 7.24046 26.2255 18.6152
Pd 7.216 28.1274 20.5131
Pd 9.11634 26.2246 20.5154
Co 9.10964 28.1457 18.5956
Pd 7.19213 26.2236 22.418
Pd 7.18608 28.124 24.3204
Pd 9.09987 26.2227 24.3177
Co 9.10643 28.1312 22.4143
Pd 7.1808 26.2216 26.2208
Pd 7.18582 28.1221 28.1232
Pd 9.09962 26.2207 28.1242
Co 9.10016 28.124 26.2219
Pd 7.19162 26.2197 30.0237
Pd 7.21523 28.1216 31.9305
Pd 9.11557 26.2188 31.9265
Co 9.10592 28.1274 30.0296
Pd 7.23943 26.2178 33.8265
Pd 7.22901 28.1524 35.7491
Pd 9.10906 26.2168 35.7557
Co 9.10861 28.1379 33.8484
Pd 7.2546 26.2158 37.6521
Pd 7.23559 28.1389 39.5574
Pd 9.12108 26.2149 39.5371
Co 9.09505 28.1601 37.676
Pd 7.3198 26.2139 41.4167
Pd 9.17508 26.213 43.2763
Co 9.16757 28.0844 41.4157
Pd 9.08717 30.0592 12.8703
Pd 7.21471 30.0553 14.7627
Pd 7.19721 31.973 16.6854
Pd 9.08664 30.0723 16.6784
Co 9.12393 31.9311 14.809
Pd 7.20218 30.0519 18.588
Pd 7.19397 31.9586 20.4984
Pd 9.09518 30.0533 20.4948
Co 9.07135 31.9805 18.569
Pd 7.20879 30.0317 22.4197
Pd 7.21351 31.9281 24.3185
Pd 9.1062 30.0291 24.3217
Co 9.09813 31.9495 22.401
Pd 7.1904 30.0242 26.2228
Pd 7.21325 31.9261 28.129
Pd 9.10594 30.0271 28.1241
Co 9.10998 31.9393 26.2239
Pd 7.20828 30.0278 30.0258
Pd 7.1932 31.9528 31.9492
Pd 9.0944 30.0474 31.951
Co 9.09761 31.9456 30.0468
Pd 7.20114 30.0441 33.8576
Pd 7.19592 31.9632 35.7622
Pd 9.08535 30.0625 35.7674
Co 9.07031 31.9727 33.8788
Pd 7.21316 30.0436 37.6829
Pd 9.08537 30.0455 39.5756
Co 9.12239 31.9195 37.6388
Pd 9.06179 33.8703 16.6744
Pd 7.19104 33.8551 18.5719
Pd 7.19389 35.7732 20.4898
Pd 9.0741 33.8677 20.4811
Co 9.11279 35.7317 18.6147
Pd 7.19803 33.8483 22.3901
Pd 7.21465 35.7591 24.2999
Pd 9.1003 33.8556 24.2981
Co 9.07671 35.7789 22.371
Pd 7.23537 33.8406 26.2247
Pd 7.21439 35.7571 28.1515
Pd 9.10004 33.8536 28.1516
Co 9.10698 35.756 26.2258
Pd 7.19751 33.8444 30.0594
Pd 7.19311 35.7674 31.9617
Pd 9.07332 33.8618 31.9686
Co 9.07619 35.7749 30.0807
Pd 7.19 33.8473 33.8775
Pd 9.06049 33.8606 35.7754
Co 9.11176 35.724 33.837
Pd 9.0672 37.6706 20.4748
Pd 7.21306 37.6576 22.3702
Pd 7.23106 39.5662 24.3021
Pd 9.08838 37.6659 24.2974
Co 9.13111 39.5272 22.4224
Pd 7.23605 37.6356 26.2267
Pd 7.2308 39.5643 28.1532
Pd 9.08812 37.6639 28.1562
Co 9.09673 39.5617 26.2278
Pd 7.21254 37.6537 30.0832
Pd 9.06642 37.6647 31.9788
Co 9.13059 39.5233 30.0332
Pd 9.09384 41.4439 24.3051
Pd 7.28937 41.3784 26.2286
Pd 9.09358 41.4419 28.1524
Co 9.23415 43.2096 26.2296
Co 13.0171 5.47904 26.2107
Pd 11.0018 9.09436 24.2887
Pd 12.8795 7.23158 24.286
Co 12.9195 9.13246 22.4071
Pd 11.0662 7.28903 26.2115
Pd 11.0016 9.0924 28.136
Pd 12.8792 7.22961 28.1371
Co 12.8829 9.09639 26.2125
Co 12.919 9.12858 30.0179
Pd 10.974 12.8585 20.4625
Pd 12.8571 10.9755 20.4617
Co 12.9038 12.9062 18.5939
Pd 10.9859 10.9865 22.357
Pd 10.9833 12.8721 24.284
Pd 12.8724 10.9832 24.2831
Co 12.8584 12.8591 22.3544
Pd 11.0125 11.0114 26.2134
Pd 10.983 12.8702 28.1446
Pd 12.8721 10.9812 28.1438
Co 12.8848 12.8838 26.2144
Pd 10.9853 10.9825 30.0696
Pd 10.9732 12.8527 31.966
Pd 12.8563 10.9697 31.9652
Co 12.8578 12.8551 30.0744
Co 12.9028 12.8984 33.835
Pd 10.9672 16.6586 16.6599
Pd 12.8478 14.7678 16.6542
Co 12.9014 16.7077 14.7918
Pd 10.9701 14.7735 18.5434
Pd 10.9716 16.6629 20.4623
Pd 12.8572 14.7644 20.4575
Co 12.8505 16.6519 18.5436
Pd 10.977 14.7722 22.3604
Pd 10.9831 16.6743 24.2905
Pd 12.8737 14.7708 24.2884
Co 12.8758 16.6724 22.3793
Pd 10.9811 14.7704 26.2153
Pd 10.9829 16.6724 28.142
Pd 12.8735 14.7688 28.1424
Co 12.8774 16.6719 26.2164
Pd 10.9764 14.7683 30.0702
Pd 10.9708 16.657 31.9702
Pd 12.8564 14.7585 31.9733
Co 12.8753 16.6685 30.0534
Pd 10.9691 14.7656 33.8872
Pd 10.9659 16.6489 35.7726
Pd 12.8465 14.7581 35.7766
Co 12.8494 16.6441 33.8891
Co 12.8999 16.696 37.641
Pd 10.9818 20.4694 12.8611
Pd 12.8552 18.5762 12.8556
Co 12.9189 20.5236 10.9992
Pd 10.9717 18.5785 14.7432
Pd 10.9755 20.4656 16.6639
Pd 12.8558 18.5645 16.6563
Co 12.8561 20.4584 14.7478
Pd 10.9702 18.5717 18.5553
Pd 10.9812 20.482 20.4772
Pd 12.8723 18.5705 20.4693
Co 12.8763 20.4786 18.573
Pd 10.983 18.576 22.3803
Pd 10.9962 20.4923 24.3037
Pd 12.8824 18.5793 24.3008
Co 12.8848 20.4842 22.3904
Pd 10.9905 18.5823 26.2172
Pd 10.996 20.4903 28.1327
Pd 12.8822 18.5774 28.1338
Co 12.8913 20.4871 26.2183
Pd 10.9825 18.5721 30.0541
Pd 10.9805 20.4762 31.9591
Pd 12.8715 18.5646 31.9654
Co 12.8843 20.4803 30.0462
Pd 10.9692 18.5639 33.8791
Pd 10.9742 20.4559 35.7725
Pd 12.8545 18.5547 35.7784
Co 12.8752 20.4708 33.8636
Pd 10.9702 18.5669 37.6912
Pd 10.98 20.4558 39.5752
Pd 12.8534 18.5626 39.5791
Co 12.8546 20.4467 37.6888
Co 12.9168 20.5081 41.4375
Pd 11.0255 24.3092 9.0882
Pd 12.8853 22.4019 9.07233
Co 12.973 24.3612 7.24233
Pd 10.9977 22.4014 10.9524
Pd 11.0007 24.2925 12.8787
Pd 12.8702 22.3797 12.8669
Co 12.8842 24.2845 10.9705
Pd 10.9824 22.3807 14.7589
Pd 10.9872 24.3004 16.6744
Pd 12.875 22.3833 16.6702
Co 12.8843 24.3037 14.779
Pd 10.9842 22.386 18.5776
Pd 10.9995 24.307 20.4943
Pd 12.8863 22.393 20.4879
Co 12.8844 24.305 18.5831
Pd 10.996 22.3993 22.3986
Pd 11.0066 24.3144 24.3128
Pd 12.8968 22.3986 24.3068
Co 12.8977 24.3093 22.4009
Pd 11.0068 22.4032 26.2192
Pd 11.0063 24.3125 28.1275
Pd 12.8966 22.3967 28.1318
Co 12.9038 24.3101 26.2203
Pd 10.9955 22.3954 30.0397
Pd 10.9987 24.3012 31.946
Pd 12.8855 22.3871 31.9506
Co 12.8972 24.3054 30.0396
Pd 10.9832 22.3783 33.8607
Pd 10.9859 24.2907 35.7659
Pd 12.8737 22.3736 35.7683
Co 12.8834 24.2972 33.8575
Pd 10.9809 22.369 37.6794
Pd 10.9989 24.2789 39.5615
Pd 12.8684 22.3661 39.5716
Co 12.8827 24.2921 37.6615
Pd 10.9957 22.3858 41.4859
Pd 11.0232 24.2918 43.3521
Pd 12.883 22.3845 43.3662
Co 12.8822 24.269 41.47
Co 12.9704 24.3419 45.1982
Pd 13.0055 26.2324 5.37554
Pd 11.1279 26.2314 7.22874
Pd 11.0254 28.1517 9.09015
Pd 12.9159 26.2305 9.12009
Co 12.9729 28.1017 7.24424
Pd 11.035 26.2295 10.9901
Pd 11.0006 28.1645 12.8807
Pd 12.8917 26.2286 12.8835
Co 12.8841 28.1746 10.9725
Pd 10.9965 26.2276 14.7818
Pd 10.9871 28.1528 16.6764
Pd 12.8841 26.2266 16.6852
Co 12.8842 28.1515 14.781
Pd 10.9968 26.2256 18.5889
Pd 10.9994 28.1423 20.4962
Pd 12.8929 26.2247 20.4944
Co 12.8843 28.1463 18.585
Pd 11.008 26.2237 22.4091
Pd 11.0065 28.131 24.3147
Pd 12.9047 26.2228 24.3141
Co 12.8976 28.1382 22.4029
Pd 11.0052 26.2217 26.2211
Pd 11.0062 28.1291 28.1294
Pd 12.9045 26.2208 28.1283
Co 12.9038 28.1335 26.2222
Pd 11.0075 26.2198 30.0331
Pd 10.9986 28.1364 31.948
Pd 12.8921 26.2189 31.9481
Co 12.8971 28.1343 30.0416
Pd 10.9958 26.2179 33.8533
Pd 10.9858 28.1431 35.7678
Pd 12.8828 26.2169 35.7573
Co 12.8833 28.1386 33.8594
Pd 10.995 26.2159 37.6605
Pd 10.9988 28.1509 39.5635
Pd 12.8899 26.215 39.5589
Co 12.8826 28.1398 37.6634
Pd 11.033 26.214 41.4521
Pd 11.0231 28.1343 43.354
Pd 12.9136 26.2131 43.3224
Co 12.8821 28.159 41.472
Pd 11.1253 26.2121 45.2135
Pd 13.0027 26.2112 47.067
Co 12.9703 28.0823 45.2002
Pd 12.8851 30.0591 9.07623
Pd 10.9975 30.0577 10.9563
Pd 10.9815 31.9877 12.867
Pd 12.87 30.0775 12.8709
Co 12.9186 31.9355 11.005
Pd 10.9822 30.0744 14.7628
Pd 10.9752 31.9876 16.6697
Pd 12.8748 30.07 16.6741
Co 12.8558 31.9969 14.7537
Pd 10.984 30.0652 18.5815
Pd 10.9809 31.9673 20.4831
Pd 12.8861 30.0564 20.4918
Co 12.876 31.9727 18.5788
Pd 10.9959 30.0481 22.4025
Pd 10.996 31.9532 24.3095
Pd 12.8967 30.0469 24.3107
Co 12.8845 31.9632 22.3962
Pd 11.0066 30.0403 26.2231
Pd 10.9957 31.9512 28.1385
Pd 12.8964 30.0449 28.1357
Co 12.891 31.9565 26.2242
Pd 10.9953 30.0442 30.0436
Pd 10.9802 31.9614 31.965
Pd 12.8853 30.0506 31.9546
Co 12.884 31.9593 30.0521
Pd 10.983 30.0574 33.8646
Pd 10.9739 31.9779 35.7784
Pd 12.8735 30.0602 35.7723
Co 12.8749 31.9649 33.8695
Pd 10.9807 30.0628 37.6833
Pd 10.9797 31.9741 39.5811
Pd 12.8682 30.0639 39.5755
Co 12.8543 31.9852 37.6947
Pd 10.9955 30.0421 41.4898
Pd 12.8828 30.0416 43.3701
Co 12.9165 31.92 41.4433
Pd 12.8548 33.881 12.8634
Pd 10.9714 33.8766 14.751
Pd 10.9667 35.7946 16.6696
Pd 12.8554 33.8889 16.6641
Co 12.9009 35.7476 14.8015
Pd 10.9698 33.8796 18.5631
Pd 10.9711 35.7865 20.472
Pd 12.8719 33.8789 20.4771
Co 12.85 35.7995 18.5534
Pd 10.9826 33.8713 22.3881
Pd 10.9826 35.7711 24.3003
Pd 12.882 33.8662 24.3086
Co 12.8753 35.775 22.389
Pd 10.9901 33.8612 26.225
Pd 10.9824 35.7692 28.1517
Pd 12.8818 33.8643 28.1416
Co 12.8769 35.7717 26.2261
Pd 10.9821 33.8674 30.0619
Pd 10.9703 35.7806 31.9799
Pd 12.8711 33.8731 31.9732
Co 12.8748 35.7711 30.0632
Pd 10.9688 33.8718 33.8869
Pd 10.9654 35.7849 35.7823
Pd 12.8541 33.8791 35.7862
Co 12.849 35.7917 33.8989
Pd 10.9698 33.8649 37.699
Pd 12.853 33.8674 39.5869
Co 12.8994 35.7359 37.6507
Pd 12.8473 37.6855 16.6659
Pd 10.9696 37.6778 18.555
Pd 10.9733 39.5908 20.4762
Pd 12.8566 37.6851 20.4692
Co 12.9032 39.5452 18.6075
Pd 10.9764 37.6752 22.3721
Pd 10.9826 39.5733 24.2976
Pd 12.8731 37.6748 24.3001
Co 12.8577 39.5884 22.3681
Pd 10.9805 37.673 26.2269
Pd 10.9824 39.5713 28.1582
Pd 12.8729 37.6728 28.154
Co 12.8842 39.5597 26.228
Pd 10.9759 37.6712 30.0818
Pd 10.9725 39.585 31.9797
Pd 12.8559 37.6792 31.985
Co 12.8572 39.5845 30.088
Pd 10.9685 37.67 33.8988
Pd 12.846 37.6757 35.7883
Co 12.9021 39.5374 33.8486
Pd 12.8563 41.4739 20.4773
Pd 10.9851 41.4609 22.3726
Pd 11.001 43.3511 24.3062
Pd 12.8716 41.4624 24.2987
Co 12.9187 43.315 22.4246
Pd 11.0118 41.4321 26.2289
Pd 11.0007 43.3491 28.1535
Pd 12.8714 41.4604 28.1593
Co 12.882 43.3472 26.23
Pd 10.9846 41.457 30.0852
Pd 12.8555 41.468 31.9808
Co 12.9182 43.3111 30.0353
Pd 12.8785 45.214 24.3053
Pd 11.0653 45.1545 26.2308
Pd 12.8783 45.212 28.1565
Co 13.016 46.9645 26.2318
Pd 14.8004 5.34372 24.2682
Pd 16.7308 3.55243 24.3364
Co 16.746 5.36845 22.4303
Pd 14.8607 3.62632 26.2099
Pd 14.8001 5.34174 28.1532
Pd 16.7306 3.55052 28.0835
Co 16.711 5.37851 26.2109
Co 16.7455 5.36459 29.9914
Pd 14.7773 9.06941 20.4606
Pd 16.6747 7.19609 20.4759
Co 16.7172 9.11582 18.6016
Pd 14.7892 7.21443 22.3552
Pd 14.7798 9.0889 24.2833
Pd 16.6866 7.21517 24.286
Co 16.6679 9.07808 22.3579
Pd 14.809 7.23572 26.2117
Pd 14.7796 9.08693 28.142
Pd 16.6863 7.21321 28.1376
Co 16.6886 9.10665 26.2128
Pd 14.7887 7.2105 30.0682
Pd 14.7765 9.06355 31.9646
Pd 16.6739 7.19024 31.9477
Co 16.6674 9.07415 30.0676
Co 16.7162 9.10807 33.8239
Pd 14.7646 12.8512 16.6533
Pd 16.6555 10.9706 16.6574
Co 16.7036 12.9056 14.7901
Pd 14.7712 10.9726 18.5417
Pd 14.7628 12.8589 20.4566
Pd 16.6614 10.9733 20.4598
Co 16.6495 12.8531 18.5419
Pd 14.7716 10.9778 22.3587
Pd 14.7709 12.8737 24.2876
Pd 16.6746 10.9832 24.288
Co 16.6717 12.8767 22.3776
Pd 14.7715 10.9802 26.2136
Pd 14.7706 12.8717 28.1415
Pd 16.6743 10.9812 28.1394
Co 16.6729 12.8766 26.2147
Pd 14.7711 10.9738 30.0685
Pd 14.762 12.853 31.9725
Pd 16.6606 10.9674 31.9677
Co 16.6712 12.8728 30.0518
Pd 14.7701 10.9648 33.8855
Pd 14.7633 12.8414 35.7758
Pd 16.6542 10.9609 35.7701
Co 16.6485 12.8452 33.8874
Co 16.7021 12.894 37.6393
Pd 14.7668 16.6564 12.8536
Pd 16.6514 14.7719 12.8527
Co 16.711 16.7169 10.9926
Pd 14.7638 14.768 14.7364
Pd 14.7578 16.6535 16.6528
Pd 16.6502 14.7612 16.652
Co 16.6457 16.65 14.7426
Pd 14.7593 14.7618 18.5457
Pd 14.7644 16.6661 20.4666
Pd 16.6644 14.7662 20.4657
Co 16.6659 16.6684 18.5671
Pd 14.7654 14.7662 22.3747
Pd 14.7758 16.6733 24.2988
Pd 16.6734 14.7758 24.298
Co 16.6722 16.6731 22.3861
Pd 14.774 14.7731 26.2155
Pd 14.7755 16.6714 28.1342
Pd 16.6731 14.7738 28.1333
Co 16.6775 16.6767 26.2166
Pd 14.7649 14.7623 30.0563
Pd 14.7637 16.6602 31.9664
Pd 16.6637 14.7603 31.9656
Co 16.6717 16.6692 30.0471
Pd 14.7583 14.754 33.8854
Pd 14.7565 16.6438 35.7801
Pd 16.6489 14.7515 35.7793
Co 16.6648 16.6606 33.8661
Pd 14.7623 14.7563 37.6946
Pd 14.765 16.6428 39.5794
Pd 16.6496 14.7583 39.5786
Co 16.6442 16.6383 37.6906
Co 16.709 16.7014 41.4407
Pd 14.7908 20.476 9.06905
Pd 16.6738 18.5933 9.06137
Co 16.749 20.5451 7.21577
Pd 14.777 18.5806 10.9417
Pd 14.7673 20.4636 12.8636
Pd 16.6548 18.5667 12.8614
Co 16.6607 20.4634 10.9612
Pd 14.7598 18.564 14.7489
Pd 14.765 20.4734 16.666
Pd 16.6625 18.5662 16.6647
Co 16.6679 20.477 14.7752
Pd 14.7641 18.5666 18.5655
Pd 14.7786 20.4818 20.4831
Pd 16.6732 18.5762 20.4817
Co 16.6725 20.4806 18.5794
Pd 14.7766 18.5763 22.3881
Pd 14.7861 20.4859 24.3053
Pd 16.6803 18.5805 24.3042
Co 16.6827 20.4866 22.3964
Pd 14.7804 18.5772 26.2175
Pd 14.7858 20.484 28.1316
Pd 16.68 18.5786 28.131
Co 16.6859 20.4868 26.2186
Pd 14.7761 18.5724 30.0469
Pd 14.7778 20.476 31.9538
Pd 16.6724 18.5704 31.9535
Co 16.6822 20.4827 30.0407
Pd 14.7631 18.5588 33.8694
Pd 14.7637 20.4637 35.7708
Pd 16.6612 18.5565 35.7705
Co 16.6714 20.4728 33.8577
Pd 14.7582 18.5523 37.686
Pd 14.7655 20.4499 39.5733
Pd 16.6529 18.553 39.5738
Co 16.6663 20.4653 37.6619
Pd 14.7749 18.5651 41.4933
Pd 14.7885 20.4585 43.3678
Pd 16.6715 18.5758 43.3738
Co 16.6586 20.4479 41.4759
Co 16.7464 20.5257 45.2214
Pd 14.8493 24.312 5.33342
Pd 16.7408 22.4267 5.30359
Co 16.8404 24.3887 3.59905
Pd 14.8175 22.4031 7.17108
Pd 14.8016 24.2938 9.09785
Pd 16.6823 22.3868 9.093
Co 16.706 24.287 7.21345
Pd 14.7783 22.3814 10.9681
Pd 14.7752 24.301 12.879
Pd 16.6705 22.3844 12.8807
Co 16.6848 24.3063 11
Pd 14.7687 22.3828 14.7725
Pd 14.7775 24.3059 16.6824
Pd 16.6729 22.3917 16.6839
Co 16.6737 24.3055 14.7881
Pd 14.7776 22.3917 18.5813
Pd 14.7864 24.3086 20.4916
Pd 16.6825 22.396 20.4919
Co 16.6805 24.3093 18.5909
Pd 14.7887 22.3955 22.3973
Pd 14.7971 24.309 24.3098
Pd 16.69 22.3972 24.3093
Co 16.6898 24.3097 22.4018
Pd 14.7928 22.3958 26.2194
Pd 14.7969 24.307 28.131
Pd 16.6897 22.3953 28.1298
Co 16.6945 24.3084 26.2205
Pd 14.7882 22.3916 30.0415
Pd 14.7856 24.3028 31.9491
Pd 16.6817 22.3902 31.9472
Co 16.6893 24.3058 30.0393
Pd 14.7766 22.3839 33.8575
Pd 14.7762 24.2962 35.7583
Pd 16.6716 22.3819 35.7551
Co 16.6795 24.3015 33.8501
Pd 14.7672 22.3712 37.6663
Pd 14.7734 24.2874 39.5617
Pd 16.6687 22.3708 39.5584
Co 16.6721 24.2939 37.6529
Pd 14.7763 22.3659 41.4707
Pd 14.7993 24.2764 43.3429
Pd 16.6799 22.3694 43.3461
Co 16.6827 24.2908 41.441
Pd 14.8149 22.3837 45.2678
Pd 14.8465 24.2907 47.1074
Pd 16.738 22.4054 47.1355
Co 16.7034 24.2677 45.2276
Co 16.8373 24.3656 48.8421
Pd 15.0334 26.2334 3.50799
Pd 14.8492 28.153 5.33538
Pd 16.7679 26.2325 5.41821
Co 16.8403 28.0782 3.60093
Pd 14.8384 26.2315 7.22323
Pd 14.8015 28.1673 9.09982
Pd 16.7001 26.2306 9.11219
Co 16.7059 28.1761 7.21543
Pd 14.7909 26.2296 10.9943
Pd 14.7751 28.1562 12.881
Pd 16.6784 26.2287 12.8985
Co 16.6847 28.1529 11.002
Pd 14.7802 26.2277 14.7855
Pd 14.7774 28.1475 16.6844
Pd 16.6779 26.2267 16.692
Co 16.6736 28.1499 14.7901
Pd 14.7829 26.2257 18.5889
Pd 14.7863 28.1409 20.4936
Pd 16.6862 26.2248 20.4975
Co 16.6804 28.1423 18.5929
Pd 14.7935 26.2238 22.402
Pd 14.797 28.1367 24.3117
Pd 16.6947 26.2229 24.3115
Co 16.6897 28.138 22.4037
Pd 14.8013 26.2218 26.2214
Pd 14.7968 28.1347 28.133
Pd 16.6944 26.2209 28.1315
Co 16.6944 28.1353 26.2225
Pd 14.793 26.2199 30.0408
Pd 14.7855 28.135 31.9511
Pd 16.6854 26.219 31.9455
Co 16.6892 28.1341 30.0412
Pd 14.7818 26.2179 33.8538
Pd 14.7761 28.1377 35.7603
Pd 16.6766 26.217 35.751
Co 16.6794 28.1345 33.8521
Pd 14.7787 26.216 37.6572
Pd 14.7733 28.1426 39.5637
Pd 16.6765 26.2151 39.5444
Co 16.672 28.1382 37.6548
Pd 14.7889 26.2141 41.4484
Pd 14.7992 28.1499 43.3449
Pd 16.6978 26.2132 43.3308
Co 16.6826 28.1374 41.443
Pd 14.8358 26.2122 45.2195
Pd 14.8464 28.1317 47.1093
Pd 16.7651 26.2113 47.0248
Co 16.7033 28.1567 45.2295
Pd 15.0303 26.2103 48.9348
Co 16.8373 28.0551 48.844
Pd 16.7406 30.0384 5.30747
Pd 14.8173 30.06 7.17498
Pd 14.7905 31.9852 9.07491
Pd 16.6821 30.0744 9.09692
Co 16.7487 31.918 7.22157
Pd 14.7781 30.0778 10.972
Pd 14.767 31.9937 12.8694
Pd 16.6703 30.0729 12.8846
Co 16.6604 31.9959 10.967
Pd 14.7685 30.0725 14.7764
Pd 14.7647 31.98 16.6719
Pd 16.6727 30.0618 16.6878
Co 16.6676 31.9785 14.781
Pd 14.7774 30.0598 18.5852
Pd 14.7783 31.9677 20.489
Pd 16.6823 30.0536 20.4958
Co 16.6722 31.971 18.5853
Pd 14.7885 30.0521 22.4012
Pd 14.7858 31.9597 24.3112
Pd 16.6898 30.0485 24.3132
Co 16.6825 31.9611 22.4023
Pd 14.7927 30.0479 26.2233
Pd 14.7856 31.9578 28.1374
Pd 16.6895 30.0465 28.1337
Co 16.6856 31.957 26.2244
Pd 14.788 30.0482 30.0454
Pd 14.7775 31.9619 31.9596
Pd 16.6816 30.0477 31.9511
Co 16.6819 31.9572 30.0466
Pd 14.7764 30.052 33.8614
Pd 14.7634 31.9703 35.7767
Pd 16.6714 30.0521 35.7591
Co 16.6711 31.9632 33.8635
Pd 14.767 30.0608 37.6702
Pd 14.7652 31.9801 39.5792
Pd 16.6685 30.0593 39.5623
Co 16.666 31.9668 37.6678
Pd 14.7761 30.0622 41.4746
Pd 14.7882 31.9677 43.3737
Pd 16.6798 30.0569 43.35
Co 16.6583 31.9803 41.4818
Pd 14.8147 30.0406 45.2717
Pd 16.7378 30.017 47.1394
Co 16.7461 31.8987 45.2272
Pd 16.6735 33.868 9.06915
Pd 14.7766 33.8786 10.9495
Pd 14.7663 35.8009 12.8633
Pd 16.6544 33.8907 12.8692
Co 16.7105 35.7423 11.0023
Pd 14.7594 33.8914 14.7567
Pd 14.7573 35.7999 16.6626
Pd 16.6622 33.8873 16.6725
Co 16.6453 35.8055 14.7524
Pd 14.7637 33.8849 18.5733
Pd 14.764 35.7834 20.4763
Pd 16.6728 33.8734 20.4895
Co 16.6654 35.7831 18.5769
Pd 14.7763 33.8713 22.3959
Pd 14.7753 35.7723 24.3086
Pd 16.6799 33.8652 24.312
Co 16.6717 35.7746 22.3958
Pd 14.7801 33.8664 26.2253
Pd 14.775 35.7704 28.1439
Pd 16.6797 33.8632 28.1388
Co 16.677 35.7671 26.2264
Pd 14.7757 33.8674 30.0547
Pd 14.7632 35.7776 31.9761
Pd 16.672 33.8675 31.9613
Co 16.6712 35.7707 30.0569
Pd 14.7627 33.8771 33.8772
Pd 14.756 35.7901 35.7899
Pd 16.6609 33.8776 35.7783
Co 16.6644 35.7753 33.8759
Pd 14.7578 33.8797 37.6938
Pd 14.7645 35.7873 39.5891
Pd 16.6526 33.8771 39.5816
Co 16.6437 35.7938 37.7003
Pd 14.7745 33.863 41.5011
Pd 16.6712 33.8505 43.3816
Co 16.7085 35.7268 41.4504
Pd 16.6508 37.6855 12.8644
Pd 14.7632 37.6874 14.7481
Pd 14.764 39.6023 16.667
Pd 16.6496 37.6923 16.6637
Co 16.7029 39.5498 14.8037
Pd 14.7587 37.6897 18.5573
Pd 14.7622 39.5907 20.4703
Pd 16.6639 37.6834 20.4774
Co 16.6489 39.5985 18.5556
Pd 14.7648 37.6814 22.3864
Pd 14.7702 39.572 24.3012
Pd 16.6728 37.6699 24.3097
Co 16.6711 39.571 22.3912
Pd 14.7735 37.6705 26.2272
Pd 14.77 39.57 28.1551
Pd 16.6725 37.668 28.145
Co 16.6722 39.5672 26.2283
Pd 14.7643 37.6775 30.068
Pd 14.7614 39.5848 31.9861
Pd 16.6631 37.6776 31.9772
Co 16.6706 39.5671 30.0654
Pd 14.7577 37.6819 33.8971
Pd 14.7627 39.5925 35.7894
Pd 16.6484 37.6826 35.791
Co 16.6478 39.5907 33.9011
Pd 14.7617 37.6757 37.7063
Pd 16.649 37.6719 39.5902
Co 16.7014 39.5381 37.6529
Pd 16.6547 41.4829 16.6729
Pd 14.7704 41.4789 18.5572
Pd 14.7764 43.3801 20.4781
Pd 16.6607 41.4763 20.4753
Co 16.7164 43.3357 18.6191
Pd 14.7709 41.4698 22.3742
Pd 14.779 43.3567 24.3007
Pd 16.6738 41.4626 24.3035
Co 16.6671 43.3696 22.3754
Pd 14.7708 41.4635 26.2291
Pd 14.7787 43.3548 28.1595
Pd 16.6735 41.4606 28.155
Co 16.6877 43.3371 26.2302
Pd 14.7703 41.4659 30.084
Pd 14.7757 43.3743 31.9821
Pd 16.6599 41.4705 31.9832
Co 16.6665 43.3657 30.0851
Pd 14.7694 41.4711 33.901
Pd 16.6534 41.4732 35.7856
Co 16.7154 43.3279 33.8414
Pd 16.6737 45.2535 20.4953
Pd 14.7883 45.2332 22.3745
Pd 14.7993 47.1019 24.2895
Pd 16.6857 45.2306 24.3054
Co 16.745 47.0792 22.4516
Pd 14.808 45.208 26.231
Pd 14.7991 47.0999 28.1745
Pd 16.6854 45.2286 28.157
Co 16.7099 47.0653 26.2321
Pd 14.7877 45.2292 30.0876
Pd 16.6729 45.2477 31.9671
Co 16.7445 47.0753 30.0126
Pd 16.7297 48.8932 24.3595
Pd 14.8596 48.8174 26.2329
Pd 16.7294 48.8913 28.1066
Pd 18.5987 5.29991 20.484
Pd 20.5383 3.5286 20.5253
Co 20.548 5.36107 18.6292
Pd 18.6362 3.53356 22.4293
Pd 18.6364 5.3466 24.3316
Pd 20.5096 3.44087 24.3046
Co 20.5166 5.32742 22.4065
Pd 18.6059 3.45821 26.21
Pd 18.6362 5.34468 28.0903
Pd 20.5094 3.43893 28.1156
Co 20.5272 5.29929 26.2111
Pd 18.6357 3.52971 29.9908
Pd 18.5979 5.29408 31.9379
Pd 20.5375 3.5228 31.8951
Co 20.5161 5.32355 30.0157
Co 20.547 5.35334 33.793
Pd 18.5798 9.06567 16.6624
Pd 20.4771 7.2011 16.6736
Co 20.5201 9.12864 14.7981
Pd 18.5938 7.19409 18.5591
Pd 18.5802 9.0763 20.4691
Pd 20.4893 7.19617 20.4866
Co 20.4685 9.0744 18.5581
Pd 18.5985 7.19939 22.3773
Pd 18.5901 9.10082 24.2862
Pd 20.5176 7.21402 24.3068
Co 20.4973 9.09949 22.3902
Pd 18.604 7.23504 26.2119
Pd 18.5898 9.09885 28.1396
Pd 20.5173 7.21208 28.1173
Co 20.5053 9.10965 26.213
Pd 18.5979 7.19548 30.0466
Pd 18.5794 9.07045 31.9566
Pd 20.4885 7.19033 31.9375
Co 20.4968 9.09559 30.0359
Pd 18.5928 7.18629 33.8647
Pd 18.5785 9.05594 35.7634
Pd 20.4758 7.19138 35.7505
Co 20.4675 9.0666 33.8679
Co 20.5185 9.11701 37.6279
Pd 18.5713 12.8604 12.853
Pd 20.4646 10.9871 12.8569
Co 20.5179 12.925 10.9958
Pd 18.5746 10.9761 14.7399
Pd 18.5612 12.8593 16.6537
Pd 20.4625 10.9791 16.6597
Co 20.4543 12.8606 14.7444
Pd 18.5694 10.9729 18.552
Pd 18.569 12.8741 20.4668
Pd 20.4806 10.9831 20.473
Co 20.4762 12.879 18.5696
Pd 18.5754 10.984 22.3769
Pd 18.5795 12.8825 24.2983
Pd 20.4925 10.9965 24.2995
Co 20.4835 12.8859 22.387
Pd 18.5834 10.9898 26.2139
Pd 18.5792 12.8806 28.1313
Pd 20.4922 10.9945 28.1285
Co 20.4881 12.8907 26.215
Pd 18.5749 10.9801 30.0508
Pd 18.5682 12.8683 31.9628
Pd 20.4798 10.9773 31.9549
Co 20.483 12.882 30.0429
Pd 18.5684 10.9651 33.8757
Pd 18.5599 12.8496 35.7759
Pd 20.4612 10.9694 35.7683
Co 20.4752 12.8712 33.8603
Pd 18.573 10.9644 37.6878
Pd 18.5695 12.8467 39.5766
Pd 20.4628 10.9734 39.571
Co 20.4528 12.8489 37.6854
Co 20.5158 12.9095 41.4341
Pd 18.5865 16.6807 9.06052
Pd 20.4693 14.7977 9.06654
Co 20.5375 16.7567 7.2141
Pd 18.5748 14.783 10.94
Pd 18.5616 16.6599 12.8606
Pd 20.4586 14.7725 12.8611
Co 20.4575 16.6668 10.9595
Pd 18.5598 14.7641 14.7473
Pd 18.5628 16.666 16.6638
Pd 20.4701 14.7686 16.6635
Co 20.4727 16.6723 14.7735
Pd 18.5641 14.7668 18.5638
Pd 18.5745 16.675 20.4809
Pd 20.4802 14.7805 20.4806
Co 20.478 16.6752 18.5778
Pd 18.5755 14.7776 22.3864
Pd 18.5805 16.6804 24.3033
Pd 20.486 14.7863 24.3028
Co 20.4857 16.6838 22.3947
Pd 18.5781 14.7797 26.2158
Pd 18.5803 16.6785 28.1302
Pd 20.4857 14.7844 28.1291
Co 20.4876 16.6853 26.2169
Pd 18.575 14.7737 30.0452
Pd 18.5737 16.6691 31.9526
Pd 20.4794 14.7746 31.9512
Co 20.4852 16.6799 30.0391
Pd 18.5631 14.759 33.8677
Pd 18.5615 16.6563 35.7697
Pd 20.4688 14.7588 35.7683
Co 20.477 16.6674 33.856
Pd 18.5582 14.7524 37.6843
Pd 18.5598 16.6463 39.5729
Pd 20.4568 14.7589 39.5708
Co 20.4712 16.6607 37.6603
Pd 18.5727 14.7675 41.4916
Pd 18.5842 16.6632 43.373
Pd 20.467 14.7803 43.3653
Co 20.4554 16.6512 41.4743
Co 20.5349 16.7374 45.2198
Pd 18.6404 20.5364 5.29017
Pd 20.5279 18.6491 5.28933
Co 20.6115 20.6209 3.57011
Pd 18.6108 18.6185 7.15225
Pd 18.587 20.4814 9.08926
Pd 20.4745 18.594 9.08842
Co 20.495 20.5028 7.1952
Pd 18.569 18.575 10.9646
Pd 18.5679 20.4769 12.8819
Pd 20.4717 18.5732 12.8811
Co 20.4838 20.4899 11.0028
Pd 18.5633 18.5677 14.7715
Pd 18.5737 20.4816 16.684
Pd 20.4781 18.5773 16.6831
Co 20.4779 20.4823 14.7925
Pd 18.5737 18.5764 18.5794
Pd 18.5818 20.4874 20.4916
Pd 20.4856 18.5837 20.4908
Co 20.4852 20.488 18.5926
Pd 18.5811 18.5821 22.3954
Pd 18.5878 20.4901 24.3085
Pd 20.49 18.588 24.3077
Co 20.4911 20.4921 22.4018
Pd 18.5841 18.5834 26.2177
Pd 18.5875 20.4881 28.1289
Pd 20.4897 18.5861 28.128
Co 20.4934 20.4928 26.2188
Pd 18.5806 18.5782 30.04
Pd 18.581 20.4816 31.9458
Pd 20.4848 18.5778 31.9449
Co 20.4905 20.4882 30.0358
Pd 18.5727 18.5686 33.856
Pd 18.5724 20.4719 35.7534
Pd 20.4768 18.5676 35.7526
Co 20.4842 20.4802 33.8451
Pd 18.5618 18.556 37.6639
Pd 18.5661 20.4633 39.5554
Pd 20.4699 18.5596 39.5546
Co 20.4764 20.4707 37.6451
Pd 18.5669 18.5595 41.4709
Pd 18.5847 20.4639 43.3481
Pd 20.4722 18.5765 43.3473
Co 20.4818 20.4744 41.4348
Pd 18.6082 18.5991 45.2832
Pd 18.6376 20.5151 47.1473
Pd 20.5251 18.6278 47.1464
Co 20.4925 20.4834 45.2425
Co 20.6084 20.5978 48.8677
Pd 18.7474 22.5369 3.44366
Pd 18.6633 24.3411 5.38082
Pd 20.5531 22.452 5.36561
Co 20.5693 24.3619 3.51768
Pd 18.613 22.4047 7.20835
Pd 18.5955 24.3061 9.12262
Pd 20.4995 22.4035 9.11864
Co 20.5378 24.3332 7.2531
Pd 18.5794 22.3879 10.9996
Pd 18.5786 24.3081 12.9035
Pd 20.4825 22.3956 12.9094
Co 20.492 24.3104 11.0275
Pd 18.5745 22.3926 14.7919
Pd 18.5789 24.3097 16.6957
Pd 20.484 22.3967 16.6989
Co 20.4839 24.311 14.8092
Pd 18.5807 22.3963 18.5923
Pd 18.5872 24.3108 20.4991
Pd 20.4908 22.4001 20.5002
Co 20.4887 24.3113 18.6019
Pd 18.5885 22.3989 22.4023
Pd 18.5934 24.3104 24.312
Pd 20.4954 22.4013 24.3118
Co 20.4952 24.3119 22.4072
Pd 18.5918 22.3985 26.2197
Pd 18.5932 24.3084 28.1293
Pd 20.4951 22.3994 28.1278
Co 20.4975 24.3108 26.2208
Pd 18.588 22.395 30.037
Pd 18.5865 24.305 31.9422
Pd 20.49 22.3942 31.9394
Co 20.4947 24.308 30.0344
Pd 18.5796 22.3885 33.8471
Pd 18.5776 24.3 35.7456
Pd 20.4827 22.387 35.7407
Co 20.4877 24.3036 33.8397
Pd 18.573 22.3809 37.6474
Pd 18.5768 24.2946 39.5378
Pd 20.4807 22.382 39.5302
Co 20.4824 24.2994 37.6324
Pd 18.5774 22.3724 41.4397
Pd 18.5932 24.2887 43.3187
Pd 20.4972 22.386 43.321
Co 20.49 24.2949 41.4141
Pd 18.6104 22.3853 45.231