4033
Atoms. Timestep: 20170
Co 5.48075 13.0058 26.2159
Pd 3.54975 16.7215 24.3502
Pd 5.34201 14.7922 24.2765
Co 5.36335 16.7408 22.4419
Pd 3.62705 14.8484 26.2205
Pd 3.5527 16.7151 28.0971
Pd 5.34509 14.7856 28.1615
Co 5.37836 16.6995 26.2222
Co 5.3694 16.7279 30.0027
Pd 3.51885 20.535 20.5459
Pd 5.29127 18.5966 20.4989
Co 5.34884 20.5489 18.6475
Pd 3.52738 18.6299 22.4465
Pd 3.43629 20.5003 24.3249
Pd 5.34306 18.628 24.3463
Co 5.3204 20.5113 22.4244
Pd 3.45703 18.5934 26.2269
Pd 3.43931 20.4937 28.1355
Pd 5.34607 18.6216 28.1047
Co 5.29732 20.5157 26.2288
Pd 3.53338 18.6169 30.0074
Pd 3.52784 20.5154 31.9143
Pd 5.30044 18.577 31.952
Co 5.32649 20.4982 30.033
Co 5.36093 20.5228 33.8099
Pd 3.52466 22.4438 18.6409
Pd 3.53962 24.3494 16.7481
Co 5.39374 24.3566 14.8541
Pd 5.30333 22.4087 16.7012
Pd 3.43436 24.3171 20.5198
Pd 5.32608 22.4372 20.5475
Co 5.33371 24.3172 18.6303
Pd 3.42805 22.4083 22.423
Pd 3.40976 24.3084 24.331
Pd 5.28455 22.4104 24.3266
Co 5.27926 24.3216 22.4348
Pd 3.41904 22.4012 26.2334
Pd 3.41278 24.3018 28.1424
Pd 5.2876 22.4038 28.1374
Co 5.26714 24.3081 26.2352
Pd 3.43408 22.3951 30.0438
Pd 3.44337 24.2973 31.9535
Pd 5.33513 22.4176 31.9164
Co 5.2853 24.3085 30.0356
Pd 3.53664 22.4176 33.8258
Pd 3.55454 24.3165 35.725
Pd 5.31845 22.3757 35.7625
Co 5.34575 24.2909 33.84
Co 5.4117 24.3171 37.616
Pd 5.37853 26.2346 12.984
Pd 3.60607 26.2304 14.8804
Pd 3.53795 28.1048 16.7545
Pd 5.38279 26.2279 16.7663
Co 5.3921 28.1059 14.8606
Pd 3.45311 26.2238 18.6203
Pd 3.43266 28.1239 20.5264
Pd 5.29633 26.2213 20.5287
Co 5.33202 28.132 18.6369
Pd 3.41538 26.2172 22.4269
Pd 3.40805 28.1194 24.3376
Pd 5.26897 26.2147 24.3388
Co 5.27757 28.1144 22.4414
Pd 3.40318 26.2106 26.24
Pd 3.41105 28.1128 28.1489
Pd 5.27198 26.2081 28.1382
Co 5.26542 28.1148 26.2418
Pd 3.42138 26.204 30.053
Pd 3.44164 28.104 31.96
Pd 5.30536 26.2015 31.9482
Co 5.28356 28.1012 30.0421
Pd 3.46507 26.1974 33.8594
Pd 3.55284 28.0719 35.7315
Pd 5.39769 26.195 35.7103
Co 5.34397 28.1056 33.8465
Pd 3.62391 26.1909 37.599
Pd 5.39939 26.1883 39.4926
Co 5.40998 28.0663 37.6225
Pd 5.29996 30.0472 16.7144
Pd 3.52131 30.0037 18.6539
Pd 3.51378 31.9059 20.5655
Pd 5.32271 30.0054 20.5605
Co 5.34381 31.9002 18.667
Pd 3.42464 30.0261 22.4361
Pd 3.43118 31.9276 24.3445
Pd 5.28114 30.0191 24.3397
Co 5.31531 31.9248 22.444
Pd 3.4156 30.02 26.2465
Pd 3.43416 31.921 28.1551
Pd 5.28414 30.0125 28.1504
Co 5.29219 31.9072 26.2483
Pd 3.4306 30.0129 30.0569
Pd 3.52268 31.8862 31.9338
Pd 5.33164 29.9857 31.9294
Co 5.32128 31.9116 30.0526
Pd 3.53318 29.9774 33.8387
Pd 5.31491 30.0142 35.7755
Co 5.35571 31.8739 33.8293
Pd 5.28449 33.8461 20.5251
Pd 3.5206 33.8045 22.4726
Pd 3.54126 35.7064 24.3828
Pd 5.33627 33.8014 24.3723
Co 5.35489 35.6952 22.4744
Pd 3.45017 33.8279 26.2531
Pd 3.54418 35.6999 28.1296
Pd 5.33922 33.7949 28.1307
Co 5.36983 35.7235 26.2548
Pd 3.5265 33.7914 30.0333
Pd 5.29347 33.8262 31.9781
Co 5.36082 35.6821 30.0351
Pd 5.3318 37.6375 24.3157
Pd 3.61687 37.5732 26.2594
Pd 5.33484 37.6308 28.2007
Co 5.46894 39.4174 26.2612
Co 9.23712 9.22605 26.2067
Pd 7.23081 12.8724 24.2887
Pd 9.09441 10.9958 24.286
Co 9.12919 12.9166 22.4074
Pd 7.29163 11.0561 26.2113
Pd 7.23388 12.8659 28.14
Pd 9.0975 10.9894 28.1335
Co 9.09814 12.8737 26.2129
Co 9.13536 12.9037 30.0184
Pd 7.18847 16.6737 20.4849
Pd 9.06273 14.7774 20.464
Co 9.10574 16.7204 18.6081
Pd 7.21024 14.7852 22.361
Pd 7.2126 16.6794 24.295
Pd 9.08725 14.7737 24.2867
Co 9.07301 16.6649 22.3644
Pd 7.23658 14.7987 26.2176
Pd 7.21571 16.6728 28.1465
Pd 9.09039 14.7671 28.1454
Co 9.10669 16.6792 26.2192
Pd 7.21645 14.7721 30.0741
Pd 7.19773 16.6541 31.9566
Pd 9.07207 14.7579 31.9681
Co 9.0793 16.6517 30.0741
Co 9.11813 16.6944 33.8304
Pd 7.18629 20.4822 16.6894
Pd 9.05202 18.586 16.6721
Co 9.11142 20.5292 14.8113
Pd 7.18293 18.5959 18.5715
Pd 7.18668 20.4881 20.5021
Pd 9.0678 18.5802 20.4788
Co 9.06238 20.4715 18.571
Pd 7.19338 18.5943 22.3895
Pd 7.20962 20.5102 24.3221
Pd 9.09741 18.5838 24.2958
Co 9.09264 20.4941 22.4029
Pd 7.2341 18.5935 26.224
Pd 7.2127 20.5036 28.1324
Pd 9.10055 18.5772 28.1492
Co 9.10789 20.4958 26.2257
Pd 7.19959 18.5811 30.0584
Pd 7.19592 20.4684 31.9523
Pd 9.07716 18.5605 31.9661
Co 9.09886 20.4809 30.0484
Pd 7.19529 18.5696 33.8764
Pd 7.20161 20.4493 35.7648
Pd 9.06756 18.5533 35.7728
Co 9.07481 20.4452 33.8803
Co 9.1299 20.4899 37.6399
Pd 7.21965 24.311 12.9008
Pd 9.07145 22.4053 12.8777
Co 9.14956 24.3686 11.0424
Pd 7.20058 22.4039 14.7716
Pd 7.21737 24.2931 16.7072
Pd 9.07493 22.384 16.6848
Co 9.08207 24.2886 14.7789
Pd 7.19215 22.3991 18.5961
Pd 7.20679 24.3193 20.5254
Pd 9.08703 22.3945 20.501
Co 9.09876 24.3062 18.6061
Pd 7.20231 22.4108 22.4276
Pd 7.18037 24.3142 24.3324
Pd 9.10151 22.4101 24.3278
Co 9.09912 24.3122 22.4246
Pd 7.18731 22.4098 26.2305
Pd 7.18342 24.3076 28.135
Pd 9.1046 22.4036 28.1301
Co 9.09625 24.3109 26.2322
Pd 7.20844 22.3977 30.0333
Pd 7.21592 24.2996 31.942
Pd 9.09631 22.3747 31.9568
Co 9.10526 24.2991 30.0398
Pd 7.20437 22.3727 33.8646
Pd 7.2325 24.2601 35.7599
Pd 9.09031 22.351 35.7728
Co 9.11102 24.2799 33.8582
Pd 7.21892 22.3642 37.689
Pd 7.24082 24.2645 39.5662
Pd 9.09298 22.359 39.58
Co 9.10032 24.2489 37.6851
Co 9.17406 24.3153 41.4219
Pd 9.1507 26.2435 9.18847
Pd 7.29848 26.2389 11.0462
Pd 7.21806 28.16 12.9074
Pd 9.10538 26.2363 12.9206
Co 9.14838 28.1109 11.0486
Pd 7.24027 26.2322 14.8071
Pd 7.21567 28.1645 16.7139
Pd 9.09671 26.2296 16.7014
Co 9.08038 28.1774 14.7856
Pd 7.2285 26.2255 18.6319
Pd 7.2051 28.125 20.5319
Pd 9.10637 26.223 20.5301
Co 9.09708 28.1464 18.6127
Pd 7.18383 26.2189 22.4344
Pd 7.17866 28.117 24.339
Pd 9.09337 26.2164 24.3323
Co 9.09742 28.1273 22.4312
Pd 7.17589 26.2123 26.237
Pd 7.18169 28.1104 28.1415
Pd 9.09644 26.2099 28.1387
Co 9.09453 28.1154 26.2387
Pd 7.18989 26.2057 30.0396
Pd 7.21414 28.1052 31.9485
Pd 9.11551 26.2033 31.9408
Co 9.10351 28.1141 30.0463
Pd 7.24056 26.1991 33.8419
Pd 7.23067 28.1314 35.7665
Pd 9.11187 26.1966 35.7694
Co 9.10919 28.12 33.8647
Pd 7.25829 26.1924 37.6665
Pd 7.23892 28.1135 39.5728
Pd 9.1264 26.1898 39.5499
Co 9.09842 28.1375 37.6917
Pd 7.32238 26.1857 41.4272
Pd 9.1775 26.1827 43.2819
Co 9.17179 28.0576 41.428
Pd 9.06832 30.0673 12.8907
Pd 7.19732 30.0604 14.7848
Pd 7.18124 31.9754 16.7092
Pd 9.07156 30.0753 16.6981
Co 9.10649 31.9365 14.8309
Pd 7.18876 30.0519 18.6093
Pd 7.18159 31.9562 20.5218
Pd 9.08363 30.0516 20.5142
Co 9.05729 31.9812 18.5908
Pd 7.19892 30.027 22.4407
Pd 7.20451 31.921 24.3417
Pd 9.0981 30.0227 24.3409
Co 9.08753 31.9455 22.4226
Pd 7.18388 30.0148 26.2435
Pd 7.20752 31.9144 28.1519
Pd 9.10114 30.0162 28.1431
Co 9.10275 31.9306 26.2453
Pd 7.20494 30.0138 30.0463
Pd 7.19062 31.9364 31.9718
Pd 9.09274 30.0318 31.9699
Co 9.09362 31.9322 30.068
Pd 7.20078 30.0254 33.8777
Pd 7.19622 31.9423 35.7844
Pd 9.08661 30.0422 35.7859
Co 9.06939 31.9546 33.8999
Pd 7.21521 30.0206 37.702
Pd 9.08906 30.0209 39.5928
Co 9.12435 31.897 37.6592
Pd 9.04531 33.8732 16.6983
Pd 7.17618 33.8552 18.5977
Pd 7.17998 35.7708 20.5177
Pd 9.06101 33.866 20.5051
Co 9.0973 35.7322 18.6408
Pd 7.18658 33.8436 22.4157
Pd 7.20407 35.752 24.3278
Pd 9.09058 33.8492 24.322
Co 9.06449 35.7748 22.3972
Pd 7.22725 33.8312 26.2501
Pd 7.20712 35.7453 28.1791
Pd 9.09366 33.8425 28.1753
Co 9.09814 35.7472 26.252
Pd 7.19263 33.8303 30.0845
Pd 7.18902 35.7509 31.9892
Pd 9.07012 33.846 31.9922
Co 9.07064 35.7614 30.1067
Pd 7.1882 33.8286 33.9024
Pd 9.06032 33.8402 35.7987
Co 9.10934 35.7058 33.8628
Pd 9.05253 37.6687 20.5033
Pd 7.20004 37.6528 22.4003
Pd 7.21891 39.559 24.3345
Pd 9.07704 37.6594 24.326
Co 9.11734 39.523 22.4531
Pd 7.22635 37.6261 26.2567
Pd 7.22194 39.5523 28.1857
Pd 9.08012 37.6526 28.1846
Co 9.08623 39.5528 26.2586
Pd 7.20613 37.6394 30.1132
Pd 9.06169 37.6488 32.0072
Co 9.12343 39.5097 30.0639
Pd 9.08087 41.4373 24.3382
Pd 7.27811 41.3688 26.2632
Pd 9.08394 41.4305 28.1856
Co 9.22204 43.2006 26.2649
Co 13.0202 5.47299 26.1976
Pd 11.0022 9.08964 24.2813
Pd 12.8804 7.22765 24.2749
Co 12.9182 9.13079 22.3981
Pd 11.0689 7.28217 26.2021
Pd 11.0053 9.08323 28.1288
Pd 12.8835 7.22127 28.1262
Co 12.8849 9.09025 26.2036
Co 12.9244 9.11806 30.0092
Pd 10.9697 12.8583 20.4594
Pd 12.8533 10.9762 20.4548
Co 12.8977 12.9092 18.589
Pd 10.9839 10.984 22.3518
Pd 10.9823 12.8673 24.281
Pd 12.872 10.9793 24.2763
Co 12.8556 12.8574 22.3497
Pd 11.0139 11.0044 26.2082
Pd 10.9855 12.8608 28.1417
Pd 12.8752 10.9728 28.1371
Co 12.8855 12.8776 26.2099
Pd 10.9902 10.971 30.0647
Pd 10.9791 12.8388 31.9633
Pd 12.8628 10.9568 31.9587
Co 12.862 12.8443 30.07
Co 12.9103 12.8834 33.8308
Pd 10.958 16.6629 16.6612
Pd 12.8393 14.7732 16.6514
Co 12.8905 16.7153 14.791
Pd 10.9634 14.7755 18.5424
Pd 10.9657 16.6625 20.4637
Pd 12.8521 14.765 20.455
Co 12.8429 16.6548 18.5433
Pd 10.9736 14.7697 22.3596
Pd 10.9807 16.6694 24.292
Pd 12.872 14.7668 24.286
Co 12.8717 16.6707 22.3791
Pd 10.9811 14.7633 26.2145
Pd 10.9838 16.6628 28.1434
Pd 12.8752 14.7602 28.14
Co 12.8767 16.6655 26.2162
Pd 10.9799 14.7565 30.0695
Pd 10.9751 16.6429 31.9717
Pd 12.8616 14.7454 31.9711
Co 12.878 16.6576 30.0534
Pd 10.9759 14.7494 33.8867
Pd 10.9736 16.6303 35.7743
Pd 12.8551 14.7407 35.7748
Co 12.8555 16.6286 33.8891
Co 12.9093 16.6765 37.6416
Pd 10.9676 20.4779 12.8675
Pd 12.8419 18.5863 12.8569
Co 12.9038 20.5359 11.0025
Pd 10.9601 18.5849 14.7469
Pd 10.9646 20.4696 16.6699
Pd 12.8458 18.5695 16.6582
Co 12.8436 20.4656 14.7522
Pd 10.9619 18.5735 18.559
Pd 10.9738 20.4815 20.4833
Pd 12.8657 18.571 20.4713
Co 12.8672 20.4812 18.5772
Pd 10.9781 18.5733 22.384
Pd 10.9923 20.4871 24.3096
Pd 12.8793 18.5752 24.3029
Co 12.8792 20.4823 22.3946
Pd 10.989 18.5749 26.2209
Pd 10.9954 20.4806 28.1387
Pd 12.8824 18.5686 28.1359
Co 12.8891 20.4806 26.2226
Pd 10.9844 18.5602 30.0578
Pd 10.9832 20.4618 31.965
Pd 12.8752 18.5513 31.9675
Co 12.8855 20.4692 30.0506
Pd 10.9744 18.5473 33.8828
Pd 10.9802 20.4369 35.7782
Pd 12.8616 18.5369 35.7806
Co 12.8797 20.4551 33.868
Pd 10.9789 18.5457 37.695
Pd 10.9894 20.4321 39.5808
Pd 12.8639 18.5409 39.5821
Co 12.8625 20.4264 37.693
Co 12.9287 20.4842 41.4432
Pd 11.0025 24.3209 9.10509
Pd 12.8682 22.4159 9.07954
Co 12.9503 24.3755 7.26572
Pd 10.9807 22.4108 10.9623
Pd 10.9846 24.3009 12.8898
Pd 12.8555 22.3891 12.8735
Co 12.867 24.296 10.9796
Pd 10.9691 22.3869 14.7674
Pd 10.9745 24.3043 16.6852
Pd 12.8633 22.3881 16.6769
Co 12.8701 24.3106 14.7882
Pd 10.9742 22.3877 18.586
Pd 10.9905 24.3063 20.5048
Pd 12.8782 22.3932 20.4944
Co 12.8737 24.3074 18.5919
Pd 10.9896 22.3964 22.4068
Pd 11.001 24.3091 24.3233
Pd 12.8921 22.3943 24.3133
Co 12.8905 24.3071 22.4097
Pd 11.0037 22.3957 26.2274
Pd 11.0041 24.3026 28.138
Pd 12.8953 22.3877 28.1384
Co 12.9 24.3033 26.2291
Pd 10.9958 22.3833 30.048
Pd 10.9997 24.2867 31.9565
Pd 12.8875 22.3736 31.9573
Co 12.8967 24.294 30.0486
Pd 10.9867 22.3614 33.8688
Pd 10.99 24.2714 35.776
Pd 12.879 22.3554 35.7748
Co 12.8862 24.2813 33.8664
Pd 10.9876 22.3474 37.6871
Pd 11.0059 24.2546 39.571
Pd 12.8772 22.3432 39.5778
Co 12.8887 24.2713 37.67
Pd 11.0058 22.3582 41.4927
Pd 11.0313 24.2609 43.3571
Pd 12.8966 22.358 43.3732
Co 12.8914 24.2433 41.4777
Co 12.9867 24.3102 45.1983
Pd 12.9762 26.2517 5.45805
Pd 11.0887 26.248 7.25691
Pd 11.0025 28.167 9.11036
Pd 12.8963 26.245 9.13004
Co 12.9548 28.1198 7.26618
Pd 11.0169 26.2407 11.0043
Pd 10.9829 28.1734 12.8966
Pd 12.8746 26.2378 12.896
Co 12.8654 28.1865 10.9868
Pd 10.9811 26.2337 14.7952
Pd 10.9729 28.1566 16.6918
Pd 12.8709 26.2312 16.6963
Co 12.8685 28.1584 14.7948
Pd 10.9852 26.2272 18.6018
Pd 10.9888 28.1414 20.5115
Pd 12.8831 26.2247 20.5055
Co 12.872 28.1485 18.5985
Pd 10.9999 26.2206 22.422
Pd 10.9992 28.1255 24.3299
Pd 12.8984 26.2182 24.3252
Co 12.8888 28.1358 22.4163
Pd 11.0005 26.214 26.2339
Pd 11.0023 28.1189 28.1445
Pd 12.9015 26.2116 28.1396
Co 12.8983 28.1265 26.2357
Pd 11.006 26.2075 30.0459
Pd 10.998 28.1216 31.963
Pd 12.8924 26.2051 31.9594
Co 12.8949 28.1227 30.0551
Pd 10.9975 26.2008 33.866
Pd 10.9881 28.1236 35.7825
Pd 12.8863 26.1985 35.7685
Co 12.8844 28.1222 33.8729
Pd 10.9993 26.1942 37.6725
Pd 11.004 28.1269 39.5778
Pd 12.896 26.1918 39.5685
Co 12.8867 28.1189 37.6764
Pd 11.0409 26.1872 41.4632
Pd 11.0276 28.1069 43.3623
Pd 12.9233 26.1846 43.3344
Co 12.8894 28.1334 41.4848
Pd 11.1184 26.1799 45.2104
Pd 13.0086 26.1777 47.0062
Co 12.9783 28.0539 45.1985
Pd 12.8659 30.0719 9.09115
Pd 10.9781 30.0698 10.9749
Pd 10.9627 31.9961 12.8871
Pd 12.8522 30.0866 12.887
Co 12.8991 31.9457 11.0215
Pd 10.9657 30.0807 14.7807
Pd 10.9595 31.9913 16.6898
Pd 12.86 30.0744 16.6901
Co 12.8386 32.0035 14.772
Pd 10.9708 30.0666 18.5992
Pd 10.9687 31.9663 20.503
Pd 12.8747 30.0562 20.5076
Co 12.8621 31.9748 18.597
Pd 10.9861 30.0448 22.42
Pd 10.9871 31.9475 24.3293
Pd 12.8887 30.042 24.3264
Co 12.874 31.9606 22.4144
Pd 11.0003 30.0324 26.2405
Pd 10.9902 31.9409 28.1583
Pd 12.8918 30.0355 28.1516
Co 12.8839 31.9492 26.2423
Pd 10.9923 30.0316 30.0611
Pd 10.9779 31.9464 31.9847
Pd 12.884 30.0365 31.9705
Co 12.8803 31.9474 30.0703
Pd 10.983 30.0402 33.8818
Pd 10.9746 31.9582 35.7978
Pd 12.8752 30.0414 35.7878
Co 12.8744 31.9484 33.8876
Pd 10.9838 30.0409 37.7002
Pd 10.9835 31.9499 39.6
Pd 12.8732 30.0403 39.5909
Co 12.8567 31.9638 37.7125
Pd 11.0012 30.017 41.5051
Pd 12.8916 30.0134 43.3846
Co 12.9226 31.8935 41.4616
Pd 12.8353 33.8892 12.8829
Pd 10.9534 33.8825 14.773
Pd 10.9495 35.798 16.694
Pd 12.839 33.8931 16.6846
Co 12.8821 35.7536 14.8236
Pd 10.9551 33.8809 18.5854
Pd 10.9572 35.7854 20.4966
Pd 12.8589 33.8786 20.4976
Co 12.8344 35.8014 18.5762
Pd 10.9713 33.868 22.4103
Pd 10.9722 35.7654 24.3248
Pd 12.8724 33.8612 24.3291
Co 12.8631 35.7723 22.4119
Pd 10.9822 33.8532 26.2472
Pd 10.9753 35.7587 28.1762
Pd 12.8755 33.8546 28.1622
Co 12.8681 35.7643 26.249
Pd 10.9774 33.8547 30.084
Pd 10.9664 35.7654 32.0043
Pd 12.8682 33.8587 31.9937
Co 12.8694 35.759 30.0861
Pd 10.9673 33.8543 33.9088
Pd 10.9646 35.765 35.8067
Pd 12.8543 33.86 35.8066
Co 12.8468 35.7748 33.9217
Pd 10.9714 33.8429 37.7208
Pd 12.8562 33.8432 39.6075
Co 12.9002 35.7142 37.6735
Pd 12.8291 37.6895 16.6908
Pd 10.9532 37.679 18.5818
Pd 10.9578 39.5896 20.5053
Pd 12.8419 37.6846 20.4943
Co 12.8858 39.5469 18.6348
Pd 10.9633 37.6717 22.3989
Pd 10.9705 39.5674 24.3268
Pd 12.8618 37.6697 24.3253
Co 12.8437 39.5857 22.3956
Pd 10.9709 37.6649 26.2538
Pd 10.9736 39.5607 28.1875
Pd 12.865 37.663 28.1793
Co 12.8737 39.5522 26.2556
Pd 10.9696 37.6583 30.1087
Pd 10.9671 39.5696 32.0089
Pd 12.8513 37.6646 32.0103
Co 12.8501 39.5722 30.1157
Pd 10.9654 37.6524 33.9256
Pd 12.8445 37.6563 35.8135
Co 12.8983 39.5204 33.8762
Pd 12.8398 41.4735 20.5071
Pd 10.9704 41.4574 22.4041
Pd 10.9871 43.3452 24.3401
Pd 12.8585 41.4572 24.3286
Co 12.9031 43.3122 22.4567
Pd 11.0004 41.4238 26.2604
Pd 10.9902 43.3384 28.1875
Pd 12.8617 41.4504 28.1893
Co 12.8697 43.3396 26.2623
Pd 10.9766 41.4439 30.1168
Pd 12.8492 41.4533 32.0108
Co 12.9093 43.2988 30.0676
Pd 12.8636 45.2088 24.34
Pd 11.0522 45.1461 26.267
Pd 12.8668 45.202 28.1912
Co 13.002 46.957 26.2686
Pd 14.8018 5.34054 24.2534
Pd 16.7327 3.54975 24.3179
Co 16.7456 5.36808 22.4139
Pd 14.8643 3.6209 26.1931
Pd 14.805 5.33414 28.1384
Pd 16.7359 3.54361 28.0649
Co 16.714 5.37381 26.1944
Co 16.7519 5.35557 29.9748
Pd 14.774 9.0708 20.4499
Pd 16.6718 7.19802 20.4615
Co 16.712 9.12007 18.5894
Pd 14.7882 7.21353 22.3424
Pd 14.78 9.08581 24.2726
Pd 16.6873 7.21278 24.2717
Co 16.6662 9.07802 22.3456
Pd 14.8115 7.23038 26.199
Pd 14.7832 9.07935 28.1315
Pd 16.6905 7.20636 28.1232
Co 16.6904 9.10209 26.2005
Pd 14.7947 7.20071 30.0555
Pd 14.7836 9.05154 31.9542
Pd 16.6815 7.17891 31.9334
Co 16.6727 9.06508 30.0555
Co 16.7248 9.09458 33.8118
Pd 14.7566 12.8574 16.6467
Pd 16.6478 10.9772 16.6472
Co 16.6935 12.9147 14.782
Pd 14.7655 10.9764 18.5331
Pd 14.7583 12.8604 20.4502
Pd 16.6574 10.9755 20.4495
Co 16.6431 12.8577 18.5337
Pd 14.7695 10.977 22.3502
Pd 14.7698 12.8706 24.2813
Pd 16.674 10.9809 24.2779
Co 16.6689 12.8767 22.3695
Pd 14.7728 10.9748 26.2052
Pd 14.773 12.864 28.1354
Pd 16.6772 10.9744 28.1294
Co 16.6735 12.872 26.2068
Pd 14.7759 10.964 30.0602
Pd 14.7678 12.8409 31.9665
Pd 16.667 10.9561 31.9578
Co 16.6752 12.8637 30.044
Pd 14.7782 10.9506 33.8774
Pd 14.7724 12.825 35.7701
Pd 16.6637 10.9451 35.7603
Co 16.6558 12.8317 33.88
Co 16.7124 12.8761 37.632
Pd 14.754 16.668 12.8504
Pd 16.6387 14.7835 12.8466
Co 16.6954 16.7313 10.9882
Pd 14.7533 14.7769 14.7317
Pd 14.7485 16.6597 16.6506
Pd 16.6414 14.7683 16.6458
Co 16.6345 16.6596 14.7382
Pd 14.7524 14.7656 18.5413
Pd 14.7586 16.6675 20.4646
Pd 16.6592 14.7685 20.4597
Co 16.6583 16.673 18.5632
Pd 14.7619 14.7653 22.3706
Pd 14.7733 16.6701 24.2969
Pd 16.6716 14.7735 24.2922
Co 16.6681 16.673 22.3824
Pd 14.774 14.7677 26.2115
Pd 14.7765 16.6636 28.1324
Pd 16.6747 14.7669 28.1277
Co 16.6767 16.672 26.2131
Pd 14.7683 14.7523 30.0524
Pd 14.7681 16.6479 31.9648
Pd 16.6687 14.7489 31.9602
Co 16.6743 16.66 30.0439
Pd 14.765 14.7396 33.8817
Pd 14.7642 16.6272 35.7788
Pd 16.6572 14.7358 35.7743
Co 16.6709 16.647 33.8631
Pd 14.7722 14.7381 37.6916
Pd 14.7759 16.6227 39.5794
Pd 16.6607 14.7381 39.5737
Co 16.6533 16.6206 37.6883
Co 16.7203 16.6795 41.4385
Pd 14.7743 20.4956 9.06576
Pd 16.6551 18.61 9.05885
Co 16.7289 20.5635 7.21325
Pd 14.7613 18.5964 10.9398
Pd 14.7531 20.4742 12.8661
Pd 16.641 18.5789 12.8585
Co 16.6441 20.4789 10.9594
Pd 14.7481 18.5723 14.7488
Pd 14.7543 20.4792 16.6685
Pd 16.6526 18.573 16.6629
Co 16.6557 20.4858 14.7757
Pd 14.7559 18.5702 18.5657
Pd 14.7713 20.483 20.4855
Pd 16.6667 18.5784 20.4801
Co 16.6636 20.4849 18.58
Pd 14.7718 18.5753 22.3883
Pd 14.7822 20.4825 24.3079
Pd 16.6771 18.5781 24.3028
Co 16.6772 20.4863 22.3971
Pd 14.779 18.5717 26.2179
Pd 14.7853 20.476 28.1343
Pd 16.6803 18.5716 28.1299
Co 16.6837 20.482 26.2195
Pd 14.7781 18.5622 30.0474
Pd 14.7807 20.4634 31.9566
Pd 16.6761 18.5588 31.9526
Co 16.6834 20.4733 30.042
Pd 14.7685 18.5441 33.8701
Pd 14.77 20.4466 35.7738
Pd 16.6683 18.5405 35.7699
Co 16.6761 20.4589 33.8591
Pd 14.767 18.5332 37.687
Pd 14.7751 20.4288 39.576
Pd 16.6628 18.5335 39.5744
Co 16.6745 20.447 37.6636
Pd 14.7864 18.5451 41.4966
Pd 14.8017 20.4387 43.3777
Pd 16.6828 18.5518 43.3744
Co 16.669 20.4271 41.4802
Co 16.7557 20.5007 45.2249
Pd 14.8247 24.3624 5.35136
Pd 16.7164 22.4396 5.30814
Co 16.8563 28.1096 3.62303
Pd 14.7977 22.4339 7.16488
Pd 14.786 24.3079 9.10727
Pd 16.663 22.406 9.08935
Co 16.686 24.3146 7.20319
Pd 14.7631 22.3935 10.9728
Pd 14.7594 24.3108 12.8867
Pd 16.656 22.3952 12.8842
Co 16.6686 24.3184 11.0074
Pd 14.7555 22.3907 14.7775
Pd 14.7653 24.3114 16.6895
Pd 16.6617 22.3981 16.6866
Co 16.66 24.314 14.7933
Pd 14.768 22.395 18.586
Pd 14.7776 24.3095 20.4986
Pd 16.6746 22.3979 20.4947
Co 16.6702 24.3132 18.596
Pd 14.7824 22.3942 22.402
Pd 14.7917 24.3053 24.3169
Pd 16.6853 22.3946 24.3124
Co 16.6828 24.3091 22.407
Pd 14.7899 22.39 26.2243
Pd 14.7948 24.2988 28.1383
Pd 16.6884 22.3881 28.1332
Co 16.6908 24.3033 26.226
Pd 14.7886 22.3812 30.0466
Pd 14.7869 24.29 31.9566
Pd 16.6839 22.3784 31.9508
Co 16.689 24.2962 30.0451
Pd 14.7805 22.369 33.8627
Pd 14.7809 24.2789 35.7657
Pd 16.6774 22.3657 35.7589
Co 16.6827 24.2873 33.8561
Pd 14.7744 22.3517 37.6712
Pd 14.7814 24.2653 39.5687
Pd 16.6781 22.3501 39.5619
Co 16.6789 24.2752 37.6589
Pd 14.7877 22.3412 41.4754
Pd 14.8133 24.2498 43.3456
Pd 16.6903 22.3482 43.3557
Co 16.6942 24.267 41.4452
Pd 14.8276 22.376 45.2862
Pd 14.8784 24.2996 47.1255
Pd 16.7495 22.3785 47.1379
Co 16.7164 24.2504 45.2451
Co 16.897 24.3261 48.8359
Pd 18.7167 26.2803 3.41458
Pd 14.8426 28.1331 5.33652
Pd 16.7011 26.2566 5.34825
Co 20.5706 24.3603 3.52245
Pd 14.8384 26.2498 7.25176
Pd 14.7843 28.182 9.11578
Pd 16.6847 26.2455 9.13116
Co 16.6845 28.1836 7.21315
Pd 14.771 26.2414 11.0056
Pd 14.758 28.1663 12.8931
Pd 16.6625 26.2393 12.9057
Co 16.6675 28.1665 11.0137
Pd 14.7658 26.2353 14.7949
Pd 14.7636 28.1526 16.6962
Pd 16.6651 26.2328 16.6995
Co 16.6583 28.1581 14.8
Pd 14.7715 26.2288 18.5982
Pd 14.7758 28.1415 20.5052
Pd 16.6767 26.2263 20.5048
Co 16.6685 28.1459 18.6026
Pd 14.7856 26.2223 22.4112
Pd 14.7899 28.1327 24.3234
Pd 16.6885 26.2199 24.3192
Co 16.6811 28.1371 22.4135
Pd 14.7967 26.2158 26.2309
Pd 14.793 28.1262 28.1449
Pd 16.6916 26.2134 28.1394
Co 16.6891 28.1299 26.2326
Pd 14.7918 26.2092 30.0505
Pd 14.7851 28.1219 31.9632
Pd 16.686 26.2069 31.9538
Co 16.6873 28.1241 30.0517
Pd 14.784 26.2027 33.8635
Pd 14.7791 28.1199 35.7723
Pd 16.6807 26.2004 35.7592
Co 16.681 28.12 33.8627
Pd 14.7845 26.1961 37.6669
Pd 14.7792 28.1204 39.5748
Pd 16.6844 26.1939 39.5533
Co 16.677 28.1191 37.6655
Pd 14.7954 26.19 41.4559
Pd 14.8113 28.1231 43.354
Pd 16.7123 26.1879 43.3274
Co 16.6915 28.1145 41.451
Pd 14.8687 26.1818 45.2099
Pd 14.8552 28.0686 47.1101
Pd 16.7355 26.1778 47.1107
Co 16.7147 28.1183 45.2555
Pd 16.831 28.0251 48.9561
Co 20.6188 28.0934 48.9359
Pd 16.7148 30.0547 5.31932
Pd 14.7944 30.0562 7.17486
Pd 14.769 31.993 9.08379
Pd 16.6593 30.0854 9.10289
Co 16.7208 31.9321 7.2328
Pd 14.7596 30.0905 10.9863
Pd 14.7481 32.003 12.886
Pd 16.6526 30.0834 12.8973
Co 16.6387 32.0064 10.9789
Pd 14.7522 30.0799 14.7908
Pd 14.7492 31.985 16.6883
Pd 16.6582 30.0676 16.7
Co 16.6504 31.9865 14.7955
Pd 14.7645 30.0626 18.5992
Pd 14.7661 31.9681 20.5053
Pd 16.6712 30.0548 20.5079
Co 16.6584 31.9745 18.5998
Pd 14.7789 30.0503 22.4152
Pd 14.7771 31.9555 24.3275
Pd 16.6819 30.0452 24.3255
Co 16.672 31.96 22.4168
Pd 14.7865 30.0415 26.2374
Pd 14.7802 31.9489 28.154
Pd 16.685 30.0387 28.1463
Co 16.6786 31.9512 26.2392
Pd 14.7851 30.0372 30.0598
Pd 14.7755 31.9484 31.9763
Pd 16.6805 30.0353 31.964
Co 16.6783 31.9469 30.0616
Pd 14.777 30.0363 33.8758
Pd 14.7646 31.9521 35.7933
Pd 16.6739 30.035 35.7721
Co 16.671 31.9482 33.8789
Pd 14.7705 30.0406 37.6841
Pd 14.7692 31.9568 39.5954
Pd 16.6741 30.0377 39.5744
Co 16.6691 31.9471 37.683
Pd 14.7837 30.0375 41.4884
Pd 14.7956 31.9355 43.3949
Pd 16.6865 30.0265 43.3685
Co 16.6631 31.9538 41.4989
Pd 14.8237 29.9969 45.2959
Pd 16.7442 29.9924 47.1493
Co 16.7521 31.8694 45.243
Pd 16.6479 33.8815 9.08432
Pd 14.7546 33.8866 10.9653
Pd 14.7453 35.8092 12.8829
Pd 16.6337 33.9001 12.8849
Co 16.6864 35.7542 11.0208
Pd 14.7412 33.8986 14.7753
Pd 14.7399 35.8047 16.6836
Pd 16.6456 33.893 16.6893
Co 16.6256 35.813 14.7712
Pd 14.749 33.8876 18.5921
Pd 14.7501 35.7838 20.4974
Pd 16.6598 33.8745 20.5064
Co 16.6497 35.7865 18.5961
Pd 14.7649 33.8693 22.4146
Pd 14.7648 35.768 24.3297
Pd 16.6703 33.8617 24.329
Co 16.6595 35.7733 22.4152
Pd 14.7722 33.8598 26.2441
Pd 14.7679 35.7613 28.1651
Pd 16.6734 33.8551 28.156
Co 16.6682 35.7612 26.2458
Pd 14.7712 33.8561 30.0736
Pd 14.7595 35.7638 31.9975
Pd 16.6692 33.8547 31.9788
Co 16.6658 35.76 30.0766
Pd 14.7615 33.8611 33.8963
Pd 14.7554 35.7715 35.8113
Pd 16.6614 33.8599 35.7961
Co 16.6624 35.7599 33.8958
Pd 14.7595 33.8589 37.7127
Pd 14.7665 35.7632 39.611
Pd 16.6554 33.8538 39.5997
Co 16.6446 35.7731 37.7206
Pd 14.7785 33.8348 41.5213
Pd 16.675 33.8227 43.3993
Co 16.7105 35.7016 41.4695
Pd 16.6282 37.6958 12.8859
Pd 14.7429 37.694 14.771
Pd 14.7446 39.6071 16.6926
Pd 16.631 37.6979 16.6852
Co 16.6815 39.5579 14.8277
Pd 14.7421 37.6923 18.5807
Pd 14.7464 39.591 20.4961
Pd 16.649 37.6845 20.4991
Co 16.6312 39.602 18.5796
Pd 14.7517 37.6794 22.4099
Pd 14.758 39.5676 24.3271
Pd 16.6614 37.6663 24.3314
Co 16.657 39.5697 22.4154
Pd 14.7638 37.6638 26.2507
Pd 14.7612 39.5608 28.1811
Pd 16.6646 37.6596 28.1669
Co 16.6616 39.5612 26.2525
Pd 14.7581 37.666 30.0916
Pd 14.7559 39.5708 32.0121
Pd 16.6585 37.6644 31.9994
Co 16.6634 39.5563 30.0897
Pd 14.7548 37.6656 33.9208
Pd 14.7604 39.5737 35.8155
Pd 16.647 37.6644 35.8134
Co 16.644 39.575 33.9256
Pd 14.7615 37.6543 37.73
Pd 16.6499 37.6492 39.6117
Co 16.7005 39.5179 37.677
Pd 16.6343 41.4889 16.6996
Pd 14.7519 41.4815 18.5854
Pd 14.7589 43.3806 20.5088
Pd 16.6439 41.4775 20.5019
Co 16.6969 43.3394 18.6481
Pd 14.756 41.4678 22.4025
Pd 14.7649 43.3524 24.3314
Pd 16.6606 41.459 24.3301
Co 16.6511 43.3685 22.4044
Pd 14.7594 41.4567 26.2574
Pd 14.7681 43.3455 28.1902
Pd 16.6638 41.4522 28.1816
Co 16.6753 43.3311 26.2592
Pd 14.7624 41.4543 30.1124
Pd 14.7684 43.3602 32.0128
Pd 16.6535 41.4572 32.01
Co 16.6576 43.3548 30.1141
Pd 14.7646 41.4546 33.9294
Pd 16.6502 41.4553 35.8122
Co 16.7097 43.3125 33.8702
Pd 16.6551 45.2549 20.5268
Pd 14.7715 45.2313 22.4076
Pd 14.7834 47.0977 24.3249
Pd 16.6706 45.2271 24.3368
Co 16.7274 47.0782 22.4854
Pd 14.7948 45.2012 26.2641
Pd 14.7866 47.0907 28.2099
Pd 16.6738 45.2202 28.1883
Co 16.6957 47.0594 26.2658
Pd 14.7779 45.2176 30.1206
Pd 16.6647 45.2345 31.9984
Co 16.7336 47.0647 30.0462
Pd 16.7129 48.8899 24.3956
Pd 14.8445 48.8107 26.2705
Pd 16.716 48.8832 28.1425
Pd 18.5964 5.30231 20.4661
Pd 20.5364 3.53134 20.5039
Co 20.5438 5.36598 18.61
Pd 18.6362 3.53366 22.4093
Pd 18.6376 5.34479 24.3135
Pd 20.5114 3.43965 24.2827
Co 20.5159 5.32842 22.3868
Pd 18.6094 3.45414 26.1897
Pd 18.6408 5.33856 28.0721
Pd 20.5146 3.43339 28.0935
Co 20.5301 5.29607 26.1911
Pd 18.6427 3.52127 29.9704
Pd 18.6061 5.2834 31.9195
Pd 20.5461 3.51277 31.8728
Co 20.5224 5.31585 29.9957
Co 20.5567 5.34109 33.7729
Pd 18.5726 9.07256 16.6488
Pd 20.4704 7.20818 16.6566
Co 20.5108 9.13785 14.7834
Pd 18.589 7.19873 18.5434
Pd 18.5766 9.07913 20.4552
Pd 20.4862 7.19945 20.4691
Co 20.463 9.07995 18.5426
Pd 18.5972 7.19993 22.3613
Pd 18.5901 9.09926 24.2722
Pd 20.5181 7.21307 24.289
Co 20.4954 9.10085 22.3745
Pd 18.6063 7.23117 26.1959
Pd 18.5933 9.0928 28.1257
Pd 20.5213 7.20672 28.0995
Co 20.5069 9.10659 26.1974
Pd 18.6037 7.18715 30.0304
Pd 18.5863 9.05988 31.9428
Pd 20.4959 7.18041 31.9196
Co 20.5018 9.08803 30.0203
Pd 18.602 7.17333 33.8486
Pd 18.5886 9.0407 35.7495
Pd 20.4866 7.17673 35.7325
Co 20.4759 9.05439 33.8524
Co 20.5302 9.10009 37.6123
Pd 18.559 12.8719 12.8437
Pd 20.4527 10.9984 12.8445
Co 20.5033 12.9385 10.9858
Pd 18.5647 10.9853 14.7284
Pd 18.5528 12.8669 16.6438
Pd 20.4545 10.987 16.6463
Co 20.4438 12.8708 14.7331
Pd 18.5634 10.9781 18.5401
Pd 18.5642 12.8772 20.4569
Pd 20.4763 10.9868 20.4594
Co 20.4696 12.8851 18.558
Pd 18.5731 10.9847 22.365
Pd 18.5782 12.881 24.2886
Pd 20.4918 10.9957 24.2859
Co 20.4805 12.8874 22.3755
Pd 18.5845 10.986 26.2021
Pd 18.5814 12.8745 28.1218
Pd 20.495 10.9892 28.1151
Co 20.4885 12.8877 26.2036
Pd 18.5795 10.9718 30.0392
Pd 18.5737 12.8578 31.9536
Pd 20.4859 10.9675 31.9417
Co 20.4868 12.8745 30.0318
Pd 18.5762 10.9523 33.8643
Pd 18.5687 12.8346 35.7668
Pd 20.4706 10.9549 35.7551
Co 20.4823 12.8592 33.8495
Pd 18.5841 10.9468 37.6763
Pd 18.5813 12.8269 39.5673
Pd 20.4754 10.9541 39.5576
Co 20.463 12.8321 37.6746
Co 20.5293 12.8878 41.423
Pd 18.5682 16.6971 9.05502
Pd 20.4518 14.8133 9.05872
Co 20.5162 16.7746 7.20918
Pd 18.5594 14.797 10.9327
Pd 18.5481 16.6726 12.8542
Pd 20.4455 14.7852 12.8515
Co 20.4418 16.6817 10.9515
Pd 18.5488 14.7742 14.7392
Pd 18.5533 16.6739 16.6578
Pd 20.461 14.777 16.6537
Co 20.4611 16.6832 14.7655
Pd 18.557 14.7723 18.5559
Pd 18.5686 16.678 20.4752
Pd 20.4747 14.7843 20.471
Co 20.4702 16.6814 18.57
Pd 18.5719 14.7784 22.3787
Pd 18.578 16.6789 24.298
Pd 20.484 14.7856 24.2935
Co 20.4814 16.6853 22.3874
Pd 18.578 14.7759 26.2084
Pd 18.5811 16.6723 28.1251
Pd 20.4871 14.7791 28.1201
Co 20.4866 16.6822 26.21
Pd 18.5782 14.7654 30.038
Pd 18.578 16.6585 31.9479
Pd 20.4842 14.7648 31.9426
Co 20.4876 16.6723 30.0325
Pd 18.5696 14.7463 33.861
Pd 18.569 16.6414 35.7656
Pd 20.4768 14.7446 35.7601
Co 20.4827 16.6554 33.85
Pd 18.5678 14.7353 37.6778
Pd 18.57 16.6271 39.5691
Pd 20.4678 14.7399 39.5624
Co 20.4799 16.6443 37.6547
Pd 18.5852 14.7451 41.4846
Pd 18.5968 16.6383 43.368
Pd 20.4813 14.7561 43.3563
Co 20.4672 16.6297 41.4682
Co 20.5501 16.7104 45.2125
Pd 18.6269 20.559 5.28171
Pd 20.5002 18.6733 5.28848
Co 20.648 20.6825 3.55558
Pd 18.5876 18.6386 7.14861
Pd 18.5669 20.5 9.08598
Pd 20.4563 18.6108 9.08194
Co 20.4722 20.5214 7.19678
Pd 18.5528 18.5903 10.9596
Pd 18.5536 20.4895 12.8791
Pd 20.4576 18.5863 12.8746
Co 20.4668 20.5054 10.9973
Pd 18.5514 18.5779 14.7672
Pd 18.5632 20.489 16.6825
Pd 20.468 18.5858 16.6772
Co 20.4655 20.4931 14.7881
Pd 18.5655 18.5816 18.5758
Pd 18.5746 20.4902 20.4904
Pd 20.479 18.5874 20.4855
Co 20.4764 20.4939 18.5892
Pd 18.5763 18.5828 22.3921
Pd 18.5838 20.4883 24.3076
Pd 20.4866 18.5871 24.3028
Co 20.4854 20.4935 22.399
Pd 18.5826 18.5795 26.2148
Pd 18.587 20.4818 28.1284
Pd 20.4897 18.5807 28.1236
Co 20.491 20.4896 26.2164
Pd 18.5825 18.5698 30.0374
Pd 18.5839 20.4708 31.9456
Pd 20.4883 18.5679 31.9409
Co 20.4916 20.4805 30.0338
Pd 18.578 18.5556 33.8537
Pd 18.5787 20.4566 35.7535
Pd 20.4835 18.5534 35.7492
Co 20.4887 20.468 33.8435
Pd 18.57 18.5392 37.6626
Pd 18.5753 20.4445 39.5575
Pd 20.4794 18.5411 39.5519
Co 20.4839 20.4544 37.6447
Pd 18.5773 18.5381 41.4698
Pd 18.5949 20.4403 43.3499
Pd 20.4845 18.5523 43.3432
Co 20.4915 20.454 41.4352
Pd 18.6208 18.5706 45.2798
Pd 18.6489 20.482 47.1444
Pd 20.5411 18.5978 47.1403
Co 20.5055 20.4547 45.239
Co 20.6251 20.5647 48.8627
Pd 18.7462 22.5368 3.4404
Pd 18.6397 24.3665 5.37113
Pd 20.5335 22.4759 5.37473
Co 22.3891 22.5175 3.5024
Pd 18.5887 22.4279 7.20284
Pd 18.5733 24.3245 9.12085
Pd 20.4785 22.4214 9.11462
Co 20.5105 24.3566 7.256
Pd 18.5613 22.4034 10.9981
Pd 18.5637 24.3195 12.907
Pd 20.4674 22.4085 12.9061
Co 20.473 24.326 11.0249
Pd 18.5621 22.4018 14.7926
Pd 18.5672 24.3167 16.6986
Pd 20.473 22.4047 16.6974
Co 20.4708 24.3208 14.8098
Pd 18.5713 22.4012 18.5931
Pd 18.5786 24.3133 20.5023
Pd 20.4828 22.4035 20.4993
Co 20.4785 24.3169 18.6029
Pd 18.5823 22.3993 22.4035
Pd 18.588 24.3084 24.3156
Pd 20.4906 22.4002 24.3114
Co 20.4881 24.3129 22.4088
Pd 18.5888 22.3944 26.2212
Pd 18.5911 24.3019 28.1333
Pd 20.4937 22.3938 28.1279
Co 20.4936 24.3073 26.2229
Pd 18.5885 22.3864 30.039
Pd 18.5879 24.294 31.9466
Pd 20.4921 22.3842 31.9399
Co 20.4943 24.3 30.037
Pd 18.5836 22.3753 33.8493
Pd 18.5826 24.2844 35.7503
Pd 20.4883 22.3725 35.7416
Co 20.4908 24.2912 33.8428
Pd 18.5807 22.363 37.6499
Pd 18.5858 24.2743 39.5421
Pd 20.4888 22.3636 39.5333
Co 20.4891 24.2823 37.6357
Pd 18.5864 22.3526 41.4457
Pd 18.6026 24.2681 43.3314
Pd 20.5073 22.3633 43.3246
Co 20.4981 24.2748 41.4218
Pd 18.6204 22.3586 45.235