4033
Atoms. Timestep: 21879
Co 42.8993 41.7759 26.8105
Pd 15.0025 27.2885 37.3869
Pd 8.98517 13.1648 30.418
Co 26.3075 25.298 41.577
Pd 11.9826 36.6597 16.1684
Pd 43.1369 17.5089 20.7826
Pd 6.97484 17.8336 32.6135
Co 20.8094 24.0313 46.3813
Co 26.8714 23.1147 35.8577
Pd 44.1487 40.3829 24.9287
Pd 26.0833 33.8182 48.4897
Co 22.2586 38.1952 42.4831
Pd 19.8095 15.9517 8.82988
Pd 17.4892 9.82098 13.5902
Pd 28.2165 26.5505 42.8569
Co 17.8057 28.4951 42.578
Pd 16.3501 15.9334 25.9841
Pd 24.9228 18.4815 40.7008
Pd 36.3562 23.6615 13.7612
Co 23.4268 23.1636 16.5416
Pd 16.0523 27.4629 44.0847
Pd 37.2493 11.0108 35.2141
Pd 16.356 28.3781 19.8858
Co 19.6564 43.9668 17.4674
Co 22.2023 36.733 29.2595
Pd 27.3676 42.3863 37.5804
Pd 42.2637 29.638 37.6993
Co 39.4735 23.0714 10.2188
Pd 6.73827 16.9823 30.195
Pd 20.6008 20.5627 7.92502
Pd 27.6021 18.0954 10.6619
Co 14.4327 29.7171 37.1247
Pd 20.1722 28.8458 33.0101
Pd 25.3769 21.8337 46.126
Pd 25.025 15.0228 45.7339
Co 9.23186 19.9679 16.4158
Pd 26.3081 17.2048 16.29
Pd 22.1773 2.98552 21.7892
Pd 27.1795 43.5518 40.0598
Co 22.9342 28.2218 47.6321
Pd 17.6919 32.7231 41.2877
Pd 27.0637 18.7365 4.23385
Pd 3.73007 28.0657 28.3501
Co 29.7081 12.2791 32.0148
Pd 8.44608 20.3143 27.0851
Pd 39.6007 38.2558 39.0533
Pd 10.3728 21.6996 14.7955
Co 14.813 17.1787 27.6949
Co 18.3962 28.518 26.5475
Pd 12.066 15.0575 23.8648
Pd 11.7694 30.3842 39.818
Pd 11.0153 33.3528 10.5168
Pd 24.6025 17.4161 20.1856
Co 24.0409 32.4955 47.639
Pd 6.65029 32.2777 29.7149
Pd 23.7879 26.9357 33.9576
Pd 14.3072 25.593 10.7517
Co 20.0965 22.0056 45.3119
Pd 19.2923 22.0128 33.8656
Pd 14.8968 14.4221 19.2631
Pd 16.3573 31.0286 21.3382
Co 34.6725 27.5284 23.1347
Pd 32.0831 7.4319 39.9843
Pd 20.5811 14.9922 37.6398
Pd 32.2623 35.1612 32.6733
Co 15.1227 19.8088 13.7134
Pd 11.0413 24.0985 24.3316
Pd 14.9002 21.8096 31.2061
Pd 11.3632 26.6187 33.2637
Co 21.9034 31.6825 15.4396
Pd 29.5382 41.7241 43.3308
Pd 17.592 42.3037 21.5478
Pd 22.8008 6.31275 35.7089
Co 33.7665 37.1714 41.6957
Pd 33.8088 21.4537 42.0141
Pd 7.97726 32.3245 12.957
Co 18.0126 12.4183 31.6649
Pd 29.7936 19.1164 34.6042
Pd 12.0126 15.9236 28.3323
Pd 20.9962 23.2006 11.6039
Pd 38.0009 22.0235 38.7297
Co 17.5015 25.6065 16.0959
Pd 23.2484 37.0032 22.2908
Pd 18.4217 13.6846 15.7599
Pd 21.1861 29.5341 7.03369
Co 29.2568 36.9131 30.1346
Pd 14.5068 20.4496 41.2227
Pd 17.2397 11.4034 39.8336
Pd 33.7362 25.5576 27.9215
Co 22.4208 19.387 9.03679
Pd 27.2085 19.0578 34.1695
Pd 34.2778 5.41467 36.4093
Pd 6.46741 19.6385 30.6608
Co 31.6498 33.5821 45.0588
Pd 23.9273 47.4915 20.6835
Pd 8.68666 40.3833 20.9416
Co 14.7919 22.9137 36.1366
Pd 34.3306 38.3721 11.0204
Pd 26.754 23.405 16.9252
Pd 10.1438 29.883 18.2203
Pd 25.0877 8.57311 30.1692
Co 35.4986 34.497 26.1407
Pd 9.91983 29.1984 27.695
Pd 20.8011 19.2505 14.79
Pd 24.1999 21.9726 43.7556
Co 23.2611 43.3748 37.0676
Pd 22.8067 33.691 32.8397
Pd 14.858 42.608 13.7511
Co 12.137 22.8409 9.31178
Pd 32.3671 11.6823 45.1731
Pd 37.9565 33.1834 36.5113
Pd 17.1361 27.3348 6.23374
Co 16.8452 22.1957 10.0013
Co 12.6583 31.2133 9.06059
Pd 12.9681 11.2081 27.5139
Pd 21.9285 44.4084 16.5036
Co 38.9903 10.9229 30.8781
Pd 20.5178 43.6321 20.9868
Pd 37.0364 32.0502 16.9227
Pd 37.0005 34.8127 24.0716
Co 26.6412 28.5316 3.42285
Co 15.9322 15.4008 32.0068
Pd 17.2742 19.0716 12.4282
Pd 38.4123 32.7594 30.4872
Co 34.1198 23.0549 37.1745
Pd 13.2463 20.7761 29.4682
Pd 5.18758 26.1884 16.1339
Pd 33.4517 5.00731 31.0771
Co 26.3866 19.1362 8.309
Pd 31.85 16.3416 42.8759
Pd 14.9087 29.9912 34.5537
Pd 35.4691 22.267 33.313
Co 5.58172 29.1767 27.0348
Pd 24.1413 17.1774 46.9429
Pd 15.5798 22.0541 23.1013
Pd 8.25382 15.9502 33.9925
Co 36.8634 26.9492 32.6988
Co 19.4426 5.99991 23.6545
Pd 29.2895 41.2278 30.9828
Pd 12.612 38.7746 20.515
Co 14.8939 13.8996 16.6004
Pd 22.3511 39.3696 7.98202
Pd 25.3431 21.314 16.3054
Pd 34.4996 22.6532 6.76617
Co 35.2024 19.0328 37.8275
Pd 36.7656 19.5213 25.529
Pd 22.2455 25.9133 3.556
Pd 4.35388 34.8942 24.3339
Co 30.1722 37.2426 8.12859
Pd 22.1742 48.2856 29.5944
Pd 8.12908 24.5212 12.0206
Pd 19.2258 9.70946 27.7476
Co 11.0491 17.8657 29.5513
Pd 21.0386 36.2226 40.6099
Pd 23.6451 17.1264 44.2183
Pd 17.3343 46.5226 36.0568
Co 16.8777 9.82148 16.2184
Pd 28.8911 32.4085 33.6771
Pd 25.7469 30.6904 28.4142
Pd 44.9237 28.8044 18.2223
Co 9.75554 26.6434 28.0843
Co 10.8747 35.0135 36.9456
Pd 24.2247 20.7191 8.21136
Pd 13.0156 19.5814 11.8955
Co 22.866 35.1581 27.4912
Pd 10.9305 20.1511 30.7514
Pd 13.0949 7.08746 27.4965
Pd 18.9043 9.54481 17.9205
Co 19.3192 11.8241 37.7212
Pd 18.4444 5.61697 31.5225
Pd 41.7571 23.1762 10.9951
Pd 9.52668 35.2134 27.8934
Co 8.63528 34.8424 19.2872
Pd 24.8691 20.9398 13.5473
Pd 45.9196 13.5284 26.2542
Pd 32.7165 18.7321 16.5659
Co 18.1983 18.5325 39.4363
Pd 16.1747 17.4844 23.5756
Pd 32.1776 45.7305 31.4009
Pd 18.9753 28.9482 5.36119
Co 22.1351 15.2721 35.4775
Pd 23.8586 33.2883 42.494
Pd 33.271 22.625 45.0471
Pd 33.8694 12.8143 24.1971
Co 16.0628 37.5148 39.874
Pd 35.6346 17.5012 43.2219
Pd 12.0801 39.3203 38.3792
Pd 6.40918 24.6914 25.1023
Co 22.2664 38.9609 33.8911
Pd 12.7898 26.4164 38.3956
Pd 21.6455 43.5777 31.957
Pd 18.8601 36.5228 6.88663
Co 42.6594 29.9591 14.0092
Co 20.6385 13.1006 41.3207
Pd 25.7744 45.4765 19.4824
Pd 33.6649 12.7179 21.3714
Pd 34.1547 30.47 26.1363
Pd 15.8633 13.0674 33.1179
Co 37.747 18.7883 43.8496
Pd 16.6209 5.21584 27.1068
Pd 11.7419 36.5293 21.4374
Pd 24.1293 32.4163 39.7764
Co 28.3744 23.1488 12.9011
Pd 7.64691 20.6684 18.467
Pd 21.5407 21.5494 4.41301
Pd 24.965 29.3795 30.5904
Co 8.22657 15.8461 27.0592
Pd 17.5495 32.7557 23.074
Pd 21.1817 43.3984 27.6136
Pd 26.8264 34.9731 20.2253
Co 25.1267 33.2674 8.25139
Pd 34.7137 16.99 11.386
Pd 22.3604 11.1309 34.3324
Pd 8.76084 25.8336 24.8908
Co 16.7962 12.3314 37.5899
Pd 8.8418 22.465 16.8578
Pd 15.4447 40.5436 20.3355
Pd 34.4672 26.8903 40.1944
Co 19.6922 31.5372 20.0513
Pd 31.0272 11.4422 38.0758
Pd 24.4613 20.0069 20.2943
Pd 14.5666 15.463 34.0172
Co 33.9193 33.6217 41.801
Pd 28.8518 44.9915 34.211
Pd 22.6022 13.9262 33.4536
Pd 7.03323 18.08 27.9337
Co 11.7745 37.0829 29.5848
Pd 28.4439 25.7385 40.1587
Pd 27.6221 48.8385 29.9724
Co 11.354 35.7018 32.0059
Pd 19.2503 25.209 39.4466
Pd 9.74046 19.1338 19.989
Pd 14.335 26.0222 28.3236
Pd 30.4782 45.441 18.7322
Co 13.0531 15.515 17.5706
Pd 14.029 26.2935 33.1619
Pd 18.7343 38.7535 44.2834
Pd 20.2862 33.2077 4.05731
Co 15.3031 33.2918 22.1366
Pd 20.7104 25.9187 23.1788
Pd 33.0459 38.3835 38.8117
Pd 11.1613 41.0845 17.1655
Co 41.6512 22.9007 35.2895
Pd 18.9263 26.2612 27.5807
Pd 17.89 34.2237 11.0231
Pd 4.96193 30.0505 24.7101
Co 22.2714 21.7422 39.407
Pd 10.4673 32.5471 23.6746
Pd 22.805 18.844 32.5571
Pd 10.3998 18.9478 39.6708
Co 11.1901 23.2544 17.5775
Pd 6.04316 20.0035 22.5289
Pd 13.2181 35.37 33.6969
Pd 31.5873 40.2372 31.9551
Co 12.6152 29.193 10.703
Pd 7.03868 28.0721 20.7577
Pd 9.99629 31.4538 29.092
Co 27.8636 30.1927 33.0788
Pd 16.8111 26.2518 32.7569
Pd 31.2957 30.1611 25.9963
Pd 7.50342 24.6178 31.7819
Pd 12.1182 27.5941 27.8301
Co 31.4744 1.52439 24.3268
Pd 8.23398 12.3011 27.9108
Pd 29.9314 37.1813 5.60029
Pd 12.9606 44.7732 29.6992
Co 8.45299 31.5204 16.813
Pd 40.2896 34.4718 30.1043
Pd 12.7241 19.6587 19.3705
Pd 27.2345 40.318 26.792
Co 17.0401 35.6401 13.0825
Pd 13.5478 17.2026 22.9774
Pd 23.6193 48.9186 27.3456
Pd 22.9689 27.8751 29.7073
Co 14.4378 17.9738 25.4137
Pd 20.084 20.7538 28.7487
Pd 35.1645 37.2834 20.3101
Co 30.6605 8.60397 25.4616
Pd 26.0053 34.5428 5.77874
Pd 32.4855 43.7546 29.5745
Pd 23.5182 21.0258 18.0934
Pd 8.53108 27.6855 22.9201
Co 15.5386 36.4545 33.2514
Pd 9.77649 38.1091 16.3389
Pd 19.0975 45.7176 15.4665
Pd 14.1861 37.0181 28.558
Co 8.28117 18.2617 18.1964
Pd 28.1493 39.4511 20.0985
Pd 44.5124 36.107 23.9806
Co 26.1091 48.0448 19.3203
Pd 19.0844 39.4274 17.6312
Pd 30.0515 31.5086 29.2646
Pd 17.2448 47.0497 28.4342
Co 18.1682 7.2782 27.384
Co 12.6962 10.6556 18.0846
Pd 18.2375 33.1447 43.9913
Pd 19.2053 35.5174 20.9128
Co 14.4823 25.3687 44.8196
Pd 15.2946 10.9592 24.7784
Pd 37.5907 41.8497 16.6574
Pd 23.4581 8.38159 40.4668
Co 18.3133 14.8262 32.0337
Co 19.749 23.8356 35.8423
Pd 16.993 9.07784 26.1053
Pd 39.9904 17.8472 42.9468
Co 13.3842 27.9256 14.3279
Pd 37.8897 9.85961 37.6823
Pd 19.2148 31.3955 6.74227
Pd 25.0885 19.9962 38.5852
Co 37.057 14.141 18.5144
Pd 40.9965 9.7349 18.3498
Pd 4.83472 32.651 19.6363
Pd 18.2276 20.007 9.99329
Co 36.3548 34.1877 34.7408
Pd 14.8136 9.08552 33.4788
Pd 22.2787 9.40554 23.7785
Pd 13.3556 9.0514 31.3824
Co 10.8574 34.748 34.4736
Co 11.0488 18.3342 35.5881
Pd 7.60541 12.6716 21.1332
Pd 19.6903 26.4935 4.32534
Co 27.0535 28.4121 28.4618
Pd 5.51515 15.6769 23.6862
Pd 15.2767 15.6527 10.418
Pd 30.329 42.6277 14.8434
Co 18.4738 16.5486 18.3728
Pd 7.67626 39.4105 27.6495
Pd 21.2506 37.0322 26.9261
Pd 28.0179 7.64122 40.3372
Co 9.68429 11.3059 20.7547
Pd 28.6191 4.76064 23.4346
Pd 31.5503 17.8815 28.7648
Pd 9.83686 17.8289 27.3397
Co 26.1621 14.9122 17.2791
Pd 28.2184 37.107 21.4035
Pd 30.0824 14.7093 36.4581
Pd 21.5189 47.6987 19.4387
Co 39.4608 26.3942 40.3606
Pd 18.7861 43.3819 25.9752
Pd 13.6467 15.6878 30.5197
Pd 16.5166 27.1485 46.7299
Co 13.8776 27.9971 19.2527
Co 22.1243 30.6809 24.1189
Pd 32.1847 33.1626 7.10897
Pd 33.6195 9.87697 33.6787
Co 21.913 14.0324 16.5601
Pd 17.5565 31.0916 9.04042
Pd 17.9531 30.519 44.0116
Pd 26.4861 17.4586 6.39429
Co 17.7899 16.2227 16.0429
Pd 21.9083 41.6314 11.9834
Pd 33.3589 15.1949 25.0673
Pd 22.2854 39.7262 26.5781
Co 41.5853 37.5828 14.1438
Pd 6.64658 24.0381 20.9375
Pd 30.4128 24.4747 19.4252
Pd 16.4667 28.6544 39.0194
Co 31.3554 13.2523 28.1328
Pd 14.5761 9.14744 16.9898
Pd 14.9187 18.7141 21.297
Pd 30.0109 15.0377 31.9
Co 24.5953 13.1983 23.046
Pd 32.3218 34.1795 12.2982
Pd 15.742 27.4347 34.8542
Pd 12.3454 24.2345 34.2092
Co 34.1559 15.6027 43.7578
Pd 31.7722 12.8085 40.2487
Pd 15.0869 23.4757 19.7615
Pd 16.8372 17.7468 10.0073
Co 19.4763 12.5726 27.8347
Pd 11.8963 12.62 36.9375
Pd 16.6953 18.8052 41.5158
Pd 12.025 22.18 12.0721
Co 37.1303 26.7483 43.962
Co 16.6358 46.2764 16.6555
Pd 32.4248 37.7627 6.96955
Pd 26.0406 43.5263 21.1233
Co 25.8559 23.2856 3.99971
Pd 29.8464 22.7555 26.2813
Pd 5.6732 18.7303 18.2795
Pd 19.7587 47.2963 29.4941
Co 23.3046 30.0482 19.6459
Pd 24.4924 28.2123 20.9736
Pd 31.422 2.88388 21.9885
Pd 31.6675 42.3803 12.0812
Co 11.7733 25.1836 28.776
Pd 41.2083 41.8101 18.5147
Pd 18.8689 20.8374 20.5875
Pd 8.84614 12.438 18.4989
Co 31.8002 15.3173 40.3337
Pd 22.1812 14.945 13.7219
Pd 24.8867 16.9818 14.0942
Pd 23.5189 25.8931 38.8524
Co 40.8512 36.6595 37.2863
Pd 10.3592 21.1837 18.6658
Pd 20.9216 7.62797 37.0182
Pd 8.97483 35.8141 32.938
Co 18.1932 17.8703 34.7626
Pd 6.65064 29.8345 30.9117
Pd 17.4482 38.8674 25.066
Pd 16.8325 21.6258 13.3223
Co 26.6022 16.8848 18.8104
Pd 38.9236 19.9603 41.7135
Pd 21.9383 28.7854 34.8938
Pd 15.9773 40.0519 33.9184
Co 24.6456 41.321 29.9969
Pd 11.7297 34.106 15.0308
Pd 12.2904 20.9021 16.8538
Pd 20.8915 12.9192 35.8095
Co 22.3001 19.9007 21.8262
Pd 8.64437 23.9504 22.6814
Pd 16.8532 24.253 40.3795
Pd 12.602 36.3638 18.913
Co 20.6626 29.5086 40.6297
Co 16.3172 35.0269 23.717
Pd 15.0176 42.3707 22.4394
Pd 27.5882 44.6397 10.8482
Pd 13.3123 17.8981 14.0767
Pd 12.5541 28.5951 41.468
Co 20.6815 42.1679 41.7516
Pd 30.7144 35.9894 21.5494
Pd 43.4286 29.064 32.5349
Pd 11.3849 12.4809 31.5247
Co 8.82291 39.2637 30.0405
Pd 4.64687 35.3928 26.9812
Pd 38.5132 32.8125 39.2898
Pd 16.4427 20.7786 43.244
Co 12.1237 19.6528 23.3027
Pd 23.6441 23.5468 23.4128
Pd 25.1042 35.7883 3.69055
Pd 8.06672 22.9353 36.7678
Co 15.0015 20.2357 35.0536
Pd 21.2772 20.7094 19.4452
Pd 13.7281 16.2712 38.463
Pd 12.8908 25.9932 23.3985
Co 14.4673 36.3487 12.2653
Pd 15.371 37.5531 23.9426
Pd 21.5302 9.6221 38.6233
Pd 20.334 35.0054 44.6746
Co 31.5724 13.2294 30.6546
Pd 28.7914 22.4462 46.4393
Pd 32.3755 35.517 35.3361
Pd 20.0927 5.94852 26.15
Co 5.4575 23.6767 14.671
Pd 13.7238 35.5444 23.3516
Pd 17.5515 17.3993 32.1861
Pd 27.8278 14.1722 40.719
Co 29.7765 15.398 44.1252
Pd 28.348 38.8523 31.2969
Pd 24.3347 30.976 37.3172
Pd 14.2349 29.6417 12.7829
Co 30.4253 21.0063 36.2524
Pd 15.4147 16.545 17.138
Pd 8.20902 14.3198 16.6723
Pd 17.9684 21.4926 24.9262
Co 31.7912 45.5788 35.9629
Pd 36.7978 13.527 13.9988
Pd 31.552 28.6604 31.374
Co 6.98597 19.196 16.2133
Pd 15.5174 38.5602 31.9001
Pd 8.48772 25.8397 20.5927
Pd 33.1138 8.12505 26.4556
Pd 29.5443 21.0045 14.1061
Co 26.8757 21.5421 7.99019
Pd 19.9732 24.4805 8.16691
Pd 30.6569 26.789 45.7485
Pd 39.9656 13.1349 30.5508
Co 15.0151 17.9673 12.0214
Pd 17.3793 15.5388 34.3639
Pd 14.2668 22.9209 10.6392
Pd 47.0648 35.3756 32.1326
Co 14.1907 29.2248 21.447
Pd 20.3754 26.9907 16.9335
Pd 13.5506 37.9791 40.4795
Pd 21.9113 17.3418 26.5264
Co 28.4848 11.9148 20.6038
Pd 24.0335 38.3443 37.7043
Pd 38.9686 33.7149 27.9882
Pd 33.5418 19.4662 21.567
Co 25.5757 19.8026 44.6287
Pd 12.6567 36.5928 35.9628
Pd 20.2608 19.5515 34.5705
Pd 39.4238 15.6224 14.2163
Co 24.2733 40.1536 39.617
Pd 18.9688 19.9817 44.09
Pd 12.2524 44.5971 27.0604
Pd 16.4032 14.6738 38.475
Co 34.4672 42.1801 36.9848
Pd 42.5916 12.788 30.4169
Pd 12.801 38.2393 11.8797
Pd 26.0603 28.0783 23.0858
Co 22.0764 45.7732 21.0384
Pd 8.83606 33.6972 29.9569
Pd 42.3695 31.9789 35.9972
Co 12.8192 28.1162 31.8763
Pd 33.0158 33.8858 16.8417
Pd 24.6161 41.94 41.3156
Pd 13.531 21.0802 21.6146
Pd 18.8915 29.0271 8.16127
Co 20.4044 45.6626 22.7493
Pd 33.1724 6.52334 28.677
Pd 17.2106 29.9072 16.3336
Pd 17.2267 21 18.4196
Co 12.9697 33.613 31.6129
Pd 23.8773 37.2233 7.97136
Pd 22.05 36.206 33.6147
Pd 18.5051 18.2923 7.87186
Co 6.9641 34.3219 23.1392
Pd 13.8525 39.6399 25.0778
Pd 22.8597 8.31544 28.531
Pd 22.217 44.5105 12.0527
Co 33.2196 43.5964 22.0121
Pd 11.5988 42.899 19.3592
Pd 36.1669 19.6282 41.8353
Pd 7.62093 38.2816 22.2832
Co 24.6522 3.69905 25.2644
Pd 47.1062 26.0402 33.8979
Pd 9.90367 28.3067 20.7822
Pd 12.2496 35.5589 27.5983
Co 35.5387 31.5024 44.9753
Pd 17.7067 40.8197 26.7455
Pd 13.7367 18.3768 36.5798
Co 7.88319 25.7703 38.5332
Pd 22.2356 24.4843 21.3869
Pd 17.8169 23.5218 37.8237
Pd 8.82294 35.9688 21.5789
Pd 32.9759 25.0638 6.80748
Co 9.9393 38.2301 20.7269
Pd 10.7537 16.48 33.8566
Pd 23.251 40.1907 31.8533
Pd 14.4118 29.9696 15.42
Co 29.1241 33.4222 9.84984
Pd 20.339 17.4257 38.5134
Pd 26.3828 40.2455 9.83003
Pd 21.5111 10.9772 28.1466
Co 21.8404 40.7061 14.6956
Pd 12.4001 43.0693 35.6538
Pd 21.5965 27.7522 11.5441
Pd 31.4373 24.1693 46.2891
Co 26.1635 49.0914 27.8016
Pd 33.5738 44.6798 27.232
Pd 15.1131 45.1499 35.077
Co 42.5409 33.4304 30.3467
Pd 35.6434 22.3365 15.9784
Pd 17.3761 18.8165 20.0408
Pd 20.1331 35.2715 17.5218
Pd 20.0796 22.158 26.4904
Co 20.4976 39.5129 12.8904
Pd 11.3737 34.3994 29.8121
Pd 34.4177 40.4322 35.0749
Pd 44.8312 29.2704 25.7541
Co 39.4867 14.1249 38.9183
Pd 8.18732 27.1615 11.9853
Pd 31.7415 43.1446 18.3848
Co 12.1878 14.5308 19.6274
Pd 8.59727 30.6153 20.6861
Pd 7.59764 37.3055 19.7507
Pd 36.0101 17.8701 6.36548
Co 15.2993 23.0075 44.4751
Pd 8.86051 33.3381 21.5598
Pd 22.554 2.23185 24.6296
Co 25.6156 34.0887 38.7261
Pd 44.6083 35.5715 35.8115
Pd 12.6248 24.458 26.4656
Pd 41.0322 12.0595 28.449
Co 33.7351 11.9169 37.9344
Co 26.7546 12.1072 39.7599
Pd 11.4335 13.1578 21.7128
Pd 28.5757 32.8698 31.0163
Co 28.646 18.0213 7.89234
Pd 8.71752 18.12 14.5325
Pd 11.2612 26.5536 25.522
Pd 16.3718 12.8869 10.2584
Co 18.8938 23.4278 16.0671
Pd 24.8191 14.4132 13.1341
Pd 34.2188 28.1203 31.6422
Pd 36.2828 15.7236 45.1084
Co 11.2266 23.77 40.1342
Pd 17.5027 20.2566 34.7332
Pd 24.6946 2.21876 23.1643
Pd 16.7826 13.0268 24.3363
Co 22.5918 25.4019 24.8727
Co 36.4562 17.9522 33.1013
Pd 40.5576 38.0248 22.7953
Pd 14.4592 39.6302 22.5175
Co 24.0468 9.92871 38.6489
Pd 27.2009 3.08032 25.0141
Pd 41.6177 11.1974 20.5492
Pd 21.1541 6.96408 15.9538
Co 7.09306 24.4252 16.2992
Pd 31.8175 9.08086 23.2445
Pd 18.7613 13.6046 39.4118
Pd 38.1161 15.7929 34.2299
Co 23.2857 7.50167 38.1001
Pd 30.1147 29.1303 6.92185
Pd 12.0549 25.9598 44.5063
Pd 36.1701 12.8831 16.4897
Co 27.8305 45.8047 13.1372
Pd 24.4597 37.5856 30.0897
Pd 33.4107 12.7935 12.7548
Pd 43.7042 31.8869 31.8888
Co 15.2322 36.7617 42.0642
Pd 39.4599 9.86733 28.2249
Pd 10.5559 15.8271 25.9065
Pd 19.0223 25.7866 46.3413
Co 37.2064 23.4278 7.22118
Co 12.5188 42.6656 31.251
Pd 12.8615 16.6023 11.4704
Pd 23.0169 30.3161 5.20429
Co 36.315 33.9431 10.3464
Pd 38.8523 31.9646 19.036
Pd 27.9577 33.5963 18.0656
Pd 32.5835 14.0398 17.4388
Co 25.1265 22.7126 9.31982
Pd 25.2866 7.47504 27.468
Pd 36.1049 24.4558 28.7403
Pd 17.9728 5.32184 18.8061
Co 20.7947 8.66189 13.9442
Pd 41.0333 22.0332 29.6214
Pd 9.14725 36.4558 38.0177
Pd 23.4894 21.059 11.0328
Co 41.98 14.722 39.2327
Pd 25.4113 40.0706 14.6102
Pd 15.9616 26.3237 23.737
Pd 24.1113 10.9136 22.2083
Co 8.28524 22.785 27.6202
Pd 39.2144 23.927 34.4408
Pd 9.50889 16.4839 38.964
Pd 20.725 26.9397 25.7287
Co 44.8575 30.6584 33.8635
Pd 7.19924 19.0035 20.5055
Pd 12.2322 13.8467 15.6184
Pd 22.3941 28.3258 42.3508
Co 8.14738 29.1623 35.2417
Pd 23.7841 13.0742 35.6568
Pd 24.4914 16.1266 35.8063
Pd 29.4317 1.78853 30.4275
Co 28.0976 26.2162 28.7777
Co 15.1351 32.3468 30.5448
Pd 29.2046 45.2921 27.2592
Pd 19.9546 29.6864 10.5757
Co 18.0125 39.9622 12.8713
Pd 20.0814 10.4231 22.4899
Pd 27.0746 1.03269 29.5004
Pd 35.3738 25.1426 15.7613
Co 31.0796 41.199 16.8537
Pd 15.3361 34.4113 31.9236
Pd 14.6105 21.994 15.562
Pd 6.41888 27.1157 31.6131
Co 18.1475 12.4954 22.0324
Pd 15.7512 8.48934 21.2823
Pd 23.0091 3.40831 19.2197
Pd 29.5019 15.0003 46.7504
Co 24.2935 31.0786 9.82426
Pd 21.7853 8.49724 34.2633
Pd 16.8482 31.381 25.2525
Pd 15.7543 11.1166 22.1332
Co 11.1291 18.8635 15.2831
Pd 23.9934 8.85875 25.7064
Pd 36.0798 10.1086 42.0356
Pd 20.0314 33.4576 15.4326
Co 31.5201 21.2232 3.88177
Pd 4.15044 21.7574 22.0269
Pd 36.6681 45.4847 30.3107
Pd 38.2008 28.1237 25.8915
Co 24.5851 36.9423 41.7969
Pd 26.3869 16.6219 33.81
Pd 18.9808 5.13634 28.5022
Pd 21.6264 24.2443 39.7883
Co 4.62839 19.7396 20.3882
Pd 22.5873 2.68393 31.6552
Pd 41.8229 29.7242 22.4899
Pd 12.6417 43.7866 21.7821
Co 7.06661 27.2129 36.5873
Pd 4.69128 23.7022 17.0716
Pd 21.568 47.7086 34.8039
Pd 21.1009 24.5669 26.9827
Co 32.0967 14.1658 44.168
Co 5.99236 19.6417 26.3112
Pd 24.5281 18.3483 9.9278
Pd 23.3862 40.6649 18.5616
Co 24.8355 35.124 15.4857
Pd 26.6991 32.0478 9.83192
Pd 19.766 19.4339 12.39
Pd 21.0085 23.4266 14.3516
Co 14.9201 30.8705 23.3504
Pd 20.946 39.7046 19.5119
Pd 32.2294 35.2623 40.5818
Pd 13.1363 43.234 17.2596
Co 20.7288 34.8362 28.6629
Pd 13.6787 12.6003 23.2901
Pd 10.4554 36.5549 25.6976
Pd 9.60652 16.9134 16.5742
Co 27.7315 17.6732 31.8015
Pd 26.8574 16.6108 40.9381
Pd 13.9385 45.6427 20.3485
Pd 6.49378 34.7534 20.5561
Co 14.3301 9.85503 19.7533
Pd 35.5321 5.69203 29.4193
Pd 18.024 16.5458 37.3721
Pd 30.4219 48.0421 19.5774
Co 14.8178 12.3552 28.9495
Pd 37.6665 22.1063 11.767
Pd 25.4077 13.3624 41.8199
Pd 14.5885 45.0133 22.9702
Co 39.6771 11.1304 34.7236
Pd 25.6558 34.0694 30.8922
Pd 34.5603 11.7459 35.4376
Pd 27.4453 39.7595 42.28
Co 12.2497 22.2049 31.3706
Pd 27.0593 11.3674 11.09
Pd 28.2772 47.7604 34.5892
Pd 20.2954 17.7264 41.023
Co 25.4284 42.4259 25.6033
Pd 41.3446 21.804 42.1939
Pd 28.6979 27.5332 4.83067
Pd 32.9521 39.525 41.3699
Co 26.8997 6.95813 33.3912
Pd 14.451 29.6341 43.4984
Pd 15.8268 31.0498 39.4307
Pd 30.275 26.0432 36.2268
Co 18.5931 23.1906 46.885
Pd 31.3078 22.3745 38.2094
Pd 14.2188 11.5494 37.4501
Pd 14.4341 30.6466 25.8369
Co 16.1125 29.5752 45.655
Co 14.2688 17.6748 41.0613
Pd 27.3835 32.9062 12.2609
Pd 39.8573 9.42515 32.8546
Pd 29.0956 13.7529 25.299
Co 23.5744 37.3024 11.3856
Pd 13.8645 30.3475 31.1968
Pd 33.7279 19.1482 18.9916
Pd 21.1221 26.2212 34.5932
Co 28.5186 38.9467 9.24883
Pd 28.9628 13.73 34.0323
Pd 18.4481 24.8911 5.88882
Pd 31.6027 26.7608 12.9266
Co 29.394 43.3287 17.1619
Pd 21.7556 41.1194 23.6016
Pd 26.3818 37.6868 26.7283
Pd 9.95059 14.2187 28.2212
Co 26.5577 16.7518 8.75438
Pd 25.4262 33.2169 36.3545
Pd 24.5237 39.4255 42.2073
Pd 22.6412 16.3679 39.7171
Co 27.5658 22.8773 10.2114
Pd 13.6043 9.80188 22.4502
Pd 21.8451 20.2057 25.9356
Pd 6.51739 25.7491 18.5486
Co 33.9974 33.7567 34.634
Pd 40.0736 21.531 33.7666
Pd 26.1136 38.2338 44.0269
Pd 23.3109 19.5821 45.6636
Co 13.8191 28.9176 8.72499
Pd 35.6569 43.5491 23.3344
Pd 36.1912 26.6639 27.0308
Pd 28.0844 9.21428 42.8575
Co 32.1756 24.4712 36.976
Pd 24.4455 45.3763 32.3288
Pd 12.2278 30.6366 27.5442
Pd 42.2951 33.7438 33.497
Co 35.2501 25.4881 43.1539
Pd 34.6591 36.7524 12.9967
Pd 26.5496 29.1536 25.9
Pd 16.3507 46.5547 24.2779
Co 35.2361 46.6746 27.2827
Pd 25.6531 12.8262 44.3891
Pd 19.6679 41.3172 39.6821
Pd 25.8483 31.1802 48.821
Co 6.6182 25.6023 13.9694
Pd 8.40799 21.2973 21.6303
Pd 26.0284 40.0588 37.6345
Pd 24.8478 13.7744 31.7346
Co 27.4157 35.0018 13.917
Pd 13.4244 40.9555 34.2729
Co 23.7289 19.5664 43.0542
Pd 38.8643 16.8805 28.8898
Pd 12.7493 41.5239 23.6199
Pd 7.36808 33.1725 32.1215
Pd 21.1267 33.7131 35.4318
Co 9.64684 16.3707 36.2374
Pd 27.4648 20.375 12.5266
Pd 38.192 33.687 12.2194
Pd 29.8027 32.1139 6.33124
Co 24.0048 40.9349 10.9442
Pd 5.80333 36.4055 22.5226
Pd 23.1832 26.7493 36.4222
Pd 25.399 19.8472 6.02142
Co 24.2647 5.04452 27.2803
Pd 26.3296 9.85459 33.5904
Pd 24.8144 30.8309 21.5016
Pd 29.8841 45.8835 14.6188
Co 19.6804 41.821 13.1088
Pd 17.1931 41.695 14.5455
Pd 19.5341 22.571 18.5516
Pd 5.92878 28.8234 16.4105
Co 38.4021 25.1573 32.1822
Pd 28.0399 24.5679 37.7995
Pd 9.31998 34.1563 25.4221
Pd 10.6943 28.7342 35.0173
Co 18.8232 17.4501 14.0879
Pd 37.5242 20.7168 34.362
Pd 33.288 39.8678 16.1676
Pd 8.64707 18.5562 34.5427
Co 45.7076 30.6105 19.8643
Pd 21.2 37.7162 44.9707
Pd 23.4988 25.4877 17.5986
Pd 19.6124 27.0834 9.85521
Co 6.1811 28.1328 29.1354
Pd 42.3155 24.4189 30.394
Pd 16.8485 37.8205 20.288
Pd 34.139 29.8636 29.1463
Co 28.7055 36.8894 32.8957
Pd 10.1245 33.4964 32.2883
Pd 21.6618 15.8338 42.5276
Pd 25.2424 31.0634 44.0713
Co 19.0178 34.5278 36.8486
Pd 24.0476 7.12209 19.562
Pd 38.7605 39.5205 34.9949
Co 9.53374 29.8142 39.0498
Pd 16.4648 16.3305 42.1376
Pd 30.1252 25.9083 15.2511
Pd 27.2836 34.3675 27.0735
Pd 34.2615 39.6948 13.3193
Co 14.0402 14.0562 37.3436
Pd 27.9356 28.2173 34.7532
Pd 8.65566 21.4493 29.6254
Pd 17.0848 44.3537 14.0846
Co 16.8174 33.5759 36.4988
Pd 10.6339 11.4772 29.1184
Pd 32.5031 30.576 33.0857
Pd 22.2495 14.4522 22.7022
Co 19.9154 29.9573 45.8629
Pd 12.2463 32.6697 33.8655
Pd 43.2493 33.7472 23.4222
Pd 10.0688 37.7395 23.3067
Co 38.0083 21.366 9.26189
Pd 24.83 43.7253 43.0827
Pd 46.73 17.7493 30.5458
Pd 19.8947 25.5612 12.3437
Co 33.8427 44.2096 34.9677
Pd 23.9871 46.7782 37.1562
Pd 21.3215 44.8418 25.3336
Pd 10.4294 42.2962 21.7744
Co 19.6523 39.0627 26.614
Pd 29.6239 41.5914 19.0015
Pd 29.1548 22.8925 3.79239
Pd 11.635 29.5015 29.8439
Co 15.1838 40.194 14.4342
Pd 30.9227 32.5126 24.6721
Pd 16.721 19.1949 25.419
Pd 14.0652 35.3034 14.6036
Co 16.2608 32.6485 27.5377
Pd 16.2377 24.3736 22.0275
Pd 18.2009 12.8566 34.2545
Co 42.8459 31.9633 21.6447
Pd 12.3102 43.9348 24.5063
Pd 14.5661 38.325 18.9008
Pd 9.02566 16.8528 20.9734
Pd 8.58203 23.0438 25.1246
Co 11.368 29.1705 8.60917
Pd 15.0248 33.1735 40.8358
Pd 15.0152 22.4269 8.12786
Pd 20.8274 22.306 21.5499
Co 15.2182 28.447 32.3899
Pd 30.0725 43.259 10.1032
Pd 10.6952 34.704 17.5004
Pd 9.31516 24.4238 29.6049
Co 17.1002 18.0494 27.6264
Pd 36.6185 29.121 44.8708
Pd 29.0205 15.4513 23.007
Pd 36.1528 41.1888 40.5092
Co 24.4335 33.2052 11.06
Pd 24.8301 47.9059 23.3817
Pd 25.0636 35.5208 43.7632
Pd 19.5979 34.454 42.1318
Co 15.9097 40.8692 24.4729
Pd 18.4659 29.1423 29.0234
Pd 34.1403 34.9859 30.3311
Pd 27.9063 24.1448 21.9676
Co 40.8015 28.3757 29.3889
Pd 18.7483 36.9869 39.4513
Pd 38.2709 40.7917 31.4377
Co 29.7453 26.9087 8.08953
Pd 19.9327 20.5259 23.4618
Pd 30.9899 23.2172 23.734
Pd 16.6788 25.286 35.9969
Pd 23.7761 35.1603 47.7912
Co 10.1319 24.3803 15.6937
Pd 30.8806 30.2855 4.61198
Pd 8.75448 38.1385 34.2577
Pd 42.6623 31.7199 26.599
Co 33.7976 19.0896 9.90841
Pd 37.8302 46.9256 28.3531
Pd 25.0999 22.5294 6.47852
Pd 31.081 33.8478 42.593
Co 12.4151 22.1494 35.9797
Pd 21.5788 33.397 40.6164
Pd 6.82249 23.154 18.4883
Pd 35.1023 41.8699 21.3546
Co 37.4005 40.9769 22.0171
Pd 10.5199 38.0798 36.4296
Pd 26.0927 32.4585 19.6928
Co 32.6984 45.1242 20.0618
Pd 16.1468 16.873 29.8503
Pd 25.074 25.7563 3.54605
Pd 25.5089 44.6925 37.9186
Pd 12.9628 37.2181 25.6299
Co 34.3614 31.926 6.82987
Pd 36.6063 35.447 8.286
Pd 32.6324 40.5462 25.5207
Pd 20.7046 34.0642 10.5271
Co 14.1501 43.0135 19.7207
Pd 27.9201 23.5377 33.35
Pd 16.2561 41.8967 29.1092
Co 11.212 28.1051 23.2979
Pd 40.1562 26.5413 16.0315
Pd 17.8009 32.4238 38.4939
Pd 12.8694 30.0847 17.5978
Pd 35.565 46.2044 16.758
Pd 19.0849 10.8665 15.3106
Co 9.66976 25.8372 10.2843
Pd 28.9288 16.508 33.9321
Pd 13.8314 23.6905 17.4138
Pd 46.6781 22.1505 24.033
Co 22.3541 4.64217 25.7507
Pd 13.6737 12.2018 20.4388
Pd 25.296 24.5289 34.2994
Pd 23.7291 16.259 33.1909
Co 17.4078 23.5068 42.8561
Pd 35.0129 18.9232 30.408
Pd 19.7921 6.99145 18.17
Pd 18.8563 19.8934 32.2861
Co 27.4482 14.9691 12.6275
Co 24.6443 11.9161 33.4162
Pd 24.1409 47.1479 34.4683
Pd 38.6055 35.0798 10.0671
Co 33.3992 17.9247 36.7329
Pd 34.8222 27.125 6.26869
Pd 36.4509 8.16208 39.2741
Pd 36.7702 12.3015 30.9654
Co 14.5652 32.1104 33.036
Pd 15.972 21.1114 20.664
Pd 22.7443 33.1767 9.03747
Pd 31.5444 22.2255 28.4062
Co 38.0385 40.3895 28.8391
Pd 18.7839 21.8966 11.7359
Pd 22.5062 7.76577 31.1328
Pd 25.8794 22.8557 12.0671
Co 19.3563 22.2612 9.24859
Pd 32.3725 21.7778 25.5311
Pd 32.9769 17.8633 47.3839
Pd 30.1932 10.2577 19.5782
Co 16.3614 14.7886 14.7577
Pd 28.2077 30.8596 18.7912
Pd 22.0557 25.7061 41.8667
Pd 26.5145 5.38522 28.4106
Co 21.3407 5.36816 22.2535
Co 34.7741 15.1235 19.9288
Pd 24.0489 28.658 6.83708
Pd 8.02187 36.3609 17.32
Co 21.7066 16.6657 29.1634
Pd 13.4115 15.7713 26.0469
Pd 13.1243 18.0528 17.0779
Pd 6.50636 20.2498 33.5381
Co 40.6697 17.1417 20.2382
Pd 17.1228 21.5871 15.9219
Pd 10.4269 25.867 22.4174
Pd 27.1085 2.59941 22.0512
Co 12.5929 20.0931 34.9484
Pd 35.5632 18.1805 45.8845
Pd 28.1237 8.56632 14.371
Pd 24.3317 16.0687 41.6997
Co 26.7488 33.3344 15.7825
Pd 47.649 22.7122 21.2979
Pd 14.8714 19.6855 27.4821
Pd 26.9423 16.2624 21.2185
Co 13.0415 11.1751 30.1845
Pd 24.6269 8.04385 34.7107
Pd 18.4635 14.0417 36.5699
Pd 22.2052 22.7472 41.8815
Co 44.4339 19.9188 20.0483
Pd 32.4499 8.3674 16.0202
Pd 17.2615 43.9563 16.7755
Pd 31.1412 30.2534 40.8358
Co 12.0019 25.4141 17.1431
Pd 22.8702 11.271 16.8802
Pd 38.3141 14.2217 41.2561
Pd 15.146 24.0005 26.8781
Co 16.2367 28.6571 22.547
Co 28.3582 10.7907 38.1431
Pd 19.4618 9.95968 33.7357
Pd 32.2678 42.5096 35.7498
Co 15.4361 34.2595 11.7452
Pd 25.4136 15.281 28.8321
Pd 22.2966 26.939 8.03688
Pd 20.1726 14.0222 21.1166
Co 14.4083 22.1325 13.0357
Pd 23.8429 47.9603 18.0569
Pd 30.2435 8.21205 41.7413
Pd 33.4185 35.587 21.4306
Co 30.2424 9.25562 12.6418
Pd 39.231 15.6054 18.7274
Pd 7.4217 17.6437 22.8905
Pd 7.73382 36.7229 26.7241
Co 18.9587 37.2207 18.9846
Pd 14.5044 13.1363 26.0261
Pd 36.3933 31.1308 19.5572
Pd 41.2438 12.4449 18.1103
Co 27.2513 30.8716 21.3195
Pd 27.4312 15.8467 38.308
Pd 36.5314 7.50668 36.7248
Pd 29.193 6.85834 31.9071
Co 33.1954 31.4537 8.93493
Pd 20.6173 3.83736 24.1868
Pd 44.8014 14.7447 28.3066
Pd 18.4633 40.415 42.0996
Co 46.5517 19.5664 24.0182
Pd 46.4259 16.9224 23.8348
Pd 12.3946 23.3376 15.138
Pd 23.1046 23.4962 37.6919
Co 35.0993 27.8652 42.8936
Pd 12.928 41.3034 21.0348
Pd 33.4919 18.8548 42.0131
Pd 19.3977 3.71875 21.9138
Co 33.4293 6.93488 33.2854
Pd 43.1215 34.2522 39.8029
Pd 32.5594 28.9122 36.6426
Pd 22.896 35.3653 45.3737
Co 11.1985 40.8421 36.2558
Co 21.0602 17.2212 13.1422
Pd 21.6006 21.105 32.9415
Pd 11.8023 39.2433 15.1263
Co 15.1238 18.8113 18.7262
Pd 42.5817 20.7604 12.1044
Pd 32.9598 28.6849 24.6451
Pd 39.5561 22.4853 7.70717
Co 24.2705 29.4846 35.1858
Pd 24.2682 42.4897 23.0487
Pd 13.5659 33.3327 10.1892
Pd 21.286 29.3356 16.0474
Co 16.0456 33.7733 14.171
Pd 37.2993 15.2283 22.8825
Pd 17.5732 23.3229 7.78794
Pd 9.45289 36.3851 30.2907
Co 20.2412 18.5858 9.62762
Pd 11.8246 9.9469 20.3544
Pd 21.9602 35.6644 24.7202
Pd 13.5028 13.1741 34.9483
Co 10.2265 27.1571 8.39423
Pd 31.794 7.86599 37.2698
Pd 29.1667 28.2044 32.416
Pd 19.3642 19.4394 26.002
Co 19.2543 24.0828 44.4639
Pd 31.1299 14.6215 12.3209
Pd 18.2243 41.4559 24.0776
Pd 23.6834 29.86 14.5217
Co 24.0578 3.60146 29.492
Pd 22.6099 31.0361 41.5329
Pd 17.2055 24.9568 48.0576
Pd 4.38784 23.4869 19.7794
Co 24.3255 22.5968 29.855
Pd 20.6209 4.42019 19.6674
Pd 30.7374 42.5296 25.1286
Pd 9.40706 17.4521 31.7451
Co 8.08828 15.3199 31.4484
Pd 17.9589 26.948 21.7733
Pd 31.7248 24.6185 34.335
Pd 40.0593 31.8548 37.3767
Co 10.8443 18.8484 17.7101
Pd 39.8848 18.3993 39.8538
Pd 5.55809 30.1927 20.309
Pd 25.9701 20.4887 36.1512
Co 22.847 24.4585 35.3029
Pd 25.8556 8.49113 41.6801
Pd 9.41784 27.7419 37.3007
Pd 16.2908 9.92354 37.7617
Co 38.7445 35.0051 40.5859
Co 41.5306 25.196 26.0759
Pd 19.0134 14.9564 42.2722
Pd 36.607 17.1949 26.902
Pd 31.6722 39.7982 18.8778
Co 36.4103 48.7089 27.2326
Pd 30.5347 4.60136 28.1064
Pd 24.3588 17.43 27.7234
Pd 36.9702 14.511 27.8876
Co 25.9122 11.7844 20.4421
Pd 34.7118 8.89253 14.646
Pd 21.854 24.0019 44.1109
Pd 20.7999 28.6704 27.816
Co 26.315 5.36891 25.8434
Pd 26.437 30.9788 23.9231
Pd 20.1753 43.1949 10.8345
Pd 23.9137 26.1694 22.6741
Co 12.5901 31.4148 11.568
Pd 23.5667 19.2321 24.2703
Pd 34.5323 14.9585 22.5325
Pd 8.76038 18.9076 29.6287
Co 19.8515 31.6267 47.7183
Pd 30.0117 35.4596 44.386
Pd 31.3706 0.382091 26.5951
Pd 10.562 32.1552 12.7611
Co 37.4376 7.20797 17.4811
Pd 7.55446 25.1664 27.4402
Pd 13.4818 31.7569 38.49
Pd 25.184 23.5723 14.7517
Co 27.9122 27.189 24.8845
Pd 40.975 43.1846 27.6796
Pd 30.5412 47.923 31.5402
Pd 16.2968 12.1291 15.3061
Co 17.7528 19.3938 14.924
Pd 38.0154 24.4188 40.0348
Pd 7.23968 37.397 29.2501
Pd 15.7423 20.5317 45.6777
Co 32.7339 9.60341 42.6741
Pd 25.5038 35.738 28.6487
Pd 22.3027 12.0671 23.841
Pd 22.9111 13.925 40.9589
Co 5.16833 31.5367 31.9254
Pd 5.0017 33.97 31.3308
Pd 38.9577 22.4746 41.3789
Pd 15.4741 42.4309 38.3697
Co 13.9391 30.7532 41.067