4033
Atoms. Timestep: 20156
Co 5.4874 13.0047 26.2269
Pd 3.55565 16.7195 24.3599
Pd 5.34804 14.7903 24.2867
Co 5.36877 16.7382 22.4511
Pd 3.63352 14.8472 26.231
Pd 3.55936 16.7147 28.1071
Pd 5.35188 14.7853 28.1718
Co 5.38453 16.6985 26.2316
Co 5.37627 16.7285 30.0123
Pd 3.5237 20.5315 20.5533
Pd 5.29615 18.5931 20.507
Co 5.35329 20.5447 18.6544
Pd 3.53274 18.6272 22.455
Pd 3.44164 20.4982 24.3328
Pd 5.34859 18.6262 24.3547
Co 5.32533 20.5087 22.4318
Pd 3.46308 18.5922 26.2359
Pd 3.44543 20.4933 28.144
Pd 5.35232 18.6214 28.1136
Co 5.30291 20.5147 26.2366
Pd 3.54023 18.6175 30.0168
Pd 3.53497 20.5169 31.9234
Pd 5.30752 18.5785 31.9612
Co 5.33289 20.499 30.0413
Co 5.36835 20.5252 33.8187
Pd 3.54404 24.3442 16.7523
Pd 5.3076 22.4036 16.7067
Co 5.39827 24.3506 14.8578
Pd 3.52928 22.4396 18.6468
Pd 3.43861 24.3133 20.5254
Pd 5.33048 22.4338 20.5537
Co 5.33773 24.313 18.6353
Pd 3.43291 22.4054 22.4298
Pd 3.41452 24.3062 24.3373
Pd 5.2895 22.4085 24.3334
Co 5.28361 24.3189 22.4405
Pd 3.42452 22.3999 26.2408
Pd 3.41831 24.3013 28.1492
Pd 5.29329 22.4036 28.1446
Co 5.27214 24.307 26.2414
Pd 3.44049 22.3956 30.0519
Pd 3.44998 24.2986 31.9611
Pd 5.34179 22.4192 31.9243
Co 5.29118 24.3091 30.0423
Pd 3.54435 22.4201 33.8347
Pd 3.56289 24.3198 35.734
Pd 5.32653 22.3791 35.7712
Co 5.35286 24.2934 33.8474
Co 5.42088 24.3213 37.6249
Pd 5.3836 26.2276 12.9855
Pd 3.61118 26.2239 14.8828
Pd 3.54163 28.0987 16.7572
Pd 5.38662 26.2226 16.77
Co 5.39587 28.0997 14.8627
Pd 3.45717 26.219 18.6245
Pd 3.43621 28.1197 20.5303
Pd 5.30015 26.2177 20.5332
Co 5.33533 28.1273 18.6402
Pd 3.4196 26.214 22.432
Pd 3.41213 28.117 24.3422
Pd 5.27329 26.2127 24.3439
Co 5.28124 28.1115 22.4454
Pd 3.40806 26.2091 26.2457
Pd 3.41593 28.1121 28.1541
Pd 5.27707 26.2078 28.1438
Co 5.26977 28.1136 26.2463
Pd 3.4272 26.2042 30.0594
Pd 3.4476 28.1049 31.966
Pd 5.31152 26.203 31.9545
Co 5.28881 28.1017 30.0472
Pd 3.47234 26.1994 33.8668
Pd 3.56055 28.0742 35.7388
Pd 5.40547 26.1982 35.7175
Co 5.35048 28.1077 33.8523
Pd 3.63379 26.1947 37.6083
Pd 5.40996 26.1933 39.5021
Co 5.41854 28.0703 37.6297
Pd 5.30275 30.0417 16.7166
Pd 3.52447 29.9984 18.6565
Pd 3.51651 31.9015 20.5678
Pd 5.32574 30.0015 20.5634
Co 5.34614 31.8955 18.6689
Pd 3.42812 30.0227 22.4396
Pd 3.43448 31.9249 24.3474
Pd 5.28476 30.017 24.3431
Co 5.31819 31.9217 22.4463
Pd 3.41977 30.0183 26.2506
Pd 3.43829 31.92 28.1586
Pd 5.28855 30.012 28.1543
Co 5.29581 31.9058 26.2511
Pd 3.43574 30.0129 30.0616
Pd 3.52789 31.8868 31.9379
Pd 5.33707 29.9868 31.9339
Co 5.32578 31.9119 30.0559
Pd 3.53964 29.9788 33.8444
Pd 5.32176 30.017 35.7809
Co 5.36128 31.8759 33.8332
Pd 5.28657 33.8421 20.5265
Pd 3.52318 33.8008 22.4745
Pd 3.54373 35.7036 24.3841
Pd 5.3391 33.7992 24.3741
Co 5.35689 35.6921 22.4753
Pd 3.45355 33.826 26.2554
Pd 3.5475 35.6988 28.1313
Pd 5.34286 33.7943 28.1329
Co 5.37264 35.7221 26.2559
Pd 3.53077 33.7911 30.0362
Pd 5.29803 33.8274 31.9807
Co 5.36447 35.6824 30.0365
Pd 5.33372 37.6352 24.3159
Pd 3.6193 37.5712 26.26
Pd 5.33764 37.6302 28.2009
Co 5.47089 39.416 26.2605
Co 9.24458 9.22506 26.2184
Pd 7.23711 12.8705 24.2994
Pd 9.10107 10.9941 24.2971
Co 9.13509 12.9141 22.4177
Pd 7.29862 11.055 26.2226
Pd 7.24093 12.8656 28.1506
Pd 9.10491 10.9892 28.1444
Co 9.1048 12.8728 26.2231
Co 9.1427 12.9044 30.0286
Pd 7.19347 16.6703 20.4937
Pd 9.06792 14.7741 20.4734
Co 9.1103 16.7164 18.6166
Pd 7.21584 14.7826 22.3708
Pd 7.21828 16.6777 24.304
Pd 9.09318 14.7721 24.2961
Co 9.07825 16.6625 22.373
Pd 7.24293 14.7978 26.2274
Pd 7.22211 16.6727 28.1556
Pd 9.09704 14.7672 28.155
Co 9.11263 16.6785 26.2279
Pd 7.22352 14.7728 30.084
Pd 7.20489 16.6556 31.9659
Pd 9.07942 14.7594 31.9777
Co 9.08596 16.6526 30.0829
Co 9.12551 16.6969 33.8393
Pd 7.19039 20.4774 16.6959
Pd 9.05608 18.5813 16.6795
Co 9.11505 20.5239 14.8175
Pd 7.18739 18.5918 18.5792
Pd 7.19116 20.4849 20.509
Pd 9.07241 18.577 20.4864
Co 9.06646 20.4677 18.5776
Pd 7.19842 18.5918 22.3975
Pd 7.21474 20.5086 24.3293
Pd 9.10268 18.5823 24.3035
Co 9.09728 20.4918 22.4098
Pd 7.23983 18.5927 26.2322
Pd 7.21854 20.5037 28.14
Pd 9.10652 18.5774 28.1572
Co 9.1132 20.4952 26.2328
Pd 7.20607 18.582 30.067
Pd 7.20256 20.4702 31.9603
Pd 9.08389 18.5623 31.9743
Co 9.10491 20.482 30.0558
Pd 7.20263 18.5722 33.8853
Pd 7.20937 20.4529 35.7734
Pd 9.07514 18.5567 35.7812
Co 9.08173 20.448 33.888
Co 9.1378 20.4945 37.6481
Pd 7.22418 24.3049 12.9035
Pd 9.0751 22.3994 12.8821
Co 9.1544 24.3622 11.0434
Pd 7.20467 22.3986 14.7765
Pd 7.22108 24.2882 16.7118
Pd 9.07856 22.3794 16.6903
Co 9.08532 24.2833 14.7832
Pd 7.19614 22.3951 18.602
Pd 7.21078 24.3161 20.5306
Pd 9.09111 22.3915 20.5069
Co 9.10236 24.3025 18.6109
Pd 7.2068 22.4084 22.4339
Pd 7.18488 24.3126 24.3381
Pd 9.10618 22.4088 24.3339
Co 9.10318 24.31 22.4298
Pd 7.19244 22.409 26.2371
Pd 7.18867 24.3076 28.141
Pd 9.10997 22.4039 28.1365
Co 9.10095 24.3104 26.2376
Pd 7.21437 22.3986 30.0403
Pd 7.22214 24.3014 31.9485
Pd 9.10253 22.3767 31.9635
Co 9.11076 24.3002 30.0455
Pd 7.21134 22.3754 33.8722
Pd 7.24002 24.2636 35.7671
Pd 9.09757 22.3547 35.7801
Co 9.11754 24.2828 33.8643
Pd 7.22745 22.369 37.6976
Pd 7.25067 24.2704 39.5755
Pd 9.10167 22.3649 39.5883
Co 9.1081 24.2537 37.6921
Co 9.18461 24.3228 41.4319
Pd 9.15902 26.2352 9.18435
Pd 7.30542 26.2314 11.0456
Pd 7.22173 28.1529 12.9085
Pd 9.1084 26.2301 12.9236
Co 9.15205 28.1031 11.0483
Pd 7.24367 26.2264 14.8103
Pd 7.21866 28.1595 16.7168
Pd 9.09984 26.2251 16.705
Co 9.08292 28.1719 14.7882
Pd 7.23201 26.2214 18.636
Pd 7.20842 28.1217 20.5354
Pd 9.10987 26.2201 20.5343
Co 9.1 28.1427 18.6158
Pd 7.18771 26.2164 22.439
Pd 7.18253 28.1153 24.3429
Pd 9.09742 26.2151 24.3367
Co 9.10084 28.1252 22.4346
Pd 7.18041 26.2115 26.242
Pd 7.18631 28.1104 28.1459
Pd 9.10121 26.2102 28.1434
Co 9.0986 28.115 26.2425
Pd 7.19527 26.2066 30.0449
Pd 7.21977 28.1069 31.9533
Pd 9.12121 26.2053 31.9458
Co 9.10839 28.1153 30.0503
Pd 7.24713 26.2017 33.8478
Pd 7.23761 28.1349 35.7721
Pd 9.11879 26.2004 35.7752
Co 9.11514 28.123 33.8692
Pd 7.2664 26.1968 37.6736
Pd 7.24825 28.1184 39.5804
Pd 9.13486 26.1956 39.5567
Co 9.10566 28.1422 37.697
Pd 7.33563 26.1921 41.4382
Pd 9.19291 26.1909 43.2958
Co 9.18224 28.0637 41.4367
Pd 9.07033 30.0608 12.8921
Pd 7.19984 30.0542 14.7864
Pd 7.18319 31.9703 16.7107
Pd 9.07382 30.0708 16.7002
Co 9.10798 31.9312 14.8322
Pd 7.19138 30.0476 18.6118
Pd 7.18403 31.9528 20.5237
Pd 9.0864 30.0487 20.5166
Co 9.05936 31.9774 18.5923
Pd 7.20207 30.0244 22.4436
Pd 7.20765 31.9193 24.3439
Pd 9.10148 30.0215 24.3436
Co 9.09022 31.9434 22.4243
Pd 7.18773 30.0139 26.2468
Pd 7.21144 31.9143 28.1545
Pd 9.10525 30.0165 28.1462
Co 9.10612 31.9301 26.2473
Pd 7.20964 30.0146 30.05
Pd 7.19542 31.938 31.9749
Pd 9.09776 30.0339 31.9733
Co 9.0978 31.9335 30.0704
Pd 7.20657 30.0279 33.8819
Pd 7.20218 31.9456 35.788
Pd 9.09276 30.0461 35.7899
Co 9.07455 31.9576 33.9026
Pd 7.22265 30.0245 37.7074
Pd 9.09685 30.0262 39.5981
Co 9.13064 31.9016 37.6626
Pd 9.04659 33.8688 16.6991
Pd 7.17785 33.8509 18.5987
Pd 7.18153 35.7674 20.5181
Pd 9.06297 33.8631 20.5059
Co 9.0985 35.7286 18.6409
Pd 7.18894 33.841 22.4169
Pd 7.20639 35.7502 24.3283
Pd 9.09322 33.8479 24.323
Co 9.0664 35.7727 22.3973
Pd 7.23035 33.8302 26.2516
Pd 7.21024 35.7452 28.1799
Pd 9.09705 33.8429 28.1766
Co 9.10078 35.7468 26.2522
Pd 7.19658 33.8311 30.0864
Pd 7.19299 35.7526 31.9902
Pd 9.07437 33.8482 31.9938
Co 9.07406 35.7627 30.1072
Pd 7.19311 33.8311 33.9047
Pd 9.06556 33.844 35.8007
Co 9.11363 35.7089 33.8635
Pd 9.05366 37.6659 20.5026
Pd 7.20154 37.6502 22.4
Pd 7.2204 39.5572 24.3333
Pd 9.07894 37.6581 24.3252
Co 9.11849 39.5209 22.4515
Pd 7.22869 37.6251 26.2565
Pd 7.22428 39.5523 28.1845
Pd 9.08278 37.6531 28.184
Co 9.08815 39.5523 26.257
Pd 7.20927 37.6402 30.1131
Pd 9.06513 37.651 32.0068
Co 9.12609 39.5111 30.0624
Pd 9.08202 41.436 24.3357
Pd 7.27966 41.3679 26.2612
Pd 9.08589 41.4311 28.1831
Co 9.22329 43.2002 26.2615
Co 13.0289 5.47257 26.21
Pd 11.0094 9.08809 24.2928
Pd 12.8882 7.22645 24.2867
Co 12.9251 9.12876 22.4092
Pd 11.077 7.28138 26.2142
Pd 11.0133 9.08324 28.1401
Pd 12.892 7.2216 28.1379
Co 12.8925 9.08982 26.2146
Co 12.9327 9.11914 30.0201
Pd 10.9752 12.8551 20.4694
Pd 12.8594 10.9732 20.4652
Co 12.903 12.9054 18.5986
Pd 10.9903 10.9817 22.3625
Pd 10.9886 12.8659 24.2909
Pd 12.8788 10.978 24.2866
Co 12.8616 12.8554 22.3593
Pd 11.021 11.0037 26.2189
Pd 10.9925 12.861 28.1516
Pd 12.8827 10.9731 28.1474
Co 12.8922 12.8772 26.2194
Pd 10.998 10.9719 30.0752
Pd 10.9868 12.8405 31.9731
Pd 12.871 10.9587 31.9689
Co 12.8694 12.8455 30.0795
Co 12.9183 12.886 33.8402
Pd 10.9621 16.6582 16.6694
Pd 12.8438 14.7685 16.6603
Co 12.8942 16.7098 14.7992
Pd 10.9682 14.7715 18.5515
Pd 10.9705 16.6595 20.4719
Pd 12.8573 14.7621 20.4637
Co 12.8474 16.6511 18.5512
Pd 10.9791 14.7674 22.3687
Pd 10.9862 16.668 24.3003
Pd 12.8779 14.7656 24.2947
Co 12.8768 16.6687 22.387
Pd 10.9873 14.7627 26.2237
Pd 10.9901 16.6631 28.1518
Pd 12.8818 14.7607 28.1488
Co 12.8825 16.6652 26.2242
Pd 10.9868 14.7576 30.0787
Pd 10.9821 16.6448 31.9802
Pd 12.8689 14.7474 31.9799
Co 12.8845 16.6589 30.0614
Pd 10.9836 14.7519 33.8958
Pd 10.9813 16.6337 35.7827
Pd 12.8631 14.7441 35.7833
Co 12.8628 16.6315 33.8972
Co 12.9172 16.6805 37.6492
Pd 10.9705 20.4721 12.8734
Pd 12.8449 18.5799 12.8643
Co 12.9055 20.529 11.0093
Pd 10.9636 18.5797 14.7541
Pd 10.9682 20.4652 16.6762
Pd 12.8496 18.5651 16.6652
Co 12.8468 20.4606 14.7581
Pd 10.9661 18.5698 18.5663
Pd 10.978 20.4787 20.4897
Pd 12.8701 18.5682 20.4783
Co 12.8709 20.4778 18.5834
Pd 10.9829 18.5712 22.3914
Pd 10.9971 20.4859 24.3163
Pd 12.8843 18.5741 24.31
Co 12.8836 20.4805 22.4009
Pd 10.9945 18.5745 26.2285
Pd 11.0009 20.481 28.1455
Pd 12.8882 18.5692 28.1432
Co 12.8941 20.4804 26.229
Pd 10.9906 18.5613 30.0655
Pd 10.9895 20.4639 31.9721
Pd 12.8817 18.5535 31.9748
Co 12.8912 20.4706 30.0571
Pd 10.9814 18.5501 33.8907
Pd 10.9873 20.4406 35.7856
Pd 12.8688 18.5406 35.788
Co 12.8863 20.4582 33.8747
Pd 10.9865 18.5501 37.7029
Pd 10.9972 20.4376 39.5884
Pd 12.8718 18.5455 39.5889
Co 12.8698 20.4311 37.7
Co 12.9361 20.4897 41.4487
Pd 11.0082 24.3152 9.10331
Pd 12.869 22.409 9.08394
Co 12.9537 24.37 7.25542
Pd 10.9834 22.4057 10.966
Pd 10.9873 24.2953 12.8939
Pd 12.8578 22.3835 12.8786
Co 12.8688 24.29 10.9837
Pd 10.9721 22.3819 14.7726
Pd 10.9777 24.3001 16.6896
Pd 12.8665 22.3841 16.682
Co 12.8728 24.306 14.7922
Pd 10.9779 22.3842 18.5915
Pd 10.9941 24.3037 20.5096
Pd 12.8819 22.3907 20.4998
Co 12.8769 24.3043 18.5963
Pd 10.9938 22.3944 22.4126
Pd 11.0052 24.308 24.3283
Pd 12.8965 22.3934 24.3188
Co 12.8942 24.3055 22.4143
Pd 11.0086 22.3953 26.2333
Pd 11.009 24.3031 28.1431
Pd 12.9003 22.3884 28.144
Co 12.9044 24.3033 26.2338
Pd 11.0014 22.3846 30.0541
Pd 11.0055 24.2889 31.9619
Pd 12.8933 22.3759 31.9631
Co 12.9018 24.2956 30.0534
Pd 10.9931 22.3644 33.8752
Pd 10.9967 24.2754 35.7819
Pd 12.8856 22.3594 35.7809
Co 12.8921 24.2845 33.8714
Pd 10.995 22.3523 37.694
Pd 11.0138 24.2608 39.5777
Pd 12.8845 22.349 39.5843
Co 12.8956 24.2764 37.6756
Pd 11.0139 22.3662 41.5006
Pd 11.0423 24.2708 43.3683
Pd 12.9033 22.3646 43.379
Co 12.8992 24.2505 41.4842
Co 12.9916 24.3207 45.2124
Pd 12.9833 26.2429 5.39018
Pd 11.1075 26.2391 7.24533
Pd 11.0058 28.1578 9.10843
Pd 12.8975 26.2377 9.13479
Co 12.9514 28.1106 7.26048
Pd 11.0185 26.2339 11.0068
Pd 10.9849 28.1674 12.8989
Pd 12.8771 26.2325 12.8982
Co 12.8665 28.1802 10.9887
Pd 10.984 26.2288 14.7985
Pd 10.9754 28.1525 16.6946
Pd 12.8735 26.2275 16.6999
Co 12.8705 28.1539 14.7972
Pd 10.9883 26.2238 18.6056
Pd 10.9918 28.1389 20.5145
Pd 12.8863 26.2224 20.5091
Co 12.8746 28.1456 18.6012
Pd 11.0035 26.2188 22.426
Pd 11.0028 28.1246 24.3331
Pd 12.9021 26.2175 24.3291
Co 12.8919 28.1344 22.4191
Pd 11.0047 26.2138 26.2381
Pd 11.0066 28.1196 28.148
Pd 12.9059 26.2125 28.1434
Co 12.9021 28.1267 26.2387
Pd 11.011 26.2089 30.0503
Pd 11.0031 28.1241 31.9667
Pd 12.8976 26.2076 31.9634
Co 12.8994 28.1245 30.0582
Pd 11.0034 26.204 33.8708
Pd 10.9943 28.1278 35.7868
Pd 12.8924 26.2027 35.7728
Co 12.8897 28.1258 33.8763
Pd 11.0067 26.1992 37.678
Pd 11.0114 28.1328 39.5826
Pd 12.9036 26.1979 39.5746
Co 12.8932 28.1242 37.6805
Pd 11.0488 26.1944 41.4697
Pd 11.0399 28.1132 43.3731
Pd 12.9315 26.1932 43.338
Co 12.8967 28.1406 41.4891
Pd 11.1453 26.1897 45.2311
Pd 13.0248 26.1886 47.0825
Co 12.9892 28.0611 45.2171
Pd 12.8645 30.0664 9.09411
Pd 10.9787 30.0621 10.9761
Pd 10.9635 31.9906 12.8883
Pd 12.8533 30.0816 12.8886
Co 12.8988 31.9412 11.0243
Pd 10.9674 30.0757 14.7825
Pd 10.9612 31.9873 16.6909
Pd 12.862 30.0709 16.6918
Co 12.8399 31.9994 14.7729
Pd 10.9732 30.0634 18.6012
Pd 10.971 31.9639 20.5043
Pd 12.8773 30.0542 20.5095
Co 12.864 31.9721 18.598
Pd 10.9891 30.0432 22.4223
Pd 10.99 31.9467 24.3308
Pd 12.8918 30.0416 24.3285
Co 12.8766 31.9594 22.4154
Pd 11.0039 30.0323 26.243
Pd 10.9938 31.9417 28.16
Pd 12.8956 30.0366 28.1537
Co 12.8871 31.9496 26.2435
Pd 10.9966 30.0332 30.0638
Pd 10.9823 31.949 31.9867
Pd 12.8886 30.0393 31.9728
Co 12.8841 31.9495 30.0717
Pd 10.9883 30.0436 33.885
Pd 10.9801 31.9625 35.8003
Pd 12.8808 30.046 35.7907
Co 12.8791 31.9522 33.8893
Pd 10.9901 30.046 37.7038
Pd 10.9899 31.9558 39.6031
Pd 12.8797 30.0468 39.5941
Co 12.8625 31.9695 37.7147
Pd 11.009 30.0224 41.5104
Pd 12.8984 30.0217 43.3887
Co 12.9288 31.9015 41.4633
Pd 12.8358 33.8851 12.8841
Pd 10.9542 33.8779 14.7737
Pd 10.9504 35.7943 16.6938
Pd 12.8403 33.8898 16.6847
Co 12.8828 35.7501 14.8236
Pd 10.9567 33.8777 18.5858
Pd 10.9588 35.783 20.4962
Pd 12.8608 33.8767 20.4977
Co 12.8357 35.7988 18.5755
Pd 10.9735 33.8664 22.4108
Pd 10.9744 35.7645 24.3245
Pd 12.8749 33.8608 24.3294
Co 12.865 35.7712 22.4112
Pd 10.9851 33.8532 26.2479
Pd 10.9782 35.7595 28.1761
Pd 12.8787 33.8558 28.1626
Co 12.8707 35.7647 26.2484
Pd 10.9811 33.8564 30.085
Pd 10.9701 35.7681 32.0045
Pd 12.8721 33.8617 31.9943
Co 12.8726 35.7612 30.0857
Pd 10.9718 33.8578 33.9101
Pd 10.9692 35.7695 35.8071
Pd 12.8591 33.8649 35.8076
Co 12.8508 35.7788 33.9216
Pd 10.9769 33.8481 37.7224
Pd 12.862 33.8503 39.6084
Co 12.9052 35.7203 37.6735
Pd 12.8298 37.6863 16.6895
Pd 10.954 37.6759 18.5807
Pd 10.9586 39.5872 20.5033
Pd 12.8432 37.6827 20.4927
Co 12.8865 39.5443 18.6324
Pd 10.9649 37.6701 22.3977
Pd 10.972 39.5666 24.3248
Pd 12.8637 37.6693 24.3238
Co 12.845 39.5845 22.3932
Pd 10.9731 37.6649 26.2527
Pd 10.9758 39.5616 28.1855
Pd 12.8675 37.6643 28.1779
Co 12.8756 39.5527 26.2532
Pd 10.9725 37.6601 30.1078
Pd 10.97 39.5724 32.0071
Pd 12.8545 37.6678 32.009
Co 12.8526 39.5745 30.1134
Pd 10.9692 37.656 33.9249
Pd 12.8486 37.6615 35.8125
Co 12.9015 39.5246 33.874
Pd 12.8404 41.4714 20.5038
Pd 10.9712 41.4557 22.4012
Pd 10.9879 43.3443 24.3362
Pd 12.8598 41.4568 24.3252
Co 12.9037 43.3109 22.4524
Pd 11.002 41.4238 26.2575
Pd 10.9918 43.3394 28.1836
Pd 12.8636 41.4518 28.186
Co 12.871 43.3401 26.258
Pd 10.9789 41.4458 30.1139
Pd 12.8518 41.4566 32.0076
Co 12.9112 43.3011 30.0634
Pd 12.8643 45.2083 24.3347
Pd 11.0531 45.1462 26.2621
Pd 12.8681 45.2034 28.1859
Co 13.0027 46.9575 26.2624
Pd 14.8102 5.33978 24.2655
Pd 16.7418 3.54962 24.3302
Co 16.7538 5.36706 22.4255
Pd 14.8737 3.62097 26.2058
Pd 14.8141 5.3349 28.1505
Pd 16.7456 3.54491 28.0774
Co 16.7229 5.37428 26.2061
Co 16.7615 5.35754 29.9866
Pd 14.7807 9.06829 20.4606
Pd 16.6792 7.19611 20.4724
Co 16.7186 9.11727 18.5996
Pd 14.7958 7.21191 22.3538
Pd 14.7874 9.08492 24.2833
Pd 16.6953 7.21236 24.2827
Co 16.6734 9.07669 22.3559
Pd 14.8198 7.23033 26.2104
Pd 14.7913 9.08004 28.1421
Pd 16.6992 7.20749 28.1342
Co 16.6982 9.10237 26.2108
Pd 14.8036 7.20219 30.0669
Pd 14.7924 9.05375 31.9648
Pd 16.6909 7.18163 31.9444
Co 16.6812 9.06694 30.0657
Co 16.7341 9.09801 33.8221
Pd 14.7617 12.8529 16.656
Pd 16.6536 10.9735 16.6567
Co 16.6986 12.91 14.7907
Pd 14.7714 10.9729 18.543
Pd 14.764 12.8577 20.4594
Pd 16.6637 10.9733 20.4591
Co 16.6486 12.8545 18.5426
Pd 14.776 10.9752 22.3601
Pd 14.7762 12.8696 24.2905
Pd 16.681 10.9803 24.2875
Co 16.6749 12.8753 22.3784
Pd 14.78 10.9747 26.2151
Pd 14.7801 12.8647 28.1445
Pd 16.6849 10.9754 28.139
Co 16.6802 12.8722 26.2156
Pd 14.7838 10.9654 30.0701
Pd 14.7756 12.8431 31.9755
Pd 16.6754 10.9587 31.9673
Co 16.6827 12.8655 30.0528
Pd 14.7869 10.9535 33.8872
Pd 14.781 12.8286 35.7789
Pd 16.673 10.9492 35.7698
Co 16.6642 12.835 33.8885
Co 16.7218 12.8809 37.6405
Pd 14.7575 16.6612 12.8589
Pd 16.6432 14.7777 12.8547
Co 16.6996 16.7243 10.9959
Pd 14.7577 14.7712 14.7404
Pd 14.7526 16.6553 16.6583
Pd 16.6461 14.7641 16.654
Co 16.6384 16.6544 14.746
Pd 14.7572 14.7621 18.5498
Pd 14.7633 16.6649 20.4722
Pd 16.6644 14.7662 20.4679
Co 16.6627 16.6699 18.5706
Pd 14.7675 14.7636 22.379
Pd 14.7787 16.6692 24.3045
Pd 16.6775 14.7729 24.3003
Co 16.6731 16.6716 22.3897
Pd 14.7802 14.7676 26.2199
Pd 14.7826 16.6643 28.14
Pd 16.6814 14.768 28.1357
Co 16.6825 16.6722 26.2204
Pd 14.7752 14.7538 30.0608
Pd 14.7749 16.6502 31.9724
Pd 16.6761 14.7515 31.9681
Co 16.6809 16.6618 30.0511
Pd 14.7727 14.7425 33.89
Pd 14.7719 16.6308 35.7863
Pd 16.6655 14.7397 35.782
Co 16.6781 16.6503 33.8702
Pd 14.7809 14.7419 37.6994
Pd 14.7845 16.6269 39.5856
Pd 16.6703 14.7436 39.5813
Co 16.6617 16.625 37.6948
Co 16.7306 16.6853 41.4449
Pd 14.7754 20.484 9.07716
Pd 16.6594 18.6022 9.06606
Co 16.7314 20.5558 7.22187
Pd 14.7646 18.587 10.9484
Pd 14.7558 20.4684 12.8718
Pd 16.6443 18.5725 12.8662
Co 16.6471 20.4709 10.9673
Pd 14.7514 18.5673 14.7558
Pd 14.7576 20.4752 16.6743
Pd 16.6562 18.5691 16.6695
Co 16.6584 20.4813 14.7814
Pd 14.7598 18.5669 18.5724
Pd 14.7752 20.4806 20.4915
Pd 16.6709 18.5761 20.4867
Co 16.667 20.482 18.5858
Pd 14.7764 18.5736 22.3951
Pd 14.7868 20.4818 24.3139
Pd 16.6821 18.5775 24.3093
Co 16.6814 20.485 22.4029
Pd 14.7844 18.5716 26.2247
Pd 14.7906 20.4768 28.1403
Pd 16.686 18.5726 28.1363
Co 16.6886 20.4823 26.2252
Pd 14.7841 18.5638 30.0543
Pd 14.7867 20.4659 31.9627
Pd 16.6824 18.5615 31.9589
Co 16.689 20.4752 30.0476
Pd 14.7752 18.5472 33.877
Pd 14.7768 20.4506 35.7799
Pd 16.6755 18.5446 35.7761
Co 16.6824 20.4624 33.8647
Pd 14.7745 18.5378 37.6937
Pd 14.7827 20.434 39.5825
Pd 16.6713 18.5383 39.5795
Co 16.6814 20.452 37.6691
Pd 14.7954 18.5477 41.501
Pd 14.8099 20.4397 43.3771
Pd 16.6942 18.5582 43.3796
Co 16.6779 20.4317 41.4832
Co 16.7699 20.5068 45.2286
Pd 14.828 24.3235 5.34456
Pd 16.7203 22.4392 5.31119
Co 16.8172 24.4027 3.60823
Pd 14.7991 22.4129 7.18065
Pd 14.7842 24.302 9.10899
Pd 16.6657 22.396 9.10063
Co 16.6865 24.2979 7.2226
Pd 14.7638 22.3879 10.9777
Pd 14.7616 24.306 12.8902
Pd 16.6579 22.3904 12.8884
Co 16.6692 24.314 11.0092
Pd 14.7582 22.3862 14.7822
Pd 14.7679 24.3078 16.6936
Pd 16.6644 22.3946 16.6916
Co 16.6621 24.31 14.7973
Pd 14.7712 22.392 18.5911
Pd 14.7808 24.3075 20.5029
Pd 16.678 22.3959 20.4997
Co 16.6729 24.3107 18.6001
Pd 14.7862 22.3928 22.4072
Pd 14.7956 24.3048 24.3212
Pd 16.6895 22.3941 24.3173
Co 16.6862 24.3081 22.4111
Pd 14.7945 22.3901 26.2295
Pd 14.7994 24.2998 28.1427
Pd 16.6933 22.3892 28.138
Co 16.6949 24.3038 26.23
Pd 14.7939 22.3829 30.0518
Pd 14.7922 24.2927 31.961
Pd 16.6894 22.3812 31.9556
Co 16.6938 24.2982 30.049
Pd 14.7864 22.3723 33.868
Pd 14.7869 24.2831 35.7704
Pd 16.6835 22.37 35.7637
Co 16.6881 24.291 33.8601
Pd 14.7811 22.3567 37.6769
Pd 14.7883 24.2715 39.5739
Pd 16.6847 22.356 39.567
Co 16.6849 24.2805 37.663
Pd 14.7944 22.3485 41.4814
Pd 14.8184 24.2576 43.3551
Pd 16.7002 22.3518 43.3547
Co 16.6997 24.2746 41.4511
Pd 14.8374 22.3635 45.2785
Pd 14.8699 24.2693 47.1194
Pd 16.7626 22.3851 47.1441
Co 16.7247 24.2487 45.2376
Co 16.8627 24.3442 48.852
Pd 15.0092 26.2467 3.52059
Pd 14.8259 28.1647 5.34981
Pd 16.7456 26.2451 5.42897
Co 16.8151 28.0927 3.61332
Pd 14.8179 26.2415 7.23596
Pd 14.782 28.1757 9.11412
Pd 16.6816 26.24 9.12289
Co 16.6844 28.1873 7.22782
Pd 14.7744 26.2363 11.007
Pd 14.7594 28.1614 12.8952
Pd 16.6637 26.2348 12.9092
Co 16.667 28.1608 11.0142
Pd 14.7676 26.2311 14.7982
Pd 14.7656 28.1494 16.6985
Pd 16.6672 26.2297 16.7026
Co 16.6598 28.1545 14.8022
Pd 14.7742 26.2261 18.6016
Pd 14.7785 28.1397 20.5078
Pd 16.6794 26.2247 20.5082
Co 16.6706 28.1438 18.605
Pd 14.7888 26.2211 22.4148
Pd 14.7932 28.1325 24.3261
Pd 16.6919 26.2197 24.3224
Co 16.6839 28.1364 22.4159
Pd 14.8006 26.2161 26.2344
Pd 14.797 28.1275 28.1475
Pd 16.6957 26.2148 28.1426
Co 16.6926 28.1307 26.2349
Pd 14.7964 26.2112 30.054
Pd 14.7898 28.1249 31.9659
Pd 16.6907 26.2099 31.9569
Co 16.6914 28.1264 30.0539
Pd 14.7893 26.2063 33.8672
Pd 14.7845 28.1247 35.7753
Pd 16.6861 26.2051 35.7625
Co 16.6856 28.124 33.865
Pd 14.7903 26.2015 37.6708
Pd 14.7858 28.1267 39.5788
Pd 16.6902 26.2003 39.5561
Co 16.6824 28.1249 37.6679
Pd 14.8047 26.1968 41.462
Pd 14.816 28.1312 43.36
Pd 16.7157 26.1956 43.3424
Co 16.6972 28.1213 41.456
Pd 14.8559 26.1921 45.233
Pd 14.8675 28.1103 47.1242
Pd 16.7873 26.1911 47.0362
Co 16.7222 28.1379 45.2425
Pd 15.0546 26.1876 48.948
Co 16.8604 28.0337 48.8566
Pd 16.7161 30.0514 5.32156
Pd 14.7947 30.0702 7.19096
Pd 14.7688 31.9938 9.0924
Pd 16.6615 30.0841 9.11083
Co 16.7252 31.9296 7.23717
Pd 14.7594 30.0847 10.9878
Pd 14.7492 31.9991 12.8867
Pd 16.6536 30.0793 12.8983
Co 16.6407 32.0041 10.9824
Pd 14.7537 30.0761 14.7921
Pd 14.7508 31.9821 16.689
Pd 16.6599 30.065 16.7014
Co 16.6517 31.9833 14.7962
Pd 14.7666 30.0602 18.6008
Pd 14.7683 31.9666 20.5061
Pd 16.6734 30.0536 20.5094
Co 16.6602 31.9726 18.6003
Pd 14.7816 30.0494 22.4169
Pd 14.7798 31.9555 24.3284
Pd 16.6848 30.0453 24.3269
Co 16.6744 31.9595 22.4173
Pd 14.7898 30.0422 26.2392
Pd 14.7835 31.9505 28.1549
Pd 16.6885 30.0404 28.1477
Co 16.6815 31.9523 26.2397
Pd 14.7891 30.0395 30.0616
Pd 14.7795 31.9517 31.9774
Pd 16.6846 30.0386 31.9654
Co 16.6818 31.9495 30.0622
Pd 14.7816 30.0403 33.8778
Pd 14.7695 31.9572 35.7947
Pd 16.6786 30.0401 35.7736
Co 16.6751 31.9527 33.8794
Pd 14.7763 30.0464 37.6868
Pd 14.7754 31.9642 39.5972
Pd 16.6798 30.0446 39.5769
Co 16.6741 31.9535 37.6838
Pd 14.7896 30.045 41.4912
Pd 14.8026 31.949 43.3917
Pd 16.6954 30.0395 43.3645
Co 16.6706 31.9642 41.4978
Pd 14.8325 30.0205 45.2881
Pd 16.7578 29.9968 47.1536
Co 16.7628 31.8799 45.243
Pd 16.6508 33.8781 9.08634
Pd 14.7557 33.8857 10.9684
Pd 14.7463 35.8064 12.8836
Pd 16.6356 33.8974 12.886
Co 16.6889 35.7508 11.0208
Pd 14.7424 33.8952 14.7754
Pd 14.7411 35.802 16.6826
Pd 16.6471 33.8906 16.689
Co 16.6273 35.8105 14.7705
Pd 14.7506 33.8854 18.5918
Pd 14.7517 35.7823 20.4963
Pd 16.6616 33.8734 20.506
Co 16.6512 35.7848 18.5948
Pd 14.7671 33.8686 22.4145
Pd 14.767 35.768 24.3287
Pd 16.6727 33.862 24.3286
Co 16.6614 35.773 22.4138
Pd 14.7749 33.8606 26.2441
Pd 14.7707 35.763 28.1643
Pd 16.6764 33.857 28.1557
Co 16.6706 35.7624 26.2446
Pd 14.7746 33.8586 30.0737
Pd 14.7629 35.7673 31.9968
Pd 16.6728 33.8584 31.9785
Co 16.6688 35.763 30.0754
Pd 14.7656 33.8655 33.8965
Pd 14.7598 35.7771 35.8107
Pd 16.6657 33.8656 35.7958
Co 16.666 35.7648 33.8947
Pd 14.7648 33.8653 37.7133
Pd 14.7723 35.7714 39.6101
Pd 16.6616 33.8625 39.5991
Co 16.6495 35.7805 37.7193
Pd 14.7857 33.8458 41.5205
Pd 16.6845 33.8331 43.399
Co 16.7185 35.7109 41.4692
Pd 16.6299 37.6924 12.8843
Pd 14.7439 37.6912 14.7697
Pd 14.7454 39.6043 16.69
Pd 16.6324 37.6957 16.6831
Co 16.6828 39.5549 14.8247
Pd 14.7433 37.6902 18.5788
Pd 14.7475 39.5895 20.4932
Pd 16.6504 37.6834 20.4968
Co 16.6323 39.6002 18.5764
Pd 14.7533 37.6786 22.408
Pd 14.7596 39.5676 24.3243
Pd 16.6632 37.6667 24.3292
Co 16.6584 39.5693 22.4121
Pd 14.766 37.6646 26.2489
Pd 14.7633 39.5626 28.1784
Pd 16.667 37.6617 28.1648
Co 16.6635 39.5624 26.2494
Pd 14.7608 37.6687 30.0899
Pd 14.7587 39.5745 32.0096
Pd 16.6615 37.6685 31.9974
Co 16.6658 39.5593 30.0867
Pd 14.7582 37.6702 33.9192
Pd 14.764 39.5795 35.813
Pd 16.6508 37.6707 35.8113
Co 16.6471 39.5802 33.9227
Pd 14.7663 37.6612 37.7286
Pd 16.6557 37.6573 39.6106
Co 16.7047 39.525 37.6746
Pd 16.6351 41.4862 16.6953
Pd 14.7526 41.4792 18.5816
Pd 14.7594 43.3787 20.504
Pd 16.6449 41.4763 20.4976
Co 16.6975 43.3372 18.6428
Pd 14.757 41.467 22.3987
Pd 14.7659 43.3523 24.3267
Pd 16.6619 41.4592 24.326
Co 16.652 43.3679 22.3992
Pd 14.761 41.4575 26.2537
Pd 14.7697 43.3473 28.1855
Pd 16.6656 41.4543 28.1776
Co 16.6766 43.3323 26.2542
Pd 14.7645 41.457 30.1088
Pd 14.7706 43.364 32.0083
Pd 16.656 41.4614 32.0061
Co 16.6595 43.3579 30.1092
Pd 14.7675 41.4594 33.926
Pd 16.6534 41.4613 35.8087
Co 16.7121 43.3176 33.8656
Pd 16.6555 45.2533 20.5205
Pd 14.772 45.2302 22.4019
Pd 14.7838 47.0974 24.3182
Pd 16.6714 45.2272 24.3307
Co 16.7276 47.0773 22.4782
Pd 14.7958 45.202 26.2584
Pd 14.7877 47.0925 28.2033
Pd 16.6751 45.2223 28.1823
Co 16.6965 47.0605 26.2588
Pd 14.7796 45.2204 30.115
Pd 16.6666 45.2386 31.9927
Co 16.735 47.0677 30.0393
Pd 16.7131 48.8899 24.3874
Pd 14.8451 48.8115 26.2628
Pd 16.7168 48.8852 28.1346
Pd 18.6044 5.3011 20.4771
Pd 20.5451 3.53093 20.515
Co 20.5516 5.36482 18.6202
Pd 18.6451 3.53333 22.4211
Pd 18.6463 5.34495 24.3248
Pd 20.5206 3.44038 24.2943
Co 20.5244 5.32835 22.3975
Pd 18.6189 3.45514 26.2018
Pd 18.6501 5.34021 28.0835
Pd 20.5245 3.43558 28.1054
Co 20.5392 5.29738 26.2022
Pd 18.6528 3.52382 29.9826
Pd 18.6161 5.28667 31.9311
Pd 20.5567 3.51662 31.8849
Co 20.5322 5.31876 30.0069
Co 20.5671 5.34571 33.7842
Pd 18.579 9.06969 16.6582
Pd 20.4775 7.20625 16.6661
Co 20.5173 9.13522 14.7919
Pd 18.5963 7.19671 18.5536
Pd 18.5836 9.07749 20.465
Pd 20.4938 7.19851 20.4791
Co 20.4698 9.07816 18.5519
Pd 18.6051 7.19917 22.3718
Pd 18.5976 9.09914 24.2821
Pd 20.5263 7.21352 24.2993
Co 20.5028 9.10039 22.3841
Pd 18.6147 7.23194 26.2066
Pd 18.6015 9.09427 28.1357
Pd 20.5302 7.2087 28.1099
Co 20.5149 9.10768 26.207
Pd 18.6129 7.18949 30.0412
Pd 18.5953 9.06295 31.9527
Pd 20.5055 7.18405 31.9301
Co 20.5106 9.09073 30.0299
Pd 18.6119 7.17738 33.8594
Pd 18.5985 9.04554 35.7595
Pd 20.497 7.18218 35.7431
Co 20.4855 9.0588 33.862
Co 20.5406 9.10637 37.6221
Pd 18.5641 12.8672 12.8516
Pd 20.4585 10.995 12.8521
Co 20.5086 12.9344 10.9923
Pd 18.5706 10.9816 14.7371
Pd 18.5582 12.8633 16.6524
Pd 20.4606 10.9843 16.6549
Co 20.4492 12.8672 14.741
Pd 18.5696 10.9755 18.5492
Pd 18.5701 12.8753 20.4655
Pd 20.4828 10.9855 20.4683
Co 20.4753 12.8827 18.5663
Pd 18.5798 10.9837 22.3743
Pd 18.5847 12.8808 24.2971
Pd 20.4989 10.9959 24.2948
Co 20.4867 12.8867 22.3838
Pd 18.5918 10.9866 26.2113
Pd 18.5886 12.8759 28.1303
Pd 20.5028 10.9911 28.124
Co 20.4954 12.8886 26.2118
Pd 18.5876 10.974 30.0483
Pd 18.5817 12.8607 31.9619
Pd 20.4946 10.9709 31.9504
Co 20.4945 12.877 30.0398
Pd 18.5852 10.9561 33.8733
Pd 18.5777 12.8391 35.775
Pd 20.4801 10.9601 35.7639
Co 20.4909 12.8633 33.8573
Pd 18.594 10.9525 37.6855
Pd 18.5914 12.8333 39.5758
Pd 20.4859 10.9612 39.5667
Co 20.4727 12.8381 37.6825
Co 20.5399 12.8958 41.4312
Pd 18.573 16.6906 9.06179
Pd 20.4568 14.8087 9.06443
Co 20.5219 16.7692 7.21334
Pd 18.5644 14.7914 10.9399
Pd 18.5522 16.6669 12.8619
Pd 20.4502 14.7806 12.859
Co 20.446 16.6763 10.9588
Pd 18.5535 14.7696 14.7472
Pd 18.5575 16.67 16.6652
Pd 20.4659 14.7737 16.6615
Co 20.4653 16.6789 14.7728
Pd 18.562 14.7694 18.5639
Pd 18.5733 16.6761 20.4824
Pd 20.4801 14.7827 20.4787
Co 20.4747 16.6789 18.5772
Pd 18.5775 14.7773 22.3866
Pd 18.5834 16.6786 24.305
Pd 20.49 14.7857 24.301
Co 20.4865 16.6846 22.3943
Pd 18.5843 14.7765 26.2161
Pd 18.5873 16.6737 28.132
Pd 20.4939 14.7808 28.1274
Co 20.4926 16.6831 26.2166
Pd 18.5853 14.7675 30.0456
Pd 18.5849 16.6614 31.9546
Pd 20.4918 14.7681 31.9497
Co 20.4943 16.6748 30.0389
Pd 18.5775 14.7499 33.8683
Pd 18.5769 16.6457 35.7717
Pd 20.4854 14.7494 35.7669
Co 20.4903 16.6594 33.856
Pd 18.5769 14.7404 37.6849
Pd 18.5794 16.6328 39.5751
Pd 20.4776 14.7466 39.5694
Co 20.4887 16.6497 37.6603
Pd 18.5956 14.7525 41.4923
Pd 18.608 16.6469 43.3752
Pd 20.492 14.7651 43.364
Co 20.4772 16.6374 41.4744
Co 20.5609 16.7208 45.2199
Pd 18.6208 20.5496 5.29433
Pd 20.5091 18.6632 5.29001
Co 20.5899 20.6365 3.57227
Pd 18.5942 18.6301 7.15492
Pd 18.5714 20.4915 9.09338
Pd 20.4599 18.605 9.08911
Co 20.4773 20.5155 7.19733
Pd 18.5564 18.5835 10.9673
Pd 18.5563 20.4839 12.8861
Pd 20.4612 18.5812 12.8818
Co 20.4702 20.4995 11.005
Pd 18.5549 18.5731 14.7743
Pd 18.5662 20.4856 16.6882
Pd 20.4716 18.5824 16.6839
Co 20.4683 20.4889 14.7947
Pd 18.5693 18.5789 18.5823
Pd 18.5783 20.4884 20.496
Pd 20.4832 18.5858 20.4917
Co 20.4797 20.4915 18.5949
Pd 18.5809 18.5817 22.3984
Pd 18.5884 20.4881 24.3131
Pd 20.4917 18.5872 24.3088
Co 20.4896 20.4928 22.4043
Pd 18.588 18.5801 26.2209
Pd 18.5922 20.4832 28.1336
Pd 20.4956 18.5824 28.1293
Co 20.496 20.4905 26.2214
Pd 18.5886 18.5719 30.0434
Pd 18.5898 20.4737 31.9507
Pd 20.4948 18.5712 31.9463
Co 20.4973 20.483 30.0386
Pd 18.5848 18.5594 33.8595
Pd 18.5854 20.4611 35.7584
Pd 20.491 18.5581 35.7541
Co 20.4951 20.4721 33.848
Pd 18.5781 18.5439 37.6675
Pd 18.5833 20.4497 39.5606
Pd 20.4884 18.5472 39.5562
Co 20.4915 20.4597 37.6481
Pd 18.5875 18.5444 41.4745
Pd 18.6062 20.4475 43.3533
Pd 20.4949 18.5613 43.3489
Co 20.5011 20.4606 41.4379
Pd 18.6331 18.5813 45.2869
Pd 18.6634 20.4959 47.1524
Pd 20.5521 18.6098 47.148
Co 20.5161 20.4668 45.2455
Co 20.6362 20.5786 48.8706
Pd 18.7248 22.5519 3.44933
Pd 18.6418 24.3545 5.38803
Pd 20.5324 22.4663 5.36924
Co 20.5457 24.378 3.52291
Pd 18.5944 22.4165 7.21397
Pd 18.578 24.3164 9.12974
Pd 20.4828 22.4146 9.12223
Co 20.5182 24.3461 7.25823
Pd 18.5648 22.3965 11.0052
Pd 18.5649 24.3152 12.9106
Pd 20.4698 22.4037 12.913
Co 20.4763 24.3201 11.0325
Pd 18.5639 22.398 14.7976
Pd 18.5692 24.3137 16.7028
Pd 20.4753 22.4018 16.7026
Co 20.4721 24.3176 14.8143
Pd 18.5741 22.3987 18.598
Pd 18.5815 24.3118 20.5063
Pd 20.4861 22.4021 20.504
Co 20.4809 24.3148 18.607
Pd 18.586 22.3984 22.4082
Pd 18.5917 24.3084 24.3194
Pd 20.4948 22.4004 24.3157
Co 20.4914 24.3124 22.4124
Pd 18.5933 22.395 26.2257
Pd 18.5955 24.3034 28.1369
Pd 20.4986 22.3955 28.132
Co 20.4977 24.3083 26.2263
Pd 18.5936 22.3886 30.0433
Pd 18.5929 24.297 31.9501
Pd 20.4976 22.3875 31.9437
Co 20.499 24.3026 30.0401
Pd 18.5894 22.3791 33.8535
Pd 18.5882 24.2892 35.7536
Pd 20.4945 22.3774 35.7452
Co 20.4962 24.2953 33.8456
Pd 18.5869 22.3687 37.654
Pd 18.5916 24.2809 39.5459
Pd 20.4967 22.3695 39.5347
Co 20.495 24.2882 37.6384
Pd 18.5955 22.3573 41.4463
Pd 18.6124 24.2723 43.3267