4033
Atoms. Timestep: 20938
Co 3.56992 18.8099 20.6561
Pd 2.91401 20.6444 26.4879
Pd 6.62529 18.7388 26.5706
Co 6.51496 16.576 18.2093
Pd 3.53038 23.0141 27.1539
Pd 6.04937 15.9222 31.5036
Pd 6.11526 24.7723 30.7178
Co 5.92005 17.2517 28.7565
Co 6.81938 22.5354 31.9581
Pd 10.4366 20.579 10.3654
Pd 12.7339 20.2035 8.52803
Co 7.23043 23.0693 16.1821
Pd 9.23915 16.9231 18.3469
Pd 5.50033 21.1707 27.1102
Pd 4.11173 18.9248 27.9924
Co 8.36796 19.8025 21.4533
Pd 3.74607 21.2114 29.2611
Pd 5.20562 18.9878 18.7899
Pd 9.82175 24.2191 27.6181
Co 5.40477 24.4129 28.2785
Pd 6.54335 19.3673 35.3378
Pd 6.73426 25.6328 35.1043
Pd 7.60903 20.1631 32.7994
Co 4.39526 22.8165 31.5516
Co 9.51925 18.9103 31.5214
Pd 7.08695 20.8976 19.4444
Pd 8.32781 16.4918 15.9359
Co 10.7511 20.2713 14.6328
Pd 5.30618 27.2114 15.9481
Pd 6.0652 27.8508 18.5138
Pd 8.97314 20.2952 12.5729
Co 9.78705 23.2557 16.6233
Pd 6.1659 23.2025 20.7185
Pd 3.88041 20.3523 22.662
Pd 4.47598 21.2936 20.1042
Co 5.49265 24.6553 15.6514
Pd 3.84691 25.5561 31.8388
Pd 5.58828 23.5638 36.1129
Pd 4.42973 26.5939 29.3641
Co 5.67882 23.6847 26.036
Pd 7.45944 21.9978 37.13
Pd 4.18652 28.1547 31.8154
Pd 9.18585 22.3065 32.894
Co 7.92305 19.5153 37.4638
Pd 9.51342 24.6958 43.484
Pd 9.60397 23.8575 36.9974
Pd 9.05331 20.208 39.6743
Co 8.08546 23.358 35.1009
Co 6.55976 28.2942 34.5842
Pd 14.7361 29.37 10.2289
Pd 12.3458 32.5703 17.5027
Pd 5.4485 23.3323 18.0727
Pd 8.99708 24.5315 9.62835
Co 4.55594 25.7102 17.8353
Pd 6.51098 26.2722 13.8247
Pd 5.86407 20.9968 17.0146
Pd 3.79049 24.2419 19.9668
Co 9.90331 26.9565 17.102
Pd 7.65168 25.1859 21.9717
Pd 5.08936 29.0776 25.1636
Pd 3.46542 27.0085 24.9709
Co 6.17833 25.3943 19.5871
Pd 5.10918 29.3942 20.6022
Pd 6.23116 26.6679 32.6227
Pd 4.55949 21.8619 24.6932
Co 12.6287 29.7767 28.9417
Pd 5.31095 24.1608 33.4901
Pd 6.69571 31.5584 37.2469
Pd 4.44013 26.9371 34.4736
Co 12.3129 31.4338 30.6358
Pd 8.80589 22.8864 39.3292
Pd 5.2209 29.6071 36.3353
Pd 6.02546 27.2267 37.0023
Co 6.65798 32.171 32.1599
Pd 8.5982 27.0705 33.7687
Pd 7.70866 27.5471 39.0154
Co 6.20185 29.4989 38.6612
Pd 8.57692 25.0366 15.1517
Pd 6.88287 28.6882 23.1075
Pd 6.4002 30.6524 18.6952
Pd 7.78224 29.5873 20.8039
Co 6.48601 27.2903 21.0824
Pd 2.88116 25.6835 22.4442
Pd 6.59865 28.4059 27.7966
Pd 3.93145 28.2785 27.3792
Co 8.67669 36.2038 21.6576
Pd 10.027 30.5006 29.6939
Pd 5.07974 30.6284 22.9458
Pd 8.11575 32.6824 30.0088
Co 8.66258 30.9361 32.0066
Pd 6.55084 27.6806 30.2869
Pd 8.97305 31.7298 36.0092
Pd 7.53006 34.6564 32.1514
Co 12.4624 33.3563 32.5135
Pd 4.36619 31.1217 31.8412
Pd 4.44346 29.6699 33.9486
Co 7.15649 35.8124 36.3822
Pd 5.21829 31.9731 25.1932
Pd 11.0477 35.4183 28.0246
Pd 5.59561 30.7202 27.4431
Pd 7.3076 30.2214 29.7456
Co 5.94452 33.1483 23.0705
Pd 3.1795 25.5656 27.2395
Pd 9.24715 35.0411 30.0654
Pd 6.61487 34.6172 20.8211
Co 12.3463 30.8933 21.8134
Pd 4.88463 33.8718 31.8531
Pd 10.9584 32.9384 28.8608
Co 5.162 25.2949 21.8618
Pd 6.08261 33.3205 27.4262
Pd 5.52782 34.6899 25.3113
Pd 7.86763 37.1696 30.7414
Co 8.28392 34.3012 27.94
Co 5.36046 16.9778 20.4733
Pd 10.0401 10.2727 23.8055
Pd 10.5979 10.3343 28.8304
Co 7.43373 15.7526 20.2963
Pd 5.48195 14.589 25.6006
Pd 4.57262 18.1546 30.6145
Pd 7.78637 15.7776 29.647
Co 9.68647 15.4185 27.9942
Co 8.76369 16.3989 31.9747
Pd 10.5593 13.5139 18.1102
Pd 8.71795 12.4849 19.8786
Co 10.8303 15.7889 16.5896
Pd 6.52697 12.8152 24.0625
Pd 7.53183 17.2715 22.3032
Pd 10.1446 15.2182 25.5551
Co 8.64366 17.3511 24.9128
Pd 5.61679 14.7724 28.265
Pd 6.01967 22.3062 29.5841
Pd 7.44281 16.1152 26.8551
Co 6.17866 19.7435 29.1487
Pd 10.2081 17.0145 29.9067
Pd 12.0944 14.8132 28.7652
Pd 8.57936 18.1338 33.9582
Co 10.283 19.5411 29.2608
Co 9.76477 16.1308 34.9676
Pd 7.18652 25.6196 17.2268
Pd 8.1026 14.5408 18.1464
Co 14.4991 19.5771 11.6679
Pd 4.00978 23.0318 22.3318
Pd 4.38687 17.6695 22.7767
Pd 4.56592 16.7792 26.6668
Co 7.53174 18.184 19.7859
Pd 8.23795 20.8792 30.3391
Pd 6.42328 21.497 22.6147
Pd 11.7096 22.6844 24.5981
Co 12.9129 18.5198 26.047
Pd 7.55532 23.0552 27.6709
Pd 7.56687 25.7685 28.4884
Pd 8.62226 23.5855 30.1658
Co 9.12476 19.6372 25.5291
Pd 5.35066 20.4359 31.5386
Pd 7.93084 24.5729 32.9353
Pd 10.9325 17.3126 33.0733
Co 10.041 21.9141 28.6494
Pd 10.8626 22.4031 34.9763
Pd 7.22938 18.2287 30.8952
Pd 11.2344 24.019 39.4004
Co 13.4644 29.1624 31.0645
Co 14.2364 28.6826 41.8171
Pd 11.2143 24.455 8.02746
Pd 11.8981 16.9031 12.5187
Co 10.9865 21.8318 12.6934
Pd 8.80586 22.9357 11.8032
Pd 6.93191 23.6094 13.6703
Pd 6.08677 28.9887 13.8664
Co 13.1637 20.922 13.569
Pd 7.26747 18.7583 17.2794
Pd 9.60759 19.6464 19.0287
Pd 9.59174 18.8211 16.3119
Co 6.2797 23.76 23.6343
Pd 8.60265 22.4055 21.2216
Pd 9.11619 23.7252 23.6942
Pd 4.53922 19.1862 25.0561
Co 13.8196 19.1056 23.7152
Pd 5.56542 26.2684 26.5907
Pd 6.49895 29.4935 32.2509
Pd 11.054 29.8269 32.1535
Co 10.304 26.0305 29.335
Pd 6.24965 21.7806 34.3235
Pd 10.7231 27.0897 32.3281
Pd 12.9732 24.3113 35.4241
Co 8.81628 28.6212 31.5258
Pd 10.2281 24.9897 34.5238
Pd 12.4938 23.0485 32.9351
Pd 15.8546 21.8673 32.4111
Co 17.3732 28.5308 37.4237
Pd 8.96255 17.52 38.6521
Pd 11.0071 25.6307 41.5833
Pd 9.199 27.246 42.5798
Co 8.57032 30.0951 38.613
Co 13.1433 30.3397 43.1157
Pd 12.6956 35.5062 10.5021
Pd 11.0288 29.3057 8.48757
Pd 19.1196 31.1389 14.8754
Pd 10.108 26.9338 14.1088
Co 14.5118 35.6014 8.51599
Pd 6.32414 29.5804 16.3816
Pd 8.1976 31.3499 16.8346
Pd 10.1088 29.1796 16.0804
Co 14.1652 29.6627 14.6695
Pd 4.35364 27.9031 22.6486
Pd 10.3335 31.9183 15.3124
Pd 3.85268 24.4922 24.6048
Co 12.9423 26.7451 21.0697
Pd 7.83712 24.8323 25.7107
Pd 3.41292 24.0343 29.6334
Pd 5.96353 26.2475 23.9841
Co 9.57713 24.7243 20.5754
Pd 8.97125 28.1484 29.023
Pd 9.19491 29.2791 26.6205
Pd 10.9397 24.9712 25.3685
Co 7.57199 31.1696 23.1212
Pd 6.91395 30.8928 34.5058
Pd 5.57893 36.4016 31.764
Pd 10.3058 32.7261 31.4881
Co 11.334 28.1653 30.189
Pd 7.96802 29.0959 36.4709
Pd 10.8548 30.0694 36.3122
Pd 10.1775 28.1599 37.8477
Co 15.5326 35.1254 27.246
Pd 8.77139 26.4974 36.395
Pd 14.7606 38.6889 43.2946
Pd 11.769 28.1869 42.1692
Co 13.9387 30.9348 40.7295
Pd 9.42924 29.9027 42.7733
Pd 18.4949 33.5011 43.8442
Co 6.9768 31.6829 39.7623
Pd 9.96395 30.9898 12.2664
Pd 12.4472 31.2891 13.3432
Pd 8.52628 29.009 18.2184
Pd 8.83631 35.181 13.7604
Co 8.43773 32.6239 13.6247
Pd 12.9755 30.4634 19.3936
Pd 10.8384 34.6784 21.4016
Pd 9.79496 33.3576 17.7545
Co 12.3341 30.4887 15.9473
Pd 9.16325 27.4951 21.6233
Pd 13.2269 29.5811 26.2827
Pd 9.59928 31.4559 24.8653
Co 9.80367 30.8746 22.0904
Pd 5.91638 19.2941 21.3916
Pd 6.29437 36.0551 27.6235
Pd 11.0207 30.8923 27.197
Co 7.23532 30.4077 25.3936
Pd 4.70619 29.5282 29.656
Pd 5.47949 32.2036 29.7563
Pd 8.80646 36.1615 38.4685
Co 13.2459 34.0545 27.408
Pd 5.01681 32.5533 34.1476
Pd 11.0517 39.128 35.3713
Pd 7.21968 24.7907 37.7764
Co 7.03893 33.4474 35.5536
Pd 9.19886 29.5859 34.1067
Pd 9.46866 25.7644 38.9262
Co 9.16892 34.2486 36.6232
Pd 7.98369 33.7731 15.8127
Pd 7.08508 35.3462 23.349
Pd 6.97902 33.258 18.4116
Pd 10.5258 29.4338 20.1807
Co 15.5969 30.1149 19.5405
Pd 10.8106 37.0828 20.089
Pd 7.63981 33.1211 25.0434
Pd 8.7337 31.8 19.7563
Co 13.5903 32.6377 23.368
Pd 6.33048 31.9462 20.9289
Pd 13.6408 39.6071 28.8055
Pd 10.0148 33.5746 26.3592
Co 11.9067 34.9388 25.42
Pd 13.5522 35.9384 29.1827
Pd 11.4096 39.9152 30.4248
Pd 7.52649 37.2479 33.3777
Co 11.6895 34.8235 30.583
Pd 7.06159 34.0339 38.1527
Pd 10.9305 34.6491 38.6732
Co 9.97793 35.0483 32.4725
Pd 12.1113 34.6079 19.1176
Pd 9.20351 38.6871 21.8293
Pd 9.71128 34.8441 23.9629
Pd 11.8678 30.2343 24.1927
Co 11.1516 32.3302 20.1754
Pd 10.5591 37.2389 30.8975
Pd 9.39544 39.2057 32.2156
Pd 11.4275 37.9852 28.504
Co 14.582 38.7466 26.486
Pd 6.42486 34.7669 29.8007
Pd 10.0933 37.2031 33.7751
Co 8.59285 35.3049 34.5574
Pd 13.0191 41.8629 17.3031
Pd 10.4176 36.9087 25.8148
Pd 9.44628 39.1517 26.7793
Co 16.0917 40.0603 27.996
Co 17.7581 6.84868 28.0726
Pd 7.5904 13.2989 29.1307
Pd 12.2629 11.6887 24.3557
Co 10.9378 10.2624 31.703
Pd 6.11516 12.3847 26.9052
Pd 13.8196 7.53752 26.3731
Pd 15.2336 7.17179 28.6622
Co 12.6921 9.95327 30.0589
Co 8.90851 13.8362 34.8486
Pd 11.6195 8.93588 19.6774
Pd 15.4742 6.35803 22.015
Co 15.135 13.7509 13.7243
Pd 9.95493 10.7172 18.4174
Pd 8.3131 13.5548 26.5154
Pd 12.0679 10.3093 22.1499
Co 12.105 11.7033 17.1915
Pd 8.2957 11.0801 27.8638
Pd 12.3664 12.8233 33.6466
Pd 5.95471 18.0038 33.1527
Co 9.85182 14.4486 30.4065
Pd 11.9986 10.2637 34.2321
Pd 11.4381 14.4195 35.8537
Pd 9.54035 13.0275 24.1223
Co 16.3401 8.10377 35.4457
Co 15.2921 6.21771 34.1438
Pd 13.0154 15.424 14.6913
Pd 11.3117 14.4784 11.8093
Co 11.6547 15.9958 18.8518
Pd 9.88168 11.4671 15.9637
Pd 9.81809 14.9596 20.2886
Pd 12.8737 12.8675 13.1126
Co 12.5658 17.9364 20.0047
Pd 9.75569 10.1599 21.0152
Pd 8.06765 11.4079 22.4861
Pd 8.32438 18.1294 28.4752
Co 11.9579 16.1349 21.6026
Pd 7.75384 15.0569 24.3307
Pd 7.09415 19.3676 23.9287
Pd 12.0089 15.7466 31.2226
Co 15.1816 20.8395 30.2071
Pd 8.20954 20.5795 27.6382
Pd 12.1328 17.2884 35.5732
Pd 12.0427 18.6852 31.0955
Co 16.6103 17.3391 33.1898
Pd 7.94718 13.92 31.9749
Pd 7.57851 17.0942 36.2749
Pd 13.6451 15.5026 36.8889
Co 14.6945 16.9147 34.7937
Co 10.5386 12.1064 35.4089
Pd 10.2783 15.4808 14.0854
Pd 17.1489 17.0757 8.01579
Co 8.50526 26.8849 10.5215
Pd 9.02745 13.9324 15.8044
Pd 9.30765 21.172 23.4766
Pd 12.8632 15.9041 10.1134
Co 18.7483 21.6384 15.8339
Pd 10.2127 12.7532 13.5711
Pd 6.06932 17.0046 24.5821
Pd 9.98388 17.6631 20.781
Co 11.5519 19.4173 12.5926
Pd 9.75244 15.794 22.831
Pd 14.8699 22.3344 27.8978
Pd 11.4495 17.2267 24.3133
Co 11.968 18.5731 22.2555
Pd 5.73531 15.2802 22.5355
Pd 11.4953 28.0253 27.6557
Pd 10.3395 17.707 26.8297
Co 9.68498 22.1917 26.0333
Pd 12.6753 20.5614 29.201
Pd 10.74 20.1842 33.2872
Pd 10.9057 21.57 31.0092
Co 11.3377 23.7908 29.5888
Pd 7.36949 15.7186 33.9552
Pd 10.395 14.5886 32.9704
Pd 11.1759 19.0097 38.6055
Co 11.6074 19.919 35.6293
Pd 11.1781 19.5615 41.2497
Pd 12.7977 21.7375 41.9281
Pd 9.14459 15.1545 37.1332
Co 11.2933 21.4923 39.6035
Co 15.5233 23.9228 39.0753
Pd 15.1562 27.8297 6.31037
Pd 15.4109 22.7036 7.26276
Co 18.0366 29.1915 13.531
Pd 9.39083 18.0188 13.802
Pd 12.9791 23.5844 12.5715
Pd 9.91918 18.0658 11.2095
Co 10.5212 25.5534 11.2856
Pd 16.842 20.325 11.4742
Pd 13.2085 22.3726 20.0445
Pd 11.6424 18.2935 17.7078
Co 11.0753 25.2219 15.8272
Pd 7.6729 20.0635 14.9335
Pd 16.1207 16.5019 17.9683
Pd 11.6193 13.508 15.5488
Co 12.2799 20.2473 19.1868
Pd 11.4623 19.9696 24.4012
Pd 10.4416 22.3724 19.2449
Pd 16.0961 17.7414 23.3008
Co 9.63385 18.623 23.1431
Pd 7.30451 21.8149 25.1806
Pd 9.4661 26.661 26.794
Pd 12.1437 22.722 27.4318
Co 12.0725 25.5734 27.7344
Pd 10.5109 24.4343 31.8837
Pd 8.53257 26.1693 31.033
Pd 14.1885 24.7881 28.9206
Co 12.7769 28.2919 33.2416
Pd 12.4736 25.8111 30.6092
Pd 15.1219 23.3846 34.3393
Pd 8.79916 20.6828 35.1492
Co 13.3538 21.3833 34.7368
Pd 10.316 22.8656 41.5882
Pd 8.47603 24.9739 41.1074
Pd 13.3032 24.4115 40.9026
Co 16.5612 27.3021 35.4879
Pd 12.96 32.8284 42.1825
Pd 15.1313 29.4574 39.019
Pd 11.0681 29.048 44.5061
Co 16.7264 27.7579 39.9801
Co 11.2393 31.6512 43.788
Pd 12.8152 25.3035 10.1233
Pd 19.3237 37.8842 8.28904
Pd 10.5371 26.7913 9.05308
Pd 10.6895 28.0194 11.5942
Co 16.9683 27.9428 10.4149
Pd 17.355 24.3341 8.07993
Pd 8.24649 28.1503 12.6721
Pd 16.2955 21.0383 16.5429
Co 12.6714 27.8511 9.9329
Pd 12.3967 26.2311 12.841
Pd 12.405 27.6972 15.4332
Pd 10.5302 24.2796 13.457
Co 14.789 24.8003 8.49088
Pd 13.1537 28.7988 12.477
Pd 4.08021 26.8939 20.1514
Pd 8.52705 21.1895 17.2028
Co 11.0363 29.2987 13.8191
Pd 9.03921 26.4179 23.9901
Pd 9.37346 29.065 23.8798
Pd 8.0234 23.5217 18.7309
Co 10.1042 24.9451 18.2081
Pd 13.487 24.2594 21.9888
Pd 13.9754 27.509 29.1237
Pd 14.0463 27.0336 26.551
Co 15.733 29.1106 25.7546
Pd 7.43285 27.7709 25.4832
Pd 11.0215 27.7166 35.0273
Pd 17.0733 27.075 32.6594
Co 13.3112 31.7432 27.9526
Pd 12.6546 25.699 33.3339
Pd 9.93552 28.5938 40.3858
Pd 9.19413 32.5762 38.5279
Co 15.2551 29.2205 36.2933
Pd 11.4113 25.8895 36.9016
Pd 13.5119 34.9779 43.8654
Pd 14.3741 26.8825 40.0394
Co 9.16096 31.1908 40.6635
Pd 11.855 26.764 39.4691
Pd 15.0108 36.3699 42.1591
Pd 10.9677 34.2646 43.2407
Co 11.4674 30.7458 41.4338
Pd 9.02497 32.521 42.7733
Pd 26.1709 31.2979 48.9869
Co 17.9552 31.4522 41.8431
Pd 13.615 29.2956 7.86253
Pd 8.95632 29.4485 10.3073
Pd 6.42141 31.6664 14.7556
Pd 15.74 29.5139 12.659
Co 14.1428 33.5923 9.80445
Pd 9.02198 33.2304 11.256
Pd 13.7901 34.0425 12.4311
Pd 10.4062 35.5523 11.7093
Co 12.0178 37.5432 11.887
Pd 14.4126 29.6291 17.1796
Pd 8.37978 26.6137 19.3117
Pd 11.9591 24.6536 19.9007
Co 16.619 32.4142 20.0699
Pd 11.062 25.6702 22.4877
Pd 11.6003 28.3834 22.3653
Pd 11.4093 27.5976 25.0311
Co 10.8925 26.9363 19.6834
Pd 8.27738 31.6654 27.505
Pd 15.1345 29.8314 28.152
Pd 16.0949 28.6619 30.6538
Co 13.0218 25.586 24.0883
Pd 13.6337 33.3428 29.8728
Pd 11.0454 31.6483 34.0576
Pd 12.8541 28.4071 37.5338
Co 15.5314 32.6891 28.1754
Pd 9.92783 35.741 41.0063
Pd 8.15652 33.8493 40.5732
Pd 11.3669 32.6875 36.8891
Co 15.7994 34.6945 29.6286
Pd 12.5183 35.2967 41.3152
Pd 10.6773 33.1688 40.8601
Pd 11.0986 30.7158 38.8829
Co 15.2096 27.2485 37.7009
Pd 14.9204 28.4362 46.4272
Pd 17.2236 38.9954 44.1344
Co 11.5852 36.9684 39.5356
Pd 10.2898 37.4327 13.7716
Pd 8.45306 37.4783 19.3369
Pd 8.95068 34.674 19.7176
Pd 15.3676 41.1937 16.2574
Co 12.6076 38.452 14.2124
Pd 7.93384 27.6815 15.5858
Pd 15.1762 34.5728 20.1267
Pd 15.2399 43.071 14.4917
Co 12.5732 37.0573 18.2228
Pd 14.2506 27.7668 19.0677
Pd 14.6083 30.406 23.6127
Pd 11.0842 23.0516 21.9575
Co 13.1331 33.4343 21.1436
Pd 12.321 32.4543 25.5728
Pd 13.6392 40.699 31.5329
Pd 18.8727 29.0784 27.1835
Co 14.6162 31.5584 21.2399
Pd 17.8116 36.1476 29.0508
Pd 5.91903 35.1617 34.1325
Pd 19.9529 36.0191 30.9642
Co 15.845 36.7652 30.9565
Pd 8.65626 37.7507 35.9264
Pd 9.14204 39.1882 29.4631
Pd 15.6153 31.2858 34.6313
Co 12.1028 36.1366 32.592
Pd 12.5277 39.341 39.5528
Pd 12.7819 37.8552 41.7285
Co 14.3602 37.2761 39.8
Pd 10.1842 39.8494 19.8286
Pd 7.75169 35.6462 17.612
Pd 8.47715 30.1163 14.3952
Pd 17.5766 34.5261 21.3192
Co 9.16419 36.7606 15.8977
Pd 13.2248 36.2809 20.892
Pd 8.54341 33.2728 22.1186
Pd 15.0643 35.288 22.6851
Co 19.1275 36.7704 22.1722
Pd 11.1207 32.7627 23.1298
Pd 8.80511 36.907 28.1649
Pd 14.401 34.3343 25.0928
Co 12.6313 34.932 23.1449
Pd 13.0062 40.9531 34.3532
Pd 12.4683 36.91 34.8999
Pd 12.0635 38.8609 32.9299
Co 13.5542 42.837 35.86
Pd 12.5799 40.4329 37.0511
Pd 11.0875 34.3593 34.6394
Co 13.9234 38.8175 35.4939
Pd 18.5503 41.4606 19.6941
Pd 16.5766 37.0255 21.2109
Pd 8.0525 35.6723 25.8404
Pd 13.8924 40.7034 21.6051
Co 14.5067 38.4779 20.2033
Pd 12.1281 41.6053 19.8338
Pd 11.2385 41.4205 25.3152
Pd 12.0852 39.0343 26.2202
Co 15.4685 42.4965 34.4013
Pd 11.2308 41.3988 32.5258
Pd 16.3508 38.3227 36.6067
Co 15.0393 40.8098 36.0956
Pd 13.4669 42.052 24.1299
Pd 13.2454 37.8945 30.7763
Pd 15.5372 46.1627 23.9817
Co 14.7846 45.3938 26.4821
Pd 17.6348 4.86919 21.67
Pd 14.428 9.82817 25.1355
Co 18.6681 4.47691 19.4474
Pd 16.9024 5.16839 32.2801
Pd 18.2606 4.7452 26.5051
Pd 20.2611 6.26398 27.8689
Co 12.326 10.5432 26.5942
Co 23.887 2.96334 23.8528
Pd 9.92808 9.35122 26.3727
Pd 15.3814 6.46814 19.3604
Co 13.3922 7.31304 20.701
Pd 13.3013 6.38275 23.911
Pd 7.97422 11.0468 25.2718
Pd 14.6163 14.7415 26.1868
Co 12.1924 14.1387 20.2353
Pd 12.0196 11.6266 19.726
Pd 14.9391 8.93458 30.8203
Pd 17.0368 9.27977 29.1888
Co 10.2835 11.775 26.1775
Pd 9.80155 12.058 33.05
Pd 14.3313 8.61251 33.9198
Pd 15.8571 12.762 32.6798
Co 11.9526 8.50415 27.7193
Co 17.7085 12.1633 37.4616
Pd 17.2267 10.0169 12.5462
Pd 17.3378 5.82814 17.7543
Co 15.8251 7.77239 16.9364
Pd 11.3774 7.85486 22.2781
Pd 11.6641 9.33034 16.925
Pd 10.5413 12.7123 21.7905
Co 13.728 15.1697 12.3613
Pd 7.95415 13.9361 21.9566
Pd 14.0283 9.84842 20.491
Pd 15.6758 7.49164 24.3619
Co 14.2946 13.2808 24.1474
Pd 12.1755 13.4971 26.3235
Pd 9.08057 11.7537 30.5521
Pd 11.5772 12.5917 30.9228
Co 16.5043 15.4681 28.4234
Pd 14.5223 11.3215 34.4354
Pd 14.5763 13.9191 35.043
Pd 12.935 7.44889 29.7206
Co 13.3916 10.8811 32.2144
Pd 17.0762 10.4864 35.4152
Pd 17.4344 13.8147 39.4577
Pd 21.8135 11.8224 42.0264
Co 13.9707 13.4061 38.2466
Co 16.6359 15.3201 41.5237
Pd 11.6784 17.7551 15.0805
Pd 20.4938 13.2345 17.8723
Co 15.3158 16.2779 13.9368
Pd 15.8519 12.8929 17.5395
Pd 13.5135 16.6229 16.9746
Pd 14.6373 10.8521 13.484
Co 14.5647 17.2073 11.5393
Pd 14.0551 12.4017 15.6436
Pd 15.9566 17.9353 20.2934
Pd 16.4213 9.02 14.7813
Co 14.0616 17.4147 21.8948
Pd 15.407 14.8631 16.0033
Pd 14.5398 17.0199 27.4232
Pd 13.1935 12.6264 21.9577
Co 15.7819 13.158 21.9055
Pd 10.209 12.9489 28.3862
Pd 12.3637 17.8435 28.5784
Pd 14.2539 16.001 29.8157
Co 14.4728 18.561 30.1234
Pd 13.7628 13.8244 31.4849
Pd 13.3371 20.745 32.0493
Pd 18.7644 17.5396 32.1294
Co 16.7191 19.0137 31.1747
Pd 12.8407 15.4488 33.7784
Pd 11.2824 16.409 37.9407
Pd 18.7163 17.0028 36.8317
Co 12.8097 18.8434 33.6811
Pd 15.9401 17.0915 37.1554
Pd 12.584 15.0023 39.7131
Pd 17.6258 14.3758 43.839
Co 14.1267 19.1218 35.5971
Co 13.4692 28.1189 44.2876
Pd 12.8313 26.5977 7.59243
Pd 17.134 19.6406 8.75912
Co 13.385 24.3055 6.59986
Pd 12.9623 21.8133 6.50417
Pd 19.1998 20.9054 10.69
Pd 19.3159 18.2863 9.27328
Co 19.5594 20.5855 8.25577
Pd 13.8082 18.315 13.7102
Pd 15.6891 20.2873 14.1059
Pd 14.3172 18.8389 18.2733
Co 15.0286 21.9881 12.376
Pd 13.204 14.0848 17.6679
Pd 14.0242 21.6564 17.6334
Pd 17.9977 14.6554 17.3955
Co 14.2979 13.109 19.7301
Pd 14.208 10.8978 18.1466
Pd 18.1678 19.4363 19.827
Pd 16.3163 14.9195 24.0253
Co 16.7239 15.8347 21.6915
Pd 14.6411 19.6403 27.7833
Pd 17.9839 21.2002 31.0073
Pd 17.0797 20.5482 28.6555
Co 15.3608 18.7173 25.5134
Pd 15.2133 19.3916 33.2138
Pd 13.4619 22.748 30.3239
Pd 14.0907 17.2181 32.202
Co 17.7087 20.0859 33.3625
Pd 15.4462 18.4249 39.6883
Pd 13.4622 20.0218 40.0091
Pd 10.0425 21.1259 37.3916
Co 15.7767 20.998 35.0457
Pd 15.5144 20.2723 41.8131
Pd 12.0462 22.8671 37.2711
Pd 13.5251 17.9674 37.8566
Co 20.1361 19.7974 41.9429
Pd 12.0308 23.9268 43.3609
Pd 12.8661 12.1075 36.3365
Pd 14.4624 9.66811 36.4131
Co 12.6769 17.5247 40.2112
Co 14.6593 21.4269 43.8738
Pd 20.5398 30.8593 7.04492
Pd 15.7913 25.2654 6.1909
Co 26.0586 27.4914 7.03987
Pd 14.7467 18.3974 9.17042
Pd 13.1645 22.8818 8.81978
Pd 11.1065 23.2308 10.5108
Co 8.43071 25.4297 12.4701
Pd 12.8589 21.3168 11.0051
Pd 11.8909 22.6363 15.0309
Pd 21.0734 20.2327 15.5779
Co 14.772 23.5684 10.5875
Pd 14.5892 22.6287 15.0178
Pd 9.06971 22.24 14.471
Pd 17.3426 23.6047 16.7132
Co 16.5989 27.9724 15.24
Pd 13.2945 19.8449 15.8786
Pd 14.0653 19.793 21.0472
Pd 15.8425 20.741 19.3658
Co 14.8063 26.9779 16.63
Pd 10.831 20.5084 21.275
Pd 13.006 21.395 22.7225
Pd 16.7282 20.0432 21.9191
Co 19.1266 24.1031 22.6694
Pd 11.2171 20.2526 26.9936
Pd 16.111 25.2463 27.2557
Pd 19.1113 21.273 26.2196
Co 15.9727 23.1005 25.5762
Pd 16.2355 26.0127 30.2392
Pd 14.6711 24.3973 31.8639
Pd 17.5485 22.9671 27.6003
Co 16.5143 27.7029 28.1041
Pd 9.85594 18.3399 36.324
Pd 13.7222 27.0856 35.4747
Pd 16.3533 23.2413 29.9955
Co 15.2528 25.8669 33.9161
Pd 14.7457 22.515 36.9175
Pd 17.8988 30.0157 39.4501
Pd 13.5259 25.0796 38.1585
Co 17.8547 20.7638 36.2928
Pd 13.6597 26.2833 42.6275
Pd 16.7135 31.9274 44.7044
Pd 15.9176 25.1689 41.3298
Co 13.513 22.4894 39.3192
Pd 16.3047 27.4677 42.6231
Pd 11.4502 26.421 44.184
Pd 15.4149 29.7213 44.1291
Co 17.9347 29.6518 43.7543
Co 15.903 34.2239 43.5525
Pd 21.0709 23.6251 6.08005
Pd 16.6387 36.9075 8.9786
Pd 11.7657 32.9899 10.8427
Co 23.1551 33.3842 4.63104
Pd 18.1584 35.6715 7.10134
Pd 12.8334 31.6462 8.71795
Pd 23.3669 30.9923 6.46886
Co 10.1157 31.5597 9.57131
Pd 15.0114 27.165 8.84355
Pd 16.5377 30.4368 15.2813
Pd 14.6177 26.8271 11.3989
Co 10.8902 21.9552 8.24668
Pd 18.1439 22.3955 21.0206
Pd 13.4336 25.027 15.0057
Pd 17.3421 25.1995 20.7991
Co 16.7944 27.1243 12.7132
Pd 11.1854 20.9941 17.0371
Pd 16.5006 27.8188 20.4741
Pd 11.9071 28.5585 17.9368
Co 21.0939 26.3361 18.5735
Pd 12.2338 23.4954 17.5059
Pd 13.7167 24.3297 26.2378
Pd 15.5156 21.0454 23.8679
Co 20.7323 22.2228 22.383
Pd 13.655 21.117 25.7253
Pd 18.1697 25.2379 28.8389
Pd 19.4359 26.4821 27.0518
Co 14.1886 23.2411 24.0536
Pd 14.4282 27.0185 31.8376
Pd 13.5302 30.9125 32.843
Pd 15.3032 28.7993 33.6608
Co 20.1954 29.7309 29.4409
Pd 13.1151 29.8183 35.1602
Pd 18.9719 28.9356 32.0054
Pd 19.2098 25.9963 31.5915
Co 17.4133 25.1181 34.8032
Pd 18.6164 28.6137 41.5102
Pd 13.5195 31.0395 37.5261
Pd 15.44 25.1175 36.3975
Co 19.7967 28.8297 36.5299
Pd 20.636 28.6699 43.1166
Pd 16.2682 31.2724 37.3154
Pd 19.1885 31.2748 45.7131
Co 12.6745 29.0842 39.9521
Pd 15.4732 31.9949 42.4428
Pd 17.0226 27.5017 45.1279
Pd 18.5635 23.0775 47.381
Co 16.2701 29.7925 41.4703
Pd 16.9692 25.2562 46.6513
Co 22.8723 19.3457 47.2616
Pd 15.477 35.5762 10.9469
Pd 15.1949 34.7131 14.7373
Pd 7.34331 30.7992 12.1444
Pd 15.6576 31.6393 8.98801
Co 18.3908 35.2943 14.8752
Pd 16.3749 25.4034 15.0909
Pd 11.9103 30.2093 10.7118
Pd 10.6384 34.6494 15.6769
Co 16.4095 29.2634 8.29205
Pd 14.6096 27.1822 14.0262
Pd 15.0297 32.1137 13.7435
Pd 15.43 24.6407 12.8251
Co 16.0698 32.9711 11.1916
Pd 17.2513 33.0819 15.4636
Pd 10.5524 30.8485 18.0115
Pd 17.9296 26.2922 23.2094
Co 20.7686 27.3524 16.1074
Pd 12.6331 26.072 17.7067
Pd 15.4997 25.6756 24.6931
Pd 14.5452 25.1924 19.7561
Co 16.4797 25.9662 18.3631
Pd 18.096 24.4523 25.3625
Pd 14.205 28.9555 21.4635
Pd 16.5556 23.9172 23.078
Co 21.0524 28.1229 25.7261
Pd 16.4189 28.4187 23.3134
Pd 14.9611 31.135 30.3789
Pd 15.0771 32.9456 32.4028
Co 21.1304 27.9015 28.2279
Pd 13.3065 32.5191 35.1022
Pd 13.0123 34.8304 36.56
Pd 15.5843 33.7921 35.5033
Co 13.6718 34.8012 34.032
Pd 7.4624 29.3562 40.9488
Pd 12.7707 32.7775 39.436
Pd 20.7023 31.3085 35.6816
Co 18.7522 30.8837 37.328
Pd 17.5138 36.173 43.1962
Pd 19.4827 39.7515 45.2063
Pd 16.142 32.0007 39.8428
Co 19.5354 35.7854 41.8059
Pd 13.8622 32.3713 44.5679
Pd 15.2297 33.9719 46.0073
Co 19.7475 35.5929 44.5006
Pd 13.9294 37.6799 10.0154
Pd 12.8268 33.2749 14.9406
Pd 13.4438 40.944 14.5248
Pd 18.6327 38.1102 17.5711
Co 11.6701 37.0001 15.9635
Pd 13.1651 39.2352 16.6323
Pd 14.672 32.1076 16.3365
Pd 16.7068 28.4898 17.7975
Co 16.6545 36.9013 13.7711
Pd 18.3377 29.9545 19.5475
Pd 19.7854 30.5077 22.4875
Pd 18.3541 26.2689 16.7478
Co 14.4396 32.4458 18.9273
Pd 15.2042 26.2771 22.1872
Pd 17.4987 35.2235 23.8266
Pd 17.0127 30.5329 21.8015
Co 18.4404 32.6039 23.3618
Pd 13.8541 27.9392 24.0036
Pd 14.8386 31.7341 25.831
Pd 19.5757 33.9131 25.6111
Co 17.0654 30.787 24.3754
Pd 17.1629 31.0839 26.9361
Pd 15.0269 36.4209 35.5294
Pd 17.6368 30.2899 29.404
Co 19.5324 33.8876 29.6609
Pd 14.4089 37.4899 33.0982
Pd 8.72421 32.9055 33.6858
Pd 14.8798 34.1575 40.7145
Co 15.5396 36.0891 37.9649
Pd 14.7815 33.4241 37.9594
Pd 17.9699 40.2738 40.3494
Pd 16.8514 36.0693 40.2154
Co 16.857 38.2505 41.7396
Pd 17.5467 34.9967 45.8164
Pd 15.5742 36.5769 44.8348
Co 18.3559 37.3466 45.5425
Pd 14.2851 36.8767 12.865
Pd 17.9257 45.0848 14.5586
Pd 14.2732 37.0376 15.6158
Pd 14.9775 36.6824 18.4832
Co 12.4925 39.2692 19.0604
Pd 13.3231 34.9929 16.8462
Pd 14.4627 37.8887 22.6598
Pd 17.3274 37.9083 23.6429
Co 19.1213 37.6501 19.9788
Pd 16.0272 32.8503 22.8941
Pd 15.4294 36.7682 25.077
Pd 22.3854 34.5544 23.9018
Co 19.8294 34.4696 22.7411
Pd 12.8245 37.1969 24.4187
Pd 18.0001 37.9315 30.8961
Pd 16.9022 33.3157 25.4612
Co 16.9529 38.7238 26.0071
Pd 15.6051 37.5023 28.4263
Pd 17.4699 40.2738 35.2801
Pd 16.1126 35.351 33.3064
Co 17.6195 35.0387 31.3236
Pd 14.1123 35.2015 31.5902
Pd 15.311 39.9053 33.6236
Pd 13.0396 37.4857 37.48
Co 14.5832 39.371 38.2041
Pd 19.0174 44.553 39.7393
Pd 17.7255 42.7246 41.3461
Co 13.375 35.3141 38.9612
Pd 13.4984 39.5566 12.1707
Pd 17.3677 43.0765 16.1894
Pd 12.1042 38.8 21.5295
Pd 14.3687 43.0083 19.7927
Co 16.2376 41.325 20.5293
Pd 10.4528 38.4834 17.5905
Pd 10.8803 36.9026 22.848
Pd 18.6965 40.4297 26.351
Co 8.55778 37.3339 23.9637
Pd 22.239 37.8922 27.1427
Pd 13.6912 41.0954 26.621
Pd 17.7318 42.2824 27.9636
Co 19.7164 38.008 26.5677
Pd 20.2065 37.7947 29.092
Pd 12.9656 42.2127 29.2765
Pd 15.6618 39.2411 30.79
Co 17.9883 38.6103 28.2433
Pd 10.5032 38.5296 37.8916
Pd 14.4147 42.1199 38.1435
Co 14.8303 39.3643 40.8078
Pd 11.1299 41.0758 22.3948
Pd 10.2793 39.1833 24.202
Pd 17.313 44.3449 23.282
Pd 17.5532 40.6396 23.9275
Co 12.7029 39.6807 23.8297
Pd 21.7265 45.5573 21.3976
Pd 16.9133 45.9277 30.5877
Pd 13.2762 36.6167 26.8231
Co 19.3332 45.1803 29.6577
Pd 11.1734 40.8059 27.9534
Pd 14.4348 44.8173 34.4889
Co 15.376 41.5623 29.6523
Pd 20.8026 47.1406 23.3202
Pd 18.2507 46.8031 23.4805
Pd 20.551 45.8545 18.9389
Pd 21.5006 8.48936 17.2668
Pd 22.9954 3.1453 26.2338
Co 21.3676 3.40868 23.9113
Pd 20.1307 6.94187 15.6269
Pd 18.349 8.30782 17.3998
Pd 25.7364 2.41164 26.4425
Co 22.4116 7.65937 24.3181
Pd 12.0048 8.73137 24.7605
Pd 16.3633 8.81122 26.6791
Pd 19.0844 6.70864 32.3352
Co 20.7094 4.08697 26.1912
Pd 16.6961 4.8266 28.9611
Pd 18.9802 5.33198 30.152
Pd 18.6502 8.86894 34.0574
Co 18.1988 9.22095 31.5904
Co 20.2715 10.2551 30.8669
Pd 18.7964 8.02527 13.5794
Pd 20.9107 11.2889 9.66239
Co 22.9384 17.1171 7.44091
Pd 18.7893 10.0978 15.0901
Pd 13.6685 8.20076 18.2269
Pd 20.0516 3.68049 21.6747
Co 16.77 5.21118 24.1115
Pd 18.0024 7.11001 25.4836
Pd 12.7062 12.0265 28.5665
Pd 13.907 8.56011 22.8032
Co 18.0663 9.91886 19.5427
Pd 14.3084 9.72885 28.1143
Pd 14.5545 12.0514 26.3799
Pd 19.8392 8.83875 24.5077
Co 21.3133 9.78429 28.6161
Pd 17.0364 7.06829 30.545
Pd 14.6314 6.51852 31.6883
Pd 17.786 6.18865 34.647
Co 15.4074 15.2157 32.9278
Pd 18.2599 11.4728 33.1591
Pd 19.7695 12.8186 31.3292
Pd 17.4424 16.51 39.3495
Co 16.6311 7.72402 32.9235
Co 19.2458 10.2597 37.5629
Pd 21.9188 21.4815 7.54575
Pd 16.3196 15.2915 11.8818
Co 18.5678 11.986 13.3025
Pd 15.4145 15.7612 9.47458
Pd 19.9199 6.19053 20.8482
Pd 14.1613 9.66235 15.9067
Co 20.8437 11.5951 14.0258
Pd 12.0737 10.8682 14.6722
Pd 16.1341 11.4417 19.9644
Pd 19.5852 10.5694 17.5401
Co 15.9504 8.91271 19.0515
Pd 16.3368 8.83848 21.6052
Pd 14.9483 10.9359 22.8312
Pd 17.2219 9.58295 24.092
Co 18.0868 12.315 18.514
Pd 16.6786 12.3048 24.3275
Pd 14.6526 13.7162 28.5721
Pd 16.3892 11.6513 28.2111
Co 12.3409 16.0699 26.517
Pd 14.7826 11.5974 30.2944
Pd 16.9724 15.6914 35.031
Pd 17.1189 13.0824 34.9957
Co 16.401 16.5723 30.9329
Pd 12.5551 8.39284 32.1265
Pd 17.3981 11.5958 30.7225
Pd 16.17 14.396 37.2808
Co 24.9554 14.9563 30.2709
Pd 17.2022 12.7571 41.7836
Pd 14.9393 15.832 39.2617
Pd 14.8269 13.6791 40.6873
Co 19.6692 12.9807 40.6334
Co 19.5341 12.8839 43.0011
Pd 12.4392 18.5175 10.4524
Pd 29.1985 16.8489 5.18216
Co 17.4133 22.0712 9.12791
Pd 18.5322 15.9011 10.0375
Pd 16.8571 18.1423 13.243
Pd 18.4636 13.9199 11.7442
Co 18.4876 11.6137 10.6865
Pd 19.8654 10.0171 12.2034
Pd 18.5771 18.8184 6.62894
Pd 18.7152 16.1839 13.0676
Co 17.4854 14.206 14.254
Pd 18.9956 12.6892 15.8043
Pd 14.1564 15.8692 19.6507
Pd 16.5277 14.33 19.7004
Co 19.0508 14.1825 19.8056
Pd 19.4411 11.8087 20.6315
Pd 12.0016 14.4772 23.6985
Pd 20.8726 13.3785 22.6563
Co 17.3946 11.2446 22.0793
Pd 14.2256 15.0155 22.1627
Pd 16.7067 16.6655 26.0365
Pd 18.9722 13.9152 24.8027
Co 20.4218 10.7084 26.3188
Pd 16.6296 17.9428 28.7612
Pd 18.8902 15.6556 27.02
Pd 20.5589 15.2996 31.9137
Co 16.1509 14.1319 30.5534
Pd 16.934 18.5871 35.3247
Pd 20.6839 14.6566 29.2419
Pd 18.6382 16.2477 29.7733
Co 22.6966 13.6987 30.4821
Pd 16.7212 17.8617 41.802
Pd 18.6121 17.2621 43.4657
Pd 19.3442 17.7116 40.7498
Co 20.6916 17.5775 38.5247
Pd 13.5275 18.7857 42.3962
Pd 14.5842 23.9163 43.3752
Pd 18.1405 16.0478 45.8099
Co 20.1731 19.3514 44.3211
Co 22.3144 18.5048 44.9046
Pd 18.3301 23.7666 5.66586
Pd 22.5638 22.0329 4.70585
Co 21.9134 14.7492 7.91549
Pd 21.0844 18.7316 7.35248
Pd 15.0811 20.1109 7.13171
Pd 21.6083 19.6947 9.81438
Co 19.5043 22.8431 7.79004
Pd 14.397 13.5677 10.7012
Pd 23.196 20.8572 11.6046
Pd 18.1384 21.7271 18.4292
Co 18.8262 24.3001 14.7663
Pd 18.5005 20.5161 13.5067
Pd 21.3352 17.7846 16.6932
Pd 18.0522 19.1198 15.6147
Co 16.8907 18.9047 17.8292
Pd 15.4343 18.1699 15.8337
Pd 22.1629 19.6815 18.6822
Pd 20.7508 15.9409 19.1253
Co 18.0844 16.558 19.7327
Pd 18.4619 16.5319 24.085
Pd 18.049 19.2078 24.3502
Pd 18.1846 13.6501 22.2678
Co 18.2067 17.8992 21.878
Pd 18.4094 18.6289 26.9576
Pd 20.4946 17.7444 25.525
Pd 20.7541 17.0919 28.1533
Co 20.7542 15.5611 23.9742
Pd 13.9879 16.556 24.4364
Pd 19.562 21.5199 28.7587
Pd 18.9985 18.9966 29.662
Co 23.2619 20.7509 28.2408
Pd 20.9566 17.66 30.6642
Pd 17.8936 20.3216 40.7866
Pd 17.9161 18.947 38.4436
Co 21.281 17.6403 33.2149
Pd 15.6711 19.819 37.3536
Pd 17.8681 19.8352 43.3258
Pd 16.9207 25.1081 43.8573
Co 19.3463 18.4917 34.5397
Pd 19.3801 24.1625 38.9656
Pd 14.7294 26.0284 45.1019
Pd 17.5337 23.2113 40.5518
Co 22.1964 21.3046 40.4587
Pd 14.3404 16.3474 41.7825
Pd 24.4978 21.087 46.3021
Pd 13.022 30.1895 45.6925
Co 16.8906 21.0618 45.3027
Co 19.253 21.0851 45.9065
Pd 17.5938 21.352 6.66208
Pd 18.0339 26.4642 5.28384
Pd 23.5491 23.7982 6.91867
Co 28.1484 27.5186 8.87427
Pd 19.7763 28.1019 6.68937
Pd 15.0937 21.1872 9.61251
Pd 21.3068 29.4883 10.4243
Co 17.0672 22.9157 11.4079
Pd 19.0909 23.7275 10.0523
Pd 17.0465 22.717 14.0114
Pd 19.5066 22.828 12.5466
Co 20.1582 25.2803 4.53975
Pd 20.7945 22.6732 14.8019
Pd 14.784 24.3427 17.1655
Pd 23.235 21.489 14.1565
Co 22.7738 24.0889 15.1218
Pd 22.8655 21.9211 16.7492
Pd 20.5902 20.2564 24.3513
Pd 19.4191 20.1461 22.0556
Co 20.2804 21.092 19.8909
Pd 20.73 17.9593 22.8314
Pd 16.5981 20.7405 26.1684
Pd 21.5274 15.2675 26.3206
Co 22.5702 21.7191 23.9876
Pd 19.1833 23.5185 30.3428
Pd 20.4201 23.1921 24.7327
Pd 20.0902 23.8777 27.3828
Co 27.0871 19.2642 23.3296
Pd 20.8972 19.5753 27.5621
Pd 17.3232 24.2868 32.3599
Pd 21.5033 20.3569 30.073
Co 21.6206 22.8424 29.4564
Pd 13.0755 20.5587 37.499
Pd 19.7052 23.1393 36.2511
Pd 17.6683 22.6067 34.4806
Co 21.9498 21.7498 32.0798
Pd 19.5052 22.4845 32.6651
Pd 17.255 23.4068 37.0933
Pd 23.8008 22.6634 35.2892
Co 21.9435 21.1623 36.203
Pd 15.8561 21.3635 39.3023
Pd 19.5058 28.4632 45.5265
Pd 19.7109 21.7275 43.484