4033
Atoms. Timestep: 20497
Co 6.81053 12.4397 25.6252
Pd 4.82097 14.2394 25.6188
Pd 2.91808 19.9182 21.7549
Co 5.33355 18.5871 24.3398
Pd 5.34001 14.8745 28.1071
Pd 5.28751 18.606 31.9205
Pd 3.00799 16.1571 25.6207
Co 5.38634 16.7766 26.1946
Co 5.37258 16.7673 30.0036
Pd 6.61785 19.8432 17.8835
Pd 4.71319 17.9508 21.754
Co 6.67294 21.7475 16.0984
Pd 3.46699 18.6759 26.2487
Pd 3.4515 20.5532 24.315
Pd 5.34112 20.5548 26.1857
Co 7.23028 20.4643 20.4966
Pd 3.56365 16.7607 28.1138
Pd 2.92566 18.0357 23.6995
Pd 5.37192 18.655 28.1278
Co 3.55748 20.5426 28.1535
Pd 3.51824 18.7112 29.959
Pd 3.49593 20.5706 31.8858
Pd 5.29652 20.5195 33.8758
Co 5.34128 20.5348 30.0319
Co 5.44901 22.5172 35.5629
Pd 4.75219 21.7931 17.8996
Pd 3.52411 26.392 18.6911
Co 4.93983 23.6589 16.0828
Pd 5.27537 24.3098 18.574
Pd 3.48197 24.3288 20.5305
Pd 5.29271 22.3741 20.503
Co 3.61402 28.1095 20.5767
Pd 4.76845 19.8816 19.8421
Pd 3.43655 24.2947 24.2845
Pd 5.36534 20.4815 22.4485
Co 5.31927 24.2931 22.4338
Pd 3.40577 22.4051 26.2385
Pd 3.39866 24.3361 28.1523
Pd 5.31419 22.429 28.164
Co 5.31133 22.4468 24.2943
Pd 3.43749 22.3993 30.0009
Pd 3.44442 24.3264 31.9057
Pd 5.33202 22.4596 31.9074
Co 5.29665 24.3461 30.0182
Pd 3.52128 22.5031 33.8445
Pd 3.62606 24.2857 35.7929
Pd 4.33703 22.4059 37.6952
Co 5.35497 24.3492 33.8065
Co 5.48307 24.5208 37.5982
Pd 8.57448 25.5615 10.4838
Pd 6.67984 25.4554 12.3545
Pd 5.33794 29.8832 16.7087
Pd 5.28533 26.2468 16.7203
Co 5.00486 25.4408 14.3409
Pd 3.46431 29.9836 22.3634
Pd 3.44243 26.2352 22.3843
Pd 5.3595 26.2217 20.5601
Co 5.42507 28.0834 18.6328
Pd 3.47112 22.4415 22.4235
Pd 3.43739 28.1252 24.2989
Pd 5.30191 26.232 24.2905
Co 5.3396 28.1113 22.4208
Pd 5.29633 24.3015 26.2035
Pd 3.42632 28.1354 28.1048
Pd 5.29045 26.2438 28.1239
Co 5.29635 28.1173 26.2025
Pd 3.42807 26.25 30.0268
Pd 3.44504 28.1366 31.9414
Pd 5.30687 26.2425 31.9231
Co 5.29668 28.1345 30.0117
Pd 3.46241 26.2008 33.8474
Pd 3.54114 28.1424 35.664
Pd 5.39221 26.2759 35.6649
Co 5.3384 28.1639 33.798
Pd 3.60021 26.2663 37.5562
Pd 5.37692 26.3135 39.4683
Co 5.39081 28.1524 37.5665
Pd 5.45338 27.9931 14.7361
Pd 3.59312 29.8256 18.6698
Pd 5.32003 33.7858 20.4427
Pd 5.39402 29.9723 20.5329
Co 5.38103 31.8076 18.6027
Pd 3.55949 31.8488 20.4893
Pd 3.46118 31.894 24.2609
Pd 5.32304 30.0106 24.29
Co 5.35393 31.9026 22.3818
Pd 3.39848 26.244 26.2042
Pd 3.4446 30.0269 26.1947
Pd 5.30944 30.0236 28.1033
Co 5.32937 31.8941 26.1853
Pd 3.44099 30.0284 30.0113
Pd 3.53204 31.9471 31.8417
Pd 5.3363 30.0338 31.8738
Co 5.33746 31.9433 29.9826
Pd 3.5305 30.0529 33.7704
Pd 5.30412 30.0897 35.7088
Co 5.35476 31.9448 33.7478
Pd 5.34323 35.7607 22.3632
Pd 3.53514 33.7681 22.4086
Pd 3.57681 35.6828 24.3888
Pd 5.36809 33.7763 24.2969
Co 7.2815 37.5704 22.4039
Pd 3.47785 33.7595 26.1746
Pd 3.54725 33.851 29.9199
Pd 5.37245 33.7947 28.0436
Co 5.41504 35.7034 26.159
Pd 3.45446 31.9212 28.1069
Pd 5.30233 33.8866 31.8731
Co 5.37896 35.7337 29.8896
Pd 7.2802 37.67 26.1618
Pd 3.60276 35.7076 27.9583
Pd 5.38957 37.6003 24.3371
Co 7.5458 41.2864 26.1722
Co 12.3547 8.55562 23.798
Pd 8.50642 12.2279 23.6854
Pd 12.2814 10.2947 21.8449
Co 10.4462 10.3809 23.7472
Pd 8.56667 10.4953 25.6332
Pd 7.24954 12.9259 28.0949
Pd 9.1086 11.0717 28.155
Co 9.15148 12.9415 26.2462
Co 9.12906 12.953 30.0364
Pd 4.74625 16.0921 23.6722
Pd 8.50077 14.155 21.7142
Co 8.56091 16.088 19.9131
Pd 6.58 14.1051 23.6363
Pd 7.23301 16.7024 24.2865
Pd 9.10609 14.7883 24.3011
Co 9.12105 16.6511 22.3744
Pd 7.28578 14.8709 26.2208
Pd 7.2351 16.7169 28.1572
Pd 9.11499 14.816 28.1795
Co 9.15044 16.7108 26.235
Pd 7.20516 14.8089 30.0619
Pd 7.19571 16.692 31.9618
Pd 9.06429 14.8016 31.9845
Co 9.09002 16.6884 30.0972
Co 9.11623 16.737 33.8559
Pd 6.6032 17.9384 19.8035
Pd 8.48944 17.8781 17.9025
Co 10.5016 19.8391 14.2157
Pd 6.64404 16.0368 21.7074
Pd 9.10751 20.4292 18.5934
Pd 9.09664 18.5598 20.5125
Co 8.55795 19.8682 16.071
Pd 7.23419 18.5888 22.3823
Pd 7.24738 20.507 24.3198
Pd 9.13942 18.5938 24.3013
Co 9.10813 20.485 22.378
Pd 7.25452 18.5958 26.2014
Pd 7.26268 20.5291 28.1502
Pd 9.12479 18.6029 28.1548
Co 9.14341 20.5033 26.23
Pd 7.22362 18.614 30.0706
Pd 7.20429 20.5006 31.9508
Pd 9.08617 18.6 31.9863
Co 9.12684 20.5114 30.0618
Pd 7.20866 18.5939 33.8858
Pd 7.17526 20.5262 35.7985
Pd 9.04778 18.6215 35.7981
Co 9.06956 20.4913 33.8979
Co 9.09754 20.5717 37.6567
Pd 6.71001 23.5427 14.1838
Pd 10.3561 21.6705 12.2256
Co 8.61355 23.6593 12.3607
Pd 8.53593 21.6491 14.1686
Pd 7.28913 24.2698 16.7085
Pd 9.1275 22.3602 16.6839
Co 9.17732 24.2139 14.7765
Pd 7.2332 22.3665 18.6099
Pd 7.22696 24.2876 20.5171
Pd 9.1147 22.3694 20.5289
Co 9.15296 24.2666 18.6177
Pd 7.21307 22.3977 22.4029
Pd 7.21794 24.2907 24.2884
Pd 9.14018 22.4017 24.3042
Co 9.14745 24.296 22.4103
Pd 7.2554 22.4299 26.2059
Pd 7.23264 24.3321 28.1455
Pd 9.13718 22.4276 28.1342
Co 9.13495 24.3231 26.2187
Pd 7.23165 22.4285 30.0406
Pd 7.22831 24.3466 31.9191
Pd 9.11908 22.4158 31.9466
Co 9.13564 24.3348 30.0367
Pd 7.25142 22.428 33.8268
Pd 7.23784 24.3409 35.7305
Pd 9.06662 22.4168 35.7905
Co 9.12285 24.344 33.8421
Pd 7.10262 22.442 37.6705
Pd 7.20105 24.3615 39.5593
Pd 9.03925 22.4516 39.5559
Co 9.0605 24.3297 37.6773
Co 9.13026 24.42 41.4084
Pd 12.9926 27.9602 7.25864
Pd 12.3224 21.7716 10.3292
Pd 7.35353 28.0105 12.8342
Pd 9.21306 26.1505 12.9428
Co 9.30789 27.9997 11.011
Pd 7.36489 26.1512 14.8196
Pd 7.29337 28.0837 16.694
Pd 9.18387 26.176 16.7152
Co 9.15771 28.1116 14.7733
Pd 7.26033 26.1919 18.5945
Pd 7.27723 28.0944 20.5095
Pd 9.15196 26.1832 20.5035
Co 9.16231 28.1012 18.5955
Pd 7.24874 26.2 22.4214
Pd 7.23048 28.1138 24.3085
Pd 9.14037 26.2059 24.3168
Co 9.15542 28.1082 22.4057
Pd 7.22872 26.2329 26.2111
Pd 7.21067 28.1294 28.1089
Pd 9.13076 26.2343 28.1234
Co 9.14069 28.1253 26.211
Pd 7.20778 26.2443 30.0195
Pd 7.22212 28.1535 31.9117
Pd 9.13141 26.2524 31.9188
Co 9.12672 28.1486 30.0174
Pd 7.24779 26.2637 33.8067
Pd 7.22477 28.2135 35.7148
Pd 9.10994 26.2771 35.7397
Co 9.11482 28.1851 33.8278
Pd 7.27413 26.3235 37.6404
Pd 7.2173 28.2303 39.5402
Pd 9.0987 26.2898 39.5342
Co 9.08997 28.2397 37.6561
Pd 7.2928 26.3039 41.4059
Pd 9.14151 26.3011 43.2694
Co 9.13831 28.1723 41.3974
Pd 9.14445 29.9723 12.8605
Pd 7.27451 29.9721 14.7413
Pd 7.20628 31.8819 16.6576
Pd 9.13166 30.0155 16.6654
Co 9.16443 31.8617 14.7904
Pd 7.25689 30.0005 18.5694
Pd 7.23129 31.923 20.4644
Pd 9.14316 30.0258 20.4782
Co 9.10671 31.9375 18.5388
Pd 7.26226 30.0135 22.404
Pd 7.24754 31.9114 24.2824
Pd 9.14942 30.0185 24.304
Co 9.13907 31.9298 22.3694
Pd 7.222 30.0162 26.1985
Pd 7.2402 31.925 28.0916
Pd 9.13425 30.0328 28.1024
Co 9.14397 31.9321 26.1905
Pd 7.22408 30.0447 29.9994
Pd 7.19761 31.9876 31.9008
Pd 9.10426 30.0805 31.9245
Co 9.1147 31.9645 30.0108
Pd 7.19893 30.0917 33.8194
Pd 7.18523 32.0215 35.7088
Pd 9.07946 30.1221 35.7334
Co 9.06816 32.0198 33.8347
Pd 7.19756 30.1101 37.6413
Pd 9.06404 30.13 39.543
Co 9.10571 31.9878 37.5934
Pd 9.08742 33.7998 16.6403
Pd 7.21412 33.799 18.5333
Pd 7.22897 35.7535 20.4489
Pd 9.10358 33.8366 20.4413
Co 9.14152 35.6784 18.5617
Pd 7.22608 33.8206 22.3467
Pd 7.25931 35.7396 24.2582
Pd 9.13573 33.8364 24.2528
Co 9.0949 35.7618 22.3233
Pd 7.2652 33.8244 26.1717
Pd 7.24622 35.7564 28.07
Pd 9.12676 33.8553 28.1023
Co 9.13817 35.7503 26.1696
Pd 7.20987 33.8667 29.9971
Pd 7.19222 35.81 31.8678
Pd 9.07669 33.8968 31.9125
Co 9.08743 35.7949 30.0108
Pd 7.18583 33.8993 33.8097
Pd 9.04898 33.9175 35.7169
Co 9.10364 35.7721 33.7619
Pd 9.07067 37.6145 20.426
Pd 11.0251 39.5688 20.3738
Pd 7.26545 39.5406 24.291
Pd 9.06877 39.536 22.2942
Co 13.0012 41.1817 20.5205
Pd 9.12269 37.6405 24.232
Pd 5.37161 37.6176 27.9607
Pd 9.12661 37.6559 28.0807
Co 9.19367 39.5407 26.1436
Pd 7.2012 37.6796 29.951
Pd 9.05949 37.7001 31.8735
Co 9.14115 39.5457 29.9112
Pd 9.14601 41.4512 24.2095
Pd 9.19379 43.2453 26.2237
Pd 7.31935 39.5918 28.0231
Co 9.21003 41.3726 28.0099
Co 14.29 4.96009 25.6438
Pd 16.0783 4.66503 23.7908
Pd 18.5829 7.20172 22.4484
Co 14.2529 8.50842 21.9088
Pd 12.37 6.71091 25.6702
Pd 11.0253 9.13613 28.1528
Pd 10.505 8.58906 25.586
Co 12.9307 9.16103 26.2877
Co 12.9282 9.16224 30.0813
Pd 10.4062 12.1889 21.7896
Pd 12.2808 12.1974 19.8675
Co 12.3476 14.177 18.018
Pd 14.1173 6.59666 23.6877
Pd 11.0208 12.8749 24.3325
Pd 12.9011 11.0075 24.3642
Co 12.8994 12.8451 22.4074
Pd 11.0573 11.0673 26.2707
Pd 11.0152 12.9109 28.2028
Pd 12.891 7.30308 28.1911
Co 12.9287 12.9157 26.2857
Pd 10.9881 11.012 30.1085
Pd 10.9746 12.8845 32.0043
Pd 12.8604 11.0002 32.0233
Co 12.875 12.8866 30.1398
Co 12.9012 12.9343 33.8908
Pd 10.3527 17.9121 15.9546
Pd 12.2754 15.9835 16.0606
Co 12.3303 17.9972 14.2121
Pd 10.3573 14.0797 19.7965
Pd 11.0185 16.6309 20.499
Pd 12.8988 14.7429 20.504
Co 12.9109 16.6008 18.5813
Pd 11.0272 14.7583 22.388
Pd 11.0245 16.6763 24.3189
Pd 12.9173 14.7775 24.3411
Co 12.9265 16.6639 22.4224
Pd 11.0188 14.7969 26.2545
Pd 11.0131 16.6975 28.179
Pd 12.9042 14.7997 28.2003
Co 12.915 16.6873 26.2601
Pd 10.9931 14.8004 30.1157
Pd 10.9785 16.6869 32.0096
Pd 12.8647 14.7915 32.0293
Co 12.8948 16.6986 30.1045
Pd 10.9652 14.7993 33.9269
Pd 10.9568 16.6923 35.8116
Pd 12.8391 14.8022 35.8261
Co 12.8484 16.6826 33.9379
Co 12.8849 16.7496 37.6853
Pd 12.2651 19.7725 12.2861
Pd 14.1423 17.824 12.2345
Co 16.1481 19.8486 8.55641
Pd 10.4026 15.9769 17.9465
Pd 11.0484 20.42 16.6791
Pd 12.9107 18.5196 16.6909
Co 12.9229 20.401 14.778
Pd 11.0421 18.5121 18.5715
Pd 11.0567 20.4585 20.5201
Pd 12.9296 18.5418 20.5058
Co 12.9341 20.4449 18.6052
Pd 11.0322 18.5676 22.4077
Pd 11.0313 20.4889 24.3147
Pd 12.9261 18.5798 24.335
Co 12.9432 20.4705 22.4232
Pd 11.0286 18.5936 26.2401
Pd 11.0231 20.5038 28.1539
Pd 12.9108 18.5976 28.1725
Co 12.9251 20.4949 26.2441
Pd 10.9998 18.5956 30.0851
Pd 10.9935 20.5037 31.9895
Pd 12.8802 18.5965 32.0091
Co 12.9034 20.5038 30.0797
Pd 10.9673 18.5995 33.9163
Pd 10.9625 20.5038 35.8019
Pd 12.8454 18.6026 35.8196
Co 12.8743 20.5116 33.9011
Pd 10.952 18.6219 37.7231
Pd 10.9511 20.5233 39.5945
Pd 12.8295 18.6285 39.6149
Co 12.8375 20.5048 37.7203
Co 12.883 20.5827 41.4598
Pd 10.4517 23.6573 10.3804
Pd 14.2035 21.6866 8.41348
Co 14.9225 26.1448 7.23512
Pd 14.2104 19.7862 10.3276
Pd 11.079 24.2205 12.9151
Pd 12.9295 22.3139 12.8968
Co 12.9442 24.2199 11.0099
Pd 11.0589 22.324 14.7761
Pd 11.0552 24.2511 16.6988
Pd 12.9459 22.341 16.7042
Co 12.96 24.2478 14.8137
Pd 11.0568 22.3733 18.608
Pd 11.0475 24.2765 20.5106
Pd 12.9489 22.3718 20.5145
Co 12.9541 24.2736 18.6064
Pd 11.044 22.3815 22.4113
Pd 11.0454 24.3032 24.3178
Pd 12.9389 22.3922 24.3274
Co 12.9472 24.2926 22.4159
Pd 11.0337 22.4044 26.2285
Pd 11.0352 24.324 28.1341
Pd 12.9236 22.4099 28.1494
Co 12.9378 24.3114 26.2316
Pd 11.024 22.4159 30.0551
Pd 11.0164 24.3327 31.9563
Pd 12.8953 22.4182 31.9814
Co 12.919 24.3271 30.0548
Pd 10.977 22.4161 33.8848
Pd 10.9729 24.3405 35.7777
Pd 12.8643 22.4247 35.7937
Co 12.884 24.3379 33.8778
Pd 10.9637 22.4282 37.6956
Pd 10.9674 24.346 39.5629
Pd 12.8435 22.4345 39.5921
Co 12.8656 24.3533 37.6765
Pd 10.9508 22.4613 41.4869
Pd 10.9762 24.3766 43.3457
Pd 12.8363 22.4681 43.3708
Co 12.8463 24.345 41.4747
Co 12.9094 24.4406 45.188
Pd 14.3205 23.7494 6.58847
Pd 18.6672 31.9232 5.32163
Pd 10.4402 25.6681 8.59453
Pd 12.9603 26.0545 9.06106
Co 11.1937 28.026 9.23228
Pd 11.1501 26.1763 11.036
Pd 11.0766 28.1026 12.9077
Pd 12.9687 26.1665 12.9362
Co 12.9558 28.0871 10.9803
Pd 11.0714 26.1765 14.815
Pd 11.0482 28.109 16.6859
Pd 12.9535 26.1816 16.7058
Co 12.9532 28.1026 14.8003
Pd 11.061 26.184 18.6039
Pd 11.0454 28.1101 20.4926
Pd 12.9484 26.1964 20.5069
Co 12.9414 28.1106 18.5912
Pd 11.0485 26.203 22.4077
Pd 11.0477 28.1193 24.3059
Pd 12.9453 26.2133 24.3164
Co 12.9433 28.1192 22.3987
Pd 11.0421 26.2219 26.221
Pd 11.0379 28.1395 28.1218
Pd 12.9344 26.2317 28.1335
Co 12.9401 28.1337 26.2171
Pd 11.0327 26.2415 30.0339
Pd 11.0134 28.17 31.9382
Pd 12.9069 26.2517 31.9557
Co 12.9202 28.1561 30.0392
Pd 11.0045 26.2623 33.8522
Pd 10.9834 28.2004 35.7561
Pd 12.8752 26.2682 35.767
Co 12.8889 28.1823 33.8575
Pd 10.9739 26.2779 37.6589
Pd 10.9751 28.2273 39.5487
Pd 12.864 26.2851 39.5609
Co 12.8675 28.2031 37.6593
Pd 10.9973 26.293 41.4425
Pd 10.9791 28.2236 43.3329
Pd 12.869 26.2989 43.3106
Co 12.8474 28.2409 41.4596
Pd 11.0954 26.3061 45.2186
Pd 26.1627 24.4453 50.8225
Co 12.9088 28.1718 45.175
Pd 12.9328 29.9794 9.08639
Pd 11.0635 29.9581 10.9457
Pd 11.0294 31.9124 12.8513
Pd 12.9289 30.0126 12.8712
Co 12.9587 31.8658 11.0001
Pd 11.0367 30.0202 14.7622
Pd 11.0198 31.9378 16.6523
Pd 12.9305 30.0273 16.6738
Co 12.9043 31.942 14.7427
Pd 11.0312 30.0282 18.5715
Pd 11.023 31.9406 20.4561
Pd 12.9335 30.0289 20.4802
Co 12.9242 31.9373 18.5604
Pd 11.0402 30.0285 22.385
Pd 11.0368 31.9414 24.2787
Pd 12.938 30.0366 24.2947
Co 12.928 31.9447 22.3692
Pd 11.0449 30.0392 26.2051
Pd 11.0238 31.9579 28.1092
Pd 12.9266 30.0549 28.123
Co 12.9269 31.9542 26.1985
Pd 11.0167 30.0651 30.0254
Pd 10.9893 31.9943 31.9335
Pd 12.8989 30.0834 31.9422
Co 12.9047 31.9787 30.0296
Pd 10.9875 30.1029 33.8424
Pd 10.9666 32.0353 35.7416
Pd 12.8698 30.116 35.7582
Co 12.8781 32.0089 33.8448
Pd 10.9682 30.1335 37.6581
Pd 10.9568 32.0535 39.5445
Pd 12.845 30.1392 39.5571
Co 12.8407 32.0516 37.6669
Pd 10.9619 30.1296 41.4623
Pd 12.8369 30.1344 43.3446
Co 12.8837 32.0062 41.4121
Pd 12.8993 33.8231 12.8414
Pd 11.0134 33.8134 14.7261
Pd 11.003 35.7408 16.6289
Pd 12.9005 33.8428 16.6397
Co 12.9427 35.6992 14.7745
Pd 11.0063 33.8388 18.5287
Pd 11.0055 35.7532 20.4239
Pd 12.9159 33.8507 20.4412
Co 12.8926 35.76 18.5117
Pd 11.0186 33.8516 22.3456
Pd 11.0189 35.7515 24.2432
Pd 12.9219 33.852 24.2692
Co 12.9183 35.7503 22.3396
Pd 11.0239 33.8552 26.182
Pd 11.0137 35.7682 28.0965
Pd 12.9109 33.8675 28.1067
Co 12.9144 35.7596 26.1775
Pd 10.9998 33.8854 30.0197
Pd 10.973 35.8124 31.9206
Pd 12.8805 33.9038 31.9385
Co 12.894 35.7858 30.0175
Pd 10.9656 33.9173 33.8392
Pd 10.952 35.8385 35.7209
Pd 12.8464 33.9333 35.7476
Co 12.8456 35.8332 33.8493
Pd 10.9523 33.9316 37.6506
Pd 12.8299 33.9428 39.5468
Co 12.8826 35.7974 37.6022
Pd 12.8931 37.6408 16.6245
Pd 10.9993 37.626 18.507
Pd 12.3691 43.3149 19.7068
Pd 12.903 37.6544 20.4153
Co 12.9522 39.5128 18.5571
Pd 11.0109 37.6452 22.3028
Pd 11.0222 39.5653 24.2065
Pd 12.9119 37.6507 24.2399
Co 12.9045 39.5266 22.3296
Pd 11.0248 37.6552 26.1526
Pd 11.021 39.5676 28.0745
Pd 12.9021 37.6717 28.0944
Co 12.9193 39.5479 26.1497
Pd 10.9957 37.685 30.0118
Pd 10.9654 39.6144 31.8834
Pd 12.8598 37.7081 31.9263
Co 12.8678 39.6038 30.019
Pd 10.9561 37.7121 33.8219
Pd 12.8321 37.7219 35.7278
Co 12.8927 39.5667 33.7829
Pd 12.9079 43.3725 22.2806
Pd 11.0448 41.4611 22.2234
Pd 11.0513 43.365 24.2165
Pd 12.9033 41.4429 24.2124
Co 12.9641 45.1473 24.3036
Pd 11.0492 41.4301 26.1424
Pd 12.8721 43.3893 29.9999
Pd 12.8936 41.4641 28.0759
Co 11.0754 43.2722 27.9969
Pd 10.9537 41.4744 29.9488
Pd 12.8461 41.4687 31.9139
Co 14.8841 45.1876 29.947
Pd 14.8161 45.2492 22.3064
Pd 11.1157 45.1133 26.1558
Pd 12.8911 45.1944 28.0828
Co 12.9175 43.3348 26.149
Pd 20.5202 3.38263 24.4357
Pd 19.8648 2.78187 21.9107
Co 20.6123 1.82166 26.4458
Pd 18.6311 3.40449 26.3498
Pd 14.7894 7.25273 30.1267
Pd 22.4054 1.65109 28.2077
Co 18.0761 2.97972 23.8071
Co 20.5924 3.52789 28.3064
Pd 14.1501 10.2004 19.8901
Pd 17.8437 6.55452 19.8096
Co 16.1345 8.55794 20.1773
Pd 17.7254 7.31217 16.1694
Pd 14.8127 9.10738 24.3806
Pd 16.6872 7.20737 24.3923
Co 16.6962 9.0965 22.5129
Pd 14.8552 7.32158 26.3075
Pd 12.9024 11.0163 28.2212
Pd 16.7126 7.20448 28.293
Co 16.7354 9.12288 26.3294
Pd 14.8236 9.12379 28.2401
Pd 14.7931 9.08495 32.0382
Pd 16.7122 7.21299 32.008
Co 16.6864 9.11308 30.1659
Co 16.7179 9.13938 33.9022
Pd 14.1377 14.013 16.0587
Pd 16.0795 10.2266 18.0084
Co 16.1397 12.2115 16.1869
Pd 14.2031 12.1694 17.9709
Pd 14.8026 12.8267 20.524
Pd 16.706 10.9976 20.5519
Co 16.6911 12.8209 18.6016
Pd 14.82 10.9828 22.4321
Pd 14.8143 12.8845 24.3638
Pd 16.7195 11.0031 24.3966
Co 16.7226 12.8803 22.4684
Pd 14.817 11.0117 26.3046
Pd 14.8022 12.9026 28.2227
Pd 16.7095 11.0136 28.2367
Co 16.7131 12.9017 26.3035
Pd 14.7902 11.006 30.1533
Pd 14.7718 12.8874 32.0462
Pd 16.6731 11.0016 32.0572
Co 16.6934 12.9058 30.1393
Pd 14.7705 10.9979 33.9556
Pd 14.7603 12.8831 35.8396
Pd 16.6539 10.9985 35.8487
Co 16.6533 12.8821 33.9661
Co 16.6925 12.9408 37.7109
Pd 16.079 17.8813 10.3573
Pd 16.0568 14.0832 14.1787
Co 16.1396 16.0287 12.3573
Pd 14.1818 15.9895 14.1413
Pd 14.8209 16.5925 16.6996
Pd 16.6982 14.7073 16.7127
Co 16.7024 16.5913 14.7848
Pd 14.8162 14.727 18.5964
Pd 14.8255 16.6432 20.5205
Pd 16.7185 14.7398 20.5328
Co 16.7269 16.6323 18.6233
Pd 14.8144 14.7588 22.4341
Pd 14.8198 16.6762 24.3506
Pd 16.7172 14.7839 24.3715
Co 16.7232 16.6629 22.4445
Pd 14.8131 14.7934 26.2818
Pd 14.8052 16.6961 28.1932
Pd 16.703 14.8015 28.2118
Co 16.7144 16.6922 26.2814
Pd 14.7848 14.795 30.1261
Pd 14.7743 16.6963 32.027
Pd 16.6759 14.7964 32.0413
Co 16.6918 16.7014 30.1163
Pd 14.7599 14.7934 33.9489
Pd 14.75 16.6919 35.8345
Pd 16.6442 14.7978 35.8479
Co 16.667 16.7058 33.9319
Pd 14.7488 14.808 37.7511
Pd 14.7427 16.7059 39.6282
Pd 16.6263 14.8194 39.6422
Co 16.6293 16.6958 37.7503
Co 16.6797 16.7731 41.4954
Pd 17.9278 17.8513 8.38742
Pd 17.9895 15.9576 10.3746
Co 20.5394 20.4208 7.26971
Pd 17.9974 19.8631 6.61761
Pd 14.8298 20.3874 12.8952
Pd 16.706 18.4999 12.907
Co 16.7182 20.3845 10.9949
Pd 14.8221 18.5142 14.7838
Pd 14.8331 20.4304 16.7077
Pd 16.7248 18.5216 16.7095
Co 16.7362 20.4237 14.8142
Pd 14.8247 18.529 18.6058
Pd 14.835 20.4562 20.5158
Pd 16.7298 18.5544 20.5278
Co 16.7354 20.4466 18.6176
Pd 14.8296 18.5647 22.4306
Pd 14.8324 20.4835 24.3421
Pd 16.7247 18.5807 24.3555
Co 16.7344 20.474 22.4358
Pd 14.8169 18.588 26.263
Pd 14.8132 20.5018 28.1702
Pd 16.708 18.6007 28.188
Co 16.7225 20.4957 26.2634
Pd 14.7952 18.6015 30.0982
Pd 14.7869 20.511 31.9978
Pd 16.6828 18.6094 32.0135
Co 16.7004 20.5117 30.0903
Pd 14.7634 18.6023 33.9205
Pd 14.7556 20.5158 35.8126
Pd 16.6544 18.6108 35.8269
Co 16.6739 20.5193 33.9092
Pd 14.7423 18.6099 37.7315
Pd 14.7432 20.517 39.6091
Pd 16.6313 18.6194 39.6236
Co 16.6519 20.5274 37.7085
Pd 14.747 18.6365 41.5335
Pd 14.7498 20.5384 43.3919
Pd 16.6396 18.6555 43.4242
Co 16.6304 20.5234 41.5175
Co 16.6991 20.6097 45.249
Pd 24.4948 30.0264 1.76256
Pd 16.7904 24.2749 7.28583
Co 16.3406 23.7365 4.89833
Pd 16.094 21.7113 6.54786
Pd 14.8008 24.2018 9.14229
Pd 16.7338 22.2997 9.14551
Co 16.8151 26.0925 5.39754
Pd 14.8544 22.3126 11.002
Pd 14.8466 24.2378 12.9121
Pd 16.7436 22.3212 12.9139
Co 16.7446 24.2345 11.0264
Pd 14.8393 22.3256 14.8029
Pd 14.8494 24.2615 16.7067
Pd 16.7412 22.349 16.7139
Co 16.7447 24.254 14.8107
Pd 14.8438 22.3578 18.6117
Pd 14.8482 24.2846 20.5139
Pd 16.7418 22.3715 20.5227
Co 16.7468 24.2756 18.614
Pd 14.843 22.3807 22.4253
Pd 14.8407 24.303 24.3281
Pd 16.7352 22.3943 24.3425
Co 16.743 24.2954 22.4253
Pd 14.8297 22.4014 26.2468
Pd 14.8244 24.32 28.1514
Pd 16.7167 22.412 28.1678
Co 16.7303 24.3137 26.2459
Pd 14.805 22.4158 30.0741
Pd 14.7959 24.3351 31.9749
Pd 16.692 22.426 31.9892
Co 16.7078 24.3297 30.0699
Pd 14.7789 22.4272 33.8932
Pd 14.7698 24.3487 35.7838
Pd 16.667 22.4362 35.7978
Co 16.6832 24.3451 33.8843
Pd 14.751 22.4324 37.6972
Pd 14.7507 24.3582 39.5819
Pd 16.6465 22.4426 39.5932
Co 16.6597 24.3573 37.6842
Pd 14.7473 22.4416 41.4947
Pd 14.7597 24.36 43.3511
Pd 16.6451 22.4557 43.3796
Co 16.655 24.3724 41.4678
Pd 14.7575 22.4664 45.2739
Pd 14.7331 24.3905 47.0802
Pd 16.6595 22.4936 47.1425
Co 16.6515 24.3607 45.2515
Co 12.9937 26.3123 46.9426
Pd 26.1731 28.0101 1.67985
Pd 16.766 28.0307 7.25342
Pd 14.9809 27.9156 5.41
Co 26.2547 24.2606 1.96048
Pd 20.5835 31.8632 3.47369
Pd 14.8282 28.0533 9.12851
Pd 16.7325 26.1487 9.18107
Co 18.7045 26.0559 3.61839
Pd 14.8184 26.154 11.0142
Pd 14.8373 28.0983 12.8872
Pd 16.7378 26.1703 12.9053
Co 16.7371 28.0928 11.0113
Pd 14.8577 26.178 14.8096
Pd 14.8413 28.1033 16.6976
Pd 16.7479 26.1839 16.7101
Co 16.7379 28.0973 14.797
Pd 14.848 26.1908 18.6054
Pd 14.8408 28.115 20.4965
Pd 16.7461 26.2007 20.5121
Co 16.7435 28.1061 18.601
Pd 14.8454 26.2079 22.4127
Pd 14.8389 28.1286 24.3108
Pd 16.7386 26.2171 24.326
Co 16.7405 28.1221 22.4073
Pd 14.8365 26.224 26.2304
Pd 14.8255 28.1456 28.1348
Pd 16.7217 26.2337 28.1491
Co 16.7297 28.1373 26.228
Pd 14.8143 26.2417 30.0544
Pd 14.7989 28.1668 31.957
Pd 16.697 26.2508 31.9693
Co 16.7094 28.1549 30.0522
Pd 14.7847 26.2598 33.871
Pd 14.771 28.1899 35.7663
Pd 16.6731 26.2696 35.7753
Co 16.6841 28.1756 33.8665
Pd 14.7653 26.2785 37.6717
Pd 14.7512 28.2148 39.5659
Pd 16.6575 26.288 39.5655
Co 16.6613 28.2006 37.6686
Pd 14.7591 26.2939 41.4555
Pd 14.7558 28.2415 43.3348
Pd 16.6618 26.3042 43.347
Co 16.6563 28.2191 41.4535
Pd 14.7863 26.307 45.2075
Pd 14.7303 28.2377 47.0667
Pd 16.676 26.3147 47.0397
Co 16.6417 28.2581 45.2331
Pd 16.6554 24.4932 48.9639
Co 22.4307 18.8143 48.8568
Pd 18.7078 29.9405 3.49172
Pd 14.8271 29.9668 7.17188
Pd 14.8285 31.9763 9.06737
Pd 16.7134 30.0173 9.10397
Co 20.541 31.8993 7.19962
Pd 14.827 30.0166 10.9611
Pd 14.8134 31.9225 12.8739
Pd 16.7251 30.013 12.8837
Co 16.7077 31.9333 10.9573
Pd 14.8271 30.0143 14.7811
Pd 14.8181 31.9356 16.6592
Pd 16.7339 30.0124 16.6908
Co 16.7231 31.9107 14.7864
Pd 14.8332 30.0252 18.5815
Pd 14.8283 31.9411 20.4683
Pd 16.7378 30.0273 20.489
Co 16.729 31.9348 18.5691
Pd 14.8357 30.0345 22.3896
Pd 14.8272 31.9484 24.2886
Pd 16.7322 30.0396 24.3062
Co 16.7315 31.9417 22.3831
Pd 14.8285 30.0479 26.2133
Pd 14.8151 31.9651 28.1201
Pd 16.7177 30.0559 28.132
Co 16.7214 31.9544 26.2103
Pd 14.81 30.0683 30.0399
Pd 14.7903 31.9925 31.9444
Pd 16.6946 30.0781 31.954
Co 16.7028 31.9758 30.0375
Pd 14.7818 30.0941 33.8571
Pd 14.7599 32.023 35.7608
Pd 16.6689 30.1029 35.7632
Co 16.6763 32.0034 33.8565
Pd 14.7556 30.1235 37.6646
Pd 14.7446 32.0533 39.5596
Pd 16.6514 30.1304 39.5667
Co 16.6568 32.0268 37.6615
Pd 14.7434 30.1458 41.4617
Pd 14.7447 32.0644 43.3442
Pd 16.6384 30.1475 43.3431
Co 16.6313 32.0609 41.47
Pd 14.7532 30.1502 45.2442
Pd 16.6439 30.1396 47.1195
Co 16.6876 32.0075 45.201
Pd 16.9928 35.7218 7.3693
Pd 14.8228 33.7922 10.9433
Pd 14.7954 35.7594 12.8372
Pd 16.7092 33.8021 12.8967
Co 16.8145 33.7798 9.12459
Pd 14.8017 33.8427 14.7387
Pd 14.8078 35.758 16.6237
Pd 16.7171 33.8436 16.6465
Co 16.6922 35.7692 14.721
Pd 14.8152 33.8495 18.5431
Pd 14.8133 35.7509 20.4333
Pd 16.7268 33.8439 20.4587
Co 16.7239 35.7427 18.5339
Pd 14.8233 33.8499 22.3623
Pd 14.8182 35.7528 24.269
Pd 16.7231 33.8499 24.2856
Co 16.7239 35.7451 22.3597
Pd 14.8164 33.8598 26.1951
Pd 14.8033 35.7732 28.1048
Pd 16.7079 33.8693 28.1174
Co 16.7123 35.7604 26.1934
Pd 14.7963 33.8843 30.028
Pd 14.7718 35.8055 31.9382
Pd 16.6841 33.8967 31.9428
Co 16.6894 35.7875 30.0264
Pd 14.7661 33.918 33.8505
Pd 14.7491 35.8393 35.7519
Pd 16.6582 33.9268 35.7615
Co 16.6673 35.8127 33.8478
Pd 14.7453 33.9419 37.6655
Pd 14.7441 35.8582 39.5491
Pd 16.6356 33.9465 39.5621
Co 16.6327 35.8518 37.6718
Pd 14.7437 33.9483 41.467
Pd 16.6327 33.9459 43.3509
Co 16.6842 35.8078 41.4177
Pd 16.7248 37.6765 12.7903
Pd 14.8256 37.6476 14.7041
Pd 14.8164 39.565 16.6258
Pd 16.7071 37.6549 16.6203
Co 16.7549 39.5096 14.751
Pd 14.8118 37.6427 18.5057
Pd 14.858 39.5233 20.4124
Pd 16.7287 37.6344 20.4296
Co 16.695 39.572 18.4991
Pd 14.8205 37.6431 22.34
Pd 14.8147 39.5531 24.2428
Pd 16.7167 37.6506 24.2673
Co 16.727 39.5421 22.3432
Pd 14.8077 37.6614 26.1754
Pd 14.7889 39.5737 28.094
Pd 16.6959 37.673 28.1024
Co 16.7032 39.5608 26.1743
Pd 14.7793 37.6929 30.019
Pd 14.7655 39.6062 31.929
Pd 16.6708 37.7017 31.9381
Co 16.6837 39.5773 30.0144
Pd 14.7558 37.7167 33.8489
Pd 14.7481 39.6365 35.729
Pd 16.6408 37.7287 35.7527
Co 16.642 39.6239 33.8536
Pd 14.7451 37.7336 37.6576
Pd 16.6301 37.7385 39.551
Co 16.6839 39.5913 37.6061
Pd 16.6937 41.4478 16.638
Pd 14.7235 41.4725 18.5281
Pd 14.8588 43.3499 20.4
Pd 16.7063 41.4434 20.4026
Co 16.7535 43.297 18.543
Pd 14.8247 41.4394 22.3078
Pd 14.8091 43.3545 24.235
Pd 16.7089 41.456 24.2424
Co 16.7061 43.3591 22.3152
Pd 14.8004 41.4555 26.1571
Pd 14.8086 43.36 28.0855
Pd 16.6917 41.459 28.0923
Co 16.7156 43.3323 26.1608
Pd 14.7849 41.4718 30.0187
Pd 14.7903 43.4138 31.8951
Pd 16.6586 41.4905 31.9256
Co 16.6708 43.3794 30.0119
Pd 14.7592 41.509 33.8276
Pd 16.6349 41.5125 35.7302
Co 16.7028 43.3591 33.7777
Pd 20.5364 47.0945 18.5163
Pd 16.7079 45.2386 20.4152
Pd 12.9611 47.0353 26.1216
Pd 16.7082 45.2223 24.2381
Co 16.771 47.0694 22.3766
Pd 14.8236 45.209 26.1572
Pd 14.8133 47.0789 28.1303
Pd 16.7034 45.2312 28.0808
Co 16.7293 47.0628 26.1618
Pd 16.6495 45.2715 31.8668
Pd 18.5851 47.1598 31.8931
Co 16.7383 47.0653 29.9373
Pd 14.8122 47.0829 24.2085
Pd 16.7465 48.8876 28.0437
Pd 18.6336 48.9198 29.9546
Pd 21.7998 2.80922 19.9926
Pd 26.3435 3.42005 22.5378
Co 24.343 7.30443 16.8337
Pd 22.4285 3.34658 22.5188
Pd 20.5156 5.29025 26.4193
Pd 24.3611 5.33525 26.4137
Co 24.4111 5.35162 18.8553
Pd 22.4746 3.51139 26.4086
Pd 18.5789 5.19972 28.3866
Pd 16.7243 5.25746 26.3459
Co 22.4504 5.29854 28.3379
Pd 17.9371 4.65068 21.8235
Pd 18.6293 5.33578 24.4177
Pd 20.5248 3.59606 31.9599
Co 20.5557 5.33947 30.1147
Co 18.744 5.42509 31.9643
Pd 20.0027 8.44601 16.1302
Pd 19.8644 10.2821 14.1766
Co 18.1357 8.57262 18.2107
Pd 15.9111 7.50844 17.9973
Pd 16.0275 6.58916 21.8161
Pd 18.6186 9.08351 20.6258
Co 22.4434 9.08682 20.6025
Pd 20.521 7.24373 24.4339
Pd 18.6157 9.08734 24.4072
Pd 22.428 5.3164 24.4129
Co 20.54 9.09164 22.4744
Pd 18.595 7.21394 26.3749
Pd 18.6098 9.10839 28.2598
Pd 20.5173 7.19516 28.2822
Co 20.511 9.10745 26.3524
Pd 18.6031 7.20695 30.1616
Pd 18.5939 9.10399 32.0513
Pd 20.5191 7.24175 32.0524
Co 20.5131 9.11859 30.1545
Pd 18.5739 7.22578 33.9402
Pd 18.5842 9.09068 35.8625
Pd 20.4824 7.23977 35.8766
Co 20.4766 9.09521 33.9749
Co 20.5538 9.1798 37.733
Pd 17.9565 12.1502 14.2062
Pd 19.8967 12.1721 12.2773
Co 21.938 12.2528 10.4507
Pd 17.8992 10.1517 16.0853
Pd 18.6114 12.7983 16.7107
Pd 20.5226 10.9627 16.7281
Co 20.4982 12.8096 14.8
Pd 18.6174 11.0068 18.6349
Pd 18.637 12.8643 20.5659
Pd 20.5554 10.9769 20.5981
Co 20.5413 12.8559 18.659
Pd 18.6237 10.9938 22.4938
Pd 18.6267 12.8947 24.3977
Pd 20.5242 10.9886 24.41
Co 20.5363 12.8843 22.4916
Pd 18.6199 11.0033 26.3207
Pd 18.61 12.9093 28.2253
Pd 20.5125 11.0165 28.2446
Co 20.5224 12.9038 26.3153
Pd 18.5972 11.012 30.1526
Pd 18.5841 12.9028 32.056
Pd 20.4987 11.0048 32.0614
Co 20.504 12.9138 30.1459
Pd 18.5777 10.9967 33.97
Pd 18.5555 12.89 35.8598
Pd 20.4693 11.0152 35.8682
Co 20.4797 12.9162 33.9538
Pd 18.5592 10.9884 37.7954
Pd 18.533 12.8869 39.6768
Pd 20.5153 11.1404 39.5847
Co 20.4397 12.9475 37.7342
Co 20.4831 13.0099 41.5182
Pd 19.9467 15.971 8.50794
Pd 19.9241 14.0506 10.371
Co 22.4365 16.5766 9.15963
Pd 17.9198 14.0452 12.2411
Pd 18.6234 16.5884 12.9119
Pd 20.5067 14.7138 12.9228
Co 20.5348 16.5815 11
Pd 18.6153 14.7107 14.7949
Pd 18.6197 16.6198 16.721
Pd 20.522 14.7256 16.7337
Co 20.5318 16.6243 14.8367
Pd 18.6231 14.7289 18.6324
Pd 18.6265 16.6522 20.5417
Pd 20.5346 14.767 20.5627
Co 20.5309 16.6442 18.6417
Pd 18.626 14.775 22.4671
Pd 18.6242 16.6853 24.3733
Pd 20.5297 14.7936 24.392
Co 20.5329 16.6781 22.4674
Pd 18.6155 14.7998 26.3
Pd 18.609 16.7035 28.2056
Pd 20.5144 14.8092 28.2196
Co 20.5235 16.7003 26.2957
Pd 18.5963 14.8066 30.1308
Pd 18.5845 16.7108 32.0279
Pd 20.4907 14.8181 32.0412
Co 20.5042 16.7151 30.1198
Pd 18.5647 14.8038 33.9478
Pd 18.5533 16.7123 35.8412
Pd 20.4619 14.8272 35.8417
Co 20.4789 16.7248 33.9335
Pd 18.5395 14.8075 37.7607
Pd 18.5387 16.7099 39.6383
Pd 20.4385 14.8187 39.643
Co 20.4571 16.7256 37.7358
Pd 18.5368 14.8308 41.5637
Pd 18.5471 16.7417 43.4304
Pd 22.3078 14.8803 45.3684
Co 20.4204 16.7162 41.5407
Co 20.4819 16.8411 45.2952
Pd 18.6613 22.3665 7.24219
Pd 21.8263 17.9345 4.68007
Co 22.6173 24.2851 1.75997
Pd 18.0661 21.8382 4.69438
Pd 18.6464 20.3913 9.14511
Pd 20.5305 18.4892 9.16348
Co 22.4498 22.3504 7.23957
Pd 18.6235 18.4938 10.9944
Pd 18.6347 20.4105 12.9179
Pd 20.535 18.51 12.9238
Co 20.5519 20.4193 11.0459
Pd 18.6303 18.5171 14.8194
Pd 18.638 20.4397 16.724
Pd 20.537 18.5367 16.7368
Co 20.5439 20.4296 14.8315
Pd 18.6317 18.5432 18.6286
Pd 18.6383 20.4658 20.5333
Pd 20.537 18.5636 20.5472
Co 20.5442 20.4585 18.636
Pd 18.6301 18.5716 22.4494
Pd 18.6305 20.4892 24.356
Pd 20.531 18.5906 24.3718
Co 20.5387 20.4821 22.4512
Pd 18.6198 18.5959 26.2794
Pd 18.6144 20.5088 28.183
Pd 20.5163 18.6098 28.1979
Co 20.5266 20.5041 26.2756
Pd 18.5994 18.6112 30.106
Pd 18.5916 20.5219 32.0042
Pd 20.4955 18.6231 32.0172
Co 20.5087 20.5208 30.098
Pd 18.576 18.6191 33.9231
Pd 18.5691 20.529 35.813
Pd 20.4741 18.6285 35.8282
Co 20.4894 20.5312 33.9128
Pd 18.5481 18.6188 37.7264
Pd 18.5439 20.5358 39.6066
Pd 20.4487 18.6312 39.6205
Co 20.4692 20.5379 37.7137
Pd 18.5369 18.6346 41.5255
Pd 18.5465 20.548 43.3978
Pd 20.4348 18.6584 43.4045
Co 20.4458 20.5565 41.4854
Pd 18.5841 18.6765 45.3485
Pd 18.5751 20.5806 47.1725
Pd 22.3076 16.8635 47.2124
Co 20.434 20.5707 45.2957
Co 20.5068 18.7756 47.1201
Pd 20.5547 28.0353 3.39308
Pd 22.4196 22.359 3.50873
Pd 20.5678 22.3873 5.45526
Co 24.428 31.8451 3.52528
Pd 22.6869 27.8838 1.64514
Pd 18.6999 24.2437 9.19055
Pd 20.58 22.3228 9.12405
Co 20.5952 24.2237 7.24389
Pd 18.6609 22.3203 11.0337
Pd 18.6471 24.2502 12.926
Pd 20.5528 22.3344 12.9466
Co 20.5715 24.2439 11.0635
Pd 18.6435 22.3398 14.8219
Pd 18.648 24.2686 16.7152
Pd 20.5508 22.3571 16.7277
Co 20.5562 24.2629 14.8275
Pd 18.6445 22.365 18.623
Pd 18.6458 24.2872 20.5238
Pd 20.5467 22.3796 20.536
Co 20.5533 24.2799 18.6235
Pd 18.6399 22.3862 22.4378
Pd 18.6369 24.3067 24.341
Pd 20.5363 22.4 24.3553
Co 20.5449 24.2989 22.4375
Pd 18.6267 22.4064 26.2611
Pd 18.6193 24.3243 28.1636
Pd 20.5205 22.419 28.1781
Co 20.5306 24.3178 26.258
Pd 18.6068 22.4233 30.0842
Pd 18.5978 24.3397 31.9825
Pd 20.5018 22.4329 31.9962
Co 20.5128 24.3342 30.0784
Pd 18.5847 22.4353 33.8986
Pd 18.5761 24.3544 35.7882
Pd 20.4837 22.444 35.8025
Co 20.4943 24.3484 33.89
Pd 18.5636 22.4462 37.6968
Pd 18.5577 24.3694 39.5757
Pd 20.4653 22.4588 39.5882
Co 20.4775 24.3648 37.6849
Pd 18.5437 22.4558 41.4815
Pd 18.5538 24.3844 43.3612
Pd 20.4455 22.4807 43.3638
Co 20.4578 24.3843 41.4601