4033
Atoms. Timestep: 21358
Co 20.6987 31.2977 33.7299
Pd 5.93043 33.1599 23.2429
Pd 15.4132 9.29297 15.8918
Co 5.63096 20.5587 25.4646
Pd 5.69719 32.5013 27.9017
Pd 18.2918 18.5651 20.7016
Pd 15.339 20.6136 43.1691
Co 8.11536 13.5448 28.5722
Co 8.97586 23.1127 37.4495
Pd 17.1171 11.5186 16.1155
Pd 3.31549 26.5485 34.7146
Co 6.53825 19.2113 36.3677
Pd 11.0853 30.8188 10.9299
Pd 8.32102 15.866 18.0171
Pd 15.7639 27.7685 37.5374
Co 7.62624 23.5106 28.8657
Pd 9.21683 12.8515 21.0964
Pd 18.7709 35.1751 41.6709
Pd 19.8155 24.0774 23.9305
Co 10.9429 38.2764 34.5556
Pd 14.0712 12.0777 36.2343
Pd 13.3289 27.5177 39.3632
Pd 9.705 10.6935 22.7299
Co 12.7981 10.4242 25.8053
Co 9.8522 38.9064 32.4336
Pd 15.6265 19.9106 12.1892
Pd 22.3394 8.92427 18.4554
Co 24.3138 41.255 25.5763
Pd 2.97618 20.8486 24.8225
Pd 20.1886 14.3642 11.8056
Pd 2.29251 24.091 27.6429
Co 13.667 21.0131 21.6345
Pd 3.36738 28.8824 26.0784
Pd 8.58202 25.5617 30.4595
Pd 9.70024 35.9173 38.3583
Co 11.4521 11.7809 24.4122
Pd 9.69563 29.6704 21.0224
Pd 13.1993 18.5148 39.0548
Pd 14.4315 20.7782 37.9662
Co 3.74413 33.6968 26.8896
Pd 11.8355 38.5253 20.751
Pd 14.5257 46.2563 25.265
Pd 12.4789 40.4264 38.6125
Co 14.3721 37.2244 31.0405
Pd 3.74071 26.6677 21.0449
Pd 16.3153 29.34 41.668
Pd 3.74056 27.3963 30.8536
Co 14.0235 31.1809 41.1771
Co 20.1307 36.9256 40.5076
Pd 12.0436 16.3963 12.2918
Pd 4.32604 34.3281 29.5333
Pd 13.9438 22.7078 12.8248
Pd 2.71255 25.1257 22.9432
Co 11.162 24.5386 21.2489
Pd 12.6645 22.4495 15.2874
Pd 9.62857 35.7971 16.8447
Pd 3.24286 24.0776 20.2656
Co 12.5714 27.4734 26.5118
Pd 9.66884 42.4293 16.4305
Pd 11.3569 25.0821 26.7401
Pd 3.28659 23.7886 34.0178
Co 12.348 39.9716 24.9045
Pd 13.9044 15.3551 24.9425
Pd 10.5042 42.5246 29.6971
Pd 10.3583 35.9306 31.6204
Co 12.5753 19.4506 27.9755
Pd 10.7917 41.0809 23.0507
Pd 8.17318 34.1669 27.4038
Pd 5.4509 29.4777 31.4225
Co 13.6465 36.4863 36.812
Pd 16.867 43.3817 32.0232
Pd 5.5233 25.2195 35.0881
Pd 3.86456 31.7346 32.464
Co 13.0832 42.9828 31.2837
Pd 11.5966 19.384 22.4684
Pd 12.2666 42.6717 33.6556
Co 5.67715 30.752 22.7172
Pd 14.8608 33.3565 7.67755
Pd 8.10097 23.0792 31.9442
Pd 10.4083 26.2544 34.7579
Pd 14.2945 9.38037 18.3534
Co 15.7715 14.2707 11.9281
Pd 7.58706 25.336 13.232
Pd 7.72079 24.517 21.0316
Pd 2.78327 29.4572 21.4159
Co 5.05731 28.6777 21.9075
Pd 6.79846 31.7209 32.0876
Pd 4.01335 22.1327 26.7938
Pd 9.41604 18.8214 24.1742
Co 8.06089 20.3149 26.0829
Pd 2.2027 20.8836 31.8177
Pd 8.56008 29.9423 14.2944
Pd 15.7935 33.9242 40.3525
Co 18.9399 40.6352 38.3563
Pd 9.04115 27.1934 32.4781
Pd 10.46 33.9195 40.2695
Co 11.4396 43.7058 23.6536
Pd 17.338 30.0441 15.4307
Pd 14.7585 34.9006 28.8928
Pd 3.52458 33.0649 24.435
Pd 12.6238 31.7832 25.2979
Co 18.5888 39.1739 15.32
Pd 9.3342 42.2825 27.1147
Pd 5.07313 36.2321 18.9747
Pd 14.7065 35.4078 23.4707
Co 12.7164 28.0037 28.9464
Pd 7.36864 26.6676 17.8897
Pd 17.06 36.8915 21.6663
Co 8.00452 36.6923 27.9106
Pd 3.71735 19.4317 27.0004
Pd 8.0954 31.6729 26.9296
Pd 16.3811 30.112 23.5579
Co 10.7199 29.1657 32.6736
Co 11.0507 17.3906 28.3802
Pd 22.4688 15.7096 11.0839
Pd 19.9224 12.8754 31.4415
Co 6.16315 26.8884 36.8449
Pd 13.0138 10.1832 23.2009
Pd 13.9045 24.8853 20.3783
Pd 12.8732 7.90048 25.7371
Co 15.2451 11.2702 14.3573
Co 14.7336 14.0911 32.307
Pd 7.5473 28.8173 22.867
Pd 16.0381 20.4076 20.8722
Co 23.1687 11.5041 16.1657
Pd 5.94523 15.3644 21.887
Pd 8.38831 29.7832 11.5544
Pd 17.1971 11.2914 28.4991
Co 19.4793 19.1585 23.0275
Pd 15.5363 12.4311 30.5157
Pd 24.2369 8.13485 33.5304
Pd 20.1826 9.45607 13.803
Co 14.1168 19.1849 23.5366
Pd 16.7742 16.3824 20.8362
Pd 12.1279 24.0931 31.3931
Pd 16.406 15.4881 33.6567
Co 25.01 9.5013 35.5846
Co 16.2286 21.8609 25.8948
Pd 16.6294 20.619 28.0411
Pd 18.4695 26.4904 17.1942
Co 10.6345 19.3095 14.9254
Pd 11.8035 12.0119 21.8415
Pd 9.42007 13.1348 23.8323
Pd 10.1513 21.827 15.5655
Co 8.43236 15.054 22.1726
Pd 23.4652 5.3568 21.6422
Pd 6.90681 15.2738 27.0232
Pd 15.2158 25.5376 22.8093
Co 16.2756 11.9447 18.6435
Pd 14.5849 11.8723 21.8209
Pd 14.8647 18.8058 33.5934
Pd 12.3124 23.5322 41.0779
Co 18.007 13.2616 29.8026
Pd 10.0625 27.0523 25.5262
Pd 4.68854 21.7203 20.5898
Pd 15.0715 29.5406 39.3527
Co 10.5151 12.8578 26.3643
Pd 11.6973 34.3601 36.4045
Pd 8.15963 24.3367 39.5405
Pd 30.15 10.7349 10.141
Co 6.34891 26.9805 31.3403
Co 18.6271 15.7752 35.321
Pd 27.5707 6.63277 18.554
Pd 10.0124 28.5182 9.8496
Co 13.1152 27.3379 19.6963
Pd 5.77554 27.8019 19.6396
Pd 4.88718 25.7692 24.2356
Pd 18.6307 6.44673 20.1456
Co 13.1185 23.9823 22.7095
Pd 15.4383 17.8839 13.9872
Pd 4.24272 30.359 28.1765
Pd 11.3222 8.92417 21.6611
Co 19.4821 11.9753 22.7975
Pd 14.1491 21.3539 28.5946
Pd 13.869 23.9505 17.753
Pd 11.7938 26.6025 32.4506
Co 10.3234 20.597 38.7383
Pd 9.24068 11.35 27.978
Pd 5.4295 34.0238 32.0247
Pd 9.2006 13.4415 30.9221
Co 19.0461 11.7959 38.3696
Pd 15.2763 24.7079 45.1486
Pd 12.0584 34.4531 42.5375
Pd 11.8627 15.4554 29.9683
Co 6.01153 33.5189 25.6888
Pd 9.36946 22.7315 27.0161
Pd 10.2642 40.731 34.2609
Pd 3.18073 24.8047 30.3753
Co 21.3786 27.9283 42.3065
Pd 8.94671 20.7984 30.9734
Pd 14.354 38.3716 42.7173
Pd 5.26399 32.8501 34.4849
Co 14.5957 33.8526 42.5313
Co 8.5629 17.212 27.3253
Pd 9.35622 25.5283 19.3074
Pd 21.9176 6.31432 26.0621
Pd 11.5348 13.3471 19.6338
Pd 3.32159 30.4339 23.7649
Co 9.64713 31.2967 24.9776
Pd 26.7164 21.951 4.76677
Pd 6.07451 37.7855 26.5429
Pd 16.8515 6.64202 28.9396
Co 13.7137 30.4863 10.5114
Pd 11.866 23.7 11.1831
Pd 14.2636 23.7424 10.2249
Pd 7.20903 22.2461 19.9263
Co 9.88765 34.2708 33.4082
Pd 15.3276 23.4899 24.2792
Pd 20.6476 21.6475 23.2773
Pd 11.392 30.5056 29.8836
Co 8.77489 35.234 29.7504
Pd 3.06609 22.5347 22.6031
Pd 2.72162 26.2518 25.7713
Pd 16.7728 34.916 44.5074
Co 1.82447 21.2558 27.2806
Pd 7.15058 17.9196 25.4372
Pd 18.1487 41.4726 18.2371
Pd 5.74405 35.31 27.5376
Co 20.1782 13.5766 28.8055
Pd 9.02962 20.9078 36.3379
Pd 7.69527 31.3265 34.6471
Pd 7.02119 36.0494 34.8558
Co 10.3939 27.8201 42.9973
Pd 17.2478 33.3004 42.4514
Pd 23.1257 7.98879 31.088
Pd 6.35765 24.3527 37.5775
Co 15.9706 37.5471 38.0494
Pd 9.35 29.6928 28.1443
Pd 18.9125 14.8472 32.9011
Co 16.5507 24.3184 40.034
Pd 5.49952 28.8064 24.4758
Pd 17.547 25.5616 24.2646
Pd 6.93716 24.6088 26.4199
Pd 10.7759 34.3034 28.4803
Co 13.0517 26.5878 22.0678
Pd 18.3589 21.201 24.4813
Pd 12.8492 19.8506 16.4545
Pd 6.29659 20.7471 18.0558
Co 10.261 32.819 23.0991
Pd 5.96628 29.8656 17.9877
Pd 24.3472 31.3099 20.9709
Pd 14.4781 30.5795 20.3441
Co 8.51433 29.1722 25.3589
Pd 18.1413 21.7334 34.5328
Pd 22.7281 36.3932 29.452
Pd 12.0886 37.8243 31.9939
Co 8.92669 37.5029 36.1728
Pd 7.1604 33.3498 36.4114
Pd 7.53764 23.537 35.2984
Pd 14.6175 31.9825 38.6234
Co 4.91032 31.8999 30.2758
Pd 18.7708 32.3045 30.6092
Pd 14.9786 40.1581 28.5033
Pd 18.5794 39.0868 44.2075
Co 9.19079 36.8376 33.7515
Pd 15.8623 32.8124 36.1451
Pd 18.1357 38.2695 39.4068
Co 25.3097 26.2332 43.4345
Pd 12.7233 13.7003 33.9484
Pd 12.8312 41.4792 29.2972
Pd 9.19333 42.5347 19.0567
Pd 11.617 43.7646 19.6137
Co 22.3356 41.9053 19.1409
Pd 6.86836 38.777 28.8105
Pd 11.6833 44.3493 17.0019
Pd 13.2236 33.586 40.3277
Co 11.2612 36.9036 36.542
Pd 13.3158 29.1477 37.0522
Pd 18.749 30.2195 22.4366
Pd 13.5385 26.2613 30.5338
Co 11.3443 42.1407 25.4645
Pd 9.57711 28.9848 34.9889
Pd 15.8881 44.7825 18.5438
Pd 16.6117 39.8497 42.3548
Co 16.0716 48.1904 24.1993
Pd 7.51402 40.1881 26.6509
Pd 16.4583 47.3996 26.6652
Co 13.1899 35.4051 32.5774
Pd 9.08939 37.9701 19.2449
Pd 18.2907 43.6201 36.0515
Pd 17.6287 38.1659 32.58
Pd 2.7957 32.3226 28.9196
Co 13.8011 43.3873 18.2189
Pd 7.07401 19.7127 23.5043
Pd 17.0638 43.5154 29.0397
Pd 7.42319 26.8368 24.7209
Co 18.4746 43.3606 26.7415
Pd 10.385 39.5735 36.6755
Pd 5.79566 37.9278 23.9442
Co 18.4245 45.8261 26.1829
Pd 10.8682 41.0323 20.3686
Pd 6.59726 31.2344 13.151
Pd 29.4661 41.4943 31.8162
Co 20.8708 43.3081 32.533
Co 29.1313 3.92722 25.8338
Pd 19.3345 12.1494 35.9426
Pd 19.5178 18.4792 35.3864
Co 9.7313 15.3977 20.1497
Pd 32.0753 7.34738 20.7351
Pd 24.2381 21.8135 3.69433
Pd 8.323 19.1519 38.1363
Co 19.1947 15.682 25.3585
Co 6.5342 21.1369 34.9014
Pd 21.3549 20.2675 14.525
Pd 26.4646 8.91855 15.6457
Co 21.3586 6.04777 30.4659
Pd 25.1771 7.07444 17.528
Pd 10.2547 17.2261 31.1649
Pd 15.271 6.96585 24.4419
Co 9.10151 25.2215 27.9021
Pd 17.6422 28.3393 28.6692
Pd 15.4141 9.40273 22.9885
Pd 9.35978 10.767 25.3923
Co 10.041 16.6053 23.1263
Pd 27.9083 22.6484 13.3753
Pd 26.5668 9.26027 18.2129
Pd 14.5122 23.784 29.9758
Co 12.9849 10.2622 20.3919
Co 17.7168 13.5721 34.835
Pd 9.0197 20.9009 22.0291
Pd 14.5177 11.5835 16.8876
Co 7.50345 24.0727 18.2559
Pd 14.2768 13.5856 15.2996
Pd 16.0878 7.54918 19.2288
Pd 4.5018 19.7878 31.4706
Co 17.8998 11.1799 31.0262
Pd 3.21331 27.7432 23.5089
Pd 5.67057 31.1793 36.5908
Pd 20.0906 10.9516 20.4643
Co 15.9492 13.9233 28.5537
Pd 25.637 11.3926 16.1836
Pd 11.7254 16.8948 21.019
Pd 15.7596 25.1895 26.2357
Co 20.7369 9.38405 27.457
Pd 20.6662 4.96285 28.0866
Pd 8.19281 27.4509 20.5881
Pd 28.0539 14.057 24.4693
Co 21.9451 22.3673 28.4924
Pd 7.86166 26.7355 34.8745
Pd 26.3907 18.0371 20.7875
Pd 18.3115 20.736 43.3837
Co 8.71412 21.5374 33.8058
Co 16.9509 11.3773 25.9246
Pd 13.8743 12.3017 19.3242
Pd 27.3467 23.1418 15.878
Co 17.3536 8.44303 24.3089
Pd 19.055 13.128 9.69985
Pd 5.04724 23.1324 18.4489
Pd 32.7595 14.5972 17.7082
Co 18.6646 20.1561 26.6948
Pd 8.68009 18.3859 13.6425
Pd 5.10061 24.1639 21.9504
Pd 7.93748 12.9772 26.0543
Co 18.009 25.6726 7.1314
Pd 19.7468 26.0851 25.8766
Pd 16.8345 14.9838 31.0873
Pd 7.43792 16.9597 20.3768
Co 8.83977 26.0937 22.7179
Pd 5.34545 17.8689 22.2462
Pd 4.87208 22.7621 35.8959
Pd 14.6602 11.6947 24.6249
Co 11.2255 14.6901 24.7949
Pd 20.8148 22.4368 25.8782
Pd 6.73463 22.632 16.2093
Pd 8.01777 27.4136 27.2572
Co 20.9331 25.6535 41.2287
Pd 16.8794 15.8342 24.0486
Pd 11.9636 19.3932 25.0123
Pd 6.96463 29.0214 35.6373
Co 29.9431 14.249 26.045
Pd 14.2026 19.7909 30.9802
Pd 12.425 23.2323 34.0166
Pd 14.8161 16.7977 37.65
Co 21.9216 29.0745 37.9364
Co 7.04444 16.7792 33.836
Pd 16.0611 27.4363 7.36092
Pd 17.2011 19.8434 14.4611
Co 14.9205 21.5132 8.74854
Pd 16.6065 7.3603 21.8728
Pd 10.4464 10.8366 19.9421
Pd 14.747 19.0346 9.81988
Co 16.533 25.5039 15.9303
Pd 21.3571 13.3652 15.8671
Pd 22.1864 7.72316 14.1045
Pd 16.5239 13.1385 9.83711
Co 7.8382 28.571 16.2591
Pd 21.2518 22.0039 19.1892
Pd 9.33542 18.3497 21.4484
Pd 18.1858 9.04895 19.7916
Co 8.65651 33.4542 31.5339
Pd 14.2313 20.2534 26.095
Pd 6.57062 19.6748 20.8034
Pd 7.4367 18.4422 18.1176
Co 6.54536 21.9098 30.3336
Pd 4.50768 18.158 29.314
Pd 16.0645 25.0208 42.4714
Pd 18.276 34.2799 35.698
Co 6.71129 20.7281 32.4702
Pd 18.523 20.4295 37.0407
Pd 10.8403 39.3898 30.0004
Pd 11.7669 26.3512 41.2573
Co 16.3521 16.4259 29.0596
Pd 13.5794 17.5379 29.4802
Pd 7.61668 35.7548 32.0861
Pd 11.8088 25.2742 18.809
Co 14.3747 27.5851 32.8375
Pd 20.763 31.958 26.8401
Pd 10.531 21.0619 28.7529
Pd 16.6864 12.4748 37.0644
Co 20.1005 23.2606 34.3417
Pd 26.775 27.3526 38.6959
Pd 11.5583 15.9177 34.7349
Pd 11.5014 19.3536 40.7721
Co 22.1962 18.6749 35.9414
Co 16.1567 35.8516 42.117
Pd 15.5159 29.5714 5.43112
Pd 17.4649 29.5569 12.6853
Pd 20.4079 35.2363 14.1972
Pd 20.9974 23.7563 11.0938
Co 10.9101 18.6924 12.4283
Pd 19.2748 25.6821 11.5658
Pd 16.7015 23.8602 17.8959
Pd 10.9409 26.2896 12.3188
Co 20.5643 20.3249 21.1124
Pd 10.7628 27.0031 21.0771
Pd 9.10236 31.2434 16.578
Pd 14.0818 8.10602 20.9307
Co 14.4316 25.7234 8.48091
Pd 15.7423 18.4088 19.2148
Pd 5.26185 30.2751 34.0287
Pd 5.74059 15.9477 24.4668
Co 7.12687 29.8932 20.5496
Pd 5.32071 34.3924 20.7777
Pd 10.919 30.2878 37.2406
Pd 6.25955 26.5304 22.1208
Co 10.9478 22.7381 13.31
Pd 6.94762 30.6497 29.3837
Pd 5.86552 23.1099 33.3336
Pd 12.6194 28.1432 24.0695
Co 12.4891 18.265 18.8835
Pd 8.38544 30.7582 37.1261
Pd 30.2572 29.0061 37.2393
Pd 9.9053 23.2659 30.0074
Co 12.8092 33.9531 26.9886
Pd 13.2804 31.9501 36.2026
Pd 12.1687 18.5792 34.6286
Pd 23.1789 31.3861 39.0123
Co 5.30934 32.3378 18.7767
Pd 4.40301 28.6352 35.9411
Pd 2.06677 26.0926 32.4773
Pd 20.8554 33.461 35.3054
Co 8.0241 21.0041 28.5649
Pd 9.04205 27.109 41.0499
Pd 11.5464 31.7415 41.3287
Pd 23.0083 35.4655 36.3825
Co 17.5962 29.4827 36.5019
Pd 21.7414 33.083 43.7936
Pd 45.2351 21.9682 35.5791
Co 20.7902 30.3448 47.1665
Pd 15.2206 25.1401 12.9922
Pd 10.505 16.9461 25.6961
Pd 10.7624 21.2504 11.2116
Pd 23.4919 17.3518 7.02056
Co 15.2089 27.036 20.7076
Pd 10.5502 28.8672 12.7908
Pd 4.98391 27.7149 17.0038
Pd 13.4521 25.5844 24.9287
Co 18.6827 25.4565 21.8765
Pd 8.88259 17.6391 16.1212
Pd 7.25344 36.4549 20.608
Pd 10.9334 38.2097 16.5835
Co 13.5296 42.7987 15.8457
Pd 7.73396 39.9249 23.8188
Pd 23.6328 41.9429 33.9598
Pd 25.7207 27.8128 23.6652
Co 6.54953 32.1899 20.9099
Pd 12.5908 35.4713 30.1838
Pd 12.1606 41.4783 36.0213
Pd 21.2864 35.9465 23.4313
Co 4.48986 24.5826 26.4244
Pd 7.95668 28.1218 29.8435
Pd 2.43959 22.3311 29.5211
Pd 20.7487 46.8756 26.3208
Co 16.4371 42.4103 34.6279
Pd 10.1213 19.2986 26.9058
Pd 11.3033 36.5893 18.7857
Pd 17.7544 28.7878 39.0009
Co 14.8829 35.7217 38.9853
Pd 19.2027 33.7703 44.2624
Pd 20.4205 35.8376 36.4831
Pd 6.86342 16.9044 29.2854
Co 19.4428 42.4983 28.8209
Pd 9.00793 30.2733 30.9948
Pd 6.44945 19.1882 27.6572
Co 16.5774 29.4473 44.4429
Pd 10.6597 30.7097 18.7951
Pd 10.9158 31.7738 27.4091
Pd 3.87275 32.2735 21.7576
Pd 10.6864 36.56 12.5176
Co 12.3804 35.5417 25.065
Pd 11.9215 19.2508 9.9746
Pd 15.3253 30.7133 8.60981
Pd 11.785 41.8715 17.8269
Co 15.2016 35.3665 11.3305
Pd 10.3844 33.4178 15.5831
Pd 11.1453 33.2777 31.1726
Pd 7.59923 40.8502 17.1723
Co 14.0998 32.9075 21.2553
Pd 11.5081 22.2635 37.0902
Pd 19.8736 28.0627 12.9134
Pd 26.8718 29.6805 27.9191
Co 8.33887 32.4675 14.4079
Pd 14.416 43.3713 28.1841
Pd 14.7239 33.4378 45.061
Pd 16.1287 39.1388 30.5997
Co 17.1296 40.8395 32.244
Pd 12.0783 37.0836 43.1021
Pd 17.224 41.6698 23.7181
Pd 10.9507 38.1703 38.7764
Co 23.2876 34.6219 42.4316
Pd 19.9097 32.7502 41.917
Pd 11.2494 41.1381 31.8177
Co 16.7189 36.7026 30.5446
Pd 19.4926 31.2505 16.6677
Pd 4.25895 22.5149 31.3944
Pd 21.0881 44.2648 23.0526
Pd 21.7466 28.2413 21.5863
Co 18.0226 43.7015 17.0658
Pd 10.7066 33.5947 25.5727
Pd 22.961 43.5439 36.1016
Pd 13.4156 34.7925 9.69917
Co 23.7304 48.2084 24.8147
Pd 8.5727 37.9595 25.5221
Pd 20.8365 30.3865 42.6732
Pd 20.5515 44.5854 20.3878
Co 9.32191 38.7351 27.8216
Pd 15.0287 44.7307 30.403
Pd 20.3303 40.9567 16.8415
Pd 15.0692 27.1772 44.5017
Co 11.4204 35.8533 34.2511
Pd 11.8065 32.623 38.3466
Pd 10.0737 35.4497 23.7484
Co 19.1528 37.1187 30.7929
Pd 21.1802 48.4067 24.191
Pd 17.5274 40.9123 29.2692
Pd 8.70688 28.138 37.4538
Pd 12.7247 36.3365 27.6432
Co 16.4782 31.9911 21.3773
Pd 19.6329 41.9465 24.834
Pd 19.4951 45.1314 28.3538
Pd 20.175 47.345 33.2883
Co 19.0234 41.0388 35.8777
Pd 14.8007 36.0177 26.1723
Pd 11.0018 33.534 10.3386
Co 23.676 39.5733 29.7399
Pd 14.573 28.681 22.4101
Pd 10.0056 43.4315 21.651
Pd 13.396 37.3467 34.3224
Co 16.8614 40.3513 39.5993
Pd 28.8911 16.9026 30.5408
Pd 24.3179 16.4888 28.0916
Co 22.373 9.66299 33.5452
Pd 27.4549 17.8757 28.0363
Pd 13.8445 18.6015 21.0965
Pd 32.3498 8.37779 31.4901
Co 20.533 8.55905 30.0316
Co 29.1413 11.2814 29.8486
Pd 10.2302 19.8377 17.4076
Pd 39.9695 24.7381 16.3861
Co 29.9486 23.5719 11.7908
Pd 15.2616 9.31067 25.6997
Pd 21.7757 15.3562 21.4065
Pd 25.5063 7.43376 22.272
Co 21.6889 11.4797 14.1583
Pd 26.9545 10.7176 13.6304
Pd 15.4136 13.9758 23.0786
Pd 4.7551 20.8834 28.9863
Co 14.1632 22.5533 32.133
Pd 20.1708 16.9305 11.9274
Pd 19.6622 13.5284 40.2078
Pd 17.4501 23.7353 30.1614
Co 24.2462 11.8558 28.3509
Co 28.5963 12.4047 20.4654
Pd 23.965 15.2036 19.85
Pd 24.1425 9.4361 14.4375
Co 24.0885 15.892 17.2806
Pd 13.4598 14.5879 11.0302
Pd 15.2418 18.2893 27.4917
Pd 24.8327 6.95518 14.9092
Co 20.3332 21.9876 30.232
Pd 11.7724 14.1127 14.016
Pd 31.4495 4.43315 30.4427
Pd 16.7909 16.2506 26.5568
Co 10.6231 13.4548 28.8209
Pd 34.2294 14.0546 8.98994
Pd 24.8909 12.5384 30.7805
Pd 13.3694 10.999 30.2065
Co 16.5345 19.4945 25.5255
Pd 15.7406 14.0066 20.2361
Pd 20.3004 17.738 26.6891
Pd 30.2852 6.86385 31.3467
Co 6.4887 22.125 27.16
Pd 17.7681 5.88278 24.2785
Pd 14.3729 7.61555 29.7392
Pd 13.5187 9.23649 27.9542
Co 30.8205 4.5513 24.0541
Co 6.63366 19.4724 30.168
Pd 14.6512 20.6955 14.5577
Pd 28.0199 30.9475 4.94607
Co 15.1013 26.3719 10.7149
Pd 28.8608 12.6022 13.8486
Pd 18.2194 9.34032 26.9565
Pd 28.2311 12.1813 11.3762
Co 22.6256 17.9799 17.0103
Pd 20.0388 4.7865 25.2621
Pd 10.3221 12.5824 33.3316
Pd 14.1096 14.5135 17.8909
Co 16.8777 9.68807 17.8458
Pd 15.8047 10.0417 20.3834
Pd 15.9131 20.999 23.4323
Pd 28.7787 17.5495 21.9308
Co 16.8369 12.9055 32.6516
Pd 7.64217 22.3875 24.8555
Pd 16.136 25.9824 28.7554
Pd 15.8081 13.7613 25.8591
Co 14.4426 15.1934 30.1805
Pd 12.6575 17.9571 32.196
Pd 4.91691 23.5742 28.7449
Pd 16.1832 10.2223 32.5827
Co 23.2119 20.4514 34.284
Pd 5.58671 18.8954 33.8639
Pd 3.29449 28.7422 33.0688
Pd 13.0543 13.1043 26.1723
Co 25.1964 30.7997 32.4608
Pd 10.8751 9.21942 27.0434
Pd 6.7589 21.6402 37.3922
Pd 26.5627 17.7309 35.1669
Co 9.42585 14.8851 26.9521
Co 14.47 32.2312 33.8743
Pd 11.8238 31.8161 21.0514
Pd 17.813 15.4978 10.7846
Co 19.196 21.4991 10.0426
Pd 19.017 21.7645 14.2913
Pd 12.6731 11.5352 15.0185
Pd 16.6926 20.8884 18.2605
Co 25.2482 26.1362 4.77545
Pd 18.6193 23.073 11.9309
Pd 31.9692 21.037 5.74479
Pd 35.3526 25.319 17.2735
Co 14.6039 21.7112 16.967
Pd 9.45143 13.4957 18.2644
Pd 29.8362 11.9055 25.0682
Pd 22.131 27.7993 25.343
Co 25.9307 16.0176 10.9118
Pd 6.69487 22.1361 22.4358
Pd 9.32427 23.4757 22.8079
Pd 15.9916 11.6832 11.9815
Co 15.1576 17.5792 24.9644
Pd 27.2104 17.0893 13.0424
Pd 17.5912 24.2759 34.9909
Pd 17.9878 18.433 17.9108
Co 21.4441 14.9668 31.0069
Pd 5.05243 17.0671 26.9426
Pd 10.0589 18.3902 36.1292
Pd 18.9179 15.8836 28.0034
Co 9.85779 31.2488 39.4129
Pd 19.4168 7.22493 28.1293
Pd 10.26 15.7273 36.9931
Pd 8.30872 21.7195 39.4889
Co 15.0598 25.4094 38.4673
Pd 17.9382 17.5037 30.7116
Pd 20.9512 26.3093 31.4052
Pd 16.3788 15.0581 36.4655
Co 16.0767 18.8448 29.7489
Pd 12.4245 29.0328 41.4182
Pd 13.5378 37.9125 38.9465
Pd 16.9853 34.183 38.0585
Co 16.8949 19.6392 41.4277
Co 21.0881 35.4204 45.173
Pd 31.562 24.6167 9.76146
Pd 25.6724 40.3668 9.33547
Co 37.7847 25.9141 10.1941
Pd 12.9583 32.5172 11.8057
Pd 24.2521 17.2985 9.5619
Pd 20.1936 7.53844 15.8505
Co 21.429 20.6645 9.84918
Pd 17.5876 17.9962 11.8988
Pd 13.8815 20.3843 18.9775
Pd 22.1666 24.0819 22.7514
Co 9.43557 24.1729 11.9383
Pd 22.6991 7.09552 16.6362
Pd 13.1753 37.1174 11.1785
Pd 19.3773 16.0935 20.0085
Co 20.2297 19.1224 5.82686
Pd 13.8092 12.7924 12.8667
Pd 12.8894 18.0432 14.4229
Pd 17.7117 31.4627 27.8481
Co 8.61359 21.8676 17.6829
Pd 17.6173 11.9753 20.7631
Pd 22.0384 12.1183 22.5859
Pd 17.0445 30.2854 30.29
Co 27.1298 24.0868 21.7275
Pd 16.9143 34.7185 24.8288
Pd 25.1708 21.4865 38.1275
Pd 24.6455 20.2138 21.722
Co 21.1696 27.3413 35.0008
Pd 27.9259 31.1182 36.0168
Pd 4.65263 20.4363 22.8874
Pd 9.86752 24.4496 41.507
Co 17.5214 26.9147 26.598
Pd 12.9137 38.9238 36.4308
Pd 16.2071 27.0163 40.1644
Pd 13.3379 21.6491 24.0672
Co 10.5295 27.482 27.9136
Pd 9.20178 32.3408 29.345
Pd 10.5798 14.9926 32.4463
Pd 6.12994 29.1236 38.13
Co 15.3706 34.9254 31.4306
Pd 6.105 24.4181 30.8608
Pd 15.9061 35.6195 36.2004
Pd 15.1708 28.2756 30.0278
Co 30.0071 21.1987 40.0499
Pd 13.8382 22.6687 44.3508
Pd 8.64607 25.5292 36.9807
Pd 15.8686 14.5467 41.4452
Co 16.4679 17.2027 41.5838
Co 12.5633 30.3888 39.2649
Pd 26.1601 24.1066 3.16803
Pd 20.4321 40.4888 14.1297
Pd 20.8061 28.1714 4.01112
Co 29.5518 24.428 14.011
Pd 18.6144 23.8179 9.31449
Pd 17.3669 19.6427 9.83457
Pd 13.1084 16.9344 9.86187
Co 16.6192 17.3582 9.23735
Pd 17.5583 27.4214 14.5856
Pd 14.1436 17.3113 17.1759
Pd 3.66919 26.0034 18.5017
Co 12.7925 25.9321 10.5068
Pd 8.57329 29.084 18.523
Pd 6.7309 39.0209 21.4769
Pd 11.7193 15.6706 18.4602
Co 7.04986 24.5214 23.6337
Pd 13.6289 25.5345 27.9597
Pd 18.8472 30.6352 25.3382
Pd 22.9241 20.9222 26.5147
Co 28.1566 14.185 18.8361
Pd 11.4051 17.5957 16.6791
Pd 4.57496 25.4831 32.5762
Pd 4.86035 37.1239 21.489
Co 16.5195 28.8868 34.3214
Pd 24.64 32.6157 43.6552
Pd 9.29934 35.0585 35.7284
Pd 18.8733 35.0652 46.502
Co 14.4217 32.1397 27.2237
Pd 1.76051 23.426 31.9841
Pd 10.5342 28.0059 30.3963
Pd 5.6636 17.3687 31.6319
Co 10.65 22.1571 32.4677
Pd 20.0103 34.8847 30.2546
Pd 21.3428 29.8215 35.586
Pd 19.9657 31.3014 44.9883
Co 15.5736 25.4851 36.1631
Pd 15.462 37.4324 28.4475
Pd 28.752 31.2968 47.0825
Pd 17.2445 31.4744 38.1454
Co 17.27 35.9763 39.8239
Pd 12.9896 32.0819 43.5124
Pd 19.0379 23.1117 44.855
Pd 10.2329 25.9518 39.0511
Co 27.5494 43.2344 36.2983
Pd 10.0441 23.3953 35.0187
Pd 23.8417 27.2855 45.587
Pd 12.848 21.0759 42.2322
Co 24.9379 37.0396 45.2765
Pd 25.3269 20.4771 47.3694
Co 21.0287 24.3995 43.6191
Pd 17.2591 39.0523 10.6251
Pd 30.2562 38.6969 10.3966
Pd 5.60867 34.3762 17.2096
Pd 19.4423 22.7373 4.38609
Co 17.8828 34.7869 13.3698
Pd 17.6589 31.309 19.1218
Pd 26.2338 17.9333 6.96847
Pd 9.34687 39.2574 21.6479
Co 17.256 31.2083 10.7381
Pd 3.45734 28.6526 19.0244
Pd 6.36439 26.8751 15.001
Pd 26.1316 30.0263 22.3715
Co 7.07424 31.0459 24.7274
Pd 11.0741 29.4645 25.9348
Pd 12.8566 27.2398 17.2291
Pd 7.03492 33.8411 12.36
Co 8.04295 33.8271 16.6664
Pd 7.40152 14.3044 19.9294
Pd 14.2236 40.9093 17.4929
Pd 10.61 29.1228 16.2717
Co 5.75634 25.2527 19.6411
Pd 23.6152 37.8291 19.9054
Pd 13.0312 35.0153 12.6304
Pd 8.13943 38.3325 16.8408
Co 19.4911 29.7214 20.0465
Pd 24.2512 23.8253 36.8844
Pd 28.8386 35.8452 31.8462
Pd 8.11868 29.387 39.7197
Co 27.6767 34.9683 38.1517
Pd 6.85875 33.6215 29.865
Pd 14.1997 43.3966 35.2295
Pd 15.0222 35.1652 20.8674
Co 13.0159 38.3637 29.1597
Pd 23.5138 34.5725 45.0652
Pd 19.2803 38.2126 26.4192
Pd 29.4272 22.8038 45.0813
Co 21.2518 34.523 40.5504
Pd 18.874 47.7721 27.9403
Pd 10.687 28.5807 39.424
Pd 13.7331 23.6806 36.9051
Co 24.9988 36.6192 42.657
Pd 31.4398 23.7166 49.0176
Pd 34.7242 27.617 46.8409
Co 14.5148 27.4361 41.9577
Pd 18.7743 24.1083 15.988
Pd 6.43695 38.4728 18.8794
Pd 11.1108 40.9924 13.0462
Pd 3.03315 30.0662 30.5671
Co 15.2984 28.5995 18.933
Pd 2.43799 31.4324 26.4297
Pd 10.7796 34.2625 21.1812
Pd 6.47233 25.8682 28.7413
Co 6.20616 35.6085 22.9837
Pd 7.63675 29.2432 32.9757
Pd 11.3604 30.5291 23.3156
Pd 11.3544 20.2762 20.0163
Co 22.6023 23.9042 20.0924
Pd 3.78845 26.1801 28.3238
Pd 21.059 46.9036 21.9731
Pd 15.8282 28.0766 16.5535
Co 6.93443 28.4111 13.1116
Pd 10.6236 36.9455 29.0341
Pd 27.2054 33.4021 47.7281
Pd 16.5475 33.9438 27.2953
Co 25.0273 34.685 35.1227
Pd 23.6967 38.6863 26.2454
Pd 11.3244 38.0711 26.2589
Pd 14.4813 40.331 40.5769
Co 15.5781 36.5326 33.2345
Pd 27.6614 41.9383 40.2509
Pd 10.0215 44.6879 28.3044
Pd 19.9877 35.4792 33.7107
Co 23.188 41.0104 36.3127
Pd 22.2901 43.3775 41.1355
Pd 13.639 41.4337 26.56
Pd 21.09 32.4693 29.334
Co 18.3402 33.2696 39.9524
Pd 24.2322 37.4545 38.5587
Pd 13.7082 36.1584 41.208
Co 19.5233 26.2568 43.1068
Pd 12.1897 45.3323 21.6529
Pd 13.6272 42.4064 13.238
Pd 13.9867 39.5088 10.4691
Pd 4.86939 31.2415 25.6915
Co 7.71569 31.5251 18.642
Pd 15.2173 33.545 13.1071
Pd 11.1102 36.1579 9.95431
Pd 12.6602 33.5735 23.2873
Co 12.5061 39.2437 18.3616
Pd 9.80437 40.1883 25.382
Pd 17.6712 41.6365 10.8038
Pd 19.3942 42.5759 12.9125
Co 17.9148 37.7237 12.9121
Pd 30.3911 20.4775 46.3833
Pd 18.319 45.8651 18.4202
Pd 14.35 32.7846 16.6986
Co 13.2865 41.6254 19.8654
Pd 22.5664 38.2846 36.6798
Pd 24.1206 33.0276 25.4621
Pd 18.8957 38.8796 21.584
Co 15.0014 38.4591 17.9052
Pd 15.568 31.5622 43.1557
Pd 25.6632 46.6862 29.6779
Pd 21.8861 37.0079 34.5567
Co 24.2456 37.6545 31.1801
Pd 12.1187 45.8446 27.089
Pd 17.0683 46.132 29.0257
Co 21.0277 40.3644 37.0143
Pd 14.9956 41.8226 22.0267
Pd 15.0605 40.2182 24.5852
Pd 14.7817 46.4414 22.5132
Pd 22.7802 36.7293 41.1781
Co 14.4294 33.6799 25.3296
Pd 22.6014 39.6459 18.0405
Pd 21.1304 41.9985 34.7611
Pd 25.9195 43.18 24.9351
Co 19.6069 35.3209 11.7792
Pd 23.5648 28.5579 9.17002
Pd 17.4031 32.122 13.6471
Pd 23.6343 29.7046 34.1061
Co 19.5159 35.1584 38.9214
Pd 24.2881 44.8421 38.3067
Pd 12.835 32.6968 29.1559
Pd 16.7981 41.5719 37.074
Co 13.921 39.0637 15.7591
Pd 21.384 38.5478 30.5617
Pd 21.6035 40.7883 32.3005
Co 21.1608 43.8557 29.9328
Pd 9.96854 40.1138 17.9734
Pd 29.7934 39.8021 29.9373
Pd 24.5374 38.677 40.8604
Pd 29.4415 44.0855 22.2622
Co 17.2989 35.3007 17.4783
Pd 25.0373 45.3476 19.578
Pd 25.4276 44.0061 34.6757
Pd 19.3988 35.4704 26.2162
Co 14.0873 42.2059 37.4588
Pd 15.5837 43.3307 24.6752
Pd 34.5548 39.9773 25.4839
Co 21.9107 45.2854 37.5202
Pd 18.9752 45.0633 33.0349
Pd 37.2582 44.1847 31.2547
Pd 21.3752 34.6946 27.8561
Pd 37.0638 7.8738 24.3118
Pd 18.1253 7.32958 17.6023
Co 36.1375 12.0113 27.3107
Pd 27.9144 18.3287 15.4849
Pd 18.8625 6.65414 30.8537
Pd 26.9185 25.1557 29.5449
Co 19.0372 22.5763 17.8659
Pd 26.6984 10.657 20.5959
Pd 32.8256 10.4085 11.3351
Pd 8.39525 15.5123 24.772
Co 24.1999 7.16181 26.6631
Pd 25.3172 6.17767 19.9571
Pd 23.4452 9.41557 27.5004
Pd 24.7854 3.08498 27.2715
Co 22.9372 6.65606 19.3153
Co 20.2907 5.41365 32.6167
Pd 27.536 9.77476 10.9764
Pd 22.7684 26.0538 5.1402
Co 39.7315 15.5035 13.5223
Pd 30.1723 14.779 12.5937
Pd 21.5086 11.4079 18.0727
Pd 22.6047 17.5812 30.2828
Co 21.8321 9.52791 15.9041
Pd 20.5864 8.35809 20.3977
Pd 12.1073 10.9105 17.9216
Pd 29.0799 18.6975 24.3461
Co 37.0717 12.8857 29.5527
Pd 20.2805 17.1438 31.8493
Pd 21.8997 16.2522 18.8072
Pd 28.8481 4.76401 30.1312
Co 22.5206 18.3009 27.7862
Pd 13.6201 21.2888 35.422
Pd 27.302 7.92843 38.8405
Pd 28.0658 7.75508 22.9125
Co 15.2056 13.5702 34.6686
Pd 19.195 7.82111 36.5114
Pd 14.3955 15.5887 27.5741
Pd 14.3114 16.3082 40.3476
Co 11.068 9.1583 24.3749
Co 27.6578 9.46223 29.1998
Pd 37.6769 13.8431 13.4921
Pd 19.8098 4.91219 22.6879
Co 34.428 17.9587 15.4367
Pd 24.1991 11.8441 13.7779
Pd 12.6515 24.7765 13.5817
Pd 11.7355 27.2951 14.7187
Co 28.4932 20.9899 15.4198
Pd 22.1392 7.41255 28.4875
Pd 23.7654 12.9056 7.99548
Pd 23.7326 17.4722 12.6376
Co 20.619 6.83374 18.3689
Pd 20.7153 19.8556 25.2009
Pd 32.9886 10.1888 15.8888
Pd 27.3928 5.6274 21.3126
Co 22.5243 24.4217 9.25489
Pd 33.4125 10.4136 33.0161
Pd 20.6453 14.3745 23.582
Pd 26.1004 8.07426 31.4315
Co 12.869 28.7062 31.3403
Pd 29.0933 19.6485 29.6557
Pd 27.4771 9.22937 36.4251
Pd 2.42265 19.7549 29.3885
Co 39.6174 7.31766 29.5745
Pd 4.58731 18.4231 24.6823
Pd 5.37593 27.0897 26.4991
Pd 29.3098 12.0707 40.2267
Co 18.0313 10.1569 36.652
Pd 18.9841 23.0231 36.8006
Pd 26.7953 15.5709 26.5693
Pd 25.6866 19.6638 33.4313
Co 15.5064 30.1523 28.1637
Co 25.444 9.50643 38.0576
Pd 11.9752 24.5376 8.50534
Pd 25.8931 21.2686 14.5563
Co 30.7662 19.6229 12.4277
Pd 36.9525 16.1304 14.626
Pd 20.2501 15.4672 9.41577
Pd 26.3347 13.2496 14.5056
Co 16.2765 13.7491 16.991
Pd 24.9885 17.3429 4.83846
Pd 35.6069 16.403 9.03017
Pd 42.8862 20.6708 11.0868
Co 23.6767 16.6104 15.0033
Pd 11.8494 21.5396 26.5578
Pd 28.7108 15.3537 14.6447
Pd 30.7885 15.8269 21.3186
Co 28.1864 25.4239 12.2058
Pd 28.1219 6.65786 36.5843
Pd 12.4274 17.0654 23.6762
Pd 14.7925 11.518 27.5326
Co 16.7027 24.4932 11.1159
Pd 20.0195 13.536 20.8583
Pd 19.0206 16.3898 43.8677
Pd 20.7048 20.2139 28.0956
Co 28.5488 12.8584 34.637
Pd 23.8488 5.26485 30.6967
Pd 18.5889 11.3861 33.5233
Pd 27.291 15.0174 34.3955
Co 16.3675 17.3436 35.4353
Pd 18.3298 15.5237 41.4779
Pd 21.8815 26.3575 37.5354
Pd 9.58629 17.1631 33.7403
Co 16.0114 8.89745 28.042
Pd 24.4259 12.4077 44.1462
Pd 12.02 19.7719 37.0966
Pd 7.55163 33.7616 33.8068
Co 23.0661 27.0992 33.371
Pd 30.838 13.3072 36.1611
Pd 12.3445 21.6634 30.5659
Pd 12.22 13.1392 31.3334
Co 15.5949 10.0574 36.7563
Co 16.8302 19.4372 32.0254
Pd 8.57133 27.1178 11.6253
Pd 24.993 23.6937 9.59064
Co 19.5005 19.7733 8.2784
Pd 25.2963 23.242 12.6916
Pd 27.5397 30.07 11.7472
Pd 23.1002 21.3396 5.98951
Co 13.8136 31.0641 6.73563
Pd 30.86 31.789 8.40659
Pd 14.6061 17.3608 7.72438
Pd 15.8145 24.8244 6.0935
Co 23.1657 21.8542 8.5438
Pd 21.9588 15.1044 13.7289
Pd 27.3898 16.5291 23.9012
Pd 9.18639 24.6574 25.1437
Co 10.8806 28.0492 18.8023
Pd 16.7055 13.4337 14.2803
Pd 13.3813 14.4121 21.2464
Pd 29.5091 18.8204 32.1931
Co 18.3138 20.9208 21.9348
Pd 17.8946 14.1925 22.1615
Pd 20.6844 19.0206 37.9294
Pd 23.551 25.2757 18.1804
Co 7.27632 25.2901 32.9892
Pd 8.76943 20.1543 19.5211
Pd 22.3629 26.6611 27.6128
Pd 35.3241 5.72117 28.7533
Co 25.3897 20.9322 30.5016
Pd 24.8939 26.9153 40.5455
Pd 25.1416 24.2569 34.4084
Pd 13.5691 39.8863 31.1541
Co 24.7911 12.0146 23.8561
Pd 24.1256 21.9188 19.6608
Pd 38.5608 21.1424 36.0547
Pd 13.1433 25.6223 34.8118
Co 28.3953 14.569 44.907
Pd 18.4651 8.9304 32.2731
Pd 10.3624 21.7185 41.2043
Pd 12.1594 23.3155 28.5369
Co 11.0314 20.9703 34.8339
Pd 11.5133 19.2451 30.2752
Pd 26.0498 15.2791 40.9238
Pd 9.23705 15.6872 29.3244
Co 12.5726 24.9077 38.9213
Pd 16.7724 10.5551 38.9549
Pd 29.6472 21.9427 42.4364
Pd 17 18.4237 43.7059
Co 22.627 22.3705 44.5335
Co 29.8371 17.0266 41.4311
Pd 13.3637 19.8352 7.74602
Pd 39.231 28.6372 21.7605
Pd 36.7156 28.5591 9.94602
Co 22.4831 40.2406 15.5495
Pd 16.5313 16.1181 18.0351
Pd 19.2788 16.12 17.3691
Pd 15.2816 26.1126 18.2529
Co 28.2688 18.8837 11.0399
Pd 20.6085 13.9625 18.3288
Pd 12.2047 21.9348 8.93055
Pd 11.9445 31.4665 16.5302
Co 20.263 23.8877 13.7085
Pd 32.6232 19.1941 10.7526
Pd 19.7437 35.7788 17.1179
Pd 25.2279 17.9735 23.2658
Co 9.47929 20.7162 13.3129
Pd 23.268 26.5636 23.2418
Pd 10.0522 21.3205 24.5658
Pd 10.1177 24.8316 14.464
Co 15.1203 22.5618 19.452
Pd 21.092 10.9974 39.7239
Pd 11.8447 15.165 27.2961
Pd 24.6414 21.9538 28.337
Co 25.4088 32.644 23.1525
Pd 11.4066 22.0563 22.2582
Pd 14.3283 29.8204 25.3617
Pd 30.174 17.0959 15.9969
Co 20.207 37.9662 32.8614
Pd 16.2676 31.8589 25.5846
Pd 27.9977 35.5809 25.0761
Pd 20.7736 33.398 32.2398
Co 18.2808 24.9817 27.968
Pd 28.6967 15.3853 28.3977
Pd 36.5868 32.3455 36.2253
Pd 23.247 14.0535 27.5156
Co 30.9477 15.5456 29.9017
Pd 18.0248 17.441 33.3728
Pd 25.7635 31.1989 38.0571
Pd 9.2284 33.3693 37.9937
Co 16.8113 21.0373 38.9641
Pd 9.93851 24.6808 32.7007
Pd 11.2797 24.8539 36.8058
Pd 19.7064 30.4043 37.9493
Co 10.5958 23.3019 39.2119