4033
Atoms. Timestep: 20159
Co 5.47784 13.0175 26.2225
Pd 3.55036 16.7315 24.3496
Pd 5.34148 14.8009 24.2802
Co 5.36524 16.7467 22.4425
Pd 3.62524 14.8613 26.2229
Pd 3.55067 16.731 28.0967
Pd 5.34181 14.8004 28.1653
Co 5.37754 16.7114 26.223
Co 5.36588 16.7457 30.0035
Pd 3.5245 20.5392 20.5388
Pd 5.29567 18.5995 20.4963
Co 5.35585 20.5489 18.6416
Pd 3.53048 18.637 22.4426
Pd 3.43902 20.5103 24.3181
Pd 5.34464 18.637 24.3439
Co 5.32445 20.5173 22.4188
Pd 3.45737 18.6065 26.2234
Pd 3.43935 20.5098 28.1291
Pd 5.34496 18.6365 28.1026
Co 5.29858 20.5277 26.2235
Pd 3.53112 18.636 30.0041
Pd 3.52547 20.5377 31.9085
Pd 5.29664 18.598 31.9502
Co 5.32509 20.5163 30.0281
Co 5.35713 20.5469 33.8054
Pd 3.55097 24.3475 16.7336
Pd 5.3132 22.4056 16.6918
Co 5.40692 24.3504 14.8408
Pd 3.53313 22.4451 18.6302
Pd 3.44213 24.3211 20.5065
Pd 5.33265 22.4402 20.5387
Co 5.34296 24.3172 18.6182
Pd 3.43332 22.4153 22.413
Pd 3.41458 24.3184 24.3183
Pd 5.28823 22.4193 24.3182
Co 5.28541 24.3276 22.4232
Pd 3.42148 22.4143 26.2239
Pd 3.4149 24.3179 28.13
Pd 5.28855 22.4188 28.1293
Co 5.27048 24.3201 26.224
Pd 3.43397 22.4143 30.0348
Pd 3.4431 24.3196 31.9418
Pd 5.33361 22.4387 31.9088
Co 5.28605 24.3266 30.0247
Pd 3.53441 22.4431 33.8176
Pd 3.55257 24.3451 35.7146
Pd 5.31482 22.4031 35.7556
Co 5.34425 24.3152 33.8298
Co 5.40884 24.3474 37.6072
Pd 5.3953 26.2251 12.9664
Pd 3.62115 26.2251 14.862
Pd 3.5513 28.1021 16.7341
Pd 5.3949 26.2247 16.7508
Co 5.40725 28.0994 14.8413
Pd 3.46375 26.2246 18.6035
Pd 3.44247 28.1276 20.507
Pd 5.30503 26.2242 20.5138
Co 5.3433 28.1316 18.6187
Pd 3.42273 26.2241 22.4108
Pd 3.41492 28.1293 24.3188
Pd 5.27471 26.2237 24.3244
Co 5.28575 28.1202 22.4237
Pd 3.40771 26.2236 26.2244
Pd 3.41524 28.1288 28.1305
Pd 5.27503 26.2232 28.1241
Co 5.27082 28.1268 26.2245
Pd 3.42338 26.2231 30.038
Pd 3.44344 28.1261 31.9423
Pd 5.30599 26.2227 31.9346
Co 5.28639 28.1193 30.0252
Pd 3.46504 26.2226 33.8452
Pd 3.55291 28.0996 35.7151
Pd 5.39651 26.2222 35.6976
Co 5.34459 28.1296 33.8303
Pd 3.62308 26.2221 37.5867
Pd 5.39754 26.2217 39.4821
Co 5.40918 28.0964 37.6077
Pd 5.31389 30.0437 16.6928
Pd 3.5338 30.0041 18.6312
Pd 3.52552 31.9094 20.5402
Pd 5.33333 30.0081 20.5397
Co 5.35687 31.8999 18.643
Pd 3.43401 30.0329 22.414
Pd 3.44005 31.9374 24.3196
Pd 5.28891 30.028 24.3192
Co 5.32547 31.9305 22.4203
Pd 3.42217 30.0329 26.2249
Pd 3.44037 31.9369 28.1306
Pd 5.28923 30.0275 28.1303
Co 5.2996 31.9192 26.225
Pd 3.43465 30.0319 30.0358
Pd 3.52648 31.908 31.91
Pd 5.33429 30.0066 31.9098
Co 5.32611 31.9295 30.0296
Pd 3.53509 30.0021 33.8186
Pd 5.3155 30.0412 35.7566
Co 5.35815 31.8979 33.8069
Pd 5.29704 33.8488 20.4983
Pd 3.53184 33.8111 22.4446
Pd 3.55206 35.7162 24.3521
Pd 5.346 33.8103 24.3459
Co 5.36694 35.7011 22.4449
Pd 3.45874 33.8407 26.2254
Pd 3.55238 35.7157 28.0992
Pd 5.34632 33.8098 28.1046
Co 5.37925 35.7354 26.2255
Pd 3.53248 33.8101 30.0061
Pd 5.29801 33.8473 31.9522
Co 5.36758 35.7001 30.006
Pd 5.34353 37.6464 24.2832
Pd 3.62727 37.5859 26.2259
Pd 5.34386 37.6459 28.1682
Co 5.48021 39.4293 26.2259
Co 9.23237 9.23519 26.2217
Pd 7.22922 12.8799 24.2967
Pd 9.09188 11.0021 24.2983
Co 9.12899 12.92 22.4168
Pd 7.28771 11.0665 26.2221
Pd 7.22955 12.8794 28.1479
Pd 9.09221 11.0016 28.1456
Co 9.09518 12.8831 26.2222
Co 9.12963 12.919 30.0276
Pd 7.19172 16.6753 20.4869
Pd 9.06491 14.7779 20.4704
Co 9.11034 16.7179 18.6115
Pd 7.21105 14.7898 22.3661
Pd 7.21306 16.6871 24.2971
Pd 9.08666 14.7802 24.293
Co 9.07483 16.6684 22.3678
Pd 7.23463 14.8093 26.2226
Pd 7.21339 16.6865 28.1486
Pd 9.08699 14.7797 28.1518
Co 9.10569 16.6888 26.2227
Pd 7.21171 14.7888 30.0791
Pd 7.19269 16.6738 31.9588
Pd 9.06588 14.7764 31.9744
Co 9.07548 16.6674 30.0775
Co 9.11163 16.7159 33.8338
Pd 7.19471 20.478 16.6849
Pd 9.05916 18.5806 16.6724
Co 9.12114 20.521 14.8083
Pd 7.1887 18.5947 18.5703
Pd 7.19205 20.49 20.4979
Pd 9.07205 18.5808 20.4792
Co 9.06913 20.4692 18.5682
Pd 7.19627 18.599 22.3884
Pd 7.21217 20.518 24.3181
Pd 9.09883 18.5904 24.2962
Co 9.0965 20.4977 22.4003
Pd 7.2342 18.6043 26.2231
Pd 7.21249 20.5175 28.1286
Pd 9.09916 18.5899 28.1497
Co 9.10893 20.5055 26.2232
Pd 7.19692 18.598 30.0577
Pd 7.19302 20.4885 31.9487
Pd 9.07302 18.5793 31.9667
Co 9.09715 20.4967 30.046
Pd 7.18999 18.5927 33.8759
Pd 7.19632 20.4756 35.7617
Pd 9.06077 18.5781 35.7734
Co 9.07043 20.4672 33.8781
Co 9.12308 20.518 37.6381
Pd 7.23456 24.301 12.8883
Pd 9.08421 22.3942 12.8708
Co 9.16651 24.3546 11.0299
Pd 7.21203 22.3969 14.7634
Pd 7.22805 24.2888 16.6965
Pd 9.08426 22.3786 16.6789
Co 9.09406 24.2803 14.7697
Pd 7.20009 22.3979 18.5888
Pd 7.21433 24.3212 20.5151
Pd 9.09338 22.3952 20.4953
Co 9.10767 24.304 18.5973
Pd 7.20729 22.4156 22.4205
Pd 7.18498 24.3221 24.3224
Pd 9.10498 22.4169 24.3222
Co 9.10505 24.316 22.416
Pd 7.18948 22.4207 26.2236
Pd 7.18531 24.3216 28.1252
Pd 9.1053 22.4164 28.1246
Co 9.09936 24.3208 26.2237
Pd 7.20793 22.4146 30.0266
Pd 7.2153 24.3197 31.9325
Pd 9.09435 22.3937 31.9515
Co 9.1057 24.315 30.0314
Pd 7.20138 22.3959 33.8584
Pd 7.22966 24.2863 35.7511
Pd 9.08587 22.3761 35.7679
Co 9.10896 24.302 33.8501
Pd 7.21397 22.3939 37.6837
Pd 7.23682 24.2975 39.5594
Pd 9.08647 22.3907 39.576
Co 9.09599 24.2773 37.6776
Co 9.16908 24.3507 41.4174
Pd 9.17411 26.2253 9.16863
Pd 7.31887 26.2252 11.0282
Pd 7.23491 28.149 12.8888
Pd 9.12017 26.2248 12.9078
Co 9.16685 28.0955 11.0304
Pd 7.25373 26.2247 14.7928
Pd 7.22839 28.1602 16.697
Pd 9.10822 26.2243 16.6892
Co 9.0944 28.1688 14.7702
Pd 7.23862 26.2242 18.6185
Pd 7.21467 28.1268 20.5156
Pd 9.11479 26.2238 20.5184
Co 9.10802 28.1442 18.5978
Pd 7.19088 26.2238 22.4212
Pd 7.18533 28.1249 24.3229
Pd 9.09891 26.2233 24.3206
Co 9.10539 28.1312 22.4165
Pd 7.18013 26.2233 26.2241
Pd 7.18565 28.1244 28.1257
Pd 9.09923 26.2228 28.1272
Co 9.0997 28.1254 26.2242
Pd 7.19152 26.2228 30.0269
Pd 7.21564 28.1253 31.933
Pd 9.11576 26.2223 31.9294
Co 9.10604 28.1302 30.0318
Pd 7.23991 26.2223 33.8297
Pd 7.23001 28.1577 35.7516
Pd 9.10984 26.2218 35.7586
Co 9.10931 28.1422 33.8506
Pd 7.25566 26.2218 37.6553
Pd 7.23716 28.1455 39.5599
Pd 9.12243 26.2213 39.54
Co 9.09634 28.1659 37.6782
Pd 7.32144 26.2213 41.4199
Pd 9.177 26.2208 43.2792
Co 9.16942 28.0915 41.4179
Pd 9.0849 30.0555 12.8718
Pd 7.21272 30.0526 14.7644
Pd 7.19574 31.971 16.6864
Pd 9.08495 30.07 16.6799
Co 9.12217 31.9282 14.8098
Pd 7.20077 30.0506 18.5898
Pd 7.19308 31.958 20.4994
Pd 9.09407 30.0525 20.4963
Co 9.07016 31.979 18.5697
Pd 7.20797 30.0319 22.4215
Pd 7.21319 31.929 24.3195
Pd 9.10567 30.0297 24.3232
Co 9.09753 31.9494 22.4018
Pd 7.19016 30.0258 26.2246
Pd 7.21352 31.9285 28.1301
Pd 9.10599 30.0292 28.1256
Co 9.10996 31.9407 26.2247
Pd 7.20862 30.0309 30.0276
Pd 7.19405 31.9565 31.9502
Pd 9.09504 30.051 31.9525
Co 9.09817 31.9484 30.0475
Pd 7.20206 30.0486 33.8594
Pd 7.19735 31.9685 35.7632
Pd 9.08656 30.0675 35.7689
Co 9.07146 31.977 33.8796
Pd 7.21466 30.0496 37.6847
Pd 9.08716 30.052 39.577
Co 9.1241 31.9252 37.6396
Pd 9.06053 33.8681 16.6744
Pd 7.19007 33.8539 18.5723
Pd 7.19343 35.7727 20.4894
Pd 9.07342 33.8669 20.4812
Co 9.11204 35.7302 18.614
Pd 7.19764 33.8485 22.3904
Pd 7.21477 35.76 24.2995
Pd 9.1002 33.8563 24.2982
Co 9.07654 35.7788 22.3703
Pd 7.23556 33.8422 26.2251
Pd 7.2151 35.7595 28.1511
Pd 9.10053 33.8558 28.1517
Co 9.1074 35.7574 26.2252
Pd 7.19829 33.8475 30.0597
Pd 7.1944 35.7712 31.9613
Pd 9.07439 33.8654 31.9687
Co 9.07719 35.7778 30.08
Pd 7.19136 33.8519 33.8779
Pd 9.06215 33.8656 35.7754
Co 9.11333 35.7283 33.8363
Pd 9.06696 37.6698 20.4734
Pd 7.21311 37.6577 22.3691
Pd 7.23161 39.5671 24.3002
Pd 9.08872 37.6665 24.296
Co 9.13138 39.5272 22.4203
Pd 7.23668 37.6372 26.2256
Pd 7.23194 39.5666 28.1514
Pd 9.08904 37.666 28.1548
Co 9.09758 39.5631 26.2257
Pd 7.21376 37.6567 30.0821
Pd 9.06793 37.6683 31.9774
Co 9.13202 39.5262 30.031
Pd 9.09461 41.4445 24.3023
Pd 7.29042 41.38 26.226
Pd 9.09494 41.444 28.1495
Co 9.23542 43.2109 26.2261
Co 13.014 5.47998 26.2209
Pd 10.9989 9.0948 24.2979
Pd 12.8763 7.2318 24.2955
Co 12.9163 9.13197 22.416
Pd 11.0634 7.2902 26.2213
Pd 10.9992 9.09429 28.1452
Pd 12.8766 7.2313 28.1467
Co 12.8802 9.09735 26.2214
Co 12.917 9.13097 30.0267
Pd 10.9709 12.8575 20.4703
Pd 12.8538 10.9743 20.4699
Co 12.9005 12.9043 18.6013
Pd 10.9829 10.9862 22.3655
Pd 10.9808 12.8726 24.2917
Pd 12.8697 10.9834 24.2913
Co 12.8556 12.8586 22.3619
Pd 11.0101 11.0126 26.2218
Pd 10.9811 12.8721 28.1523
Pd 12.87 10.9829 28.1519
Co 12.8826 12.8848 26.2218
Pd 10.9835 10.9852 30.0781
Pd 10.9719 12.856 31.9738
Pd 12.8547 10.9728 31.9733
Co 12.8562 12.8575 30.0818
Co 12.9017 12.9023 33.8424
Pd 10.964 16.6561 16.6662
Pd 12.8444 14.7652 16.6609
Co 12.8979 16.7043 14.7977
Pd 10.967 14.7717 18.5504
Pd 10.9689 16.6619 20.4686
Pd 12.8544 14.7631 20.4642
Co 12.8475 16.65 18.5496
Pd 10.9744 14.772 22.3674
Pd 10.9811 16.6748 24.2968
Pd 12.8714 14.771 24.2951
Co 12.8735 16.6719 22.3853
Pd 10.9791 14.7716 26.2223
Pd 10.9814 16.6743 28.1482
Pd 12.8718 14.7705 28.1491
Co 12.8756 16.6728 26.2223
Pd 10.975 14.7709 30.0771
Pd 10.9699 16.6604 31.9764
Pd 12.8553 14.7616 31.98
Co 12.8741 16.6709 30.0594
Pd 10.9683 14.7697 33.8942
Pd 10.9656 16.6537 35.7789
Pd 12.846 14.7627 35.7833
Co 12.8488 16.648 33.8951
Co 12.8998 16.7013 37.647
Pd 10.9784 20.4655 12.866
Pd 12.8516 18.5721 12.8608
Co 12.9152 20.5188 11.0037
Pd 10.9684 18.5754 14.7488
Pd 10.9727 20.4632 16.6687
Pd 12.8528 18.5618 16.6615
Co 12.853 20.455 14.7523
Pd 10.9675 18.57 18.5609
Pd 10.979 20.481 20.4821
Pd 12.8699 18.5693 20.4746
Co 12.8738 20.4767 18.5775
Pd 10.9808 18.5758 22.3858
Pd 10.9946 20.4927 24.3085
Pd 12.8806 18.5795 24.3061
Co 12.8829 20.4837 22.3949
Pd 10.989 18.5834 26.2228
Pd 10.9949 20.4922 28.1375
Pd 12.8809 18.579 28.1391
Co 12.89 20.4881 26.2228
Pd 10.9815 18.5748 30.0597
Pd 10.98 20.4795 31.9639
Pd 12.8708 18.5678 31.9706
Co 12.8835 20.4827 30.0508
Pd 10.9688 18.568 33.8846
Pd 10.9743 20.4607 35.7773
Pd 12.8544 18.5593 35.7837
Co 12.875 20.4747 33.8682
Pd 10.9704 18.5724 37.6967
Pd 10.9807 20.462 39.58
Pd 12.8538 18.5686 39.5844
Co 12.855 20.452 37.6933
Co 12.9178 20.5148 41.442
Pd 11.022 24.3039 9.09156
Pd 12.8816 22.3964 9.07613
Co 12.9692 24.355 7.24538
Pd 10.9943 22.3968 10.9565
Pd 10.9978 24.2887 12.8821
Pd 12.8671 22.3756 12.8708
Co 12.881 24.2797 10.9736
Pd 10.9796 22.3776 14.763
Pd 10.9848 24.298 16.6778
Pd 12.8724 22.3807 16.674
Co 12.8816 24.3003 14.7821
Pd 10.9819 22.3843 18.5817
Pd 10.9977 24.306 20.4976
Pd 12.8843 22.3918 20.4917
Co 12.8823 24.3031 18.5861
Pd 10.9944 22.399 22.4027
Pd 11.0054 24.3149 24.3162
Pd 12.8954 22.3989 24.3106
Co 12.8962 24.3088 22.404
Pd 11.0057 22.4044 26.2233
Pd 11.0057 24.3144 28.1308
Pd 12.8958 22.3984 28.1356
Co 12.9029 24.311 26.2233
Pd 10.995 22.398 30.0438
Pd 10.9987 24.3045 31.9494
Pd 12.8853 22.3903 31.9545
Co 12.8968 24.3078 30.0427
Pd 10.9832 22.3823 33.8648
Pd 10.9864 24.2955 35.7692
Pd 12.874 22.3782 35.7722
Co 12.8836 24.3011 33.8605
Pd 10.9815 22.3746 37.6835
Pd 11 24.2852 39.5649
Pd 12.8693 22.3721 39.5754
Co 12.8836 24.2974 37.6646
Pd 10.9969 22.3928 41.49
Pd 11.0249 24.2994 43.3554
Pd 12.8845 22.3919 43.3701
Co 12.8836 24.2757 41.4731
Co 12.9724 24.35 45.2013
Pd 13.0017 26.2255 5.37787
Pd 11.1243 26.2254 7.23136
Pd 11.0224 28.1464 9.09206
Pd 12.9126 26.225 9.12244
Co 12.9695 28.0954 7.24587
Pd 11.032 26.2249 10.9928
Pd 10.9981 28.1607 12.8826
Pd 12.889 26.2245 12.8859
Co 12.8814 28.1698 10.9741
Pd 10.9941 26.2244 14.7844
Pd 10.9852 28.1504 16.6783
Pd 12.8819 26.224 16.6875
Co 12.882 28.1481 14.7826
Pd 10.995 26.2239 18.5915
Pd 10.9981 28.1413 20.4981
Pd 12.8913 26.2235 20.4967
Co 12.8827 28.1444 18.5866
Pd 11.0067 26.2234 22.4118
Pd 11.0057 28.1315 24.3167
Pd 12.9037 26.223 24.3165
Co 12.8965 28.1377 22.4045
Pd 11.0045 26.2229 26.2237
Pd 11.006 28.131 28.1313
Pd 12.9041 26.2225 28.1307
Co 12.9033 28.1344 26.2238
Pd 11.0074 26.2224 30.0357
Pd 10.9991 28.1398 31.9499
Pd 12.8923 26.222 31.9505
Co 12.8972 28.1367 30.0432
Pd 10.9963 26.2219 33.856
Pd 10.9868 28.1479 35.7697
Pd 12.8836 26.2215 35.7596
Co 12.884 28.1424 33.861
Pd 10.996 26.2214 37.6631
Pd 11.0004 28.1572 39.5654
Pd 12.8912 26.221 39.5613
Co 12.8839 28.1451 37.6651
Pd 11.0346 26.2209 41.4547
Pd 11.0253 28.1419 43.3559
Pd 12.9155 26.2205 43.3247
Co 12.8839 28.1658 41.4736
Pd 11.1275 26.2204 45.2161
Pd 13.0052 26.22 47.0693
Co 12.9727 28.0905 45.2018
Pd 12.8823 30.0536 9.07713
Pd 10.995 30.053 10.9575
Pd 10.9794 31.9838 12.8675
Pd 12.8678 30.0734 12.8718
Co 12.9162 31.9307 11.0052
Pd 10.9803 30.0713 14.764
Pd 10.9737 31.9852 16.6702
Pd 12.8731 30.0673 16.675
Co 12.8541 31.9935 14.7539
Pd 10.9826 30.0635 18.5827
Pd 10.9801 31.9663 20.4836
Pd 12.885 30.0552 20.4927
Co 12.8748 31.9708 18.579
Pd 10.995 30.0478 22.4037
Pd 10.9956 31.9536 24.31
Pd 12.8961 30.0471 24.3116
Co 12.8839 31.9627 22.3964
Pd 11.0064 30.0415 26.2242
Pd 10.996 31.9531 28.139
Pd 12.8964 30.0466 28.1366
Co 12.891 31.9574 26.2243
Pd 10.9957 30.0468 30.0448
Pd 10.981 31.9648 31.9654
Pd 12.8859 30.0537 31.9555
Co 12.8846 31.9617 30.0523
Pd 10.9839 30.0615 33.8658
Pd 10.9754 31.9827 35.7788
Pd 12.8747 30.0648 35.7732
Co 12.8761 31.9688 33.8697
Pd 10.9822 30.0683 37.6845
Pd 10.9817 31.9803 39.5815
Pd 12.87 30.0699 39.5764
Co 12.856 31.9905 37.6948
Pd 10.9976 30.049 41.491
Pd 12.8852 30.0491 43.3711
Co 12.9188 31.9267 41.4435
Pd 12.853 33.8769 12.8628
Pd 10.9698 33.8735 14.7508
Pd 10.9657 35.7922 16.6687
Pd 12.8542 33.8862 16.6635
Co 12.8996 35.7442 14.8002
Pd 10.9689 33.8779 18.5629
Pd 10.9706 35.7855 20.4711
Pd 12.8712 33.8777 20.4766
Co 12.8492 35.7975 18.5521
Pd 10.9822 33.8711 22.3878
Pd 10.9828 35.7716 24.2993
Pd 12.8819 33.8665 24.3081
Co 12.8752 35.7746 22.3878
Pd 10.9903 33.8624 26.2247
Pd 10.9831 35.7711 28.1507
Pd 12.8823 33.866 28.1411
Co 12.8773 35.7726 26.2248
Pd 10.9829 33.8701 30.0617
Pd 10.9716 35.784 31.9789
Pd 12.8722 33.8762 31.9726
Co 12.8758 35.7735 30.0619
Pd 10.9702 33.8759 33.8866
Pd 10.9673 35.7897 35.7814
Pd 12.8558 33.8837 35.7857
Co 12.8505 35.7955 33.8976
Pd 10.9718 33.8705 37.6987
Pd 12.8552 33.8734 39.5864
Co 12.9015 35.7412 37.6495
Pd 12.8464 37.6828 16.6639
Pd 10.969 37.6761 18.5534
Pd 10.9733 39.5898 20.4737
Pd 12.8564 37.6839 20.4672
Co 12.9028 39.5432 18.6048
Pd 10.9764 37.6749 22.3704
Pd 10.9832 39.5737 24.2952
Pd 12.8735 37.675 24.2981
Co 12.858 39.5879 22.3654
Pd 10.9811 37.6742 26.2252
Pd 10.9835 39.5732 28.1558
Pd 12.8738 37.6745 28.1521
Co 12.885 39.5607 26.2253
Pd 10.9771 37.6739 30.0801
Pd 10.9743 39.5883 31.9772
Pd 12.8574 37.6823 31.983
Co 12.8586 39.5869 30.0853
Pd 10.9703 37.6741 33.8971
Pd 12.8481 37.6803 35.7863
Co 12.9041 39.5412 33.8459
Pd 12.8565 41.4727 20.4738
Pd 10.9856 41.4607 22.3694
Pd 11.002 43.3515 24.3023
Pd 12.8724 41.4626 24.2953
Co 12.9194 43.3145 22.4204
Pd 11.0128 41.4332 26.2257
Pd 11.0023 43.351 28.1496
Pd 12.8727 41.4621 28.1559
Co 12.8833 43.3481 26.2258
Pd 10.9862 41.4596 30.082
Pd 12.8575 41.4712 31.9773
Co 12.92 43.3135 30.0312
Pd 12.8797 45.2142 24.3005
Pd 11.0668 45.1556 26.2262
Pd 12.88 45.2137 28.1517
Co 13.0177 46.9655 26.2263
Pd 14.797 5.34372 24.2782
Pd 16.7273 3.55224 24.3467
Co 16.7424 5.36753 22.44
Pd 14.8575 3.62705 26.2205
Pd 14.7973 5.34322 28.1632
Pd 16.7276 3.55175 28.0939
Co 16.7079 5.37902 26.2205
Co 16.743 5.36654 30.0011
Pd 14.7738 9.06797 20.4692
Pd 16.6709 7.19444 20.4848
Co 16.7134 9.11346 18.6099
Pd 14.7858 7.21371 22.3644
Pd 14.7769 9.0889 24.2918
Pd 16.6835 7.21496 24.295
Co 16.6647 9.07714 22.3662
Pd 14.8061 7.23645 26.2209
Pd 14.7772 9.0884 28.1506
Pd 16.6838 7.21445 28.1466
Co 16.6859 9.10717 26.221
Pd 14.7864 7.2127 30.0774
Pd 14.7747 9.06647 31.9732
Pd 16.6719 7.19294 31.9567
Co 16.6653 9.07614 30.0759
Co 16.7147 9.11147 33.8322
Pd 14.761 12.8483 16.6605
Pd 16.6516 10.9675 16.6649
Co 16.6997 12.9018 14.7969
Pd 14.7676 10.9704 18.5495
Pd 14.7597 12.8574 20.4638
Pd 16.6581 10.9716 20.4673
Co 16.6461 12.8507 18.5488
Pd 14.7686 10.977 22.3665
Pd 14.7684 12.8737 24.2947
Pd 16.6718 10.983 24.2956
Co 16.6689 12.8758 22.3845
Pd 14.7691 10.9809 26.2214
Pd 14.7687 12.8732 28.1487
Pd 16.6722 10.9825 28.147
Co 16.6707 12.8771 26.2215
Pd 14.7693 10.976 30.0763
Pd 14.7607 12.8559 31.9796
Pd 16.6591 10.9701 31.9752
Co 16.6696 12.8748 30.0586
Pd 14.7689 10.9684 33.8933
Pd 14.7626 12.8458 35.7829
Pd 16.6532 10.965 35.7776
Co 16.6474 12.8487 33.8943
Co 16.7016 12.8988 37.6462
Pd 14.763 16.6521 12.8593
Pd 16.6474 14.7673 12.8589
Co 16.7069 16.7117 10.998
Pd 14.7601 14.7644 14.7428
Pd 14.7546 16.6507 16.6585
Pd 16.6468 14.7581 16.6581
Co 16.6422 16.6462 14.748
Pd 14.7561 14.7596 18.5521
Pd 14.7618 16.6646 20.4723
Pd 16.6616 14.7645 20.4719
Co 16.6629 16.6661 18.5725
Pd 14.7628 14.7655 22.3811
Pd 14.7737 16.6733 24.3045
Pd 16.6711 14.7756 24.3041
Co 16.6699 16.6722 22.3915
Pd 14.772 14.7739 26.2219
Pd 14.774 16.6728 28.1399
Pd 16.6714 14.7751 28.1394
Co 16.6757 16.6772 26.222
Pd 14.7635 14.7645 30.0627
Pd 14.7628 16.6631 31.9721
Pd 16.6626 14.763 31.9717
Co 16.6705 16.6712 30.0525
Pd 14.7574 14.7576 33.8918
Pd 14.7562 16.6482 35.7858
Pd 16.6484 14.7556 35.7854
Co 16.6642 16.6641 33.8715
Pd 14.762 14.7614 37.7011
Pd 14.7652 16.6486 39.5851
Pd 16.6496 14.7638 39.5847
Co 16.6442 16.6432 37.696
Co 16.7095 16.7077 41.446
Pd 14.7868 20.4702 9.07329
Pd 16.6697 18.5873 9.06604
Co 16.7447 20.5384 7.21969
Pd 14.7731 18.5756 10.9466
Pd 14.7639 20.4592 12.8678
Pd 16.6512 18.5621 12.8661
Co 16.657 20.4582 10.9651
Pd 14.7565 18.5603 14.7539
Pd 14.7622 20.4705 16.6703
Pd 16.6595 18.5631 16.6693
Co 16.6648 20.4731 14.7791
Pd 14.7614 18.5644 18.5705
Pd 14.7763 20.4804 20.4874
Pd 16.6707 18.5746 20.4864
Co 16.67 20.4782 18.5834
Pd 14.7745 18.5756 22.393
Pd 14.7845 20.4859 24.3095
Pd 16.6785 18.5803 24.3088
Co 16.6808 20.4856 22.4004
Pd 14.7789 18.578 26.2224
Pd 14.7848 20.4854 28.1358
Pd 16.6788 18.5798 28.1357
Co 16.6846 20.4873 26.2225
Pd 14.7751 18.5746 30.0518
Pd 14.7773 20.4789 31.958
Pd 16.6717 18.5731 31.9582
Co 16.6815 20.4846 30.0447
Pd 14.7627 18.5624 33.8744
Pd 14.7638 20.468 35.7751
Pd 16.6611 18.5606 35.7752
Co 16.6713 20.4762 33.8616
Pd 14.7584 18.5573 37.691
Pd 14.7662 20.4557 39.5775
Pd 16.6534 18.5586 39.5785
Co 16.6667 20.4701 37.6659
Pd 14.7757 18.5716 41.4982
Pd 14.7897 20.4657 43.3721
Pd 16.6726 18.5828 43.3785
Co 16.6596 20.4542 41.4799
Co 16.748 20.5335 45.2254
Pd 14.8453 24.3048 5.3362
Pd 16.7365 22.4193 5.3068
Co 16.8361 24.3806 3.6015
Pd 14.8135 22.3966 7.17458
Pd 14.7981 24.2881 9.10064
Pd 16.6785 22.3809 9.09623
Co 16.7022 24.2804 7.21595
Pd 14.7749 22.3764 10.9716
Pd 14.7722 24.2967 12.8818
Pd 16.6673 22.3799 12.8839
Co 16.6815 24.3011 11.0025
Pd 14.7658 22.3792 14.776
Pd 14.7751 24.303 16.6852
Pd 16.6704 22.3886 16.6872
Co 16.671 24.3017 14.7906
Pd 14.7754 22.3895 18.5848
Pd 14.7846 24.3072 20.4944
Pd 16.6805 22.3944 20.4951
Co 16.6785 24.3069 18.5934
Pd 14.787 22.3948 22.4008
Pd 14.7959 24.309 24.3126
Pd 16.6886 22.397 24.3125
Co 16.6884 24.3088 22.4043
Pd 14.7917 22.3965 26.2229
Pd 14.7962 24.3085 28.1338
Pd 16.6889 22.3965 28.133
Co 16.6936 24.309 26.223
Pd 14.7876 22.3938 30.0451
Pd 14.7856 24.3057 31.9519
Pd 16.6815 22.3929 31.9504
Co 16.689 24.3078 30.0418
Pd 14.7767 22.3875 33.861
Pd 14.7767 24.3006 35.7611
Pd 16.672 22.3861 35.7584
Co 16.6798 24.3049 33.8526
Pd 14.7678 22.3762 37.6698
Pd 14.7745 24.2932 39.5645
Pd 16.6696 22.3764 39.5616
Co 16.673 24.2987 37.6554
Pd 14.7775 22.3724 41.4742
Pd 14.801 24.2836 43.3457
Pd 16.6814 22.3764 43.3493
Co 16.6841 24.2971 41.4435
Pd 14.8167 22.3916 45.2713
Pd 14.8488 24.2993 47.1101
Pd 16.74 22.4139 47.1387
Co 16.7054 24.2754 45.2301
Co 16.8399 24.3747 48.8445
Pd 15.0292 26.2255 3.51001
Pd 14.8456 28.1458 5.33671
Pd 16.7641 26.2251 5.41997
Co 16.8364 28.0701 3.60198
Pd 14.8348 26.2251 7.22529
Pd 14.7984 28.1616 9.10115
Pd 16.6968 26.2246 9.11396
Co 16.7025 28.1694 7.21646
Pd 14.7879 26.2246 10.9964
Pd 14.7726 28.1519 12.8823
Pd 16.6756 26.2241 12.9003
Co 16.6819 28.1477 11.003
Pd 14.7778 26.2241 14.7876
Pd 14.7755 28.1446 16.6857
Pd 16.6758 26.2236 16.6938
Co 16.6714 28.1461 14.7911
Pd 14.781 26.2236 18.591
Pd 14.7849 28.1394 20.4949
Pd 16.6846 26.2232 20.4992
Co 16.6788 28.1399 18.5939
Pd 14.7922 26.2231 22.404
Pd 14.7963 28.1367 24.3131
Pd 16.6937 26.2227 24.3133
Co 16.6887 28.137 22.4048
Pd 14.8006 26.2226 26.2234
Pd 14.7966 28.1362 28.1343
Pd 16.694 26.2222 28.1332
Co 16.694 28.1358 26.2235
Pd 14.7929 26.2221 30.0428
Pd 14.7859 28.138 31.9524
Pd 16.6856 26.2217 31.9473
Co 16.6893 28.136 30.0423
Pd 14.7823 26.2216 33.8558
Pd 14.7771 28.1421 35.7616
Pd 16.6774 26.2212 35.7528
Co 16.6801 28.1379 33.8531
Pd 14.7797 26.2211 37.6593
Pd 14.7748 28.1484 39.565
Pd 16.6779 26.2207 39.5462
Co 16.6733 28.1431 37.6559
Pd 14.7905 26.2206 41.4504
Pd 14.8013 28.1571 43.3462
Pd 16.6997 26.2202 43.3326
Co 16.6845 28.1437 41.444
Pd 14.838 26.2201 45.2216
Pd 14.8491 28.1403 47.1106
Pd 16.7676 26.2197 47.0266
Co 16.7057 28.1644 45.2306
Pd 15.0331 26.2196 48.9368
Co 16.8402 28.0642 48.845
Pd 16.7372 30.0309 5.30779
Pd 14.8142 30.0535 7.17558
Pd 14.7879 31.9794 9.07479
Pd 16.6792 30.0684 9.09724
Co 16.7458 31.9113 7.22117
Pd 14.7756 30.0728 10.9726
Pd 14.7649 31.9894 12.8693
Pd 16.668 30.0684 12.8849
Co 16.658 31.9906 10.9666
Pd 14.7665 30.0689 14.7771
Pd 14.7632 31.9771 16.6718
Pd 16.671 30.0587 16.6882
Co 16.6658 31.9747 14.7806
Pd 14.776 30.0576 18.5858
Pd 14.7774 31.9663 20.4889
Pd 16.6812 30.0519 20.4961
Co 16.671 31.9686 18.5849
Pd 14.7877 30.0514 22.4018
Pd 14.7855 31.9597 24.311
Pd 16.6892 30.0483 24.3135
Co 16.6819 31.9602 22.4019
Pd 14.7924 30.0487 26.2239
Pd 14.7858 31.9592 28.1373
Pd 16.6896 30.0478 28.134
Co 16.6856 31.9575 26.224
Pd 14.7883 30.0504 30.0461
Pd 14.7783 31.9648 31.9595
Pd 16.6822 30.0504 31.9514
Co 16.6825 31.9592 30.0462
Pd 14.7773 30.0556 33.862
Pd 14.7648 31.9746 35.7766
Pd 16.6727 30.0562 35.7594
Co 16.6723 31.9666 33.8631
Pd 14.7685 30.0659 37.6708
Pd 14.7672 31.9859 39.579
Pd 16.6703 30.0649 39.5626
Co 16.6678 31.9717 37.6674
Pd 14.7782 30.0688 41.4753
Pd 14.7908 31.9749 43.3736
Pd 16.6821 30.064 43.3503
Co 16.6606 31.9866 41.4814
Pd 14.8174 30.0486 45.2723
Pd 16.7407 30.0255 47.1397
Co 16.749 31.9064 45.2268
Pd 16.6711 33.862 9.06803
Pd 14.7745 33.8736 10.9486
Pd 14.7647 35.7966 12.8618
Pd 16.6525 33.8862 12.8681
Co 16.7086 35.7371 11.0005
Pd 14.7578 33.8878 14.7559
Pd 14.7563 35.797 16.661
Pd 16.6609 33.8842 16.6713
Co 16.6439 35.8016 14.7505
Pd 14.7628 33.8827 18.5725
Pd 14.7635 35.782 20.4748
Pd 16.6721 33.8717 20.4884
Co 16.6646 35.7807 18.575
Pd 14.7759 33.8706 22.395
Pd 14.7754 35.7723 24.307
Pd 16.6798 33.865 24.3108
Co 16.6716 35.7736 22.394
Pd 14.7803 33.8672 26.2244
Pd 14.7757 35.7718 28.1424
Pd 16.6801 33.8645 28.1377
Co 16.6774 35.7676 26.2245
Pd 14.7765 33.8696 30.0538
Pd 14.7645 35.7805 31.9746
Pd 16.6731 33.8702 31.9602
Co 16.6722 35.7726 30.055
Pd 14.7641 33.8807 33.8764
Pd 14.7579 35.7945 35.7883
Pd 16.6625 33.8817 35.7772
Co 16.6659 35.7787 33.874
Pd 14.7598 33.8848 37.693
Pd 14.767 35.7931 39.5876
Pd 16.6548 33.8827 39.5805
Co 16.6459 35.7986 37.6985
Pd 14.7771 33.8696 41.5002
Pd 16.674 33.8575 43.3805
Co 16.7112 35.7331 41.4485
Pd 16.6494 37.681 12.8619
Pd 14.7621 37.6838 14.7458
Pd 14.7634 39.5994 16.664
Pd 16.6488 37.6892 16.6611
Co 16.702 39.546 14.8004
Pd 14.7582 37.6875 18.5551
Pd 14.7621 39.5892 20.4673
Pd 16.6636 37.6818 20.4749
Co 16.6485 39.5961 18.5523
Pd 14.7649 37.6807 22.3841
Pd 14.7708 39.572 24.2982
Pd 16.6731 37.6697 24.3071
Co 16.6713 39.57 22.3879
Pd 14.7741 37.6713 26.2249
Pd 14.7711 39.5715 28.1522
Pd 16.6735 37.6692 28.1424
Co 16.6731 39.5677 26.225
Pd 14.7655 37.6797 30.0657
Pd 14.7631 39.5877 31.9831
Pd 16.6646 37.6803 31.9747
Co 16.672 39.569 30.0621
Pd 14.7595 37.6855 33.8948
Pd 14.765 39.5969 35.7864
Pd 16.6504 37.6867 35.7884
Co 16.6498 39.5941 33.8978
Pd 14.7641 37.6808 37.7041
Pd 16.6517 37.6775 39.5877
Co 16.704 39.543 37.6496
Pd 16.6543 41.4798 16.6689
Pd 14.7703 41.4767 18.5535
Pd 14.7768 43.3787 20.4737
Pd 16.6609 41.4747 20.4713
Co 16.7165 43.3333 18.6144
Pd 14.7713 41.4691 22.3705
Pd 14.78 43.3567 24.2963
Pd 16.6746 41.4624 24.2996
Co 16.6678 43.3687 22.3706
Pd 14.7718 41.4642 26.2254
Pd 14.7803 43.3562 28.155
Pd 16.6749 41.4619 28.151
Co 16.689 43.3376 26.2255
Pd 14.772 41.4681 30.0803
Pd 14.7778 43.3772 31.9776
Pd 16.6618 41.4732 31.9792
Co 16.6684 43.3677 30.0804
Pd 14.7716 41.4747 33.8973
Pd 16.6559 41.4773 35.7816
Co 16.7178 43.3313 33.8366
Pd 16.6743 45.2519 20.4898
Pd 14.7892 45.2324 22.3694
Pd 14.8007 47.1019 24.2836
Pd 16.6869 45.2304 24.3
Co 16.7461 47.0783 22.4455
Pd 14.8095 45.2087 26.2259
Pd 14.8011 47.1014 28.1687
Pd 16.6872 45.2298 28.1515
Co 16.7116 47.0658 26.226
Pd 14.7898 45.2314 30.0824
Pd 16.6753 45.2504 31.9617
Co 16.7468 47.0773 30.0065
Pd 16.7313 48.8931 24.3527
Pd 14.8615 48.8181 26.2264
Pd 16.7316 48.8926 28.0998
Pd 18.5948 5.29804 20.4934
Pd 20.5341 3.52652 20.5351
Co 20.5438 5.35827 18.6383
Pd 18.6324 3.53242 22.4394
Pd 18.6331 5.34618 24.341
Pd 20.5061 3.44023 24.3145
Co 20.513 5.32606 22.4156
Pd 18.6026 3.45851 26.2201
Pd 18.6334 5.34569 28.0997
Pd 20.5064 3.43973 28.1255
Co 20.5242 5.29937 26.2202
Pd 18.633 3.53144 30.0009
Pd 18.5957 5.29655 31.9473
Pd 20.5351 3.52503 31.9049
Co 20.5136 5.32507 30.0249
Co 20.5451 5.35629 33.8021
Pd 18.5757 9.06236 16.6704
Pd 20.4728 7.19757 16.682
Co 20.5157 9.1244 14.8058
Pd 18.5898 7.19149 18.5678
Pd 18.5767 9.07443 20.4771
Pd 20.4855 7.19408 20.495
Co 20.4647 9.07159 18.5658
Pd 18.595 7.19824 22.386
Pd 18.5872 9.10039 24.2941
Pd 20.5144 7.21338 24.3152
Co 20.4941 9.09812 22.3978
Pd 18.6011 7.23534 26.2206
Pd 18.5875 9.09988 28.1476
Pd 20.5148 7.21288 28.1257
Co 20.5027 9.10973 26.2207
Pd 18.5957 7.19724 30.0552
Pd 18.5776 9.07293 31.9646
Pd 20.4865 7.19259 31.9459
Co 20.4947 9.09712 30.0436
Pd 18.5911 7.18949 33.8734
Pd 18.5773 9.05986 35.7714
Pd 20.4744 7.19507 35.7589
Co 20.466 9.06958 33.8756
Co 20.5176 9.12141 37.6356
Pd 18.567 12.8556 12.8596
Pd 20.4601 10.9821 12.8639
Co 20.5134 12.9193 11.0021
Pd 18.5704 10.9721 14.7471
Pd 18.5576 12.856 16.6603
Pd 20.4586 10.9756 16.6666
Co 20.4504 12.8563 14.7507
Pd 18.5658 10.9703 18.5592
Pd 18.5659 12.8723 20.4733
Pd 20.4773 10.9811 20.48
Co 20.4729 12.8762 18.5759
Pd 18.5724 10.9828 22.3842
Pd 18.577 12.8821 24.3049
Pd 20.4898 10.9958 24.3064
Co 20.4808 12.8845 22.3933
Pd 18.5809 10.9901 26.2211
Pd 18.5773 12.8816 28.1379
Pd 20.4901 10.9953 28.1355
Co 20.4859 12.8908 26.2212
Pd 18.5731 10.9818 30.058
Pd 18.5668 12.8708 31.9694
Pd 20.4783 10.9796 31.9619
Co 20.4814 12.8835 30.0491
Pd 18.5671 10.9683 33.883
Pd 18.5592 12.8535 35.7824
Pd 20.4602 10.9731 35.7753
Co 20.4742 12.8742 33.8665
Pd 18.5723 10.9691 37.6951
Pd 18.5693 12.8521 39.5831
Pd 20.4624 10.9786 39.578
Co 20.4523 12.8533 37.6917
Co 20.5159 12.9153 41.4403
Pd 18.5821 16.6745 9.06563
Pd 20.4647 14.7913 9.07207
Co 20.5329 16.7496 7.21887
Pd 18.5705 14.7775 10.9458
Pd 18.5578 16.6552 12.8657
Pd 20.4545 14.7676 12.8666
Co 20.4534 16.6611 10.9643
Pd 18.556 14.7601 14.7531
Pd 18.5596 16.6627 16.6689
Pd 20.4666 14.7651 16.669
Co 20.4692 16.6681 14.7783
Pd 18.5609 14.7642 18.5697
Pd 18.5719 16.6731 20.486
Pd 20.4773 14.7784 20.4861
Co 20.4751 16.6724 18.5826
Pd 18.5729 14.7765 22.3922
Pd 18.5784 16.68 24.3084
Pd 20.4837 14.7857 24.3083
Co 20.4833 16.6824 22.3995
Pd 18.5761 14.78 26.2216
Pd 18.5788 16.6795 28.1353
Pd 20.484 14.7852 28.1346
Co 20.4858 16.6854 26.2217
Pd 18.5736 14.7755 30.051
Pd 18.5728 16.6716 31.9578
Pd 20.4783 14.7769 31.9568
Co 20.484 16.6814 30.0439
Pd 18.5622 14.7622 33.8736
Pd 18.5612 16.6602 35.7748
Pd 20.4683 14.7626 35.7739
Co 20.4764 16.6704 33.8608
Pd 18.558 14.7571 37.6901
Pd 18.56 16.6517 39.578
Pd 20.4568 14.7641 39.5763
Co 20.4711 16.6651 37.6651
Pd 18.573 14.7736 41.4974
Pd 18.585 16.67 43.3781
Pd 20.4676 14.7869 43.3708
Co 20.456 16.6571 41.4791
Co 20.5361 16.7447 45.2245
Pd 18.6359 20.5288 5.2938
Pd 20.5231 18.6412 5.29339
Co 20.6067 20.6124 3.57341
Pd 18.6064 18.6116 7.15661
Pd 18.5831 20.4752 9.09292
Pd 20.4704 18.5876 9.09251
Co 20.4908 20.4957 7.19856
Pd 18.5651 18.5695 10.969
Pd 18.5645 20.4722 12.8856
Pd 20.4682 18.5682 12.8852
Co 20.4802 20.4842 11.0062
Pd 18.56 18.5636 14.7759
Pd 18.5709 20.4783 16.6876
Pd 20.4751 18.5738 16.6872
Co 20.4748 20.4781 14.7959
Pd 18.571 18.5738 18.5838
Pd 18.5795 20.4855 20.4953
Pd 20.4832 18.5816 20.4949
Co 20.4827 20.4852 18.596
Pd 18.579 18.581 22.3998
Pd 18.5862 20.4897 24.3122
Pd 20.4881 18.5874 24.3118
Co 20.4891 20.4908 22.4052
Pd 18.5826 18.5837 26.2221
Pd 18.5865 20.4892 28.1325
Pd 20.4884 18.5869 28.1321
Co 20.4921 20.4929 26.2222
Pd 18.5796 18.58 30.0444
Pd 18.5805 20.484 31.9494
Pd 20.4841 18.5801 31.949
Co 20.4898 20.4898 30.0392
Pd 18.5723 18.5718 33.8604
Pd 18.5725 20.4758 35.7571
Pd 20.4767 18.5713 35.7567
Co 20.484 20.4832 33.8484
Pd 18.562 18.5606 37.6683
Pd 18.5668 20.4687 39.5591
Pd 20.4704 18.5647 39.5587
Co 20.4768 20.4751 37.6485
Pd 18.5677 18.5655 41.4752
Pd 18.586 20.4707 43.3518
Pd 20.4733 18.5831 43.3514
Co 20.4827 20.4803 41.4382
Pd 18.6096 18.6066 45.2876
Pd 18.6395 20.5233 47.1509
Pd 20.5267 18.6358 47.1505
Co 20.494 20.4907 45.2458
Co 20.6106 20.6065 48.871
Pd 18.7428 22.5286 3.44652
Pd 18.6592 24.3335 5.383
Pd 20.5488 22.4442 5.36822
Co 20.565 24.3534 3.51957
Pd 18.609 22.3978 7.21128
Pd 18.592 24.3 9.12483
Pd 20.4958 22.3971 9.12128
Co 20.534 24.326 7.25501
Pd 18.576 22.3824 11.0025
Pd 18.5757 24.3034 12.9057
Pd 20.4794 22.3906 12.912
Co 20.4888 24.3047 11.0294
Pd 18.5717 22.3885 14.7949
Pd 18.5766 24.3064 16.6979
Pd 20.4814 22.3932 16.7015
Co 20.4813 24.3067 14.8111
Pd 18.5784 22.3937 18.5952
Pd 18.5855 24.309 20.5013
Pd 20.4888 22.398 20.5029
Co 20.4867 24.3085 18.6038
Pd 18.5868 22.3978 22.4052
Pd 18.5923 24.31 24.3142
Pd 20.494 22.4007 24.3144
Co 20.4937 24.3105 22.4091
Pd 18.5907 22.3988 26.2226
Pd 18.5926 24.3095 28.1315
Pd 20.4943 22.4002 28.1305
Co 20.4966 24.3108 26.2227
Pd 18.5875 22.3968 30.04
Pd 18.5864 24.3075 31.9444
Pd 20.4898 22.3965 31.942
Co 20.4944 24.3095 30.0363
Pd 18.5797 22.3917 33.85
Pd 18.5782 24.3039 35.7478
Pd 20.483 22.3907 35.7434
Co 20.4879 24.3065 33.8416
Pd 18.5736 22.3855 37.6503
Pd 18.5779 24.2999 39.54
Pd 20.4816 22.3872 39.5328
Co 20.4832 24.3038 37.6343
Pd 18.5786 22.3784 41.4427
Pd 18.5949 24.2955 43.3209
Pd 20.4987 22.3926 43.3236
Co 20.4914 24.3008 41.416
Pd 18.6122 22.3928 45.2339