4033
Atoms. Timestep: 20142
Co 5.47813 13.0173 26.2097
Pd 3.55112 16.732 24.3377
Pd 5.34236 14.8015 24.2682
Co 5.36666 16.7481 22.4313
Pd 3.62544 14.861 26.2103
Pd 3.55015 16.7299 28.0848
Pd 5.34135 14.7994 28.1532
Co 5.37766 16.7112 26.2118
Co 5.36469 16.7439 29.9923
Pd 3.52641 20.5413 20.5285
Pd 5.29768 18.6017 20.4858
Co 5.35841 20.5519 18.6319
Pd 3.53181 18.6383 22.4316
Pd 3.43963 20.5108 24.3079
Pd 5.34532 18.6376 24.3335
Co 5.3257 20.5187 22.4092
Pd 3.4574 18.6061 26.2123
Pd 3.43863 20.5087 28.1189
Pd 5.34434 18.6355 28.0922
Co 5.29852 20.5275 26.2138
Pd 3.52984 18.6341 29.9931
Pd 3.52345 20.535 31.8983
Pd 5.2947 18.5954 31.9397
Co 5.32372 20.5145 30.0185
Co 5.35446 20.5435 33.7958
Pd 3.55401 24.3512 16.725
Pd 5.31635 22.4094 16.683
Co 5.41061 24.355 14.8328
Pd 3.5356 22.448 18.6208
Pd 3.44387 24.3232 20.4978
Pd 5.33447 22.4424 20.5299
Co 5.34536 24.3202 18.6102
Pd 3.4345 22.4166 22.4035
Pd 3.41501 24.3189 24.3096
Pd 5.28874 22.4199 24.3094
Co 5.28649 24.329 22.4152
Pd 3.42134 22.414 26.2144
Pd 3.41401 24.3168 28.1213
Pd 5.28775 22.4178 28.1204
Co 5.27025 24.3198 26.2159
Pd 3.43251 22.4124 30.0253
Pd 3.44089 24.3169 31.9331
Pd 5.33151 22.4361 31.9
Co 5.28451 24.3248 30.0167
Pd 3.53165 22.4396 33.8081
Pd 3.54907 24.3407 35.706
Pd 5.31138 22.3989 35.7468
Co 5.34139 24.3118 33.8217
Co 5.40468 24.3424 37.5992
Pd 5.39956 26.2305 12.9592
Pd 3.62476 26.2295 14.8542
Pd 3.55417 28.1058 16.7271
Pd 5.39785 26.2284 16.7436
Co 5.41078 28.104 14.8349
Pd 3.46606 26.2275 18.5957
Pd 3.44404 28.1296 20.4999
Pd 5.30668 26.2263 20.5066
Co 5.34552 28.1346 18.6123
Pd 3.42373 26.2254 22.4029
Pd 3.41517 28.1298 24.3117
Pd 5.27505 26.2242 24.3171
Co 5.28665 28.1216 22.4173
Pd 3.40739 26.2233 26.2165
Pd 3.41418 28.1277 28.1234
Pd 5.27406 26.2221 28.1168
Co 5.27041 28.1265 26.218
Pd 3.42174 26.2212 30.0301
Pd 3.44106 28.1233 31.9352
Pd 5.3037 26.22 31.9274
Co 5.28467 28.1174 30.0188
Pd 3.46209 26.2191 33.8374
Pd 3.54923 28.0953 35.7081
Pd 5.39292 26.218 35.6904
Co 5.34156 28.1262 33.8238
Pd 3.61884 26.217 37.5789
Pd 5.39265 26.2159 39.4749
Co 5.40485 28.0914 37.6012
Pd 5.31668 30.0475 16.6872
Pd 3.53593 30.0069 18.6249
Pd 3.52691 31.9115 20.5348
Pd 5.3348 30.0103 20.534
Co 5.3589 31.9029 18.6382
Pd 3.43483 30.0341 22.4077
Pd 3.44012 31.9378 24.3142
Pd 5.28908 30.0286 24.3136
Co 5.3262 31.9319 22.4155
Pd 3.42167 30.0326 26.2186
Pd 3.43913 31.9357 28.1252
Pd 5.28808 30.0265 28.1246
Co 5.29902 31.9189 26.2201
Pd 3.43284 30.0299 30.0295
Pd 3.52394 31.9052 31.9046
Pd 5.33184 30.004 31.9041
Co 5.32422 31.9277 30.0248
Pd 3.53198 29.9985 33.8123
Pd 5.31172 30.037 35.751
Co 5.35495 31.8945 33.8021
Pd 5.29835 33.851 20.4943
Pd 3.53247 33.8124 22.44
Pd 3.55195 35.7166 24.3482
Pd 5.34599 33.8109 24.3418
Co 5.36749 35.7025 22.4417
Pd 3.45807 33.8404 26.2207
Pd 3.55098 35.7146 28.0953
Pd 5.34501 33.8088 28.1006
Co 5.37849 35.7352 26.2223
Pd 3.5305 33.8082 30.0015
Pd 5.29536 33.8447 31.9481
Co 5.36552 35.6983 30.0028
Pd 5.34336 37.647 24.2808
Pd 3.62643 37.5855 26.2228
Pd 5.34235 37.6448 28.1658
Co 5.47929 39.4291 26.2243
Co 9.23284 9.23514 26.2086
Pd 7.23018 12.8806 24.2845
Pd 9.09293 11.0029 24.2859
Co 9.1306 12.9215 22.4052
Pd 7.28808 11.0664 26.2091
Pd 7.22918 12.8784 28.1357
Pd 9.09192 11.0008 28.1332
Co 9.09548 12.883 26.2106
Co 9.12861 12.9173 30.016
Pd 7.19382 16.6776 20.4763
Pd 9.0671 14.7802 20.4597
Co 9.11309 16.7211 18.6016
Pd 7.21259 14.7913 22.3547
Pd 7.21384 16.6877 24.2865
Pd 9.08754 14.7809 24.2823
Co 9.07628 16.6699 22.3578
Pd 7.23484 14.8092 26.2112
Pd 7.21284 16.6856 28.138
Pd 9.08653 14.7788 28.141
Co 9.10581 16.6887 26.2127
Pd 7.21058 14.787 30.0677
Pd 7.19083 16.6713 31.9481
Pd 9.0641 14.7739 31.9636
Co 9.07427 16.6657 30.0676
Co 9.10912 16.7127 33.8239
Pd 7.19795 20.4819 16.6759
Pd 9.06249 18.5845 16.6632
Co 9.12503 20.5257 14.7999
Pd 7.19137 18.5977 18.5605
Pd 7.19397 20.4922 20.4889
Pd 9.07406 18.5831 20.47
Co 9.07172 20.4724 18.5599
Pd 7.19763 18.6005 22.3786
Pd 7.21277 20.5187 24.3091
Pd 9.09953 18.5912 24.287
Co 9.09776 20.4993 22.392
Pd 7.23423 18.6042 26.2133
Pd 7.21178 20.5166 28.1196
Pd 9.09852 18.589 28.1405
Co 9.10888 20.5054 26.2148
Pd 7.19563 18.5963 30.0479
Pd 7.19099 20.4859 31.9397
Pd 9.07107 18.5768 31.9575
Co 9.09577 20.4951 30.0377
Pd 7.18738 18.5893 33.8661
Pd 7.19298 20.4714 35.7527
Pd 9.05751 18.574 35.7643
Co 9.06773 20.4639 33.8697
Co 9.11908 20.5131 37.6297
Pd 7.23894 24.3065 12.8809
Pd 9.08868 22.3997 12.8632
Co 9.17152 24.361 11.0232
Pd 7.21585 22.4016 14.7552
Pd 7.23111 24.2927 16.6891
Pd 9.08741 22.3826 16.6714
Co 9.09778 24.2851 14.7629
Pd 7.20258 22.401 18.5806
Pd 7.21607 24.3234 20.5077
Pd 9.09522 22.3975 20.4878
Co 9.11008 24.3071 18.5905
Pd 7.20846 22.4171 22.4123
Pd 7.18541 24.3227 24.315
Pd 9.1055 22.4177 24.3147
Co 9.10613 24.3175 22.4092
Pd 7.18933 22.4205 26.2154
Pd 7.18442 24.3206 28.1178
Pd 9.10451 22.4156 28.1171
Co 9.09913 24.3207 26.2169
Pd 7.20648 22.4129 30.0184
Pd 7.2131 24.3171 31.9252
Pd 9.09223 22.3912 31.944
Co 9.10415 24.3133 30.0246
Pd 7.1986 22.3926 33.8502
Pd 7.22614 24.2822 35.7437
Pd 9.08244 22.372 35.7604
Co 9.1061 24.2987 33.8433
Pd 7.20988 22.389 37.6755
Pd 7.23199 24.2917 39.552
Pd 9.08172 22.385 39.5685
Co 9.09181 24.2724 37.6709
Co 9.16361 24.3442 41.4107
Pd 9.17968 26.2324 9.16273
Pd 7.32379 26.2315 11.0217
Pd 7.2391 28.1545 12.883
Pd 9.12445 26.2304 12.9019
Co 9.17169 28.1019 11.0253
Pd 7.25736 26.2294 14.7863
Pd 7.23128 28.164 16.6913
Pd 9.1112 26.2283 16.6833
Co 9.09795 28.1736 14.7651
Pd 7.24093 26.2273 18.6119
Pd 7.21624 28.1291 20.5098
Pd 9.11644 26.2262 20.5124
Co 9.11024 28.1474 18.5926
Pd 7.19187 26.2252 22.4147
Pd 7.18558 28.1256 24.3171
Pd 9.09924 26.2241 24.3147
Co 9.1063 28.1327 22.4113
Pd 7.17981 26.2231 26.2175
Pd 7.18459 28.1235 28.1199
Pd 9.09825 26.222 28.1212
Co 9.09929 28.1254 26.219
Pd 7.18989 26.221 30.0203
Pd 7.21326 28.1228 31.9273
Pd 9.11347 26.2199 31.9235
Co 9.10432 28.1285 30.0267
Pd 7.23696 26.2189 33.8231
Pd 7.22631 28.1535 35.7459
Pd 9.10623 26.2178 35.7527
Co 9.10627 28.1389 33.8454
Pd 7.2514 26.2168 37.6487
Pd 7.23216 28.1397 39.5541
Pd 9.11751 26.2157 39.5341
Co 9.09198 28.161 37.673
Pd 7.31588 26.2147 41.4133
Pd 9.1708 26.2136 43.2733
Co 9.16377 28.0851 41.4128
Pd 9.08901 30.0611 12.8675
Pd 7.21618 30.0572 14.7595
Pd 7.19845 31.9748 16.6822
Pd 9.08775 30.074 16.6756
Co 9.12553 31.9329 14.8062
Pd 7.20291 30.0536 18.5848
Pd 7.19447 31.9603 20.4952
Pd 9.09555 30.0548 20.492
Co 9.07222 31.9821 18.5662
Pd 7.20879 30.0333 22.4165
Pd 7.21327 31.9296 24.3154
Pd 9.10583 30.0305 24.3189
Co 9.09827 31.951 22.3983
Pd 7.18966 30.0257 26.2196
Pd 7.21228 31.9275 28.1259
Pd 9.10484 30.0284 28.1213
Co 9.10938 31.9406 26.2211
Pd 7.20681 30.0291 30.0226
Pd 7.19149 31.954 31.9461
Pd 9.09257 30.0485 31.9482
Co 9.09627 31.9468 30.044
Pd 7.19894 30.0452 33.8544
Pd 7.19348 31.9643 35.7591
Pd 9.08277 30.0634 35.7646
Co 9.06824 31.9737 33.8761
Pd 7.21021 30.0446 37.6797
Pd 9.08206 30.0463 39.5727
Co 9.11958 31.9203 37.636
Pd 9.06316 33.8721 16.6717
Pd 7.19204 33.8569 18.5689
Pd 7.19465 35.7749 20.4868
Pd 9.07473 33.8693 20.4785
Co 9.11392 35.7334 18.6121
Pd 7.1983 33.8499 22.3871
Pd 7.21468 35.7606 24.297
Pd 9.1002 33.857 24.2955
Co 9.07711 35.7804 22.3684
Pd 7.2349 33.8421 26.2217
Pd 7.21367 35.7585 28.1485
Pd 9.09919 33.8549 28.1489
Co 9.10664 35.7573 26.2233
Pd 7.1963 33.8457 30.0563
Pd 7.19166 35.7686 31.9587
Pd 9.07174 33.8629 31.9659
Co 9.0751 35.7761 30.0781
Pd 7.18805 33.8485 33.8745
Pd 9.05818 33.8615 35.7727
Co 9.10995 35.725 33.8344
Pd 9.0681 37.6722 20.4723
Pd 7.21359 37.6592 22.3673
Pd 7.23135 39.5678 24.2993
Pd 9.08854 37.6673 24.2949
Co 9.13176 39.5287 22.4199
Pd 7.23584 37.637 26.2238
Pd 7.23034 39.5656 28.1504
Pd 9.08753 37.6651 28.1537
Co 9.09665 39.563 26.2254
Pd 7.21158 37.655 30.0803
Pd 9.0651 37.6658 31.9763
Co 9.12978 39.5245 30.0307
Pd 9.09426 41.4453 24.3027
Pd 7.28941 41.3798 26.2259
Pd 9.09325 41.4431 28.15
Co 9.23432 43.2109 26.2274
Co 13.0146 5.48011 26.2075
Pd 11 9.09564 24.2854
Pd 12.8775 7.23273 24.2829
Co 12.9181 9.13369 22.4041
Pd 11.0639 7.29023 26.208
Pd 10.999 9.09351 28.1327
Pd 12.8765 7.2306 28.1341
Co 12.8807 9.09746 26.2095
Co 12.9161 9.12949 30.0149
Pd 10.9732 12.86 20.4593
Pd 12.8561 10.9768 20.4588
Co 12.9034 12.9076 18.591
Pd 10.9846 10.9878 22.3537
Pd 10.9818 12.8734 24.2808
Pd 12.8707 10.9843 24.2802
Co 12.8572 12.8603 22.3516
Pd 11.0105 11.0126 26.2101
Pd 10.9808 12.8713 28.1414
Pd 12.8697 10.9822 28.1409
Co 12.8829 12.8849 26.2116
Pd 10.9826 10.9836 30.0664
Pd 10.9702 12.8536 31.9628
Pd 12.8531 10.9705 31.9623
Co 12.8552 12.856 30.0716
Co 12.8994 12.8992 33.8322
Pd 10.9674 16.6602 16.6568
Pd 12.8479 14.7693 16.6514
Co 12.902 16.7092 14.7891
Pd 10.9698 14.775 18.5402
Pd 10.971 16.6643 20.4592
Pd 12.8565 14.7657 20.4547
Co 12.8503 16.6533 18.5409
Pd 10.9759 14.7736 22.3573
Pd 10.9818 16.6756 24.2875
Pd 12.8723 14.7719 24.2857
Co 12.8749 16.6737 22.3766
Pd 10.9793 14.7716 26.2121
Pd 10.9808 16.6735 28.1389
Pd 12.8713 14.7698 28.1396
Co 12.8757 16.673 26.2137
Pd 10.9739 14.7693 30.067
Pd 10.968 16.658 31.9671
Pd 12.8535 14.7593 31.9705
Co 12.8729 16.6694 30.0508
Pd 10.9658 14.7665 33.884
Pd 10.9624 16.6496 35.7695
Pd 12.8429 14.7588 35.7738
Co 12.8463 16.6448 33.8864
Co 12.896 16.6966 37.6383
Pd 10.983 20.4712 12.8583
Pd 12.8562 18.5778 12.8529
Co 12.9204 20.5253 10.9967
Pd 10.9724 18.5802 14.7402
Pd 10.976 20.4672 16.661
Pd 12.8561 18.5659 16.6537
Co 12.857 20.46 14.7453
Pd 10.9702 18.5732 18.5524
Pd 10.9809 20.4835 20.4744
Pd 12.8719 18.5718 20.4667
Co 12.8763 20.48 18.5705
Pd 10.9822 18.5774 22.3773
Pd 10.9952 20.4935 24.3008
Pd 12.8813 18.5805 24.2982
Co 12.8842 20.4855 22.3879
Pd 10.989 18.5835 26.2143
Pd 10.9942 20.4914 28.1298
Pd 12.8803 18.5783 28.1312
Co 12.8899 20.4882 26.2158
Pd 10.9802 18.5732 30.0512
Pd 10.978 20.4772 31.9562
Pd 12.8689 18.5655 31.9628
Co 12.8822 20.4812 30.0437
Pd 10.9662 18.5648 33.8761
Pd 10.971 20.4567 35.7696
Pd 12.8512 18.5554 35.7758
Co 12.8724 20.4716 33.8611
Pd 10.9665 18.5676 37.6882
Pd 10.976 20.4564 39.5723
Pd 12.8493 18.5631 39.5765
Co 12.851 20.4473 37.6863
Co 12.9125 20.5085 41.435
Pd 11.0277 24.3112 9.08549
Pd 12.8874 22.4037 9.06989
Co 12.9755 24.3631 7.24
Pd 10.9994 22.4032 10.9496
Pd 11.0021 24.2943 12.876
Pd 12.8715 22.3814 12.8645
Co 12.886 24.2863 10.9681
Pd 10.9834 22.3824 14.7561
Pd 10.9879 24.302 16.6717
Pd 12.8755 22.3848 16.6678
Co 12.8854 24.3053 14.7767
Pd 10.9844 22.3876 18.5748
Pd 10.9995 24.3085 20.4916
Pd 12.8861 22.3943 20.4855
Co 12.8847 24.3064 18.5807
Pd 10.9955 22.4006 22.3958
Pd 11.0058 24.3157 24.3101
Pd 12.896 22.3998 24.3043
Co 12.8973 24.3105 22.3986
Pd 11.0055 22.4044 26.2164
Pd 11.0048 24.3136 28.1248
Pd 12.895 22.3977 28.1294
Co 12.9027 24.3112 26.2179
Pd 10.9935 22.3964 30.0369
Pd 10.9965 24.3022 31.9433
Pd 12.8831 22.388 31.9482
Co 12.8953 24.3063 30.0373
Pd 10.9804 22.3791 33.8579
Pd 10.9829 24.2915 35.7631
Pd 12.8706 22.3743 35.7659
Co 12.8808 24.298 33.8551
Pd 10.9774 22.3697 37.6766
Pd 10.9952 24.2796 39.5588
Pd 12.8646 22.3666 39.5692
Co 12.8794 24.2926 37.6591
Pd 10.9915 22.3864 41.4831
Pd 11.0188 24.2922 43.3494
Pd 12.8784 22.3848 43.3638
Co 12.8781 24.2694 41.4676
Co 12.9656 24.3421 45.1959
Pd 13.0086 26.2344 5.37329
Pd 11.1305 26.2334 7.22613
Pd 11.0279 28.1536 9.08761
Pd 12.9182 26.2323 9.11783
Co 12.9757 28.1036 7.24207
Pd 11.037 26.2314 10.9875
Pd 11.0023 28.1663 12.8781
Pd 12.8933 26.2302 12.8813
Co 12.8862 28.1763 10.9703
Pd 10.9977 26.2293 14.7791
Pd 10.988 28.1544 16.6738
Pd 12.8849 26.2281 16.6829
Co 12.8855 28.1531 14.7788
Pd 10.9973 26.2272 18.5862
Pd 10.9997 28.1437 20.4937
Pd 12.893 26.226 20.4921
Co 12.8849 28.1477 18.5828
Pd 11.0077 26.225 22.4065
Pd 11.006 28.1323 24.3122
Pd 12.9041 26.2239 24.3119
Co 12.8974 28.1394 22.4007
Pd 11.0042 26.2229 26.2185
Pd 11.005 28.1302 28.1269
Pd 12.9031 26.2218 28.1261
Co 12.9029 28.1346 26.22
Pd 11.0057 26.2208 30.0304
Pd 10.9967 28.1374 31.9454
Pd 12.89 26.2197 31.9458
Co 12.8955 28.1352 30.0394
Pd 10.9933 26.2187 33.8507
Pd 10.9831 28.1439 35.7653
Pd 12.8799 26.2176 35.755
Co 12.8809 28.1393 33.8572
Pd 10.9918 26.2166 37.6578
Pd 10.9953 28.1516 39.561
Pd 12.8863 26.2155 39.5567
Co 12.8796 28.1404 37.6613
Pd 11.029 26.2145 41.4495
Pd 11.0189 28.1347 43.3515
Pd 12.9093 26.2134 43.3201
Co 12.8783 28.1594 41.4698
Pd 11.1207 26.2124 45.2109
Pd 12.9977 26.2113 47.0647
Co 12.9658 28.0826 45.198
Pd 12.8877 30.0609 9.07413
Pd 10.9998 30.0595 10.9538
Pd 10.9835 31.9895 12.8646
Pd 12.8719 30.0791 12.8688
Co 12.9209 31.9372 11.003
Pd 10.9837 30.0761 14.7603
Pd 10.9765 31.9892 16.6673
Pd 12.8759 30.0715 16.672
Co 12.8575 31.9984 14.7517
Pd 10.9848 30.0668 18.5791
Pd 10.9815 31.9687 20.4807
Pd 12.8865 30.0577 20.4897
Co 12.8768 31.9741 18.5768
Pd 10.9959 30.0495 22.4
Pd 10.9957 31.9545 24.3071
Pd 12.8963 30.048 24.3086
Co 12.8847 31.9645 22.3942
Pd 11.0059 30.0415 26.2206
Pd 10.9947 31.9523 28.1362
Pd 12.8953 30.0459 28.1336
Co 12.8904 31.9575 26.2221
Pd 10.9939 30.0452 30.0412
Pd 10.9785 31.9624 31.9626
Pd 12.8835 30.0514 31.9524
Co 12.8827 31.9602 30.0501
Pd 10.9808 30.0583 33.8621
Pd 10.9715 31.9786 35.776
Pd 12.8709 30.0609 35.7702
Co 12.8729 31.9657 33.8675
Pd 10.9778 30.0635 37.6808
Pd 10.9765 31.9747 39.5787
Pd 12.8649 30.0644 39.5734
Co 12.8515 31.9858 37.6926
Pd 10.9918 30.0426 41.4873
Pd 12.8788 30.042 43.368
Co 12.913 31.9204 41.4413
Pd 12.8569 33.8826 12.8614
Pd 10.9731 33.8783 14.7487
Pd 10.9682 35.7962 16.6674
Pd 12.8568 33.8903 16.6621
Co 12.9028 35.7491 14.7996
Pd 10.9708 33.8811 18.5608
Pd 10.9718 35.7879 20.4698
Pd 12.8726 33.8802 20.4752
Co 12.8511 35.8009 18.5515
Pd 10.9829 33.8727 22.3858
Pd 10.9827 35.7724 24.298
Pd 12.8819 33.8674 24.3067
Co 12.8757 35.7763 22.3872
Pd 10.9897 33.8624 26.2227
Pd 10.9817 35.7703 28.1495
Pd 12.8809 33.8653 28.1397
Co 12.8766 35.7728 26.2242
Pd 10.9809 33.8685 30.0596
Pd 10.9688 35.7816 31.9777
Pd 12.8696 33.8739 31.9712
Co 12.8737 35.772 30.0613
Pd 10.9669 33.8727 33.8846
Pd 10.9632 35.7857 35.7801
Pd 12.8518 33.8798 35.7843
Co 12.8471 35.7924 33.897
Pd 10.9671 33.8656 37.6967
Pd 12.8499 33.8679 39.585
Co 12.8968 35.7365 37.6489
Pd 12.8489 37.687 16.6641
Pd 10.9708 37.6794 18.5529
Pd 10.9743 39.5923 20.4741
Pd 12.8575 37.6864 20.4674
Co 12.9045 39.5465 18.6058
Pd 10.9769 37.6765 22.3699
Pd 10.9829 39.5746 24.2955
Pd 12.8733 37.6759 24.2983
Co 12.8584 39.5897 22.3664
Pd 10.9803 37.6742 26.2248
Pd 10.9819 39.5724 28.1562
Pd 12.8723 37.6738 28.1523
Co 12.8841 39.5608 26.2263
Pd 10.9749 37.6723 30.0797
Pd 10.9713 39.5859 31.9776
Pd 12.8545 37.68 31.9832
Co 12.8563 39.5854 30.0863
Pd 10.9668 37.6709 33.8967
Pd 12.8439 37.6764 35.7865
Co 12.9006 39.5381 33.8469
Pd 12.8575 41.4752 20.4756
Pd 10.9859 41.4623 22.3706
Pd 11.0015 43.3524 24.3043
Pd 12.872 41.4635 24.2971
Co 12.9196 43.3162 22.423
Pd 11.0118 41.4333 26.2269
Pd 11.0005 43.3502 28.1516
Pd 12.871 41.4614 28.1577
Co 12.8822 43.3482 26.2284
Pd 10.9839 41.458 30.0832
Pd 12.8545 41.4689 31.9791
Co 12.9176 43.312 30.0338
Pd 12.8792 45.2151 24.3039
Pd 11.0656 45.1556 26.229
Pd 12.8782 45.213 28.155
Co 13.0165 46.9656 26.2305
Pd 14.7983 5.34475 24.2654
Pd 16.7286 3.55332 24.3339
Co 16.7443 5.36941 22.4279
Pd 14.8582 3.62725 26.207
Pd 14.7973 5.3426 28.1504
Pd 16.7277 3.55125 28.081
Co 16.7085 5.37931 26.2084
Co 16.7424 5.36524 29.989
Pd 14.7762 9.0706 20.458
Pd 16.6735 7.19714 20.4735
Co 16.7165 9.11696 18.5994
Pd 14.7876 7.21554 22.3525
Pd 14.778 9.08992 24.2806
Pd 16.6847 7.21606 24.2837
Co 16.6665 9.07906 22.3556
Pd 14.8067 7.23666 26.209
Pd 14.777 9.08779 28.1394
Pd 16.6837 7.21393 28.1352
Co 16.6864 9.10746 26.2105
Pd 14.7856 7.21128 30.0655
Pd 14.7732 9.06424 31.962
Pd 16.6705 7.19081 31.9454
Co 16.6645 9.0748 30.0653
Co 16.7126 9.10855 33.8216
Pd 14.7645 12.8525 16.6509
Pd 16.6553 10.9718 16.6552
Co 16.7039 12.9069 14.788
Pd 14.7706 10.9739 18.5391
Pd 14.762 12.86 20.4542
Pd 16.6605 10.9743 20.4576
Co 16.6491 12.8542 18.5398
Pd 14.7703 10.9789 22.3561
Pd 14.7694 12.8747 24.2851
Pd 16.6729 10.9841 24.2858
Co 16.6706 12.8777 22.3755
Pd 14.7695 10.9811 26.211
Pd 14.7684 12.8726 28.1391
Pd 16.6719 10.9819 28.1372
Co 16.671 12.8774 26.2126
Pd 14.7683 10.9746 30.0659
Pd 14.759 12.8537 31.97
Pd 16.6575 10.968 31.9655
Co 16.6686 12.8734 30.0496
Pd 14.7666 10.9654 33.8829
Pd 14.7596 12.8419 35.7733
Pd 16.6503 10.9613 35.7679
Co 16.6451 12.8457 33.8853
Co 16.6979 12.8943 37.6372
Pd 14.7677 16.6579 12.8513
Pd 16.6522 14.7733 12.8507
Co 16.7123 16.7184 10.9907
Pd 14.7642 14.7694 14.734
Pd 14.758 16.6549 16.6505
Pd 16.6503 14.7624 16.65
Co 16.6463 16.6513 14.7407
Pd 14.759 14.763 18.5433
Pd 14.7639 16.6673 20.4643
Pd 16.6638 14.7672 20.4637
Co 16.6657 16.6696 18.5652
Pd 14.7643 14.7673 22.3723
Pd 14.7745 16.6743 24.2965
Pd 16.6719 14.7767 24.296
Co 16.6713 16.6741 22.3842
Pd 14.7723 14.7741 26.2131
Pd 14.7735 16.6722 28.1319
Pd 16.6709 14.7746 28.1313
Co 16.6758 16.6775 26.2147
Pd 14.7623 14.763 30.0539
Pd 14.7609 16.6609 31.9641
Pd 16.6608 14.7609 31.9635
Co 16.6693 16.6698 30.0452
Pd 14.755 14.7546 33.883
Pd 14.753 16.6443 35.7778
Pd 16.6453 14.7519 35.7773
Co 16.6617 16.6611 33.8642
Pd 14.7583 14.7567 37.6923
Pd 14.7607 16.6432 39.5771
Pd 16.6452 14.7585 39.5765
Co 16.6403 16.6386 37.6886
Co 16.7044 16.7016 41.4387
Pd 14.7927 20.4776 9.0669
Pd 16.6756 18.5948 9.0595
Co 16.7512 20.5467 7.214
Pd 14.7784 18.5822 10.9394
Pd 14.7685 20.4651 12.8614
Pd 16.6558 18.568 12.8595
Co 16.6622 20.4649 10.9594
Pd 14.7605 18.5654 14.7467
Pd 14.7654 20.4748 16.6639
Pd 16.6629 18.5674 16.6628
Co 16.6687 20.4783 14.7734
Pd 14.7641 18.5678 18.5633
Pd 14.7783 20.483 20.481
Pd 16.6728 18.5773 20.4798
Co 16.6725 20.4817 18.5777
Pd 14.7758 18.5774 22.3858
Pd 14.7851 20.4869 24.3032
Pd 16.6791 18.5814 24.3023
Co 16.6821 20.4875 22.3946
Pd 14.7789 18.5782 26.2152
Pd 14.7841 20.4848 28.1294
Pd 16.6782 18.5793 28.1292
Co 16.6845 20.4876 26.2168
Pd 14.7739 18.5732 30.0446
Pd 14.7753 20.4767 31.9516
Pd 16.6698 18.5709 31.9516
Co 16.6801 20.4833 30.039
Pd 14.7601 18.5594 33.8672
Pd 14.7605 20.4642 35.7687
Pd 16.6579 18.5569 35.7686
Co 16.6686 20.4733 33.8559
Pd 14.7545 18.5527 37.6837
Pd 14.7615 20.4503 39.5711
Pd 16.6488 18.5533 39.5719
Co 16.6627 20.4656 37.6602
Pd 14.7705 18.5653 41.491
Pd 14.7838 20.4587 43.3657
Pd 16.6667 18.5758 43.372
Co 16.6543 20.448 41.4742
Co 16.7413 20.5257 45.2197
Pd 14.8522 24.3138 5.33145
Pd 16.7436 22.4284 5.30191
Co 16.8436 24.3904 3.59746
Pd 14.8199 22.4048 7.16902
Pd 14.8038 24.2955 9.09587
Pd 16.6843 22.3884 9.0913
Co 16.7085 24.2887 7.21183
Pd 14.78 22.383 10.966
Pd 14.7766 24.3025 12.877
Pd 16.6718 22.3858 12.879
Co 16.6866 24.3078 10.9984
Pd 14.7697 22.3843 14.7705
Pd 14.7782 24.3073 16.6805
Pd 16.6735 22.3929 16.6822
Co 16.6748 24.3068 14.7865
Pd 14.7779 22.393 18.5792
Pd 14.7863 24.3098 20.4897
Pd 16.6824 22.3971 20.4902
Co 16.6809 24.3104 18.5893
Pd 14.7881 22.3966 22.3952
Pd 14.7964 24.31 24.3078
Pd 16.6891 22.3981 24.3076
Co 16.6894 24.3107 22.4002
Pd 14.7916 22.3967 26.2174
Pd 14.7954 24.3079 28.129
Pd 16.6881 22.396 28.1281
Co 16.6934 24.3092 26.2189
Pd 14.7862 22.3923 30.0395
Pd 14.7833 24.3035 31.9471
Pd 16.6794 22.3907 31.9455
Co 16.6874 24.3065 30.0376
Pd 14.7739 22.3845 33.8555
Pd 14.7732 24.2967 35.7563
Pd 16.6685 22.3823 35.7534
Co 16.6769 24.302 33.8485
Pd 14.7637 22.3716 37.6642
Pd 14.7697 24.2878 39.5598
Pd 16.6649 22.3711 39.5567
Co 16.6688 24.2942 37.6513
Pd 14.7721 22.3662 41.4687
Pd 14.7948 24.2766 43.3409
Pd 16.6754 22.3694 43.3444
Co 16.6786 24.291 41.4394
Pd 14.81 22.3838 45.2657
Pd 14.8414 24.2907 47.1054
Pd 16.7327 22.4053 47.1338
Co 16.6986 24.2677 45.2259
Co 16.8319 24.3654 48.8405
Pd 15.0367 26.2353 3.50613
Pd 14.8524 28.1548 5.33358
Pd 16.7709 26.2342 5.41669
Co 16.8438 28.0799 3.5995
Pd 14.841 26.2333 7.22134
Pd 14.8039 28.169 9.09801
Pd 16.7024 26.2321 9.11066
Co 16.7087 28.1777 7.21398
Pd 14.7929 26.2312 10.9924
Pd 14.7768 28.1578 12.8792
Pd 16.6799 26.2301 12.897
Co 16.6867 28.1544 11.0005
Pd 14.7814 26.2291 14.7836
Pd 14.7784 28.1488 16.6826
Pd 16.6788 26.228 16.6905
Co 16.6749 28.1512 14.7886
Pd 14.7833 26.227 18.587
Pd 14.7865 28.1421 20.4918
Pd 16.6863 26.2259 20.4959
Co 16.681 28.1434 18.5914
Pd 14.7932 26.2249 22.4001
Pd 14.7965 28.1377 24.3099
Pd 16.6941 26.2237 24.31
Co 16.6896 28.1389 22.4023
Pd 14.8003 26.2228 26.2195
Pd 14.7955 28.1356 28.1311
Pd 16.6931 26.2216 28.1299
Co 16.6936 28.1361 26.221
Pd 14.7912 26.2207 30.0389
Pd 14.7835 28.1357 31.9493
Pd 16.6833 26.2195 31.944
Co 16.6876 28.1347 30.0398
Pd 14.7794 26.2186 33.8519
Pd 14.7734 28.1383 35.7585
Pd 16.6738 26.2174 35.7494
Co 16.6771 28.135 33.8506
Pd 14.7755 26.2165 37.6553
Pd 14.7698 28.143 39.5619
Pd 16.673 26.2153 39.5429
Co 16.669 28.1386 37.6534
Pd 14.7849 26.2144 41.4465
Pd 14.795 28.1501 43.3431
Pd 16.6935 26.2132 43.3293
Co 16.6788 28.1376 41.4415
Pd 14.8311 26.2123 45.2176
Pd 14.8415 28.1317 47.1075
Pd 16.7601 26.2112 47.0233
Co 16.6988 28.1567 45.2281
Pd 15.0249 26.2102 48.9329
Co 16.832 28.0549 48.8425
Pd 16.7439 30.0401 5.30611
Pd 14.8203 30.0618 7.17325
Pd 14.7932 31.9869 9.07326
Pd 16.6846 30.0759 9.09555
Co 16.7517 31.9196 7.22029
Pd 14.7803 30.0794 10.9703
Pd 14.769 31.9952 12.8678
Pd 16.6721 30.0743 12.8832
Co 16.6627 31.9973 10.9657
Pd 14.77 30.0739 14.7747
Pd 14.7659 31.9813 16.6702
Pd 16.6738 30.063 16.6865
Co 16.6692 31.9798 14.7798
Pd 14.7782 30.061 18.5835
Pd 14.7788 31.9689 20.4873
Pd 16.6827 30.0546 20.4944
Co 16.673 31.9721 18.584
Pd 14.7885 30.0532 22.3995
Pd 14.7856 31.9607 24.3095
Pd 16.6894 30.0494 24.3118
Co 16.6826 31.9621 22.401
Pd 14.7919 30.0489 26.2216
Pd 14.7846 31.9586 28.1358
Pd 16.6884 30.0472 28.1323
Co 16.685 31.9578 26.2231
Pd 14.7865 30.049 30.0437
Pd 14.7758 31.9626 31.958
Pd 16.6797 30.0483 31.9497
Co 16.6806 31.9578 30.0453
Pd 14.7742 30.0526 33.8597
Pd 14.761 31.9708 35.775
Pd 16.6689 30.0525 35.7577
Co 16.6691 31.9637 33.8622
Pd 14.764 30.0613 37.6685
Pd 14.762 31.9805 39.5775
Pd 16.6652 30.0596 39.5609
Co 16.6632 31.9671 37.6665
Pd 14.7724 30.0625 41.4729
Pd 14.7843 31.9679 43.372
Pd 16.6757 30.057 43.3486
Co 16.6548 31.9805 41.4805
Pd 14.8103 30.0407 45.2699
Pd 16.733 30.0169 47.138
Co 16.7418 31.8986 45.2259
Pd 16.6763 33.8695 9.06794
Pd 14.7791 33.8802 10.9479
Pd 14.7685 35.8024 12.8618
Pd 16.6565 33.8921 12.868
Co 16.7131 35.7438 11.0012
Pd 14.7611 33.8928 14.7552
Pd 14.7588 35.8012 16.6611
Pd 16.6635 33.8885 16.6713
Co 16.6471 35.8068 14.7513
Pd 14.7647 33.8862 18.5717
Pd 14.7647 35.7846 20.4748
Pd 16.6734 33.8744 20.4883
Co 16.6665 35.7843 18.5757
Pd 14.7765 33.8724 22.3943
Pd 14.7753 35.7733 24.3071
Pd 16.6798 33.8661 24.3108
Co 16.6721 35.7755 22.3947
Pd 14.7796 33.8674 26.2237
Pd 14.7743 35.7712 28.1424
Pd 16.6788 33.8639 28.1376
Co 16.6766 35.7679 26.2252
Pd 14.7745 33.8682 30.0531
Pd 14.7617 35.7783 31.9747
Pd 16.6704 33.8681 31.9601
Co 16.6701 35.7713 30.0558
Pd 14.7608 33.8777 33.8756
Pd 14.7538 35.7907 35.7884
Pd 16.6585 33.878 35.7771
Co 16.6625 35.7758 33.8747
Pd 14.7552 33.8802 37.6922
Pd 14.7616 35.7876 39.5877
Pd 16.6495 33.8773 39.5804
Co 16.6412 35.7941 37.6992
Pd 14.7711 33.8633 41.4995
Pd 16.6674 33.8506 43.3804
Co 16.7052 35.727 41.4492
Pd 16.6532 37.6869 12.8634
Pd 14.7652 37.6888 14.7467
Pd 14.7657 39.6036 16.6656
Pd 16.6513 37.6935 16.6626
Co 16.7051 39.5511 14.8027
Pd 14.76 37.691 18.5559
Pd 14.7632 39.5919 20.4689
Pd 16.6648 37.6845 20.4764
Co 16.6503 39.5997 18.5546
Pd 14.7653 37.6825 22.385
Pd 14.7705 39.573 24.2999
Pd 16.6729 37.6708 24.3086
Co 16.6717 39.572 22.3903
Pd 14.7733 37.6715 26.2258
Pd 14.7695 39.5709 28.1538
Pd 16.6719 37.6687 28.144
Co 16.6721 39.568 26.2273
Pd 14.7633 37.6783 30.0666
Pd 14.7602 39.5855 31.9847
Pd 16.6618 37.6781 31.9762
Co 16.6697 39.5677 30.0644
Pd 14.756 37.6825 33.8957
Pd 14.7607 39.593 35.7881
Pd 16.6463 37.683 35.7899
Co 16.6463 39.5912 33.9001
Pd 14.7593 37.6761 37.7049
Pd 16.6462 37.6721 39.5892
Co 16.6991 39.5384 37.6519
Pd 16.6566 41.4841 16.672
Pd 14.7719 41.4801 18.556
Pd 14.7777 43.3813 20.477
Pd 16.6618 41.4774 20.4744
Co 16.718 43.3368 18.6183
Pd 14.7717 41.4709 22.373
Pd 14.7795 43.3578 24.2996
Pd 16.6742 41.4634 24.3027
Co 16.668 43.3706 22.3746
Pd 14.7708 41.4644 26.2279
Pd 14.7785 43.3556 28.1583
Pd 16.6732 41.4613 28.1541
Co 16.6879 43.3379 26.2294
Pd 14.7697 41.4667 30.0828
Pd 14.7747 43.3749 31.9809
Pd 16.6588 41.471 31.9823
Co 16.666 43.3663 30.0843
Pd 14.7679 41.4717 33.8998
Pd 16.6516 41.4736 35.7847
Co 16.7141 43.3284 33.8406
Pd 16.6751 45.2546 20.4945
Pd 14.7893 45.2343 22.3735
Pd 14.8001 47.1029 24.2885
Pd 16.6863 45.2314 24.3047
Co 16.7462 47.0801 22.451
Pd 14.8084 45.2089 26.23
Pd 14.7991 47.1008 28.1735
Pd 16.6853 45.2293 28.1562
Co 16.7104 47.0661 26.2315
Pd 14.7873 45.23 30.0865
Pd 16.6721 45.2482 31.9664
Co 16.7442 47.076 30.012
Pd 16.7306 48.8941 24.3589
Pd 14.8602 48.8183 26.232
Pd 16.7296 48.8921 28.1061
Pd 18.5974 5.30084 20.482
Pd 20.5368 3.52938 20.5235
Co 20.547 5.36194 18.6275
Pd 18.6344 3.5344 22.4272
Pd 18.6344 5.34735 24.3296
Pd 20.5074 3.4415 24.3029
Co 20.5149 5.32813 22.4048
Pd 18.6033 3.45889 26.2079
Pd 18.6334 5.34528 28.0883
Pd 20.5064 3.43939 28.1139
Co 20.5248 5.29984 26.2094
Pd 18.6324 3.53022 29.9887
Pd 18.5944 5.29451 31.9358
Pd 20.5339 3.5231 31.8933
Co 20.5129 5.32393 30.014
Co 20.5431 5.35356 33.7914
Pd 18.5794 9.06676 16.6605
Pd 20.4767 7.20205 16.672
Co 20.5201 9.12968 14.7966
Pd 18.593 7.19509 18.5571
Pd 18.5791 9.07723 20.4672
Pd 20.4881 7.19696 20.485
Co 20.4678 9.07528 18.5565
Pd 18.5969 7.20023 22.3753
Pd 18.5883 9.10158 24.2842
Pd 20.5157 7.21465 24.3052
Co 20.4959 9.1002 22.3886
Pd 18.6017 7.23571 26.21
Pd 18.5873 9.09945 28.1377
Pd 20.5147 7.21254 28.1157
Co 20.5031 9.1102 26.2115
Pd 18.5949 7.196 30.0446
Pd 18.5761 9.07088 31.9547
Pd 20.4851 7.19064 31.9358
Co 20.4939 9.09598 30.0343
Pd 18.589 7.18664 33.8627
Pd 18.5745 9.05621 35.7615
Pd 20.4717 7.19151 35.7488
Co 20.4638 9.06682 33.8664
Co 20.5142 9.11707 37.6264
Pd 18.5719 12.8616 12.8513
Pd 20.4651 10.9882 12.8555
Co 20.5189 12.9262 10.9945
Pd 18.5747 10.9773 14.738
Pd 18.5612 12.8604 16.652
Pd 20.4623 10.9801 16.6582
Co 20.4546 12.8616 14.7431
Pd 18.5688 10.9739 18.5501
Pd 18.5682 12.8751 20.4651
Pd 20.4797 10.9839 20.4716
Co 20.4758 12.8799 18.5682
Pd 18.5741 10.9848 22.3751
Pd 18.5779 12.8833 24.2966
Pd 20.4908 10.9971 24.298
Co 20.4824 12.8866 22.3857
Pd 18.5813 10.9905 26.212
Pd 18.5769 12.8812 28.1296
Pd 20.4898 10.995 28.1271
Co 20.4862 12.8912 26.2136
Pd 18.5721 10.9806 30.0489
Pd 18.5652 12.8687 31.9611
Pd 20.4767 10.9776 31.9535
Co 20.4804 12.8824 30.0415
Pd 18.5648 10.9654 33.8739
Pd 18.5562 12.8499 35.7741
Pd 20.4573 10.9695 35.7668
Co 20.4718 12.8714 33.8589
Pd 18.5688 10.9646 37.686
Pd 18.565 12.8469 39.5748
Pd 20.4582 10.9734 39.5696
Co 20.4486 12.8489 37.684
Co 20.511 12.9094 41.4327
Pd 18.5881 16.6821 9.05895
Pd 20.4708 14.799 9.06524
Co 20.5395 16.7581 7.2129
Pd 18.5759 14.7844 10.9383
Pd 18.5625 16.6612 12.859
Pd 20.4594 14.7737 12.8598
Co 20.4588 16.668 10.9583
Pd 18.5602 14.7653 14.7456
Pd 18.563 16.6671 16.6622
Pd 20.4701 14.7695 16.6622
Co 20.4733 16.6734 14.7723
Pd 18.5638 14.7678 18.5622
Pd 18.574 16.6759 20.4793
Pd 20.4795 14.7813 20.4793
Co 20.4778 16.6761 18.5766
Pd 18.5744 14.7785 22.3847
Pd 18.5792 16.6812 24.3018
Pd 20.4846 14.787 24.3015
Co 20.4848 16.6845 22.3935
Pd 18.5764 14.7804 26.2141
Pd 18.5782 16.6791 28.1286
Pd 20.4836 14.7848 28.1278
Co 20.486 16.6858 26.2157
Pd 18.5725 14.7742 30.0435
Pd 18.571 16.6696 31.9511
Pd 20.4765 14.7749 31.9499
Co 20.4828 16.6803 30.0378
Pd 18.5598 14.7593 33.8661
Pd 18.558 16.6566 35.7681
Pd 20.4652 14.759 35.767
Co 20.4738 16.6677 33.8548
Pd 18.5542 14.7526 37.6826
Pd 18.5555 16.6464 39.5713
Pd 20.4524 14.7589 39.5695
Co 20.4673 16.6607 37.659
Pd 18.568 14.7675 41.4899
Pd 18.5792 16.6632 43.3714
Pd 20.4619 14.7801 43.364
Co 20.4509 16.6511 41.4731
Co 20.5296 16.7371 45.2186
Pd 18.6431 20.538 5.28877
Pd 20.5304 18.6505 5.28822
Co 20.6145 20.6224 3.56909
Pd 18.613 18.62 7.15076
Pd 18.5889 20.4828 9.08784
Pd 20.4763 18.5952 9.08729
Co 20.4973 20.5042 7.19416
Pd 18.5704 18.5763 10.9631
Pd 18.5691 20.4782 12.8805
Pd 20.4728 18.5743 12.88
Co 20.4854 20.4911 11.0018
Pd 18.564 18.5688 14.77
Pd 18.5741 20.4827 16.6826
Pd 20.4784 18.5783 16.682
Co 20.4787 20.4834 14.7915
Pd 18.5737 18.5774 18.5779
Pd 18.5815 20.4883 20.4902
Pd 20.4852 18.5845 20.4896
Co 20.4853 20.4888 18.5915
Pd 18.5804 18.583 22.3939
Pd 18.5868 20.4908 24.3071
Pd 20.4888 18.5886 24.3065
Co 20.4904 20.4928 22.4008
Pd 18.5826 18.5841 26.2162
Pd 18.5858 20.4887 28.1275
Pd 20.4878 18.5865 28.1269
Co 20.492 20.4933 26.2178
Pd 18.5784 18.5787 30.0385
Pd 18.5785 20.482 31.9444
Pd 20.4822 18.5781 31.9438
Co 20.4884 20.4886 30.0348
Pd 18.5697 18.5689 33.8545
Pd 18.5692 20.4721 35.752
Pd 20.4734 18.5677 35.7514
Co 20.4813 20.4804 33.844
Pd 18.558 18.5562 37.6624
Pd 18.5621 20.4634 39.554
Pd 20.4658 18.5596 39.5535
Co 20.4728 20.4707 37.6441
Pd 18.5625 18.5595 41.4694
Pd 18.58 20.4639 43.3467
Pd 20.4674 18.5763 43.3462
Co 20.4774 20.4743 41.4338
Pd 18.603 18.599 45.2817
Pd 18.6322 20.5149 47.1459
Pd 20.5195 18.6274 47.1453
Co 20.4874 20.4832 45.2414
Co 20.6027 20.5974 48.8667
Pd 18.7505 22.5386 3.44236
Pd 18.6662 24.3426 5.37958
Pd 20.5558 22.4535 5.36466
Co 20.5726 24.3634 3.51681
Pd 18.6154 22.4062 7.20702
Pd 18.5977 24.3076 9.12137
Pd 20.5015 22.4047 9.11768
Co 20.5403 24.3345 7.25223
Pd 18.5811 22.3892 10.9983
Pd 18.58 24.3094 12.9023
Pd 20.4838 22.3967 12.9084
Co 20.4938 24.3116 11.0266
Pd 18.5755 22.3937 14.7906
Pd 18.5796 24.3108 16.6944
Pd 20.4846 22.3977 16.6979
Co 20.485 24.312 14.8083
Pd 18.5809 22.3973 18.5909
Pd 18.5872 24.3117 20.4978
Pd 20.4906 22.4009 20.4993
Co 20.4891 24.3122 18.601
Pd 18.588 22.3998 22.401
Pd 18.5927 24.3112 24.3107
Pd 20.4945 22.402 24.3108
Co 20.4948 24.3126 22.4063
Pd 18.5905 22.3992 26.2183
Pd 18.5917 24.309 28.1281
Pd 20.4935 22.3998 28.1269
Co 20.4964 24.3113 26.2199
Pd 18.586 22.3956 30.0357
Pd 18.5842 24.3054 31.941
Pd 20.4876 22.3945 31.9384
Co 20.4928 24.3084 30.0335
Pd 18.5769 22.3888 33.8457
Pd 18.5747 24.3003 35.7444
Pd 20.4796 22.3872 35.7397
Co 20.4851 24.3038 33.8388
Pd 18.5695 22.3811 37.646
Pd 18.5731 24.2947 39.5365
Pd 20.4769 22.382 39.5292
Co 20.479 24.2994 37.6315
Pd 18.5732 22.3724 41.4384
Pd 18.5888 24.2887 43.3174
Pd 20.4926 22.3858 43.32
Co 20.4859 24.2948 41.4132