4033
Atoms. Timestep: 20140
Co 5.47751 13.0193 26.2188
Pd 3.55046 16.7336 24.346
Pd 5.34147 14.8029 24.2767
Co 5.36554 16.7488 22.4391
Pd 3.62502 14.8632 26.2192
Pd 3.55039 16.7328 28.0931
Pd 5.3414 14.8021 28.1617
Co 5.37745 16.7132 26.2196
Co 5.3654 16.7472 30.0001
Pd 3.52525 20.5416 20.5355
Pd 5.2963 18.6018 20.493
Co 5.35679 20.5514 18.6385
Pd 3.5309 18.6393 22.4392
Pd 3.43938 20.5124 24.3149
Pd 5.34487 18.639 24.3406
Co 5.325 20.5194 22.4158
Pd 3.4574 18.6084 26.2199
Pd 3.43931 20.5116 28.1259
Pd 5.3448 18.6382 28.0993
Co 5.29874 20.5295 26.2204
Pd 3.53076 18.6377 30.0007
Pd 3.52504 20.5392 31.9052
Pd 5.29608 18.5994 31.9469
Co 5.32485 20.5178 30.025
Co 5.35651 20.5482 33.8023
Pd 3.55236 24.3502 16.7307
Pd 5.31447 22.4082 16.6889
Co 5.4085 24.3531 14.838
Pd 3.53419 22.4477 18.6271
Pd 3.44313 24.3235 20.5035
Pd 5.33352 22.4425 20.5357
Co 5.34415 24.3196 18.6154
Pd 3.434 22.4176 22.4099
Pd 3.41518 24.3205 24.3153
Pd 5.28871 22.4213 24.3153
Co 5.28621 24.3297 22.4204
Pd 3.42176 22.4162 26.2208
Pd 3.41511 24.3197 28.127
Pd 5.28864 22.4205 28.1263
Co 5.27088 24.3219 26.2212
Pd 3.43386 22.416 30.0316
Pd 3.44291 24.3211 31.9388
Pd 5.33331 22.4401 31.9059
Co 5.28607 24.3281 30.0219
Pd 3.53391 22.4444 33.8144
Pd 3.552 24.3462 35.7117
Pd 5.31411 22.4042 35.7527
Co 5.34387 24.3164 33.827
Co 5.40807 24.3483 37.6044
Pd 5.3972 26.228 12.9637
Pd 3.62286 26.2279 14.8592
Pd 3.55294 28.1048 16.7315
Pd 5.39641 26.2272 16.7482
Co 5.40908 28.1022 14.8388
Pd 3.46507 26.2271 18.6007
Pd 3.44372 28.13 20.5043
Pd 5.30615 26.2265 20.5112
Co 5.34475 28.1341 18.6162
Pd 3.42366 26.2263 22.408
Pd 3.41577 28.1314 24.3161
Pd 5.27543 26.2257 24.3217
Co 5.2868 28.1224 22.4212
Pd 3.40824 26.2255 26.2216
Pd 3.4157 28.1306 28.1279
Pd 5.27536 26.2248 28.1214
Co 5.27147 28.1286 26.222
Pd 3.42351 26.2247 30.0351
Pd 3.4435 28.1275 31.9396
Pd 5.30593 26.224 31.932
Co 5.28665 28.1208 30.0228
Pd 3.46478 26.2239 33.8424
Pd 3.55258 28.1008 35.7125
Pd 5.39606 26.2232 35.695
Co 5.34446 28.1308 33.8278
Pd 3.62243 26.2231 37.5839
Pd 5.3967 26.2224 39.4795
Co 5.40865 28.0973 37.6052
Pd 5.31565 30.0463 16.6905
Pd 3.53537 30.0066 18.6287
Pd 3.52701 31.9118 20.5379
Pd 5.33469 30.0104 20.5373
Co 5.35855 31.9023 18.6409
Pd 3.43518 30.0351 22.4115
Pd 3.44115 31.9395 24.3173
Pd 5.28989 30.03 24.3169
Co 5.32676 31.9327 22.4182
Pd 3.42294 30.0348 26.2224
Pd 3.44108 31.9386 28.1283
Pd 5.28982 30.0292 28.1279
Co 5.3005 31.921 26.2228
Pd 3.43504 30.0335 30.0333
Pd 3.5268 31.9094 31.9077
Pd 5.33448 30.008 31.9075
Co 5.32662 31.931 30.0274
Pd 3.53508 30.0034 33.816
Pd 5.3153 30.0423 35.7543
Co 5.35827 31.8991 33.8047
Pd 5.29866 33.8511 20.4963
Pd 3.53325 33.8134 22.4424
Pd 3.5534 35.7182 24.35
Pd 5.34722 33.8123 24.3438
Co 5.36848 35.7032 22.4431
Pd 3.45976 33.8427 26.2232
Pd 3.55333 35.7174 28.0971
Pd 5.34715 33.8115 28.1026
Co 5.3804 35.7372 26.2236
Pd 3.53311 33.8118 30.0039
Pd 5.29844 33.8487 31.9501
Co 5.36834 35.7016 30.0041
Pd 5.34501 37.6484 24.2815
Pd 3.62854 37.5878 26.224
Pd 5.34493 37.6476 28.1665
Co 5.4816 39.4311 26.2244
Co 9.2318 9.23676 26.2181
Pd 7.22908 12.8818 24.2932
Pd 9.09162 11.0039 24.2948
Co 9.12905 12.9219 22.4135
Pd 7.28725 11.0682 26.2184
Pd 7.22901 12.8809 28.1444
Pd 9.09155 11.0031 28.1421
Co 9.09484 12.8847 26.2188
Co 9.1289 12.9203 30.0242
Pd 7.19222 16.6775 20.4837
Pd 9.06529 14.7799 20.4673
Co 9.11104 16.7201 18.6085
Pd 7.21124 14.7918 22.3627
Pd 7.21317 16.6889 24.2938
Pd 9.08665 14.7819 24.2899
Co 9.07513 16.6703 22.3648
Pd 7.23442 14.811 26.2192
Pd 7.21309 16.6881 28.1454
Pd 9.08658 14.7811 28.1486
Co 9.1056 16.6903 26.2196
Pd 7.21109 14.7901 30.0757
Pd 7.192 16.6751 31.9555
Pd 9.06507 14.7775 31.9712
Co 9.07499 16.6686 30.0745
Co 9.11075 16.7169 33.8308
Pd 7.19585 20.4805 16.682
Pd 9.06018 18.5829 16.6695
Co 9.12248 20.5235 14.8056
Pd 7.18952 18.597 18.5672
Pd 7.1928 20.4921 20.495
Pd 9.07267 18.5828 20.4763
Co 9.07008 20.4714 18.5655
Pd 7.1967 18.601 22.3854
Pd 7.21253 20.5199 24.3152
Pd 9.09906 18.5921 24.2933
Co 9.09705 20.4996 22.3976
Pd 7.23423 18.606 26.22
Pd 7.21245 20.5191 28.1257
Pd 9.09899 18.5913 28.1468
Co 9.10909 20.5071 26.2205
Pd 7.19656 18.5994 30.0546
Pd 7.19258 20.4897 31.9458
Pd 9.07246 18.5804 31.9638
Co 9.09691 20.498 30.0433
Pd 7.18924 18.5937 33.8728
Pd 7.19549 20.4765 35.7588
Pd 9.05982 18.5789 35.7706
Co 9.06979 20.4681 33.8754
Co 9.12206 20.5187 37.6354
Pd 7.23635 24.3038 12.8857
Pd 9.08587 22.3968 12.8682
Co 9.16849 24.3574 11.0275
Pd 7.2135 22.3996 14.7607
Pd 7.22944 24.2913 16.6939
Pd 9.08552 22.381 16.6764
Co 9.09564 24.2828 14.7673
Pd 7.20116 22.4003 18.586
Pd 7.21533 24.3233 20.5125
Pd 9.09425 22.3972 20.4927
Co 9.10887 24.3061 18.5949
Pd 7.20796 22.4177 22.4178
Pd 7.18559 24.3239 24.3198
Pd 9.10546 22.4187 24.3197
Co 9.10585 24.3179 22.4136
Pd 7.18976 22.4224 26.2208
Pd 7.18552 24.3231 28.1226
Pd 9.10539 22.4178 28.1221
Co 9.09976 24.3223 26.2213
Pd 7.20782 22.416 30.0239
Pd 7.21511 24.3209 31.9299
Pd 9.09404 22.3948 31.949
Co 9.10571 24.3163 30.029
Pd 7.20087 22.397 33.8556
Pd 7.22908 24.2873 35.7485
Pd 9.08517 22.3769 35.7654
Co 9.10858 24.3029 33.8477
Pd 7.21307 22.3947 37.681
Pd 7.23585 24.2981 39.5568
Pd 9.08537 22.3912 39.5735
Co 9.09521 24.278 37.6752
Co 9.16792 24.351 41.415
Pd 9.17641 26.2283 9.1664
Pd 7.32097 26.2282 11.0258
Pd 7.23694 28.1518 12.8865
Pd 9.12208 26.2275 12.9056
Co 9.16907 28.0983 11.0283
Pd 7.25544 26.2274 14.7904
Pd 7.23004 28.1626 16.6947
Pd 9.10974 26.2267 16.687
Co 9.09625 28.1713 14.7681
Pd 7.23994 26.2266 18.616
Pd 7.21592 28.129 20.5133
Pd 9.11591 26.2259 20.5161
Co 9.10946 28.1464 18.5957
Pd 7.1918 26.2258 22.4188
Pd 7.18618 28.1268 24.3206
Pd 9.09963 26.2251 24.3184
Co 9.10644 28.1331 22.4144
Pd 7.18066 26.225 26.2216
Pd 7.1861 28.126 28.1234
Pd 9.09956 26.2243 28.1249
Co 9.10035 28.127 26.2221
Pd 7.19166 26.2241 30.0245
Pd 7.2157 28.1266 31.9307
Pd 9.1157 26.2234 31.9272
Co 9.1063 28.1314 30.0298
Pd 7.23965 26.2233 33.8272
Pd 7.22968 28.1586 35.7493
Pd 9.10938 26.2226 35.7564
Co 9.10918 28.1432 33.8485
Pd 7.25501 26.2225 37.6529
Pd 7.23644 28.1461 39.5576
Pd 9.12158 26.2218 39.5378
Co 9.09582 28.1665 37.6761
Pd 7.3204 26.2217 41.4175
Pd 9.17577 26.221 43.2769
Co 9.1685 28.0919 41.4158
Pd 9.08706 30.0581 12.8698
Pd 7.21469 30.0552 14.7623
Pd 7.19763 31.9734 16.6844
Pd 9.08672 30.0724 16.678
Co 9.12425 31.9307 14.808
Pd 7.20234 30.0529 18.5876
Pd 7.19457 31.9602 20.4974
Pd 9.09544 30.0545 20.4944
Co 9.07186 31.9812 18.568
Pd 7.20914 30.0339 22.4194
Pd 7.21429 31.9308 24.3176
Pd 9.10664 30.0315 24.3213
Co 9.09883 31.9513 22.4
Pd 7.19094 30.0275 26.2224
Pd 7.21422 31.93 28.1281
Pd 9.10657 30.0307 28.1237
Co 9.11086 31.9422 26.2229
Pd 7.209 30.0323 30.0255
Pd 7.19436 31.9578 31.9483
Pd 9.09523 30.0521 31.9506
Co 9.09868 31.9497 30.0457
Pd 7.20206 30.0496 33.8572
Pd 7.19727 31.9694 35.7613
Pd 9.08636 30.0683 35.767
Co 9.07157 31.9779 33.8778
Pd 7.21426 30.0503 37.6826
Pd 9.08656 30.0525 39.5751
Co 9.12382 31.9258 37.6378
Pd 9.06254 33.8704 16.6728
Pd 7.19188 33.8562 18.5704
Pd 7.19517 35.7748 20.4877
Pd 9.07504 33.869 20.4795
Co 9.11398 35.7324 18.6125
Pd 7.19906 33.8505 22.3886
Pd 7.21612 35.7618 24.2979
Pd 9.10143 33.858 24.2965
Co 9.07809 35.7807 22.3688
Pd 7.23659 33.8439 26.2232
Pd 7.21605 35.761 28.1494
Pd 9.10135 33.8572 28.15
Co 9.10855 35.759 26.2237
Pd 7.19892 33.8489 30.0579
Pd 7.19496 35.7724 31.9596
Pd 9.07483 33.8665 31.967
Co 9.07795 35.7791 30.0786
Pd 7.1916 33.8529 33.8761
Pd 9.06219 33.8664 35.7738
Co 9.1137 35.7292 33.8348
Pd 9.06883 37.6719 20.4721
Pd 7.21478 37.6598 22.3676
Pd 7.23321 39.569 24.2989
Pd 9.09019 37.6682 24.2947
Co 9.13317 39.529 22.4191
Pd 7.23795 37.6389 26.2241
Pd 7.23314 39.5681 28.15
Pd 9.09012 37.6674 28.1535
Co 9.09898 39.5647 26.2245
Pd 7.21464 37.6581 30.0806
Pd 9.06862 37.6694 31.9761
Co 9.13302 39.5274 30.0299
Pd 9.09633 41.4463 24.3012
Pd 7.29194 41.3817 26.2248
Pd 9.09626 41.4454 28.1485
Co 9.23706 43.2125 26.2253
Co 13.0132 5.4813 26.2173
Pd 10.9985 9.0964 24.2944
Pd 12.8758 7.23329 24.2921
Co 12.9161 9.1336 22.4127
Pd 11.0627 7.29164 26.2177
Pd 10.9984 9.09559 28.1417
Pd 12.8757 7.23247 28.1433
Co 12.8797 9.09868 26.2181
Co 12.916 9.13199 30.0235
Pd 10.9711 12.8594 20.4671
Pd 12.8539 10.9761 20.4668
Co 12.9009 12.9062 18.5983
Pd 10.9828 10.988 22.3622
Pd 10.9807 12.8742 24.2886
Pd 12.8694 10.9849 24.2882
Co 12.8556 12.8602 22.3589
Pd 11.0096 11.014 26.2185
Pd 10.9806 12.8734 28.1492
Pd 12.8693 10.9841 28.1488
Co 12.8823 12.8861 26.2189
Pd 10.9826 10.9863 30.0748
Pd 10.9709 12.857 31.9706
Pd 12.8537 10.9737 31.9703
Co 12.8555 12.8586 30.0789
Co 12.9006 12.903 33.8395
Pd 10.9648 16.6584 16.6633
Pd 12.8452 14.7673 16.6581
Co 12.899 16.7065 14.7951
Pd 10.9675 14.7738 18.5474
Pd 10.9694 16.6638 20.4657
Pd 12.8547 14.7649 20.4614
Co 12.8482 16.6519 18.547
Pd 10.9746 14.7737 22.3644
Pd 10.9812 16.6764 24.294
Pd 12.8714 14.7725 24.2923
Co 12.8738 16.6736 22.3826
Pd 10.9789 14.7731 26.2193
Pd 10.9811 16.6756 28.1454
Pd 12.8713 14.7717 28.1463
Co 12.8755 16.6742 26.2197
Pd 10.9744 14.7721 30.0742
Pd 10.9692 16.6614 31.9736
Pd 12.8545 14.7625 31.9772
Co 12.8736 16.672 30.0568
Pd 10.9673 14.7705 33.8912
Pd 10.9645 16.6543 35.776
Pd 12.8448 14.7632 35.7805
Co 12.8479 16.6487 33.8925
Co 12.8986 16.7017 37.6443
Pd 10.9799 20.4681 12.8634
Pd 12.853 18.5745 12.8583
Co 12.917 20.5214 11.0014
Pd 10.9697 18.5778 14.7461
Pd 10.9738 20.4654 16.6662
Pd 12.8538 18.5639 16.6591
Co 12.8544 20.4573 14.75
Pd 10.9683 18.572 18.5582
Pd 10.9798 20.483 20.4795
Pd 12.8705 18.5711 20.4721
Co 12.8747 20.4786 18.5752
Pd 10.9813 18.5775 22.3832
Pd 10.995 20.4943 24.306
Pd 12.8808 18.581 24.3036
Co 12.8834 20.4854 22.3926
Pd 10.989 18.5849 26.2201
Pd 10.9949 20.4935 28.135
Pd 12.8807 18.5802 28.1366
Co 12.8901 20.4894 26.2205
Pd 10.9811 18.5759 30.057
Pd 10.9796 20.4805 31.9614
Pd 12.8703 18.5686 31.9681
Co 12.8833 20.4838 30.0484
Pd 10.968 18.5688 33.882
Pd 10.9735 20.4614 35.7748
Pd 12.8535 18.5598 35.7812
Co 12.8744 20.4754 33.8658
Pd 10.9692 18.5729 37.6941
Pd 10.9794 20.4624 39.5775
Pd 12.8525 18.5688 39.5819
Co 12.854 20.4524 37.691
Co 12.9164 20.5149 41.4397
Pd 11.0242 24.3067 9.08936
Pd 12.8837 22.3991 9.07397
Co 12.9716 24.3579 7.24338
Pd 10.9961 22.3995 10.9541
Pd 10.9995 24.2912 12.8799
Pd 12.8687 22.378 12.8686
Co 12.883 24.2823 10.9716
Pd 10.981 22.3799 14.7606
Pd 10.9862 24.3002 16.6756
Pd 12.8737 22.3828 16.6719
Co 12.8832 24.3026 14.7801
Pd 10.983 22.3864 18.5794
Pd 10.9987 24.308 20.4954
Pd 12.8852 22.3936 20.4896
Co 12.8835 24.305 18.5841
Pd 10.995 22.4008 22.4003
Pd 11.006 24.3165 24.314
Pd 12.8959 22.4003 24.3084
Co 12.897 24.3104 22.402
Pd 11.006 22.4058 26.2209
Pd 11.0059 24.3157 28.1286
Pd 12.8958 22.3995 28.1335
Co 12.9034 24.3124 26.2213
Pd 10.9949 22.3992 30.0415
Pd 10.9985 24.3055 31.9472
Pd 12.8849 22.3911 31.9523
Co 12.8969 24.3088 30.0407
Pd 10.9827 22.3832 33.8624
Pd 10.9858 24.2961 35.767
Pd 12.8733 22.3787 35.77
Co 12.8832 24.3018 33.8585
Pd 10.9806 22.3751 37.6811
Pd 10.999 24.2855 39.5627
Pd 12.8682 22.3724 39.5732
Co 12.8828 24.2978 37.6626
Pd 10.9956 22.393 41.4876
Pd 11.0235 24.2995 43.3532
Pd 12.883 22.3919 43.3679
Co 12.8824 24.2758 41.4711
Co 12.9708 24.3498 45.1993
Pd 13.0044 26.2285 5.37603
Pd 11.1268 26.2284 7.22933
Pd 11.0248 28.1492 9.09017
Pd 12.9149 26.2277 9.12059
Co 12.9721 28.0983 7.24417
Pd 11.0341 26.2276 10.9907
Pd 11.0001 28.1632 12.8807
Pd 12.8909 26.2269 12.884
Co 12.8836 28.1723 10.9724
Pd 10.9958 26.2268 14.7823
Pd 10.9868 28.1526 16.6764
Pd 12.8835 26.2261 16.6857
Co 12.8838 28.1504 14.7809
Pd 10.9963 26.226 18.5895
Pd 10.9993 28.1432 20.4962
Pd 12.8924 26.2253 20.4949
Co 12.8841 28.1464 18.5849
Pd 11.0076 26.2252 22.4097
Pd 11.0066 28.1331 24.3148
Pd 12.9045 26.2245 24.3146
Co 12.8976 28.1393 22.4028
Pd 11.0051 26.2244 26.2217
Pd 11.0065 28.1323 28.1294
Pd 12.9044 26.2237 28.1288
Co 12.9039 28.1358 26.2221
Pd 11.0075 26.2236 30.0337
Pd 10.9991 28.1408 31.948
Pd 12.8922 26.2229 31.9486
Co 12.8974 28.1377 30.0415
Pd 10.996 26.2227 33.8539
Pd 10.9864 28.1485 35.7678
Pd 12.8831 26.2221 35.7578
Co 12.8838 28.1431 33.8593
Pd 10.9954 26.2219 37.6611
Pd 10.9996 28.1575 39.5635
Pd 12.8904 26.2212 39.5594
Co 12.8834 28.1455 37.6634
Pd 11.0336 26.2211 41.4527
Pd 11.0241 28.142 43.3541
Pd 12.9143 26.2204 43.3229
Co 12.883 28.1659 41.4719
Pd 11.1261 26.2203 45.2141
Pd 13.0036 26.2196 47.0675
Co 12.9714 28.0903 45.2001
Pd 12.8848 30.0563 9.07559
Pd 10.9973 30.0557 10.9558
Pd 10.9817 31.9863 12.8659
Pd 12.8699 30.0758 12.8702
Co 12.9187 31.9332 11.0038
Pd 10.9822 30.0737 14.7623
Pd 10.9756 31.9874 16.6686
Pd 12.8748 30.0694 16.6735
Co 12.8562 31.9957 14.7525
Pd 10.9842 30.0656 18.581
Pd 10.9815 31.9682 20.482
Pd 12.8864 30.057 20.4912
Co 12.8765 31.9727 18.5776
Pd 10.9962 30.0496 22.4019
Pd 10.9967 31.9552 24.3084
Pd 12.8971 30.0486 24.31
Co 12.8852 31.9644 22.395
Pd 11.0071 30.0429 26.2225
Pd 10.9967 31.9544 28.1374
Pd 12.897 30.0478 28.1351
Co 12.8919 31.9587 26.223
Pd 10.9961 30.048 30.0431
Pd 10.9813 31.9658 31.9639
Pd 12.8861 30.0546 31.9539
Co 12.8851 31.9628 30.0509
Pd 10.9839 30.0623 33.864
Pd 10.9753 31.9833 35.7772
Pd 12.8745 30.0654 35.7716
Co 12.8762 31.9695 33.8683
Pd 10.9818 30.0688 37.6828
Pd 10.9812 31.9807 39.58
Pd 12.8694 30.0701 39.5749
Co 12.8557 31.9909 37.6935
Pd 10.9968 30.0493 41.4893
Pd 12.8842 30.049 43.3695
Co 12.9181 31.9268 41.4421
Pd 12.8554 33.8793 12.8616
Pd 10.972 33.8758 14.7493
Pd 10.9678 35.7944 16.6674
Pd 12.8562 33.8883 16.6623
Co 12.9019 35.7464 14.7991
Pd 10.9707 33.8799 18.5614
Pd 10.9724 35.7874 20.4698
Pd 12.8729 33.8795 20.4753
Co 12.8512 35.7995 18.551
Pd 10.9836 33.8728 22.3864
Pd 10.9841 35.7732 24.298
Pd 12.8832 33.8679 24.3069
Co 12.8767 35.7762 22.3867
Pd 10.9914 33.8638 26.2233
Pd 10.9841 35.7724 28.1494
Pd 12.8831 33.8671 28.1399
Co 12.8785 35.774 26.2238
Pd 10.9835 33.8712 30.0602
Pd 10.9721 35.7849 31.9777
Pd 12.8727 33.8771 31.9714
Co 12.8766 35.7746 30.0608
Pd 10.9704 33.8767 33.8852
Pd 10.9674 35.7904 35.7801
Pd 12.8558 33.8843 35.7844
Co 12.8509 35.7962 33.8965
Pd 10.9716 33.871 37.6973
Pd 12.8549 33.8737 39.5851
Co 12.9015 35.7416 37.6484
Pd 12.8487 37.6849 16.6629
Pd 10.9711 37.6782 18.5522
Pd 10.9753 39.5917 20.4728
Pd 12.8583 37.6857 20.4663
Co 12.905 39.5452 18.604
Pd 10.9781 37.6767 22.3692
Pd 10.9848 39.5754 24.2942
Pd 12.875 37.6765 24.2972
Co 12.8598 39.5896 22.3646
Pd 10.9824 37.6757 26.2241
Pd 10.9847 39.5745 28.1549
Pd 12.8749 37.6757 28.1511
Co 12.8864 39.562 26.2246
Pd 10.978 37.675 30.079
Pd 10.9751 39.5893 31.9763
Pd 12.8581 37.6832 31.9821
Co 12.8596 39.588 30.0846
Pd 10.9708 37.6749 33.896
Pd 12.8484 37.6809 35.7854
Co 12.9047 39.5419 33.8451
Pd 12.8586 41.4745 20.4732
Pd 10.9875 41.4624 22.3686
Pd 11.0038 43.3531 24.3017
Pd 12.8741 41.4641 24.2946
Co 12.9214 43.3161 22.42
Pd 11.0143 41.4347 26.2249
Pd 11.0037 43.3523 28.149
Pd 12.8741 41.4633 28.1553
Co 12.885 43.3495 26.2254
Pd 10.9874 41.4608 30.0812
Pd 12.8584 41.4721 31.9767
Co 12.9213 43.3145 30.0308
Pd 12.8817 45.2157 24.3002
Pd 11.0685 45.1571 26.2257
Pd 12.8816 45.2149 28.1513
Co 13.0196 46.9668 26.2261
Pd 14.7964 5.34508 24.2748
Pd 16.7265 3.55347 24.3435
Co 16.742 5.36891 22.4369
Pd 14.8565 3.62825 26.217
Pd 14.7963 5.34426 28.1599
Pd 16.7264 3.55267 28.0906
Co 16.7071 5.3801 26.2174
Co 16.7418 5.36731 29.9979
Pd 14.7738 9.06964 20.4662
Pd 16.6708 7.19598 20.4818
Co 16.7136 9.11515 18.607
Pd 14.7854 7.21523 22.3612
Pd 14.7765 9.09027 24.2888
Pd 16.6829 7.21619 24.292
Co 16.6645 9.07854 22.3633
Pd 14.8054 7.23766 26.2178
Pd 14.7764 9.08945 28.1475
Pd 16.6829 7.21538 28.1436
Co 16.6853 9.10825 26.2182
Pd 14.7853 7.21359 30.0743
Pd 14.7736 9.06721 31.9701
Pd 16.6706 7.19355 31.9537
Co 16.6644 9.0769 30.073
Co 16.7134 9.11193 33.8293
Pd 14.7616 12.8503 16.6577
Pd 16.6521 10.9694 16.6622
Co 16.7005 12.9038 14.7944
Pd 14.7679 10.9723 18.5466
Pd 14.76 12.8591 20.461
Pd 16.6583 10.9732 20.4646
Co 16.6466 12.8524 18.5462
Pd 14.7685 10.9786 22.3636
Pd 14.7683 12.875 24.292
Pd 16.6716 10.9842 24.2929
Co 16.669 12.8772 22.3819
Pd 14.7687 10.9821 26.2185
Pd 14.7682 12.8742 28.1459
Pd 16.6715 10.9834 28.1443
Co 16.6703 12.8782 26.219
Pd 14.7684 10.9769 30.0734
Pd 14.7598 12.8567 31.9768
Pd 16.658 10.9707 31.9725
Co 16.6689 12.8755 30.056
Pd 14.7676 10.969 33.8904
Pd 14.7612 12.8462 35.7802
Pd 16.6517 10.9653 35.7749
Co 16.6463 12.8491 33.8917
Co 16.7001 12.899 37.6436
Pd 14.7643 16.6544 12.8568
Pd 16.6485 14.7695 12.8565
Co 16.7084 16.714 10.9958
Pd 14.761 14.7665 14.7402
Pd 14.7555 16.6526 16.6561
Pd 16.6475 14.76 16.6557
Co 16.6433 16.6482 14.7458
Pd 14.7567 14.7614 18.5495
Pd 14.7623 16.6663 20.4698
Pd 16.662 14.7661 20.4695
Co 16.6636 16.6678 18.5703
Pd 14.763 14.767 22.3786
Pd 14.7738 16.6747 24.3021
Pd 16.6711 14.7768 24.3017
Co 16.6702 16.6736 22.3893
Pd 14.7718 14.7751 26.2193
Pd 14.7737 16.6739 28.1374
Pd 16.671 14.776 28.1371
Co 16.6756 16.6783 26.2198
Pd 14.7628 14.7654 30.0601
Pd 14.7621 16.6639 31.9697
Pd 16.6617 14.7636 31.9693
Co 16.67 16.6719 30.0503
Pd 14.7564 14.7582 33.8892
Pd 14.7551 16.6486 35.7834
Pd 16.6472 14.7559 35.783
Co 16.6633 16.6645 33.8693
Pd 14.7606 14.7616 37.6985
Pd 14.7638 16.6487 39.5827
Pd 16.648 14.7638 39.5823
Co 16.6429 16.6433 37.6938
Co 16.7078 16.7075 41.4438
Pd 14.7888 20.4728 9.07117
Pd 16.6715 18.5897 9.06396
Co 16.7469 20.541 7.21777
Pd 14.7747 18.578 10.9444
Pd 14.7654 20.4615 12.8657
Pd 16.6526 18.5643 12.864
Co 16.6587 20.4605 10.9632
Pd 14.7577 18.5625 14.7516
Pd 14.7633 20.4725 16.6681
Pd 16.6605 18.565 16.6673
Co 16.6661 20.4751 14.7772
Pd 14.7622 18.5662 18.5682
Pd 14.7771 20.482 20.4852
Pd 16.6714 18.5761 20.4843
Co 16.6709 20.4799 18.5815
Pd 14.7749 18.5771 22.3908
Pd 14.7848 20.4873 24.3074
Pd 16.6787 18.5816 24.3068
Co 16.6814 20.487 22.3984
Pd 14.7789 18.5792 26.2202
Pd 14.7848 20.4865 28.1337
Pd 16.6786 18.5808 28.1336
Co 16.6847 20.4884 26.2206
Pd 14.7748 18.5755 30.0495
Pd 14.7769 20.4796 31.9559
Pd 16.6712 18.5737 31.9561
Co 16.6812 20.4854 30.0428
Pd 14.7619 18.563 33.8721
Pd 14.763 20.4685 35.773
Pd 16.6602 18.5609 35.7731
Co 16.6706 20.4767 33.8597
Pd 14.7573 18.5576 37.6887
Pd 14.7649 20.4559 39.5754
Pd 16.6521 18.5586 39.5764
Co 16.6657 20.4703 37.664
Pd 14.7741 18.5715 41.4959
Pd 14.7881 20.4655 43.3699
Pd 16.6708 18.5825 43.3764
Co 16.6581 20.454 41.478
Co 16.7462 20.533 45.2234
Pd 14.8478 24.3077 5.3344
Pd 16.739 22.4221 5.30504
Co 16.8388 24.3835 3.5999
Pd 14.8157 22.3993 7.17262
Pd 14.8003 24.2906 9.09883
Pd 16.6806 22.3833 9.09446
Co 16.7045 24.283 7.21434
Pd 14.7767 22.3788 10.9696
Pd 14.774 24.299 12.88
Pd 16.669 22.3821 12.8822
Co 16.6835 24.3034 11.0009
Pd 14.7673 22.3814 14.7741
Pd 14.7765 24.305 16.6834
Pd 16.6716 22.3904 16.6854
Co 16.6726 24.3037 14.789
Pd 14.7764 22.3914 18.5829
Pd 14.7856 24.3089 20.4926
Pd 16.6814 22.3959 20.4933
Co 16.6797 24.3086 18.5918
Pd 14.7876 22.3963 22.3988
Pd 14.7965 24.3103 24.3108
Pd 16.689 22.3983 24.3107
Co 16.6891 24.3102 22.4027
Pd 14.792 22.3977 26.221
Pd 14.7965 24.3095 28.132
Pd 16.689 22.3975 28.1313
Co 16.694 24.31 26.2214
Pd 14.7875 22.3946 30.0431
Pd 14.7854 24.3064 31.9501
Pd 16.6812 22.3935 31.9487
Co 16.689 24.3086 30.0402
Pd 14.7761 22.3881 33.8591
Pd 14.7762 24.301 35.7593
Pd 16.6713 22.3864 35.7566
Co 16.6794 24.3054 33.851
Pd 14.7669 22.3765 37.6678
Pd 14.7735 24.2933 39.5627
Pd 16.6685 22.3764 39.5598
Co 16.6722 24.2989 37.6538
Pd 14.7762 22.3724 41.4723
Pd 14.7996 24.2834 43.3439
Pd 16.6799 22.3761 43.3475
Co 16.6829 24.297 41.4419
Pd 14.815 22.3913 45.2693
Pd 14.847 24.2989 47.1083
Pd 16.7382 22.4132 47.137
Co 16.7038 24.2749 45.2285
Co 16.838 24.3739 48.8429
Pd 15.0321 26.2286 3.50838
Pd 14.8484 28.1487 5.33521
Pd 16.7668 26.2279 5.41852
Co 16.8394 28.073 3.60068
Pd 14.8373 26.2278 7.22364
Pd 14.8009 28.1642 9.09965
Pd 16.6991 26.2271 9.1125
Co 16.7052 28.172 7.21516
Pd 14.79 26.227 10.9948
Pd 14.7746 28.1542 12.8808
Pd 16.6776 26.2263 12.8989
Co 16.6841 28.15 11.0017
Pd 14.7795 26.2262 14.7859
Pd 14.7771 28.1466 16.6842
Pd 16.6773 26.2255 16.6923
Co 16.6732 28.1481 14.7898
Pd 14.7823 26.2254 18.5894
Pd 14.7862 28.1411 20.4934
Pd 16.6857 26.2247 20.4978
Co 16.6803 28.1416 18.5926
Pd 14.7931 26.2246 22.4024
Pd 14.7971 28.138 24.3116
Pd 16.6944 26.2239 24.3118
Co 16.6897 28.1384 22.4035
Pd 14.8011 26.2238 26.2218
Pd 14.797 28.1372 28.1328
Pd 16.6944 26.2231 28.1318
Co 16.6946 28.1369 26.2222
Pd 14.793 26.223 30.0412
Pd 14.786 28.1387 31.9509
Pd 16.6855 26.2223 31.9458
Co 16.6896 28.1368 30.041
Pd 14.782 26.2222 33.8542
Pd 14.7768 28.1425 35.7601
Pd 16.677 26.2215 35.7513
Co 16.68 28.1384 33.8518
Pd 14.7791 26.2214 37.6576
Pd 14.7741 28.1486 39.5635
Pd 16.6771 26.2207 39.5448
Co 16.6728 28.1433 37.6546
Pd 14.7894 26.2205 41.4488
Pd 14.8002 28.1569 43.3447
Pd 16.6985 26.2199 43.3311
Co 16.6835 28.1436 41.4427
Pd 14.8366 26.2197 45.2199
Pd 14.8476 28.1398 47.1092
Pd 16.766 26.2191 47.0251
Co 16.7044 28.164 45.2293
Pd 15.0313 26.2189 48.9352
Co 16.8385 28.0634 48.8437
Pd 16.7401 30.0337 5.30665
Pd 14.8169 30.0563 7.17424
Pd 14.7905 31.982 9.0736
Pd 16.6818 30.0709 9.09609
Co 16.7486 31.914 7.22018
Pd 14.7779 30.0752 10.9713
Pd 14.7672 31.9917 12.8681
Pd 16.6702 30.0706 12.8838
Co 16.6605 31.9929 10.9656
Pd 14.7685 30.071 14.7757
Pd 14.7651 31.9791 16.6706
Pd 16.6728 30.0606 16.687
Co 16.6679 31.9767 14.7796
Pd 14.7776 30.0594 18.5845
Pd 14.7789 31.9679 20.4877
Pd 16.6826 30.0535 20.495
Co 16.6727 31.9703 18.5839
Pd 14.7888 30.0529 22.4005
Pd 14.7866 31.9611 24.3099
Pd 16.6902 30.0495 24.3124
Co 16.6832 31.9616 22.4009
Pd 14.7932 30.0499 26.2226
Pd 14.7865 31.9603 28.1361
Pd 16.6901 30.0487 28.1329
Co 16.6865 31.9586 26.223
Pd 14.7887 30.0513 30.0447
Pd 14.7787 31.9655 31.9583
Pd 16.6824 30.0511 31.9503
Co 16.683 31.9599 30.0452
Pd 14.7773 30.0562 33.8607
Pd 14.7648 31.9751 35.7754
Pd 16.6724 30.0565 35.7582
Co 16.6724 31.9671 33.8621
Pd 14.7681 30.0662 37.6695
Pd 14.7667 31.986 39.5779
Pd 16.6697 30.0649 39.5615
Co 16.6675 31.9718 37.6664
Pd 14.7774 30.0687 41.4739
Pd 14.7899 31.9748 43.3724
Pd 16.6811 30.0636 43.3492
Co 16.6599 31.9865 41.4804
Pd 14.8162 30.0482 45.2709
Pd 16.7393 30.0249 47.1386
Co 16.7479 31.9059 45.2258
Pd 16.6739 33.8645 9.06719
Pd 14.7771 33.876 10.9476
Pd 14.7672 35.7989 12.8609
Pd 16.6549 33.8883 12.8672
Co 16.7114 35.7394 10.9998
Pd 14.7601 33.8899 14.7549
Pd 14.7584 35.799 16.6601
Pd 16.6629 33.8861 16.6705
Co 16.6463 35.8036 14.7499
Pd 14.7646 33.8846 18.5714
Pd 14.7653 35.7837 20.4739
Pd 16.6737 33.8733 20.4875
Co 16.6666 35.7825 18.5743
Pd 14.7773 33.8721 22.394
Pd 14.7768 35.7737 24.3061
Pd 16.6811 33.8662 24.31
Co 16.6731 35.775 22.3933
Pd 14.7813 33.8684 26.2234
Pd 14.7767 35.7729 28.1415
Pd 16.681 33.8654 28.1369
Co 16.6786 35.7687 26.2238
Pd 14.7771 33.8705 30.0528
Pd 14.765 35.7812 31.9737
Pd 16.6735 33.8709 31.9593
Co 16.673 35.7734 30.0544
Pd 14.7643 33.8813 33.8754
Pd 14.7581 35.7949 35.7875
Pd 16.6626 33.882 35.7764
Co 16.6663 35.7792 33.8733
Pd 14.7596 33.8851 37.6919
Pd 14.7667 35.7932 39.5867
Pd 16.6544 33.8827 39.5796
Co 16.6459 35.7988 37.6978
Pd 14.7765 33.8695 41.4992
Pd 16.6732 33.8572 43.3797
Co 16.7108 35.733 41.4478
Pd 16.6521 37.6831 12.8613
Pd 14.7646 37.6859 14.7451
Pd 14.7657 39.6014 16.6634
Pd 16.6511 37.6911 16.6606
Co 16.7046 39.548 14.8
Pd 14.7603 37.6894 18.5543
Pd 14.7641 39.5909 20.4667
Pd 16.6655 37.6833 20.4743
Co 16.6507 39.5978 18.5519
Pd 14.7665 37.6822 22.3834
Pd 14.7724 39.5733 24.2976
Pd 16.6746 37.671 24.3066
Co 16.6731 39.5714 22.3876
Pd 14.7754 37.6725 26.2242
Pd 14.7723 39.5725 28.1516
Pd 16.6745 37.6701 28.1419
Co 16.6745 39.5688 26.2246
Pd 14.7664 37.6806 30.065
Pd 14.7639 39.5885 31.9825
Pd 16.6653 37.6809 31.9742
Co 16.673 39.5698 30.0617
Pd 14.76 37.6861 33.8941
Pd 14.7654 39.5973 35.7858
Pd 16.6507 37.687 35.7879
Co 16.6505 39.5946 33.8974
Pd 14.7642 37.681 37.7033
Pd 16.6516 37.6775 39.5871
Co 16.7042 39.5431 37.6493
Pd 16.6568 41.4817 16.6687
Pd 14.7726 41.4785 18.5531
Pd 14.7791 43.3804 20.4734
Pd 16.663 41.4762 20.4711
Co 16.7189 43.335 18.6143
Pd 14.7733 41.4706 22.3701
Pd 14.7818 43.3581 24.296
Pd 16.6763 41.4636 24.2993
Co 16.6698 43.3701 22.3706
Pd 14.7734 41.4654 26.225
Pd 14.7817 43.3573 28.1548
Pd 16.6762 41.4628 28.1508
Co 16.6906 43.3387 26.2254
Pd 14.7731 41.469 30.0799
Pd 14.7789 43.3779 31.9774
Pd 16.6628 41.4738 31.979
Co 16.6697 43.3684 30.0803
Pd 14.7723 41.4753 33.8969
Pd 16.6565 41.4776 35.7814
Co 16.7186 43.3318 33.8366
Pd 16.6767 45.2534 20.4899
Pd 14.7913 45.234 22.3693
Pd 14.8028 47.1033 24.2837
Pd 16.6888 45.2316 24.3001
Co 16.7484 47.0796 22.4457
Pd 14.8113 45.2099 26.2258
Pd 14.8028 47.1025 28.1687
Pd 16.6888 45.2308 28.1516
Co 16.7135 47.0669 26.2262
Pd 14.7912 45.2323 30.0823
Pd 16.6765 45.251 31.9618
Co 16.7483 47.078 30.0068
Pd 16.7335 48.8943 24.3531
Pd 14.8635 48.8193 26.2266
Pd 16.7335 48.8935 28.1002
Pd 18.5945 5.29946 20.4905
Pd 20.5338 3.52781 20.5322
Co 20.5437 5.35972 18.6355
Pd 18.6318 3.53368 22.4363
Pd 18.6324 5.34729 24.3381
Pd 20.5053 3.44122 24.3116
Co 20.5125 5.3272 22.4128
Pd 18.6017 3.45946 26.217
Pd 18.6324 5.34649 28.0968
Pd 20.5052 3.44041 28.1226
Co 20.5233 5.3002 26.2174
Pd 18.6317 3.53208 29.9978
Pd 18.5943 5.29704 31.9443
Pd 20.5336 3.5254 31.902
Co 20.5124 5.32559 30.0221
Co 20.5435 5.3565 33.7994
Pd 18.5761 9.06409 16.6677
Pd 20.4731 7.19918 16.6794
Co 20.5163 9.12616 14.8034
Pd 18.5899 7.19307 18.565
Pd 18.5767 9.07585 20.4745
Pd 20.4854 7.19538 20.4924
Co 20.4649 9.07304 18.5633
Pd 18.5947 7.19951 22.3832
Pd 18.5868 9.1015 24.2915
Pd 20.5139 7.21436 24.3126
Co 20.4939 9.09927 22.3954
Pd 18.6004 7.23629 26.2178
Pd 18.5867 9.10068 28.145
Pd 20.5139 7.21355 28.1231
Co 20.5021 9.11056 26.2183
Pd 18.5946 7.19788 30.0524
Pd 18.5765 9.07342 31.962
Pd 20.4852 7.19295 31.9433
Co 20.4937 9.09765 30.0411
Pd 18.5896 7.18982 33.8706
Pd 18.5757 9.06004 35.7687
Pd 20.4727 7.19513 35.7563
Co 20.4646 9.0698 33.8732
Co 20.5159 9.12132 37.6332
Pd 18.5681 12.8576 12.8572
Pd 20.4611 10.984 12.8616
Co 20.5146 12.9214 10.9999
Pd 18.5711 10.974 14.7446
Pd 18.5582 12.8577 16.6579
Pd 20.4591 10.9772 16.6643
Co 20.4512 12.8581 14.7486
Pd 18.5661 10.9719 18.5567
Pd 18.5661 12.8737 20.471
Pd 20.4774 10.9824 20.4777
Co 20.4733 12.8777 18.5737
Pd 18.5724 10.9841 22.3817
Pd 18.5768 12.8832 24.3025
Pd 20.4895 10.9968 24.3041
Co 20.4808 12.8857 22.3911
Pd 18.5805 10.9911 26.2186
Pd 18.5767 12.8824 28.1355
Pd 20.4895 10.996 28.1332
Co 20.4856 12.8916 26.2191
Pd 18.5722 10.9825 30.0555
Pd 18.5659 12.8712 31.967
Pd 20.4772 10.9799 31.9596
Co 20.4807 12.884 30.047
Pd 18.5659 10.9686 33.8805
Pd 18.5579 12.8537 35.7801
Pd 20.4588 10.9731 35.773
Co 20.473 12.8744 33.8644
Pd 18.5707 10.9691 37.6926
Pd 18.5676 12.852 39.5808
Pd 20.4606 10.9783 39.5757
Co 20.4508 12.8532 37.6895
Co 20.514 12.9149 41.4382
Pd 18.5838 16.6769 9.06359
Pd 20.4662 14.7936 9.07007
Co 20.5347 16.752 7.21704
Pd 18.5718 14.7797 10.9436
Pd 18.559 16.6572 12.8636
Pd 20.4557 14.7695 12.8646
Co 20.4549 16.6632 10.9625
Pd 18.557 14.762 14.7509
Pd 18.5605 16.6645 16.6669
Pd 20.4674 14.7667 16.667
Co 20.4703 16.6698 14.7765
Pd 18.5615 14.7658 18.5675
Pd 18.5724 16.6745 20.4839
Pd 20.4777 14.7797 20.4841
Co 20.4758 16.6739 18.5807
Pd 18.5731 14.7777 22.39
Pd 18.5786 16.6811 24.3064
Pd 20.4837 14.7867 24.3063
Co 20.4836 16.6836 22.3977
Pd 18.5759 14.781 26.2194
Pd 18.5785 16.6803 28.1332
Pd 20.4836 14.7859 28.1326
Co 20.4857 16.6862 26.2199
Pd 18.573 14.7761 30.0488
Pd 18.5721 16.6721 31.9557
Pd 20.4775 14.7772 31.9548
Co 20.4835 16.682 30.042
Pd 18.5612 14.7625 33.8714
Pd 18.5601 16.6604 35.7727
Pd 20.4671 14.7626 35.7719
Co 20.4755 16.6706 33.859
Pd 18.5566 14.7571 37.6879
Pd 18.5585 16.6516 39.576
Pd 20.4552 14.7638 39.5743
Co 20.4698 16.665 37.6632
Pd 18.5713 14.7733 41.4952
Pd 18.5831 16.6696 43.3761
Pd 20.4656 14.7863 43.3688
Co 20.4543 16.6567 41.4773
Co 20.534 16.7439 45.2227
Pd 18.6383 20.5314 5.29208
Pd 20.5253 18.6438 5.29172
Co 20.6092 20.615 3.5719
Pd 18.6084 18.6141 7.15473
Pd 18.585 20.4776 9.09119
Pd 20.4722 18.5898 9.09083
Co 20.4929 20.4981 7.19703
Pd 18.5667 18.5717 10.9671
Pd 18.5661 20.4742 12.8839
Pd 20.4696 18.5701 12.8835
Co 20.4819 20.4863 11.0047
Pd 18.5612 18.5655 14.774
Pd 18.5721 20.48 16.6859
Pd 20.4761 18.5754 16.6855
Co 20.4762 20.4799 14.7944
Pd 18.5718 18.5754 18.5819
Pd 18.5803 20.487 20.4935
Pd 20.4838 18.5829 20.4932
Co 20.4837 20.4866 18.5944
Pd 18.5794 18.5822 22.3979
Pd 18.5865 20.4908 24.3104
Pd 20.4883 18.5884 24.3101
Co 20.4897 20.4919 22.4037
Pd 18.5826 18.5847 26.2202
Pd 18.5864 20.49 28.1308
Pd 20.4883 18.5876 28.1304
Co 20.4922 20.4937 26.2207
Pd 18.5793 18.5806 30.0425
Pd 18.5801 20.4845 31.9477
Pd 20.4836 18.5804 31.9473
Co 20.4896 20.4903 30.0377
Pd 18.5715 18.5721 33.8585
Pd 18.5717 20.476 35.7553
Pd 20.4757 18.5713 35.755
Co 20.4834 20.4834 33.8469
Pd 18.5608 18.5607 37.6664
Pd 18.5656 20.4686 39.5574
Pd 20.4691 18.5645 39.557
Co 20.4757 20.475 37.647
Pd 18.5661 18.5653 41.4734
Pd 18.5844 20.4703 43.3501
Pd 20.4715 18.5825 43.3497
Co 20.4813 20.4799 41.4367
Pd 18.6077 18.606 45.2857
Pd 18.6375 20.5226 47.1492
Pd 20.5246 18.6349 47.1488
Co 20.4922 20.49 45.2443
Co 20.6084 20.6054 48.8695
Pd 18.7455 22.5314 3.44497
Pd 18.6618 24.3361 5.3816
Pd 20.5512 22.4467 5.36686
Co 20.5677 24.356 3.51836
Pd 18.6112 22.4003 7.20971
Pd 18.5942 24.3023 9.12341
Pd 20.4978 22.3993 9.11991
Co 20.5364 24.3284 7.25379
Pd 18.5778 22.3846 11.001
Pd 18.5775 24.3054 12.9043
Pd 20.481 22.3926 12.9107
Co 20.4908 24.3068 11.0282
Pd 18.5731 22.3904 14.7933
Pd 18.578 24.3081 16.6965
Pd 20.4827 22.3948 16.7002
Co 20.4829 24.3085 14.8099
Pd 18.5795 22.3952 18.5936
Pd 18.5865 24.3104 20.4999
Pd 20.4897 22.3993 20.5015
Co 20.4878 24.31 18.6026
Pd 18.5875 22.3991 22.4037
Pd 18.5929 24.3111 24.3128
Pd 20.4945 22.4017 24.3131
Co 20.4945 24.3116 22.4079
Pd 18.591 22.3998 26.221
Pd 18.5928 24.3103 28.1301
Pd 20.4944 22.4009 28.1291
Co 20.497 24.3117 26.2215
Pd 18.5874 22.3974 30.0384
Pd 18.5862 24.3079 31.943
Pd 20.4895 22.3969 31.9406
Co 20.4944 24.31 30.0351
Pd 18.5792 22.392 33.8484
Pd 18.5776 24.3041 35.7464
Pd 20.4823 22.3908 35.742
Co 20.4876 24.3068 33.8404
Pd 18.5727 22.3856 37.6488
Pd 18.577 24.2998 39.5386
Pd 20.4805 22.3869 39.5315
Co 20.4824 24.3037 37.6331
Pd 18.5773 22.3781 41.4411
Pd 18.5936 24.2951 43.3195
Pd 20.4972 22.392 43.3222
Co 20.4902 24.3004 41.4148