4033
Atoms. Timestep: 20131
Co 5.47762 13.0185 26.2173
Pd 3.55044 16.7331 24.3452
Pd 5.34149 14.8024 24.2755
Co 5.36547 16.7487 22.4382
Pd 3.62509 14.8624 26.218
Pd 3.55045 16.7316 28.0923
Pd 5.3415 14.801 28.1605
Co 5.37747 16.7124 26.2187
Co 5.3655 16.7458 29.9992
Pd 3.52504 20.5417 20.5353
Pd 5.29613 18.602 20.4925
Co 5.35654 20.5518 18.6382
Pd 3.53078 18.6391 22.4387
Pd 3.43925 20.5119 24.3147
Pd 5.3448 18.6385 24.3401
Co 5.32483 20.5193 22.4155
Pd 3.45737 18.6076 26.2194
Pd 3.43927 20.5104 28.1257
Pd 5.34481 18.6371 28.0988
Co 5.29866 20.5287 26.2202
Pd 3.53081 18.6362 30.0002
Pd 3.52508 20.5374 31.905
Pd 5.29618 18.5976 31.9464
Co 5.32486 20.5164 30.0248
Co 5.35659 20.5461 33.8021
Pd 3.55197 24.351 16.7311
Pd 5.31413 22.409 16.689
Co 5.40807 24.3542 14.8384
Pd 3.5339 22.4481 18.6272
Pd 3.44282 24.3236 20.504
Pd 5.33327 22.4427 20.5358
Co 5.34381 24.3201 18.6158
Pd 3.43379 22.4174 22.41
Pd 3.41496 24.3199 24.3157
Pd 5.28854 22.4208 24.3153
Co 5.28595 24.3296 22.4208
Pd 3.42164 22.4154 26.2209
Pd 3.41498 24.3185 28.1275
Pd 5.28855 22.4194 28.1264
Co 5.27071 24.3211 26.2216
Pd 3.43381 22.4145 30.0318
Pd 3.44286 24.3193 31.9392
Pd 5.33331 22.4383 31.9059
Co 5.28597 24.3267 30.0224
Pd 3.53395 22.4423 33.8146
Pd 3.55203 24.3438 35.7121
Pd 5.3142 22.4018 35.7528
Co 5.34386 24.3143 33.8274
Co 5.40815 24.3456 37.6048
Pd 5.39668 26.2295 12.9645
Pd 3.62238 26.229 14.86
Pd 3.55245 28.1056 16.7325
Pd 5.39598 26.228 16.7489
Co 5.40855 28.1033 14.8398
Pd 3.46467 26.2276 18.6015
Pd 3.44332 28.1301 20.5054
Pd 5.3058 26.2266 20.5119
Co 5.3443 28.1345 18.6173
Pd 3.42335 26.2261 22.4088
Pd 3.41546 28.1309 24.3172
Pd 5.27517 26.2252 24.3225
Co 5.28644 28.1222 22.4223
Pd 3.40801 26.2247 26.2223
Pd 3.41547 28.1294 28.1289
Pd 5.27518 26.2237 28.1222
Co 5.2712 28.1278 26.223
Pd 3.42337 26.2232 30.0359
Pd 3.44336 28.1257 31.9407
Pd 5.30584 26.2223 31.9327
Co 5.28646 28.1193 30.0238
Pd 3.46473 26.2218 33.8432
Pd 3.55252 28.0983 35.7135
Pd 5.39604 26.2208 35.6957
Co 5.34436 28.1287 33.8288
Pd 3.62246 26.2203 37.5847
Pd 5.39677 26.2194 39.4802
Co 5.40864 28.0946 37.6062
Pd 5.31512 30.0471 16.6919
Pd 3.53488 30.007 18.6301
Pd 3.52652 31.912 20.5396
Pd 5.33425 30.0105 20.5387
Co 5.35801 31.9028 18.6426
Pd 3.43477 30.0349 22.4129
Pd 3.44074 31.9389 24.319
Pd 5.28952 30.0295 24.3182
Co 5.32631 31.9325 22.4199
Pd 3.42262 30.034 26.2238
Pd 3.44075 31.9375 28.13
Pd 5.28954 30.028 28.1293
Co 5.30013 31.9202 26.2245
Pd 3.4348 30.032 30.0347
Pd 3.52656 31.9076 31.9094
Pd 5.33429 30.0062 31.9088
Co 5.32634 31.9296 30.0291
Pd 3.53493 30.0013 33.8174
Pd 5.31519 30.0399 35.7557
Co 5.35807 31.897 33.8064
Pd 5.29811 33.8513 20.4983
Pd 3.53275 33.8132 22.4445
Pd 3.5529 35.7177 24.3524
Pd 5.34677 33.8118 24.3458
Co 5.36793 35.7031 22.4454
Pd 3.45935 33.8418 26.2252
Pd 3.55291 35.7163 28.0995
Pd 5.34678 33.8104 28.1046
Co 5.37994 35.7364 26.2259
Pd 3.53278 33.8103 30.006
Pd 5.29815 33.8469 31.9522
Co 5.36796 35.7002 30.0064
Pd 5.34445 37.6479 24.2842
Pd 3.62803 37.5869 26.2267
Pd 5.34447 37.6464 28.1692
Co 5.48105 39.4303 26.2273
Co 9.232 9.23605 26.2158
Pd 7.22915 12.8813 24.2917
Pd 9.09174 11.0035 24.2929
Co 9.12907 12.9218 22.4119
Pd 7.28741 11.0675 26.2165
Pd 7.22916 12.8799 28.1428
Pd 9.09175 11.002 28.1402
Co 9.09496 12.8839 26.2172
Co 9.1291 12.9189 30.0226
Pd 7.1921 16.6777 20.4827
Pd 9.06522 14.7802 20.466
Co 9.11088 16.7207 18.6076
Pd 7.21122 14.7917 22.3615
Pd 7.21314 16.6885 24.2929
Pd 9.08667 14.7815 24.2886
Co 9.07506 16.6702 22.3638
Pd 7.23448 14.8103 26.218
Pd 7.21315 16.687 28.1445
Pd 9.08668 14.78 28.1473
Co 9.10561 16.6896 26.2187
Pd 7.21124 14.7887 30.0745
Pd 7.19215 16.6734 31.9546
Pd 9.06526 14.7758 31.9699
Co 9.07509 16.6673 30.0735
Co 9.11094 16.7149 33.8298
Pd 7.19556 20.4814 16.6817
Pd 9.05993 18.5838 16.6689
Co 9.12215 20.5247 14.8052
Pd 7.18932 18.5975 18.5666
Pd 7.19259 20.4923 20.4947
Pd 9.07251 18.5831 20.4757
Co 9.06983 20.472 18.5652
Pd 7.19659 18.6009 22.3848
Pd 7.2124 20.5195 24.3149
Pd 9.09899 18.5918 24.2927
Co 9.09689 20.4996 22.3973
Pd 7.2342 18.6052 26.2194
Pd 7.21242 20.518 28.1254
Pd 9.099 18.5903 28.1461
Co 9.10901 20.5064 26.2201
Pd 7.19661 18.598 30.054
Pd 7.19263 20.488 31.9455
Pd 9.07255 18.5787 31.9631
Co 9.09691 20.4967 30.043
Pd 7.18937 18.5917 33.8722
Pd 7.19563 20.4741 35.7585
Pd 9.06 18.5766 35.7699
Co 9.06988 20.4661 33.875
Co 9.12223 20.516 37.635
Pd 7.23587 24.3052 12.886
Pd 9.08545 22.3984 12.8682
Co 9.16797 24.3593 11.0278
Pd 7.21312 22.4007 14.7607
Pd 7.22905 24.2922 16.6943
Pd 9.08518 22.3819 16.6763
Co 9.09521 24.284 14.7676
Pd 7.20086 22.4008 18.5861
Pd 7.21502 24.3235 20.5129
Pd 9.094 22.3975 20.4927
Co 9.10852 24.3067 18.5952
Pd 7.20775 22.4175 22.4178
Pd 7.18537 24.3235 24.3202
Pd 9.10529 22.4183 24.3197
Co 9.10559 24.3178 22.4139
Pd 7.18963 22.4216 26.2209
Pd 7.18538 24.3221 28.123
Pd 9.1053 22.4168 28.1221
Co 9.09959 24.3216 26.2216
Pd 7.20778 22.4146 30.0239
Pd 7.21506 24.3192 31.9303
Pd 9.09404 22.3931 31.949
Co 9.10562 24.3149 30.0293
Pd 7.20091 22.395 33.8557
Pd 7.22912 24.2849 35.7489
Pd 9.08525 22.3746 35.7653
Co 9.10857 24.3009 33.848
Pd 7.2132 22.392 37.681
Pd 7.23597 24.2951 39.5571
Pd 9.08554 22.3882 39.5735
Co 9.09529 24.2753 37.6756
Co 9.16808 24.3477 41.4154
Pd 9.1758 26.2304 9.16704
Pd 7.3204 26.23 11.0265
Pd 7.23637 28.1533 12.8875
Pd 9.12156 26.229 12.9062
Co 9.16846 28.1002 11.0293
Pd 7.25496 26.2285 14.7911
Pd 7.22955 28.1635 16.6958
Pd 9.1093 26.2276 16.6876
Co 9.09572 28.1726 14.7691
Pd 7.23954 26.2271 18.6167
Pd 7.21552 28.1292 20.5143
Pd 9.11556 26.2261 20.5168
Co 9.10902 28.147 18.5966
Pd 7.19149 26.2256 22.4195
Pd 7.18586 28.1263 24.3216
Pd 9.09937 26.2247 24.319
Co 9.10608 28.133 22.4153
Pd 7.18043 26.2242 26.2223
Pd 7.18587 28.1249 28.1244
Pd 9.09938 26.2232 28.1256
Co 9.10008 28.1263 26.223
Pd 7.19152 26.2227 30.0251
Pd 7.21556 28.1248 31.9318
Pd 9.1156 26.2218 31.9278
Co 9.10611 28.1301 30.0307
Pd 7.23959 26.2213 33.8279
Pd 7.22962 28.1562 35.7503
Pd 9.10937 26.2203 35.757
Co 9.10907 28.1412 33.8494
Pd 7.25504 26.2198 37.6536
Pd 7.23646 28.1431 39.5586
Pd 9.12165 26.2189 39.5384
Co 9.0958 28.1639 37.677
Pd 7.32051 26.2184 41.4181
Pd 9.17592 26.2174 43.2776
Co 9.16856 28.0886 41.4168
Pd 9.08644 30.0597 12.8711
Pd 7.21411 30.0564 14.7636
Pd 7.19705 31.9743 16.6861
Pd 9.08618 30.0733 16.6793
Co 9.12363 31.9319 14.8096
Pd 7.20185 30.0534 18.589
Pd 7.19408 31.9604 20.4991
Pd 9.09499 30.0548 20.4957
Co 9.07132 31.9818 18.5696
Pd 7.20874 30.0337 22.4207
Pd 7.21388 31.9304 24.3192
Pd 9.10628 30.0311 24.3226
Co 9.09837 31.9512 22.4016
Pd 7.19062 30.0268 26.2238
Pd 7.2139 31.9289 28.1298
Pd 9.10629 30.0296 28.125
Co 9.11049 31.9415 26.2245
Pd 7.20877 30.0309 30.0268
Pd 7.19412 31.9561 31.9499
Pd 9.09503 30.0504 31.9519
Co 9.0984 31.9483 30.0473
Pd 7.2019 30.0476 33.8586
Pd 7.19712 31.967 35.7629
Pd 9.08625 30.066 35.7683
Co 9.07138 31.9759 33.8794
Pd 7.21419 30.0476 37.6839
Pd 9.08653 30.0495 39.5764
Co 9.12371 31.9232 37.6394
Pd 9.06191 33.8713 16.6747
Pd 7.1913 33.8567 18.5724
Pd 7.19458 35.775 20.49
Pd 9.0745 33.8692 20.4815
Co 9.11335 35.733 18.6148
Pd 7.19856 33.8504 22.3906
Pd 7.21561 35.7614 24.3002
Pd 9.10097 33.8576 24.2985
Co 9.07754 35.7806 22.3711
Pd 7.23618 33.8431 26.2252
Pd 7.21563 35.7599 28.1517
Pd 9.10098 33.8561 28.152
Co 9.10808 35.7583 26.2259
Pd 7.19859 33.8475 30.0598
Pd 7.19462 35.7707 31.9619
Pd 9.07454 33.8648 31.969
Co 9.07757 35.7777 30.0808
Pd 7.19135 33.8509 33.878
Pd 9.06198 33.8641 35.7757
Co 9.1134 35.7272 33.8371
Pd 9.06819 37.6721 20.4747
Pd 7.21418 37.6596 22.3702
Pd 7.23261 39.5685 24.3018
Pd 9.08964 37.6679 24.2973
Co 9.13252 39.529 22.422
Pd 7.23744 37.6381 26.2267
Pd 7.23262 39.5671 28.153
Pd 9.08965 37.6664 28.156
Co 9.09842 39.5639 26.2274
Pd 7.21421 37.6567 30.0832
Pd 9.06823 37.6677 31.9786
Co 9.13255 39.5261 30.0328
Pd 9.09568 41.4459 24.3045
Pd 7.29134 41.3809 26.2281
Pd 9.0957 41.4444 28.1517
Co 9.23641 43.2118 26.2288
Co 13.0135 5.48069 26.2144
Pd 10.9987 9.09607 24.2921
Pd 12.876 7.233 24.2895
Co 12.9163 9.13363 22.4104
Pd 11.0629 7.29098 26.2151
Pd 10.9987 9.0946 28.1394
Pd 12.876 7.23153 28.1406
Co 12.8799 9.09806 26.2158
Co 12.9163 9.13073 30.0212
Pd 10.9711 12.8597 20.4655
Pd 12.8539 10.9765 20.4647
Co 12.9008 12.9069 18.5967
Pd 10.9829 10.9879 22.3602
Pd 10.9807 12.8739 24.2869
Pd 12.8695 10.9846 24.2862
Co 12.8556 12.8602 22.3572
Pd 11.0098 11.0134 26.2165
Pd 10.9808 12.8724 28.1475
Pd 12.8695 10.9831 28.1468
Co 12.8824 12.8855 26.2172
Pd 10.9829 10.985 30.0728
Pd 10.9712 12.8554 31.969
Pd 12.854 10.9721 31.9682
Co 12.8557 12.8573 30.0772
Co 12.9009 12.9011 33.8378
Pd 10.9646 16.6593 16.6623
Pd 12.845 14.7683 16.6567
Co 12.8987 16.7078 14.794
Pd 10.9674 14.7744 18.546
Pd 10.9693 16.6641 20.4647
Pd 12.8547 14.7653 20.46
Co 12.8481 16.6526 18.5459
Pd 10.9745 14.7737 22.3631
Pd 10.9811 16.676 24.293
Pd 12.8714 14.7722 24.291
Co 12.8737 16.6736 22.3816
Pd 10.9789 14.7724 26.2179
Pd 10.9812 16.6746 28.1444
Pd 12.8715 14.7707 28.1449
Co 12.8755 16.6736 26.2187
Pd 10.9746 14.7708 30.0728
Pd 10.9693 16.6597 31.9726
Pd 12.8547 14.7609 31.9758
Co 12.8737 16.6707 30.0557
Pd 10.9675 14.7686 33.8898
Pd 10.9647 16.6521 35.775
Pd 12.8451 14.761 35.7791
Co 12.8481 16.6468 33.8914
Co 12.8988 16.6991 37.6433
Pd 10.9796 20.4696 12.8631
Pd 12.8527 18.5761 12.8576
Co 12.9165 20.5233 11.001
Pd 10.9694 18.579 14.7454
Pd 10.9736 20.4664 16.6658
Pd 12.8536 18.5649 16.6583
Co 12.8541 20.4586 14.7496
Pd 10.9681 18.5727 18.5575
Pd 10.9796 20.4833 20.4792
Pd 12.8703 18.5714 20.4714
Co 12.8744 20.4793 18.5748
Pd 10.9812 18.5775 22.3825
Pd 10.9948 20.494 24.3056
Pd 12.8807 18.5807 24.3029
Co 12.8833 20.4854 22.3922
Pd 10.989 18.5842 26.2194
Pd 10.9949 20.4925 28.1346
Pd 12.8807 18.5793 28.1359
Co 12.89 20.4888 26.2201
Pd 10.9812 18.5746 30.0563
Pd 10.9796 20.4789 31.9611
Pd 12.8704 18.5671 31.9674
Co 12.8833 20.4825 30.048
Pd 10.9682 18.5668 33.8813
Pd 10.9736 20.4591 35.7744
Pd 12.8536 18.5576 35.7804
Co 12.8745 20.4735 33.8654
Pd 10.9695 18.5703 37.6934
Pd 10.9797 20.4595 39.5771
Pd 12.8528 18.566 39.5812
Co 12.8541 20.4499 37.6906
Co 12.9166 20.5117 41.4393
Pd 11.0236 24.309 9.08963
Pd 12.8831 22.4014 9.07388
Co 12.971 24.3604 7.24362
Pd 10.9957 22.4014 10.9541
Pd 10.9991 24.2928 12.8801
Pd 12.8683 22.3797 12.8685
Co 12.8825 24.2842 10.9718
Pd 10.9807 22.3812 14.7606
Pd 10.9858 24.3011 16.6758
Pd 12.8733 22.3838 16.6718
Co 12.8828 24.3039 14.7803
Pd 10.9827 22.387 18.5793
Pd 10.9984 24.3083 20.4957
Pd 12.8849 22.3939 20.4895
Co 12.8832 24.3057 18.5844
Pd 10.9948 22.4008 22.4003
Pd 11.0058 24.3161 24.3142
Pd 12.8957 22.4001 24.3083
Co 12.8967 24.3104 22.4022
Pd 11.0058 22.4051 26.2208
Pd 11.0058 24.3147 28.1289
Pd 12.8958 22.3986 28.1334
Co 12.9032 24.3118 26.2216
Pd 10.9948 22.3978 30.0414
Pd 10.9985 24.3039 31.9474
Pd 12.8849 22.3895 31.9522
Co 12.8968 24.3075 30.0409
Pd 10.9828 22.3812 33.8624
Pd 10.9859 24.2939 35.7673
Pd 12.8734 22.3765 35.7699
Co 12.8832 24.2999 33.8588
Pd 10.9807 22.3725 37.6811
Pd 10.9992 24.2826 39.563
Pd 12.8684 22.3695 39.5732
Co 12.8829 24.2952 37.6628
Pd 10.9958 22.3898 41.4876
Pd 11.0237 24.2959 43.3535
Pd 12.8833 22.3883 43.3678
Co 12.8826 24.2726 41.4713
Co 12.9711 24.346 45.1995
Pd 13.0037 26.2314 5.37658
Pd 11.1262 26.2309 7.22992
Pd 11.0241 28.1515 9.0911
Pd 12.9143 26.23 9.12115
Co 12.9714 28.1009 7.24505
Pd 11.0336 26.2295 10.9913
Pd 10.9996 28.1648 12.8816
Pd 12.8904 26.2285 12.8846
Co 12.883 28.1743 10.9733
Pd 10.9953 26.2281 14.7829
Pd 10.9863 28.1535 16.6773
Pd 12.883 26.2271 16.6862
Co 12.8833 28.1517 14.7818
Pd 10.9959 26.2266 18.5901
Pd 10.9989 28.1435 20.4972
Pd 12.8921 26.2256 20.4954
Co 12.8837 28.147 18.5858
Pd 11.0073 26.2252 22.4103
Pd 11.0063 28.1327 24.3157
Pd 12.9042 26.2242 24.3152
Co 12.8972 28.1394 22.4037
Pd 11.0048 26.2237 26.2223
Pd 11.0063 28.1313 28.1304
Pd 12.9042 26.2227 28.1294
Co 12.9037 28.1352 26.223
Pd 11.0074 26.2223 30.0343
Pd 10.999 28.1391 31.9489
Pd 12.8921 26.2213 31.9492
Co 12.8973 28.1365 30.0424
Pd 10.9959 26.2208 33.8545
Pd 10.9864 28.1463 35.7688
Pd 12.8831 26.2198 35.7583
Co 12.8837 28.1412 33.8602
Pd 10.9954 26.2193 37.6617
Pd 10.9997 28.1546 39.5645
Pd 12.8905 26.2184 39.56
Co 12.8834 28.143 37.6643
Pd 11.0337 26.2179 41.4533
Pd 11.0242 28.1384 43.355
Pd 12.9144 26.2169 43.3234
Co 12.8831 28.1627 41.4728
Pd 11.1263 26.2165 45.2147
Pd 13.0038 26.2155 47.068
Co 12.9716 28.0864 45.201
Pd 12.8841 30.0586 9.07679
Pd 10.9967 30.0576 10.957
Pd 10.9811 31.9879 12.8675
Pd 12.8693 30.0774 12.8714
Co 12.918 31.9352 11.0053
Pd 10.9817 30.0749 14.7635
Pd 10.975 31.9883 16.6702
Pd 12.8743 30.0704 16.6747
Co 12.8555 31.9971 14.754
Pd 10.9837 30.0662 18.5822
Pd 10.9811 31.9685 20.4835
Pd 12.8859 30.0574 20.4924
Co 12.8759 31.9734 18.5792
Pd 10.9958 30.0496 22.4032
Pd 10.9963 31.9549 24.31
Pd 12.8967 30.0483 24.3112
Co 12.8848 31.9644 22.3966
Pd 11.0068 30.0423 26.2238
Pd 10.9963 31.9534 28.139
Pd 12.8967 30.0469 28.1363
Co 12.8915 31.9581 26.2245
Pd 10.9958 30.0467 30.0443
Pd 10.9811 31.9641 31.9654
Pd 12.8859 30.053 31.9551
Co 12.8848 31.9615 30.0524
Pd 10.9838 30.0604 33.8653
Pd 10.9751 31.9811 35.7788
Pd 12.8744 30.0631 35.7728
Co 12.876 31.9676 33.8698
Pd 10.9817 30.0662 37.684
Pd 10.9811 31.9778 39.5815
Pd 12.8694 30.0673 39.5761
Co 12.8556 31.9883 37.695
Pd 10.9968 30.046 41.4905
Pd 12.8843 30.0455 43.3707
Co 12.9181 31.9236 41.4436
Pd 12.8546 33.881 12.8634
Pd 10.9714 33.8771 14.7512
Pd 10.9671 35.7954 16.6696
Pd 12.8556 33.8893 16.6641
Co 12.9012 35.7478 14.8013
Pd 10.9701 33.8806 18.5633
Pd 10.9718 35.7877 20.472
Pd 12.8723 33.8799 20.4772
Co 12.8506 35.8002 18.5532
Pd 10.9831 33.8728 22.3883
Pd 10.9836 35.7728 24.3002
Pd 12.8827 33.8676 24.3087
Co 12.8762 35.7762 22.3889
Pd 10.9909 33.8632 26.2252
Pd 10.9836 35.7714 28.1516
Pd 12.8827 33.8662 28.1417
Co 12.878 35.7734 26.2259
Pd 10.9832 33.8699 30.0621
Pd 10.9718 35.7833 31.9799
Pd 12.8724 33.8755 31.9732
Co 12.8762 35.7733 30.063
Pd 10.9702 33.8747 33.8871
Pd 10.9672 35.7881 35.7823
Pd 12.8556 33.882 35.7863
Co 12.8506 35.7943 33.8987
Pd 10.9714 33.8684 37.6992
Pd 12.8547 33.8708 39.587
Co 12.9013 35.7391 37.6505
Pd 12.848 37.6859 16.6654
Pd 10.9704 37.6788 18.5548
Pd 10.9746 39.592 20.4756
Pd 12.8576 37.686 20.4687
Co 12.9043 39.5458 18.6068
Pd 10.9775 37.6766 22.3718
Pd 10.9842 39.575 24.2971
Pd 12.8744 37.6762 24.2997
Co 12.8591 39.5896 22.3674
Pd 10.9819 37.675 26.2267
Pd 10.9842 39.5735 28.1577
Pd 12.8744 37.6747 28.1536
Co 12.8859 39.5614 26.2274
Pd 10.9775 37.6737 30.0816
Pd 10.9746 39.5877 31.9791
Pd 12.8577 37.6816 31.9846
Co 12.8591 39.5867 30.0874
Pd 10.9705 37.673 33.8986
Pd 12.8481 37.6786 35.7879
Co 12.9044 39.54 33.8479
Pd 12.8579 41.4748 20.4763
Pd 10.9868 41.4624 22.3718
Pd 11.0031 43.3528 24.3052
Pd 12.8735 41.4638 24.2978
Co 12.9207 43.3162 22.4234
Pd 11.0137 41.434 26.2281
Pd 11.0031 43.3513 28.1525
Pd 12.8735 41.4623 28.1584
Co 12.8843 43.3489 26.2288
Pd 10.9868 41.4595 30.0844
Pd 12.8579 41.4705 31.9798
Co 12.9207 43.3133 30.0342
Pd 12.8809 45.2154 24.3039
Pd 11.0678 45.1564 26.2295
Pd 12.881 45.2139 28.1551
Co 13.0189 46.9662 26.2302
Pd 14.7966 5.34485 24.2718
Pd 16.7268 3.55327 24.3401
Co 16.7422 5.36903 22.4338
Pd 14.8569 3.62768 26.2137
Pd 14.7966 5.34337 28.1569
Pd 16.7268 3.55184 28.0872
Co 16.7074 5.37958 26.2143
Co 16.7422 5.36615 29.9949
Pd 14.7739 9.07005 20.4638
Pd 16.6709 7.19643 20.4791
Co 16.7137 9.11592 18.6046
Pd 14.7856 7.21531 22.3585
Pd 14.7767 9.09003 24.2864
Pd 16.6832 7.216 24.2893
Co 16.6646 9.07867 22.3609
Pd 14.8057 7.23709 26.2151
Pd 14.7767 9.08856 28.1451
Pd 16.6832 7.21453 28.1408
Co 16.6855 9.10773 26.2158
Pd 14.7856 7.21237 30.0716
Pd 14.7739 9.06567 31.9677
Pd 16.671 7.19207 31.951
Co 16.6647 9.07573 30.0706
Co 16.7137 9.11013 33.8269
Pd 14.7615 12.8513 16.656
Pd 16.6521 10.9704 16.6601
Co 16.7004 12.9052 14.7926
Pd 14.7679 10.973 18.5446
Pd 14.76 12.8595 20.4593
Pd 16.6583 10.9736 20.4625
Co 16.6465 12.8532 18.5444
Pd 14.7686 10.9786 22.3616
Pd 14.7683 12.8748 24.2902
Pd 16.6717 10.984 24.2908
Co 16.669 12.8773 22.3801
Pd 14.7688 10.9816 26.2165
Pd 14.7684 12.8733 28.1442
Pd 16.6717 10.9825 28.1422
Co 16.6705 12.8777 26.2172
Pd 14.7687 10.9757 30.0714
Pd 14.76 12.8551 31.9751
Pd 16.6583 10.9692 31.9704
Co 16.6691 12.8744 30.0543
Pd 14.7679 10.9672 33.8884
Pd 14.7616 12.844 35.7784
Pd 16.6521 10.9632 35.7728
Co 16.6466 12.8473 33.8899
Co 16.7004 12.8966 37.6418
Pd 14.764 16.6561 12.8557
Pd 16.6483 14.7712 12.855
Co 16.7081 16.7161 10.9946
Pd 14.7609 14.7679 14.7388
Pd 14.7553 16.6537 16.655
Pd 16.6474 14.7611 16.6543
Co 16.6431 16.6496 14.7447
Pd 14.7566 14.7622 18.5481
Pd 14.7622 16.6667 20.4687
Pd 16.6619 14.7665 20.468
Co 16.6635 16.6685 18.5691
Pd 14.763 14.7671 22.3771
Pd 14.7738 16.6744 24.301
Pd 16.6711 14.7766 24.3003
Co 16.6701 16.6737 22.3881
Pd 14.7719 14.7745 26.2179
Pd 14.7738 16.673 28.1363
Pd 16.6711 14.7752 28.1356
Co 16.6756 16.6777 26.2186
Pd 14.763 14.7641 30.0587
Pd 14.7622 16.6623 31.9686
Pd 16.6619 14.7621 31.9678
Co 16.6701 16.6708 30.0492
Pd 14.7567 14.7563 33.8878
Pd 14.7553 16.6464 35.7823
Pd 16.6475 14.7538 35.7816
Co 16.6635 16.6627 33.8681
Pd 14.7609 14.7591 37.6971
Pd 14.7641 16.6459 39.5815
Pd 16.6484 14.7611 39.5808
Co 16.6432 16.6409 37.6926
Co 16.7082 16.7045 41.4427
Pd 14.7883 20.4751 9.07071
Pd 16.6711 18.5921 9.06314
Co 16.7464 20.5437 7.21729
Pd 14.7743 18.58 10.9436
Pd 14.7651 20.4632 12.8652
Pd 16.6522 18.566 12.8632
Co 16.6583 20.4626 10.9627
Pd 14.7574 18.5638 14.7508
Pd 14.763 20.4736 16.6677
Pd 16.6603 18.5661 16.6664
Co 16.6658 20.4766 14.7767
Pd 14.762 18.567 18.5674
Pd 14.7769 20.4824 20.4848
Pd 16.6712 18.5766 20.4835
Co 16.6707 20.4807 18.581
Pd 14.7748 18.5772 22.39
Pd 14.7847 20.487 24.307
Pd 16.6786 18.5814 24.3059
Co 16.6812 20.4872 22.3979
Pd 14.7789 18.5786 26.2194
Pd 14.7847 20.4856 28.1332
Pd 16.6786 18.5799 28.1328
Co 16.6846 20.4879 26.2201
Pd 14.7748 18.5742 30.0488
Pd 14.7769 20.4781 31.9554
Pd 16.6712 18.5722 31.9553
Co 16.6812 20.4842 30.0423
Pd 14.7621 18.5611 33.8713
Pd 14.7631 20.4663 35.7725
Pd 16.6604 18.5588 35.7723
Co 16.6707 20.4749 33.8592
Pd 14.7575 18.5551 37.6879
Pd 14.7651 20.4531 39.5749
Pd 16.6523 18.5559 39.5756
Co 16.6659 20.4679 37.6635
Pd 14.7745 18.5684 41.4952
Pd 14.7884 20.4621 43.3695
Pd 16.6712 18.5791 43.3756
Co 16.6584 20.4509 41.4775
Co 16.7465 20.5293 45.2229
Pd 14.8472 24.3107 5.33459
Pd 16.7384 22.4251 5.30487
Co 16.8381 24.3868 3.60006
Pd 14.8152 22.402 7.17249
Pd 14.7997 24.293 9.09902
Pd 16.6801 22.3857 9.09429
Co 16.7039 24.2857 7.21448
Pd 14.7763 22.3808 10.9695
Pd 14.7736 24.3007 12.8802
Pd 16.6686 22.3838 12.882
Co 16.683 24.3055 11.0011
Pd 14.7669 22.3827 14.7739
Pd 14.7761 24.3061 16.6836
Pd 16.6713 22.3915 16.6852
Co 16.6722 24.3051 14.7892
Pd 14.7761 22.3921 18.5827
Pd 14.7853 24.3093 20.4928
Pd 16.6811 22.3964 20.4932
Co 16.6793 24.3094 18.592
Pd 14.7874 22.3963 22.3987
Pd 14.7963 24.3101 24.3109
Pd 16.6889 22.3981 24.3106
Co 16.6889 24.3103 22.4028
Pd 14.7919 22.3971 26.2208
Pd 14.7963 24.3086 28.1322
Pd 16.6889 22.3966 28.1311
Co 16.6939 24.3095 26.2216
Pd 14.7875 22.3934 30.043
Pd 14.7853 24.3049 31.9503
Pd 16.6812 22.392 31.9485
Co 16.6889 24.3074 30.0403
Pd 14.7762 22.3863 33.8589
Pd 14.7762 24.2988 35.7595
Pd 16.6713 22.3843 35.7564
Co 16.6794 24.3036 33.8512
Pd 14.767 22.374 37.6677
Pd 14.7736 24.2905 39.5629
Pd 16.6687 22.3736 39.5597
Co 16.6723 24.2964 37.6539
Pd 14.7764 22.3692 41.4721
Pd 14.7998 24.2799 43.3441
Pd 16.6802 22.3727 43.3473
Co 16.6831 24.2939 41.442
Pd 14.8153 22.3875 45.2692
Pd 14.8473 24.2948 47.1085
Pd 16.7385 22.4092 47.1368
Co 16.7041 24.2712 45.2286
Co 16.8383 24.3696 48.8431
Pd 15.0314 26.2318 3.50889
Pd 14.8477 28.1516 5.33605
Pd 16.7661 26.2309 5.41899
Co 16.8386 28.0763 3.60147
Pd 14.8366 26.2304 7.22415
Pd 14.8002 28.1665 9.10049
Pd 16.6985 26.2295 9.11297
Co 16.7045 28.1747 7.21596
Pd 14.7895 26.229 10.9953
Pd 14.7741 28.1559 12.8817
Pd 16.677 26.228 12.8993
Co 16.6835 28.1521 11.0025
Pd 14.779 26.2276 14.7864
Pd 14.7766 28.1476 16.6851
Pd 16.6769 26.2266 16.6928
Co 16.6727 28.1495 14.7906
Pd 14.7819 26.2261 18.5899
Pd 14.7858 28.1415 20.4943
Pd 16.6854 26.2251 20.4982
Co 16.6798 28.1424 18.5934
Pd 14.7928 26.2247 22.4029
Pd 14.7968 28.1378 24.3124
Pd 16.6942 26.2237 24.3123
Co 16.6894 28.1385 22.4043
Pd 14.8009 26.2232 26.2223
Pd 14.7968 28.1363 28.1336
Pd 16.6942 26.2222 28.1323
Co 16.6944 28.1364 26.223
Pd 14.7929 26.2218 30.0417
Pd 14.7858 28.1372 31.9518
Pd 16.6854 26.2208 31.9463
Co 16.6894 28.1356 30.0418
Pd 14.782 26.2203 33.8547
Pd 14.7767 28.1404 35.761
Pd 16.6769 26.2193 35.7518
Co 16.6799 28.1366 33.8526
Pd 14.7791 26.2189 37.6582
Pd 14.7741 28.1457 39.5644
Pd 16.6771 26.2179 39.5452
Co 16.6728 28.1408 37.6554
Pd 14.7896 26.2174 41.4493
Pd 14.8003 28.1535 43.3456
Pd 16.6986 26.2165 43.3316
Co 16.6836 28.1405 41.4435
Pd 14.8368 26.216 45.2204
Pd 14.8478 28.1357 47.11
Pd 16.7662 26.215 47.0256
Co 16.7046 28.1603 45.2301
Pd 15.0315 26.2145 48.9357
Co 16.8388 28.0591 48.8445
Pd 16.7393 30.0367 5.30776
Pd 14.8162 30.0589 7.1754
Pd 14.7898 31.9843 9.07509
Pd 16.6811 30.0733 9.09721
Co 16.7478 31.9166 7.22161
Pd 14.7773 30.0772 10.9724
Pd 14.7665 31.9934 12.8696
Pd 16.6696 30.0723 12.8849
Co 16.6598 31.995 10.9671
Pd 14.7679 30.0724 14.7769
Pd 14.7645 31.9801 16.6721
Pd 16.6723 30.0617 16.6881
Co 16.6673 31.9781 14.7811
Pd 14.7771 30.0601 18.5856
Pd 14.7784 31.9683 20.4892
Pd 16.6821 30.0539 20.4961
Co 16.6721 31.9711 18.5854
Pd 14.7884 30.053 22.4016
Pd 14.7862 31.9608 24.3113
Pd 16.6899 30.0493 24.3135
Co 16.6827 31.9617 22.4023
Pd 14.7929 30.0493 26.2237
Pd 14.7862 31.9594 28.1376
Pd 16.6899 30.0479 28.134
Co 16.6861 31.958 26.2245
Pd 14.7885 30.0501 30.0459
Pd 14.7784 31.964 31.9598
Pd 16.6822 30.0496 31.9514
Co 16.6827 31.9588 30.0466
Pd 14.7772 30.0543 33.8619
Pd 14.7646 31.9729 35.7769
Pd 16.6723 30.0544 35.7593
Co 16.6722 31.9653 33.8636
Pd 14.768 30.0637 37.6706
Pd 14.7666 31.9832 39.5793
Pd 16.6697 30.0621 39.5626
Co 16.6674 31.9694 37.6678
Pd 14.7774 30.0656 41.4751
Pd 14.7899 31.9713 43.3739
Pd 16.6812 30.0602 43.3503
Co 16.6599 31.9834 41.4819
Pd 14.8163 30.0444 45.2721
Pd 16.7395 30.0208 47.1397
Co 16.748 31.9022 45.2273
Pd 16.6731 33.8669 9.06895
Pd 14.7763 33.878 10.9494
Pd 14.7665 35.8005 12.863
Pd 16.6542 33.8901 12.869
Co 16.7106 35.7415 11.0019
Pd 14.7594 33.8913 14.7567
Pd 14.7577 35.8 16.6623
Pd 16.6623 33.8872 16.6723
Co 16.6456 35.8051 14.752
Pd 14.764 33.8853 18.5732
Pd 14.7647 35.7841 20.476
Pd 16.6732 33.8737 20.4893
Co 16.6659 35.7832 18.5764
Pd 14.7768 33.8722 22.3958
Pd 14.7762 35.7734 24.3082
Pd 16.6806 33.866 24.3118
Co 16.6726 35.7752 22.3954
Pd 14.7809 33.8678 26.2252
Pd 14.7763 35.772 28.1436
Pd 16.6806 33.8645 28.1386
Co 16.6781 35.7682 26.2259
Pd 14.7768 33.8693 30.0546
Pd 14.7647 35.7797 31.9758
Pd 16.6732 33.8694 31.9611
Co 16.6726 35.7722 30.0564
Pd 14.7641 33.8795 33.8772
Pd 14.7578 35.7927 35.7896
Pd 16.6623 33.8799 35.7781
Co 16.666 35.7774 33.8754
Pd 14.7595 33.8826 37.6937
Pd 14.7666 35.7904 39.5888
Pd 16.6543 33.8799 39.5814
Co 16.6456 35.7963 37.6999
Pd 14.7764 33.8664 41.501
Pd 16.6732 33.8538 43.3814
Co 16.7107 35.7299 41.4499
Pd 16.6513 37.6849 12.8637
Pd 14.7638 37.6873 14.7475
Pd 14.765 39.6024 16.6662
Pd 16.6504 37.6922 16.663
Co 16.7038 39.5494 14.8027
Pd 14.7596 37.6901 18.5568
Pd 14.7634 39.5913 20.4695
Pd 16.6649 37.6838 20.4767
Co 16.65 39.5986 18.5546
Pd 14.7659 37.6823 22.3859
Pd 14.7718 39.5731 24.3004
Pd 16.6741 37.6708 24.309
Co 16.6725 39.5716 22.3903
Pd 14.7749 37.6719 26.2266
Pd 14.7718 39.5716 28.1543
Pd 16.6741 37.6693 28.1443
Co 16.6739 39.5683 26.2274
Pd 14.766 37.6794 30.0674
Pd 14.7635 39.5869 31.9853
Pd 16.6649 37.6794 31.9766
Co 16.6725 39.5686 30.0644
Pd 14.7596 37.6843 33.8965
Pd 14.765 39.5951 35.7886
Pd 16.6504 37.6849 35.7903
Co 16.6501 39.5928 33.9001
Pd 14.7639 37.6785 37.7058
Pd 16.6514 37.6747 39.5895
Co 16.7039 39.5407 37.652
Pd 16.656 41.4828 16.6717
Pd 14.7718 41.4793 18.5562
Pd 14.7783 43.3808 20.4768
Pd 16.6622 41.4767 20.4741
Co 16.7181 43.3358 18.6177
Pd 14.7726 41.4707 22.3732
Pd 14.7811 43.3579 24.2994
Pd 16.6756 41.4634 24.3024
Co 16.6691 43.3702 22.3739
Pd 14.7728 41.4649 26.2281
Pd 14.7811 43.3564 28.1582
Pd 16.6757 41.4619 28.1538
Co 16.69 43.3382 26.2288
Pd 14.7726 41.4678 30.083
Pd 14.7783 43.3764 31.9808
Pd 16.6623 41.4723 31.982
Co 16.6691 43.3673 30.0837
Pd 14.7719 41.4734 33.9
Pd 16.6561 41.4755 35.7844
Co 16.7182 43.33 33.8399
Pd 16.6759 45.2539 20.4936
Pd 14.7905 45.234 22.373
Pd 14.802 47.1031 24.2877
Pd 16.6881 45.2314 24.3037
Co 16.7476 47.0798 22.4497
Pd 14.8106 45.2093 26.2295
Pd 14.8021 47.1016 28.1728
Pd 16.6881 45.2299 28.1553
Co 16.7128 47.0663 26.2302
Pd 14.7906 45.2311 30.086
Pd 16.6759 45.2495 31.9655
Co 16.7476 47.0769 30.0107
Pd 16.7327 48.8941 24.3574
Pd 14.8627 48.8187 26.2309
Pd 16.7327 48.8927 28.1045
Pd 18.5947 5.29996 20.4874
Pd 20.534 3.52835 20.5287
Co 20.5439 5.36058 18.6324
Pd 18.6321 3.53385 22.4329
Pd 18.6327 5.34714 24.335
Pd 20.5056 3.44112 24.3081
Co 20.5127 5.32742 22.4097
Pd 18.602 3.45899 26.2136
Pd 18.6327 5.34571 28.0937
Pd 20.5056 3.43967 28.1191
Co 20.5236 5.29978 26.2143
Pd 18.6321 3.53097 29.9944
Pd 18.5948 5.2956 31.9412
Pd 20.534 3.52402 31.8985
Co 20.5128 5.32452 30.019
Co 20.5439 5.3548 33.7963
Pd 18.5761 9.06523 16.6652
Pd 20.4731 7.20036 16.6766
Co 20.5162 9.12766 14.8009
Pd 18.59 7.19389 18.5622
Pd 18.5768 9.07635 20.472
Pd 20.4856 7.19593 20.4896
Co 20.4649 9.07391 18.5608
Pd 18.5949 7.19968 22.3804
Pd 18.5869 9.10136 24.289
Pd 20.5141 7.21426 24.3098
Co 20.494 9.09949 22.3929
Pd 18.6007 7.23582 26.215
Pd 18.5869 9.09989 28.1425
Pd 20.5142 7.21281 28.1203
Co 20.5023 9.11014 26.2158
Pd 18.5949 7.19676 30.0497
Pd 18.5768 9.07198 31.9595
Pd 20.4856 7.19156 31.9404
Co 20.494 9.09658 30.0386
Pd 18.59 7.18806 33.8678
Pd 18.5761 9.05796 35.7662
Pd 20.4732 7.1931 35.7534
Co 20.465 9.06808 33.8707
Co 20.5163 9.11897 37.6307
Pd 18.5679 12.8594 12.8554
Pd 20.4609 10.9858 12.8594
Co 20.5144 12.9235 10.9981
Pd 18.571 10.9754 14.7425
Pd 18.5581 12.8589 16.6561
Pd 20.4591 10.9784 16.6621
Co 20.4511 12.8596 14.7467
Pd 18.5661 10.9727 18.5546
Pd 18.5661 12.8742 20.4692
Pd 20.4775 10.9829 20.4755
Co 20.4733 12.8785 18.5719
Pd 18.5724 10.9843 22.3796
Pd 18.5769 12.8831 24.3007
Pd 20.4896 10.9967 24.302
Co 20.4808 12.8859 22.3893
Pd 18.5806 10.9906 26.2165
Pd 18.5769 12.8816 28.1337
Pd 20.4897 10.9953 28.131
Co 20.4857 12.8912 26.2172
Pd 18.5725 10.9813 30.0534
Pd 18.5662 12.8698 31.9652
Pd 20.4775 10.9785 31.9574
Co 20.4809 12.883 30.0451
Pd 18.5662 10.9669 33.8784
Pd 18.5582 12.8516 35.7782
Pd 20.4592 10.9711 35.7708
Co 20.4733 12.8727 33.8625
Pd 18.5711 10.9667 37.6905
Pd 18.568 12.8493 39.579
Pd 20.461 10.9757 39.5735
Co 20.4511 12.8509 37.6877
Co 20.5145 12.9119 41.4363
Pd 18.5834 16.6793 9.0624
Pd 20.4659 14.796 9.06853
Co 20.5343 16.7548 7.21583
Pd 18.5716 14.7818 10.9421
Pd 18.5588 16.659 12.8624
Pd 20.4555 14.7713 12.8631
Co 20.4546 16.6653 10.9612
Pd 18.5568 14.7634 14.7494
Pd 18.5603 16.6656 16.6657
Pd 20.4673 14.7678 16.6655
Co 20.47 16.6713 14.7753
Pd 18.5614 14.7666 18.566
Pd 18.5722 16.675 20.4827
Pd 20.4776 14.7802 20.4826
Co 20.4756 16.6747 18.5795
Pd 18.5731 14.7779 22.3885
Pd 18.5785 16.681 24.3052
Pd 20.4837 14.7866 24.3048
Co 20.4836 16.6838 22.3965
Pd 18.576 14.7805 26.2179
Pd 18.5785 16.6795 28.1321
Pd 20.4837 14.7851 28.1311
Co 20.4858 16.6858 26.2186
Pd 18.5731 14.775 30.0473
Pd 18.5723 16.6707 31.9545
Pd 20.4777 14.7759 31.9532
Co 20.4836 16.6809 30.0408
Pd 18.5615 14.7608 33.8699
Pd 18.5603 16.6583 35.7716
Pd 20.4673 14.7606 35.7703
Co 20.4757 16.6689 33.8577
Pd 18.5569 14.7547 37.6864
Pd 18.5589 16.6488 39.5748
Pd 20.4556 14.7612 39.5728
Co 20.4701 16.6626 37.662
Pd 18.5717 14.7702 41.4937
Pd 18.5835 16.6662 43.3749
Pd 20.466 14.783 43.3673
Co 20.4547 16.6537 41.476
Co 20.5345 16.7403 45.2215
Pd 18.6377 20.5345 5.29155
Pd 20.5248 18.6469 5.29082
Co 20.6086 20.6184 3.57133
Pd 18.6079 18.6169 7.15388
Pd 18.5845 20.48 9.09065
Pd 20.4718 18.5923 9.08992
Co 20.4924 20.5009 7.19645
Pd 18.5663 18.5738 10.9662
Pd 18.5657 20.476 12.8833
Pd 20.4692 18.5719 12.8826
Co 20.4815 20.4885 11.0041
Pd 18.5609 18.567 14.7731
Pd 18.5718 20.4812 16.6854
Pd 20.4759 18.5766 16.6846
Co 20.4758 20.4814 14.7938
Pd 18.5716 18.5762 18.581
Pd 18.5801 20.4874 20.493
Pd 20.4836 18.5834 20.4923
Co 20.4834 20.4875 18.5938
Pd 18.5793 18.5824 22.397
Pd 18.5864 20.4906 24.3099
Pd 20.4883 18.5883 24.3092
Co 20.4895 20.4921 22.4031
Pd 18.5826 18.5842 26.2194
Pd 18.5864 20.4892 28.1303
Pd 20.4883 18.5868 28.1295
Co 20.4921 20.4933 26.2201
Pd 18.5793 18.5795 30.0417
Pd 18.5801 20.4831 31.9472
Pd 20.4837 18.5791 31.9464
Co 20.4896 20.4892 30.0371
Pd 18.5717 18.5704 33.8577
Pd 18.5718 20.4739 35.7548
Pd 20.4759 18.5693 35.7541
Co 20.4835 20.4817 33.8463
Pd 18.561 18.5583 37.6656
Pd 18.5658 20.4658 39.5568
Pd 20.4693 18.5618 39.5561
Co 20.4759 20.4727 37.6464
Pd 18.5664 18.5622 41.4725
Pd 18.5847 20.4669 43.3495
Pd 20.4719 18.5792 43.3488
Co 20.4816 20.4769 41.4361
Pd 18.608 18.6023 45.2849
Pd 18.6379 20.5186 47.1487
Pd 20.525 18.6309 47.1479
Co 20.4926 20.4864 45.2437
Co 20.6088 20.6012 48.8689
Pd 18.7448 22.5348 3.44477
Pd 18.6611 24.3391 5.3817
Pd 20.5506 22.4498 5.3666
Co 20.5671 24.3594 3.51843
Pd 18.6107 22.403 7.20949
Pd 18.5937 24.3047 9.12352
Pd 20.4973 22.4018 9.11965
Co 20.5358 24.3312 7.25386
Pd 18.5774 22.3867 11.0007
Pd 18.577 24.3072 12.9044
Pd 20.4806 22.3944 12.9104
Co 20.4903 24.3089 11.0282
Pd 18.5727 22.3919 14.7931
Pd 18.5776 24.3093 16.6966
Pd 20.4823 22.396 16.6999
Co 20.4824 24.31 14.81
Pd 18.5792 22.3961 18.5934
Pd 18.5862 24.3109 20.5
Pd 20.4894 22.3998 20.5012
Co 20.4875 24.3108 18.6026
Pd 18.5873 22.3992 22.4035
Pd 18.5926 24.3109 24.3129
Pd 20.4943 22.4016 24.3128
Co 20.4943 24.3119 22.4079
Pd 18.5908 22.3993 26.2208
Pd 18.5927 24.3095 28.1302
Pd 20.4943 22.4001 28.1288
Co 20.4968 24.3113 26.2215
Pd 18.5873 22.3963 30.0382
Pd 18.5862 24.3065 31.9431
Pd 20.4895 22.3955 31.9404
Co 20.4943 24.309 30.0351
Pd 18.5792 22.3903 33.8482
Pd 18.5776 24.302 35.7465
Pd 20.4824 22.3888 35.7417
Co 20.4876 24.305 33.8405
Pd 18.5728 22.3832 37.6485
Pd 18.5771 24.2971 39.5387
Pd 20.4807 22.3842 39.5312
Co 20.4825 24.3013 37.6331
Pd 18.5775 22.3751 41.4409
Pd 18.5938 24.2917 43.3196