4033
Atoms. Timestep: 20150
Co 5.47719 13.0192 26.2171
Pd 3.55021 16.7336 24.3443
Pd 5.34124 14.8029 24.275
Co 5.36541 16.7489 22.4375
Pd 3.62468 14.8631 26.2174
Pd 3.54991 16.7326 28.0914
Pd 5.34094 14.802 28.16
Co 5.37709 16.7131 26.218
Co 5.36481 16.747 29.9985
Pd 3.52518 20.5417 20.5339
Pd 5.29625 18.6019 20.4915
Co 5.35684 20.5515 18.637
Pd 3.53074 18.6393 22.4375
Pd 3.43908 20.5124 24.3132
Pd 5.3446 18.639 24.3391
Co 5.32482 20.5195 22.4142
Pd 3.45702 18.6083 26.2183
Pd 3.43878 20.5115 28.1242
Pd 5.3443 18.638 28.0978
Co 5.29833 20.5294 26.2189
Pd 3.53015 18.6375 29.999
Pd 3.52429 20.5389 31.9036
Pd 5.29535 18.5991 31.9454
Co 5.32422 20.5176 30.0235
Co 5.35564 20.5478 33.8008
Pd 3.55247 24.3504 16.7292
Pd 5.31461 22.4084 16.6874
Co 5.40873 24.3534 14.8366
Pd 3.53422 22.4478 18.6255
Pd 3.44302 24.3236 20.502
Pd 5.33343 22.4426 20.5343
Co 5.34416 24.3198 18.614
Pd 3.4338 22.4176 22.4083
Pd 3.41485 24.3204 24.3138
Pd 5.28839 22.4213 24.3138
Co 5.28598 24.3298 22.4191
Pd 3.42133 22.4161 26.2192
Pd 3.41454 24.3195 28.1256
Pd 5.28809 22.4204 28.1249
Co 5.27043 24.3218 26.2198
Pd 3.4332 22.4157 30.0301
Pd 3.44212 24.3208 31.9373
Pd 5.33254 22.4398 31.9044
Co 5.28538 24.3279 30.0206
Pd 3.53302 22.4441 33.8129
Pd 3.55098 24.3458 35.7102
Pd 5.31311 22.4038 35.7513
Co 5.34296 24.3161 33.8256
Co 5.40694 24.3479 37.603
Pd 5.39752 26.2284 12.9624
Pd 3.62307 26.2282 14.8578
Pd 3.55301 28.105 16.7301
Pd 5.39651 26.2275 16.7469
Co 5.40927 28.1024 14.8375
Pd 3.46505 26.2273 18.5993
Pd 3.44356 28.13 20.5029
Pd 5.30602 26.2266 20.5099
Co 5.34471 28.1342 18.615
Pd 3.42341 26.2264 22.4066
Pd 3.41539 28.1314 24.3147
Pd 5.27507 26.2256 24.3204
Co 5.28653 28.1224 22.42
Pd 3.40776 26.2254 26.2201
Pd 3.41509 28.1304 28.1265
Pd 5.27477 26.2247 28.1201
Co 5.27098 28.1285 26.2207
Pd 3.42281 26.2245 30.0337
Pd 3.44266 28.1273 31.9382
Pd 5.30512 26.2238 31.9307
Co 5.28593 28.1206 30.0215
Pd 3.46385 26.2236 33.841
Pd 3.55152 28.1004 35.7111
Pd 5.39501 26.2229 35.6937
Co 5.34351 28.1305 33.8265
Pd 3.62128 26.2226 37.5825
Pd 5.39543 26.2219 39.4781
Co 5.40747 28.0969 37.6039
Pd 5.31571 30.0465 16.6893
Pd 3.5353 30.0067 18.6274
Pd 3.52681 31.9119 20.5366
Pd 5.33452 30.0105 20.5361
Co 5.35847 31.9025 18.6397
Pd 3.43489 30.0351 22.4102
Pd 3.44072 31.9394 24.316
Pd 5.28948 30.03 24.3157
Co 5.32645 31.9327 22.417
Pd 3.42243 30.0347 26.221
Pd 3.44042 31.9385 28.127
Pd 5.28918 30.029 28.1267
Co 5.29996 31.9209 26.2217
Pd 3.43429 30.0333 30.0319
Pd 3.52592 31.9092 31.9064
Pd 5.33362 30.0077 31.9062
Co 5.32585 31.9309 30.0263
Pd 3.53411 30.0031 33.8147
Pd 5.3142 30.0419 35.7531
Co 5.35727 31.8988 33.8036
Pd 5.29844 33.8512 20.4952
Pd 3.53292 33.8134 22.4412
Pd 3.55293 35.7182 24.3489
Pd 5.34678 33.8123 24.3428
Co 5.36812 35.7033 22.4421
Pd 3.4592 33.8426 26.222
Pd 3.55264 35.7173 28.096
Pd 5.34648 33.8114 28.1015
Co 5.37982 35.7372 26.2226
Pd 3.53232 33.8115 30.0027
Pd 5.29754 33.8484 31.9491
Co 5.36753 35.7014 30.0031
Pd 5.34452 37.6484 24.2805
Pd 3.62794 37.5877 26.2229
Pd 5.34421 37.6474 28.1656
Co 5.48098 39.4311 26.2235
Co 9.23152 9.23673 26.2165
Pd 7.22888 12.8818 24.2916
Pd 9.09143 11.0039 24.2932
Co 9.12895 12.922 22.4119
Pd 7.28695 11.0682 26.2167
Pd 7.22857 12.8808 28.1428
Pd 9.09113 11.003 28.1405
Co 9.09452 12.8846 26.2173
Co 9.12835 12.9201 30.0227
Pd 7.1922 16.6776 20.4822
Pd 9.06529 14.78 20.4658
Co 9.11113 16.7203 18.6071
Pd 7.21113 14.7918 22.3611
Pd 7.21292 16.6889 24.2923
Pd 9.08642 14.7819 24.2884
Co 9.075 16.6703 22.3634
Pd 7.23408 14.811 26.2177
Pd 7.21261 16.688 28.1439
Pd 9.08612 14.781 28.1472
Co 9.10523 16.6903 26.2183
Pd 7.21052 14.79 30.0741
Pd 7.19129 16.6748 31.954
Pd 9.06438 14.7773 31.9698
Co 9.07439 16.6685 30.0731
Co 9.10993 16.7166 33.8294
Pd 7.19602 20.4808 16.6806
Pd 9.06036 18.5832 16.6682
Co 9.12276 20.5238 14.8043
Pd 7.1896 18.5972 18.5658
Pd 7.19273 20.4923 20.4936
Pd 9.07263 18.583 20.475
Co 9.07013 20.4716 18.5642
Pd 7.19655 18.6011 22.3839
Pd 7.21223 20.5199 24.3138
Pd 9.09879 18.5922 24.292
Co 9.09687 20.4997 22.3963
Pd 7.23384 18.6059 26.2186
Pd 7.21193 20.519 28.1243
Pd 9.09849 18.5912 28.1455
Co 9.10868 20.507 26.2192
Pd 7.19594 18.5992 30.0532
Pd 7.19183 20.4895 31.9444
Pd 9.07173 18.5802 31.9625
Co 9.09627 20.4979 30.042
Pd 7.18839 18.5934 33.8714
Pd 7.19451 20.4761 35.7574
Pd 9.05886 18.5785 35.7692
Co 9.06892 20.4679 33.8741
Co 9.12096 20.5183 37.6341
Pd 7.2367 24.3041 12.8844
Pd 9.08625 22.3972 12.867
Co 9.16895 24.3579 11.0264
Pd 7.21376 22.3999 14.7594
Pd 7.22956 24.2916 16.6927
Pd 9.08567 22.3812 16.6751
Co 9.09588 24.2831 14.7661
Pd 7.20119 22.4004 18.5847
Pd 7.21522 24.3235 20.5112
Pd 9.09417 22.3974 20.4915
Co 9.10887 24.3064 18.5937
Pd 7.20776 22.4177 22.4164
Pd 7.18525 24.3239 24.3186
Pd 9.10515 22.4187 24.3185
Co 9.10563 24.318 22.4124
Pd 7.18933 22.4223 26.2195
Pd 7.18495 24.323 28.1214
Pd 9.10485 22.4178 28.1208
Co 9.09931 24.3223 26.2201
Pd 7.20716 22.4159 30.0225
Pd 7.21432 24.3207 31.9287
Pd 9.09326 22.3946 31.9477
Co 9.10503 24.3161 30.0278
Pd 7.19998 22.3967 33.8543
Pd 7.22805 24.2869 35.7473
Pd 9.08416 22.3766 35.7641
Co 9.10767 24.3026 33.8465
Pd 7.21195 22.3943 37.6796
Pd 7.23459 24.2976 39.5555
Pd 9.08414 22.3907 39.5723
Co 9.09407 24.2776 37.6741
Co 9.16655 24.3505 41.4139
Pd 9.17696 26.2288 9.16531
Pd 7.32141 26.2286 11.0246
Pd 7.23725 28.1521 12.8853
Pd 9.12241 26.2279 12.9045
Co 9.16949 28.0987 11.0273
Pd 7.25565 26.2277 14.7892
Pd 7.23011 28.1629 16.6936
Pd 9.10984 26.2269 16.6859
Co 9.09644 28.1717 14.7671
Pd 7.23992 26.2267 18.6148
Pd 7.21576 28.1291 20.5122
Pd 9.11578 26.226 20.515
Co 9.10942 28.1466 18.5946
Pd 7.19155 26.2258 22.4176
Pd 7.18579 28.1268 24.3195
Pd 9.09927 26.2251 24.3173
Co 9.10617 28.1331 22.4133
Pd 7.18018 26.2249 26.2204
Pd 7.18549 28.1259 28.1223
Pd 9.09897 26.2242 28.1238
Co 9.09986 28.127 26.221
Pd 7.19095 26.224 30.0232
Pd 7.21486 28.1263 31.9296
Pd 9.11488 26.2232 31.9261
Co 9.10557 28.1313 30.0287
Pd 7.23872 26.223 33.826
Pd 7.22861 28.1582 35.7482
Pd 9.10833 26.2223 35.7553
Co 9.10822 28.1429 33.8474
Pd 7.25385 26.2221 37.6517
Pd 7.23514 28.1457 39.5565
Pd 9.12031 26.2214 39.5367
Co 9.09463 28.1661 37.675
Pd 7.31901 26.2212 41.4163
Pd 9.17427 26.2205 43.2758
Co 9.16709 28.0914 41.4148
Pd 9.08735 30.0585 12.8689
Pd 7.21486 30.0555 14.7612
Pd 7.19766 31.9737 16.6834
Pd 9.08677 30.0726 16.677
Co 9.1244 31.931 14.8071
Pd 7.20228 30.0531 18.5866
Pd 7.19438 31.9603 20.4964
Pd 9.09527 30.0547 20.4934
Co 9.07178 31.9814 18.567
Pd 7.20885 30.0339 22.4183
Pd 7.21387 31.9308 24.3165
Pd 9.10624 30.0315 24.3203
Co 9.09852 31.9514 22.3991
Pd 7.19042 30.0275 26.2213
Pd 7.21357 31.9299 28.1271
Pd 9.10594 30.0306 28.1227
Co 9.11032 31.9422 26.222
Pd 7.20825 30.0321 30.0244
Pd 7.19347 31.9575 31.9472
Pd 9.09436 30.0519 31.9496
Co 9.09791 31.9495 30.0448
Pd 7.20108 30.0494 33.8561
Pd 7.19616 31.969 35.7602
Pd 9.08527 30.068 35.766
Co 9.07057 31.9777 33.8769
Pd 7.21305 30.0499 37.6815
Pd 9.08524 30.052 39.5741
Co 9.1226 31.9254 37.6369
Pd 9.06256 33.8707 16.6719
Pd 7.19178 33.8564 18.5695
Pd 7.19494 35.775 20.4868
Pd 9.07482 33.8691 20.4787
Co 9.11386 35.7326 18.6117
Pd 7.19873 33.8506 22.3876
Pd 7.21565 35.7618 24.297
Pd 9.10098 33.858 24.2957
Co 9.07774 35.7808 22.368
Pd 7.23603 33.8438 26.2223
Pd 7.21535 35.7609 28.1485
Pd 9.10068 33.8571 28.1492
Co 9.10796 35.7589 26.2229
Pd 7.19813 33.8487 30.0569
Pd 7.19403 35.7722 31.9587
Pd 9.07392 33.8663 31.9662
Co 9.07713 35.7789 30.0778
Pd 7.19058 33.8526 33.8751
Pd 9.06105 33.8661 35.7729
Co 9.11266 35.7289 33.834
Pd 9.06857 37.672 20.4714
Pd 7.21441 37.6598 22.3667
Pd 7.2327 39.569 24.2981
Pd 9.0897 37.6683 24.294
Co 9.13277 39.5291 22.4184
Pd 7.23735 37.6388 26.2232
Pd 7.2324 39.568 28.1492
Pd 9.0894 37.6673 28.1527
Co 9.09835 39.5646 26.2238
Pd 7.2138 37.6579 30.0797
Pd 9.06766 37.6692 31.9753
Co 9.13217 39.5273 30.0292
Pd 9.0958 41.4463 24.3006
Pd 7.29129 41.3816 26.2241
Pd 9.0955 41.4454 28.1479
Co 9.23639 43.2125 26.2247
Co 13.0129 5.48131 26.2158
Pd 10.9983 9.09645 24.2929
Pd 12.8757 7.23336 24.2907
Co 12.9161 9.13373 22.4113
Pd 11.0624 7.29163 26.2161
Pd 10.998 9.09552 28.1402
Pd 12.8754 7.23242 28.1418
Co 12.8794 9.09869 26.2167
Co 12.9155 9.13188 30.0221
Pd 10.9712 12.8596 20.4657
Pd 12.8539 10.9763 20.4654
Co 12.901 12.9064 18.5971
Pd 10.9827 10.9881 22.3607
Pd 10.9805 12.8742 24.2872
Pd 12.8692 10.9849 24.2868
Co 12.8555 12.8603 22.3576
Pd 11.0093 11.014 26.217
Pd 10.9802 12.8733 28.1478
Pd 12.8689 10.984 28.1475
Co 12.882 12.8861 26.2176
Pd 10.9821 10.9862 30.0733
Pd 10.9703 12.8568 31.9692
Pd 12.853 10.9735 31.9689
Co 12.8549 12.8585 30.0776
Co 12.8998 12.9027 33.8382
Pd 10.9651 16.6587 16.662
Pd 12.8454 14.7676 16.6569
Co 12.8993 16.7069 14.7939
Pd 10.9677 14.774 18.546
Pd 10.9694 16.664 20.4645
Pd 12.8547 14.7651 20.4602
Co 12.8483 16.6522 18.5458
Pd 10.9745 14.7738 22.363
Pd 10.9809 16.6764 24.2927
Pd 12.8712 14.7725 24.2911
Co 12.8736 16.6737 22.3815
Pd 10.9785 14.7731 26.2179
Pd 10.9806 16.6755 28.1441
Pd 12.8709 14.7716 28.1451
Co 12.8752 16.6742 26.2185
Pd 10.9738 14.772 30.0728
Pd 10.9685 16.6612 31.9723
Pd 12.8538 14.7623 31.976
Co 12.873 16.6718 30.0556
Pd 10.9664 14.7703 33.8898
Pd 10.9635 16.654 35.7747
Pd 12.8439 14.763 35.7793
Co 12.8471 16.6484 33.8913
Co 12.8975 16.7013 37.6432
Pd 10.9803 20.4685 12.8623
Pd 12.8534 18.5749 12.8572
Co 12.9175 20.5219 11.0003
Pd 10.97 18.5781 14.7449
Pd 10.974 20.4657 16.665
Pd 12.854 18.5642 16.6579
Co 12.8547 20.4576 14.749
Pd 10.9684 18.5723 18.557
Pd 10.9797 20.4831 20.4784
Pd 12.8705 18.5713 20.471
Co 12.8747 20.4789 18.5741
Pd 10.9811 18.5776 22.3819
Pd 10.9947 20.4944 24.3048
Pd 12.8805 18.5811 24.3025
Co 12.8833 20.4855 22.3916
Pd 10.9886 18.5849 26.2189
Pd 10.9944 20.4934 28.1338
Pd 12.8802 18.5802 28.1355
Co 12.8897 20.4894 26.2195
Pd 10.9805 18.5758 30.0558
Pd 10.9788 20.4803 31.9603
Pd 12.8696 18.5685 31.967
Co 12.8827 20.4836 30.0474
Pd 10.9672 18.5685 33.8807
Pd 10.9725 20.461 35.7736
Pd 12.8525 18.5596 35.7801
Co 12.8735 20.4752 33.8648
Pd 10.9682 18.5725 37.6929
Pd 10.9782 20.462 39.5764
Pd 12.8513 18.5684 39.5808
Co 12.8529 20.4521 37.69
Co 12.9151 20.5145 41.4386
Pd 11.0248 24.3073 9.08832
Pd 12.8843 22.3997 9.07298
Co 12.9722 24.3585 7.24246
Pd 10.9966 22.3999 10.953
Pd 10.9999 24.2916 12.8788
Pd 12.8691 22.3784 12.8676
Co 12.8835 24.2828 10.9706
Pd 10.9813 22.3803 14.7595
Pd 10.9863 24.3005 16.6745
Pd 12.8738 22.3831 16.6709
Co 12.8835 24.303 14.7792
Pd 10.983 22.3866 18.5783
Pd 10.9986 24.3081 20.4944
Pd 12.8851 22.3937 20.4886
Co 12.8835 24.3053 18.5832
Pd 10.9948 22.4009 22.3992
Pd 11.0056 24.3165 24.3129
Pd 12.8956 22.4004 24.3074
Co 12.8968 24.3105 22.4011
Pd 11.0055 22.4058 26.2198
Pd 11.0053 24.3156 28.1276
Pd 12.8953 22.3995 28.1325
Co 12.9029 24.3124 26.2204
Pd 10.9942 22.399 30.0404
Pd 10.9977 24.3053 31.9461
Pd 12.8842 22.391 31.9513
Co 12.8962 24.3087 30.0398
Pd 10.9818 22.3829 33.8613
Pd 10.9848 24.2958 35.766
Pd 12.8723 22.3784 35.769
Co 12.8823 24.3016 33.8576
Pd 10.9795 22.3747 37.68
Pd 10.9978 24.2851 39.5617
Pd 12.867 22.372 39.5723
Co 12.8817 24.2974 37.6616
Pd 10.9942 22.3925 41.4865
Pd 11.0221 24.2989 43.3522
Pd 12.8816 22.3913 43.3669
Co 12.8811 24.2754 41.4701
Co 12.9693 24.3492 45.1984
Pd 13.0051 26.2291 5.37517
Pd 11.1275 26.229 7.22835
Pd 11.0253 28.1498 9.08925
Pd 12.9155 26.2282 9.11972
Co 12.9728 28.0989 7.24337
Pd 11.0346 26.228 10.9897
Pd 11.0004 28.1636 12.8798
Pd 12.8912 26.2273 12.8832
Co 12.884 28.1728 10.9716
Pd 10.996 26.2271 14.7814
Pd 10.9869 28.1529 16.6755
Pd 12.8836 26.2264 16.6848
Co 12.884 28.1508 14.7801
Pd 10.9963 26.2262 18.5885
Pd 10.9992 28.1434 20.4953
Pd 12.8923 26.2255 20.494
Co 12.8841 28.1466 18.5841
Pd 11.0074 26.2253 22.4088
Pd 11.0062 28.1331 24.3138
Pd 12.9041 26.2245 24.3138
Co 12.8973 28.1395 22.402
Pd 11.0046 26.2244 26.2207
Pd 11.0059 28.1322 28.1285
Pd 12.9038 26.2236 28.128
Co 12.9035 28.1358 26.2213
Pd 11.0068 26.2234 30.0327
Pd 10.9983 28.1406 31.9471
Pd 12.8914 26.2227 31.9477
Co 12.8967 28.1376 30.0407
Pd 10.9951 26.2225 33.853
Pd 10.9854 28.1482 35.7669
Pd 12.8821 26.2218 35.7569
Co 12.8829 28.1429 33.8585
Pd 10.9942 26.2216 37.6601
Pd 10.9983 28.1571 39.5626
Pd 12.8891 26.2208 39.5586
Co 12.8822 28.1452 37.6626
Pd 11.0322 26.2206 41.4517
Pd 11.0226 28.1414 43.3531
Pd 12.9128 26.2199 43.322
Co 12.8816 28.1654 41.4711
Pd 11.1245 26.2197 45.2131
Pd 13.0019 26.219 47.0666
Co 12.9698 28.0897 45.1993
Pd 12.8854 30.0568 9.07484
Pd 10.9977 30.0562 10.9549
Pd 10.982 31.9867 12.8651
Pd 12.8702 30.0762 12.8695
Co 12.9191 31.9337 11.0031
Pd 10.9824 30.074 14.7614
Pd 10.9757 31.9877 16.6678
Pd 12.8749 30.0697 16.6727
Co 12.8563 31.9961 14.7518
Pd 10.9841 30.0658 18.5801
Pd 10.9814 31.9684 20.4812
Pd 12.8862 30.0572 20.4904
Co 12.8764 31.973 18.5769
Pd 10.9959 30.0497 22.4011
Pd 10.9963 31.9553 24.3076
Pd 12.8967 30.0487 24.3093
Co 12.8849 31.9645 22.3943
Pd 11.0066 30.0429 26.2216
Pd 10.996 31.9543 28.1366
Pd 12.8964 30.0477 28.1343
Co 12.8914 31.9588 26.2223
Pd 10.9953 30.0478 30.0422
Pd 10.9804 31.9656 31.9631
Pd 12.8853 30.0544 31.9532
Co 12.8843 31.9627 30.0502
Pd 10.9829 30.0621 33.8632
Pd 10.9742 31.983 35.7764
Pd 12.8734 30.0651 35.7709
Co 12.8752 31.9693 33.8676
Pd 10.9806 30.0684 37.6819
Pd 10.9799 31.9802 39.5792
Pd 12.8681 30.0697 39.5741
Co 12.8545 31.9905 37.6928
Pd 10.9953 30.0488 41.4884
Pd 12.8826 30.0485 43.3688
Co 12.9167 31.9263 41.4414
Pd 12.8556 33.8797 12.8609
Pd 10.9722 33.8762 14.7486
Pd 10.9678 35.7947 16.6667
Pd 12.8562 33.8886 16.6617
Co 12.902 35.7468 14.7986
Pd 10.9706 33.8802 18.5607
Pd 10.9721 35.7875 20.4691
Pd 12.8727 33.8797 20.4747
Co 12.8511 35.7997 18.5504
Pd 10.9833 33.8729 22.3857
Pd 10.9837 35.7732 24.2973
Pd 12.8827 33.868 24.3062
Co 12.8764 35.7763 22.3861
Pd 10.9908 33.8638 26.2226
Pd 10.9834 35.7723 28.1488
Pd 12.8824 33.8671 28.1392
Co 12.8779 35.774 26.2232
Pd 10.9827 33.8711 30.0595
Pd 10.9712 35.7848 31.977
Pd 12.8717 33.8769 31.9708
Co 12.8758 35.7745 30.0603
Pd 10.9694 33.8764 33.8845
Pd 10.9663 35.7901 35.7794
Pd 12.8547 33.884 35.7838
Co 12.8499 35.796 33.8959
Pd 10.9704 33.8706 37.6966
Pd 12.8535 33.8732 39.5845
Co 12.9002 35.7413 37.6478
Pd 12.8487 37.6852 16.6624
Pd 10.9709 37.6784 18.5516
Pd 10.975 39.5919 20.4722
Pd 12.858 37.6858 20.4657
Co 12.9049 39.5454 18.6035
Pd 10.9777 37.6768 22.3686
Pd 10.9843 39.5754 24.2936
Pd 12.8745 37.6766 24.2967
Co 12.8594 39.5897 22.3641
Pd 10.9818 37.6756 26.2235
Pd 10.984 39.5745 28.1543
Pd 12.8742 37.6756 28.1506
Co 12.8858 39.562 26.2241
Pd 10.9771 37.6749 30.0784
Pd 10.9741 39.5891 31.9757
Pd 12.8571 37.683 31.9816
Co 12.8587 39.5878 30.0841
Pd 10.9697 37.6747 33.8954
Pd 12.8472 37.6806 35.7849
Co 12.9037 39.5417 33.8447
Pd 12.8583 41.4747 20.4728
Pd 10.9871 41.4625 22.3681
Pd 11.0032 43.3532 24.3012
Pd 12.8736 41.4642 24.2943
Co 12.921 43.3163 22.4196
Pd 11.0137 41.4347 26.2244
Pd 11.0029 43.3523 28.1485
Pd 12.8733 41.4632 28.1549
Co 12.8843 43.3495 26.225
Pd 10.9865 41.4606 30.0807
Pd 12.8574 41.4719 31.9763
Co 12.9204 43.3144 30.0304
Pd 12.8811 45.2157 24.2999
Pd 11.0678 45.1571 26.2253
Pd 12.8808 45.2148 28.1511
Co 13.0189 46.9668 26.2259
Pd 14.7963 5.34518 24.2734
Pd 16.7264 3.55358 24.3421
Co 16.7419 5.36908 22.4356
Pd 14.8563 3.62828 26.2155
Pd 14.7959 5.34423 28.1585
Pd 16.7261 3.55267 28.0892
Co 16.7068 5.38015 26.2161
Co 16.7413 5.36725 29.9966
Pd 14.7738 9.06986 20.4649
Pd 16.6709 7.19622 20.4806
Co 16.7138 9.11544 18.6059
Pd 14.7854 7.21538 22.3599
Pd 14.7763 9.09036 24.2875
Pd 16.6828 7.21631 24.2908
Co 16.6645 9.07871 22.3621
Pd 14.8052 7.23769 26.2164
Pd 14.776 9.08942 28.1462
Pd 16.6825 7.21537 28.1423
Co 16.6851 9.1083 26.217
Pd 14.7848 7.2135 30.0729
Pd 14.7729 9.06706 31.9688
Pd 16.67 7.19343 31.9525
Co 16.6638 9.07684 30.0719
Co 16.7126 9.11174 33.8282
Pd 14.7619 12.8506 16.6565
Pd 16.6524 10.9697 16.6611
Co 16.7009 12.9042 14.7933
Pd 14.768 10.9725 18.5454
Pd 14.76 12.8593 20.4599
Pd 16.6583 10.9734 20.4635
Co 16.6467 12.8527 18.5452
Pd 14.7685 10.9787 22.3624
Pd 14.7681 12.8751 24.2908
Pd 16.6714 10.9843 24.2918
Co 16.6689 12.8773 22.3809
Pd 14.7684 10.9822 26.2173
Pd 14.7678 12.8742 28.1447
Pd 16.6711 10.9834 28.1432
Co 16.67 12.8782 26.2179
Pd 14.7679 10.9768 30.0722
Pd 14.7591 12.8565 31.9757
Pd 16.6574 10.9706 31.9714
Co 16.6683 12.8755 30.055
Pd 14.7668 10.9688 33.8892
Pd 14.7603 12.8459 35.779
Pd 16.6509 10.9651 35.7738
Co 16.6455 12.8489 33.8907
Co 16.6991 12.8987 37.6426
Pd 14.7647 16.6548 12.8558
Pd 16.649 14.77 12.8555
Co 16.709 16.7145 10.9948
Pd 14.7614 14.7669 14.7391
Pd 14.7557 16.653 16.655
Pd 16.6478 14.7603 16.6547
Co 16.6436 16.6486 14.7449
Pd 14.7568 14.7617 18.5484
Pd 14.7623 16.6665 20.4688
Pd 16.662 14.7663 20.4685
Co 16.6637 16.6681 18.5693
Pd 14.7629 14.7671 22.3774
Pd 14.7735 16.6748 24.301
Pd 16.6708 14.7769 24.3007
Co 16.67 16.6737 22.3883
Pd 14.7715 14.7751 26.2182
Pd 14.7732 16.6738 28.1364
Pd 16.6705 14.776 28.1361
Co 16.6752 16.6783 26.2188
Pd 14.7623 14.7653 30.059
Pd 14.7614 16.6637 31.9686
Pd 16.6611 14.7635 31.9683
Co 16.6694 16.6719 30.0494
Pd 14.7556 14.758 33.8881
Pd 14.7542 16.6483 35.7823
Pd 16.6463 14.7557 35.782
Co 16.6625 16.6643 33.8683
Pd 14.7596 14.7613 37.6974
Pd 14.7626 16.6483 39.5816
Pd 16.6469 14.7635 39.5813
Co 16.6418 16.643 37.6928
Co 16.7066 16.7071 41.4429
Pd 14.7894 20.4734 9.07023
Pd 16.6721 18.5903 9.06308
Co 16.7476 20.5417 7.21696
Pd 14.7753 18.5785 10.9434
Pd 14.7658 20.462 12.8648
Pd 16.653 18.5648 12.8631
Co 16.6592 20.461 10.9624
Pd 14.758 18.5629 14.7506
Pd 14.7635 20.4728 16.6672
Pd 16.6607 18.5653 16.6664
Co 16.6664 20.4756 14.7764
Pd 14.7623 18.5665 18.5672
Pd 14.777 20.4823 20.4843
Pd 16.6713 18.5764 20.4834
Co 16.671 20.4802 18.5807
Pd 14.7748 18.5772 22.3898
Pd 14.7845 20.4874 24.3065
Pd 16.6784 18.5817 24.3059
Co 16.6812 20.4872 22.3976
Pd 14.7785 18.5792 26.2192
Pd 14.7842 20.4864 28.1328
Pd 16.6781 18.5808 28.1327
Co 16.6843 20.4885 26.2198
Pd 14.7742 18.5754 30.0486
Pd 14.7761 20.4795 31.9549
Pd 16.6704 18.5736 31.9552
Co 16.6806 20.4853 30.0419
Pd 14.7611 18.5628 33.8711
Pd 14.762 20.4682 35.772
Pd 16.6592 18.5607 35.7722
Co 16.6698 20.4765 33.8589
Pd 14.7562 18.5573 37.6877
Pd 14.7637 20.4555 39.5745
Pd 16.6509 18.5583 39.5755
Co 16.6646 20.47 37.6632
Pd 14.7728 18.5711 41.495
Pd 14.7867 20.465 43.369
Pd 16.6694 18.582 43.3755
Co 16.6568 20.4536 41.4772
Co 16.7446 20.5325 45.2226
Pd 14.8486 24.3084 5.33359
Pd 16.7398 22.4228 5.30428
Co 16.8397 24.3843 3.59921
Pd 14.8165 22.4 7.17175
Pd 14.8008 24.2912 9.09801
Pd 16.6812 22.3839 9.0937
Co 16.7052 24.2836 7.21364
Pd 14.7772 22.3793 10.9688
Pd 14.7744 24.2994 12.8792
Pd 16.6694 22.3825 12.8814
Co 16.684 24.3039 11.0002
Pd 14.7676 22.3818 14.7732
Pd 14.7766 24.3054 16.6826
Pd 16.6718 22.3908 16.6846
Co 16.6729 24.3041 14.7883
Pd 14.7765 22.3916 18.582
Pd 14.7855 24.3091 20.4918
Pd 16.6813 22.3961 20.4926
Co 16.6797 24.3089 18.5911
Pd 14.7874 22.3964 22.398
Pd 14.7962 24.3104 24.3099
Pd 16.6887 22.3984 24.31
Co 16.6889 24.3103 22.402
Pd 14.7916 22.3977 26.2201
Pd 14.7959 24.3095 28.1312
Pd 16.6884 22.3975 28.1305
Co 16.6936 24.3101 26.2207
Pd 14.7868 22.3946 30.0422
Pd 14.7846 24.3063 31.9493
Pd 16.6804 22.3934 31.9479
Co 16.6883 24.3085 30.0394
Pd 14.7753 22.3879 33.8582
Pd 14.7751 24.3007 35.7585
Pd 16.6703 22.3861 35.7558
Co 16.6785 24.3052 33.8503
Pd 14.7658 22.3762 37.667
Pd 14.7723 24.293 39.5619
Pd 16.6673 22.376 39.5591
Co 16.6711 24.2986 37.6531
Pd 14.7748 22.3719 41.4714
Pd 14.7981 24.2829 43.3431
Pd 16.6785 22.3756 43.3468
Co 16.6816 24.2965 41.4412
Pd 14.8135 22.3907 45.2684
Pd 14.8453 24.2982 47.1075
Pd 16.7365 22.4126 47.1362
Co 16.7022 24.2744 45.2278
Co 16.8362 24.3733 48.8423
Pd 15.033 26.2293 3.50764
Pd 14.8492 28.1494 5.33452
Pd 16.7675 26.2286 5.41788
Co 16.8403 28.0738 3.60011
Pd 14.838 26.2284 7.22289
Pd 14.8014 28.1647 9.09896
Pd 16.6997 26.2277 9.11186
Co 16.7058 28.1727 7.21458
Pd 14.7905 26.2275 10.994
Pd 14.7749 28.1547 12.8801
Pd 16.6779 26.2268 12.8982
Co 16.6845 28.1505 11.0011
Pd 14.7797 26.2266 14.7852
Pd 14.7772 28.1469 16.6835
Pd 16.6774 26.2259 16.6917
Co 16.6734 28.1485 14.7893
Pd 14.7823 26.2257 18.5886
Pd 14.786 28.1413 20.4927
Pd 16.6856 26.2249 20.4971
Co 16.6802 28.1419 18.592
Pd 14.7929 26.2247 22.4016
Pd 14.7967 28.1381 24.3109
Pd 16.6941 26.224 24.3112
Co 16.6895 28.1386 22.4029
Pd 14.8007 26.2238 26.221
Pd 14.7964 28.1372 28.1321
Pd 16.6938 26.2231 28.1311
Co 16.6941 28.137 26.2216
Pd 14.7923 26.2229 30.0404
Pd 14.7851 28.1385 31.9502
Pd 16.6847 26.2221 31.9452
Co 16.6889 28.1367 30.0404
Pd 14.7811 26.222 33.8534
Pd 14.7757 28.1423 35.7594
Pd 16.6759 26.2212 35.7507
Co 16.679 28.1382 33.8512
Pd 14.7779 26.221 37.6569
Pd 14.7728 28.1482 39.5628
Pd 16.6758 26.2203 39.5441
Co 16.6716 28.1429 37.654
Pd 14.7881 26.2201 41.448
Pd 14.7987 28.1564 43.344
Pd 16.697 26.2194 43.3305
Co 16.6821 28.1431 41.4421
Pd 14.835 26.2192 45.2192
Pd 14.8459 28.1392 47.1085
Pd 16.7643 26.2185 47.0245
Co 16.7028 28.1634 45.2287
Pd 15.0294 26.2183 48.9344
Co 16.8367 28.0628 48.8431
Pd 16.7409 30.0344 5.30613
Pd 14.8176 30.0569 7.17361
Pd 14.791 31.9826 9.07303
Pd 16.6823 30.0715 9.09557
Co 16.7492 31.9146 7.21972
Pd 14.7783 30.0757 10.9706
Pd 14.7675 31.9921 12.8676
Pd 16.6705 30.071 12.8833
Co 16.6609 31.9935 10.9652
Pd 14.7687 30.0714 14.7751
Pd 14.7651 31.9794 16.67
Pd 16.6729 30.0609 16.6865
Co 16.6681 31.9771 14.7792
Pd 14.7776 30.0597 18.5838
Pd 14.7787 31.9682 20.4871
Pd 16.6824 30.0537 20.4944
Co 16.6726 31.9706 18.5834
Pd 14.7885 30.0531 22.3998
Pd 14.7862 31.9612 24.3093
Pd 16.6898 30.0496 24.3118
Co 16.6828 31.9617 22.4004
Pd 14.7927 30.0499 26.2219
Pd 14.7859 31.9602 28.1355
Pd 16.6895 30.0487 28.1324
Co 16.686 31.9586 26.2226
Pd 14.7879 30.0512 30.0441
Pd 14.7778 31.9654 31.9577
Pd 16.6815 30.0509 31.9498
Co 16.6822 31.9599 30.0447
Pd 14.7764 30.056 33.8601
Pd 14.7636 31.9748 35.7748
Pd 16.6714 30.0563 35.7577
Co 16.6714 31.9669 33.8617
Pd 14.7669 30.0659 37.6688
Pd 14.7654 31.9856 39.5773
Pd 16.6684 30.0646 39.5609
Co 16.6663 31.9715 37.6659
Pd 14.7759 30.0683 41.4733
Pd 14.7883 31.9743 43.3718
Pd 16.6796 30.0632 43.3486
Co 16.6585 31.986 41.48
Pd 14.8146 30.0477 45.2703
Pd 16.7376 30.0243 47.1381
Co 16.7462 31.9054 45.2254
Pd 16.6743 33.8651 9.06679
Pd 14.7774 33.8765 10.9471
Pd 14.7674 35.7993 12.8604
Pd 16.6552 33.8888 12.8668
Co 16.7117 35.7399 10.9995
Pd 14.7602 33.8903 14.7544
Pd 14.7584 35.7993 16.6597
Pd 16.6629 33.8864 16.6701
Co 16.6464 35.8041 14.7495
Pd 14.7645 33.8848 18.5709
Pd 14.765 35.7839 20.4734
Pd 16.6735 33.8735 20.4871
Co 16.6665 35.7827 18.574
Pd 14.777 33.8722 22.3935
Pd 14.7763 35.7738 24.3057
Pd 16.6806 33.8663 24.3096
Co 16.6728 35.7752 22.393
Pd 14.7807 33.8684 26.2229
Pd 14.776 35.7729 28.141
Pd 16.6803 33.8654 28.1365
Co 16.678 35.7688 26.2235
Pd 14.7764 33.8704 30.0523
Pd 14.7641 35.7811 31.9733
Pd 16.6726 33.8707 31.9589
Co 16.6722 35.7733 30.054
Pd 14.7633 33.8811 33.8748
Pd 14.7569 35.7947 35.787
Pd 16.6614 33.8818 35.776
Co 16.6653 35.779 33.873
Pd 14.7584 33.8848 37.6914
Pd 14.7653 35.7928 39.5863
Pd 16.6531 33.8823 39.5792
Co 16.6446 35.7985 37.6975
Pd 14.775 33.8691 41.4987
Pd 16.6716 33.8567 43.3793
Co 16.7093 35.7325 41.4475
Pd 16.6523 37.6836 12.861
Pd 14.7647 37.6863 14.7447
Pd 14.7657 39.6017 16.6631
Pd 16.6511 37.6914 16.6603
Co 16.7047 39.5484 14.7998
Pd 14.7601 37.6896 18.5539
Pd 14.7638 39.5911 20.4664
Pd 16.6652 37.6836 20.474
Co 16.6506 39.5981 18.5517
Pd 14.7662 37.6824 22.383
Pd 14.7719 39.5734 24.2973
Pd 16.6741 37.6711 24.3063
Co 16.6727 39.5716 22.3873
Pd 14.7748 37.6725 26.2238
Pd 14.7716 39.5725 28.1512
Pd 16.6738 37.6701 28.1416
Co 16.6738 39.5688 26.2244
Pd 14.7656 37.6805 30.0646
Pd 14.7629 39.5883 31.9822
Pd 16.6643 37.6808 31.9739
Co 16.6721 39.5697 30.0615
Pd 14.7589 37.6859 33.8937
Pd 14.7642 39.597 35.7855
Pd 16.6496 37.6868 35.7876
Co 16.6494 39.5944 33.8972
Pd 14.7629 37.6807 37.7029
Pd 16.6502 37.6771 39.5869
Co 16.7029 39.5428 37.649
Pd 16.6568 41.482 16.6685
Pd 14.7724 41.4788 18.5528
Pd 14.7788 43.3806 20.4732
Pd 16.6627 41.4765 20.4709
Co 16.7187 43.3353 18.6142
Pd 14.7729 41.4708 22.3698
Pd 14.7813 43.3582 24.2958
Pd 16.6758 41.4637 24.2992
Co 16.6694 43.3702 22.3705
Pd 14.7727 41.4655 26.2247
Pd 14.781 43.3573 28.1546
Pd 16.6755 41.4628 28.1506
Co 16.69 43.3388 26.2253
Pd 14.7722 41.4689 30.0796
Pd 14.7779 43.3778 31.9772
Pd 16.6618 41.4737 31.9788
Co 16.6688 43.3684 30.0802
Pd 14.7712 41.4751 33.8966
Pd 16.6552 41.4774 35.7812
Co 16.7175 43.3316 33.8365
Pd 16.6764 45.2537 20.4899
Pd 14.7909 45.2341 22.3691
Pd 14.8022 47.1034 24.2836
Pd 16.6883 45.2317 24.3
Co 16.7479 47.0798 22.4457
Pd 14.8106 45.2099 26.2256
Pd 14.8019 47.1024 28.1686
Pd 16.688 45.2308 28.1516
Co 16.7128 47.0669 26.2262
Pd 14.7903 45.2322 30.0821
Pd 16.6754 45.2509 31.9617
Co 16.7473 47.078 30.0068
Pd 16.7329 48.8944 24.3531
Pd 14.8628 48.8193 26.2265
Pd 16.7326 48.8935 28.1002
Pd 18.5946 5.29972 20.4893
Pd 20.5339 3.52809 20.5311
Co 20.544 5.36005 18.6345
Pd 18.6318 3.53388 22.435
Pd 18.6323 5.34742 24.3369
Pd 20.5052 3.44137 24.3104
Co 20.5125 5.32742 22.4118
Pd 18.6014 3.45954 26.2158
Pd 18.632 5.34651 28.0956
Pd 20.5049 3.44045 28.1214
Co 20.5231 5.3003 26.2164
Pd 18.6312 3.53204 29.9966
Pd 18.5937 5.29693 31.9432
Pd 20.533 3.52532 31.9008
Co 20.5119 5.32557 30.021
Co 20.5428 5.35636 33.7983
Pd 18.5764 9.06446 16.6666
Pd 20.4734 7.19957 16.6784
Co 20.5167 9.12661 14.8024
Pd 18.5901 7.19338 18.5639
Pd 18.5768 9.07611 20.4734
Pd 20.4855 7.19566 20.4914
Co 20.4651 9.07338 18.5624
Pd 18.5947 7.1997 22.3821
Pd 18.5866 9.10164 24.2904
Pd 20.5138 7.21452 24.3116
Co 20.4938 9.09948 22.3944
Pd 18.6002 7.23637 26.2167
Pd 18.5863 9.1007 28.1439
Pd 20.5135 7.21359 28.1221
Co 20.5018 9.11066 26.2173
Pd 18.5941 7.19784 30.0513
Pd 18.5758 9.07331 31.9609
Pd 20.4846 7.19287 31.9423
Co 20.4932 9.09762 30.0402
Pd 18.5889 7.18966 33.8695
Pd 18.5749 9.05982 35.7677
Pd 20.4719 7.19493 35.7553
Co 20.4639 9.06966 33.8722
Co 20.5149 9.12106 37.6322
Pd 18.5686 12.8581 12.8563
Pd 20.4616 10.9845 12.8607
Co 20.5152 12.9219 10.9991
Pd 18.5715 10.9744 14.7436
Pd 18.5585 12.8581 16.657
Pd 20.4594 10.9776 16.6634
Co 20.4516 12.8585 14.7477
Pd 18.5663 10.9722 18.5557
Pd 18.5662 12.8739 20.4701
Pd 20.4775 10.9826 20.4768
Co 20.4735 12.878 18.5729
Pd 18.5723 10.9843 22.3807
Pd 18.5766 12.8834 24.3016
Pd 20.4893 10.997 24.3032
Co 20.4807 12.8859 22.3903
Pd 18.5802 10.9911 26.2176
Pd 18.5763 12.8824 28.1346
Pd 20.489 10.996 28.1323
Co 20.4852 12.8917 26.2182
Pd 18.5717 10.9824 30.0545
Pd 18.5652 12.8711 31.9661
Pd 20.4766 10.9798 31.9587
Co 20.4801 12.884 30.0461
Pd 18.5651 10.9685 33.8795
Pd 18.557 12.8535 35.7791
Pd 20.4579 10.9729 35.7721
Co 20.4723 12.8743 33.8635
Pd 18.5697 10.9688 37.6916
Pd 18.5665 12.8516 39.5799
Pd 20.4595 10.978 39.5748
Co 20.4498 12.853 37.6887
Co 20.5128 12.9145 41.4374
Pd 18.5844 16.6775 9.06276
Pd 20.4669 14.7942 9.0693
Co 20.5355 16.7527 7.21634
Pd 18.5724 14.7803 10.9427
Pd 18.5595 16.6577 12.8628
Pd 20.4562 14.77 12.8638
Co 20.4555 16.6637 10.9617
Pd 18.5574 14.7624 14.75
Pd 18.5607 16.6648 16.6661
Pd 20.4676 14.7671 16.6663
Co 20.4706 16.6703 14.7758
Pd 18.5616 14.7661 18.5666
Pd 18.5723 16.6748 20.4831
Pd 20.4777 14.78 20.4834
Co 20.4759 16.6742 18.58
Pd 18.573 14.7779 22.3891
Pd 18.5783 16.6813 24.3056
Pd 20.4834 14.7868 24.3056
Co 20.4835 16.6838 22.397
Pd 18.5756 14.7811 26.2185
Pd 18.578 16.6803 28.1324
Pd 20.4831 14.7859 28.1318
Co 20.4854 16.6863 26.2192
Pd 18.5724 14.7761 30.0479
Pd 18.5714 16.672 31.9549
Pd 20.4768 14.7772 31.954
Co 20.4829 16.6819 30.0413
Pd 18.5604 14.7624 33.8705
Pd 18.5592 16.6602 35.7719
Pd 20.4661 14.7624 35.7711
Co 20.4747 16.6705 33.8583
Pd 18.5556 14.7568 37.6871
Pd 18.5574 16.6512 39.5752
Pd 20.4541 14.7635 39.5735
Co 20.4688 16.6647 37.6625
Pd 18.57 14.7729 41.4943
Pd 18.5817 16.6691 43.3752
Pd 20.4642 14.7859 43.3681
Co 20.453 16.6563 41.4765
Co 20.5325 16.7435 45.222
Pd 18.6391 20.5322 5.29138
Pd 20.5262 18.6445 5.29107
Co 20.6102 20.6159 3.57132
Pd 18.6091 18.6148 7.15397
Pd 18.5856 20.4782 9.09048
Pd 20.4728 18.5904 9.09017
Co 20.4937 20.4988 7.19644
Pd 18.5672 18.5723 10.9663
Pd 18.5665 20.4747 12.8832
Pd 20.47 18.5706 12.8829
Co 20.4824 20.4869 11.0041
Pd 18.5615 18.5659 14.7732
Pd 18.5722 20.4804 16.6852
Pd 20.4763 18.5758 16.6849
Co 20.4764 20.4803 14.7938
Pd 18.5719 18.5757 18.5811
Pd 18.5802 20.4872 20.4928
Pd 20.4837 18.5832 20.4925
Co 20.4837 20.4869 18.5938
Pd 18.5793 18.5824 22.3971
Pd 18.5862 20.4909 24.3097
Pd 20.4881 18.5885 24.3094
Co 20.4895 20.4921 22.4031
Pd 18.5822 18.5848 26.2195
Pd 18.5859 20.49 28.1301
Pd 20.4878 18.5876 28.1298
Co 20.4918 20.4938 26.2201
Pd 18.5787 18.5806 30.0418
Pd 18.5793 20.4844 31.947
Pd 20.4828 18.5804 31.9467
Co 20.4889 20.4903 30.0371
Pd 18.5707 18.572 33.8578
Pd 18.5707 20.4758 35.7546
Pd 20.4748 18.5711 35.7543
Co 20.4825 20.4832 33.8463
Pd 18.5597 18.5604 37.6657
Pd 18.5643 20.4682 39.5567
Pd 20.4679 18.5641 39.5564
Co 20.4746 20.4748 37.6464
Pd 18.5648 18.5649 41.4726
Pd 18.5829 20.4698 43.3494
Pd 20.4701 18.5821 43.349
Co 20.48 20.4795 41.4361
Pd 18.6061 18.6055 45.285
Pd 18.6358 20.522 47.1485
Pd 20.5229 18.6343 47.1482
Co 20.4907 20.4895 45.2437
Co 20.6066 20.6048 48.8689
Pd 18.7464 22.5322 3.44434
Pd 18.6626 24.3368 5.38101
Pd 20.552 22.4475 5.36633
Co 20.5687 24.3568 3.51789
Pd 18.6119 22.401 7.20906
Pd 18.5948 24.3029 9.12283
Pd 20.4984 22.3999 9.11938
Co 20.5371 24.3291 7.25333
Pd 18.5783 22.3851 11.0003
Pd 18.5778 24.3059 12.9037
Pd 20.4814 22.3931 12.9101
Co 20.4913 24.3074 11.0277
Pd 18.5734 22.3908 14.7927
Pd 18.5781 24.3085 16.6959
Pd 20.4828 22.3952 16.6996
Co 20.4831 24.309 14.8094
Pd 18.5795 22.3956 18.593
Pd 18.5863 24.3106 20.4993
Pd 20.4896 22.3996 20.501
Co 20.4879 24.3103 18.6021
Pd 18.5873 22.3992 22.403
Pd 18.5925 24.3112 24.3122
Pd 20.4942 22.4018 24.3125
Co 20.4943 24.3119 22.4074
Pd 18.5905 22.3999 26.2204
Pd 18.5922 24.3103 28.1295
Pd 20.4939 22.4009 28.1286
Co 20.4966 24.3118 26.221
Pd 18.5867 22.3974 30.0378
Pd 18.5854 24.3078 31.9424
Pd 20.4887 22.3968 31.9401
Co 20.4937 24.31 30.0346
Pd 18.5783 22.3918 33.8478
Pd 18.5766 24.3039 35.7458
Pd 20.4813 22.3906 35.7414
Co 20.4867 24.3066 33.8399
Pd 18.5716 22.3853 37.6481
Pd 18.5757 24.2994 39.538
Pd 20.4793 22.3866 39.5309
Co 20.4813 24.3034 37.6326
Pd 18.5759 22.3778 41.4405
Pd 18.5921 24.2946 43.3189