4033
Atoms. Timestep: 20140
Co 5.47972 13.0149 26.2167
Pd 3.55166 16.7294 24.3454
Pd 5.34306 14.7991 24.2751
Co 5.36649 16.7456 22.4382
Pd 3.62686 14.8584 26.2179
Pd 3.55209 16.7273 28.0925
Pd 5.3435 14.797 28.1602
Co 5.37891 16.7088 26.2187
Co 5.36735 16.7415 29.9992
Pd 3.52516 20.5387 20.5361
Pd 5.2966 18.5993 20.4928
Co 5.35645 20.5494 18.6389
Pd 3.53146 18.6357 22.4392
Pd 3.4398 20.5082 24.3155
Pd 5.34568 18.6351 24.3404
Co 5.32516 20.5162 22.4162
Pd 3.45847 18.6035 26.22
Pd 3.44023 20.5061 28.1265
Pd 5.34611 18.6331 28.0991
Co 5.2994 20.525 26.2208
Pd 3.53232 18.6316 30.0007
Pd 3.52646 20.5324 31.9059
Pd 5.2979 18.593 31.9467
Co 5.32603 20.5121 30.0254
Co 5.35818 20.5411 33.8027
Pd 3.55098 24.3486 16.7326
Pd 5.31349 22.4069 16.6899
Co 5.40687 24.3525 14.8397
Pd 3.53346 22.4454 18.6284
Pd 3.44226 24.3206 20.5055
Pd 5.33304 22.4399 20.5368
Co 5.34303 24.3177 18.6171
Pd 3.43377 22.414 22.4112
Pd 3.41482 24.3162 24.3172
Pd 5.28873 22.4175 24.3163
Co 5.28559 24.3265 22.4221
Pd 3.42204 22.4114 26.222
Pd 3.41525 24.3142 28.129
Pd 5.28917 22.4154 28.1274
Co 5.27077 24.3174 26.2229
Pd 3.43464 22.4098 30.0329
Pd 3.44356 24.3143 31.9407
Pd 5.33434 22.4337 31.9069
Co 5.28645 24.3223 30.0236
Pd 3.53519 22.437 33.8157
Pd 3.55314 24.3382 35.7136
Pd 5.31566 22.3965 35.7537
Co 5.34477 24.3094 33.8287
Co 5.40946 24.34 37.6061
Pd 5.39494 26.228 12.9661
Pd 3.62085 26.2269 14.8618
Pd 3.55079 28.1032 16.7347
Pd 5.39465 26.226 16.7505
Co 5.40668 28.1015 14.8418
Pd 3.46355 26.2249 18.6033
Pd 3.44206 28.127 20.5075
Pd 5.30489 26.2239 20.5135
Co 5.34284 28.1321 18.6192
Pd 3.42265 26.2228 22.4106
Pd 3.41462 28.1272 24.3193
Pd 5.27468 26.2218 24.3241
Co 5.2854 28.1192 22.4242
Pd 3.40773 26.2207 26.2241
Pd 3.41506 28.1251 28.1311
Pd 5.27511 26.2197 28.1238
Co 5.27058 28.1241 26.225
Pd 3.42351 26.2186 30.0377
Pd 3.44336 28.1207 31.9428
Pd 5.30619 26.2176 31.9343
Co 5.28626 28.115 30.0257
Pd 3.46529 26.2165 33.845
Pd 3.55295 28.0927 35.7157
Pd 5.39681 26.2156 35.6973
Co 5.34457 28.1238 33.8307
Pd 3.62343 26.2144 37.5865
Pd 5.39796 26.2135 39.4818
Co 5.40927 28.089 37.6081
Pd 5.3131 30.045 16.6941
Pd 3.53308 30.0043 18.6325
Pd 3.52458 31.9089 20.5424
Pd 5.33266 30.0078 20.5409
Co 5.35587 31.9004 18.6451
Pd 3.43339 30.0315 22.4154
Pd 3.43922 31.9352 24.3218
Pd 5.28835 30.0261 24.3205
Co 5.32458 31.9295 22.4224
Pd 3.42166 30.03 26.2262
Pd 3.43965 31.9331 28.1328
Pd 5.28878 30.024 28.1315
Co 5.29882 31.9165 26.2271
Pd 3.43425 30.0273 30.0371
Pd 3.52588 31.9027 31.9121
Pd 5.33395 30.0016 31.9111
Co 5.32545 31.9253 30.0317
Pd 3.53481 29.996 33.8199
Pd 5.31527 30.0346 35.7579
Co 5.3576 31.8921 33.809
Pd 5.29582 33.8485 20.5012
Pd 3.53069 33.8098 22.4475
Pd 3.5507 35.714 24.3558
Pd 5.34491 33.8085 24.3487
Co 5.36552 35.7 22.4486
Pd 3.45769 33.8378 26.2283
Pd 3.55112 35.712 28.1029
Pd 5.34534 33.8064 28.1074
Co 5.37794 35.7328 26.2291
Pd 3.53155 33.8056 30.0091
Pd 5.29713 33.8423 31.955
Co 5.36638 35.6959 30.0096
Pd 5.3419 37.6446 24.2877
Pd 3.6257 37.583 26.2304
Pd 5.34234 37.6424 28.1727
Co 5.47838 39.4267 26.2312
Co 9.23479 9.23309 26.2142
Pd 7.23107 12.8783 24.2908
Pd 9.09399 11.0008 24.2915
Co 9.13077 12.9195 22.4108
Pd 7.28986 11.0641 26.2154
Pd 7.23151 12.8762 28.142
Pd 9.09443 10.9987 28.1388
Co 9.09708 12.881 26.2162
Co 9.13164 12.9153 30.0216
Pd 7.19292 16.6753 20.4825
Pd 9.06637 14.7781 20.4652
Co 9.11148 16.719 18.6071
Pd 7.21258 14.789 22.3609
Pd 7.21437 16.6855 24.2927
Pd 9.08824 14.7788 24.2878
Co 9.07608 16.6679 22.3634
Pd 7.23626 14.8069 26.2174
Pd 7.21481 16.6834 28.1442
Pd 9.08868 14.7767 28.1466
Co 9.10705 16.6866 26.2183
Pd 7.21345 14.7848 30.0739
Pd 7.19422 16.669 31.9544
Pd 9.06768 14.7718 31.9692
Co 9.07696 16.6636 30.0731
Co 9.11321 16.7106 33.8294
Pd 7.19527 20.4796 16.6821
Pd 9.05998 18.5824 16.6688
Co 9.12164 20.5236 14.8055
Pd 7.18957 18.5955 18.5667
Pd 7.19271 20.49 20.4952
Pd 9.07298 18.581 20.4756
Co 9.06974 20.4703 18.5654
Pd 7.19726 18.5982 22.3849
Pd 7.21294 20.5164 24.3153
Pd 9.09987 18.5891 24.2926
Co 9.09722 20.4972 22.3975
Pd 7.23529 18.6019 26.2195
Pd 7.21338 20.5144 28.1258
Pd 9.10031 18.587 28.146
Co 9.10976 20.5034 26.2204
Pd 7.19813 18.594 30.0542
Pd 7.19402 20.4837 31.946
Pd 9.07429 18.5747 31.963
Co 9.09809 20.493 30.0432
Pd 7.19132 18.5871 33.8723
Pd 7.19744 20.4692 35.759
Pd 9.06215 18.572 35.7698
Co 9.07149 20.4619 33.8753
Co 9.12424 20.5111 37.6353
Pd 7.23447 24.3042 12.8871
Pd 9.08439 22.3976 12.8688
Co 9.16636 24.3589 11.0287
Pd 7.21226 22.3993 14.7615
Pd 7.22807 24.2904 16.6953
Pd 9.08455 22.3805 16.6769
Co 9.09402 24.283 14.7684
Pd 7.20043 22.3987 18.5868
Pd 7.21446 24.3212 20.514
Pd 9.09378 22.3954 20.4933
Co 9.10775 24.305 18.596
Pd 7.20774 22.4148 22.4186
Pd 7.18522 24.3205 24.3213
Pd 9.10549 22.4156 24.3202
Co 9.10523 24.3154 22.4148
Pd 7.19004 22.4183 26.2216
Pd 7.18565 24.3184 28.1241
Pd 9.10592 22.4135 28.1226
Co 9.09965 24.3186 26.2225
Pd 7.2086 22.4107 30.0247
Pd 7.21576 24.3149 31.9314
Pd 9.09508 22.3891 31.9495
Co 9.1061 24.3113 30.0301
Pd 7.20217 22.3904 33.8564
Pd 7.23024 24.28 35.7499
Pd 9.08672 22.37 35.7659
Co 9.10948 24.2966 33.8488
Pd 7.21487 22.3868 37.6817
Pd 7.2375 24.2895 39.5582
Pd 9.08743 22.383 39.574
Co 9.09663 24.2704 37.6764
Co 9.16981 24.3422 41.4162
Pd 9.17364 26.2303 9.16822
Pd 7.31845 26.2292 11.0279
Pd 7.23427 28.1522 12.8892
Pd 9.11981 26.2283 12.9074
Co 9.16617 28.0997 11.0308
Pd 7.25342 26.2271 14.7925
Pd 7.22787 28.1617 16.6975
Pd 9.10797 26.2262 16.6888
Co 9.09382 28.1715 14.7706
Pd 7.23842 26.225 18.6181
Pd 7.21426 28.1268 20.516
Pd 9.11465 26.2241 20.518
Co 9.10755 28.1453 18.5981
Pd 7.19079 26.2229 22.4209
Pd 7.18503 28.1233 24.3234
Pd 9.09888 26.222 24.3202
Co 9.10504 28.1306 22.4169
Pd 7.18015 26.2209 26.2237
Pd 7.18546 28.1212 28.1262
Pd 9.09931 26.2199 28.1268
Co 9.09946 28.1233 26.2245
Pd 7.19166 26.2188 30.0265
Pd 7.21556 28.1205 31.9335
Pd 9.11595 26.2178 31.929
Co 9.10591 28.1265 30.0322
Pd 7.24015 26.2167 33.8293
Pd 7.23004 28.1513 35.7521
Pd 9.11014 26.2157 35.7582
Co 9.10929 28.1369 33.851
Pd 7.25602 26.2146 37.6549
Pd 7.23731 28.1375 39.5603
Pd 9.12284 26.2136 39.5396
Co 9.09643 28.1589 37.6786
Pd 7.32191 26.2125 41.4195
Pd 9.17752 26.2116 43.2788
Co 9.16962 28.0831 41.4183
Pd 9.084 30.0589 12.873
Pd 7.21187 30.055 14.7657
Pd 7.19468 31.9726 16.6885
Pd 9.08416 30.0719 16.6811
Co 9.12106 31.9308 14.8117
Pd 7.20004 30.0514 18.591
Pd 7.19213 31.958 20.5014
Pd 9.09339 30.0528 20.4975
Co 9.06916 31.9801 18.5717
Pd 7.20735 30.0311 22.4228
Pd 7.21236 31.9274 24.3216
Pd 9.1051 30.0284 24.3244
Co 9.09664 31.9489 22.4038
Pd 7.18965 30.0234 26.2258
Pd 7.2128 31.9253 28.1321
Pd 9.10553 30.0263 28.1268
Co 9.10918 31.9385 26.2266
Pd 7.20822 30.0269 30.0288
Pd 7.19343 31.9518 31.9523
Pd 9.09469 30.0465 31.9537
Co 9.09751 31.9447 30.0495
Pd 7.20178 30.043 33.8606
Pd 7.19685 31.9621 35.7653
Pd 9.08633 30.0614 35.7701
Co 9.0709 31.9716 33.8816
Pd 7.21448 30.0424 37.686
Pd 9.08704 30.0443 39.5782
Co 9.12366 31.9183 37.6415
Pd 9.0592 33.87 16.6772
Pd 7.1888 33.8547 18.5751
Pd 7.19194 35.7727 20.493
Pd 9.0722 33.8672 20.4839
Co 9.11051 35.7313 18.6176
Pd 7.19648 33.8477 22.3933
Pd 7.2134 35.7584 24.3032
Pd 9.0991 33.8549 24.3009
Co 9.07511 35.7783 22.3739
Pd 7.23452 33.8398 26.2279
Pd 7.21384 35.7563 28.1547
Pd 9.09954 33.8528 28.1544
Co 9.10608 35.7553 26.2287
Pd 7.19736 33.8435 30.0625
Pd 7.19325 35.7664 31.9649
Pd 9.07351 33.8609 31.9714
Co 9.07599 35.7741 30.0836
Pd 7.19054 33.8463 33.8807
Pd 9.06138 33.8595 35.7782
Co 9.11224 35.7229 33.8399
Pd 9.06521 37.6701 20.4778
Pd 7.21141 37.657 22.3735
Pd 7.22971 39.5655 24.3055
Pd 9.08708 37.6652 24.3004
Co 9.12942 39.5266 22.4254
Pd 7.2351 37.6348 26.23
Pd 7.23015 39.5634 28.1566
Pd 9.08752 37.6631 28.1591
Co 9.09573 39.561 26.2308
Pd 7.21229 37.6527 30.0865
Pd 9.06652 37.6638 31.9818
Co 9.13029 39.5225 30.0362
Pd 9.09244 41.4432 24.3082
Pd 7.28832 41.3776 26.232
Pd 9.09288 41.4411 28.1555
Co 9.23306 43.2088 26.2328
Co 13.0169 5.47841 26.2117
Pd 11.0013 9.09374 24.2902
Pd 12.879 7.23101 24.2871
Co 12.9186 9.13197 22.4083
Pd 11.066 7.28835 26.2129
Pd 11.0017 9.09163 28.1375
Pd 12.8794 7.2289 28.1382
Co 12.8827 9.09575 26.2137
Co 12.9195 9.12779 30.0191
Pd 10.9726 12.8581 20.4642
Pd 12.8558 10.9751 20.4629
Co 12.9021 12.9059 18.5952
Pd 10.9849 10.9859 22.3586
Pd 10.9827 12.8715 24.2856
Pd 12.8718 10.9826 24.2844
Co 12.8573 12.8586 22.3557
Pd 11.0123 11.0107 26.2149
Pd 10.9831 12.8694 28.1463
Pd 12.8722 10.9805 28.145
Co 12.8845 12.8832 26.2157
Pd 10.9858 10.9817 30.0712
Pd 10.9739 12.8517 31.9677
Pd 12.8571 10.9688 31.9664
Co 12.8582 12.8543 30.0757
Co 12.9039 12.8975 33.8363
Pd 10.965 16.6583 16.6617
Pd 12.8457 14.7676 16.6556
Co 12.8989 16.7075 14.7932
Pd 10.9684 14.7731 18.5451
Pd 10.9701 16.6624 20.4641
Pd 12.8558 14.764 20.4589
Co 12.8487 16.6516 18.5451
Pd 10.9759 14.7717 22.3621
Pd 10.9824 16.6737 24.2923
Pd 12.873 14.7702 24.2898
Co 12.8747 16.672 22.3808
Pd 10.9807 14.7698 26.217
Pd 10.9828 16.6716 28.1437
Pd 12.8735 14.7681 28.1438
Co 12.877 16.6712 26.2178
Pd 10.9768 14.7675 30.0719
Pd 10.9714 16.6561 31.972
Pd 12.8571 14.7576 31.9747
Co 12.8756 16.6677 30.0549
Pd 10.9701 14.7646 33.8889
Pd 10.9672 16.6478 35.7744
Pd 12.8479 14.7571 35.778
Co 12.8504 16.6432 33.8906
Co 12.9015 16.6949 37.6425
Pd 10.9788 20.4692 12.8631
Pd 12.8523 18.5761 12.8571
Co 12.9156 20.5236 11.0008
Pd 10.9692 18.5783 14.7451
Pd 10.9733 20.4653 16.6658
Pd 12.8536 18.5642 16.6578
Co 12.8535 20.4582 14.7494
Pd 10.9684 18.5713 18.5572
Pd 10.9797 20.4816 20.4792
Pd 12.8708 18.5701 20.4708
Co 12.8744 20.4783 18.5746
Pd 10.9818 18.5755 22.3822
Pd 10.9954 20.4916 24.3056
Pd 12.8816 18.5787 24.3024
Co 12.8836 20.4837 22.392
Pd 10.9901 18.5816 26.2191
Pd 10.9958 20.4895 28.1347
Pd 12.8821 18.5766 28.1354
Co 12.8908 20.4865 26.2199
Pd 10.9827 18.5713 30.056
Pd 10.981 20.4753 31.9611
Pd 12.8721 18.5638 31.9669
Co 12.8845 20.4795 30.0478
Pd 10.9701 18.5629 33.881
Pd 10.9754 20.4548 35.7744
Pd 12.8558 18.5537 35.7799
Co 12.8761 20.4699 33.8652
Pd 10.9718 18.5657 37.6931
Pd 10.9819 20.4546 39.5772
Pd 12.8553 18.5614 39.5806
Co 12.8562 20.4456 37.6904
Co 12.9191 20.5069 41.4391
Pd 11.0218 24.3092 9.09029
Pd 12.8817 22.402 9.074
Co 12.9689 24.3613 7.24407
Pd 10.9944 22.4013 10.9544
Pd 10.9977 24.2924 12.8808
Pd 12.8673 22.3796 12.8686
Co 12.8809 24.2845 10.9722
Pd 10.9798 22.3805 14.7609
Pd 10.9848 24.3001 16.6765
Pd 12.8727 22.3831 16.6719
Co 12.8816 24.3035 14.7808
Pd 10.9823 22.3857 18.5796
Pd 10.9979 24.3066 20.4964
Pd 12.8847 22.3926 20.4896
Co 12.8824 24.3047 18.5848
Pd 10.9948 22.3987 22.4006
Pd 11.0056 24.3138 24.3149
Pd 12.8959 22.3981 24.3084
Co 12.8964 24.3088 22.4027
Pd 11.0062 22.4025 26.2212
Pd 11.006 24.3117 28.1296
Pd 12.8964 22.396 28.1335
Co 12.9032 24.3094 26.222
Pd 10.9957 22.3946 30.0418
Pd 10.9992 24.3003 31.9481
Pd 12.886 22.3863 31.9523
Co 12.8972 24.3046 30.0414
Pd 10.984 22.3773 33.8627
Pd 10.987 24.2896 35.768
Pd 12.8749 22.3726 35.77
Co 12.8841 24.2963 33.8592
Pd 10.9824 22.3679 37.6814
Pd 11.0007 24.2777 39.5636
Pd 12.8703 22.3649 39.5733
Co 12.8842 24.291 37.6632
Pd 10.9979 22.3845 41.4879
Pd 11.0257 24.2904 43.3542
Pd 12.8856 22.3832 43.3679
Co 12.8843 24.2678 41.4717
Co 12.9732 24.3405 45.2
Pd 13.0011 26.2326 5.37734
Pd 11.1238 26.2315 7.23089
Pd 11.0216 28.1517 9.0924
Pd 12.9122 26.2305 9.12191
Co 12.9687 28.1018 7.24612
Pd 11.0316 26.2294 10.9923
Pd 10.9975 28.1644 12.8829
Pd 12.8886 26.2285 12.8854
Co 12.8807 28.1745 10.9744
Pd 10.9938 26.2273 14.7839
Pd 10.9846 28.1525 16.6786
Pd 12.8817 26.2264 16.687
Co 12.8814 28.1513 14.7829
Pd 10.9948 26.2252 18.5911
Pd 10.9977 28.1418 20.4985
Pd 12.8912 26.2243 20.4962
Co 12.8822 28.146 18.5869
Pd 11.0066 26.2231 22.4113
Pd 11.0054 28.1304 24.317
Pd 12.9037 26.2222 24.316
Co 12.8962 28.1377 22.4048
Pd 11.0046 26.2211 26.2233
Pd 11.0059 28.1283 28.1317
Pd 12.9041 26.2201 28.1302
Co 12.903 28.1328 26.2241
Pd 11.0075 26.219 30.0352
Pd 10.999 28.1355 31.9502
Pd 12.8925 26.218 31.9499
Co 12.8971 28.1335 30.0435
Pd 10.9965 26.2169 33.8555
Pd 10.9868 28.142 35.7701
Pd 12.8839 26.2159 35.7591
Co 12.884 28.1376 33.8613
Pd 10.9964 26.2148 37.6626
Pd 11.0005 28.1497 39.5658
Pd 12.8916 26.2138 39.5608
Co 12.884 28.1388 37.6653
Pd 11.0351 26.2127 41.4542
Pd 11.0255 28.1329 43.3563
Pd 12.9161 26.2118 43.3242
Co 12.8841 28.1578 41.4739
Pd 11.1281 26.2106 45.2156
Pd 13.0058 26.2097 47.0688
Co 12.9731 28.081 45.202
Pd 12.8813 30.0591 9.07821
Pd 10.994 30.0576 10.9586
Pd 10.9783 31.9875 12.8694
Pd 12.8669 30.0774 12.8729
Co 12.915 31.9354 11.0071
Pd 10.9794 30.0742 14.7651
Pd 10.9727 31.9873 16.6721
Pd 12.8723 30.0697 16.6761
Co 12.853 31.9967 14.7557
Pd 10.9819 30.0648 18.5839
Pd 10.9791 31.9668 20.4855
Pd 12.8843 30.056 20.4938
Co 12.8738 31.9724 18.5809
Pd 10.9944 30.0476 22.4048
Pd 10.9948 31.9526 24.3119
Pd 12.8956 30.0463 24.3126
Co 12.883 31.9628 22.3983
Pd 11.0059 30.0396 26.2254
Pd 10.9952 31.9505 28.1409
Pd 12.896 30.0442 28.1377
Co 12.8902 31.9558 26.2262
Pd 10.9953 30.0434 30.046
Pd 10.9804 31.9605 31.9674
Pd 12.8856 30.0497 31.9565
Co 12.8839 31.9585 30.0541
Pd 10.9836 30.0564 33.8669
Pd 10.9749 31.9768 35.7808
Pd 12.8745 30.0592 35.7742
Co 12.8755 31.964 33.8715
Pd 10.982 30.0616 37.6856
Pd 10.9813 31.9729 39.5835
Pd 12.8699 30.0627 39.5775
Co 12.8556 31.9841 37.6967
Pd 10.9975 30.0408 41.4921
Pd 12.8852 30.0403 43.3721
Co 12.9185 31.9187 41.4453
Pd 12.8515 33.8809 12.8655
Pd 10.9684 33.8764 14.7535
Pd 10.9641 35.7943 16.6722
Pd 12.8528 33.8886 16.6662
Co 12.898 35.7474 14.8037
Pd 10.9676 33.8792 18.5656
Pd 10.9691 35.786 20.4746
Pd 12.87 33.8785 20.4792
Co 12.8477 35.7991 18.5556
Pd 10.9811 33.8708 22.3906
Pd 10.9814 35.7705 24.3028
Pd 12.8808 33.8657 24.3108
Co 12.8737 35.7746 22.3912
Pd 10.9893 33.8605 26.2275
Pd 10.9818 35.7684 28.1542
Pd 12.8813 33.8636 28.1438
Co 12.876 35.771 26.2283
Pd 10.9819 33.8666 30.0644
Pd 10.9704 35.7797 31.9825
Pd 12.8713 33.8722 31.9753
Co 12.8746 35.7703 30.0654
Pd 10.9693 33.8708 33.8894
Pd 10.9662 35.7838 35.7849
Pd 12.855 33.8781 35.7883
Co 12.8495 35.7907 33.9011
Pd 10.971 33.8638 37.7015
Pd 12.8546 33.8662 39.5891
Co 12.9006 35.7348 37.6529
Pd 12.8446 37.6852 16.6681
Pd 10.9672 37.6775 18.5577
Pd 10.9713 39.5904 20.4789
Pd 12.8547 37.6847 20.4715
Co 12.9008 39.5448 18.6098
Pd 10.9747 37.6746 22.3747
Pd 10.9813 39.5727 24.3003
Pd 12.8718 37.6742 24.3024
Co 12.856 39.588 22.3704
Pd 10.9796 37.6723 26.2296
Pd 10.9817 39.5706 28.1609
Pd 12.8723 37.6721 28.1563
Co 12.8832 39.5591 26.2304
Pd 10.9756 37.6704 30.0845
Pd 10.9726 39.584 31.9824
Pd 12.856 37.6783 31.9873
Co 12.8569 39.5837 30.0904
Pd 10.969 37.669 33.9015
Pd 12.8468 37.6747 35.7906
Co 12.9025 39.5364 33.8509
Pd 12.8542 41.4735 20.4797
Pd 10.9834 41.4604 22.3753
Pd 10.9995 43.3505 24.309
Pd 12.8702 41.4618 24.3011
Co 12.9169 43.3145 22.4271
Pd 11.0107 41.4314 26.2316
Pd 11 43.3484 28.1563
Pd 12.8707 41.4597 28.1618
Co 12.8809 43.3465 26.2325
Pd 10.9842 41.4562 30.088
Pd 12.8555 41.4672 31.9832
Co 12.9178 43.3103 30.0378
Pd 12.877 45.2134 24.3079
Pd 11.0641 45.1538 26.2337
Pd 12.8775 45.2113 28.1591
Co 13.0148 46.9639 26.2344
Pd 14.7999 5.34321 24.2689
Pd 16.7304 3.55197 24.3366
Co 16.7452 5.36806 22.4307
Pd 14.8607 3.62573 26.2104
Pd 14.8004 5.34108 28.1539
Pd 16.7308 3.54991 28.0837
Co 16.7108 5.37797 26.2112
Co 16.7461 5.36391 29.9917
Pd 14.776 9.06905 20.4615
Pd 16.6735 7.19577 20.4763
Co 16.7156 9.11559 18.6021
Pd 14.7883 7.214 22.3559
Pd 14.7793 9.08838 24.2841
Pd 16.6861 7.2147 24.2864
Co 16.667 9.07769 22.3584
Pd 14.8088 7.23513 26.2124
Pd 14.7797 9.08626 28.1428
Pd 16.6865 7.21259 28.138
Co 16.6884 9.10611 26.2132
Pd 14.7892 7.20976 30.0689
Pd 14.7773 9.06273 31.9654
Pd 16.6748 7.18948 31.9481
Co 16.6679 9.07346 30.0681
Co 16.7174 9.10723 33.8244
Pd 14.7626 12.8509 16.6543
Pd 16.6535 10.9704 16.6579
Co 16.7012 12.9056 14.7907
Pd 14.7695 10.9723 18.5426
Pd 14.7615 12.8585 20.4576
Pd 16.6601 10.973 20.4603
Co 16.6478 12.8528 18.5425
Pd 14.7707 10.9773 22.3596
Pd 14.7703 12.8732 24.2885
Pd 16.674 10.9827 24.2886
Co 16.6707 12.8763 22.3782
Pd 14.7713 10.9796 26.2145
Pd 14.7707 12.871 28.1425
Pd 16.6744 10.9806 28.14
Co 16.6726 12.876 26.2153
Pd 14.7715 10.9731 30.0694
Pd 14.7628 12.8522 31.9734
Pd 16.6614 10.9667 31.9682
Co 16.6716 12.8721 30.0524
Pd 14.7713 10.9639 33.8864
Pd 14.7648 12.8404 35.7767
Pd 16.6556 10.9599 35.7706
Co 16.6496 12.8444 33.888
Co 16.7038 12.893 37.6399
Pd 14.764 16.6563 12.8547
Pd 16.6486 14.7719 12.8534
Co 16.7078 16.717 10.9934
Pd 14.7614 14.7678 14.7374
Pd 14.7556 16.6533 16.6539
Pd 16.6481 14.761 16.6527
Co 16.6433 16.6499 14.7434
Pd 14.7575 14.7615 18.5467
Pd 14.763 16.6657 20.4677
Pd 16.663 14.7659 20.4664
Co 16.6641 16.6682 18.5679
Pd 14.7643 14.7657 22.3758
Pd 14.775 16.6728 24.2999
Pd 16.6727 14.7753 24.2987
Co 16.6711 16.6727 22.3869
Pd 14.7737 14.7725 26.2166
Pd 14.7754 16.6707 28.1353
Pd 16.6731 14.7732 28.134
Co 16.6771 16.6761 26.2174
Pd 14.7652 14.7615 30.0573
Pd 14.7643 16.6594 31.9675
Pd 16.6644 14.7596 31.9663
Co 16.672 16.6685 30.0479
Pd 14.7593 14.7531 33.8864
Pd 14.7578 16.6428 35.7812
Pd 16.6503 14.7505 35.78
Co 16.6658 16.6598 33.8669
Pd 14.764 14.7552 37.6957
Pd 14.767 16.6417 39.5805
Pd 16.6517 14.7572 39.5792
Co 16.6459 16.6373 37.6914
Co 16.7113 16.7003 41.4414
Pd 14.7872 20.4761 9.0703
Pd 16.6703 18.5934 9.06221
Co 16.745 20.5453 7.21667
Pd 14.7738 18.5806 10.9429
Pd 14.7643 20.4635 12.8648
Pd 16.6519 18.5666 12.8622
Co 16.6574 20.4635 10.9621
Pd 14.7572 18.5638 14.7501
Pd 14.7627 20.4732 16.6673
Pd 16.6603 18.566 16.6655
Co 16.6653 20.4769 14.7761
Pd 14.7623 18.5663 18.5667
Pd 14.777 20.4814 20.4844
Pd 16.6717 18.5759 20.4825
Co 16.6706 20.4803 18.5804
Pd 14.7755 18.5758 22.3893
Pd 14.7852 20.4854 24.3066
Pd 16.6795 18.5801 24.305
Co 16.6815 20.4862 22.3973
Pd 14.78 18.5766 26.2187
Pd 14.7857 20.4833 28.1328
Pd 16.6799 18.578 28.1319
Co 16.6854 20.4863 26.2195
Pd 14.7764 18.5716 30.048
Pd 14.7783 20.4751 31.955
Pd 16.673 18.5696 31.9543
Co 16.6824 20.482 30.0416
Pd 14.764 18.5579 33.8706
Pd 14.7649 20.4627 35.7721
Pd 16.6625 18.5555 35.7714
Co 16.6723 20.4719 33.8586
Pd 14.7598 18.5512 37.6872
Pd 14.7674 20.4488 39.5745
Pd 16.6549 18.552 39.5746
Co 16.6679 20.4643 37.6629
Pd 14.7772 18.5639 41.4944
Pd 14.7911 20.4572 43.3691
Pd 16.6742 18.5745 43.3747
Co 16.6609 20.4468 41.4769
Co 16.7493 20.5245 45.2223
Pd 14.8449 24.3122 5.33482
Pd 16.7365 22.427 5.30457
Co 16.8357 24.389 3.60009
Pd 14.8135 22.4032 7.1724
Pd 14.7979 24.2939 9.09925
Pd 16.6786 22.387 9.09399
Co 16.7019 24.2873 7.2145
Pd 14.775 22.3814 10.9694
Pd 14.7722 24.301 12.8804
Pd 16.6675 22.3844 12.8817
Co 16.6814 24.3064 11.0011
Pd 14.7661 22.3827 14.7739
Pd 14.7751 24.3057 16.6838
Pd 16.6706 22.3915 16.6849
Co 16.671 24.3054 14.7892
Pd 14.7757 22.3914 18.5826
Pd 14.7847 24.3083 20.4931
Pd 16.6809 22.3957 20.4929
Co 16.6785 24.309 18.592
Pd 14.7874 22.395 22.3986
Pd 14.7962 24.3085 24.3112
Pd 16.6891 22.3968 24.3103
Co 16.6885 24.3093 22.4028
Pd 14.7923 22.3952 26.2207
Pd 14.7966 24.3064 28.1324
Pd 16.6895 22.3947 28.1308
Co 16.6939 24.3079 26.2216
Pd 14.7883 22.3908 30.0429
Pd 14.786 24.302 31.9505
Pd 16.6822 22.3894 31.9482
Co 16.6894 24.3051 30.0403
Pd 14.7774 22.383 33.8589
Pd 14.7773 24.2952 35.7597
Pd 16.6728 22.381 35.7561
Co 16.6803 24.3007 33.8512
Pd 14.7687 22.3701 37.6676
Pd 14.7752 24.2863 39.5631
Pd 16.6706 22.3698 39.5594
Co 16.6736 24.2929 37.6539
Pd 14.7785 22.3647 41.4721
Pd 14.8018 24.2751 43.3443
Pd 16.6825 22.3681 43.3471
Co 16.6849 24.2897 41.4421
Pd 14.8178 22.3823 45.2691
Pd 14.8497 24.2893 47.1088
Pd 16.7412 22.404 47.1365
Co 16.7062 24.2664 45.2286
Co 16.8408 24.3642 48.8431
Pd 15.0286 26.2337 3.50943
Pd 14.8448 28.1532 5.33693
Pd 16.7635 26.2328 5.41933
Co 16.8355 28.0785 3.60211
Pd 14.8343 26.2317 7.22471
Pd 14.7977 28.1674 9.10138
Pd 16.6963 26.2307 9.11332
Co 16.7017 28.1763 7.21664
Pd 14.7875 26.2296 10.9958
Pd 14.772 28.1562 12.8826
Pd 16.6753 26.2287 12.8997
Co 16.6812 28.153 11.0032
Pd 14.7775 26.2275 14.787
Pd 14.7749 28.1473 16.686
Pd 16.6755 26.2266 16.6931
Co 16.6708 28.1498 14.7913
Pd 14.7808 26.2254 18.5904
Pd 14.7845 28.1405 20.4952
Pd 16.6845 26.2245 20.4986
Co 16.6784 28.142 18.5941
Pd 14.7921 26.2233 22.4034
Pd 14.796 28.1361 24.3133
Pd 16.6937 26.2224 24.3127
Co 16.6883 28.1376 22.4049
Pd 14.8006 26.2212 26.2228
Pd 14.7964 28.134 28.1345
Pd 16.6941 26.2203 28.1326
Co 16.6937 28.1348 26.2237
Pd 14.793 26.2191 30.0423
Pd 14.7858 28.1342 31.9526
Pd 16.6858 26.2182 31.9467
Co 16.6892 28.1334 30.0424
Pd 14.7826 26.2171 33.8553
Pd 14.7771 28.1368 35.7619
Pd 16.6777 26.2161 35.7521
Co 16.6801 28.1337 33.8533
Pd 14.7801 26.215 37.6587
Pd 14.775 28.1415 39.5653
Pd 16.6783 26.214 39.5456
Co 16.6734 28.1373 37.6561
Pd 14.791 26.2129 41.4499
Pd 14.8016 28.1486 43.3464
Pd 16.7002 26.2119 43.3319
Co 16.6847 28.1363 41.4442
Pd 14.8386 26.2108 45.221
Pd 14.8495 28.1303 47.1109
Pd 16.7682 26.2099 47.0259
Co 16.7061 28.1554 45.2308
Pd 15.0338 26.2088 48.9362
Co 16.8407 28.0537 48.8451
Pd 16.7361 30.0386 5.30875
Pd 14.8131 30.0602 7.17661
Pd 14.7866 31.9853 9.07662
Pd 16.6782 30.0745 9.09821
Co 16.7444 31.9182 7.22292
Pd 14.7746 30.0778 10.9736
Pd 14.7638 31.9937 12.8712
Pd 16.6671 30.0729 12.8859
Co 16.6568 31.9959 10.9684
Pd 14.7657 30.0724 14.7781
Pd 14.7622 31.9798 16.6736
Pd 16.6703 30.0617 16.6891
Co 16.6647 31.9784 14.7824
Pd 14.7753 30.0595 18.5868
Pd 14.7764 31.9673 20.4907
Pd 16.6805 30.0533 20.4971
Co 16.67 31.9707 18.5867
Pd 14.787 30.0517 22.4028
Pd 14.7847 31.9592 24.3129
Pd 16.6887 30.048 24.3145
Co 16.681 31.9607 22.4036
Pd 14.7919 30.0473 26.2249
Pd 14.7851 31.9571 28.1391
Pd 16.6891 30.0459 28.135
Co 16.6848 31.9564 26.2258
Pd 14.7879 30.0475 30.0471
Pd 14.7777 31.961 31.9613
Pd 16.6818 30.047 31.9524
Co 16.6818 31.9565 30.0479
Pd 14.777 30.0511 33.8631
Pd 14.7643 31.9693 35.7784
Pd 16.6724 30.0512 35.7603
Co 16.6717 31.9624 33.8649
Pd 14.7683 30.0598 37.6718
Pd 14.7668 31.979 39.5809
Pd 16.6702 30.0583 39.5636
Co 16.6673 31.9658 37.6692
Pd 14.7781 30.0611 41.4763
Pd 14.7905 31.9664 43.3754
Pd 16.6821 30.0557 43.3513
Co 16.6603 31.9792 41.4832
Pd 14.8174 30.0393 45.2733
Pd 16.7408 30.0157 47.1407
Co 16.7488 31.8974 45.2286
Pd 16.6695 33.8681 9.0706
Pd 14.773 33.8786 10.9513
Pd 14.763 35.8008 12.8652
Pd 16.6511 33.8907 12.8707
Co 16.7069 35.7424 11.0038
Pd 14.7565 33.8913 14.7585
Pd 14.7547 35.7997 16.6645
Pd 16.6596 33.8871 16.6739
Co 16.6423 35.8054 14.7539
Pd 14.7615 33.8846 18.5751
Pd 14.762 35.7831 20.4782
Pd 16.6709 33.8731 20.4909
Co 16.6631 35.7829 18.5784
Pd 14.7747 33.8709 22.3977
Pd 14.774 35.7718 24.3104
Pd 16.6787 33.8647 24.3134
Co 16.6701 35.7742 22.3974
Pd 14.7792 33.8659 26.227
Pd 14.7745 35.7697 28.1458
Pd 16.6792 33.8626 28.1403
Co 16.6761 35.7666 26.2279
Pd 14.7756 33.8666 30.0564
Pd 14.7633 35.7768 31.978
Pd 16.6722 33.8668 31.9627
Co 16.671 35.77 30.0584
Pd 14.7632 33.8762 33.879
Pd 14.7569 35.7892 35.7918
Pd 16.6617 33.8766 35.7798
Co 16.6648 35.7745 33.8774
Pd 14.7591 33.8787 37.6956
Pd 14.766 35.7861 39.591
Pd 16.6541 33.876 39.583
Co 16.6449 35.7928 37.7019
Pd 14.7765 33.8618 41.5028
Pd 16.6734 33.8493 43.3831
Co 16.7103 35.7257 41.4519
Pd 16.6475 37.6855 12.866
Pd 14.7602 37.6872 14.75
Pd 14.7612 39.602 16.669
Pd 16.647 37.6921 16.6653
Co 16.6999 39.5497 14.8053
Pd 14.7564 37.6894 18.5593
Pd 14.7601 39.5903 20.4723
Pd 16.6619 37.6831 20.479
Co 16.6465 39.5983 18.5572
Pd 14.7632 37.681 22.3884
Pd 14.7689 39.5715 24.3032
Pd 16.6715 37.6695 24.3112
Co 16.6694 39.5706 22.3929
Pd 14.7725 37.6699 26.2291
Pd 14.7693 39.5693 28.1572
Pd 16.6719 37.6674 28.1466
Co 16.6712 39.5666 26.23
Pd 14.764 37.6767 30.0699
Pd 14.7614 39.584 31.9881
Pd 16.6632 37.6768 31.9788
Co 16.6703 39.5664 30.067
Pd 14.7581 37.681 33.899
Pd 14.7634 39.5915 35.7914
Pd 16.6491 37.6816 35.7926
Co 16.6482 39.5899 33.9027
Pd 14.7628 37.6746 37.7083
Pd 16.6505 37.6708 39.5918
Co 16.7025 39.5371 37.6546
Pd 16.6519 41.4827 16.6747
Pd 14.768 41.4786 18.5593
Pd 14.7743 43.3798 20.4803
Pd 16.6586 41.476 20.4771
Co 16.7139 43.3355 18.6209
Pd 14.7691 41.4694 22.3763
Pd 14.7775 43.3562 24.3029
Pd 16.6724 41.4621 24.3053
Co 16.6653 43.3692 22.3772
Pd 14.7697 41.4629 26.2312
Pd 14.778 43.3541 28.1616
Pd 16.6728 41.46 28.1567
Co 16.6866 43.3366 26.232
Pd 14.77 41.4652 30.0861
Pd 14.7756 43.3734 31.9842
Pd 16.6599 41.4697 31.985
Co 16.6661 43.365 30.0869
Pd 14.7697 41.4702 33.9031
Pd 16.6541 41.4722 35.7874
Co 16.7156 43.3271 33.8432
Pd 16.6715 45.2532 20.4971
Pd 14.7864 45.2327 22.3768
Pd 14.7978 47.1014 24.2918
Pd 16.6842 45.2301 24.3073
Co 16.7431 47.0788 22.4536
Pd 14.8069 45.2074 26.2333
Pd 14.7982 47.0993 28.1768
Pd 16.6846 45.228 28.1588
Co 16.7087 47.0647 26.2341
Pd 14.7873 45.2285 30.0898
Pd 16.6728 45.2469 31.969
Co 16.744 47.0746 30.0146
Pd 16.7281 48.8928 24.3615
Pd 14.8584 48.8168 26.2352
Pd 16.7285 48.8907 28.1086
Pd 18.5976 5.29965 20.484
Pd 20.5372 3.52838 20.5249
Co 20.5465 5.36093 18.6288
Pd 18.6355 3.53322 22.4292
Pd 18.636 5.34618 24.3316
Pd 20.5092 3.44051 24.3042
Co 20.5158 5.32713 22.4061
Pd 18.6058 3.45772 26.2099
Pd 18.6364 5.34412 28.0903
Pd 20.5097 3.43841 28.1152
Co 20.5271 5.29885 26.2107
Pd 18.6363 3.52907 29.9907
Pd 18.5989 5.29336 31.9379
Pd 20.5385 3.52214 31.8946
Co 20.5167 5.32295 30.0154
Co 20.5482 5.3526 33.7927
Pd 18.5778 9.06556 16.6625
Pd 20.4752 7.20103 16.6733
Co 20.5178 9.12865 14.7979
Pd 18.5923 7.1939 18.5592
Pd 18.5789 9.07604 20.4693
Pd 20.4881 7.19595 20.4863
Co 20.4669 9.07426 18.5579
Pd 18.5976 7.19905 22.3773
Pd 18.5895 9.1004 24.2863
Pd 20.5171 7.21365 24.3065
Co 20.4964 9.0992 22.3899
Pd 18.6038 7.23455 26.212
Pd 18.59 9.09829 28.1398
Pd 20.5175 7.21156 28.117
Co 20.5051 9.10921 26.2128
Pd 18.5985 7.19484 30.0466
Pd 18.5803 9.06973 31.9567
Pd 20.4894 7.18967 31.9372
Co 20.4973 9.095 30.0357
Pd 18.594 7.18549 33.8648
Pd 18.58 9.05507 35.7635
Pd 20.4774 7.19056 35.7502
Co 20.4687 9.06585 33.8677
Co 20.5204 9.11612 37.6277
Pd 18.5686 12.8604 12.8533
Pd 20.4619 10.9871 12.8568
Co 20.5148 12.9251 10.9958
Pd 18.5722 10.9761 14.74
Pd 18.5592 12.8592 16.654
Pd 20.4605 10.979 16.6595
Co 20.4519 12.8606 14.7444
Pd 18.5678 10.9727 18.5522
Pd 18.5676 12.8739 20.4671
Pd 20.4793 10.9829 20.4729
Co 20.4746 12.8789 18.5696
Pd 18.5745 10.9836 22.3771
Pd 18.5788 12.8821 24.2986
Pd 20.4919 10.9961 24.2993
Co 20.4825 12.8856 22.387
Pd 18.5831 10.9893 26.2141
Pd 18.5792 12.88 28.1316
Pd 20.4923 10.994 28.1284
Co 20.4878 12.8902 26.2149
Pd 18.5754 10.9794 30.051
Pd 18.5689 12.8676 31.9631
Pd 20.4806 10.9766 31.9548
Co 20.4834 12.8814 30.0428
Pd 18.5695 10.9643 33.8759
Pd 18.5614 12.8487 35.7761
Pd 20.4627 10.9685 35.7681
Co 20.4763 12.8705 33.8602
Pd 18.5748 10.9635 37.688
Pd 18.5716 12.8457 39.5769
Pd 20.465 10.9725 39.5709
Co 20.4545 12.848 37.6854
Co 20.5183 12.9084 41.434
Pd 18.583 16.6809 9.06094
Pd 20.4658 14.798 9.06654
Co 20.5337 16.7571 7.21416
Pd 18.5717 14.7831 10.9403
Pd 18.5587 16.66 12.861
Pd 20.4558 14.7726 12.8611
Co 20.4543 16.6669 10.9596
Pd 18.5573 14.7641 14.7476
Pd 18.5607 16.6659 16.6642
Pd 20.468 14.7685 16.6635
Co 20.4702 16.6723 14.7736
Pd 18.5623 14.7666 18.5642
Pd 18.5731 16.6747 20.4813
Pd 20.4788 14.7803 20.4806
Co 20.4762 16.6751 18.5778
Pd 18.5744 14.7773 22.3867
Pd 18.5798 16.68 24.3038
Pd 20.4853 14.786 24.3028
Co 20.4846 16.6835 22.3948
Pd 18.5778 14.7792 26.2161
Pd 18.5802 16.6779 28.1306
Pd 20.4857 14.7839 28.1291
Co 20.4872 16.6848 26.217
Pd 18.5753 14.7731 30.0455
Pd 18.5744 16.6684 31.9531
Pd 20.4801 14.774 31.9512
Co 20.4855 16.6793 30.0391
Pd 18.5641 14.7582 33.8681
Pd 18.5628 16.6554 35.7701
Pd 20.4702 14.758 35.7683
Co 20.4779 16.6667 33.8561
Pd 18.56 14.7515 37.6846
Pd 18.5618 16.6453 39.5733
Pd 20.4588 14.758 39.5708
Co 20.4728 16.6598 37.6603
Pd 18.5751 14.7664 41.4919
Pd 18.5869 16.6621 43.3734
Pd 20.4697 14.7792 43.3653
Co 20.4578 16.6502 41.4743
Co 20.538 16.7362 45.2198
Pd 18.6361 20.5368 5.29073
Pd 20.5236 18.6495 5.28948
Co 20.6069 20.6214 3.57031
Pd 18.6069 18.6188 7.15274
Pd 18.5834 20.4816 9.08983
Pd 20.471 18.5942 9.08857
Co 20.4911 20.5031 7.19542
Pd 18.5658 18.5751 10.9651
Pd 18.565 20.477 12.8825
Pd 20.4689 18.5733 12.8812
Co 20.4805 20.4901 11.0031
Pd 18.5608 18.5676 14.772
Pd 18.5715 20.4815 16.6846
Pd 20.4759 18.5772 16.6833
Co 20.4753 20.4823 14.7927
Pd 18.5719 18.5762 18.5799
Pd 18.5802 20.4871 20.4922
Pd 20.4841 18.5834 20.4909
Co 20.4833 20.4878 18.5928
Pd 18.58 18.5818 22.3959
Pd 18.5869 20.4897 24.3091
Pd 20.4892 18.5876 24.3078
Co 20.4899 20.4918 22.4021
Pd 18.5837 18.5829 26.2182
Pd 18.5874 20.4876 28.1295
Pd 20.4896 18.5856 28.1282
Co 20.4929 20.4923 26.2191
Pd 18.5809 18.5776 30.0405
Pd 18.5815 20.4808 31.9463
Pd 20.4854 18.5772 31.9451
Co 20.4907 20.4877 30.036
Pd 18.5736 18.5678 33.8565
Pd 18.5736 20.471 35.754
Pd 20.4781 18.5668 35.7527
Co 20.4851 20.4795 33.8453
Pd 18.5634 18.5551 37.6644
Pd 18.568 20.4623 39.556
Pd 20.4719 18.5586 39.5548
Co 20.4779 20.4698 37.6453
Pd 18.5692 18.5584 41.4713
Pd 18.5873 20.4628 43.3487
Pd 20.4749 18.5754 43.3474
Co 20.484 20.4734 41.435
Pd 18.6112 18.5979 45.2837
Pd 18.6409 20.5138 47.1478
Pd 20.5284 18.6265 47.1466
Co 20.4954 20.4822 45.2427
Co 20.612 20.5965 48.8679
Pd 18.7427 22.5373 3.44428
Pd 18.6589 24.3414 5.38152
Pd 20.5487 22.4524 5.3659
Co 20.5646 24.3624 3.51804
Pd 18.609 22.405 7.20899
Pd 18.5918 24.3063 9.12334
Pd 20.4958 22.4037 9.11894
Co 20.5338 24.3335 7.25347
Pd 18.5761 22.388 11.0002
Pd 18.5756 24.3082 12.9042
Pd 20.4795 22.3957 12.9097
Co 20.4887 24.3106 11.0278
Pd 18.5719 22.3925 14.7926
Pd 18.5766 24.3096 16.6964
Pd 20.4817 22.3967 16.6992
Co 20.4812 24.311 14.8096
Pd 18.5787 22.3961 18.5929
Pd 18.5856 24.3106 20.4998
Pd 20.4892 22.3999 20.5005
Co 20.4867 24.3112 18.6022
Pd 18.5873 22.3986 22.403
Pd 18.5925 24.31 24.3127
Pd 20.4945 22.401 24.3121
Co 20.4939 24.3116 22.4075
Pd 18.5912 22.398 26.2203
Pd 18.5929 24.3079 28.13
Pd 20.4949 22.3989 28.1281
Co 20.4969 24.3103 26.2211
Pd 18.5882 22.3944 30.0377
Pd 18.5869 24.3043 31.9429
Pd 20.4905 22.3936 31.9397
Co 20.4948 24.3074 30.0348
Pd 18.5805 22.3877 33.8477
Pd 18.5788 24.2991 35.7463
Pd 20.4839 22.3862 35.741
Co 20.4885 24.3028 33.8401
Pd 18.5745 22.38 37.648
Pd 18.5786 24.2935 39.5385
Pd 20.4826 22.3811 39.5305
Co 20.4838 24.2985 37.6327
Pd 18.5796 22.3713 41.4404
Pd 18.5957 24.2876 43.3194
Pd 20.4997 22.3849 43.3213