4033
Atoms. Timestep: 21433
Co 28.5673 36.5935 39.9802
Pd 28.9267 29.801 44.9126
Pd 17.3704 19.1396 37.7247
Co 18.0395 25.7072 36.9088
Pd 12.0385 40.1242 18.1834
Pd 34.348 9.97604 13.7125
Pd 8.81637 19.1472 31.464
Co 26.0582 9.54965 43.7799
Co 22.9225 22.0726 37.7473
Pd 34.2156 44.1618 22.7851
Pd 7.96176 39.9059 19.4431
Co 12.5925 36.3256 37.1805
Pd 27.8798 22.4065 19.3619
Pd 26.1916 4.15284 20.8087
Pd 31.2495 25.8305 38.589
Co 32.2929 30.9223 31.8407
Pd 22.1558 10.2259 37.1029
Pd 24.9516 29.9792 47.0021
Pd 36.8832 24.5979 14.0891
Co 23.9109 30.001 20.0595
Pd 16.903 41.4064 37.6054
Pd 15.4928 10.8373 35.5194
Pd 12.0886 22.8508 15.5737
Co 11.6341 35.4939 23.3616
Co 7.7934 31.0784 33.5222
Pd 24.6097 34.2883 22.0755
Pd 23.8569 22.2213 44.3555
Co 33.8523 26.3882 19.0855
Pd 4.80288 27.654 33.6548
Pd 13.8539 19.0851 10.5912
Pd 19.0607 20.2228 6.00721
Co 15.1187 32.9017 21.8084
Pd 9.10219 17.4457 39.141
Pd 24.8551 40.4194 43.4525
Pd 11.7773 26.5392 42.8994
Co 7.37551 22.9065 30.0611
Pd 27.4731 25.2041 30.7418
Pd 13.2241 9.73174 19.7364
Pd 20.0858 36.37 41.3882
Co 17.647 26.9706 27.565
Pd 14.2661 34.8923 43.9388
Pd 20.9024 29.8722 15.825
Pd 20.4046 26.3447 44.1431
Co 28.2099 11.9915 40.1041
Pd 7.3631 22.4566 38.1602
Pd 33.7439 30.4911 39.8801
Pd 19.7574 24.1621 42.8011
Co 6.14236 18.797 24.6287
Co 31.9004 30.4067 23.5528
Pd 3.61709 32.3553 20.2564
Pd 28.2758 41.7053 40.3809
Pd 5.0408 21.7307 18.696
Pd 23.114 29.9058 17.4258
Co 30.817 22.8497 46.8923
Pd 11.5961 33.5392 32.9733
Pd 19.4935 32.0207 20.0469
Pd 5.45799 24.147 17.749
Co 20.5954 30.0796 42.6659
Pd 16.7639 30.6059 37.2797
Pd 8.93172 34.6707 20.1457
Pd 6.79445 32.6314 14.2579
Co 40.3691 38.9342 13.4761
Pd 19.5448 18.9844 19.1112
Pd 30.4303 25.7554 30.5469
Pd 27.3267 48.6652 22.8581
Co 13.7567 18.2565 16.5878
Pd 6.65892 19.3348 21.8886
Pd 26.0025 25.4324 42.37
Pd 11.5512 38.7625 37.531
Co 20.412 18.6873 11.814
Pd 23.3196 40.4501 32.6443
Pd 9.22056 37.7044 20.733
Pd 22.4889 14.9763 35.5363
Co 29.7798 34.4954 39.6487
Pd 28.5424 11.399 37.5863
Pd 19.9519 46.8616 26.5031
Co 11.8852 23.1477 38.7416
Pd 25.7555 18.6594 22.3987
Pd 5.49755 26.2616 23.0181
Pd 19.9441 24.7751 17.0131
Pd 38.1213 17.3812 38.9823
Co 25.5476 26.9906 9.22308
Pd 9.60566 29.4982 37.3779
Pd 22.0318 22.0795 23.2953
Pd 12.8417 27.4817 18.3819
Co 31.0149 34.5565 21.3947
Pd 15.6072 38.4013 43.6607
Pd 11.7096 13.8165 34.8214
Pd 31.5598 6.24315 25.5591
Co 18.6484 8.89026 27.8089
Pd 18.1682 25.7241 25.1678
Pd 23.984 15.8754 22.6472
Pd 10.3623 31.2675 22.8043
Co 29.2139 34.562 45.8177
Pd 37.7536 41.8316 19.581
Pd 21.9672 41.9745 29.0898
Co 23.7611 26.1393 38.3358
Pd 34.7908 37.1329 16.2413
Pd 28.2 14.4889 17.314
Pd 14.5386 39.168 12.9148
Pd 17.9914 4.30104 29.2659
Co 29.6317 30.6761 14.0563
Pd 22.1245 24.9682 26.9448
Pd 8.41282 22.6531 12.8224
Pd 22.4599 30.3124 48.5493
Co 8.77525 23.1776 28.1207
Pd 13.7308 16.0428 20.6253
Pd 8.90958 29.0778 15.5575
Co 24.1981 36.5752 25.4848
Pd 29.0994 12.8358 45.3457
Pd 23.9156 37.788 46.7449
Pd 17.7709 30.2644 18.82
Co 16.9161 12.1906 20.2832
Co 9.21712 16.7452 23.8228
Pd 18.2288 20.9836 34.4813
Pd 12.4727 31.8372 17.6568
Co 24.0003 4.52437 36.0207
Pd 21.0389 40.3342 11.3367
Pd 27.3133 32.3079 24.8956
Pd 44.9257 39.8401 14.3993
Co 21.946 15.0428 10.8161
Co 14.6248 7.01888 35.784
Pd 15.3404 18.1615 21.3276
Pd 33.3317 35.6808 20.9813
Co 30.6757 13.9281 32.0709
Pd 33.303 10.9451 29.524
Pd 8.15371 24.1847 23.9187
Pd 28.8661 7.45169 19.2554
Co 17.0807 25.7318 13.3268
Pd 27.4426 6.74656 28.7176
Pd 28.9371 17.5529 42.4462
Pd 24.1386 11.4354 9.63943
Co 10.8583 15.2555 17.5822
Pd 11.5066 12.1534 38.6758
Pd 18.9346 22.0962 46.9007
Pd 19.3535 11.392 27.7522
Co 24.2215 10.8461 38.7377
Co 29.5476 19.3565 25.0424
Pd 34.941 27.8056 43.6375
Pd 15.6048 34.3703 13.0028
Co 12.1068 15.2214 26.3014
Pd 11.7564 17.4429 15.441
Pd 10.7651 13.391 25.1676
Pd 23.3466 22.5561 7.41954
Co 33.921 17.3074 40.4524
Pd 38.0382 25.8911 20.8501
Pd 19.3826 23.9116 20.902
Pd 9.78594 22.8925 33.294
Co 34.2932 46.3348 24.2119
Pd 34.3639 33.1498 40.0815
Pd 12.2985 17.118 18.5229
Pd 16.7674 12.0129 27.7374
Co 15.2139 26.7172 18.0409
Pd 8.2431 34.9834 35.5093
Pd 22.0763 10.113 42.969
Pd 15.8417 17.9172 39.7049
Co 31.3008 6.17694 22.8866
Pd 29.5893 34.0879 23.5035
Pd 28.7464 21.3058 29.1588
Pd 49.183 28.2705 16.2368
Co 7.36102 25.1928 21.6427
Co 32.572 15.1469 27.43
Pd 39.5022 20.9927 16.1617
Pd 14.2516 12.1386 19.8965
Co 19.8131 26.0431 27.2151
Pd 25.3275 19.7973 35.535
Pd 13.5423 14.617 24.108
Pd 17.9738 14.1393 37.6545
Co 17.7701 16.6614 38.4749
Pd 22.3185 27.6172 16.1001
Pd 34.3796 31.1839 22.8392
Pd 13.7855 32.3403 26.1342
Co 19.6655 12.2942 14.2808
Pd 21.1991 29.428 11.2294
Pd 22.0324 22.2672 26.3731
Pd 39.7638 12.8559 17.8247
Co 19.8548 28.5125 27.997
Pd 12.3406 28.0047 44.9566
Pd 27.6012 42.7481 21.3713
Pd 10.2451 25.3783 11.1241
Co 19.8578 22.324 44.4999
Pd 23.0264 38.7827 44.3147
Pd 26.6077 18.9706 42.3778
Pd 27.198 22.4807 30.9693
Co 18.7509 35.1959 43.8431
Pd 27.5315 7.75265 42.897
Pd 26.9637 39.2547 42.45
Pd 18.1669 34.7037 31.6803
Co 26.0461 32.9807 42.865
Pd 28.7428 21.7789 47.8314
Pd 20.6076 48.1613 28.6309
Pd 10.551 18.7205 13.1516
Co 24.4775 42.413 13.9603
Co 22.7574 19.1163 46.7729
Pd 18.4485 36.9605 17.9369
Pd 40.7504 8.73995 28.9807
Pd 16.5176 20.3192 22.9873
Pd 22.0528 24.0746 21.6637
Co 31.123 15.9418 43.0983
Pd 28.4049 3.12383 30.2738
Pd 14.1375 26.3336 24.658
Pd 28.1366 29.1852 12.5054
Co 34.3386 33.2135 10.737
Pd 13.471 13.1421 15.3865
Pd 17.5164 11.1317 13.9784
Pd 5.55672 22.7208 31.8854
Co 5.52077 20.8199 26.0571
Pd 10.7564 22.6933 11.0475
Pd 9.34128 38.8654 28.8187
Pd 30.4451 34.1712 16.6416
Co 21.7227 35.5897 12.9432
Pd 6.72704 24.426 15.1926
Pd 19.367 12.4966 39.327
Pd 10.1368 36.8971 24.826
Co 31.1615 27.647 34.1696
Pd 9.27659 21.7945 24.0715
Pd 19.7687 35.1024 21.9442
Pd 7.08084 29.0344 38.2345
Co 25.644 20.6992 33.0815
Pd 34.1445 23.8209 36.2791
Pd 20.8097 21.0455 28.5224
Pd 27.4881 18.162 40.0148
Co 17.7609 40.7866 35.0963
Pd 18.6895 40.1608 32.9155
Pd 18.0813 10.5882 40.9412
Pd 18.699 19.0062 27.9908
Co 12.7527 23.0836 30.105
Pd 21.55 24.3424 40.5424
Pd 25.3488 34.6516 17.5707
Co 18.0977 44.7579 32.0646
Pd 20.676 36.6984 33.9158
Pd 9.07317 33.9266 13.491
Pd 11.2639 40.4284 35.1321
Pd 21.1014 44.164 13.6642
Co 17.9586 25.1386 18.7961
Pd 27.5698 22.222 33.7043
Pd 18.2178 32.8214 39.0205
Pd 21.0594 39.5276 14.2968
Co 10.6876 14.742 30.1466
Pd 7.44082 35.3801 15.0492
Pd 16.3767 38.6265 33.5374
Pd 5.75839 36.0489 25.9174
Co 27.8386 25.6988 23.8891
Pd 16.6524 30.0614 29.7826
Pd 29.8454 33.5639 9.8057
Pd 10.9046 24.0704 13.3054
Co 18.5662 21.2913 36.9958
Pd 9.10434 30.333 27.1237
Pd 15.6583 7.87046 24.3325
Pd 7.98018 24.5381 32.114
Co 9.24946 24.7267 34.8573
Pd 5.54793 28.3357 36.0504
Pd 5.79806 24.3449 25.1757
Pd 24.4224 42.569 16.8301
Co 8.56491 10.1169 26.3542
Pd 9.9814 23.5088 30.5965
Pd 11.7677 39.0568 32.8745
Co 27.3208 23.768 48.3854
Pd 12.4885 17.9241 42.5341
Pd 30.7741 32.956 32.0819
Pd 10.8889 32.0989 37.3278
Pd 22.9909 25.8565 35.8444
Co 19.8621 22.1801 16.2049
Pd 18.2554 23.4323 35.4279
Pd 27.4089 31.7015 13.2459
Pd 16.0478 41.552 17.3784
Co 12.1283 27.8167 28.9359
Pd 30.135 37.834 27.1102
Pd 15.4884 6.37717 21.9751
Pd 18.8078 34.1945 18.6266
Co 19.059 38.0174 28.9709
Pd 12.3508 23.3027 32.804
Pd 20.8305 28.8125 30.7853
Pd 7.42052 32.2767 31.1522
Co 6.49996 34.6972 19.338
Pd 12.9834 11.7118 17.6363
Pd 18.3116 27.9255 29.9556
Co 12.6006 10.41 26.5736
Pd 19.3608 31.343 11.5629
Pd 10.3235 35.9966 33.854
Pd 16.9045 20.6861 13.243
Pd 17.1451 20.6174 29.3384
Co 11.3076 23.6789 23.8123
Pd 6.91744 26.9286 32.3452
Pd 13.8264 44.1219 19.669
Pd 8.57908 31.6922 24.7011
Co 11.0269 30.2578 10.6429
Pd 23.1519 30.5486 30.4672
Pd 40.8745 39.8467 17.6974
Co 22.8578 41.9422 26.4708
Pd 23.2841 30.3969 23.8692
Pd 20.1878 35.8301 28.2875
Pd 15.2239 46.8664 26.6325
Co 14.6237 9.34441 26.0923
Co 23.4526 16.1447 25.1682
Pd 14.1851 22.1415 37.982
Pd 16.6936 40.705 24.6589
Co 23.4338 28.3497 40.0954
Pd 22.6036 18.5096 14.7755
Pd 39.5693 31.666 14.7858
Pd 24.7051 17.2551 38.3468
Co 19.9946 16.0774 37.6052
Co 38.2442 31.0155 38.4719
Pd 22.1196 19.4138 19.6621
Pd 28.3937 8.55637 37.48
Co 15.558 25.9818 26.7855
Pd 20.0326 8.91537 41.6977
Pd 6.45717 27.0962 14.2989
Pd 21.174 26.6754 29.2813
Co 42.3609 28.2519 20.342
Pd 27.7164 7.20807 14.0702
Pd 14.3604 24.5204 34.2564
Pd 19.7675 16.0588 11.8776
Co 33.2611 40.9583 28.5446
Pd 22.5711 7.05338 35.766
Pd 19.8067 21.6795 24.6089
Pd 9.03004 26.853 20.1253
Co 15.8747 28.3692 34.2947
Co 15.0535 23.6858 26.3198
Pd 9.41606 23.5463 39.3361
Pd 15.7809 15.0595 12.3004
Co 21.6192 18.5933 34.577
Pd 10.9595 18.8575 29.8512
Pd 24.6136 0.832838 23.7626
Pd 21.587 46.7875 18.4285
Co 23.4622 19.2547 17.2076
Pd 13.5938 37.1792 21.811
Pd 10.5185 28.9322 42.9204
Pd 17.942 6.62878 23.1323
Co 10.9965 25.4327 38.7861
Pd 33.1317 20.0869 23.0041
Pd 31.9995 23.4834 37.8117
Pd 26.1864 22.7097 46.0809
Co 24.2679 11.6415 24.2401
Pd 22.7786 35.4303 23.7128
Pd 25.4267 23.4421 32.6614
Pd 10.2408 43.6355 28.784
Co 26.0439 13.252 28.5083
Pd 23.9474 42.114 24.1594
Pd 31.7213 15.7339 34.7793
Pd 38.9638 24.9821 44.6771
Co 6.15337 23.9183 36.3896
Co 33.7416 28.5838 31.1344
Pd 33.9219 39.5801 11.4547
Pd 22.9947 27.7592 9.85883
Co 18.9166 13.1085 41.6748
Pd 14.8309 27.0041 13.531
Pd 22.9522 17.0146 30.3474
Pd 44.2711 15.5203 16.5202
Co 18.2192 14.1216 19.5651
Pd 9.71056 37.106 13.9393
Pd 31.9395 8.57585 23.7869
Pd 17.7964 34.5296 23.6152
Co 36.8895 43.8007 18.0333
Pd 14.84 24.9528 22.0651
Pd 38.2209 12.1277 13.5069
Pd 23.2243 31.1016 34.9482
Co 21.2789 32.577 10.6505
Pd 15.9722 17.0086 15.9163
Pd 12.5948 13.2441 29.6298
Pd 24.2813 21.4001 31.213
Co 36.483 17.4543 21.0266
Pd 42.7872 26.3468 9.44155
Pd 35.2944 12.3784 39.9172
Pd 21.2187 16.9764 47.1788
Co 17.7531 10.8642 38.3574
Pd 25.9808 15.1422 39.4697
Pd 7.09168 23.1661 34.1168
Pd 4.96447 22.2761 29.343
Co 33.5367 14.852 13.8438
Pd 15.4209 14.7759 43.7168
Pd 12.1126 28.8014 40.9859
Pd 5.10748 36.891 19.5498
Co 22.113 29.2093 28.512
Co 21.6741 45.2426 22.7956
Pd 25.4612 33.1843 11.9101
Pd 36.0652 47.6136 20.2463
Co 27.9938 35.2725 9.58687
Pd 7.8996 22.5388 21.7706
Pd 13.9613 20.9214 16.7818
Pd 18.6493 32.5457 25.2762
Co 34.8841 36.0371 7.80515
Pd 34.7848 19.4012 25.0679
Pd 26.158 5.87853 16.0356
Pd 18.5693 39.4652 9.74623
Co 16.0402 18.1611 9.85575
Pd 44.209 38.7317 22.8948
Pd 12.1594 20.8021 20.5365
Pd 5.28388 21.5579 21.4071
Co 20.5704 16.4897 35.1029
Pd 13.7528 16.4548 11.3485
Pd 17.5311 9.19931 23.1911
Pd 14.9458 19.0096 42.1342
Co 26.3796 10.4698 36.6249
Pd 6.68625 21.3008 23.7967
Pd 12.5646 20.5433 36.6656
Pd 10.3893 40.1125 23.4642
Co 19.7542 26.621 31.6716
Pd 22.9957 23.8269 49.328
Pd 10.0457 32.4375 39.7442
Pd 13.9641 8.48303 22.1779
Co 24.0171 13.1026 22.2601
Pd 21.6164 28.6892 44.5113
Pd 29.4597 28.9069 35.4858
Pd 20.4932 46.1496 35.8901
Co 19.8702 33.3436 27.3778
Pd 13.6537 27.0839 15.945
Pd 15.1428 10.4937 23.7273
Pd 15.412 5.14214 29.1634
Co 13.5685 22.5367 27.6899
Pd 30.9873 17.0974 25.8555
Pd 19.6776 12.6902 21.4249
Pd 11.4128 33.1298 15.2291
Co 12.7018 26.4548 40.5579
Co 26.9626 36.8217 32.6572
Pd 23.6501 45.0817 20.7736
Pd 45.3055 32.4366 11.7585
Pd 18.4901 18.9694 10.1758
Pd 20.471 16.3275 44.6803
Co 30.4348 39.0003 14.889
Pd 12.1781 29.3202 22.2927
Pd 39.4382 13.8324 23.0741
Pd 8.98672 13.8794 34.2871
Co 20.874 23.4748 33.6563
Pd 20.7312 47.4563 23.8237
Pd 39.9907 20.3591 42.1946
Pd 21.1099 39.3935 33.5169
Co 14.858 17.2292 30.5222
Pd 23.4199 2.84538 25.2843
Pd 40.0012 41.4649 13.4595
Pd 8.34322 24.8901 37.2501
Co 28.1509 24.0976 41.0588
Pd 17.8598 34.621 28.718
Pd 13.1064 25.2372 44.7974
Pd 7.17683 16.4838 25.4406
Co 13.444 29.508 17.029
Pd 24.8288 34.3084 29.4316
Pd 6.87542 17.671 30.0377
Pd 17.7894 39.8718 43.8035
Co 29.478 2.45664 23.2131
Pd 23.2767 26.0259 47.8559
Pd 44.6477 24.5326 37.2892
Pd 15.0328 12.7955 22.2716
Co 6.4323 28.8128 16.1624
Pd 3.54961 30.2978 22.0519
Pd 22.3855 15.4525 42.9832
Pd 22.4504 21.3436 48.3192
Co 20.9851 25.4395 49.2371
Pd 27.4867 28.7757 28.1263
Pd 32.5309 36.0868 43.1594
Pd 18.5152 30.0241 24.7698
Co 26.1879 4.93241 37.4536
Pd 15.579 26.2165 32.5713
Pd 16.7577 24.671 41.8063
Pd 17.2086 26.1111 46.4211
Co 27.1814 39.8616 26.0923
Pd 34.9395 30.4661 29.5013
Pd 30.9447 22.2563 30.4227
Co 13.1374 19.3753 31.0568
Pd 13.9154 26.7723 30.2964
Pd 18.968 32.3983 33.0126
Pd 33.8211 13.0405 26.1926
Pd 18.0798 32.5274 7.05668
Co 10.1844 21.5652 16.5359
Pd 7.36457 31.1312 16.4511
Pd 28.8331 38.6915 24.31
Pd 34.6623 14.9057 40.5316
Co 10.1272 12.2141 29.6243
Pd 18.175 12.2019 25.4412
Pd 13.7699 24.9163 28.4732
Pd 26.7746 26.0794 37.1533
Co 16.1014 26.1084 20.2335
Pd 13.0294 29.8738 43.251
Pd 11.7829 42.0713 32.8658
Pd 32.1399 22.6683 23.317
Co 41.6093 23.4429 22.3251
Pd 16.6085 27.91 44.473
Pd 28.6101 37.9208 30.9161
Pd 32.4652 15.102 24.9513
Co 24.61 15.5646 44.3959
Pd 23.5609 36.2948 28.2413
Pd 24.0081 23.5736 42.0461
Pd 17.3622 26.5042 6.47134
Co 24.5849 33.8105 32.2222
Pd 27.0618 19.1024 25.3163
Pd 24.7697 31.9627 18.301
Pd 11.4774 31.5118 34.7255
Co 29.0681 37.9035 41.9858
Pd 30.2767 19.6358 27.383
Pd 5.90366 32.2682 19.0391
Pd 22.8505 21.8315 20.5099
Co 13.7301 27.6538 38.7114
Pd 8.72853 27.5759 26.2953
Pd 44.4474 13.8669 29.3223
Co 19.0055 27.0281 35.0786
Pd 39.6283 37.7066 19.7649
Pd 14.6098 28.5142 40.9614
Pd 8.96133 33.9255 37.6899
Pd 11.5791 27.1253 20.5514
Co 11.3722 35.8174 20.7946
Pd 11.3932 18.9851 27.1447
Pd 18.1006 35.2806 13.0115
Pd 12.9063 12.0787 24.3662
Co 18.1593 43.0375 35.8907
Pd 28.3531 42.5699 13.6787
Pd 19.4772 47.0019 19.8952
Pd 17.6737 24.0622 8.03613
Co 19.6734 30.88 26.9452
Pd 30.776 39.6112 19.7798
Pd 22.1915 3.49378 23.047
Pd 22.7155 33.215 13.0686
Co 34.7724 41.5405 22.6562
Pd 7.92336 30.0514 18.9034
Pd 16.1074 6.04968 33.9521
Pd 12.4962 24.5908 26.102
Co 10.5409 25.2158 32.6166
Pd 48.9685 34.278 23.1023
Pd 12.5053 38.6286 24.4811
Pd 33.1816 38.6131 19.6484
Co 19.8767 33.3701 45.3736
Pd 14.5047 36.5393 16.6808
Pd 6.16936 21.3518 35.9631
Co 18.5547 29.9745 31.8255
Pd 24.8127 31.6797 13.9281
Pd 14.3485 18.9231 35.4277
Pd 4.93913 30.9123 15.4419
Pd 23.6363 14.8268 20.2312
Co 18.1181 37.3398 11.2353
Pd 15.1944 21.1058 20.7959
Pd 16.2091 42.5595 19.8049
Pd 22.8524 19.006 11.0196
Co 45.4407 21.6241 17.0416
Pd 25.528 25.4153 34.6766
Pd 30.5166 36.0381 9.18558
Pd 41.135 19.5653 18.2269
Co 40.9144 32.0822 12.4938
Pd 16.4402 34.8362 39.4971
Pd 8.4535 19.0733 23.7165
Pd 23.8513 17.1032 47.9015
Co 27.7584 46.5784 21.6039
Pd 26.1323 37.1543 41.0212
Pd 16.082 39.187 36.1486
Co 25.4344 32.0681 23.1625
Pd 42.2084 28.9919 9.15434
Pd 18.6019 38.5514 20.1918
Pd 8.42785 37.4573 16.4797
Pd 33.8226 28.5146 22.2593
Co 25.4447 29.2199 18.4553
Pd 14.5448 21.4842 24.7759
Pd 21.4795 43.058 24.6808
Pd 29.5876 43.9255 27.0314
Co 26.986 19.8351 30.889
Pd 9.90854 27.9739 11.1162
Pd 28.6364 49.1993 18.4392
Co 17.0383 18.077 29.7902
Pd 14.6078 27.1264 46.0511
Pd 13.772 36.2947 24.2651
Pd 42.5463 36.792 22.5844
Co 16.6413 21.4591 38.5724
Pd 13.0284 24.8219 17.4727
Pd 19.5255 14.0497 35.5379
Co 27.3731 49.7088 29.5897
Pd 25.3763 24.9551 49.7082
Pd 11.3434 21.2194 31.3798
Pd 26.9174 25.4364 44.9059
Co 25.5846 5.95556 27.1955
Co 21.6105 17.9091 37.0444
Pd 11.2522 18.3354 32.4597
Pd 30.136 34.9325 27.601
Co 25.2099 15.3948 18.2011
Pd 8.19353 19.6974 13.4038
Pd 35.2307 34.8882 33.5827
Pd 30.3377 14.3397 8.13094
Co 12.8159 18.3578 20.8913
Pd 18.1352 15.4263 24.4213
Pd 33.9784 28.0986 28.6657
Pd 23.8204 13.7169 39.4991
Co 27.2994 23.8008 35.7483
Pd 15.3386 13.8315 29.0978
Pd 23.4779 14.0922 29.1613
Pd 25.8176 1.44731 21.173
Co 9.1048 16.4762 19.4097
Co 29.6551 16.585 29.938
Pd 37.4292 36.8825 21.5328
Pd 35.7037 27.5978 23.7849
Co 23.2254 6.15977 40.0357
Pd 18.0867 2.59676 23.5638
Pd 25.9031 12.5452 26.1356
Pd 24.2171 16.1933 14.2269
Co 18.3116 26.441 20.9593
Pd 17.8742 7.26077 25.869
Pd 27.1134 8.37224 35.028
Pd 25.5635 24.9473 47.1192
Co 37.5942 11.7908 29.5084
Pd 39.8208 19.5662 20.5161
Pd 17.5594 24.8318 22.647
Pd 28.398 15.3144 31.6761
Co 24.8813 36.813 22.7879
Pd 23.2963 20.4071 24.9994
Pd 24.969 17.9373 12.2849
Pd 48.4046 30.413 17.6218
Co 18.0198 34.8309 46.1667
Pd 24.1784 7.57595 22.1213
Pd 10.3529 15.9287 35.3056
Pd 27.5564 27.9889 39.4927
Co 31.5805 23.0724 6.35949
Co 8.48345 36.5111 28.9642
Pd 18.8295 25.3626 29.4295
Pd 14.5622 19.7133 8.21294
Co 28.1425 32.3901 20.356
Pd 38.1756 18.9171 22.5326
Pd 40.775 21.0923 22.4821
Pd 27.4954 20.4025 9.04503
Co 40.9509 27.9207 30.7358
Pd 8.68772 15.2261 21.6978
Pd 26.1093 29.8618 24.6125
Pd 15.2508 7.75511 30.0672
Co 29.366 12.8533 15.9041
Pd 22.3479 8.36759 29.325
Pd 11.1216 44.6111 23.7866
Pd 23.8729 17.9477 5.68783
Co 34.2881 15.0444 34.2537
Pd 16.676 30.5089 14.9212
Pd 25.8058 18.0362 17.9119
Pd 24.9 16.8354 7.79102
Co 10.3555 21.6775 37.736
Pd 34.873 13.0703 42.4888
Pd 9.73844 17.4855 17.2131
Pd 19.8655 38.8934 23.9969
Co 35.6567 40.9206 36.0145
Pd 8.83495 24.1302 19.6877
Pd 17.9415 26.4838 16.4581
Pd 15.7175 23.8072 39.3257
Co 12.9734 39.8811 26.6547
Pd 16.2317 25.8246 29.4487
Pd 19.2146 21.4995 42.1577
Pd 28.2791 2.83207 25.354
Co 18.0873 34.7473 41.4397
Co 24.1045 38.9052 41.4274
Pd 33.6783 48.0109 17.1229
Pd 24.7398 19.6768 20.0389
Co 26.288 35.8846 7.76915
Pd 24.5516 7.16195 14.4206
Pd 35.5218 15.8619 15.5785
Pd 28.6005 25.6667 15.3513
Co 26.808 37.3366 9.85027
Pd 17.4586 24.5728 31.5372
Pd 12.3941 25.7217 22.6511
Pd 8.41886 38.1798 23.2288
Co 20.5374 16.7038 7.39902
Pd 16.0952 21.7956 18.3302
Pd 27.7721 7.95324 11.5527
Pd 13.7317 10.8859 37.7708
Co 14.9317 7.8905 19.8775
Pd 22.559 7.4696 24.8096
Pd 5.974 27.0535 25.5254
Pd 17.5668 27.6725 18.6915
Co 21.2457 29.5818 25.8298
Pd 36.986 8.27519 18.8153
Pd 41.9612 19.7832 30.3025
Pd 6.93446 29.9272 13.9092
Co 32.9733 22.0307 10.8644
Pd 6.83176 18.6112 35.4129
Pd 39.4109 20.398 33.846
Pd 38.9817 17.3066 24.845
Co 22.9775 28.3819 46.8103
Pd 23.0261 1.4551 21.6465
Pd 33.1475 19.8596 31.9306
Pd 21.7016 21.33 45.7858
Co 17.5859 36.9648 40.4356
Pd 17.03 5.54847 19.5953
Pd 42.3609 28.3292 37.3905
Pd 6.43657 20.2448 30.5536
Co 27.3986 21.1745 36.1563
Pd 12.1087 33.6325 10.6356
Pd 26.404 41.2927 15.2522
Pd 13.3459 29.6077 34.6147
Co 28.4083 9.92575 43.9284
Co 6.37067 23.8188 27.9205
Pd 27.3653 14.4904 11.7736
Pd 24.1674 38.3588 29.9078
Co 29.6766 38.3984 9.90366
Pd 26.928 33.4936 8.02967
Pd 24.069 8.68106 16.8619
Pd 31.9069 10.2794 9.89794
Co 9.0667 18.0234 26.1305
Pd 14.6863 29.1853 12.1024
Pd 26.7415 25.484 26.1897
Pd 10.5707 29.3541 13.2832
Co 25.3125 36.342 45.1271
Pd 31.7397 16.3393 12.4417
Pd 24.0613 30.4205 6.98323
Pd 29.6571 12.0005 9.22743
Co 17.9013 10.8153 29.6725
Pd 12.9321 25.8578 32.5346
Pd 9.24346 31.3712 14.3604
Pd 8.3713 25.322 13.0948
Co 6.37462 20.1028 17.3201
Pd 21.2603 6.729 33.3317
Pd 17.0915 14.5771 26.7842
Pd 36.3666 47.8916 24.1361
Co 10.4389 11.51 27.0458
Pd 40.4206 14.3336 27.9133
Pd 34.4111 12.8647 35.7721
Pd 21.3536 38.1788 19.2299
Co 32.8351 11.9183 40.6806
Pd 21.762 38.3079 40.5543
Pd 19.8211 11.4242 37.0023
Pd 30.5379 30.6047 43.0689
Co 20.8835 12.182 25.7617
Pd 17.3109 12.0276 11.4679
Pd 26.4934 39.5307 30.5454
Pd 16.5938 18.5324 44.915
Co 8.3907 32.8794 27.0023
Pd 22.6985 26.3485 45.2893
Pd 20.0594 14.8417 9.19932
Pd 36.4573 38.586 42.2908
Co 34.9375 8.16308 37.7494
Pd 23.9226 23.6486 39.4364
Pd 28.381 30.121 26.0485
Pd 23.2895 19.6622 44.2744
Co 22.9043 17.1874 45.1271
Pd 26.7856 20.2345 47.1448
Pd 14.5696 16.3827 41.4121
Pd 20.6606 31.0231 34.4779
Co 25.5117 18.0533 33.7914
Co 31.6778 5.72948 30.2181
Pd 16.1301 33.0774 8.8222
Pd 23.907 10.8975 35.3488
Pd 31.4532 20.4464 18.563
Co 27.7887 30.5229 15.679
Pd 3.83881 29.4025 31.9875
Pd 32.7189 22.6387 17.1249
Pd 16.6744 25.8406 34.867
Co 28.7076 32.1251 6.5001
Pd 40.0949 19.5414 26.756
Pd 24.0203 10.46 12.0204
Pd 22.078 35.1564 6.35621
Co 15.7931 36.7254 11.7637
Pd 12.8601 39.9192 22.1521
Pd 19.8849 37.7867 26.3728
Pd 14.369 11.3401 28.7137
Co 15.7584 22.5862 11.8364
Pd 38.7887 29.8645 43.7989
Pd 12.4288 37.3748 39.5558
Pd 25.57 11.6886 20.3955
Co 37.4887 25.2766 16.5147
Pd 21.5592 21.6565 40.1434
Pd 19.2236 29.776 13.7534
Pd 19.8697 23.8207 26.0946
Co 30.9763 25.2903 33.1617
Pd 32.8637 29.4154 42.394
Pd 19.6659 45.0706 24.5668
Pd 20.6752 26.3546 46.8659
Co 17.7346 41.828 15.5433
Pd 35.4039 46.2792 18.0756
Pd 25.6557 27.8686 41.31
Pd 25.4199 21.0528 26.5751
Co 28.9722 17.3861 27.54
Pd 29.4993 47.3665 33.0521
Pd 9.03426 35.4651 31.3933
Pd 34.583 36.962 38.3948
Co 32.0953 19.9818 34.606
Pd 27.3752 38.2604 16.2039
Pd 28.0987 41.687 27.7061
Pd 11.4003 41.6136 25.3984
Co 41.9034 41.3685 19.9619
Pd 18.651 13.6723 44.1906
Pd 16.3374 43.9327 37.5225
Pd 37.7865 36.3068 42.6445
Co 16.5942 28.4653 47.0962
Pd 8.69916 27.048 38.6935
Pd 19.587 39.3285 41.6964
Pd 30.7444 9.55429 37.7765
Co 16.6554 37.886 16.2996
Pd 16.8494 39.1448 41.3215
Co 23.9785 21.0065 39.7993
Pd 40.8333 37.3108 31.7175
Pd 4.31011 22.9476 26.7872
Pd 20.1417 27.6932 17.6166
Pd 4.4276 33.2202 25.3672
Co 22.9842 23.6331 31.2987
Pd 5.55443 19.2025 19.5391
Pd 32.0097 31.8062 4.95875
Pd 11.1581 27.908 15.9946
Co 33.2492 36.4801 13.0036
Pd 21.2705 42.9794 11.1253
Pd 30.1769 22.6666 41.8033
Pd 23.2919 25.499 8.12155
Co 27.1849 17.5732 29.8454
Pd 7.02902 21.1391 28.1075
Pd 19.6248 28.5629 20.3162
Pd 24.3456 26.8538 18.3231
Co 23.8069 39.8601 12.5025
Pd 6.22993 31.4071 26.1715
Pd 3.98712 24.7165 28.8018
Pd 16.3525 45.0829 18.9276
Co 35.7849 18.1251 42.2895
Pd 37.9412 18.9192 29.889
Pd 28.4029 37.2875 7.88117
Pd 9.88533 31.7832 31.8602
Co 19.9038 18.907 8.11341
Pd 33.7748 35.7493 40.6186
Pd 37.968 35.5056 12.6819
Pd 13.3131 16.1035 35.9661
Co 39.6709 37.4715 17.2701
Pd 17.9421 46.8559 33.3291
Pd 21.1961 36.8648 14.9983
Pd 13.5817 15.5859 16.7088
Co 29.6802 35.7542 18.405
Pd 45.7271 29.8133 33.743
Pd 21.3616 30.44 21.3429
Pd 40.2356 24.5892 34.0928
Co 18.2284 22.3117 22.5883
Pd 19.9485 41.9831 26.9064
Pd 19.6662 15.5136 42.4091
Pd 36.204 34.6416 38.6782
Co 13.4697 24.997 38.8513
Pd 16.21 9.43156 28.29
Pd 33.9774 34.3758 45.0749
Co 15.9515 34.4041 30.6036
Pd 11.3179 24.4878 41.1726
Pd 20.2555 25.9703 19.4753
Pd 35.3226 45.2332 30.5356
Pd 41.4304 33.5635 20.7959
Co 8.57405 12.2762 25.5015
Pd 24.2733 17.6561 42.9543
Pd 17.5066 32.5366 35.1683
Pd 16.4549 37.5204 9.31691
Co 10.6502 24.087 36.8456
Pd 20.4002 24.2422 31.3326
Pd 25.3486 29.5758 34.4837
Pd 15.9646 37.3794 18.8719
Co 7.72815 22.5192 17.6866
Pd 15.5502 40.8964 42.6542
Pd 42.0324 36.4484 25.1839
Pd 15.0043 33.8488 24.1322
Co 28.4266 29.5171 6.20827
Pd 21.8651 46.9282 30.5109
Pd 30.624 25.4729 46.1815
Pd 33.4254 43.1928 14.3703
Co 28.1508 44.7605 23.0469
Pd 13.943 39.1477 20.0038
Pd 19.1395 45.1512 18.0435
Pd 15.7353 34.7078 34.7878
Co 28.8382 32.1876 33.7272
Pd 40.1816 23.3444 42.7248
Pd 27.1794 19.3661 13.6086
Pd 33.5001 25.1994 40.0575
Co 12.7784 19.3546 24.8549
Pd 35.8773 47.3707 28.6932
Pd 16.9478 22.1443 41.0272
Pd 24.7236 26.6513 4.59844
Co 13.8766 34.4711 15.1068
Pd 22.902 19.7999 27.5011
Pd 12.4745 23.0399 43.2201
Co 39.6791 20.0125 31.3809
Pd 5.32762 30.3235 34.2208
Pd 15.2917 34.6588 19.9463
Pd 11.2252 27.8051 38.6848
Pd 16.6269 33.9026 26.2476
Co 8.20265 32.7212 18.5021
Pd 16.0576 15.1981 39.4634
Pd 7.93088 21.2926 15.3777
Pd 26.566 24.8171 19.2622
Co 17.247 28.0882 36.3824
Pd 36.1561 41.4693 29.7314
Pd 6.72184 31.6248 28.7019
Pd 6.64118 25.8731 19.3494
Co 15.7328 22.7381 22.8523
Pd 20.763 37.487 43.5897
Pd 25.215 14.186 24.3025
Pd 15.4133 40.3072 27.145
Co 16.2159 39.972 19.6003
Pd 27.364 46.3868 34.1896
Pd 12.8759 42.4823 35.3615
Pd 24.0935 31.5091 43.571
Co 26.0313 44.7451 21.794
Pd 22.2786 28.5763 35.2331
Pd 35.1449 39.0579 39.9381
Pd 27.3847 9.64032 19.9575
Co 30.1369 39.9932 34.7786
Pd 10.8177 36.7575 29.7861
Pd 12.2165 37.8122 12.7917
Co 32.0047 19.3494 25.2556
Pd 10.4671 26.1571 18.0281
Pd 25.0105 29.4769 9.42992
Pd 22.5398 38.0103 23.9685
Pd 22.3511 18.6264 39.4959
Co 17.4612 22.8028 10.2059
Pd 33.2202 33.0835 13.0364
Pd 12.2885 30.6474 27.9194
Pd 25.1073 47.2108 21.7943
Co 30.9855 16.8642 7.88737
Pd 28.9573 43.4762 29.5322
Pd 11.2765 25.3878 15.5568
Pd 23.0419 40.2239 35.5274
Co 22.8251 33.2524 39.4862
Pd 23.1356 39.0543 37.9573
Pd 3.5416 27.3063 28.392
Pd 41.7173 36.6953 13.4693
Co 29.6069 28.8079 8.48701
Pd 5.6325 32.5773 32.9269
Pd 25.2491 29.3084 31.9029
Co 19.2504 44.8737 34.2415
Pd 21.6735 20.5532 12.9518
Pd 27.299 38.7191 11.7569
Pd 19.8698 25.2061 38.5673
Pd 23.0343 33.2517 4.88786
Co 12.8201 30.5471 13.3273
Pd 39.0234 27.7928 17.3163
Pd 37.4495 39.2121 20.5438
Pd 20.2125 40.4425 18.8826
Co 12.7221 37.3142 26.5625
Pd 31.3157 24.4147 21.3194
Pd 19.1312 46.8249 30.86
Co 10.0955 20.1399 35.768
Pd 35.3823 38.3433 31.2838
Pd 27.8038 40.4224 35.5698
Pd 9.88072 31.1579 17.2278
Pd 47.8377 32.2747 24.5487
Pd 16.1243 13.5933 24.4549
Co 15.0057 19.3035 14.7071
Pd 37.0833 12.9555 22.4625
Pd 10.8696 16.6268 28.1289
Pd 45.7447 30.8452 18.2063
Co 20.4572 25.0881 12.3106
Pd 19.5967 4.61961 18.7396
Pd 17.7817 19.9163 25.3934
Pd 7.92295 26.9104 23.7614
Co 24.3164 20.9218 46.4855
Pd 39.6967 8.81688 31.5753
Pd 26.5597 12.3517 9.25211
Pd 18.6582 21.7491 27.254
Co 29.2469 8.94547 15.3107
Co 30.661 19.7088 36.7888
Pd 17.6974 43.2439 25.1935
Pd 31.6827 32.1359 15.1285
Co 42.7894 26.0353 27.1225
Pd 29.6229 22.8623 12.5789
Pd 20.8398 7.87709 26.8956
Pd 25.3645 8.79167 28.9522
Co 30.89 17.9973 23.3522
Pd 7.56579 15.6751 31.9255
Pd 20.0004 26.0123 4.73818
Pd 20.6251 37.7908 21.8012
Co 41.1685 35.7128 29.3313
Pd 16.4273 21.3523 15.6887
Pd 17.0905 9.87111 25.7776
Pd 29.2498 16.3798 9.74941
Co 6.97132 16.9547 22.9501
Pd 21.0685 13.9481 45.4804
Pd 19.4008 7.08668 37.989
Pd 18.4843 4.76964 25.0245
Co 23.7003 10.5584 32.8874
Pd 28.3464 12.776 13.5614
Pd 18.1016 37.3892 42.8891
Pd 24.9853 2.65431 30.8892
Co 24.4345 9.18805 24.0699
Co 27.5665 8.97236 30.1948
Pd 30.7699 30.1569 6.5978
Pd 18.8886 39.4711 12.4282
Co 29.4274 20.2582 20.5554
Pd 17.1609 14.9769 41.8413
Pd 17.2735 7.94562 20.7568
Pd 8.09795 20.0312 37.2943
Co 32.9951 6.58085 18.5688
Pd 8.76614 19.8867 17.6888
Pd 5.64418 22.1765 16.1013
Pd 26.1793 6.70731 20.3709
Co 15.9784 24.8004 24.4877
Pd 32.4707 27.3654 47.0835
Pd 32.3969 20.6924 15.3423
Pd 12.7985 15.2389 42.7538
Co 29.296 16.7467 16.7776
Pd 40.106 25.4473 22.7525
Pd 21.8821 11.8595 23.0826
Pd 13.3003 14.255 13.002
Co 9.13461 17.8914 36.4957
Pd 12.487 16.2381 33.4844
Pd 20.7582 6.92823 40.1594
Pd 16.7384 12.3912 42.711
Co 31.7793 16.6176 17.5851
Pd 13.8788 19.8967 22.6631
Pd 26.2544 43.8807 15.0036
Pd 33.6839 34.3315 37.7885
Co 13.0479 18.1602 37.5262
Pd 32.8165 12.2491 13.7405
Pd 22.5344 7.63262 41.9445
Pd 18.0474 16.5062 35.9951
Co 29.8294 38.7353 12.3308
Co 16.507 14.768 32.6104
Pd 16.4224 23.0818 33.6209
Pd 11.8386 42.2752 22.7991
Co 13.5979 23.101 8.00547
Pd 38.3787 17.9678 9.58982
Pd 24.8877 8.99154 19.9131
Pd 9.8052 21.6485 19.2487
Co 14.8178 19.6722 37.972
Pd 15.7597 39.9895 15.1771
Pd 16.6225 38.7281 28.6749
Pd 38.2091 30.3333 17.0755
Co 39.5234 22.1922 10.9335
Pd 30.7677 5.69132 17.6424
Pd 21.658 10.2069 16.1866
Pd 26.0815 20.5374 11.4146
Co 16.6745 27.5957 11.7801
Pd 11.984 13.9031 32.2167
Pd 33.9345 30.7207 14.1142
Pd 46.7953 18.232 20.9607
Co 16.5051 19.2819 19.3602
Pd 14.7263 24.1472 31.2827
Pd 9.879 13.3087 36.7081
Pd 19.6872 10.6487 34.4523
Co 23.6768 20.2573 22.3333
Pd 32.3475 14.2423 36.7945
Pd 26.7703 16.9465 44.2224
Pd 19.7726 43.1953 29.4318
Co 40.1641 7.45121 25.072
Pd 38.6499 8.06689 27.0078
Pd 17.4095 6.75737 28.5079
Pd 24.774 18.6439 40.5225
Co 33.2653 8.56796 25.8754
Pd 22.8798 33.801 17.4405
Pd 29.5546 7.61528 34.53
Pd 12.8909 10.9756 22.065
Co 31.9771 18.7897 39.9081
Pd 39.7382 28.5638 41.8123
Pd 27.9272 17.9225 46.3733
Pd 17.7754 27.595 32.7954
Co 6.18574 34.6862 34.1153
Co 19.5033 20.3021 14.0616
Pd 16.6825 23.4975 20.485
Pd 20.1943 38.5355 16.8401
Co 23.6571 33.7225 19.8504
Pd 13.9607 40.8569 24.4433
Pd 38.4949 16.218 22.2566
Pd 40.0158 34.3565 8.22593
Co 8.05048 20.533 34.4493
Pd 29.306 38.2779 18.0028
Pd 12.3188 20.0701 14.9406
Pd 10.8093 32.324 26.2965
Co 42.7207 39.2022 13.3925
Pd 30.5464 15.5204 22.8646
Pd 20.294 13.3734 11.9844
Pd 22.7348 35.3196 33.1728
Co 16.0355 26.9719 22.9474
Pd 9.37057 13.2607 31.7851
Pd 15.207 38.8087 31.0048
Pd 21.4037 31.5947 28.7619
Co 14.3082 28.6564 23.603
Pd 27.6602 15.2494 28.908
Pd 23.9244 27.3142 33.4298
Pd 20.2471 19.3341 16.2313
Co 34.8942 12.6687 33.2161
Pd 28.0642 34.6049 25.9563
Pd 31.5102 44.1697 36.8818
Pd 18.4452 17.7129 6.38246
Co 14.2034 13.3849 38.8183
Pd 33.6035 26.1939 37.4914
Pd 28.344 21.6743 44.9948
Pd 11.4406 31.2545 41.5375
Co 18.8368 22.4947 32.5074
Pd 12.7283 7.53036 26.428
Pd 38.7842 39.4306 33.4714
Pd 13.2483 18.5194 40.0124
Co 22.2654 25.2153 42.8866
Pd 4.04314 26.4286 18.7427
Pd 33.5621 21.7222 29.9812
Pd 41.4848 38.3007 37.0774
Co 6.8799 16.9449 20.5096
Pd 32.7517 11.7635 43.1978
Pd 4.58007 23.0278 34.5461
Pd 15.8526 12.4153 33.4611
Co 16.6215 34.1774 43.2961
Pd 21.5223 27.8748 48.9936
Pd 22.7959 20.573 35.6261
Pd 24.444 8.82861 36.9379
Co 20.4113 22.7908 38.0646
Co 29.7024 35.4543 41.9638
Pd 11.1089 16.5986 37.7098
Pd 25.8246 11.286 13.9512
Pd 31.1433 25.8474 18.9969
Co 37.5031 41.049 14.0234
Pd 31.7835 13.0138 23.6297
Pd 22.6488 13.8205 24.5121
Pd 27.3905 14.8003 26.2443
Co 13.7735 25.5637 19.8168
Pd 43.093 29.2742 15.4885
Pd 20.599 20.6715 33.3653
Pd 23.853 24.2638 18.7238
Co 21.2363 27.0467 8.2995
Pd 25.5369 34.3906 24.5497
Pd 30.7634 42.0466 20.8026
Pd 20.0971 17.672 14.098
Co 16.3837 20.4885 10.5283
Pd 28.5028 38.2688 20.5129
Pd 18.3876 13.6537 28.9419
Pd 11.3481 17.2727 25.06
Co 25.2342 27.9004 38.6009
Pd 27.2363 28.6352 46.5297
Pd 19.9544 7.82216 24.2722
Pd 22.077 18.7174 49.1021
Co 38.4863 21.6582 21.1954
Pd 5.96103 26.3636 27.9891
Pd 14.4549 30.1128 38.8828
Pd 22.5378 15.4446 8.18528
Co 23.1391 32.9402 23.8776
Pd 18.1216 47.4308 23.3931
Pd 29.0323 26.8331 32.5334
Pd 15.7831 15.6634 9.65069
Co 12.3655 28.5308 11.581
Pd 28.363 26.2023 28.2513
Pd 17.5128 46.2422 25.5621
Pd 33.5033 16.7313 42.8496
Co 20.0914 9.58573 29.636
Pd 37.9238 27.1992 37.598
Pd 27.3695 19.37 27.9952
Pd 23.1556 15.0662 46.4247
Co 21.6166 26.7673 39.4281
Pd 12.224 37.9352 35.1844
Pd 33.414 11.9444 38.0934
Pd 7.44247 39.0526 33.1221
Co 16.9687 32.5405 41.5516