4033
Atoms. Timestep: 20140
Co 5.48199 13.0112 26.2172
Pd 3.55347 16.7251 24.3451
Pd 5.34523 14.7951 24.2754
Co 5.36852 16.7414 22.4381
Pd 3.62878 14.8544 26.2179
Pd 3.55344 16.7236 28.0922
Pd 5.3452 14.7936 28.1604
Co 5.38049 16.7051 26.2186
Co 5.36847 16.7384 29.9992
Pd 3.52672 20.5338 20.5352
Pd 5.29852 18.5947 20.4924
Co 5.35823 20.5446 18.6382
Pd 3.53314 18.6311 22.4386
Pd 3.4409 20.5039 24.3146
Pd 5.34713 18.6312 24.34
Co 5.32649 20.512 22.4155
Pd 3.45969 18.5995 26.2194
Pd 3.44087 20.5024 28.1256
Pd 5.3471 18.6297 28.0987
Co 5.30027 20.5214 26.2201
Pd 3.53308 18.6281 30.0001
Pd 3.52664 20.5293 31.905
Pd 5.29844 18.5902 31.9463
Co 5.32644 20.509 30.0248
Co 5.35813 20.5386 33.8021
Pd 3.55228 24.3431 16.7311
Pd 5.31516 22.4018 16.6889
Co 5.4084 24.3471 14.8384
Pd 3.53489 22.4402 18.6272
Pd 3.44311 24.3157 20.504
Pd 5.33424 22.4354 20.5358
Co 5.34412 24.3129 18.6158
Pd 3.43475 22.4094 22.41
Pd 3.41521 24.3119 24.3157
Pd 5.28948 22.4135 24.3153
Co 5.28621 24.3222 22.4209
Pd 3.42256 22.4073 26.2208
Pd 3.41519 24.3104 28.1275
Pd 5.28946 22.412 28.1264
Co 5.27093 24.3137 26.2216
Pd 3.4347 22.4064 30.0317
Pd 3.44303 24.3112 31.9392
Pd 5.33416 22.4309 31.9059
Co 5.28616 24.3193 30.0224
Pd 3.53479 22.4342 33.8145
Pd 3.55215 24.3357 35.7121
Pd 5.31503 22.3943 35.7528
Co 5.34401 24.3069 33.8274
Co 5.40825 24.3381 37.6048
Pd 5.39635 26.2223 12.9645
Pd 3.62203 26.2211 14.86
Pd 3.55139 28.0977 16.7326
Pd 5.3956 26.2208 16.749
Co 5.40752 28.0961 14.8399
Pd 3.46428 26.2196 18.6015
Pd 3.44221 28.1221 20.5055
Pd 5.30538 26.2193 20.512
Co 5.34321 28.1273 18.6173
Pd 3.42292 26.2181 22.4088
Pd 3.41431 28.1228 24.3172
Pd 5.27472 26.2178 24.3225
Co 5.28531 28.1149 22.4223
Pd 3.40754 26.2166 26.2223
Pd 3.41428 28.1214 28.129
Pd 5.27469 26.2163 28.1222
Co 5.27003 28.1204 26.2231
Pd 3.42286 26.2151 30.0359
Pd 3.44213 28.1176 31.9407
Pd 5.30531 26.2148 31.9327
Co 5.28526 28.1119 30.0239
Pd 3.46418 26.2137 33.8432
Pd 3.55126 28.0902 35.7136
Pd 5.39547 26.2134 35.6958
Co 5.34311 28.1213 33.8289
Pd 3.62187 26.2122 37.5847
Pd 5.39616 26.2119 39.4802
Co 5.40736 28.0872 37.6063
Pd 5.31335 30.0399 16.6919
Pd 3.5331 29.9991 18.6301
Pd 3.52402 31.904 20.5397
Pd 5.33245 30.0033 20.5388
Co 5.35554 31.8956 18.6427
Pd 3.43295 30.0269 22.413
Pd 3.43819 31.9309 24.3191
Pd 5.28768 30.0222 24.3183
Co 5.32379 31.9252 22.42
Pd 3.42076 30.0259 26.2238
Pd 3.43816 31.9294 28.1301
Pd 5.28765 30.0207 28.1294
Co 5.29757 31.9128 26.2246
Pd 3.43289 30.0239 30.0347
Pd 3.52394 31.8996 31.9095
Pd 5.33237 29.9988 31.9089
Co 5.32373 31.9222 30.0292
Pd 3.53299 29.9932 33.8175
Pd 5.31322 30.0324 35.7558
Co 5.35543 31.8896 33.8065
Pd 5.2949 33.844 20.4984
Pd 3.52954 33.8052 22.4446
Pd 3.54896 35.7097 24.3525
Pd 5.34353 33.8045 24.346
Co 5.36402 35.6958 22.4456
Pd 3.45608 33.8338 26.2253
Pd 3.54894 35.7083 28.0996
Pd 5.34351 33.803 28.1047
Co 5.37597 35.7291 26.2261
Pd 3.52948 33.8022 30.0061
Pd 5.29482 33.8395 31.9523
Co 5.36397 35.6928 30.0066
Pd 5.33981 37.6406 24.2843
Pd 3.62339 37.579 26.2268
Pd 5.33978 37.6391 28.1694
Co 5.47573 39.423 26.2275
Co 9.23776 9.23014 26.2157
Pd 7.23359 12.8747 24.2916
Pd 9.09687 10.9975 24.2928
Co 9.13352 12.9159 22.4118
Pd 7.2925 11.0608 26.2164
Pd 7.23357 12.8732 28.1427
Pd 9.09684 10.996 28.1401
Co 9.09938 12.878 26.2172
Co 9.13347 12.9129 30.0226
Pd 7.1952 16.6711 20.4827
Pd 9.06901 14.7743 20.4659
Co 9.11398 16.7148 18.6075
Pd 7.21498 14.7851 22.3614
Pd 7.21619 16.6818 24.2929
Pd 9.09042 14.7756 24.2885
Co 9.07814 16.6643 22.3638
Pd 7.2382 14.8036 26.2179
Pd 7.21616 16.6803 28.1444
Pd 9.09039 14.7741 28.1473
Co 9.10864 16.6837 26.2186
Pd 7.21493 14.782 30.0744
Pd 7.19512 16.6666 31.9546
Pd 9.06893 14.7697 31.9699
Co 9.07808 16.6613 30.0735
Co 9.11387 16.7088 33.8298
Pd 7.1973 20.4748 16.6817
Pd 9.06236 18.578 16.6689
Co 9.12389 20.5189 14.8053
Pd 7.19173 18.5909 18.5666
Pd 7.19428 20.4857 20.4947
Pd 9.07491 18.5772 20.4756
Co 9.07155 20.4661 18.5652
Pd 7.19895 18.5943 22.3848
Pd 7.21404 20.5128 24.3149
Pd 9.10134 18.5858 24.2926
Co 9.09856 20.4936 22.3973
Pd 7.23652 18.5986 26.2194
Pd 7.21402 20.5113 28.1254
Pd 9.10131 18.5843 28.1461
Co 9.11064 20.5004 26.2201
Pd 7.1989 18.5913 30.054
Pd 7.1942 20.4813 31.9455
Pd 9.07483 18.5727 31.9631
Co 9.0985 20.4906 30.043
Pd 7.19162 18.5849 33.8722
Pd 7.19716 20.4673 35.7585
Pd 9.06223 18.5705 35.7699
Co 9.07144 20.4601 33.8751
Co 9.12373 20.5099 37.635
Pd 7.23625 24.2988 12.8861
Pd 9.08652 22.3926 12.8683
Co 9.16835 24.3535 11.0279
Pd 7.21417 22.3942 14.7607
Pd 7.22939 24.2856 16.6943
Pd 9.08622 22.376 16.6764
Co 9.09557 24.2782 14.7676
Pd 7.20187 22.3942 18.5861
Pd 7.21531 24.317 20.5129
Pd 9.09499 22.3916 20.4928
Co 9.10883 24.3009 18.5952
Pd 7.20872 22.4109 22.4178
Pd 7.18561 24.3169 24.3202
Pd 9.10624 22.4123 24.3197
Co 9.10586 24.3119 22.4139
Pd 7.19055 22.415 26.2209
Pd 7.18559 24.3154 28.123
Pd 9.10621 22.4108 28.1221
Co 9.09981 24.3157 26.2216
Pd 7.20866 22.4079 30.0239
Pd 7.21523 24.3125 31.9303
Pd 9.09491 22.3871 31.949
Co 9.1058 24.3089 30.0293
Pd 7.20176 22.3882 33.8557
Pd 7.22925 24.2782 35.7489
Pd 9.08609 22.3685 35.7654
Co 9.10873 24.2949 33.848
Pd 7.21401 22.3852 37.681
Pd 7.23606 24.2883 39.5572
Pd 9.08634 22.3821 39.5735
Co 9.09542 24.2692 37.6756
Co 9.16814 24.3416 41.4154
Pd 9.17551 26.2247 9.16711
Pd 7.32009 26.2235 11.0265
Pd 7.23533 28.1468 12.8876
Pd 9.12123 26.2232 12.9063
Co 9.16746 28.0944 11.0294
Pd 7.25461 26.222 14.7911
Pd 7.22847 28.1569 16.6958
Pd 9.10893 26.2217 16.6877
Co 9.09465 28.1667 14.7692
Pd 7.23915 26.2205 18.6168
Pd 7.21441 28.1226 20.5144
Pd 9.11515 26.2202 20.5168
Co 9.10792 28.1411 18.5967
Pd 7.19106 26.219 22.4195
Pd 7.18471 28.1197 24.3217
Pd 9.09891 26.2187 24.3191
Co 9.10495 28.1271 22.4154
Pd 7.17996 26.2175 26.2224
Pd 7.18469 28.1182 28.1245
Pd 9.09889 26.2172 28.1256
Co 9.09891 28.1203 26.2231
Pd 7.19101 26.216 30.0252
Pd 7.21433 28.1181 31.9318
Pd 9.11507 26.2158 31.9279
Co 9.1049 28.1241 30.0308
Pd 7.23904 26.2146 33.828
Pd 7.22834 28.1495 35.7504
Pd 9.1088 26.2143 35.7571
Co 9.10782 28.1351 33.8495
Pd 7.25445 26.2131 37.6536
Pd 7.23515 28.1363 39.5587
Pd 9.12104 26.2128 39.5385
Co 9.09449 28.1578 37.6771
Pd 7.31988 26.2116 41.4182
Pd 9.17527 26.2113 43.2777
Co 9.16725 28.0825 41.4169
Pd 9.0847 30.0539 12.8713
Pd 7.21235 30.0498 14.7637
Pd 7.19457 31.9677 16.6862
Pd 9.0844 30.0674 16.6794
Co 9.12118 31.926 14.8097
Pd 7.20006 30.0468 18.5891
Pd 7.19156 31.9538 20.4992
Pd 9.09318 30.0489 20.4958
Co 9.06882 31.9759 18.5697
Pd 7.20691 30.0271 22.4208
Pd 7.21134 31.9237 24.3193
Pd 9.10443 30.0251 24.3227
Co 9.09584 31.9453 22.4018
Pd 7.18875 30.0201 26.2239
Pd 7.21131 31.9223 28.1299
Pd 9.1044 30.0237 28.1251
Co 9.10792 31.9356 26.2246
Pd 7.20686 30.0242 30.0269
Pd 7.19148 31.9493 31.95
Pd 9.0931 30.0444 31.952
Co 9.09579 31.9423 30.0475
Pd 7.19995 30.0409 33.8587
Pd 7.19444 31.9603 35.763
Pd 9.08427 30.0599 35.7684
Co 9.06871 31.9699 33.8796
Pd 7.21219 30.0409 37.684
Pd 9.08452 30.0434 39.5765
Co 9.12102 31.9171 37.6395
Pd 9.05874 33.8655 16.6749
Pd 7.18811 33.8501 18.5726
Pd 7.19067 35.7684 20.4902
Pd 9.07128 33.8633 20.4816
Co 9.10947 35.7271 18.615
Pd 7.19533 33.8438 22.3907
Pd 7.21166 35.7547 24.3003
Pd 9.09772 33.8517 24.2986
Co 9.0736 35.7747 22.3713
Pd 7.23291 33.8365 26.2254
Pd 7.21164 35.7532 28.1519
Pd 9.09769 33.8502 28.1521
Co 9.10411 35.7523 26.2261
Pd 7.19528 33.8408 30.06
Pd 7.19059 35.7639 31.962
Pd 9.0712 33.8588 31.9691
Co 9.07355 35.7717 30.081
Pd 7.188 33.8441 33.8782
Pd 9.05861 33.858 35.7759
Co 9.10936 35.7212 33.8372
Pd 9.06358 37.6662 20.4749
Pd 7.20955 37.653 22.3703
Pd 7.22726 39.5619 24.302
Pd 9.08499 37.6619 24.2975
Co 9.12721 39.5231 22.4222
Pd 7.23278 37.6315 26.2268
Pd 7.22724 39.5604 28.1532
Pd 9.08496 37.6604 28.1562
Co 9.09305 39.558 26.2276
Pd 7.2095 37.65 30.0834
Pd 9.0635 37.6617 31.9788
Co 9.12716 39.5201 30.033
Pd 9.08964 41.4399 24.3047
Pd 7.2853 41.3743 26.2283
Pd 9.08962 41.4384 28.152
Co 9.2297 43.2059 26.229
Co 13.0206 5.47617 26.2143
Pd 11.0045 9.09083 24.292
Pd 12.8825 7.22844 24.2894
Co 12.9221 9.12911 22.4103
Pd 11.0694 7.28574 26.215
Pd 11.0045 9.08932 28.1393
Pd 12.8825 7.22694 28.1405
Co 12.8857 9.09349 26.2157
Co 12.922 9.12613 30.0211
Pd 10.9756 12.8545 20.4654
Pd 12.8591 10.9719 20.4647
Co 12.9053 12.9024 18.5966
Pd 10.988 10.9827 22.3601
Pd 10.9852 12.8686 24.2868
Pd 12.8747 10.98 24.2861
Co 12.8601 12.8557 22.3572
Pd 11.0149 11.0081 26.2164
Pd 10.9852 12.8671 28.1475
Pd 12.8746 10.9785 28.1468
Co 12.8868 12.8809 26.2172
Pd 10.988 10.9797 30.0727
Pd 10.9755 12.85 31.9689
Pd 12.859 10.9674 31.9682
Co 12.8601 12.8527 30.0772
Co 12.9052 12.8964 33.8378
Pd 10.9678 16.6542 16.6623
Pd 12.8488 14.7638 16.6567
Co 12.9019 16.7034 14.7941
Pd 10.9712 14.7692 18.546
Pd 10.9724 16.6589 20.4647
Pd 12.8585 14.7608 20.46
Co 12.8512 16.6481 18.5459
Pd 10.9783 14.7685 22.363
Pd 10.9842 16.6708 24.2929
Pd 12.8752 14.7676 24.2909
Co 12.8768 16.6691 22.3816
Pd 10.9827 14.7671 26.2179
Pd 10.9842 16.6693 28.1444
Pd 12.8752 14.7661 28.1449
Co 12.8786 16.669 26.2187
Pd 10.9783 14.7655 30.0728
Pd 10.9723 16.6544 31.9726
Pd 12.8584 14.7563 31.9758
Co 12.8767 16.6661 30.0557
Pd 10.9711 14.7632 33.8898
Pd 10.9677 16.6467 35.775
Pd 12.8487 14.7563 35.7791
Co 12.8511 16.6421 33.8914
Co 12.9017 16.6945 37.6433
Pd 10.9813 20.4645 12.8631
Pd 12.8551 18.5717 12.8576
Co 12.9183 20.5189 11.001
Pd 10.9718 18.5739 14.7454
Pd 10.9753 20.4612 16.6658
Pd 12.856 18.5604 16.6583
Co 12.8558 20.4541 14.7497
Pd 10.9705 18.5675 18.5575
Pd 10.9813 20.4781 20.4792
Pd 12.8727 18.5669 20.4714
Co 12.8762 20.4748 18.5748
Pd 10.9835 18.5723 22.3825
Pd 10.9965 20.4887 24.3056
Pd 12.8831 18.5762 24.3029
Co 12.885 20.4809 22.3922
Pd 10.9913 18.579 26.2194
Pd 10.9965 20.4872 28.1347
Pd 12.8831 18.5747 28.1359
Co 12.8917 20.4842 26.2202
Pd 10.9835 18.5693 30.0563
Pd 10.9812 20.4736 31.9611
Pd 12.8727 18.5624 31.9674
Co 12.8849 20.4779 30.0481
Pd 10.9704 18.5615 33.8813
Pd 10.9752 20.4537 35.7745
Pd 12.8559 18.5529 35.7805
Co 12.8761 20.4688 33.8655
Pd 10.9717 18.5649 37.6934
Pd 10.9812 20.4541 39.5772
Pd 12.855 18.5612 39.5812
Co 12.8557 20.4451 37.6906
Co 12.9181 20.507 41.4393
Pd 11.024 24.3039 9.08971
Pd 12.8843 22.397 9.07395
Co 12.9714 24.3561 7.24372
Pd 10.9968 22.3963 10.9541
Pd 10.9994 24.2877 12.8802
Pd 12.8694 22.3752 12.8686
Co 12.8829 24.2798 10.9719
Pd 10.9817 22.3761 14.7606
Pd 10.9861 24.296 16.6759
Pd 12.8744 22.3793 16.6718
Co 12.8832 24.2995 14.7804
Pd 10.9837 22.3818 18.5794
Pd 10.9987 24.3031 20.4958
Pd 12.8859 22.3894 20.4895
Co 12.8835 24.3012 18.5845
Pd 10.9958 22.3955 22.4003
Pd 11.006 24.3109 24.3143
Pd 12.8967 22.3955 24.3084
Co 12.897 24.3059 22.4023
Pd 11.0068 22.3999 26.2209
Pd 11.006 24.3094 28.129
Pd 12.8967 22.394 28.1334
Co 12.9034 24.3072 26.2217
Pd 10.9957 22.3925 30.0415
Pd 10.9987 24.2986 31.9475
Pd 12.8858 22.3849 31.9523
Co 12.8969 24.3029 30.041
Pd 10.9836 22.3758 33.8624
Pd 10.986 24.2885 35.7674
Pd 12.8742 22.3718 35.77
Co 12.8834 24.2952 33.8589
Pd 10.9816 22.3671 37.6811
Pd 10.9993 24.2772 39.5631
Pd 12.8692 22.3648 39.5732
Co 12.883 24.2905 37.6629
Pd 10.9966 22.3843 41.4876
Pd 11.0238 24.2905 43.3536
Pd 12.884 22.3836 43.3679
Co 12.8827 24.2679 41.4714
Co 12.9711 24.3412 45.1996
Pd 13.0034 26.2271 5.3767
Pd 11.1259 26.2259 7.23002
Pd 11.0231 28.1464 9.09121
Pd 12.914 26.2256 9.12126
Co 12.9705 28.0966 7.24518
Pd 11.0333 26.2244 10.9914
Pd 10.9985 28.1597 12.8817
Pd 12.89 26.2241 12.8847
Co 12.882 28.1699 10.9734
Pd 10.995 26.2229 14.783
Pd 10.9852 28.1484 16.6774
Pd 12.8826 26.2226 16.6864
Co 12.8822 28.1473 14.7819
Pd 10.9955 26.2214 18.5902
Pd 10.9978 28.1383 20.4973
Pd 12.8917 26.2211 20.4955
Co 12.8826 28.1425 18.586
Pd 11.0069 26.2199 22.4104
Pd 11.0051 28.1275 24.3158
Pd 12.9037 26.2196 24.3153
Co 12.8961 28.1348 22.4038
Pd 11.0044 26.2184 26.2224
Pd 11.0051 28.126 28.1305
Pd 12.9037 26.2181 28.1295
Co 12.9025 28.1306 26.2232
Pd 11.0069 26.2169 30.0344
Pd 10.9977 28.1338 31.949
Pd 12.8916 26.2166 31.9493
Co 12.896 28.1319 30.0425
Pd 10.9954 26.2154 33.8546
Pd 10.9851 28.1409 35.7689
Pd 12.8825 26.2151 35.7585
Co 12.8825 28.1366 33.8604
Pd 10.9948 26.214 37.6618
Pd 10.9983 28.1492 39.5646
Pd 12.8898 26.2137 39.5601
Co 12.8821 28.1383 37.6644
Pd 11.0331 26.2125 41.4534
Pd 11.0229 28.133 43.3551
Pd 12.9138 26.2122 43.3236
Co 12.8817 28.1579 41.4729
Pd 11.1256 26.211 45.2148
Pd 13.0031 26.2107 47.0681
Co 12.9702 28.0817 45.2011
Pd 12.8824 30.0542 9.07695
Pd 10.995 30.0525 10.9571
Pd 10.9786 31.9828 12.8676
Pd 12.8676 30.073 12.8716
Co 12.9156 31.9308 11.0055
Pd 10.9799 30.0698 14.7637
Pd 10.9726 31.9832 16.6703
Pd 12.8725 30.0659 16.6748
Co 12.8531 31.9926 14.7542
Pd 10.9819 30.061 18.5824
Pd 10.9785 31.9633 20.4837
Pd 12.8841 30.0529 20.4925
Co 12.8734 31.9689 18.5793
Pd 10.994 30.0443 22.4033
Pd 10.9938 31.9496 24.3101
Pd 12.8949 30.0438 24.3114
Co 12.8822 31.9599 22.3967
Pd 11.005 30.037 26.2239
Pd 10.9938 31.9481 28.1392
Pd 12.8949 30.0423 28.1364
Co 12.889 31.9536 26.2247
Pd 10.9939 30.0413 30.0445
Pd 10.9785 31.9588 31.9656
Pd 12.884 30.0484 31.9553
Co 12.8822 31.9569 30.0526
Pd 10.9818 30.055 33.8654
Pd 10.9724 31.9757 35.779
Pd 12.8724 30.0585 35.773
Co 12.8733 31.9629 33.87
Pd 10.9797 30.0608 37.6842
Pd 10.9784 31.9723 39.5817
Pd 12.8674 30.0625 39.5762
Co 12.8529 31.9836 37.6952
Pd 10.9947 30.0406 41.4906
Pd 12.8822 30.0407 43.3709
Co 12.9154 31.9188 41.4438
Pd 12.8515 33.8765 12.8636
Pd 10.9682 33.872 14.7514
Pd 10.9632 35.7902 16.6698
Pd 12.8524 33.8848 16.6643
Co 12.8974 35.7433 14.8015
Pd 10.9669 33.8754 18.5635
Pd 10.9679 35.7825 20.4722
Pd 12.8691 33.8754 20.4774
Co 12.8467 35.7957 18.5534
Pd 10.9799 33.8676 22.3885
Pd 10.9797 35.7676 24.3004
Pd 12.8795 33.8631 24.3089
Co 12.8722 35.7717 22.3891
Pd 10.9877 33.8579 26.2254
Pd 10.9796 35.7661 28.1518
Pd 12.8794 33.8616 28.1419
Co 12.874 35.7688 26.2262
Pd 10.9799 33.8646 30.0623
Pd 10.9678 35.778 31.9801
Pd 12.869 33.8708 31.9734
Co 12.8722 35.7687 30.0632
Pd 10.9668 33.8694 33.8873
Pd 10.9631 35.7827 35.7825
Pd 12.8523 33.8773 35.7865
Co 12.8465 35.7896 33.8989
Pd 10.968 33.863 37.6994
Pd 12.8513 33.866 39.5872
Co 12.8972 35.7344 37.6508
Pd 12.8434 37.6814 16.6657
Pd 10.9658 37.6736 18.555
Pd 10.9693 39.5868 20.4759
Pd 12.853 37.6815 20.469
Co 12.899 39.5414 18.6071
Pd 10.9729 37.6714 22.372
Pd 10.9788 39.5698 24.2973
Pd 12.8698 37.6716 24.2999
Co 12.8538 39.5851 22.3677
Pd 10.9772 37.6697 26.2269
Pd 10.9788 39.5683 28.1579
Pd 12.8697 37.6701 28.1539
Co 12.8805 39.5568 26.2276
Pd 10.9728 37.6684 30.0818
Pd 10.9692 39.5823 31.9794
Pd 12.8529 37.677 31.9848
Co 12.8537 39.5821 30.0876
Pd 10.9657 37.6676 33.8988
Pd 12.8433 37.6739 35.7881
Co 12.8989 39.5354 33.8482
Pd 12.8519 41.4703 20.4766
Pd 10.9808 41.4572 22.3721
Pd 10.9964 43.3476 24.3055
Pd 12.8674 41.4592 24.2981
Co 12.914 43.3117 22.4237
Pd 11.0077 41.4288 26.2284
Pd 10.9963 43.346 28.1528
Pd 12.8674 41.4577 28.1587
Co 12.8775 43.3443 26.2291
Pd 10.9807 41.4542 30.0847
Pd 12.8518 41.4658 31.9801
Co 12.9139 43.3087 30.0345
Pd 12.8735 45.2108 24.3043
Pd 11.0604 45.1512 26.2298
Pd 12.8735 45.2093 28.1554
Co 13.0108 46.9617 26.2305
Pd 14.8038 5.341 24.2717
Pd 16.7347 3.55013 24.34
Co 16.7494 5.36592 22.4337
Pd 14.8647 3.62383 26.2136
Pd 14.8038 5.33948 28.1568
Pd 16.7347 3.54866 28.0871
Co 16.7145 5.37641 26.2143
Co 16.7493 5.36296 29.9948
Pd 14.7797 9.06624 20.4637
Pd 16.6775 7.19332 20.479
Co 16.7196 9.11284 18.6046
Pd 14.7922 7.21148 22.3585
Pd 14.7825 9.08617 24.2863
Pd 16.6897 7.21284 24.2892
Co 16.6705 9.07553 22.3609
Pd 14.8122 7.23322 26.215
Pd 14.7825 9.08466 28.1451
Pd 16.6897 7.21134 28.1408
Co 16.6913 9.10455 26.2157
Pd 14.7921 7.20846 30.0715
Pd 14.7797 9.06173 31.9677
Pd 16.6774 7.18882 31.9509
Co 16.6704 9.07251 30.0706
Co 16.7195 9.10687 33.8269
Pd 14.766 12.8475 16.656
Pd 16.6573 10.9674 16.6601
Co 16.7049 12.9022 14.7926
Pd 14.7731 10.9692 18.5445
Pd 14.7645 12.8557 20.4593
Pd 16.6635 10.9705 20.4625
Co 16.6511 12.8501 18.5444
Pd 14.7738 10.9748 22.3616
Pd 14.7728 12.8709 24.2902
Pd 16.6768 10.9808 24.2908
Co 16.6735 12.8741 22.3801
Pd 14.7739 10.9777 26.2164
Pd 14.7728 12.8694 28.1442
Pd 16.6768 10.9793 28.1422
Co 16.6749 12.8745 26.2172
Pd 14.7737 10.9718 30.0713
Pd 14.7644 12.8512 31.9751
Pd 16.6634 10.966 31.9704
Co 16.6734 12.8711 30.0543
Pd 14.773 10.9632 33.8883
Pd 14.7659 12.84 35.7784
Pd 16.6571 10.9599 35.7728
Co 16.6509 12.844 33.8899
Co 16.7047 12.8932 37.6418
Pd 14.7672 16.6523 12.8558
Pd 16.6522 14.7682 12.855
Co 16.7113 16.7131 10.9947
Pd 14.7647 14.7641 14.7388
Pd 14.7584 16.6499 16.655
Pd 16.6512 14.758 16.6543
Co 16.6462 16.6466 14.7447
Pd 14.7604 14.7584 18.5481
Pd 14.7653 16.6629 20.4688
Pd 16.6657 14.7634 20.468
Co 16.6666 16.6654 18.5692
Pd 14.7667 14.7632 22.3771
Pd 14.7768 16.6706 24.301
Pd 16.6748 14.7735 24.3003
Co 16.6732 16.6705 22.3882
Pd 14.7756 14.7706 26.2179
Pd 14.7768 16.6691 28.1364
Pd 16.6748 14.772 28.1356
Co 16.6786 16.6746 26.2187
Pd 14.7667 14.7602 30.0587
Pd 14.7652 16.6584 31.9686
Pd 16.6656 14.7589 31.9679
Co 16.6731 16.6675 30.0492
Pd 14.7603 14.7524 33.8878
Pd 14.7583 16.6424 35.7823
Pd 16.6511 14.7505 35.7816
Co 16.6665 16.6594 33.8682
Pd 14.7646 14.7551 37.6971
Pd 14.767 16.6419 39.5816
Pd 16.652 14.7577 39.5809
Co 16.6461 16.6376 37.6927
Co 16.7111 16.7011 41.4427
Pd 14.7901 20.4714 9.07078
Pd 16.6736 18.5891 9.06321
Co 16.7482 20.5408 7.21738
Pd 14.7768 18.5763 10.9436
Pd 14.7668 20.4595 12.8653
Pd 16.6547 18.563 12.8632
Co 16.6601 20.4595 10.9628
Pd 14.7599 18.5601 14.7509
Pd 14.7648 20.4698 16.6678
Pd 16.6627 18.563 16.6665
Co 16.6676 20.4735 14.7768
Pd 14.7644 18.5632 18.5675
Pd 14.7786 20.4786 20.4849
Pd 16.6736 18.5735 20.4835
Co 16.6724 20.4776 18.5811
Pd 14.7772 18.5733 22.39
Pd 14.7864 20.4832 24.307
Pd 16.681 18.5782 24.306
Co 16.6829 20.484 22.398
Pd 14.7812 18.5747 26.2194
Pd 14.7863 20.4817 28.1333
Pd 16.6809 18.5767 28.1329
Co 16.6863 20.4847 26.2202
Pd 14.7771 18.5703 30.0488
Pd 14.7785 20.4741 31.9555
Pd 16.6735 18.569 31.9553
Co 16.6828 20.481 30.0424
Pd 14.7643 18.5572 33.8714
Pd 14.7646 20.4623 35.7726
Pd 16.6626 18.5555 35.7724
Co 16.6723 20.4716 33.8593
Pd 14.7597 18.5511 37.6879
Pd 14.7667 20.449 39.575
Pd 16.6545 18.5525 39.5756
Co 16.6674 20.4645 37.6636
Pd 14.7766 18.5644 41.4952
Pd 14.7899 20.458 43.3696
Pd 16.6734 18.5757 43.3757
Co 16.6599 20.4476 41.4776
Co 16.7479 20.5259 45.223
Pd 14.8476 24.307 5.3347
Pd 16.7395 22.4222 5.30498
Co 16.8386 24.3839 3.60019
Pd 14.8163 22.3983 7.17258
Pd 14.8001 24.2893 9.09913
Pd 16.6812 22.3827 9.0944
Co 16.7044 24.2827 7.21461
Pd 14.7774 22.3771 10.9696
Pd 14.7739 24.297 12.8803
Pd 16.6697 22.3808 12.8821
Co 16.6834 24.3024 11.0012
Pd 14.768 22.379 14.774
Pd 14.7765 24.3023 16.6837
Pd 16.6723 22.3884 16.6853
Co 16.6726 24.3021 14.7893
Pd 14.7771 22.3883 18.5828
Pd 14.7856 24.3055 20.4929
Pd 16.6821 22.3932 20.4933
Co 16.6796 24.3063 18.5921
Pd 14.7884 22.3925 22.3988
Pd 14.7966 24.3062 24.3111
Pd 16.6898 22.3949 24.3107
Co 16.6892 24.3072 22.4029
Pd 14.7928 22.3933 26.2209
Pd 14.7965 24.3047 28.1323
Pd 16.6898 22.3934 28.1312
Co 16.6941 24.3063 26.2217
Pd 14.7884 22.3895 30.043
Pd 14.7855 24.301 31.9504
Pd 16.6821 22.3888 31.9486
Co 16.6891 24.3042 30.0404
Pd 14.777 22.3823 33.859
Pd 14.7763 24.2948 35.7596
Pd 16.6722 22.381 35.7565
Co 16.6795 24.3003 33.8513
Pd 14.7678 22.37 37.6678
Pd 14.7737 24.2865 39.563
Pd 16.6695 22.3703 39.5598
Co 16.6724 24.2931 37.6541
Pd 14.7772 22.3652 41.4722
Pd 14.7999 24.2759 43.3442
Pd 16.681 22.3693 43.3475
Co 16.6832 24.2905 41.4422
Pd 14.8161 22.3834 45.2693
Pd 14.8473 24.2907 47.1086
Pd 16.7392 22.4058 47.1369
Co 16.7041 24.2678 45.2287
Co 16.8383 24.3662 48.8432
Pd 15.0311 26.2283 3.50903
Pd 14.8467 28.148 5.33621
Pd 16.7658 26.228 5.41914
Co 16.8377 28.0734 3.60164
Pd 14.8364 26.2268 7.22429
Pd 14.7992 28.1628 9.10065
Pd 16.6982 26.2265 9.11313
Co 16.7035 28.1718 7.21614
Pd 14.7891 26.2253 10.9954
Pd 14.773 28.1522 12.8818
Pd 16.6767 26.225 12.8995
Co 16.6825 28.1491 11.0027
Pd 14.7787 26.2238 14.7866
Pd 14.7755 28.1438 16.6852
Pd 16.6765 26.2235 16.6929
Co 16.6716 28.1465 14.7908
Pd 14.7815 26.2223 18.59
Pd 14.7847 28.1377 20.4944
Pd 16.685 26.222 20.4984
Co 16.6787 28.1393 18.5936
Pd 14.7924 26.2208 22.403
Pd 14.7956 28.1339 24.3126
Pd 16.6937 26.2205 24.3125
Co 16.6883 28.1354 22.4044
Pd 14.8004 26.2193 26.2224
Pd 14.7956 28.1324 28.1338
Pd 16.6937 26.219 28.1324
Co 16.6932 28.1332 26.2232
Pd 14.7923 26.2178 30.0418
Pd 14.7846 28.1332 31.9519
Pd 16.6849 26.2175 31.9465
Co 16.6882 28.1324 30.0419
Pd 14.7814 26.2163 33.8548
Pd 14.7754 28.1364 35.7611
Pd 16.6764 26.216 35.7519
Co 16.6786 28.1333 33.8528
Pd 14.7785 26.2149 37.6583
Pd 14.7728 28.1417 39.5645
Pd 16.6765 26.2146 39.5454
Co 16.6715 28.1375 37.6556
Pd 14.7889 26.2134 41.4494
Pd 14.799 28.1494 43.3457
Pd 16.698 26.2131 43.3317
Co 16.6823 28.1371 41.4437
Pd 14.8361 26.2119 45.2206
Pd 14.8464 28.1317 47.1101
Pd 16.7655 26.2117 47.0257
Co 16.7032 28.1569 45.2303
Pd 15.0308 26.2105 48.9358
Co 16.8374 28.0557 48.8447
Pd 16.7377 30.0338 5.30796
Pd 14.8145 30.0553 7.17558
Pd 14.7874 31.9807 9.07529
Pd 16.6794 30.0703 9.09741
Co 16.7455 31.9137 7.22183
Pd 14.7755 30.0735 10.9726
Pd 14.7641 31.9896 12.8698
Pd 16.6678 30.0693 12.8851
Co 16.6574 31.992 10.9673
Pd 14.7662 30.0687 14.777
Pd 14.762 31.9764 16.6723
Pd 16.6705 30.0586 16.6883
Co 16.6648 31.975 14.7813
Pd 14.7753 30.0564 18.5858
Pd 14.7759 31.9645 20.4894
Pd 16.6803 30.0508 20.4963
Co 16.6696 31.968 18.5856
Pd 14.7866 30.0492 22.4018
Pd 14.7836 31.957 24.3115
Pd 16.688 30.0462 24.3137
Co 16.6802 31.9586 22.4025
Pd 14.791 30.0454 26.2239
Pd 14.7836 31.9555 28.1378
Pd 16.688 30.0447 28.1342
Co 16.6836 31.9549 26.2247
Pd 14.7865 30.0462 30.0461
Pd 14.7758 31.96 31.96
Pd 16.6802 30.0463 31.9516
Co 16.6801 31.9556 30.0469
Pd 14.7752 30.0504 33.862
Pd 14.7619 31.9689 35.7771
Pd 16.6704 30.0511 35.7595
Co 16.6695 31.962 33.8638
Pd 14.766 30.0597 37.6708
Pd 14.7639 31.9792 39.5795
Pd 16.6676 30.0588 39.5628
Co 16.6647 31.9661 37.6681
Pd 14.7753 30.0615 41.4753
Pd 14.7872 31.9672 43.3741
Pd 16.6791 30.0569 43.3505
Co 16.6572 31.98 41.4821
Pd 14.8142 30.0404 45.2723
Pd 16.7374 30.0174 47.1399
Co 16.7452 31.8988 45.2275
Pd 16.67 33.8639 9.06919
Pd 14.7732 33.8743 10.9496
Pd 14.7626 35.7968 12.8633
Pd 16.6511 33.887 12.8693
Co 16.7068 35.7385 11.0022
Pd 14.7562 33.8876 14.7569
Pd 14.7539 35.7962 16.6625
Pd 16.6591 33.8841 16.6725
Co 16.6417 35.802 14.7522
Pd 14.7608 33.8815 18.5735
Pd 14.7607 35.7803 20.4763
Pd 16.67 33.8706 20.4895
Co 16.662 35.7801 18.5767
Pd 14.7735 33.8683 22.396
Pd 14.7723 35.7696 24.3085
Pd 16.6773 33.8628 24.312
Co 16.6686 35.772 22.3957
Pd 14.7776 33.8639 26.2254
Pd 14.7723 35.7681 28.1438
Pd 16.6773 33.8613 28.1389
Co 16.6741 35.765 26.2262
Pd 14.7735 33.8653 30.0548
Pd 14.7607 35.7758 31.9761
Pd 16.6699 33.8661 31.9613
Co 16.6686 35.769 30.0567
Pd 14.7607 33.8755 33.8774
Pd 14.7537 35.7887 35.7898
Pd 16.659 33.8766 35.7784
Co 16.6619 35.7741 33.8757
Pd 14.7561 33.8786 37.6939
Pd 14.7624 35.7863 39.5891
Pd 16.6509 33.8766 39.5816
Co 16.6415 35.793 37.7002
Pd 14.773 33.8623 41.5012
Pd 16.6697 33.8504 43.3817
Co 16.7065 35.7265 41.4502
Pd 16.6467 37.6818 12.864
Pd 14.7593 37.6835 14.7478
Pd 14.7597 39.5986 16.6664
Pd 16.6458 37.6891 16.6633
Co 16.6986 39.5463 14.803
Pd 14.755 37.6863 18.557
Pd 14.7581 39.5875 20.4698
Pd 16.6602 37.6807 20.477
Co 16.6447 39.5955 18.5549
Pd 14.7613 37.6785 22.3861
Pd 14.7664 39.5692 24.3007
Pd 16.6694 37.6676 24.3092
Co 16.6672 39.5684 22.3906
Pd 14.7702 37.668 26.2269
Pd 14.7664 39.5677 28.1546
Pd 16.6694 37.6661 28.1446
Co 16.6685 39.5651 26.2277
Pd 14.7612 37.6754 30.0677
Pd 14.758 39.583 31.9856
Pd 16.6602 37.6762 31.9768
Co 16.6671 39.5654 30.0647
Pd 14.7549 37.6803 33.8968
Pd 14.7596 39.5911 35.7889
Pd 16.6457 37.6816 35.7906
Co 16.6446 39.5895 33.9004
Pd 14.7591 37.6745 37.706
Pd 16.6466 37.6714 39.5898
Co 16.6984 39.5374 37.6523
Pd 16.65 41.4797 16.6721
Pd 14.7658 41.4755 18.5565
Pd 14.7716 43.3769 20.4772
Pd 16.6562 41.4736 20.4745
Co 16.7114 43.3327 18.618
Pd 14.7666 41.4669 22.3735
Pd 14.7744 43.354 24.2998
Pd 16.6696 41.4602 24.3027
Co 16.6623 43.3671 22.3743
Pd 14.7667 41.461 26.2284
Pd 14.7744 43.3525 28.1585
Pd 16.6696 41.4587 28.1541
Co 16.6832 43.335 26.2291
Pd 14.7665 41.4639 30.0833
Pd 14.7715 43.3724 31.9811
Pd 16.6562 41.4691 31.9824
Co 16.6623 43.364 30.084
Pd 14.7657 41.4695 33.9003
Pd 16.6499 41.4722 35.7848
Co 16.7113 43.3267 33.8403
Pd 16.6685 45.2507 20.494
Pd 14.7831 45.2302 22.3734
Pd 14.7939 47.0992 24.2881
Pd 16.6807 45.2282 24.3041
Co 16.7395 47.0766 22.4501
Pd 14.8032 45.2055 26.2299
Pd 14.7939 47.0977 28.1731
Pd 16.6806 45.2267 28.1557
Co 16.7046 47.0632 26.2306
Pd 14.7831 45.2272 30.0864
Pd 16.6684 45.2463 31.9658
Co 16.7394 47.0737 30.0111
Pd 16.7239 48.8909 24.3578
Pd 14.854 48.8149 26.2313
Pd 16.7239 48.8895 28.1049
Pd 18.602 5.29755 20.4873
Pd 20.5419 3.52665 20.5287
Co 20.5511 5.3589 18.6324
Pd 18.64 3.53143 22.4328
Pd 18.6399 5.3447 24.3349
Pd 20.5135 3.43936 24.308
Co 20.52 5.32569 22.4096
Pd 18.6099 3.45652 26.2135
Pd 18.6399 5.34322 28.0936
Pd 20.5135 3.43787 28.119
Co 20.5308 5.29801 26.2143
Pd 18.6399 3.52847 29.9943
Pd 18.6019 5.29306 31.9412
Pd 20.5418 3.52219 31.8984
Co 20.5199 5.32271 30.0189
Co 20.551 5.35295 33.7962
Pd 18.582 9.06286 16.6652
Pd 20.4797 7.19868 16.6766
Co 20.5222 9.12602 14.8009
Pd 18.5966 7.19149 18.5622
Pd 18.5826 9.07393 20.472
Pd 20.4921 7.19421 20.4896
Co 20.4708 9.07221 18.5608
Pd 18.6014 7.19725 22.3804
Pd 18.5928 9.0989 24.289
Pd 20.5207 7.21251 24.3097
Co 20.4999 9.09775 22.3929
Pd 18.6072 7.23335 26.215
Pd 18.5927 9.09739 28.1425
Pd 20.5206 7.21102 28.1203
Co 20.5081 9.10836 26.2158
Pd 18.6014 7.19424 30.0496
Pd 18.5826 9.06943 31.9595
Pd 20.492 7.18972 31.9404
Co 20.4998 9.09476 30.0386
Pd 18.5965 7.1855 33.8678
Pd 18.5819 9.05537 35.7662
Pd 20.4796 7.19121 35.7534
Co 20.4707 9.06621 33.8707
Co 20.522 9.11707 37.6307
Pd 18.5725 12.8571 12.8554
Pd 20.4662 10.9842 12.8595
Co 20.5189 12.9219 10.9981
Pd 18.5763 10.9731 14.7425
Pd 18.5626 12.8565 16.6561
Pd 20.4643 10.9767 16.6622
Co 20.4556 12.8579 14.7467
Pd 18.5713 10.9703 18.5546
Pd 18.5706 12.8718 20.4692
Pd 20.4826 10.9812 20.4755
Co 20.4778 12.8768 18.5719
Pd 18.5776 10.9818 22.3796
Pd 18.5813 12.8806 24.3007
Pd 20.4948 10.995 24.302
Co 20.4853 12.8842 22.3893
Pd 18.5857 10.9881 26.2165
Pd 18.5813 12.8791 28.1337
Pd 20.4948 10.9935 28.131
Co 20.4901 12.8894 26.2172
Pd 18.5775 10.9788 30.0534
Pd 18.5705 12.8673 31.9652
Pd 20.4826 10.9767 31.9574
Co 20.4852 12.8811 30.0451
Pd 18.5712 10.9643 33.8784
Pd 18.5625 12.849 35.7783
Pd 20.4642 10.9692 35.7708
Co 20.4777 12.8708 33.8626
Pd 18.5761 10.9641 37.6905
Pd 18.5723 12.8466 39.579
Pd 20.466 10.9737 39.5735
Co 20.4555 12.8489 37.6877
Co 20.5187 12.91 41.4364
Pd 18.5866 16.677 9.06247
Pd 20.4698 14.7944 9.06859
Co 20.5375 16.7532 7.21592
Pd 18.5754 14.7795 10.9422
Pd 18.5619 16.6567 12.8625
Pd 20.4593 14.7697 12.8631
Co 20.4578 16.6637 10.9613
Pd 18.5607 14.7611 14.7494
Pd 18.5634 16.6632 16.6658
Pd 20.4711 14.7662 16.6656
Co 20.4732 16.6697 14.7753
Pd 18.5652 14.7642 18.566
Pd 18.5753 16.6726 20.4828
Pd 20.4814 14.7785 20.4827
Co 20.4787 16.673 18.5796
Pd 18.5768 14.7755 22.3886
Pd 18.5816 16.6785 24.3053
Pd 20.4874 14.7848 24.3048
Co 20.4866 16.6821 22.3966
Pd 18.5797 14.778 26.218
Pd 18.5815 16.677 28.1321
Pd 20.4874 14.7833 28.1311
Co 20.4888 16.684 26.2187
Pd 18.5768 14.7725 30.0474
Pd 18.5753 16.6681 31.9546
Pd 20.4813 14.774 31.9533
Co 20.4866 16.6791 30.0409
Pd 18.5651 14.7582 33.8699
Pd 18.5633 16.6557 35.7716
Pd 20.471 14.7587 35.7704
Co 20.4786 16.667 33.8578
Pd 18.5605 14.7521 37.6865
Pd 18.5618 16.6462 39.5749
Pd 20.4592 14.7592 39.5728
Co 20.473 16.6607 37.6621
Pd 18.5752 14.7676 41.4938
Pd 18.5864 16.6636 43.3749
Pd 20.4696 14.781 43.3674
Co 20.4576 16.6517 41.4761
Co 20.5373 16.7383 45.2216
Pd 18.6395 20.5323 5.29166
Pd 20.5274 18.6453 5.29093
Co 20.6105 20.617 3.57147
Pd 18.6104 18.6146 7.15397
Pd 18.5863 20.4777 9.09076
Pd 20.4743 18.5907 9.09003
Co 20.4943 20.4993 7.19658
Pd 18.5688 18.5715 10.9663
Pd 18.5675 20.4737 12.8834
Pd 20.4717 18.5703 12.8827
Co 20.4833 20.4868 11.0042
Pd 18.5634 18.5646 14.7732
Pd 18.5735 20.4788 16.6855
Pd 20.4783 18.5749 16.6848
Co 20.4776 20.4797 14.7939
Pd 18.574 18.5738 18.5811
Pd 18.5818 20.485 20.4931
Pd 20.486 18.5817 20.4924
Co 20.4851 20.4858 18.594
Pd 18.5817 18.58 22.3971
Pd 18.588 20.4882 24.31
Pd 20.4906 18.5865 24.3093
Co 20.4912 20.4904 22.4032
Pd 18.5849 18.5817 26.2195
Pd 18.588 20.4867 28.1304
Pd 20.4906 18.585 28.1297
Co 20.4938 20.4915 26.2202
Pd 18.5816 18.577 30.0418
Pd 18.5817 20.4805 31.9473
Pd 20.4859 18.5772 31.9465
Co 20.4912 20.4874 30.0372
Pd 18.5739 18.5678 33.8578
Pd 18.5734 20.4713 35.7549
Pd 20.4782 18.5674 35.7542
Co 20.485 20.4798 33.8465
Pd 18.5632 18.5556 37.6657
Pd 18.5673 20.4632 39.5569
Pd 20.4715 18.5599 39.5562
Co 20.4774 20.4707 37.6465
Pd 18.5686 18.5596 41.4726
Pd 18.5861 20.4643 43.3496
Pd 20.474 18.5772 43.3489
Co 20.4831 20.4749 41.4362
Pd 18.6102 18.5997 45.285
Pd 18.6393 20.5159 47.1488
Pd 20.5271 18.6289 47.148
Co 20.494 20.4844 45.2438
Co 20.6102 20.5992 48.8691
Pd 18.746 22.5326 3.44491
Pd 18.6616 24.3369 5.38186
Pd 20.5518 22.4483 5.36676
Co 20.5675 24.3579 3.5186
Pd 18.6118 22.4008 7.20962
Pd 18.5941 24.3024 9.12367
Pd 20.4984 22.4002 9.1198
Co 20.5362 24.3296 7.25403
Pd 18.5785 22.3844 11.0009
Pd 18.5774 24.3049 12.9046
Pd 20.4817 22.3927 12.9106
Co 20.4907 24.3073 11.0284
Pd 18.5738 22.3895 14.7932
Pd 18.5779 24.3069 16.6967
Pd 20.4834 22.3943 16.7001
Co 20.4828 24.3084 14.8101
Pd 18.5802 22.3937 18.5935
Pd 18.5864 24.3085 20.5001
Pd 20.4904 22.3981 20.5014
Co 20.4878 24.3091 18.6028
Pd 18.5883 22.3968 22.4036
Pd 18.5929 24.3085 24.313
Pd 20.4953 22.3998 24.3129
Co 20.4945 24.3101 22.4081
Pd 18.5918 22.3968 26.2209
Pd 18.5929 24.307 28.1304
Pd 20.4952 22.3983 28.129
Co 20.4971 24.3095 26.2217
Pd 18.5882 22.3938 30.0383
Pd 18.5864 24.304 31.9433
Pd 20.4903 22.3936 31.9405
Co 20.4945 24.3071 30.0353
Pd 18.5801 22.3877 33.8483
Pd 18.5778 24.2994 35.7467
Pd 20.4832 22.3869 35.7419
Co 20.4877 24.3032 33.8406
Pd 18.5736 22.3806 37.6487
Pd 18.5772 24.2944 39.5388
Pd 20.4815 22.3823 39.5314
Co 20.4826 24.2994 37.6333
Pd 18.5783 22.3725 41.441
Pd 18.5938 24.289 43.3197
Pd 20.4982 22.3868 43.3221