4033
Atoms. Timestep: 21314
Co 7.66453 14.0229 23.8914
Pd 5.3627 14.9207 24.2932
Pd 7.00899 16.1019 25.994
Co 6.04781 13.8341 22.0863
Pd 10.404 14.1847 28.2577
Pd 5.98081 17.7288 31.1998
Pd 7.31031 14.0392 28.4539
Co 5.30215 17.4663 24.3887
Co 10.4457 17.8326 28.2313
Pd 5.17596 21.9835 16.3696
Pd 5.00829 16.0888 21.8485
Co 7.83394 26.2459 15.997
Pd 4.42284 21.0885 18.8064
Pd 5.89 20.2231 24.2037
Pd 5.83519 20.9523 21.0866
Co 4.69744 23.2151 20.3959
Pd 5.64518 18.7067 26.56
Pd 6.97269 12.4318 20.1643
Pd 8.42779 20.728 25.4324
Co 4.57581 21.0771 26.2604
Pd 4.32741 21.4291 28.8805
Pd 5.78054 20.5541 31.4164
Pd 7.64086 16.8858 32.9794
Co 7.99446 20.6287 29.9593
Co 5.95953 19.144 33.492
Pd 3.3435 25.305 19.9553
Pd 5.33562 25.428 15.7123
Co 3.78519 26.4243 17.6739
Pd 4.08222 28.0093 15.719
Pd 2.47876 25.7256 24.7732
Pd 4.47629 23.8942 17.8944
Co 8.4644 26.242 18.4459
Pd 5.14321 22.7464 22.9399
Pd 3.03325 25.0648 27.1876
Pd 3.38527 24.6574 22.6267
Co 5.34837 28.3922 21.7989
Pd 3.55765 23.1451 25.1016
Pd 1.57391 27.6019 27.0581
Pd 7.05388 24.7279 28.5907
Co 5.38852 26.053 27.4111
Pd 6.4582 22.5531 29.7131
Pd 5.15669 23.4113 27.2719
Pd 5.24792 21.7266 33.8257
Co 6.49607 24.7815 31.1633
Pd 6.49054 21.2672 36.2372
Pd 7.31068 22.7228 32.2325
Pd 6.38318 23.4948 37.7394
Co 5.43877 24.2357 33.2977
Co 8.35214 25.6342 37.66
Pd 7.57133 30.1708 13.6629
Pd 6.24217 32.0556 15.0901
Pd 4.89111 29.9822 14.0861
Pd 9.72794 26.5709 14.4501
Co 10.6493 29.6929 15.6099
Pd 4.34766 29.1435 18.1085
Pd 6.26091 29.5635 16.2307
Pd 2.93412 27.2923 21.7817
Co 2.18985 29.0464 16.9498
Pd 1.4095 29.4224 21.3017
Pd 1.9356 28.2075 24.3812
Pd 5.16084 25.1284 24.9248
Co 3.78565 29.6215 20.5669
Pd 3.50898 27.0716 28.8978
Pd 4.57179 28.7602 30.7787
Pd 4.42022 24.5885 29.5028
Co 4.44986 27.1724 23.7022
Pd 2.25281 25.5832 30.7027
Pd 6.72221 26.2295 34.0395
Pd 4.559 26.1549 31.7929
Co 5.95857 26.8049 29.7687
Pd 12.1603 32.6891 40.2138
Pd 6.93574 28.073 38.2716
Pd 4.59326 23.6015 35.6268
Co 5.37753 28.0912 35.8508
Pd 4.13111 26.0809 34.7025
Pd 7.85463 27.6174 35.925
Co 6.72648 30.0643 36.402
Pd 3.98687 31.0015 16.4267
Pd 2.76929 31.847 21.5726
Pd 6.24849 29.8014 19.6607
Pd 2.30442 27.8437 19.2462
Co 4.8164 27.3133 19.7672
Pd 2.10653 30.5594 18.9618
Pd 0.955948 30.5366 23.5843
Pd 3.43837 29.8234 23.1132
Co 7.02673 33.5526 22.2783
Pd 3.92618 27.5624 26.1306
Pd 1.97761 28.3171 30.5876
Pd 5.38251 28.8555 28.0503
Co 1.42828 30.0649 26.0758
Pd 2.96615 24.3719 33.0658
Pd 4.92912 31.0234 32.4365
Pd 2.80383 29.6083 32.8445
Co 7.29608 31.2491 31.8514
Pd 2.41511 27.0547 32.9104
Pd 8.87272 33.3178 31.9004
Co 4.70748 30.1698 34.8418
Pd 4.38179 31.7492 19.2467
Pd 4.89592 33.7612 20.7942
Pd 6.29599 35.9859 22.3839
Pd 8.88532 33.6226 24.0868
Co 5.09971 31.7445 24.8555
Pd 2.69691 32.0389 27.1756
Pd 4.53141 33.6348 23.307
Pd 5.24307 31.149 29.8216
Co 3.73972 29.9689 25.7162
Pd 2.91184 29.637 28.2448
Pd 6.70794 35.02 28.0356
Co 6.27964 37.4531 28.739
Pd 4.38741 33.8489 26.0798
Pd 6.50136 34.7783 24.6413
Pd 8.07602 39.0114 23.0777
Co 5.02337 31.3105 27.2809
Co 15.4374 11.5931 31.0941
Pd 10.5009 14.7846 14.5127
Pd 7.70867 11.8734 22.5482
Co 10.7683 14.3362 18.9615
Pd 8.8474 12.0808 27.7093
Pd 9.57246 13.2874 30.5411
Pd 11.5091 11.2228 30.9643
Co 11.2115 11.8527 28.611
Co 13.6058 11.5521 29.4331
Pd 6.28744 14.912 19.6754
Pd 9.766 12.6024 20.595
Co 11.5656 17.3215 15.0223
Pd 8.54833 10.359 20.3408
Pd 8.74305 16.0401 19.0595
Pd 8.35997 14.6275 21.3859
Co 9.34129 18.5932 19.6537
Pd 6.68454 13.2293 26.034
Pd 6.25039 16.6992 28.5699
Pd 12.2412 13.7996 30.2143
Co 7.56912 18.3875 24.8708
Pd 8.71635 16.0762 28.0982
Pd 7.76144 15.4141 30.6977
Pd 11.4326 13.1991 32.6746
Co 10.2593 15.8355 30.2124
Co 9.60581 15.1119 32.5422
Pd 6.14297 19.5706 17.1662
Pd 9.86981 19.7865 15.5627
Co 9.48783 25.4434 12.1368
Pd 9.1034 17.0407 14.7411
Pd 4.82118 18.5594 19.6031
Pd 8.52522 21.2618 20.5368
Co 7.09463 19.453 19.4336
Pd 5.24826 18.6411 22.1886
Pd 7.73702 21.7965 23.0002
Pd 7.30448 16.509 23.1661
Co 7.0207 23.3607 21.0096
Pd 7.02316 17.2573 20.6322
Pd 6.7895 21.1106 27.4941
Pd 8.14119 18.7248 27.4363
Co 10.5846 19.5278 26.0072
Pd 5.95556 19.2739 29.1239
Pd 8.08812 19.278 32.1106
Pd 8.34109 17.841 29.9783
Co 10.1451 19.5097 30.2098
Pd 9.52021 16.7051 34.6964
Pd 7.61096 18.6891 35.2738
Pd 11.4274 16.5801 36.6381
Co 10.0469 17.5229 32.0991
Co 9.65159 18.3378 36.6796
Pd 9.84857 23.5434 10.1737
Pd 10.0194 21.1286 11.0552
Co 10.0834 25.7161 9.10962
Pd 6.51688 23.105 14.3677
Pd 6.19593 27.2613 17.5611
Pd 7.62858 21.3571 15.9063
Co 9.87837 25.0883 16.8121
Pd 7.19643 23.998 16.879
Pd 6.27297 25.1254 19.2378
Pd 6.76494 22.0324 18.6133
Co 8.53618 23.751 19.1468
Pd 5.52258 25.66 21.6777
Pd 7.21852 24.4367 23.2868
Pd 9.7068 23.4081 21.766
Co 8.43115 25.5038 21.1258
Pd 6.50265 22.6692 25.2478
Pd 8.57989 23.0561 27.2405
Pd 11.0432 22.0873 26.0559
Co 9.01704 23.2876 24.7514
Pd 9.0798 23.2907 30.055
Pd 7.80487 21.0192 34.047
Pd 9.61899 21.4146 32.0006
Co 8.44721 25.8113 30.3126
Pd 9.89913 19.2926 34.0726
Pd 8.93038 23.2643 36.9944
Pd 9.34854 20.8731 36.1709
Co 9.40072 23.0662 34.1005
Pd 7.90151 21.3764 38.4753
Pd 8.23548 23.6933 39.6792
Pd 9.82074 19.7345 38.7312
Co 10.5866 23.8913 38.7851
Co 10.009 21.8873 40.0805
Pd 13.1865 31.0272 7.08693
Pd 8.08189 27.6579 12.4918
Pd 12.28 27.705 15.4931
Pd 6.28041 27.6823 14.3991
Co 8.48622 28.5241 15.3551
Pd 7.26212 25.4237 13.5742
Pd 8.51959 31.0102 16.0335
Pd 11.7017 24.9565 14.8336
Co 10.1163 31.964 10.9357
Pd 7.39276 27.5827 20.2735
Pd 7.49671 29.7459 22.0662
Pd 10.7003 27.8143 19.8323
Co 12.935 30.1748 16.4279
Pd 7.1589 27.1709 23.1087
Pd 6.55506 27.4708 25.6061
Pd 9.2865 25.8533 23.9326
Co 9.33099 27.7948 22.0018
Pd 7.64961 25.1708 25.9718
Pd 7.60446 27.4329 28.0336
Pd 9.43121 25.6152 27.9648
Co 9.19215 27.5514 26.0321
Pd 4.4282 22.8647 31.4445
Pd 7.26989 27.5096 31.8381
Pd 8.74376 25.06 32.6298
Co 9.29123 27.8998 29.9617
Pd 7.12711 23.6229 35.0435
Pd 9.21836 29.7354 35.8742
Pd 9.11687 25.4197 35.3349
Co 9.13259 27.5832 33.6773
Pd 6.00891 25.7706 36.6363
Pd 10.6862 26.5314 42.0427
Pd 6.62893 25.7275 39.3602
Co 9.43922 27.9058 37.9261
Pd 8.91306 28.5456 40.3838
Pd 11.9108 31.5135 42.4721
Co 10.4933 30.5953 40.2088
Pd 11.5522 29.5656 11.2367
Pd 10.1356 33.897 12.5613
Pd 6.46124 31.7034 17.6765
Pd 8.64848 33.3652 14.9618
Co 14.2096 33.0607 10.7158
Pd 8.22382 29.0343 17.9164
Pd 5.3471 31.3493 22.0249
Pd 9.09708 29.9554 20.1382
Co 9.06188 31.8121 18.3804
Pd 7.35297 31.6057 23.9583
Pd 9.04574 31.5677 26.0944
Pd 8.83101 29.3471 24.2658
Co 9.02422 31.8632 22.0062
Pd 5.75261 29.3941 24.0849
Pd 6.9839 29.9714 26.253
Pd 9.07923 29.5889 27.9779
Co 7.28068 31.3485 28.3143
Pd 2.81437 30.8887 30.5428
Pd 7.20651 29.4057 33.8801
Pd 7.19716 29.3873 30.02
Co 9.02458 31.3826 30.0266
Pd 4.96492 28.2205 33.303
Pd 10.1035 34.2224 36.3757
Pd 8.51185 30.2926 38.4003
Co 9.06964 29.5215 31.9087
Pd 8.30317 32.1836 36.4313
Pd 10.2427 32.3566 38.325
Co 11.898 37.0806 38.3299
Pd 9.11307 35.7381 16.122
Pd 7.9217 33.9194 17.6254
Pd 7.10991 32.1968 20.1621
Pd 9.16734 33.7409 20.1391
Co 8.94805 36.1597 18.6942
Pd 6.98538 35.0677 19.9813
Pd 6.84609 32.9343 26.4147
Pd 10.7436 31.617 24.0617
Co 8.81393 35.2952 22.1179
Pd 4.69551 33.4233 28.6585
Pd 8.65353 37.0788 28.0521
Pd 7.00488 33.1531 30.0134
Co 8.86564 33.2826 28.1425
Pd 8.73082 35.2273 29.9431
Pd 7.98454 37.7212 30.5923
Pd 8.98392 31.4568 33.8354
Co 10.2855 40.7299 26.3072
Pd 6.46097 31.9367 34.4577
Pd 8.16754 33.9932 34.4307
Co 6.37988 33.5579 32.4414
Pd 10.0547 38.6399 19.8839
Pd 8.04862 37.357 20.9016
Pd 2.69635 32.119 24.5267
Pd 10.6848 35.3125 28.0827
Co 10.2161 40.1665 22.1316
Pd 6.64314 36.9529 26.2282
Pd 8.95407 41.1729 24.2679
Pd 8.41673 38.9382 25.9965
Co 10.3856 38.9878 24.3709
Pd 6.15987 35.594 30.59
Pd 7.94648 39.5644 28.5805
Co 10.5452 37.2076 29.9748
Pd 8.68801 35.094 26.2604
Pd 8.07469 40.1032 20.7261
Pd 9.8909 41.6075 28.6321
Co 14.1636 41.0817 29.8683
Co 12.2193 12.447 19.3436
Pd 10.3762 13.2766 16.5888
Pd 13.5861 7.545 23.8048
Co 12.4432 9.58688 22.4868
Pd 10.1691 11.3282 18.3344
Pd 10.4919 10.1362 26.6279
Pd 11.8305 9.43597 28.921
Co 11.0432 12.6579 26.2779
Co 15.657 9.96663 29.2392
Pd 8.00942 15.3682 16.5603
Pd 11.1916 9.96754 20.3513
Co 12.6397 14.1937 17.365
Pd 8.42789 13.5001 18.3823
Pd 9.97275 13.0503 23.2552
Pd 9.84861 10.3242 22.6678
Co 11.773 11.9018 21.8403
Pd 11.1457 8.69016 24.4122
Pd 13.0287 10.8514 27.0604
Pd 17.4084 11.9261 29.3657
Co 13.6827 9.84462 24.775
Pd 15.6694 7.83453 30.8208
Pd 13.6402 9.51667 30.8833
Pd 17.3419 7.73728 32.8909
Co 17.402 9.82302 31.0776
Co 15.5845 13.1899 36.3997
Pd 7.47519 19.0583 14.7697
Pd 9.04587 21.3672 13.6225
Co 12.5685 18.3043 13.01
Pd 10.8739 16.5309 12.6178
Pd 10.5408 15.9457 16.9223
Pd 13.5879 13.4629 21.2602
Co 11.062 18.5013 17.3725
Pd 11.2486 14.9263 21.4138
Pd 9.71465 15.5577 23.7372
Pd 11.9826 16.7056 23.8369
Co 13.141 15.2835 19.5187
Pd 9.05117 14.2771 26.0016
Pd 9.67604 17.033 25.8877
Pd 15.1314 13.6063 29.4644
Co 14.2463 17.8769 23.4761
Pd 13.1186 13.5784 27.7441
Pd 11.9325 17.7351 30.2692
Pd 14.1974 13.902 32.0554
Co 12.1694 15.9735 28.3735
Pd 13.4978 11.4309 32.7091
Pd 13.5246 13.2592 34.5784
Pd 11.4911 14.956 34.5912
Co 13.9412 15.8231 34.0086
Co 13.7664 16.6269 38.4026
Pd 12.662 16.4241 10.731
Pd 15.715 22.2761 10.4518
Co 13.9097 25.2612 7.42586
Pd 11.3567 22.1364 14.9813
Pd 8.52069 17.998 17.1562
Pd 12.424 19.6348 15.2406
Co 12.2008 22.5911 10.5496
Pd 6.32536 17.0195 18.0617
Pd 7.81413 19.2336 22.2437
Pd 11.8239 19.6866 19.5732
Co 11.5983 20.9092 17.3422
Pd 9.55333 17.0545 21.5747
Pd 10.302 21.3088 23.59
Pd 12.2788 19.5111 23.7592
Co 10.3286 19.7915 21.582
Pd 9.84645 18.5182 23.758
Pd 13.5169 19.9453 30.2419
Pd 12.322 17.6993 26.2668
Co 13.1201 20.2807 26.028
Pd 11.9699 19.7521 28.1946
Pd 11.7223 19.672 32.1731
Pd 13.7758 17.854 32.1472
Co 13.1643 21.9291 32.0616
Pd 12.0716 15.7415 32.121
Pd 11.9585 17.6134 34.0912
Pd 13.6699 17.8382 36.102
Co 13.4378 19.8797 34.0368
Pd 11.9256 18.3303 38.4636
Pd 11.7428 19.6212 36.0521
Pd 13.9045 20.3835 42.4695
Co 13.5329 20.1339 37.9507
Co 12.2017 22.2697 42.4066
Pd 15.1595 26.8196 9.06722
Pd 13.4173 18.5612 8.86008
Co 14.0238 22.5168 8.61882
Pd 11.921 20.8137 12.7457
Pd 11.7713 25.2464 11.0305
Pd 8.16619 23.2818 12.1591
Co 13.6935 20.6059 10.7254
Pd 9.10267 23.8961 14.6513
Pd 9.51361 22.641 16.9682
Pd 11.9277 23.404 17.2118
Co 13.7353 23.5015 14.6797
Pd 9.02905 20.4032 18.0389
Pd 10.5235 25.1379 19.4243
Pd 13.764 21.6214 19.2716
Co 12.5447 23.7651 19.7631
Pd 10.6612 22.2012 19.385
Pd 11.2343 23.9531 23.9185
Pd 12.0728 21.7881 21.5854
Co 13.0053 24.2039 22.1052
Pd 12.9858 22.1031 24.1263
Pd 11.0845 23.6696 28.1797
Pd 13.0982 22.0979 27.9777
Co 12.9509 23.971 26.0623
Pd 9.64019 20.8914 28.0879
Pd 11.125 23.6551 32.0169
Pd 11.4467 21.7486 30.0846
Co 12.9859 23.8772 30.0557
Pd 11.4151 21.6027 34.0178
Pd 11.2163 23.7103 35.7893
Pd 13.2102 21.8845 35.8583
Co 13.0258 23.818 33.8586
Pd 11.3878 21.6563 37.8423
Pd 12.5833 22.8823 40.0209
Pd 14.579 21.2091 40.0757
Co 14.9763 23.9522 39.4829
Pd 12.0054 20.3474 40.3362
Pd 10.5662 24.0309 41.3372
Pd 12.7812 24.8774 42.7097
Co 14.4261 23.162 41.7874
Co 14.14 28.1783 45.6851
Pd 18.0477 33.374 4.21801
Pd 15.0688 23.2954 6.3056
Pd 12.3882 26.6918 8.8633
Pd 11.9608 24.0126 8.5034
Co 16.6961 25.4323 10.3843
Pd 14.5809 20.5216 7.14647
Pd 12.2691 31.9905 12.1583
Pd 13.6642 27.4467 11.1329
Co 10.0296 28.9269 13.3945
Pd 10.2326 27.5711 17.1172
Pd 12.78 32.2001 14.7247
Pd 10.9466 23.3466 12.6903
Co 14.8437 30.2658 14.6729
Pd 12.2974 25.8976 17.5343
Pd 10.9454 30.0066 18.1407
Pd 12.9187 26.2675 20.161
Co 12.8551 28.2535 18.197
Pd 11.0447 25.8971 21.9579
Pd 11.0122 27.8221 24.068
Pd 12.8929 26.0065 24.0549
Co 12.7703 27.9771 22.1279
Pd 11.0491 25.6937 25.9722
Pd 11.0121 27.7123 27.9968
Pd 12.8019 25.7809 28.0621
Co 12.8127 27.7913 26.0575
Pd 10.9843 25.6425 30.1173
Pd 10.9392 27.636 31.8887
Pd 12.9346 25.7964 31.8996
Co 12.8065 27.7146 29.9615
Pd 11.1211 25.6902 33.7656
Pd 10.8933 27.6869 35.6713
Pd 12.926 25.8557 35.7018
Co 12.8566 27.7447 33.8045
Pd 11.021 25.9395 37.5776
Pd 11.3922 27.9301 39.6971
Pd 13.0342 23.929 37.6735
Co 12.8833 27.7942 37.6115
Pd 9.42596 26.0388 39.8404
Pd 12.332 27.4049 43.9788
Pd 12.5825 25.5332 39.8423
Co 13.0283 27.3322 41.5666
Pd 11.144 29.0816 42.1689
Pd 24.3874 26.7775 50.5382
Co 15.8317 29.4438 46.9303
Pd 12.2415 31.5026 9.51969
Pd 10.1123 31.4544 13.6768
Pd 8.89805 29.9051 11.4015
Pd 14.1273 30.1326 11.582
Co 15.9959 29.133 10.2166
Pd 13.8616 35.454 10.2688
Pd 11.0844 34.3346 14.901
Pd 13.3512 29.0794 9.07421
Co 15.2045 34.7939 12.5317
Pd 10.8467 32.1476 16.4847
Pd 10.991 31.8418 20.1575
Pd 12.7199 29.8423 20.2432
Co 12.8154 31.9438 18.3137
Pd 10.8317 29.8234 22.1472
Pd 12.6661 33.5666 24.1729
Pd 12.7617 29.8327 24.1032
Co 12.7272 31.7466 22.1992
Pd 10.9311 29.6419 26.0344
Pd 10.8676 31.5733 28.0459
Pd 12.7815 29.7131 27.9899
Co 12.7018 31.6445 26.0649
Pd 11.0002 29.6726 29.9722
Pd 10.8755 31.5077 31.9001
Pd 12.7994 29.6405 31.8926
Co 12.7587 31.6093 29.9529
Pd 10.9287 29.5901 33.7909
Pd 10.9411 31.6689 35.7701
Pd 12.796 29.6877 35.7128
Co 12.7497 31.6073 33.8025
Pd 11.1535 29.7892 37.8244
Pd 12.0509 34.4256 38.2018
Pd 12.8451 31.807 37.7391
Co 14.7417 33.6328 37.5171
Pd 14.4799 31.8947 41.9463
Pd 12.4559 29.9527 44.6317
Co 16.0423 32.2946 43.9811
Pd 11.7248 33.9428 10.3593
Pd 11.2803 36.7332 13.679
Pd 11.5596 36.4577 16.4098
Pd 12.956 34.0192 16.664
Co 13.1924 38.5913 13.9363
Pd 10.6552 34.2682 18.0235
Pd 10.7787 35.8167 20.3526
Pd 12.7054 33.806 20.2549
Co 14.6296 37.7574 18.8868
Pd 10.8861 33.6532 22.185
Pd 10.7307 35.4537 24.1285
Pd 14.5262 35.5404 24.2487
Co 12.6697 35.5821 22.3007
Pd 10.8168 33.5042 26.0951
Pd 10.6466 35.3641 31.8556
Pd 12.6695 33.5255 28.0295
Co 12.5907 35.4296 26.1136
Pd 10.7733 33.3997 29.9636
Pd 8.00763 35.8025 32.5092
Pd 12.6483 33.5178 31.8687
Co 12.545 35.4383 29.9466
Pd 10.8 33.4953 33.8307
Pd 12.413 37.3056 31.8405
Pd 12.7253 33.6015 35.7039
Co 12.5567 35.4535 33.7542
Pd 10.0242 36.0081 34.418
Pd 14.1904 34.3201 40.0018
Co 12.0287 36.0519 36.1447
Pd 13.7986 38.228 16.3329
Pd 11.9923 38.2642 18.2378
Pd 8.39436 36.7497 24.1892
Pd 12.6477 37.6075 20.6798
Co 10.0318 41.4411 19.8338
Pd 10.3877 37.4884 22.3508
Pd 11.7121 41.1101 24.2345
Pd 12.4996 37.3503 24.274
Co 12.4053 39.2291 22.6405
Pd 10.5089 37.1777 26.1101
Pd 10.4075 43.4505 23.9147
Pd 12.4631 37.2736 27.9988
Co 12.3048 39.2496 26.1081
Pd 12.3449 39.1923 29.9207
Pd 11.7319 41.6646 30.6065
Pd 14.3296 37.4185 33.7344
Co 12.2836 41.0366 28.0146
Pd 9.84538 37.8524 32.4932
Pd 11.8328 37.9679 34.4598
Co 13.7387 39.8436 34.4498
Pd 9.5354 38.178 17.3185
Pd 12.5337 42.525 19.1671
Pd 11.6053 42.4579 21.776
Pd 13.8643 41.3718 22.7397
Co 16.0092 41.7617 21.5904
Pd 8.95519 42.33 21.9364
Pd 13.7375 43.456 30.736
Pd 11.5961 42.8989 26.3119
Co 12.9947 43.3204 24.1273
Pd 9.79042 39.7226 30.5821
Pd 10.4769 39.0273 28.0682
Co 14.1118 42.7459 28.1264
Pd 14.0488 43.5269 21.1896
Pd 11.8511 43.5701 28.7905
Pd 15.9911 47.1424 29.0195
Co 16.2156 45.0368 27.6599
Pd 15.7047 7.12209 22.0641
Pd 14.0623 8.0436 28.6634
Co 17.6146 8.0055 29.26
Pd 18.2814 5.38831 28.1199
Pd 15.8492 6.17037 28.6393
Pd 23.8632 2.15609 25.7029
Co 17.0704 7.48566 26.8593
Co 28.7992 5.13551 27.9846
Pd 13.635 8.25143 20.5291
Pd 14.9251 9.51338 22.5539
Co 12.8335 9.82755 18.552
Pd 17.9784 7.7525 20.7745
Pd 11.6213 11.2634 24.3971
Pd 12.5929 8.28303 26.4943
Co 13.8009 11.674 23.1218
Pd 8.79955 11.6514 25.0749
Pd 17.6274 9.86307 27.5204
Pd 19.3714 7.98265 31.2415
Co 15.4724 11.9318 27.4803
Pd 20.9572 5.57393 34.6488
Pd 19.1589 9.76425 33.1692
Pd 19.1144 7.64896 34.9254
Co 19.2489 5.98922 32.8578
Co 22.9847 7.25756 38.2677
Pd 12.4235 14.3526 12.6521
Pd 14.787 8.38905 17.8986
Co 14.3071 10.9632 15.1819
Pd 12.5345 11.67 16.9524
Pd 15.0158 11.0117 17.7511
Pd 13.9924 10.9991 20.4934
Co 12.3559 12.8663 14.8031
Pd 12.3821 13.9893 23.6366
Pd 15.9821 11.1638 24.7963
Pd 16.1251 13.8753 25.6553
Co 15.0155 13.7529 23.4546
Pd 15.2034 9.37426 26.738
Pd 13.7709 12.7071 25.439
Pd 19.4537 9.95828 29.4816
Co 17.1076 14.186 27.9278
Pd 19.3314 11.9748 31.3317
Pd 17.1863 9.64781 34.8679
Pd 19.6053 10.0152 36.0902
Co 18.5655 14.079 33.296
Pd 17.2537 10.7619 37.2342
Pd 13.4433 14.9038 36.5503
Pd 17.5582 13.1061 38.2279
Co 17.6247 12.2171 35.3193
Co 15.3472 11.4788 34.6582
Pd 16.8814 15.7072 7.80271
Pd 17.343 14.5949 10.1806
Co 21.6518 14.2041 11.8968
Pd 14.717 14.4031 11.3306
Pd 14.3121 17.7043 15.265
Pd 13.0653 15.2589 15.0959
Co 13.914 16.3815 12.9121
Pd 13.0141 16.8259 17.3682
Pd 11.2274 16.8933 19.382
Pd 15.2559 15.5262 17.0119
Co 15.8574 17.9636 17.6533
Pd 12.1083 17.9013 21.6159
Pd 14.1589 15.7087 25.0306
Pd 17.7978 13.8683 23.3819
Co 16.1448 15.9527 23.4298
Pd 11.6675 15.0921 25.9784
Pd 14.9132 15.6122 27.5638
Pd 16.6614 16.0242 29.6638
Co 16.7429 16.4133 25.8864
Pd 16.9105 13.8569 31.3789
Pd 14.0185 15.9307 30.2314
Pd 17.8504 14.5822 36.0228
Co 15.5311 18.2176 30.2729
Pd 17.2308 11.6997 32.9136
Pd 16.0374 14.0529 34.0019
Pd 15.4775 9.63831 32.8205
Co 15.7525 16.1059 32.1914
Pd 13.9869 18.6356 40.2205
Pd 15.9331 18.6333 42.2864
Pd 15.8541 16.8477 40.0771
Co 18.4231 17.5548 39.7898
Co 15.9236 20.0931 44.2778
Pd 20.9508 18.4333 5.43579
Pd 19.441 15.7262 11.5584
Co 15.8819 24.3029 8.45231
Pd 14.9419 16.2898 9.43961
Pd 11.6329 18.9717 10.7681
Pd 14.5177 18.2391 11.2624
Co 15.5608 19.8186 9.32159
Pd 10.0089 18.9642 13.0472
Pd 13.8932 21.6244 16.1646
Pd 15.8849 19.8479 15.7779
Co 16.1146 18.0781 13.5827
Pd 13.7664 19.4286 17.6072
Pd 15.8457 19.7952 19.5414
Pd 15.9225 17.8918 21.5368
Co 17.8251 19.8046 17.6865
Pd 13.969 19.8266 21.5184
Pd 14.9051 20.2997 24.0602
Pd 16.7416 18.4131 24.0586
Co 16.6526 20.3818 22.1061
Pd 14.8693 18.2869 25.928
Pd 14.9926 20.2324 27.9754
Pd 16.6266 18.173 27.8851
Co 16.7252 20.2881 26.0093
Pd 13.8801 17.8835 28.4068
Pd 15.2349 20.1254 32.1423
Pd 17.1967 18.3198 32.1318
Co 16.8142 20.3047 29.9726
Pd 15.4224 18.0798 34.0925
Pd 15.2306 20.1124 35.8674
Pd 15.6511 16.0745 35.9397
Co 17.0757 20.2829 33.9605
Pd 15.5019 18.4122 37.9293
Pd 16.6726 19.5339 40.0261
Pd 17.5579 16.5665 42.0657
Co 17.2163 20.3331 37.6657
Pd 14.2596 22.3668 44.2318
Pd 15.4066 23.8263 46.3081
Pd 15.4506 21.2018 46.4275
Co 18.5564 18.9751 41.7015
Co 19.8048 20.9811 47.7065
Pd 23.0681 19.8149 4.68581
Pd 18.0858 20.2992 9.77693
Co 16.4942 21.943 8.10934
Pd 17.1867 24.0562 4.39136
Pd 16.2887 20.0327 11.7712
Pd 17.2106 17.7163 9.4786
Co 15.505 17.9319 7.55044
Pd 13.8202 22.6121 12.3876
Pd 13.7866 25.3581 12.9042
Pd 14.3357 20.0073 13.4956
Co 18.1208 25.6505 12.2363
Pd 16.0656 23.8098 15.7728
Pd 14.3343 23.8626 17.7057
Pd 17.925 21.7783 15.8337
Co 16.2048 25.8881 14.0032
Pd 16.0306 21.7577 17.7119
Pd 14.9128 24.2817 20.2597
Pd 16.6352 22.3156 20.2471
Co 16.768 24.3255 18.3882
Pd 14.7595 22.2872 22.0656
Pd 14.7794 24.132 24.0841
Pd 16.6843 22.2783 24.0469
Co 16.6784 24.2306 22.2015
Pd 14.9203 22.2094 26.0293
Pd 14.8348 24.0666 28.0213
Pd 16.7379 22.2321 28.0079
Co 16.676 24.1648 26.0386
Pd 14.9322 22.1411 30.0223
Pd 14.857 23.9604 31.9473
Pd 16.8578 22.2042 31.9291
Co 16.7263 24.1014 29.952
Pd 15.0175 22.0674 33.9052
Pd 14.9312 24.0178 35.7448
Pd 16.9613 22.2029 35.7718
Co 16.8052 24.0847 33.8339
Pd 15.1144 22.1159 37.6788
Pd 14.9238 25.7201 41.3665
Pd 16.994 22.183 39.5161
Co 16.831 24.1014 37.6496
Pd 16.3137 21.5543 42.1513
Pd 15.7402 24.4738 43.6533
Pd 18.3779 20.7045 43.431
Co 16.8154 24.0266 41.2748
Pd 17.593 22.4669 47.3348
Pd 13.7851 25.5215 45.1067
Pd 17.8389 24.4595 45.6448
Co 16.8385 22.3307 44.6619
Co 18.7632 25.2724 47.8157
Pd 17.2461 19.6736 7.34799
Pd 23.2241 29.111 4.98002
Pd 14.2907 27.9599 6.85366
Co 27.2133 26.9258 3.85227
Pd 16.3441 28.4454 5.08472
Pd 14.8464 31.1492 9.09682
Pd 18.0444 27.5791 10.1619
Co 16.9946 31.0772 4.54132
Pd 12.4563 29.763 13.7491
Pd 11.7627 27.1401 12.9216
Pd 14.3923 27.911 13.69
Co 16.1539 27.2901 11.9557
Pd 14.1895 25.8012 15.6173
Pd 14.7973 28.2824 16.4101
Pd 16.7216 26.3079 16.5276
Co 16.7565 28.2021 14.664
Pd 14.8434 26.3583 18.3275
Pd 14.7781 28.138 20.2836
Pd 16.6921 26.2364 20.3013
Co 16.6974 28.2202 18.4115
Pd 14.7798 26.1569 22.1685
Pd 14.6913 27.968 24.1286
Pd 16.6193 26.0972 24.142
Co 16.6304 28.0722 22.2479
Pd 14.7131 25.9732 26.0672
Pd 14.6559 27.8181 28.0106
Pd 16.6392 26.0277 27.9918
Co 16.5718 27.9447 26.0778
Pd 14.7677 25.9031 29.9546
Pd 14.7274 27.8037 31.8714
Pd 16.6741 25.9639 31.8697
Co 16.5917 27.8816 29.9237
Pd 14.8167 25.9003 33.8169
Pd 14.7431 27.8267 35.7228
Pd 16.6984 25.9882 35.7657
Co 16.6198 27.8709 33.78
Pd 14.7375 25.9537 37.753
Pd 14.6174 27.8878 39.6471
Pd 16.7194 25.9692 39.4611
Co 16.5693 27.9186 37.6484
Pd 16.7021 27.8688 41.4822
Pd 13.8571 29.4347 42.4991
Pd 17.0005 28.7398 44.8208
Co 16.2924 30.0363 42.6397
Pd 15.008 27.2917 43.5074
Pd 16.1362 26.5079 46.0215
Pd 17.5239 26.4001 43.6308
Co 14.9721 30.2555 44.7163
Pd 19.2284 29.4183 46.2054
Co 21.7559 21.2163 46.3238
Pd 19.6445 31.4557 5.12823
Pd 20.6953 33.7253 4.15536
Pd 16.9787 34.7803 6.11531
Pd 16.228 33.2118 8.44772
Co 20.4832 35.85 7.24967
Pd 10.1695 27.4995 10.7947
Pd 16.4706 31.9103 11.0172
Pd 16.5304 29.9133 12.7835
Co 16.3674 34.8127 10.3044
Pd 14.8263 32.2639 13.033
Pd 14.8142 32.035 16.5289
Pd 16.7189 30.1604 16.5085
Co 14.7592 34.0251 14.8341
Pd 14.736 30.0835 18.3797
Pd 14.63 31.8614 20.3436
Pd 16.6324 30.0439 20.3608
Co 16.6878 31.9449 18.4988
Pd 14.6701 29.9228 22.2237
Pd 14.6325 31.7568 24.1722
Pd 16.5653 29.9058 24.1777
Co 16.5623 31.8665 22.2948
Pd 14.641 29.7937 26.0741
Pd 14.6086 31.6717 28.0113
Pd 16.5289 29.7995 28.006
Co 16.5133 31.75 26.1132
Pd 14.642 29.7182 29.9312
Pd 14.6026 31.6449 31.8454
Pd 16.5456 29.7817 31.8347
Co 16.4862 31.7036 29.9184
Pd 14.6704 29.7385 33.7848
Pd 14.6653 31.6968 35.7054
Pd 16.532 29.8022 35.6684
Co 16.4926 31.7094 33.72
Pd 14.6742 29.7697 37.6959
Pd 14.8898 31.8578 39.4205
Pd 16.5576 29.8906 39.6586
Co 16.6301 31.8228 37.5536
Pd 13.0013 30.0478 40.0525
Pd 16.8873 33.9787 45.9514
Pd 15.8349 34.2496 41.9653
Co 13.0994 34.0168 42.3413
Pd 15.084 32.066 46.5219
Pd 17.7122 30.2105 48.4437
Co 17.301 32.6669 48.0553
Pd 14.891 37.7804 9.97744
Pd 13.6074 33.5328 8.26744
Pd 14.9688 39.1524 12.2185
Pd 16.5359 36.8235 11.8571
Co 13.7762 36.8494 12.3531
Pd 12.7692 34.4619 12.8028
Pd 12.8876 35.8359 18.5788
Pd 14.9557 35.8856 16.7198
Co 13.3964 36.031 14.7163
Pd 14.8017 33.837 18.5392
Pd 14.711 35.7276 20.4786
Pd 16.6159 33.7889 20.432
Co 16.6494 35.9097 18.6305
Pd 14.5755 33.6956 22.2676
Pd 16.5575 35.6828 22.3868
Pd 16.5061 33.6922 24.2409
Co 16.5571 37.625 20.5386
Pd 14.5596 33.6018 26.1101
Pd 14.4915 35.4884 28.0251
Pd 16.4525 33.6384 28.0177
Co 16.4322 35.5833 26.1401
Pd 14.5357 33.5799 29.9326
Pd 14.4501 35.499 31.8265
Pd 16.4277 33.6326 31.7972
Co 16.3704 35.5382 29.9003
Pd 14.5733 33.5692 33.741
Pd 14.5288 35.5256 35.5716
Pd 16.5026 33.6775 35.6403
Co 16.3723 35.5795 33.6736
Pd 14.1282 36.0514 38.0754
Pd 16.7444 33.8182 39.3628
Pd 18.3959 35.0538 41.4274
Co 16.5179 35.6197 37.4397
Pd 13.5199 32.416 44.3887
Pd 14.942 34.6664 44.2952
Co 12.2768 35.773 40.4116
Pd 18.7207 41.4298 9.60001
Pd 15.6813 39.8337 14.6981
Pd 13.3313 40.7506 15.6556
Pd 16.3124 38.1535 17.045
Co 17.4235 38.8813 13.0113
Pd 13.7432 40.2 18.2453
Pd 14.5371 39.6396 20.8607
Pd 16.3994 39.7709 19.1416
Co 15.7323 40.8041 16.9337
Pd 14.5863 37.5284 22.4381
Pd 14.3432 39.3467 24.3674
Pd 16.4452 37.5714 24.337
Co 16.5366 39.3883 22.3874
Pd 14.4241 37.3934 26.1482
Pd 14.2491 39.383 27.8928
Pd 16.3109 37.4985 28.0242
Co 16.3106 39.4134 26.168
Pd 14.3798 37.4011 29.8885
Pd 14.2276 39.347 31.8108
Pd 16.2641 37.4461 31.7541
Co 16.1437 39.3863 29.9225
Pd 16.1625 39.4363 33.6027
Pd 13.6792 38.1091 36.4621
Pd 16.2423 37.5242 35.5547
Co 15.5991 39.8958 36.2476
Pd 11.6854 39.82 32.5708
Pd 13.8201 37.8127 39.8947
Co 15.7553 38.0721 38.1302
Pd 16.292 42.3948 15.0109
Pd 14.2409 42.7876 17.1171
Pd 11.1669 40.6584 17.6549
Pd 16.2689 41.1534 24.2372
Co 15.1142 42.0012 19.3534
Pd 12.1152 40.2429 20.3334
Pd 15.4127 43.5586 23.5475
Pd 17.4972 43.9063 21.7834
Co 15.9895 44.2446 19.7536
Pd 13.9176 41.4489 25.9016
Pd 13.9164 44.3569 26.2606
Pd 16.123 42.9807 26.1637
Co 16.2159 45.3305 25.1701
Pd 16.1322 41.1827 28.0364
Pd 13.4781 41.7568 32.7473
Pd 15.8882 41.4546 31.6898
Co 15.9833 43.2728 29.5762
Pd 15.6292 41.8121 34.5606
Pd 17.5856 42.0645 36.3481
Co 17.637 43.7332 34.308
Pd 17.3422 46.426 20.547
Pd 11.3036 38.931 15.5418
Pd 19.8096 46.7664 18.928
Pd 15.9391 47.5927 24.2596
Co 14.0326 45.8303 24.2046
Pd 11.7697 45.3449 25.1648
Pd 19.2555 48.1998 21.0784
Pd 18.096 43.2339 27.9554
Co 14.724 46.7368 26.5522
Pd 15.5211 45.4504 30.9458
Pd 15.2436 43.7992 32.9875
Co 21.9776 49.5973 27.181
Pd 21.4767 49.4872 21.9585
Pd 19.4778 49.1483 27.3257
Pd 18.5986 48.31 24.744
Pd 17.4874 5.23369 21.3735
Pd 25.8168 4.13606 25.6922
Co 18.5108 6.01082 18.9966
Pd 16.2126 8.25658 24.536
Pd 19.2766 4.55605 23.341
Pd 25.4777 2.33252 27.757
Co 16.6078 5.04712 26.3347
Pd 21.7658 2.91904 23.5949
Pd 18.9966 3.74728 26.0625
Pd 19.4776 4.04459 31.2055
Co 21.0826 4.92111 25.0685
Pd 14.7203 6.74924 26.1537
Pd 17.6125 5.94805 30.7816
Pd 25.0875 4.71176 35.7152
Co 21.9639 4.1516 30.1518
Co 26.1244 4.74011 33.412
Pd 15.9296 6.6388 19.5114
Pd 21.2137 8.0487 15.0891
Co 20.2414 7.96221 19.5174
Pd 17.4915 8.1827 17.9926
Pd 16.0035 9.37927 20.0408
Pd 17.4877 9.6073 22.5959
Co 16.5559 11.8791 19.6887
Pd 16.8326 5.7267 23.9578
Pd 18.5667 11.416 24.158
Pd 20.8796 7.69833 25.0534
Co 16.0451 11.7676 22.2144
Pd 18.8321 6.25087 25.5814
Pd 19.6365 7.81839 27.6709
Pd 21.1403 5.59775 27.3773
Co 18.5518 8.99811 25.2077
Pd 20.1224 6.02821 29.7003
Pd 21.6737 7.83258 35.9936
Pd 21.5801 6.09397 31.7879
Co 21.4635 8.16514 29.7015
Pd 21.5679 3.71599 32.7755
Pd 22.7483 8.71466 40.4026
Pd 24.6486 6.86211 40.3775
Co 22.8057 5.52797 36.53
Co 25.0369 9.26655 41.2377
Pd 16.1617 9.35873 15.792
Pd 21.0602 9.77807 13.088
Co 16.7528 11.8738 15.1145
Pd 17.5909 10.7117 17.3997
Pd 14.7225 13.2162 16.1017
Pd 19.2955 12.2625 16.0656
Co 16.8915 13.1008 17.5098
Pd 14.7109 13.445 18.8381
Pd 16.0982 14.086 21.2802
Pd 18.5468 10.023 19.7317
Co 19.0681 12.2474 18.7364
Pd 18.3904 12.0832 21.4103
Pd 18.0159 12.1775 26.6127
Pd 20.9685 10.2093 24.215
Co 20.53 12.3559 22.8516
Pd 20.2349 10.1981 26.7696
Pd 18.9349 14.2102 29.6714
Pd 22.0256 10.435 28.806
Co 19.9352 12.2125 28.3948
Pd 21.2961 9.97315 31.5145
Pd 19.8414 12.0679 34.1436
Pd 21.2024 7.98392 33.3794
Co 21.6474 12.413 30.197
Pd 21.2565 9.30599 38.3636
Pd 19.7413 12.6848 36.7751
Pd 23.7203 10.8957 39.3289
Co 22.3428 12.7878 35.1721
Pd 21.1581 11.0023 40.6117
Pd 15.5194 14.7915 38.3541
Pd 23.2696 10.8617 42.0993
Co 19.4389 11.0555 38.6172
Co 19.2886 15.5608 43.5482
Pd 18.5607 17.5227 6.94164
Pd 19.0456 12.9841 11.5227
Co 23.5806 17.9697 10.3058
Pd 17.678 14.3398 15.5774
Pd 21.5457 16.0338 13.8195
Pd 14.6069 12.9779 13.5451
Co 19.1713 15.8919 8.91785
Pd 17.0423 13.728 12.9218
Pd 15.6175 15.4231 14.3739
Pd 17.8659 14.2747 19.4959
Co 19.7823 16.1267 15.7535
Pd 15.7641 16.0123 19.5501
Pd 13.9038 17.808 19.6962
Pd 17.9111 16.0544 21.4884
Co 19.8094 16.1352 19.5773
Pd 13.9778 15.9114 21.9543
Pd 18.6381 16.5242 24.0135
Pd 20.5206 14.6673 23.9474
Co 20.4929 16.6391 22.1017
Pd 18.6809 14.6209 25.8533
Pd 18.6122 16.3865 27.8441
Pd 20.5731 14.6239 27.7113
Co 20.5252 16.5765 25.9056
Pd 18.5513 16.1302 31.5133
Pd 20.4026 16.4389 33.3964
Pd 20.6094 14.3667 31.6667
Co 20.4691 16.4671 29.7232
Pd 20.3943 14.4798 35.0512
Pd 17.5947 16.3745 34.0215
Pd 19.4886 16.7476 35.9658
Co 22.241 16.5289 35.3399
Pd 17.4324 16.5501 37.8106
Pd 17.97 18.1688 44.1198
Pd 19.5571 15.0323 38.1933
Co 17.6276 15.0313 39.9598
Pd 19.4394 13.1839 40.1503
Pd 20.0079 17.2252 45.4964
Pd 22.1789 16.4337 46.7656
Co 19.2184 18.6099 37.7243
Co 22.6699 22.4913 41.576
Pd 18.9177 19.9801 5.35844
Pd 19.0882 21.8086 7.50472
Co 21.6328 23.5318 6.25508
Pd 23.4913 16.5958 8.21998
Pd 21.9615 21.8348 8.13293
Pd 21.0458 17.1378 7.64225
Co 25.3313 20.9283 4.48236
Pd 18.0581 16.188 13.7555
Pd 16.3286 16.325 11.7654
Pd 19.8281 18.0708 14.0109
Co 19.7643 18.0902 9.91159
Pd 17.6788 17.9267 15.7309
Pd 19.7472 17.956 17.6566
Pd 17.7576 16.1031 17.5948
Co 21.6882 17.9306 15.8291
Pd 17.7939 17.9143 19.5325
Pd 18.5355 20.4161 20.213
Pd 20.4518 18.5544 20.2518
Co 20.457 20.4559 18.3858
Pd 18.5868 18.5529 22.1235
Pd 18.5682 20.3822 24.0882
Pd 20.477 18.5032 24.056
Co 20.4746 20.438 22.1792
Pd 18.5826 18.4016 25.9947
Pd 18.5282 20.2848 27.9363
Pd 20.4448 18.426 27.8885
Co 20.4443 20.3672 26.0002
Pd 18.4776 18.3102 29.7909
Pd 18.7931 20.3947 31.8494
Pd 20.4102 18.3754 31.5505
Co 20.4507 20.3525 29.7751
Pd 19.1542 18.648 33.9267
Pd 19.0248 20.4319 35.8318
Pd 21.148 18.8185 35.8578
Co 20.8375 20.5843 33.814
Pd 17.3123 18.3899 35.8978
Pd 19.1967 20.2758 39.5723
Pd 23.091 19.0009 37.8422
Co 20.9757 20.5363 37.7457
Pd 20.4429 17.711 42.8299
Pd 20.4126 19.7354 44.6848
Pd 22.4473 17.9684 44.5695
Co 20.7643 20.2746 41.8836
Pd 17.9043 20.0478 46.0571
Pd 21.4282 22.1979 49.3818
Pd 26.137 17.3067 47.9841
Co 21.4632 18.9475 46.9454
Co 23.8435 19.62 46.0105
Pd 16.1896 25.9852 6.3108
Pd 17.9817 22.0081 11.9811
Pd 19.9171 20.0907 11.9746
Co 33.6126 26.3439 7.13442
Pd 20.084 19.5438 7.87826
Pd 19.9411 23.6973 12.0535
Pd 20.1374 21.8555 10.0297
Co 17.9541 25.8959 8.27251
Pd 17.9251 19.9951 13.8924
Pd 16.0456 24.0647 12.3251
Pd 21.7335 19.9375 14.0249
Co 21.7767 21.8416 12.124
Pd 15.9597 21.9287 13.9375
Pd 18.0522 23.7561 14.007
Pd 19.7997 19.8992 15.9071
Co 19.9019 21.8311 13.9664
Pd 18.5996 22.3521 18.3822
Pd 18.5659 24.2641 20.3201
Pd 20.4805 22.3531 20.3103
Co 20.5017 24.3051 18.4694
Pd 18.5646 22.3053 22.1688
Pd 18.5511 24.2077 24.1193
Pd 20.451 22.3099 24.1124
Co 20.4553 24.2442 22.2369
Pd 18.5399 22.2639 26.02
Pd 18.569 24.1726 27.9658
Pd 20.437 22.2662 27.9031
Co 20.4365 24.205 26.0329
Pd 18.6468 22.2605 29.9019
Pd 18.6487 24.1586 31.8584
Pd 20.5966 22.3578 31.8198
Co 20.4816 24.2048 29.8677
Pd 18.8119 22.2691 33.8253
Pd 18.7487 24.1573 35.7247
Pd 20.8082 22.3717 35.7661
Co 20.6073 24.2119 33.7714
Pd 18.9418 22.3115 37.6923
Pd 18.7963 24.1871 39.5222
Pd 20.8624 22.4332 39.6317
Co 20.7307 24.258 37.6513
Pd 18.9113 22.1486 41.3435
Pd 18.4735 23.8817 43.1665