4033
Atoms. Timestep: 21038
Co 40.9579 31.6546 31.5962
Pd 9.09065 24.1525 32.3731
Pd 15.5912 13.5039 36.4597
Co 22.1502 24.7266 44.6198
Pd 16.6751 36.9909 8.67442
Pd 42.1146 15.1156 24.3018
Pd 9.34381 25.4568 42.0689
Co 18.3563 26.2571 47.5848
Co 21.5825 13.9884 41.0397
Pd 44.7817 37.3899 30.9639
Pd 16.4811 44.2014 37.037
Co 14.4636 37.6135 35.3778
Pd 24.5844 30.9898 20.4287
Pd 29.7719 16.7169 12.9739
Pd 27.0844 30.8641 47.2382
Co 27.3906 25.7303 32.4087
Pd 36.0869 8.84048 22.763
Pd 39.1806 16.1993 44.3204
Pd 28.4609 37.7467 11.0635
Co 20.5157 31.7381 16.496
Pd 16.7149 30.3522 27.3263
Pd 39.2799 9.87076 19.0917
Pd 14.3725 30.9294 28.742
Co 15.4825 39.9009 11.4895
Co 17.4282 31.6654 32.1486
Pd 18.4152 42.0622 37.5076
Pd 38.2504 9.11367 25.8815
Co 22.9119 29.0477 5.67936
Pd 7.88008 22.9405 34.6878
Pd 25.0923 20.6385 8.03103
Pd 22.4642 26.0119 4.32585
Co 23.1443 37.0484 14.0529
Pd 24.0596 34.0064 40.3148
Pd 28.7491 21.7354 41.4836
Pd 22.5004 26.935 42.9879
Co 11.3682 28.585 14.3605
Pd 23.8383 25.0352 24.4562
Pd 14.6737 11.8704 24.6632
Pd 19.1691 33.792 44.1343
Co 21.0894 18.7385 20.7068
Pd 11.1123 32.5334 39.0129
Pd 28.6207 35.4112 9.72945
Pd 14.9057 36.0519 37.3534
Co 36.0069 11.167 42.5948
Pd 12.4919 17.5385 40.899
Pd 40.8117 27.6629 37.0356
Pd 12.8099 36.3313 34.0223
Co 20.8524 12.9307 25.5933
Co 20.831 29.1182 25.448
Pd 11.1127 11.7183 36.4616
Pd 5.51729 35.6661 29.6013
Pd 28.531 27.437 2.99175
Pd 8.14423 17.9581 18.3661
Co 25.0676 22.8445 36.8814
Pd 15.8269 46.3719 23.6411
Pd 32.0799 22.9142 33.2745
Pd 14.6803 23.0811 8.95625
Co 18.7861 19.8602 32.4734
Pd 27.8538 22.0468 46.8784
Pd 18.3676 27.5328 31.2203
Pd 10.8351 25.2248 10.8349
Co 23.6174 35.0081 15.326
Pd 25.0164 2.57847 27.9291
Pd 26.8279 19.5376 38.0821
Pd 21.7724 40.5968 43.8579
Co 11.6795 37.3391 17.1451
Pd 12.4389 11.226 16.1593
Pd 20.9059 26.9664 31.8773
Pd 24.3915 25.3209 28.1395
Co 26.6878 30.6679 6.75485
Pd 27.078 34.1435 47.0809
Pd 35.5517 38.6006 27.1362
Pd 23.3825 16.5345 13.3829
Co 25.116 45.8908 37.9226
Pd 31.6186 15.03 30.964
Pd 12.9214 12.6622 20.4153
Co 24.5822 11.8178 38.5363
Pd 19.646 25.281 20.345
Pd 13.098 23.4414 34.5253
Pd 26.3307 22.2297 11.0533
Pd 29.2424 29.7734 31.6983
Co 14.208 14.3181 16.9158
Pd 11.9461 41.8605 27.7486
Pd 28.433 12.9776 32.8673
Pd 18.3898 29.77 19.4154
Co 25.6872 44.2434 22.0259
Pd 11.2956 25.9089 44.1931
Pd 22.9271 13.7401 38.9367
Pd 49.93 25.6596 24.5367
Co 18.868 20.8139 7.83421
Pd 40.5566 22.5126 42.2553
Pd 32.6001 9.92656 39.4391
Pd 17.2296 29.6225 21.8831
Co 29.1725 23.6046 45.3599
Pd 32.2766 45.143 13.3385
Pd 24.6633 37.4818 9.15763
Co 6.71366 23.9985 25.548
Pd 35.9929 43.2509 28.0984
Pd 19.6143 26.3225 3.90553
Pd 23.1747 31.855 6.03344
Pd 26.9049 14.3828 38.3209
Co 34.526 24.0288 14.05
Pd 7.14071 34.392 20.3885
Pd 31.1926 26.0878 8.97804
Pd 15.1164 23.0855 43.3208
Co 28.3618 43.7196 30.0073
Pd 22.8372 22.9274 23.0905
Pd 29.8623 39.9868 10.3017
Co 13.363 32.0047 22.5716
Pd 42.9586 29.793 35.392
Pd 27.2907 23.3741 31.1649
Pd 16.5087 32.1107 11.0079
Co 11.6712 22.9143 11.6148
Co 13.278 30.0852 15.2365
Pd 6.42637 13.0254 22.8066
Pd 11.4816 34.5277 19.9289
Co 38.2499 8.99337 35.7428
Pd 14.497 45.7055 32.8735
Pd 29.0065 38.2947 24.7274
Pd 42.435 37.1036 15.8355
Co 26.1586 28.497 2.49429
Co 22.5552 2.66249 30.794
Pd 10.6764 35.7204 15.0389
Pd 32.418 27.5117 33.843
Co 28.1047 20.9099 30.7139
Pd 11.0138 14.1755 27.6738
Pd 9.51306 23.7326 15.6316
Pd 41.17 39.3364 32.9708
Co 35.4821 29.1651 18.6755
Pd 48.6672 24.3695 31.2032
Pd 15.573 37.2146 32.9757
Pd 17.6769 23.9246 21.8159
Co 9.20526 34.7177 18.8179
Pd 31.5574 7.77246 40.5787
Pd 15.2245 24.8498 25.5278
Pd 11.2771 8.97747 36.3687
Co 20.1102 26.2804 43.8164
Co 22.4694 21.4604 30.589
Pd 39.364 34.5817 43.3757
Pd 10.4077 30.5082 26.4796
Co 21.8506 5.54585 28.4739
Pd 22.4313 16.6314 5.00012
Pd 7.06576 26.6632 35.9095
Pd 16.545 15.9128 8.54075
Co 35.7216 7.64664 29.9039
Pd 42.8772 14.9687 15.8497
Pd 27.2239 12.9004 26.856
Pd 7.12114 28.0066 17.3745
Co 19.903 15.5118 10.8905
Pd 16.2039 29.4263 30.2206
Pd 11.9949 15.1011 25.4829
Pd 10.0605 10.4436 34.428
Co 6.65494 24.8128 33.5101
Pd 21.2528 33.0283 40.2985
Pd 16.4836 23.0914 41.0271
Pd 30.6387 39.9718 43.5335
Co 21.1439 17.636 7.02629
Pd 16.083 19.8768 32.376
Pd 34.1557 36.2735 32.0768
Pd 33.8825 6.90283 31.4151
Co 22.6312 26.6609 36.2875
Co 27.384 36.519 40.9606
Pd 32.7472 23.6979 17.7997
Pd 18.7156 16.7936 13.1875
Co 26.6234 27.4676 28.4769
Pd 10.1807 12.9957 29.7881
Pd 10.5188 9.07668 26.1368
Pd 29.8041 16.83 15.6492
Co 9.51204 20.9034 41.8316
Pd 26.4975 13.7054 29.3155
Pd 44.5543 22.452 23.0132
Pd 16.2968 17.9891 11.4122
Co 10.6301 29.3878 11.9074
Pd 23.034 19.1938 13.2377
Pd 45.2492 24.9689 14.8699
Pd 28.9511 3.02229 25.5995
Co 33.3532 13.4135 31.7869
Pd 5.46587 18.1221 18.4624
Pd 27.6876 42.9386 35.2004
Pd 24.4107 27.5478 11.6866
Co 24.7599 19.6305 41.5497
Pd 28.1859 31.7809 40.8639
Pd 34.2062 24.2378 45.8541
Pd 41.3309 15.9573 28.8176
Co 9.11087 29.2901 13.8924
Pd 27.268 10.5013 32.2201
Pd 10.4716 32.6097 41.6506
Pd 6.61213 31.3299 30.971
Co 34.8627 34.6721 43.1761
Pd 13.3236 25.4573 39.9694
Pd 24.0264 48.7046 26.9035
Pd 14.904 34.0619 12.0243
Co 45.0107 33.9372 20.953
Co 30.0916 5.53126 25.6208
Pd 32.0536 47.5178 30.7436
Pd 35.6064 13.412 10.5367
Pd 22.7445 21.9778 35.6709
Pd 17.1127 10.0856 28.2344
Co 30.4863 27.5436 43.367
Pd 17.4932 9.33549 33.7496
Pd 24.2905 41.0986 16.8222
Pd 39.3473 16.804 35.4724
Co 32.5129 24.2335 12.5324
Pd 15.0532 18.6381 29.8483
Pd 11.5021 19.685 14.8599
Pd 24.4839 20.4475 29.2919
Co 8.67343 17.1391 27.9164
Pd 30.4637 38.4422 27.0105
Pd 16.444 45.01 28.8965
Pd 45.1606 29.6335 13.9441
Co 33.6742 34.815 21.1538
Pd 18.3892 12.3152 18.8849
Pd 21.4147 4.09873 32.6242
Pd 7.98878 26.5315 32.0935
Co 20.0155 27.2348 27.3945
Pd 15.9821 13.7546 26.2546
Pd 23.2808 43.6795 13.7638
Pd 34.5652 23.6848 25.019
Co 23.0585 22.4384 38.2156
Pd 32.3238 15.1231 25.7909
Pd 12.8839 13.5075 23.4136
Pd 11.3758 25.4948 33.6498
Co 15.4103 33.5608 36.5579
Pd 30.2924 43.7323 34.2682
Pd 28.4961 9.26068 34.3246
Pd 8.91019 25.6399 34.4838
Co 16.9896 34.3006 29.3949
Pd 25.7432 14.874 43.0323
Pd 15.5193 40.422 40.624
Co 15.9936 41.1004 13.7838
Pd 9.90069 32.7345 28.1423
Pd 14.0991 10.3393 20.8138
Pd 17.0987 34.6343 41.6631
Pd 29.0594 46.1475 37.5675
Co 14.9061 8.19552 21.9621
Pd 26.5619 31.6285 34.0697
Pd 17.1266 33.107 34.6177
Pd 37.7013 35.1661 18.2023
Co 7.36993 38.6009 26.1911
Pd 27.401 36.5074 13.308
Pd 33.3693 35.4792 38.793
Pd 13.226 26.8461 14.8398
Co 38.7917 36.1115 21.8957
Pd 13 21.4943 27.7421
Pd 21.7026 28.3457 10.3732
Pd 12.1402 31.9419 20.362
Co 26.745 25.0066 41.0335
Pd 26.6197 35.549 27.1665
Pd 29.4563 15.4279 32.1942
Pd 10.6309 32.9846 25.6528
Co 20.877 20.029 6.76196
Pd 13.8638 42.0069 21.5804
Pd 6.94043 31.5849 20.6457
Pd 19.7678 35.0101 23.7305
Co 10.6087 26.1498 17.259
Pd 19.2922 34.391 4.28831
Pd 18.8936 30.3241 36.7031
Co 20.9076 43.6516 33.7478
Pd 13.6331 29.9268 45.5437
Pd 35.7208 31.8128 41.1095
Pd 11.1216 20.3933 21.4737
Pd 5.14655 17.552 22.863
Co 29.9816 18.616 34.568
Pd 13.8271 18.9301 42.7758
Pd 24.4357 42.2673 27.1495
Pd 24.1851 39.692 40.3676
Co 18.2529 38.7816 18.545
Pd 29.061 37.0748 30.8468
Pd 15.5316 21.7696 16.5422
Pd 15.2281 36.7986 14.7878
Co 17.2707 32.7381 8.76622
Pd 17.0562 32.5821 25.4331
Pd 30.312 43.2545 31.7252
Pd 30.0718 24.2707 26.9509
Co 16.0749 23.1294 23.605
Pd 26.8413 19.0332 19.6183
Pd 29.1243 40.6166 23.4035
Co 30.3814 21.6353 27.3847
Pd 29.2334 33.3393 13.4615
Pd 31.0257 45.3378 27.5742
Pd 21.9456 28.2609 3.27336
Pd 6.9204 34.0725 31.1727
Co 25.0617 28.1558 43.2972
Pd 13.7835 39.9564 17.7498
Pd 31.7602 47.5341 23.592
Pd 18.3063 28.4868 26.1421
Co 19.5944 18.919 22.7153
Pd 29.1971 31.8751 20.1238
Pd 42.9787 25.347 19.0602
Co 21.5629 39.2771 24.2085
Pd 27.9334 28.2825 6.83041
Pd 27.3216 43.5569 15.5803
Pd 8.46168 31.5194 24.6879
Co 14.3389 9.13692 24.1944
Co 10.9745 27.4281 26.8497
Pd 33.9334 37.653 45.4163
Pd 20.5582 41.3828 22.1258
Co 6.85009 33.1387 35.9773
Pd 28.5317 3.87078 22.0976
Pd 36.3485 43.1943 13.3564
Pd 37.03 10.8225 36.8944
Co 18.1171 42.0016 22.7898
Co 17.9086 18.4828 39.5625
Pd 32.0922 6.1827 16.6069
Pd 30.7637 18.399 46.2826
Co 14.5605 29.5732 26.0348
Pd 17.5076 10.0687 31.0122
Pd 6.513 21.4741 36.3097
Pd 36.7612 30.9576 29.0425
Co 36.4281 35.5463 15.7328
Pd 22.0307 9.12109 17.4059
Pd 11.1925 29.9255 32.0351
Pd 12.0989 15.1819 13.195
Co 22.8183 40.9239 25.4963
Pd 21.8893 24.1251 39.5891
Pd 27.5992 3.9105 34.5954
Pd 18.1509 17.0207 43.5218
Co 13.3114 34.411 35.7273
Co 11.9204 25.4888 25.4464
Pd 8.79325 23.0766 40.8775
Pd 16.2133 22.5411 10.9801
Co 25.4929 34.9799 32.3783
Pd 23.2546 14.779 32.8292
Pd 16.3952 26.734 7.06424
Pd 20.6598 45.9306 28.8908
Co 12.0618 6.21771 32.7017
Pd 20.6499 27.7462 14.7973
Pd 15.7859 35.3243 19.9839
Pd 34.6811 16.205 45.0918
Co 9.30201 18.8 23.0623
Pd 36.0087 20.2321 22.6693
Pd 29.7727 31.708 25.0252
Pd 11.8986 21.8261 36.21
Co 17.3972 22.6402 17.9288
Pd 20.8322 35.2189 8.06035
Pd 19.2725 24.763 35.8496
Pd 16.7507 35.0027 10.4216
Co 41.5642 21.7325 39.728
Pd 27.2753 45.3826 39.3393
Pd 17.3252 26.2892 34.8576
Pd 24.216 30.1192 47.7794
Co 14.7954 17.5861 9.32099
Co 18.7147 20.2982 38.0148
Pd 43.0719 33.6895 13.1881
Pd 34.6732 7.28752 37.4447
Co 22.2857 14.9257 11.1981
Pd 26.3171 13.2869 12.6705
Pd 19.3966 31.2527 44.0163
Pd 42.7646 30.9257 13.1612
Co 15.3089 24.9894 22.019
Pd 30.2593 25.7434 15.7483
Pd 36.4272 10.7013 34.2304
Pd 20.3803 32.5765 12.7288
Co 43.5566 28.8126 11.8914
Pd 9.31469 18.5339 20.5976
Pd 27.3758 20.0905 12.4961
Pd 4.21751 25.0817 33.9479
Co 34.1467 12.781 42.2306
Pd 15.1864 21.5551 39.1558
Pd 21.9898 21.5444 25.2072
Pd 24.9756 11.9339 43.012
Co 27.7222 2.68175 27.9302
Pd 25.3578 31.4733 11.936
Pd 35.1929 22.9021 43.655
Pd 19.0547 23.0506 41.024
Co 38.0365 16.756 38.9418
Pd 31.5924 5.25427 36.3317
Pd 3.78118 28.2427 21.4129
Pd 18.445 37.3872 11.5172
Co 22.8384 16.617 24.2571
Pd 17.6342 7.66788 29.6395
Pd 23.2592 8.10443 32.8991
Pd 26.9184 26.8739 4.90595
Co 35.6703 30.3632 25.1851
Co 25.9782 47.0082 14.6442
Pd 31.9749 37.3923 14.2486
Pd 25.5399 39.8339 7.92821
Co 7.44375 16.04 29.6525
Pd 32.847 40.0629 36.63
Pd 6.81767 13.1428 25.7694
Pd 14.3952 41.7503 15.9832
Co 30.1784 28.4246 15.262
Pd 7.39351 23.0176 38.3727
Pd 33.1683 17.1646 5.24197
Pd 44.3964 36.5302 17.4127
Co 13.3626 7.29494 28.1494
Pd 35.8746 42.745 20.9709
Pd 17.3734 22.1379 29.1505
Pd 9.69607 24.0266 12.9777
Co 30.7405 5.34299 28.9572
Pd 23.2524 5.43538 36.4075
Pd 23.5011 23.4602 14.9845
Pd 12.9098 27.979 37.1113
Co 31.1976 20.8329 34.3748
Pd 6.61157 20.4705 33.7589
Pd 30.5654 22.4398 43.5447
Pd 13.8654 40.6104 23.8861
Co 23.6713 4.65966 26.9705
Pd 9.41495 37.5386 35.9492
Pd 13.2951 33.3777 18.1575
Pd 16.2764 10.4981 36.9541
Co 20.9176 14.1737 9.17372
Pd 30.3934 5.32243 31.5236
Pd 25.8211 34.666 16.8519
Pd 14.3801 38.328 41.5535
Co 23.7277 29.0395 26.1041
Pd 18.4029 30.9468 7.08833
Pd 22.3976 23.8936 29.3145
Pd 31.1182 9.92698 30.2785
Co 19.5092 14.9292 21.5276
Pd 6.45695 24.806 22.701
Pd 5.06043 31.7618 35.041
Pd 34.3545 35.9493 6.77764
Co 15.2807 27.8627 45.1145
Co 24.1384 39.2601 24.1052
Pd 15.6255 47.4529 28.7513
Pd 39.0411 45.7795 29.1659
Pd 24.0611 7.40037 23.9292
Pd 35.3479 27.8253 38.277
Co 23.8735 44.0324 25.3391
Pd 41.044 41.8047 17.6254
Pd 44.2097 24.1302 27.9638
Pd 14.9917 28.291 28.2991
Co 25.5948 39.1037 32.506
Pd 19.7775 47.739 25.7477
Pd 36.7371 13.1164 35.7485
Pd 9.35165 32.9137 35.0371
Co 14.7293 31.8356 42.451
Pd 13.666 18.7443 23.2837
Pd 37.895 35.165 9.9735
Pd 8.71441 12.1798 23.6784
Co 16.8555 37.2948 35.412
Pd 14.5859 11.7905 18.1999
Pd 17.8042 12.6366 41.8228
Pd 22.3101 19.0503 29.0856
Co 21.8821 27.3636 12.6804
Pd 10.8899 21.3833 16.6912
Pd 19.1274 27.1853 39.2979
Pd 13.4912 29.4895 30.6332
Co 34.4468 6.8498 15.9109
Pd 27.12 16.9909 38.781
Pd 20.004 41.0036 39.6135
Pd 12.1578 12.04 33.9639
Co 12.2877 17.6934 25.5349
Pd 10.3435 37.0397 33.237
Pd 18.4207 32.4963 27.8208
Pd 40.0146 14.97 37.2491
Co 20.336 12.2955 42.0585
Pd 27.917 28.7072 26.6158
Pd 40.3792 26.4339 34.1702
Pd 13.981 38.9424 13.2707
Co 41.0173 17.6548 33.8495
Pd 4.35911 23.2268 22.6846
Pd 20.3026 12.3148 20.9228
Pd 12.1405 44.6946 31.756
Co 28.1546 31.6187 35.967
Pd 29.1169 11.4727 30.7667
Pd 14.9257 16.0333 29.8285
Co 12.7578 19.6137 29.5174
Pd 23.6106 32.7465 30.4333
Pd 14.3146 16.6889 12.8236
Pd 24.6142 18.65 39.246
Pd 16.3785 29.3491 7.19198
Co 17.0424 20.8111 24.9869
Pd 5.19008 28.598 19.2742
Pd 25.6369 34.9601 44.8346
Pd 40.3106 7.76772 25.213
Co 13.7045 38.2789 10.843
Pd 12.6054 13.0034 38.2185
Pd 4.161 30.0919 26.2543
Pd 41.4766 43.3012 31.2556
Co 11.1898 34.9778 17.4477
Pd 22.5696 17.8223 33.3541
Pd 21.4612 43.4306 40.4272
Pd 21.7179 3.25532 25.606
Co 22.4755 6.13541 22.04
Pd 27.8169 28.2156 43.8416
Pd 17.9008 36.3118 18.8284
Pd 32.3253 22.4811 5.90596
Co 21.3137 26.3753 38.2735
Pd 7.94826 35.1968 28.6172
Pd 12.5505 13.936 35.7818
Pd 29.9527 12.1224 15.6994
Co 41.2423 20.0768 41.5564
Pd 32.4227 21.3404 41.9971
Pd 21.3866 38.654 14.8393
Pd 8.69681 20.9443 39.3548
Co 24.6121 40.1622 37.3051
Pd 41.2133 11.435 22.178
Pd 25.648 40.0749 22.1461
Pd 13.6786 26.8675 26.5648
Co 29.1215 45.219 16.2271
Pd 11.2411 34.6127 22.6066
Pd 45.4997 26.8815 31.3456
Co 20.303 42.123 35.5025
Pd 37.5699 33.7037 7.66275
Pd 31.6479 31.2744 43.4665
Pd 8.16946 23.066 28.0325
Pd 6.76021 17.0614 16.398
Co 17.9202 45.6576 24.8684
Pd 33.6433 9.33722 30.0576
Pd 21.2765 25.2149 15.4308
Pd 19.0325 8.7865 23.6725
Co 17.4795 20.8083 40.1731
Pd 33.0993 41.6822 24.3685
Pd 17.4858 36.8506 28.532
Pd 16.0827 10.2603 22.832
Co 13.651 37.0593 26.1139
Pd 25.2011 41.8994 14.2987
Pd 30.3318 9.85619 26.8241
Pd 31.5883 44.0345 20.3769
Co 39.639 37.5814 25.3944
Pd 19.3394 35.0713 12.9336
Pd 38.9892 27.542 42.1456
Pd 23.6256 34.9665 3.08344
Co 15.6539 6.12318 28.8302
Pd 42.8695 30.5548 27.7078
Pd 6.34631 25.5639 18.2679
Pd 16.7959 27.3 12.1772
Co 31.7266 42.2492 37.5711
Pd 19.7029 43.5622 27.503
Pd 21.6062 18.8899 24.4074
Co 13.2597 24.0811 26.9008
Pd 21.9979 31.3873 8.39691
Pd 30.4438 19.3948 37.0548
Pd 11.7374 26.7154 19.5692
Pd 20.4311 18.9387 13.3111
Co 25.8128 29.7176 27.4784
Pd 5.50302 26.1425 31.6635
Pd 29.7708 43.717 36.8882
Pd 21.948 20.9911 4.4452
Co 43.6041 34.7273 15.4756
Pd 14.1168 25.1565 32.8088
Pd 14.1617 30.2406 6.22719
Pd 20.5566 22.478 6.09095
Co 19.0574 31.2036 11.0472
Pd 31.0715 33.8961 42.4467
Pd 27.1864 21.9369 8.56587
Pd 39.3621 18.2653 40.8878
Co 25.4914 44.3101 19.1412
Pd 40.6209 42.1703 35.136
Pd 9.80082 42.4474 26.3571
Co 38.1908 23.86 38.0971
Pd 42.6551 24.9718 10.8279
Pd 6.7654 26.5272 25.3202
Pd 19.2303 37.4446 8.87622
Pd 29.3161 24.8536 37.2352
Co 46.3435 23.2899 25.0232
Pd 20.8984 38.1306 18.6099
Pd 23.137 29.1118 45.113
Pd 35.6564 34.1947 32.4342
Co 40.0481 32.7711 41.0111
Pd 32.1206 32.2384 10.0733
Pd 33.3576 30.1329 17.3664
Co 8.39419 29.2874 38.9921
Pd 9.46224 15.8092 25.8909
Pd 32.7273 47.4272 28.1054
Pd 39.4327 13.8809 13.2844
Co 7.60377 24.4113 20.2916
Pd 11.1152 16.8183 19.3283
Pd 21.2399 7.26503 23.9945
Co 16.5188 23.7835 33.3189
Pd 32.7058 22.7069 47.4727
Pd 21.4414 20.3141 37.316
Pd 28.9222 9.22597 29.0828
Co 38.5182 25.1608 31.5597
Co 43.1815 23.4162 36.2786
Pd 6.44515 22.6943 18.5943
Pd 22.015 26.4744 28.9626
Co 23.0412 7.58856 15.3909
Pd 6.01057 30.7247 18.2257
Pd 29.2239 22.9783 29.3129
Pd 26.8021 26.6624 12.6736
Co 5.10413 17.3506 25.5129
Pd 33.4494 19.5448 17.9689
Pd 35.0695 9.90437 38.381
Pd 40.2538 27.4549 39.9067
Co 11.8457 16.4948 36.6191
Pd 17.4808 19.6097 30.0329
Pd 22.3558 24.0177 7.75611
Pd 16.9417 8.00872 36.2889
Co 4.57886 27.8295 25.4254
Co 31.9963 5.90582 26.9462
Pd 30.6425 31.1898 36.1216
Pd 20.9891 45.2636 16.6168
Co 27.2207 12.7254 42.1912
Pd 27.7547 6.74132 34.951
Pd 27.3871 2.02247 30.3234
Pd 19.1454 9.99937 20.0835
Co 16.499 15.499 12.9141
Pd 25.7785 5.44063 33.5432
Pd 12.7807 22.9603 38.5659
Pd 43.1157 17.6238 24.2869
Co 18.8009 6.799 25.3594
Pd 43.1108 13.1697 22.6606
Pd 17.2405 35.4452 44.4656
Pd 34.4107 28.1598 23.7893
Co 22.832 45.8401 30.2833
Pd 16.3579 40.3597 17.7075
Pd 36.7073 9.68565 19.5866
Pd 43.0653 34.1607 37.7345
Co 17.528 42.6781 28.5832
Pd 28.0048 20.3799 15.0361
Pd 9.77848 30.6919 19.731
Pd 31.4696 13.4397 39.0177
Co 44.4384 21.3962 18.7555
Co 10.5216 43.1716 30.6772
Pd 6.5957 15.3553 21.647
Pd 25.4306 14.2401 14.8614
Co 30.3236 33.9498 8.41659
Pd 35.9535 22.1395 20.7577
Pd 39.2389 37.1634 19.4091
Pd 29.3221 12.0147 28.2096
Co 21.9551 28.7338 7.94471
Pd 33.971 7.28971 25.7802
Pd 38.0429 26.2583 29.2604
Pd 8.17049 13.6313 18.6195
Co 36.318 17.608 8.37375
Pd 42.3531 19.3632 29.5911
Pd 27.7454 45.8417 31.3136
Pd 28.1887 12.1603 20.2749
Co 36.4723 16.2644 20.2306
Pd 31.8115 31.7245 27.0844
Pd 23.4553 20.8029 15.6063
Pd 29.8167 7.26256 27.5797
Co 12.9111 21.3425 23.331
Pd 36.5095 24.9587 21.4468
Pd 16.9768 14.6597 30.739
Pd 15.7446 15.5574 32.9918
Co 35.7698 39.399 20.4162
Pd 21.9667 7.65688 35.2551
Pd 19.416 6.75371 27.8303
Pd 21.6384 35.4783 35.7944
Co 13.7354 40.6904 31.3473
Pd 28.7939 3.26988 32.1975
Pd 12.6469 33.5097 42.8406
Pd 44.8909 19.7217 22.938
Co 39.0402 14.1889 34.9367
Co 21.404 44.9653 19.1945
Pd 29.1807 36.0724 26.0097
Pd 22.7732 24.0725 17.5688
Co 21.4176 43.7074 29.7488
Pd 18.7977 9.24867 26.3677
Pd 34.9656 13.5745 46.2082
Pd 39.5554 17.5708 16.1106
Co 22.3354 49.4649 20.7303
Pd 15.181 24.878 35.2323
Pd 10.0292 16.519 12.4098
Pd 15.165 24.1928 17.5438
Co 18.0724 24.9257 18.3804
Pd 17.9585 19.1478 42.0476
Pd 31.762 12.501 13.6301
Pd 43.5645 19.3015 37.3885
Co 23.4406 16.8308 7.45401
Pd 12.2175 14.794 30.1664
Pd 8.6681 36.1789 38.1226
Pd 20.4577 23.2014 21.8612
Co 14.5604 26.032 12.7445
Pd 26.138 2.5607 32.8265
Pd 44.1012 13.4254 32.2049
Pd 29.7981 37.6667 8.75432
Co 33.1748 24.2599 10.0028
Pd 10.9493 37.9599 37.9822
Pd 39.9807 29.9142 41.0557
Pd 42.3461 23.7487 29.912
Co 21.3888 39.7026 32.0957
Pd 34.167 11.5852 44.486
Pd 18.8226 6.14749 22.9082
Pd 28.1286 18.0633 36.4245
Co 8.31598 25.9792 16.4134
Pd 27.8372 5.04803 24.3997
Pd 47.1964 21.592 22.9123
Pd 27.9046 33.0205 7.09718
Co 11.8493 30.2224 36.3803
Pd 20.7806 14.3627 19.3853
Pd 11.193 35.1621 31.5251
Pd 11.5003 37.2414 27.3534
Co 30.1149 3.36005 27.801
Co 5.18721 23.6165 27.3334
Pd 25.3762 11.1351 26.245
Pd 16.0369 27.3758 22.2698
Co 28.7094 41.6502 28.5898
Pd 9.99086 14.5561 14.7675
Pd 11.7714 15.3104 17.0059
Pd 10.9023 16.9635 14.9913
Co 7.22632 37.6934 29.7022
Pd 10.0666 23.8062 29.8513
Pd 14.7228 28.5763 47.5849
Pd 14.2382 37.3846 21.0226
Co 18.3893 36.1781 39.9702
Pd 12.9963 16.2111 23.3316
Pd 21.9729 42.0953 27.8933
Pd 15.1827 12.5618 22.0352
Co 36.0255 12.2799 25.7669
Pd 23.9755 22.0476 41.5253
Pd 25.1798 43.5365 11.7674
Pd 9.34466 16.0431 17.1852
Co 9.24986 21.184 14.6873
Pd 34.827 22.7222 16.2534
Pd 19.1967 32.7475 30.3579
Pd 35.5302 43.5563 34.0029
Co 5.00074 20.6401 18.4942
Pd 49.3824 30.5559 25.6496
Pd 38.8314 11.6194 34.7055
Pd 24.7947 47.3676 21.3288
Co 42.7738 30.6442 30.3032
Pd 43.3509 19.8187 40.0043
Pd 38.4628 6.56276 26.7979
Pd 42.6243 17.2584 38.732
Co 11.8896 41.9914 32.303
Pd 36.5203 6.35863 31.9551
Pd 31.9868 43.0431 40.1352
Pd 21.2355 28.1744 40.7892
Co 23.358 15.8081 43.7524
Pd 35.6341 32.752 21.4328
Pd 43.4938 23.7284 13.0347
Pd 29.4235 29.7218 42.3528
Co 21.3468 14.0924 43.5325
Pd 11.3405 41.5033 22.2923
Pd 25.9293 33.786 35.3823
Pd 17.3095 28.5768 37.9126
Co 22.5487 15.2886 36.9806
Pd 30.0555 4.6781 34.262
Pd 20.0656 6.50348 30.2793
Pd 16.2331 28.3477 19.7218
Co 5.45059 27.2596 23.2371
Co 34.962 21.9764 41.3168
Pd 19.6616 21.1903 17.7936
Pd 37.208 14.9176 45.7516
Pd 38.5483 22.1929 8.60652
Co 19.444 39.5027 13.3196
Pd 7.21515 35.7911 22.7259
Pd 35.4241 19.5548 27.4677
Pd 25.0458 24.9109 32.8307
Co 31.7086 35.4039 16.3156
Pd 15.4145 23.9827 30.7438
Pd 24.7217 22.3195 17.4134
Pd 13.0626 22.7301 16.7918
Co 24.9367 39.9074 26.26
Pd 21.4018 30.5164 14.3145
Pd 13.4938 36.1208 23.6564
Pd 11.5458 17.8541 21.8024
Co 20.3043 26.3165 11.0355
Pd 38.2916 19.265 38.6937
Pd 6.39391 36.636 31.8828
Pd 16.8326 21.3576 45.6114
Co 13.7826 26.816 43.5053
Pd 13.8376 18.0721 36.3629
Pd 25.7927 10.261 17.4739
Pd 6.27548 33.9534 24.4385
Co 26.1268 19.9362 23.9636
Pd 46.4185 24.3902 32.5649
Pd 32.8133 26.1976 44.3322
Pd 19.6331 7.53673 37.2349
Co 19.7559 27.9085 1.89945
Pd 37.5748 41.3633 12.0411
Pd 36.9223 42.3796 32.1121
Pd 32.9931 18.2754 44.7411
Co 38.5867 19.0905 34.5063
Pd 14.2308 40.6986 28.5648
Pd 13.8164 34.8368 32.1567
Pd 42.6082 33.1169 29.901
Co 32.3466 34.7334 33.6559
Pd 34.5538 29.1656 6.19706
Pd 33.1448 38.8586 23.5173
Pd 20.8835 40.0509 26.8865
Co 22.6407 17.9023 26.6584
Pd 36.1976 15.2946 39.6895
Pd 23.8087 34.2813 46.5513
Pd 25.1341 32.5367 47.8787
Co 4.07988 32.2136 24.5001
Pd 9.70242 27.8221 42.9797
Pd 19.9519 24.8531 46.024
Pd 17.566 23.6983 44.5068
Co 22.4459 21.3312 11.2026
Pd 17.5442 44.4708 22.7087
Co 26.2019 28.612 48.0466
Pd 32.0757 26.2966 27.3329
Pd 20.9893 37.7138 6.85647
Pd 30.6185 35.1414 29.8294
Pd 24.9232 41.2655 29.7829
Co 4.1936 21.7649 20.4536
Pd 26.8569 9.84962 19.8331
Pd 47.073 30.0316 19.0194
Pd 19.5775 20.7574 24.574
Co 29.8584 42.4388 19.2893
Pd 27.1196 31.5111 13.993
Pd 35.6877 18.4281 38.5204
Pd 23.0291 14.1656 17.8081
Co 8.09339 21.1945 29.8895
Pd 14.0232 8.79858 36.7198
Pd 22.8789 21.5483 7.12639
Pd 22.403 47.6614 22.5248
Co 30.2972 37.4086 16.508
Pd 12.813 39.4169 21.8444
Pd 23.7385 17.1923 10.7675
Pd 11.1963 39.8274 17.7119
Co 30.7882 16.9228 36.1705
Pd 28.8807 20.8147 35.564
Pd 21.9425 47.0002 26.8724
Pd 4.59937 26.6019 36.3485
Co 15.2156 21.9028 6.62187
Pd 35.741 31.6133 36.4335
Pd 32.9612 32.4229 21.509
Pd 12.5927 27.5288 32.3487
Co 30.3375 40.0755 20.3297
Pd 18.9379 27.7529 42.0098
Pd 18.3313 13.9024 9.62915
Pd 24.9133 25.2875 5.15996
Co 18.5181 32.655 23.4597
Pd 42.2147 22.9411 18.2761
Pd 36.0878 40.5784 9.82843
Pd 34.3261 23.0723 30.2899
Co 24.9101 17.744 29.968
Pd 22.1314 45.7762 24.484
Pd 22.558 10.4649 34.604
Pd 25.857 24.3 26.055
Co 17.8097 40.0765 15.1829
Pd 21.087 23.7868 3.50678
Pd 31.5515 28.1052 17.3429
Co 18.2226 32.9197 36.9783
Pd 5.54926 19.7678 24.8885
Pd 20.7732 19.6388 26.8704
Pd 18.2757 20.6271 27.2734
Pd 41.8092 42.0924 24.2587
Co 27.6895 16.0293 16.6035
Pd 37.3038 17.8967 36.4966
Pd 4.4608 30.9007 20.9063
Pd 24.9992 30.3207 4.8553
Co 21.7501 45.4235 21.816
Pd 16.2516 21.4708 34.4433
Pd 30.105 27.3388 23.1163
Pd 18.5818 25.4027 25.7178
Co 23.8714 33.1324 27.8812
Pd 8.68143 24.6266 36.8305
Pd 41.0212 33.209 27.2844
Pd 12.3376 30.8451 24.745
Co 26.2192 28.7195 8.5917
Pd 26.7089 45.5722 33.7321
Pd 47.3209 25.5594 24.9714
Pd 17.4045 39.2552 9.82232
Co 19.0891 39.1302 28.5463
Pd 8.47952 38.5487 31.8468
Pd 25.1496 32.8075 18.7604
Pd 27.8463 45.8935 25.7357
Co 24.1279 20.3936 37.3365
Pd 18.8667 44.3786 30.0845
Pd 37.3435 31.6125 12.7648
Pd 11.8931 29.8131 22.2674
Co 20.1117 45.171 25.6691
Pd 27.1206 39.7467 9.88034
Pd 10.3589 36.6769 40.1288
Pd 33.5488 31.0569 7.80184
Co 35.0242 41.3578 19.0125
Pd 19.6589 9.41043 28.9692
Pd 24.7855 3.53109 34.9163
Co 42.221 29.7088 37.8136
Pd 14.2752 35.9596 9.94193
Pd 33.4794 34.4256 10.9348
Pd 19.0411 27.9741 33.6917
Pd 7.71699 29.0824 19.6702
Co 10.9429 23.7848 17.7775
Pd 9.98224 32.2871 32.4991
Pd 13.7824 6.81089 30.6542
Pd 18.9699 28.169 7.94486
Co 24.9864 21.3424 39.3311
Pd 40.9996 35.698 26.317
Pd 24.0982 39.5722 10.4541
Pd 17.6019 39.9416 38.9353
Co 25.3863 16.7509 15.02
Pd 39.7104 24.0632 29.5483
Pd 31.1115 9.63182 35.159
Pd 22.9443 26.3539 40.2945
Co 24.2369 39.2885 13.3342
Pd 12.875 43.0715 23.8395
Pd 17.659 48.4509 27.2014
Pd 31.2416 29.3562 39.0201
Co 24.1567 27.8428 28.2461
Pd 12.6591 39.304 39.7167
Pd 13.9259 20.3789 34.9398
Pd 35.4512 16.3548 14.0772
Co 32.5943 3.89 28.3853
Pd 22.0889 37.1427 31.2394
Pd 36.2184 39.6552 39.9515
Co 34.989 16.2622 9.9758
Pd 20.7534 29.7243 32.3437
Pd 37.2383 12.3066 17.1469
Pd 13.8486 21.3963 14.5871
Pd 28.909 29.3637 37.1165
Co 30.8439 37.724 11.9273
Pd 31.3973 32.1431 7.12315
Pd 11.1258 26.0253 38.4347
Pd 25.2989 27.0505 36.885
Co 18.1956 22.0966 12.4497
Pd 34.3345 37.1974 20.744
Pd 21.9158 30.8494 3.94364
Pd 32.5805 41.3392 42.1379
Co 21.8386 35.9697 46.3271
Pd 6.17471 34.7398 33.8426
Pd 19.5744 25.8989 29.5759
Pd 29.8918 45.2464 12.1004
Co 24.1436 45.7174 23.0952
Pd 6.90759 23.8631 16.2231
Pd 16.7099 17.4735 31.5623
Co 41.187 31.5272 34.1882
Pd 16.9494 7.57854 27.0473
Pd 28.7642 16.7119 4.31115
Pd 21.309 44.6364 35.9762
Pd 28.8586 47.3822 21.3654
Co 36.0374 24.8526 7.81084
Pd 30.7525 40.4232 17.7541
Pd 37.5241 41.4828 29.7359
Pd 22.2041 47.6318 17.3174
Co 6.78346 19.7671 17.0625
Pd 33.0621 32.2902 36.4585
Pd 12.1599 43.9385 26.2276
Co 12.0551 28.5674 43.8473
Pd 48.0828 23.42 20.7615
Pd 16.3009 42.689 21.038
Pd 20.0348 29.2231 12.6306
Pd 37.7653 34.1746 20.7245
Pd 20.9241 16.8487 28.4805
Co 8.62149 24.1957 18.0658
Pd 29.8294 22.1476 37.6791
Pd 20.8712 14.8825 24.0534
Pd 31.567 14.1363 36.521
Co 28.1166 7.16836 25.7773
Pd 24.9592 10.7428 31.0097
Pd 24.6137 16.0753 38.4176
Pd 17.5272 12.2778 29.6135
Co 17.8609 14.7236 37.1922
Pd 41.8609 29.4258 25.399
Pd 30.5734 21.0881 4.34608
Pd 27.2351 16.5286 30.5052
Co 34.3342 15.5758 17.3167
Co 8.42383 30.2257 32.4995
Pd 23.4443 42.8832 18.5916
Pd 36.0113 25.6584 23.9441
Co 30.9591 13.0469 32.4722
Pd 40.6101 23.8143 9.18525
Pd 26.9592 15.2925 32.8388
Pd 48.3212 21.8777 27.857
Co 29.7249 27.4627 35.429
Pd 17.2183 18.5087 8.63259
Pd 32.0435 38.4912 9.79737
Pd 42.647 19.2233 12.6941
Co 20.1192 37.4666 23.302
Pd 19.0561 26.3618 13.2941
Pd 16.7016 5.34194 24.5963
Pd 27.0073 33.9144 12.2377
Co 12.8788 25.5891 30.6734
Pd 25.3939 28.5338 19.5185
Pd 40.1419 19.4258 36.3761
Pd 24.4251 8.13455 17.3964
Co 24.4105 28.1828 17.0445
Pd 20.8668 12.0866 18.0164
Pd 7.67731 28.3671 33.9847
Pd 32.7937 11.05 32.0262
Co 24.4921 17.8544 19.8636
Co 23.6257 26.9741 21.2469
Pd 28.9194 35.5907 7.10155
Pd 26.5747 29.0902 11.1822
Co 25.4611 14.9148 23.762
Pd 12.161 14.3544 32.7721
Pd 14.8514 14.1631 38.8704
Pd 15.837 19.1425 38.3097
Co 44.3229 19.5295 20.4191
Pd 6.19809 28.2807 27.4426
Pd 3.53674 35.0253 28.0772
Pd 4.65225 16.5888 20.4416
Co 10.6296 28.7129 38.016
Pd 37.4154 11.4062 39.4092
Pd 23.3407 12.7311 15.4069
Pd 31.9939 13.1262 45.9195
Co 13.6216 23.893 23.6513
Pd 38.8202 12.6944 22.4532
Pd 13.8617 28.2472 18.6602
Pd 27.0514 15.5543 25.8499
Co 16.0753 19.1207 35.7836
Pd 34.287 5.41707 35.5712
Pd 34.3717 14.8714 29.9908
Pd 38.9896 21.0642 40.5383
Co 44.4795 23.364 34.1956
Pd 18.7617 22.3937 9.90709
Pd 25.4404 18.073 8.3205
Pd 25.4784 40.4144 19.4174
Co 21.0974 13.7521 15.8488
Pd 24.859 13.7228 26.0181
Pd 26.829 12.6456 44.7828
Pd 19.8106 33.8576 26.0962
Co 15.996 16.0387 20.5677
Co 24.1274 23.6218 45.6598
Pd 32.7208 3.5933 34.6708
Pd 14.9415 43.9227 34.8626
Co 28.3268 22.2731 4.04354
Pd 10.8789 24.5477 23.3885
Pd 32.7472 38.2402 7.15211
Pd 15.0359 28.5928 13.7063
Co 13.6063 20.3245 37.5518
Pd 15.7386 35.5126 17.225
Pd 34.1074 30.3784 42.9525
Pd 22.7936 28.416 30.5866
Co 26.6196 24.284 9.06157
Pd 41.7228 19.3934 16.0445
Pd 11.3122 24.5341 36.2897
Pd 13.3185 26.0061 17.3743
Co 13.9881 37.6393 16.8106
Pd 6.60643 29.3768 24.9301
Pd 47.2692 26.2118 16.0636
Pd 46.4754 31.4008 21.694
Co 19.2687 43.331 16.1907
Pd 15.5155 16.8916 22.9471
Pd 44.433 21.2285 35.8355
Pd 27.2057 22.0405 38.3569
Co 26.0761 42.4053 17.9166
Pd 19.7213 22.1966 36.3922
Pd 47.4552 32.2717 26.3457
Pd 19.5798 30.1547 28.035
Co 45.7246 26.7903 22.4878
Pd 38.8698 23.2853 17.7809
Pd 15.6234 37.8683 18.67
Pd 20.285 38.5703 43.5031
Co 44.8451 24.4454 30.5288
Pd 12.9589 42.7055 30.0194
Pd 40.6547 10.1153 35.7364
Pd 19.4577 9.8487 17.3723
Co 35.9664 6.39102 27.5952
Pd 36.7098 27.9154 43.2584
Pd 45.313 15.3375 30.7893
Pd 18.7743 19.5046 44.7463
Co 20.3256 40.2934 37.0798
Co 24.6166 14.3395 11.0815
Pd 21.5763 24.1478 36.842
Pd 12.3392 25.9859 8.45943
Co 5.40313 22.7009 34.1083
Pd 24.4554 34.0302 11.2325
Pd 40.7938 22.4112 16.1488
Pd 44.9918 22.3273 14.8091
Co 20.9679 8.28054 26.4522
Pd 17.878 19.6262 13.042
Pd 21.11 21.3926 9.04017
Pd 12.3453 20.5635 12.5446
Co 25.6712 44.7078 13.9614
Pd 24.0001 22.6401 9.60131
Pd 4.8268 19.2678 20.7041
Pd 5.60855 29.2349 35.793
Co 19.6985 32.5808 8.76921
Pd 6.66039 21.5381 26.5842
Pd 20.7444 30.2652 6.34169
Pd 5.38622 15.2091 24.1468
Co 9.91597 15.7706 29.6504
Pd 25.0869 19.4075 33.8183
Pd 29.1229 20.0682 39.3519
Pd 17.9969 24.4565 28.1203
Co 11.3926 21.8276 40.6611
Pd 25.214 24.8286 11.1512
Pd 8.87854 40.3306 25.0996
Pd 31.0527 15.8038 8.08376
Co 30.7939 3.09056 30.119
Pd 36.3235 25.3544 38.5758
Pd 26.5852 24.717 38.0419
Pd 14.8554 30.1069 40.476
Co 33.339 24.9836 34.6122
Pd 14.3854 16.2601 25.5664
Pd 37.4729 38.8742 25.2299
Pd 28.1512 17.8001 27.5638
Co 13.3607 34.0814 38.1969
Pd 26.3132 20.6334 3.50254
Pd 34.3103 24.5944 27.5719
Pd 47.0464 19.6819 26.8459
Co 8.71042 36.1083 30.9481
Pd 24.5277 16.137 46.0337
Pd 16.6768 18.3605 27.5865
Pd 20.8665 29.134 35.2879
Co 28.9201 18.7372 44.5882
Pd 39.091 12.4342 37.2618
Pd 7.25354 22.3055 32.0687
Pd 10.3794 30.2772 42.7849
Co 31.2282 19.9965 44.2315
Co 34.1295 26.1899 25.6129
Pd 23.6832 4.9119 20.1395
Pd 30.2875 10.6114 32.9006
Pd 28.0811 31.4763 11.5416
Co 24.2608 37.1206 32.9089
Pd 24.331 3.03907 25.1132
Pd 11.568 15.1167 21.4272
Pd 42.9565 31.8515 25.3211
Co 23.0008 32.2286 12.4648
Pd 40.5436 17.2758 23.5431
Pd 17.9071 9.23873 38.5516
Pd 29.4247 22.9504 34.0091
Co 28.0284 22.7456 16.0134
Pd 29.9406 43.7397 14.1755
Pd 19.653 36.407 16.8473
Pd 29.9054 10.7955 12.4481
Co 22.8978 33.743 8.05578
Pd 22.5871 31.9159 18.603
Pd 26.6078 8.57785 30.3839
Pd 12.2331 18.206 33.972
Co 16.4096 32.3669 40.7696
Pd 35.0294 26.6578 33.7344
Pd 29.5188 6.55251 17.5147
Pd 18.1452 16.419 16.9419
Co 26.5036 3.674 26.1534
Pd 12.7496 30.4269 38.6679
Pd 11.755 32.9334 15.7528
Pd 24.3894 19.6556 17.9633
Co 34.8694 23.4192 39.2536
Pd 29.9935 22.3296 24.9854
Pd 35.075 44.9659 22.0494
Pd 18.4847 18.6434 15.3969
Co 10.3351 21.6365 23.5463
Pd 29.8827 17.4944 38.6013
Pd 10.4561 33.4495 13.4399
Pd 22.3632 30.3036 39.707
Co 34.0119 13.7744 36.659
Pd 37.7202 39.9298 32.7164
Pd 13.4118 19.9326 16.8648
Pd 35.15 18.9624 46.0276
Co 12.7894 37.3241 31.6668
Pd 9.79875 29.09 28.4994
Pd 46.83 18.938 21.4762
Pd 6.31001 28.1894 38.0793
Co 22.3648 37.536 39.8905
Pd 34.4515 37.2873 42.9055