4033
Atoms. Timestep: 20155
Co 5.49166 12.9977 26.224
Pd 3.55946 16.7111 24.3547
Pd 5.35248 14.7824 24.283
Co 5.37331 16.7294 22.4466
Pd 3.63722 14.8397 26.2267
Pd 3.56179 16.708 28.1018
Pd 5.35489 14.7792 28.1681
Co 5.38767 16.6915 26.2271
Co 5.378 16.7233 30.0077
Pd 3.52776 20.5214 20.5465
Pd 5.30084 18.5835 20.5018
Co 5.35807 20.5342 18.6483
Pd 3.53665 18.6179 22.4491
Pd 3.44433 20.4898 24.3259
Pd 5.35184 18.6184 24.3493
Co 5.32873 20.5 22.4256
Pd 3.4656 18.5847 26.2298
Pd 3.4467 20.4867 28.1369
Pd 5.35417 18.6153 28.108
Co 5.30489 20.5077 26.2303
Pd 3.54135 18.6117 30.0106
Pd 3.53482 20.5121 31.9162
Pd 5.30795 18.5742 31.9556
Co 5.33345 20.4938 30.0349
Co 5.36749 20.5219 33.8122
Pd 3.54837 24.3323 16.744
Pd 5.31253 22.3922 16.6999
Co 5.4033 24.3383 14.8501
Pd 3.53345 22.4286 18.6392
Pd 3.44158 24.3032 20.5169
Pd 5.334 22.4242 20.5468
Co 5.34141 24.3025 18.6276
Pd 3.43571 22.3961 22.4221
Pd 3.41608 24.2978 24.3286
Pd 5.29163 22.4007 24.3263
Co 5.28588 24.3102 22.4326
Pd 3.42591 22.3925 26.233
Pd 3.41845 24.2947 28.1404
Pd 5.29399 22.3976 28.1373
Co 5.273 24.3001 26.2334
Pd 3.44044 22.3899 30.0438
Pd 3.44868 24.2939 31.9521
Pd 5.34106 22.4149 31.9169
Co 5.2906 24.304 30.0341
Pd 3.54288 22.4162 33.8266
Pd 3.56016 24.3168 35.725
Pd 5.32436 22.3766 35.7637
Co 5.35085 24.2901 33.8391
Co 5.41744 24.3198 37.6165
Pd 5.38881 26.2144 12.977
Pd 3.61568 26.2112 14.8736
Pd 3.54495 28.0869 16.747
Pd 5.39044 26.2113 16.7615
Co 5.39989 28.0874 14.8532
Pd 3.46028 26.208 18.6152
Pd 3.43812 28.1097 20.52
Pd 5.30258 26.2081 20.5245
Co 5.33793 28.1169 18.6307
Pd 3.4213 26.2049 22.4225
Pd 3.41261 28.1088 24.3318
Pd 5.2743 26.205 24.3351
Co 5.28243 28.1029 22.4357
Pd 3.40833 26.2017 26.2361
Pd 3.41498 28.1057 28.1435
Pd 5.27666 26.2019 28.1348
Co 5.26953 28.1068 26.2365
Pd 3.42604 26.1986 30.0496
Pd 3.44522 28.1003 31.9553
Pd 5.30967 26.1988 31.9453
Co 5.28715 28.0967 30.0372
Pd 3.46974 26.1956 33.8569
Pd 3.55674 28.0714 35.728
Pd 5.4022 26.1958 35.7082
Co 5.34738 28.1045 33.8422
Pd 3.62979 26.1927 37.5983
Pd 5.40527 26.1927 39.4927
Co 5.41402 28.0688 37.6196
Pd 5.30557 30.0303 16.7061
Pd 3.52657 29.9875 18.6454
Pd 3.51741 31.8916 20.5558
Pd 5.32711 29.9921 20.5529
Co 5.34774 31.8852 18.6576
Pd 3.42877 30.0137 22.4283
Pd 3.43393 31.9168 24.3352
Pd 5.2847 30.0093 24.3325
Co 5.31834 31.9132 22.4349
Pd 3.41897 30.0111 26.2392
Pd 3.43629 31.9137 28.1462
Pd 5.28707 30.0062 28.1436
Co 5.29452 31.8992 26.2396
Pd 3.4335 30.0074 30.0501
Pd 3.52446 31.8823 31.9255
Pd 5.33417 29.9828 31.923
Co 5.32306 31.907 30.0442
Pd 3.536 29.9751 33.8328
Pd 5.31741 30.0147 35.7699
Co 5.35715 31.8728 33.8214
Pd 5.28696 33.8328 20.5142
Pd 3.52284 33.792 22.4615
Pd 3.54218 35.6957 24.3702
Pd 5.33802 33.7917 24.3617
Co 5.35605 35.6838 22.4621
Pd 3.45173 33.8189 26.2423
Pd 3.5445 35.6927 28.1173
Pd 5.34036 33.7886 28.1204
Co 5.37035 35.7155 26.2426
Pd 3.52753 33.7858 30.023
Pd 5.29407 33.8234 31.9681
Co 5.36074 35.6776 30.0231
Pd 5.33168 37.6278 24.3017
Pd 3.61652 37.5642 26.2452
Pd 5.33409 37.6246 28.1867
Co 5.46762 39.4095 26.2456
Co 9.24998 9.21919 26.2186
Pd 7.24215 12.8632 24.2972
Pd 9.10669 10.9873 24.2965
Co 9.14087 12.9065 22.4163
Pd 7.30348 11.0486 26.2213
Pd 7.24454 12.8601 28.1484
Pd 9.10907 10.9842 28.1438
Co 9.10914 12.8669 26.2217
Co 9.14559 12.9003 30.0271
Pd 7.1988 16.6612 20.49
Pd 9.07388 14.7656 20.4713
Co 9.11638 16.707 18.6136
Pd 7.22104 14.7744 22.3679
Pd 7.22218 16.6703 24.3002
Pd 9.09769 14.7653 24.2939
Co 9.08293 16.6548 22.3699
Pd 7.24666 14.7913 26.2244
Pd 7.22457 16.6672 28.1517
Pd 9.10008 14.7622 28.1526
Co 9.11584 16.6726 26.2248
Pd 7.22583 14.7681 30.0809
Pd 7.20593 16.6519 31.9619
Pd 9.08103 14.7562 31.9752
Co 9.08772 16.6485 30.0796
Co 9.12583 16.6946 33.8359
Pd 7.19596 20.4665 16.6906
Pd 9.0623 18.5709 16.6758
Co 9.12134 20.5127 14.813
Pd 7.19284 18.5818 18.5747
Pd 7.19533 20.4758 20.5036
Pd 9.07723 18.5685 20.4826
Co 9.0714 20.4583 18.573
Pd 7.20246 18.5836 22.3929
Pd 7.21747 20.5013 24.3238
Pd 9.10605 18.5756 24.2996
Co 9.10079 20.4842 22.405
Pd 7.24243 18.5863 26.2275
Pd 7.21984 20.4982 28.1343
Pd 9.10844 18.5724 28.1531
Co 9.11526 20.4894 26.2279
Pd 7.20722 18.5774 30.0621
Pd 7.20244 20.4665 31.9545
Pd 9.08436 18.5591 31.9701
Co 9.10554 20.478 30.0507
Pd 7.20234 18.5693 33.8803
Pd 7.2078 20.451 35.7675
Pd 9.07415 18.5553 35.7768
Co 9.0809 20.4458 33.8828
Co 9.13551 20.4941 37.6428
Pd 7.22995 24.2921 12.8966
Pd 9.0815 22.3872 12.8768
Co 9.16085 24.349 11.0372
Pd 7.21033 22.3868 14.7705
Pd 7.22549 24.2774 16.7048
Pd 9.0836 22.369 16.6849
Co 9.09047 24.272 14.777
Pd 7.20043 22.3851 18.5958
Pd 7.21379 24.3071 20.5235
Pd 9.09475 22.3829 20.5013
Co 9.10612 24.293 18.6046
Pd 7.20967 22.4002 22.4276
Pd 7.18648 24.3053 24.3308
Pd 9.10838 22.4021 24.3283
Co 9.10553 24.3024 22.4233
Pd 7.19389 22.4026 26.2306
Pd 7.18884 24.3022 28.1336
Pd 9.11074 22.399 28.1306
Co 9.10187 24.3046 26.231
Pd 7.21439 22.394 30.0337
Pd 7.22087 24.2977 31.9409
Pd 9.10186 22.3736 31.9575
Co 9.11026 24.2962 30.0387
Pd 7.20991 22.3727 33.8654
Pd 7.23732 24.2618 35.7594
Pd 9.09545 22.3534 35.7739
Co 9.11559 24.2806 33.8574
Pd 7.22456 22.368 37.6907
Pd 7.24651 24.2703 39.5677
Pd 9.09808 22.3654 39.5821
Co 9.10469 24.2533 37.685
Co 9.17971 24.3242 41.4247
Pd 9.16558 26.2209 9.17725
Pd 7.31133 26.2177 11.0378
Pd 7.22645 28.1401 12.8997
Pd 9.11365 26.2178 12.9165
Co 9.15744 28.0898 11.0403
Pd 7.24821 26.2146 14.8025
Pd 7.22197 28.1487 16.708
Pd 9.10372 26.2147 16.6979
Co 9.08693 28.1605 14.7802
Pd 7.23516 26.2114 18.6281
Pd 7.21032 28.1127 20.5266
Pd 9.11235 26.2116 20.527
Co 9.10262 28.1333 18.6077
Pd 7.18945 26.2083 22.4309
Pd 7.18302 28.1082 24.3339
Pd 9.0985 26.2085 24.3293
Co 9.10206 28.1176 22.4264
Pd 7.18074 26.2052 26.2338
Pd 7.18538 28.105 28.1367
Pd 9.10086 26.2054 28.1358
Co 9.09841 28.1093 26.2341
Pd 7.19417 26.2021 30.0366
Pd 7.21741 28.1034 31.944
Pd 9.11943 26.2023 31.9381
Co 9.10678 28.1114 30.0418
Pd 7.2446 26.199 33.8393
Pd 7.23379 28.1331 35.7626
Pd 9.11556 26.1992 35.7672
Co 9.11209 28.1208 33.8605
Pd 7.26241 26.1959 37.6649
Pd 7.243 28.1184 39.5708
Pd 9.13018 26.1961 39.5486
Co 9.10115 28.1418 37.6881
Pd 7.3302 26.1929 41.4295
Pd 9.18676 26.1931 43.2878
Co 9.17631 28.065 41.4278
Pd 9.07452 30.0485 12.8831
Pd 7.20336 30.0424 14.7767
Pd 7.18549 31.9594 16.7
Pd 9.0766 30.0604 16.6912
Co 9.11096 31.9198 14.8223
Pd 7.19347 30.0377 18.6021
Pd 7.18489 31.9439 20.513
Pd 9.08778 30.0403 20.5076
Co 9.06092 31.968 18.5824
Pd 7.20274 30.0164 22.4338
Pd 7.20708 31.9122 24.3331
Pd 9.10145 30.0149 24.3345
Co 9.09036 31.9359 22.4144
Pd 7.18697 30.0077 26.2369
Pd 7.20945 31.9091 28.1437
Pd 9.10381 30.0118 28.1369
Co 9.10485 31.9245 26.2372
Pd 7.20746 30.0102 30.0399
Pd 7.19199 31.9346 31.9638
Pd 9.09489 30.0309 31.9638
Co 9.09511 31.9296 30.0601
Pd 7.20295 30.0253 33.8717
Pd 7.19734 31.9439 35.7768
Pd 9.08845 30.0448 35.7802
Co 9.07042 31.9555 33.8922
Pd 7.21759 30.0237 37.697
Pd 9.0911 30.0267 39.5883
Co 9.12513 31.9012 37.6521
Pd 9.04838 33.8584 16.6883
Pd 7.17895 33.841 18.5872
Pd 7.18142 35.7585 20.5056
Pd 9.06331 33.8547 20.4951
Co 9.09907 35.7193 18.6292
Pd 7.18857 33.833 22.4053
Pd 7.20481 35.7432 24.3158
Pd 9.09215 33.8414 24.3121
Co 9.06553 35.7653 22.3855
Pd 7.22856 33.8242 26.2399
Pd 7.2072 35.7401 28.1673
Pd 9.09454 33.8383 28.1655
Co 9.09847 35.7413 26.2403
Pd 7.19333 33.8268 30.0746
Pd 7.18854 35.7492 31.9775
Pd 9.07044 33.8453 31.9826
Co 9.07032 35.759 30.0952
Pd 7.18845 33.8285 33.8928
Pd 9.06023 33.8429 35.7893
Co 9.10852 35.7069 33.8515
Pd 9.05304 37.6576 20.49
Pd 7.20022 37.6423 22.3866
Pd 7.21785 39.5504 24.319
Pd 9.07685 37.6517 24.3126
Co 9.11664 39.5136 22.438
Pd 7.22588 37.6192 26.243
Pd 7.22024 39.5472 28.1702
Pd 9.07924 37.6485 28.1713
Co 9.08485 39.5469 26.2435
Pd 7.205 37.636 30.0996
Pd 9.06018 37.6482 31.9939
Co 9.12137 39.5074 30.0488
Pd 9.07897 41.4297 24.3214
Pd 7.27588 41.362 26.2461
Pd 9.08136 41.4265 28.1686
Co 9.21904 43.1949 26.2464
Co 13.0354 5.46777 26.2132
Pd 11.0156 9.08188 24.2937
Pd 12.8949 7.22077 24.2891
Co 12.932 9.12226 22.4108
Pd 11.0829 7.27603 26.2159
Pd 11.018 9.07874 28.141
Pd 12.8973 7.21762 28.1403
Co 12.898 9.08499 26.2162
Co 12.9367 9.11604 30.0216
Pd 10.9818 12.8472 20.4687
Pd 12.8665 10.9659 20.466
Co 12.9103 12.8971 18.5988
Pd 10.9966 10.9746 22.3626
Pd 10.9937 12.8597 24.2902
Pd 12.8845 10.9723 24.2875
Co 12.8675 12.8488 22.3593
Pd 11.0259 10.9984 26.2189
Pd 10.9961 12.8565 28.1508
Pd 12.8869 10.9692 28.1481
Co 12.8966 12.8724 26.2193
Pd 11.0014 10.9683 30.0752
Pd 10.9889 12.8378 31.9722
Pd 12.8737 10.9565 31.9695
Co 12.8723 12.8425 30.0793
Co 12.9198 12.8847 33.8399
Pd 10.969 16.6484 16.6672
Pd 12.8513 14.7593 16.6597
Co 12.9019 16.6998 14.7978
Pd 10.9749 14.7627 18.5501
Pd 10.976 16.6515 20.4696
Pd 12.8633 14.7547 20.463
Co 12.8536 16.6428 18.5497
Pd 10.9844 14.7603 22.3671
Pd 10.9902 16.6618 24.2979
Pd 12.8825 14.7599 24.2939
Co 12.8816 16.6622 22.3854
Pd 10.9912 14.7574 26.222
Pd 10.9926 16.6587 28.1493
Pd 12.8849 14.7568 28.1478
Co 12.8858 16.6605 26.2224
Pd 10.9892 14.754 30.0769
Pd 10.9831 16.6421 31.9775
Pd 12.8705 14.7453 31.9788
Co 12.8863 16.6559 30.0595
Pd 10.9844 14.7502 33.8939
Pd 10.9809 16.6328 35.7799
Pd 12.8632 14.7437 35.7821
Co 12.8631 16.6303 33.8952
Co 12.9161 16.6811 37.647
Pd 10.9776 20.4604 12.8697
Pd 12.8527 18.5689 12.8622
Co 12.9134 20.5169 11.0064
Pd 10.9706 18.569 14.7512
Pd 10.974 20.4555 16.6724
Pd 12.856 18.556 16.6629
Co 12.8533 20.4505 14.755
Pd 10.9717 18.5609 18.5633
Pd 10.9823 20.4707 20.4858
Pd 12.8751 18.5608 20.4759
Co 12.876 20.4696 18.5802
Pd 10.9871 18.5641 22.3882
Pd 10.9999 20.4798 24.3122
Pd 12.8878 18.5685 24.3075
Co 12.8872 20.474 22.3976
Pd 10.9972 18.5692 26.2251
Pd 11.0023 20.4766 28.1412
Pd 12.8902 18.5654 28.1405
Co 12.8963 20.4757 26.2255
Pd 10.9918 18.5579 30.0621
Pd 10.9894 20.4613 31.9676
Pd 12.8822 18.5515 31.972
Co 12.8919 20.4678 30.0534
Pd 10.9812 18.5484 33.887
Pd 10.9858 20.4399 35.781
Pd 12.8678 18.5403 35.785
Co 12.8855 20.4571 33.8708
Pd 10.9848 18.5502 37.6991
Pd 10.9942 20.4386 39.5837
Pd 12.8693 18.547 39.5858
Co 12.8675 20.4318 37.696
Co 12.9323 20.4921 41.4447
Pd 11.0154 24.3014 9.09787
Pd 12.8768 22.3958 9.08013
Co 12.9615 24.3557 7.25068
Pd 10.9905 22.393 10.9615
Pd 10.9931 24.2836 12.8884
Pd 12.8644 22.3724 12.8748
Co 12.8754 24.2778 10.9789
Pd 10.9779 22.3711 14.768
Pd 10.9822 24.2902 16.6841
Pd 12.8717 22.3749 16.678
Co 12.8781 24.2958 14.7874
Pd 10.9823 22.3753 18.5867
Pd 10.9972 24.2957 20.504
Pd 12.8857 22.3833 20.4957
Co 12.8808 24.2959 18.5914
Pd 10.9967 22.3874 22.4077
Pd 11.0069 24.3019 24.3225
Pd 12.8988 22.3878 24.3146
Co 12.8967 24.299 22.4093
Pd 11.0101 22.3901 26.2283
Pd 11.0092 24.2988 28.1372
Pd 12.9012 22.3847 28.1396
Co 12.9055 24.2987 26.2286
Pd 11.0015 22.3811 30.0488
Pd 11.0043 24.2864 31.9557
Pd 12.8928 22.374 31.9584
Co 12.9014 24.2928 30.048
Pd 10.9918 22.3628 33.8698
Pd 10.9941 24.2747 35.7755
Pd 12.8836 22.3593 35.7761
Co 12.8903 24.2835 33.8658
Pd 10.9921 22.3524 37.6885
Pd 11.0097 24.2618 39.5712
Pd 12.881 22.3506 39.5794
Co 12.8923 24.2771 37.6699
Pd 11.0095 22.3681 41.495
Pd 11.0366 24.2735 43.3617
Pd 12.8981 22.3678 43.374
Co 12.8943 24.2529 41.4784
Co 12.9851 24.3247 45.2066
Pd 12.9911 26.2275 5.38444
Pd 11.1147 26.2243 7.23893
Pd 11.0119 28.1439 9.10101
Pd 12.9041 26.2244 9.12905
Co 12.9581 28.0962 7.25373
Pd 11.0245 26.2211 11.0004
Pd 10.9896 28.1556 12.8915
Pd 12.8824 26.2213 12.8925
Co 12.8719 28.1678 10.9821
Pd 10.9886 26.218 14.792
Pd 10.9787 28.1426 16.6872
Pd 12.8774 26.2182 16.6942
Co 12.8745 28.1436 14.7906
Pd 10.9915 26.2149 18.5992
Pd 10.9937 28.131 20.5071
Pd 12.8888 26.2151 20.5033
Co 12.8773 28.1373 18.5946
Pd 11.0053 26.2118 22.4194
Pd 11.0034 28.1185 24.3256
Pd 12.9033 26.212 24.3231
Co 12.8932 28.128 22.4124
Pd 11.0051 26.2087 26.2314
Pd 11.0058 28.1154 28.1403
Pd 12.9057 26.2088 28.1373
Co 12.902 28.1221 26.2318
Pd 11.01 26.2056 30.0433
Pd 11.0008 28.1216 31.9588
Pd 12.896 26.2057 31.9571
Co 12.8979 28.1217 30.0511
Pd 11.001 26.2024 33.8636
Pd 10.9906 28.1271 35.7787
Pd 12.8893 26.2026 35.7663
Co 12.8868 28.1248 33.869
Pd 11.0028 26.1993 37.6707
Pd 11.0062 28.1338 39.5744
Pd 12.899 26.1995 39.5679
Co 12.8888 28.1249 37.673
Pd 11.0434 26.1963 41.4623
Pd 11.0331 28.1159 43.3649
Pd 12.9253 26.1964 43.3313
Co 12.8908 28.1429 41.4815
Pd 11.1383 26.1933 45.2237
Pd 13.017 26.1935 47.0758
Co 12.9817 28.0652 45.2096
Pd 12.8699 30.053 9.08639
Pd 10.9836 30.0492 10.9678
Pd 10.9671 31.9787 12.8791
Pd 12.8574 30.0701 12.881
Co 12.903 31.9288 11.0157
Pd 10.9709 30.0649 14.7743
Pd 10.9635 31.9774 16.6818
Pd 12.8647 30.0615 16.6843
Co 12.8428 31.989 14.7645
Pd 10.9753 30.0545 18.593
Pd 10.9718 31.9559 20.4951
Pd 12.8787 30.0468 20.502
Co 12.8655 31.9637 18.5896
Pd 10.9898 30.0362 22.4139
Pd 10.9895 31.9407 24.3215
Pd 12.8919 30.0361 24.3208
Co 12.8767 31.953 22.407
Pd 11.0032 30.0272 26.2345
Pd 10.9919 31.9375 28.1506
Pd 12.8943 30.033 28.1459
Co 12.8859 31.9451 26.2349
Pd 10.9945 30.0299 30.0551
Pd 10.979 31.9466 31.977
Pd 12.8858 30.0374 31.9647
Co 12.8815 31.9468 30.0628
Pd 10.9848 30.042 33.8761
Pd 10.9753 31.9618 35.7904
Pd 12.8766 30.0459 35.7824
Co 12.875 31.9512 33.8802
Pd 10.9851 30.0461 37.6948
Pd 10.9837 31.9569 39.5931
Pd 12.874 30.0483 39.5857
Co 12.857 31.9702 37.7054
Pd 11.0025 30.0243 41.5013
Pd 12.8912 30.025 43.3803
Co 12.9219 31.9039 41.454
Pd 12.8387 33.8737 12.8747
Pd 10.9566 33.867 14.7637
Pd 10.9516 35.7844 16.6829
Pd 12.842 33.8804 16.6754
Co 12.8846 35.7397 14.8134
Pd 10.9577 33.8688 18.5758
Pd 10.9586 35.7751 20.4853
Pd 12.8611 33.8693 20.4885
Co 12.8362 35.7904 18.5653
Pd 10.9731 33.8594 22.4007
Pd 10.9728 35.7586 24.3135
Pd 12.8739 33.8554 24.32
Co 12.8642 35.7648 22.401
Pd 10.9833 33.8481 26.2376
Pd 10.9752 35.7555 28.1649
Pd 12.8763 33.8523 28.153
Co 12.8684 35.7603 26.238
Pd 10.9779 33.8532 30.0746
Pd 10.9657 35.7657 31.9932
Pd 12.8683 33.8599 31.9845
Co 12.8689 35.7585 30.0751
Pd 10.9672 33.8563 33.8995
Pd 10.9634 35.7688 35.7956
Pd 12.8539 33.8647 35.7976
Co 12.8457 35.7779 33.9108
Pd 10.9709 33.8483 37.7116
Pd 12.8553 33.8518 39.5983
Co 12.8987 35.721 37.6626
Pd 12.8305 37.677 16.6784
Pd 10.9541 37.6671 18.5689
Pd 10.9575 39.5795 20.4906
Pd 12.8425 37.6754 20.4817
Co 12.886 39.5361 18.6205
Pd 10.9635 37.6632 22.3859
Pd 10.9694 39.5608 24.312
Pd 12.8616 37.6639 24.3126
Co 12.8431 39.5782 22.3812
Pd 10.9703 37.6599 26.2408
Pd 10.9718 39.5576 28.1726
Pd 12.864 37.6608 28.1666
Co 12.8723 39.5483 26.2411
Pd 10.9683 37.657 30.0956
Pd 10.9646 39.5701 31.9941
Pd 12.8496 37.666 31.9975
Co 12.8479 39.5719 30.1011
Pd 10.9636 37.6546 33.9127
Pd 12.8423 37.6613 35.8008
Co 12.8955 39.5236 33.8617
Pd 12.8388 41.4642 20.4909
Pd 10.9689 41.449 22.3875
Pd 10.9844 43.3386 24.3217
Pd 12.8567 41.4515 24.3124
Co 12.9009 43.3048 22.4388
Pd 10.9982 41.419 26.2438
Pd 10.9868 43.3354 28.169
Pd 12.8591 41.4484 28.173
Co 12.8668 43.3358 26.2442
Pd 10.9737 41.4427 30.1001
Pd 12.8459 41.4548 31.9944
Co 12.9056 43.2986 30.0496
Pd 12.8603 45.2031 24.3202
Pd 11.0484 45.1414 26.2468
Pd 12.8627 45.2 28.1713
Co 12.9976 46.9532 26.2471
Pd 14.8175 5.33462 24.2695
Pd 16.7495 3.54502 24.3358
Co 16.7618 5.36163 22.4303
Pd 14.8807 3.61667 26.2105
Pd 14.8199 5.33145 28.1545
Pd 16.7519 3.54196 28.0829
Co 16.7293 5.3705 26.2108
Co 16.7665 5.35546 29.9913
Pd 14.7885 9.06146 20.4631
Pd 16.6875 7.18981 20.4764
Co 16.7271 9.11016 18.6027
Pd 14.8033 7.20591 22.357
Pd 14.7936 9.07977 24.2857
Pd 16.702 7.20773 24.2866
Co 16.6804 9.07122 22.359
Pd 14.8257 7.22603 26.2135
Pd 14.796 9.07662 28.1444
Pd 16.7044 7.20459 28.1381
Co 16.7036 9.09862 26.2139
Pd 14.8081 7.19961 30.07
Pd 14.7956 9.05206 31.967
Pd 16.6946 7.18044 31.9482
Co 16.6852 9.06492 30.0687
Co 16.7365 9.09773 33.825
Pd 14.7698 12.8444 16.6569
Pd 16.6623 10.9655 16.6591
Co 16.7075 12.9011 14.7923
Pd 14.7793 10.9652 18.5447
Pd 14.7706 12.8509 20.4602
Pd 16.6709 10.967 20.4615
Co 16.656 12.8473 18.5442
Pd 14.7824 10.9692 22.3617
Pd 14.7813 12.8645 24.2912
Pd 16.6867 10.9757 24.2897
Co 16.6809 12.8698 22.3799
Pd 14.785 10.9704 26.2166
Pd 14.7837 12.8614 28.1451
Pd 16.6891 10.9726 28.1411
Co 16.6846 12.8685 26.217
Pd 14.7872 10.9629 30.0715
Pd 14.7778 12.8415 31.976
Pd 16.678 10.9576 31.9694
Co 16.6856 12.8636 30.054
Pd 14.7888 10.9527 33.8885
Pd 14.7817 12.8287 35.7793
Pd 16.6742 10.9499 35.7718
Co 16.6655 12.8348 33.8897
Co 16.7216 12.8825 37.6416
Pd 14.766 16.6508 12.8583
Pd 16.6523 14.7679 12.8556
Co 16.7089 16.7136 10.9961
Pd 14.766 14.7618 14.7406
Pd 14.7596 16.6467 16.6576
Pd 16.6537 14.7561 16.6549
Co 16.6463 16.6455 14.7461
Pd 14.7641 14.7544 18.5498
Pd 14.7689 16.6581 20.4713
Pd 16.6706 14.7599 20.4686
Co 16.669 16.6627 18.5706
Pd 14.7728 14.7576 22.3789
Pd 14.7828 16.6642 24.3036
Pd 16.6821 14.7683 24.3008
Co 16.678 16.6662 22.3895
Pd 14.7841 14.7634 26.2197
Pd 14.7852 16.661 28.1389
Pd 16.6845 14.7652 28.1362
Co 16.6858 16.6686 26.2201
Pd 14.7776 14.7513 30.0605
Pd 14.776 16.6487 31.9712
Pd 16.6777 14.7505 31.9684
Co 16.6827 16.66 30.0506
Pd 14.7736 14.7419 33.8895
Pd 14.7715 16.6311 35.7849
Pd 16.6656 14.7405 35.7822
Co 16.6785 16.6502 33.8696
Pd 14.7802 14.743 37.6988
Pd 14.7826 16.6289 39.5841
Pd 16.6689 14.7461 39.5814
Co 16.6605 16.6267 37.694
Co 16.7278 16.6887 41.4441
Pd 14.784 20.4715 9.07495
Pd 16.6687 18.5905 9.0654
Co 16.7408 20.543 7.22035
Pd 14.7732 18.5756 10.947
Pd 14.7631 20.4579 12.8695
Pd 16.6523 18.5627 12.8654
Co 16.6552 20.4601 10.9658
Pd 14.7586 18.5577 14.7543
Pd 14.7634 20.4666 16.6719
Pd 16.6627 18.5611 16.6687
Co 16.665 20.4724 14.7798
Pd 14.7656 18.5592 18.5708
Pd 14.7796 20.4738 20.489
Pd 16.6759 18.5699 20.4857
Co 16.6722 20.4749 18.5841
Pd 14.7807 18.5677 22.3934
Pd 14.7898 20.4768 24.3112
Pd 16.6857 18.5731 24.3082
Co 16.6851 20.4797 22.401
Pd 14.7871 18.5675 26.2228
Pd 14.7922 20.4737 28.1375
Pd 16.6881 18.57 28.135
Co 16.6909 20.4788 26.2232
Pd 14.7855 18.5615 30.0522
Pd 14.7867 20.4645 31.9597
Pd 16.683 18.5606 31.9575
Co 16.6899 20.4735 30.0453
Pd 14.7751 18.5467 33.8747
Pd 14.7753 20.451 35.7768
Pd 16.6745 18.5455 35.7745
Co 16.6817 20.4624 33.8623
Pd 14.7728 18.539 37.6913
Pd 14.7797 20.4361 39.5792
Pd 16.6689 18.5409 39.5778
Co 16.6792 20.4537 37.6665
Pd 14.7921 18.5506 41.4986
Pd 14.8053 20.4435 43.3737
Pd 16.69 18.5625 43.3779
Co 16.6741 20.4352 41.4806
Co 16.7644 20.5119 45.226
Pd 14.8366 24.3087 5.34047
Pd 16.7297 22.4252 5.30876
Co 16.8264 24.3877 3.60475
Pd 14.8077 22.3992 7.17755
Pd 14.7915 24.2893 9.10492
Pd 16.6738 22.384 9.09819
Co 16.6945 24.2849 7.21921
Pd 14.7712 22.3764 10.9746
Pd 14.7676 24.2954 12.8861
Pd 16.6646 22.3805 12.8859
Co 16.6759 24.303 11.0058
Pd 14.7642 22.3766 14.779
Pd 14.7725 24.2991 16.6895
Pd 16.6697 22.3865 16.6891
Co 16.6674 24.301 14.7939
Pd 14.7757 22.3843 18.5878
Pd 14.784 24.3007 20.4987
Pd 16.6819 22.3897 20.4971
Co 16.6769 24.3036 18.5967
Pd 14.7894 22.3869 22.4038
Pd 14.7974 24.2998 24.3168
Pd 16.692 22.3898 24.3145
Co 16.6888 24.3028 22.4075
Pd 14.7962 22.386 26.2259
Pd 14.7998 24.2967 28.1381
Pd 16.6943 22.3867 28.135
Co 16.6962 24.3004 26.2263
Pd 14.7941 22.3807 30.048
Pd 14.7911 24.2913 31.9562
Pd 16.689 22.3804 31.9524
Co 16.6936 24.2966 30.045
Pd 14.7852 22.3718 33.864
Pd 14.7844 24.2835 35.7654
Pd 16.6815 22.371 35.7603
Co 16.6864 24.2911 33.8559
Pd 14.7784 22.3579 37.6728
Pd 14.7842 24.2736 39.5688
Pd 16.6812 22.3587 39.5636
Co 16.6816 24.2823 37.6587
Pd 14.7901 22.3515 41.4772
Pd 14.8127 24.2614 43.35
Pd 16.6951 22.3561 43.3512
Co 16.6948 24.2781 41.4468
Pd 14.8314 22.3681 45.2742
Pd 14.8625 24.2746 47.1144
Pd 16.7557 22.391 47.1407
Co 16.7181 24.2538 45.2333
Co 16.8545 24.3508 48.8478
Pd 15.0177 26.2309 3.5155
Pd 14.8331 28.1497 5.34361
Pd 16.7535 26.2309 5.42452
Co 16.823 28.0772 3.60776
Pd 14.8252 26.2277 7.23088
Pd 14.7879 28.1629 9.10808
Pd 16.6882 26.2278 9.11855
Co 16.691 28.1739 7.22238
Pd 14.7804 26.2245 11.002
Pd 14.7641 28.1506 12.8893
Pd 16.6691 26.2247 12.9049
Co 16.6724 28.1496 11.0089
Pd 14.7723 26.2214 14.7932
Pd 14.769 28.1407 16.6927
Pd 16.6713 26.2216 16.6984
Co 16.6639 28.1454 14.7971
Pd 14.7775 26.2183 18.5966
Pd 14.7805 28.1329 20.5019
Pd 16.6821 26.2185 20.5038
Co 16.6734 28.1366 18.5998
Pd 14.7908 26.2152 22.4096
Pd 14.7939 28.1275 24.32
Pd 16.6933 26.2154 24.3179
Co 16.6853 28.1311 22.4107
Pd 14.8012 26.2121 26.229
Pd 14.7963 28.1244 28.1412
Pd 16.6957 26.2123 28.1378
Co 16.6927 28.1273 26.2294
Pd 14.7955 26.209 30.0484
Pd 14.7877 28.1236 31.9593
Pd 16.6892 26.2092 31.9519
Co 16.6901 28.1248 30.0482
Pd 14.787 26.2059 33.8615
Pd 14.7809 28.1251 35.7686
Pd 16.6831 26.2061 35.7573
Co 16.6829 28.1241 33.859
Pd 14.7865 26.2028 37.6649
Pd 14.7807 28.1288 39.572
Pd 16.6857 26.203 39.5508
Co 16.6781 28.1267 37.6618
Pd 14.7993 26.1997 41.456
Pd 14.8092 28.1349 43.3531
Pd 16.7095 26.1999 43.3372
Co 16.6913 28.1247 41.4499
Pd 14.8488 26.1966 45.2271
Pd 14.859 28.1156 47.1175
Pd 16.7794 26.1969 47.0311
Co 16.7146 28.1429 45.2365
Pd 15.0459 26.1938 48.9423
Co 16.8511 28.0403 48.8508
Pd 16.7228 30.0368 5.31498
Pd 14.8007 30.0562 7.18381
Pd 14.7735 31.9807 9.08435
Pd 16.6668 30.0716 9.10448
Co 16.7305 31.9159 7.22964
Pd 14.7642 30.0727 10.9809
Pd 14.7526 31.9881 12.8789
Pd 16.6576 30.069 12.8922
Co 16.6447 31.9925 10.9752
Pd 14.7572 30.0663 14.7853
Pd 14.753 31.9732 16.6813
Pd 16.6627 30.0567 16.6954
Co 16.6546 31.9739 14.7892
Pd 14.7687 30.0524 18.5941
Pd 14.7692 31.9597 20.4984
Pd 16.6749 30.0473 20.5033
Co 16.6618 31.9653 18.5934
Pd 14.7824 30.0435 22.41
Pd 14.7793 31.9506 24.3206
Pd 16.685 30.041 24.3207
Co 16.6747 31.9542 22.4104
Pd 14.7892 30.0382 26.2322
Pd 14.7817 31.9474 28.1469
Pd 16.6874 30.0379 28.1412
Co 16.6805 31.9489 26.2325
Pd 14.7871 30.0373 30.0543
Pd 14.7763 31.9504 31.9691
Pd 16.682 30.0379 31.9586
Co 16.6794 31.948 30.0547
Pd 14.7782 30.0399 33.8703
Pd 14.7648 31.9576 35.7862
Pd 16.6745 30.0411 35.7666
Co 16.6712 31.9528 33.8717
Pd 14.7714 30.0476 37.6791
Pd 14.7692 31.9663 39.5886
Pd 16.6742 30.0472 39.5698
Co 16.6688 31.9552 37.6759
Pd 14.7831 30.0478 41.4835
Pd 14.7948 31.9527 43.3831
Pd 16.6881 30.0436 43.3575
Co 16.6636 31.9676 41.49
Pd 14.8244 30.0251 45.2805
Pd 16.7487 30.0026 47.1469
Co 16.7541 31.8848 45.2353
Pd 16.6548 33.8652 9.07788
Pd 14.7593 33.8736 10.9595
Pd 14.7486 35.7952 12.874
Pd 16.6383 33.8867 12.878
Co 16.6916 35.739 11.0116
Pd 14.7446 33.8852 14.7668
Pd 14.7422 35.7931 16.6732
Pd 16.6487 33.8822 16.6812
Co 16.6288 35.8009 14.7617
Pd 14.7516 33.8775 18.5834
Pd 14.7515 35.7755 20.4869
Pd 16.662 33.8671 20.4982
Co 16.6516 35.7774 18.5862
Pd 14.7668 33.8627 22.4059
Pd 14.7654 35.7632 24.3192
Pd 16.6718 33.8577 24.3207
Co 16.6606 35.7677 22.4051
Pd 14.7732 33.8567 26.2353
Pd 14.7678 35.76 28.1545
Pd 16.6741 33.8546 28.1475
Co 16.6685 35.7591 26.2357
Pd 14.7715 33.8565 30.0647
Pd 14.7586 35.7661 31.9868
Pd 16.6691 33.8577 31.97
Co 16.6653 35.7614 30.0662
Pd 14.7611 33.865 33.8873
Pd 14.7541 35.7774 35.8005
Pd 16.6606 33.8666 35.7871
Co 16.6611 35.7649 33.8852
Pd 14.7589 33.8664 37.7038
Pd 14.7652 35.7734 39.5998
Pd 16.6549 33.8649 39.5903
Co 16.6431 35.7821 37.7097
Pd 14.7782 33.8486 41.5111
Pd 16.6761 33.8372 43.3903
Co 16.7105 35.7141 41.4596
Pd 16.6314 37.6815 12.8743
Pd 14.7451 37.6812 14.7593
Pd 14.7455 39.5954 16.6788
Pd 16.6328 37.6872 16.6736
Co 16.6832 39.5452 14.8141
Pd 14.7432 37.6823 18.5686
Pd 14.7463 39.5827 20.4821
Pd 16.6497 37.6771 20.4873
Co 16.6317 39.5928 18.5661
Pd 14.752 37.6728 22.3976
Pd 14.757 39.5628 24.313
Pd 16.6613 37.6625 24.3195
Co 16.6565 39.5641 22.4017
Pd 14.7633 37.6608 26.2384
Pd 14.7594 39.5597 28.1669
Pd 16.6636 37.6593 28.1549
Co 16.6603 39.5591 26.2388
Pd 14.7567 37.6666 30.0792
Pd 14.7534 39.5733 31.9979
Pd 16.6568 37.6677 31.9871
Co 16.6613 39.5578 30.0758
Pd 14.7527 37.6698 33.9083
Pd 14.7573 39.5798 35.8012
Pd 16.6447 37.6715 35.8009
Co 16.6412 39.5803 33.9116
Pd 14.7594 37.6624 37.7175
Pd 16.648 37.6597 39.6001
Co 16.6974 39.5266 37.6634
Pd 16.6345 41.4778 16.684
Pd 14.7515 41.4715 18.5696
Pd 14.7572 43.3721 20.4911
Pd 16.6431 41.47 20.4864
Co 16.6959 43.33 18.6307
Pd 14.7546 41.4613 22.3866
Pd 14.7624 43.3476 24.3137
Pd 16.6589 41.4551 24.3146
Co 16.6492 43.3627 22.387
Pd 14.7572 41.4537 26.2415
Pd 14.7648 43.3444 28.1724
Pd 16.6613 41.4519 28.166
Co 16.6725 43.3291 26.2418
Pd 14.7594 41.455 30.0964
Pd 14.7644 43.3627 31.995
Pd 16.6503 41.4606 31.9943
Co 16.6539 43.3564 30.0967
Pd 14.7611 41.459 33.9134
Pd 16.6464 41.4622 35.7967
Co 16.7054 43.3176 33.853
Pd 16.6528 45.2472 20.5075
Pd 14.7687 45.2246 22.3881
Pd 14.7794 47.0928 24.3036
Pd 16.6674 45.2231 24.3176
Co 16.7239 47.0723 22.4643
Pd 14.7912 45.1982 26.2445
Pd 14.7818 47.0896 28.1886
Pd 16.6698 45.22 28.1692
Co 16.6914 47.0572 26.2449
Pd 14.7735 45.2183 30.1011
Pd 16.66 45.2379 31.9793
Co 16.7285 47.0662 30.0254
Pd 16.7083 48.8858 24.3728
Pd 14.8395 48.8077 26.2475
Pd 16.7106 48.8827 28.1199
Pd 18.6132 5.29534 20.4826
Pd 20.5544 3.52573 20.522
Co 20.5612 5.35879 18.6265
Pd 18.6537 3.52842 22.4274
Pd 18.6536 5.34088 24.3302
Pd 20.5284 3.43682 24.3014
Co 20.5324 5.32396 22.4038
Pd 18.626 3.45188 26.2081
Pd 18.6559 5.33781 28.0889
Pd 20.5308 3.43371 28.1124
Co 20.5457 5.29467 26.2084
Pd 18.6583 3.52225 29.9889
Pd 18.6204 5.28599 31.9365
Pd 20.5615 3.51644 31.8918
Co 20.5372 5.31774 30.013
Co 20.5706 5.34641 33.7903
Pd 18.5883 9.06225 16.6622
Pd 20.4873 7.19935 16.6715
Co 20.5273 9.12751 14.7966
Pd 18.6054 7.1901 18.5583
Pd 18.5914 9.07171 20.4689
Pd 20.5021 7.19327 20.4845
Co 20.4784 9.07207 18.5566
Pd 18.6126 7.19424 22.3765
Pd 18.6039 9.09507 24.2859
Pd 20.533 7.20997 24.3047
Co 20.5098 9.09601 22.3886
Pd 18.6207 7.22871 26.2112
Pd 18.6062 9.09192 28.1394
Pd 20.5354 7.20686 28.1152
Co 20.5204 9.105 26.2115
Pd 18.6174 7.18797 30.0458
Pd 18.5985 9.06233 31.9564
Pd 20.5092 7.18392 31.9354
Co 20.5145 9.08977 30.0344
Pd 18.6149 7.1776 33.8639
Pd 18.6002 9.04666 35.7632
Pd 20.4992 7.18378 35.7484
Co 20.4879 9.05957 33.8664
Co 20.5415 9.10887 37.6264
Pd 18.5739 12.8581 12.854
Pd 20.4688 10.9865 12.856
Co 20.5191 12.925 10.9955
Pd 18.5801 10.9733 14.7402
Pd 18.5664 12.8559 16.6547
Pd 20.4693 10.9774 16.6587
Co 20.4582 12.8594 14.7441
Pd 18.5776 10.9689 18.5523
Pd 18.5768 12.8695 20.4678
Pd 20.4901 10.9802 20.4721
Co 20.4827 12.8767 18.5693
Pd 18.5862 10.9788 22.3773
Pd 18.5899 12.8768 24.2993
Pd 20.5046 10.9924 24.2985
Co 20.4926 12.8824 22.3867
Pd 18.5968 10.9835 26.2142
Pd 18.5923 12.8737 28.1323
Pd 20.507 10.9893 28.1276
Co 20.4998 12.886 26.2146
Pd 18.591 10.9725 30.0511
Pd 18.5839 12.8601 31.9638
Pd 20.4972 10.9709 31.954
Co 20.4974 12.8761 30.0425
Pd 18.5871 10.9564 33.8761
Pd 18.5783 12.8403 35.7768
Pd 20.4812 10.9617 35.7674
Co 20.4922 12.8642 33.8599
Pd 18.5944 10.9545 37.6882
Pd 18.5904 12.8363 39.5775
Pd 20.4854 10.9647 39.5701
Co 20.4724 12.8407 37.6851
Co 20.538 12.9002 41.4337
Pd 18.5831 16.6796 9.06265
Pd 20.4675 14.7983 9.06679
Co 20.5328 16.758 7.21491
Pd 18.5743 14.7814 10.9415
Pd 18.5608 16.6577 12.8627
Pd 20.4594 14.772 12.8613
Co 20.4554 16.6668 10.9603
Pd 18.562 14.7613 14.7488
Pd 18.5646 16.6626 16.666
Pd 20.4736 14.7668 16.6637
Co 20.4732 16.6711 14.7743
Pd 18.5689 14.7628 18.5654
Pd 18.5789 16.6704 20.483
Pd 20.4863 14.7776 20.4808
Co 20.4811 16.6729 18.5786
Pd 18.5829 14.7724 22.3879
Pd 18.5876 16.6747 24.3055
Pd 20.4947 14.7822 24.303
Co 20.4914 16.6803 22.3955
Pd 18.5882 14.7734 26.2173
Pd 18.5899 16.6715 28.1323
Pd 20.4971 14.7791 28.1293
Co 20.496 16.6806 26.2177
Pd 18.5877 14.7662 30.0467
Pd 18.5861 16.661 31.9548
Pd 20.4934 14.7682 31.9515
Co 20.4962 16.6741 30.0399
Pd 18.5784 14.7503 33.8693
Pd 18.5765 16.647 35.7718
Pd 20.4854 14.7512 35.7686
Co 20.4906 16.6604 33.8568
Pd 18.5762 14.7425 37.6858
Pd 18.5774 16.6359 39.5751
Pd 20.476 14.7501 39.571
Co 20.4874 16.6525 37.6611
Pd 18.5933 14.7564 41.4931
Pd 18.6044 16.6516 43.3751
Pd 20.4888 14.7703 43.3656
Co 20.4743 16.6418 41.4751
Co 20.5563 16.7269 45.2206
Pd 18.631 20.5365 5.29344
Pd 20.5201 18.6509 5.29073
Co 20.6008 20.6233 3.57205
Pd 18.6044 18.6181 7.15495
Pd 18.5802 20.4803 9.09255
Pd 20.4694 18.5945 9.08984
Co 20.4869 20.504 7.19719
Pd 18.5652 18.5733 10.9673
Pd 18.5637 20.4746 12.8852
Pd 20.4693 18.5726 12.8825
Co 20.4783 20.4899 11.0048
Pd 18.5622 18.5648 14.7742
Pd 18.5722 20.4782 16.6873
Pd 20.4782 18.5755 16.6845
Co 20.4751 20.4812 14.7945
Pd 18.5752 18.5724 18.5821
Pd 18.5828 20.4828 20.4949
Pd 20.4883 18.5808 20.4922
Co 20.485 20.4856 18.5946
Pd 18.5852 18.5769 22.3981
Pd 18.5915 20.4843 24.3118
Pd 20.4953 18.5839 24.3091
Co 20.4934 20.4886 22.4038
Pd 18.5908 18.5771 26.2204
Pd 18.5939 20.4812 28.1322
Pd 20.4977 18.5808 28.1294
Co 20.4984 20.4881 26.2208
Pd 18.5899 18.5707 30.0428
Pd 18.5899 20.4734 31.9491
Pd 20.4954 18.5714 31.9463
Co 20.4982 20.4824 30.0378
Pd 18.5846 18.5599 33.8587
Pd 18.584 20.4626 35.7567
Pd 20.4901 18.56 35.754
Co 20.4944 20.4732 33.8471
Pd 18.5764 18.5461 37.6666
Pd 18.5803 20.4529 39.5587
Pd 20.4858 18.5508 39.556
Co 20.4892 20.4625 37.6471
Pd 18.5841 18.5484 41.4736
Pd 18.6015 20.4523 43.3514
Pd 20.4907 18.5666 43.3487
Co 20.4972 20.4651 41.4368
Pd 18.628 18.5869 45.2859
Pd 18.657 20.5024 47.1505
Pd 20.5461 18.6167 47.1478
Co 20.5106 20.4729 45.2444
Co 20.6289 20.5863 48.8696
Pd 18.7349 22.5377 3.44748
Pd 18.6505 24.3412 5.38525
Pd 20.542 22.4538 5.36816
Co 20.5553 24.3643 3.5208
Pd 18.6032 22.4042 7.21222
Pd 18.5854 24.305 9.12709
Pd 20.491 22.4041 9.12121
Co 20.5264 24.3343 7.25624
Pd 18.5723 22.3862 11.0035
Pd 18.5711 24.3059 12.908
Pd 20.4767 22.395 12.912
Co 20.4832 24.3104 11.0306
Pd 18.57 22.3897 14.7958
Pd 18.574 24.3063 16.7001
Pd 20.4807 22.395 16.7015
Co 20.4777 24.3098 14.8124
Pd 18.5787 22.3922 18.5962
Pd 18.5849 24.3062 20.5035
Pd 20.4902 22.3972 20.5028
Co 20.4851 24.309 18.605
Pd 18.5892 22.3938 22.4062
Pd 18.5938 24.3046 24.3165
Pd 20.4974 22.3973 24.3144
Co 20.4942 24.3084 22.4103
Pd 18.5951 22.3922 26.2236
Pd 18.5961 24.3015 28.1338
Pd 20.4998 22.3941 28.1304
Co 20.4991 24.3061 26.2239
Pd 18.594 22.3875 30.0409
Pd 18.592 24.2969 31.9467
Pd 20.4973 22.3878 31.9419
Co 20.4989 24.3021 30.0375
Pd 18.5882 22.3798 33.851
Pd 18.5858 24.2907 35.7501
Pd 20.4926 22.3794 35.7433
Co 20.4946 24.2966 33.8428
Pd 18.5842 22.371 37.6513
Pd 18.5876 24.2841 39.5422
Pd 20.4932 22.3733 39.5328
Co 20.4918 24.2912 37.6355
Pd 18.5912 22.3613 41.4436
Pd 18.6066 24.2771 43.3231