4033
Atoms. Timestep: 20296
Co 5.37881 16.691 26.2044
Pd 5.31247 14.7731 24.4678
Pd 7.15935 14.6925 22.4208
Co 3.63613 18.6659 22.4554
Pd 3.45733 18.5799 26.2632
Pd 5.28022 18.501 31.8958
Pd 5.35188 14.7837 27.9582
Co 3.71948 16.7139 28.0255
Co 5.36554 16.6549 29.9135
Pd 3.50008 22.359 18.6923
Pd 5.87211 16.9485 18.4143
Co 3.63168 20.4633 20.6431
Pd 3.53091 16.7493 24.3951
Pd 5.30286 18.5239 20.4999
Pd 5.34532 18.6021 24.3532
Co 5.32711 20.472 22.4402
Pd 3.52739 18.5092 29.9319
Pd 3.4264 20.4303 24.309
Pd 5.37171 18.5963 28.086
Co 5.29535 20.4833 26.2271
Pd 3.38265 24.2469 28.1495
Pd 3.50132 20.4271 31.864
Pd 9.07856 12.7788 30.0174
Co 5.31432 20.4363 30.0156
Co 5.32298 20.4477 33.769
Pd 5.39669 26.2006 13.046
Pd 5.28869 22.3481 16.7096
Co 5.3781 24.3266 14.8941
Pd 3.56221 24.271 16.8094
Pd 3.41643 24.2739 20.5138
Pd 5.31284 22.383 20.5521
Co 5.30874 24.2729 18.6464
Pd 3.41909 22.3342 22.4002
Pd 3.38254 24.236 24.3309
Pd 5.26693 22.3627 24.3324
Co 5.25652 24.2668 22.4433
Pd 3.39688 22.3381 26.2325
Pd 3.42471 20.4519 28.1442
Pd 5.27143 22.3548 28.137
Co 5.23995 24.2544 26.2432
Pd 3.40406 22.3377 30.035
Pd 3.40718 24.2215 31.939
Pd 5.30666 22.3471 31.8983
Co 5.25522 24.2527 30.035
Pd 3.50365 22.3314 33.7992
Pd 3.50674 24.2297 35.7052
Pd 5.28271 22.3046 35.7474
Co 5.31102 24.2127 33.8271
Co 5.35479 24.2492 37.5926
Pd 9.10133 26.2134 9.23508
Pd 7.24456 26.3479 11.1225
Pd 5.31823 28.0994 14.8364
Pd 5.23919 26.2462 16.7101
Co 7.28375 28.0018 13.153
Pd 3.47169 26.2079 18.6466
Pd 3.40239 28.0646 20.5932
Pd 5.27341 26.1693 20.5634
Co 5.29314 28.0732 18.6513
Pd 3.37844 26.1454 22.4486
Pd 3.36555 28.0545 24.3532
Pd 5.23989 26.1567 24.3497
Co 5.24853 28.0545 22.4693
Pd 3.36974 26.1426 26.2438
Pd 3.36797 28.0386 28.159
Pd 5.237 26.154 28.1523
Co 5.23024 28.0517 26.2525
Pd 3.38177 26.1597 30.0758
Pd 3.42489 28.0643 32.0007
Pd 5.26962 26.1346 31.9453
Co 5.23748 28.0544 30.0635
Pd 3.42484 26.0918 33.8396
Pd 3.52107 27.9845 35.6703
Pd 5.35702 26.1121 35.6939
Co 5.30229 28.0359 33.8372
Pd 3.56019 26.128 37.5557
Pd 5.33465 26.1131 39.4605
Co 5.3444 27.9944 37.5884
Pd 5.24905 29.9418 16.7814
Pd 3.50115 29.9031 18.6984
Pd 3.46501 31.83 20.5876
Pd 5.28677 29.9476 20.5992
Co 5.28872 31.827 18.6904
Pd 3.38285 29.9826 22.4791
Pd 3.42046 31.874 24.4056
Pd 5.24919 29.9359 24.3601
Co 5.27831 31.8639 22.4867
Pd 3.34502 29.9348 26.2788
Pd 3.52305 33.7746 30.067
Pd 5.25081 29.9287 28.1523
Co 5.35333 33.7713 28.1441
Pd 3.37173 29.9459 30.033
Pd 5.23632 29.9283 31.9938
Pd 5.32025 31.8719 29.9927
Co 7.19873 31.8816 28.1547
Pd 5.23425 31.8742 33.847
Pd 5.24401 29.9125 35.7008
Co 5.31898 33.7502 31.9074
Pd 5.21813 33.7722 20.5362
Pd 5.30291 31.87 26.3084
Pd 7.10588 35.7204 20.5464
Pd 3.37154 31.9629 28.1348
Co 5.27668 33.7405 24.3642
Pd 3.47925 31.873 31.8887
Pd 5.27366 39.2503 26.2661
Pd 3.50321 35.4714 28.1191
Co 3.58994 33.7248 26.241
Pd 5.25096 37.4521 28.1906
Pd 7.09704 35.6939 31.9472
Co 5.34336 35.5671 29.9778
Pd 7.10605 37.6205 22.4543
Pd 5.21087 35.6729 22.5573
Pd 7.12752 39.4618 28.1674
Co 5.40537 37.5502 24.3927
Co 11.2374 7.39503 26.1911
Pd 7.2686 12.8318 24.3207
Pd 11.0862 9.01902 24.2529
Co 9.14664 12.8491 22.4309
Pd 9.15044 10.9506 24.2446
Pd 7.27559 12.8226 28.041
Pd 7.41791 11.0043 26.2116
Co 9.18512 12.837 26.1676
Co 9.20492 11.0095 28.0284
Pd 8.98195 16.6123 18.5852
Pd 7.22882 16.6127 20.5676
Co 7.38954 18.7547 18.6686
Pd 5.26881 16.6204 22.4274
Pd 7.22771 16.6237 24.3041
Pd 9.16273 14.7297 24.1919
Co 9.08942 16.645 22.4159
Pd 7.30641 14.7168 26.1718
Pd 7.24052 16.6251 28.0936
Pd 9.12003 14.7279 28.1159
Co 9.13741 16.6241 26.1804
Pd 7.17129 14.7336 29.9894
Pd 7.17751 16.584 31.9084
Pd 9.05511 14.7158 31.9419
Co 9.0774 16.5923 30.0495
Co 9.09477 16.6247 33.8228
Pd 7.20412 20.4146 16.6857
Pd 9.04062 18.5427 16.6867
Co 9.11765 20.4993 14.8276
Pd 5.29375 20.3616 18.594
Pd 7.19325 20.4577 20.5448
Pd 9.09218 18.5501 20.5303
Co 9.10843 20.4749 18.5927
Pd 7.19464 18.558 22.4145
Pd 7.21645 20.4813 24.3284
Pd 9.11269 18.552 24.3002
Co 9.10091 20.4755 22.4247
Pd 7.25117 18.5564 26.2067
Pd 7.22174 20.4637 28.1254
Pd 9.11148 18.53 28.131
Co 9.11551 20.4629 26.2265
Pd 7.20522 18.5175 30.0332
Pd 7.17624 20.4035 31.9302
Pd 9.0627 18.4964 31.9564
Co 9.09249 20.4293 30.0426
Pd 7.15013 18.4934 33.8369
Pd 7.13314 20.3791 35.727
Pd 9.03207 18.513 35.6942
Co 9.04541 20.3978 33.8538
Co 9.22574 16.8706 37.4984
Pd 7.20935 24.283 12.9183
Pd 9.0596 22.3717 12.9065
Co 9.11649 24.3528 11.0757
Pd 7.18298 22.3785 14.7981
Pd 7.16025 24.2617 16.7504
Pd 9.06143 22.359 16.7028
Co 9.07385 24.2383 14.8142
Pd 7.17833 22.3386 18.6065
Pd 7.18296 24.2764 20.5243
Pd 9.08249 22.3705 20.516
Co 9.075 24.2695 18.6206
Pd 7.1933 22.3847 22.4393
Pd 7.16071 24.2721 24.345
Pd 9.0984 22.3854 24.3376
Co 9.08476 24.2813 22.4319
Pd 7.17889 22.3731 26.2357
Pd 7.16093 24.2615 28.1432
Pd 9.0975 22.367 28.1341
Co 9.08187 24.2753 26.2434
Pd 7.19153 22.345 30.0287
Pd 7.18557 24.2395 31.9379
Pd 9.07357 22.3228 31.9501
Co 9.08201 24.2546 30.0448
Pd 7.17114 22.3068 33.8494
Pd 7.19729 24.1893 35.7516
Pd 9.04866 22.2798 35.7703
Co 9.07522 24.2215 33.8562
Pd 7.18068 22.3102 37.6965
Pd 7.18524 24.1881 39.5375
Pd 9.025 20.3403 37.7188
Co 9.05819 24.1847 37.6898
Co 9.10047 22.3651 39.505
Pd 12.9521 26.1931 5.47156
Pd 11.0367 26.1839 7.28272
Pd 7.05946 29.0849 11.0217
Pd 9.09611 26.1891 12.9605
Co 9.22586 28.0241 11.1009
Pd 7.2486 26.1448 14.8758
Pd 7.20538 28.1104 16.7326
Pd 9.08776 26.1773 16.7464
Co 9.07744 28.1323 14.8356
Pd 7.15231 26.1855 18.6165
Pd 7.16931 28.0721 20.5442
Pd 9.07165 26.1824 20.5241
Co 9.0656 28.1004 18.6317
Pd 7.16579 26.1693 22.4495
Pd 7.15566 28.0638 24.3603
Pd 9.07274 26.1745 24.3474
Co 9.06617 28.0833 22.4426
Pd 7.14717 26.1617 26.2505
Pd 7.15063 28.0531 28.1556
Pd 9.07045 26.1645 28.1497
Co 9.06789 28.0704 26.2552
Pd 7.15627 26.1562 30.0479
Pd 7.16334 28.0623 31.9487
Pd 9.07747 26.157 31.9441
Co 9.06659 28.0689 30.0551
Pd 7.20056 26.1385 33.8344
Pd 7.18391 28.0661 35.7565
Pd 9.06603 26.1371 35.7672
Co 9.06431 28.0665 33.8643
Pd 7.2097 26.1273 37.656
Pd 7.16315 28.055 39.5474
Pd 9.06699 26.1399 39.5549
Co 9.03863 28.084 37.6899
Pd 7.2237 26.1627 41.4133
Pd 9.10631 26.1609 43.2868
Co 9.09453 28.0052 41.4148
Pd 8.9681 29.9789 12.8671
Pd 7.16564 30.0232 14.7841
Pd 7.10842 31.9048 16.7305
Pd 9.02856 30.039 16.7227
Co 9.05037 31.892 14.8459
Pd 7.15021 29.9964 18.6353
Pd 7.12983 31.9038 20.5433
Pd 9.0442 30.0069 20.5309
Co 9.00176 31.9387 18.6109
Pd 7.16571 29.9732 22.463
Pd 7.14799 31.9001 24.3422
Pd 9.05512 29.9908 24.354
Co 9.04164 31.9016 22.4321
Pd 7.1777 29.9609 26.2737
Pd 7.1387 33.7934 26.2924
Pd 9.03883 30.0016 28.1622
Co 9.02689 31.8969 26.2749
Pd 7.16325 29.9572 30.0507
Pd 7.15831 31.8971 31.9778
Pd 9.04518 29.9868 31.9701
Co 9.0192 31.8846 30.0528
Pd 7.17665 29.9725 33.8739
Pd 7.1376 31.8856 35.798
Pd 9.02822 29.9913 35.7927
Co 9.00705 31.922 33.9078
Pd 7.12463 29.957 37.6756
Pd 9.00883 29.9629 39.5809
Co 9.05072 31.8375 37.6707
Pd 8.97581 33.8168 16.716
Pd 8.96624 37.6117 20.5134
Pd 7.11011 33.7988 18.6186
Pd 8.99327 33.824 20.53
Co 9.02358 35.6796 18.6566
Pd 7.1055 33.7841 22.4441
Pd 7.17134 35.677 24.3216
Pd 9.03991 33.787 24.3317
Co 9.00092 35.7328 22.4076
Pd 5.22782 35.6814 26.1705
Pd 7.15736 37.5178 30.0195
Pd 9.01449 33.7791 28.1831
Co 7.1469 35.6754 28.1876
Pd 7.1589 33.7972 30.0287
Pd 8.99099 35.7381 33.925
Pd 9.0008 33.8161 31.9783
Co 9.00424 35.7365 30.0523
Pd 7.09933 33.7891 33.8834
Pd 8.97809 33.7781 35.8228
Co 10.9581 37.5227 33.8862
Pd 8.97896 39.5706 22.4366
Pd 7.12979 39.5333 24.4141
Pd 3.50374 33.6737 22.5448
Pd 9.01667 37.6187 24.3323
Co 9.07381 41.3388 24.4131
Pd 7.18369 37.5269 26.3225
Pd 9.06107 43.1613 26.2525
Pd 9.00088 39.5146 26.2909
Co 10.9139 37.6303 26.2797
Pd 8.99641 39.4765 30.0834
Pd 9.03784 37.6003 32.0065
Co 9.01111 37.5784 28.2006
Pd 12.8169 46.9865 26.4156
Pd 8.98908 41.3991 28.1961
Pd 12.6479 47.2385 29.0795
Co 14.848 46.9634 28.1115
Co 14.9722 5.39545 24.2906
Pd 12.974 7.16681 24.3069
Pd 16.7637 7.19841 24.2767
Co 12.9897 9.07476 22.402
Pd 9.24568 9.08752 26.2022
Pd 11.0519 9.06801 28.1169
Pd 12.932 7.20078 28.0818
Co 12.9482 9.09687 26.1917
Co 12.9632 9.08393 29.9834
Pd 11.0333 12.8881 20.6117
Pd 12.8982 10.9407 20.4682
Co 12.917 12.9005 18.6592
Pd 11.0346 10.8944 22.3451
Pd 11.0299 12.86 24.1865
Pd 12.919 10.9446 24.2682
Co 12.9216 12.8152 22.3691
Pd 11.0507 10.9773 26.1656
Pd 11.0175 12.8192 28.1115
Pd 12.9143 10.9514 28.1153
Co 12.9089 12.8577 26.1744
Pd 11.0175 10.9152 30.0229
Pd 11.0032 12.7897 31.9631
Pd 12.8793 10.9178 31.9392
Co 12.8787 12.8084 30.0603
Co 12.9224 12.843 33.826
Pd 10.9849 16.6154 16.6808
Pd 12.8556 14.7382 16.6941
Co 12.9085 16.6836 14.8198
Pd 10.9964 14.7381 18.6127
Pd 10.9826 16.6009 20.5718
Pd 12.8449 14.7564 20.5787
Co 12.8446 16.6186 18.5944
Pd 9.15903 14.7397 20.6692
Pd 11.0082 16.61 24.2254
Pd 12.8651 14.7421 24.2028
Co 12.904 16.6662 22.3968
Pd 11.0145 14.7308 26.1818
Pd 10.9964 16.6193 28.132
Pd 12.8868 14.7257 28.1328
Co 12.884 16.6294 26.1971
Pd 10.991 14.7095 30.0598
Pd 10.9673 16.5905 31.9613
Pd 12.8676 14.7065 31.965
Co 12.8806 16.6207 30.0509
Pd 10.9662 14.6942 33.8707
Pd 10.9728 16.5709 35.7523
Pd 12.8501 14.6916 35.7713
Co 12.8562 16.583 33.8773
Co 12.8824 16.6203 37.6495
Pd 10.9687 20.4428 12.8935
Pd 12.8502 18.5558 12.8864
Co 12.9035 20.5058 11.0314
Pd 10.9663 18.5472 14.7775
Pd 10.9644 20.4299 16.697
Pd 12.8485 18.5363 16.6936
Co 12.8465 20.4327 14.7781
Pd 10.9529 18.5098 18.5957
Pd 10.9858 20.4617 20.4959
Pd 12.8711 18.5469 20.483
Co 12.866 20.452 18.5945
Pd 11.0015 18.5787 22.4042
Pd 10.9995 20.4683 24.3271
Pd 12.8928 18.5571 24.3153
Co 12.8913 20.4685 22.4081
Pd 10.9999 18.5223 26.2055
Pd 10.9925 20.4402 28.1351
Pd 12.8816 18.5344 28.1346
Co 12.889 20.4559 26.2331
Pd 10.9781 18.5127 30.0532
Pd 10.967 20.4148 31.9602
Pd 12.8682 18.5115 31.9639
Co 12.874 20.4334 30.0538
Pd 10.968 18.4971 33.8658
Pd 10.9592 20.3873 35.7704
Pd 12.8529 18.4968 35.7703
Co 12.8622 20.4186 33.8675
Pd 11.0265 18.5127 37.7056
Pd 10.9543 20.4039 39.6122
Pd 12.8447 18.5029 39.6103
Co 12.8478 20.4034 37.7044
Co 12.9051 20.4398 41.4512
Pd 10.974 24.2819 9.13492
Pd 12.8522 22.3826 9.11438
Co 12.9244 24.3404 7.2967
Pd 10.9641 22.3801 10.994
Pd 10.9743 24.2606 12.9192
Pd 12.8541 22.3577 12.8961
Co 12.8594 24.2585 11.0028
Pd 10.9695 22.3491 14.7935
Pd 10.9747 24.2683 16.7081
Pd 12.866 22.3565 16.6953
Co 12.868 24.2785 14.8094
Pd 10.9793 22.3697 18.6014
Pd 10.9804 24.2812 20.5182
Pd 12.8811 22.3757 20.5085
Co 12.8743 24.2846 18.6087
Pd 10.99 22.3734 22.4188
Pd 10.9913 24.2831 24.3332
Pd 12.8913 22.3762 24.3257
Co 12.8823 24.2879 22.422
Pd 10.9998 22.3715 26.2378
Pd 10.9889 24.2703 28.1499
Pd 12.8841 22.3596 28.1491
Co 12.8865 24.282 26.2421
Pd 10.9808 22.3417 30.0508
Pd 10.9691 24.2436 31.9611
Pd 12.8638 22.3379 31.9645
Co 12.8726 24.264 30.0604
Pd 10.9558 22.3129 33.8705
Pd 10.9444 24.2169 35.7811
Pd 12.8437 22.3162 35.784
Co 12.8486 24.2422 33.8759
Pd 10.9434 22.2929 37.6959
Pd 10.956 24.2047 39.5698
Pd 12.8416 22.3139 39.5874
Co 12.8438 24.2325 37.6747
Pd 10.9606 22.2956 41.4769
Pd 9.05157 24.1881 41.4585
Pd 12.8445 22.2979 43.3638
Co 12.843 24.2265 41.4966
Co 12.8751 26.1754 43.3126
Pd 12.8685 28.1834 7.23943
Pd 14.8102 28.1581 5.43296
Pd 10.9474 28.1357 9.14371
Pd 12.8685 26.2145 9.14487
Co 14.8268 30.0128 7.28943
Pd 11.0224 26.18 11.0294
Pd 10.9763 28.1386 12.9426
Pd 12.8627 26.2045 12.9251
Co 12.8272 28.1627 11.0072
Pd 10.9717 26.1906 14.8287
Pd 10.9506 28.1252 16.7164
Pd 12.8623 26.2058 16.7158
Co 12.8474 28.1344 14.8208
Pd 10.978 26.1937 18.622
Pd 10.9591 28.1065 20.5246
Pd 12.8703 26.202 20.5222
Co 12.85 28.1252 18.6147
Pd 10.9735 26.1916 22.4297
Pd 10.9645 28.0946 24.3429
Pd 12.8761 26.1974 24.3354
Co 12.8599 28.1106 22.4294
Pd 10.9795 26.1827 26.2473
Pd 10.9576 28.091 28.1574
Pd 12.8728 26.1897 28.1538
Co 12.8627 28.1024 26.2497
Pd 10.9753 26.1717 30.0562
Pd 10.9553 28.0822 31.9727
Pd 12.8547 26.1713 31.9713
Co 12.8535 28.0944 30.0683
Pd 10.9552 26.1528 33.8715
Pd 10.9321 28.078 35.7853
Pd 12.835 26.1585 35.778
Co 12.8318 28.0886 33.8839
Pd 10.9413 26.1478 37.6765
Pd 10.9428 28.0764 39.5893
Pd 12.8356 26.1513 39.5694
Co 12.8244 28.0794 37.6828
Pd 11.0095 26.1448 41.4853
Pd 10.9687 28.0532 43.3256
Pd 12.9255 28.021 45.2149
Co 12.8434 28.0744 41.5225
Pd 11.0173 24.2432 43.3392
Pd 27.8274 33.7176 50.5676
Co 14.6979 28.0724 43.3279
Pd 12.8378 30.0764 9.13124
Pd 10.9275 30.0477 10.996
Pd 10.8934 31.9518 12.9082
Pd 12.8148 30.0658 12.9083
Co 12.8509 31.9266 11.0544
Pd 10.9141 30.0536 14.7945
Pd 10.9089 31.9558 16.7079
Pd 12.8223 30.0504 16.7034
Co 12.7882 31.9749 14.7891
Pd 10.9322 30.0338 18.6171
Pd 10.9189 31.9329 20.5187
Pd 12.8378 30.0296 20.5214
Co 12.8154 31.9467 18.6119
Pd 10.9475 30.0089 22.4331
Pd 10.9402 31.9076 24.3441
Pd 12.8491 30.0128 24.3413
Co 12.8265 31.9315 22.4273
Pd 10.951 30.0015 26.2562
Pd 10.9416 31.9045 28.1716
Pd 12.8479 30.005 28.164
Co 12.8429 31.9127 26.2568
Pd 10.945 29.9962 30.0704
Pd 10.9058 31.9154 31.9861
Pd 12.8274 30.0094 31.9828
Co 12.8233 31.9188 30.0817
Pd 10.922 30.0041 33.888
Pd 10.9042 31.9162 35.8082
Pd 12.8104 30.0061 35.7966
Co 12.8042 31.9154 33.8964
Pd 10.9207 29.9908 37.708
Pd 10.9027 31.9026 39.6024
Pd 12.8022 29.9948 39.6052
Co 12.7807 31.9252 37.7251
Pd 10.9207 29.9751 41.5003
Pd 12.8352 29.967 43.3612
Co 12.8407 31.856 41.4643
Pd 12.7742 33.8546 12.9072
Pd 10.8908 33.8429 14.7924
Pd 10.8783 35.7549 16.7121
Pd 12.7817 33.8618 16.7019
Co 12.8162 35.7209 14.8434
Pd 10.8916 33.8423 18.6028
Pd 10.8893 35.7474 20.5094
Pd 12.8026 33.8488 20.5103
Co 12.7684 35.768 18.5903
Pd 10.9157 33.8359 22.4266
Pd 10.9219 35.7455 24.3385
Pd 12.8168 33.8314 24.3381
Co 12.8 35.7434 22.4216
Pd 10.9535 33.7915 26.2634
Pd 10.915 35.7652 28.2002
Pd 12.8137 33.8349 28.1792
Co 12.7746 35.7535 26.2612
Pd 10.9097 33.8229 30.0814
Pd 10.9041 35.7229 31.9936
Pd 12.7951 33.8216 32
Co 12.7986 35.74 30.098
Pd 10.8942 33.8159 33.917
Pd 10.8987 35.7433 35.8188
Pd 12.7717 33.8238 35.8171
Co 12.7551 35.7515 33.9217
Pd 10.8876 33.8041 37.7275
Pd 12.7667 33.8028 39.619
Co 12.8095 35.6743 37.6945
Pd 12.7553 37.6543 16.7091
Pd 10.8746 37.6385 18.5972
Pd 10.8956 39.5591 20.4995
Pd 12.7699 37.651 20.5035
Co 12.8116 39.517 18.6457
Pd 10.8938 37.6387 22.4041
Pd 10.9144 39.5163 24.3574
Pd 12.7704 37.6349 24.3636
Co 12.7634 39.5524 22.4073
Pd 9.0671 35.7297 26.3088
Pd 10.8914 39.4722 28.1647
Pd 12.7839 37.6268 28.1576
Co 12.7834 39.4886 26.2619
Pd 10.8864 37.6457 30.1109
Pd 10.9178 41.3478 30.1316
Pd 12.7063 37.6906 32.0148
Co 12.7778 39.5248 30.106
Pd 12.7461 39.5342 33.9314
Pd 12.7348 37.6154 35.8257
Co 14.717 41.371 33.8673
Pd 12.7516 41.4493 20.5333
Pd 10.8886 41.4397 22.4504
Pd 12.7545 45.1715 24.3819
Pd 12.7819 41.4211 24.3384
Co 12.8194 43.2917 22.4785
Pd 10.9521 41.4044 26.2774
Pd 14.701 48.8292 26.3615
Pd 12.7831 41.3855 28.1813
Co 12.7911 43.2843 26.2589
Pd 11.5495 45.1635 30.1347
Pd 15.8716 41.5123 38.2474
Co 12.89 43.1504 30.0637
Pd 10.8921 43.3044 24.3504
Pd 16.5128 48.8749 28.2816
Pd 10.9212 43.3049 28.2776
Co 12.8873 44.9926 28.0525
Pd 16.8388 3.56774 24.2942
Pd 16.7785 5.32296 22.3381
Co 20.5864 5.38669 18.6558
Pd 18.6708 3.45613 26.2256
Pd 14.882 5.27263 28.0704
Pd 18.7145 3.52362 29.9514
Co 16.9324 3.64945 28.0956
Co 18.6792 5.3306 24.2935
Pd 14.8379 9.02387 20.4565
Pd 16.7766 7.16598 20.3478
Co 16.7678 9.13446 18.6297
Pd 14.8483 7.17825 22.3567
Pd 14.842 9.04838 24.2805
Pd 16.7759 5.31791 26.2011
Co 16.7143 9.04925 22.3364
Pd 14.8013 7.17425 26.1944
Pd 14.8313 9.0483 28.117
Pd 16.7447 7.18315 28.1396
Co 16.7199 9.0665 26.2118
Pd 14.799 7.17492 30.0283
Pd 14.8034 9.02351 31.9429
Pd 16.7065 7.18047 31.9587
Co 16.6997 9.03852 30.0603
Co 16.7462 9.08297 33.8211
Pd 14.7863 12.8378 16.6904
Pd 16.6765 10.9251 16.6677
Co 16.719 12.8881 14.8162
Pd 14.8046 10.9539 18.5621
Pd 14.7909 12.8503 20.4775
Pd 16.6969 10.9814 20.4859
Co 16.6666 12.8547 18.5582
Pd 14.8157 10.9425 22.3607
Pd 14.8084 12.8544 24.2862
Pd 16.7159 10.9617 24.2866
Co 16.7081 12.8688 22.3959
Pd 14.8185 10.959 26.2004
Pd 14.796 12.846 28.1272
Pd 16.7078 10.957 28.1347
Co 16.7031 12.8626 26.2151
Pd 14.802 10.938 30.0506
Pd 14.7801 12.8104 31.9631
Pd 16.6856 10.9337 31.9599
Co 16.6916 12.8469 30.0474
Pd 14.7914 10.9209 33.8733
Pd 14.7783 12.7931 35.7718
Pd 16.6754 10.9256 35.7666
Co 16.6641 12.8089 33.8846
Co 16.7136 12.8545 37.6404
Pd 14.7722 16.6428 12.8818
Pd 16.6617 14.7629 12.8819
Co 16.7139 16.7102 11.0212
Pd 14.7745 14.7516 14.7678
Pd 14.7568 16.6355 16.6847
Pd 16.6588 14.7568 16.6805
Co 16.6495 16.6446 14.7678
Pd 14.7509 14.7525 18.5898
Pd 14.7802 16.6544 20.4855
Pd 16.6926 14.7645 20.4743
Co 16.6784 16.6602 18.5834
Pd 14.8271 14.757 22.3892
Pd 14.7917 16.6543 24.3086
Pd 16.7041 14.7685 24.3183
Co 16.6946 16.6742 22.401
Pd 14.7706 14.7483 26.1969
Pd 14.7791 16.6372 28.1317
Pd 16.6851 14.7539 28.1281
Co 16.6879 16.6608 26.228
Pd 14.7779 14.7252 30.0515
Pd 14.7689 16.6179 31.9663
Pd 16.6738 14.7281 31.9671
Co 16.676 16.6415 30.0512
Pd 14.768 14.707 33.8832
Pd 14.7509 16.5924 35.7855
Pd 16.6541 14.7134 35.7828
Co 16.6637 16.6256 33.8738
Pd 14.7653 14.7043 37.6965
Pd 14.7582 16.5888 39.5868
Pd 16.6507 14.7148 39.5831
Co 16.6375 16.5979 37.6988
Co 16.6997 16.6544 41.4482
Pd 14.7755 20.4671 9.09831
Pd 16.6655 18.5857 9.09277
Co 16.7299 20.5299 7.25262
Pd 14.7709 18.5698 10.9707
Pd 14.7586 20.4502 12.8897
Pd 16.6535 18.5637 12.8841
Co 16.6523 20.4635 10.9799
Pd 14.7561 18.548 14.777
Pd 14.7598 20.4553 16.6885
Pd 16.6653 18.5572 16.6833
Co 16.6636 20.4708 14.7939
Pd 14.7669 18.5496 18.5864
Pd 14.7762 20.4666 20.4985
Pd 16.6826 18.5711 20.4953
Co 16.6718 20.4732 18.5948
Pd 14.7856 18.5651 22.4018
Pd 14.7872 20.4694 24.3232
Pd 16.6874 18.5714 24.3198
Co 16.6835 20.4787 22.4122
Pd 14.7849 18.5526 26.2289
Pd 14.7787 20.4541 28.146
Pd 16.68 18.5566 28.1441
Co 16.6819 20.4724 26.2374
Pd 14.7734 18.5345 30.0516
Pd 14.7647 20.4358 31.9638
Pd 16.6672 18.5399 31.9626
Co 16.6716 20.4575 30.0569
Pd 14.7588 18.514 33.8736
Pd 14.7464 20.4185 35.784
Pd 16.6468 18.5178 35.7852
Co 16.6546 20.4391 33.8735
Pd 14.7359 18.4985 37.6975
Pd 14.7474 20.4006 39.5874
Pd 16.6362 18.5106 39.5841
Co 16.6424 20.4256 37.6779
Pd 14.768 18.5106 41.5101
Pd 14.7687 20.407 43.3878
Pd 16.656 18.5251 43.3921
Co 16.6333 20.4085 41.4961
Co 16.7144 20.4737 45.2307
Pd 16.6358 26.2765 5.32204
Pd 16.6813 22.3912 5.37277
Co 18.5945 22.5233 3.63846
Pd 14.7729 22.4017 7.2067
Pd 14.7696 24.285 9.13015
Pd 16.6635 22.3921 9.10151
Co 16.6648 24.3089 7.21965
Pd 14.764 22.368 10.9927
Pd 14.755 24.2874 12.9029
Pd 16.6589 22.3801 12.8985
Co 16.6622 24.3034 11.0186
Pd 14.7579 22.3672 14.7952
Pd 14.7619 24.2908 16.705
Pd 16.6639 22.3844 16.7005
Co 16.656 24.3003 14.8056
Pd 14.7697 22.3753 18.6006
Pd 14.7741 24.294 20.5127
Pd 16.6754 22.3871 20.5083
Co 16.6654 24.3017 18.609
Pd 14.7839 22.3808 22.4158
Pd 14.7801 24.2913 24.3315
Pd 16.6809 22.3866 24.3295
Co 16.6746 24.3001 22.4225
Pd 14.7822 22.374 26.2395
Pd 14.773 24.2807 28.1541
Pd 16.6739 22.3762 28.1515
Co 16.6736 24.2934 26.2443
Pd 14.7702 22.358 30.0598
Pd 14.7558 24.2643 31.9714
Pd 16.66 22.3609 31.968
Co 16.6622 24.282 30.0642
Pd 14.7515 22.3401 33.8742
Pd 14.7398 24.2498 35.7756
Pd 16.6445 22.347 35.7748
Co 16.6467 24.269 33.8734
Pd 14.7408 22.3297 37.684
Pd 14.7309 24.2463 39.5897
Pd 16.6356 22.3331 39.5779
Co 16.6321 24.2588 37.678
Pd 14.744 22.3156 41.4878
Pd 14.7277 24.2421 43.3453
Pd 16.6366 22.3446 43.3687
Co 16.6329 24.2515 41.4598
Pd 14.797 22.3375 45.2886
Pd 12.9018 24.2676 45.2574
Pd 16.6847 22.3402 47.1287
Co 16.6591 24.2733 45.2263
Co 14.8994 27.9802 47.002
Pd 20.4525 24.3221 3.38996
Pd 18.5626 30.0511 3.54525
Pd 16.7773 24.3219 3.55125
Co 26.2529 22.5306 3.55191
Pd 14.8163 26.2221 7.27545
Pd 14.7526 28.1679 9.14313
Pd 16.6626 26.23 9.15399
Co 16.6406 28.1769 7.26771
Pd 14.7442 26.2221 11.0221
Pd 14.7299 28.1459 12.9108
Pd 16.6483 26.2249 12.9144
Co 16.6447 28.1494 11.0347
Pd 14.7563 26.2149 14.8117
Pd 14.7432 28.1353 16.7115
Pd 16.6537 26.2208 16.7122
Co 16.6381 28.1442 14.8108
Pd 14.7609 26.2121 18.6132
Pd 14.7523 28.1248 20.5191
Pd 16.6628 26.2168 20.5189
Co 16.6473 28.135 18.6154
Pd 14.7703 26.2065 22.4257
Pd 14.7607 28.1144 24.338
Pd 16.6682 26.2099 24.3363
Co 16.6552 28.1263 22.4285
Pd 14.7712 26.1992 26.2459
Pd 14.7576 28.1058 28.1613
Pd 16.6621 26.2005 28.1582
Co 16.6566 28.1173 26.2503
Pd 14.7585 26.1877 30.067
Pd 14.7366 28.0988 31.979
Pd 16.6464 26.1912 31.9738
Co 16.6451 28.1095 30.0716
Pd 14.7388 26.1763 33.878
Pd 14.7209 28.0917 35.7859
Pd 16.6318 26.1814 35.7755
Co 16.6286 28.1025 33.8818
Pd 14.7323 26.1649 37.6769
Pd 14.7111 28.0861 39.5819
Pd 16.615 26.1762 39.5852
Co 16.6143 28.0975 37.6837
Pd 14.6947 26.1874 41.5032
Pd 16.6322 28.0752 45.2013
Pd 16.618 26.1663 43.3243
Co 16.5941 28.0874 41.4953
Pd 11.0837 26.1498 45.1362
Pd 16.6259 29.9548 47.1222
Pd 14.7435 26.1629 45.2166
Co 16.6714 26.204 47.0726
Pd 18.5243 26.1613 48.9569
Co 20.5301 20.5134 48.8291
Pd 18.5325 31.9907 5.37594
Pd 16.6231 30.0723 5.4251
Pd 14.7266 31.9625 9.09862
Pd 16.6252 30.071 9.13563
Co 16.6497 31.919 7.28424
Pd 14.7251 30.0722 11.0145
Pd 14.7078 31.9833 12.9097
Pd 16.6241 30.0685 12.914
Co 16.5978 31.9956 11.0032
Pd 14.7205 30.0598 14.8067
Pd 14.7065 31.9638 16.7021
Pd 16.6292 30.0548 16.7117
Co 16.6133 31.9723 14.8109
Pd 14.7311 30.044 18.6117
Pd 14.7216 31.9463 20.5182
Pd 16.638 30.0426 20.5209
Co 16.618 31.9595 18.612
Pd 14.7421 30.0307 22.4291
Pd 14.7296 31.9338 24.3415
Pd 16.6437 30.0323 24.3407
Co 16.6273 31.9451 22.4304
Pd 14.7477 30.0193 26.2528
Pd 14.7249 31.9297 28.1701
Pd 16.6388 30.0259 28.1653
Co 16.6257 31.9384 26.2556
Pd 14.7349 30.0152 30.0758
Pd 14.7136 31.9243 31.991
Pd 16.6252 30.0182 31.9834
Co 16.6182 31.9325 30.0803
Pd 14.7167 30.0109 33.8905
Pd 14.6906 31.9253 35.8057
Pd 16.6082 30.0156 35.7912
Co 16.6008 31.9317 33.8973
Pd 14.7 30.0119 37.6975
Pd 14.6886 31.9205 39.6149
Pd 16.5981 30.0122 39.595
Co 16.5905 31.9253 37.7025
Pd 14.7066 29.9772 41.5097
Pd 14.7064 31.9086 43.3995
Pd 16.5845 29.9972 43.3548
Co 16.5752 31.9337 41.5105
Pd 14.7338 29.9752 45.2812
Pd 20.5166 28.0682 49.0459
Co 16.6644 31.831 45.2553
Pd 16.5919 33.8783 9.12159
Pd 14.6982 33.8616 10.9892
Pd 14.6821 35.7843 12.9043
Pd 16.5856 33.8871 12.9056
Co 16.6273 35.7444 11.0495
Pd 14.6879 33.8764 14.794
Pd 14.6781 35.7794 16.7004
Pd 16.5974 33.8771 16.7036
Co 16.5677 35.7967 14.79
Pd 14.6966 33.8636 18.6056
Pd 14.6881 35.7586 20.5101
Pd 16.6085 33.8575 20.5188
Co 16.5907 35.7688 18.6108
Pd 14.7107 33.8453 22.426
Pd 14.6963 35.743 24.3404
Pd 16.6132 33.8454 24.3434
Co 16.5967 35.7544 22.4272
Pd 14.7061 33.8427 26.2575
Pd 14.6991 35.7381 28.1765
Pd 16.6101 33.8388 28.1717
Co 16.6064 35.7382 26.2573
Pd 14.7042 33.838 30.0906
Pd 14.6516 35.7582 32.0138
Pd 16.5908 33.844 31.9964
Co 16.5892 35.7406 30.096
Pd 14.6787 33.8384 33.9071
Pd 14.6551 35.7396 35.8251
Pd 16.5772 33.8412 35.8131
Co 16.5731 35.7309 33.9043
Pd 14.6742 33.8254 37.7282
Pd 14.6648 35.7331 39.6221
Pd 16.5642 33.8328 39.6169
Co 16.5454 35.7576 37.7347
Pd 14.6836 33.8089 41.5337
Pd 16.5771 33.7973 43.4171
Co 16.6058 35.6758 41.4913
Pd 16.561 37.6796 12.9102
Pd 14.672 37.6686 14.7911
Pd 14.6662 39.5823 16.7112
Pd 16.5627 37.6797 16.7033
Co 16.603 39.5411 14.8501
Pd 14.6724 37.6662 18.5957
Pd 14.6656 39.5653 20.5116
Pd 16.5777 37.6658 20.5158
Co 16.5517 39.584 18.5984
Pd 14.6711 37.6517 22.4266
Pd 14.6802 39.5322 24.3355
Pd 16.5949 37.642 24.3378
Co 16.58 39.5472 22.4273
Pd 14.7029 37.6282 26.2553
Pd 14.6921 39.5142 28.1787
Pd 16.5961 37.6294 28.1815
Co 16.5932 39.5304 26.2581
Pd 14.67 37.6369 30.1043
Pd 14.691 39.526 32.027
Pd 16.5759 37.6287 32.0172
Co 16.5951 39.5119 30.1001
Pd 14.6515 37.6388 33.9378
Pd 14.6748 39.6009 35.86
Pd 16.5449 37.6146 35.7964
Co 16.5353 39.5495 33.9374
Pd 14.6406 37.6361 37.7362
Pd 16.5308 37.6222 39.6354
Co 16.6339 39.3477 37.6482
Pd 16.5452 41.4724 16.7227
Pd 14.6631 41.4602 18.6074
Pd 14.666 43.3629 20.5338
Pd 16.5575 41.4603 20.5192
Co 16.6002 43.3253 18.6698
Pd 14.6734 41.4405 22.4168
Pd 14.682 43.3255 24.341
Pd 16.5807 41.4337 24.3388
Co 16.5576 43.3554 22.4203
Pd 14.6842 41.4115 26.2605
Pd 14.7093 43.2918 28.2013
Pd 16.5927 41.4147 28.1834
Co 16.5976 43.3018 26.2629
Pd 14.7144 41.3735 30.1145
Pd 14.636 43.3131 32.0165
Pd 16.5509 41.4296 32.0318
Co 16.5271 43.3439 30.1346
Pd 12.7717 41.366 31.9983
Pd 16.5159 41.463 35.7415
Co 16.5518 43.2857 33.8556
Pd 16.5497 45.2433 20.5471
Pd 14.6644 45.2225 22.4396
Pd 14.6747 47.0945 24.3683
Pd 16.5738 45.2206 24.3469
Co 16.6133 47.066 22.4901
Pd 14.723 45.1697 26.2634
Pd 10.9526 45.0916 26.3783
Pd 16.5789 45.1761 28.2187
Co 16.5952 47.0933 26.2785
Pd 14.4951 45.2718 30.0894
Pd 16.5123 45.2167 31.9718
Co 16.5746 47.0184 30.0711
Pd 16.5719 48.9041 24.3719
Pd 16.5861 50.645 26.3253
Pd 18.4233 50.6798 28.1873
Pd 22.4964 5.33123 16.7263
Pd 18.6962 3.53073 22.3891
Co 18.7897 7.21455 18.6764
Pd 20.5845 3.54067 20.4724
Pd 20.5521 5.29968 26.1991
Pd 22.4913 3.40114 22.4001
Co 18.7372 5.37382 20.4706
Pd 20.5706 5.33522 22.4312
Pd 20.5334 3.40114 24.3029
Pd 20.5615 3.44287 28.1317
Co 18.6997 5.33429 28.1302
Pd 16.7378 5.28219 30.0293
Pd 18.6689 5.27107 31.9612
Pd 20.5985 3.50794 31.8879
Co 20.5611 5.3155 30.0022
Co 20.6024 5.34092 33.7987
Pd 18.7238 9.18027 16.857
Pd 18.5934 7.75497 14.7817
Co 20.6031 9.18498 14.8206
Pd 17.0266 7.28027 16.9422
Pd 18.6364 9.08437 20.4639
Pd 20.571 7.22903 20.5097
Co 20.5656 9.10234 18.6195
Pd 18.635 7.20516 22.3686
Pd 18.6317 9.09136 24.296
Pd 20.549 7.2348 24.3114
Co 20.5537 9.11332 22.4048
Pd 18.6491 7.2006 26.2152
Pd 18.6261 9.07604 28.1384
Pd 20.5441 7.19183 28.1415
Co 20.5463 9.10172 26.2285
Pd 18.6438 7.1554 30.0368
Pd 18.6141 9.04477 31.9476
Pd 20.5332 7.17927 31.9369
Co 20.5322 9.08585 30.0407
Pd 18.6338 7.16865 33.8643
Pd 18.609 9.03255 35.7638
Pd 20.5153 7.17742 35.7528
Co 20.5005 9.0529 33.869
Co 20.5473 9.09974 37.6314
Pd 18.5857 12.8478 12.8978
Pd 20.4857 10.9881 12.8767
Co 20.5326 12.9306 11.0249
Pd 18.5817 10.8782 14.7522
Pd 18.5709 12.8495 16.6469
Pd 20.5328 11.0562 16.6813
Co 20.4701 12.8647 14.7533
Pd 18.6147 11.0612 18.6187
Pd 18.6076 12.9003 20.5145
Pd 20.5379 11.0105 20.5064
Co 20.5221 12.9152 18.5956
Pd 18.6192 10.9752 22.3889
Pd 18.613 12.8766 24.3091
Pd 20.5322 10.9968 24.3157
Co 20.5219 12.901 22.4128
Pd 18.6148 10.9751 26.2199
Pd 18.603 12.8677 28.1363
Pd 20.5222 10.9873 28.1365
Co 20.5162 12.8889 26.2284
Pd 18.6017 10.9598 30.0499
Pd 18.5854 12.8462 31.9644
Pd 20.5058 10.9647 31.9585
Co 20.5033 12.8733 30.0512
Pd 18.5927 10.9397 33.8735
Pd 18.5733 12.822 35.7783
Pd 20.4833 10.9528 35.7719
Co 20.4904 12.8568 33.8665
Pd 18.5927 10.936 37.6895
Pd 18.579 12.8136 39.5806
Pd 20.4811 10.9515 39.5761
Co 20.4643 12.8287 37.692
Co 20.5235 12.8839 41.4417
Pd 18.5874 16.6767 9.09241
Pd 20.4786 14.8004 9.09806
Co 20.5352 16.7544 7.24818
Pd 18.5834 14.7765 10.9724
Pd 18.5671 16.6641 12.8806
Pd 20.4695 14.7818 12.8817
Co 20.4633 16.6768 10.979
Pd 18.5685 14.7699 14.7681
Pd 18.5755 16.6675 16.6806
Pd 20.4892 14.7731 16.6726
Co 20.4824 16.6854 14.7864
Pd 18.5897 14.7597 18.574
Pd 18.5924 16.678 20.491
Pd 20.5097 14.8021 20.5015
Co 20.4933 16.6858 18.5879
Pd 18.6007 14.7922 22.41
Pd 18.5984 16.6843 24.324
Pd 20.5108 14.795 24.3215
Co 20.5035 16.6981 22.4133
Pd 18.6042 14.7732 26.2287
Pd 18.5892 16.6671 28.1429
Pd 20.5036 14.7812 28.1442
Co 20.5014 16.6901 26.2363
Pd 18.5856 14.757 30.0506
Pd 18.5748 16.6482 31.9633
Pd 20.4884 14.7634 31.9615
Co 20.4901 16.6733 30.0552
Pd 18.5698 14.7344 33.8742
Pd 18.5574 16.6295 35.7812
Pd 20.4733 14.7419 35.7786
Co 20.4753 16.6536 33.8707
Pd 18.5607 14.7223 37.6913
Pd 18.552 16.6136 39.5842
Pd 20.4575 14.7354 39.5797
Co 20.4648 16.6417 37.6747
Pd 18.5725 14.728 41.4976
Pd 18.5695 16.6194 43.3755
Pd 20.4639 14.7517 43.378
Co 20.4453 16.6244 41.4864
Co 20.5082 16.7163 45.2332
Pd 18.623 20.5305 5.33468
Pd 20.5121 18.6309 5.34436
Co 22.4336 22.4677 3.48605
Pd 18.5945 18.6104 7.18459
Pd 18.5756 20.4887 9.10542
Pd 20.472 18.6027 9.10429
Co 20.4787 20.5077 7.22034
Pd 18.5673 18.5803 10.9832
Pd 18.5633 20.4847 12.8929
Pd 20.474 18.5887 12.8917
Co 20.4771 20.5079 11.0079
Pd 18.5665 18.5724 14.7865
Pd 18.5718 20.4847 16.6968
Pd 20.4841 18.5911 16.6931
Co 20.4755 20.4981 14.7999
Pd 18.5818 18.5796 18.5919
Pd 18.5828 20.4888 20.5059
Pd 20.4941 18.5944 20.5036
Co 20.4851 20.4996 18.604
Pd 18.5912 18.584 22.4104
Pd 18.5853 20.4876 24.3272
Pd 20.4968 18.597 24.3274
Co 20.4899 20.5004 22.4189
Pd 18.588 18.5796 26.2367
Pd 18.5792 20.4778 28.1501
Pd 20.4903 18.585 28.1486
Co 20.488 20.4956 26.2413
Pd 18.578 18.5623 30.0557
Pd 18.5668 20.4619 31.9657
Pd 20.478 18.5674 31.9647
Co 20.4792 20.4824 30.0594
Pd 18.5618 18.5445 33.8719
Pd 18.5512 20.4448 35.773
Pd 20.4646 18.5513 35.7713
Co 20.4664 20.4665 33.8683
Pd 18.5476 18.5274 37.6799
Pd 18.5391 20.4343 39.5766
Pd 20.4522 18.5391 39.5747
Co 20.4532 20.4523 37.6693
Pd 18.5447 18.5268 41.4853
Pd 18.5484 20.4323 43.3699
Pd 20.4485 18.5484 43.3565
Co 20.4497 20.454 41.4595
Pd 18.6006 18.5392 45.2977
Pd 18.6026 20.432 47.1257
Pd 22.3321 16.7003 47.1211
Co 20.4494 20.4509 45.254
Co 20.525 18.6443 47.0614
Pd 24.3715 22.5534 1.75797
Pd 18.5992 24.3594 5.41285
Pd 20.5045 22.4155 5.30836
Co 22.5719 24.3148 1.90484
Pd 18.5977 22.4115 7.21189
Pd 18.5666 24.3218 9.11238
Pd 20.4816 22.4227 9.11675
Co 20.4983 24.3423 7.22787
Pd 18.5641 22.4017 11.0048
Pd 18.5596 24.3132 12.9156
Pd 20.471 22.413 12.9113
Co 20.4695 24.3288 11.0204
Pd 18.5656 22.3968 14.8041
Pd 18.562 24.3118 16.7095
Pd 20.4754 22.4088 16.7086
Co 20.4672 24.3234 14.8168
Pd 18.5732 22.3979 18.6063
Pd 18.5703 24.3098 20.5169
Pd 20.4817 22.4087 20.5156
Co 20.4715 24.3203 18.6157
Pd 18.5797 22.3973 22.4205
Pd 18.5742 24.3054 24.3348
Pd 20.4832 22.4052 24.3334
Co 20.4758 24.3167 22.4276
Pd 18.5786 22.3916 26.2424
Pd 18.5685 24.297 28.1556
Pd 20.4782 22.3969 28.1536
Co 20.4743 24.3106 26.2469
Pd 18.5689 22.3802 30.0611
Pd 18.5558 24.286 31.9693
Pd 20.4674 22.3844 31.9663
Co 20.4664 24.3015 30.0636
Pd 18.5548 22.3657 33.8709
Pd 18.541 24.2748 35.7738
Pd 20.4542 22.3702 35.7681
Co 20.4539 24.2903 33.8706
Pd 18.5415 22.3519 37.6705
Pd 18.5329 24.2648 39.5625
Pd 20.4451 22.3621 39.5594
Co 20.4424 24.2798 37.6629
Pd 18.5375 22.3465 41.4669
Pd 18.5411 24.2727 43.3511