4033
Atoms. Timestep: 20159
Co 5.48843 13.0019 26.2144
Pd 3.55841 16.7151 24.3424
Pd 5.35103 14.7859 24.2727
Co 5.3736 16.7323 22.4356
Pd 3.63441 14.8443 26.2151
Pd 3.55812 16.7134 28.0895
Pd 5.35072 14.7841 28.1577
Co 5.38531 16.6958 26.2161
Co 5.373 16.7288 29.9966
Pd 3.53027 20.524 20.5328
Pd 5.30293 18.5857 20.49
Co 5.36192 20.5357 18.6359
Pd 3.53739 18.6212 22.436
Pd 3.44419 20.4938 24.3122
Pd 5.35124 18.6219 24.3376
Co 5.32992 20.5029 22.4132
Pd 3.46368 18.5893 26.2168
Pd 3.44389 20.4921 28.1232
Pd 5.35094 18.6202 28.0963
Co 5.30342 20.512 26.2178
Pd 3.53679 18.6177 29.9976
Pd 3.52937 20.5188 31.9026
Pd 5.30202 18.5805 31.9439
Co 5.32932 20.4994 30.0224
Co 5.36071 20.5288 33.7998
Pd 3.55444 24.3336 16.7289
Pd 5.31817 22.393 16.6868
Co 5.4107 24.3385 14.8364
Pd 3.53775 22.4305 18.6249
Pd 3.44501 24.3058 20.5018
Pd 5.33696 22.4264 20.5336
Co 5.34615 24.304 18.6138
Pd 3.43735 22.3994 22.4076
Pd 3.41683 24.3018 24.3135
Pd 5.29194 22.4042 24.3131
Co 5.28797 24.3131 22.4188
Pd 3.42488 22.3971 26.2185
Pd 3.41653 24.3001 28.1253
Pd 5.29163 22.4025 28.1242
Co 5.27242 24.3043 26.2195
Pd 3.43674 22.3959 30.0294
Pd 3.4441 24.3006 31.937
Pd 5.33606 22.4212 31.9037
Co 5.28736 24.3096 30.0203
Pd 3.53654 22.4236 33.8122
Pd 3.55294 24.3249 35.7099
Pd 5.31666 22.3843 35.7506
Co 5.34494 24.2971 33.8253
Co 5.40889 24.3281 37.6028
Pd 5.39796 26.2138 12.9626
Pd 3.6235 26.2118 14.8579
Pd 3.55191 28.0881 16.7306
Pd 5.39694 26.2121 16.747
Co 5.40817 28.0875 14.8381
Pd 3.46548 26.2099 18.5994
Pd 3.44244 28.1123 20.5035
Pd 5.30645 26.2103 20.51
Co 5.34358 28.1184 18.6155
Pd 3.42384 26.2082 22.4067
Pd 3.41426 28.1128 24.3152
Pd 5.2755 26.2086 24.3206
Co 5.2854 28.1058 22.4205
Pd 3.40819 26.2064 26.2203
Pd 3.41396 28.111 28.127
Pd 5.2752 26.2068 28.1203
Co 5.26985 28.111 26.2213
Pd 3.42324 26.2047 30.0338
Pd 3.44153 28.1071 31.9388
Pd 5.30554 26.2051 31.9308
Co 5.2848 28.1023 30.022
Pd 3.46427 26.203 33.8411
Pd 3.5504 28.0795 35.7116
Pd 5.39544 26.2034 35.6938
Co 5.34237 28.1115 33.8271
Pd 3.6217 26.2014 37.5826
Pd 5.39585 26.2017 39.4783
Co 5.40636 28.0771 37.6045
Pd 5.31301 30.0311 16.6902
Pd 3.53264 29.9895 18.6283
Pd 3.52259 31.8942 20.538
Pd 5.33185 29.9943 20.5371
Co 5.35425 31.8867 18.6411
Pd 3.4322 30.017 22.4111
Pd 3.43647 31.9208 24.3174
Pd 5.2868 30.0129 24.3166
Co 5.32221 31.9161 22.4184
Pd 3.41973 30.0157 26.222
Pd 3.43617 31.9191 28.1284
Pd 5.28649 30.0112 28.1277
Co 5.29572 31.9034 26.223
Pd 3.4316 30.0135 30.0329
Pd 3.52169 31.889 31.9077
Pd 5.33095 29.9891 31.9072
Co 5.32161 31.9126 30.0277
Pd 3.53143 29.9825 33.8157
Pd 5.3115 30.0224 35.7541
Co 5.35305 31.8798 33.8049
Pd 5.29263 33.835 20.497
Pd 3.52714 33.7953 22.443
Pd 3.54559 35.6997 24.3511
Pd 5.34099 33.7953 24.3445
Co 5.36079 35.6867 22.4442
Pd 3.45339 33.8236 26.2237
Pd 3.54529 35.698 28.0982
Pd 5.34069 33.7935 28.1032
Co 5.37245 35.7198 26.2248
Pd 3.52653 33.7918 30.0045
Pd 5.29172 33.8297 31.9508
Co 5.36019 35.6832 30.0053
Pd 5.33559 37.6314 24.2831
Pd 3.61906 37.5689 26.2255
Pd 5.33529 37.6296 28.1681
Co 5.47059 39.4137 26.2265
Co 9.24586 9.22249 26.213
Pd 7.24023 12.8663 24.2889
Pd 9.10433 10.99 24.2901
Co 9.14028 12.9084 22.4092
Pd 7.29979 11.0523 26.2137
Pd 7.23993 12.8645 28.1401
Pd 9.10402 10.9882 28.1374
Co 9.10587 12.8703 26.2146
Co 9.13967 12.905 30.02
Pd 7.20045 16.6629 20.4803
Pd 9.07509 14.7669 20.4635
Co 9.11935 16.7076 18.6052
Pd 7.22092 14.7768 22.3588
Pd 7.22116 16.6734 24.2904
Pd 9.09622 14.768 24.2861
Co 9.08325 16.6568 22.3615
Pd 7.24385 14.7951 26.2154
Pd 7.22085 16.6717 28.142
Pd 9.09591 14.7662 28.1449
Co 9.11347 16.676 26.2164
Pd 7.22031 14.7733 30.0718
Pd 7.19954 16.6577 31.9521
Pd 9.07418 14.7616 31.9675
Co 9.08264 16.6533 30.0712
Co 9.11814 16.7006 33.8275
Pd 7.20115 20.4669 16.6795
Pd 9.06706 18.5709 16.6667
Co 9.12786 20.5119 14.8032
Pd 7.19627 18.5829 18.5643
Pd 7.19786 20.4776 20.4925
Pd 9.07932 18.5698 20.4735
Co 9.07527 20.4589 18.5632
Pd 7.20322 18.586 22.3825
Pd 7.21733 20.5044 24.3127
Pd 9.10547 18.5782 24.2905
Co 9.10199 20.4862 22.3952
Pd 7.24051 18.5901 26.2171
Pd 7.21703 20.5027 28.1232
Pd 9.10517 18.5765 28.144
Co 9.11379 20.4927 26.2181
Pd 7.20261 18.5825 30.0517
Pd 7.19695 20.4723 31.9434
Pd 9.07841 18.5646 31.961
Co 9.10138 20.4827 30.041
Pd 7.19506 18.5759 33.8699
Pd 7.19964 20.4582 35.7564
Pd 9.06554 18.5621 35.7677
Co 9.07406 20.4519 33.873
Co 9.12605 20.5015 37.633
Pd 7.23871 24.2911 12.8841
Pd 9.08982 22.3857 12.8663
Co 9.17092 24.3468 11.0261
Pd 7.21733 22.3864 14.7587
Pd 7.23157 24.2777 16.6924
Pd 9.08925 22.3689 16.6745
Co 9.0979 24.2712 14.7658
Pd 7.20475 22.3862 18.584
Pd 7.21721 24.3088 20.511
Pd 9.09773 22.3842 20.4909
Co 9.11088 24.2936 18.5934
Pd 7.21131 22.4026 22.4158
Pd 7.18723 24.3084 24.3183
Pd 9.10869 22.4047 24.3178
Co 9.10762 24.3044 22.4122
Pd 7.19287 22.4064 26.2188
Pd 7.18693 24.3067 28.1211
Pd 9.10839 22.403 28.1202
Co 9.1013 24.3079 26.2198
Pd 7.21071 22.3992 30.0219
Pd 7.2163 24.3036 31.9284
Pd 9.09682 22.379 31.9471
Co 9.10701 24.3009 30.0275
Pd 7.20354 22.3792 33.8536
Pd 7.23006 24.269 35.747
Pd 9.08773 22.3602 35.7635
Co 9.10967 24.2867 33.8462
Pd 7.21551 22.376 37.679
Pd 7.23659 24.2789 39.5553
Pd 9.0877 22.3735 39.5716
Co 9.09609 24.2608 37.6738
Co 9.1685 24.3329 41.4136
Pd 9.17739 26.2181 9.16545
Pd 7.32184 26.216 11.0247
Pd 7.23611 28.1391 12.8859
Pd 9.12284 26.2164 12.9046
Co 9.16839 28.0877 11.0278
Pd 7.25609 26.2142 14.7893
Pd 7.22896 28.149 16.6942
Pd 9.11027 26.2146 16.686
Co 9.09528 28.1598 14.7676
Pd 7.24035 26.2125 18.615
Pd 7.21463 28.1144 20.5127
Pd 9.11621 26.2129 20.5152
Co 9.10828 28.1339 18.5952
Pd 7.19198 26.2107 22.4177
Pd 7.18467 28.1113 24.32
Pd 9.0997 26.2111 24.3175
Co 9.10504 28.1196 22.4139
Pd 7.18061 26.209 26.2206
Pd 7.18436 28.1095 28.1228
Pd 9.0994 26.2094 28.124
Co 9.09873 28.1126 26.2216
Pd 7.19138 26.2073 30.0234
Pd 7.21373 28.1092 31.9301
Pd 9.11531 26.2077 31.9263
Co 9.10444 28.1161 30.0293
Pd 7.23914 26.2055 33.8262
Pd 7.22745 28.1403 35.7487
Pd 9.10875 26.2059 35.7554
Co 9.10707 28.1269 33.848
Pd 7.25427 26.2038 37.6518
Pd 7.23399 28.1269 39.557
Pd 9.12072 26.2042 39.5368
Co 9.09346 28.1493 37.6756
Pd 7.31943 26.2021 41.4164
Pd 9.17469 26.2025 43.276
Co 9.16598 28.0738 41.4153
Pd 9.08464 30.047 12.8698
Pd 7.21215 30.042 14.7622
Pd 7.19339 31.9598 16.6848
Pd 9.08405 30.0603 16.678
Co 9.12016 31.9191 14.8084
Pd 7.19958 30.0388 18.5875
Pd 7.19011 31.9456 20.4978
Pd 9.09256 30.0415 20.4944
Co 9.0675 31.9686 18.5684
Pd 7.20616 30.0188 22.4193
Pd 7.20962 31.9153 24.3179
Pd 9.10355 30.0176 24.3213
Co 9.09426 31.9379 22.4005
Pd 7.18773 30.0115 26.2223
Pd 7.20932 31.9136 28.1284
Pd 9.10325 30.0158 28.1236
Co 9.10607 31.9279 26.2233
Pd 7.20556 30.0154 30.0254
Pd 7.1892 31.9404 31.9486
Pd 9.09165 30.0363 31.9506
Co 9.09365 31.9344 30.0462
Pd 7.19837 30.0318 33.8571
Pd 7.19188 31.9511 35.7616
Pd 9.08254 30.0516 35.767
Co 9.06628 31.9617 33.8783
Pd 7.21033 30.0316 37.6825
Pd 9.08252 30.0348 39.5751
Co 9.11835 31.9087 37.6382
Pd 9.05673 33.8584 16.6737
Pd 7.18597 33.8421 18.5712
Pd 7.18755 35.7603 20.489
Pd 9.06899 33.856 20.4805
Co 9.1065 35.7199 18.6139
Pd 7.19292 33.8355 22.3894
Pd 7.20827 35.7463 24.2991
Pd 9.09516 33.8441 24.2975
Co 9.07034 35.7672 22.3702
Pd 7.23022 33.828 26.224
Pd 7.20797 35.7446 28.1507
Pd 9.09485 33.8423 28.1509
Co 9.10058 35.7446 26.2251
Pd 7.19231 33.832 30.0587
Pd 7.18663 35.755 31.9609
Pd 9.06808 33.8507 31.9679
Co 9.06973 35.7637 30.0799
Pd 7.18475 33.8351 33.8768
Pd 9.05521 33.8496 35.7747
Co 9.10529 35.713 33.8362
Pd 9.05963 37.6589 20.474
Pd 7.20547 37.6447 22.3693
Pd 7.2222 39.5535 24.3011
Pd 9.08076 37.6543 24.2966
Co 9.1223 39.5156 22.4214
Pd 7.22843 37.6229 26.2258
Pd 7.2219 39.5517 28.1522
Pd 9.08045 37.6526 28.1553
Co 9.08785 39.5503 26.2268
Pd 7.20486 37.6412 30.0823
Pd 9.05872 37.6536 31.9779
Co 9.1217 39.5121 30.0322
Pd 9.08376 41.4323 24.304
Pd 7.27931 41.3658 26.2275
Pd 9.08346 41.4306 28.1513
Co 9.2229 43.1982 26.2285
Co 13.0304 5.47018 26.2116
Pd 11.0128 9.08408 24.2894
Pd 12.8916 7.22252 24.2868
Co 12.9305 9.12333 22.4078
Pd 11.0783 7.2789 26.2122
Pd 11.0125 9.08232 28.1367
Pd 12.8913 7.22076 28.1379
Co 12.8938 9.08744 26.2132
Co 12.9299 9.11985 30.0186
Pd 10.9825 12.848 20.463
Pd 12.8669 10.9662 20.4623
Co 12.9124 12.8968 18.5944
Pd 10.9956 10.9761 22.3576
Pd 10.9918 12.8619 24.2845
Pd 12.8821 10.9741 24.2837
Co 12.8669 12.8499 22.3549
Pd 11.0222 11.0013 26.2139
Pd 10.9915 12.8601 28.1451
Pd 12.8818 10.9723 28.1444
Co 12.8933 12.8749 26.2149
Pd 10.995 10.9726 30.0702
Pd 10.9816 12.8428 31.9665
Pd 12.8659 10.961 31.9658
Co 12.8663 12.8464 30.0749
Co 12.9112 12.8899 33.8355
Pd 10.9733 16.6479 16.6601
Pd 12.8552 14.7584 16.6546
Co 12.9075 16.6981 14.792
Pd 10.9775 14.7628 18.5437
Pd 10.9776 16.6524 20.4626
Pd 12.8645 14.7551 20.4579
Co 12.8566 16.6425 18.5439
Pd 10.9843 14.7618 22.3607
Pd 10.9892 16.664 24.2908
Pd 12.881 14.7617 24.2888
Co 12.8819 16.6633 22.3796
Pd 10.9883 14.7603 26.2156
Pd 10.9889 16.6623 28.1422
Pd 12.8807 14.7599 28.1428
Co 12.8834 16.6629 26.2167
Pd 10.9836 14.7583 30.0705
Pd 10.9767 16.6471 31.9704
Pd 12.8636 14.7498 31.9737
Co 12.8813 16.6598 30.0537
Pd 10.9762 14.7558 33.8875
Pd 10.9718 16.6392 35.7728
Pd 12.8537 14.7496 35.777
Co 12.8554 16.6355 33.8894
Co 12.9057 16.6877 37.6413
Pd 10.9855 20.4585 12.8612
Pd 12.8601 18.5665 12.8557
Co 12.9226 20.5139 10.9993
Pd 10.9767 18.5677 14.7434
Pd 10.9792 20.4549 16.6639
Pd 12.8607 18.555 16.6565
Co 12.8598 20.4488 14.7479
Pd 10.9751 18.5611 18.5555
Pd 10.9848 20.4716 20.4773
Pd 12.8772 18.5612 20.4695
Co 12.8799 20.4693 18.5731
Pd 10.9878 18.5657 22.3805
Pd 10.9998 20.482 24.3037
Pd 12.8872 18.5703 24.301
Co 12.8884 20.4751 22.3905
Pd 10.9953 18.5721 26.2174
Pd 10.9995 20.4802 28.1328
Pd 12.8869 18.5685 28.134
Co 12.8948 20.4782 26.2184
Pd 10.9872 18.5621 30.0543
Pd 10.9839 20.4663 31.9592
Pd 12.8762 18.556 31.9655
Co 12.8878 20.4716 30.0463
Pd 10.9739 18.5541 33.8793
Pd 10.9776 20.4462 35.7725
Pd 12.8592 18.5462 35.7786
Co 12.8787 20.4623 33.8637
Pd 10.9748 18.5573 37.6914
Pd 10.9834 20.4463 39.5753
Pd 12.858 18.5543 39.5793
Co 12.858 20.4383 37.6889
Co 12.9201 20.5 41.4376
Pd 11.0268 24.2982 9.08805
Pd 12.8878 22.3921 9.07231
Co 12.9742 24.3513 7.24221
Pd 11.0002 22.3904 10.9524
Pd 11.0019 24.2816 12.8786
Pd 12.8727 22.37 12.8669
Co 12.8855 24.2748 10.9704
Pd 10.9849 22.3699 14.7589
Pd 10.9883 24.2897 16.6743
Pd 12.8774 22.3739 16.6702
Co 12.8855 24.2942 14.7789
Pd 10.9866 22.3754 18.5776
Pd 11.0006 24.2966 20.4941
Pd 12.8886 22.3837 20.4879
Co 12.8855 24.2957 18.5829
Pd 10.9984 22.3889 22.3985
Pd 11.0076 24.3041 24.3127
Pd 12.8992 22.3896 24.3067
Co 12.8988 24.3001 22.4008
Pd 11.0091 22.393 26.2191
Pd 11.0073 24.3024 28.1273
Pd 12.8989 22.3878 28.1318
Co 12.9049 24.3011 26.2201
Pd 10.9978 22.3854 30.0397
Pd 10.9997 24.2913 31.9459
Pd 12.8877 22.3785 31.9506
Co 12.8982 24.2966 30.0395
Pd 10.9854 22.3685 33.8606
Pd 10.9868 24.281 35.7657
Pd 12.8759 22.3651 35.7683
Co 12.8843 24.2887 33.8573
Pd 10.9831 22.3595 37.6794
Pd 10.9998 24.2695 39.5614
Pd 12.8706 22.3578 39.5716
Co 12.8837 24.2837 37.6614
Pd 10.9978 22.3765 41.4859
Pd 11.0241 24.2825 43.3519
Pd 12.8851 22.3764 43.3662
Co 12.8831 24.2609 41.4699
Co 12.9712 24.334 45.1981
Pd 13.0056 26.2224 5.37532
Pd 11.1279 26.2203 7.2285
Pd 11.0242 28.1406 9.08981
Pd 12.9159 26.2207 9.11987
Co 12.9717 28.0918 7.24392
Pd 11.035 26.2185 10.9899
Pd 10.9993 28.1537 12.8803
Pd 12.8916 26.2189 12.8833
Co 12.8829 28.1648 10.9722
Pd 10.9965 26.2168 14.7815
Pd 10.9857 28.1421 16.676
Pd 12.884 26.2172 16.685
Co 12.8829 28.1419 14.7807
Pd 10.9967 26.215 18.5886
Pd 10.998 28.1318 20.4959
Pd 12.8927 26.2155 20.4942
Co 12.8829 28.137 18.5847
Pd 11.0078 26.2133 22.4089
Pd 11.0051 28.1207 24.3144
Pd 12.9045 26.2137 24.3139
Co 12.8962 28.129 22.4025
Pd 11.005 26.2116 26.2209
Pd 11.0047 28.119 28.1291
Pd 12.9042 26.212 28.1281
Co 12.9023 28.1245 26.2219
Pd 11.0072 26.2098 30.0328
Pd 10.9971 28.1266 31.9476
Pd 12.8918 26.2102 31.9479
Co 12.8956 28.1256 30.0412
Pd 10.9955 26.2081 33.8531
Pd 10.9842 28.1334 35.7675
Pd 12.8825 26.2085 35.7571
Co 12.8817 28.13 33.8591
Pd 10.9946 26.2063 37.6602
Pd 10.9972 28.1415 39.5632
Pd 12.8895 26.2067 39.5587
Co 12.8811 28.1315 37.6631
Pd 11.0326 26.2046 41.4518
Pd 11.0215 28.125 43.3537
Pd 12.9132 26.205 43.3222
Co 12.8804 28.1509 41.4717
Pd 11.1249 26.203 45.2133
Pd 13.0023 26.2034 47.0667
Co 12.9687 28.0745 45.1998
Pd 12.8827 30.0492 9.0758
Pd 10.995 30.0467 10.9559
Pd 10.9777 31.9768 12.8665
Pd 12.8675 30.0678 12.8704
Co 12.9149 31.9257 11.0045
Pd 10.9797 30.0636 14.7624
Pd 10.9714 31.9769 16.6692
Pd 12.8722 30.0605 16.6737
Co 12.852 31.9873 14.7532
Pd 10.9814 30.0546 18.5811
Pd 10.9771 31.9568 20.4825
Pd 12.8835 30.0472 20.4914
Co 12.8721 31.9634 18.5783
Pd 10.9932 30.0377 22.402
Pd 10.9921 31.9429 24.309
Pd 12.894 30.0378 24.3102
Co 12.8806 31.9541 22.3957
Pd 11.0039 30.0301 26.2226
Pd 10.9918 31.9411 28.138
Pd 12.8937 30.0361 28.1353
Co 12.8871 31.9475 26.2236
Pd 10.9926 30.0342 30.0432
Pd 10.9762 31.9515 31.9644
Pd 12.8826 30.0419 31.9541
Co 12.88 31.9506 30.0516
Pd 10.9802 30.0477 33.8641
Pd 10.9699 31.9682 35.7778
Pd 12.8707 30.0518 35.7718
Co 12.8709 31.9564 33.869
Pd 10.9779 30.0532 37.6829
Pd 10.9756 31.9646 39.5805
Pd 12.8654 30.0556 39.5751
Co 12.8502 31.9768 37.6941
Pd 10.9926 30.0327 41.4894
Pd 12.8799 30.0336 43.3697
Co 12.9124 31.9118 41.4428
Pd 12.8498 33.8713 12.8627
Pd 10.9663 33.8658 14.7504
Pd 10.9604 35.7839 16.6689
Pd 12.8504 33.8794 16.6634
Co 12.8947 35.738 14.8007
Pd 10.9648 33.869 18.5625
Pd 10.9647 35.776 20.4713
Pd 12.8668 33.8697 20.4765
Co 12.8437 35.7901 18.5526
Pd 10.9775 33.8609 22.3874
Pd 10.9763 35.7608 24.2995
Pd 12.8769 33.8572 24.308
Co 12.869 35.7659 22.3883
Pd 10.985 33.851 26.2244
Pd 10.976 35.7591 28.1509
Pd 12.8766 33.8554 28.141
Co 12.8705 35.7627 26.2254
Pd 10.9769 33.8574 30.0613
Pd 10.9638 35.7707 31.9792
Pd 12.8659 33.8644 31.9725
Co 12.8684 35.7624 30.0624
Pd 10.9635 33.862 33.8862
Pd 10.9589 35.7752 35.7816
Pd 12.8488 33.8706 35.7856
Co 12.8424 35.7831 33.8981
Pd 10.9645 33.8553 37.6984
Pd 12.8477 33.8591 39.5863
Co 12.8929 35.7276 37.65
Pd 12.8397 37.676 16.665
Pd 10.962 37.6672 18.5542
Pd 10.9645 39.5803 20.4752
Pd 12.8491 37.6758 20.4683
Co 12.8944 39.5358 18.6065
Pd 10.9688 37.6648 22.3712
Pd 10.9738 39.563 24.2966
Pd 12.8655 37.6657 24.2993
Co 12.8488 39.5793 22.3671
Pd 10.9729 37.6628 26.2261
Pd 10.9735 39.5612 28.1573
Pd 12.8652 37.6639 28.1532
Co 12.8753 39.5508 26.2271
Pd 10.9682 37.6612 30.081
Pd 10.9636 39.5751 31.9787
Pd 12.8481 37.6705 31.9842
Co 12.8482 39.5757 30.0871
Pd 10.9608 37.6602 33.898
Pd 12.8382 37.6673 35.7875
Co 12.8932 39.5288 33.8477
Pd 12.8463 41.4646 20.4762
Pd 10.975 41.4505 22.3715
Pd 10.9896 43.3408 24.305
Pd 12.8615 41.4533 24.2977
Co 12.9074 43.3059 22.4234
Pd 11.0017 41.4219 26.2278
Pd 10.9893 43.339 28.1523
Pd 12.8612 41.4515 28.1583
Co 12.8707 43.3382 26.2288
Pd 10.9744 41.447 30.0841
Pd 12.8453 41.4594 31.9797
Co 12.9068 43.3024 30.0342
Pd 12.866 45.2049 24.3041
Pd 11.0527 45.1443 26.2295
Pd 12.8657 45.2031 28.1553
Co 13.0023 46.9557 26.2305
Pd 14.8138 5.33592 24.2691
Pd 16.7454 3.54588 24.3374
Co 16.7594 5.36181 22.4313
Pd 14.8752 3.61865 26.2109
Pd 14.8135 5.33414 28.1542
Pd 16.7451 3.54417 28.0845
Co 16.7243 5.37204 26.2118
Co 16.7588 5.35836 29.9923
Pd 14.7883 9.06139 20.4614
Pd 16.6869 7.1893 20.4767
Co 16.7283 9.10896 18.6024
Pd 14.8014 7.20652 22.356
Pd 14.7908 9.08108 24.284
Pd 16.6988 7.20859 24.2869
Co 16.6789 9.07139 22.3586
Pd 14.8212 7.22802 26.2125
Pd 14.7905 9.07932 28.1427
Pd 16.6985 7.20683 28.1384
Co 16.6995 9.10017 26.2135
Pd 14.8008 7.20299 30.069
Pd 14.7874 9.05614 31.9653
Pd 16.686 7.18406 31.9486
Co 16.6783 9.06787 30.0684
Co 16.727 9.10201 33.8246
Pd 14.7732 12.8429 16.6538
Pd 16.6653 10.9636 16.658
Co 16.7122 12.8986 14.7906
Pd 14.781 10.9645 18.5423
Pd 14.7714 12.8508 20.4572
Pd 16.6712 10.9665 20.4604
Co 16.6581 12.8461 18.5425
Pd 14.7814 10.9698 22.3593
Pd 14.7794 12.8658 24.2881
Pd 16.6843 10.9766 24.2887
Co 16.6803 12.87 22.3782
Pd 14.7813 10.9724 26.2142
Pd 14.7791 12.8641 28.142
Pd 16.684 10.9748 28.1401
Co 16.6814 12.8701 26.2152
Pd 14.7808 10.9663 30.0691
Pd 14.7705 12.8456 31.973
Pd 16.6703 10.9612 31.9683
Co 16.6797 12.8665 30.0523
Pd 14.7798 10.9575 33.8861
Pd 14.7717 12.8342 35.7763
Pd 16.6638 10.9549 35.7707
Co 16.6569 12.8391 33.888
Co 16.7104 12.8881 37.6399
Pd 14.773 16.648 12.8539
Pd 16.6588 14.7647 12.8532
Co 16.7172 16.7097 10.993
Pd 14.7712 14.7596 14.7368
Pd 14.7639 16.6453 16.6531
Pd 16.6576 14.7542 16.6524
Co 16.6519 16.6429 14.743
Pd 14.7666 14.7536 18.5461
Pd 14.7705 16.658 20.4669
Pd 16.6718 14.7594 20.4662
Co 16.672 16.6615 18.5675
Pd 14.7727 14.7582 22.3751
Pd 14.7818 16.6655 24.2991
Pd 16.6806 14.7692 24.2984
Co 16.6783 16.6664 22.3864
Pd 14.7813 14.7654 26.2159
Pd 14.7815 16.6637 28.1345
Pd 16.6803 14.7674 28.1338
Co 16.6835 16.6702 26.217
Pd 14.7721 14.7547 30.0567
Pd 14.7696 16.6528 31.9667
Pd 16.6709 14.7541 31.966
Co 16.6777 16.6629 30.0475
Pd 14.7654 14.7466 33.8858
Pd 14.7624 16.6366 35.7805
Pd 16.6561 14.7455 35.7797
Co 16.6708 16.6546 33.8665
Pd 14.7694 14.7492 37.6951
Pd 14.7708 16.6358 39.5797
Pd 16.6567 14.7525 39.579
Co 16.6501 16.6324 37.6909
Co 16.7148 16.6958 41.441
Pd 14.7945 20.4673 9.06915
Pd 16.6788 18.5859 9.0616
Co 16.7527 20.5377 7.2159
Pd 14.7819 18.5721 10.9419
Pd 14.771 20.4551 12.8637
Pd 16.6597 18.5594 12.8616
Co 16.6644 20.4561 10.9613
Pd 14.7647 18.5556 14.7491
Pd 14.7686 20.4652 16.6661
Pd 16.6674 18.5592 16.6649
Co 16.6716 20.4699 14.7753
Pd 14.769 18.5584 18.5657
Pd 14.7822 20.4738 20.4832
Pd 16.678 18.5694 20.4819
Co 16.6761 20.4737 18.5796
Pd 14.7815 18.5684 22.3883
Pd 14.7897 20.4781 24.3054
Pd 16.6851 18.574 24.3044
Co 16.6863 20.4799 22.3965
Pd 14.7852 18.5695 26.2177
Pd 14.7894 20.4763 28.1317
Pd 16.6848 18.5722 28.1313
Co 16.6894 20.4803 26.2187
Pd 14.7808 18.5649 30.0471
Pd 14.7812 20.4685 31.9539
Pd 16.6771 18.5642 31.9537
Co 16.6857 20.4764 30.0409
Pd 14.7678 18.5514 33.8696
Pd 14.7671 20.4564 35.771
Pd 16.6659 18.5505 35.7707
Co 16.6749 20.4667 33.8578
Pd 14.7629 18.5451 37.6862
Pd 14.7689 20.4429 39.5734
Pd 16.6576 18.5473 39.574
Co 16.6697 20.4594 37.6621
Pd 14.7795 18.5581 41.4935
Pd 14.7918 20.4517 43.3679
Pd 16.6761 18.5702 43.3741
Co 16.662 20.4422 41.4761
Co 16.7497 20.5203 45.2216
Pd 14.8506 24.3032 5.33333
Pd 16.7433 22.4192 5.30362
Co 16.8417 24.3811 3.59897
Pd 14.82 22.3944 7.17108
Pd 14.8029 24.2852 9.09775
Pd 16.6848 22.3794 9.09303
Co 16.7073 24.2796 7.21337
Pd 14.7808 22.3729 10.9681
Pd 14.7764 24.2926 12.8789
Pd 16.673 22.3772 12.8807
Co 16.686 24.299 10.9999
Pd 14.7711 22.3745 14.7725
Pd 14.7786 24.2977 16.6823
Pd 16.6753 22.3847 16.684
Co 16.6749 24.2984 14.7881
Pd 14.78 22.3836 18.5813
Pd 14.7875 24.3006 20.4915
Pd 16.6849 22.3892 20.4919
Co 16.6817 24.3024 18.5908
Pd 14.791 22.3875 22.3973
Pd 14.7982 24.3012 24.3097
Pd 16.6923 22.3907 24.3093
Co 16.6909 24.303 22.4017
Pd 14.7951 22.388 26.2194
Pd 14.7979 24.2994 28.1309
Pd 16.692 22.3889 28.1298
Co 16.6956 24.302 26.2204
Pd 14.7904 22.3841 30.0415
Pd 14.7866 24.2954 31.949
Pd 16.684 22.384 31.9472
Co 16.6903 24.2995 30.0392
Pd 14.7788 22.3766 33.8575
Pd 14.7771 24.289 35.7582
Pd 16.6738 22.376 35.7552
Co 16.6805 24.2954 33.85
Pd 14.7693 22.364 37.6663
Pd 14.7743 24.2804 39.5616
Pd 16.6708 22.365 39.5584
Co 16.6731 24.288 37.6528
Pd 14.7784 22.359 41.4707
Pd 14.8001 24.2696 43.3428
Pd 16.682 22.3638 43.3461
Co 16.6836 24.2851 41.4409
Pd 14.817 22.377 45.2678
Pd 14.8473 24.2841 47.1073
Pd 16.74 22.4001 47.1356
Co 16.7042 24.2622 45.2275
Co 16.8381 24.3604 48.842
Pd 15.0334 26.2247 3.50779
Pd 14.848 28.1442 5.33508
Pd 16.768 26.225 5.41803
Co 16.8392 28.0706 3.60066
Pd 14.8384 26.2228 7.22304
Pd 14.8002 28.1587 9.09952
Pd 16.7001 26.2232 9.11201
Co 16.7046 28.1686 7.21515
Pd 14.7909 26.2211 10.9942
Pd 14.7738 28.1478 12.8807
Pd 16.6783 26.2215 12.8984
Co 16.6834 28.1457 11.0017
Pd 14.7802 26.2193 14.7853
Pd 14.776 28.1392 16.6841
Pd 16.6778 26.2197 16.6918
Co 16.6723 28.1428 14.7898
Pd 14.7827 26.2176 18.5887
Pd 14.7849 28.1329 20.4933
Pd 16.686 26.218 20.4973
Co 16.6791 28.1354 18.5926
Pd 14.7933 26.2159 22.4018
Pd 14.7956 28.1288 24.3114
Pd 16.6945 26.2163 24.3113
Co 16.6883 28.1313 22.4034
Pd 14.8011 26.2141 26.2212
Pd 14.7953 28.1271 28.1327
Pd 16.6942 26.2145 28.1313
Co 16.693 28.1288 26.2222
Pd 14.7927 26.2124 30.0406
Pd 14.784 28.1276 31.9508
Pd 16.6851 26.2128 31.9454
Co 16.6877 28.1278 30.0409
Pd 14.7815 26.2106 33.8536
Pd 14.7745 28.1305 35.76
Pd 16.6763 26.211 35.7508
Co 16.6779 28.1284 33.8518
Pd 14.7783 26.2089 37.657
Pd 14.7717 28.1356 39.5634
Pd 16.6762 26.2093 39.5443
Co 16.6705 28.1324 37.6546
Pd 14.7885 26.2072 41.4482
Pd 14.7975 28.1431 43.3446
Pd 16.6974 26.2076 43.3306
Co 16.681 28.1318 41.4427
Pd 14.8354 26.2055 45.2193
Pd 14.8447 28.1251 47.109
Pd 16.7647 26.206 47.0246
Co 16.7016 28.1513 45.2293
Pd 15.0298 26.2039 48.9346
Co 16.8356 28.0499 48.8437
Pd 16.7382 30.0308 5.3071
Pd 14.8149 30.0513 7.17458
Pd 14.7868 31.9766 9.07441
Pd 16.6796 30.067 9.09654
Co 16.745 31.9106 7.22109
Pd 14.7756 30.0693 10.9716
Pd 14.7632 31.9853 12.8689
Pd 16.6678 30.0657 12.8842
Co 16.6566 31.9886 10.9666
Pd 14.7659 30.0642 14.776
Pd 14.7609 31.9718 16.6714
Pd 16.6702 30.0548 16.6875
Co 16.6638 31.9714 14.7806
Pd 14.7748 30.0516 18.5848
Pd 14.7744 31.9597 20.4885
Pd 16.6797 30.0468 20.4954
Co 16.6683 31.9641 18.5848
Pd 14.7858 30.0442 22.4008
Pd 14.7819 31.9519 24.3107
Pd 16.6871 30.0419 24.3128
Co 16.6786 31.9544 22.4018
Pd 14.79 30.0402 26.2229
Pd 14.7816 31.9501 28.1369
Pd 16.6868 30.0401 28.1333
Co 16.6817 31.9505 26.2239
Pd 14.7852 30.0407 30.045
Pd 14.7735 31.9544 31.9591
Pd 16.6788 30.0416 31.9507
Co 16.678 31.9509 30.0461
Pd 14.7736 30.0447 33.861
Pd 14.7593 31.963 35.7762
Pd 16.6686 30.0461 35.7587
Co 16.6671 31.9571 33.8631
Pd 14.7641 30.0537 37.6698
Pd 14.7611 31.9731 39.5787
Pd 16.6656 30.0536 39.5619
Co 16.662 31.9609 37.6673
Pd 14.7732 30.0553 41.4742
Pd 14.784 31.9609 43.3732
Pd 16.6769 30.0514 43.3496
Co 16.6542 31.9746 41.4813
Pd 14.8118 30.0339 45.2713
Pd 16.7349 30.0117 47.139
Co 16.742 31.8932 45.2268
Pd 16.6685 33.8606 9.06857
Pd 14.7716 33.8701 10.9489
Pd 14.76 35.7924 12.8626
Pd 16.6493 33.8835 12.8686
Co 16.7043 35.7351 11.0017
Pd 14.7543 33.8831 14.7561
Pd 14.751 35.7916 16.6619
Pd 16.6571 33.8803 16.6719
Co 16.639 35.7983 14.7517
Pd 14.7587 33.8768 18.5727
Pd 14.7576 35.7754 20.4756
Pd 16.6677 33.8666 20.4889
Co 16.6591 35.7762 18.5762
Pd 14.7711 33.8634 22.3953
Pd 14.7689 35.7645 24.3079
Pd 16.6748 33.8586 24.3114
Co 16.6654 35.7679 22.3952
Pd 14.7749 33.8587 26.2247
Pd 14.7686 35.7627 28.1432
Pd 16.6745 33.8568 28.1382
Co 16.6706 35.7606 26.2257
Pd 14.7705 33.8599 30.0541
Pd 14.7567 35.7702 31.9754
Pd 16.6668 33.8613 31.9607
Co 16.6648 35.7644 30.0562
Pd 14.7574 33.8698 33.8766
Pd 14.7495 35.7829 35.7892
Pd 16.6556 33.8716 35.7777
Co 16.6578 35.7692 33.8752
Pd 14.7525 33.8726 37.6932
Pd 14.7579 35.7802 39.5884
Pd 16.6472 33.8713 39.581
Co 16.6372 35.7879 37.6997
Pd 14.7692 33.8561 41.5005
Pd 16.6658 33.8449 43.381
Co 16.7019 35.7212 41.4497
Pd 16.6433 37.6783 12.8636
Pd 14.7557 37.679 14.7473
Pd 14.7552 39.594 16.6661
Pd 16.6421 37.6853 16.6629
Co 16.6942 39.5427 14.8028
Pd 14.7512 37.6816 18.5565
Pd 14.7533 39.5826 20.4694
Pd 16.6563 37.6766 20.4766
Co 16.6401 39.5916 18.5547
Pd 14.7572 37.6735 22.3856
Pd 14.7614 39.5641 24.3003
Pd 16.6652 37.6633 24.3089
Co 16.6622 39.5643 22.3903
Pd 14.7658 37.6628 26.2264
Pd 14.7611 39.5624 28.1542
Pd 16.6649 37.6616 28.1442
Co 16.6633 39.5607 26.2274
Pd 14.7566 37.67 30.0672
Pd 14.7524 39.5774 31.9852
Pd 16.6554 37.6714 31.9765
Co 16.6616 39.5608 30.0645
Pd 14.7499 37.6746 33.8963
Pd 14.7536 39.5853 35.7885
Pd 16.6406 37.6766 35.7902
Co 16.6388 39.5846 33.9002
Pd 14.7539 37.6686 37.7055
Pd 16.6412 37.6661 39.5895
Co 16.6924 39.5323 37.652
Pd 16.6447 41.4759 16.6719
Pd 14.7604 41.4707 18.5562
Pd 14.7651 43.3721 20.477
Pd 16.6506 41.4695 20.4743
Co 16.7051 43.3288 18.618
Pd 14.7608 41.4619 22.3732
Pd 14.7677 43.3489 24.2996
Pd 16.6637 41.456 24.3026
Co 16.6558 43.3629 22.3743
Pd 14.7607 41.4558 26.2281
Pd 14.7674 43.3471 28.1584
Pd 16.6634 41.4542 28.154
Co 16.6764 43.3306 26.2291
Pd 14.7602 41.4584 30.083
Pd 14.7642 43.3668 31.981
Pd 16.6497 41.4643 31.9822
Co 16.6551 43.3594 30.084
Pd 14.7591 41.4637 33.9
Pd 16.6432 41.4672 35.7846
Co 16.7039 43.3219 33.8403
Pd 16.6612 45.2467 20.4941
Pd 14.7757 45.2252 22.3733
Pd 14.7856 47.0941 24.2882
Pd 16.6731 45.224 24.3042
Co 16.7313 47.0725 22.4503
Pd 14.7955 45.2002 26.2298
Pd 14.7853 47.0923 28.1732
Pd 16.6728 45.2222 28.1558
Co 16.6962 47.0588 26.2308
Pd 14.7751 45.2217 30.0864
Pd 16.6603 45.2415 31.9659
Co 16.7307 47.0691 30.0114
Pd 16.7148 48.8867 24.3581
Pd 14.8447 48.8097 26.2315
Pd 16.7145 48.885 28.1052
Pd 18.6122 5.29438 20.485
Pd 20.5529 3.52432 20.5264
Co 20.5615 5.3567 18.6302
Pd 18.6508 3.52815 22.4304
Pd 18.6498 5.34129 24.3326
Pd 20.5243 3.43678 24.3057
Co 20.5301 5.32324 22.4074
Pd 18.6205 3.45298 26.2111
Pd 18.6495 5.33957 28.0913
Pd 20.524 3.43504 28.1167
Co 20.5407 5.29531 26.2121
Pd 18.6502 3.5247 29.9919
Pd 18.6113 5.28915 31.9389
Pd 20.552 3.51913 31.8961
Co 20.5295 5.31976 30.0167
Co 20.5603 5.34978 33.794
Pd 18.5908 9.05992 16.6631
Pd 20.4894 7.19658 16.6745
Co 20.5311 9.12405 14.7989
Pd 18.6061 7.18844 18.56
Pd 18.5912 9.07075 20.4699
Pd 20.5015 7.19186 20.4875
Co 20.4796 9.06998 18.5589
Pd 18.6107 7.19395 22.3782
Pd 18.601 9.09547 24.2869
Pd 20.5298 7.20993 24.3077
Co 20.5083 9.09529 22.3909
Pd 18.6161 7.22981 26.2128
Pd 18.6007 9.09372 28.1404
Pd 20.5295 7.20819 28.1182
Co 20.5162 9.10566 26.2138
Pd 18.6101 7.19045 30.0474
Pd 18.5903 9.06551 31.9574
Pd 20.5006 7.18663 31.9383
Co 20.5077 9.0918 30.0367
Pd 18.6049 7.18146 33.8656
Pd 18.5893 9.0512 35.7641
Pd 20.4879 7.18787 35.7514
Co 20.4783 9.06299 33.8687
Co 20.5293 9.11363 37.6287
Pd 18.5799 12.8544 12.8536
Pd 20.4745 10.9823 12.8576
Co 20.5265 12.9202 10.9964
Pd 18.5844 10.9702 14.7405
Pd 18.5698 12.8536 16.6543
Pd 20.4723 10.9746 16.6603
Co 20.463 12.8559 14.745
Pd 18.5792 10.9672 18.5526
Pd 18.5775 12.8686 20.4674
Pd 20.4904 10.9788 20.4737
Co 20.4848 12.8746 18.5702
Pd 18.5852 10.9785 22.3776
Pd 18.588 12.8772 24.2989
Pd 20.5022 10.9924 24.3002
Co 20.4921 12.8817 22.3876
Pd 18.5931 10.9846 26.2145
Pd 18.5877 12.8754 28.1319
Pd 20.5019 10.9906 28.1292
Co 20.4966 12.8867 26.2155
Pd 18.5846 10.975 30.0514
Pd 18.5766 12.8633 31.9634
Pd 20.4895 10.9736 31.9556
Co 20.4915 12.8782 30.0434
Pd 18.578 10.9602 33.8764
Pd 18.5683 12.8448 35.7764
Pd 20.4708 10.9659 35.769
Co 20.4836 12.8676 33.8609
Pd 18.5826 10.9598 37.6885
Pd 18.5778 12.8422 39.5772
Pd 20.4724 10.9701 39.5717
Co 20.4611 12.8455 37.686
Co 20.5241 12.9063 41.4347
Pd 18.5927 16.6746 9.06088
Pd 20.4767 14.7928 9.06701
Co 20.5437 16.7518 7.21447
Pd 18.5822 14.777 10.9405
Pd 18.5677 16.654 12.8609
Pd 20.466 14.7678 12.8615
Co 20.4637 16.6619 10.9599
Pd 18.5672 14.7583 14.7477
Pd 18.5689 16.6603 16.6642
Pd 20.4775 14.7641 16.664
Co 20.4789 16.6677 14.7739
Pd 18.5714 14.7611 18.5643
Pd 18.5806 16.6694 20.4812
Pd 20.4875 14.7762 20.4811
Co 20.4841 16.6708 18.5781
Pd 18.5828 14.7722 22.3868
Pd 18.5865 16.6751 24.3037
Pd 20.4932 14.7822 24.3033
Co 20.4917 16.6796 22.3951
Pd 18.5854 14.7745 26.2162
Pd 18.5862 16.6733 28.1305
Pd 20.4929 14.7805 28.1295
Co 20.4936 16.6813 26.2173
Pd 18.5822 14.7687 30.0456
Pd 18.5797 16.6642 31.953
Pd 20.4866 14.7709 31.9517
Co 20.4911 16.6761 30.0394
Pd 18.5702 14.7541 33.8682
Pd 18.5674 16.6515 35.77
Pd 20.4759 14.7553 35.7688
Co 20.4829 16.6638 33.8564
Pd 18.5654 14.7478 37.6848
Pd 18.5656 16.6418 39.5733
Pd 20.4639 14.7556 39.5712
Co 20.477 16.6572 37.6606
Pd 18.5798 14.763 41.492
Pd 18.59 16.6589 43.3733
Pd 20.474 14.7772 43.3658
Co 20.4613 16.648 41.4746
Co 20.5407 16.7344 45.2201
Pd 18.6442 20.5301 5.29032
Pd 20.5329 18.644 5.28961
Co 20.6152 20.6158 3.57027
Pd 18.6158 18.6123 7.1525
Pd 18.5908 20.4752 9.08941
Pd 20.4795 18.589 9.0887
Co 20.4988 20.4978 7.19538
Pd 18.5739 18.5689 10.9648
Pd 18.5716 20.471 12.8821
Pd 20.4767 18.5684 12.8814
Co 20.4875 20.4851 11.003
Pd 18.5682 18.5618 14.7718
Pd 18.5774 20.4758 16.6841
Pd 20.483 18.5728 16.6834
Co 20.4816 20.4777 14.7927
Pd 18.5786 18.5707 18.5797
Pd 18.5854 20.4818 20.4918
Pd 20.4904 18.5794 20.4911
Co 20.4888 20.4836 18.5928
Pd 18.586 18.5767 22.3957
Pd 18.5913 20.4847 24.3087
Pd 20.4947 18.5839 24.308
Co 20.4946 20.4879 22.402
Pd 18.5889 18.5782 26.218
Pd 18.591 20.483 28.129
Pd 20.4944 18.5822 28.1283
Co 20.4969 20.4888 26.219
Pd 18.5853 18.5732 30.0403
Pd 18.5844 20.4766 31.9459
Pd 20.4895 18.5741 31.9452
Co 20.494 20.4844 30.036
Pd 18.5774 18.5637 33.8563
Pd 18.5758 20.4671 35.7536
Pd 20.4815 18.5641 35.7528
Co 20.4876 20.4766 33.8452
Pd 18.5664 18.5513 37.6642
Pd 18.5695 20.4588 39.5556
Pd 20.4746 18.5563 39.5549
Co 20.4798 20.4673 37.6453
Pd 18.5715 18.555 41.4711
Pd 18.588 20.4596 43.3483
Pd 20.4768 18.5734 43.3476
Co 20.4851 20.4712 41.435
Pd 18.6128 18.5949 45.2835
Pd 18.6409 20.511 47.1474
Pd 20.5295 18.6249 47.1467
Co 20.4958 20.4804 45.2426
Co 20.6116 20.5951 48.8679
Pd 18.7499 22.5306 3.44371
Pd 18.6646 24.3348 5.38077
Pd 20.5556 22.447 5.36568
Co 20.5706 24.3567 3.51765
Pd 18.6155 22.3985 7.2084
Pd 18.5968 24.3 9.12257
Pd 20.502 22.3986 9.11871
Co 20.5391 24.3282 7.25308
Pd 18.5819 22.3818 10.9996
Pd 18.5798 24.3022 12.9035
Pd 20.485 22.3909 12.9095
Co 20.4933 24.3056 11.0274
Pd 18.577 22.3867 14.792
Pd 18.5801 24.3039 16.6956
Pd 20.4864 22.3922 16.699
Co 20.4851 24.3064 14.8092
Pd 18.5831 22.3906 18.5923
Pd 18.5883 24.3053 20.499
Pd 20.4931 22.3958 20.5003
Co 20.4899 24.3069 18.6018
Pd 18.5909 22.3935 22.4024
Pd 18.5945 24.3051 24.3119
Pd 20.4977 22.3972 24.3119
Co 20.4963 24.3077 22.4071
Pd 18.5941 22.3933 26.2197
Pd 18.5942 24.3033 28.1293
Pd 20.4974 22.3955 28.1279
Co 20.4985 24.3068 26.2208
Pd 18.5903 22.39 30.0371
Pd 18.5874 24.3 31.9422
Pd 20.4922 22.3905 31.9394
Co 20.4957 24.3042 30.0344
Pd 18.5818 22.3836 33.8471
Pd 18.5786 24.2952 35.7456
Pd 20.4849 22.3835 35.7408
Co 20.4886 24.3 33.8397
Pd 18.5751 22.3763 37.6474
Pd 18.5777 24.29 39.5377
Pd 20.4829 22.3787 39.5303
Co 20.4833 24.2959 37.6323
Pd 18.5795 22.3679 41.4398
Pd 18.5941 24.2844 43.3186
Pd 20.4993 22.3829 43.321