4033
Atoms. Timestep: 20166
Co 5.48921 12.9986 26.2189
Pd 3.5574 16.7131 24.3516
Pd 5.35013 14.784 24.2789
Co 5.37115 16.7317 22.4433
Pd 3.63497 14.8411 26.2227
Pd 3.56001 16.709 28.0988
Pd 5.35278 14.7794 28.1636
Co 5.3857 16.6927 26.2238
Co 5.37603 16.7232 30.004
Pd 3.52593 20.5243 20.5445
Pd 5.29881 18.5862 20.4991
Co 5.35616 20.5374 18.6462
Pd 3.53473 18.6204 22.4466
Pd 3.4428 20.4917 24.3242
Pd 5.35007 18.6201 24.3467
Co 5.32709 20.5021 22.4236
Pd 3.46397 18.5862 26.2275
Pd 3.44544 20.488 28.1354
Pd 5.35243 18.616 28.1056
Co 5.30347 20.5089 26.2284
Pd 3.53977 18.6129 30.0086
Pd 3.53407 20.5135 31.9168
Pd 5.30624 18.5738 31.9528
Co 5.33199 20.4942 30.0336
Co 5.36639 20.5213 33.8108
Pd 3.54665 24.3361 16.743
Pd 5.31067 22.3958 16.6983
Co 5.40148 24.3424 14.8491
Pd 3.53171 22.4319 18.6378
Pd 3.44013 24.3059 20.5161
Pd 5.33243 22.4268 20.5452
Co 5.33985 24.3055 18.6266
Pd 3.43429 22.3984 22.4208
Pd 3.41497 24.2995 24.3281
Pd 5.29036 22.4022 24.325
Co 5.28464 24.3122 22.4318
Pd 3.42487 22.3939 26.232
Pd 3.41786 24.2954 28.1405
Pd 5.29303 22.3982 28.1364
Co 5.27213 24.301 26.2329
Pd 3.44001 22.3906 30.0438
Pd 3.44902 24.2944 31.9536
Pd 5.34029 22.415 31.9171
Co 5.29037 24.3039 30.0344
Pd 3.54382 22.4197 33.8303
Pd 3.56727 24.3208 35.7377
Pd 5.32593 22.3755 35.7646
Co 5.35184 24.2894 33.8412
Co 5.42951 24.3144 37.6266
Pd 5.387 26.219 12.9765
Pd 3.61399 26.2154 14.8732
Pd 3.54348 28.0904 16.7472
Pd 5.38888 26.2148 16.761
Co 5.39832 28.0914 14.8533
Pd 3.45886 26.2111 18.6149
Pd 3.43689 28.112 20.5204
Pd 5.3013 26.2105 20.5242
Co 5.33661 28.1198 18.6308
Pd 3.42022 26.2068 22.4224
Pd 3.41174 28.1099 24.3325
Pd 5.27339 26.2063 24.335
Co 5.28141 28.1046 22.4361
Pd 3.40771 26.2026 26.2365
Pd 3.41469 28.1055 28.145
Pd 5.27628 26.202 28.1351
Co 5.26892 28.1073 26.2373
Pd 3.42666 26.1984 30.0511
Pd 3.44607 28.0981 31.9585
Pd 5.31065 26.1977 31.9476
Co 5.28727 28.0958 30.039
Pd 3.47243 26.1941 33.8617
Pd 3.56496 28.0626 35.7431
Pd 5.40722 26.1931 35.7105
Co 5.34909 28.1014 33.8463
Pd 3.66521 26.1894 37.6309
Pd 5.4514 26.1881 39.5326
Co 5.42749 28.0668 37.6326
Pd 5.3042 30.0337 16.7068
Pd 3.52532 29.9904 18.6463
Pd 3.51629 31.8937 20.5574
Pd 5.32599 29.9942 20.5538
Co 5.34653 31.8879 18.659
Pd 3.42785 30.0153 22.4295
Pd 3.4331 31.9176 24.3373
Pd 5.2839 30.0103 24.3337
Co 5.31739 31.9146 22.4365
Pd 3.41849 30.0112 26.2409
Pd 3.4359 31.9128 28.149
Pd 5.28667 30.0057 28.1454
Co 5.29386 31.8992 26.2416
Pd 3.43394 30.0059 30.053
Pd 3.5251 31.8785 31.9311
Pd 5.33431 29.9802 31.9266
Co 5.32261 31.9052 30.0474
Pd 3.53866 29.9681 33.8405
Pd 5.32074 30.0103 35.7757
Co 5.35757 31.8693 33.8256
Pd 5.28586 33.8348 20.5164
Pd 3.52191 33.7932 22.4639
Pd 3.54132 35.696 24.3735
Pd 5.3372 33.7922 24.3641
Co 5.35503 35.685 22.465
Pd 3.45124 33.8187 26.2453
Pd 3.54414 35.6915 28.1213
Pd 5.33973 33.7877 28.1236
Co 5.36963 35.7152 26.2459
Pd 3.52746 33.7833 30.0271
Pd 5.29384 33.821 31.9716
Co 5.36026 35.6761 30.0267
Pd 5.33072 37.6282 24.3054
Pd 3.61582 37.5636 26.2493
Pd 5.33357 37.6239 28.1904
Co 5.46688 39.4093 26.2496
Co 9.24754 9.219 26.2113
Pd 7.23973 12.8644 24.292
Pd 9.10423 10.9881 24.2902
Co 9.13847 12.9081 22.411
Pd 7.30098 11.0488 26.215
Pd 7.24234 12.8596 28.1427
Pd 9.10684 10.9833 28.137
Co 9.10694 12.867 26.216
Co 9.14365 12.8986 30.0208
Pd 7.19661 16.6637 20.4865
Pd 9.07155 14.7679 20.4669
Co 9.11415 16.7098 18.61
Pd 7.2187 14.7763 22.3636
Pd 7.22018 16.6717 24.2966
Pd 9.09557 14.7663 24.2893
Co 9.08091 16.6565 22.3662
Pd 7.24448 14.7919 26.2199
Pd 7.22267 16.6672 28.1479
Pd 9.09817 14.7616 28.1475
Co 9.11398 16.673 26.2208
Pd 7.22383 14.7669 30.0757
Pd 7.2042 16.6501 31.957
Pd 9.07944 14.7538 31.9691
Co 9.08618 16.6472 30.075
Co 9.12485 16.691 33.8297
Pd 7.19394 20.47 16.6883
Pd 9.06013 18.5743 16.6728
Co 9.11924 20.5165 14.8105
Pd 7.19074 18.5849 18.5718
Pd 7.19357 20.4782 20.5014
Pd 9.0753 18.5707 20.4795
Co 9.06953 20.461 18.5705
Pd 7.2006 18.5855 22.39
Pd 7.21597 20.5026 24.3216
Pd 9.10431 18.5766 24.2965
Co 9.09916 20.4858 22.4026
Pd 7.24068 18.5871 26.2247
Pd 7.21845 20.4984 28.1324
Pd 9.10694 18.5721 28.1498
Co 9.11386 20.4898 26.2255
Pd 7.20556 18.5769 30.059
Pd 7.20133 20.4653 31.9522
Pd 9.08344 18.557 31.9657
Co 9.10454 20.477 30.048
Pd 7.20106 18.5664 33.8757
Pd 7.20776 20.4466 35.763
Pd 9.0743 18.5502 35.77
Co 9.08119 20.4422 33.8784
Co 9.13827 20.4852 37.6344
Pd 7.22801 24.2966 12.8954
Pd 9.07942 22.3916 12.8749
Co 9.1588 24.3539 11.0359
Pd 7.20836 22.3908 14.7687
Pd 7.2238 24.2808 16.7037
Pd 9.08177 22.3723 16.683
Co 9.08865 24.2758 14.7757
Pd 7.19873 22.388 18.5941
Pd 7.21239 24.3094 20.5224
Pd 9.09318 22.3851 20.4995
Co 9.10456 24.2957 18.6033
Pd 7.20824 22.402 22.426
Pd 7.18541 24.3065 24.3299
Pd 9.10708 22.4031 24.3265
Co 9.10425 24.304 22.4221
Pd 7.19272 22.4034 26.2292
Pd 7.18818 24.3023 28.133
Pd 9.10974 22.3987 28.129
Co 9.10092 24.305 26.23
Pd 7.21338 22.3936 30.0327
Pd 7.22118 24.2966 31.9409
Pd 9.10183 22.3717 31.9554
Co 9.10988 24.2953 30.0376
Pd 7.21004 22.3704 33.8637
Pd 7.24064 24.2577 35.7584
Pd 9.09807 22.3475 35.769
Co 9.11727 24.2779 33.8559
Pd 7.22779 22.3607 37.6872
Pd 7.2623 24.2643 39.5651
Pd 9.10404 22.3486 39.5709
Co 9.1119 24.2435 37.677
Co 9.19468 24.2733 41.3876
Pd 9.16355 26.2264 9.17647
Pd 7.30941 26.2227 11.0372
Pd 7.22476 28.1446 12.8997
Pd 9.11184 26.2222 12.9157
Co 9.15564 28.0947 11.0401
Pd 7.24652 26.2185 14.8018
Pd 7.22051 28.152 16.708
Pd 9.10216 26.218 16.6971
Co 9.08535 28.1643 14.78
Pd 7.23372 26.2143 18.6275
Pd 7.20914 28.1149 20.5267
Pd 9.11105 26.2137 20.5264
Co 9.10129 28.1359 18.6076
Pd 7.18832 26.21 22.4305
Pd 7.18217 28.1092 24.3342
Pd 9.09751 26.2095 24.3288
Co 9.10099 28.1192 22.4264
Pd 7.18002 26.2057 26.2336
Pd 7.18497 28.1049 28.1375
Pd 9.10032 26.2052 28.1356
Co 9.09767 28.1096 26.2344
Pd 7.1938 26.2014 30.0369
Pd 7.21806 28.1018 31.9456
Pd 9.11993 26.2008 31.937
Co 9.1066 28.1107 30.0421
Pd 7.24785 26.1969 33.8406
Pd 7.23761 28.1313 35.7638
Pd 9.1204 26.196 35.7689
Co 9.11382 28.1192 33.8608
Pd 7.26235 26.192 37.6609
Pd 7.26127 28.1131 39.5727
Pd 9.14882 26.19 39.5044
Co 9.1083 28.1433 37.6828
Pd 7.47228 26.1853 41.4443
Pd 11.2558 26.0864 45.3034
Co 9.19473 28.0974 41.3997
Pd 9.07294 30.0528 12.8835
Pd 7.20188 30.0463 14.7773
Pd 7.18418 31.9627 16.7012
Pd 9.07522 30.0636 16.6917
Co 9.10956 31.9236 14.8233
Pd 7.19221 30.0405 18.6027
Pd 7.18379 31.9459 20.5143
Pd 9.08664 30.0423 20.5081
Co 9.05971 31.9706 18.5835
Pd 7.20174 30.0179 22.4346
Pd 7.20626 31.913 24.3347
Pd 9.10058 30.0158 24.3352
Co 9.08938 31.9373 22.4156
Pd 7.18627 30.008 26.238
Pd 7.20883 31.9085 28.1458
Pd 9.10323 30.0116 28.1379
Co 9.10409 31.9247 26.2387
Pd 7.20698 30.0091 30.0418
Pd 7.19175 31.9328 31.9663
Pd 9.09516 30.0298 31.9648
Co 9.09471 31.9288 30.0617
Pd 7.20377 30.0233 33.8737
Pd 7.19868 31.9419 35.779
Pd 9.09121 30.0447 35.7795
Co 9.07121 31.9545 33.8931
Pd 7.22324 30.0223 37.6997
Pd 9.09882 30.0311 39.5873
Co 9.12874 31.901 37.6524
Pd 9.04712 33.8616 16.69
Pd 7.17776 33.8436 18.589
Pd 7.18032 35.7604 20.5082
Pd 9.06223 33.8566 20.4968
Co 9.09793 35.7218 18.6314
Pd 7.1876 33.8344 22.4074
Pd 7.20392 35.7438 24.3185
Pd 9.09127 33.8422 24.314
Co 9.06458 35.7665 22.3879
Pd 7.22772 33.8241 26.2424
Pd 7.20652 35.7394 28.1703
Pd 9.0939 33.8379 28.1676
Co 9.09773 35.7413 26.2429
Pd 7.19275 33.8255 30.0773
Pd 7.18827 35.7476 31.9803
Pd 9.07038 33.8441 31.9844
Co 9.06993 35.7581 30.0977
Pd 7.18869 33.8266 33.8952
Pd 9.0615 33.8413 35.7908
Co 9.10885 35.7053 33.8535
Pd 9.05199 37.6593 20.4929
Pd 7.19919 37.6434 22.3898
Pd 7.21699 39.5508 24.3228
Pd 9.07605 37.6522 24.3155
Co 9.11574 39.5147 22.4415
Pd 7.22515 37.619 26.2464
Pd 7.2198 39.5467 28.1738
Pd 9.07875 37.648 28.1742
Co 9.08428 39.5469 26.2468
Pd 7.20467 37.635 30.1028
Pd 9.06017 37.6469 31.9966
Co 9.1212 39.5066 30.052
Pd 9.0783 41.4301 24.3252
Pd 7.27533 41.362 26.2501
Pd 9.0811 41.4261 28.1723
Co 9.21872 43.195 26.2505
Co 13.0331 5.46706 26.2046
Pd 11.0132 9.08222 24.2866
Pd 12.8926 7.22084 24.2812
Co 12.9296 9.12311 22.4038
Pd 11.0806 7.2755 26.2078
Pd 11.0158 9.07752 28.1334
Pd 12.8951 7.21626 28.1321
Co 12.8958 9.08433 26.2088
Co 12.9348 9.11387 30.0139
Pd 10.9794 12.8492 20.4634
Pd 12.8642 10.9675 20.4599
Co 12.9079 12.8995 18.5934
Pd 10.9942 10.9758 22.3564
Pd 10.9916 12.8602 24.2846
Pd 12.8823 10.9726 24.2809
Co 12.8653 12.8498 22.3537
Pd 11.0237 10.998 26.2123
Pd 10.9943 12.8554 28.1446
Pd 12.885 10.9678 28.1411
Co 12.8947 12.8719 26.2133
Pd 10.9995 10.9662 30.0681
Pd 10.9874 12.8349 31.9652
Pd 12.8722 10.9534 31.9621
Co 12.8708 12.8402 30.0726
Co 12.9187 12.8805 33.8326
Pd 10.9667 16.6516 16.6634
Pd 12.849 14.7623 16.6551
Co 12.8996 16.7033 14.7939
Pd 10.9726 14.7653 18.5457
Pd 10.9739 16.6535 20.4658
Pd 12.8612 14.7565 20.4582
Co 12.8515 16.6452 18.5457
Pd 10.9823 14.7617 22.3625
Pd 10.9884 16.6625 24.2938
Pd 12.8806 14.7603 24.2889
Co 12.8797 16.6633 22.3812
Pd 10.9893 14.7572 26.217
Pd 10.9911 16.6579 28.1447
Pd 12.8834 14.7556 28.1423
Co 12.8843 16.6602 26.2179
Pd 10.9877 14.7521 30.0711
Pd 10.9824 16.6393 31.9718
Pd 12.8696 14.7421 31.9723
Co 12.8855 16.6539 30.0542
Pd 10.9835 14.7459 33.8869
Pd 10.9806 16.6271 35.7726
Pd 12.8627 14.7381 35.7749
Co 12.8631 16.6258 33.8887
Co 12.9164 16.6733 37.6396
Pd 10.9754 20.4647 12.867
Pd 12.8504 18.573 12.8589
Co 12.9111 20.5216 11.0037
Pd 10.9683 18.5727 14.748
Pd 10.972 20.4586 16.6698
Pd 12.8539 18.5589 16.6595
Co 12.8512 20.454 14.7523
Pd 10.9697 18.5635 18.56
Pd 10.9806 20.4727 20.4832
Pd 12.8732 18.5626 20.4725
Co 12.8742 20.472 18.5774
Pd 10.9853 18.5655 22.385
Pd 10.9985 20.4806 24.3095
Pd 12.8862 18.569 24.3039
Co 12.8856 20.4752 22.3948
Pd 10.9957 18.5693 26.2217
Pd 11.0013 20.4761 28.1383
Pd 12.8892 18.5644 28.1364
Co 12.8951 20.4756 26.2225
Pd 10.991 18.5563 30.0579
Pd 10.9895 20.4588 31.9636
Pd 12.8822 18.5487 31.9669
Co 12.8917 20.4661 30.0497
Pd 10.9815 18.5443 33.8812
Pd 10.9884 20.4344 35.7749
Pd 12.8689 18.5344 35.7786
Co 12.8869 20.4535 33.8661
Pd 10.9858 18.5417 37.6914
Pd 10.9974 20.4269 39.5761
Pd 12.8702 18.5357 39.5784
Co 12.8693 20.4246 37.6902
Co 12.9319 20.4767 41.4362
Pd 11.0132 24.3068 9.0964
Pd 12.8746 22.401 9.07798
Co 12.9592 24.3615 7.2491
Pd 10.9884 22.3978 10.9595
Pd 10.9912 24.2878 12.8869
Pd 12.8623 22.3765 12.8726
Co 12.8733 24.2825 10.9773
Pd 10.9759 22.3748 14.766
Pd 10.9805 24.2934 16.6826
Pd 12.8699 22.3778 16.6758
Co 12.8762 24.2994 14.7858
Pd 10.9806 22.3779 18.5847
Pd 10.9958 24.2977 20.5025
Pd 12.8841 22.3852 20.4935
Co 12.8792 24.2984 18.5899
Pd 10.9953 22.3888 22.4057
Pd 11.0057 24.3028 24.3211
Pd 12.8976 22.3885 24.3123
Co 12.8954 24.3003 22.4077
Pd 11.009 22.3903 26.2262
Pd 11.0086 24.2984 28.1357
Pd 12.9005 22.384 28.137
Co 12.9046 24.2988 26.2269
Pd 11.0011 22.3799 30.0464
Pd 11.0049 24.2845 31.9534
Pd 12.8935 22.3716 31.9547
Co 12.9014 24.2917 30.0458
Pd 10.9936 22.3591 33.8656
Pd 10.9983 24.2698 35.7704
Pd 12.8861 22.3556 35.772
Co 12.8924 24.2805 33.8615
Pd 10.9974 22.3457 37.6827
Pd 11.0175 24.2566 39.5668
Pd 12.881 22.3436 39.5773
Co 12.8943 24.2752 37.6714
Pd 11.0121 22.3531 41.4893
Pd 11.0207 24.288 43.357
Pd 12.8874 22.3551 43.3574
Co 12.8792 24.2551 41.4852
Co 13.0853 24.3323 45.0238
Pd 12.9889 26.2338 5.38341
Pd 11.1126 26.2302 7.23802
Pd 11.01 28.1492 9.10067
Pd 12.9021 26.2296 9.12803
Co 12.9561 28.1019 7.25326
Pd 11.0226 26.2259 10.9995
Pd 10.9879 28.1598 12.8912
Pd 12.8806 26.2254 12.8915
Co 12.8701 28.1725 10.9816
Pd 10.9869 26.2217 14.7912
Pd 10.9773 28.1458 16.687
Pd 12.8759 26.2211 16.6932
Co 12.873 28.1471 14.7901
Pd 10.99 26.2174 18.5983
Pd 10.9925 28.1329 20.5069
Pd 12.8875 26.2169 20.5024
Co 12.8759 28.1397 18.5942
Pd 11.0041 26.2132 22.4186
Pd 11.0025 28.1194 24.3255
Pd 12.9023 26.2127 24.3221
Co 12.8921 28.1293 22.412
Pd 11.0043 26.209 26.2306
Pd 11.0053 28.1152 28.1401
Pd 12.9052 26.2085 28.1359
Co 12.9013 28.1224 26.2313
Pd 11.0102 26.2047 30.0424
Pd 11.0014 28.1205 31.9581
Pd 12.8967 26.2043 31.9556
Co 12.898 28.121 30.0503
Pd 11.0014 26.2003 33.8612
Pd 10.9942 28.1261 35.7756
Pd 12.8937 26.2 35.7573
Co 12.8886 28.1237 33.8665
Pd 11.0228 26.1953 37.6609
Pd 11.011 28.128 39.5728
Pd 12.8708 26.1956 39.6119
Co 12.8887 28.1206 37.6762
Pd 10.9334 26.1864 41.5157
Pd 11.0187 28.0523 43.382
Pd 12.9337 26.2137 43.2853
Co 12.8685 28.1357 41.4841
Pd 13.0484 26.319 47.1658
Pd 12.107 23.9481 47.1344
Co 12.9856 28.0654 45.2027
Pd 12.8681 30.0581 9.0865
Pd 10.9819 30.054 10.968
Pd 10.9656 31.9829 12.8799
Pd 12.8558 30.0742 12.8812
Co 12.9014 31.9334 11.0164
Pd 10.9694 30.0685 14.7746
Pd 10.9622 31.9805 16.6827
Pd 12.8634 30.0645 16.6845
Co 12.8414 31.9925 14.7652
Pd 10.974 30.057 18.5933
Pd 10.9708 31.9579 20.4961
Pd 12.8775 30.0487 20.5022
Co 12.8644 31.9661 18.5903
Pd 10.9887 30.0376 22.4143
Pd 10.9886 31.9415 24.3226
Pd 12.891 30.0369 24.321
Co 12.8758 31.9543 22.4078
Pd 11.0024 30.0276 26.235
Pd 10.9914 31.9374 28.1516
Pd 12.8939 30.0328 28.1459
Co 12.8853 31.9454 26.2356
Pd 10.9944 30.0294 30.0554
Pd 10.9793 31.9458 31.9775
Pd 12.8865 30.0366 31.964
Co 12.8816 31.9463 30.0632
Pd 10.9864 30.0413 33.8752
Pd 10.9775 31.9609 35.7904
Pd 12.8781 30.044 35.7821
Co 12.8761 31.95 33.8804
Pd 10.989 30.0452 37.6942
Pd 10.9858 31.9549 39.5992
Pd 12.8698 30.0466 39.5902
Co 12.8571 31.9688 37.7076
Pd 11.004 30.0154 41.5154
Pd 12.8752 29.9982 43.3854
Co 12.9185 31.8976 41.4611
Pd 12.8374 33.8777 12.876
Pd 10.9553 33.8706 14.7651
Pd 10.9504 35.7874 16.6849
Pd 12.8408 33.8833 16.6767
Co 12.8834 35.7431 14.8152
Pd 10.9566 33.8713 18.5773
Pd 10.9576 35.7769 20.4874
Pd 12.8601 33.8711 20.4898
Co 12.8351 35.7927 18.5672
Pd 10.9722 33.8607 22.4023
Pd 10.972 35.7593 24.3156
Pd 12.8731 33.8561 24.3213
Co 12.8634 35.766 22.4029
Pd 10.9826 33.8483 26.2393
Pd 10.9748 35.7552 28.1669
Pd 12.876 33.8521 28.1542
Co 12.8679 35.7605 26.2398
Pd 10.9777 33.8526 30.076
Pd 10.9659 35.7647 31.9949
Pd 12.8687 33.859 31.9854
Co 12.869 35.7579 30.0767
Pd 10.9681 33.8553 33.9006
Pd 10.9642 35.767 35.7978
Pd 12.8546 33.8635 35.799
Co 12.8462 35.7765 33.9125
Pd 10.9723 33.8459 37.7142
Pd 12.8555 33.8494 39.602
Co 12.8993 35.7187 37.6652
Pd 12.8294 37.6798 16.6808
Pd 10.953 37.6694 18.5715
Pd 10.9566 39.5811 20.4937
Pd 12.8416 37.6771 20.4841
Co 12.8852 39.5382 18.6234
Pd 10.9627 37.6644 22.3885
Pd 10.9688 39.5614 24.3151
Pd 12.861 37.6646 24.315
Co 12.8425 39.5793 22.3841
Pd 10.9698 37.66 26.2434
Pd 10.9715 39.5572 28.1756
Pd 12.8638 37.6605 28.1688
Co 12.872 39.5484 26.2439
Pd 10.9682 37.6562 30.0981
Pd 10.9647 39.5688 31.997
Pd 12.8499 37.6648 31.9997
Co 12.848 39.5711 30.1038
Pd 10.964 37.6529 33.9151
Pd 12.8429 37.6594 35.8032
Co 12.8959 39.522 33.8643
Pd 12.8381 41.4658 20.4944
Pd 10.9682 41.45 22.3912
Pd 10.984 43.3391 24.3257
Pd 12.8563 41.4521 24.3157
Co 12.9004 43.3057 22.4426
Pd 10.9979 41.419 26.2473
Pd 10.9868 43.335 28.1729
Pd 12.8591 41.4479 28.1762
Co 12.8667 43.3358 26.2479
Pd 10.9737 41.4419 30.1035
Pd 12.8462 41.4535 31.9976
Co 12.9058 43.2977 30.0531
Pd 12.8601 45.2035 24.3244
Pd 11.0483 45.1415 26.2511
Pd 12.8629 45.1995 28.1754
Co 12.9977 46.9532 26.2516
Pd 14.8152 5.33446 24.2608
Pd 16.7473 3.54473 24.3266
Co 16.7595 5.36199 22.4218
Pd 14.8784 3.61586 26.2014
Pd 14.8177 5.32996 28.1458
Pd 16.7497 3.54044 28.0736
Co 16.7272 5.36953 26.2022
Co 16.7646 5.35321 29.9826
Pd 14.7861 9.06282 20.456
Pd 16.6851 7.19095 20.4686
Co 16.7247 9.112 18.5958
Pd 14.801 7.20649 22.3492
Pd 14.7915 9.07969 24.2784
Pd 16.6999 7.20746 24.2786
Co 16.6782 9.07171 22.3518
Pd 14.8236 7.22513 26.2054
Pd 14.7942 9.07499 28.1367
Pd 16.7026 7.20288 28.1299
Co 16.7018 9.09761 26.2064
Pd 14.8062 7.19736 30.0618
Pd 14.794 9.04904 31.9592
Pd 16.693 7.17746 31.9401
Co 16.6836 9.06242 30.061
Co 16.7352 9.09397 33.8173
Pd 14.7674 12.8471 16.6515
Pd 16.6599 10.968 16.6529
Co 16.705 12.9043 14.7869
Pd 14.7769 10.9673 18.5385
Pd 14.7685 12.8524 20.4546
Pd 16.6687 10.9682 20.4551
Co 16.6538 12.8493 18.5386
Pd 14.7802 10.9699 22.3553
Pd 14.7794 12.8646 24.2853
Pd 16.6848 10.9755 24.283
Co 16.6789 12.8704 22.374
Pd 14.7831 10.9696 26.2098
Pd 14.7822 12.8598 28.1387
Pd 16.6875 10.9708 28.1341
Co 16.683 12.8677 26.2108
Pd 14.7857 10.9604 30.0642
Pd 14.7768 12.8381 31.969
Pd 16.6769 10.9543 31.962
Co 16.6845 12.861 30.0474
Pd 14.7877 10.9487 33.881
Pd 14.781 12.8237 35.7723
Pd 16.6733 10.9452 35.7646
Co 16.6649 12.8305 33.8827
Co 16.7211 12.877 37.635
Pd 14.7636 16.6547 12.8543
Pd 16.6498 14.7717 12.8508
Co 16.7064 16.718 10.9919
Pd 14.7636 14.7652 14.7359
Pd 14.7574 16.6495 16.6534
Pd 16.6515 14.7587 16.65
Co 16.644 16.6487 14.7418
Pd 14.7619 14.7566 18.545
Pd 14.767 16.6597 20.4671
Pd 16.6686 14.7612 20.4635
Co 16.667 16.6648 18.5662
Pd 14.7709 14.7585 22.3739
Pd 14.7812 16.6644 24.2991
Pd 16.6805 14.7683 24.2955
Co 16.6763 16.667 22.385
Pd 14.7826 14.7628 26.2143
Pd 14.7841 16.6598 28.1339
Pd 16.6833 14.7637 28.1304
Co 16.6846 16.668 26.2152
Pd 14.7766 14.749 30.0544
Pd 14.7757 16.6456 31.9655
Pd 16.6771 14.7472 31.9621
Co 16.682 16.6578 30.0453
Pd 14.7733 14.7372 33.8827
Pd 14.7719 16.6252 35.7779
Pd 16.6654 14.7351 35.7756
Co 16.6783 16.6461 33.8636
Pd 14.7802 14.7367 37.6921
Pd 14.7832 16.6211 39.5782
Pd 16.6687 14.7395 39.5756
Co 16.6607 16.6204 37.6879
Co 16.7273 16.682 41.4393
Pd 14.7816 20.4766 9.07208
Pd 16.6662 18.5954 9.06183
Co 16.7384 20.5485 7.21738
Pd 14.7708 18.5801 10.9436
Pd 14.7609 20.4619 12.8666
Pd 16.65 18.5665 12.8618
Co 16.6529 20.4645 10.9628
Pd 14.7564 18.5611 14.7508
Pd 14.7615 20.4694 16.669
Pd 16.6606 18.5637 16.665
Co 16.663 20.4757 14.7768
Pd 14.7636 18.5614 18.5673
Pd 14.7779 20.4755 20.4861
Pd 16.6742 18.5714 20.482
Co 16.6704 20.477 18.581
Pd 14.779 18.5687 22.3897
Pd 14.7885 20.4772 24.308
Pd 16.6843 18.5733 24.3042
Co 16.6836 20.4806 22.3978
Pd 14.786 18.5671 26.2188
Pd 14.7915 20.4727 28.1338
Pd 16.6872 18.5688 28.1306
Co 16.6899 20.4784 26.2196
Pd 14.785 18.5596 30.0476
Pd 14.787 20.4622 31.9556
Pd 16.6827 18.5579 31.9527
Co 16.6895 20.4719 30.0415
Pd 14.7755 18.543 33.8695
Pd 14.7758 20.4469 35.773
Pd 16.6746 18.5407 35.769
Co 16.6813 20.4596 33.8585
Pd 14.7736 18.531 37.6846
Pd 14.7798 20.4268 39.5709
Pd 16.6689 18.5338 39.5721
Co 16.6788 20.4486 37.6616
Pd 14.7924 18.5424 41.493
Pd 14.8013 20.4354 43.3695
Pd 16.6875 18.5565 43.3741
Co 16.6733 20.4274 41.4751
Co 16.7544 20.5061 45.2252
Pd 14.8342 24.3149 5.33876
Pd 16.7272 22.4312 5.30637
Co 16.8239 24.3942 3.60294
Pd 14.8053 22.4049 7.17528
Pd 14.7893 24.2944 9.1032
Pd 16.6715 22.389 9.09578
Co 16.6923 24.2903 7.21737
Pd 14.769 22.3809 10.9723
Pd 14.7657 24.2993 12.8844
Pd 16.6626 22.3843 12.8835
Co 16.6739 24.3073 11.004
Pd 14.7622 22.38 14.7767
Pd 14.7709 24.302 16.6878
Pd 16.6679 22.3892 16.6867
Co 16.6656 24.3042 14.7921
Pd 14.774 22.3866 18.5855
Pd 14.7826 24.3024 20.497
Pd 16.6804 22.3913 20.4945
Co 16.6753 24.3057 18.5948
Pd 14.7879 22.388 22.4014
Pd 14.7963 24.3004 24.315
Pd 16.6908 22.3902 24.3117
Co 16.6876 24.3039 22.4055
Pd 14.7952 22.3859 26.2232
Pd 14.7993 24.2961 28.1358
Pd 16.6938 22.3859 28.1318
Co 16.6954 24.3003 26.224
Pd 14.7941 22.3792 30.0447
Pd 14.7918 24.2896 31.9532
Pd 16.6888 22.3786 31.9493
Co 16.6935 24.2954 30.0423
Pd 14.7861 22.3696 33.8609
Pd 14.7842 24.2818 35.7652
Pd 16.6802 22.3682 35.7584
Co 16.6856 24.2895 33.855
Pd 14.7771 22.3552 37.6712
Pd 14.7769 24.2727 39.5736
Pd 16.6805 22.3543 39.5571
Co 16.6773 24.2805 37.659
Pd 14.7889 22.3367 41.4661
Pd 14.8641 24.2614 43.2902
Pd 16.6925 22.3406 43.3516
Co 16.7112 24.2742 41.4269
Pd 14.8023 22.3643 45.2777
Pd 14.8031 24.2732 47.13
Pd 16.7308 22.3924 47.1333
Co 16.6931 24.2505 45.2377
Co 16.8417 24.3381 48.8407
Pd 15.0153 26.2376 3.51434
Pd 14.831 28.1559 5.34303
Pd 16.7513 26.2369 5.42326
Co 16.8208 28.0837 3.60704
Pd 14.8231 26.2333 7.22973
Pd 14.786 28.1679 9.10751
Pd 16.6862 26.2327 9.11729
Co 16.689 28.1794 7.2217
Pd 14.7785 26.2291 11.0009
Pd 14.7624 28.1546 12.8887
Pd 16.6673 26.2285 12.9036
Co 16.6706 28.1539 11.0082
Pd 14.7706 26.2248 14.792
Pd 14.7676 28.1435 16.6921
Pd 16.6697 26.2243 16.6971
Co 16.6624 28.1486 14.7964
Pd 14.7761 26.2206 18.5955
Pd 14.7793 28.1347 20.5013
Pd 16.6808 26.2201 20.5025
Co 16.6721 28.1387 18.5991
Pd 14.7896 26.2164 22.4084
Pd 14.793 28.1282 24.3193
Pd 16.6923 26.216 24.3164
Co 16.6843 28.1322 22.4099
Pd 14.8005 26.2123 26.2276
Pd 14.7959 28.1241 28.1402
Pd 16.6953 26.2118 28.1361
Co 16.6921 28.1274 26.2284
Pd 14.7954 26.2081 30.0465
Pd 14.7883 28.1225 31.9577
Pd 16.6895 26.2078 31.9492
Co 16.6901 28.1241 30.0468
Pd 14.7902 26.2042 33.8587
Pd 14.7801 28.1222 35.7708
Pd 16.678 26.204 35.7634
Co 16.682 28.122 33.8597
Pd 14.769 26.1995 37.676
Pd 14.7718 28.1271 39.5717
Pd 16.6887 26.2025 39.5403
Co 16.674 28.1244 37.6627
Pd 14.816 26.2096 41.4423
Pd 14.8157 28.1366 43.3505
Pd 16.7137 26.2081 43.34
Co 16.6964 28.1269 41.4455
Pd 14.8376 26.2061 45.2345
Pd 14.9036 28.1489 47.1295
Pd 16.7716 26.1903 47.0333
Co 16.7221 28.1454 45.235
Pd 15.0618 26.1927 48.9677
Co 16.8697 28.0426 48.8615
Pd 16.7208 30.0428 5.31484
Pd 14.7989 30.0618 7.18379
Pd 14.7719 31.9858 9.0849
Pd 16.6651 30.0765 9.10435
Co 16.7288 31.9213 7.23004
Pd 14.7625 30.0772 10.9809
Pd 14.7512 31.992 12.8795
Pd 16.6561 30.0728 12.8921
Co 16.6432 31.9968 10.9756
Pd 14.7557 30.0697 14.7853
Pd 14.7517 31.976 16.6819
Pd 16.6614 30.0594 16.6953
Co 16.6532 31.9772 14.7896
Pd 14.7675 30.0547 18.5941
Pd 14.7681 31.9615 20.499
Pd 16.6738 30.049 20.5031
Co 16.6606 31.9674 18.5939
Pd 14.7814 30.0448 22.41
Pd 14.7786 31.9513 24.3211
Pd 16.6843 30.0416 24.3204
Co 16.6738 31.9553 22.4107
Pd 14.7886 30.0384 26.232
Pd 14.7815 31.9473 28.1471
Pd 16.6871 30.0376 28.1407
Co 16.6801 31.9491 26.2327
Pd 14.7873 30.0368 30.0537
Pd 14.7767 31.9493 31.9695
Pd 16.682 30.0366 31.9585
Co 16.6794 31.9472 30.0549
Pd 14.7787 30.0378 33.8704
Pd 14.7647 31.956 35.7871
Pd 16.673 30.0391 35.7679
Co 16.671 31.9511 33.8725
Pd 14.7687 30.0464 37.681
Pd 14.7667 31.9628 39.5926
Pd 16.6715 30.0441 39.5711
Co 16.6673 31.9527 37.6778
Pd 14.7758 30.0413 41.486
Pd 14.788 31.9445 43.3814
Pd 16.692 30.0441 43.3546
Co 16.662 31.9633 41.4904
Pd 14.8288 30.0284 45.2765
Pd 16.7667 30.0184 47.1496
Co 16.7579 31.8853 45.2323
Pd 16.6534 33.8701 9.07885
Pd 14.7578 33.878 10.9606
Pd 14.7473 35.7991 12.8756
Pd 16.637 33.8905 12.8789
Co 16.6903 35.7433 11.0131
Pd 14.7434 33.8885 14.7679
Pd 14.7411 35.7958 16.6749
Pd 16.6476 33.8849 16.6822
Co 16.6277 35.8041 14.7633
Pd 14.7506 33.8798 18.5845
Pd 14.7506 35.7771 20.4886
Pd 16.6611 33.8687 20.4992
Co 16.6507 35.7795 18.5877
Pd 14.766 33.8639 22.407
Pd 14.7649 35.7638 24.3208
Pd 16.6712 33.8583 24.3215
Co 16.66 35.7688 22.4066
Pd 14.7728 33.8569 26.2363
Pd 14.7677 35.7597 28.156
Pd 16.674 33.8542 28.1483
Co 16.6682 35.7591 26.237
Pd 14.7717 33.8558 30.0656
Pd 14.7589 35.765 31.9882
Pd 16.6692 33.8565 31.9709
Co 16.6654 35.7606 30.0675
Pd 14.7615 33.8637 33.8883
Pd 14.7545 35.7755 35.8027
Pd 16.6603 33.8645 35.7887
Co 16.6613 35.7632 33.8868
Pd 14.7585 33.8636 37.7063
Pd 14.7654 35.7707 39.6022
Pd 16.654 33.8614 39.5922
Co 16.643 35.7795 37.7117
Pd 14.7769 33.8449 41.5135
Pd 16.6752 33.8312 43.3899
Co 16.7105 35.7105 41.4611
Pd 16.6304 37.6852 12.8764
Pd 14.7441 37.6844 14.7615
Pd 14.7446 39.5981 16.6815
Pd 16.632 37.6898 16.6757
Co 16.6824 39.5483 14.8167
Pd 14.7424 37.6845 18.5708
Pd 14.7456 39.5843 20.4848
Pd 16.649 37.6787 20.4893
Co 16.631 39.5948 18.5686
Pd 14.7513 37.6739 22.3998
Pd 14.7567 39.5634 24.3156
Pd 16.6609 37.663 24.3215
Co 16.6561 39.5651 22.4042
Pd 14.763 37.6609 26.2405
Pd 14.7594 39.5593 28.1695
Pd 16.6636 37.6589 28.1568
Co 16.6602 39.5591 26.2412
Pd 14.7568 37.6658 30.0812
Pd 14.7538 39.572 32.0004
Pd 16.6571 37.6665 31.9891
Co 16.6615 39.5569 30.0782
Pd 14.7531 37.6681 33.9105
Pd 14.7579 39.5778 35.8038
Pd 16.6451 37.6694 35.803
Co 16.6417 39.5785 33.914
Pd 14.7598 37.6601 37.7199
Pd 16.6485 37.6569 39.6021
Co 16.6981 39.5242 37.6657
Pd 16.6339 41.4802 16.6871
Pd 14.7509 41.4735 18.5728
Pd 14.7568 43.3736 20.4948
Pd 16.6427 41.4715 20.4894
Co 16.6955 43.3319 18.6342
Pd 14.7542 41.4623 22.3898
Pd 14.7622 43.348 24.3172
Pd 16.6587 41.4555 24.3175
Co 16.649 43.3636 22.3905
Pd 14.7571 41.4538 26.2446
Pd 14.7649 43.3439 28.1759
Pd 16.6614 41.4514 28.1689
Co 16.6725 43.329 26.2452
Pd 14.7596 41.4541 30.0994
Pd 14.7648 43.3614 31.9984
Pd 16.6507 41.4593 31.9971
Co 16.6543 43.3554 30.1
Pd 14.7616 41.4572 33.9163
Pd 16.6471 41.4601 35.7994
Co 16.7061 43.3158 33.8561
Pd 16.6526 45.2485 20.5115
Pd 14.7685 45.2255 22.3921
Pd 14.7795 47.0931 24.308
Pd 16.6675 45.2234 24.3215
Co 16.7239 47.0731 22.4687
Pd 14.7912 45.1982 26.2485
Pd 14.7822 47.0891 28.193
Pd 16.6701 45.2194 28.1729
Co 16.6916 47.0571 26.2491
Pd 14.7739 45.2174 30.1049
Pd 16.6606 45.2364 31.983
Co 16.7291 47.0652 30.0295
Pd 16.7084 48.886 24.3776
Pd 14.8398 48.8076 26.2522
Pd 16.711 48.8821 28.1245
Pd 18.6109 5.29627 20.4742
Pd 20.552 3.52652 20.513
Co 20.5587 5.36025 18.6181
Pd 18.6513 3.52864 22.4182
Pd 18.6514 5.34045 24.3216
Pd 20.5263 3.43632 24.2922
Co 20.5302 5.32411 22.3952
Pd 18.6239 3.45081 26.1988
Pd 18.654 5.33605 28.0803
Pd 20.5289 3.43192 28.1032
Co 20.5437 5.29347 26.1997
Pd 18.6564 3.51998 29.9797
Pd 18.6186 5.28302 31.9279
Pd 20.5597 3.51351 31.8828
Co 20.5354 5.31527 30.0045
Co 20.5689 5.34284 33.782
Pd 18.5858 9.0646 16.6552
Pd 20.4848 7.20153 16.6638
Co 20.5247 9.13034 14.7896
Pd 18.6029 7.19175 18.5506
Pd 18.5891 9.07275 20.4618
Pd 20.4998 7.19413 20.4767
Co 20.476 9.07364 18.5494
Pd 18.6104 7.19452 22.3686
Pd 18.6019 9.09469 24.2786
Pd 20.531 7.20946 24.2967
Co 20.5077 9.09622 22.3813
Pd 18.6188 7.22759 26.2031
Pd 18.6046 9.09007 28.1319
Pd 20.5337 7.20497 28.1072
Co 20.5186 9.10381 26.2041
Pd 18.6157 7.18547 30.0376
Pd 18.5972 9.05911 31.9488
Pd 20.5077 7.18075 31.9274
Co 20.513 9.0872 30.0268
Pd 18.6134 7.17395 33.8559
Pd 18.5989 9.04231 35.7558
Pd 20.4976 7.17955 35.7407
Co 20.4865 9.05576 33.859
Co 20.5401 9.10407 37.6194
Pd 18.5713 12.8618 12.8484
Pd 20.4662 10.99 12.8497
Co 20.5165 12.9291 10.9898
Pd 18.5776 10.9763 14.734
Pd 18.5641 12.8583 16.649
Pd 20.467 10.9796 16.6523
Co 20.4558 12.8623 14.7384
Pd 18.5753 10.9706 18.5459
Pd 18.5747 12.8707 20.4619
Pd 20.488 10.9812 20.4655
Co 20.4806 12.8783 18.5634
Pd 18.5842 10.9792 22.3707
Pd 18.5882 12.8765 24.2932
Pd 20.5028 10.992 24.2918
Co 20.4908 12.8827 22.3807
Pd 18.5951 10.9824 26.2074
Pd 18.5909 12.8719 28.1259
Pd 20.5055 10.9874 28.1206
Co 20.4983 12.885 26.2084
Pd 18.5897 10.9699 30.044
Pd 18.5829 12.8568 31.9571
Pd 20.496 10.9676 31.947
Co 20.4962 12.8737 30.0361
Pd 18.5861 10.9524 33.869
Pd 18.5776 12.8355 35.7703
Pd 20.4801 10.9573 35.7606
Co 20.4912 12.8604 33.8535
Pd 18.5933 10.9495 37.6815
Pd 18.5896 12.8305 39.5717
Pd 20.4841 10.9592 39.5639
Co 20.4714 12.8357 37.6791
Co 20.5364 12.8945 41.4284
Pd 18.5805 16.6845 9.05835
Pd 20.4648 14.803 9.06177
Co 20.5301 16.7632 7.21051
Pd 18.5717 14.7856 10.9366
Pd 18.5584 16.6613 12.8583
Pd 20.457 14.7755 12.8562
Co 20.453 16.6709 10.9559
Pd 18.5596 14.7643 14.7438
Pd 18.5625 16.6651 16.6615
Pd 20.4714 14.7691 16.6586
Co 20.471 16.6741 14.7698
Pd 18.5668 14.7646 18.5603
Pd 18.5771 16.6716 20.4784
Pd 20.4844 14.7786 20.4755
Co 20.4792 16.6746 18.574
Pd 18.5811 14.773 22.3826
Pd 18.5861 16.6746 24.3007
Pd 20.4931 14.782 24.2975
Co 20.4898 16.6808 22.3908
Pd 18.5868 14.7725 26.2118
Pd 18.5889 16.6701 28.1273
Pd 20.4958 14.7775 28.1236
Co 20.4946 16.6799 26.2128
Pd 18.5867 14.7638 30.0408
Pd 18.5854 16.6581 31.9493
Pd 20.4924 14.7651 31.9456
Co 20.4951 16.672 30.0347
Pd 18.5778 14.7463 33.8631
Pd 18.576 16.6424 35.7662
Pd 20.4845 14.7469 35.7628
Co 20.4897 16.6569 33.8515
Pd 18.5757 14.7372 37.68
Pd 18.5767 16.6301 39.57
Pd 20.4747 14.7448 39.5659
Co 20.4863 16.6478 37.6561
Pd 18.5921 14.7504 41.4882
Pd 18.6018 16.6457 43.3712
Pd 20.4865 14.7646 43.3611
Co 20.4722 16.6365 41.471
Co 20.5524 16.7215 45.217
Pd 18.6284 20.5425 5.29035
Pd 20.5174 18.6567 5.28694
Co 20.5981 20.6296 3.56886
Pd 18.6018 18.6235 7.15127
Pd 18.5779 20.4851 9.08943
Pd 20.467 18.5992 9.08601
Co 20.4845 20.5093 7.19396
Pd 18.5628 18.5776 10.9636
Pd 18.5616 20.4783 12.8821
Pd 20.467 18.5761 12.8786
Co 20.4761 20.494 11.0016
Pd 18.56 18.5679 14.7705
Pd 18.5703 20.4807 16.6841
Pd 20.4763 18.5779 16.6806
Co 20.4731 20.4841 14.7912
Pd 18.5733 18.5743 18.5783
Pd 18.5812 20.4842 20.4916
Pd 20.4866 18.5819 20.4881
Co 20.4832 20.4874 18.5912
Pd 18.5836 18.5776 22.3941
Pd 18.5902 20.4845 24.3083
Pd 20.4939 18.5839 24.3048
Co 20.492 20.4893 22.4003
Pd 18.5897 18.5765 26.2162
Pd 18.593 20.4802 28.1285
Pd 20.4966 18.5796 28.1251
Co 20.4973 20.4876 26.2172
Pd 18.5892 18.5689 30.0383
Pd 18.5891 20.4713 31.9455
Pd 20.4944 18.5689 31.9418
Co 20.4971 20.4808 30.0342
Pd 18.5841 18.5565 33.8539
Pd 18.5831 20.4589 35.7525
Pd 20.489 18.5561 35.7493
Co 20.4933 20.4704 33.8433
Pd 18.5758 18.5412 37.6616
Pd 18.5788 20.4478 39.5544
Pd 20.484 18.5461 39.552
Co 20.488 20.4583 37.6431
Pd 18.5824 18.5428 41.4697
Pd 18.5986 20.4456 43.3502
Pd 20.4872 18.5609 43.346
Co 20.4942 20.46 41.4344
Pd 18.6224 18.5814 45.2832
Pd 18.6448 20.5 47.1458
Pd 20.5394 18.6132 47.1436
Co 20.5043 20.4685 45.2422
Co 20.6205 20.5816 48.8636
Pd 18.7323 22.5442 3.44499
Pd 18.6482 24.3471 5.3833
Pd 20.5395 22.4596 5.36553
Co 20.5529 24.3706 3.51875
Pd 18.6009 22.4096 7.20969
Pd 18.5833 24.3098 9.12513
Pd 20.4888 22.4087 9.11856
Co 20.5242 24.3395 7.25418
Pd 18.5702 22.3904 11.0009
Pd 18.5692 24.3095 12.906
Pd 20.4747 22.3985 12.9093
Co 20.4812 24.3145 11.0285
Pd 18.5681 22.3928 14.7933
Pd 18.5723 24.3088 16.6981
Pd 20.479 22.3974 16.6987
Co 20.4759 24.3128 14.8102
Pd 18.5771 22.3942 18.5935
Pd 18.5835 24.3077 20.5014
Pd 20.4887 22.3984 20.5
Co 20.4836 24.3109 18.6028
Pd 18.5879 22.3946 22.4034
Pd 18.5927 24.305 24.3142
Pd 20.4962 22.3974 24.3113
Co 20.493 24.3091 22.408
Pd 18.5942 22.3919 26.2205
Pd 18.5955 24.3008 28.1313
Pd 20.4988 22.3932 28.1274
Co 20.4982 24.3058 26.2215
Pd 18.5933 22.3863 30.038
Pd 18.5911 24.2954 31.945
Pd 20.496 22.3859 31.9393
Co 20.4979 24.3009 30.0356
Pd 18.5868 22.3776 33.8485
Pd 18.5834 24.2884 35.7489
Pd 20.4914 22.3765 35.7398
Co 20.4928 24.2944 33.841
Pd 18.5835 22.3669 37.6471
Pd 18.5913 24.2802 39.5349
Pd 20.4918 22.368 39.5298
Co 20.4925 24.2874 37.6316
Pd 18.5893 22.3551 41.4409
Pd 18.5958 24.2724 43.3243
Pd 20.506 22.3723 43.323
Co 20.4974 24.2807 41.4168
Pd 18.6163 22.3693 45.2343