4033
Atoms. Timestep: 20147
Co 5.48534 13.0071 26.2198
Pd 3.55588 16.7205 24.3478
Pd 5.34799 14.7909 24.2779
Co 5.37067 16.7371 22.4406
Pd 3.63179 14.8499 26.2207
Pd 3.55635 16.7192 28.0949
Pd 5.34848 14.7895 28.1629
Co 5.38315 16.701 26.2211
Co 5.37163 16.7345 30.0016
Pd 3.52791 20.529 20.5378
Pd 5.30007 18.5903 20.4948
Co 5.35917 20.5401 18.6405
Pd 3.53494 18.6265 22.4412
Pd 3.4426 20.4993 24.3171
Pd 5.34918 18.6269 24.3424
Co 5.32794 20.5077 22.4178
Pd 3.462 18.595 26.222
Pd 3.44308 20.498 28.1281
Pd 5.34966 18.6256 28.1011
Co 5.30223 20.5172 26.2224
Pd 3.53589 18.6238 30.0027
Pd 3.52935 20.5251 31.9075
Pd 5.30152 18.5863 31.9487
Co 5.3289 20.505 30.027
Co 5.36109 20.5348 33.8043
Pd 3.55226 24.3382 16.7335
Pd 5.31549 22.3972 16.6912
Co 5.40813 24.3424 14.8405
Pd 3.53547 22.4354 18.6296
Pd 3.44359 24.3109 20.5063
Pd 5.33508 22.431 20.538
Co 5.34435 24.3084 18.6179
Pd 3.43584 22.4047 22.4124
Pd 3.4162 24.3073 24.3181
Pd 5.29083 22.4093 24.3175
Co 5.28695 24.3179 22.423
Pd 3.42416 22.4028 26.2233
Pd 3.41668 24.306 28.1299
Pd 5.29131 22.4079 28.1286
Co 5.27218 24.3096 26.2237
Pd 3.43681 22.402 30.0342
Pd 3.44504 24.3069 31.9416
Pd 5.33652 22.427 31.9081
Co 5.28791 24.3153 30.0245
Pd 3.53739 22.4301 33.817
Pd 3.55466 24.3316 35.7145
Pd 5.3179 22.3906 35.755
Co 5.34627 24.3031 33.8295
Co 5.41101 24.3345 37.6069
Pd 5.39547 26.2176 12.9665
Pd 3.6214 26.2162 14.8623
Pd 3.55067 28.0928 16.7348
Pd 5.39523 26.2163 16.751
Co 5.40654 28.0915 14.8418
Pd 3.46416 26.2148 18.6038
Pd 3.44198 28.1174 20.5077
Pd 5.30551 26.2149 20.514
Co 5.34273 28.1228 18.6193
Pd 3.4233 26.2135 22.4111
Pd 3.41459 28.1183 24.3194
Pd 5.27535 26.2136 24.3245
Co 5.28534 28.1106 22.4243
Pd 3.40843 26.2121 26.2246
Pd 3.41507 28.1169 28.1312
Pd 5.27583 26.2123 28.1243
Co 5.27057 28.1163 26.2251
Pd 3.42426 26.2108 30.0382
Pd 3.44343 28.1134 31.9429
Pd 5.30696 26.211 31.9348
Co 5.2863 28.1079 30.0258
Pd 3.46608 26.2095 33.8455
Pd 3.55307 28.0862 35.7158
Pd 5.39763 26.2097 35.6978
Co 5.34466 28.1175 33.8308
Pd 3.62428 26.2083 37.5869
Pd 5.39882 26.2084 39.4822
Co 5.40942 28.0835 37.6082
Pd 5.31225 30.0353 16.6938
Pd 3.53227 29.9943 18.6323
Pd 3.52309 31.8993 20.5417
Pd 5.33187 29.9989 20.5407
Co 5.35436 31.8911 18.6444
Pd 3.43262 30.0222 22.4151
Pd 3.43776 31.9263 24.3211
Pd 5.2876 30.0179 24.3202
Co 5.32311 31.9209 22.4217
Pd 3.42094 30.0214 26.226
Pd 3.43824 31.925 28.1321
Pd 5.28809 30.0166 28.1312
Co 5.2974 31.9087 26.2264
Pd 3.43358 30.0196 30.0368
Pd 3.52453 31.8953 31.9115
Pd 5.33331 29.9949 31.9108
Co 5.32407 31.9182 30.031
Pd 3.53419 29.989 33.8196
Pd 5.31466 30.0287 35.7576
Co 5.35628 31.8858 33.8083
Pd 5.29361 33.8396 20.5001
Pd 3.52851 33.8005 22.4465
Pd 3.54784 35.7052 24.3544
Pd 5.34276 33.8003 24.3477
Co 5.36264 35.6915 22.4472
Pd 3.45555 33.8293 26.2273
Pd 3.54831 35.7039 28.1015
Pd 5.34323 33.799 28.1064
Co 5.37509 35.725 26.2277
Pd 3.52947 33.7979 30.008
Pd 5.29506 33.8356 31.954
Co 5.3636 35.6888 30.0082
Pd 5.33831 37.6364 24.2858
Pd 3.62217 37.5745 26.2286
Pd 5.3388 37.635 28.1709
Co 5.47416 39.4189 26.229
Co 9.24182 9.22673 26.218
Pd 7.23671 12.8708 24.2939
Pd 9.10034 10.994 24.295
Co 9.13638 12.9123 22.4139
Pd 7.29621 11.0571 26.2189
Pd 7.2372 12.8695 28.1451
Pd 9.10082 10.9927 28.1423
Co 9.10275 12.8745 26.2193
Co 9.13734 12.9096 30.0247
Pd 7.1971 16.6671 20.4849
Pd 9.07127 14.7706 20.468
Co 9.11562 16.711 18.6095
Pd 7.21749 14.7811 22.3637
Pd 7.2186 16.678 24.2951
Pd 9.09318 14.772 24.2906
Co 9.08029 16.6607 22.3657
Pd 7.24122 14.7998 26.2202
Pd 7.21908 16.6766 28.1466
Pd 9.09367 14.7707 28.1493
Co 9.1113 16.6802 26.2206
Pd 7.21846 14.7784 30.0767
Pd 7.19855 16.6631 31.9568
Pd 9.07272 14.7666 31.9719
Co 9.08127 16.658 30.0755
Co 9.11755 16.7057 33.8317
Pd 7.19798 20.4706 16.6837
Pd 9.06341 18.5741 16.6708
Co 9.12432 20.5149 14.807
Pd 7.19302 18.5868 18.5687
Pd 7.19548 20.4817 20.4968
Pd 9.07645 18.5735 20.4775
Co 9.07249 20.4623 18.567
Pd 7.20075 18.5904 22.3869
Pd 7.21574 20.5089 24.3169
Pd 9.10339 18.5823 24.2945
Co 9.1 20.49 22.3991
Pd 7.23883 18.5948 26.2215
Pd 7.21623 20.5076 28.1274
Pd 9.10388 18.581 28.148
Co 9.11259 20.497 26.2219
Pd 7.20172 18.5877 30.0561
Pd 7.19692 20.4777 31.9476
Pd 9.07791 18.5695 31.965
Co 9.10097 20.4874 30.0448
Pd 7.19495 18.5815 33.8743
Pd 7.2004 20.464 35.7606
Pd 9.06582 18.5674 35.7718
Co 9.07443 20.457 33.8768
Co 9.12721 20.507 37.6368
Pd 7.23572 24.2944 12.8879
Pd 9.08634 22.3885 12.87
Co 9.16756 24.3494 11.0295
Pd 7.21424 22.3899 14.7627
Pd 7.22937 24.2814 16.6962
Pd 9.08656 22.3722 16.6781
Co 9.0953 24.2743 14.7692
Pd 7.20246 22.3901 18.588
Pd 7.21579 24.3129 20.5148
Pd 9.09583 22.3879 20.4945
Co 9.10906 24.2971 18.5968
Pd 7.20981 22.407 22.4198
Pd 7.18661 24.313 24.3221
Pd 9.10758 22.4088 24.3214
Co 9.10659 24.3083 22.4156
Pd 7.19215 22.4112 26.2228
Pd 7.18709 24.3117 28.1249
Pd 9.10806 22.4075 28.1238
Co 9.10106 24.3122 26.2233
Pd 7.21077 22.4043 30.0259
Pd 7.21724 24.3089 31.9322
Pd 9.09728 22.3839 31.9507
Co 9.10756 24.3056 30.0309
Pd 7.20439 22.3848 33.8576
Pd 7.23178 24.2748 35.7508
Pd 9.08897 22.3655 35.7671
Co 9.11099 24.2918 33.8497
Pd 7.21714 22.382 37.683
Pd 7.23909 24.2851 39.559
Pd 9.08972 22.3792 39.5752
Co 9.0982 24.2663 37.6772
Co 9.1714 24.3389 41.417
Pd 9.17413 26.2205 9.16864
Pd 7.31895 26.2191 11.0283
Pd 7.23409 28.1424 12.8893
Pd 9.12034 26.2192 12.9078
Co 9.16598 28.0903 11.0308
Pd 7.25398 26.2177 14.7929
Pd 7.22773 28.1527 16.6975
Pd 9.10855 26.2179 16.6892
Co 9.09365 28.1628 14.7706
Pd 7.23903 26.2164 18.6185
Pd 7.21418 28.1185 20.5161
Pd 9.11528 26.2165 20.5184
Co 9.10744 28.1373 18.5982
Pd 7.19144 26.2151 22.4213
Pd 7.18499 28.1158 24.3234
Pd 9.09955 26.2152 24.3207
Co 9.10498 28.1235 22.4169
Pd 7.18085 26.2137 26.2242
Pd 7.18548 28.1145 28.1262
Pd 9.10003 26.2139 28.1272
Co 9.09945 28.1169 26.2246
Pd 7.1924 26.2124 30.027
Pd 7.21562 28.1146 31.9335
Pd 9.11672 26.2126 31.9295
Co 9.10594 28.1208 30.0323
Pd 7.24095 26.2111 33.8298
Pd 7.23014 28.1461 35.7521
Pd 9.11096 26.2112 35.7586
Co 9.10937 28.132 33.851
Pd 7.25687 26.2098 37.6554
Pd 7.23746 28.1331 39.5604
Pd 9.12371 26.2099 39.54
Co 9.09655 28.1548 37.6786
Pd 7.3228 26.2085 41.42
Pd 9.17844 26.2086 43.2792
Co 9.16982 28.0797 41.4183
Pd 9.0831 30.0498 12.8726
Pd 7.211 30.0455 14.7653
Pd 7.19312 31.9635 16.6877
Pd 9.0833 30.0636 16.6808
Co 9.11949 31.9221 14.811
Pd 7.19921 30.0427 18.5907
Pd 7.19062 31.9498 20.5007
Pd 9.09259 30.0452 20.4971
Co 9.06762 31.9721 18.571
Pd 7.20658 30.0232 22.4224
Pd 7.21091 31.9199 24.3209
Pd 9.10436 30.0216 24.324
Co 9.09515 31.9417 22.403
Pd 7.18893 30.0163 26.2255
Pd 7.21139 31.9185 28.1314
Pd 9.10484 30.0203 28.1264
Co 9.10775 31.9321 26.2259
Pd 7.20754 30.0205 30.0285
Pd 7.19207 31.9458 31.9516
Pd 9.09404 30.0412 31.9534
Co 9.09612 31.9391 30.0488
Pd 7.20114 30.0374 33.8603
Pd 7.19553 31.9569 35.7646
Pd 9.08571 30.0569 35.7698
Co 9.06955 31.9668 33.8808
Pd 7.2139 30.0376 37.6856
Pd 9.08648 30.0406 39.5779
Co 9.12237 31.9142 37.6408
Pd 9.05693 33.8616 16.6761
Pd 7.18656 33.846 18.574
Pd 7.18901 35.7644 20.4915
Pd 9.06998 33.8596 20.4828
Co 9.10757 35.7234 18.6161
Pd 7.19429 33.8398 22.3922
Pd 7.21052 35.7509 24.3017
Pd 9.09693 33.8481 24.2998
Co 9.0722 35.7711 22.3724
Pd 7.23238 33.8327 26.2268
Pd 7.21101 35.7495 28.1532
Pd 9.09741 33.8468 28.1533
Co 9.10323 35.7489 26.2272
Pd 7.19526 33.8371 30.0614
Pd 7.19046 35.7604 31.9634
Pd 9.07143 33.8556 31.9703
Co 9.07317 35.7684 30.0821
Pd 7.18849 33.8407 33.8796
Pd 9.05935 33.855 35.7771
Co 9.1095 35.7181 33.8384
Pd 9.06157 37.6625 20.4759
Pd 7.2078 37.6491 22.3716
Pd 7.22541 39.558 24.3032
Pd 9.08349 37.6584 24.2985
Co 9.12511 39.5195 22.4231
Pd 7.23155 37.6277 26.2281
Pd 7.2259 39.5567 28.1544
Pd 9.08398 37.657 28.1573
Co 9.09145 39.5545 26.2286
Pd 7.20878 37.6464 30.0846
Pd 9.06302 37.6585 31.9799
Co 9.12608 39.5168 30.0339
Pd 9.08744 41.4364 24.3056
Pd 7.28337 41.3705 26.2294
Pd 9.08793 41.4351 28.1529
Co 9.22743 43.2025 26.2298
Co 13.0254 5.47346 26.2162
Pd 11.0083 9.08766 24.2941
Pd 12.8867 7.22562 24.2913
Co 12.9257 9.12622 22.4121
Pd 11.0738 7.28267 26.2171
Pd 11.0088 9.08632 28.1414
Pd 12.8872 7.22428 28.1424
Co 12.8898 9.09075 26.2175
Co 12.9266 9.12357 30.0229
Pd 10.9782 12.8512 20.4673
Pd 12.8621 10.9689 20.4664
Co 12.9077 12.8993 18.5982
Pd 10.9912 10.9795 22.3621
Pd 10.9883 12.8654 24.2887
Pd 12.8781 10.9772 24.2878
Co 12.863 12.8528 22.3588
Pd 11.0186 11.005 26.2184
Pd 10.9888 12.8641 28.1494
Pd 12.8786 10.9759 28.1485
Co 12.8902 12.8782 26.2188
Pd 10.9922 10.9768 30.0747
Pd 10.9797 12.8472 31.9708
Pd 12.8635 10.9649 31.9699
Co 12.864 12.8501 30.0788
Co 12.9096 12.894 33.8394
Pd 10.9692 16.6506 16.664
Pd 12.8506 14.7606 16.6582
Co 12.903 16.7002 14.7955
Pd 10.9732 14.7658 18.5478
Pd 10.9743 16.6555 20.4664
Pd 12.8607 14.7578 20.4615
Co 12.8528 16.645 18.5474
Pd 10.9808 14.7652 22.3648
Pd 10.9866 16.6676 24.2946
Pd 12.878 14.7648 24.2925
Co 12.8789 16.6662 22.3831
Pd 10.9857 14.764 26.2197
Pd 10.9871 16.6663 28.1461
Pd 12.8784 14.7635 28.1464
Co 12.8812 16.6662 26.2201
Pd 10.9818 14.7625 30.0746
Pd 10.9757 16.6515 31.9743
Pd 12.8622 14.7538 31.9774
Co 12.8799 16.6635 30.0572
Pd 10.9752 14.7605 33.8916
Pd 10.9716 16.644 35.7767
Pd 12.853 14.754 35.7807
Co 12.8548 16.6397 33.8929
Co 12.9059 16.6922 37.6447
Pd 10.9815 20.4608 12.8646
Pd 12.8557 18.5684 12.859
Co 12.9182 20.5155 11.0023
Pd 10.9726 18.5703 14.747
Pd 10.976 20.4577 16.6674
Pd 12.8571 18.5573 16.6597
Co 12.8563 20.4509 14.7509
Pd 10.9718 18.5641 18.5591
Pd 10.9825 20.4747 20.4807
Pd 12.8743 18.5639 20.4728
Co 12.8771 20.4717 18.5761
Pd 10.9853 18.569 22.3841
Pd 10.9982 20.4856 24.3072
Pd 12.8851 18.5734 24.3043
Co 12.8864 20.478 22.3935
Pd 10.9936 18.5759 26.221
Pd 10.9987 20.4842 28.1362
Pd 12.8856 18.572 28.1373
Co 12.8936 20.4815 26.2214
Pd 10.9863 18.5664 30.0579
Pd 10.9839 20.4707 31.9626
Pd 12.8757 18.5599 31.9688
Co 12.8874 20.4753 30.0494
Pd 10.9738 18.5587 33.8829
Pd 10.9784 20.451 35.776
Pd 12.8595 18.5506 35.7818
Co 12.879 20.4664 33.8668
Pd 10.9755 18.5623 37.695
Pd 10.9849 20.4516 39.5787
Pd 12.8591 18.5591 39.5826
Co 12.8592 20.4429 37.6919
Co 12.9221 20.505 41.4406
Pd 11.023 24.3001 9.09107
Pd 12.8836 22.3935 9.07515
Co 12.9701 24.3526 7.24482
Pd 10.9963 22.3925 10.9556
Pd 10.9989 24.284 12.8816
Pd 12.8692 22.3719 12.8698
Co 12.8821 24.2764 10.973
Pd 10.9818 22.3725 14.7621
Pd 10.9861 24.2925 16.6773
Pd 12.8747 22.3761 16.673
Co 12.8829 24.2962 14.7815
Pd 10.9843 22.3784 18.5808
Pd 10.9992 24.2997 20.4971
Pd 12.8867 22.3864 20.4907
Co 12.8837 24.2981 18.5856
Pd 10.9969 22.3923 22.4018
Pd 11.007 24.3077 24.3157
Pd 12.898 22.3927 24.3096
Co 12.8977 24.303 22.4034
Pd 11.0084 22.3968 26.2223
Pd 11.0075 24.3064 28.1303
Pd 12.8985 22.3914 28.1346
Co 12.9047 24.3045 26.2228
Pd 10.9978 22.3896 30.0429
Pd 11.0007 24.2957 31.9489
Pd 12.8882 22.3824 31.9535
Co 12.8987 24.3004 30.0421
Pd 10.9862 22.3731 33.8639
Pd 10.9885 24.2858 35.7687
Pd 12.8771 22.3695 35.7712
Co 12.8857 24.2928 33.86
Pd 10.9847 22.3645 37.6826
Pd 11.0023 24.2747 39.5644
Pd 12.8726 22.3626 39.5744
Co 12.8858 24.2883 37.664
Pd 11.0002 22.3819 41.4891
Pd 11.0273 24.2882 43.3549
Pd 12.8879 22.3816 43.3691
Co 12.886 24.2658 41.4725
Co 12.9749 24.3394 45.2007
Pd 13.0015 26.2234 5.37771
Pd 11.1242 26.222 7.23128
Pd 11.0214 28.1426 9.0924
Pd 12.9126 26.2221 9.12229
Co 12.9685 28.093 7.24612
Pd 11.0321 26.2207 10.9927
Pd 10.9973 28.156 12.8829
Pd 12.8891 26.2208 12.8857
Co 12.8804 28.1665 10.9744
Pd 10.9943 26.2193 14.7843
Pd 10.9845 28.1449 16.6786
Pd 12.8823 26.2195 16.6874
Co 12.8813 28.144 14.7829
Pd 10.9954 26.218 18.5914
Pd 10.9976 28.135 20.4985
Pd 12.8918 26.2181 20.4966
Co 12.8821 28.1395 18.5869
Pd 11.0073 26.2167 22.4117
Pd 11.0054 28.1243 24.317
Pd 12.9044 26.2168 24.3163
Co 12.8961 28.1319 22.4048
Pd 11.0053 26.2154 26.2237
Pd 11.0059 28.123 28.1317
Pd 12.9049 26.2155 28.1305
Co 12.903 28.1279 26.2241
Pd 11.0082 26.214 30.0356
Pd 10.999 28.131 31.9502
Pd 12.8932 26.2142 31.9503
Co 12.8971 28.1293 30.0434
Pd 10.9973 26.2127 33.8559
Pd 10.9869 28.1382 35.7701
Pd 12.8847 26.2128 35.7595
Co 12.884 28.1342 33.8613
Pd 10.9972 26.2114 37.663
Pd 11.0006 28.1467 39.5658
Pd 12.8925 26.2115 39.5611
Co 12.8841 28.1361 37.6653
Pd 11.036 26.2101 41.4546
Pd 11.0257 28.1306 43.3563
Pd 12.917 26.2102 43.3246
Co 12.8843 28.1559 41.4739
Pd 11.129 26.2088 45.216
Pd 13.0068 26.209 47.0691
Co 12.9733 28.0798 45.202
Pd 12.8803 30.0507 9.07781
Pd 10.9931 30.0488 10.9583
Pd 10.9766 31.9791 12.8686
Pd 12.866 30.0697 12.8725
Co 12.9134 31.9274 11.0063
Pd 10.9785 30.0662 14.7648
Pd 10.9711 31.9796 16.6714
Pd 12.8714 30.0628 16.6757
Co 12.8514 31.9894 14.755
Pd 10.9811 30.0576 18.5835
Pd 10.9776 31.96 20.4847
Pd 12.8835 30.0499 20.4934
Co 12.8722 31.9659 18.5801
Pd 10.9936 30.0411 22.4044
Pd 10.9933 31.9465 24.3111
Pd 12.8948 30.041 24.3122
Co 12.8815 31.957 22.3975
Pd 11.0051 30.0339 26.225
Pd 10.9938 31.9451 28.1402
Pd 12.8953 30.0396 28.1373
Co 12.8888 31.9508 26.2254
Pd 10.9946 30.0384 30.0456
Pd 10.979 31.956 31.9666
Pd 12.8849 30.0459 31.9561
Co 12.8825 31.9543 30.0534
Pd 10.983 30.0523 33.8665
Pd 10.9735 31.973 35.78
Pd 12.8738 30.0561 35.7738
Co 12.8742 31.9605 33.8708
Pd 10.9814 30.0582 37.6853
Pd 10.98 31.9698 39.5827
Pd 12.8693 30.0604 39.5771
Co 12.8543 31.9814 37.6959
Pd 10.997 30.0382 41.4918
Pd 12.8847 30.0388 43.3717
Co 12.9173 31.9168 41.4446
Pd 12.8492 33.8732 12.8643
Pd 10.9661 33.8684 14.7523
Pd 10.9611 35.7867 16.6707
Pd 12.8506 33.8817 16.665
Co 12.895 35.7401 14.8021
Pd 10.9654 33.8719 18.5645
Pd 10.9662 35.7791 20.4731
Pd 12.8678 33.8724 20.4781
Co 12.8447 35.7926 18.554
Pd 10.9789 33.8643 22.3894
Pd 10.9785 35.7644 24.3013
Pd 12.8787 33.8603 24.3096
Co 12.8708 35.7688 22.3897
Pd 10.9871 33.8548 26.2263
Pd 10.979 35.7631 28.1527
Pd 12.8791 33.8589 28.1426
Co 12.8732 35.766 26.2268
Pd 10.9798 33.8617 30.0633
Pd 10.9676 35.7751 31.9809
Pd 12.8693 33.8684 31.9741
Co 12.8718 35.7661 30.0638
Pd 10.9673 33.8666 33.8882
Pd 10.9635 35.78 35.7834
Pd 12.853 33.875 35.7872
Co 12.8467 35.7872 33.8995
Pd 10.969 33.8604 37.7003
Pd 12.8526 33.8639 39.5879
Co 12.8978 35.7321 37.6514
Pd 12.8409 37.6783 16.6662
Pd 10.9635 37.6702 18.5558
Pd 10.9669 39.5835 20.4766
Pd 12.851 37.6785 20.4695
Co 12.8964 39.5383 18.6075
Pd 10.9711 37.6681 22.3728
Pd 10.977 39.5666 24.298
Pd 12.8683 37.6688 24.3004
Co 12.8517 39.5822 22.3681
Pd 10.976 37.6666 26.2277
Pd 10.9775 39.5652 28.1586
Pd 12.8687 37.6675 28.1544
Co 12.8789 39.5541 26.2281
Pd 10.9721 37.6655 30.0826
Pd 10.9684 39.5795 31.9801
Pd 12.8525 37.6745 31.9853
Co 12.8526 39.5795 30.0881
Pd 10.9655 37.6649 33.8996
Pd 12.8433 37.6716 35.7886
Co 12.8983 39.533 33.8486
Pd 12.8492 41.4673 20.477
Pd 10.9783 41.4539 22.3727
Pd 10.9938 43.3444 24.306
Pd 12.8652 41.4564 24.2984
Co 12.9112 43.3088 22.424
Pd 11.0057 41.4257 26.229
Pd 10.9943 43.343 28.1533
Pd 12.8657 41.4551 28.1591
Co 12.8752 43.3415 26.2294
Pd 10.9793 41.4512 30.0853
Pd 12.8506 41.4633 31.9805
Co 12.9122 43.3061 30.0348
Pd 12.8706 45.208 24.3045
Pd 11.0578 45.1481 26.2303
Pd 12.8711 45.2067 28.1556
Co 13.0078 46.959 26.2306
Pd 14.8084 5.33853 24.2734
Pd 16.7395 3.54802 24.3415
Co 16.7537 5.36374 22.4352
Pd 14.8698 3.62147 26.2153
Pd 14.8089 5.33718 28.1585
Pd 16.74 3.54672 28.0886
Co 16.7193 5.37439 26.2157
Co 16.7546 5.36111 29.9962
Pd 14.7831 9.0636 20.4653
Pd 16.6812 7.19103 20.4804
Co 16.7226 9.11048 18.6059
Pd 14.7961 7.20893 22.3601
Pd 14.7863 9.0837 24.2879
Pd 16.6939 7.21073 24.2906
Co 16.6741 9.07333 22.3621
Pd 14.8166 7.23085 26.2166
Pd 14.7868 9.08236 28.1466
Pd 16.6943 7.20939 28.1421
Co 16.6954 9.10253 26.217
Pd 14.7971 7.20625 30.0731
Pd 14.7845 9.0596 31.9692
Pd 16.6826 7.18704 31.9523
Co 16.675 9.07065 30.0719
Co 16.7245 9.10519 33.8281
Pd 14.7681 12.8447 16.6573
Pd 16.6597 10.9649 16.6613
Co 16.7067 12.8997 14.7937
Pd 14.7758 10.9665 18.546
Pd 14.7671 12.853 20.4606
Pd 16.6664 10.9682 20.4637
Co 16.6534 12.8477 18.5456
Pd 14.777 10.9722 22.363
Pd 14.7759 12.8685 24.2916
Pd 16.6803 10.9787 24.2919
Co 16.6764 12.8719 22.3813
Pd 14.7777 10.9753 26.2179
Pd 14.7764 12.8671 28.1455
Pd 16.6808 10.9774 28.1434
Co 16.6783 12.8725 26.2183
Pd 14.778 10.9696 30.0728
Pd 14.7685 12.849 31.9765
Pd 16.6679 10.9642 31.9716
Co 16.6773 12.8693 30.0554
Pd 14.7777 10.9611 33.8898
Pd 14.7706 12.8381 35.7798
Pd 16.6622 10.9583 35.774
Co 16.6554 12.8423 33.8911
Co 16.7096 12.8917 37.6429
Pd 14.768 16.6494 12.857
Pd 16.6534 14.7656 12.8561
Co 16.7119 16.7104 10.9956
Pd 14.7662 14.7612 14.7401
Pd 14.7598 16.6471 16.6562
Pd 16.653 14.7555 16.6553
Co 16.6474 16.644 14.7457
Pd 14.7624 14.7556 18.5493
Pd 14.7672 16.6603 20.47
Pd 16.6679 14.7611 20.4691
Co 16.6682 16.6631 18.5701
Pd 14.7692 14.7607 22.3784
Pd 14.7792 16.6681 24.3022
Pd 16.6776 14.7714 24.3013
Co 16.6753 16.6683 22.3891
Pd 14.7786 14.7682 26.2192
Pd 14.7797 16.6668 28.1376
Pd 16.6781 14.77 28.1367
Co 16.6813 16.6725 26.2196
Pd 14.7702 14.758 30.06
Pd 14.7686 16.6563 31.9698
Pd 16.6694 14.7571 31.9689
Co 16.6763 16.6657 30.0502
Pd 14.7644 14.7503 33.8891
Pd 14.7622 16.6404 35.7835
Pd 16.6554 14.7489 35.7826
Co 16.6702 16.6577 33.8691
Pd 14.7691 14.7533 37.6983
Pd 14.7714 16.6401 39.5828
Pd 16.6568 14.7563 39.5819
Co 16.6503 16.636 37.6936
Co 16.7157 16.6998 41.4437
Pd 14.7898 20.4683 9.07181
Pd 16.6736 18.5863 9.06407
Co 16.7476 20.5379 7.21814
Pd 14.7771 18.5733 10.9447
Pd 14.767 20.4565 12.8663
Pd 16.6553 18.5604 12.8641
Co 16.66 20.4568 10.9636
Pd 14.7606 18.5572 14.752
Pd 14.7655 20.467 16.6688
Pd 16.6638 18.5605 16.6674
Co 16.668 20.471 14.7776
Pd 14.7657 18.5604 18.5686
Pd 14.7798 20.476 20.4859
Pd 16.6752 18.5712 20.4844
Co 16.6733 20.4752 18.5818
Pd 14.779 18.5708 22.3911
Pd 14.7881 20.4807 24.3081
Pd 16.683 18.5761 24.3069
Co 16.6843 20.4818 22.3988
Pd 14.7835 18.5723 26.2205
Pd 14.7885 20.4794 28.1343
Pd 16.6835 18.5748 28.1337
Co 16.6882 20.4827 26.221
Pd 14.7799 18.5681 30.0499
Pd 14.7812 20.472 31.9565
Pd 16.6766 18.5672 31.9562
Co 16.6853 20.4792 30.0431
Pd 14.7677 18.5551 33.8725
Pd 14.7679 20.4603 35.7736
Pd 16.6662 18.5539 35.7732
Co 16.6752 20.4699 33.8601
Pd 14.7635 18.5492 37.6891
Pd 14.7704 20.4472 39.576
Pd 16.6586 18.5511 39.5765
Co 16.6709 20.463 37.6643
Pd 14.781 18.5626 41.4963
Pd 14.7941 20.4564 43.3706
Pd 16.6779 18.5744 43.3765
Co 16.6639 20.4462 41.4784
Co 16.7524 20.5247 45.2238
Pd 14.8461 24.3038 5.33555
Pd 16.7383 22.4192 5.30566
Co 16.8368 24.3809 3.60078
Pd 14.8154 22.3951 7.17352
Pd 14.7991 24.2862 9.09999
Pd 16.6805 22.3799 9.09509
Co 16.7031 24.2798 7.21522
Pd 14.7769 22.3741 10.9705
Pd 14.7734 24.294 12.8812
Pd 16.6695 22.3781 12.8828
Co 16.6826 24.2997 11.0018
Pd 14.7681 22.3761 14.775
Pd 14.7764 24.2995 16.6846
Pd 16.6726 22.386 16.686
Co 16.6723 24.2995 14.7899
Pd 14.7777 22.3856 18.5838
Pd 14.786 24.3028 20.4938
Pd 16.683 22.391 20.494
Co 16.6799 24.3039 18.5927
Pd 14.7895 22.39 22.3997
Pd 14.7975 24.3038 24.3119
Pd 16.6912 22.3928 24.3114
Co 16.6899 24.305 22.4035
Pd 14.7944 22.3909 26.2219
Pd 14.798 24.3024 28.1331
Pd 16.6916 22.3915 28.1319
Co 16.6953 24.3043 26.2223
Pd 14.7905 22.3873 30.044
Pd 14.7875 24.2988 31.9513
Pd 16.6844 22.387 31.9493
Co 16.6909 24.3023 30.041
Pd 14.7797 22.3803 33.86
Pd 14.7788 24.2929 35.7605
Pd 16.6751 22.3794 35.7572
Co 16.6818 24.2986 33.8519
Pd 14.771 22.3681 37.6687
Pd 14.7768 24.2847 39.5639
Pd 16.6729 22.3689 39.5605
Co 16.6752 24.2916 37.6547
Pd 14.7808 22.3635 41.4732
Pd 14.8034 24.2742 43.3451
Pd 16.6848 22.368 43.3482
Co 16.6865 24.2892 41.4428
Pd 14.8202 22.3819 45.2702
Pd 14.8514 24.2892 47.1095
Pd 16.7436 22.4047 47.1376
Co 16.7079 24.2666 45.2293
Co 16.8425 24.3652 48.8438
Pd 15.029 26.225 3.50977
Pd 14.8445 28.1447 5.33689
Pd 16.7639 26.225 5.41965
Co 16.8352 28.0704 3.60206
Pd 14.8347 26.2236 7.22506
Pd 14.7974 28.1597 9.10134
Pd 16.6968 26.2237 9.11365
Co 16.7015 28.1689 7.21657
Pd 14.788 26.2222 10.9962
Pd 14.7718 28.1492 12.8825
Pd 16.6758 26.2224 12.9
Co 16.681 28.1464 11.0031
Pd 14.778 26.2209 14.7873
Pd 14.7748 28.141 16.6859
Pd 16.6761 26.2211 16.6935
Co 16.6707 28.1439 14.7913
Pd 14.7814 26.2196 18.5908
Pd 14.7844 28.1351 20.4951
Pd 16.6851 26.2197 20.4989
Co 16.6782 28.1369 18.594
Pd 14.7928 26.2183 22.4038
Pd 14.7959 28.1315 24.3132
Pd 16.6944 26.2184 24.313
Co 16.6883 28.1332 22.4049
Pd 14.8013 26.217 26.2232
Pd 14.7964 28.1301 28.1345
Pd 16.6948 26.2171 28.1329
Co 16.6937 28.1312 26.2236
Pd 14.7937 26.2156 30.0426
Pd 14.7859 28.1311 31.9526
Pd 16.6865 26.2158 31.947
Co 16.6892 28.1306 30.0424
Pd 14.7834 26.2143 33.8556
Pd 14.7772 28.1344 35.7618
Pd 16.6785 26.2144 35.7524
Co 16.6802 28.1316 33.8532
Pd 14.7809 26.213 37.6591
Pd 14.7751 28.1399 39.5652
Pd 16.6792 26.2131 39.5459
Co 16.6735 28.136 37.656
Pd 14.7919 26.2117 41.4502
Pd 14.8018 28.1478 43.3464
Pd 16.7011 26.2118 43.3323
Co 16.6848 28.1358 41.4441
Pd 14.8395 26.2104 45.2213
Pd 14.8498 28.1302 47.1108
Pd 16.7692 26.2106 47.0262
Co 16.7063 28.1557 45.2307
Pd 15.0347 26.2092 48.9366
Co 16.8409 28.0547 48.8451
Pd 16.7351 30.0309 5.30831
Pd 14.8121 30.0521 7.17618
Pd 14.7849 31.9775 9.07581
Pd 16.6773 30.0675 9.09776
Co 16.7428 31.9109 7.2221
Pd 14.7737 30.0704 10.9732
Pd 14.7621 31.9867 12.8704
Pd 16.6662 30.0666 12.8855
Co 16.6551 31.9893 10.9676
Pd 14.7648 30.0658 14.7777
Pd 14.7606 31.9736 16.6728
Pd 16.6694 30.0561 16.6887
Co 16.6631 31.9725 14.7816
Pd 14.7745 30.0536 18.5864
Pd 14.7749 31.9619 20.4899
Pd 16.6797 30.0485 20.4966
Co 16.6684 31.9656 18.5858
Pd 14.7863 30.0466 22.4024
Pd 14.7832 31.9545 24.3121
Pd 16.6879 30.044 24.314
Co 16.6795 31.9564 22.4028
Pd 14.7912 30.043 26.2245
Pd 14.7837 31.9532 28.1383
Pd 16.6884 30.0427 28.1345
Co 16.6834 31.9528 26.225
Pd 14.7872 30.0439 30.0467
Pd 14.7764 31.9579 31.9605
Pd 16.6812 30.0446 31.952
Co 16.6804 31.9537 30.0471
Pd 14.7764 30.0483 33.8626
Pd 14.763 31.9669 35.7776
Pd 16.6718 30.0495 35.7599
Co 16.6704 31.9603 33.8641
Pd 14.7677 30.0578 37.6714
Pd 14.7655 31.9774 39.5801
Pd 16.6696 30.0574 39.5631
Co 16.666 31.9645 37.6683
Pd 14.7775 30.0598 41.4759
Pd 14.7893 31.9656 43.3746
Pd 16.6816 30.0556 43.3508
Co 16.659 31.9787 41.4824
Pd 14.817 30.0388 45.2729
Pd 16.7404 30.0163 47.1402
Co 16.7476 31.8976 45.2278
Pd 16.6671 33.8611 9.06938
Pd 14.7706 33.8713 10.9501
Pd 14.7599 35.7938 12.8636
Pd 16.6488 33.8844 12.8694
Co 16.7038 35.7358 11.0023
Pd 14.7542 33.8847 14.7573
Pd 14.7517 35.7934 16.6629
Pd 16.6573 33.8816 16.6727
Co 16.6393 35.7995 14.7523
Pd 14.7593 33.8788 18.5739
Pd 14.7591 35.7776 20.4766
Pd 16.6687 33.8683 20.4897
Co 16.6601 35.7778 18.5768
Pd 14.7725 33.8658 22.3965
Pd 14.7711 35.7671 24.3088
Pd 16.6765 33.8607 24.3122
Co 16.6672 35.7698 22.3958
Pd 14.7771 33.8616 26.2259
Pd 14.7716 35.7658 28.1442
Pd 16.677 33.8594 28.139
Co 16.6732 35.763 26.2263
Pd 14.7735 33.8631 30.0553
Pd 14.7605 35.7736 31.9764
Pd 16.6701 33.8643 31.9615
Co 16.6682 35.7672 30.0568
Pd 14.7612 33.8735 33.8778
Pd 14.7541 35.7868 35.7902
Pd 16.6597 33.875 35.7786
Co 16.6621 35.7724 33.8758
Pd 14.7571 33.8767 37.6944
Pd 14.7633 35.7845 39.5894
Pd 16.6521 33.8751 39.5818
Co 16.6422 35.7915 37.7003
Pd 14.7745 33.8606 41.5017
Pd 16.6715 33.8492 43.3818
Co 16.7077 35.7252 41.4503
Pd 16.6437 37.6792 12.864
Pd 14.7565 37.6806 14.7481
Pd 14.7568 39.5958 16.6666
Pd 16.6433 37.6866 16.6633
Co 16.6955 39.5438 14.803
Pd 14.7527 37.6836 18.5573
Pd 14.7558 39.5849 20.4699
Pd 16.6582 37.6784 20.477
Co 16.6421 39.5931 18.5549
Pd 14.7595 37.6759 22.3864
Pd 14.7646 39.5668 24.3009
Pd 16.6679 37.6655 24.3093
Co 16.6651 39.5662 22.3905
Pd 14.7689 37.6656 26.2272
Pd 14.7651 39.5654 28.1548
Pd 16.6684 37.6642 28.1446
Co 16.6669 39.5631 26.2276
Pd 14.7605 37.6732 30.068
Pd 14.7572 39.5808 31.9858
Pd 16.6597 37.6744 31.9769
Co 16.666 39.5636 30.0647
Pd 14.7546 37.6782 33.8971
Pd 14.7592 39.5892 35.7891
Pd 16.6457 37.68 35.7906
Co 16.644 39.5878 33.9004
Pd 14.7594 37.6727 37.7063
Pd 16.6471 37.6699 39.5899
Co 16.6983 39.5359 37.6522
Pd 16.6468 41.4772 16.6719
Pd 14.7629 41.4727 18.5566
Pd 14.7685 43.3743 20.4772
Pd 16.6535 41.4713 20.4743
Co 16.7081 43.3304 18.6178
Pd 14.7641 41.4643 22.3736
Pd 14.7718 43.3515 24.2998
Pd 16.6674 41.4581 24.3025
Co 16.6595 43.3649 22.3741
Pd 14.7647 41.4586 26.2285
Pd 14.7723 43.3502 28.1585
Pd 16.6679 41.4568 28.154
Co 16.6809 43.333 26.2289
Pd 14.7651 41.4616 30.0834
Pd 14.77 43.3703 31.9811
Pd 16.655 41.4673 31.9822
Co 16.6605 43.3622 30.0838
Pd 14.7648 41.4674 33.9004
Pd 16.6492 41.4706 35.7846
Co 16.7101 43.3251 33.84
Pd 16.6651 45.2485 20.4936
Pd 14.78 45.2277 22.3733
Pd 14.7907 47.0967 24.2879
Pd 16.6778 45.2261 24.3038
Co 16.736 47.0745 22.4497
Pd 14.8005 45.2031 26.2298
Pd 14.7912 47.0954 28.173
Pd 16.6782 45.2248 28.1553
Co 16.7017 47.0611 26.2302
Pd 14.7809 45.225 30.0863
Pd 16.6665 45.2445 31.9655
Co 16.7369 47.0718 30.0107
Pd 16.7203 48.8888 24.3573
Pd 14.8506 48.8125 26.231
Pd 16.7208 48.8875 28.1044
Pd 18.606 5.29563 20.4885
Pd 20.5463 3.52509 20.5297
Co 20.5549 5.35726 18.6333
Pd 18.6446 3.5296 22.4341
Pd 18.6444 5.34295 24.3361
Pd 20.5184 3.43796 24.3091
Co 20.5243 5.32421 22.4106
Pd 18.615 3.45485 26.2148
Pd 18.6449 5.34164 28.0948
Pd 20.5189 3.43664 28.1201
Co 20.5356 5.2967 26.2152
Pd 18.6455 3.52697 29.9956
Pd 18.6074 5.29164 31.9424
Pd 20.5477 3.52113 31.8995
Co 20.5252 5.32156 30.0198
Co 20.5568 5.35198 33.7971
Pd 18.5848 9.06076 16.6662
Pd 20.4829 7.19694 16.6774
Co 20.5247 9.1242 14.8016
Pd 18.6 7.18948 18.5633
Pd 18.586 9.072 20.473
Pd 20.4958 7.19263 20.4904
Co 20.4739 9.07055 18.5616
Pd 18.6054 7.19541 22.3815
Pd 18.5966 9.09714 24.29
Pd 20.5248 7.21111 24.3106
Co 20.5034 9.09627 22.3937
Pd 18.6116 7.23168 26.2161
Pd 18.5971 9.0958 28.1435
Pd 20.5253 7.20979 28.1211
Co 20.5122 9.10705 26.2165
Pd 18.6063 7.19274 30.0507
Pd 18.5874 9.06801 31.9605
Pd 20.4972 7.18865 31.9413
Co 20.5044 9.09361 30.0394
Pd 18.6019 7.18416 33.8689
Pd 18.5872 9.05412 35.7673
Pd 20.4853 7.19031 35.7543
Co 20.4758 9.06522 33.8714
Co 20.5276 9.11626 37.6314
Pd 18.5741 12.8548 12.8563
Pd 20.4681 10.9823 12.8601
Co 20.5203 12.9199 10.9987
Pd 18.5785 10.9709 14.7434
Pd 18.5647 12.8544 16.657
Pd 20.4668 10.9749 16.6629
Co 20.4575 12.8561 14.7473
Pd 18.574 10.9683 18.5555
Pd 18.5732 12.8698 20.4701
Pd 20.4856 10.9796 20.4762
Co 20.4801 12.8752 18.5725
Pd 18.5808 10.98 22.3805
Pd 18.5844 12.8789 24.3016
Pd 20.4983 10.9936 24.3027
Co 20.4882 12.8827 22.3899
Pd 18.5895 10.9864 26.2174
Pd 18.5849 12.8775 28.1346
Pd 20.4987 10.9922 28.1317
Co 20.4935 12.8881 26.2178
Pd 18.5818 10.9773 30.0543
Pd 18.5747 12.8658 31.9661
Pd 20.4871 10.9756 31.9581
Co 20.4891 12.88 30.0458
Pd 18.576 10.963 33.8793
Pd 18.5672 12.8478 35.7791
Pd 20.4692 10.9683 35.7715
Co 20.4821 12.8698 33.8632
Pd 18.5814 10.9629 37.6914
Pd 18.5774 12.8455 39.5799
Pd 20.4715 10.973 39.5742
Co 20.4604 12.8481 37.6883
Co 20.5241 12.9093 41.437
Pd 18.587 16.6746 9.06316
Pd 20.4706 14.7924 9.06912
Co 20.5376 16.7511 7.21635
Pd 18.5764 14.7772 10.9429
Pd 18.5628 16.6544 12.8632
Pd 20.4606 14.7678 12.8636
Co 20.4584 16.6617 10.9618
Pd 18.5622 14.7589 14.7502
Pd 18.5648 16.6611 16.6665
Pd 20.4728 14.7644 16.6661
Co 20.4743 16.6679 14.7758
Pd 18.5672 14.7622 18.5668
Pd 18.5772 16.6707 20.4835
Pd 20.4837 14.7769 20.4832
Co 20.4804 16.6714 18.58
Pd 18.5794 14.7736 22.3893
Pd 18.584 16.6768 24.306
Pd 20.4902 14.7834 24.3054
Co 20.4888 16.6806 22.397
Pd 18.5827 14.7764 26.2187
Pd 18.5845 16.6754 28.1328
Pd 20.4907 14.7821 28.1316
Co 20.4915 16.6827 26.2192
Pd 18.5803 14.771 30.0481
Pd 18.5787 16.6667 31.9553
Pd 20.4851 14.7729 31.9538
Co 20.4898 16.6779 30.0413
Pd 18.5691 14.7569 33.8707
Pd 18.5672 16.6545 35.7723
Pd 20.4753 14.7578 35.7709
Co 20.4823 16.6661 33.8583
Pd 18.5651 14.7509 37.6873
Pd 18.5662 16.6451 39.5756
Pd 20.464 14.7585 39.5734
Co 20.4772 16.6599 37.6625
Pd 18.5803 14.7666 41.4945
Pd 18.5913 16.6626 43.3756
Pd 20.4749 14.7804 43.3679
Co 20.4623 16.6511 41.4766
Co 20.5425 16.7379 45.222
Pd 18.6387 20.5297 5.29217
Pd 20.5269 18.6431 5.29128
Co 20.6094 20.6147 3.57171
Pd 18.6102 18.6121 7.15457
Pd 18.586 20.4753 9.09128
Pd 20.4743 18.5886 9.09039
Co 20.4937 20.4971 7.19685
Pd 18.5691 18.5692 10.9669
Pd 18.5676 20.4714 12.884
Pd 20.4722 18.5684 12.8831
Co 20.4832 20.4848 11.0045
Pd 18.5642 18.5624 14.7738
Pd 18.5742 20.4767 16.686
Pd 20.4793 18.5731 16.6851
Co 20.478 20.4779 14.7942
Pd 18.5753 18.5718 18.5817
Pd 18.583 20.4831 20.4936
Pd 20.4876 18.5801 20.4927
Co 20.4861 20.4841 18.5942
Pd 18.5835 18.5781 22.3977
Pd 18.5897 20.4864 24.3105
Pd 20.4927 18.5851 24.3096
Co 20.4927 20.4889 22.4035
Pd 18.5872 18.5801 26.2201
Pd 18.5902 20.4851 28.1309
Pd 20.4932 18.5838 28.13
Co 20.4957 20.4902 26.2205
Pd 18.5845 18.5755 30.0424
Pd 18.5844 20.4791 31.9478
Pd 20.489 18.5761 31.9469
Co 20.4936 20.4863 30.0375
Pd 18.5773 18.5665 33.8584
Pd 18.5766 20.47 35.7554
Pd 20.4817 18.5665 35.7545
Co 20.488 20.4788 33.8467
Pd 18.5671 18.5545 37.6663
Pd 18.571 20.4621 39.5575
Pd 20.4756 18.5591 39.5566
Co 20.4809 20.4699 37.6468
Pd 18.573 18.5586 41.4732
Pd 18.5904 20.4634 43.3502
Pd 20.4786 18.5767 43.3493
Co 20.487 20.4743 41.4365
Pd 18.615 18.5988 45.2856
Pd 18.644 20.5151 47.1493
Pd 20.5322 18.6285 47.1484
Co 20.4985 20.4839 45.2441
Co 20.6151 20.5989 48.8693
Pd 18.7445 22.5299 3.44532
Pd 18.66 24.3343 5.3822
Pd 20.5506 22.4461 5.36693
Co 20.5657 24.3556 3.51869
Pd 18.6109 22.3983 7.21006
Pd 18.593 24.3 9.12402
Pd 20.4977 22.3981 9.11998
Co 20.5349 24.3275 7.25413
Pd 18.5781 22.382 11.0013
Pd 18.5768 24.3026 12.9049
Pd 20.4815 22.3908 12.9107
Co 20.4899 24.3053 11.0285
Pd 18.5739 22.3873 14.7937
Pd 18.5779 24.3048 16.6971
Pd 20.4837 22.3926 16.7002
Co 20.4825 24.3065 14.8102
Pd 18.5808 22.3916 18.594
Pd 18.5869 24.3065 20.5005
Pd 20.4912 22.3965 20.5016
Co 20.488 24.3075 18.6029
Pd 18.5894 22.3949 22.404
Pd 18.5939 24.3067 24.3134
Pd 20.4966 22.3984 24.3131
Co 20.4953 24.3086 22.4082
Pd 18.5934 22.3952 26.2214
Pd 18.5944 24.3054 28.1307
Pd 20.4971 22.3971 28.1292
Co 20.4983 24.3082 26.2218
Pd 18.5903 22.3923 30.0388
Pd 18.5884 24.3025 31.9436
Pd 20.4927 22.3926 31.9407
Co 20.4962 24.306 30.0354
Pd 18.5827 22.3863 33.8488
Pd 18.5803 24.2982 35.747
Pd 20.4861 22.386 35.742
Co 20.49 24.3022 33.8407
Pd 18.5768 22.3794 37.6491
Pd 18.5802 24.2933 39.5392
Pd 20.4849 22.3816 39.5315
Co 20.4854 24.2986 37.6334
Pd 18.5819 22.3715 41.4415
Pd 18.5974 24.2881 43.3201
Pd 20.5021 22.3862 43.3223
Co 20.4938 24.2948 41.4151