4033
Atoms. Timestep: 20153
Co 5.48159 13.0121 26.2206
Pd 3.55286 16.7261 24.349
Pd 5.34451 14.7961 24.2789
Co 5.36752 16.7424 22.4417
Pd 3.62847 14.8554 26.2218
Pd 3.55361 16.7245 28.0961
Pd 5.34529 14.7944 28.1639
Co 5.38027 16.706 26.2222
Co 5.36902 16.7392 30.0028
Pd 3.52552 20.5349 20.5393
Pd 5.29722 18.5958 20.4961
Co 5.35665 20.5457 18.6419
Pd 3.53224 18.6322 22.4426
Pd 3.44048 20.5049 24.3187
Pd 5.34662 18.6321 24.3437
Co 5.32568 20.513 22.4192
Pd 3.45957 18.6005 26.2234
Pd 3.44124 20.5033 28.1297
Pd 5.34737 18.6305 28.1024
Co 5.30025 20.5223 26.2238
Pd 3.53374 18.629 30.0042
Pd 3.52778 20.5301 31.9091
Pd 5.29949 18.5909 31.95
Co 5.32719 20.5098 30.0285
Co 5.35966 20.5393 33.8058
Pd 3.5505 24.3444 16.7353
Pd 5.31327 22.403 16.6927
Co 5.40623 24.3483 14.8423
Pd 3.5334 22.4414 18.6313
Pd 3.4421 24.3168 20.5082
Pd 5.33314 22.4365 20.5396
Co 5.34272 24.314 18.6197
Pd 3.43404 22.4105 22.4141
Pd 3.41498 24.313 24.3199
Pd 5.28916 22.4145 24.3191
Co 5.28559 24.3233 22.4247
Pd 3.42263 22.4083 26.225
Pd 3.41574 24.3114 28.1317
Pd 5.28991 22.4129 28.1302
Co 5.2711 24.3146 26.2255
Pd 3.43555 22.4073 30.0359
Pd 3.44437 24.312 31.9435
Pd 5.3354 22.4317 31.9097
Co 5.2871 24.3201 30.0262
Pd 3.53641 22.435 33.8187
Pd 3.55426 24.3364 35.7163
Pd 5.31705 22.3949 35.7566
Co 5.34573 24.3076 33.8312
Co 5.41075 24.3387 37.6086
Pd 5.39388 26.2236 12.9684
Pd 3.61995 26.2225 14.8642
Pd 3.5498 28.0989 16.7369
Pd 5.39392 26.222 16.7528
Co 5.40553 28.0973 14.8438
Pd 3.46298 26.2209 18.6058
Pd 3.44139 28.1233 20.5098
Pd 5.30447 26.2204 20.5159
Co 5.342 28.1284 18.6213
Pd 3.42239 26.2192 22.4131
Pd 3.41427 28.1239 24.3215
Pd 5.27458 26.2188 24.3264
Co 5.28488 28.1159 22.4263
Pd 3.4078 26.2176 26.2266
Pd 3.41503 28.1223 28.1333
Pd 5.27534 26.2172 28.1261
Co 5.27038 28.1213 26.2271
Pd 3.4239 26.216 30.0402
Pd 3.44365 28.1184 31.9451
Pd 5.30673 26.2156 31.9366
Co 5.28639 28.1127 30.0278
Pd 3.466 26.2144 33.8475
Pd 3.55356 28.0909 35.7179
Pd 5.39767 26.214 35.6996
Co 5.34502 28.122 33.8328
Pd 3.62446 26.2129 37.5889
Pd 5.39914 26.2124 39.4841
Co 5.41005 28.0877 37.6102
Pd 5.31184 30.0411 16.6959
Pd 3.53199 30.0003 18.6345
Pd 3.52339 31.9052 20.5441
Pd 5.33173 30.0043 20.5428
Co 5.35452 31.8967 18.6467
Pd 3.43261 30.028 22.4173
Pd 3.43834 31.932 24.3235
Pd 5.28773 30.0231 24.3223
Co 5.32355 31.9262 22.424
Pd 3.4212 30.0269 26.2282
Pd 3.4391 31.9304 28.1345
Pd 5.28849 30.0215 28.1334
Co 5.29811 31.9137 26.2287
Pd 3.43412 30.0248 30.0391
Pd 3.52565 31.9004 31.9139
Pd 5.33398 29.9995 31.9129
Co 5.32506 31.923 30.0333
Pd 3.535 29.9939 33.8219
Pd 5.31562 30.033 35.7598
Co 5.35753 31.8903 33.8106
Pd 5.29437 33.845 20.5025
Pd 3.5294 33.8063 22.449
Pd 3.54931 35.7108 24.357
Pd 5.34378 33.8055 24.3501
Co 5.36398 35.6968 22.4497
Pd 3.45672 33.8348 26.2298
Pd 3.55006 35.7092 28.1042
Pd 5.34453 33.8039 28.1088
Co 5.37671 35.73 26.2303
Pd 3.5309 33.8031 30.0106
Pd 5.29664 33.8402 31.9564
Co 5.36548 35.6936 30.0108
Pd 5.34024 37.6415 24.2885
Pd 3.62422 37.58 26.2314
Pd 5.34101 37.6399 28.1736
Co 5.47665 39.4239 26.2318
Co 9.23717 9.23085 26.2183
Pd 7.23279 12.8756 24.2947
Pd 9.09597 10.9983 24.2954
Co 9.13233 12.9167 22.4145
Pd 7.29199 11.0616 26.2195
Pd 7.23355 12.8739 28.1458
Pd 9.09673 10.9967 28.1427
Co 9.09897 12.8787 26.2199
Co 9.13384 12.9135 30.0253
Pd 7.1938 16.6721 20.4859
Pd 9.06751 14.7751 20.4687
Co 9.1122 16.7158 18.6103
Pd 7.21387 14.786 22.3645
Pd 7.21557 16.6827 24.2961
Pd 9.0897 14.7763 24.2913
Co 9.07712 16.6651 22.3666
Pd 7.23788 14.8044 26.2211
Pd 7.21633 16.6811 28.1476
Pd 9.09047 14.7747 28.15
Co 9.10842 16.6844 26.2215
Pd 7.2154 14.7827 30.0776
Pd 7.19607 16.6673 31.9578
Pd 9.06979 14.7703 31.9727
Co 9.07865 16.6618 30.0763
Co 9.11522 16.7093 33.8326
Pd 7.19531 20.4759 16.685
Pd 9.06028 18.579 16.6718
Co 9.12152 20.5199 14.8082
Pd 7.19003 18.592 18.5699
Pd 7.19308 20.4867 20.498
Pd 9.0736 18.578 20.4785
Co 9.06995 20.467 18.5681
Pd 7.19804 18.5952 22.388
Pd 7.21362 20.5137 24.3182
Pd 9.10082 18.5866 24.2955
Co 9.09774 20.4945 22.4002
Pd 7.2364 18.5994 26.2227
Pd 7.21438 20.5121 28.1287
Pd 9.10158 18.585 28.149
Co 9.11061 20.5011 26.2231
Pd 7.19956 18.592 30.0573
Pd 7.19535 20.4819 31.9489
Pd 9.07588 18.5732 31.966
Co 9.09926 20.4912 30.0459
Pd 7.19307 18.5855 33.8755
Pd 7.19909 20.4679 35.7619
Pd 9.06407 18.5709 35.7728
Co 9.07298 20.4606 33.878
Co 9.12605 20.5103 37.638
Pd 7.23367 24.3 12.8895
Pd 9.08385 22.3937 12.8713
Co 9.16539 24.3547 11.0309
Pd 7.21188 22.3954 14.7641
Pd 7.22759 24.2867 16.6978
Pd 9.08433 22.377 16.6794
Co 9.09338 24.2793 14.7707
Pd 7.20037 22.3953 18.5895
Pd 7.2143 24.3179 20.5164
Pd 9.09388 22.3925 20.4958
Co 9.10743 24.3018 18.5983
Pd 7.208 22.4118 22.4212
Pd 7.18539 24.3177 24.3237
Pd 9.10591 22.4131 24.3227
Co 9.10524 24.3127 22.417
Pd 7.19062 22.4158 26.2243
Pd 7.18614 24.3161 28.1265
Pd 9.10667 22.4115 28.1251
Co 9.09998 24.3164 26.2247
Pd 7.20951 22.4086 30.0273
Pd 7.21656 24.3131 31.9338
Pd 9.09615 22.3876 31.952
Co 9.10675 24.3095 30.0324
Pd 7.2034 22.3888 33.8591
Pd 7.23137 24.2787 35.7524
Pd 9.08812 22.369 35.7684
Co 9.11045 24.2954 33.8511
Pd 7.21643 22.3857 37.6844
Pd 7.23896 24.2887 39.5606
Pd 9.08914 22.3824 39.5765
Co 9.09793 24.2696 37.6787
Co 9.17142 24.3419 41.4185
Pd 9.17227 26.2259 9.17021
Pd 7.31723 26.2248 11.03
Pd 7.23295 28.148 12.8911
Pd 9.11875 26.2243 12.9094
Co 9.16469 28.0956 11.0325
Pd 7.25252 26.2232 14.7946
Pd 7.22687 28.158 16.6994
Pd 9.10723 26.2227 16.6908
Co 9.09266 28.1678 14.7723
Pd 7.23785 26.2216 18.6203
Pd 7.21359 28.1236 20.518
Pd 9.11424 26.2211 20.52
Co 9.10671 28.142 18.5999
Pd 7.19053 26.2199 22.4231
Pd 7.18467 28.1206 24.3253
Pd 9.09878 26.2195 24.3222
Co 9.10452 28.1279 22.4186
Pd 7.18022 26.2183 26.2259
Pd 7.18543 28.119 28.1281
Pd 9.09954 26.2179 28.1288
Co 9.09926 28.121 26.2263
Pd 7.19204 26.2167 30.0287
Pd 7.21585 28.1188 31.9354
Pd 9.1165 26.2163 31.931
Co 9.10603 28.1247 30.034
Pd 7.24086 26.2151 33.8315
Pd 7.23065 28.15 35.754
Pd 9.11101 26.2147 35.7602
Co 9.10974 28.1356 33.8527
Pd 7.25706 26.2135 37.6571
Pd 7.23824 28.1367 39.5622
Pd 9.12403 26.2131 39.5416
Co 9.0972 28.1581 37.6803
Pd 7.32326 26.212 41.4217
Pd 9.17903 26.2115 43.2808
Co 9.17072 28.0827 41.42
Pd 9.08241 30.055 12.8745
Pd 7.21045 30.051 14.7673
Pd 7.19316 31.9688 16.6899
Pd 9.08289 30.0684 16.6826
Co 9.11938 31.9271 14.813
Pd 7.19894 30.0479 18.5927
Pd 7.19093 31.9548 20.5029
Pd 9.09245 30.0498 20.499
Co 9.06779 31.9768 18.573
Pd 7.20658 30.0281 22.4244
Pd 7.21149 31.9246 24.323
Pd 9.10449 30.0259 24.3259
Co 9.0956 31.9462 22.4051
Pd 7.1892 30.0209 26.2275
Pd 7.21225 31.923 28.1335
Pd 9.10524 30.0243 28.1283
Co 9.10847 31.9363 26.2279
Pd 7.20809 30.0248 30.0305
Pd 7.1932 31.95 31.9537
Pd 9.09472 30.0449 31.9552
Co 9.09712 31.9429 30.0508
Pd 7.20197 30.0414 33.8623
Pd 7.19694 31.9608 35.7667
Pd 9.08668 30.0604 35.7716
Co 9.07083 31.9704 33.8829
Pd 7.215 30.0413 37.6876
Pd 9.08771 30.0437 39.5797
Co 9.12391 31.9175 37.6428
Pd 9.05742 33.8665 16.6782
Pd 7.18718 33.8512 18.5763
Pd 7.19022 35.7694 20.494
Pd 9.07074 33.8642 20.485
Co 9.10864 35.7281 18.6184
Pd 7.19519 33.8447 22.3945
Pd 7.212 35.7556 24.3041
Pd 9.09796 33.8524 24.302
Co 9.07355 35.7755 22.3747
Pd 7.23355 33.8373 26.2291
Pd 7.21277 35.754 28.1557
Pd 9.09872 33.8508 28.1555
Co 9.10485 35.753 26.2295
Pd 7.19671 33.8414 30.0637
Pd 7.1925 35.7646 31.9658
Pd 9.07302 33.8593 31.9725
Co 9.07508 35.7723 30.0844
Pd 7.19021 33.8447 33.8819
Pd 9.06121 33.8584 35.7792
Co 9.11166 35.7217 33.8406
Pd 9.06323 37.6671 20.4784
Pd 7.20959 37.654 22.3742
Pd 7.22779 39.5628 24.3059
Pd 9.08542 37.6627 24.301
Co 9.12735 39.5239 22.4257
Pd 7.23361 37.6323 26.2307
Pd 7.22856 39.5611 28.1571
Pd 9.08619 37.6611 28.1597
Co 9.09398 39.5587 26.2311
Pd 7.21112 37.6507 30.0872
Pd 9.06551 37.6622 31.9823
Co 9.12886 39.5207 30.0365
Pd 9.09027 41.4407 24.3083
Pd 7.28632 41.3751 26.2323
Pd 9.09103 41.4391 28.1556
Co 9.23081 43.2066 26.2326
Co 13.0198 5.47669 26.216
Pd 11.0035 9.0915 24.2942
Pd 12.8814 7.22903 24.2912
Co 12.9207 9.12975 22.4121
Pd 11.0687 7.28636 26.2171
Pd 11.0043 9.08988 28.1415
Pd 12.8822 7.2274 28.1423
Co 12.8851 9.09401 26.2175
Co 12.9222 9.12654 30.0229
Pd 10.974 12.8553 20.4677
Pd 12.8574 10.9726 20.4666
Co 12.9034 12.9031 18.5986
Pd 10.9867 10.9834 22.3624
Pd 10.9844 12.8693 24.2892
Pd 12.8738 10.9806 24.288
Co 12.8589 12.8563 22.3591
Pd 11.0144 11.0087 26.2187
Pd 10.9851 12.8677 28.1498
Pd 12.8745 10.979 28.1486
Co 12.8864 12.8815 26.2191
Pd 10.9882 10.9802 30.075
Pd 10.9763 12.8505 31.9712
Pd 12.8597 10.9678 31.9701
Co 12.8604 12.8531 30.0791
Co 12.9064 12.8967 33.8397
Pd 10.9656 16.6551 16.6647
Pd 12.8466 14.7646 16.6587
Co 12.8993 16.7043 14.7961
Pd 10.9694 14.7701 18.5484
Pd 10.971 16.6597 20.4671
Pd 12.857 14.7615 20.462
Co 12.8494 16.6489 18.548
Pd 10.9772 14.7692 22.3654
Pd 10.9836 16.6715 24.2954
Pd 12.8745 14.7682 24.2929
Co 12.8758 16.6697 22.3837
Pd 10.9823 14.7678 26.2203
Pd 10.9843 16.6698 28.1468
Pd 12.8752 14.7666 28.1469
Co 12.8783 16.6695 26.2207
Pd 10.9787 14.766 30.0752
Pd 10.9733 16.6548 31.975
Pd 12.8592 14.7566 31.9778
Co 12.8773 16.6665 30.0578
Pd 10.9724 14.7636 33.8922
Pd 10.9694 16.647 35.7774
Pd 12.8504 14.7566 35.7811
Co 12.8524 16.6424 33.8935
Co 12.9038 16.6946 37.6454
Pd 10.9786 20.4655 12.8657
Pd 12.8523 18.5726 12.8597
Co 12.9152 20.5199 11.0032
Pd 10.9693 18.5749 14.7479
Pd 10.9733 20.4621 16.6684
Pd 12.8539 18.5612 16.6605
Co 12.8534 20.455 14.7518
Pd 10.9688 18.5683 18.56
Pd 10.98 20.4789 20.4818
Pd 12.8714 18.5676 20.4735
Co 12.8746 20.4756 18.577
Pd 10.9826 18.573 22.385
Pd 10.9961 20.4894 24.3082
Pd 12.8826 18.5768 24.305
Co 12.8841 20.4815 22.3944
Pd 10.9912 18.5796 26.2219
Pd 10.9968 20.4878 28.1372
Pd 12.8833 18.5751 28.138
Co 12.8916 20.4847 26.2223
Pd 10.9841 18.5698 30.0588
Pd 10.9823 20.474 31.9636
Pd 12.8737 18.5628 31.9695
Co 12.8857 20.4783 30.0502
Pd 10.9719 18.5619 33.8838
Pd 10.9771 20.454 35.777
Pd 12.8577 18.5532 35.7826
Co 12.8776 20.4691 33.8676
Pd 10.9739 18.5652 37.6959
Pd 10.9839 20.4543 39.5797
Pd 12.8576 18.5614 39.5833
Co 12.858 20.4453 37.6928
Co 12.9212 20.5071 41.4415
Pd 11.0207 24.305 9.09237
Pd 12.8808 22.3981 9.07617
Co 12.9676 24.3572 7.24598
Pd 10.9937 22.3974 10.9568
Pd 10.9969 24.2887 12.8829
Pd 12.8667 22.3762 12.8708
Co 12.8799 24.2808 10.9742
Pd 10.9794 22.377 14.7633
Pd 10.9843 24.2969 16.6786
Pd 12.8725 22.3801 16.6741
Co 12.881 24.3003 14.7827
Pd 10.9822 22.3827 18.582
Pd 10.9977 24.3039 20.4984
Pd 12.8848 22.3901 20.4918
Co 12.8821 24.302 18.5867
Pd 10.9951 22.3963 22.4029
Pd 11.0058 24.3116 24.317
Pd 12.8964 22.3961 24.3106
Co 12.8964 24.3066 22.4046
Pd 11.0068 22.4005 26.2235
Pd 11.0065 24.31 28.1317
Pd 12.8971 22.3945 28.1357
Co 12.9036 24.3077 26.2239
Pd 10.9966 22.393 30.0441
Pd 11 24.299 31.9502
Pd 12.8871 22.3853 31.9545
Co 12.8979 24.3033 30.0433
Pd 10.9852 22.3762 33.865
Pd 10.9881 24.2888 35.77
Pd 12.8762 22.3721 35.7722
Co 12.8851 24.2955 33.8611
Pd 10.984 22.3674 37.6838
Pd 11.0022 24.2774 39.5657
Pd 12.872 22.3649 39.5755
Co 12.8855 24.2907 37.6652
Pd 10.9998 22.3845 41.4903
Pd 11.0275 24.2906 43.3562
Pd 12.8876 22.3836 43.3701
Co 12.886 24.268 41.4737
Co 12.9752 24.3412 45.2019
Pd 12.9994 26.2282 5.37901
Pd 11.1222 26.2271 7.23272
Pd 11.02 28.1475 9.09399
Pd 12.9108 26.2266 9.12359
Co 12.9669 28.0977 7.24756
Pd 11.0304 26.2255 10.9941
Pd 10.9961 28.1607 12.8845
Pd 12.8875 26.225 12.887
Co 12.8792 28.1709 10.9758
Pd 10.9929 26.2239 14.7858
Pd 10.9836 28.1493 16.6802
Pd 12.8809 26.2234 16.6887
Co 12.8803 28.1481 14.7843
Pd 10.9942 26.2223 18.5929
Pd 10.997 28.1391 20.5001
Pd 12.8907 26.2218 20.4979
Co 12.8814 28.1433 18.5884
Pd 11.0064 26.2207 22.4132
Pd 11.0051 28.1282 24.3186
Pd 12.9036 26.2202 24.3177
Co 12.8957 28.1355 22.4062
Pd 11.0046 26.2191 26.2251
Pd 11.0058 28.1265 28.1333
Pd 12.9044 26.2186 28.1318
Co 12.9029 28.1311 26.2256
Pd 11.0079 26.2174 30.0371
Pd 10.9993 28.1343 31.9518
Pd 12.893 26.217 31.9516
Co 12.8972 28.1323 30.0449
Pd 10.9972 26.2158 33.8574
Pd 10.9874 28.1412 35.7717
Pd 12.8847 26.2154 35.7608
Co 12.8844 28.1369 33.8628
Pd 10.9974 26.2142 37.6645
Pd 11.0014 28.1494 39.5674
Pd 12.8928 26.2138 39.5625
Co 12.8848 28.1385 37.6668
Pd 11.0364 26.2126 41.4561
Pd 11.0268 28.1331 43.3579
Pd 12.9176 26.2122 43.3259
Co 12.8852 28.158 41.4753
Pd 11.1298 26.2111 45.2175
Pd 13.0077 26.2106 47.0704
Co 12.9745 28.0816 45.2035
Pd 12.8794 30.0552 9.0794
Pd 10.9923 30.0536 10.96
Pd 10.9764 31.9838 12.8705
Pd 12.8653 30.0739 12.8741
Co 12.913 31.9318 11.008
Pd 10.978 30.0708 14.7665
Pd 10.9712 31.9841 16.6732
Pd 12.871 30.0668 16.6773
Co 12.8513 31.9935 14.7567
Pd 10.9808 30.0619 18.5852
Pd 10.9779 31.9641 20.4866
Pd 12.8834 30.0536 20.495
Co 12.8724 31.9697 18.5819
Pd 10.9936 30.0451 22.4062
Pd 10.9939 31.9503 24.313
Pd 12.8949 30.0443 24.3138
Co 12.882 31.9605 22.3993
Pd 11.0054 30.0376 26.2267
Pd 10.9947 31.9487 28.1421
Pd 12.8957 30.0427 28.1389
Co 12.8895 31.9541 26.2272
Pd 10.9952 30.0418 30.0473
Pd 10.9802 31.9592 31.9685
Pd 12.8856 30.0487 31.9577
Co 12.8835 31.9573 30.0551
Pd 10.9838 30.0554 33.8683
Pd 10.9749 31.976 35.7819
Pd 12.8748 30.0587 35.7754
Co 12.8754 31.9632 33.8725
Pd 10.9825 30.0611 37.687
Pd 10.9817 31.9726 39.5846
Pd 12.8706 30.0626 39.5787
Co 12.8558 31.9838 37.6977
Pd 10.9983 30.0407 41.4935
Pd 12.8862 30.0408 43.3733
Co 12.9191 31.9189 41.4463
Pd 12.8494 33.8774 12.8662
Pd 10.9665 33.8729 14.7544
Pd 10.962 35.7911 16.6728
Pd 12.8511 33.8856 16.6669
Co 12.8958 35.7442 14.8041
Pd 10.966 33.8762 18.5665
Pd 10.9674 35.7833 20.4752
Pd 12.8686 33.876 20.48
Co 12.8458 35.7964 18.5561
Pd 10.9798 33.8683 22.3914
Pd 10.98 35.7683 24.3034
Pd 12.8797 33.8637 24.3115
Co 12.8722 35.7723 22.3917
Pd 10.9883 33.8585 26.2283
Pd 10.9808 35.7666 28.1549
Pd 12.8805 33.8621 28.1445
Co 12.8748 35.7693 26.2288
Pd 10.9813 33.8651 30.0653
Pd 10.9697 35.7784 31.9831
Pd 12.8708 33.8712 31.976
Co 12.8737 35.7691 30.0658
Pd 10.969 33.8698 33.8902
Pd 10.9658 35.783 35.7855
Pd 12.8549 33.8776 35.7891
Co 12.8489 35.7899 33.9015
Pd 10.971 33.8632 37.7024
Pd 12.8547 33.8662 39.5898
Co 12.9003 35.7345 37.6534
Pd 12.8423 37.6822 16.6684
Pd 10.9651 37.6745 18.5581
Pd 10.969 39.5876 20.479
Pd 12.8527 37.6822 20.4717
Co 12.8984 39.5421 18.6098
Pd 10.9729 37.6721 22.3751
Pd 10.9794 39.5704 24.3004
Pd 12.8702 37.6722 24.3026
Co 12.8539 39.5857 22.3704
Pd 10.9781 37.6703 26.23
Pd 10.9801 39.5688 28.1611
Pd 12.871 37.6706 28.1566
Co 12.8814 39.5574 26.2304
Pd 10.9744 37.6689 30.0849
Pd 10.9713 39.5828 31.9825
Pd 12.855 37.6773 31.9875
Co 12.8554 39.5825 30.0904
Pd 10.9681 37.668 33.9019
Pd 12.8461 37.6742 35.7908
Co 12.9014 39.5357 33.8509
Pd 12.8517 41.471 20.4794
Pd 10.981 41.4579 22.3753
Pd 10.9971 43.3482 24.3087
Pd 12.8681 41.4598 24.3009
Co 12.9143 43.3123 22.4266
Pd 11.0087 41.4294 26.2315
Pd 10.9979 43.3466 28.156
Pd 12.8688 41.4582 28.1615
Co 12.8787 43.3448 26.232
Pd 10.9825 41.4547 30.0879
Pd 12.854 41.4662 31.9829
Co 12.9158 43.3091 30.0374
Pd 12.8743 45.2114 24.3072
Pd 11.0616 45.1518 26.2331
Pd 12.8751 45.2098 28.1583
Co 13.0121 46.9622 26.2335
Pd 14.8027 5.34148 24.273
Pd 16.7334 3.55051 24.3409
Co 16.7478 5.36636 22.4347
Pd 14.8638 3.62426 26.2148
Pd 14.8034 5.33984 28.1581
Pd 16.7342 3.54893 28.088
Co 16.7137 5.37675 26.2152
Co 16.7493 5.36317 29.9957
Pd 14.778 9.06684 20.4652
Pd 16.6756 7.19382 20.48
Co 16.7174 9.1134 18.6056
Pd 14.7907 7.21202 22.3598
Pd 14.7815 9.08666 24.2878
Pd 16.6886 7.21324 24.2902
Co 16.6691 9.07598 22.3619
Pd 14.8115 7.23365 26.2164
Pd 14.7823 9.08503 28.1465
Pd 16.6894 7.21161 28.1417
Co 16.6907 9.10489 26.2168
Pd 14.7922 7.20877 30.0729
Pd 14.7802 9.06198 31.9691
Pd 16.6779 7.18898 31.9519
Co 16.6706 9.07272 30.0716
Co 16.7204 9.10697 33.8279
Pd 14.7637 12.8482 16.6575
Pd 16.6548 10.968 16.6612
Co 16.7021 12.9029 14.7937
Pd 14.771 10.9699 18.546
Pd 14.7629 12.8563 20.4608
Pd 16.6618 10.971 20.4636
Co 16.6491 12.8506 18.5456
Pd 14.7725 10.9753 22.363
Pd 14.772 12.8714 24.2918
Pd 16.6759 10.9812 24.2919
Co 16.6723 12.8746 22.3813
Pd 14.7734 10.9781 26.2179
Pd 14.7727 12.8698 28.1457
Pd 16.6767 10.9796 28.1433
Co 16.6745 12.8748 26.2184
Pd 14.774 10.9721 30.0728
Pd 14.7652 12.8514 31.9766
Pd 16.6641 10.9662 31.9715
Co 16.6738 12.8714 30.0554
Pd 14.774 10.9634 33.8898
Pd 14.7675 12.8402 35.7799
Pd 16.6586 10.9599 35.7739
Co 16.6521 12.8441 33.8911
Co 16.7067 12.8932 37.643
Pd 14.7642 16.6532 12.8574
Pd 16.6491 14.7689 12.8563
Co 16.7079 16.7138 10.996
Pd 14.762 14.7649 14.7404
Pd 14.7562 16.6506 16.6567
Pd 16.6489 14.7586 16.6555
Co 16.6437 16.6472 14.746
Pd 14.7585 14.759 18.5497
Pd 14.7639 16.6635 20.4704
Pd 16.6642 14.7639 20.4692
Co 16.6648 16.666 18.5705
Pd 14.7656 14.7638 22.3788
Pd 14.7762 16.6711 24.3027
Pd 16.6741 14.7739 24.3015
Co 16.6722 16.671 22.3894
Pd 14.7753 14.7711 26.2195
Pd 14.777 16.6694 28.138
Pd 16.6749 14.7722 28.1368
Co 16.6784 16.6749 26.22
Pd 14.7672 14.7605 30.0603
Pd 14.7662 16.6587 31.9703
Pd 16.6665 14.7591 31.9691
Co 16.6737 16.6678 30.0505
Pd 14.7616 14.7526 33.8894
Pd 14.76 16.6426 35.784
Pd 16.6527 14.7505 35.7828
Co 16.6678 16.6595 33.8695
Pd 14.7666 14.7552 37.6987
Pd 14.7695 16.6419 39.5832
Pd 16.6544 14.7577 39.5821
Co 16.6482 16.6375 37.6939
Co 16.714 16.701 41.444
Pd 14.7866 20.4724 9.07255
Pd 16.6699 18.59 9.06454
Co 16.7442 20.5417 7.21875
Pd 14.7736 18.5772 10.9454
Pd 14.7641 20.4603 12.8671
Pd 16.6519 18.5637 12.8646
Co 16.6569 20.4603 10.9642
Pd 14.7574 18.5609 14.7526
Pd 14.7628 20.4705 16.6695
Pd 16.6606 18.5636 16.6678
Co 16.6652 20.4742 14.7782
Pd 14.7627 18.5638 18.5692
Pd 14.7774 20.4792 20.4866
Pd 16.6723 18.574 20.4849
Co 16.6708 20.4781 18.5825
Pd 14.7763 18.5739 22.3918
Pd 14.7859 20.4837 24.3088
Pd 16.6804 18.5786 24.3073
Co 16.6821 20.4845 22.3994
Pd 14.7811 18.5752 26.2211
Pd 14.7867 20.4821 28.1351
Pd 16.6812 18.577 28.1342
Co 16.6863 20.485 26.2216
Pd 14.7778 18.5706 30.0505
Pd 14.7796 20.4744 31.9573
Pd 16.6746 18.5691 31.9567
Co 16.6836 20.4812 30.0437
Pd 14.7658 18.5574 33.8731
Pd 14.7666 20.4624 35.7744
Pd 16.6644 18.5555 35.7737
Co 16.6738 20.4717 33.8607
Pd 14.7619 18.5512 37.6897
Pd 14.7694 20.449 39.5768
Pd 16.6572 18.5524 39.577
Co 16.6697 20.4645 37.665
Pd 14.7796 18.5643 41.4969
Pd 14.7934 20.4579 43.3713
Pd 16.6767 18.5755 43.377
Co 16.663 20.4475 41.479
Co 16.7518 20.5257 45.2244
Pd 14.8435 24.3081 5.33658
Pd 16.7353 22.4231 5.30641
Co 16.8341 24.3849 3.60167
Pd 14.8125 22.3993 7.17441
Pd 14.7968 24.2902 9.10102
Pd 16.6777 22.3836 9.09584
Co 16.7006 24.2836 7.21611
Pd 14.7743 22.378 10.9714
Pd 14.7714 24.2978 12.8822
Pd 16.667 22.3815 12.8835
Co 16.6804 24.3032 11.0027
Pd 14.7657 22.3797 14.7759
Pd 14.7747 24.303 16.6856
Pd 16.6704 22.3891 16.6868
Co 16.6704 24.3028 14.7908
Pd 14.7756 22.389 18.5846
Pd 14.7846 24.3061 20.4948
Pd 16.681 22.3937 20.4947
Co 16.6782 24.3068 18.5936
Pd 14.7877 22.3931 22.4006
Pd 14.7963 24.3067 24.3129
Pd 16.6895 22.3953 24.3121
Co 16.6885 24.3076 22.4044
Pd 14.7929 22.3937 26.2228
Pd 14.7971 24.3051 28.1342
Pd 16.6902 22.3937 28.1326
Co 16.6943 24.3067 26.2232
Pd 14.7892 22.3898 30.0449
Pd 14.7868 24.3012 31.9523
Pd 16.6833 22.3889 31.95
Co 16.6901 24.3044 30.0419
Pd 14.7787 22.3825 33.8609
Pd 14.7784 24.295 35.7615
Pd 16.6742 22.381 35.758
Co 16.6813 24.3004 33.8528
Pd 14.7702 22.3701 37.6696
Pd 14.7766 24.2865 39.5649
Pd 16.6723 22.3702 39.5612
Co 16.6749 24.2931 37.6556
Pd 14.7804 22.3651 41.4741
Pd 14.8036 24.2758 43.3461
Pd 16.6845 22.3691 43.3489
Co 16.6865 24.2904 41.4437
Pd 14.82 22.3833 45.2711
Pd 14.8518 24.2905 47.1105
Pd 16.7436 22.4055 47.1383
Co 16.7082 24.2676 45.2302
Co 16.8431 24.3658 48.8447
Pd 15.0267 26.2294 3.51093
Pd 14.8428 28.1491 5.3382
Pd 16.7618 26.2289 5.42069
Co 16.8334 28.0745 3.60323
Pd 14.8327 26.2278 7.22623
Pd 14.796 28.1638 9.10265
Pd 16.6949 26.2273 9.11468
Co 16.6999 28.1727 7.21775
Pd 14.7863 26.2262 10.9974
Pd 14.7706 28.153 12.8838
Pd 16.6742 26.2257 12.901
Co 16.6797 28.1498 11.0043
Pd 14.7766 26.2246 14.7885
Pd 14.7739 28.1446 16.6872
Pd 16.6748 26.2241 16.6945
Co 16.6697 28.1471 14.7924
Pd 14.7802 26.223 18.592
Pd 14.7838 28.1383 20.4964
Pd 16.684 26.2225 20.5
Co 16.6775 28.1398 18.5952
Pd 14.7919 26.2214 22.405
Pd 14.7956 28.1344 24.3146
Pd 16.6936 26.2209 24.314
Co 16.6878 28.1359 22.4061
Pd 14.8007 26.2198 26.2244
Pd 14.7964 28.1328 28.1358
Pd 16.6943 26.2193 28.134
Co 16.6935 28.1336 26.2248
Pd 14.7934 26.2182 30.0438
Pd 14.7861 28.1335 31.9539
Pd 16.6863 26.2177 31.948
Co 16.6893 28.1326 30.0435
Pd 14.7833 26.2165 33.8568
Pd 14.7777 28.1365 35.7631
Pd 16.6786 26.2161 35.7535
Co 16.6805 28.1334 33.8544
Pd 14.7811 26.2149 37.6602
Pd 14.7759 28.1417 39.5665
Pd 16.6795 26.2145 39.5469
Co 16.6742 28.1375 37.6572
Pd 14.7923 26.2133 41.4514
Pd 14.8028 28.1493 43.3477
Pd 16.7017 26.2129 43.3333
Co 16.6857 28.137 41.4453
Pd 14.8403 26.2118 45.2225
Pd 14.8511 28.1314 47.1121
Pd 16.7701 26.2114 47.0273
Co 16.7075 28.1566 45.2319
Pd 15.0357 26.2102 48.9377
Co 16.8424 28.0554 48.8463
Pd 16.7339 30.0348 5.30963
Pd 14.811 30.0563 7.17764
Pd 14.7844 31.9816 9.07741
Pd 16.6763 30.0711 9.09909
Co 16.7421 31.9146 7.22355
Pd 14.7729 30.0744 10.9747
Pd 14.7619 31.9905 12.872
Pd 16.6655 30.07 12.8868
Co 16.6548 31.9928 10.969
Pd 14.7643 30.0694 14.7791
Pd 14.7606 31.9771 16.6744
Pd 16.669 30.0592 16.69
Co 16.663 31.9757 14.783
Pd 14.7742 30.057 18.5879
Pd 14.7752 31.9651 20.4915
Pd 16.6796 30.0513 20.498
Co 16.6686 31.9685 18.5873
Pd 14.7863 30.0497 22.4039
Pd 14.7838 31.9575 24.3137
Pd 16.6881 30.0465 24.3154
Co 16.6799 31.959 22.4043
Pd 14.7914 30.0458 26.226
Pd 14.7845 31.9559 28.1399
Pd 16.6888 30.0449 28.1359
Co 16.6841 31.9552 26.2264
Pd 14.7878 30.0465 30.0481
Pd 14.7775 31.9603 31.9621
Pd 16.6819 30.0465 31.9533
Co 16.6814 31.9558 30.0486
Pd 14.7772 30.0506 33.8641
Pd 14.7644 31.969 35.7792
Pd 16.6728 30.0512 35.7612
Co 16.6717 31.9621 33.8655
Pd 14.7688 30.0598 37.6729
Pd 14.7672 31.9792 39.5817
Pd 16.6708 30.0587 39.5645
Co 16.6676 31.966 37.6698
Pd 14.7789 30.0615 41.4773
Pd 14.7912 31.9671 43.3762
Pd 16.6831 30.0567 43.3522
Co 16.6608 31.9799 41.4838
Pd 14.8186 30.0402 45.2743
Pd 16.7421 30.0171 47.1416
Co 16.7497 31.8986 45.2292
Pd 16.6671 33.8647 9.07099
Pd 14.7707 33.8752 10.9518
Pd 14.7606 35.7976 12.8655
Pd 16.649 33.8878 12.871
Co 16.7044 35.7393 11.004
Pd 14.7545 33.8883 14.7591
Pd 14.7526 35.797 16.6648
Pd 16.6578 33.8847 16.6743
Co 16.6401 35.8027 14.7541
Pd 14.7599 33.8822 18.5757
Pd 14.7603 35.7809 20.4785
Pd 16.6694 33.8711 20.4913
Co 16.6612 35.7807 18.5785
Pd 14.7734 33.8689 22.3982
Pd 14.7726 35.7701 24.3107
Pd 16.6776 33.8632 24.3138
Co 16.6686 35.7725 22.3975
Pd 14.7782 33.8644 26.2276
Pd 14.7734 35.7685 28.1461
Pd 16.6783 33.8616 28.1406
Co 16.6749 35.7653 26.228
Pd 14.7749 33.8657 30.057
Pd 14.7626 35.776 31.9783
Pd 16.6717 33.8663 31.9631
Co 16.6701 35.7692 30.0586
Pd 14.7629 33.8757 33.8796
Pd 14.7564 35.7889 35.7921
Pd 16.6616 33.8766 35.7802
Co 16.6643 35.7742 33.8775
Pd 14.7591 33.8786 37.6961
Pd 14.7659 35.7864 39.5913
Pd 16.6543 33.8765 39.5834
Co 16.6446 35.793 37.702
Pd 14.7768 33.8623 41.5034
Pd 16.6739 33.8502 43.3835
Co 16.7104 35.7264 41.452
Pd 16.6448 37.6826 12.8659
Pd 14.7577 37.6843 14.7501
Pd 14.7587 39.5993 16.6688
Pd 16.6447 37.6897 16.6652
Co 16.6971 39.547 14.805
Pd 14.7542 37.687 18.5593
Pd 14.7579 39.5881 20.4721
Pd 16.6599 37.6812 20.4789
Co 16.6441 39.5961 18.5569
Pd 14.7613 37.679 22.3884
Pd 14.767 39.5697 24.303
Pd 16.6698 37.668 24.3112
Co 16.6673 39.5689 22.3926
Pd 14.771 37.6685 26.2292
Pd 14.7677 39.5681 28.157
Pd 16.6706 37.6664 28.1465
Co 16.6695 39.5654 26.2296
Pd 14.7629 37.6758 30.07
Pd 14.7602 39.5832 31.9879
Pd 16.6622 37.6763 31.9788
Co 16.6688 39.5656 30.0667
Pd 14.7573 37.6805 33.8991
Pd 14.7624 39.5913 35.7912
Pd 16.6485 37.6816 35.7925
Co 16.6471 39.5896 33.9024
Pd 14.7623 37.6746 37.7083
Pd 16.6501 37.6713 39.5917
Co 16.7017 39.5374 37.6542
Pd 16.6491 41.4803 16.6741
Pd 14.7653 41.4761 18.5589
Pd 14.7715 43.3775 20.4796
Pd 16.6561 41.4741 20.4765
Co 16.711 43.3333 18.6201
Pd 14.7668 41.4674 22.3759
Pd 14.7751 43.3545 24.3022
Pd 16.6702 41.4606 24.3047
Co 16.6627 43.3675 22.3764
Pd 14.7677 41.4614 26.2308
Pd 14.7759 43.3529 28.161
Pd 16.671 41.459 28.1561
Co 16.6843 43.3354 26.2312
Pd 14.7683 41.4642 30.0857
Pd 14.7738 43.3727 31.9836
Pd 16.6584 41.4692 31.9844
Co 16.6642 43.3643 30.0861
Pd 14.7683 41.4697 33.9027
Pd 16.6529 41.4722 35.7868
Co 16.714 43.3268 33.8423
Pd 16.6685 45.2513 20.4961
Pd 14.7836 45.2308 22.3759
Pd 14.7948 47.0997 24.2907
Pd 16.6815 45.2286 24.3062
Co 16.74 47.0771 22.4523
Pd 14.8044 45.2059 26.2324
Pd 14.7956 47.098 28.1757
Pd 16.6822 45.227 28.1578
Co 16.706 47.0635 26.2328
Pd 14.7851 45.2275 30.0889
Pd 16.6708 45.2464 31.968
Co 16.7415 47.0739 30.0133
Pd 16.7249 48.8913 24.36
Pd 14.8554 48.8153 26.2339
Pd 16.7257 48.8897 28.1071
Pd 18.6 5.29796 20.4879
Pd 20.5399 3.52696 20.5288
Co 20.5488 5.35927 18.6325
Pd 18.6383 3.53178 22.4333
Pd 18.6387 5.34499 24.3354
Pd 20.5122 3.43956 24.3081
Co 20.5184 5.32595 22.4098
Pd 18.609 3.45676 26.214
Pd 18.6395 5.3434 28.0942
Pd 20.513 3.43795 28.1191
Co 20.5301 5.29815 26.2144
Pd 18.6398 3.52859 29.9948
Pd 18.6023 5.29312 31.9417
Pd 20.5421 3.52216 31.8985
Co 20.5199 5.32274 30.0191
Co 20.5518 5.35287 33.7963
Pd 18.5794 9.06338 16.6659
Pd 20.4771 7.19911 16.6768
Co 20.5192 9.1265 14.8011
Pd 18.5943 7.19196 18.5628
Pd 18.5809 9.07434 20.4726
Pd 20.4902 7.19452 20.4898
Co 20.4687 9.07258 18.5611
Pd 18.5999 7.1976 22.381
Pd 18.5918 9.09919 24.2896
Pd 20.5196 7.21271 24.3099
Co 20.4985 9.09801 22.3932
Pd 18.6065 7.23359 26.2156
Pd 18.5925 9.09757 28.1431
Pd 20.5203 7.2111 28.1205
Co 20.5075 9.10851 26.216
Pd 18.6015 7.19437 30.0502
Pd 18.5831 9.06949 31.9601
Pd 20.4925 7.18969 31.9406
Co 20.5 9.09478 30.0389
Pd 18.5973 7.1855 33.8684
Pd 18.5832 9.05532 35.7669
Pd 20.4809 7.19106 35.7536
Co 20.4717 9.06612 33.8709
Co 20.5237 9.11687 37.6309
Pd 18.5693 12.8577 12.8562
Pd 20.4629 10.9847 12.8598
Co 20.5154 12.9225 10.9985
Pd 18.5734 10.9736 14.7432
Pd 18.5603 12.857 16.6569
Pd 20.4618 10.9771 16.6625
Co 20.4529 12.8584 14.7471
Pd 18.5693 10.9708 18.5553
Pd 18.569 12.8722 20.47
Pd 20.481 10.9815 20.4759
Co 20.4758 12.8772 18.5723
Pd 18.5763 10.9822 22.3803
Pd 18.5805 12.8809 24.3015
Pd 20.4939 10.9952 24.3023
Co 20.4841 12.8844 22.3897
Pd 18.5852 10.9883 26.2172
Pd 18.5813 12.8793 28.1345
Pd 20.4946 10.9935 28.1313
Co 20.4897 12.8895 26.2176
Pd 18.5778 10.9789 30.0541
Pd 18.5713 12.8673 31.966
Pd 20.4832 10.9767 31.9578
Co 20.4856 12.8812 30.0455
Pd 18.5723 10.9643 33.8791
Pd 18.5641 12.849 35.779
Pd 20.4656 10.9691 35.7711
Co 20.4788 12.8707 33.8629
Pd 18.578 10.964 37.6912
Pd 18.5746 12.8465 39.5798
Pd 20.4682 10.9735 39.5739
Co 20.4574 12.8487 37.6881
Co 20.5215 12.9097 41.4368
Pd 18.5829 16.6778 9.06336
Pd 20.466 14.7951 9.06903
Co 20.5334 16.7539 7.2164
Pd 18.572 14.7802 10.943
Pd 18.559 16.6573 12.8634
Pd 20.4563 14.7702 12.8636
Co 20.4544 16.6643 10.9618
Pd 18.558 14.7617 14.7503
Pd 18.5612 16.6637 16.6667
Pd 20.4688 14.7666 16.666
Co 20.4706 16.6702 14.7758
Pd 18.5633 14.7647 18.5668
Pd 18.5739 16.673 20.4837
Pd 20.4799 14.7788 20.4831
Co 20.4769 16.6734 18.5801
Pd 18.5757 14.7758 22.3894
Pd 18.581 16.6788 24.3062
Pd 20.4867 14.785 24.3053
Co 20.4856 16.6823 22.397
Pd 18.5794 14.7783 26.2188
Pd 18.5817 16.6772 28.133
Pd 20.4875 14.7834 28.1316
Co 20.4886 16.6841 26.2192
Pd 18.5773 14.7726 30.0482
Pd 18.5762 16.6682 31.9555
Pd 20.4822 14.774 31.9537
Co 20.4871 16.6791 30.0414
Pd 18.5664 14.7582 33.8707
Pd 18.565 16.6557 35.7725
Pd 20.4726 14.7585 35.7708
Co 20.48 16.667 33.8583
Pd 18.5626 14.752 37.6873
Pd 18.5643 16.646 39.5758
Pd 20.4616 14.759 39.5733
Co 20.4752 16.6605 37.6626
Pd 18.578 14.7673 41.4946
Pd 18.5897 16.6633 43.3758
Pd 20.4728 14.7806 43.3678
Co 20.4605 16.6514 41.4766
Co 20.5409 16.7379 45.2221
Pd 18.6352 20.5331 5.29265
Pd 20.523 18.6461 5.29148
Co 20.6058 20.6178 3.57205
Pd 18.6064 18.6154 7.1549
Pd 18.5828 20.4784 9.09176
Pd 20.4706 18.5913 9.09059
Co 20.4903 20.5 7.19719
Pd 18.5656 18.5722 10.9673
Pd 18.5647 20.4743 12.8844
Pd 20.4688 18.5709 12.8833
Co 20.4801 20.4874 11.0048
Pd 18.5609 18.5652 14.7742
Pd 18.5715 20.4793 16.6865
Pd 20.4762 18.5753 16.6853
Co 20.4752 20.4802 14.7945
Pd 18.5723 18.5743 18.5821
Pd 18.5806 20.4854 20.4941
Pd 20.4847 18.582 20.4929
Co 20.4835 20.4862 18.5946
Pd 18.5808 18.5803 22.3981
Pd 18.5876 20.4885 24.311
Pd 20.4901 18.5867 24.3098
Co 20.4904 20.4907 22.4038
Pd 18.5848 18.582 26.2204
Pd 18.5884 20.4869 28.1314
Pd 20.4909 18.5851 28.1302
Co 20.4937 20.4916 26.2208
Pd 18.5823 18.5771 30.0427
Pd 18.5828 20.4806 31.9483
Pd 20.487 18.5772 31.9471
Co 20.4919 20.4874 30.0378
Pd 18.5754 18.5678 33.8587
Pd 18.5753 20.4713 35.7559
Pd 20.48 18.5673 35.7547
Co 20.4866 20.4797 33.8471
Pd 18.5655 18.5555 37.6666
Pd 18.57 20.463 39.5579
Pd 20.4741 18.5596 39.5568
Co 20.4797 20.4705 37.6471
Pd 18.5716 18.5593 41.4735
Pd 18.5896 20.464 43.3506
Pd 20.4774 18.5769 43.3495
Co 20.4861 20.4746 41.4368
Pd 18.614 18.5993 45.2859
Pd 18.6435 20.5155 47.1498
Pd 20.5313 18.6284 47.1486
Co 20.4979 20.484 45.2445
Co 20.6148 20.5987 48.8696
Pd 18.7414 22.5335 3.44594
Pd 18.6575 24.3378 5.38296
Pd 20.5475 22.4491 5.36741
Co 20.563 24.3588 3.51931
Pd 18.608 22.4016 7.21067
Pd 18.5907 24.3032 9.12478
Pd 20.495 22.4008 9.12046
Co 20.5325 24.3304 7.25475
Pd 18.5754 22.3851 11.0019
Pd 18.5748 24.3055 12.9057
Pd 20.479 22.3933 12.9112
Co 20.4877 24.3079 11.0291
Pd 18.5715 22.3901 14.7943
Pd 18.5761 24.3074 16.6978
Pd 20.4815 22.3948 16.7007
Co 20.4806 24.3088 14.8108
Pd 18.5787 22.3941 18.5946
Pd 18.5854 24.3089 20.5012
Pd 20.4893 22.3984 20.5021
Co 20.4864 24.3095 18.6035
Pd 18.5876 22.3971 22.4046
Pd 18.5927 24.3088 24.3142
Pd 20.4949 22.4 24.3136
Co 20.4939 24.3104 22.4088
Pd 18.5918 22.3971 26.222
Pd 18.5934 24.3072 28.1315
Pd 20.4957 22.3984 28.1296
Co 20.4972 24.3096 26.2224
Pd 18.5891 22.3939 30.0394
Pd 18.5877 24.304 31.9444
Pd 20.4916 22.3936 31.9412
Co 20.4954 24.3072 30.036
Pd 18.5817 22.3877 33.8494
Pd 18.5799 24.2994 35.7478
Pd 20.4853 22.3867 35.7425
Co 20.4894 24.3031 33.8413
Pd 18.5761 22.3804 37.6497
Pd 18.5801 24.2943 39.5399
Pd 20.4843 22.382 39.532
Co 20.4851 24.2992 37.634
Pd 18.5815 22.3722 41.4421
Pd 18.5975 24.2888 43.3208
Pd 20.5018 22.3864 43.3228
Co 20.4938 24.2951 41.4158
Pd 18.6155 22.3855 45.2333