4033
Atoms. Timestep: 20219
Co 5.47754 13.0024 26.2164
Pd 3.54683 16.7176 24.3488
Pd 5.3393 14.7879 24.2766
Co 5.36111 16.7355 22.441
Pd 3.62348 14.8452 26.2197
Pd 3.54794 16.7135 28.0953
Pd 5.34035 14.7832 28.1612
Co 5.37426 16.697 26.2215
Co 5.36265 16.7272 30.001
Pd 3.51737 20.528 20.541
Pd 5.28986 18.5896 20.4964
Co 5.34832 20.5403 18.6433
Pd 3.5251 18.6245 22.4434
Pd 3.43282 20.4962 24.3205
Pd 5.33967 18.6243 24.3442
Co 5.31788 20.5058 22.4207
Pd 3.45284 18.5912 26.2244
Pd 3.43385 20.4936 28.1322
Pd 5.34035 18.6209 28.1032
Co 5.29276 20.5134 26.2257
Pd 3.52654 18.6183 30.0047
Pd 3.52064 20.5197 31.9129
Pd 5.29211 18.5774 31.9487
Co 5.31936 20.4997 30.0313
Co 5.35196 20.5221 33.804
Pd 3.54038 24.339 16.739
Pd 5.30395 22.3983 16.6951
Co 5.39581 24.3446 14.8457
Pd 3.5243 22.4352 18.634
Pd 3.43256 24.3095 20.5119
Pd 5.3244 22.43 20.542
Co 5.33298 24.3084 18.6231
Pd 3.42555 22.4025 22.4169
Pd 3.40596 24.3039 24.3238
Pd 5.2809 22.4062 24.3218
Co 5.27641 24.3157 22.4282
Pd 3.41454 22.3986 26.2279
Pd 3.40712 24.3004 28.1358
Pd 5.28195 22.4029 28.1332
Co 5.26239 24.3053 26.2294
Pd 3.42858 22.3971 30.0406
Pd 3.43828 24.3012 31.9514
Pd 5.32712 22.4216 31.9163
Co 5.27904 24.3086 30.0302
Pd 3.52946 22.4288 33.8279
Pd 3.58005 24.3205 35.7241
Pd 5.31564 22.3623 35.7524
Co 5.34055 24.2992 33.8458
Co 5.42863 24.297 37.59
Pd 5.3824 26.2208 12.9729
Pd 3.60879 26.2181 14.869
Pd 3.53824 28.0935 16.7427
Pd 5.3831 26.2173 16.7573
Co 5.39364 28.0936 14.8493
Pd 3.45247 26.2144 18.6105
Pd 3.43042 28.1158 20.5156
Pd 5.2943 26.2137 20.5204
Co 5.33078 28.1226 18.6268
Pd 3.41242 26.2109 22.4178
Pd 3.40388 28.1143 24.3275
Pd 5.26494 26.2101 24.331
Co 5.27431 28.1081 22.4319
Pd 3.39878 26.2073 26.2319
Pd 3.40508 28.1108 28.1394
Pd 5.26634 26.2066 28.1321
Co 5.26037 28.1114 26.233
Pd 3.41328 26.2039 30.0452
Pd 3.43627 28.103 31.955
Pd 5.30031 26.2032 31.9346
Co 5.27708 28.1012 30.0338
Pd 3.4871 26.2004 33.8527
Pd 3.57803 28.0769 35.7277
Pd 5.34564 26.1997 35.8044
Co 5.3386 28.1037 33.8494
Pd 5.36464 26.1965 39.3322
Pd 7.26979 26.1956 41.375
Co 5.42667 28.0991 37.5935
Pd 5.29957 30.0363 16.7026
Pd 3.52003 29.9938 18.6414
Pd 3.51103 31.8974 20.552
Pd 5.32015 29.9974 20.5494
Co 5.34194 31.8907 18.6544
Pd 3.42131 30.0193 22.4243
Pd 3.42655 31.922 24.3315
Pd 5.27678 30.014 24.3291
Co 5.31159 31.9181 22.4317
Pd 3.41041 30.0161 26.2352
Pd 3.42764 31.9175 28.1431
Pd 5.27794 30.0103 28.1405
Co 5.28664 31.9033 26.2366
Pd 3.42453 30.0105 30.0478
Pd 3.5145 31.8844 31.9237
Pd 5.32321 29.9847 31.9235
Co 5.31336 31.9099 30.0421
Pd 3.52545 29.9719 33.8351
Pd 5.31167 30.0369 35.7597
Co 5.34606 31.8806 33.8147
Pd 5.28141 33.8379 20.5113
Pd 3.51665 33.7973 22.458
Pd 3.53606 35.7005 24.3671
Pd 5.33137 33.796 24.3589
Co 5.35064 35.6883 22.4594
Pd 3.44442 33.8233 26.239
Pd 3.53718 35.6972 28.1136
Pd 5.33218 33.7922 28.1176
Co 5.36371 35.7196 26.2398
Pd 3.51825 33.7892 30.0193
Pd 5.28405 33.8284 31.9632
Co 5.35238 35.6821 30.0191
Pd 5.32639 37.6321 24.2988
Pd 3.61047 37.5691 26.2416
Pd 5.3275 37.6291 28.1832
Co 5.46238 39.414 26.2422
Co 9.23422 9.22513 26.2084
Pd 7.22897 12.8679 24.2901
Pd 9.09377 10.9907 24.2878
Co 9.12788 12.9114 22.4098
Pd 7.28916 11.0528 26.2129
Pd 7.22996 12.863 28.1411
Pd 9.09435 10.986 28.1366
Co 9.09457 12.8707 26.2151
Co 9.13019 12.9017 30.0204
Pd 7.1873 16.6668 20.4847
Pd 9.06198 14.7705 20.4658
Co 9.10562 16.7118 18.6088
Pd 7.20832 14.7799 22.362
Pd 7.20923 16.6757 24.2951
Pd 9.08409 14.7703 24.2883
Co 9.07074 16.6598 22.3651
Pd 7.23263 14.7957 26.2183
Pd 7.21014 16.6712 28.1462
Pd 9.08522 14.7654 28.1469
Co 9.10213 16.6769 26.2202
Pd 7.21052 14.7703 30.074
Pd 7.19051 16.6534 31.9544
Pd 9.06563 14.757 31.9684
Co 9.07311 16.6508 30.0739
Co 9.11109 16.6941 33.8284
Pd 7.18683 20.472 16.686
Pd 9.05266 18.5756 16.6714
Co 9.11276 20.5175 14.8089
Pd 7.18253 18.5873 18.5698
Pd 7.18509 20.4811 20.4991
Pd 9.06639 18.5733 20.4781
Co 9.06178 20.4629 18.5688
Pd 7.19096 18.5889 22.3881
Pd 7.20599 20.5063 24.3196
Pd 9.09377 18.5802 24.2957
Co 9.08996 20.4887 22.4012
Pd 7.22938 18.5915 26.2233
Pd 7.20674 20.5032 28.1313
Pd 9.09477 18.5762 28.149
Co 9.10291 20.4937 26.2248
Pd 7.19266 18.5807 30.0568
Pd 7.18818 20.469 31.9486
Pd 9.07036 18.5605 31.9637
Co 9.09192 20.4814 30.0469
Pd 7.18765 18.5685 33.8718
Pd 7.19753 20.4458 35.7583
Pd 9.0609 18.5522 35.7687
Co 9.06827 20.4454 33.8752
Co 9.12226 20.4918 37.6341
Pd 7.22295 24.2979 12.8926
Pd 9.07391 22.3922 12.8731
Co 9.15423 24.3544 11.0338
Pd 7.20227 22.3923 14.7662
Pd 7.21756 24.2827 16.7008
Pd 9.07508 22.3737 16.681
Co 9.08298 24.277 14.7734
Pd 7.19142 22.3904 18.5915
Pd 7.20488 24.3121 20.5195
Pd 9.08517 22.3874 20.4977
Co 9.0977 24.2976 18.6011
Pd 7.19952 22.4052 22.4235
Pd 7.17644 24.3099 24.3272
Pd 9.0976 22.4062 24.325
Co 9.09605 24.3066 22.4201
Pd 7.18257 22.4072 26.227
Pd 7.17759 24.3065 28.1303
Pd 9.09815 22.4032 28.1288
Co 9.09117 24.3083 26.2282
Pd 7.20046 22.3998 30.0319
Pd 7.20646 24.304 31.9434
Pd 9.08841 22.3767 31.9533
Co 9.09668 24.3009 30.039
Pd 7.19728 22.3727 33.8591
Pd 7.22475 24.2651 35.7463
Pd 9.083 22.3536 35.7644
Co 9.10062 24.2853 33.8515
Pd 7.21314 22.3626 37.6782
Pd 7.22596 24.2758 39.5431
Pd 9.07875 22.366 39.5715
Co 9.09607 24.2489 37.6728
Co 9.14693 24.3273 41.4049
Pd 9.15994 26.2267 9.17419
Pd 7.3053 26.2238 11.0343
Pd 7.22063 28.1461 12.8964
Pd 9.10716 26.2231 12.9133
Co 9.15193 28.0955 11.0375
Pd 7.24134 26.2202 14.7988
Pd 7.21529 28.154 16.7046
Pd 9.0964 26.2195 16.6947
Co 9.08068 28.1655 14.7773
Pd 7.22737 26.2166 18.6244
Pd 7.20274 28.1174 20.5233
Pd 9.1041 26.2158 20.5239
Co 9.09554 28.1377 18.6049
Pd 7.18074 26.2129 22.4274
Pd 7.1744 28.1124 24.3308
Pd 9.08916 26.2122 24.3267
Co 9.09401 28.1214 22.4238
Pd 7.17046 26.2094 26.2305
Pd 7.17563 28.1088 28.1339
Pd 9.09023 26.2087 28.1326
Co 9.0892 28.1126 26.2317
Pd 7.18589 26.2059 30.0336
Pd 7.20456 28.1043 31.947
Pd 9.09893 26.2052 31.9497
Co 9.09477 28.113 30.0425
Pd 7.1951 26.2024 33.8612
Pd 7.22284 28.1364 35.75
Pd 9.11352 26.2018 35.7432
Co 9.09878 28.1217 33.8551
Pd 7.29754 26.1991 37.6411
Pd 7.22398 28.1188 39.5467
Pd 9.11899 26.1984 39.5438
Co 9.09424 28.1511 37.6766
Pd 9.13806 26.195 43.2476
Pd 11.0913 26.1942 45.196
Co 9.14509 28.0661 41.4084
Pd 9.06934 30.0538 12.8806
Pd 7.19779 30.048 14.7737
Pd 7.18021 31.9647 16.6973
Pd 9.07065 30.065 16.6887
Co 9.10611 31.9247 14.8201
Pd 7.18706 30.0427 18.599
Pd 7.17873 31.9484 20.5103
Pd 9.08098 30.0442 20.5051
Co 9.0553 31.9722 18.5801
Pd 7.19536 30.0207 22.4309
Pd 7.19987 31.9161 24.3306
Pd 9.09358 30.0183 24.3322
Co 9.0838 31.9394 22.4123
Pd 7.17857 30.0116 26.2343
Pd 7.2008 31.9121 28.142
Pd 9.09426 30.0142 28.1359
Co 9.09697 31.9272 26.2356
Pd 7.19657 30.0119 30.0391
Pd 7.18236 31.9391 31.9594
Pd 9.08465 30.0336 31.9605
Co 9.08616 31.9324 30.0575
Pd 7.19347 30.032 33.8663
Pd 7.19168 31.9552 35.7692
Pd 9.07931 30.0497 35.7717
Co 9.06264 31.9612 33.886
Pd 7.20934 30.0352 37.6854
Pd 9.07509 30.0303 39.5789
Co 9.11675 31.9078 37.645
Pd 9.04392 33.8629 16.6864
Pd 7.17398 33.8458 18.5848
Pd 7.1767 35.7627 20.5034
Pd 9.05799 33.8583 20.4932
Co 9.09494 35.7231 18.6275
Pd 7.18265 33.8371 22.403
Pd 7.19901 35.7468 24.3136
Pd 9.08571 33.8444 24.3103
Co 9.06045 35.7685 22.3838
Pd 7.22127 33.8274 26.2378
Pd 7.20005 35.7438 28.1643
Pd 9.08696 33.8411 28.1633
Co 9.09218 35.7442 26.2383
Pd 7.18476 33.8308 30.0712
Pd 7.1804 35.7541 31.9725
Pd 9.06269 33.8495 31.978
Co 9.06333 35.7626 30.0918
Pd 7.17989 33.8358 33.8863
Pd 9.05331 33.8503 35.7834
Co 9.1014 35.7118 33.8464
Pd 9.04919 37.661 20.4884
Pd 7.1957 37.6461 22.3844
Pd 7.21348 39.5542 24.3165
Pd 9.07193 37.6547 24.3107
Co 9.11299 39.5168 22.4362
Pd 7.22008 37.623 26.2403
Pd 7.21475 39.5513 28.1669
Pd 9.0733 37.6518 28.1685
Co 9.08011 39.5502 26.2411
Pd 7.19818 37.6405 30.0957
Pd 9.05355 37.652 31.9901
Co 9.11575 39.5109 30.0457
Pd 9.07552 41.4329 24.3191
Pd 7.27168 41.366 26.2431
Pd 9.07686 41.4298 28.166
Co 9.21575 43.1982 26.244
Co 14.8941 5.42678 24.3703
Pd 11.0072 9.08296 24.2826
Pd 12.9002 7.22781 24.2659
Co 12.923 9.12717 22.403
Pd 13.0239 5.4006 26.1571
Pd 11.0627 7.2882 26.2019
Pd 12.8857 7.21968 28.1346
Co 12.8788 9.09386 26.2086
Co 12.9223 9.113 30.0147
Pd 10.9702 12.8511 20.4633
Pd 12.856 10.968 20.4622
Co 12.8995 12.8989 18.5954
Pd 10.9841 10.9789 22.356
Pd 10.9791 12.8647 24.2843
Pd 12.8698 10.9795 24.2814
Co 12.8542 12.8543 22.3543
Pd 11.0102 11.0023 26.2118
Pd 10.9803 12.8594 28.1452
Pd 12.8699 10.9731 28.1432
Co 12.8817 12.8763 26.215
Pd 10.9858 10.9681 30.0683
Pd 10.9737 12.8373 31.9654
Pd 12.8582 10.9535 31.9618
Co 12.8561 12.8444 30.0745
Co 12.9038 12.882 33.8327
Pd 10.9591 16.6521 16.6631
Pd 12.8412 14.7614 16.6563
Co 12.8925 16.702 14.7945
Pd 10.964 14.7665 18.5457
Pd 10.9646 16.6559 20.4652
Pd 12.8516 14.7588 20.4587
Co 12.8429 16.6463 18.5457
Pd 10.9716 14.7651 22.3622
Pd 10.9773 16.6659 24.2939
Pd 12.8691 14.7639 24.2902
Co 12.8695 16.6659 22.3819
Pd 10.9769 14.7611 26.2173
Pd 10.9785 16.6616 28.145
Pd 12.8702 14.7595 28.1438
Co 12.8725 16.6637 26.2191
Pd 10.974 14.7557 30.0715
Pd 10.9688 16.6429 31.9717
Pd 12.8553 14.7457 31.9737
Co 12.8723 16.6576 30.0554
Pd 10.9689 14.7492 33.8871
Pd 10.9663 16.631 35.773
Pd 12.8472 14.7411 35.7753
Co 12.8484 16.63 33.8899
Co 12.8995 16.679 37.6407
Pd 10.9696 20.4645 12.8661
Pd 12.8441 18.5717 12.859
Co 12.9056 20.5206 11.0035
Pd 10.9615 18.5728 14.7473
Pd 10.9649 20.4595 16.6686
Pd 12.8463 18.5591 16.6593
Co 12.8445 20.4539 14.7517
Pd 10.9615 18.5651 18.5592
Pd 10.972 20.4747 20.4823
Pd 12.8641 18.5644 20.4727
Co 12.8662 20.473 18.577
Pd 10.9755 18.5682 22.3846
Pd 10.9883 20.4835 24.3094
Pd 12.8757 18.5718 24.3047
Co 12.8762 20.4773 22.395
Pd 10.9843 18.5728 26.2218
Pd 10.9895 20.4799 28.1383
Pd 12.8772 18.5679 28.1374
Co 12.8842 20.4786 26.2233
Pd 10.9783 18.5601 30.0576
Pd 10.9763 20.463 31.9628
Pd 12.8688 18.5526 31.9677
Co 12.8794 20.4699 30.0504
Pd 10.9676 18.5481 33.8806
Pd 10.9721 20.4393 35.7738
Pd 12.8531 18.5398 35.7798
Co 12.8725 20.4577 33.8663
Pd 10.9691 18.5485 37.692
Pd 10.976 20.4375 39.5762
Pd 12.8508 18.5455 39.5793
Co 12.8519 20.4309 37.691
Co 12.9109 20.4914 41.4376
Pd 11.0091 24.3066 9.09503
Pd 12.87 22.4002 9.07748
Co 12.9555 24.3609 7.24838
Pd 10.9833 22.3977 10.9583
Pd 10.986 24.2882 12.8854
Pd 12.8566 22.3762 12.8719
Co 12.8685 24.2822 10.9764
Pd 10.9698 22.3754 14.7646
Pd 10.9742 24.2944 16.681
Pd 12.863 22.3784 16.6751
Co 12.8704 24.2996 14.7848
Pd 10.9732 22.3793 18.5834
Pd 10.9882 24.2994 20.5011
Pd 12.8759 22.3865 20.4931
Co 12.8723 24.2992 18.589
Pd 10.9865 22.391 22.4048
Pd 10.9968 24.3052 24.3201
Pd 12.8879 22.3907 24.3127
Co 12.8871 24.3018 22.4072
Pd 10.9983 22.3937 26.2262
Pd 10.9972 24.3021 28.1362
Pd 12.8893 22.3873 28.1377
Co 12.8945 24.3013 26.2275
Pd 10.9889 22.3841 30.0462
Pd 10.9913 24.2894 31.9526
Pd 12.8809 22.3758 31.955
Co 12.8897 24.2951 30.0461
Pd 10.9794 22.3643 33.8638
Pd 10.9844 24.2744 35.7681
Pd 12.871 22.3588 35.7716
Co 12.8807 24.2838 33.8617
Pd 10.9784 22.3508 37.6815
Pd 10.993 24.2616 39.5634
Pd 12.8636 22.3503 39.5746
Co 12.8778 24.2776 37.6657
Pd 10.9851 22.368 41.484
Pd 11.0007 24.2755 43.3424
Pd 12.8706 22.3685 43.3633
Co 12.8738 24.2532 41.4724
Co 12.9441 24.3238 45.1849
Pd 12.9861 26.2334 5.38252
Pd 11.1094 26.23 7.23649
Pd 11.0067 28.1494 9.09878
Pd 12.8982 26.2292 9.12703
Co 12.9534 28.1015 7.2521
Pd 11.0183 26.2261 10.9978
Pd 10.9837 28.1602 12.8892
Pd 12.8759 26.2254 12.8903
Co 12.8664 28.1723 10.9803
Pd 10.9817 26.2224 14.7893
Pd 10.9721 28.1467 16.6848
Pd 12.8701 26.2216 16.6919
Co 12.8684 28.1473 14.7886
Pd 10.9837 26.2187 18.5965
Pd 10.9862 28.1343 20.5048
Pd 12.8806 26.2179 20.5013
Co 12.8703 28.1403 18.5927
Pd 10.9965 26.2151 22.417
Pd 10.9948 28.1213 24.3237
Pd 12.8939 26.2143 24.3214
Co 12.8852 28.1303 22.4109
Pd 10.9955 26.2115 26.2295
Pd 10.9953 28.1173 28.1397
Pd 12.8941 26.2107 28.138
Co 12.8926 28.1237 26.231
Pd 10.9937 26.2079 30.0449
Pd 10.9895 28.123 31.9561
Pd 12.8875 26.2072 31.9518
Co 12.8878 28.1228 30.0496
Pd 10.9983 26.2045 33.8561
Pd 10.9827 28.1311 35.7718
Pd 12.8787 26.2037 35.7641
Co 12.8789 28.127 33.8652
Pd 10.9868 26.201 37.6627
Pd 10.9913 28.1369 39.5672
Pd 12.8825 26.2003 39.5624
Co 12.8762 28.1263 37.6694
Pd 11.0235 26.1976 41.4522
Pd 10.9989 28.1163 43.3459
Pd 12.9001 26.1968 43.3226
Co 12.8723 28.1438 41.4764
Pd 12.9658 26.1933 47.0498
Pd 18.701 26.2222 49.0513
Co 12.9419 28.0668 45.1876
Pd 12.8655 30.0578 9.08495
Pd 10.9788 30.0543 10.9658
Pd 10.9627 31.9833 12.8774
Pd 12.8523 30.0741 12.8795
Co 12.899 31.933 11.0146
Pd 10.9654 30.0691 14.7722
Pd 10.9583 31.9812 16.68
Pd 12.859 30.0647 16.6827
Co 12.8381 31.9923 14.7632
Pd 10.969 30.058 18.591
Pd 10.9659 31.959 20.4935
Pd 12.872 30.0493 20.5005
Co 12.8602 31.9663 18.5883
Pd 10.9825 30.0391 22.4121
Pd 10.9824 31.943 24.3202
Pd 12.884 30.0379 24.3198
Co 12.8703 31.9549 22.4059
Pd 10.9944 30.0292 26.2334
Pd 10.9837 31.9395 28.1489
Pd 12.8855 30.0341 28.1447
Co 12.8784 31.9464 26.2339
Pd 10.9851 30.0317 30.0533
Pd 10.9707 31.9492 31.9734
Pd 12.8771 30.0385 31.962
Co 12.8737 31.948 30.0609
Pd 10.9757 30.0445 33.8709
Pd 10.9667 31.9658 35.7848
Pd 12.8675 30.0485 35.7788
Co 12.867 31.953 33.877
Pd 10.9749 30.051 37.6889
Pd 10.9707 31.9604 39.5875
Pd 12.8604 30.0499 39.5821
Co 12.8469 31.9725 37.7022
Pd 10.982 30.027 41.4915
Pd 12.8679 30.0251 43.3713
Co 12.9062 31.9051 41.4491
Pd 12.8352 33.8773 12.8738
Pd 10.9527 33.8711 14.7623
Pd 10.948 35.7879 16.6817
Pd 12.8378 33.8832 16.6745
Co 12.8815 35.7427 14.8127
Pd 10.953 33.8721 18.5743
Pd 10.9541 35.7779 20.484
Pd 12.856 33.8714 20.4875
Co 12.8324 35.7927 18.5645
Pd 10.9674 33.862 22.3994
Pd 10.9673 35.7609 24.3121
Pd 12.8677 33.857 24.319
Co 12.8593 35.7666 22.4001
Pd 10.9765 33.8503 26.2361
Pd 10.9688 35.7579 28.1627
Pd 12.8695 33.8536 28.1514
Co 12.8627 35.7618 26.2368
Pd 10.9707 33.8557 30.0718
Pd 10.9592 35.7689 31.9895
Pd 12.8613 33.8616 31.9818
Co 12.8628 35.7603 30.073
Pd 10.9602 33.8603 33.895
Pd 10.9567 35.7729 35.7917
Pd 12.8459 33.8669 35.7944
Co 12.8391 35.7801 33.9079
Pd 10.962 33.8524 37.707
Pd 12.8441 33.8537 39.5949
Co 12.8904 35.7232 37.6598
Pd 12.8279 37.6795 16.6778
Pd 10.9509 37.67 18.5678
Pd 10.9545 39.5821 20.4894
Pd 12.8389 37.6773 20.481
Co 12.8837 39.5382 18.6199
Pd 10.9593 37.6657 22.3846
Pd 10.9654 39.5633 24.3104
Pd 12.8571 37.6656 24.3116
Co 12.8398 39.58 22.3803
Pd 10.9651 37.6623 26.239
Pd 10.9669 39.5603 28.1704
Pd 12.8587 37.6625 28.1649
Co 12.868 39.5501 26.2398
Pd 10.9625 37.6599 30.0929
Pd 10.9589 39.5728 31.9913
Pd 12.8438 37.668 31.9951
Co 12.8429 39.5738 30.0992
Pd 10.9571 37.6578 33.9092
Pd 12.8356 37.6637 35.7982
Co 12.8896 39.5256 33.8594
Pd 12.8367 41.4661 20.4902
Pd 10.9661 41.4516 22.3861
Pd 10.9818 43.3411 24.32
Pd 12.8536 41.4533 24.3113
Co 12.8989 43.3066 22.4378
Pd 10.9944 41.4216 26.2419
Pd 10.9832 43.338 28.167
Pd 12.855 41.4502 28.1715
Co 12.8638 43.3376 26.2429
Pd 10.969 41.4454 30.0978
Pd 12.8409 41.4566 31.9926
Co 12.9016 43.3004 30.048
Pd 12.8585 45.205 24.319
Pd 11.0459 45.144 26.245
Pd 12.8598 45.2018 28.17
Co 12.9957 46.9551 26.2459
Pd 16.6758 3.63469 24.3985
Pd 18.6514 3.45934 26.1834
Co 16.7244 5.3723 22.4705
Pd 16.7535 3.56459 28.0115
Pd 11.0045 9.07842 28.1331
Pd 14.8444 5.31685 28.0709
Co 16.6948 5.39272 26.2076
Co 16.7503 5.34778 29.9554
Pd 14.7756 9.05178 20.481
Pd 16.6701 7.18809 20.4886
Co 16.7112 9.10698 18.6092
Pd 14.798 7.17287 22.3925
Pd 14.7825 9.09543 24.2739
Pd 16.6968 7.22822 24.2959
Co 16.6668 9.07478 22.36
Pd 14.8131 7.27736 26.2073
Pd 14.7797 9.08539 28.1468
Pd 16.6958 7.2189 28.1296
Co 16.7002 9.11839 26.2139
Pd 14.7944 7.17211 30.0361
Pd 14.7792 9.04051 31.9448
Pd 16.6752 7.17128 31.9261
Co 16.6682 9.06394 30.0612
Co 16.7165 9.08951 33.8107
Pd 14.759 12.8433 16.6576
Pd 16.65 10.9639 16.6603
Co 16.6972 12.8995 14.7916
Pd 14.7681 10.9603 18.5479
Pd 14.7589 12.8552 20.4553
Pd 16.6571 10.9671 20.4616
Co 16.6438 12.8474 18.543
Pd 14.7702 10.98 22.3577
Pd 14.7684 12.8696 24.2893
Pd 16.677 10.9842 24.2873
Co 16.6694 12.875 22.3771
Pd 14.7707 10.9745 26.2134
Pd 14.7689 12.8646 28.1411
Pd 16.6765 10.9785 28.1398
Co 16.6723 12.8725 26.2153
Pd 14.7706 10.9676 30.0671
Pd 14.7619 12.8417 31.9721
Pd 16.6604 10.9546 31.9624
Co 16.6711 12.8661 30.0518
Pd 14.7718 10.9447 33.8768
Pd 14.7645 12.8238 35.7699
Pd 16.6549 10.9435 35.7619
Co 16.6481 12.8318 33.884
Co 16.7021 12.877 37.6336
Pd 14.757 16.6518 12.856
Pd 16.6426 14.7672 12.8534
Co 16.6998 16.7141 10.9937
Pd 14.7564 14.7617 14.7387
Pd 14.7496 16.6489 16.6541
Pd 16.6427 14.7559 16.6527
Co 16.636 16.6462 14.7435
Pd 14.753 14.7576 18.5464
Pd 14.7574 16.6614 20.4684
Pd 16.6587 14.7632 20.4661
Co 16.6576 16.6652 18.5679
Pd 14.7605 14.761 22.3759
Pd 14.7704 16.6672 24.3009
Pd 16.67 14.7717 24.299
Co 16.666 16.6691 22.3875
Pd 14.7708 14.767 26.217
Pd 14.7718 16.6632 28.1364
Pd 16.6711 14.7675 28.1343
Co 16.6734 16.671 26.2184
Pd 14.7629 14.7528 30.0571
Pd 14.7616 16.6496 31.9679
Pd 16.6626 14.7512 31.966
Co 16.6691 16.6613 30.0489
Pd 14.7576 14.7413 33.8848
Pd 14.7557 16.63 35.7806
Pd 16.6483 14.7378 35.7775
Co 16.6634 16.6503 33.8675
Pd 14.7621 14.739 37.6916
Pd 14.7635 16.6258 39.5775
Pd 16.6486 14.7412 39.5744
Co 16.6429 16.6245 37.6903
Co 16.7056 16.6839 41.4369
Pd 14.7765 20.475 9.07273
Pd 16.6601 18.5924 9.06327
Co 16.7328 20.5469 7.21848
Pd 14.7646 18.5778 10.9445
Pd 14.7546 20.4608 12.8668
Pd 16.6427 18.5642 12.8629
Co 16.6465 20.4626 10.9637
Pd 14.7491 18.5601 14.7512
Pd 14.7538 20.4695 16.6691
Pd 16.6521 18.5635 16.6661
Co 16.6556 20.4748 14.7774
Pd 14.755 18.562 18.5679
Pd 14.7691 20.4767 20.4866
Pd 16.6647 18.5725 20.4836
Co 16.662 20.4772 18.5819
Pd 14.7691 18.5707 22.3911
Pd 14.7783 20.4792 24.3094
Pd 16.6739 18.5753 24.3066
Co 16.6742 20.4818 22.3994
Pd 14.7748 18.5699 26.2206
Pd 14.78 20.4756 28.1355
Pd 16.6756 18.5715 28.1335
Co 16.6793 20.4803 26.2219
Pd 14.7725 18.5631 30.0496
Pd 14.7741 20.4655 31.9572
Pd 16.6696 18.5613 31.9561
Co 16.6777 20.4744 30.0441
Pd 14.7611 18.547 33.8717
Pd 14.7614 20.4509 35.7743
Pd 16.6594 18.5451 35.7732
Co 16.6686 20.4626 33.8616
Pd 14.7562 18.538 37.6874
Pd 14.7618 20.4357 39.5755
Pd 16.6501 18.5393 39.5748
Co 16.6637 20.4535 37.6661
Pd 14.7698 18.5483 41.4918
Pd 14.7805 20.4421 43.367
Pd 16.6638 18.5579 43.3694
Co 16.6533 20.4344 41.4782
Co 16.7366 20.5067 45.2196
Pd 14.8308 24.3141 5.33869
Pd 16.7232 22.4306 5.30705
Co 16.8198 28.0818 3.60735
Pd 14.8009 22.4038 7.17545
Pd 14.7848 24.2937 9.10313
Pd 16.6662 22.3878 9.09665
Co 16.6884 24.2892 7.21806
Pd 14.7635 22.38 10.9724
Pd 14.7603 24.2989 12.884
Pd 16.6564 22.3833 12.884
Co 16.669 24.3063 11.0043
Pd 14.7557 22.3797 14.7765
Pd 14.7645 24.302 16.6874
Pd 16.6607 22.3889 16.6871
Co 16.6598 24.3035 14.7922
Pd 14.7664 22.3871 18.5855
Pd 14.775 24.303 20.4969
Pd 16.6721 22.3917 20.4955
Co 16.6684 24.3054 18.5951
Pd 14.779 22.3893 22.402
Pd 14.7873 24.3017 24.3156
Pd 16.6813 22.3913 24.3133
Co 16.6793 24.3042 22.4065
Pd 14.785 22.3881 26.2244
Pd 14.7889 24.2982 28.1368
Pd 16.6832 22.3877 28.1339
Co 16.6859 24.3013 26.2254
Pd 14.7827 22.3821 30.0461
Pd 14.781 24.2919 31.9542
Pd 16.6775 22.3806 31.9516
Co 16.6834 24.2969 30.0441
Pd 14.7736 22.3721 33.8619
Pd 14.7721 24.2836 35.764
Pd 16.6684 22.3708 35.7609
Co 16.6749 24.291 33.8561
Pd 14.7634 22.358 37.6707
Pd 14.7675 24.2738 39.5669
Pd 16.6645 22.3586 39.5638
Co 16.6681 24.2818 37.6599
Pd 14.7702 22.3515 41.4741
Pd 14.7899 24.2614 43.3471
Pd 16.6722 22.3553 43.3513
Co 16.676 24.2778 41.448
Pd 14.8011 22.3659 45.2667
Pd 14.8098 24.2725 47.0952
Pd 16.7194 22.3827 47.1326
Co 16.6925 24.2522 45.2365
Co 14.9278 26.1944 48.778
Pd 18.6457 26.2389 3.42131
Pd 14.829 28.1549 5.34257
Pd 16.7487 26.2355 5.42386
Co 16.8214 24.3935 3.60348
Pd 14.8198 26.2324 7.22949
Pd 14.7829 28.167 9.10689
Pd 16.6827 26.2315 9.11755
Co 16.6866 28.1778 7.22198
Pd 14.7743 26.2285 11.0004
Pd 14.7585 28.154 12.8878
Pd 16.6628 26.2276 12.9036
Co 16.6674 28.1527 11.0081
Pd 14.7655 26.2246 14.7913
Pd 14.7626 28.1433 16.6912
Pd 16.6641 26.2237 16.697
Co 16.6582 28.1476 14.7959
Pd 14.7698 26.2208 18.5949
Pd 14.7731 28.1348 20.5006
Pd 16.674 26.2198 20.5027
Co 16.6666 28.138 18.5988
Pd 14.7821 26.2171 22.4083
Pd 14.7853 28.1288 24.3192
Pd 16.684 26.2162 24.3174
Co 16.6774 28.1318 22.4101
Pd 14.7908 26.2134 26.2285
Pd 14.787 28.1251 28.1403
Pd 16.6864 26.2126 28.1367
Co 16.684 28.1275 26.2289
Pd 14.787 26.2099 30.0465
Pd 14.7792 28.1243 31.9577
Pd 16.6794 26.2091 31.9518
Co 16.6815 28.1248 30.0476
Pd 14.7765 26.2064 33.86
Pd 14.7703 28.1255 35.7675
Pd 16.6716 26.2055 35.7582
Co 16.6731 28.1236 33.8595
Pd 14.774 26.2028 37.6639
Pd 14.7661 28.1284 39.5706
Pd 16.6711 26.2018 39.5528
Co 16.6663 28.1254 37.6633
Pd 14.7809 26.1996 41.4544
Pd 14.7884 28.1343 43.3514
Pd 16.6887 26.1987 43.3408
Co 16.675 28.1224 41.4519
Pd 14.8211 26.1957 45.2243
Pd 14.8049 28.1182 47.0951
Pd 16.7431 26.1968 47.0366
Co 16.691 28.1425 45.2398
Pd 16.7517 28.0249 48.9626
Co 24.1494 24.3104 48.9748
Pd 16.7199 30.0408 5.3147
Pd 14.7971 30.0607 7.18298
Pd 14.7701 31.9846 9.08369
Pd 16.6627 30.0748 9.10426
Co 16.7278 31.9193 7.22949
Pd 14.7595 30.0763 10.9799
Pd 14.7485 31.9911 12.8782
Pd 16.6531 30.0715 12.8914
Co 16.641 31.9951 10.975
Pd 14.752 30.0691 14.7841
Pd 14.7482 31.9754 16.6804
Pd 16.6573 30.0583 16.6945
Co 16.6505 31.9758 14.7886
Pd 14.7627 30.0544 18.5929
Pd 14.7633 31.9612 20.4977
Pd 16.6683 30.0482 20.5028
Co 16.6566 31.9663 18.593
Pd 14.7752 30.0449 22.4093
Pd 14.7725 31.9514 24.32
Pd 16.6774 30.0413 24.3205
Co 16.6684 31.9546 22.4102
Pd 14.7811 30.0389 26.2315
Pd 14.7743 31.9479 28.1459
Pd 16.6794 30.0377 28.1408
Co 16.6735 31.9488 26.2323
Pd 14.7789 30.0378 30.053
Pd 14.7685 31.9508 31.9676
Pd 16.6738 30.0377 31.9584
Co 16.672 31.9476 30.0544
Pd 14.7698 30.0407 33.8688
Pd 14.7561 31.9582 35.7849
Pd 16.6647 30.0402 35.7675
Co 16.663 31.9521 33.8718
Pd 14.7601 30.0476 37.6781
Pd 14.7571 31.9661 39.5871
Pd 16.6614 30.0451 39.5713
Co 16.6584 31.9538 37.6768
Pd 14.7672 30.0469 41.4816
Pd 14.7765 31.9526 43.3786
Pd 16.67 30.0414 43.3576
Co 16.6495 31.9657 41.49
Pd 14.8011 30.0276 45.275
Pd 16.7232 30.0076 47.1443
Co 16.7334 31.8858 45.2313
Pd 16.6522 33.868 9.07783
Pd 14.7563 33.8768 10.9591
Pd 14.746 35.7978 12.8738
Pd 16.6352 33.8887 12.878
Co 16.6894 35.7411 11.012
Pd 14.7409 33.8876 14.7663
Pd 14.739 35.7949 16.6728
Pd 16.645 33.8834 16.6807
Co 16.6263 35.8022 14.7617
Pd 14.7472 33.8792 18.5827
Pd 14.7473 35.7767 20.4866
Pd 16.657 33.8677 20.4982
Co 16.648 35.7781 18.5862
Pd 14.7612 33.8638 22.4054
Pd 14.7602 35.764 24.3187
Pd 16.6659 33.8578 24.3207
Co 16.6559 35.768 22.4053
Pd 14.7669 33.8574 26.2346
Pd 14.762 35.7607 28.1536
Pd 16.6676 33.8543 28.1473
Co 16.663 35.759 26.2356
Pd 14.7648 33.8571 30.0634
Pd 14.7522 35.7668 31.9854
Pd 16.662 33.8572 31.9698
Co 16.6592 35.7612 30.0659
Pd 14.7537 33.8656 33.8857
Pd 14.7465 35.7782 35.7989
Pd 16.6521 33.8658 35.7872
Co 16.654 35.7644 33.8849
Pd 14.7494 33.8669 37.7024
Pd 14.755 35.7743 39.5977
Pd 16.6437 33.8638 39.5902
Co 16.6341 35.7817 37.7093
Pd 14.7644 33.8492 41.5081
Pd 16.6599 33.8371 43.3874
Co 16.6982 35.7143 41.4579
Pd 16.63 37.6829 12.8748
Pd 14.7431 37.6832 14.7592
Pd 14.7438 39.597 16.6787
Pd 16.6306 37.688 16.6738
Co 16.6821 39.5462 14.8145
Pd 14.7403 37.6837 18.5683
Pd 14.7436 39.5839 20.4819
Pd 16.6463 37.6776 20.4875
Co 16.6295 39.5934 18.5664
Pd 14.748 37.6739 22.3973
Pd 14.7533 39.5638 24.3125
Pd 16.6569 37.6626 24.3197
Co 16.6533 39.5644 22.402
Pd 14.7584 37.6617 26.2377
Pd 14.7549 39.5606 28.166
Pd 16.6585 37.6593 28.1547
Co 16.6562 39.5593 26.2388
Pd 14.7513 37.6674 30.078
Pd 14.7482 39.5743 31.9965
Pd 16.6509 37.6676 31.9868
Co 16.6564 39.5579 30.0755
Pd 14.7464 37.6708 33.9067
Pd 14.7508 39.581 35.7996
Pd 16.6374 37.6714 35.8003
Co 16.6351 39.5804 33.9109
Pd 14.7511 37.6635 37.7158
Pd 16.6383 37.6601 39.5989
Co 16.6896 39.5271 37.6623
Pd 16.6336 41.4785 16.6844
Pd 14.75 41.4728 18.5695
Pd 14.7559 43.3733 20.4908
Pd 16.6412 41.4705 20.4867
Co 16.6951 43.3305 18.6311
Pd 14.7521 41.4624 22.3863
Pd 14.76 43.3487 24.3132
Pd 16.6559 41.4554 24.3148
Co 16.6473 43.3631 22.3873
Pd 14.7537 41.4548 26.2408
Pd 14.7614 43.3456 28.1716
Pd 16.6573 41.4522 28.1659
Co 16.6696 43.3294 26.2418
Pd 14.755 41.4561 30.0953
Pd 14.7599 43.3639 31.9939
Pd 16.6453 41.461 31.9938
Co 16.65 43.3569 30.0964
Pd 14.7555 41.4601 33.912
Pd 16.64 41.4628 35.7958
Co 16.7002 43.3181 33.8523
Pd 16.6522 45.2477 20.5078
Pd 14.7675 45.2258 22.3877
Pd 14.7783 47.094 24.303
Pd 16.6657 45.2235 24.3177
Co 16.7233 47.0728 22.4646
Pd 14.7888 45.1994 26.2439
Pd 14.7795 47.0909 28.1879
Pd 16.667 45.2205 28.169
Co 16.6896 47.0578 26.2448
Pd 14.77 45.2195 30.1002
Pd 16.656 45.2385 31.9788
Co 16.7257 47.0668 30.025
Pd 16.7076 48.8864 24.3729
Pd 14.8382 48.8089 26.2468
Pd 16.7088 48.8834 28.1196
Pd 18.5854 5.29297 20.5056
Pd 20.5235 3.5259 20.5492
Co 20.5345 5.35492 18.6426
Pd 18.6022 3.53563 22.4635
Pd 18.6483 5.35415 24.3357
Pd 22.438 3.42868 22.383
Co 20.517 5.32302 22.4082
Pd 20.5288 3.43781 24.2801
Pd 18.6522 5.3442 28.071
Pd 20.5214 3.43105 28.106
Co 20.5466 5.29919 26.2003
Pd 18.6283 3.52044 29.9575
Pd 18.5985 5.27874 31.9157
Pd 20.5368 3.51096 31.873
Co 20.5204 5.31333 30.0024
Co 20.5468 5.33889 33.7773
Pd 18.5719 9.05956 16.667
Pd 20.4665 7.1983 16.6798
Co 20.5153 9.12428 14.7995
Pd 18.5859 7.18588 18.5684
Pd 18.5772 9.07144 20.472
Pd 20.4862 7.18961 20.4905
Co 20.4634 9.068 18.561
Pd 18.5984 7.19798 22.3815
Pd 18.5984 9.10451 24.2849
Pd 20.5272 7.21554 24.3027
Co 20.4994 9.0984 22.3875
Pd 18.6145 7.23869 26.2101
Pd 18.5987 9.09924 28.1379
Pd 20.5279 7.21051 28.111
Co 20.513 9.11084 26.21
Pd 18.6029 7.1852 30.0343
Pd 18.5802 9.05778 31.9474
Pd 20.4902 7.17846 31.9267
Co 20.5012 9.08976 30.0321
Pd 18.5926 7.1696 33.8497
Pd 18.5789 9.03918 35.752
Pd 20.4761 7.17614 35.7378
Co 20.4676 9.05348 33.859
Co 20.5189 9.10087 37.6178
Pd 18.5642 12.8558 12.8522
Pd 20.4589 10.9834 12.8526
Co 20.5114 12.9212 10.9909
Pd 18.57 10.9705 14.7405
Pd 18.555 12.8541 16.6544
Pd 20.4563 10.9717 16.6614
Co 20.4448 12.8574 14.7436
Pd 18.5636 10.9673 18.5538
Pd 18.5637 12.8714 20.4659
Pd 20.477 10.9806 20.4721
Co 20.4684 12.877 18.5692
Pd 18.5746 10.983 22.3755
Pd 18.5796 12.8819 24.2971
Pd 20.4959 10.998 24.2965
Co 20.481 12.8856 22.3847
Pd 18.5895 10.9923 26.2133
Pd 18.5804 12.8775 28.1323
Pd 20.4968 10.9937 28.128
Co 20.4898 12.8906 26.2143
Pd 18.5768 10.9746 30.0494
Pd 18.5676 12.8597 31.9621
Pd 20.4806 10.9688 31.9519
Co 20.4837 12.8777 30.0433
Pd 18.5678 10.9513 33.8692
Pd 18.5595 12.8358 35.7712
Pd 20.4609 10.9558 35.7613
Co 20.4746 12.8616 33.8581
Pd 18.5731 10.9473 37.6796
Pd 18.5692 12.8293 39.5696
Pd 20.463 10.9564 39.5624
Co 20.4522 12.8349 37.6801
Co 20.5152 12.8908 41.4259
Pd 18.5746 16.6798 9.06064
Pd 20.4591 14.795 9.0638
Co 20.5212 16.7602 7.21222
Pd 18.5651 14.78 10.9389
Pd 18.5501 16.6578 12.8604
Pd 20.4472 14.7708 12.8587
Co 20.4439 16.667 10.9581
Pd 18.5505 14.7604 14.7469
Pd 18.5523 16.6641 16.6637
Pd 20.4593 14.7686 16.6628
Co 20.4607 16.672 14.7724
Pd 18.5562 14.7642 18.5636
Pd 18.5671 16.673 20.4809
Pd 20.4734 14.7797 20.4794
Co 20.4686 16.6748 18.5772
Pd 18.5711 14.7759 22.386
Pd 18.5756 16.677 24.3043
Pd 20.4834 14.7855 24.3021
Co 20.4796 16.6826 22.3944
Pd 18.5762 14.7761 26.2164
Pd 18.5772 16.6731 28.1317
Pd 20.4848 14.7814 28.1298
Co 20.484 16.6823 26.2176
Pd 18.5739 14.768 30.0464
Pd 18.5717 16.6617 31.9547
Pd 20.4782 14.7682 31.9521
Co 20.4827 16.675 30.0408
Pd 18.562 14.7494 33.8676
Pd 18.56 16.6458 35.7711
Pd 20.4676 14.7486 35.7676
Co 20.475 16.66 33.8581
Pd 18.5571 14.7385 37.6816
Pd 18.5579 16.6324 39.5719
Pd 20.4556 14.7445 39.5669
Co 20.4696 16.6502 37.6614
Pd 18.5705 14.7483 41.4853
Pd 18.5786 16.6424 43.3659
Pd 20.4644 14.7592 43.3572
Co 20.4528 16.6357 41.4718
Co 20.5276 16.7113 45.2095
Pd 18.6224 20.5413 5.29186
Pd 20.5096 18.6554 5.28854
Co 20.5919 20.6284 3.57023
Pd 18.5946 18.6211 7.15305
Pd 18.5709 20.4833 9.0912
Pd 20.4585 18.5975 9.08819
Co 20.4777 20.5072 7.19617
Pd 18.5552 18.5746 10.9653
Pd 18.5542 20.4765 12.8833
Pd 20.4583 18.5738 12.8807
Co 20.4691 20.4915 11.0037
Pd 18.5515 18.5662 14.772
Pd 18.5622 20.4799 16.6853
Pd 20.467 18.5766 16.6829
Co 20.4653 20.482 14.793
Pd 18.564 18.5745 18.5801
Pd 18.5722 20.4844 20.4935
Pd 20.4771 18.5824 20.491
Co 20.4748 20.4865 18.5932
Pd 18.5737 18.5789 22.3968
Pd 18.5804 20.4855 24.3109
Pd 20.4839 18.5851 24.3085
Co 20.4828 20.4893 22.4031
Pd 18.579 18.5785 26.2197
Pd 18.5821 20.4819 28.1318
Pd 20.4854 18.5814 28.1298
Co 20.4872 20.4884 26.2208
Pd 18.5771 18.5715 30.0425
Pd 18.5771 20.4736 31.9495
Pd 20.4816 18.5714 31.9478
Co 20.4858 20.4822 30.0388
Pd 18.5703 18.56 33.8593
Pd 18.5696 20.4624 35.7584
Pd 20.4744 18.5592 35.7564
Co 20.4805 20.4727 33.8495
Pd 18.5598 18.5453 37.6671
Pd 18.563 20.4522 39.5606
Pd 20.4676 18.5488 39.5583
Co 20.4737 20.4618 37.6516
Pd 18.5626 18.5455 41.4714
Pd 18.5769 20.4503 43.3506
Pd 20.4665 18.5591 43.3459
Co 20.4781 20.4631 41.4416
Pd 18.5936 18.5753 45.2742
Pd 18.6272 20.4867 47.1449
Pd 20.5025 18.5991 47.1302
Co 20.4797 20.4621 45.2373
Co 20.6407 20.5979 48.8772
Pd 18.7288 22.5436 3.44604
Pd 18.6453 24.3459 5.38473
Pd 20.5348 22.4577 5.36764
Co 20.5509 24.3691 3.5208
Pd 18.5958 22.408 7.21127
Pd 18.5791 24.3081 9.12638
Pd 20.4835 22.4059 9.12065
Co 20.5206 24.3371 7.25631
Pd 18.5643 22.3887 11.0022
Pd 18.564 24.3079 12.9068
Pd 20.4685 22.396 12.911
Co 20.4766 24.3118 11.0302
Pd 18.5614 22.3915 14.7942
Pd 18.566 24.3076 16.6988
Pd 20.4719 22.3956 16.7003
Co 20.4702 24.3106 14.8115
Pd 18.5694 22.3936 18.5947
Pd 18.576 24.307 20.5026
Pd 20.4806 22.3974 20.502
Co 20.4767 24.3091 18.6043
Pd 18.5792 22.3947 22.4052
Pd 18.584 24.3049 24.3159
Pd 20.4872 22.3971 24.3141
Co 20.485 24.308 22.41
Pd 18.5844 22.3927 26.223
Pd 18.5859 24.3014 28.1335
Pd 20.4887 22.3936 28.1308
Co 20.4893 24.3053 26.2241
Pd 18.5827 22.3875 30.0409
Pd 18.5808 24.2963 31.9475
Pd 20.4849 22.387 31.9437
Co 20.488 24.3011 30.0387
Pd 18.5756 22.3794 33.8523
Pd 18.5732 24.2898 35.7527
Pd 20.4787 22.3784 35.7471
Co 20.4823 24.2951 33.8458
Pd 18.5702 22.3706 37.6546
Pd 18.5728 24.2829 39.5469
Pd 20.4779 22.3721 39.5405
Co 20.4782 24.2893 37.6415
Pd 18.5721 22.3609 41.447
Pd 18.5835 24.2762 43.3287
Pd 20.4901 22.3729 43.3308
Co 20.4861 24.2834 41.4283
Pd 18.5986 22.3734 45.2426