665
Atoms. Timestep: 20907
Pd 10.7759 7.77623 19.4902
Pd 7.83023 5.07406 15.8742
Pd 14.313 7.33003 17.6629
Pd 16.0133 15.3019 21.563
Pd 17.9866 22.518 16.5433
Au 15.5946 21.7509 25.3495
Au 10.3425 20.5902 11.8255
Pd 13.164 6.83395 20.174
Au 17.4398 21.1295 21.0077
Pd 24.6061 17.0134 16.0242
Au 9.48331 17.2723 3.49612
Pd 5.87119 23.0524 19.3206
Au 13.0362 6.69025 11.0586
Pd 16.5989 21.7888 14.0719
Au 18.1704 2.99342 17.2049
Pd 10.9651 25.5695 10.4459
Au 15.371 9.57287 8.21553
Au 4.09751 13.8766 19.9497
Pd 18.0621 12.766 4.57517
Au 20.4036 22.2163 9.95188
Pd 19.2833 13.0899 11.4592
Au 13.9878 21.4194 16.2661
Pd 10.0022 13.6272 12.1071
Au 22.8178 3.81521 16.9632
Pd 14.714 14.7734 23.8575
Au 11.1715 13.3257 26.3185
Pd 17.6516 11.4484 17.8543
Au 3.5102 15.7066 17.8745
Au 20.0334 24.2483 17.4367
Pd 17.612 10.0874 20.1961
Au 3.76006 11.1929 18.8866
Pd 10.9489 16.0714 12.7237
Au 20.0788 13.3772 23.5712
Pd 23.5512 11.8526 21.1421
Au 15.8551 15.5057 17.2708
Pd 20.5219 12.1705 3.81615
Au 12.6254 6.23371 24.1111
Pd 18.8025 20.3785 11.6916
Au 11.5801 20.6017 17.1387
Au 25.9848 12.9593 11.3361
Pd 18.5529 22.9917 12.2742
Au 18.6951 22.7709 19.1788
Pd 16.8773 12.9157 10.1047
Au 10.4594 8.13629 23.9504
Pd 14.531 10.3229 13.0327
Au 17.5111 22.4835 5.02613
Pd 16.4111 26.5172 20.6646
Au 21.8356 20.1168 24.3487
Pd 21.6395 18.2333 8.61998
Au 8.85975 15.5291 5.7088
Au 13.7074 20.5701 26.9057
Pd 11.6441 10.6412 14.86
Au 17.8683 17.6575 26.2459
Pd 10.3469 12.4532 16.7731
Au 25.4059 10.0037 21.9115
Pd 16.9444 9.14931 13.0282
Au 10.9228 12.2926 21.8552
Pd 9.6571 13.1829 9.46413
Au 5.46399 10.6231 16.8279
Pd 21.1681 14.3019 13.1874
Pd 6.04137 20.4211 9.92185
Pd 15.1544 12.8332 12.5775
Pd 11.6982 16.2965 15.2176
Pd 15.8344 9.51265 22.2505
Pd 6.03298 10.2435 10.2238
Pd 13.3174 13.4708 6.07559
Pd 21.3191 23.3853 7.19202
Pd 14.1249 15.0698 15.2691
Pd 12.9407 23.5433 5.78651
Pd 11.9152 24.4363 13.3112
Pd 7.18717 13.492 13.3619
Pd 13.9771 16.9979 2.23674
Au 12.8206 4.03528 11.2972
Au 23.6907 7.03836 13.6628
Pd 22.8702 9.15522 21.3727
Au 13.1593 4.85637 21.936
Pd 10.5234 7.93688 14.7537
Au 23.4553 10.4072 23.6319
Pd 17.4188 13.1375 7.32752
Au 4.95303 11.8174 21.3626
Pd 9.9656 17.8466 26.5058
Au 9.72685 24.8452 19.903
Pd 24.1375 8.98447 9.55411
Au 8.55811 19.6704 9.82766
Pd 23.9185 19.5701 8.46715
Au 4.57049 15.0975 13.8373
Pd 6.72364 23.7098 16.6801
Au 16.2203 24.444 18.591
Pd 22.1243 21.0638 14.9087
Au 5.40887 15.278 9.0539
Pd 5.92786 10.9633 12.8032
Au 15.1298 11.2961 19.8901
Pd 25.3474 8.92236 15.1023
Pd 20.3655 15.6131 11.0678
Au 4.37584 22.3988 17.2202
Au 14.1033 25.9976 19.2401
Pd 15.6 15.034 6.33425
Au 9.51139 12.1242 14.1456
Pd 22.4888 15.9186 19.9994
Au 27.481 10.6192 15.147
Pd 23.0536 24.1718 20.7189
Au 19.4296 10.1123 13.7144
Pd 7.6001 11.7133 8.74557
Au 13.5558 14.0992 1.47256
Pd 9.02192 18.2347 12.1504
Au 17.3561 24.3312 7.73826
Pd 10.6654 17.4553 5.88935
Au 15.2665 5.07038 11.5935
Pd 15.0054 18.501 27.8632
Au 24.0843 13.6936 9.4996
Pd 25.5027 11.607 8.82287
Au 18.0866 11.8146 22.2239
Pd 20.4501 3.32734 15.5789
Au 14.0669 13.8921 26.3781
Pd 24.997 11.7201 15.4746
Pd 16.4488 13.5937 15.2199
Au 11.4968 11.4634 5.75689
Au 12.7741 19.9603 24.2523
Pd 17.6544 16.3474 15.3475
Au 9.93737 10.662 7.91782
Pd 15.9611 15.3121 13.3149
Au 19.7503 18.1185 23.9944
Pd 7.21851 19.1863 15.7686
Au 16.2556 10.4396 3.69424
Pd 9.12918 24.8129 14.6231
Au 12.897 11.3053 26.4932
Pd 16.1917 27.0596 17.8963
Au 20.7032 24.6093 12.1528
Pd 13.3968 7.77462 8.58244
Au 24.7016 16.9681 8.49999
Pd 9.10236 5.00279 13.5596
Au 13.2726 26.1224 9.10195
Pd 25.5279 14.9804 13.1869
Au 11.2323 12.9439 2.4407
Pd 6.14084 10.2397 19.5598
Au 22.6136 17.5756 24.0365
Pd 15.9057 3.36417 18.4842
Pd 21.6754 22.4279 19.1235
Au 13.1001 21.0938 19.3788
Au 4.44298 19.7444 16.7472
Pd 18.4405 25.8873 19.0788
Au 21.8075 15.1627 24.9626
Pd 15.4843 7.69967 10.4235
Au 17.3906 19.5847 24.0109
Pd 5.11713 12.607 9.32952
Au 13.1634 19.0781 21.5854
Pd 24.4855 9.97349 19.3891
Au 16.5207 17.8896 2.53942
Pd 8.98805 20.0892 17.6393
Au 9.72901 3.03715 15.5953
Pd 19.4359 19.2906 3.97035
Au 9.57486 12.9366 24.1302
Pd 9.84377 22.5108 13.5388
Au 11.0627 18.507 10.2731
Pd 17.6044 15.9008 19.4503
Au 7.50093 17.0454 10.07
Pd 20.4358 19.1583 13.6292
Au 7.65781 23.4522 21.1781
Pd 14.4943 14.4919 19.3408
Pd 9.65578 7.42069 12.149
Au 19.5645 5.10441 13.3895
Au 25.3091 12.6213 22.8234
Pd 20.0843 21.6579 5.24304
Au 19.157 21.2194 14.5207
Pd 13.9192 9.37911 15.3937
Au 12.6347 10.1862 8.08435
Pd 13.6895 23.4688 18.125
Au 20.8993 16.0512 22.4694
Pd 9.67832 9.5156 5.48082
Au 7.05403 16.8485 20.5589
Pd 11.8281 23.6216 8.51633
Au 19.6777 19.7705 26.0512
Pd 11.7342 25.4226 18.0759
Au 21.3526 24.6612 22.7127
Pd 22.4651 8.68109 11.7007
Au 23.7653 15.2145 6.78568
Pd 12.9831 18.8929 6.03439
Au 10.5995 17.9478 17.059
Pd 19.5914 5.82685 10.422
Au 21.8554 6.66511 21.4022
Pd 14.9741 14.8066 10.7882
Pd 22.293 15.7542 9.20415
Pd 13.8328 9.46254 3.56516
Pd 9.32314 11.9687 4.17184
Pd 16.8892 20.1445 3.93698
Pd 23.0247 19.5798 12.8273
Pd 12.1652 17.1687 8.23457
Pd 15.4311 8.4995 19.8466
Pd 22.3645 6.24042 17.7452
Pd 22.6747 11.095 8.79194
Pd 6.78152 12.9575 19.7372
Pd 22.0696 6.99356 9.69801
Pd 11.9945 21.1241 9.61283
Au 9.10574 14.5903 3.04403
Au 8.79095 16.1287 22.5865
Pd 22.5882 23.6605 13.9167
Au 20.3628 21.2231 17.0698
Pd 12.9178 11.0853 17.2264
Au 12.8383 16.0812 5.68367
Pd 13.0199 9.4621 19.4733
Au 20.4235 18.3236 11.0054
Pd 22.3418 18.4037 15.5372
Au 15.4547 27.2056 10.7066
Pd 14.8212 7.35502 13.1225
Au 23.1167 20.5998 17.4203
Pd 15.1392 20.6816 22.7933
Au 11.0278 14.0613 4.90191
Pd 16.1242 21.9858 7.28687
Au 23.8185 20.1118 22.5148
Pd 11.8791 6.02293 17.9036
Au 19.2484 9.06752 25.476
Pd 11.5103 18.6517 13.2214
Au 17.7673 26.7685 9.11808
Pd 24.9561 12.5284 18.1052
Pd 7.91441 17.4121 24.7476
Au 6.33855 13.4451 7.13279
Au 3.24545 17.0619 15.2776
Pd 2.92093 11.5376 16.2213
Au 12.5451 12.3654 19.5141
Pd 15.5194 26.3885 7.75397
Au 14.8302 7.62016 24.6028
Pd 15.1953 6.86421 21.9496
Au 22.2281 8.63841 7.52636
Pd 5.53704 18.9376 21.1655
Au 16.0235 10.4616 10.7741
Pd 13.7161 19.3045 8.7275
Au 24.6318 20.7787 10.7926
Pd 13.4669 12.1276 3.56849
Au 18.3621 11.3886 2.35267
Pd 11.0112 6.62724 21.9059
Au 15.3341 17.6599 15.4142
Pd 17.057 5.46335 9.59947
Au 25.8902 18.4129 10.4796
Pd 17.7427 18.1014 10.4894
Au 8.12077 16.7452 17.1926
Pd 19.9414 4.69122 20.8086
Pd 15.6137 2.91109 13.09
Au 18.0956 14.0346 17.41
Au 15.1606 19.0046 25.2153
Pd 2.32839 13.3067 18.1098
Au 19.0706 18.8917 16.0366
Pd 20.5784 24.746 20.0878
Au 18.3756 15.526 6.51678
Pd 14.7371 17.248 7.36349
Au 21.71 6.05116 12.1684
Pd 13.6472 17.39 23.7596
Au 12.3854 8.68835 5.63897
Pd 15.409 3.67626 21.1591
Au 25.5803 21.2293 18.0971
Pd 8.12871 15.051 8.28441
Au 27.6284 15.5148 14.7233
Pd 20.2413 14.6087 18.9578
Au 23.364 15.2223 11.7015
Pd 14.1204 10.7613 5.9071
Au 10.5226 22.0444 24.1558
Pd 12.0297 18.2646 3.67555
Au 10.6484 19.9286 22.4629
Pd 16.707 9.63089 24.7242
Pd 15.5101 19.5751 6.21134
Au 23.46 22.8581 23.1055
Au 12.3379 15.5306 25.0984
Pd 22.0417 11.107 6.07963
Au 12.9088 26.852 11.6237
Pd 8.66022 8.13905 21.8386
Au 17.7971 7.47674 20.8023
Pd 23.3546 17.8431 10.7308
Au 18.9459 24.3829 24.1137
Pd 20.3625 16.6843 14.9686
Au 21.6839 24.5705 9.56186
Pd 24.5244 17.4408 13.3186
Au 21.121 17.162 4.39266
Pd 13.0576 8.38224 22.6018
Au 21.242 8.67552 23.5352
Pd 20.232 8.9219 20.8753
Au 7.25398 13.5703 4.72465
Pd 17.7455 18.55 20.2259
Au 7.93803 7.24991 14.4505
Pd 21.3206 18.7766 21.9349
Au 22.7795 12.9204 23.7562
Pd 14.8909 21.8729 4.87727
Pd 15.0228 17.3066 4.70261
Au 18.4598 21.974 25.4173
Au 15.6283 3.00663 15.7351
Pd 27.0483 12.9975 14.0051
Au 21.9756 16.0555 17.1998
Pd 6.39523 18.7552 11.9482
Au 23.0456 15.4304 14.6388
Pd 19.2232 24.2902 5.69723
Au 16.0625 20.3142 11.584
Pd 8.1133 13.9903 17.6366
Au 18.9266 16.771 2.81625
Pd 14.8577 16.4745 26.1054
Au 4.84452 19.2905 14.1314
Pd 8.76036 6.14778 20.0922
Au 11.3546 10.3235 3.42083
Pd 15.7832 22.9908 11.8833
Au 6.40186 19.5936 23.6601
Pd 14.6308 21.8551 9.65135
Au 21.5689 13.6625 21.3055
Pd 19.5802 9.59358 18.3964
Au 21.2201 11.0382 11.9078
Pd 9.44116 7.07909 17.1073
Pd 13.6002 17.0796 13.4267
Pd 11.9931 12.6962 8.17715
Pd 19.3362 14.2383 8.89172
Pd 6.6239 21.1316 17.5966
Pd 18.4176 11.7127 24.9927
Pd 7.56249 11.0911 6.12302
Pd 14.8321 9.42131 26.6673
Pd 19.9478 18.2747 6.53207
Pd 19.9057 9.98759 7.19533
Pd 20.8722 9.96196 16.0355
Pd 9.22818 13.0097 6.73818
Pd 5.59572 8.99013 14.5201
Au 23.1833 10.7085 17.1405
Au 12.3362 11.9638 12.5932
Pd 9.20587 18.1573 19.451
Au 11.1503 3.36285 13.2729
Pd 12.8014 18.7415 15.5938
Au 8.86663 10.3431 23.4395
Pd 16.5823 16.7133 24.13
Au 23.833 17.6484 21.4549
Pd 14.6265 23.3299 23.3932
Au 17.9838 8.16035 9.57085
Pd 15.6338 23.5603 16.1242
Au 13.1308 6.88526 15.2678
Pd 10.9757 5.2273 15.5994
Au 11.3126 15.7189 27.5209
Pd 21.7264 10.937 19.5698
Au 8.93322 24.6376 11.9883
Pd 12.6159 2.72231 15.3021
Au 17.747 3.97508 11.8265
Pd 8.19435 11.6371 11.551
Au 18.9858 10.1871 4.70908
Pd 19.7522 8.04308 11.82
Pd 6.52387 9.72576 22.1255
Au 7.92608 8.87701 7.67129
Au 17.8242 25.8686 11.7859
Pd 19.4853 20.6432 22.9481
Au 17.2413 7.10274 23.7296
Pd 11.8033 15.1283 19.7132
Au 17.4857 11.9388 13.0075
Pd 13.8193 4.64785 13.9235
Au 18.9943 22.2779 7.61355
Pd 2.92808 14.2469 15.6957
Au 3.32563 15.1772 11.071
Pd 24.9023 7.90297 17.6659
Au 17.7792 12.8349 27.5949
Pd 24.3408 5.87862 15.9146
Au 18.8756 25.8411 21.8571
Pd 10.5996 10.4738 18.9038
Au 13.2653 10.9183 21.8108
Pd 7.34846 13.9734 10.5632
Au 4.56192 8.628 11.8552
Pd 15.2392 5.00676 23.6422
Au 10.8918 23.0831 11.0989
Pd 20.1184 13.4522 26.2407
Pd 8.64159 13.6894 21.6505
Au 26.2618 10.2749 17.4355
Au 24.2415 12.5994 6.73156
Pd 7.64189 20.5922 20.1712
Au 14.2936 14.8014 3.80258
Pd 4.71723 20.6726 19.3483
Au 5.01161 13.2155 17.4633
Pd 15.6068 12.7639 5.06065
Au 22.3099 25.4079 18.1665
Pd 20.4273 4.29353 18.0843
Au 9.1844 17.5883 8.03975
Pd 12.6901 21.7527 22.1265
Au 1.99849 15.5285 13.4132
Pd 20.9842 18.7176 17.9855
Au 15.9978 12.8567 2.39145
Pd 18.6195 9.33569 22.8856
Au 12.5222 8.61334 25.5317
Pd 16.4171 20.1664 16.1478
Au 6.56313 18.5368 8.00746
Pd 11.2058 14.9134 22.694
Au 21.5788 25.6607 15.4878
Pd 15.877 6.91782 7.78026
Pd 5.72424 6.5433 13.1581
Au 23.8871 11.1601 11.1883
Au 17.2964 10.2592 27.2117
Pd 21.8194 13.2763 10.6734
Au 23.1396 22.2154 8.80272
Pd 12.0312 14.0477 10.4492
Au 24.1509 23.4598 18.3284
Pd 24.3599 21.7659 13.2993
Au 24.695 19.754 15.2831
Pd 13.7677 4.67928 16.6878
Au 12.3943 24.1077 20.4782
Pd 17.4357 5.10038 21.8018
Au 10.0278 15.8945 10.1833
Pd 18.1146 20.2605 18.2352
Au 18.1677 9.43994 16.0848
Pd 22.6048 13.3576 18.8956
Au 15.2504 12.6598 17.4354
Pd 16.175 10.9077 15.1564
Au 8.45584 22.6944 18.7187
Pd 10.6814 8.01672 7.53851
Au 23.1948 10.1097 13.9314
Pd 25.0474 8.60809 12.1545
Pd 20.948 11.1268 22.2458
Au 13.7435 14.8897 8.42857
Au 27.3204 12.798 16.7136
Pd 21.8547 17.0652 12.862
Au 13.473 6.3595 6.51889
Pd 4.80278 17.7494 9.96622
Au 22.9211 8.20832 16.0064
Pd 22.2249 23.1978 16.5082
Au 8.36533 8.7477 19.1516
Pd 18.743 12.1303 15.4237
Au 4.91068 12.4855 14.7292
Pd 18.7956 5.32425 16.0841
Au 22.2073 13.6967 5.18415
Pd 3.76596 17.405 12.578
Au 14.3228 25.3572 21.8117
Pd 18.0007 3.14902 14.481
Au 3.64591 11.1179 11.2321
Pd 7.88504 20.4811 13.4636
Au 8.28935 18.7045 22.101
Pd 9.04921 19.748 24.6867
Au 18.5433 7.39016 14.3848
Pd 23.9896 7.12886 19.9862
Pd 12.0262 24.1052 23.1257
Pd 20.5503 12.176 17.4706
Pd 17.1131 24.0024 21.0084
Pd 22.0576 20.2889 10.4013
Pd 5.45906 6.71568 15.8779
Pd 17.1644 22.5015 23.2435
Pd 20.1752 7.46755 16.6704
Pd 20.0986 11.7954 9.17809
Pd 15.8996 21.7512 18.3398
Pd 11.1588 11.1877 10.3461
Pd 19.2044 19.7891 8.91622
Pd 4.42766 16.3981 20.724
Au 25.3383 19.4253 20.0941
Au 24.6371 22.4076 15.8372
Pd 26.818 14.2406 18.9272
Au 12.209 18.2988 19.2067
Pd 6.06067 15.4552 18.6431
Au 24.7285 14.2445 20.5926
Pd 16.6732 15.3763 8.71664
Au 13.4502 13.723 21.6551
Pd 16.0593 7.81507 15.5063
Au 22.4908 4.64023 19.7813
Pd 5.82312 15.9273 11.7013
Au 3.93017 19.7713 11.4692
Pd 26.7928 18.039 14.9785
Au 10.5454 26.5974 12.9863
Pd 16.3427 19.8443 8.88782
Au 16.4898 27.4641 13.3528
Pd 26.0445 18.6889 17.5549
Au 18.5259 14.0426 2.16028
Pd 6.37958 16.1699 6.6217
Au 15.1506 17.1832 19.5297
Pd 12.6461 18.0118 26.4066
Pd 11.129 23.2342 15.8681
Au 21.3507 12.0629 14.5071
Au 6.97557 12.208 23.0437
Pd 11.5652 13.7029 14.6843
Au 19.9189 23.7166 14.6775
Pd 10.8647 15.0253 7.59632
Au 12.8196 13.5073 28.5419
Pd 10.7673 22.0074 6.56171
Au 21.3766 20.6557 7.49051
Pd 8.33214 15.7124 12.5142
Au 19.9052 25.6815 7.79174
Pd 12.3865 21.0599 4.61853
Au 24.3943 9.97335 7.03572
Pd 19.4198 16.8112 8.85534
Au 16.6142 16.5181 28.2637
Pd 20.7557 9.29396 9.68615
Au 5.7371 21.5673 21.7131
Pd 16.5197 5.3346 14.1633
Au 5.02516 13.2891 11.8126
Pd 16.8655 10.7473 6.20777
Au 17.6529 15.3287 11.1563
Pd 19.2909 16.6032 17.4723
Pd 6.6345 18.6491 18.5586
Au 11.7145 15.6755 2.88364
Au 17.8029 25.2962 16.4502
Pd 17.0173 20.0887 26.8431
Au 14.8537 22.7232 20.7202
Pd 21.0487 21.7433 12.59
Au 13.842 2.08426 17.5544
Pd 19.8632 14.7723 4.41563
Au 7.28534 14.6633 24.1614
Pd 14.4089 19.1305 17.7013
Au 7.62035 5.89296 11.4718
Pd 19.8551 12.6663 6.46441
Au 17.7517 26.4387 6.31779
Pd 25.7676 15.6606 10.5611
Au 26.9368 16.1831 17.1648
Pd 8.61428 22.1276 15.8829
Au 25.9818 19.6192 12.8686
Pd 11.5256 3.31665 17.6595
Au 21.8288 19.684 5.0599
Pd 25.3984 14.3686 15.7667
Au 3.43965 7.52412 14.0435
Pd 25.7706 10.8937 13.1236
Pd 13.379 24.1206 10.8445
Au 7.03282 16.1643 3.94861
Au 20.9218 22.5816 24.3068
Pd 12.8505 16.5292 10.805
Au 2.70866 12.9499 13.1913
Pd 14.2677 5.24383 9.09169
Au 11.6185 5.76973 8.83863
Pd 8.53694 11.0209 20.8403
Au 6.97608 6.2804 18.1307
Pd 8.22221 21.3909 22.7521
Au 25.8049 16.7478 19.6863
Pd 15.4652 26.2218 15.4285
Au 15.9184 17.7108 12.4137
Pd 21.1657 8.03975 14.0355
Au 6.3846 14.8573 15.7712
Pd 11.8943 8.59443 17.0869
Au 16.0663 15.402 1.57132
Pd 20.3383 14.2989 15.9081
Au 10.8417 17.6739 24.0377
Pd 5.86512 21.5614 15.1292
Au 8.4553 20.3652 7.14983
Pd 16.8984 13.2451 19.9191
Pd 18.8845 14.4379 21.3391
Au 16.2667 5.48129 16.849
Au 17.8262 8.37199 6.77312
Pd 22.9148 13.3505 16.2794
Au 17.4653 6.67508 11.9838
Pd 19.4457 23.0335 21.7928
Au 14.3506 19.5578 3.50289
Pd 17.7456 10.7531 8.634
Au 20.0858 17.2165 20.0466
Pd 17.6366 17.7247 5.05115
Au 9.62065 9.86116 16.4583
Pd 6.55793 7.70145 9.81619
Au 15.1038 11.7372 27.9707
Pd 18.1014 20.1393 6.36821
Au 10.4731 20.5055 19.8693
Pd 22.1712 8.60347 18.6588
Au 22.9851 23.0004 11.3105
Pd 17.4352 7.75951 18.055
Au 7.92321 18.1972 5.57529
Pd 9.92443 13.0313 19.3778
Au 14.3756 23.9475 7.96162
Pd 4.07208 18.1234 18.8375
Pd 13.4846 9.59117 10.6701
Pd 19.1638 26.2712 14.207
Pd 15.4918 12.2844 22.5864
Pd 5.0379 8.21237 18.2327
Pd 5.44813 17.2392 16.6243
Pd 9.67246 15.4242 25.2137
Pd 23.486 15.2538 22.6922
Pd 9.06686 6.83615 9.38254
Pd 15.7521 18.0962 22.0884
Pd 15.8269 12.1796 25.3862
Pd 18.9424 15.4537 27.4868
Pd 8.08095 11.2834 18.1001
Au 9.20281 17.3479 14.689
Au 15.4888 9.81925 17.5487
Pd 24.3896 15.2186 18.0508
Au 17.101 24.4824 13.9782
Pd 21.8873 13.4369 7.88503
Au 8.03169 22.0948 11.2501
Pd 18.0767 5.27086 18.8491
Au 26.456 10.2068 10.6939
Pd 15.5859 14.1963 28.5735
Au 21.105 11.0596 24.9698
Pd 14.5858 19.8978 13.8847
Au 13.2449 16.5197 17.5056
Pd 13.5145 4.19033 19.3205
Au 6.38362 7.5888 20.4641
Pd 19.0945 15.6183 24.7441
Au 19.789 11.0201 27.2798
Pd 7.24578 23.2419 13.6933
Au 27.0817 17.0761 12.5077
Pd 7.24685 8.62584 12.1815
Au 13.246 24.785 15.798
Pd 13.178 14.5452 12.7966
Pd 15.247 17.3778 9.89492
Au 20.1474 6.83445 19.2701
Au 26.0165 14.4151 8.05221
Pd 13.8852 12.3326 14.9555
Au 13.4775 27.1981 16.9345
Pd 11.0574 4.76564 20.058
Au 16.5826 25.2798 23.2489
Pd 24.2559 21.8675 20.4784
Au 11.1646 8.39767 10.1394
Pd 6.02919 16.9453 22.9856
Au 12.893 22.4754 25.2007
Pd 15.7034 24.3937 5.68429
Au 9.23771 24.7437 17.2265
Pd 10.9806 19.6327 7.68207
Au 13.3589 21.4011 7.17286
Pd 18.5785 14.4107 13.7245
Au 19.9462 7.25146 8.06598
Pd 11.0421 22.8365 18.5188
Au 14.1324 23.0069 13.9865
Pd 15.3462 19.8376 20.099
Au 12.7367 13.8174 17.2078
Pd 9.56218 22.0382 8.98335
Pd 6.06173 14.5144 21.7548
Au 10.217 22.7102 21.4376
Au 5.62914 21.4673 12.4172
Pd 19.9506 20.3394 20.1158
Au 26.2462 11.9369 20.3289
Pd 9.05947 14.6818 15.0586
Au 3.33332 10.2866 13.8068
Pd 10.4808 15.2203 17.3648
Au 10.8658 9.55709 21.5172
Pd 17.3158 17.8044 7.66455
Au 3.46468 8.89664 16.2488
Pd 9.91449 19.8843 15.0525
Au 6.51859 17.0984 14.1029
Pd 10.8887 17.301 21.3336
Au 15.9757 24.7553 10.0032
Pd 15.6504 5.82823 19.5634
Au 19.4269 12.1429 19.9193
Pd 11.6594 5.98056 13.1532
Au 19.858 26.9447 17.0018
Pd 22.6325 19.8292 19.9321
Au 20.6986 17.2194 26.3009
Pd 8.04846 9.97571 14.3124
Pd 15.0063 12.3694 7.92724
Au 17.3218 13.9964 23.5839
Au 17.6331 27.8574 15.746
Pd 23.7419 12.9219 13.3156
Au 10.2692 4.98798 11.0403
Pd 13.4652 16.3568 21.3925
Au 13.1417 27.046 14.2155
Pd 24.6898 5.16547 18.3932
Au 22.9843 17.7801 6.4235
Pd 7.41259 12.2159 15.7494
Au 12.0918 21.1757 14.298
Pd 18.9656 24.4187 9.92285
Au 19.5918 6.66984 22.6869
Pd 18.2758 16.8766 22.1506
Au 12.4166 8.65749 12.9955
Pd 17.9453 3.03884 20.0886
Au 8.7202 9.47173 10.1053
Pd 14.1652 10.3968 24.2518
Au 10.0686 19.8469 4.98646
Pd 13.9127 12.2036 10.2686
Au 7.21895 8.63824 16.7103
Pd 12.801 12.8793 24.1178
Pd 18.6687 10.4124 11.1035
Au 10.1344 10.0131 12.5529
Au 21.0352 15.7539 6.76836
Pd 13.74 16.1022 28.3869
Au 11.1085 20.327 26.2633
Pd 15.2159 8.3979 5.67315
Au 9.2919 4.57088 17.9773
Pd 11.4298 10.649 24.1086
Au 23.6217 17.9137 18.4039
Pd 16.7929 14.7183 26.0876
Au 21.6991 5.60398 15.1435
Pd 14.8297 25.4 12.7857
Au 13.5713 19.0802 11.4083
Pd 13.189 21.6421 11.9416
Au 21.7143 21.6908 21.7223
Pd 16.948 17.9602 17.6482
Au 17.0188 15.259 4.05168
Pd 9.12112 15.5153 19.725
Au 17.4593 22.1058 9.85947
Pd 17.4646 19.163 13.8949
Au 18.7619 17.0485 12.8658
Pd 11.0473 26.241 15.6433
