665
Atoms. Timestep: 20288
Pd 8.09959 8.08592 8.3025
Pd 5.22962 8.05414 12.2665
Pd 3.46473 8.8525 16.5088
Pd 3.74556 8.57479 19.2767
Pd 7.01818 8.17015 22.8005
Au 9.12052 9.36973 5.97796
Au 6.01111 9.18731 9.8062
Pd 7.04326 10.4116 7.44748
Au 3.36632 9.21273 13.8418
Pd 4.15179 10.3684 11.4342
Au 3.61828 10.9679 18.1374
Pd 3.56053 11.4516 15.3268
Au 4.78552 9.32154 21.7265
Pd 4.63761 11.7404 20.5995
Au 8.17579 9.12275 25.1498
Pd 5.93172 10.2354 24.1309
Au 8.10578 11.7182 5.14584
Au 5.0651 11.5564 8.97206
Pd 6.07738 12.7299 6.6523
Au 4.30629 12.7085 12.8117
Pd 5.2371 13.907 10.348
Au 3.54299 13.4748 17.2154
Pd 3.75802 14.5063 14.7589
Au 5.66278 12.6321 23.0095
Pd 4.56952 14.2643 19.6255
Au 7.18943 11.2045 26.3759
Pd 6.8036 13.5865 25.2864
Au 8.89247 15.7876 3.35173
Au 6.21838 15.0849 7.90466
Pd 7.31942 16.4821 5.44369
Au 4.40794 15.591 12.3586
Pd 5.27797 16.6716 9.99679
Au 3.34433 16.2317 16.7729
Pd 3.84164 17.3582 14.3628
Au 5.59748 15.1321 22.0672
Pd 4.4903 16.9137 19.0586
Au 7.89252 15.0697 27.1932
Pd 6.79964 16.0666 24.4002
Au 7.94759 18.2554 3.38447
Au 6.07041 17.7145 7.60993
Pd 6.57493 19.1912 5.49509
Au 4.53568 18.4214 11.9171
Pd 5.42284 19.5109 9.50193
Au 3.23289 19.0891 16.3017
Pd 3.91999 20.1644 13.8915
Au 5.53962 17.7217 21.4351
Pd 4.47625 19.6429 18.5578
Au 8.04292 17.5539 26.2907
Pd 6.71993 18.6023 23.7298
Au 8.59834 22.959 3.91147
Au 5.77828 21.03 7.25667
Pd 7.08491 20.8289 3.54388
Au 4.65769 21.1901 11.4535
Pd 5.02826 22.6452 9.18921
Au 3.32127 21.8313 15.8212
Pd 4.17969 22.9147 13.4652
Au 5.60353 20.3618 20.9086
Pd 4.62488 22.333 18.0626
Au 8.23843 20.1262 25.3487
Pd 6.9317 21.1897 23.1252
Pd 10.2197 7.06038 6.85379
Pd 7.24042 6.91969 10.6995
Pd 9.29702 5.80157 9.18628
Pd 5.45216 7.86472 14.9347
Pd 7.50732 6.79269 13.379
Pd 5.64809 7.60068 17.6327
Pd 7.71038 6.61756 16.0625
Pd 5.93232 7.33233 20.3624
Pd 7.91481 6.37809 18.7588
Pd 9.31243 7.09201 23.8377
Pd 8.22048 6.15581 21.4715
Pd 10.9877 11.1969 5.20606
Au 12.0971 8.86419 6.07403
Au 10.5183 9.41058 8.25019
Pd 8.42344 10.4841 9.76223
Au 9.57377 8.12498 10.5873
Pd 12.3691 11.293 7.55385
Au 7.54346 9.25809 12.1237
Pd 5.62404 10.4594 13.7435
Au 7.81755 9.13576 14.8665
Pd 9.87609 10.6155 12.1521
Au 5.71517 10.1618 16.4711
Pd 5.93162 12.3733 18.1141
Au 8.00633 8.89991 17.6026
Pd 8.07888 11.5262 16.4329
Au 5.98746 9.84075 19.2555
Pd 7.07325 10.7034 21.6861
Au 8.26466 8.62006 20.3813
Pd 8.33732 11.2079 19.1934
Au 9.40518 9.58434 22.7945
Pd 10.4292 10.6702 25.169
Au 11.6552 8.49407 23.9892
Pd 11.762 11.0244 22.7745
Pd 9.96692 13.5077 4.2471
Au 12.7358 13.0944 4.20875
Au 9.44718 11.7809 7.4003
Pd 7.42251 12.8513 8.92621
Au 10.8251 11.8943 9.77724
Pd 11.3088 13.6295 6.56288
Au 6.44034 11.6618 11.3007
Pd 6.66047 14.0778 12.7667
Au 7.92062 11.7983 13.7146
Pd 8.81324 12.9994 11.3073
Au 5.81409 12.872 15.3145
Pd 5.75971 14.9727 17.2306
Au 8.27369 13.7864 18.0619
Pd 8.1657 14.2316 15.2715
Au 6.95533 13.1891 20.5745
Pd 8.08246 14.1205 22.9111
Au 9.464 12.1348 21.5922
Pd 9.38482 14.641 20.4695
Au 8.19946 11.6846 24.0239
Pd 9.26326 12.9018 26.3128
Au 12.8421 12.0464 25.1626
Pd 10.5626 13.1795 23.9413
Pd 10.6738 17.8488 3.53264
Au 11.6619 15.3837 3.22359
Au 8.35381 14.1346 6.36641
Pd 8.63413 16.5765 7.81049
Au 9.78441 14.262 8.80236
Pd 10.2383 15.9641 5.58203
Au 7.63048 15.259 10.2838
Pd 6.80906 16.9387 12.3153
Au 9.07462 15.452 12.7373
Pd 10.1052 16.6929 10.2458
Au 6.07376 15.8927 14.7251
Pd 5.57412 17.7356 16.7068
Au 8.10423 16.3837 17.1643
Pd 8.50203 17.3127 14.6659
Au 6.88246 15.7385 19.6573
Pd 8.01191 16.604 21.9911
Au 10.5664 15.7534 22.6888
Pd 9.31905 17.1523 19.5133
Au 9.30797 15.3361 25.0496
Pd 10.3368 16.2909 27.3165
Au 11.6707 14.2101 26.3142
Pd 11.7337 16.7435 25.0463
Pd 9.66585 20.3423 3.72839
Au 12.3762 20.0342 3.95813
Au 9.17571 18.4629 5.75517
Pd 7.9986 19.6271 7.92731
Au 10.5052 18.627 8.29178
Pd 10.8844 20.5518 6.24723
Au 7.69384 17.9849 9.9525
Pd 6.98269 19.7823 11.8214
Au 9.30092 18.3549 12.2839
Pd 9.53089 20.1841 10.3189
Au 6.19248 18.741 14.245
Pd 5.5628 20.515 16.2039
Au 7.94009 19.1407 16.6472
Pd 8.62351 20.202 14.1873
Au 6.82096 18.3747 19.0812
Pd 7.99088 19.1536 21.4173
Au 10.6236 18.3814 21.5618
Pd 9.24985 19.7636 19.0178
Au 9.33505 17.9557 23.9867
Pd 10.4864 18.7693 26.3552
Au 13.2642 18.7274 26.3309
Pd 11.8245 19.27 24.0093
Pd 6.27195 22.6957 5.23988
Au 11.1925 22.4763 4.26238
Au 8.33235 21.2945 5.91719
Pd 7.35621 23.2285 7.61748
Au 9.68445 21.97 8.27692
Pd 9.79858 23.6622 6.20891
Au 7.24689 21.5161 9.71548
Pd 6.24345 23.3289 11.5012
Au 8.56793 22.0964 12.077
Pd 8.60735 23.8622 9.95131
Au 6.31762 21.5475 13.7462
Pd 5.57601 23.3289 15.7241
Au 7.85057 22.0198 16.127
Pd 7.45464 23.9602 13.7868
Au 6.86956 21.0773 18.571
Pd 5.98007 22.9339 20.3487
Au 8.24417 21.7547 20.9229
Pd 6.95367 23.8435 18.0325
Au 9.62248 20.6079 23.0523
Pd 10.6632 21.2756 25.4931
Au 13.2523 21.339 25.384
Pd 8.7376 22.6759 24.4327
Pd 11.3248 4.78647 7.71259
Pd 9.60694 5.71848 11.8501
Pd 11.7205 4.7184 10.3173
Pd 9.82376 5.61298 14.5223
Pd 11.9684 4.66305 12.9771
Pd 10.006 5.42947 17.1997
Pd 12.1398 4.50938 15.6637
Pd 10.2057 5.21783 19.8865
Pd 12.3135 4.33161 18.3762
Pd 10.4747 5.06081 22.5521
Pd 12.5019 4.19697 21.0807
Pd 13.831 10.8333 5.28244
Au 13.2045 6.5254 6.97715
Au 11.6368 7.05158 9.07928
Pd 11.8793 9.53017 10.6301
Au 12.029 7.06522 11.7312
Pd 13.4355 8.92627 8.516
Au 9.902 8.07907 13.2967
Pd 10.2033 10.5184 14.848
Au 12.217 6.96982 14.4447
Pd 12.3192 9.50071 13.274
Au 10.0956 7.92737 16.017
Pd 10.4015 10.2837 17.5602
Au 12.3933 6.78752 17.1756
Pd 12.5056 9.32971 15.9827
Au 10.2935 7.7046 18.7502
Pd 10.6611 10.0143 20.331
Au 12.5887 6.60588 19.9421
Pd 12.7045 9.12401 18.7232
Au 10.5898 7.47753 21.5292
Pd 14.028 9.94921 23.9484
Au 12.8272 6.30228 22.8034
Pd 12.94 8.86095 21.5682
Pd 14.4897 15.0484 3.35341
Au 15.5671 12.7674 4.33795
Au 14.0825 13.2447 6.63786
Pd 12.6504 13.7913 8.99247
Au 13.707 11.4013 10.0404
Pd 15.8046 15.235 5.71345
Au 12.193 12.0236 12.168
Pd 10.238 13.1472 13.7122
Au 12.5786 11.9033 14.8183
Pd 13.9878 13.9643 11.4889
Au 10.4415 12.9009 16.4048
Pd 10.6765 15.1877 17.9768
Au 12.7873 11.6798 17.5255
Pd 12.8457 14.2858 16.3456
Au 10.7038 12.6069 19.1359
Pd 11.8271 13.6115 21.5041
Au 13.0163 11.4205 20.3087
Pd 13.0755 14.0243 19.0417
Au 14.147 12.4532 22.7163
Pd 14.5241 14.0458 26.0527
Au 15.7514 11.9257 24.9029
Pd 15.8094 14.4683 23.6432
Pd 13.4336 17.5328 3.65155
Au 16.1719 17.2226 3.78766
Au 13.0208 15.5644 5.55295
Pd 11.5822 16.1314 7.91897
Au 14.3368 15.7603 8.01136
Pd 14.7422 17.783 6.08438
Au 11.1822 14.4002 11.2601
Pd 11.4857 16.8441 12.7453
Au 12.5886 14.5301 13.6882
Pd 12.9019 16.3237 10.3386
Au 10.5193 15.5852 15.2476
Pd 10.5052 17.7754 17.0284
Au 13.0971 16.6663 17.787
Pd 12.8647 16.9235 15.1352
Au 11.8279 16.1904 20.2549
Pd 13.0123 17.1281 22.6151
Au 14.237 15.0139 21.3924
Pd 14.2699 17.5012 20.0904
Au 12.9378 14.5906 23.8904
Pd 13.2865 16.1961 27.1801
Au 16.1552 15.9528 27.0268
Pd 14.5658 16.552 24.8854
Pd 13.8638 22.2494 4.67232
Au 15.053 19.7495 4.1806
Au 11.9957 18.0972 5.93138
Pd 12.119 20.7909 8.91066
Au 13.2878 18.3358 8.45191
Pd 13.6339 20.2913 6.52323
Au 11.8608 18.857 10.8984
Pd 10.9381 20.7707 12.6872
Au 13.2328 19.3095 13.392
Pd 13.42 21.2336 11.3908
Au 10.9019 18.8019 14.6307
Pd 10.23 20.5869 16.6312
Au 13.2199 19.3116 16.4793
Pd 12.1774 21.4283 15.1091
Au 11.8565 18.8656 19.0595
Pd 10.8981 21.0998 20.6322
Au 13.0803 19.6519 21.4784
Pd 12.1967 21.5828 18.2179
Au 14.517 19.034 23.9314
Pd 15.8074 20.9616 25.495
Au 16.0392 18.4485 26.2181
Pd 14.7944 21.4209 22.892
Pd 12.5112 24.5745 5.13851
Au 15.2722 24.4698 5.37209
Au 12.2986 22.6931 6.92102
Pd 11.0287 24.3853 8.55584
Au 13.4947 23.1602 9.40262
Pd 13.6309 24.9918 7.46327
Au 10.9757 22.6272 10.6428
Pd 9.74875 24.5341 12.3019
Au 12.0953 23.3329 13.0353
Pd 12.084 25.1098 10.9115
Au 9.83404 22.7218 14.4353
Pd 8.60009 24.6118 16.0555
Au 10.9989 23.5084 16.8047
Pd 10.837 25.2781 14.6504
Au 9.23942 22.4876 18.4819
Pd 8.3559 24.3019 20.3519
Au 11.1521 23.6983 19.9017
Pd 9.67475 25.3173 18.3351
Au 12.1382 21.8115 22.9794
Pd 11.468 23.665 24.5978
Au 14.2423 23.6339 24.2977
Pd 10.0197 23.3472 22.2819
Pd 13.847 4.37559 8.50779
Pd 14.143 4.07825 11.2072
Pd 16.4115 4.69588 9.73451
Pd 14.2929 3.79041 13.9984
Pd 16.5113 4.41836 12.502
Pd 14.4389 3.57207 16.8011
Pd 16.6535 4.17074 15.3012
Pd 14.6026 3.42643 19.6097
Pd 16.8123 3.97193 18.1105
Pd 14.7384 3.58805 22.3904
Pd 16.9389 3.86044 20.8877
Pd 14.9166 8.49761 6.30424
Au 15.8562 6.07632 7.48554
Au 14.2222 6.51297 9.85776
Pd 14.4346 8.77681 11.345
Au 16.63 6.93012 11.2384
Pd 16.0456 8.42682 8.90337
Au 14.3812 6.20455 12.7285
Pd 14.6379 8.48999 14.2282
Au 16.7906 6.63622 14.0321
Pd 16.8524 9.24145 12.7436
Au 14.5324 5.95217 15.5314
Pd 14.8136 8.26144 17.0495
Au 16.9555 6.40297 16.8369
Pd 17.0482 8.93219 15.5485
Au 14.705 5.7647 18.3284
Pd 15.0031 8.10717 19.8698
Au 17.1265 6.23247 19.6637
Pd 17.2357 8.71509 18.3644
Au 14.8848 5.72077 21.1098
Pd 15.1681 7.79978 22.7975
Au 17.208 6.01105 22.5603
Pd 17.3722 8.48362 21.2801
Pd 17.291 14.7462 3.5233
Au 16.6036 10.4504 5.39692
Au 15.1344 10.8847 7.71723
Pd 15.3646 13.3708 9.17147
Au 16.2627 10.7384 10.3926
Pd 16.8123 12.8579 6.82345
Au 14.6788 11.0583 12.8488
Pd 14.9212 13.342 14.4136
Au 17.081 11.5579 14.2447
Pd 16.4171 13.0442 11.8941
Au 14.896 10.7726 15.7534
Pd 15.1668 13.0833 17.3038
Au 17.3197 11.2201 17.0698
Pd 17.3252 13.855 15.7969
Au 15.1028 10.5613 18.5997
Pd 15.3851 12.8343 20.1718
Au 17.5082 10.9705 19.9835
Pd 17.6179 13.4085 18.7006
Au 15.3063 10.2883 21.5214
Pd 17.3983 13.9494 25.7735
Au 16.904 9.75684 23.7464
Pd 16.9966 12.303 22.4474
Pd 17.7196 19.4003 4.44748
Au 18.918 16.9027 4.06561
Au 17.4883 17.4432 6.30657
Pd 16.0333 17.9951 8.60057
Au 17.0693 15.3233 8.21003
Pd 18.8095 19.3124 7.85006
Au 15.6258 15.9001 10.4813
Pd 14.2205 16.5454 12.7399
Au 16.5265 15.3245 13.4673
Pd 16.9293 17.648 12.1023
Au 15.2235 15.6423 16.0084
Pd 15.6439 17.9608 17.5266
Au 17.8317 15.8121 17.5923
Pd 17.5994 17.0826 15.3072
Au 15.4593 15.3775 18.838
Pd 15.8675 17.0302 22.4161
Au 17.0632 14.8613 21.1384
Pd 17.1411 17.427 19.8442
Au 17.379 16.5589 24.6056
Pd 18.7467 18.4618 25.9089
Au 18.9895 15.93 26.6973
Pd 20.2415 16.5954 24.3078
Pd 16.525 21.9628 4.88362
Au 18.9148 21.2803 6.01036
Au 16.3656 20.0074 6.71137
Pd 14.9326 20.609 9.0581
Au 17.3294 19.6989 10.3345
Pd 17.5896 21.6878 8.48718
Au 14.6002 18.6046 10.9155
Pd 15.8332 20.049 12.8493
Au 16.2961 20.1856 15.8944
Pd 16.1461 21.9918 11.1179
Au 15.2803 18.0835 14.6596
Pd 14.4419 21.978 16.6152
Au 16.9367 20.2981 18.653
Pd 14.3894 22.056 13.8362
Au 14.3125 20.0768 18.9135
Pd 13.475 22.3127 20.6243
Au 18.3969 19.5609 21.1704
Pd 15.4995 22.6081 18.9448
Au 17.181 19.3708 23.6648
Pd 18.5018 21.0533 25.3305
Au 21.3752 18.8669 25.7302
Pd 16.983 22.5708 23.8194
Pd 16.2229 25.8086 7.54877
Au 17.636 23.6788 6.62528
Au 15.1333 22.5864 7.19045
Pd 14.4961 25.8549 9.7869
Au 16.3114 23.9392 9.31147
Pd 18.3013 26.6981 12.7438
Au 14.4224 23.9822 11.768
Pd 13.1065 25.8769 13.3123
Au 15.4614 24.6316 14.2021
Pd 15.4763 26.5117 12.1577
Au 13.1909 24.1195 15.4979
Pd 11.9347 26.0541 17.0177
Au 15.5902 24.6963 16.8802
Pd 14.1495 26.6777 15.6749
Au 13.399 24.241 18.4852
Pd 11.8953 26.1764 19.6971
Au 14.1897 26.2925 20.9211
Pd 14.2755 26.8061 18.3476
Au 12.5771 24.4775 22.1513
Pd 16.7183 25.0701 24.0559
Au 19.5205 23.8606 24.1219
Pd 16.6671 27.7212 19.5721
Pd 19.0042 4.20891 8.76177
Pd 18.8103 5.17689 11.1945
Pd 21.3342 4.70052 10.1428
Pd 18.8807 4.82921 13.881
Pd 21.1637 5.73944 12.6177
Pd 19.0322 4.58032 16.646
Pd 21.276 5.19911 15.2352
Pd 19.1765 4.40418 19.4492
Pd 21.4026 4.96059 18.0239
Pd 19.2543 4.38533 22.1954
Pd 21.4953 4.89993 20.8336
Pd 17.5982 8.09354 6.57635
Au 18.4304 5.56321 6.56843
Au 18.1962 6.69437 8.93132
Pd 18.3925 8.99456 10.3808
Au 20.571 7.21462 10.327
Pd 19.9355 8.65996 8.04008
Au 19.031 7.47037 12.6418
Pd 19.2366 9.81686 14.1531
Au 21.3862 8.08721 14.0858
Pd 20.7357 9.59412 11.8084
Au 19.2017 7.04885 15.3718
Pd 19.4643 9.32807 16.8709
Au 21.6367 7.38042 16.7061
Pd 21.5771 10.499 15.6083
Au 19.3634 6.82103 18.1719
Pd 19.5948 9.11135 19.7366
Au 21.729 7.22382 19.5645
Pd 21.887 9.61491 18.2426
Au 19.4517 6.70077 21.0338
Pd 19.0123 7.99424 23.4433
Au 21.058 6.25556 23.1583
Pd 21.2086 8.66815 21.9178
Pd 18.335 12.434 4.57841
Au 19.3254 10.0549 5.62276
Au 17.8014 10.4202 7.972
Pd 17.9453 12.7597 9.47995
Au 20.0938 11.0295 9.50271
Pd 19.483 12.4221 7.11488
Au 18.5644 11.3183 11.8637
Pd 18.741 13.655 13.3514
Au 20.9164 11.9419 13.2868
Pd 20.2823 13.3664 10.9829
Au 19.466 12.1695 15.6732
Pd 20.1524 13.9788 17.6217
Au 22.3879 12.1517 17.6825
Pd 21.9257 13.4229 15.3676
Au 19.7507 11.5266 18.4541
Pd 19.2221 12.9985 20.9186
Au 21.3404 11.1421 20.6224
Pd 21.6966 13.702 19.8204
Au 19.1077 10.4807 22.2126
Pd 18.6177 11.8052 24.5961
Au 20.724 10.0005 24.3424
Pd 20.7962 12.5572 23.0922
Pd 20.1807 18.9071 5.46164
Au 20.0638 14.4085 3.74384
Au 18.5474 14.8483 5.92642
Pd 18.4928 17.2642 9.55652
Au 19.664 14.7314 8.68372
Pd 20.0378 16.8828 7.119
Au 18.095 15.0489 11.0562
Pd 19.1457 16.5459 13.0962
Au 21.3373 14.7761 13.0817
Pd 20.6851 16.1789 10.8117
Au 19.6904 15.2223 15.3479
Pd 18.501 18.3682 17.615
Au 20.7054 16.6008 17.5366
Pd 20.1742 18.0409 15.2523
Au 19.3832 15.5102 19.7992
Pd 18.6944 17.0131 22.1329
Au 20.9211 15.1659 21.9749
Pd 22.293 16.3566 19.7748
Au 18.6671 14.3739 23.3966
Pd 21.7307 16.182 26.3922
Au 20.2891 13.8585 25.5961
Pd 21.6635 17.8191 22.0883
Pd 20.087 22.8053 7.86453
Au 21.3512 20.4119 7.36545
Au 20.0245 20.8794 9.80269
Pd 18.6888 21.4234 12.1683
Au 19.5988 18.789 11.589
Pd 21.333 22.3229 11.9175
Au 18.148 19.3718 13.933
Pd 16.9871 22.2818 14.0258
Au 21.7034 17.6126 12.9735
Pd 20.7624 20.2438 13.6955
Au 19.0913 20.5215 16.2373
Pd 17.3243 22.6158 16.687
Au 21.2698 19.2878 17.4801
Pd 22.7926 18.9922 15.1259
Au 20.1604 18.1219 19.8224
Pd 15.733 19.4159 21.2176
Au 21.1504 20.42 21.286
Pd 19.5204 20.7841 18.9901
Au 19.9148 19.2411 23.5753
Pd 20.9618 21.5127 24.8305
Au 22.681 20.0621 23.5192
Pd 19.2229 21.6875 22.6815
Pd 18.847 25.2055 8.39992
Au 21.4799 24.0712 9.80301
Au 18.905 23.3682 10.2734
Pd 18.0899 24.8405 14.8514
Au 19.7399 24.2764 12.7221
Pd 19.9328 26 10.7744
Au 17.253 26.3487 10.1621
Pd 16.4399 27.1099 14.4995
Au 17.1444 24.354 12.0823
Pd 18.8522 27.2864 15.5094
Au 18.2477 25.2124 17.5138
Pd 16.5937 27.2226 17.0636
Au 21.9081 21.5099 15.9483
Pd 20.5998 25.4206 16.2479
Au 18.0878 23.2284 19.2449
Pd 16.1932 25.1604 19.4961
Au 16.8521 21.8039 21.1639
Pd 19.1377 27.5227 18.1213
Au 15.3255 24.0182 21.8535
Pd 18.9111 26.2744 23.0953
Au 21.89 22.7741 22.6961
Pd 16.6029 26.4955 21.8881
Pd 20.7625 6.03635 7.87915
Pd 23.607 5.35308 11.5669
Pd 22.4583 8.00546 7.05626
Pd 23.4982 6.4033 14.0949
Pd 25.1481 8.43628 13.3177
Pd 23.6549 5.50826 16.625
Pd 27.0633 11.2505 17.6847
Pd 23.7352 5.41938 19.4079
Pd 25.6693 7.14296 15.7017
Pd 23.2996 6.81015 21.7622
Pd 25.5249 7.37756 20.2422
Pd 20.1434 7.4724 5.68324
Au 21.8389 9.4369 4.87428
Au 23.1097 6.59954 9.28105
Pd 22.2594 9.25745 9.47156
Au 25.3333 7.34553 10.8138
Pd 24.7444 8.69576 8.54759
Au 22.8626 7.83929 11.7967
Pd 23.07 10.2448 13.2831
Au 26.9427 9.39318 11.6474
Pd 24.4493 9.90953 11.0123
Au 23.6749 8.82757 15.565
Pd 26.2056 9.87766 15.463
Au 25.9655 5.91316 18.0269
Pd 25.6835 11.253 13.1341
Au 24.0352 7.73294 18.0537
Pd 24.5565 10.3312 17.7328
Au 26.6329 8.51917 17.8429
Pd 25.0267 13.0311 17.602
Au 23.5076 9.20957 20.4185
Pd 22.8043 8.2934 24.0049
Au 25.0516 8.82253 22.556
Pd 26.091 10.0266 20.0191
Pd 21.0836 12.0667 4.86739
Au 24.0394 10.0366 6.26983
Au 21.6214 10.6868 7.20048
Pd 21.8612 13.0561 8.63213
Au 24.0221 11.3453 8.62034
Pd 23.3705 12.6969 6.32422
Au 22.4498 11.6697 10.9421
Pd 23.5386 13.0224 13.0911
Au 26.4288 10.6515 9.45995
Pd 25.117 12.6425 10.8264
Au 24.1256 11.6597 15.3878
Pd 22.9152 14.8193 17.549
Au 26.6891 12.6411 15.3432
Pd 24.5326 14.4084 15.2756
Au 23.9861 11.8382 19.9441
Pd 23.2441 13.3272 22.0427
Au 25.5259 11.4691 22.2471
Pd 26.5524 12.7449 19.9092
Au 22.9078 10.7276 22.7681
Pd 22.3456 12.0254 25.2025
Au 24.4998 10.3287 24.7331
Pd 24.6526 12.9669 24.2995
Pd 21.4956 16.5457 4.7981
Au 22.6764 14.1535 4.16191
Au 21.2037 14.3968 6.34486
Pd 22.215 15.8397 8.51402
Au 24.4744 14.0923 8.48544
Pd 23.6575 15.512 6.2622
Au 22.9373 14.4121 10.7811
Pd 26.0607 14.0314 13.0414
Au 27.074 15.3976 15.2475
Pd 25.4407 15.4224 10.7021
Au 22.3391 16.2004 15.2533
Pd 25.5629 15.7391 17.5024
Au 27.5271 13.9471 17.5999
Pd 24.9228 17.152 15.1558
Au 24.4353 14.5574 19.824
Pd 23.7023 16.011 22.0259
Au 25.8975 14.1871 22.154
Pd 26.9433 15.4168 19.8661
Au 22.3797 14.7397 24.148
Pd 23.0652 17.421 24.3099
Au 23.5067 14.219 26.3509
Pd 24.9721 15.5921 24.3423
Pd 22.5805 21.6757 9.4388
Au 22.5776 17.9973 6.82511
Au 21.1156 18.379 9.18179
Pd 22.2317 19.7761 11.3423
Au 24.7227 16.8317 8.39741
Pd 23.6881 19.2766 8.97015
Au 23.2523 17.2084 10.6808
Pd 24.2625 18.6094 12.869
Au 26.48 16.7633 12.8824
Pd 25.7461 18.1407 10.6067
Au 27.3872 18.1315 15.0267
Pd 23.9142 20.1697 17.355
Au 26.114 18.4015 17.3993
Pd 23.929 15.8057 12.9731
Au 23.4544 17.4996 17.4722
Pd 22.1136 21.6185 18.8049
Au 26.2275 16.7908 22.1362
Pd 24.9956 17.2595 19.7642
Au 22.9081 19.0562 19.7561
Pd 23.6754 21.3742 21.0977
Au 24.4018 18.7259 22.0137
Pd 25.4575 19.9547 19.5824
Pd 22.2749 25.0275 12.1411
Au 23.8769 23.0623 11.3499
Au 23.2966 21.3299 13.5145
Pd 20.7324 26.3926 13.8168
Au 24.8162 20.625 11.0989
Pd 25.8046 21.9227 13.2746
Au 19.5787 22.5485 14.6728
Pd 21.8832 23.8184 14.5321
Au 26.7781 19.4753 12.7519
Pd 24.287 24.0345 13.7296
Au 26.4105 21.0581 17.2072
Pd 24.4728 22.4001 15.8215
Au 24.6596 22.4521 18.6709
Pd 25.3536 19.9117 15.024
Au 20.0822 23.012 17.3678
Pd 18.6984 26.0893 20.2621
Au 22.8483 23.8608 20.1702
Pd 22.6791 23.8478 17.3101
Au 20.3616 22.9305 20.4683
Pd 18.1135 24.1025 21.8396
Au 20.8313 25.1182 21.7979
Pd 20.7569 25.1635 18.921
