665
Atoms. Timestep: 20848
Pd 5.49688 10.4825 9.17703
Pd 11.8247 13.4743 19.8939
Pd 17.9411 6.99283 10.2353
Pd 14.6664 10.0254 21.4035
Pd 25.2719 14.4052 21.4274
Au 13.2901 16.5834 3.03092
Au 19.4052 15.2039 4.90057
Pd 8.97691 9.00908 19.6219
Au 14.8814 3.46256 9.42974
Pd 13.8169 11.7724 8.07356
Au 13.5081 3.6692 14.9587
Pd 6.06557 18.9351 19.3036
Au 12.5917 14.8401 22.0743
Pd 20.4293 16.3934 26.5953
Au 11.3867 18.347 3.68826
Pd 11.0005 16.0925 12.6483
Au 5.30004 15.8821 16.2576
Au 19.0291 8.16195 13.7979
Pd 16.5135 4.87913 11.5575
Au 15.0337 6.0765 18.9639
Pd 9.52311 19.9971 4.62147
Au 9.71974 8.14707 9.37281
Pd 19.7937 8.30863 8.75079
Au 17.7491 17.1111 26.8323
Pd 6.08647 19.9185 16.38
Au 23.2966 19.1749 22.794
Pd 11.2561 19.6029 15.9018
Au 4.95346 17.267 21.7565
Au 3.67621 19.0461 20.1804
Pd 18.9031 5.8912 12.3336
Au 11.4509 4.63271 16.5697
Pd 17.4868 6.29522 18.3248
Au 21.9663 26.1391 20.5701
Pd 7.30193 18.0403 14.9427
Au 22.2325 21.6276 19.7964
Pd 15.1163 26.0234 22.0399
Au 24.0006 16.4176 22.9876
Pd 21.3815 22.7262 24.7541
Au 10.9059 11.697 3.69077
Au 7.00282 12.2056 11.8662
Pd 15.7999 3.00031 16.1632
Au 13.4762 11.1326 4.17551
Pd 6.28799 14.6326 11.2369
Au 11.6444 9.12808 4.6908
Pd 9.72205 21.9437 16.2369
Au 5.98663 6.55954 12.6645
Pd 20.9485 25.2935 18.0318
Au 13.1076 24.7099 23.165
Pd 11.039 5.94301 7.95156
Au 11.5213 19.7768 8.94933
Au 21.8555 21.6839 7.47168
Pd 9.50362 12.6322 10.066
Au 16.3791 5.43701 8.54303
Pd 8.26617 5.09954 12.608
Au 7.26147 18.9934 21.8802
Pd 15.0121 24.0582 12.566
Au 4.61895 18.5851 12.0231
Pd 11.6105 19.7077 23.3104
Au 8.08968 20.7623 14.3964
Pd 20.1886 13.3288 13.1465
Pd 17.1744 13.7367 4.86876
Pd 21.7479 11.648 5.08777
Pd 13.7548 7.79955 12.3224
Pd 15.6763 22.1756 14.3535
Pd 13.3077 11.0752 19.2648
Pd 12.4044 13.1648 24.1307
Pd 16.6768 13.2714 25.3916
Pd 12.7413 10.9364 25.6667
Pd 8.61465 13.1183 14.3015
Pd 10.5887 11.1153 19.3672
Pd 7.31182 21.1974 18.3594
Pd 5.69693 14.8847 8.45814
Au 10.052 17.0971 16.3282
Au 17.7606 19.8602 3.98414
Pd 13.7129 5.27787 7.80354
Au 25.0078 17.6722 6.70003
Pd 12.7892 16.7204 17.3036
Au 7.66256 15.1545 25.2385
Pd 8.28936 8.29337 17.0604
Au 13.8547 3.43037 11.8643
Pd 15.8694 14.5366 14.0609
Au 7.20476 19.8707 25.0952
Pd 21.1067 4.37422 12.3396
Au 3.95448 15.7916 13.6666
Pd 18.4422 23.9307 9.78382
Au 14.4878 12.7939 12.4177
Pd 13.1321 18.2601 21.2519
Au 11.3142 14.8393 28.8304
Pd 12.3997 10.8819 12.4523
Au 11.5479 19.4268 6.33379
Pd 10.2955 18.1111 21.2791
Au 5.69943 12.294 22.0536
Pd 10.731 17.2859 27.7799
Pd 15.5617 21.4043 11.7183
Au 5.99845 21.1672 11.2153
Au 22.2215 18.7916 5.578
Pd 9.75813 18.4943 13.8707
Au 19.039 5.84152 7.86978
Pd 8.87387 23.7094 14.4884
Au 6.41336 21.4179 8.47938
Pd 5.97318 11.7939 14.3195
Au 6.32118 9.43928 20.3077
Pd 17.6615 7.02457 15.7737
Au 21.7001 24.4417 22.7349
Pd 21.3571 10.3701 9.89965
Au 7.12313 17.35 17.5128
Pd 16.5847 12.8777 19.003
Au 7.22957 10.2467 22.9235
Pd 6.66035 13.0164 16.6246
Au 26.2456 14.4587 18.904
Pd 13.8692 20.8232 22.3067
Au 10.3921 11.3329 24.2331
Pd 12.2203 17.2175 7.98295
Au 19.8245 5.5822 14.8253
Pd 11.5856 23.1635 17.7882
Pd 19.1975 21.4416 19.988
Au 8.28411 15.0328 9.37564
Au 20.1335 20.9077 5.53258
Pd 12.6149 13.9387 3.48377
Au 24.7144 13.523 16.9874
Pd 14.0455 9.43554 6.14612
Au 13.8121 13.8968 28.7621
Pd 25.1975 16.2173 9.22283
Au 12.7238 20.68 17.9953
Pd 8.97826 19.362 7.29854
Au 12.9748 23.7233 10.6805
Pd 4.51332 12.9875 10.1285
Au 11.4603 8.38502 25.5887
Pd 14.8681 19.6603 13.7593
Au 19.7566 22.7894 17.732
Pd 14.0837 11.3081 28.1279
Au 15.1665 23.2293 22.1593
Pd 9.98576 16.7813 25.2868
Au 10.2028 25.2637 16.5071
Pd 14.981 14.0578 23.3413
Au 7.22001 16.6736 20.4823
Pd 19.3451 16.4254 20.4175
Pd 13.136 9.52103 16.8087
Au 15.1788 26.9524 18.8173
Au 14.9819 26.6633 13.4986
Pd 10.2231 6.54812 13.4573
Au 10.9406 15.0107 10.0633
Pd 13.3358 21.3463 6.63321
Au 6.31378 17.5107 24.2257
Pd 16.5581 7.34734 12.977
Au 13.5492 11.7736 14.8174
Pd 9.80115 17.5398 9.10621
Au 7.57602 18.2009 5.11352
Pd 16.7624 24.7165 14.51
Au 8.03635 11.4507 20.5957
Pd 8.02746 10.2009 10.3138
Au 17.4768 11.1294 24.0077
Pd 24.7993 22.4569 18.8542
Au 16.0191 6.79405 25.1452
Pd 22.5667 21.8319 22.5135
Au 19.4584 18.7258 25.5715
Pd 16.4124 18.8097 6.13553
Au 6.36268 14.4859 14.1721
Pd 13.4918 14.3216 16.0742
Pd 18.2478 16.7337 10.5627
Au 16.7786 23.6195 7.5952
Au 8.70763 16.977 11.478
Pd 8.21781 10.7991 15.3836
Au 8.86071 14.3143 11.9925
Pd 8.75241 21.7665 11.8276
Au 11.0351 4.02143 13.8575
Pd 24.6333 14.5816 14.6316
Au 7.82472 17.5877 26.4934
Pd 14.4807 17.1367 9.79243
Au 13.2214 22.0529 12.9743
Pd 4.79408 11.187 16.9862
Au 23.7768 25.4142 18.7704
Pd 7.06953 9.69126 13.0083
Au 16.1533 13.691 16.5913
Pd 4.76306 16.5571 19.0355
Au 6.55436 4.8007 14.6143
Pd 4.33309 13.9859 17.9968
Au 11.8096 21.0713 25.6353
Pd 17.4478 23.1905 12.2765
Au 20.0846 27.4451 16.6215
Pd 10.9667 25.0392 21.7996
Pd 15.0513 11.2686 17.0437
Pd 18.6051 3.24128 12.5489
Pd 13.2146 14.747 8.28569
Pd 13.5934 15.9112 24.9292
Pd 19.4935 9.23871 16.1403
Pd 5.8226 12.2788 19.3505
Pd 23.7368 17.9321 17.6474
Pd 22.8495 15.4414 17.3989
Pd 5.09934 6.87964 15.3839
Pd 19.9023 8.67886 11.3823
Pd 20.4128 15.3713 8.97315
Pd 11.6695 11.1957 6.24136
Au 10.604 15.7416 3.64616
Au 16.5634 8.90573 5.29736
Pd 18.858 18.0271 15.4283
Au 21.1505 9.92371 13.7652
Pd 25.4379 15.0921 6.84167
Au 15.814 2.74685 13.4672
Pd 9.94858 19.38 11.3228
Au 5.65972 16.3921 6.04097
Pd 10.5957 7.33279 15.9884
Au 7.73823 7.27576 14.5792
Pd 7.36016 8.69015 8.21531
Au 15.4654 24.57 24.5355
Pd 20.3939 15.6367 11.6806
Au 7.87402 12.9172 23.6553
Pd 14.6999 7.89607 14.9599
Au 10.0704 10.4431 26.7494
Pd 17.2284 4.8482 14.2632
Au 14.0837 13.4102 26.1904
Pd 18.6508 20.3589 16.9701
Au 3.51523 10.994 14.4229
Pd 9.56207 5.95009 18.0641
Pd 14.8062 16.7323 7.11222
Au 17.4843 13.0627 2.16712
Au 12.1851 21.036 4.27289
Pd 9.16094 13.5616 19.2196
Au 16.6437 15.4315 2.81706
Pd 14.4824 5.95409 10.4531
Au 19.6873 9.95564 4.54336
Pd 9.4625 12.5762 16.8826
Au 6.98291 11.0748 6.79817
Pd 20.4585 10.7396 18.134
Au 10.4193 10.0282 16.7734
Pd 12.2686 4.32749 9.76516
Au 9.77402 19.3997 26.2747
Pd 11.176 8.48839 11.8763
Au 7.82271 11.0034 25.4598
Pd 12.2732 11.471 21.8904
Au 8.39629 12.6867 4.54389
Pd 9.16932 18.7645 23.7242
Au 13.1459 6.77276 17.1352
Pd 5.49645 20.565 13.8382
Au 15.1396 17.8025 26.3754
Pd 11.846 20.4787 20.5221
Pd 21.3144 12.2032 20.4534
Au 16.0568 15.5538 11.5928
Au 23.9491 20.0173 7.34721
Pd 10.0464 17.3537 5.81019
Au 8.34979 15.3633 5.23365
Pd 22.4312 19.9829 9.53775
Au 22.1144 17.8404 12.6191
Pd 20.2915 19.8061 14.1822
Au 18.183 8.62763 24.7998
Pd 16.8717 19.7808 18.9657
Au 9.25682 21.3723 9.0875
Pd 25.6411 9.35095 18.8379
Au 12.0977 25.4953 8.90072
Pd 18.0622 10.031 9.63664
Au 21.5908 7.62398 15.4542
Pd 9.50633 21.3597 24.334
Au 8.70145 23.6146 18.1079
Pd 11.6133 23.6039 15.0867
Au 22.1556 27.6557 18.3797
Pd 18.9896 21.6579 25.3453
Au 12.29 18.2974 25.8449
Pd 6.35592 17.108 10.0407
Pd 22.8576 6.00247 17.125
Au 12.5265 26.4887 15.3872
Au 13.7111 18.3104 5.27636
Pd 13.2288 14.8549 13.6161
Au 17.0715 12.3332 8.4072
Pd 24.18 13.7143 10.0184
Au 14.1148 17.2817 12.6114
Pd 16.4283 18.7439 8.80579
Au 12.2391 5.57685 12.0419
Pd 13.3825 13.2635 5.89938
Au 4.5039 8.67497 13.4444
Pd 21.8234 21.9725 13.4327
Au 14.3171 12.9213 20.9914
Pd 8.62939 18.9513 19.4655
Au 4.08929 13.4789 15.4369
Pd 6.79587 14.7744 18.6414
Au 14.6833 21.1274 19.8118
Pd 13.3508 15.1057 11.0512
Au 21.1229 14.6641 19.3456
Pd 18.51 20.1997 23.2197
Au 21.8927 24.5408 12.537
Pd 17.2949 12.8679 12.3618
Pd 20.9272 16.6109 6.69972
Au 21.1918 16.8902 3.84771
Au 7.73766 16.8339 7.52238
Pd 18.4333 4.18168 9.96398
Au 16.9783 18.2486 24.2393
Pd 12.7259 12.5904 10.3253
Au 5.9069 8.49406 10.8188
Pd 13.1167 25.9489 20.3789
Au 7.31996 23.3588 10.1961
Pd 21.32 23.9458 15.2816
Au 5.0379 19.6339 23.1264
Pd 9.4971 11.1789 12.4137
Au 9.21898 10.3169 5.29956
Pd 15.2222 26.8604 16.0729
Au 4.75658 12.4396 7.57231
Pd 17.7855 11.2251 16.9158
Au 7.09695 21.5043 23.01
Pd 13.2568 25.3847 17.7277
Au 11.4074 4.25742 19.2917
Pd 11.1066 14.6978 17.632
Au 16.9645 25.8051 11.8593
Pd 17.5312 22.0103 5.44957
Pd 17.1647 7.85681 7.81847
Pd 15.6916 10.0022 8.22133
Pd 14.9225 10.0238 13.0761
Pd 12.2769 19.2942 13.0722
Pd 18.9085 15.8958 24.6366
Pd 19.5112 13.1511 24.9023
Pd 12.5892 6.39914 19.8472
Pd 15.203 5.29593 22.9434
Pd 15.5896 14.0997 7.06238
Pd 17.4893 22.6747 16.1971
Pd 19.4582 11.7756 22.298
Pd 16.7249 17.5435 13.7764
Au 18.4159 14.5546 7.39492
Au 4.82461 19.3975 9.54135
Pd 9.9969 12.7485 21.8446
Au 21.4753 13.3612 10.4235
Pd 21.3671 17.2703 18.8722
Au 17.4289 6.92989 22.7919
Pd 26.4471 16.6445 14.3305
Au 16.3969 3.74175 18.6506
Pd 9.97146 15.3348 21.2328
Au 19.3967 13.223 17.8111
Pd 16.3641 14.7029 20.8937
Au 17.8778 9.49546 21.8354
Pd 10.9372 7.49392 22.9804
Au 14.1432 8.58484 26.1882
Pd 12.0078 8.92745 20.8822
Au 19.7524 12.3088 8.64796
Pd 19.7036 17.8424 22.9949
Au 8.50342 7.84212 11.8226
Pd 9.07579 23.4015 22.703
Au 4.25529 13.3134 12.7232
Pd 7.00589 12.5898 9.14105
Pd 20.6097 16.3899 14.2898
Au 13.7311 3.97617 17.8227
Au 10.9319 26.0127 11.204
Pd 20.6929 19.1969 7.73554
Au 25.2187 12.6343 7.7888
Pd 20.7379 19.8263 18.5521
Au 25.8418 21.4608 16.5806
Pd 15.8862 8.39819 17.3268
Au 15.3341 6.73436 6.16283
Pd 20.3235 9.51761 20.4808
Au 12.0397 9.23224 7.97246
Pd 11.3102 13.3326 12.4705
Au 20.4211 3.03609 14.6219
Pd 18.7386 19.298 9.95912
Au 5.47277 21.0058 20.859
Pd 17.8143 15.2558 18.4727
Au 21.736 14.9365 24.684
Pd 18.0766 10.2085 6.94159
Au 7.47338 10.7059 17.9682
Pd 21.6304 8.29305 18.3761
Au 19.1702 4.45362 19.2162
Pd 20.0214 15.7937 16.9066
Pd 17.4105 25.578 23.1096
Au 21.3324 18.3108 16.3581
Au 15.4679 24.5056 19.8108
Pd 15.6313 8.94139 23.7135
Au 22.8542 26.0919 16.3288
Pd 10.7313 13.6908 5.4308
Au 12.9827 23.2902 20.298
Pd 16.3351 12.7158 27.943
Au 5.62893 8.38165 17.9075
Pd 9.95356 8.14508 6.6608
Au 10.0547 6.54576 20.6238
Pd 17.1091 19.8629 26.3189
Au 6.99048 5.95601 17.0078
Pd 25.4982 20.7822 13.9687
Au 21.8171 17.1354 21.5816
Pd 23.0354 19.6708 14.7596
Au 13.2531 16.3075 27.664
Pd 15.1311 12.9951 3.46508
Au 12.225 9.52903 27.8958
Pd 10.3029 15.3537 7.47143
Au 8.61807 25.0159 20.4885
Pd 24.9063 13.11 12.421
Pd 14.8268 15.3402 4.75857
Au 24.7099 21.2871 9.74235
Au 6.09399 18.9782 7.21062
Pd 18.2361 4.27559 16.6714
Au 6.35037 13.7587 6.03349
Pd 16.1565 10.2922 19.2572
Au 10.9755 10.5008 10.1333
Pd 14.7573 5.45359 13.4316
Au 26.1565 19.9485 11.4757
Pd 8.52344 24.8429 11.9994
Au 4.70452 10.7857 11.8102
Pd 9.27965 16.3515 18.8053
Au 19.6672 27.2937 19.3857
Pd 16.6772 11.9519 21.5885
Au 13.7915 22.4668 24.5469
Pd 8.77187 25.5787 9.2749
Au 7.52933 14.0943 21.2278
Pd 10.191 21.851 6.43265
Au 25.7477 10.0481 8.33952
Pd 16.5977 17.2203 19.7687
Au 28.3176 11.8726 15.093
Pd 15.2461 13.654 9.82261
Pd 16.2327 24.7819 17.2308
Au 7.64866 19.3418 9.70746
Au 14.2273 24.2972 15.353
Pd 17.4356 15.9347 15.8714
Au 18.5251 18.921 20.799
Pd 14.2616 21.7043 9.34645
Au 25.2653 18.1851 21.2399
Pd 9.38643 20.7294 21.6194
Au 11.638 22.3271 22.5721
Pd 17.7256 13.9288 23.0681
Au 13.5725 9.79329 10.2369
Pd 6.3045 16.7572 12.8213
Au 10.1306 14.5338 23.8636
Pd 20.8236 20.1413 11.6186
Au 4.32927 17.1157 8.29568
Pd 15.9378 20.7152 23.9397
Au 12.1397 12.1879 17.1533
Pd 8.36435 15.0286 16.4946
Au 10.6611 21.2243 13.797
Pd 8.71742 15.9858 14.0831
Au 25.6735 7.89731 12.62
Pd 14.0027 19.2109 7.97758
Pd 19.8995 6.61417 17.3934
Pd 9.06365 5.05165 15.4372
Pd 7.25594 6.29097 10.179
Pd 8.33665 16.403 22.93
Pd 22.2216 10.0207 16.3262
Pd 15.8204 11.2283 10.6772
Pd 20.1468 14.8991 22.5458
Pd 17.43 22.8786 23.6071
Pd 22.1777 12.641 17.5352
Pd 24.1677 8.283 16.8826
Pd 15.668 11.6136 5.97603
Pd 12.5961 6.25137 14.6125
Au 15.0268 23.1249 5.50973
Au 8.71329 13.1847 7.19128
Pd 26.3723 12.0444 10.1129
Au 19.987 22.8698 11.6946
Pd 24.059 18.1848 10.6781
Au 15.8243 17.8717 3.62486
Pd 23.211 16.0862 5.51069
Au 7.38359 6.93348 19.4733
Pd 18.9761 24.9796 16.0935
Au 27.1987 14.2249 16.0726
Pd 23.6463 13.512 19.4623
Au 25.5492 19.7557 18.7558
Pd 21.3718 6.97802 12.8632
Au 4.07974 15.988 10.885
Pd 11.7164 12.479 27.5854
Au 12.3812 5.3444 22.2267
Pd 11.7726 16.362 19.7528
Au 25.803 11.9822 14.7839
Pd 19.2448 6.98732 20.4207
Au 4.87765 14.5271 20.6932
Pd 15.7561 15.2529 27.3677
Pd 16.4788 7.84687 20.3648
Au 16.4052 18.7091 11.4542
Au 24.0499 10.7523 6.19923
Pd 22.9747 10.4567 19.2846
Au 11.2026 8.18844 18.4698
Pd 19.4902 11.5134 11.3808
Au 19.1188 12.3112 5.90164
Pd 14.1965 4.25325 20.5922
Au 27.5977 11.9341 12.4278
Pd 9.45606 13.0732 26.0881
Au 26.6882 14.604 10.8155
Pd 16.2038 11.9153 14.5888
Au 21.5255 5.74364 19.4193
Pd 12.1595 17.1758 14.7287
Au 9.07802 8.87352 24.4572
Pd 16.913 21.2955 21.3666
Au 16.2765 22.4051 25.9655
Pd 5.94191 15.0164 23.1198
Au 9.93384 5.69485 10.5162
Pd 10.3346 22.9634 20.2748
Au 4.1355 18.436 17.3761
Pd 6.12491 9.34243 15.5237
Pd 13.8089 18.9215 16.1072
Au 14.3758 20.3584 26.1595
Au 26.0482 23.2808 14.5067
Pd 21.0993 13.9079 6.59094
Au 23.6186 6.23191 11.792
Pd 24.8388 18.317 13.2464
Au 13.681 19.308 2.77135
Pd 18.4048 14.0296 10.3249
Au 23.4738 23.7628 20.8316
Pd 17.9045 27.0224 14.7665
Au 23.7021 13.4125 5.6862
Pd 14.1197 18.6691 23.9508
Au 10.2953 25.9814 13.8596
Pd 16.8401 9.42415 15.0141
Au 22.4077 4.88617 14.6419
Pd 13.3993 6.82081 24.2883
Au 9.87432 9.93767 22.0332
Pd 22.723 15.9095 10.4583
Au 24.65 20.9314 21.0727
Pd 16.2857 15.8031 24.8276
Au 23.9292 7.37234 19.3513
Pd 20.9311 19.8528 21.4718
Pd 23.0755 8.96745 12.1926
Au 6.73457 22.9261 13.1308
Au 22.5485 23.2307 17.6344
Pd 23.9119 10.9749 10.0289
Au 22.5523 14.5392 12.8748
Pd 18.8486 13.7624 20.534
Au 10.8824 14.5012 15.0069
Pd 10.9093 11.6734 14.6696
Au 8.48165 6.2783 7.92444
Pd 24.2873 9.37302 21.1748
Au 22.4464 11.6996 12.2338
Pd 10.7399 23.5323 12.5352
Au 23.4905 20.3752 12.0906
Pd 23.0489 14.9243 7.96748
Au 14.5989 11.5237 23.6154
Pd 9.08766 15.3061 27.4496
Au 24.9794 24.1915 16.7183
Pd 17.4647 9.76252 12.2049
Au 7.63712 22.5685 20.5451
Pd 19.5906 25.7646 21.6854
Au 17.1952 21.5765 9.60797
Pd 16.978 22.4694 18.7849
Pd 19.2281 22.385 14.3083
Au 11.0909 23.617 24.6879
Au 17.4111 20.1419 14.615
Pd 17.3452 11.1474 4.01741
Au 4.64159 18.1503 14.7315
Pd 13.214 21.5359 15.5327
Au 7.51796 21.1061 6.04732
Pd 14.0895 13.6633 18.4677
Au 14.0731 23.9813 7.84755
Pd 21.6508 14.2718 15.3922
Au 26.2117 17.201 18.9732
Pd 8.12399 23.3019 7.64653
Au 22.398 22.524 10.5375
Pd 20.6602 23.7511 20.2528
Au 3.60014 8.95456 16.0946
Pd 11.825 22.5371 8.41556
Au 21.0504 26.4588 14.3937
Pd 12.3429 9.05246 14.3762
Au 4.55887 20.9161 18.3474
Pd 19.1705 18.0729 12.5764
Au 19.7559 12.4921 3.33791
Pd 23.6407 22.2931 15.2895
Pd 14.3897 7.75551 8.36688
Pd 16.4341 18.3164 16.6616
Pd 22.5508 12.1543 8.02101
Pd 21.7141 12.5676 23.4287
Pd 15.438 5.59005 16.2561
Pd 23.1308 12.1549 14.7917
Pd 7.35787 19.1738 12.3871
Pd 25.4466 16.1491 16.724
Pd 26.5294 9.64688 16.2339
Pd 9.4297 10.6337 7.94746
Pd 18.2794 15.4019 13.1714
Pd 19.352 7.90072 6.12216
Au 15.6006 20.8306 16.8112
Au 10.3378 24.5347 7.28029
Pd 11.2811 12.9011 8.11622
Au 14.2128 7.36561 21.7749
Pd 18.6048 17.342 7.96636
Au 20.7528 10.2387 7.1839
Pd 21.1617 21.2614 16.134
Au 23.9665 6.99148 14.416
Pd 12.6202 7.19554 6.27412
Au 9.70489 9.12502 14.1017
Pd 24.4619 10.9988 17.163
Au 24.8009 8.32383 10.1462
Pd 19.2908 22.8452 7.28637
Au 18.2536 11.2233 26.5523
Pd 23.1234 9.1903 8.06256
Au 18.4132 8.82838 18.536
Pd 27.1054 14.2816 13.4386
Au 16.6199 2.3404 10.982
Pd 12.7458 25.0324 13.1335
Au 26.6772 17.3396 11.3115
Pd 24.2897 9.64952 14.5806
Pd 14.8269 16.5603 22.5481
Au 19.4093 14.9505 2.31427
Au 23.8366 24.8065 14.2623
Pd 15.8411 21.1503 7.30055
Au 19.2029 25.0157 13.2759
Pd 12.399 15.8687 5.66464
Au 17.2414 26.6256 20.5197
Pd 18.5504 11.2943 19.7514
Au 14.2141 15.8778 20.0437
Pd 16.5676 15.7916 8.84911
Au 25.8653 18.8805 8.94045
Pd 14.0231 8.55774 19.1725
Au 16.7182 8.78354 26.9317
Pd 23.0803 19.0556 19.9659
Au 12.8444 9.34277 23.4777
Pd 10.1348 23.6487 10.0232
Au 22.1007 7.70965 21.1684
Pd 15.8115 8.41083 10.5583
Au 6.9405 22.5095 16.0048
Pd 15.3547 16.0246 17.6875
Au 26.9881 11.9591 17.5083
Pd 11.1425 18.5673 18.4838
Pd 22.9078 17.6012 8.22879
Au 20.512 5.83235 10.1347
Au 21.5758 6.97769 7.44883
Pd 25.4459 18.8344 15.9037
Au 22.5604 14.4792 21.7126
Pd 24.3153 22.8376 12.4751
Au 14.0503 26.1652 10.9528
Pd 22.174 7.75674 10.052
Au 27.281 9.69189 13.7441
Pd 25.5316 11.786 19.7373
Au 20.0162 21.5354 9.38443
Pd 24.7514 15.8501 12.2265
Au 8.12152 7.86309 21.975
Pd 18.5004 17.3084 3.25322
Au 11.712 17.0093 23.2874
Pd 12.2696 7.22602 9.83657
Au 20.1553 10.4807 24.5235
Pd 14.7249 16.6187 15.2069
Au 24.0623 13.8317 23.7786
Pd 20.4867 11.8869 15.6347
Au 11.9636 17.6106 10.744
Pd 19.893 22.3445 22.4811
Pd 25.1798 10.5762 12.2919
Au 12.4638 27.5588 12.8451
Au 21.1198 20.1891 24.1568
Pd 15.1235 20.6055 4.62079
Au 21.7638 14.2356 3.93292
Pd 18.6987 11.0965 14.01
Au 17.9883 2.2414 14.9312
Pd 18.7615 17.8794 18.1481
Au 16.9438 5.15592 20.8406
Pd 23.7996 11.9986 21.7272
Au 10.8377 25.4138 19.0912
Pd 20.8659 17.8008 10.0966
Au 18.4055 14.4853 26.9737
Pd 10.0003 21.0216 18.6404
Au 20.933 4.15572 17.044
Pd 21.9653 10.1573 22.3812
Au 17.5716 27.1407 17.5086
Pd 18.2464 20.6924 12.1839
Au 23.885 16.2259 19.884
Pd 11.554 14.8015 26.2141
Au 15.5629 10.8858 26.0109
Pd 14.3128 22.9461 17.7749
Pd 15.8141 18.9258 21.6699
Au 12.2826 23.5494 5.76687
Au 13.805 19.5829 10.8454
Pd 17.4985 16.5664 22.3038
Au 20.032 8.22629 22.869
Pd 15.7437 23.9733 10.0583
Au 18.4984 13.6093 15.2062
Pd 21.8401 17.5289 24.4505
Au 27.0885 9.56558 10.853
Pd 17.8707 23.7843 21.1462
Au 20.3777 19.3436 3.45383
Pd 17.1405 16.3532 5.69872
Au 14.3199 18.5054 18.8062
Pd 23.3475 20.5241 17.4348
Au 22.0645 8.81862 5.50686
Pd 18.3254 20.2706 7.41053
Au 18.4063 24.8988 18.8368
Pd 11.5856 21.4169 11.0043
Au 19.4747 24.4034 24.2099
Pd 19.2025 18.2933 5.59588
Au 23.3123 16.8588 14.988
Pd 8.74105 19.4429 16.7707
