665
Atoms. Timestep: 20488
Pd 28.9505 14.256 19.0982
Pd 13.0539 6.6556 20.0559
Pd 13.3329 11.892 8.21328
Pd 16.2828 21.596 22.5747
Pd 20.3291 23.7814 17.5042
Au 20.3003 18.127 9.8592
Au 18.4159 19.8142 22.7779
Pd 9.81599 13.8797 18.1412
Au 2.49691 17.1693 13.0019
Pd 8.45137 10.8833 14.6528
Au 4.40406 15.7662 18.2632
Pd 15.7177 7.38564 19.8638
Au 10.1702 6.74881 16.5553
Pd 19.4861 19.1499 14.3911
Au 2.51554 18.8545 15.1211
Pd 16.265 12.6149 24.9381
Au 5.98953 9.41408 10.8519
Au 24.1614 16.394 23.9903
Pd 18.8018 11.8063 26.0205
Au 15.6511 9.03378 12.8652
Pd 23.2681 8.09262 7.71429
Au 15.4241 20.7047 18.339
Pd 22.481 15.5694 21.9732
Au 13.0559 9.79801 13.6144
Pd 5.06955 14.115 11.9355
Au 5.34682 11.1511 18.8737
Pd 26.0347 21.9845 15.6414
Au 18.7729 12.9213 23.5699
Au 12.7325 10.3892 16.4433
Pd 16.7449 15.7591 13.2031
Au 7.92191 10.6763 24.2083
Pd 11.3285 15.3518 16.505
Au 1.88254 15.1882 11.1307
Pd 20.0071 6.34084 21.0669
Au 23.7248 23.9933 9.12768
Pd 17.1051 20.5352 6.86441
Au 24.2505 6.73994 16.7359
Pd 25.6116 11.7639 7.34337
Au 2.54591 19.8479 19.5148
Au 15.701 14.0622 8.2986
Pd 22.6135 18.0794 17.2486
Au 19.7272 26.4287 17.6521
Pd 5.00347 16.2476 13.6204
Au 14.8852 12.2902 17.4298
Pd 15.3009 23.9273 7.32063
Au 9.21659 8.62806 13.2697
Pd 9.78686 24.0574 15.5113
Au 20.6579 5.0445 16.2233
Pd 20.438 11.9633 12.3471
Au 17.8791 19.3691 18.8175
Au 17.5384 10.4611 23.9378
Pd 15.6118 21.1295 14.5362
Au 26.5698 12.5582 9.68284
Pd 12.2974 11.5698 24.5579
Au 21.7842 5.15467 11.6893
Pd 23.6456 23.3796 15.9375
Au 23.4986 15.2754 17.4279
Pd 26.6817 13.9411 20.7138
Au 26.6291 10.8833 16.8271
Pd 22.4376 13.6607 11.6379
Pd 9.9457 12.3019 23.4583
Pd 24.5923 12.5092 15.8742
Pd 12.7611 12.3916 12.4383
Pd 18.9059 4.77254 12.6193
Pd 14.3497 18.9948 15.3562
Pd 6.48122 19.9762 17.7785
Pd 19.0289 8.31936 22.7615
Pd 17.2783 24.6297 9.00812
Pd 19.0571 14.2132 18.246
Pd 10.506 11.4096 19.2577
Pd 17.6967 14.964 21.7125
Pd 17.4217 14.9824 24.6117
Au 10.8611 7.13523 9.08325
Au 6.48529 15.84 23.5829
Pd 27.1877 13.6264 12.0837
Au 24.7583 10.4188 14.1811
Pd 23.3318 10.4277 21.2691
Au 25.3733 13.2952 18.3057
Pd 9.07022 10.7366 21.4135
Au 4.0645 16.589 22.5223
Pd 16.5263 11.7775 27.375
Au 21.5538 10.2302 16.2238
Pd 25.4272 9.7038 9.38953
Au 6.08484 14.8054 5.45353
Pd 7.45631 7.24481 11.804
Au 7.71043 19.403 5.06732
Pd 7.27898 13.219 23.7859
Au 19.8612 24.8172 8.0261
Pd 23.8742 13.4687 8.45305
Au 14.758 9.00217 17.8578
Pd 15.3227 15.3788 10.8117
Au 16.7842 13.3703 19.4617
Pd 14.4101 19.8142 12.4625
Pd 10.4851 15.7027 4.37615
Au 22.6997 23.171 18.5307
Au 24.6952 14.051 22.6417
Pd 20.0695 9.18112 18.2914
Au 10.526 17.7518 23.1458
Pd 23.3397 14.6318 14.6585
Au 17.9801 15.7356 6.60504
Pd 5.95022 19.9615 7.67868
Au 11.0258 15.7524 21.4891
Pd 2.15093 18.141 10.5451
Au 4.13657 19.2054 21.5137
Pd 5.23711 13.6363 19.9309
Au 27.2209 15.3549 9.97977
Pd 5.19678 11.4257 12.4873
Au 15.3139 5.32871 23.8629
Pd 19.7845 10.8285 22.2784
Au 15.4883 11.7722 12.7605
Pd 10.577 9.2356 15.5728
Au 24.0491 15.8302 4.12498
Pd 14.864 7.4934 10.7409
Au 17.4845 9.47427 26.4193
Pd 19.2907 18.4211 7.06747
Pd 15.8915 10.7181 19.5548
Au 11.6093 4.78855 13.2204
Au 9.91887 13.0413 12.2367
Pd 14.6438 23.4722 17.9809
Au 19.1228 22.5148 22.5732
Pd 22.6147 23.2382 12.8883
Au 16.1932 16.0307 19.6397
Pd 9.836 19.938 13.941
Au 19.6951 4.72671 9.96617
Pd 11.8093 5.15957 18.0064
Au 2.55983 13.5344 16.209
Pd 12.1627 8.11362 17.8075
Au 24.0061 20.7556 22.5676
Pd 8.10995 21.9748 14.3287
Au 22.3048 25.5519 16.9492
Pd 20.6546 16.1437 6.06032
Au 16.2593 7.50552 8.39046
Pd 19.3767 13.1847 20.7403
Au 14.5427 17.4778 4.27358
Pd 3.01226 9.9629 19.0935
Au 19.2 16.57 26.1359
Pd 5.53433 8.8018 15.942
Pd 4.66532 11.5798 9.81621
Au 26.2506 16.2304 22.2754
Au 9.52975 22.0089 23.2821
Pd 8.69623 15.8785 16.5875
Au 13.5542 26.0237 15.1717
Pd 16.4624 6.30184 13.065
Au 8.99513 18.7209 19.5515
Pd 27.7688 13.3107 16.8945
Au 10.9349 17.6835 10.5006
Pd 21.7836 20.6019 18.7196
Au 12.6863 15.4678 11.5392
Pd 13.7508 3.67619 16.8329
Au 16.7922 22.4732 16.6316
Pd 6.16044 18.4678 23.0651
Au 9.34956 8.81731 10.5177
Pd 7.2139 18.0724 14.4938
Au 24.8489 14.4948 10.7991
Pd 17.926 23.125 6.80458
Au 14.2868 9.33496 8.40808
Pd 24.1988 21.4454 19.9389
Au 21.7089 22.8671 7.69118
Pd 27.0769 17.0504 15.0065
Pd 15.8669 4.33802 18.3524
Au 12.8095 22.6271 22.2076
Au 5.65107 23.065 14.1477
Pd 10.0245 19.7657 24.9207
Au 2.46809 19.8818 12.5348
Pd 20.4668 9.64626 13.8701
Au 27.4988 11.8907 19.2961
Pd 6.55759 9.23945 13.5328
Au 16.684 3.60508 13.491
Pd 9.56537 9.15699 18.0944
Au 25.3203 22.8133 18.0033
Pd 16.1229 10.7772 9.9631
Au 4.80017 7.59088 12.4089
Pd 25.8212 9.06445 21.1232
Au 8.26321 22.228 9.3259
Pd 25.5177 17.1551 11.2145
Au 7.42899 14.4474 21.3306
Pd 8.12359 10.769 11.9529
Au 19.2333 22.5048 9.03569
Pd 10.9114 10.4667 11.9706
Au 19.8114 20.5921 20.6501
Pd 14.9728 22.5859 20.4531
Pd 12.7132 16.703 14.7469
Pd 16.0613 19.4465 20.9112
Pd 22.2789 19.2635 14.9971
Pd 16.7045 13.5555 5.76251
Pd 3.7558 20.3208 17.1845
Pd 24.2416 6.10397 12.3909
Pd 14.7601 24.0249 10.1043
Pd 10.7382 23.9647 21.1477
Pd 22.8906 12.0185 17.8416
Pd 19.2081 21.4693 17.974
Pd 27.2515 9.29343 18.9325
Pd 20.0438 15.1531 23.0522
Au 21.286 25.6678 12.4814
Au 8.38596 21.0552 6.98765
Pd 21.6462 16.9053 3.75623
Au 20.7424 16.0217 11.5019
Pd 24.6343 15.4663 20.0483
Au 28.5859 15.676 21.2874
Pd 19.1656 16.5693 13.5264
Au 18.2759 17.2425 23.6737
Pd 20.386 18.3242 19.394
Au 7.12808 24.2454 15.9641
Pd 12.5065 20.046 8.44112
Au 13.5413 21.5353 16.3694
Pd 19.5445 13.6904 5.68754
Au 17.9475 27.3143 15.7091
Pd 21.6481 6.78982 9.48847
Au 11.2114 10.9926 6.61892
Pd 2.89204 12.6872 18.7549
Au 12.4717 22.2059 19.1923
Pd 20.5908 26.5519 15.0653
Au 7.37948 7.93766 9.13307
Pd 12.1435 12.9097 17.1031
Pd 11.6685 12.6435 10.1437
Au 7.06089 23.6937 18.7542
Au 22.2655 6.68553 19.2805
Pd 15.715 25.3368 19.6966
Au 10.9908 25.2653 13.0838
Pd 8.85255 25.5298 17.4737
Au 21.9751 17.886 7.73123
Pd 16.3887 9.11577 5.90574
Au 21.4347 16.7169 14.9309
Pd 12.3757 23.5935 14.5514
Au 15.1176 16.3977 24.5702
Pd 21.1136 3.94397 13.8764
Au 4.79793 9.45852 21.0377
Pd 4.69778 18.8626 13.4753
Au 21.9936 9.63318 5.91229
Pd 8.19752 17.06 21.7797
Au 24.2813 7.08262 9.96097
Pd 18.3111 13.3269 8.0776
Au 24.8947 8.76316 11.9662
Pd 16.5854 20.5102 11.1427
Au 12.2074 8.12662 11.299
Pd 12.6857 5.58279 10.7755
Pd 22.6167 12.3625 6.06261
Au 4.98757 13.7484 14.5999
Au 8.73518 25.3627 20.0647
Pd 19.1209 22.0528 15.3734
Au 16.0905 25.2875 16.7395
Pd 24.1432 17.7109 21.5482
Au 26.921 12.2802 14.4472
Pd 13.7379 10.282 10.9886
Au 19.7522 6.47219 18.3406
Pd 6.92783 12.6 10.5575
Au 9.38049 11.4581 9.59065
Pd 13.4793 18.0905 22.5009
Au 20.5504 6.67861 14.0093
Pd 15.0139 16.1846 2.15834
Au 24.8238 13.7569 5.60908
Pd 16.1644 21.1223 25.2916
Au 7.53579 20.4061 24.3393
Pd 19.8166 21.0729 6.72921
Au 20.927 8.77206 20.8511
Pd 4.66176 19.2038 10.7694
Au 15.4828 20.0123 4.67205
Pd 11.4786 18.4534 20.4684
Pd 13.824 8.0387 15.4816
Au 18.8685 3.17846 15.001
Au 16.6606 7.8868 24.3327
Pd 14.2029 14.6156 18.6071
Au 26.3635 14.3532 7.67137
Pd 10.2935 15.8211 12.6484
Au 13.9796 13.1231 5.95491
Pd 12.6904 14.1883 27.4071
Au 6.60248 11.7346 21.407
Pd 12.5489 20.9104 13.8875
Au 23.4274 7.77748 21.4226
Pd 3.64319 18.4227 8.255
Au 26.1209 21.1556 13.0094
Pd 12.3809 13.6244 22.6466
Au 5.2333 11.1413 23.4506
Pd 12.6135 5.62952 24.3656
Au 4.61869 21.498 12.2373
Pd 12.3677 15.2769 6.38475
Au 24.2017 17.1601 14.9456
Pd 6.47763 6.62236 14.2972
Au 15.9259 11.4329 7.34097
Pd 3.7268 14.0255 9.45636
Pd 15.1795 10.0746 25.2747
Au 12.9683 19.5173 18.1612
Au 14.2668 7.67833 6.10513
Pd 11.2967 12.0245 27.0364
Au 17.4385 21.7665 20.0323
Pd 19.0469 7.22541 8.85969
Au 13.5528 18.2006 10.4124
Pd 16.0686 26.0805 14.1627
Au 26.4337 10.9681 11.9587
Pd 15.3931 10.4078 15.4539
Au 21.9294 14.2464 4.40834
Pd 14.5943 11.4839 23.044
Au 10.5464 16.6808 25.774
Pd 17.256 23.5814 13.8672
Au 22.596 14.1402 24.4015
Pd 18.0222 6.98839 6.42672
Au 28.963 17.0601 19.2019
Pd 14.5557 21.3153 7.20162
Au 9.37032 9.24505 7.80965
Pd 26.2529 20.2201 18.2522
Au 17.0667 23.481 24.1221
Pd 18.1504 5.71074 15.1075
Pd 23.1132 18.261 10.2666
Pd 13.7293 12.2907 14.8629
Pd 22.4523 16.7805 19.5913
Pd 9.55439 13.8006 14.9736
Pd 11.9814 19.7349 3.13412
Pd 18.552 24.7308 15.8213
Pd 7.7817 15.61 13.9238
Pd 26.8033 15.5252 18.4255
Pd 18.0042 12.9716 3.53037
Pd 11.1244 25.6902 18.9013
Pd 11.549 20.1323 22.7159
Pd 7.26689 15.8136 7.47064
Au 23.1213 15.4886 6.721
Au 2.88082 12.6396 11.5765
Pd 19.7452 23.3755 12.7457
Au 13.2107 23.029 5.67344
Pd 20.1592 14.1595 25.5417
Au 21.6123 11.7858 9.76051
Pd 16.6706 18.6114 13.7899
Au 28.119 14.6379 14.4614
Pd 22.6209 20.4078 6.6949
Au 17.973 10.8432 12.3844
Pd 26.7904 18.6497 12.935
Au 24.5413 18.8903 7.97175
Pd 11.133 14.0293 25.1486
Au 3.9064 6.88359 14.8259
Pd 21.3811 13.8573 16.3964
Au 8.34629 5.43042 20.6575
Pd 18.518 10.8226 19.8204
Au 19.6194 15.0934 3.41511
Pd 10.2647 6.88251 19.3622
Au 18.0975 15.8262 10.8616
Pd 14.9161 16.7226 8.53557
Pd 8.07891 8.17136 15.7634
Au 11.7877 7.2334 22.288
Au 21.1041 23.9644 14.9561
Pd 12.6645 22.754 11.8949
Au 3.57387 21.3074 14.687
Pd 22.2795 19.4871 21.059
Au 6.0173 13.1479 7.7842
Pd 24.2327 9.58778 16.681
Au 13.4939 3.93172 19.5366
Pd 13.9848 3.80527 14.1453
Au 23.6402 11.7515 23.5821
Pd 22.8227 18.6956 23.7243
Au 23.4499 18.0507 5.4978
Pd 17.7644 24.093 18.4903
Au 13.1586 4.71042 22.0965
Pd 12.1655 17.3443 8.14724
Au 4.51732 15.6723 7.47901
Pd 11.4688 7.43852 13.8836
Au 2.96411 14.6278 20.7596
Pd 9.92455 16.2175 7.21969
Au 21.3722 18.5409 12.4974
Pd 18.3648 4.28282 17.3994
Pd 17.3518 24.0574 21.3831
Au 12.7128 9.60999 26.3453
Au 13.0795 14.9305 3.81591
Pd 11.1855 26.167 16.1879
Au 8.11608 23.1678 21.3515
Pd 21.6451 12.984 22.1537
Au 6.92418 20.0633 12.593
Pd 8.10203 14.8829 11.4345
Au 8.69347 19.2498 16.3758
Pd 11.862 18.3072 12.9545
Au 12.497 18.7186 25.0416
Pd 18.7704 21.3098 24.897
Au 6.08545 20.5072 15.2076
Pd 25.7438 11.6183 21.6886
Au 21.524 23.1003 10.4533
Pd 3.63761 10.913 16.6558
Au 11.3302 7.73976 25.0505
Pd 20.0875 19.1149 16.9011
Au 17.2108 27.0744 18.3155
Pd 16.5595 14.9031 17.1415
Au 9.32598 15.0918 23.4251
Pd 22.8754 9.29707 10.0946
Pd 9.26217 4.64637 18.289
Au 27.1906 9.5577 14.4025
Au 10.5557 17.6931 17.6211
Pd 19.7274 6.95803 11.4197
Au 15.2397 22.6215 12.3727
Pd 22.4467 15.6132 9.5329
Au 15.3433 14.3191 26.9969
Pd 4.65695 18.3856 18.9168
Au 12.079 11.2826 21.6236
Pd 17.8454 5.35047 19.8456
Au 17.5349 12.1424 17.0839
Pd 11.9493 16.0401 19.0806
Au 11.9441 14.2743 14.0779
Pd 12.6549 20.3912 5.56207
Au 15.5538 16.6137 15.3444
Pd 20.954 19.0599 5.17696
Au 21.3948 25.3107 19.4912
Pd 9.20169 16.0354 19.5185
Au 25.5741 16.509 6.19218
Pd 18.3635 19.9539 9.1489
Au 23.7946 21.2823 14.2248
Pd 12.621 5.71951 15.5547
Pd 25.6675 18.6715 23.3848
Au 10.7612 21.6818 15.8609
Au 18.5921 18.6114 11.8395
Pd 16.8219 18.2484 3.08368
Au 27.9669 18.207 21.7761
Pd 24.2027 11.7403 10.5467
Au 17.2831 6.4462 22.1853
Pd 10.0734 14.526 27.4446
Au 18.7855 14.7411 15.5693
Pd 8.2407 24.521 13.4431
Au 8.89148 12.6076 25.955
Pd 13.5234 20.3138 20.8073
Au 14.1624 17.782 19.8205
Pd 22.3381 12.1064 14.4528
Au 20.7027 16.236 17.4493
Pd 14.5274 14.3671 13.2375
Au 6.09682 15.6683 16.0786
Pd 15.5829 19.4147 8.86705
Au 23.2403 25.5646 14.3298
Pd 16.411 13.2627 14.907
Au 7.32169 13.0067 13.3814
Pd 22.7206 20.7502 11.4589
Pd 3.07717 11.9244 14.1556
Pd 6.61128 18.9824 20.501
Pd 7.44821 9.47669 19.7821
Pd 11.6567 9.92527 9.25182
Pd 17.2621 6.10642 10.6174
Pd 19.4677 9.09164 5.69564
Pd 13.9875 11.9426 26.7231
Pd 18.3318 19.9668 4.67817
Pd 14.8742 23.656 15.0207
Pd 21.6786 14.0852 19.2145
Pd 17.9866 21.0383 13.2777
Pd 13.462 6.77647 8.48879
Au 17.0877 13.2369 10.6491
Au 2.69067 17.1858 20.2434
Pd 15.3508 13.7486 3.40259
Au 16.1772 17.8808 11.0767
Pd 28.7673 15.8313 16.76
Au 10.3519 22.6226 13.1493
Pd 6.32852 7.17522 20.5897
Au 23.33 10.7386 7.95582
Pd 6.89753 9.04722 22.5008
Au 5.38006 22.4541 16.9823
Pd 8.77014 19.6515 22.1605
Au 21.8944 9.40671 23.3405
Pd 8.77704 8.03201 24.2639
Au 2.31435 16.2149 8.7783
Pd 16.4485 22.0987 8.94174
Au 13.8783 25.0826 12.6145
Pd 4.15509 16.4771 10.8623
Au 4.97118 18.1072 16.1805
Pd 20.8461 14.356 13.6834
Au 25.7556 19.386 15.3731
Pd 18.9874 17.431 4.44567
Pd 7.06876 17.3965 18.097
Au 10.4297 20.4905 18.1747
Au 10.0749 10.1088 25.7365
Pd 18.2544 8.12128 20.042
Au 25.3812 7.52188 14.373
Pd 12.3987 17.1838 2.59015
Au 26.0443 19.9239 21.0634
Pd 21.0992 11.7967 24.5258
Au 13.6437 20.9438 26.2232
Pd 16.3337 3.13176 16.0304
Au 22.9581 5.721 14.651
Pd 16.4926 9.22101 21.8455
Au 20.2196 18.8968 24.8853
Pd 2.69167 14.5255 13.5283
Au 9.84137 23.2722 18.6191
Pd 15.0004 18.693 26.0956
Au 13.7288 15.4791 21.1933
Pd 7.43196 19.4791 10.0213
Au 20.2951 9.49247 11.1438
Pd 24.1425 18.9169 12.9165
Au 3.14717 8.30598 16.8901
Pd 14.4151 12.9115 10.481
Pd 17.414 19.914 16.1537
Au 1.89015 15.2166 18.2667
Au 13.9535 9.32992 20.8808
Pd 10.4282 4.26274 15.7373
Au 9.13367 5.96149 14.0175
Pd 6.14205 15.0572 9.72294
Au 21.9977 22.2958 21.1599
Pd 9.96652 17.2947 14.7917
Au 10.0507 20.9146 4.67748
Pd 11.0932 11.6334 14.4525
Au 8.73752 14.1595 5.81149
Pd 19.2264 8.04706 15.9841
Au 23.8173 25.1642 11.5637
Pd 13.7335 10.3435 5.8896
Au 14.9589 24.4082 22.3897
Pd 7.8457 5.36725 16.2294
Au 5.72313 21.5109 9.81856
Pd 14.0165 20.5393 23.5764
Au 16.9566 12.0375 21.7988
Pd 21.0376 21.2029 13.6511
Au 15.6648 5.61085 6.67597
Pd 26.5133 8.19313 16.6787
Pd 15.4103 14.1605 22.8082
Au 12.023 24.8097 10.4987
Au 21.7722 25.6591 9.75
Pd 7.76522 7.09914 18.314
Au 13.6578 26.1087 17.8753
Pd 18.3212 16.7821 18.3825
Au 4.87148 13.8707 22.6202
Pd 14.0118 14.6026 15.9831
Au 17.9765 10.2939 15.0281
Pd 8.26324 17.692 24.5486
Au 23.813 21.3187 8.95778
Pd 25.6221 15.4002 13.3468
Au 22.8905 8.47914 14.5136
Pd 14.1971 7.50942 25.2588
Au 10.3868 21.3477 20.7303
Pd 9.07829 7.9202 21.4779
Au 15.3346 27.7222 16.3666
Pd 7.89971 21.2297 19.6329
Au 14.396 22.9938 24.5333
Pd 10.9882 22.2849 9.77439
Au 17.0139 15.6948 3.9676
Pd 19.762 9.52134 24.9961
Pd 8.08207 18.35 7.50803
Au 8.06551 16.7381 5.07402
Au 18.6601 25.9065 13.3033
Pd 8.96043 18.1379 12.2337
Au 3.66495 11.8364 21.2119
Pd 24.1022 18.9434 19.2084
Au 17.2913 3.55481 10.7124
Pd 8.49667 16.8834 9.71111
Au 20.5334 11.5556 4.44485
Pd 21.7447 7.51521 16.7349
Au 27.758 18.2956 17.2644
Pd 25.318 19.8501 10.6806
Au 4.99713 21.1839 19.6399
Pd 16.7577 17.9905 5.97751
Au 10.9661 4.70044 20.6514
Pd 18.1256 17.3321 15.8621
Au 10.607 9.59431 23.1704
Pd 15.2434 4.99183 9.22327
Au 25.1701 23.7022 13.6569
Pd 27.8762 16.3005 12.3834
Au 5.48584 6.36714 16.9313
Pd 22.7134 10.5231 12.4087
Pd 11.2476 13.1763 5.00803
Pd 7.13593 22.6924 11.8218
Pd 14.5684 7.23596 22.4084
Pd 7.92189 12.2023 19.1001
Pd 5.26884 8.48665 18.5241
Pd 18.8294 25.8628 20.1056
Pd 17.7193 4.96201 8.22247
Pd 11.3127 9.08742 20.3059
Pd 15.9065 18.039 17.6232
Pd 19.6692 12.2246 15.0106
Pd 20.071 11.8484 17.7056
Pd 15.7331 11.352 4.44727
Au 19.8436 20.9485 11.2742
Au 17.0889 6.7014 17.5996
Pd 14.4026 17.1615 12.8844
Au 8.15122 15.1942 25.7521
Pd 9.7653 13.3684 21.0092
Au 18.0933 11.2837 5.61617
Pd 21.084 20.7226 23.1636
Au 18.012 9.58108 7.9454
Pd 15.8671 16.8763 22.0918
Au 8.59685 11.7787 6.92647
Pd 20.7899 9.24422 8.45396
Au 9.86848 18.3087 3.82092
Pd 25.2716 17.4317 17.3291
Au 23.2087 16.2966 12.4212
Pd 13.8245 13.8671 24.9072
Au 11.8089 21.9196 24.6904
Pd 5.03264 13.2618 17.2236
Au 15.9004 22.5356 5.14291
Pd 10.5345 15.0998 9.90753
Au 6.39501 21.1337 22.0518
Pd 14.2624 6.31573 17.7406
Pd 23.7378 12.9313 20.4184
Au 17.4233 9.44617 17.6281
Au 15.4365 5.52118 15.5059
Pd 17.9489 14.128 27.0262
Au 18.8752 11.2919 9.78154
Pd 12.0775 13.5049 19.8039
Au 14.1998 18.5648 6.75563
Pd 26.3791 17.6487 19.8047
Au 7.29274 6.36674 22.893
Pd 14.0992 21.356 10.1003
Au 12.9423 23.2279 8.34789
Pd 10.9639 21.8412 7.09126
Au 23.9458 20.646 17.0158
Pd 25.8206 14.9126 15.9855
Au 9.86783 5.71193 23.0702
Pd 11.8436 20.2438 11.2288
Au 20.0168 15.797 20.3972
Pd 16.5004 7.98171 15.3281
Au 3.80293 9.4383 14.0621
Pd 16.0523 18.9275 23.6707
Au 9.22863 20.9353 11.4847
Pd 12.1234 23.9068 17.1558
Pd 10.124 6.42136 11.5954
Au 13.3283 16.516 26.5248
Au 3.15382 16.098 15.6972
Pd 14.4294 12.7252 20.6833
Au 8.47582 13.8846 8.75497
Pd 18.1822 17.7231 20.976
Au 14.3931 19.1331 2.2615
Pd 7.51206 13.0682 16.356
Au 13.8367 6.55169 13.1412
Pd 15.4619 4.97005 20.9795
Au 20.2534 11.4411 7.19675
Pd 9.47001 24.0044 11.0934
Au 22.6921 9.31197 18.8152
Pd 22.2225 7.7527 12.089
Au 18.3346 13.6238 12.9683
Pd 24.6443 12.8589 13.0173
Au 24.9358 7.86157 18.9892
Pd 21.5622 21.5911 16.293
Au 9.90795 19.8102 9.07832
Pd 13.2596 12.0743 3.7207
Au 21.2656 11.4009 19.9803
Pd 20.8316 7.14311 6.87584
Pd 7.30524 10.3644 17.1845
Au 16.5415 25.2809 11.6524
Au 24.7251 22.568 11.2152
Pd 11.7354 19.1229 15.7476
Au 14.9212 4.4809 11.7256
Pd 9.78748 11.5711 16.7963
Au 5.89205 17.5726 9.00205
Pd 13.2244 9.2501 23.5413
Au 5.70686 17.7102 6.17085
Pd 6.99455 10.5964 8.69744
Au 10.8795 13.4332 7.65048
Pd 19.771 15.8592 8.62257
Au 12.0967 17.6537 5.20282
Pd 19.7951 23.2845 20.0775
Au 13.8345 21.6377 3.48102
Pd 18.312 8.17315 13.2827
Au 20.6582 17.8038 22.3017
Pd 2.41375 17.8522 17.618
Au 10.4009 19.0654 6.54816
Pd 13.0902 10.9711 18.9968
Au 13.0855 14.7356 8.91156
Pd 11.9471 8.4822 7.02558
Pd 13.4864 17.0311 17.2195
Au 7.13028 14.7245 18.5093
Au 24.8834 16.3758 8.75124
Pd 17.579 8.71345 10.6779
Au 21.2729 20.429 8.98131
Pd 21.521 16.5579 24.7019
Au 17.4842 17.3927 8.72101
Pd 8.17884 21.9322 16.9575
Au 19.2854 25.1178 10.6781
Pd 21.2254 13.8174 7.87074
Au 16.6164 16.617 26.7846
Pd 5.76821 11.3158 15.1355
Au 12.4963 16.0365 23.9103
Pd 19.869 13.7683 10.3971
Au 17.7203 18.9395 25.828
Pd 5.73534 16.4077 20.5583
Au 15.0589 15.6451 6.04667
Pd 17.6603 22.9318 11.1796
Au 24.5731 9.33629 23.3632
Pd 25.0088 10.735 19.1265
Au 13.1905 24.6643 20.217
Pd 6.55793 17.2642 11.7217
