665
Atoms. Timestep: 20186
Pd 5.55331 5.70666 7.45271
Pd 5.51373 5.64102 11.2873
Pd 5.49869 5.62922 15.2345
Pd 5.52011 5.64365 19.1816
Pd 5.56582 5.712 23.0159
Au 5.55986 7.54827 5.58153
Au 5.37577 7.49553 9.36836
Pd 5.40738 9.42388 7.43144
Au 5.35072 7.43521 13.2638
Pd 5.33629 9.38462 11.3183
Au 5.35389 7.43652 17.2042
Pd 5.31966 9.34707 15.2334
Au 5.38517 7.4996 21.0994
Pd 5.34258 9.38743 19.1482
Au 5.57512 7.55505 24.8856
Pd 5.41983 9.42943 23.0347
Au 5.52598 11.3242 5.54365
Au 5.30859 11.351 9.33886
Pd 5.38992 13.2785 7.37839
Au 5.25192 11.3208 13.2725
Pd 5.28198 13.2854 11.2918
Au 5.25512 11.3224 17.193
Pd 5.24959 13.2759 15.232
Au 5.31803 11.3553 21.1262
Pd 5.28844 13.2889 19.1721
Au 5.54152 11.3307 24.9214
Pd 5.40252 13.2837 23.0856
Au 5.51957 15.228 5.53304
Au 5.29601 15.2287 9.30272
Pd 5.39218 17.1783 7.37804
Au 5.22076 15.2309 13.2605
Pd 5.28503 17.1744 11.2902
Au 5.224 15.2328 17.2015
Pd 5.25262 17.1883 15.2293
Au 5.30585 15.2333 21.1607
Pd 5.29134 17.1767 19.1714
Au 5.53505 15.2342 24.9298
Pd 5.40549 17.1838 23.0845
Au 5.53047 19.1329 5.54497
Au 5.31437 19.108 9.33627
Pd 5.4263 21.0277 7.43027
Au 5.2582 19.143 13.2669
Pd 5.34607 21.0803 11.3088
Au 5.26091 19.1414 17.1907
Pd 5.32818 21.1147 15.2299
Au 5.3239 19.1113 21.1241
Pd 5.35133 21.0776 19.1447
Au 5.54752 19.1378 24.919
Pd 5.42872 21.0383 23.0314
Au 7.44666 24.7813 5.57019
Au 5.39096 22.9675 9.35049
Pd 5.6042 22.909 5.58022
Au 5.36138 23.0243 13.2595
Pd 5.52358 24.8129 11.2793
Au 5.36543 23.0269 17.1991
Pd 5.51276 24.8324 15.2281
Au 5.39686 22.9666 21.0945
Pd 5.53448 24.8209 19.1753
Au 5.5871 22.9136 24.8811
Pd 5.58026 24.7552 23.0099
Pd 7.42905 5.70465 5.5739
Pd 7.3938 5.55532 9.35582
Pd 9.33501 5.55323 7.41142
Pd 7.34446 5.51674 13.263
Pd 9.30088 5.45987 11.3042
Pd 7.34766 5.51806 17.2031
Pd 9.2734 5.43751 15.2315
Pd 7.4033 5.55936 21.11
Pd 9.30724 5.46257 19.1587
Pd 7.44446 5.71155 24.8918
Pd 9.34757 5.55871 23.0513
Pd 7.41154 9.42172 5.42401
Au 9.34633 7.49125 5.3913
Au 7.43142 7.54512 7.45003
Pd 7.33538 9.43432 9.38183
Au 9.35995 7.42664 9.37551
Pd 9.36509 9.43213 7.3488
Au 7.35344 7.46257 11.319
Pd 7.28122 9.38299 13.278
Au 9.31638 7.3599 13.2734
Pd 9.31897 9.38482 11.328
Au 7.33626 7.43855 15.2324
Pd 7.28436 9.38437 17.1855
Au 9.31954 7.36124 17.1882
Pd 9.29483 9.35263 15.2302
Au 7.35973 7.46526 19.1457
Pd 7.34474 9.43848 21.0814
Au 9.36938 7.43072 21.0859
Pd 9.32521 9.38759 19.1322
Au 7.44387 7.55057 23.0143
Pd 7.42729 9.42836 25.0391
Au 9.36225 7.49804 25.07
Pd 9.37778 9.43755 23.1112
Pd 7.36258 13.2764 5.40258
Au 9.32084 11.3467 5.32007
Au 7.36785 11.3525 7.3825
Pd 7.28539 13.2896 9.33691
Au 9.32384 11.3588 9.33525
Pd 9.32414 13.2875 7.29477
Au 7.2375 11.3523 11.3232
Pd 7.20658 13.2865 13.2722
Au 9.25792 11.332 13.2772
Pd 9.25665 13.2895 11.3021
Au 7.20593 11.3306 15.2312
Pd 7.20967 13.2884 17.1887
Au 9.26097 11.3335 17.1818
Pd 9.22184 13.2825 15.2288
Au 7.24371 11.3552 19.1389
Pd 7.29482 13.2938 21.1239
Au 9.33327 11.3629 21.1235
Pd 9.26281 13.2925 19.1556
Au 7.38044 11.3578 23.0795
Pd 7.37846 13.2828 25.0584
Au 9.3369 11.3532 25.1388
Pd 9.33695 13.2928 23.1628
Pd 7.36484 17.1777 5.40185
Au 9.28808 15.2252 5.30373
Au 7.35218 15.2272 7.36292
Pd 7.28826 17.1649 9.33669
Au 9.29906 15.2259 9.30645
Pd 9.32837 17.1623 7.29378
Au 7.20805 15.2281 11.3002
Pd 7.20939 17.1727 13.2698
Au 9.22368 15.2279 13.2657
Pd 9.25954 17.1644 11.3007
Au 7.1704 15.2305 15.2293
Pd 7.21251 17.1733 17.1873
Au 9.22677 15.2292 17.1904
Pd 9.22469 17.1746 15.2273
Au 7.21436 15.2314 19.1597
Pd 7.29778 17.1697 21.1229
Au 9.30832 15.2302 21.1503
Pd 9.26573 17.1668 19.1545
Au 7.36489 15.2323 23.0969
Pd 7.38143 17.1829 25.0572
Au 9.30447 15.2314 25.1528
Pd 9.33991 17.1688 23.1617
Pd 7.42794 21.0149 5.42835
Au 9.33161 19.0984 5.31645
Au 7.37516 19.0984 7.38233
Pd 7.34595 21.0232 9.37581
Au 9.33057 19.0936 9.33314
Pd 9.37413 21.0187 7.34542
Au 7.24314 19.1063 11.3191
Pd 7.28958 21.0754 13.2734
Au 9.26363 19.1235 13.2742
Pd 9.32837 21.0692 11.3242
Au 7.21158 19.1294 15.228
Pd 7.29305 21.0763 17.1817
Au 9.26675 19.1244 17.1792
Pd 9.30344 21.1036 15.2262
Au 7.24959 19.1071 19.1367
Pd 7.35352 21.0249 21.0779
Au 9.33916 19.0975 21.1212
Pd 9.334 21.0714 19.1285
Au 7.38636 19.1068 23.0772
Pd 7.43622 21.0374 25.0356
Au 9.34283 19.1096 25.1364
Pd 9.3866 21.024 23.1076
Pd 5.59507 24.7788 7.44786
Au 9.33873 22.9667 5.37764
Au 7.448 22.9129 7.44675
Pd 7.41413 24.9037 9.35862
Au 9.37495 23.0273 9.37304
Pd 9.34715 24.9097 7.40484
Au 7.3652 22.9938 11.3132
Pd 7.35723 24.9399 13.255
Au 9.32837 23.0948 13.2687
Pd 9.3199 24.9951 11.3026
Au 7.34763 23.0204 15.2271
Pd 7.36202 24.9423 17.1966
Au 9.33119 23.0963 17.1829
Pd 9.28733 25.0185 15.2244
Au 7.37138 22.9966 19.1407
Pd 7.41784 24.9037 21.1038
Au 9.38114 23.0295 21.0809
Pd 9.3218 24.9963 19.1522
Au 7.4556 22.9139 23.0095
Pd 7.45908 24.7544 24.8857
Au 9.37399 22.9649 25.0651
Pd 9.36227 24.9029 23.045
Pd 11.2635 5.63482 5.5281
Pd 11.2864 5.45773 9.3154
Pd 13.2421 5.51036 7.35572
Pd 11.2614 5.38871 13.261
Pd 13.2464 5.38656 11.2728
Pd 11.2646 5.39006 17.1987
Pd 13.2393 5.34946 15.2283
Pd 11.296 5.46183 21.1443
Pd 13.2528 5.3893 19.1837
Pd 11.2792 5.64154 24.9314
Pd 13.2549 5.51579 23.1006
Pd 11.2982 9.3782 5.34661
Au 13.2417 7.42667 5.35993
Au 11.3001 7.45831 7.3658
Pd 11.3144 9.38268 9.32921
Au 13.2578 7.35563 9.32561
Pd 13.2612 9.37652 7.28828
Au 11.3007 7.32808 11.3131
Pd 11.2908 9.31132 13.2741
Au 13.255 7.266 13.2643
Pd 13.2638 9.30916 11.2979
Au 11.2831 7.29139 15.2292
Pd 11.2939 9.31272 17.183
Au 13.2581 7.26738 17.191
Pd 13.2579 9.2674 15.2269
Au 11.307 7.3308 19.1452
Pd 11.324 9.38677 21.1277
Au 13.2673 7.35971 21.1295
Pd 13.2701 9.31193 19.1559
Au 11.3129 7.46374 23.0924
Pd 11.3143 9.38489 25.1103
Au 13.2578 7.43342 25.0951
Pd 13.2741 9.38194 23.1654
Pd 11.2756 13.2792 5.28821
Au 13.2543 11.3122 5.25695
Au 11.3083 11.3479 7.24565
Pd 11.2927 13.2872 9.26283
Au 13.2658 11.3276 9.2629
Pd 13.2597 13.2796 7.20951
Au 11.2924 11.3294 11.3006
Pd 11.2549 13.2775 13.2621
Au 13.2569 11.2869 13.2619
Pd 13.2561 13.2752 11.2577
Au 11.2695 11.3033 15.2279
Pd 11.258 13.2789 17.1923
Au 13.2601 11.2883 17.1907
Pd 13.2466 13.2645 15.2256
Au 11.2986 11.3323 19.1551
Pd 11.3021 13.2915 21.1917
Au 13.2754 11.3317 21.1896
Pd 13.2624 13.278 19.1935
Au 11.3212 11.3533 23.2099
Pd 11.2918 13.2858 25.1661
Au 13.2705 11.3189 25.1954
Pd 13.2723 13.2854 23.2416
Pd 11.281 17.1652 5.28659
Au 13.248 15.2207 5.22137
Au 11.2898 15.2232 7.21233
Pd 11.2959 17.1619 9.26142
Au 13.2588 15.2231 9.22451
Pd 13.2623 17.1653 7.20807
Au 11.2689 15.2255 11.2729
Pd 11.2579 17.1749 13.2608
Au 13.2466 15.2247 13.2472
Pd 13.2592 17.1727 11.2564
Au 11.2425 15.2269 15.2265
Pd 11.2609 17.1761 17.191
Au 13.2497 15.226 17.2027
Pd 13.2496 17.1861 15.2244
Au 11.2751 15.2281 19.1803
Pd 11.305 17.1659 21.1905
Au 13.2682 15.2272 21.2254
Pd 13.2654 17.1752 19.1923
Au 11.3021 15.2293 23.241
Pd 11.2947 17.1741 25.1649
Au 13.2631 15.2284 25.2283
Pd 13.2753 17.1703 23.2404
Pd 11.3012 21.0745 5.3437
Au 13.2573 19.1346 5.25462
Au 11.3145 19.1006 7.2427
Pd 11.3239 21.0672 9.32536
Au 13.2716 19.1192 9.25996
Pd 13.2685 21.07 7.28386
Au 11.2987 19.1215 11.2981
Pd 11.3001 21.1407 13.2706
Au 13.2631 19.1623 13.2594
Pd 13.2731 21.1387 11.294
Au 11.2754 19.1502 15.2253
Pd 11.3028 21.1419 17.1792
Au 13.2661 19.1635 17.1882
Pd 13.2673 21.1829 15.2235
Au 11.3045 19.1238 19.1527
Pd 11.3328 21.0706 21.124
Au 13.2812 19.1226 21.1871
Pd 13.279 21.1411 19.1522
Au 11.3271 19.1053 23.2075
Pd 11.3232 21.075 25.1066
Au 13.2764 19.138 25.193
Pd 13.2829 21.0737 23.1617
Pd 11.2769 24.8092 5.51746
Au 13.2541 23.0166 5.35403
Au 11.3089 22.9913 7.35946
Pd 11.3027 24.9927 9.31023
Au 13.2689 23.0911 9.3196
Pd 13.2555 24.9341 7.34762
Au 11.3146 23.1228 11.3097
Pd 11.2784 25.0638 13.257
Au 13.2681 23.183 13.2601
Pd 13.2622 25.0616 11.267
Au 11.2953 23.1618 15.2245
Pd 11.2792 25.0646 17.1921
Au 13.2704 23.1843 17.1861
Pd 13.2553 25.1011 15.223
Au 11.3188 23.1252 19.14
Pd 11.3107 24.9955 21.1378
Au 13.2792 23.0946 21.1244
Pd 13.2676 25.0637 19.1773
Au 11.3246 22.9949 23.0874
Pd 11.2938 24.8184 24.9252
Au 13.2695 23.0236 25.0901
Pd 13.2695 24.9399 23.0943
Pd 15.2107 5.61871 5.5066
Pd 15.2137 5.43106 9.28149
Pd 17.1822 5.50736 7.35245
Pd 15.2169 5.3473 13.2475
Pd 17.1842 5.38359 11.2695
Pd 15.2201 5.34868 17.2058
Pd 17.1977 5.34652 15.225
Pd 15.2234 5.43517 21.1717
Pd 17.1906 5.38634 19.1805
Pd 15.2266 5.62539 24.9464
Pd 17.1951 5.51278 23.0974
Pd 15.2134 9.3363 5.32357
Au 17.1822 7.42362 5.35663
Au 15.2136 7.43 7.34222
Pd 15.2167 9.34613 9.29872
Au 17.1726 7.35264 9.32236
Pd 17.1689 9.37346 7.28502
Au 15.2167 7.28709 11.2892
Pd 15.2199 9.26524 13.2619
Au 17.1817 7.26308 13.261
Pd 17.1728 9.30625 11.2946
Au 15.2199 7.24417 15.226
Pd 15.223 9.26661 17.1888
Au 17.1849 7.26444 17.1877
Pd 17.185 9.26446 15.2237
Au 15.2232 7.28984 19.1628
Pd 15.2263 9.35026 21.1518
Au 17.1822 7.35673 21.1263
Pd 17.1792 9.30896 19.1528
Au 15.2265 7.43541 23.1096
Pd 15.2295 9.34307 25.1269
Au 17.1983 7.43039 25.0919
Pd 17.1818 9.37895 23.1622
Pd 15.2168 13.2643 5.2492
Au 17.1755 11.309 5.25365
Au 15.2166 11.3216 7.20774
Pd 15.2196 13.2758 9.22151
Au 17.1705 11.3247 9.25954
Pd 17.1763 13.2772 7.20612
Au 15.2198 11.2989 11.2712
Pd 15.2229 13.2623 13.2461
Au 17.1858 11.284 13.2586
Pd 17.1864 13.2724 11.2543
Au 15.223 11.269 15.2246
Pd 15.2261 13.2637 17.2018
Au 17.189 11.2853 17.1874
Pd 17.2023 13.2615 15.2223
Au 15.2262 11.3016 19.178
Pd 15.2293 13.2798 21.2264
Au 17.1803 11.3288 21.1864
Pd 17.1929 13.275 19.1903
Au 15.2295 11.3273 23.2415
Pd 15.2325 13.2714 25.1986
Au 17.1916 11.3159 25.1923
Pd 17.1896 13.2824 23.2385
Pd 15.2177 17.1775 5.24799
Au 17.1878 15.2197 5.21826
Au 15.2193 15.2213 7.16796
Pd 15.2223 17.168 9.22007
Au 17.1833 15.2205 9.22104
Pd 17.1787 17.1627 7.20465
Au 15.2227 15.2225 11.24
Pd 15.2259 17.184 13.2448
Au 17.2021 15.2217 13.2439
Pd 17.1892 17.1698 11.253
Au 15.226 15.2238 15.2233
Pd 15.2291 17.1852 17.2006
Au 17.2054 15.2229 17.1995
Pd 17.2054 17.1831 15.2211
Au 15.2292 15.2251 19.2067
Pd 15.2323 17.1716 21.2252
Au 17.1933 15.2242 21.2223
Pd 17.1959 17.1722 19.1891
Au 15.2325 15.2264 23.2785
Pd 15.2355 17.1825 25.1974
Au 17.2049 15.2255 25.2251
Pd 17.1925 17.1673 23.2373
Pd 15.2222 21.1045 5.31939
Au 17.1809 19.1288 5.25101
Au 15.2212 19.1211 7.20475
Pd 15.225 21.0977 9.29433
Au 17.176 19.1161 9.25668
Pd 17.1774 21.0658 7.28093
Au 15.2257 19.1461 11.2684
Pd 15.2292 21.1809 13.2581
Au 17.1918 19.1594 13.2559
Pd 17.1815 21.1358 11.2904
Au 15.2291 19.1785 15.2222
Pd 15.2323 21.1821 17.1852
Au 17.1951 19.1605 17.1851
Pd 17.1942 21.18 15.22
Au 15.2322 19.1484 19.1757
Pd 15.2352 21.1011 21.1482
Au 17.1862 19.1197 21.1841
Pd 17.1883 21.1381 19.1492
Au 15.2354 19.1254 23.239
Pd 15.2384 21.1109 25.1232
Au 17.1975 19.135 25.1898
Pd 17.1907 21.0707 23.1586
Pd 15.225 24.8224 5.49981
Au 17.1938 23.0144 5.3512
Au 15.2251 23.0123 7.33664
Pd 15.2276 25.0123 9.27419
Au 17.1841 23.0881 9.31687
Pd 17.1966 24.932 7.34576
Au 15.2285 23.1578 11.2836
Pd 15.2323 25.099 13.2415
Au 17.1937 23.1802 13.2557
Pd 17.1986 25.0583 11.2627
Au 15.2326 23.2032 15.2214
Pd 15.2356 25.1001 17.2
Au 17.1973 23.1813 17.183
Pd 17.2129 25.098 15.2189
Au 15.2353 23.1602 19.1579
Pd 15.2382 25.0162 21.1655
Au 17.1942 23.0916 21.1214
Pd 17.2058 25.0608 19.1745
Au 15.2382 23.0172 23.1046
Pd 15.2411 24.8285 24.9402
Au 17.2101 23.0205 25.0869
Pd 17.2098 24.9369 23.0913
Pd 19.1579 5.62878 5.52157
Pd 19.141 5.4518 9.30891
Pd 21.0894 5.54433 7.40173
Pd 19.1725 5.38282 13.2545
Pd 21.1299 5.45107 11.2944
Pd 19.1757 5.38418 17.1922
Pd 21.1638 5.4287 15.2216
Pd 19.1507 5.45589 21.1378
Pd 21.1363 5.45373 19.1489
Pd 19.1739 5.63545 24.9249
Pd 21.1023 5.54972 23.0417
Pd 19.1286 9.37213 5.34003
Au 21.0777 7.48228 5.38152
Au 19.1271 7.45233 7.35929
Pd 19.1189 9.3768 9.32267
Au 21.0705 7.41788 9.36575
Pd 21.0649 9.4234 7.33896
Au 19.1329 7.32221 11.3066
Pd 19.149 9.30549 13.2675
Au 21.1204 7.35113 13.2636
Pd 21.1176 9.37607 11.3181
Au 19.1568 7.28554 15.2227
Pd 19.1522 9.30681 17.1766
Au 21.1237 7.35245 17.1784
Pd 21.1481 9.34383 15.2203
Au 19.1393 7.3249 19.1388
Pd 19.1286 9.38081 21.1214
Au 21.0802 7.42184 21.0764
Pd 21.1241 9.37866 19.1226
Au 19.14 7.45775 23.086
Pd 19.1448 9.37891 25.104
Au 21.0939 7.48903 25.0605
Pd 21.0781 9.42863 23.1018
Pd 19.1564 13.2737 5.28159
Au 21.1084 11.338 5.31008
Au 19.1245 11.3421 7.23903
Pd 19.1465 13.2817 9.25596
Au 21.1123 11.3501 9.32527
Pd 21.1114 13.2789 7.28471
Au 19.1472 11.3237 11.2939
Pd 19.1908 13.2716 13.2554
Au 21.1848 11.3232 13.2672
Pd 21.1857 13.2808 11.2918
Au 19.1764 11.2973 15.2213
Pd 19.1941 13.2728 17.1859
Au 21.1881 11.3244 17.1721
Pd 21.2269 13.2734 15.2189
Au 19.1537 11.3263 19.1488
Pd 19.1565 13.2855 21.1854
Au 21.1222 11.3539 21.1141
Pd 21.1924 13.2833 19.1461
Au 19.1377 11.3474 23.2036
Pd 19.1733 13.2798 25.1598
Au 21.1251 11.3443 25.1293
Pd 21.1248 13.2838 23.1534
Pd 19.1596 17.1619 5.28026
Au 21.1468 15.2162 5.2936
Au 19.1491 15.2185 7.20537
Pd 19.1492 17.1563 9.25458
Au 21.1431 15.2175 9.29601
Pd 21.1144 17.1549 7.28344
Au 19.1764 15.2196 11.2661
Pd 19.1937 17.1689 13.2541
Au 21.2247 15.2187 13.2558
Pd 21.1886 17.1553 11.2905
Au 19.2093 15.2208 15.22
Pd 19.1971 17.17 17.1846
Au 21.2281 15.2199 17.1808
Pd 21.2298 17.1652 15.2177
Au 19.1831 15.2221 19.174
Pd 19.1594 17.1599 21.1842
Au 21.1531 15.2212 21.1408
Pd 21.1953 17.1578 19.1449
Au 19.1627 15.2234 23.2347
Pd 19.1762 17.1681 25.1586
Au 21.1635 15.2225 25.1432
Pd 21.1278 17.1599 23.1522
Pd 19.1371 21.0629 5.33602
Au 21.1145 19.0944 5.30747
Au 19.1302 19.0945 7.23641
Pd 19.1275 21.061 9.31866
Au 21.1181 19.0849 9.32269
Pd 21.0736 21.0103 7.33506
Au 19.1529 19.1155 11.2912
Pd 19.1578 21.1349 13.2635
Au 21.1906 19.1142 13.2646
Pd 21.1263 21.0601 11.3142
Au 19.1824 19.1443 15.2188
Pd 19.1613 21.136 17.1729
Au 21.194 19.1154 17.1696
Pd 21.1569 21.0948 15.2165
Au 19.1597 19.1179 19.1464
Pd 19.1376 21.0646 21.1178
Au 21.1282 19.0885 21.1117
Pd 21.133 21.0625 19.119
Au 19.1436 19.0994 23.2013
Pd 19.1536 21.069 25.1003
Au 21.131 19.1006 25.1269
Pd 21.0869 21.0151 23.0982
Pd 19.1722 24.8064 5.51505
Au 21.0891 22.9498 5.37628
Au 19.1386 22.9841 7.35396
Pd 19.1555 24.9859 9.30225
Au 21.0821 23.017 9.3605
Pd 21.1038 24.8892 7.39515
Au 19.1445 23.1169 11.3013
Pd 19.1871 25.0574 13.2479
Au 21.1321 23.0863 13.2584
Pd 21.1444 24.985 11.2879
Au 19.1688 23.1561 15.2176
Pd 19.1907 25.0587 17.1861
Au 21.1355 23.0875 17.1734
Pd 21.1784 25.0099 15.2152
Au 19.1515 23.1192 19.134
Pd 19.1657 24.9895 21.1318
Au 21.0921 23.0206 21.0716
Pd 21.1512 24.9874 19.1429
Au 19.1518 22.9889 23.0812
Pd 19.1884 24.8123 24.9189
Au 21.1056 22.9559 25.0558
Pd 21.1171 24.8939 23.0358
Pd 22.9926 5.69277 5.5611
Pd 23.034 5.54374 9.34277
Pd 24.8716 5.69255 7.4366
Pd 23.0896 5.50509 13.2499
Pd 24.9173 5.62673 11.2712
Pd 23.0928 5.50638 17.1901
Pd 24.9387 5.61487 15.2184
Pd 23.0436 5.54762 21.0973
Pd 24.9237 5.62924 19.1657
Pd 23.0086 5.69949 24.8791
Pd 24.8843 5.69746 23.0003
Pd 23.0151 9.41022 5.41087
Au 24.8642 7.53396 5.56519
Au 22.996 7.53353 7.43701
Pd 23.098 9.42263 9.3686
Au 25.0547 7.48105 9.352
Pd 25.0227 9.40929 7.41494
Au 23.0803 7.45092 11.3059
Pd 23.1585 9.37124 13.2648
Au 25.0861 7.42063 13.2475
Pd 25.1002 9.37002 11.3019
Au 23.1038 7.42687 15.2193
Pd 23.1618 9.37251 17.1725
Au 25.0894 7.42188 17.1879
Pd 25.1232 9.33242 15.217
Au 23.0868 7.45349 19.1328
Pd 23.1078 9.42645 21.0687
Au 25.0645 7.48476 21.0834
Pd 25.1068 9.37251 19.1322
Au 23.0089 7.53871 23.0018
Pd 23.0316 9.41652 25.0266
Au 24.8805 7.54027 24.8703
Pd 25.0358 9.41437 23.0191
Pd 23.0699 13.2647 5.38921
Au 24.9038 11.3098 5.52732
Au 23.065 11.3408 7.36923
Pd 23.1536 13.2779 9.32343
Au 25.1275 11.3362 9.32223
Pd 25.0459 13.2638 7.36184
Au 23.2019 11.3405 11.3097
Pd 23.2389 13.2747 13.2587
Au 25.1906 11.3061 13.2558
Pd 25.1601 13.2709 11.2749
Au 23.2399 11.3187 15.2179
Pd 23.2423 13.2759 17.1759
Au 25.1939 11.3074 17.1768
Pd 25.1991 13.2608 15.2156
Au 23.2085 11.343 19.1261
Pd 23.1636 13.2817 21.1112
Au 25.1375 11.34 21.1104
Pd 25.1668 13.2734 19.1564
Au 23.0782 11.3459 23.0669
Pd 23.0864 13.2709 25.0457
Au 24.9201 11.316 24.9057
Pd 25.0591 13.2688 23.0697
Pd 23.0729 17.1648 5.38792
Au 24.9163 15.2134 5.51654
Au 23.0865 15.2154 7.3494
Pd 23.1566 17.154 9.32217
Au 25.1456 15.2144 9.28554
Pd 25.0488 17.164 7.36057
Au 23.2371 15.2165 11.2863
Pd 23.2418 17.1597 13.2574
Au 25.2276 15.2157 13.244
Pd 25.163 17.1593 11.2737
Au 23.2811 15.2178 15.2166
Pd 23.2452 17.1609 17.1746
Au 25.2309 15.2169 17.1858
Pd 25.202 17.1719 15.2143
Au 23.2438 15.219 19.1469
Pd 23.1666 17.1577 21.11
Au 25.1556 15.2182 21.1445
Pd 25.1697 17.1617 19.1551
Au 23.0998 15.2204 23.0842
Pd 23.0894 17.171 25.0445
Au 24.9326 15.2195 24.914
Pd 25.0621 17.1689 23.0685
Pd 23.024 21.0194 5.40703
Au 24.9097 19.117 5.52478
Au 23.0709 19.09 7.36669
Pd 23.1067 21.0094 9.36478
Au 25.1334 19.0927 9.31973
Pd 25.0315 21.0185 7.41121
Au 23.2077 19.0927 11.3072
Pd 23.1672 21.0632 13.2609
Au 25.1964 19.1253 13.2532
Pd 25.1089 21.0603 11.298
Au 23.2457 19.1169 15.2153
Pd 23.1706 21.0644 17.1687
Au 25.1998 19.1265 17.1742
Pd 25.132 21.1003 15.2131
Au 23.2144 19.0951 19.1236
Pd 23.1166 21.0129 21.0651
Au 25.1434 19.0963 21.1079
Pd 25.1156 21.0627 19.1284
Au 23.0842 19.0948 23.0645
Pd 23.0405 21.0254 25.023
Au 24.9261 19.1231 24.9033
Pd 25.0447 21.0233 23.0154
Pd 23.0067 24.7365 5.55457
Au 24.8759 22.8929 5.56033
Au 23.0074 22.8973 7.43191
Pd 23.0482 24.8883 9.33639
Au 25.0663 22.9481 9.34685
Pd 24.8856 24.7357 7.43031
Au 23.0918 22.9823 11.3007
Pd 23.104 24.9294 13.2435
Au 25.0977 23.0109 13.2423
Pd 24.9315 24.8038 11.2649
Au 23.1154 23.0089 15.2142
Pd 23.1074 24.9306 17.1838
Au 25.101 23.0121 17.1828
Pd 24.953 24.8181 15.2121
Au 23.0985 22.9847 19.1279
Pd 23.0583 24.8918 21.0913
Au 25.0762 22.9517 21.0785
Pd 24.9382 24.8062 19.1595
Au 23.0207 22.902 22.997
Pd 23.0231 24.7423 24.8733
Au 24.8923 22.8987 24.8655
Pd 24.8988 24.7403 22.9944
