665
Atoms. Timestep: 20565
Pd 12.2906 10.1721 8.21645
Pd 11.3258 16.7258 21.3489
Pd 13.2486 8.13936 20.5336
Pd 11.2908 6.03458 13.8592
Pd 24.1133 9.92515 20.0004
Au 3.26801 16.8996 15.0875
Au 25.588 13.9352 21.6007
Pd 14.6666 19.8639 21.1245
Au 19.8688 3.67897 14.0411
Pd 12.8053 20.849 10.2874
Au 24.4908 17.4035 9.11699
Pd 11.1887 9.60307 25.0975
Au 10.425 25.5323 16.8906
Pd 26.1841 14.1455 14.5472
Au 8.01182 24.7911 9.52165
Pd 14.4421 26.8439 10.0767
Au 22.5864 8.02751 19.0084
Au 26.568 9.63937 13.1823
Pd 23.0289 11.0189 10.2826
Au 17.1567 15.3984 16.6461
Pd 13.3248 5.42932 18.4102
Au 13.8871 15.6983 22.2476
Pd 15.432 19.7495 11.1678
Au 14.5671 12.7673 26.3384
Pd 15.2671 15.1193 12.6528
Au 20.2416 8.19068 25.4543
Pd 20.7386 20.7822 20.789
Au 9.73577 20.4492 15.2143
Au 10.8654 3.12087 14.2544
Pd 23.9351 14.2472 13.3306
Au 8.16199 13.6863 9.17851
Pd 8.33878 7.93963 22.202
Au 11.5058 12.2136 3.93886
Pd 5.89269 10.7102 11.7194
Au 22.3335 16.4793 22.4299
Pd 18.6835 24.407 14.1493
Au 10.6786 20.7077 11.9979
Pd 16.4695 22.8897 7.07454
Au 13.8357 7.06718 13.4261
Au 13.3246 25.3876 12.4716
Pd 12.564 8.54491 11.3169
Au 27.6491 11.9022 14.176
Pd 8.40222 15.0775 11.5913
Au 24.5649 10.5253 8.1542
Pd 19.5328 23.1785 11.5678
Au 20.5793 18.2356 18.1522
Pd 17.4429 15.1662 4.12733
Au 6.85058 7.32417 20.0772
Pd 9.55691 9.76572 15.5906
Au 10.5518 24.72 11.5
Au 21.1109 18.3458 5.68281
Pd 6.87875 20.261 7.13826
Au 20.8669 18.779 22.845
Pd 11.7743 8.91901 13.832
Au 3.21145 14.5473 16.4485
Pd 11.6485 19.2747 5.08235
Au 15.7927 8.6217 19.6836
Pd 11.3664 14.0965 22.2137
Au 17.4179 4.40573 20.3684
Pd 15.8386 25.0611 13.89
Pd 10.3316 13.2759 11.2735
Pd 23.1286 20.0133 11.8365
Pd 8.29195 10.8274 17.8597
Pd 17.151 11.7715 24.5779
Pd 8.29459 9.91645 20.4848
Pd 8.68388 17.3362 21.0634
Pd 8.89556 8.17047 18.5606
Pd 16.4273 20.6201 23.3847
Pd 15.7524 17.27 3.67338
Pd 15.9307 5.83792 18.3438
Pd 5.56955 11.9893 18.0599
Pd 6.26385 13.3301 11.3532
Au 16.5846 14.0069 7.76652
Au 18.9737 22.548 6.23894
Pd 15.7741 6.7511 11.4945
Au 21.662 15.1378 12.3484
Pd 9.83409 22.8827 13.634
Au 12.6096 14.6364 26.7452
Pd 17.3971 18.9496 18.419
Au 7.54772 8.25675 16.3077
Pd 7.37354 18.8182 14.5845
Au 20.1756 25.3104 21.628
Pd 25.5423 11.0612 15.856
Au 8.68041 25.1833 14.7586
Pd 22.6261 15.3384 9.34396
Au 23.4646 17.2075 6.62706
Pd 12.1306 20.8587 22.1976
Au 14.5074 14.4233 17.4771
Pd 18.1766 24.7681 7.67971
Au 22.1553 6.2183 9.91582
Pd 9.9005 14.2684 14.014
Au 24.9627 11.8189 13.2871
Pd 12.7229 22.6946 24.3126
Pd 17.4988 23.4334 9.86859
Au 7.31185 24.9651 17.1528
Au 12.217 18.4184 25.4186
Pd 9.88934 14.7462 20.204
Au 13.3426 6.44181 22.9264
Pd 13.2711 28.4788 16.7598
Au 5.51933 21.9054 20.6185
Pd 16.541 11.744 9.53031
Au 18.3005 14.4495 23.8886
Pd 10.6516 8.39045 20.7938
Au 3.1867 16.6985 12.4011
Pd 19.0216 20.8951 22.7845
Au 11.201 27.5653 15.3423
Pd 14.8525 23.3949 17.8386
Au 5.57817 7.02023 17.5376
Pd 17.2785 23.1122 22.8649
Au 27.5499 16.3583 15.1165
Pd 20.0936 26.538 15.2259
Au 4.36298 12.6416 20.4109
Pd 7.3462 14.8971 21.0032
Au 13.7356 17.5059 20.0904
Pd 18.0314 18.4175 22.8913
Pd 4.1807 19.6534 20.7864
Au 13.3885 17.8352 6.5709
Au 24.6779 12.5732 19.1802
Pd 4.04673 11.9233 10.2113
Au 10.2896 6.98176 11.5394
Pd 5.93494 16.4524 15.0579
Au 8.9771 19.6538 5.54405
Pd 13.122 14.0448 5.14564
Au 21.9215 23.9277 10.4605
Pd 8.80369 15.9787 7.46192
Au 17.0926 26.379 9.54804
Pd 7.08081 23.2488 13.4191
Au 13.1257 20.7234 26.5413
Pd 15.3358 24.6428 8.60776
Au 23.7479 12.5304 5.77602
Pd 19.5177 22.7069 16.4129
Au 11.9949 19.6455 19.7048
Pd 17.5967 7.07447 20.7399
Au 17.6253 26.9899 14.3351
Pd 17.6051 9.78562 15.5153
Au 14.8313 5.80465 20.7607
Pd 25.9269 18.3451 16.1451
Pd 14.7785 6.22614 15.8408
Au 8.8293 26.1307 19.0495
Au 19.0141 22.8594 20.7762
Pd 2.27459 19.2335 15.7453
Au 19.8431 9.82609 6.33421
Pd 8.92184 4.87615 13.548
Au 10.8091 17.3015 18.8265
Pd 14.4992 12.3892 11.9496
Au 10.7296 4.98556 9.35518
Pd 11.5347 15.7481 6.56067
Au 20.7181 6.64148 12.1218
Pd 11.7803 11.7757 23.5125
Au 13.1594 7.72104 25.2
Pd 12.1685 4.67033 16.0947
Au 9.85136 6.69602 16.341
Pd 20.2003 20.1294 16.2486
Au 20.3623 10.1928 15.6365
Pd 14.5384 11.6863 23.6882
Au 10.6776 16.4336 26.5507
Pd 22.526 10.2581 6.47416
Au 16.1805 18.1844 6.13567
Pd 8.36333 15.3146 16.1031
Pd 23.3546 10.757 17.5073
Au 15.4957 28.1909 15.3299
Au 9.63266 9.90561 12.6635
Pd 17.2145 13.4962 26.4994
Au 6.98079 16.113 9.54432
Pd 14.0831 18.9388 8.99997
Au 15.248 5.09726 9.12385
Pd 17.5939 20.7229 16.3392
Au 14.5051 22.7547 13.7915
Pd 22.0874 20.2706 14.5248
Au 24.0869 22.4325 11.1306
Pd 18.5522 17.6662 16.464
Au 24.6903 20.1681 9.71645
Pd 7.35196 17.7352 6.07542
Au 12.4697 14.3639 2.58855
Pd 9.97519 10.1587 22.5918
Au 9.34169 18.5744 25.6116
Pd 19.6464 15.4016 14.4103
Au 11.7511 12.1526 26.1612
Pd 26.177 13.3403 17.0827
Au 15.9591 21.2988 9.093
Pd 14.8203 21.0895 15.9656
Pd 17.8021 5.7816 15.7001
Pd 14.0965 7.93597 17.8289
Pd 21.1195 10.7143 8.63429
Pd 13.0729 13.8986 24.2574
Pd 16.5015 12.6708 16.4317
Pd 12.308 12.6966 18.8059
Pd 22.5689 17.6842 13.1954
Pd 10.7278 22.9782 16.1787
Pd 22.2144 18.5263 20.5439
Pd 4.59532 16.5713 17.5674
Pd 20.6809 20.6798 7.23312
Pd 17.2271 8.64031 6.19198
Au 14.0826 10.4656 10.0986
Au 19.1633 7.12215 6.91189
Pd 19.2692 18.5181 20.4964
Au 15.1026 9.47289 7.58327
Pd 3.80496 14.3732 11.2833
Au 8.37821 5.17061 10.976
Pd 13.6094 10.3102 25.8735
Au 12.9287 2.84351 18.0616
Pd 7.19304 5.81556 15.4304
Au 16.2291 10.6959 26.8786
Pd 19.1852 8.20704 13.9484
Au 25.8585 20.8454 12.3422
Pd 19.3555 20.1852 4.944
Au 15.2943 2.45259 13.8801
Pd 15.5578 13.0221 5.45951
Au 22.7848 14.4848 17.9179
Pd 17.6229 8.18727 25.9665
Au 5.48637 18.2181 8.1776
Pd 17.7878 15.4511 11.9119
Au 15.6763 20.9854 18.629
Pd 13.0131 5.57743 7.90242
Pd 19.4657 7.91321 16.622
Au 26.7697 16.0716 12.381
Au 14.0289 24.9421 19.9866
Pd 17.4705 3.2178 15.198
Au 11.797 23.695 6.97138
Pd 9.7436 16.7269 9.83994
Au 18.7695 6.06449 24.5706
Pd 13.2792 11.2171 14.0958
Au 20.0048 4.23715 11.3509
Pd 13.004 9.33629 23.0592
Au 20.2525 23.1652 8.5012
Pd 7.15195 14.4396 13.8488
Au 9.85082 12.1263 19.8878
Pd 5.20742 17.7192 22.2466
Au 23.5501 6.25614 14.7784
Pd 14.1045 19.0587 17.8857
Au 25.7684 12.7807 8.84398
Pd 16.6791 7.83929 16.8882
Au 11.0209 4.17867 11.8141
Pd 15.3396 27.3091 12.6497
Au 10.1978 22.5503 23.01
Pd 15.6248 16.9126 18.1379
Pd 19.2562 20.8432 18.6323
Au 3.73189 19.0429 11.0217
Au 24.5161 19.4057 19.3398
Pd 5.95385 12.1649 13.9539
Au 10.654 10.8469 5.96503
Pd 20.9282 14.9335 24.2049
Au 8.21388 20.8051 13.0559
Pd 14.5891 13.6306 14.672
Au 25.9366 7.02807 13.4503
Pd 19.6597 12.6811 25.3086
Au 10.9693 14.5941 8.99723
Pd 17.6088 3.2361 12.5308
Au 8.45538 20.4811 23.7517
Pd 8.09337 22.7101 15.8796
Au 18.0227 27.3906 19.5578
Pd 3.11445 14.7765 19.131
Au 3.37717 20.3976 13.5923
Pd 12.9529 24.3294 10.0517
Au 17.5752 5.13917 7.67801
Pd 21.0384 24.7399 16.9855
Au 11.9052 5.79866 20.7327
Pd 20.1164 14.0461 18.8632
Pd 9.30513 6.16744 20.3247
Au 25.7423 8.23513 11.0688
Au 28.5617 14.379 13.3393
Pd 6.00958 21.1742 14.8171
Au 12.2384 21.3053 14.8356
Pd 23.657 24.5331 15.434
Au 11.9041 26.9586 10.6262
Pd 16.8913 19.691 3.99287
Au 10.7926 2.28438 16.7993
Pd 6.91264 13.3765 6.78809
Au 11.623 7.47297 8.98294
Pd 13.598 26.3922 14.9459
Au 18.0765 20.7675 11.402
Pd 17.0408 22.9537 12.6219
Au 26.4102 10.5216 18.5382
Pd 6.41303 15.6121 23.387
Au 15.2061 18.0119 13.2216
Pd 10.4952 18.1786 7.30469
Au 4.30925 9.95134 14.0263
Pd 7.01181 19.4615 21.0349
Au 12.0524 20.4276 7.58464
Pd 20.0062 20.0364 25.0429
Pd 12.9502 16.6138 17.3042
Au 21.0816 8.89617 10.7168
Au 11.1012 16.3504 15.3398
Pd 20.5929 6.13323 14.9127
Au 26.4701 8.81533 20.689
Pd 14.245 19.352 4.42874
Au 5.74324 19.7605 18.6385
Pd 6.09586 17.2055 19.8142
Au 10.1191 26.9714 12.9519
Pd 18.4983 17.6633 4.60196
Au 15.0438 18.457 26.1616
Pd 16.7506 5.52052 22.7299
Au 9.8355 17.1537 4.91713
Pd 15.4501 27.7372 18.1679
Au 17.3838 3.5907 17.8387
Pd 18.4526 19.1608 14.1703
Au 20.6741 25.5421 12.4551
Pd 9.42634 24.3223 21.052
Au 8.67985 16.7059 13.8313
Pd 4.35218 14.4889 13.944
Au 11.3356 25.8913 19.9657
Pd 14.2746 7.69287 9.34329
Pd 15.6181 24.8645 11.2436
Pd 15.9323 10.3283 17.5832
Pd 23.2941 20.9269 21.1902
Pd 17.4127 13.5646 18.7022
Pd 12.7199 15.0948 19.665
Pd 16.1034 23.111 20.4341
Pd 10.0931 20.9485 17.9198
Pd 21.425 10.6873 25.8187
Pd 19.5789 11.7849 20.0328
Pd 18.5908 21.0934 8.77199
Pd 18.2849 25.1642 16.6666
Pd 13.0707 15.2968 10.8367
Au 13.0601 16.3364 13.5259
Au 9.62462 20.0404 21.2251
Pd 24.8029 8.57825 17.4898
Au 17.7511 27.7599 16.8668
Pd 19.1005 13.6912 16.3812
Au 3.67851 21.5481 18.7603
Pd 14.9914 12.4667 19.1827
Au 10.5142 12.1572 16.9469
Pd 8.06407 20.4386 10.3358
Au 18.3289 14.4187 20.9642
Pd 13.464 10.2469 18.7767
Au 14.632 9.16152 15.3828
Pd 9.36489 11.5381 24.848
Au 22.2632 8.24351 16.3661
Pd 15.913 5.04529 13.8059
Au 8.98171 18.364 11.815
Pd 10.275 18.4209 23.1857
Au 7.38447 9.10929 8.6872
Pd 19.4461 10.0994 23.8917
Au 22.8769 21.9699 8.68994
Pd 21.9203 8.34938 13.7541
Pd 17.345 16.7756 14.1866
Au 5.05696 8.20616 12.1464
Au 17.9756 25.7629 11.973
Pd 22.168 14.8852 6.68745
Au 22.8017 10.8599 14.7318
Pd 12.336 16.9823 8.9322
Au 23.5488 24.4317 18.0543
Pd 17.5978 22.892 18.2276
Au 28.599 13.8536 15.9094
Pd 19.0516 9.42994 21.2494
Au 10.4642 14.6363 4.32149
Pd 7.21321 22.3832 8.74136
Au 17.0608 12.6315 12.0613
Pd 20.9736 17.0202 7.98006
Au 15.1074 8.2621 26.9139
Pd 21.8338 23.2538 21.3591
Au 21.2509 12.305 17.1014
Pd 18.3133 13.3031 5.82421
Au 3.40738 17.2091 20.0632
Pd 16.8963 10.3322 22.4204
Au 13.3094 4.26053 13.5479
Pd 22.2582 9.31224 23.7874
Pd 26.1974 11.3851 21.1684
Au 27.0488 18.5827 13.6391
Au 19.9271 23.3298 23.4075
Pd 12.74 21.4188 17.5412
Au 28.1296 11.4193 16.8124
Pd 4.89079 19.0585 16.0149
Au 4.67357 15.1929 21.3482
Pd 14.0525 16.3577 24.8807
Au 10.8753 7.55893 23.3093
Pd 17.5159 18.1357 11.6802
Au 14.3125 24.0562 6.11533
Pd 13.9103 11.8793 16.6442
Au 6.20277 9.38015 18.6016
Pd 16.3963 9.31233 10.3995
Au 10.9995 20.6775 24.7717
Pd 24.081 22.0949 14.1008
Au 5.81203 20.3833 23.0199
Pd 11.4632 7.35555 18.4641
Au 15.3803 23.0703 24.7356
Pd 15.3627 16.6377 8.18944
Au 10.6139 25.3319 8.79301
Pd 8.18922 13.4955 18.0826
Pd 6.86533 6.46822 12.8249
Au 26.4441 20.8711 15.069
Au 16.8532 12.6694 3.19635
Pd 16.9913 11.166 6.8425
Au 5.51019 23.7958 15.5444
Pd 23.2228 14.6541 20.5729
Au 7.93765 25.3609 12.1348
Pd 13.0411 5.9103 11.0614
Au 18.7112 9.26268 8.70662
Pd 13.2575 23.8285 15.8447
Au 8.23063 12.4578 15.5286
Pd 10.8338 16.1039 12.1638
Au 13.2193 17.0803 27.4778
Pd 10.3304 14.0519 24.9288
Au 18.0841 21.9174 25.1317
Pd 16.0798 18.6006 15.9028
Au 9.17123 23.4945 7.41189
Pd 7.82518 22.2104 21.8621
Au 27.185 8.99255 15.8317
Pd 17.5515 19.147 25.3885
Au 17.3349 20.5765 20.7437
Pd 18.8997 18.4905 7.19819
Pd 11.3742 24.9668 14.2761
Au 7.01272 24.0362 19.7805
Au 22.2561 16.4568 4.31116
Pd 11.5547 16.1983 24.0201
Au 24.1169 22.0488 18.92
Pd 10.8803 22.5784 9.48322
Au 20.2843 7.2479 20.1189
Pd 20.1444 27.1179 17.8756
Au 21.1639 11.1928 4.28003
Pd 13.5012 20.2509 12.8685
Au 8.75764 12.4861 4.68721
Pd 7.12931 12.296 20.2237
Au 3.7831 10.2298 19.3019
Pd 5.24726 14.1012 8.99831
Au 6.27572 6.84676 10.1007
Pd 15.6624 6.71329 24.7477
Au 24.6641 9.5886 22.6011
Pd 6.38517 18.3697 10.8569
Au 3.76159 21.5661 16.1106
Pd 8.6203 18.8772 18.8927
Au 26.4002 20.5057 17.7933
Pd 6.85037 17.7114 17.171
Pd 5.98352 15.8072 7.11138
Pd 3.64275 12.1763 12.7684
Pd 20.1171 15.7815 10.2855
Pd 14.6208 10.5649 21.191
Pd 12.9268 18.3046 22.6692
Pd 22.619 26.7018 16.849
Pd 17.0864 11.0986 19.9342
Pd 7.14326 9.5082 13.7588
Pd 22.4781 15.59 15.1309
Pd 24.4965 19.3334 14.0669
Pd 13.6701 14.7137 7.99745
Pd 22.9798 7.70308 21.6307
Au 22.5712 19.2315 8.30539
Au 2.0178 16.792 17.5143
Pd 21.4199 11.9305 23.3439
Au 15.3091 6.74673 6.86841
Pd 23.5471 8.50471 9.6345
Au 23.0433 12.7772 8.23523
Pd 23.7525 9.58799 12.3166
Au 27.147 7.85141 18.3051
Pd 9.65761 13.609 6.78906
Au 22.328 22.3306 16.4073
Pd 8.36115 12.2412 12.8192
Au 21.0236 13.154 9.99819
Pd 10.333 11.8725 8.91457
Au 13.9464 20.2734 24.171
Pd 15.6717 14.1876 24.3186
Au 13.118 2.17654 15.4197
Pd 7.82675 8.50345 11.3261
Au 9.89771 8.80714 7.3874
Pd 15.369 8.01319 22.2751
Au 15.1136 3.47439 19.3183
Pd 17.2187 14.1191 14.2612
Pd 15.0396 3.73466 16.4537
Au 8.33222 11.1692 7.20407
Au 26.5882 13.3525 11.781
Pd 22.1097 12.2188 19.6363
Au 13.4756 18.6423 15.1639
Pd 18.8622 12.2288 22.4977
Au 23.2809 24.4336 12.753
Pd 17.8306 8.02021 23.2931
Au 23.5816 6.88483 12.0486
Pd 15.9057 11.3781 14.2253
Au 25.2684 22.7626 16.5846
Pd 19.226 21.7129 13.9634
Au 26.2684 17.635 18.6392
Pd 10.7202 19.2267 9.77322
Au 8.71974 8.91074 24.582
Pd 4.40857 22.8285 13.3523
Au 10.6755 14.8312 17.6468
Pd 11.5799 19.0467 16.8595
Au 8.8607 6.94323 9.09562
Pd 24.5437 8.78546 14.8132
Au 10.6252 4.70085 18.3865
Pd 6.03933 13.015 22.5026
Pd 10.7363 22.1885 20.2413
Au 12.389 7.37173 15.901
Au 21.7843 25.6333 19.5258
Pd 27.3451 13.0958 19.3883
Au 9.13515 15.5409 22.9402
Pd 20.5952 15.8852 16.9991
Au 13.4107 10.868 5.65546
Pd 18.6713 11.9295 14.4101
Au 13.6156 13.0745 21.4239
Pd 12.1407 9.9711 16.3414
Au 20.9265 13.9191 21.6456
Pd 5.89527 13.9513 16.255
Au 9.23834 23.5413 18.3764
Pd 10.8023 9.99408 18.6147
Au 13.0483 21.7723 5.31669
Pd 19.5572 16.3658 22.258
Au 5.85084 16.0216 12.1422
Pd 12.2325 13.8805 15.7131
Au 15.6543 9.37031 24.5465
Pd 22.4409 26.4628 14.2107
Au 25.5106 15.1556 19.2227
Pd 16.8526 18.8299 8.92488
Pd 15.1443 15.6836 5.74595
Au 6.12013 11.5817 8.72445
Au 23.8266 11.4473 24.405
Pd 6.30188 10.5792 15.9985
Au 16.2759 20.5832 13.7129
Pd 17.7317 16.3636 9.34582
Au 9.23872 26.971 10.4291
Pd 19.8525 17.1881 12.4939
Au 3.88687 12.0613 15.6373
Pd 21.1519 6.06601 17.6677
Au 22.4472 5.53648 20.0332
Pd 21.7419 22.1674 12.6073
Au 19.2446 24.9304 19.1358
Pd 26.0084 15.2648 9.94561
Au 9.15348 4.14566 16.1313
Pd 9.00144 12.8032 22.3334
Au 20.7843 9.86538 18.4813
Pd 20.9123 12.5638 6.43097
Au 15.0945 24.8569 22.5784
Pd 12.8217 12.8237 9.84913
Au 7.91003 15.165 5.09858
Pd 15.674 25.6692 16.4068
Pd 24.9033 16.6959 14.1321
Au 15.6391 21.8652 4.78287
Au 8.3244 16.0959 25.3465
Pd 24.9868 15.7929 16.6197
Au 16.5019 25.353 18.873
Pd 24.2855 15.0361 5.08067
Au 11.091 18.5659 13.6951
Pd 20.4664 7.65181 22.8134
Au 3.60074 21.725 11.0918
Pd 21.3479 8.14395 8.0543
Au 22.281 13.1878 25.6543
Pd 15.2272 16.9992 10.7355
Au 19.0747 11.1057 10.7007
Pd 11.8968 11.1078 11.7245
Au 5.66667 10.236 21.1638
Pd 3.24838 19.0286 18.1642
Au 22.0939 20.3356 18.3943
Pd 7.92592 21.4483 19.3724
Au 12.4058 13.7123 12.9382
Pd 5.37793 7.71043 14.8736
Au 9.3747 20.8324 7.98865
Pd 8.12361 18.4328 8.60069
Pd 24.0928 20.3492 16.5659
Pd 21.2245 23.8904 14.4885
Pd 23.0785 17.9944 16.1005
Pd 16.2619 12.9933 21.9028
Pd 7.57638 18.0114 23.4543
Pd 18.2759 8.92145 18.7619
Pd 16.6396 15.9146 22.4704
Pd 23.6306 11.9785 21.772
Pd 21.1883 22.8624 18.8674
Pd 19.6743 4.09331 16.6977
Pd 11.9903 23.7834 18.4697
Pd 16.9638 7.3078 8.86381
Au 22.0629 17.8219 10.5528
Au 12.2718 23.8752 21.8243
Pd 13.721 22.4826 8.27063
Au 19.6045 17.3305 24.8241
Pd 14.7051 20.3667 6.85829
Au 12.9879 3.62395 9.86247
Pd 13.4869 22.085 19.9835
Au 20.4522 19.7092 12.4628
Pd 17.785 16.0871 6.66105
Au 14.7511 22.4289 11.119
Pd 24.0561 13.4803 10.7368
Au 20.4418 10.4793 12.9017
Pd 18.2696 13.7841 9.9586
Au 24.5822 17.0488 20.9535
Pd 17.5804 9.9998 12.7212
Au 18.8284 10.4635 26.4843
Pd 17.5533 25.3165 21.3693
Au 4.96385 9.28476 9.72887
Pd 19.7178 14.6408 7.85765
Au 16.4562 17.8161 20.6608
Pd 24.904 6.98647 19.7397
Pd 18.5018 6.11763 18.3293
Au 10.7521 11.7825 14.2504
Au 13.0801 26.4978 21.9612
Pd 9.0248 7.5725 13.9426
Au 12.6947 27.9584 13.0324
Pd 16.5213 7.71381 14.0012
Au 21.2085 13.2179 14.601
Pd 6.00729 23.1398 10.9711
Au 23.7871 13.1778 15.8327
Pd 19.6222 13.408 12.3453
Au 25.9875 6.61634 16.1132
Pd 14.7981 9.48385 12.5872
Au 20.976 20.9987 10.1635
Pd 15.7727 20.9694 26.1361
Au 21.6674 21.3282 23.3026
Pd 18.607 11.3107 17.5166
Au 15.3086 15.3596 26.963
Pd 14.5463 12.1272 7.84271
Au 13.2232 27.827 19.592
Pd 14.9193 16.1991 15.4197
Au 22.1807 4.22199 15.8336
Pd 9.28358 17.9428 16.3666
Pd 7.93852 5.73525 18.044
Au 27.6471 15.5432 17.6827
Au 8.17627 11.2171 10.3939
Pd 12.2675 22.8121 12.3379
Au 23.7997 5.90722 17.5111
Pd 19.5959 6.41844 9.41368
Au 12.9224 16.648 4.1952
Pd 22.0132 13.7808 4.20536
Au 17.5715 4.98532 10.4713
Pd 11.9709 10.8684 20.9538
Au 14.9868 14.7456 3.17285
Pd 24.693 14.9243 7.66656
Au 15.1211 3.9074 11.5128
Pd 15.7864 10.4169 4.59754
Au 7.40172 10.7443 23.1012
Pd 12.0861 12.7635 7.11964
Au 19.9972 15.4751 5.20526
Pd 13.0995 25.8659 7.91483
Au 4.09118 9.42383 16.773
Pd 22.2838 12.3114 12.3823
Au 18.4268 10.9263 4.44864
Pd 15.4538 18.1087 23.4002
Pd 18.9687 12.048 8.14668
Au 23.3838 14.0804 23.351
Au 23.3324 17.0413 18.5419
Pd 24.046 16.1048 11.5006
Au 19.5182 13.2647 3.51626
Pd 20.6931 17.8377 14.9934
Au 12.9391 8.11462 6.66299
Pd 7.71031 13.5804 24.4905
Au 19.3829 5.39529 21.9773
Pd 15.532 15.0599 20.1005
Au 8.27422 16.1155 18.6384
Pd 17.3191 20.4957 6.53483
Au 19.1903 15.2033 26.2996
Pd 7.58926 20.3052 16.8334
Au 18.3448 16.3341 18.9878
Pd 25.3066 18.3327 11.6118
Au 11.0015 27.8042 18.0803
Pd 4.34231 16.5866 9.90084
Au 18.3976 7.85225 11.3031
Pd 5.77941 14.5569 18.886
Au 5.04326 18.362 13.3471
Pd 5.41973 20.5773 9.45957
Pd 14.5293 22.2627 22.3805
Au 10.1869 9.43794 10.05
Au 19.5233 18.6091 9.86523
Pd 8.72409 22.8112 11.1501
Au 21.6296 10.0252 21.2689
Pd 18.3465 5.74958 13.0505
Au 20.037 4.35932 19.5203
Pd 12.7365 18.1311 11.3873
Au 22.1793 4.64082 13.0727
Pd 21.0144 16.225 19.9562
Au 15.5386 27.0718 20.8532
Pd 2.95366 12.3769 18.0627
Au 5.77784 20.7385 12.1306
Pd 16.9746 16.5091 25.1659
Au 19.6082 25.3773 9.87813
Pd 13.172 25.9879 17.5912
Au 14.1244 12.1847 3.2894
Pd 25.6555 10.917 10.7832
Au 10.4336 21.7896 5.67024
Pd 15.5057 14.283 10.127
Au 16.695 23.1042 15.5688
Pd 6.01123 22.4016 17.7227
