665
Atoms. Timestep: 20181
Pd 5.54954 5.70996 7.44733
Pd 5.50924 5.64252 11.2819
Pd 5.49347 5.62887 15.2291
Pd 5.51416 5.64146 19.1762
Pd 5.55914 5.70802 23.0105
Au 5.55639 7.55244 5.57702
Au 5.37159 7.49792 9.36379
Pd 5.40351 9.42718 7.42778
Au 5.34582 7.43577 13.2592
Pd 5.33171 9.3861 11.3146
Au 5.34826 7.43525 17.1996
Pd 5.31435 9.34672 15.2297
Au 5.37881 7.4965 21.0948
Pd 5.33654 9.38525 19.1445
Au 5.56805 7.55019 24.8811
Pd 5.41306 9.42542 23.0311
Au 5.52243 11.3284 5.5409
Au 5.30432 11.3534 9.33608
Pd 5.38597 13.2818 7.37653
Au 5.24692 11.3213 13.2697
Pd 5.2773 13.2869 11.2899
Au 5.24939 11.3212 17.1902
Pd 5.24418 13.2755 15.2301
Au 5.31157 11.3522 21.1234
Pd 5.28229 13.2867 19.1703
Au 5.53435 11.3258 24.9186
Pd 5.39565 13.2797 23.0837
Au 5.51591 15.2322 5.53212
Au 5.29165 15.2311 9.30175
Pd 5.38813 17.1816 7.378
Au 5.21566 15.2315 13.2595
Pd 5.28025 17.1759 11.2901
Au 5.21817 15.2315 17.2005
Pd 5.2471 17.188 15.2292
Au 5.29928 15.2301 21.1597
Pd 5.28509 17.1745 19.1713
Au 5.52778 15.2293 24.9288
Pd 5.39852 17.1798 23.0845
Au 5.52671 19.1371 5.54588
Au 5.3099 19.1104 9.33713
Pd 5.42215 21.031 7.43205
Au 5.25301 19.1435 13.2677
Pd 5.34119 21.0818 11.3106
Au 5.25498 19.1401 17.1916
Pd 5.32257 21.1144 15.2317
Au 5.31724 19.1082 21.125
Pd 5.34498 21.0754 19.1464
Au 5.54015 19.1329 24.92
Pd 5.42165 21.0343 23.0332
Au 7.44275 24.7855 5.57409
Au 5.38639 22.9699 9.35317
Pd 5.60034 22.9132 5.5829
Au 5.35608 23.0249 13.2622
Pd 5.51861 24.8144 11.2828
Au 5.3594 23.0256 17.2018
Pd 5.50705 24.832 15.2316
Au 5.39011 22.9635 21.0972
Pd 5.52804 24.8187 19.1789
Au 5.57964 22.9087 24.8838
Pd 5.5731 24.7512 23.0135
Pd 7.42562 5.70887 5.56887
Pd 7.38967 5.55778 9.35071
Pd 9.33125 5.55664 7.40668
Pd 7.33961 5.51736 13.2578
Pd 9.2964 5.46146 11.2994
Pd 7.34207 5.51683 17.1979
Pd 9.26818 5.43726 15.2267
Pd 7.39699 5.55631 21.1049
Pd 9.3013 5.46048 19.1539
Pd 7.43744 5.70673 24.8868
Pd 9.3409 5.5548 23.0466
Pd 7.40805 9.42602 5.42072
Au 9.3429 7.49561 5.38746
Au 7.4276 7.54847 7.44586
Pd 7.33115 9.43676 9.37852
Au 9.35578 7.42913 9.37165
Pd 9.36124 9.43558 7.34587
Au 7.34891 7.4641 11.3147
Pd 7.27627 9.3836 13.2747
Au 9.31148 7.36056 13.2695
Pd 9.31438 9.3864 11.325
Au 7.331 7.43824 15.2282
Pd 7.27868 9.38315 17.1822
Au 9.31391 7.36007 17.1843
Pd 9.28951 9.35238 15.2272
Au 7.35374 7.46313 19.1415
Pd 7.33833 9.43544 21.0781
Au 9.36302 7.42773 21.082
Pd 9.31917 9.38551 19.1292
Au 7.43715 7.54663 23.0101
Pd 7.42015 9.42347 25.0358
Au 9.35515 7.49319 25.0662
Pd 9.371 9.43361 23.1082
Pd 7.359 13.2807 5.40108
Au 9.31732 11.3511 5.31803
Au 7.36395 11.3558 7.3801
Pd 7.28108 13.2921 9.33541
Au 9.31957 11.3613 9.33322
Pd 9.32021 13.291 7.29365
Au 7.23286 11.3538 11.3208
Pd 7.20153 13.2871 13.2707
Au 9.25292 11.3327 13.2752
Pd 9.25197 13.2911 11.3009
Au 7.20056 11.3303 15.2288
Pd 7.20389 13.2871 17.1871
Au 9.25525 11.3323 17.1797
Pd 9.21642 13.2823 15.2276
Au 7.23761 11.3531 19.1365
Pd 7.2883 13.2908 21.1224
Au 9.3268 11.3599 21.1215
Pd 9.25666 13.2904 19.1545
Au 7.37361 11.3539 23.0771
Pd 7.37121 13.2779 25.0569
Au 9.32969 11.3484 25.1368
Pd 9.33006 13.2888 23.1617
Pd 7.36115 17.182 5.40219
Au 9.28447 15.2296 5.3035
Au 7.34818 15.2306 7.36234
Pd 7.28384 17.1673 9.337
Au 9.2947 15.2285 9.30623
Pd 9.32434 17.1658 7.29447
Au 7.20331 15.2297 11.2996
Pd 7.20424 17.1733 13.2701
Au 9.21858 15.2285 13.2655
Pd 9.25476 17.166 11.3014
Au 7.16494 15.2302 15.2287
Pd 7.20664 17.1721 17.1876
Au 9.22094 15.228 17.1902
Pd 9.21917 17.1743 15.2279
Au 7.20817 15.2292 19.1591
Pd 7.29117 17.1667 21.1232
Au 9.30175 15.2272 21.1501
Pd 9.25949 17.1647 19.1552
Au 7.35796 15.2283 23.0964
Pd 7.37409 17.178 25.0575
Au 9.29715 15.2265 25.1526
Pd 9.33291 17.1649 23.1624
Pd 7.42416 21.0192 5.43049
Au 9.3279 19.1028 5.31804
Au 7.37106 19.1017 7.38357
Pd 7.34143 21.0256 9.37793
Au 9.32611 19.0962 9.33473
Pd 9.36999 21.0222 7.34793
Au 7.2383 19.1078 11.3204
Pd 7.28434 21.0761 13.2755
Au 9.25844 19.1241 13.2758
Pd 9.32348 21.0708 11.3267
Au 7.20602 19.1291 15.2292
Pd 7.28707 21.075 17.1839
Au 9.26083 19.1232 17.1808
Pd 9.29783 21.1033 15.2288
Au 7.2433 19.105 19.1379
Pd 7.34682 21.0219 21.08
Au 9.3325 19.0945 21.1228
Pd 9.32766 21.0694 19.131
Au 7.37934 19.1028 23.0784
Pd 7.42878 21.0325 25.0377
Au 9.33542 19.1047 25.138
Pd 9.37952 21.0201 23.1101
Pd 5.59082 24.7821 7.45142
Au 9.3349 22.971 5.38105
Au 7.44379 22.9162 7.44978
Pd 7.40951 24.9061 9.36257
Au 9.37038 23.0298 9.37648
Pd 9.3429 24.9131 7.40917
Au 7.36027 22.9954 11.3163
Pd 7.35189 24.9405 13.259
Au 9.32307 23.0955 13.2722
Pd 9.31492 24.9967 11.3069
Au 7.34197 23.0201 15.2302
Pd 7.35595 24.9411 17.2005
Au 9.32517 23.0952 17.1863
Pd 9.28162 25.0183 15.2287
Au 7.36499 22.9944 19.1437
Pd 7.41103 24.9007 21.1077
Au 9.37439 23.0265 21.0843
Pd 9.31535 24.9942 19.1565
Au 7.44849 22.91 23.0126
Pd 7.45158 24.7495 24.8896
Au 9.3665 22.96 25.0685
Pd 9.3551 24.899 23.0493
Pd 11.2601 5.63916 5.52375
Pd 11.2823 5.4603 9.31097
Pd 13.2383 5.51389 7.35168
Pd 11.2566 5.38943 13.2566
Pd 13.242 5.38826 11.2687
Pd 11.259 5.38894 17.1943
Pd 13.2341 5.34931 15.2242
Pd 11.2897 5.45886 21.1398
Pd 13.2469 5.38729 19.1796
Pd 11.2722 5.6368 24.927
Pd 13.2482 5.51196 23.0966
Pd 11.2948 9.38263 5.34402
Au 13.2383 7.43115 5.35679
Au 11.2963 7.46179 7.36231
Pd 11.3102 9.38524 9.32662
Au 13.2536 7.35824 9.32244
Pd 13.2574 9.38009 7.28605
Au 11.2961 7.32971 11.3096
Pd 11.2858 9.31203 13.2715
Au 13.2501 7.26677 13.2611
Pd 13.2592 9.31086 11.2956
Au 11.2778 7.29119 15.2257
Pd 11.2882 9.31161 17.1804
Au 13.2525 7.26631 17.1878
Pd 13.2526 9.26725 15.2247
Au 11.301 7.32876 19.1417
Pd 11.3175 9.3838 21.1251
Au 13.261 7.35679 21.1263
Pd 13.264 9.30994 19.1537
Au 11.3062 7.45985 23.0889
Pd 11.3072 9.38006 25.1077
Au 13.2507 7.42865 25.0919
Pd 13.2673 9.37807 23.1632
Pd 11.272 13.2837 5.28744
Au 13.2508 11.3167 5.25563
Au 11.3044 11.3515 7.24398
Pd 11.2884 13.2898 9.26207
Au 13.2615 11.3302 9.26159
Pd 13.2558 13.2832 7.20912
Au 11.2877 11.3311 11.2989
Pd 11.2498 13.2782 13.2613
Au 13.2519 11.2877 13.2605
Pd 13.2514 13.277 11.2573
Au 11.2641 11.3031 15.2262
Pd 11.2522 13.2778 17.1915
Au 13.2543 11.2872 17.1893
Pd 13.2411 13.2644 15.2252
Au 11.2925 11.3302 19.1535
Pd 11.2956 13.2885 21.1909
Au 13.2689 11.3288 21.1882
Pd 13.2563 13.276 19.1931
Au 11.3144 11.3494 23.2082
Pd 11.2845 13.2809 25.1654
Au 13.2633 11.3141 25.1941
Pd 13.2654 13.2815 23.2413
Pd 11.2774 17.1697 5.28765
Au 13.2444 15.2253 5.22188
Au 11.2859 15.2268 7.21248
Pd 11.2915 17.1645 9.26247
Au 13.2544 15.2258 9.22503
Pd 13.2583 17.1689 7.20949
Au 11.2642 15.2271 11.273
Pd 11.2527 17.1757 13.2618
Au 13.2415 15.2255 13.2477
Pd 13.2544 17.1744 11.2578
Au 11.237 15.2267 15.2266
Pd 11.255 17.175 17.1921
Au 13.2439 15.2249 17.2032
Pd 13.2441 17.186 15.2258
Au 11.2689 15.2261 19.1804
Pd 11.2984 17.1629 21.1916
Au 13.2617 15.2242 21.2259
Pd 13.2591 17.1732 19.1937
Au 11.2952 15.2254 23.2411
Pd 11.2874 17.1692 25.166
Au 13.2558 15.2236 25.2288
Pd 13.2683 17.1664 23.2419
Pd 11.2975 21.0789 5.34659
Au 13.2536 19.1391 5.25696
Au 11.3104 19.1042 7.24467
Pd 11.3193 21.0697 9.32825
Au 13.2671 19.1218 9.2623
Pd 13.2644 21.0736 7.28711
Au 11.2939 19.1232 11.3
Pd 11.2948 21.1414 13.2735
Au 13.258 19.1631 13.2618
Pd 13.2683 21.1404 11.2973
Au 11.2698 19.15 15.2273
Pd 11.2968 21.1408 17.1822
Au 13.2601 19.1624 17.1906
Pd 13.2616 21.1828 15.2268
Au 11.2982 19.1218 19.1547
Pd 11.3261 21.0676 21.1268
Au 13.2746 19.1197 21.1895
Pd 13.2727 21.1391 19.1555
Au 11.3201 19.1014 23.2095
Pd 11.3157 21.0702 25.1095
Au 13.269 19.1332 25.1953
Pd 13.2758 21.0699 23.1649
Pd 11.273 24.8135 5.5221
Au 13.2503 23.0211 5.35819
Au 11.3047 22.9948 7.36325
Pd 11.2981 24.9953 9.31495
Au 13.2644 23.0937 9.3238
Pd 13.2512 24.9376 7.35268
Au 11.3096 23.1244 11.3135
Pd 11.273 25.0645 13.2617
Au 13.2628 23.1838 13.2643
Pd 13.2572 25.0633 11.2721
Au 11.2896 23.1616 15.2284
Pd 11.2731 25.0634 17.1968
Au 13.2643 23.1832 17.1904
Pd 13.2496 25.101 15.2282
Au 11.3124 23.1231 19.1439
Pd 11.3039 24.9925 21.1426
Au 13.2724 23.0917 21.1286
Pd 13.2612 25.0617 19.1824
Au 11.3175 22.991 23.0912
Pd 11.2862 24.8137 24.9298
Au 13.262 23.0188 25.0942
Pd 13.2623 24.936 23.0994
Pd 15.2073 5.62316 5.50299
Pd 15.2096 5.43375 9.27778
Pd 17.1785 5.511 7.34914
Pd 15.212 5.34813 13.2438
Pd 17.1797 5.3854 11.2662
Pd 15.2145 5.34766 17.2021
Pd 17.1925 5.34647 15.2216
Pd 15.2171 5.43229 21.168
Pd 17.1847 5.38444 19.1771
Pd 15.2195 5.62074 24.9428
Pd 17.1884 5.50904 23.0941
Pd 15.2099 9.34084 5.32169
Au 17.1787 7.42819 5.35423
Au 15.2098 7.43359 7.33944
Pd 15.2125 9.34881 9.29684
Au 17.1684 7.35535 9.31992
Pd 17.1651 9.37712 7.28353
Au 15.2122 7.28884 11.2863
Pd 15.2149 9.26606 13.2599
Au 17.1768 7.26395 13.2585
Pd 17.1682 9.30804 11.2931
Au 15.2147 7.24407 15.2232
Pd 15.2174 9.26559 17.1869
Au 17.1793 7.26347 17.1852
Pd 17.1796 9.26441 15.2221
Au 15.2172 7.28789 19.1599
Pd 15.2199 9.34739 21.15
Au 17.1759 7.35391 21.1239
Pd 17.1732 9.30707 19.1512
Au 15.2197 7.43162 23.1068
Pd 15.2224 9.33833 25.125
Au 17.1912 7.42572 25.0895
Pd 17.175 9.37519 23.1608
Pd 15.2132 13.2689 5.24916
Au 17.172 11.3137 5.25306
Au 15.2127 11.3253 7.20679
Pd 15.2153 13.2785 9.22148
Au 17.1663 11.3275 9.25896
Pd 17.1724 13.2809 7.20645
Au 15.2152 11.3007 11.2703
Pd 15.2178 13.2632 13.2461
Au 17.1808 11.2848 13.258
Pd 17.1817 13.2742 11.2547
Au 15.2176 11.2689 15.2237
Pd 15.2203 13.2626 17.2018
Au 17.1833 11.2843 17.1868
Pd 17.1969 13.2615 15.2227
Au 15.2201 11.2997 19.1771
Pd 15.2228 13.2769 21.2264
Au 17.1738 11.3259 21.1858
Pd 17.1868 13.2731 19.1906
Au 15.2226 11.3234 23.2405
Pd 15.2253 13.2667 25.1986
Au 17.1844 11.3112 25.1917
Pd 17.1827 13.2786 23.2389
Pd 15.2141 17.1821 5.24979
Au 17.1842 15.2243 5.2195
Au 15.2153 15.2249 7.16884
Pd 15.2179 17.1707 9.22186
Au 17.179 15.2233 9.22229
Pd 17.1747 17.1664 7.20681
Au 15.218 15.2243 11.2409
Pd 15.2207 17.1848 13.2466
Au 17.197 15.2226 13.2451
Pd 17.1845 17.1716 11.2551
Au 15.2205 15.2237 15.2242
Pd 15.2232 17.1842 17.2024
Au 17.1996 15.222 17.2008
Pd 17.1998 17.183 15.2233
Au 15.223 15.2231 19.2076
Pd 15.2256 17.1687 21.227
Au 17.1868 15.2214 21.2235
Pd 17.1896 17.1703 19.1913
Au 15.2255 15.2225 23.2794
Pd 15.2281 17.1777 25.1992
Au 17.1976 15.2207 25.2264
Pd 17.1855 17.1635 23.2395
Pd 15.2184 21.1091 5.32303
Au 17.1772 19.1334 5.25408
Au 15.2172 19.1248 7.20746
Pd 15.2205 21.1004 9.29796
Au 17.1715 19.1189 9.25975
Pd 17.1733 21.0695 7.28491
Au 15.2209 19.1478 11.2712
Pd 15.2239 21.1817 13.2618
Au 17.1866 19.1602 13.259
Pd 17.1766 21.1376 11.2944
Au 15.2236 19.1784 15.225
Pd 15.2263 21.1811 17.1889
Au 17.1892 19.1596 17.1881
Pd 17.1885 21.18 15.224
Au 15.2259 19.1465 19.1784
Pd 15.2285 21.0982 21.1518
Au 17.1795 19.1168 21.1871
Pd 17.182 21.1362 19.1532
Au 15.2283 19.1216 23.2418
Pd 15.2309 21.1062 25.1268
Au 17.19 19.1303 25.1929
Pd 17.1836 21.067 23.1626
Pd 15.2212 24.8268 5.50519
Au 17.19 23.019 5.3561
Au 15.2209 23.0159 7.34117
Pd 15.223 25.015 9.27966
Au 17.1796 23.0908 9.3218
Pd 17.1924 24.9356 7.35156
Au 15.2236 23.1596 11.2882
Pd 15.227 25.0998 13.247
Au 17.1884 23.1811 13.2607
Pd 17.1936 25.0601 11.2685
Au 15.2269 23.2031 15.226
Pd 15.2295 25.0991 17.2055
Au 17.1913 23.1804 17.1879
Pd 17.2072 25.098 15.2248
Au 15.2289 23.1583 19.1625
Pd 15.2314 25.0133 21.1709
Au 17.1875 23.0888 21.1264
Pd 17.1994 25.0589 19.1804
Au 15.2311 23.0135 23.1091
Pd 15.2335 24.8238 24.9456
Au 17.2026 23.0159 25.0918
Pd 17.2027 24.9331 23.0971
Pd 19.1545 5.63333 5.51869
Pd 19.1369 5.45457 9.30595
Pd 21.0857 5.54805 7.39917
Pd 19.1676 5.38374 13.2515
Pd 21.1254 5.45296 11.2918
Pd 19.1701 5.38326 17.1892
Pd 21.1586 5.42875 15.219
Pd 19.1444 5.45312 21.1348
Pd 21.1304 5.45194 19.1464
Pd 19.1668 5.63091 24.9221
Pd 21.0956 5.54611 23.0391
Pd 19.1251 9.37676 5.3389
Au 21.0743 7.48694 5.37986
Au 19.1233 7.45601 7.35725
Pd 19.1147 9.37957 9.32154
Au 21.0664 7.42067 9.36407
Pd 21.0611 9.42714 7.33822
Au 19.1283 7.32404 11.3045
Pd 19.144 9.30641 13.2663
Au 21.1155 7.3521 13.2619
Pd 21.113 9.37795 11.3173
Au 19.1516 7.28554 15.2206
Pd 19.1465 9.3059 17.1754
Au 21.118 7.35158 17.1767
Pd 21.1428 9.34388 15.2196
Au 19.1333 7.32306 19.1367
Pd 19.1222 9.37805 21.1202
Au 21.0739 7.41915 21.0747
Pd 21.1181 9.37688 19.1219
Au 19.1333 7.45407 23.084
Pd 19.1376 9.37428 25.1028
Au 21.0868 7.48447 25.0589
Pd 21.0713 9.42499 23.101
Pd 19.1529 13.2784 5.28229
Au 21.1049 11.3427 5.31024
Au 19.1206 11.3459 7.23882
Pd 19.1422 13.2845 9.25666
Au 21.1081 11.3529 9.32543
Pd 21.1075 13.2826 7.28578
Au 19.1425 11.3255 11.2937
Pd 19.1857 13.2725 13.2561
Au 21.1798 11.3241 13.2674
Pd 21.1811 13.2827 11.2929
Au 19.1711 11.2974 15.2211
Pd 19.1883 13.2719 17.1866
Au 21.1823 11.3236 17.1722
Pd 21.2215 13.2734 15.22
Au 19.1476 11.3244 19.1486
Pd 19.1499 13.2827 21.1861
Au 21.1158 11.3512 21.1143
Pd 21.1862 13.2816 19.1472
Au 19.1308 11.3436 23.2034
Pd 19.166 13.2752 25.1605
Au 21.1179 11.3397 25.1295
Pd 21.1179 13.2802 23.1544
Pd 19.1559 17.1666 5.28279
Au 21.1432 15.2209 5.29558
Au 19.1451 15.2223 7.20698
Pd 19.1448 17.1591 9.2571
Au 21.1387 15.2203 9.29799
Pd 21.1104 17.1587 7.28632
Au 19.1717 15.2215 11.2677
Pd 19.1886 17.1698 13.2567
Au 21.2196 15.2197 13.2578
Pd 21.1838 17.1572 11.2934
Au 19.2038 15.2208 15.2216
Pd 19.1912 17.1691 17.1872
Au 21.2222 15.2191 17.1828
Pd 21.2243 17.1653 15.2206
Au 19.1769 15.2202 19.1756
Pd 19.1528 17.1571 21.1867
Au 21.1466 15.2185 21.1427
Pd 21.1891 17.156 19.1478
Au 19.1558 15.2196 23.2363
Pd 19.1688 17.1634 25.1611
Au 21.1562 15.2179 25.1452
Pd 21.1208 17.1562 23.1551
Pd 19.1334 21.0675 5.34037
Au 21.1107 19.0991 5.31126
Au 19.1261 19.0982 7.23983
Pd 19.123 21.0638 9.323
Au 21.1137 19.0877 9.32648
Pd 21.0695 21.014 7.33974
Au 19.1481 19.1174 11.2946
Pd 19.1525 21.1358 13.2679
Au 21.1854 19.1152 13.2684
Pd 21.1214 21.062 11.3189
Au 19.1768 19.1443 15.2222
Pd 19.1553 21.1351 17.1773
Au 21.1881 19.1145 17.1734
Pd 21.1513 21.0949 15.2212
Au 19.1534 19.116 19.1499
Pd 19.1309 21.0618 21.1222
Au 21.1215 19.0858 21.1155
Pd 21.1267 21.0607 19.1237
Au 19.1365 19.0957 23.2047
Pd 19.1461 21.0644 25.1047
Au 21.1236 19.096 25.1307
Pd 21.0798 21.0114 23.1029
Pd 19.1683 24.8109 5.52115
Au 21.0853 22.9545 5.38187
Au 19.1344 22.9878 7.35921
Pd 19.1509 24.9887 9.30844
Au 21.0775 23.0198 9.36612
Pd 21.0996 24.8929 7.40165
Au 19.1396 23.1187 11.3066
Pd 19.1817 25.0583 13.2541
Au 21.1268 23.0873 13.2641
Pd 21.1394 24.9869 11.2944
Au 19.1631 23.1561 15.2229
Pd 19.1846 25.0577 17.1923
Au 21.1295 23.0866 17.1791
Pd 21.1727 25.0099 15.2218
Au 19.1451 23.1174 19.1393
Pd 19.1589 24.9867 21.138
Au 21.0854 23.0179 21.0772
Pd 21.1448 24.9856 19.1494
Au 19.1447 22.9852 23.0865
Pd 19.1809 24.8078 24.925
Au 21.0981 22.9513 25.0614
Pd 21.11 24.8903 23.0423
Pd 22.9892 5.6974 5.55897
Pd 23.0298 5.54659 9.34058
Pd 24.8678 5.69634 7.43482
Pd 23.0848 5.50612 13.2477
Pd 24.9128 5.62873 11.2694
Pd 23.0872 5.50556 17.1879
Pd 24.9335 5.61502 15.2166
Pd 23.0373 5.54497 21.0951
Pd 24.9178 5.62754 19.1639
Pd 23.0015 5.69507 24.877
Pd 24.8776 5.69396 22.9985
Pd 23.0116 9.41491 5.41048
Au 24.8607 7.53863 5.56427
Au 22.9921 7.53728 7.43574
Pd 23.0938 9.42548 9.36824
Au 25.0506 7.48395 9.35109
Pd 25.0188 9.4131 7.41492
Au 23.0757 7.45286 11.3046
Pd 23.1536 9.37226 13.2644
Au 25.0812 7.42171 13.2465
Pd 25.0956 9.37201 11.3018
Au 23.0986 7.42697 15.218
Pd 23.1561 9.37169 17.1721
Au 25.0838 7.42111 17.187
Pd 25.1179 9.33257 15.217
Au 23.0808 7.45176 19.1315
Pd 23.1014 9.42381 21.0683
Au 25.0581 7.48216 21.0825
Pd 25.1007 9.37083 19.1322
Au 23.0022 7.53516 23.0005
Pd 23.0245 9.41203 25.0262
Au 24.8735 7.53589 24.8693
Pd 25.0291 9.41087 23.0191
Pd 23.0663 13.2694 5.39064
Au 24.9002 11.3145 5.52818
Au 23.0611 11.3446 7.36976
Pd 23.1493 13.2808 9.32488
Au 25.1232 11.3391 9.32314
Pd 25.0419 13.2676 7.36364
Au 23.1973 11.3424 11.3103
Pd 23.2339 13.2757 13.2601
Au 25.1856 11.3072 13.2567
Pd 25.1554 13.2729 11.2767
Au 23.2345 11.3188 15.2185
Pd 23.2365 13.2751 17.1773
Au 25.1882 11.3066 17.1777
Pd 25.1937 13.2609 15.2174
Au 23.2024 11.3413 19.1267
Pd 23.1571 13.279 21.1127
Au 25.131 11.3374 21.1113
Pd 25.1607 13.2717 19.1582
Au 23.0714 11.3423 23.0674
Pd 23.0792 13.2664 25.0471
Au 24.913 11.3116 24.9066
Pd 25.0522 13.2653 23.0715
Pd 23.0692 17.1695 5.39117
Au 24.9126 15.2181 5.51923
Au 23.0825 15.2192 7.35174
Pd 23.1522 17.1569 9.32543
Au 25.1412 15.2174 9.28827
Pd 25.0448 17.1678 7.36419
Au 23.2323 15.2185 11.2887
Pd 23.2367 17.1607 13.2607
Au 25.2225 15.2167 13.2468
Pd 25.1583 17.1613 11.2773
Au 23.2756 15.2179 15.219
Pd 23.2393 17.1601 17.1779
Au 25.2251 15.2161 17.1886
Pd 25.1965 17.172 15.218
Au 23.2376 15.2173 19.1493
Pd 23.16 17.1551 21.1133
Au 25.149 15.2156 21.1473
Pd 25.1635 17.16 19.1587
Au 23.0928 15.2168 23.0865
Pd 23.0821 17.1665 25.0477
Au 24.9253 15.2151 24.9167
Pd 25.0551 17.1654 23.0721
Pd 23.0202 21.0241 5.41208
Au 24.906 19.1217 5.52929
Au 23.0668 19.0937 7.37084
Pd 23.1022 21.0122 9.36984
Au 25.1289 19.0956 9.32427
Pd 25.0273 21.0223 7.41663
Au 23.2029 19.0946 11.3114
Pd 23.162 21.0642 13.266
Au 25.1912 19.1264 13.2578
Pd 25.104 21.0623 11.3034
Au 23.2402 19.117 15.2195
Pd 23.1646 21.0636 17.1738
Au 25.1938 19.1258 17.1788
Pd 25.1264 21.1005 15.2186
Au 23.2081 19.0933 19.1278
Pd 23.1099 21.0103 21.0701
Au 25.1367 19.0937 21.1124
Pd 25.1092 21.061 19.1338
Au 23.0772 19.0913 23.0686
Pd 23.033 21.021 25.0281
Au 24.9187 19.1187 24.9078
Pd 25.0376 21.0198 23.0208
Pd 23.0028 24.7412 5.56136
Au 24.8721 22.8976 5.5666
Au 23.0032 22.901 7.43783
Pd 23.0436 24.8912 9.34325
Au 25.0617 22.951 9.35319
Pd 24.8813 24.7395 7.43745
Au 23.0869 22.9843 11.3067
Pd 23.0987 24.9304 13.2504
Au 25.0924 23.012 13.2487
Pd 24.9265 24.8058 11.272
Au 23.1098 23.009 15.2202
Pd 23.1013 24.9298 17.1907
Au 25.095 23.0114 17.1892
Pd 24.9473 24.8183 15.2193
Au 23.0921 22.983 19.1339
Pd 23.0515 24.8892 21.0981
Au 25.0695 22.9491 21.0848
Pd 24.9317 24.8045 19.1667
Au 23.0136 22.8984 23.003
Pd 23.0156 24.7379 24.8801
Au 24.8849 22.8943 24.8718
Pd 24.8917 24.7368 23.0015
