665
Atoms. Timestep: 20892
Pd 14.689 7.03706 5.40941
Pd 5.96994 17.8738 23.4133
Pd 17.6308 8.00449 13.9469
Pd 12.06 11.0894 19.4527
Pd 12.6661 10.5485 16.8459
Au 14.2256 14.1616 13.1607
Au 22.632 26.6863 13.4092
Pd 18.6618 13.2812 18.7236
Au 15.4864 4.29531 20.0508
Pd 5.64768 9.21503 7.82703
Au 24.4873 8.1044 13.372
Pd 17.9998 11.6291 23.6161
Au 9.53316 16.3286 14.039
Pd 18.6143 23.6958 11.6201
Au 3.83983 15.0037 10.0673
Pd 17.2918 23.5717 6.94816
Au 8.30994 4.04606 14.2428
Au 17.2098 5.67589 18.5138
Pd 17.7123 6.5793 11.4387
Au 24.7577 9.66319 16.6378
Pd 7.22349 14.0201 19.7608
Au 17.4432 16.0142 15.4537
Pd 23.4038 24.6755 11.9989
Au 16.1439 15.3539 27.0337
Pd 6.42593 16.2757 18.5302
Au 24.3367 12.3075 24.092
Pd 25.3052 12.5187 16.4494
Au 6.58225 19.4516 15.7514
Au 7.24 7.41281 9.80395
Pd 21.1954 17.8947 4.72608
Au 8.08973 9.46646 18.2139
Pd 4.53778 11.762 16.6078
Au 17.3161 5.17748 13.8789
Pd 2.0709 9.98181 11.6655
Au 21.6633 15.3899 22.239
Pd 12.4958 27.4855 13.5552
Au 17.801 20.9421 15.7028
Pd 27.3016 21.2495 16.7029
Au 19.481 6.44908 8.53904
Au 11.0163 18.2611 15.5051
Pd 15.2543 8.80291 13.2433
Au 23.6394 23.1994 9.74422
Pd 9.16437 19.8432 16.5436
Au 12.1986 7.46345 4.49784
Pd 20.9799 26.7031 20.0029
Au 14.3127 12.1381 18.1372
Pd 20.7814 15.6432 6.24918
Au 9.87302 7.77012 23.1412
Pd 16.2262 8.08883 17.8119
Au 8.77251 10.1769 4.04724
Au 17.1912 20.6116 3.94524
Pd 14.8739 22.5997 8.27496
Au 26.9078 15.3478 20.1986
Pd 3.0731 12.7523 20.6948
Au 6.20581 8.23858 12.261
Pd 18.6818 22.5886 4.95268
Au 11.4846 8.75682 21.1851
Pd 9.55795 20.4314 19.1947
Au 12.7172 10.5271 22.8222
Pd 19.1488 23.8507 8.95842
Pd 11.4374 9.82739 3.48079
Pd 19.9555 27.5503 13.6215
Pd 4.82771 12.7183 12.8789
Pd 9.20707 14.1055 25.9499
Pd 16.4635 4.24026 11.4515
Pd 11.0675 3.9877 14.8319
Pd 5.46523 17.0175 16.1978
Pd 7.41681 18.8485 18.3751
Pd 8.81343 16.5252 9.09055
Pd 11.4479 6.29666 16.7962
Pd 8.35937 17.0182 22.6434
Pd 4.55732 8.21073 10.156
Au 10.0401 6.20613 5.39579
Au 18.712 16.0536 4.53056
Pd 17.5081 10.5319 7.26069
Au 14.9056 19.8454 16.5931
Pd 10.4314 23.2266 21.9993
Au 26.1856 16.364 22.6722
Pd 16.043 14.3013 17.1278
Au 5.13963 14.4038 7.70887
Pd 10.2996 17.8856 18.2673
Au 15.5961 17.835 21.5055
Pd 20.3489 17.1061 15.5868
Au 8.24719 25.3619 13.8805
Pd 11.4323 13.287 6.85049
Au 23.7975 13.3792 14.3373
Pd 26.4011 21.7994 14.3458
Au 22.4816 8.36861 21.3892
Pd 14.1587 27.345 11.3616
Au 8.81992 18.28 6.94408
Pd 9.64835 13.5568 15.7859
Au 17.0916 12.2875 11.3509
Pd 12.0575 22.9844 13.4573
Pd 22.4665 24.4708 19.6637
Au 9.12572 25.2401 11.0307
Au 3.45521 18.6815 16.3968
Pd 3.16051 13.7634 15.3172
Au 10.3208 5.44679 19.031
Pd 20.1118 24.2003 20.9039
Au 10.7287 20.1909 6.45921
Pd 20.8856 5.91862 17.0273
Au 17.2642 11.6693 26.2251
Pd 13.6117 15.1702 17.829
Au 11.322 11.7074 14.84
Pd 10.997 20.6168 21.7033
Au 9.61778 12.9337 19.394
Pd 17.2974 18.4601 19.1408
Au 4.00309 17.2378 21.595
Pd 20.3463 21.8802 16.2107
Au 17.59 5.79528 21.2319
Pd 18.5702 27.5187 18.8129
Au 3.10712 15.9633 17.1817
Pd 8.13284 19.3586 24.0346
Au 9.14581 4.62403 16.7272
Pd 22.6123 17.1726 19.89
Pd 14.6291 17.6417 6.97546
Au 11.9233 14.5162 4.41155
Au 24.444 8.15161 10.6966
Pd 12.9719 8.59861 9.25123
Au 18.5919 4.21867 9.85729
Pd 6.90658 10.6597 13.1644
Au 7.47919 12.3161 17.5143
Pd 10.8177 14.0455 13.2109
Au 16.5631 9.00267 5.08457
Pd 6.87108 13.2033 6.01467
Au 22.7949 26.438 17.9154
Pd 17.8485 25.0945 20.286
Au 18.1464 17.0723 27.7307
Pd 4.65569 18.6965 14.0198
Au 21.3043 26.2393 15.5957
Pd 11.8006 20.3318 17.153
Au 16.61 23.2018 21.8893
Pd 18.6414 15.1891 25.8917
Au 13.2865 21.6845 15.4015
Pd 15.3887 7.01095 20.0596
Au 11.8334 3.72393 17.4178
Pd 16.3862 10.472 19.2568
Pd 22.2626 6.52263 14.4597
Au 17.354 28.2185 14.3506
Au 24.9422 23.4649 20.5496
Pd 16.6185 24.1471 9.60485
Au 20.1333 10.9194 6.2823
Pd 18.8141 12.7973 7.77935
Au 12.2557 16.2245 13.8844
Pd 17.3767 10.8293 14.2556
Au 16.5318 5.91977 8.99905
Pd 14.0795 16.9706 4.31714
Au 15.5183 6.94617 15.3942
Pd 9.40466 14.778 21.485
Au 1.97787 9.39002 14.3522
Pd 12.5563 14.5512 11.1183
Au 1.9905 11.3683 16.173
Pd 21.8863 18.6828 9.80866
Au 26.4633 19.2164 18.1385
Pd 8.69321 19.2287 21.3277
Au 9.15527 7.55211 20.2408
Pd 9.18312 11.2622 9.70855
Au 5.99776 16.7598 9.60087
Pd 9.34919 23.0672 12.6758
Pd 25.7916 18.8934 10.2716
Au 14.4388 26.9739 18.694
Au 9.53499 13.9983 10.7826
Pd 17.1156 20.5256 25.0804
Au 13.6588 18.5256 14.5434
Pd 17.8847 25.994 7.9203
Au 19.0711 3.80952 12.4696
Pd 18.3682 21.4448 22.8017
Au 12.5757 25.219 15.0735
Pd 19.0101 19.7074 20.8039
Au 24.4439 21.8022 22.6477
Pd 8.37085 12.3786 22.0211
Au 22.043 21.7638 24.0231
Pd 11.8327 6.14034 9.87144
Au 6.78965 10.5199 5.76432
Pd 6.50654 8.20611 20.0444
Au 8.81625 22.9954 19.7227
Pd 19.449 16.918 23.836
Au 12.8353 4.361 19.8016
Pd 25.2685 20.461 20.4729
Au 18.8711 27.289 21.4752
Pd 3.78219 14.6783 22.4068
Pd 16.1512 7.48012 22.783
Pd 14.4238 5.71957 17.8864
Pd 18.9576 8.52273 6.3846
Pd 13.3106 16.8429 20.0453
Pd 23.5319 10.3566 11.8234
Pd 17.9479 14.4773 20.9386
Pd 20.5172 25.0104 12.9263
Pd 11.3197 10.0201 10.8532
Pd 27.3712 12.6036 20.2998
Pd 14.7157 19.0946 19.2469
Pd 18.5506 26.1175 10.5856
Pd 16.1135 12.7995 8.5759
Au 13.9426 10.1023 11.2523
Au 19.8352 16.9447 8.83865
Pd 23.848 15.1806 12.1706
Au 9.20481 5.4133 10.0053
Pd 3.6055 8.0766 12.724
Au 7.62271 5.91114 18.7227
Pd 16.6791 13.8271 24.7537
Au 13.3224 3.79074 8.26318
Pd 8.54087 16.7786 19.9611
Au 18.1928 2.82126 14.9596
Pd 25.5906 21.4687 9.25429
Au 23.7906 19.7809 24.4535
Pd 13.6095 13.9044 8.53631
Au 14.2521 8.94325 24.4355
Pd 9.29204 11.529 6.36169
Au 14.8117 10.5481 26.5593
Pd 23.6242 17.4635 22.4176
Au 4.31921 19.8523 20.5494
Pd 20.0572 17.7848 18.6215
Au 12.1165 19.3983 19.6114
Pd 16.7924 2.10705 12.8643
Pd 24.324 17.0002 9.09952
Au 18.565 18.413 3.45004
Au 14.6818 15.2869 21.9647
Pd 12.9474 7.75645 11.8273
Au 14.5762 14.4186 3.45634
Pd 15.0587 6.24561 12.8096
Au 6.54464 9.95171 15.9945
Pd 16.1296 13.1756 19.6014
Au 15.7594 1.91463 15.4859
Pd 20.1867 15.5749 20.0128
Au 16.4684 27.474 20.2928
Pd 4.58325 10.4639 11.6263
Au 6.85209 17.1056 13.8578
Pd 6.28784 20.6363 13.3018
Au 14.3108 2.57511 11.12
Pd 20.3474 19.7009 23.4811
Au 15.3482 4.63705 6.64036
Pd 5.3653 9.93297 18.4363
Au 10.0207 4.2324 12.2919
Pd 19.4947 24.2712 15.3559
Au 13.4312 24.4932 19.3241
Pd 20.7586 21.6792 21.5798
Pd 17.0223 17.3489 25.3431
Au 15.8197 16.491 13.1254
Au 27.1979 11.9984 13.2707
Pd 14.0701 13.2791 5.8538
Au 10.709 4.64931 7.84235
Pd 13.0413 17.3935 22.8215
Au 21.8231 22.3247 11.8813
Pd 16.856 11.728 16.9342
Au 19.6896 5.43998 19.4534
Pd 26.3275 11.0622 18.3929
Au 17.3012 17.8281 8.06455
Pd 14.3407 11.4403 20.8858
Au 10.1765 21.1369 24.1772
Pd 7.43918 15.0248 15.731
Au 27.2429 13.8609 17.9006
Pd 11.9283 15.1317 22.076
Au 12.8132 24.2289 7.46424
Pd 11.5553 12.4828 9.69095
Au 22.6376 12.9013 10.5307
Pd 9.86516 22.2727 17.2509
Au 9.60858 10.4021 20.3081
Pd 21.1135 24.321 10.4552
Pd 11.2886 12.5585 21.4467
Au 16.7384 27.622 11.9125
Au 25.4916 24.3566 13.8263
Pd 9.52232 24.8757 17.5729
Au 6.83772 20.9717 20.0581
Pd 22.5224 23.7018 22.1957
Au 13.0128 21.78 6.40153
Pd 7.09588 11.856 8.20724
Au 2.88022 10.8397 18.7215
Pd 18.3112 18.4013 16.6276
Au 18.2895 6.42821 16.0922
Pd 13.178 16.5371 9.19198
Au 16.5025 16.3984 3.05323
Pd 21.5139 14.1516 12.6245
Au 13.4339 8.00133 16.7973
Pd 20.8367 17.8981 21.6347
Au 8.07694 13.9809 13.3262
Pd 17.7584 8.36708 8.99218
Au 9.61583 11.6715 12.4584
Pd 16.7711 13.0667 6.06652
Au 15.4966 19.0639 12.2295
Pd 21.7048 12.9711 23.5066
Pd 19.1843 20.4185 18.1555
Au 17.1596 6.69132 6.48289
Au 12.6094 19.9662 24.4764
Pd 14.0154 9.35778 18.9933
Au 27.1208 10.8671 15.7133
Pd 6.45799 12.6077 15.0047
Au 10.0512 11.4038 25.8823
Pd 5.22785 15.0216 14.2747
Au 12.0771 18.0434 5.79983
Pd 19.4737 21.3163 10.8257
Au 15.0407 18.6748 24.126
Pd 12.7123 6.99873 19.4767
Au 2.88247 13.0743 8.40206
Pd 16.8488 25.645 18.0628
Au 13.133 2.30168 15.4393
Pd 22.7668 21.5182 17.5157
Au 14.7426 24.0211 23.552
Pd 19.8038 21.9755 7.33747
Au 8.06599 21.0121 11.3796
Pd 14.4569 12.6378 10.7067
Au 8.67557 19.1757 13.6915
Pd 22.014 7.46058 9.73902
Pd 24.1692 22.2008 13.0185
Pd 8.90804 7.336 16.9526
Pd 28.202 15.7774 12.4821
Pd 19.8814 22.1036 13.592
Pd 11.3816 9.24541 24.9128
Pd 10.817 20.871 14.4893
Pd 15.2585 15.182 10.7496
Pd 24.2899 15.3571 21.0954
Pd 22.7435 11.4669 16.0127
Pd 17.9057 20.3737 6.46594
Pd 12.2684 19.1413 10.4582
Pd 20.4465 9.17787 8.44235
Au 21.7148 13.1112 6.40391
Au 15.689 21.9542 5.68593
Pd 22.7899 19.8503 21.9255
Au 20.6665 22.5626 18.8603
Pd 25.4455 15.1071 15.9587
Au 4.42397 16.8977 12.0957
Pd 14.7547 15.8842 24.6975
Au 5.26509 14.3228 17.0809
Pd 13.1403 9.92388 14.175
Au 25.7846 23.3998 11.3002
Pd 5.25084 7.93887 14.8164
Au 8.89219 15.0845 17.9212
Pd 10.0844 10.6234 23.0456
Au 21.1567 8.61953 23.6335
Pd 14.3926 1.08634 13.3747
Au 15.117 18.0667 9.68177
Pd 6.23022 10.8247 23.003
Au 7.91852 6.13124 12.4424
Pd 20.0737 9.34129 20.415
Au 14.325 19.6678 5.19532
Pd 12.4892 7.37249 23.3619
Pd 21.8234 11.5741 13.414
Au 9.89331 6.34396 14.5148
Au 11.9101 26.203 17.7256
Pd 11.3695 7.2006 7.44864
Au 19.3788 13.4821 5.21615
Pd 11.0628 10.2523 8.04906
Au 25.3409 21.9142 18.2692
Pd 17.9788 9.28058 16.2933
Au 23.1507 6.10809 11.9085
Pd 22.0582 10.9256 20.3157
Au 4.36281 10.4462 14.2804
Pd 10.8621 16.5039 11.2078
Au 18.0795 15.9262 18.1737
Pd 9.1897 14.1075 5.26992
Au 14.4376 3.0662 17.7234
Pd 25.0222 11.0444 20.7962
Au 22.9932 7.63006 16.8476
Pd 22.375 21.0642 14.6955
Au 10.7124 16.009 26.8399
Pd 23.177 14.0869 16.9932
Au 18.9057 4.02359 17.2264
Pd 21.9161 10.8716 25.0725
Pd 20.3788 10.9251 22.6293
Au 20.8173 25.9419 22.6379
Au 10.8012 24.9072 19.8986
Pd 8.29185 21.6749 14.8228
Au 26.1733 14.52 13.4252
Pd 5.08722 12.5702 9.85402
Au 20.6883 17.0482 26.7715
Pd 7.05701 11.093 20.175
Au 5.05534 20.2255 17.9149
Pd 9.98459 8.11926 9.51987
Au 13.4563 27.572 16.0602
Pd 21.1808 13.4639 15.2684
Au 3.48626 10.4714 9.17504
Pd 17.5693 14.6767 12.3333
Au 8.376 21.6636 22.2473
Pd 21.6563 21.4117 9.23023
Au 7.92498 9.17734 22.072
Pd 7.13439 14.3973 9.43012
Au 4.24848 15.0782 19.742
Pd 9.08862 13.656 7.96738
Au 7.48429 15.6984 6.95373
Pd 5.10488 12.531 19.0644
Pd 10.734 9.2839 13.2859
Au 23.6956 17.8654 11.6625
Au 20.491 26.2268 8.58703
Pd 13.9567 6.44339 8.04917
Au 13.2291 26.7314 8.6672
Pd 21.488 9.66626 17.7912
Au 10.3046 26.5576 15.5337
Pd 3.61562 9.17078 16.5772
Au 22.5283 9.26383 14.7164
Pd 14.7564 23.7709 14.2063
Au 3.1073 16.579 14.5916
Pd 2.76633 13.4129 18.0116
Au 5.59259 21.9665 15.5179
Pd 17.015 15.8925 23.1062
Au 15.2424 11.4791 24.1707
Pd 14.5644 20.6441 10.1563
Au 14.0517 9.5316 4.10499
Pd 10.813 21.1239 11.6039
Au 25.3542 11.3297 9.8804
Pd 21.6392 7.31748 19.1862
Au 21.1314 15.0968 24.9825
Pd 21.5921 20.004 6.80184
Pd 15.1138 26.5867 14.0696
Au 10.7752 25.0707 8.83112
Au 26.4899 20.923 11.8127
Pd 15.8076 15.8669 19.5851
Au 23.2046 16.0226 26.3335
Pd 8.68242 9.13709 11.6025
Au 23.8671 9.03461 19.1718
Pd 15.2024 21.3741 23.4936
Au 12.2507 11.143 5.67941
Pd 15.6975 22.6043 16.4417
Au 6.65766 10.0565 10.0966
Pd 13.4983 13.1309 23.0128
Au 7.67653 14.4898 23.5788
Pd 22.2057 15.9305 10.2427
Au 8.65275 6.59621 7.61398
Pd 8.47064 9.50775 24.7066
Au 20.5396 15.0753 17.3614
Pd 13.5454 17.1761 11.8107
Au 6.32716 18.1779 20.7079
Pd 8.39902 17.3484 16.3255
Au 20.0609 6.99409 21.5869
Pd 10.1453 23.7998 15.148
Pd 7.27937 12.433 11.2728
Pd 11.108 15.0814 8.83734
Pd 18.0488 11.1775 4.68001
Pd 17.3515 9.54246 11.7284
Pd 16.1755 13.0327 22.2243
Pd 13.3294 25.1904 12.4817
Pd 10.4223 13.1948 23.8323
Pd 11.7541 13.1971 17.7397
Pd 21.3686 19.3827 16.8501
Pd 27.0516 13.6552 11.0745
Pd 11.0889 15.8406 16.5925
Pd 14.0939 8.64191 21.5878
Au 19.9748 20.3024 4.70911
Au 12.5478 14.0276 15.3647
Pd 19.743 15.7484 11.2592
Au 4.71432 11.719 7.08299
Pd 21.8979 8.31254 12.3158
Au 19.8352 6.7428 13.3173
Pd 17.3888 23.0209 13.9149
Au 20.599 5.61433 11.0325
Pd 13.1483 8.89508 6.59421
Au 25.6821 19.1285 22.7252
Pd 19.1909 7.84782 18.2497
Au 21.4811 22.4898 5.47729
Pd 20.6608 14.4286 8.70595
Au 6.5614 18.5818 11.5967
Pd 7.83406 12.0897 24.6844
Au 5.40587 5.90562 13.1701
Pd 12.5332 5.14317 12.6839
Au 17.62 8.35933 20.3637
Pd 14.7956 3.71067 13.6355
Au 12.2258 2.50247 12.8694
Pd 12.5529 7.26278 14.3679
Pd 15.3795 7.83671 10.5143
Au 16.4434 18.5899 14.7801
Au 19.7251 24.6249 6.37299
Pd 19.2064 12.5006 13.4004
Au 18.1692 23.1748 17.4908
Pd 19.8814 25.2174 18.1108
Au 27.0996 18.2935 12.6013
Pd 19.4049 10.0098 25.1756
Au 27.5507 16.4565 14.9483
Pd 20.3469 8.17851 15.6862
Au 24.8927 17.3791 24.798
Pd 21.7156 19.7259 12.4557
Au 22.0098 17.6561 24.4393
Pd 12.368 22.0027 9.32282
Au 12.4042 14.7019 24.8497
Pd 8.13045 16.265 11.6273
Au 6.63018 14.2194 26.0588
Pd 15.1551 11.5414 13.0898
Au 19.6498 8.25428 10.8827
Pd 23.6345 11.556 18.4135
Au 11.7593 3.53378 10.3871
Pd 5.27355 13.0093 24.1666
Pd 16.0526 27.5634 16.5461
Au 9.38569 18.675 10.972
Au 19.8189 12.6459 25.5156
Pd 19.321 18.0761 6.36438
Au 9.85363 18.3212 25.8098
Pd 27.6736 13.5829 15.3516
Au 10.4255 12.2567 3.95572
Pd 27.1416 16.602 17.6569
Au 24.7028 15.949 18.4661
Pd 25.4573 17.7707 20.3207
Au 22.7037 15.7541 14.7918
Pd 11.1548 15.3242 19.3727
Au 13.0159 17.7755 17.3622
Pd 14.5485 15.9004 15.3792
Au 18.6623 10.8392 9.68411
Pd 23.0981 10.4737 22.7455
Au 15.3067 9.76931 15.8679
Pd 15.5127 21.1184 13.9921
Au 25.0897 13.424 19.3657
Pd 22.4857 16.9498 17.2513
Au 26.9696 19.0968 15.1477
Pd 15.7281 15.5267 8.19381
Pd 17.8703 14.5664 9.62675
Au 2.6674 12.524 10.9796
Au 23.0594 9.94158 9.19324
Pd 3.01355 14.6312 12.6686
Au 23.5022 21.9361 7.29547
Pd 21.337 17.0698 12.8876
Au 12.9987 19.6239 7.95104
Pd 18.2664 11.5201 20.9048
Au 7.54083 19.0574 9.11416
Pd 20.4791 13.0473 20.9214
Au 12.4351 17.4644 25.4405
Pd 10.993 17.8897 8.45628
Au 15.2026 25.3881 21.1946
Pd 24.7672 19.6421 13.4174
Au 4.23046 17.7802 18.8522
Pd 10.223 15.9759 24.1168
Au 26.1418 9.89577 12.0154
Pd 23.9356 25.5272 15.5875
Au 16.8426 19.3092 27.3774
Pd 17.4886 21.7275 8.81626
Au 10.0224 20.4075 8.99899
Pd 23.0308 21.8528 20.1266
Pd 24.7097 20.2944 16.0698
Au 23.0104 25.859 9.54556
Au 14.4997 13.2912 26.2342
Pd 26.5001 23.7654 16.3035
Au 7.50664 23.9358 16.0056
Pd 21.12 26.9058 11.1736
Au 16.5729 22.0196 11.4494
Pd 16.2837 10.0911 22.094
Au 12.6404 5.24866 5.9971
Pd 24.8392 12.6139 12.0687
Au 23.8027 19.192 18.5172
Pd 5.9216 14.7911 11.7223
Au 13.5646 11.1772 8.45148
Pd 19.5615 15.1499 14.0363
Au 4.54097 10.5074 20.9345
Pd 12.4145 12.0313 12.4064
Au 18.0334 25.2622 22.9426
Pd 12.601 22.2962 23.2721
Au 11.561 22.3085 19.6552
Pd 14.4109 12.2734 15.5075
Au 10.2755 16.0785 6.48735
Pd 19.9932 19.5206 14.5362
Pd 24.8334 10.8411 14.206
Pd 18.3233 22.2518 20.1121
Pd 16.6158 20.934 18.3788
Pd 13.3586 13.8189 20.1069
Pd 10.8554 17.4568 21.031
Pd 18.9739 10.6416 18.3815
Pd 11.6275 13.401 26.9772
Pd 21.0514 12.3895 18.0202
Pd 10.6102 18.5554 23.3489
Pd 13.5165 5.00627 15.5034
Pd 21.577 19.7968 25.9445
Pd 8.78842 11.0294 15.0317
Au 18.0206 25.7816 13.3813
Au 5.28787 15.6215 24.33
Pd 15.6017 18.8069 3.02807
Au 19.1062 18.9178 25.8377
Pd 11.2613 18.5943 12.9056
Au 19.7753 13.0285 10.8459
Pd 14.0709 22.7291 11.6975
Au 22.1865 17.5263 7.40169
Pd 17.3604 16.977 10.7736
Au 13.0104 15.6242 6.57441
Pd 20.998 10.5704 11.03
Au 17.2974 19.609 10.2592
Pd 14.503 25.0314 16.8459
Au 14.7832 17.7864 26.8252
Pd 16.2456 4.41019 16.2319
Au 22.4051 14.3207 19.4495
Pd 16.8208 24.9989 15.5591
Au 6.06819 7.57071 17.3776
Pd 24.5248 24.3774 18.0018
Au 23.8897 14.9577 23.8681
Pd 21.132 11.7615 8.63034
Pd 18.5889 8.90009 22.8077
Au 8.14956 8.4041 14.3173
Au 14.6754 20.4336 26.1247
Pd 6.24176 15.6699 21.622
Au 15.9001 26.7272 9.54643
Pd 13.1685 20.4834 12.7462
Au 17.6444 18.8427 23.074
Pd 11.5291 23.8157 11.0194
Au 21.8264 23.9438 7.82063
Pd 22.7812 18.4308 14.7713
Au 19.6301 18.5659 11.2312
Pd 7.12184 6.07089 15.3441
Au 23.7603 20.5642 10.8816
Pd 13.3776 15.5403 27.2084
Au 19.9975 23.5431 23.5471
Pd 10.9525 8.68173 18.4424
Au 12.6031 11.6531 25.2314
Pd 15.5236 8.52979 7.65172
Au 6.75539 23.2623 13.3432
Pd 15.7377 17.2947 17.2883
Au 19.989 11.0054 15.7392
Pd 9.35246 22.8589 9.85164
Pd 10.4229 6.97434 11.9764
Au 23.1086 15.0012 7.74269
Au 8.3456 9.36697 7.81968
Pd 15.9388 24.9398 11.9625
Au 16.8345 9.33366 24.8508
Pd 19.7375 9.68127 13.3469
Au 10.582 22.6865 7.46622
Pd 22.2245 23.7599 14.3144
Au 20.175 4.61463 14.8331
Pd 17.2735 23.1597 24.4975
Au 13.026 12.1616 3.34492
Pd 22.0044 24.0044 16.959
Au 18.6575 13.4872 16.0843
Pd 19.5392 19.632 8.61474
Au 10.7245 8.93307 15.8111
Pd 10.3547 8.99022 5.80168
Au 10.711 25.5501 13.0773
Pd 15.6322 20.0467 7.67622
Au 12.6749 24.6421 21.9122
Pd 15.2521 25.2251 7.46799
Au 17.9467 4.32735 7.33281
Pd 7.81403 16.6112 25.2699
Pd 15.9307 10.3737 9.54906
Au 25.9043 13.5505 22.2543
Au 19.5758 21.5959 25.3232
Pd 23.8868 19.5556 8.32386
Au 14.2063 5.21017 10.4679
Pd 26.0201 16.2971 11.1291
Au 15.9447 3.28335 8.97045
Pd 11.2311 6.01266 21.4689
Au 22.7574 13.2883 25.9913
Pd 23.3508 12.9306 21.537
Au 7.31586 21.6971 17.5545
Pd 15.9362 15.507 5.55315
Au 13.6253 19.8568 21.8328
Pd 11.6691 26.5665 10.8272
Au 19.1585 14.0888 23.2506
Pd 24.2239 22.8326 15.7302
Au 20.7568 27.9597 17.5372
Pd 18.4758 17.483 13.3473
Au 18.3084 17.0827 21.091
Pd 5.66329 13.0167 21.6269
Au 2.22576 11.9695 13.5346
Pd 16.72 18.1222 5.35896
Pd 15.9157 23.4179 19.1876
Au 7.87675 8.05841 5.50187
Au 18.709 26.8579 16.1482
Pd 13.9353 24.6442 9.9152
Au 24.8369 14.2798 9.72152
Pd 17.9666 20.2121 12.9412
Au 13.9778 5.77923 21.8513
Pd 16.2959 20.517 21.0867
Au 23.7252 12.3763 8.0604
Pd 25.0924 16.9644 13.8097
Au 13.9086 21.6525 18.4249
Pd 10.0417 11.1434 17.4061
Au 16.5534 13.519 14.463
Pd 21.4263 19.8305 19.5949
Au 24.9696 17.7035 16.3836
Pd 14.1165 22.4308 21.0681
Au 15.5949 11.7849 3.84686
Pd 15.0744 10.8791 6.32338
Au 17.2758 13.8699 3.56933
Pd 18.2365 15.3842 7.07992
Au 12.1654 23.4872 17.1322
Pd 6.14081 20.2602 22.4731
