665
Atoms. Timestep: 20749
Pd 17.4081 11.3082 14.5233
Pd 13.1406 21.9361 19.8455
Pd 7.58889 7.57342 15.4657
Pd 8.94471 18.0909 7.1255
Pd 12.6778 17.3818 17.2135
Au 5.31058 16.2694 22.1872
Au 21.518 19.5471 15.7634
Pd 20.6838 17.548 23.0401
Au 10.8083 13.6536 15.652
Pd 10.5896 12.6743 7.65709
Au 25.8784 18.9618 15.1632
Pd 19.4185 12.8845 23.6252
Au 24.2162 19.7513 20.687
Pd 16.5486 24.9967 11.9125
Au 16.5509 26.8066 9.93108
Pd 22.1707 19.6951 11.1999
Au 14.1939 4.95215 15.1136
Au 17.4342 1.97976 15.7939
Pd 12.7546 14.1294 7.95979
Au 22.3379 6.5259 13.5725
Pd 3.95299 15.69 13.8862
Au 27.5086 14.849 12.7452
Pd 21.5933 15.6537 10.818
Au 24.9326 12.8343 20.3973
Pd 10.6167 3.84446 17.8327
Au 25.2419 21.6978 14.2197
Pd 14.3839 17.9445 26.6439
Au 10.2457 11.768 5.21771
Au 14.4154 5.0538 21.4351
Pd 24.1438 6.64387 9.14935
Au 6.05419 16.552 17.3719
Pd 11.8211 8.63713 22.9041
Au 9.12387 5.66109 16.5092
Pd 7.53243 14.7124 22.054
Au 14.0935 13.3208 27.1747
Pd 13.865 24.726 13.1779
Au 18.6695 8.84502 13.9665
Pd 15.049 20.6311 21.1834
Au 24.0578 15.2904 6.71802
Au 8.74339 20.0997 9.02209
Pd 11.1852 11.2784 21.3755
Au 18.981 20.3058 11.2402
Pd 5.18415 9.78087 21.3744
Au 17.0727 9.76787 4.75359
Pd 18.9843 13.1482 15.7172
Au 12.7873 18.9172 3.2664
Pd 9.16674 11.4578 9.54898
Au 4.28241 22.6522 17.9044
Pd 14.4118 9.66755 5.49845
Au 20.784 20.1465 8.99692
Au 14.0437 26.6058 11.075
Pd 12.8331 24.8267 6.09756
Au 24.1704 23.3787 16.4132
Pd 10.6379 6.32276 18.8758
Au 10.6522 9.88425 7.57669
Pd 14.5015 22.3238 12.2919
Au 8.53929 10.6828 25.3961
Pd 17.5402 7.91631 22.5124
Au 15.6452 2.20018 17.9595
Pd 10.3643 15.556 7.89202
Pd 8.32883 16.4752 15.6294
Pd 17.735 11.224 19.6234
Pd 9.06152 8.2269 18.0665
Pd 15.6519 15.603 26.6056
Pd 10.5436 7.21843 8.50752
Pd 18.8692 5.97115 21.0403
Pd 7.10214 9.82893 17.0926
Pd 10.4312 18.3129 15.8971
Pd 13.4012 14.3096 14.4155
Pd 9.96881 4.49506 20.5981
Pd 14.6404 23.4812 15.4924
Pd 8.54634 18.6505 14.09
Au 12.8821 11.5221 6.85891
Au 20.6767 12.3809 4.96894
Pd 11.0422 13.6803 10.0711
Au 17.6416 13.8971 17.8692
Pd 9.62822 16.1604 5.36776
Au 13.46 10.6499 23.5221
Pd 11.3785 18.3224 22.337
Au 15.4109 15.0316 8.30526
Pd 4.71183 13.8811 21.4035
Au 12.4198 14.9469 18.455
Pd 19.4466 12.6723 20.9209
Au 3.61858 15.7081 16.5841
Pd 15.3309 21.8816 8.9116
Au 23.2107 8.8408 8.09018
Pd 16.7854 20.8531 24.7201
Au 15.8512 20.1625 27.1368
Pd 22.4561 20.1661 22.9266
Au 19.1646 16.0287 11.9962
Pd 4.38223 15.7927 19.4459
Au 20.8515 8.54349 15.5167
Pd 11.0241 24.6624 13.4342
Pd 20.0732 19.9568 17.9341
Au 13.1922 20.3277 26.7958
Au 11.5647 18.146 26.7917
Pd 6.87668 18.0224 8.87931
Au 10.7882 11.151 26.9201
Pd 12.3301 11.9219 14.0743
Au 17.0315 12.2396 22.5687
Pd 23.4181 13.4195 11.1176
Au 18.8411 8.672 20.2534
Pd 11.2841 14.0941 20.7533
Au 12.3102 6.87355 20.8818
Pd 24.4347 9.6892 17.0163
Au 6.5422 24.812 14.0756
Pd 16.5245 18.9929 22.7793
Au 6.36262 13.2715 7.68124
Pd 24.0822 10.8998 22.0035
Au 15.4691 28.2594 15.3587
Pd 14.8856 22.0602 23.3493
Au 12.8163 15.7951 26.9735
Pd 9.37734 8.55754 24.0359
Au 14.7789 11.8026 21.171
Pd 16.0417 9.8852 23.4992
Pd 10.99 18.2131 12.9043
Au 22.5187 17.5473 6.24578
Au 16.2753 7.29061 24.8288
Pd 9.4766 9.50412 15.7555
Au 6.54453 12.0124 21.4679
Pd 4.97949 20.3856 8.67116
Au 5.55107 22.6908 10.0712
Pd 22.4196 17.8615 9.20352
Au 16.9808 15.2267 10.6032
Pd 16.9685 6.2149 7.56161
Au 22.9923 24.1219 11.1553
Pd 19.2537 17.9987 16.1271
Au 17.7609 11.4453 25.1686
Pd 17.1196 26.987 17.0133
Au 18.5565 24.9604 13.8264
Pd 23.407 19.4966 13.8303
Au 8.1815 24.7892 20.4512
Pd 25.9123 11.65 18.1877
Au 3.74299 18.0192 18.0343
Pd 16.4122 6.71798 20.4373
Au 9.75565 10.747 18.9478
Pd 21.9833 14.9551 18.7931
Pd 9.08106 15.4904 19.6718
Au 7.43074 12.7406 23.9693
Au 15.1725 20.06 10.9324
Pd 12.4236 9.62435 12.0735
Au 21.4747 3.71141 14.8691
Pd 13.4777 16.0633 6.11273
Au 9.16344 18.178 20.7307
Pd 9.91816 6.54935 22.3398
Au 13.7591 8.56585 16.4888
Pd 13.2056 12.5859 11.6097
Au 23.5811 4.2574 13.1866
Pd 9.97021 15.9834 22.2485
Au 14.6249 7.71724 22.3614
Pd 14.6302 10.4192 10.8916
Au 14.0538 5.74071 24.0518
Pd 25.6399 11.5569 10.4736
Au 20.3359 8.15756 22.5442
Pd 22.6809 7.03398 23.2218
Au 6.48982 10.2398 23.6886
Pd 18.186 4.39989 11.6258
Au 11.5126 14.1793 5.48517
Pd 15.2311 25.8528 19.4675
Pd 19.8364 15.4623 17.1778
Au 18.6275 23.1747 20.4568
Au 3.81947 13.2682 15.2222
Pd 26.7053 8.92391 18.0351
Au 4.46348 18.2363 20.6725
Pd 12.9212 27.9812 16.1767
Au 19.8442 9.82538 4.94283
Pd 21.2661 24.0067 21.1211
Au 7.0174 24.6865 11.4273
Pd 19.3123 15.7127 14.5796
Au 16.2759 18.7072 19.94
Pd 20.3819 11.1106 14.6074
Au 20.153 15.3814 24.6856
Pd 17.6647 16.8796 3.83222
Au 7.96732 7.71641 12.7551
Pd 18.819 10.3515 22.4698
Au 14.1064 24.3856 24.5287
Pd 22.4284 9.0299 21.0776
Au 21.2628 19.3497 20.7001
Pd 18.9739 22.2874 13.1346
Au 17.287 24.2303 16.2092
Pd 8.55965 22.9281 18.6452
Pd 12.9278 15.8613 22.2921
Pd 24.5657 8.27797 13.1732
Pd 16.8876 20.4506 13.15
Pd 3.97761 20.465 19.3237
Pd 22.9846 6.03167 18.2969
Pd 18.4084 8.8688 24.854
Pd 11.9503 26.1119 9.32259
Pd 6.29206 17.0792 14.0735
Pd 17.1945 14.3324 24.6434
Pd 10.5326 20.5623 14.2781
Pd 17.104 25.4532 21.5243
Pd 17.6891 17.2572 8.83493
Au 17.3417 13.4967 5.94283
Au 21.7294 13.8469 15.9044
Pd 25.2818 6.02989 14.3854
Au 12.6347 8.06184 6.95504
Pd 16.4976 2.61457 13.1552
Au 7.43806 17.6509 5.04798
Pd 9.09999 19.7487 22.9585
Au 8.23915 6.68157 20.2121
Pd 6.11665 19.1156 18.6868
Au 22.0746 8.67226 18.0939
Pd 21.8791 3.52516 17.5305
Au 21.3159 11.6677 11.5005
Pd 16.1729 15.9183 5.8036
Au 22.6712 5.11678 10.7423
Pd 19.4302 15.3981 9.17895
Au 19.7093 3.33015 20.5024
Pd 23.6575 15.6246 16.9157
Au 10.1132 9.16069 10.3754
Pd 10.8644 4.87446 10.0366
Au 6.75382 12.4235 13.2114
Pd 24.9357 15.3875 12.2604
Pd 18.7895 15.7218 6.61962
Au 23.6672 6.18465 20.9624
Au 6.6537 19.5814 6.71975
Pd 15.0095 5.02732 12.5718
Au 21.1177 24.0982 9.24659
Pd 12.7556 23.1099 17.2705
Au 21.0337 5.18565 22.346
Pd 16.6229 9.66077 12.3959
Au 18.0793 7.00784 15.8995
Pd 12.1595 11.1203 9.51549
Au 19.0449 22.2618 24.5519
Pd 14.557 20.716 14.7231
Au 6.62293 21.4567 17.437
Pd 8.69348 13.8078 6.15038
Au 18.7801 11.2997 12.2998
Pd 20.8526 21.886 19.5527
Au 15.6653 7.16676 14.2218
Pd 10.0644 6.67294 14.1333
Au 11.9358 9.50849 14.7713
Pd 12.3425 24.1779 11.0991
Au 17.627 24.8845 18.7269
Pd 6.69795 18.9766 16.0371
Pd 16.4396 9.16685 15.7295
Au 15.1901 26.0541 5.61342
Au 21.6604 22.7998 23.6004
Pd 7.11662 21.8978 8.05778
Au 6.47965 5.11212 16.4843
Pd 15.3552 16.8584 24.167
Au 12.8731 16.7969 8.65419
Pd 11.7715 9.685 5.12323
Au 22.1746 4.19175 20.1366
Pd 22.9436 22.0061 21.0876
Au 15.3833 17.671 7.67163
Pd 12.4788 4.34 19.7217
Au 16.0603 27.7155 12.581
Pd 9.31768 25.399 15.4168
Au 25.5711 19.7363 12.3222
Pd 12.8821 21.6094 10.1857
Au 15.5268 11.9001 4.09384
Pd 11.8063 20.3648 5.28351
Au 15.0777 4.71041 18.8658
Pd 18.6519 20.1376 20.2884
Au 4.98172 9.28733 18.72
Pd 19.0878 14.6033 4.21817
Pd 10.3391 13.3265 18.3118
Au 21.45 15.0236 5.38461
Au 21.0523 8.05446 6.61739
Pd 6.0143 14.7756 15.2612
Au 6.76077 19.5592 21.3903
Pd 19.1646 26.0822 9.2974
Au 8.275 25.7789 17.9652
Pd 15.0841 12.0745 13.4085
Au 13.0172 3.21291 10.1016
Pd 12.9065 7.17744 13.9886
Au 17.1996 4.91499 14.1576
Pd 6.55953 8.53619 10.5337
Au 10.4078 27.2161 17.0807
Pd 15.1645 12.3109 24.8081
Au 24.787 8.33732 22.0759
Pd 10.1104 15.826 26.6769
Au 14.5276 13.6117 5.94944
Pd 21.1523 10.719 7.28359
Au 9.53827 13.2052 25.7455
Pd 16.7909 13.8087 20.4012
Au 4.60778 10.9073 14.1865
Pd 14.4103 19.6096 24.5283
Pd 15.5637 6.73243 16.9649
Au 15.1578 14.6332 12.4902
Au 16.1076 9.46797 20.7658
Pd 14.6581 10.191 18.4857
Au 22.7108 9.55511 23.8709
Pd 14.5619 7.75582 11.7587
Au 13.5341 27.2554 13.7085
Pd 9.94277 18.7063 4.46958
Au 13.7424 21.8242 6.60981
Pd 23.6329 13.0603 17.8414
Au 10.0713 8.71639 20.7786
Pd 12.7479 17.4011 24.5395
Au 18.4972 7.66703 5.78253
Pd 10.3156 22.585 9.15269
Au 16.6184 21.5685 19.295
Pd 25.0898 15.1055 19.0922
Au 19.3769 22.2805 5.2759
Pd 8.4988 13.8503 8.89046
Au 6.62194 20.135 10.6563
Pd 21.1964 6.93878 20.1767
Au 18.586 17.6414 21.3836
Pd 23.6683 10.5309 11.9995
Pd 16.9605 18.264 25.7767
Pd 14.6174 7.0561 8.34378
Pd 27.082 10.737 16.0502
Pd 21.4784 17.5444 17.9554
Pd 16.5063 8.8333 7.16278
Pd 17.3441 24.317 5.35535
Pd 15.2849 24.0131 7.28507
Pd 17.0171 8.63613 18.2857
Pd 19.0263 6.27893 23.9821
Pd 19.0989 24.1744 11.209
Pd 16.5614 21.6284 16.1619
Pd 15.4591 23.3833 20.9965
Au 13.9181 18.7199 5.65865
Au 12.835 11.9829 4.24484
Pd 24.0799 20.7526 16.3279
Au 20.2363 12.8262 18.1978
Pd 26.5495 17.4251 12.9473
Au 10.895 27.3196 14.4007
Pd 14.4268 9.54972 13.8229
Au 11.1602 7.06958 11.6641
Pd 16.8552 16.4946 13.4814
Au 19.584 5.77491 7.35921
Pd 14.3394 7.64343 19.2648
Au 14.1869 16.8367 19.6962
Pd 18.685 3.9315 22.7762
Au 21.6764 16.7025 15.3926
Pd 10.5241 17.9744 9.1913
Au 16.115 5.73032 10.2867
Pd 13.1696 13.1684 16.7459
Au 11.3404 16.1328 14.7441
Pd 20.2235 4.52257 9.74651
Au 10.2987 24.9306 7.67196
Pd 21.2166 6.01416 16.2725
Pd 21.5176 13.2929 9.32104
Au 17.6865 18.1365 6.20459
Au 19.3026 24.2711 7.24012
Pd 18.7472 19.7201 4.37937
Au 18.8774 9.00797 10.9676
Pd 14.907 4.3431 8.41041
Au 17.6228 13.815 13.3028
Pd 23.8401 24.0562 13.7531
Au 26.1507 8.37271 15.389
Pd 20.1413 5.07663 18.6135
Au 19.4694 11.4207 9.31664
Pd 8.25208 11.3353 7.05498
Au 16.3583 14.4563 3.56618
Pd 17.4796 13.3221 8.62695
Au 20.4294 10.6574 24.9075
Pd 13.1826 19.2812 19.656
Au 18.3375 14.9404 22.2546
Pd 19.3107 15.0674 19.7761
Au 19.333 13.3585 26.2753
Pd 13.8471 8.35081 24.8948
Au 17.7137 4.0391 8.91615
Pd 18.1955 3.03529 18.2938
Pd 21.046 14.5365 22.1617
Au 22.853 7.84031 11.1572
Au 16.7431 23.8403 23.7861
Pd 16.5505 23.0454 13.7921
Au 26.1144 10.4201 13.5452
Pd 6.31136 6.05884 11.8677
Au 8.42829 17.8277 17.9834
Pd 13.9148 14.7723 24.811
Au 4.55724 11.8653 19.6117
Pd 7.24309 10.0052 14.3272
Au 10.4485 26.3434 19.7809
Pd 18.822 18.4373 13.5227
Au 7.64575 17.4007 22.8847
Pd 8.57552 23.2767 6.36446
Au 14.7783 28.1661 18.2797
Pd 10.7743 22.3767 12.1088
Au 12.1893 20.4815 16.439
Pd 16.593 18.7718 15.2009
Au 12.0256 28.6878 18.6016
Pd 10.6915 11.6014 11.7551
Au 14.4094 26.2869 8.25753
Pd 7.54046 23.685 16.2568
Pd 9.95924 9.27141 13.084
Au 17.2406 19.937 9.12183
Au 24.7656 17.7114 7.89515
Pd 8.77881 13.546 11.65
Au 14.4297 25.572 22.2142
Pd 11.5789 11.0555 16.8823
Au 6.13125 21.8948 20.0234
Pd 15.8083 11.4834 6.84352
Au 25.465 6.59898 17.275
Pd 20.7464 20.3168 13.3174
Au 5.67286 7.36461 20.4582
Pd 5.41876 8.57993 12.991
Au 17.5089 27.4536 19.5743
Pd 19.0408 4.4524 16.1856
Au 15.0619 22.3865 26.0399
Pd 18.9157 20.3185 7.06967
Au 16.9638 11.3663 17.1193
Pd 4.00258 18.1317 12.6443
Au 27.6887 12.229 12.1397
Pd 9.09297 20.4112 16.7252
Au 25.4371 19.396 18.2681
Pd 24.6002 13.3074 8.58011
Pd 17.4471 19.5732 17.6296
Au 13.1546 16.4684 12.6886
Au 24.5363 19.6197 9.85832
Pd 9.76057 24.7619 10.7595
Au 21.9802 24.7684 15.8386
Pd 18.5715 6.5939 9.68335
Au 19.9872 2.0349 16.4506
Pd 14.0639 18.2436 22.0947
Au 12.4928 5.45498 8.00022
Pd 4.3642 20.308 16.6523
Au 7.92231 24.3368 8.81087
Pd 7.50291 21.3563 14.8556
Au 10.1481 22.801 15.796
Pd 22.6825 19.9197 18.5188
Au 16.8793 21.7098 4.53853
Pd 16.1061 16.467 21.6154
Au 18.8796 20.6029 15.3494
Pd 10.2956 15.9431 17.3102
Au 13.6049 14.5002 3.61964
Pd 5.04048 13.7254 17.642
Au 17.1607 26.1186 7.36737
Pd 4.4084 18.168 9.97704
Pd 6.24047 24.1767 18.5838
Pd 6.01766 15.4649 9.43046
Pd 11.409 20.3088 8.04788
Pd 18.9492 19.5575 23.573
Pd 6.55275 14.9705 12.4367
Pd 24.4227 21.8542 18.7798
Pd 6.82771 16.9584 20.1402
Pd 7.53189 15.8773 7.27598
Pd 10.6103 23.4557 20.5419
Pd 19.0949 22.2182 9.21137
Pd 23.2032 11.1782 9.32662
Pd 17.6614 5.75731 18.3923
Au 23.2838 17.742 22.1726
Au 6.02063 22.3245 12.7022
Pd 25.9194 16.9638 17.3232
Au 22.8309 23.8848 18.876
Pd 17.0284 4.00612 20.5611
Au 11.1762 7.55842 16.444
Pd 16.807 16.1977 19.0454
Au 8.08837 4.63138 18.6377
Pd 8.53254 16.0751 10.0964
Au 26.6329 15.8749 15.0599
Pd 17.3506 22.3947 7.16304
Au 23.4577 13.2733 22.8448
Pd 13.0313 6.01259 17.6502
Au 8.2609 8.91366 8.44619
Pd 13.2621 9.62123 20.8656
Au 6.61599 14.3222 19.6424
Pd 14.3251 9.80128 8.32011
Au 11.0681 2.8093 11.9995
Pd 15.2137 18.1012 17.4285
Au 8.58766 6.77062 10.2622
Pd 22.7213 12.4231 13.7844
Pd 13.8125 2.67393 12.6083
Au 12.7659 23.6933 8.46495
Au 23.0752 19.9345 7.52709
Pd 12.6208 11.9986 19.2649
Au 10.7285 20.1657 10.8116
Pd 22.9125 21.8812 9.42123
Au 21.1744 22.1606 7.26148
Pd 26.0521 14.0189 16.945
Au 23.7043 4.73991 15.9847
Pd 23.0823 9.92384 14.6285
Au 20.641 26.6322 13.9137
Pd 11.449 26.7163 11.8725
Au 21.3381 17.6441 12.8812
Pd 12.9151 18.5501 14.7548
Au 11.573 6.57088 24.4788
Pd 14.7193 16.8984 3.74157
Au 11.4923 16.8772 20.0418
Pd 10.5973 24.4975 17.8602
Au 12.2262 2.64363 14.6893
Pd 18.0365 16.9098 23.9114
Au 5.07898 8.68302 15.8344
Pd 6.37566 13.0642 10.5016
Pd 12.68 22.0719 24.8827
Au 6.51781 10.8701 9.06938
Au 22.7262 15.7152 23.9091
Pd 17.543 6.97145 12.2811
Au 12.8111 13.13 22.6942
Pd 20.3176 24.3398 18.2961
Au 12.4696 22.5305 14.347
Pd 12.8005 18.4834 10.7996
Au 11.5986 25.6971 22.1244
Pd 20.8549 4.14691 12.3396
Au 21.0911 26.0141 11.2672
Pd 12.7707 20.5891 22.5046
Au 10.4927 22.0335 23.2405
Pd 12.1841 4.88131 12.9221
Au 25.0321 8.95221 10.2669
Pd 20.6719 10.5531 19.6349
Au 5.34272 6.41113 14.4331
Pd 16.4667 12.5171 11.1518
Au 15.7235 3.11149 10.6561
Pd 16.7151 13.1432 26.9378
Au 24.9338 6.13987 11.6815
Pd 20.0823 17.3524 4.9249
Pd 14.6123 12.5142 9.10719
Au 11.9501 4.78375 22.4937
Au 25.2558 12.786 12.8438
Pd 12.2725 12.7383 25.2698
Au 8.8105 26.1647 12.8761
Pd 11.0969 16.1592 10.989
Au 3.93277 20.5971 14.0476
Pd 22.4209 15.1609 13.2654
Au 10.7283 20.6162 20.8492
Pd 6.46838 12.2327 15.8333
Au 8.42939 15.3197 24.5175
Pd 12.9862 24.5171 19.9805
Au 18.9762 17.6433 18.8023
Pd 19.9629 17.9484 10.3875
Au 4.34105 13.3146 12.5441
Pd 9.89915 13.2774 22.9907
Au 19.0796 2.90834 13.8922
Pd 8.46098 14.0826 14.4929
Au 8.62905 23.4076 13.3903
Pd 20.139 17.8783 7.60219
Au 9.05296 16.1487 12.8997
Pd 8.41933 22.0898 21.4376
Pd 15.3399 14.257 22.738
Au 21.1628 24.0965 13.2008
Au 21.7442 13.1257 24.8205
Pd 16.9947 22.2608 11.0834
Au 11.2773 15.1186 24.4541
Pd 8.57181 20.7696 12.5144
Au 13.8643 19.6062 8.49426
Pd 10.8442 21.7219 18.4055
Au 9.22341 20.6662 6.46675
Pd 9.30175 5.01363 12.1096
Au 21.7688 22.147 17.1117
Pd 11.1263 14.1276 12.8591
Au 26.3912 14.1243 10.4454
Pd 24.4538 8.13546 19.3239
Au 7.42534 8.16146 22.3049
Pd 4.21432 15.7525 11.2897
Au 23.4876 15.262 21.133
Pd 11.4046 19.7804 24.6862
Au 17.2106 16.2254 16.2886
Pd 8.92365 11.9184 16.6119
Au 18.0694 27.5791 14.5048
Pd 13.5291 14.8701 10.4157
Pd 18.2546 15.9037 26.5086
Pd 19.8172 23.2068 15.5392
Pd 23.7767 17.6414 11.6643
Pd 19.6372 7.63537 17.9443
Pd 12.7787 20.3484 12.6923
Pd 19.8681 13.3856 7.2399
Pd 23.492 10.7494 19.2724
Pd 15.9142 9.79327 26.0962
Pd 14.07 14.2839 20.4039
Pd 16.3483 4.26205 16.5506
Pd 18.6938 22.2513 17.7772
Pd 11.1539 22.6052 6.5972
Au 19.5102 25.8548 20.4413
Au 15.2025 23.4942 18.1795
Pd 14.7762 25.8641 16.7001
Au 9.34585 24.378 22.7494
Pd 12.6738 26.1797 18.1206
Au 9.80851 3.67237 14.3574
Pd 12.7753 23.2643 22.2977
Au 22.3729 22.0439 14.5149
Pd 16.1537 19.0737 4.12129
Au 18.258 12.0061 3.94714
Pd 10.8043 10.951 24.0626
Au 14.8694 23.5605 4.64982
Pd 8.42001 20.3603 19.3446
Au 21.3853 11.3486 22.4015
Pd 21.3815 6.86676 8.99082
Au 11.4317 13.6489 27.633
Pd 24.2205 16.9857 14.3171
Au 11.92 8.97105 18.6531
Pd 21.0079 22.1797 11.2576
Au 15.1815 12.7716 18.4842
Pd 16.5774 5.46139 22.9057
Pd 20.3913 6.72718 11.5611
Au 7.60977 5.16183 14.0945
Au 22.4182 18.2337 24.821
Pd 11.6333 5.0443 15.641
Au 6.373 17.3953 11.4643
Pd 19.016 8.79288 8.19818
Au 14.5305 20.7253 17.7042
Pd 4.2183 18.034 15.3419
Au 15.5683 27.8205 21.206
Pd 21.1345 9.17391 12.7676
Au 15.9684 13.6504 15.5212
Pd 7.45721 9.52638 19.9343
Au 21.101 19.8316 5.7013
Pd 22.0037 11.1632 16.8414
Au 18.5963 26.9087 11.8664
Pd 23.9722 15.6589 9.62078
Au 10.8071 19.009 18.4966
Pd 6.16127 19.5954 13.2602
Au 13.0725 27.3291 20.5561
Pd 23.7549 17.4154 19.3345
Au 19.3585 10.2491 17.1406
Pd 8.88143 12.8186 20.5011
Pd 14.8505 2.36218 15.2318
Au 26.2556 15.509 8.20869
Au 5.19694 10.8223 11.5026
Pd 12.3068 25.2737 15.6099
Au 25.9525 10.1047 20.3294
Pd 11.5117 17.9009 6.54471
Au 19.4969 25.9424 16.3008
Pd 9.82363 21.9269 4.23834
Au 4.3661 11.1301 16.9548
Pd 7.04092 11.9172 18.6225
Au 7.74432 20.2051 4.39167
Pd 14.9608 18.4572 12.9966
Au 20.3426 13.5567 13.3192
Pd 16.9079 10.7442 9.21018
Au 7.92681 10.5386 11.686
Pd 19.1758 13.5236 10.9159
Au 10.4161 24.5297 4.94694
Pd 15.9946 25.7865 14.409
Au 14.8487 15.2894 17.4337
Pd 14.2902 20.9674 4.11346
Au 21.2387 9.43693 9.79696
Pd 11.4134 8.93975 25.6995
Pd 19.6788 5.96653 13.9772
Au 13.4418 10.6605 26.3876
Au 11.42 24.3573 24.3985
Pd 18.4351 11.0901 6.76376
Au 22.6039 12.9604 6.85006
Pd 17.2991 18.1909 11.3674
Au 13.3545 5.75398 10.5057
Pd 19.8426 17.9711 25.6336
Au 20.9196 7.93661 25.0784
Pd 21.2206 16.7491 20.5646
Au 5.16297 22.6662 15.3411
Pd 8.1887 22.4363 10.6376
Au 27.1404 13.0567 14.7201
Pd 20.9552 20.4769 25.0095
Au 14.6741 16.594 15.092
Pd 15.9649 20.2182 6.61138
Au 4.1547 20.569 11.3658
Pd 9.9321 17.5685 24.5484
Au 23.7091 21.7275 12.0523
Pd 6.60348 7.23226 17.9852
Au 16.4097 8.33043 9.87821
Pd 7.91891 14.3509 17.2938
Pd 18.6604 20.2273 26.3622
Au 13.263 3.31001 17.2221
Au 21.7231 15.5604 7.94213
Pd 12.6678 8.33225 9.72215
Au 23.4619 7.51365 15.8342
Pd 14.4953 11.1517 15.9118
Au 8.73162 10.6482 22.32
Pd 22.195 12.8299 20.3178
Au 26.078 17.2016 10.3225
Pd 23.696 18.2056 16.5974
Au 19.2691 24.2251 22.8263
Pd 24.7185 11.8728 15.5929
Au 14.7927 24.1813 10.1683
Pd 17.2665 24.1993 9.20465
Au 11.8961 16.6324 4.05034
Pd 9.48171 11.7331 14.0318
Au 15.068 17.1345 10.4271
Pd 17.4061 21.6575 22.2478
Au 12.3411 22.8529 4.17209
Pd 24.4466 14.3442 14.8181
Au 8.79429 18.3917 11.2985
Pd 20.1497 21.453 22.1136
