665
Atoms. Timestep: 20231
Pd 8.58554 8.76459 8.27005
Pd 5.7733 8.67796 12.3393
Pd 3.29709 8.80049 16.4654
Pd 3.47973 8.25711 19.0979
Pd 6.64029 8.51384 22.5325
Au 9.23266 9.955 5.86155
Au 6.35996 9.77626 9.88119
Pd 7.04639 10.923 7.47357
Au 3.81611 9.83044 14.0145
Pd 4.39759 10.964 11.5941
Au 3.32044 10.7517 18.3086
Pd 3.74021 11.8249 15.9023
Au 4.43658 9.53091 21.3091
Pd 4.51926 12.0443 20.3154
Au 5.49504 10.8651 23.5067
Pd 5.66605 13.348 22.3807
Au 7.71506 12.0349 5.02088
Au 4.96562 12.0533 9.12975
Pd 5.57841 13.1084 6.68891
Au 4.14428 12.9338 13.5096
Pd 4.62169 13.9927 11.1145
Au 3.47586 13.4925 18.1443
Pd 3.92241 14.6654 15.7314
Au 5.77775 16.1557 22.2913
Pd 4.6316 14.8381 20.1955
Au 6.59489 12.1908 25.5748
Pd 6.77932 14.6463 24.4423
Au 8.93173 14.3826 3.8369
Au 5.04862 14.9793 8.66985
Pd 5.63458 15.8969 6.20563
Au 4.30735 15.8193 13.3077
Pd 4.75339 16.8511 10.8652
Au 3.63813 16.2568 17.9827
Pd 4.08363 17.4975 15.5554
Au 6.00953 18.9319 22.1867
Pd 4.77877 17.6214 20.0623
Au 7.81423 15.88 26.5329
Pd 7.04847 17.4321 24.3463
Au 6.21772 14.08 4.25953
Au 5.19037 17.7602 8.35168
Pd 6.67272 18.3563 6.10983
Au 4.49749 18.6833 13.1001
Pd 4.96281 19.6515 10.629
Au 3.81573 19.0328 17.8526
Pd 4.28286 20.2754 15.4079
Au 4.94618 20.4009 19.9816
Pd 4.05611 21.74 17.7433
Au 8.4726 18.4748 26.3536
Pd 7.47889 20.1737 24.177
Au 8.03128 20.7081 6.08279
Au 6.14798 22.0223 10.4032
Pd 7.16969 16.4963 4.00039
Au 8.96407 25.0245 12.7293
Pd 7.23952 22.8582 12.6518
Au 4.58105 22.9335 15.2902
Pd 8.64532 21.6155 17.0023
Au 6.3793 21.6785 22.0831
Pd 5.2982 23.0608 19.9236
Au 9.36999 21.0173 25.8681
Pd 8.20181 22.8195 23.938
Pd 10.8002 7.88272 6.72551
Pd 7.9293 7.60708 10.6734
Pd 10.1623 6.62907 9.07522
Pd 5.20998 7.60799 14.7732
Pd 7.33721 6.53423 13.1134
Pd 5.41455 7.35607 17.4626
Pd 7.44566 6.35328 15.8425
Pd 5.65222 7.27041 20.2628
Pd 7.62215 6.24849 18.6438
Pd 8.8858 7.48574 23.6511
Pd 7.87092 6.25039 21.424
Pd 11.9408 10.123 5.36798
Au 13.4091 7.9313 5.96018
Au 10.9428 10.1948 7.99563
Pd 8.74934 11.1116 9.61691
Au 10.2914 8.94748 10.4358
Pd 13.64 10.2718 7.46563
Au 8.13856 9.93914 12.0389
Pd 6.12077 11.0478 13.7218
Au 7.58163 8.79773 14.5032
Pd 10.5615 11.2568 11.8881
Au 5.59361 9.89351 16.185
Pd 5.76443 12.0577 17.8675
Au 7.79098 8.6374 17.311
Pd 7.99014 11.1327 15.9931
Au 5.72556 9.63871 18.9721
Pd 6.838 10.9186 21.2152
Au 7.99152 8.58047 20.1423
Pd 8.17526 10.9788 18.8088
Au 9.08871 9.8535 22.4408
Pd 10.0889 11.0941 24.7065
Au 7.67386 9.83257 24.7247
Pd 11.5302 11.1332 22.3713
Pd 10.4808 12.275 4.6138
Au 13.2883 12.3847 4.22722
Au 9.41394 12.2916 7.16401
Pd 7.26193 13.3348 8.80382
Au 11.1714 12.4889 9.44208
Pd 12.1801 12.4635 6.76014
Au 6.67202 12.1971 11.249
Pd 6.56281 14.2674 13.0793
Au 8.47865 12.2797 13.5221
Pd 9.01819 13.447 11.0681
Au 6.15903 13.1404 15.4673
Pd 5.8817 14.7847 17.7224
Au 8.27736 13.376 17.5618
Pd 8.61655 14.4661 15.1332
Au 6.94205 13.3632 19.9808
Pd 8.13139 14.6613 22.1177
Au 9.31355 12.2844 21.0686
Pd 9.46402 14.7147 19.7405
Au 7.95373 12.2458 23.4115
Pd 8.97087 13.5052 25.687
Au 12.6482 12.1786 24.7071
Pd 10.4267 13.4806 23.3929
Pd 10.0698 16.7839 3.41636
Au 11.8039 14.6121 3.57895
Au 7.87317 14.4021 6.32166
Pd 7.45857 16.3268 8.18274
Au 9.61227 14.6083 8.61673
Pd 10.6407 14.6209 6.02701
Au 6.98725 15.3317 10.6541
Pd 6.71846 17.1571 12.8017
Au 8.98869 15.5931 12.7194
Pd 9.40115 16.6975 10.2923
Au 6.30923 15.9847 15.259
Pd 6.03007 17.5388 17.5411
Au 8.3792 16.1083 17.3462
Pd 8.77812 17.3211 14.847
Au 7.04674 16.1134 19.8475
Pd 8.28225 17.3799 21.9451
Au 10.6624 15.9281 22.0284
Pd 9.53245 17.4404 19.4642
Au 9.29699 15.8601 24.3583
Pd 10.38 16.5194 26.7384
Au 11.5922 14.4304 25.7354
Pd 11.8692 16.94 24.4599
Pd 8.43114 18.8618 4.06675
Au 11.5742 19.0535 3.52355
Au 8.90557 16.8184 5.84468
Pd 8.55196 18.7624 7.98905
Au 10.6576 16.9876 7.84062
Pd 10.2532 19.1302 5.84851
Au 7.11137 18.1841 10.2776
Pd 6.94503 20.0298 12.514
Au 9.14737 18.5507 12.3547
Pd 10.5082 19.092 9.9295
Au 6.48585 18.8049 15.0308
Pd 6.21727 20.2934 17.4083
Au 8.51255 18.8462 17.1404
Pd 8.98666 20.1266 14.7321
Au 7.19381 18.8696 19.6711
Pd 8.53601 20.0956 21.6944
Au 10.8564 18.6296 21.5042
Pd 9.70836 20.2109 19.1916
Au 9.66941 18.596 24.0001
Pd 11.1538 18.9745 26.2597
Au 14.1474 20.9455 27.3124
Pd 12.3463 19.5075 23.5742
Pd 7.92426 22.4822 8.16037
Au 11.7865 21.2416 5.46921
Au 6.2927 20.2445 8.2409
Pd 4.8471 21.4641 12.9812
Au 10.1169 21.005 7.89098
Pd 9.76806 22.8162 6.05635
Au 8.32701 20.6331 10.0913
Pd 6.95079 24.3027 14.8596
Au 9.47716 21.3309 12.4277
Pd 8.92873 23.3256 10.5182
Au 6.75648 21.5755 14.9724
Pd 9.28843 23.0011 14.6012
Au 11.0323 20.3199 16.7544
Pd 11.6563 21.5999 14.3258
Au 7.42881 21.6278 19.5082
Pd 6.95707 24.2326 21.9138
Au 10.2673 21.2559 23.4321
Pd 6.28284 23.0557 17.3349
Au 10.9752 23.6111 24.4927
Pd 9.42837 25.0036 22.7951
Au 12.0915 21.4 25.6892
Pd 9.02274 22.7533 21.4031
Pd 12.4583 5.82429 7.53485
Pd 9.53287 5.51985 11.4809
Pd 11.795 4.58674 9.87001
Pd 9.55679 5.35461 14.2366
Pd 11.7177 4.40301 12.6539
Pd 9.67156 5.25516 17.0333
Pd 11.7719 4.28656 15.4686
Pd 9.84285 5.18879 19.8333
Pd 11.8926 4.20562 18.2796
Pd 10.0782 5.24472 22.5286
Pd 12.0624 4.19135 21.0276
Pd 14.7382 10.1734 4.94065
Au 14.9234 5.74835 6.43608
Au 12.4995 8.08826 8.85139
Pd 12.6996 10.3523 10.2909
Au 11.8789 6.82798 11.2978
Pd 15.0782 8.04647 8.05396
Au 9.70133 7.77985 12.8808
Pd 10.0387 10.1136 14.344
Au 11.9553 6.673 14.1218
Pd 12.1674 9.14729 12.748
Au 9.8457 7.6422 15.6906
Pd 10.2413 9.98829 17.1721
Au 12.0934 6.56422 16.9465
Pd 12.2974 9.01817 15.5815
Au 10.0307 7.54722 18.5189
Pd 10.4418 9.92958 20.0082
Au 12.2781 6.49204 19.8013
Pd 12.4782 8.90785 18.4322
Au 10.2542 7.54732 21.3419
Pd 13.7603 9.93752 23.6243
Au 11.2794 8.73415 23.7163
Pd 12.6577 8.8445 21.3005
Pd 14.8364 14.6062 3.42824
Au 16.2396 12.3329 3.99505
Au 14.9868 12.5034 6.41323
Pd 13.8616 12.6549 8.96956
Au 15.294 10.4733 9.618
Pd 16.5128 14.6631 5.59018
Au 12.9569 12.6497 11.7053
Pd 10.8221 13.5646 13.3468
Au 12.4885 11.4824 14.1838
Pd 15.5426 12.9462 11.1413
Au 10.4082 12.4559 15.8226
Pd 10.7939 14.7373 17.3747
Au 12.6793 11.355 17.0424
Pd 12.871 13.8214 15.6913
Au 10.6312 12.3369 18.6585
Pd 11.7522 13.5883 20.9803
Au 12.8618 11.2533 19.924
Pd 13.0693 13.6796 18.5471
Au 13.9942 12.3794 22.3001
Pd 14.41 14.1404 25.6358
Au 15.5164 11.861 24.6032
Pd 15.7283 14.2922 23.2376
Pd 13.2836 16.8922 3.15242
Au 16.5921 16.6601 2.932
Au 13.4989 14.7299 5.73124
Pd 12.3629 14.8063 8.26776
Au 15.2237 14.891 8.00661
Pd 15.1148 16.8949 5.13998
Au 11.3475 14.7918 10.9153
Pd 11.3149 16.9818 12.4896
Au 13.1485 14.9269 13.1926
Pd 14.0352 15.0666 10.5093
Au 11.0174 15.7661 14.9156
Pd 10.8912 17.4799 17.0638
Au 13.2712 16.113 17.285
Pd 13.3842 17.0677 14.8306
Au 11.9321 16.0981 19.6307
Pd 13.1684 17.1981 21.9886
Au 14.1939 14.8881 20.8662
Pd 14.3996 17.4626 19.4852
Au 12.9149 14.6745 23.3482
Pd 13.2993 16.3978 26.735
Au 16.1633 16.065 26.6359
Pd 14.6532 16.5414 24.3741
Pd 13.5338 20.9504 3.47476
Au 15.1136 18.8725 3.12925
Au 11.8773 16.955 5.36624
Pd 12.1359 19.2227 7.69935
Au 13.7157 17.0717 7.45725
Pd 13.5541 19.0928 5.3835
Au 12.3776 17.1591 9.91785
Pd 11.7533 19.7278 12.2716
Au 13.883 17.5783 12.2211
Pd 13.2956 19.707 10.1418
Au 11.2396 18.6793 14.6457
Pd 12.4749 21.631 18.6446
Au 13.4673 18.9506 16.812
Pd 15.6493 21.8333 13.4911
Au 12.0709 18.8763 19.0942
Pd 13.6251 19.8616 21.022
Au 14.9882 18.9185 23.1112
Pd 11.3509 21.2735 21.0096
Au 13.7349 18.8023 25.7314
Pd 14.9158 21.0654 24.7635
Au 15.3302 18.4009 27.7631
Pd 15.89 21.2194 22.0739
Pd 12.6889 25.5973 8.15792
Au 14.7752 25.4055 6.37467
Au 12.6156 23.7208 6.26753
Pd 10.7395 23.6451 8.38113
Au 12.8547 21.7534 8.09614
Pd 14.986 23.4505 7.9678
Au 11.2156 21.7088 10.3013
Pd 11.4416 24.7324 14.6577
Au 10.8327 25.3824 10.4584
Pd 13.0643 23.7609 9.95375
Au 13.8159 19.8284 14.1049
Pd 8.59612 24.2172 16.9149
Au 10.0432 22.989 18.9903
Pd 11.2301 23.0459 16.6444
Au 12.4298 24.4237 19.2552
Pd 7.62957 24.2912 19.3863
Au 11.5443 23.8407 21.7271
Pd 10.5666 25.6478 17.5797
Au 13.0094 22.1161 23.1765
Pd 13.1302 25.0307 23.5297
Au 13.9068 23.4239 25.5945
Pd 14.3505 25.1911 21.1167
Pd 14.2342 3.90743 8.31796
Pd 13.9424 3.58425 11.1136
Pd 16.3468 3.62805 9.91387
Pd 13.9025 3.40208 13.9423
Pd 16.2445 3.70613 12.6111
Pd 13.9932 3.29627 16.7648
Pd 16.2879 3.68704 15.3376
Pd 14.1352 3.24168 19.532
Pd 16.4102 3.62498 18.0839
Pd 12.4214 6.47197 22.5822
Pd 16.5457 3.6187 20.8094
Pd 16.242 7.95389 5.55363
Au 16.5212 5.84498 8.5088
Au 14.099 5.98846 9.77096
Pd 14.3549 8.24349 11.1596
Au 16.4806 6.01039 11.2412
Pd 16.8803 8.3905 10.0117
Au 14.1241 5.74656 12.6064
Pd 14.4134 8.07317 14.0246
Au 16.5397 6.0553 13.9994
Pd 16.7476 8.49962 12.6989
Au 14.2132 5.60159 15.4174
Pd 14.5528 7.93691 16.8598
Au 16.6454 5.99142 16.7742
Pd 16.8518 8.44998 15.4437
Au 14.3479 5.51294 18.2544
Pd 14.7081 7.79661 19.7454
Au 16.7589 5.92641 19.5928
Pd 16.9791 8.35068 18.2354
Au 14.4904 5.35244 21.1558
Pd 14.8645 7.66826 22.5465
Au 16.9157 5.85104 22.3942
Pd 17.1242 8.26723 21.0813
Pd 17.9083 14.4143 3.32999
Au 17.6687 10.0823 4.58777
Au 16.4567 10.2712 7.05273
Pd 16.6954 12.6994 8.6431
Au 17.2185 10.91 11.421
Pd 17.9346 12.4463 6.18936
Au 14.6509 10.5489 12.5512
Pd 14.9687 12.9097 13.9918
Au 17.0644 10.9381 14.1157
Pd 17.4915 13.4221 12.8566
Au 14.7489 10.3955 15.449
Pd 15.1248 12.7257 16.9123
Au 17.1957 10.8109 16.8838
Pd 17.4226 13.2993 15.5546
Au 14.9159 10.2405 18.327
Pd 15.295 12.5628 19.8009
Au 17.3482 10.7076 19.7108
Pd 17.5676 13.1609 18.3365
Au 15.0914 10.0929 21.2243
Pd 17.2637 13.8337 25.4733
Au 16.6045 9.55439 23.5388
Pd 16.815 12.0102 22.1678
Pd 17.8417 19.0234 3.4945
Au 19.4065 16.7101 3.21366
Au 17.9612 16.997 5.37279
Pd 16.5574 17.2933 7.61018
Au 18.1505 14.966 7.84839
Pd 18.5439 19.1776 7.24292
Au 16.8711 15.2263 10.2375
Pd 15.679 15.4419 12.6844
Au 17.8007 15.8074 14.259
Pd 17.2056 17.5765 11.8263
Au 15.3426 15.1958 15.5196
Pd 15.7507 17.5171 17.0921
Au 17.8095 15.625 17.023
Pd 18.0946 18.119 15.7697
Au 15.5141 15.0372 18.4339
Pd 15.9578 16.7171 21.8487
Au 17.05 14.4633 20.7713
Pd 17.3148 16.9019 19.4269
Au 17.4879 16.2341 24.1362
Pd 18.0496 18.0419 27.3531
Au 19.086 15.7905 26.3213
Pd 20.402 15.9117 23.878
Pd 16.2076 21.2809 3.8478
Au 18.476 21.1117 5.24525
Au 16.3108 19.3246 5.63691
Pd 14.8123 19.6004 7.85974
Au 17.0116 19.4796 9.53
Pd 16.8268 21.3791 7.43772
Au 15.1769 17.5003 9.8724
Pd 15.44 19.6902 11.8333
Au 15.9776 20.0916 15.946
Pd 17.3892 21.5736 11.4125
Au 15.8511 17.8258 14.227
Pd 13.7055 21.5952 16.2752
Au 16.2466 19.1248 20.4807
Pd 16.0481 24.5736 13.5146
Au 14.9978 20.5557 18.6081
Pd 13.9669 22.5611 20.6673
Au 17.7693 18.7327 22.6161
Pd 13.0435 25.0711 16.7595
Au 16.4771 18.4942 25.3052
Pd 16.7097 20.6226 26.9318
Au 20.776 17.8962 26.8574
Pd 16.6794 23.0227 25.518
Pd 17.2102 25.1622 7.5123
Au 16.612 23.3705 5.63019
Au 14.513 21.6812 5.88272
Pd 18.1723 24.099 11.8939
Au 15.1592 21.5636 9.81332
Pd 13.7588 26.5036 14.2197
Au 13.4484 21.9494 12.0579
Pd 9.26872 26.03 15.1307
Au 13.1081 26.7403 10.6352
Pd 15.5452 23.8966 11.0609
Au 11.1102 23.492 12.3414
Pd 12.5364 27.0502 18.5744
Au 11.2872 26.5997 12.8641
Pd 16.3498 27.2244 14.4201
Au 11.7043 27.2202 15.7498
Pd 9.88563 25.3792 20.187
Au 14.9964 26.0126 18.6626
Pd 12.0435 26.3824 21.232
Au 15.3329 23.5069 23.1534
Pd 15.6047 25.4219 24.851
Au 19.4186 22.508 25.0864
Pd 16.6405 25.6589 22.3868
Pd 18.6418 4.32629 8.38525
Pd 18.6446 4.25747 11.1339
Pd 20.9542 4.94737 9.6343
Pd 18.6267 4.22789 13.8668
Pd 20.9823 4.84442 12.3837
Pd 18.7068 4.15503 16.6029
Pd 21.02 4.74929 15.1307
Pd 18.8148 4.08828 19.3432
Pd 21.1091 4.65884 17.8857
Pd 18.9174 4.14149 22.0311
Pd 21.185 4.65402 20.6307
Pd 18.0185 8.11436 7.61013
Au 17.772 5.79167 6.2022
Au 18.8947 6.61574 9.75737
Pd 19.2117 9.05293 11.2402
Au 21.2484 7.25092 11.0273
Pd 20.4736 8.74099 8.7902
Au 18.876 6.61388 12.5275
Pd 19.1654 9.03501 13.9885
Au 21.2728 7.17001 13.8185
Pd 21.5385 9.66142 12.5314
Au 18.9549 6.55489 15.2927
Pd 19.2779 8.93235 16.7482
Au 21.3683 7.06269 16.5895
Pd 21.6049 9.54004 15.2932
Au 19.061 6.46882 18.0683
Pd 19.3862 8.86704 19.5379
Au 21.4638 7.00279 19.3809
Pd 21.7004 9.45632 18.0683
Au 19.1587 6.45252 20.8568
Pd 18.7193 7.7443 23.2913
Au 20.7203 5.93322 22.9954
Pd 20.9413 8.35966 21.7745
Pd 19.2536 12.1693 3.85094
Au 19.5469 10.2737 6.6057
Au 18.3832 10.5969 9.01109
Pd 18.6974 13.132 10.4523
Au 20.7802 11.2088 10.2766
Pd 19.9172 12.8002 8.08468
Au 19.5069 11.5248 12.6913
Pd 19.8283 13.893 14.1439
Au 21.8946 12.0125 13.9825
Pd 21.1807 13.5656 11.7285
Au 19.5209 11.4085 15.4415
Pd 19.8846 13.7564 16.9072
Au 21.9747 11.8929 16.7795
Pd 22.2448 14.3145 15.4839
Au 19.63 11.3157 18.2148
Pd 19.1168 12.6413 20.6388
Au 21.1781 10.8138 20.4664
Pd 21.4834 13.2271 19.1539
Au 18.8809 10.1827 22.0301
Pd 18.3578 11.5162 24.3994
Au 20.4516 9.67113 24.2348
Pd 20.6483 12.1257 22.9034
Pd 20.0474 18.7851 5.05176
Au 20.7711 14.3515 3.22762
Au 19.511 14.6552 5.5205
Pd 18.6571 17.2703 9.48579
Au 20.4542 15.1429 9.4964
Pd 20.1109 16.9076 7.17091
Au 19.1104 15.5164 11.8606
Pd 19.5235 17.8276 13.4229
Au 21.589 15.8548 13.2582
Pd 20.9983 17.4183 11.0632
Au 20.1742 16.2252 15.6385
Pd 17.579 19.3465 18.1755
Au 19.6609 17.5832 18.0153
Pd 20.7294 18.97 15.8263
Au 19.3995 15.0772 19.2899
Pd 18.8783 16.4215 21.6704
Au 20.9451 14.5295 21.5528
Pd 21.2579 16.956 20.2108
Au 18.5771 13.9487 23.0649
Pd 21.8422 15.4629 26.0372
Au 20.1257 13.4618 25.2856
Pd 20.896 18.3507 22.5627
Pd 18.9639 23.0811 7.06889
Au 20.6974 20.8862 6.7993
Au 20.7509 19.106 8.87556
Pd 18.2457 22.5435 13.9765
Au 19.1703 19.4866 11.2471
Pd 20.0269 22.2615 11.4606
Au 17.581 19.8389 13.5792
Pd 16.3566 22.798 15.8555
Au 22.1494 18.5951 13.4111
Pd 20.2053 20.5723 13.6255
Au 18.6624 20.7745 15.996
Pd 17.3843 21.9847 18.1576
Au 20.1311 20.5843 18.3252
Pd 23.3668 19.7234 15.734
Au 21.9799 19.7516 20.4375
Pd 14.7875 23.3217 18.115
Au 19.7247 20.7552 22.8159
Pd 19.302 18.8747 20.3772
Au 19.2945 18.2742 24.7765
Pd 19.2858 20.2651 26.5116
Au 21.3555 20.1673 24.8447
Pd 17.5472 20.7756 24.3391
Pd 17.3506 23.286 9.30584
Au 20.5337 25.8925 14.3854
Au 19.0896 21.2778 9.06787
Pd 19.3359 23.2823 16.5397
Au 19.8339 24.127 9.46184
Pd 20.6728 24.9971 11.8565
Au 15.1681 25.8538 9.15777
Pd 13.4013 24.8153 12.3405
Au 18.0972 25.1745 15.0648
Pd 17.1346 27.0965 17.0788
Au 15.5997 26.5875 11.8219
Pd 13.7888 23.5128 14.5857
Au 27.4281 19.8426 17.844
Pd 21.9862 24.3407 16.073
Au 15.4678 25.2839 15.9969
Pd 14.346 27.5938 16.5809
Au 16.4649 23.6239 20.367
Pd 17.2819 24.5973 17.779
Au 18.2498 24.8877 24.4093
Pd 19.1966 25.35 21.8791
Au 20.7358 23.4726 23.0219
Pd 19.9479 26.5078 19.6176
Pd 20.1725 6.39457 7.36719
Pd 23.2808 5.55457 10.9225
Pd 21.6717 8.4878 6.39399
Pd 23.3311 5.40237 13.6699
Pd 25.5355 6.16888 12.2651
Pd 23.4042 5.27335 16.411
Pd 25.9037 11.8808 17.529
Pd 23.4717 5.24386 19.157
Pd 25.6458 5.98027 14.9875
Pd 22.9899 6.48914 21.5984
Pd 25.2156 7.1042 20.1143
Pd 19.1804 7.91473 5.26057
Au 20.7243 9.9435 4.26646
Au 22.5644 6.95006 8.59829
Pd 22.8305 9.34854 10.1011
Au 24.8406 7.57193 9.94309
Pd 23.9856 9.0872 7.69679
Au 23.5944 7.87311 12.3544
Pd 23.9581 10.1596 13.8219
Au 25.3188 9.82875 11.3758
Pd 24.4886 11.3147 9.16942
Au 23.6985 7.72094 15.1252
Pd 26.3163 10.579 15.1663
Au 25.686 5.87243 17.7023
Pd 25.7142 12.0822 12.9517
Au 23.7685 7.63535 17.8971
Pd 24.0436 10.0455 16.6292
Au 26.0085 8.35977 13.6771
Pd 23.8608 13.762 17.69
Au 23.2737 8.93163 20.326
Pd 22.4476 7.85809 23.9116
Au 24.7266 8.39342 22.5317
Pd 26.0495 8.22035 16.4762
Pd 21.1233 12.4215 5.76143
Au 22.0654 12.0417 3.36266
Au 22.0151 10.8746 7.86979
Pd 22.5165 13.1965 9.34779
Au 23.7976 12.7756 6.93895
Pd 22.9628 14.1748 4.80309
Au 23.2757 11.6699 11.5771
Pd 23.6762 13.9553 13.1059
Au 23.1243 10.6049 5.43119
Pd 25.0463 13.5477 10.7564
Au 24.3321 12.44 15.3178
Pd 21.7631 15.6471 17.8559
Au 26.8917 13.2453 15.2346
Pd 24.8698 15.1203 15.4193
Au 23.5907 11.3613 19.0257
Pd 23.0277 12.7037 21.414
Au 25.6256 9.50152 18.899
Pd 25.402 13.1821 19.9049
Au 22.6907 10.2871 22.6892
Pd 22.2001 11.6018 25.0419
Au 24.1519 9.7539 24.7516
Pd 25.0378 10.8094 21.3148
Pd 22.2454 18.6096 6.63223
Au 21.5498 16.4924 4.8829
Au 21.8263 14.7239 7.15838
Pd 22.4384 16.9495 8.73043
Au 24.4642 14.9879 8.54869
Pd 23.7763 16.398 6.41886
Au 23.0491 15.4417 10.8957
Pd 26.2623 14.777 13.0568
Au 27.4315 15.9319 15.3258
Pd 25.6401 16.2597 10.8581
Au 22.8041 17.0208 15.6116
Pd 24.4141 16.4408 17.8098
Au 26.4909 14.5474 17.6166
Pd 25.3953 17.8117 15.5333
Au 23.3705 15.0626 20.0465
Pd 22.8035 16.3674 22.3691
Au 24.9273 14.496 22.2738
Pd 25.9678 15.8535 19.9726
Au 22.4976 14.0074 23.844
Pd 22.356 17.7112 24.7237
Au 24.5035 12.1588 23.655
Pd 24.252 15.872 24.4979
Pd 21.6467 22.0141 9.11747
Au 23.3735 19.8504 8.83748
Au 21.8205 20.2549 11.1956
Pd 22.7809 21.3302 13.5638
Au 24.9939 17.7037 8.65913
Pd 24.3897 20.9777 11.2145
Au 23.6422 18.1971 10.9992
Pd 24.7273 19.3533 13.3643
Au 26.8459 17.4691 13.1387
Pd 26.1508 18.9495 11.0049
Au 27.1981 20.1402 13.2609
Pd 24.8989 19.0945 17.9265
Au 27.043 17.2168 17.7187
Pd 24.2483 16.6538 13.2055
Au 22.2698 18.403 18.0221
Pd 20.6059 22.052 20.6772
Au 25.4549 17.1309 22.3043
Pd 23.8973 17.7537 20.1834
Au 24.6645 20.3683 20.4353
Pd 22.397 21.3478 22.6064
Au 23.6068 19.0015 22.6668
Pd 26.4904 18.486 20.0426
Pd 17.6815 25.8883 10.1092
Au 19.7289 25.8703 17.1066
Au 18.3333 26.5398 12.724
Pd 22.9548 21.0404 18.1608
Au 22.587 23.0423 11.4504
Pd 23.9969 22.3625 15.8639
Au 20.7764 23.286 13.8923
Pd 23.848 23.7701 18.0615
Au 25.3285 22.0699 13.49
Pd 23.3389 23.9774 13.791
Au 27.8927 18.6494 15.4391
Pd 25.9556 20.5297 15.6757
Au 25.536 21.7092 18.1839
Pd 21.3945 21.6189 15.988
Au 19.0645 23.9353 19.5862
Pd 17.3601 26.2078 19.8749
Au 22.107 25.7304 18.3453
Pd 23.2466 22.577 20.3348
Au 21.5815 24.6387 20.7042
Pd 18.0789 21.2187 20.5307
Au 18.0274 22.9984 22.6086
Pd 21.291 23.1554 18.3559
