665
Atoms. Timestep: 20353
Pd 26.4944 10.1725 10.465
Pd 10.0935 9.78413 10.7077
Pd 11.1444 15.5491 23.4109
Pd 4.60154 8.67074 14.5977
Pd 14.4463 11.561 23.7927
Au 18.4171 24.1944 6.96486
Au 12.0366 14.7713 16.3786
Pd 21.0526 9.04345 23.2133
Au 12.0066 4.31484 23.2682
Pd 7.88852 14.8711 16.7449
Au 3.81013 18.3886 16.4484
Pd 25.1161 10.0067 22.1634
Au 20.6618 26.6774 13.1729
Pd 25.6124 15.7386 15.3076
Au 11.3451 24.4732 6.1864
Pd 18.804 25.2369 11.6299
Au 21.2876 12.6825 20.3165
Au 25.0016 8.44773 15.4848
Pd 9.42954 4.10392 13.7836
Au 9.98878 11.5681 22.3107
Pd 6.7501 8.17587 21.503
Au 19.7045 11.3002 18.5832
Pd 15.0014 20.9454 10.2861
Au 24.1279 19.2067 24.176
Pd 13.204 8.29022 16.6798
Au 24.6032 22.4503 17.98
Pd 18.7544 9.71595 24.0912
Au 9.91494 23.4342 11.5415
Au 13.9175 23.1756 21.7399
Pd 19.3184 18.1661 10.5324
Au 10.5224 8.18003 16.136
Pd 12.7444 19.1301 23.3173
Au 17.8122 12.155 3.27073
Pd 8.68705 23.2371 16.1911
Au 24.8599 15.9691 17.9535
Pd 18.1388 17.31 8.12237
Au 24.547 13.5401 14.1844
Pd 8.35684 18.0121 16.5424
Au 24.6501 21.122 13.2973
Au 13.8177 28.3027 12.0257
Pd 18.6223 6.319 13.09
Au 9.49893 25.7242 20.189
Pd 5.78512 10.169 12.6392
Au 24.1502 9.62479 9.1006
Pd 14.0709 5.99527 7.44546
Au 25.5363 7.78172 10.8462
Pd 11.6744 19.8072 14.4035
Au 21.1966 18.203 23.863
Pd 23.0789 14.3948 19.431
Au 19.3435 7.17813 8.20486
Au 19.9676 24.7019 9.20337
Pd 19.2386 10.1848 4.67129
Au 27.2821 15.0474 17.6003
Pd 6.7987 6.5484 10.7896
Au 12.5214 14.4647 3.02633
Pd 17.0694 20.5292 25.1865
Au 20.1798 13.9105 25.4071
Pd 7.55109 14.364 25.0008
Au 16.4214 3.60091 20.6013
Pd 4.86682 15.722 9.19076
Pd 12.4799 5.66567 20.9843
Pd 14.2351 10.5566 21.342
Pd 5.76753 10.5763 8.15263
Pd 18.2359 18.6649 23.6447
Pd 17.5084 19.9938 14.8397
Pd 10.2169 14.01 21.4194
Pd 6.8083 7.69014 13.4225
Pd 9.78309 21.1688 9.9937
Pd 10.1558 22.3871 14.1672
Pd 15.3315 15.525 21.5028
Pd 10.4978 11.9554 5.83182
Pd 12.2622 17.6663 12.3871
Au 18.3356 14.2145 7.08404
Au 24.7287 6.73482 17.5968
Pd 20.5458 12.2584 6.04667
Au 17.0616 11.6162 17.6279
Pd 21.4954 13.6336 14.4568
Au 20.5831 6.11076 10.6118
Pd 8.58616 15.8929 23.1071
Au 6.46208 17.5739 23.4504
Pd 6.42229 12.8194 20.2344
Au 18.3722 16.4414 5.4491
Pd 20.0366 13.0731 8.85626
Au 13.9442 24.0594 5.5323
Pd 23.3976 17.1963 25.735
Au 16.0894 17.5835 15.1704
Pd 10.3973 23.926 18.2765
Au 20.1962 15.7646 9.03386
Pd 14.4053 18.6378 17.2712
Au 15.4992 16.7831 19.0734
Pd 8.05139 25.1556 17.9101
Au 8.73511 6.86004 17.9569
Pd 14.4396 27.2619 19.3309
Pd 11.4665 21.4017 12.125
Au 15.2526 8.32102 15.0385
Au 24.3182 23.2711 20.6369
Pd 5.8212 14.737 18.5039
Au 16.4126 6.04792 25.2048
Pd 21.1966 24.4321 21.1452
Au 18.7143 13.1492 20.7019
Pd 13.3486 20.0179 8.33707
Au 19.086 18.6249 26.1712
Pd 20.3127 5.97602 15.1153
Au 22.553 14.7911 26.7129
Pd 19.644 12.1045 15.9724
Au 9.88157 25.4418 15.2083
Pd 22.182 11.4942 9.79715
Au 5.9829 18.5502 18.0883
Pd 15.2079 5.91406 21.058
Au 11.7747 27.3636 19.8226
Pd 17.851 21.2276 18.9955
Au 25.3418 18.9274 11.6683
Pd 22.128 16.3707 17.8632
Au 10.7992 12.8393 14.1845
Pd 12.6743 22.186 6.90094
Pd 12.5256 22.1299 9.70443
Au 3.41932 9.16804 12.171
Au 18.1397 5.53009 21.641
Pd 8.72397 8.8863 19.8925
Au 7.49012 22.1024 21.804
Pd 7.20497 20.0995 19.8053
Au 14.6647 19.041 3.93361
Pd 14.9829 17.538 12.7571
Au 23.1314 23.5739 22.9813
Pd 24.9452 15.5916 20.7273
Au 15.2985 27.0236 14.1374
Pd 13.3475 6.84038 9.91858
Au 14.0584 17.9375 21.1135
Pd 6.7915 21.8427 14.8554
Au 23.1936 18.7354 6.75411
Pd 19.917 7.50321 17.1914
Au 5.57653 22.196 19.7526
Pd 18.9786 15.5633 11.5976
Au 11.6979 27.2781 13.2722
Pd 18.7352 8.15898 21.6487
Au 20.8071 16.6828 26.4948
Pd 22.6601 11.7069 15.6941
Pd 9.94058 13.0119 16.9598
Au 8.7938 24.4405 22.4898
Au 14.9312 11.6361 5.96076
Pd 13.7356 9.71479 4.55168
Au 8.41963 4.06745 18.2159
Pd 22.2416 23.0681 19.1324
Au 9.79236 22.0238 23.3857
Pd 14.6226 10.7522 16.4687
Au 3.77847 12.1548 20.3785
Pd 10.7466 16.414 3.26921
Au 23.0786 4.82771 16.8623
Pd 11.9769 12.1112 20.2214
Au 21.7771 19.3247 26.1128
Pd 10.8727 10.3462 17.9436
Au 12.5762 12.3625 17.5184
Pd 7.53983 11.6722 24.4196
Au 11.82 3.1473 20.4703
Pd 6.73219 14.2115 10.4028
Au 10.9268 5.19981 10.6954
Pd 19.2851 14.0186 4.45112
Au 15.2016 14.5882 2.57444
Pd 7.82187 12.7691 14.8888
Pd 13.9823 4.29549 19.1493
Au 26.1623 14.3796 22.7396
Au 9.55094 22.4547 6.06892
Pd 23.44 20.6143 19.68
Au 7.33223 17.4455 6.22142
Pd 8.9468 18.793 7.94953
Au 9.89238 8.45392 6.97986
Pd 26.9042 16.8126 22.0474
Au 9.84645 5.18634 24.3544
Pd 10.7461 20.9419 19.051
Au 10.4904 17.499 14.853
Pd 12.5818 16.9083 18.748
Au 16.632 8.67435 25.3094
Pd 12.5388 10.3242 6.93733
Au 6.27598 19.3074 8.02236
Pd 21.5039 7.37015 21.2397
Au 26.6578 13.0258 15.895
Pd 23.0644 12.2307 12.3875
Au 4.19201 11.1043 10.4547
Pd 20.7887 23.8544 13.1316
Au 25.9795 21.2508 20.0602
Pd 20.4199 23.5463 15.8116
Pd 20.5121 16.0086 13.705
Pd 22.9132 7.71482 10.5981
Pd 20.6237 20.451 10.219
Pd 19.5521 17.1119 17.8796
Pd 6.80863 7.54532 16.2029
Pd 7.84442 12.5272 8.36121
Pd 16.4066 15.3171 11.9712
Pd 4.81994 12.0983 17.9064
Pd 21.6805 11.8959 22.7653
Pd 21.463 7.18394 12.9622
Pd 19.6465 19.7637 17.1566
Pd 22.8616 15.5894 15.4199
Au 24.7732 11.8769 7.49019
Au 22.5941 22.4851 14.6424
Pd 20.6492 12.0602 3.37959
Au 16.9302 20.7076 4.28498
Pd 14.2889 3.49168 13.8342
Au 27.4229 14.712 20.3002
Pd 17.2855 20.5291 21.761
Au 4.22184 7.55948 17.0722
Pd 7.65784 16.6947 18.7977
Au 9.87035 15.4477 25.7974
Pd 17.4173 11.9871 8.78411
Au 16.6132 10.028 22.69
Pd 7.50289 4.55607 15.751
Au 10.3236 17.9303 5.65858
Pd 12.0521 24.6276 10.5535
Au 27.3752 11.4881 18.1195
Pd 20.6211 4.82885 17.6593
Au 11.6057 10.6903 12.7159
Pd 14.3405 7.71371 12.5804
Au 16.411 7.3354 22.8796
Pd 15.7021 7.99875 10.368
Pd 19.7947 15.1682 16.0319
Au 13.7101 5.98816 14.7745
Au 12.0361 24.9052 20.5804
Pd 18.5468 4.21954 11.4928
Au 16.4457 18.2265 26.2565
Pd 3.49871 11.7352 13.0702
Au 19.3909 10.3955 7.56678
Pd 9.47312 16.0421 7.42973
Au 7.04838 15.428 20.99
Pd 12.1845 15.2536 13.8162
Au 11.4743 17.4706 25.2686
Pd 22.6839 12.9264 24.9305
Au 10.2217 18.0567 22.8575
Pd 13.3683 28.6788 14.8359
Au 16.006 8.81786 17.7015
Pd 11.2124 14.3493 18.9668
Au 11.3944 6.17647 8.08819
Pd 8.57854 13.5758 6.02905
Au 9.61539 7.72997 25.0752
Pd 16.9719 23.7505 18.2801
Au 13.5615 12.8344 14.677
Pd 8.02177 23.8542 13.4718
Pd 24.8847 12.2585 23.5552
Au 13.2895 24.4725 8.16432
Au 13.8243 25.712 12.2185
Pd 17.9383 17.8499 12.8808
Au 21.0916 8.94673 9.15514
Pd 12.2574 13.1143 23.1015
Au 6.09244 19.2892 15.3385
Pd 10.7097 20.5757 7.50557
Au 17.8427 9.20495 9.4581
Pd 20.1899 20.8594 14.8048
Au 8.76834 6.62473 14.767
Pd 17.0783 11.0251 20.2361
Au 13.6238 16.8439 2.42919
Pd 22.3933 19.1891 17.6883
Au 24.51 21.2673 22.3749
Pd 9.4606 20.2858 21.32
Au 18.0821 8.18117 5.96058
Pd 14.3249 24.3878 14.5121
Au 26.4524 9.16505 13.0629
Pd 20.5146 15.2535 19.7502
Au 9.78305 4.45646 21.6997
Pd 12.5138 15.5462 21.1263
Pd 13.3767 9.67651 18.9119
Au 15.555 13.3092 10.4106
Au 12.4815 7.76092 6.14753
Pd 15.056 13.4478 16.8513
Au 16.1154 12.7609 13.2122
Pd 16.7817 10.6971 14.9181
Au 14.5775 11.2394 8.84638
Pd 9.65433 10.7899 15.4484
Au 2.96131 12.8277 15.8542
Pd 14.5126 23.2545 16.9775
Au 26.7583 17.6614 16.7187
Pd 14.1977 3.69296 16.4741
Au 18.1548 5.34798 16.7965
Pd 18.711 3.89836 14.3791
Au 23.0655 5.36714 11.6721
Pd 18.3258 8.87034 19.101
Au 10.146 20.4133 4.40093
Pd 22.8958 16.5052 5.317
Au 7.25569 16.9187 8.96117
Pd 11.5108 7.74119 11.6258
Au 6.17056 12.465 6.29952
Pd 21.3686 16.6311 11.2934
Pd 7.49242 10.7258 21.8625
Au 11.889 18.8293 3.16916
Au 24.2261 7.40518 13.115
Pd 16.2303 4.50792 23.1459
Au 19.3589 8.4133 11.5475
Pd 21.1794 9.7997 16.5732
Au 12.8028 16.8942 4.96237
Pd 9.7911 17.6047 10.0913
Au 3.40123 15.6892 16.0636
Pd 18.4295 22.7312 13.7795
Au 16.7652 23.237 21.0834
Pd 17.9853 16.0458 19.7681
Au 22.66 19.7588 14.5566
Pd 12.7009 25.398 18.034
Au 16.7773 18.564 5.9951
Pd 24.3994 18.8408 9.17098
Au 13.1947 17.5135 14.9677
Pd 14.0074 17.5939 25.7143
Au 9.0543 6.40523 12.1212
Pd 15.8886 20.9233 16.9403
Au 6.27429 23.1981 17.3273
Pd 14.0393 6.05919 23.5374
Pd 14.0494 25.8711 21.9862
Pd 14.4283 10.3717 13.5216
Pd 14.0581 7.07001 19.0086
Pd 20.6678 20.7296 19.3815
Pd 15.9153 19.4046 19.5834
Pd 13.827 26.6663 9.64544
Pd 16.5889 14.0062 4.91586
Pd 14.2917 21.7437 4.16228
Pd 19.7987 8.76513 14.3299
Pd 22.7122 19.1491 21.859
Pd 15.0077 20.5452 6.30212
Pd 11.7043 19.4132 10.323
Au 21.0442 26.1719 15.8177
Au 21.2719 20.6636 6.15455
Pd 17.5287 25.8125 9.31106
Au 17.5569 23.1411 9.20361
Pd 22.7808 11.493 18.5064
Au 11.0236 9.62169 4.847
Pd 11.1494 14.7994 5.62287
Au 5.1545 5.94997 14.9727
Pd 10.6358 5.11458 19.1075
Au 20.7676 8.45277 6.33397
Pd 9.92894 16.4022 20.3761
Au 11.5764 7.25991 23.2221
Pd 11.7096 8.72421 8.92933
Au 18.7303 24.8351 22.4752
Pd 14.3194 8.80775 23.7241
Au 21.8593 10.0887 4.61812
Pd 5.96831 16.6033 16.2938
Au 13.0552 20.9951 16.8148
Pd 12.0495 6.11816 25.4738
Au 4.33734 19.7778 19.7273
Pd 20.7299 11.1417 25.1093
Pd 13.9827 22.8933 11.9838
Au 16.6007 7.02586 7.91843
Au 18.8126 25.0748 19.8673
Pd 21.1457 18.1585 19.8047
Au 22.7904 16.0492 8.04667
Pd 16.4874 9.86256 7.25985
Au 16.9596 26.6959 18.502
Pd 22.2671 16.4088 21.503
Au 27.0316 14.2755 13.531
Pd 16.6777 3.08659 12.8611
Au 12.7797 12.893 7.03759
Pd 8.62705 18.2858 3.79386
Au 20.7617 11.2406 13.6852
Pd 10.5785 19.9106 24.7252
Au 3.99108 16.7381 18.5852
Pd 14.5575 20.5609 21.6671
Au 6.13325 5.49856 17.7879
Pd 18.7082 7.02061 24.049
Au 26.6659 12.2044 21.1915
Pd 18.8863 2.85159 16.8574
Au 25.0009 11.1255 16.9561
Pd 12.2404 11.7738 25.4437
Pd 17.7019 7.51865 15.4178
Au 18.3182 10.7641 12.7986
Au 8.29779 22.4289 18.9637
Pd 10.107 22.9836 20.7934
Au 26.2591 16.801 9.94531
Pd 9.58615 2.8007 16.1542
Au 15.1027 12.0821 3.37076
Pd 21.9707 15.631 24.227
Au 8.22353 6.56219 22.9183
Pd 8.3367 9.5516 17.4023
Au 11.4107 27.2066 10.7187
Pd 13.799 15.2699 11.7616
Au 9.39705 7.29726 9.58584
Pd 18.8092 17.7484 15.3641
Au 11.4893 18.7322 17.118
Pd 12.62 26.1631 15.487
Au 11.7905 3.32829 12.4552
Pd 14.5943 3.25717 11.2173
Au 16.1375 24.5902 23.3157
Pd 11.3732 7.70347 18.6973
Au 14.2395 20.2157 25.5139
Pd 14.0239 18.1813 10.2417
Pd 4.05054 13.6379 11.0643
Au 23.5133 8.01631 22.7982
Au 10.1283 6.96616 20.9722
Pd 18.0697 13.0117 11.1871
Au 19.757 20.7218 24.6388
Pd 21.0328 9.06097 19.2024
Au 16.8268 11.4055 25.1105
Pd 9.52769 15.0761 14.8389
Au 17.8799 6.45131 10.3333
Pd 24.0571 13.6897 16.8367
Au 7.74237 20.624 17.1473
Pd 14.0693 3.60298 21.8332
Au 17.8778 27.3265 13.1115
Pd 12.009 11.5093 9.79585
Au 17.8357 15.0466 22.3769
Pd 25.5763 13.2775 18.9394
Au 15.1139 22.47 8.12661
Pd 18.0379 16.0845 26.5836
Au 22.5217 13.2479 7.66332
Pd 23.3182 14.1954 22.5028
Au 13.7551 24.1783 24.2472
Pd 20.5972 18.5989 13.1291
Pd 6.86909 11.3661 10.5201
Au 20.839 4.45692 12.8364
Au 14.3866 15.995 16.7847
Pd 3.99753 14.3463 13.7742
Au 19.0701 22.0522 5.4039
Pd 26.2032 11.9498 12.4639
Au 21.4022 13.6061 17.4414
Pd 18.9839 12.3487 23.4265
Au 23.7874 17.7705 19.629
Pd 6.80305 14.8664 7.45473
Au 11.7565 24.3973 13.3663
Pd 13.269 19.9533 19.2899
Au 23.5371 23.4587 12.2469
Pd 22.6309 9.32705 14.2418
Au 16.771 22.4568 11.6884
Pd 17.8065 20.4608 9.99171
Au 16.581 26.0806 21.0974
Pd 7.97365 9.42103 8.81678
Au 5.99701 22.3317 12.3921
Pd 14.6326 19.787 14.7577
Au 21.1935 3.48519 15.4137
Pd 9.593 25.8891 12.5105
Pd 7.83609 8.90693 11.4182
Pd 6.54866 10.4022 19.4011
Pd 2.2486 11.6421 18.2478
Pd 16.0004 19.1506 8.52096
Pd 14.9065 15.92 9.30697
Pd 24.7661 10.8834 14.3032
Pd 10.2151 5.2765 16.4043
Pd 11.2287 6.01353 13.7716
Pd 6.6486 15.2016 13.9578
Pd 16.3613 22.9666 5.64749
Pd 24.5498 20.7027 16.0629
Pd 14.0321 14.3943 5.22524
Au 24.3498 14.4735 6.15175
Au 7.85947 19.3652 10.4156
Pd 15.9159 8.56118 20.4441
Au 20.4523 16.4899 3.89721
Pd 18.9748 13.3904 13.6285
Au 10.052 13.5838 3.64925
Pd 20.0168 19.9612 21.9956
Au 25.4411 18.9234 21.367
Pd 18.8332 25.3075 17.1288
Au 19.6607 10.5737 21.3547
Pd 11.9651 16.2084 10.0423
Au 22.682 14.2202 10.1361
Pd 12.8766 15.5991 7.477
Au 6.0313 12.8448 12.7087
Pd 6.41967 19.485 12.6941
Au 8.57865 13.9528 12.4953
Pd 7.7721 5.89369 20.2151
Au 18.7055 4.02355 19.3348
Pd 13.6158 19.9841 12.3139
Au 13.0969 13.857 9.49205
Pd 15.4581 13.6074 7.68113
Pd 19.6576 6.51602 19.6074
Au 5.06116 13.0517 8.64916
Au 7.61661 23.1286 10.3449
Pd 19.473 22.7135 11.0699
Au 16.5152 9.95544 4.41656
Pd 17.7253 15.594 14.2312
Au 21.9744 22.939 10.022
Pd 16.1075 15.9815 6.90799
Au 3.16348 10.1452 16.3043
Pd 22.3056 10.5174 7.25082
Au 16.4016 16.5252 24.162
Pd 16.5217 12.7018 22.3878
Au 10.7348 28.1092 15.5508
Pd 11.9691 21.2193 21.5579
Au 15.3302 21.9733 23.7803
Pd 12.216 10.6257 15.4611
Au 7.47692 16.7423 11.5953
Pd 5.39478 18.2419 10.4532
Au 12.1099 10.2103 23.1391
Pd 18.7444 13.8313 18.0746
Au 4.77817 17.3232 14.018
Pd 11.7712 3.20013 17.7279
Pd 8.71206 17.7226 25.0534
Au 13.3066 5.36 12.081
Au 17.0132 6.32307 19.1425
Pd 14.765 11.8233 19.047
Au 17.3756 14.0187 24.9783
Pd 16.7828 24.2478 15.6257
Au 16.8307 17.7479 21.564
Pd 13.4986 9.61668 10.9109
Au 15.3595 15.4166 26.3713
Pd 19.1981 19.2757 5.11801
Au 11.8265 23.566 16.1021
Pd 19.7431 23.025 18.3707
Au 23.2276 10.277 24.1633
Pd 25.1326 16.9017 7.42169
Au 14.2799 8.63034 8.13334
Pd 9.50185 8.96379 22.6144
Au 4.64153 6.85047 12.3706
Pd 5.71906 9.80892 16.9549
Au 23.3777 17.4523 13.4836
Pd 13.3345 8.08648 21.3571
Au 21.6617 21.3607 12.4245
Pd 9.70521 8.78564 13.4752
Pd 16.9216 8.4499 12.8566
Au 5.46181 13.9132 16.008
Au 22.6015 9.96457 21.0984
Pd 10.0258 16.2329 12.4134
Au 15.0413 25.8995 16.8224
Pd 14.3034 7.41555 25.9526
Au 4.95029 20.9071 17.2987
Pd 17.4813 18.144 3.40523
Au 4.96001 15.9478 11.8189
Pd 19.2696 16.2304 24.3039
Au 11.2253 9.62238 20.6091
Pd 24.0763 17.8852 16.2222
Au 18.2172 22.0721 16.3989
Pd 21.9057 21.5981 17.0027
Au 12.6936 28.1212 17.4154
Pd 7.86074 17.5197 14.0287
Au 24.3885 16.8229 23.1101
Pd 11.631 17.9481 7.98312
Au 21.6933 25.3217 11.183
Pd 23.9665 21.2067 10.6972
Au 7.92794 21.4965 8.15318
Pd 10.3666 21.1781 16.5255
Pd 17.3055 13.393 15.6294
Au 15.3088 24.432 10.1966
Au 24.1765 7.92925 20.1684
Pd 21.9194 21.805 21.4861
Au 5.3622 12.3847 22.7059
Pd 16.4821 24.8008 12.9235
Au 25.2829 10.3873 19.5672
Pd 20.5096 14.3915 22.4437
Au 8.05796 19.8486 23.5577
Pd 10.0896 10.8622 8.16186
Au 15.5675 16.5497 4.35063
Pd 6.92073 5.08601 13.1446
Au 27.1187 10.3366 15.4919
Pd 16.3904 3.73211 17.9732
Au 5.81964 19.8771 22.0374
Pd 7.9662 18.0277 21.3034
Au 26.7364 17.2898 19.4158
Pd 22.6712 19.0598 11.4557
Au 16.3971 13.8819 19.4802
Pd 16.3672 5.26626 14.6306
Au 14.6826 12.8481 26.1738
Pd 20.8409 14.966 6.42929
Pd 13.8216 14.4851 18.9984
Pd 12.5835 12.1554 4.35271
Pd 12.0853 8.88834 25.456
Pd 18.5352 9.71079 16.5705
Pd 15.2013 21.9316 19.3626
Pd 22.4292 7.34438 15.9922
Pd 22.9446 5.31763 14.3221
Pd 16.2729 19.8848 12.4069
Pd 14.8161 14.2417 23.8846
Pd 21.7098 18.2464 9.06573
Pd 19.316 22.4548 21.0333
Pd 17.7338 15.5 2.9535
Au 22.926 24.2822 16.7484
Au 11.3077 13.8682 11.6036
Pd 8.3926 21.3199 12.346
Au 12.6928 22.73 19.0889
Pd 8.03619 20.053 5.86841
Au 5.41515 8.75226 10.2879
Pd 15.0118 15.0941 14.3326
Au 22.3122 21.0814 24.0535
Pd 21.6209 9.73665 11.7612
Au 21.754 18.7384 4.41383
Pd 11.8008 22.4384 4.47248
Au 15.2704 28.4618 16.801
Pd 12.5756 21.75 24.0647
Au 17.4736 15.0221 9.41561
Pd 25.3669 19.3924 18.2298
Au 10.3084 26.6219 17.6724
Pd 17.9681 22.4418 23.4932
Au 4.38238 14.7585 20.8125
Pd 17.2258 18.5842 17.4404
Au 14.1438 13.2122 21.3294
Pd 12.6111 5.71477 17.2297
Pd 7.3662 9.02999 24.0383
Au 15.5406 5.13272 9.57142
Au 12.5123 19.7735 5.58936
Pd 5.22703 11.5106 15.0163
Au 5.90085 21.0219 10.1438
Pd 21.3219 17.7815 15.6973
Au 9.43543 12.3287 10.4433
Pd 10.1191 16.2856 17.5167
Au 8.64872 15.7738 4.69329
Pd 24.9138 23.289 15.1854
Au 13.6045 12.3802 11.9438
Pd 13.6042 16.5569 23.4027
Au 7.16683 24.3725 20.3303
Pd 22.2534 6.71119 18.6713
Au 19.6334 17.1064 21.7609
Pd 23.8518 16.6618 10.6255
Au 9.8556 10.4212 24.9072
Pd 19.9948 22.2074 8.15024
Au 17.1664 15.7843 17.0215
Pd 15.4696 18.9577 23.5801
Au 5.68907 15.0145 23.2293
Pd 9.3784 18.7203 18.9029
Pd 3.97031 9.64942 18.9676
Au 25.7017 18.773 14.36
Au 7.35072 9.87266 14.8012
Pd 15.8247 22.1086 14.2482
Au 15.4175 6.15036 16.9417
Pd 20.7237 13.3891 11.6538
Au 8.8081 19.9955 14.6666
Pd 12.3785 8.41527 14.1129
Au 9.9447 13.1745 24.5159
Pd 8.58965 14.1415 19.1865
Au 9.22633 15.0331 9.9506
Pd 9.83835 19.0092 12.4007
Au 16.6974 17.6375 10.552
Pd 24.2127 9.91035 11.8194
Au 22.5903 20.7955 8.43476
Pd 22.9463 14.9958 12.6875
Au 19.5271 19.5566 7.92986
Pd 21.1348 25.3611 18.4463
Au 3.15252 14.1551 18.3359
Pd 16.0403 5.6282 12.1136
Au 23.2557 12.1712 5.22399
Pd 11.4901 23.9969 22.9499
Pd 16.102 10.6848 11.1789
Au 24.7506 12.1262 10.1217
Au 12.991 4.25003 9.35345
Pd 10.5062 13.6077 8.14356
Au 22.0303 14.2195 4.17691
Pd 25.7874 16.5387 12.7313
Au 16.5305 2.76347 15.4945
Pd 19.6137 10.977 10.4293
Au 11.5019 18.5603 20.6355
Pd 26.3707 8.88599 17.7295
Au 5.335 17.4847 20.7993
Pd 11.2951 26.1188 8.31764
Au 4.89959 10.041 21.5001
Pd 18.8921 20.4396 12.4317
Au 24.0085 12.2789 20.9637
Pd 18.855 25.2784 14.4182
Au 9.32156 25.4337 9.9076
Pd 6.22303 7.8628 18.9074
Au 17.4083 27.1351 15.7891
Pd 24.5522 14.813 24.8694
Au 14.2328 17.8725 6.98829
Pd 16.0473 26.9038 11.2623
Pd 23.4855 9.05587 17.8066
Au 14.8129 24.6722 19.5663
Au 17.487 21.1221 7.2601
Pd 11.9083 3.73191 15.0748
Au 7.8825 13.3641 22.4712
Pd 25.2475 14.3294 11.4694
Au 12.6557 14.726 25.484
Pd 9.15272 11.5932 19.6461
Au 14.4348 10.1499 26.0946
Pd 7.42655 12.1729 17.477
Au 20.5581 23.0967 23.4718
Pd 8.15122 10.6645 6.37932
Au 15.832 25.018 7.42757
Pd 20.6801 17.5637 6.6268
Au 22.8755 25.2174 14.153
Pd 8.65841 11.2114 12.7797
Au 10.3878 23.3824 8.5032
Pd 17.7218 11.8914 5.98813
Au 25.0882 14.5513 8.76013
Pd 15.2612 7.90893 5.74618
Au 13.0859 22.0153 14.3034
Pd 18.603 18.8483 19.827
