665
Atoms. Timestep: 20854
Pd 21.3328 13.0339 21.0792
Pd 14.3909 5.57169 9.05385
Pd 7.42911 18.1312 11.1016
Pd 20.2563 21.8792 20.3812
Pd 14.7885 25.4798 10.1566
Au 14.3899 15.9417 26.5936
Au 11.8506 12.3539 3.02754
Pd 9.14701 19.5745 19.88
Au 6.51338 23.66 10.6868
Pd 13.5798 13.5136 25.4624
Au 7.51675 17.7756 6.56018
Pd 20.4901 5.11052 18.8758
Au 13.527 19.3383 13.3637
Pd 15.6155 6.33486 15.8105
Au 19.4684 14.5098 28.4485
Pd 6.23159 14.8394 15.3288
Au 15.0514 8.96571 15.443
Au 12.7649 6.71401 18.9962
Pd 24.2839 12.7758 11.5326
Au 17.0351 27.8443 13.6766
Pd 11.6122 10.0893 4.38014
Au 19.5085 14.5052 4.19688
Pd 7.75935 6.11274 17.8115
Au 16.9439 15.3203 27.8093
Pd 10.9878 8.11074 20.3743
Au 24.5101 15.8726 19.4052
Pd 14.8986 6.01568 20.7445
Au 9.31285 25.7581 16.6574
Au 21.5384 23.8785 18.9248
Pd 18.5069 12.4299 9.96494
Au 9.09788 11.4984 8.72923
Pd 18.8617 18.0464 12.3892
Au 21.2819 23.9472 21.6185
Pd 21.8984 17.5871 23.5363
Au 23.4157 19.6627 24.2605
Pd 15.8318 7.22835 13.357
Au 5.23833 14.2474 22.7664
Pd 9.31877 18.6248 4.86296
Au 17.2689 23.6509 5.43553
Au 25.6422 15.987 14.8708
Pd 13.2211 14.9315 11.4114
Au 13.8332 22.094 13.9407
Pd 7.01129 11.3701 17.6229
Au 11.7216 20.1556 19.7333
Pd 19.106 12.6893 16.4969
Au 21.1923 4.29948 9.48901
Pd 14.3787 20.2596 24.1987
Au 15.6725 21.8439 4.38909
Pd 21.0225 20.7276 5.80594
Au 4.45071 16.3148 16.7157
Au 18.0386 8.08879 25.1653
Pd 6.52832 13.8094 12.7473
Au 18.9415 11.6857 21.0258
Pd 18.086 17.1764 20.1792
Au 11.1729 15.134 25.492
Pd 14.5229 10.9193 17.2168
Au 12.298 14.4158 27.7479
Pd 9.00662 21.4593 14.354
Au 9.37999 11.3246 16.5637
Pd 7.33373 12.5118 10.4899
Pd 11.0131 14.2372 17.7237
Pd 13.0943 9.94354 19.3711
Pd 16.1242 24.8451 22.5119
Pd 17.789 12.533 18.8745
Pd 15.9442 8.26397 4.84257
Pd 23.6354 14.32 6.82943
Pd 22.8795 13.6373 9.37482
Pd 21.5554 19.8608 19.2959
Pd 24.2814 13.5422 18.0311
Pd 12.5465 14.868 3.45618
Pd 13.3846 5.52824 13.7021
Pd 16.4715 17.4003 15.1354
Au 7.4179 13.3679 4.00491
Au 14.1161 19.7468 18.3793
Pd 20.5556 21.2736 15.2374
Au 9.18749 3.85409 14.1371
Pd 10.6952 13.0892 15.015
Au 15.7405 9.61593 24.1234
Pd 17.7298 24.4502 9.73528
Au 13.0212 11.7123 27.7045
Pd 16.6002 10.6264 9.42846
Au 13.303 29.3594 11.8555
Pd 19.1721 20.6113 7.70668
Au 4.21152 15.0199 13.6085
Pd 12.1657 25.7151 16.972
Au 9.26755 16.75 26.5755
Pd 5.74868 18.599 16.847
Au 20.5397 25.1896 14.2934
Pd 21.8833 13.6743 16.6793
Au 8.773 14.1878 9.04351
Pd 19.745 6.17115 10.7314
Au 4.23158 16.3316 21.3768
Pd 15.5605 13.9008 12.463
Pd 16.1556 23.6639 17.453
Au 13.7652 26.6127 14.9011
Au 3.62864 13.9127 16.0552
Pd 8.56974 15.6859 4.92763
Au 7.3163 20.9361 21.4585
Pd 9.38304 11.648 3.63377
Au 23.9088 15.0501 26.9052
Pd 15.9971 23.6693 20.1506
Au 16.3254 19.2853 20.9691
Pd 10.2823 17.2997 24.0876
Au 12.5834 15.1065 6.62885
Pd 15.1455 14.5728 14.9403
Au 17.0286 13.6209 3.43495
Pd 13.2274 7.76275 4.85899
Au 25.5677 10.5075 10.9487
Pd 11.0153 10.7745 21.108
Au 22.9403 17.8182 18.1215
Pd 15.1128 20.9541 11.7095
Au 17.9475 19.0003 25.8772
Pd 20.3611 21.7601 17.7672
Au 14.8369 8.6619 20.9594
Pd 12.6667 27.3863 18.9221
Pd 19.855 21.9187 22.9861
Au 15.3303 18.567 8.25301
Au 10.0886 26.617 18.9952
Pd 13.6849 19.5026 21.6454
Au 9.21925 8.87395 22.234
Pd 7.5843 19.2901 13.5982
Au 18.7349 23.9648 16.0856
Pd 12.1968 12.556 23.2821
Au 14.4922 12.695 3.13024
Pd 9.69332 13.3007 23.9444
Au 10.4418 10.618 23.9785
Pd 16.7982 20.5134 6.61514
Au 20.6025 12.4365 18.7103
Pd 9.92715 11.154 6.17833
Au 17.9249 28.537 10.864
Pd 11.699 4.92226 9.52475
Au 19.6836 16.8365 9.57093
Pd 25.1253 9.98084 8.38709
Au 11.154 4.01251 12.4107
Pd 14.323 15.1113 19.3663
Au 21.7862 3.98892 16.85
Pd 23.6674 8.9722 20.0272
Pd 22.4404 19.107 9.48871
Au 17.7624 21.6145 21.0815
Au 11.8532 17.1285 27.1005
Pd 15.4238 11.4731 26.146
Au 24.552 17.4799 22.9438
Pd 11.0119 13.1162 7.69704
Au 21.439 21.6871 8.36603
Pd 17.6945 5.64518 17.4381
Au 8.23435 20.5881 24.046
Pd 17.0205 7.63589 22.3998
Au 19.7652 25.6047 19.8317
Pd 7.70235 17.3352 20.0703
Au 12.3533 18.561 9.12787
Pd 9.96579 15.6297 7.08088
Au 13.9876 2.65921 18.058
Pd 16.0303 3.67716 10.5993
Au 14.1687 16.5725 13.5205
Pd 8.18902 8.75707 17.5176
Au 10.547 13.7134 5.07547
Pd 24.0239 19.9874 11.427
Au 25.2886 12.5971 8.93231
Pd 5.43774 10.5941 19.7381
Pd 7.54973 17.3021 15.3699
Au 20.5641 3.85111 12.0706
Au 9.12291 5.13724 10.4204
Pd 22.4306 16.2031 14.053
Au 17.2192 26.0178 20.3352
Pd 12.3317 20.519 11.1613
Au 24.1704 9.1532 17.4172
Pd 25.1504 12.6744 22.8405
Au 24.328 20.0123 18.9109
Pd 19.1499 22.0796 10.2939
Au 6.83409 24.9111 16.1434
Pd 16.2586 21.3291 18.8495
Au 21.8105 6.94682 8.99721
Pd 16.4012 22.8902 14.75
Au 22.1953 23.8051 10.5964
Pd 18.4129 9.03073 20.5457
Au 18.7207 26.8687 15.4637
Pd 25.0394 20.3786 16.2141
Au 5.25247 11.9023 15.5577
Pd 20.2381 8.15501 7.10436
Au 13.5921 2.79868 13.3988
Pd 11.2644 16.0099 9.42812
Pd 23.0202 10.5743 24.3323
Pd 21.8528 7.87734 15.6521
Pd 7.07012 16.1255 17.7119
Pd 16.8356 9.49934 27.2801
Pd 21.694 19.9703 22.0932
Pd 12.6209 16.3443 17.5364
Pd 9.43864 7.80968 10.6456
Pd 13.0236 17.256 24.6548
Pd 23.7339 15.6801 16.6606
Pd 9.98222 16.3973 16.3863
Pd 17.8282 2.67947 12.7113
Pd 17.6991 15.0725 16.047
Au 5.69792 13.1305 6.11272
Au 14.0195 20.7552 9.06889
Pd 19.7222 24.3496 11.6758
Au 16.154 21.3261 25.759
Pd 15.9336 16.1814 21.3496
Au 10.9765 8.24863 6.26887
Pd 17.3803 4.29496 15.1785
Au 25.1808 11.5172 13.6921
Pd 7.1032 17.6939 3.8823
Au 13.5096 25.7923 7.75717
Pd 15.4956 7.59595 25.9246
Au 10.9385 25.5659 8.09441
Pd 18.4734 19.8802 18.8764
Au 21.1049 13.3674 6.11324
Pd 15.8776 13.5183 9.85184
Au 18.7526 10.4002 7.79662
Pd 6.5539 11.2863 7.9907
Au 11.6508 18.7908 17.292
Pd 9.11534 13.0606 12.5179
Au 5.81076 13.7695 17.8
Pd 15.8969 20.2754 14.3941
Pd 12.5543 24.5735 13.5111
Au 15.0446 14.3571 7.38788
Au 6.74888 15.3867 7.42835
Pd 7.33493 11.0552 5.40732
Au 6.10923 8.10506 19.0232
Pd 9.97987 20.8343 17.5651
Au 23.4968 17.282 25.6068
Pd 11.2453 9.80841 26.4671
Au 16.1347 13.1642 16.9871
Pd 5.12235 17.4612 19.1337
Au 21.7936 18.234 11.9877
Pd 26.8937 16.9697 9.83706
Au 11.173 12.4466 26.0305
Pd 9.08141 9.1666 4.66867
Au 6.20797 20.4959 10.1829
Pd 15.4105 21.7965 22.1771
Au 15.897 24.816 7.57162
Pd 20.2122 15.915 12.3679
Au 19.736 19.4692 10.1137
Pd 9.47961 10.8101 13.92
Au 21.6001 22.9087 13.246
Pd 8.45787 18.3671 17.6543
Pd 17.3733 16.4274 3.89836
Au 26.4681 14.3799 10.6782
Au 22.9574 21.9963 20.3936
Pd 18.6316 7.85136 12.4593
Au 14.0664 18.4617 15.9352
Pd 14.7429 23.1977 24.2644
Au 13.1812 13.2462 13.6411
Pd 13.1347 13.7453 9.09968
Au 24.5371 7.34335 15.4923
Pd 4.35948 12.1873 13.1153
Au 6.76698 11.0921 12.7368
Pd 14.4178 3.95558 15.7587
Au 11.7262 5.73145 24.1794
Pd 15.8963 7.808 8.85174
Au 17.9282 17.6893 22.8383
Pd 23.8354 11.7415 16.2181
Au 23.2747 11.7221 7.14738
Pd 26.5346 18.9945 11.6585
Au 14.8764 26.2427 17.7321
Pd 20.8138 12.1741 8.46216
Au 7.34282 15.5057 2.49082
Pd 19.2158 3.44945 17.1915
Pd 8.79022 15.0036 14.4015
Au 12.7361 27.6072 9.67141
Au 18.1046 17.2804 17.4951
Pd 8.6199 23.0758 12.0413
Au 13.5006 28.5031 16.706
Pd 13.0307 6.34923 16.2921
Au 11.8788 11.3081 9.60952
Pd 12.0539 9.18701 11.351
Au 12.6847 19.4954 26.338
Pd 9.44586 16.0482 21.8237
Au 14.3023 19.8441 5.95608
Pd 17.3855 22.8797 23.7451
Au 21.9896 15.6878 5.13537
Pd 8.75547 22.2639 19.6042
Au 15.3894 11.1157 28.8064
Pd 19.3928 26.9866 12.5869
Au 16.6584 20.5663 2.33172
Pd 10.724 19.65 13.029
Au 21.2678 10.915 16.3912
Pd 13.2361 10.6276 24.8304
Au 21.1156 11.7191 11.3137
Pd 15.1986 16.0788 17.005
Pd 4.52501 13.0595 20.4326
Au 25.6121 17.8819 17.4577
Au 15.7769 17.9477 2.13101
Pd 26.08 13.1596 15.8729
Au 21.4893 16.2058 27.3703
Pd 23.3861 22.2769 17.7376
Au 25.5097 18.0423 20.3877
Pd 23.8675 21.7738 9.38502
Au 17.0116 26.1999 11.472
Pd 7.73218 18.062 24.7984
Au 25.6114 20.7844 13.5304
Pd 20.085 8.17183 22.3968
Au 4.38433 13.9914 11.1412
Pd 16.9445 5.2572 8.42031
Au 9.77184 14.3007 2.66799
Pd 21.978 18.2979 5.28755
Au 7.09392 12.8362 24.4615
Pd 10.2608 22.9702 7.80284
Au 7.08052 4.97003 15.3426
Pd 15.7045 17.6448 19.0087
Au 20.385 25.6969 17.2372
Pd 17.2255 8.27552 17.0953
Pd 9.40755 24.6982 20.8143
Pd 18.328 9.89509 23.2444
Pd 17.2463 18.0444 10.2714
Pd 5.03672 9.71649 17.1151
Pd 4.98622 9.4846 14.2906
Pd 10.4706 9.23481 8.71833
Pd 23.7891 8.37698 10.3216
Pd 20.8085 9.6607 9.28063
Pd 13.4872 16.7788 22.0043
Pd 23.053 11.3178 18.8703
Pd 15.554 16.1392 11.0864
Pd 23.1088 10.9674 9.68415
Au 7.65069 7.15949 8.69006
Au 16.7248 10.7685 3.8333
Pd 15.5282 3.38667 20.1759
Au 11.5928 6.48762 11.7406
Pd 12.2256 23.8819 6.29275
Au 3.70325 15.0553 18.9168
Pd 23.2262 20.0413 7.16117
Au 22.9288 20.3539 13.8341
Pd 14.7571 21.4713 16.4774
Au 5.20617 19.189 12.2621
Pd 22.63 6.44848 17.6849
Au 12.4575 7.52562 9.21061
Pd 7.19349 12.6404 19.9556
Au 22.7938 9.07593 7.63609
Pd 24.3745 15.4204 12.1172
Au 8.76301 20.5325 11.3726
Pd 4.71604 16.7321 11.4624
Au 17.9591 4.15132 19.543
Pd 11.9543 20.6613 15.3212
Au 25.4252 8.84769 13.0964
Pd 13.6087 13.6569 17.1742
Pd 7.57506 10.0855 24.0168
Au 11.2016 16.7115 4.84683
Au 6.54397 24.4524 13.3108
Pd 10.3655 18.2719 7.34153
Au 18.5795 3.8757 10.192
Pd 10.8715 27.996 16.7601
Au 12.1391 27.046 12.2901
Pd 10.3772 13.4395 21.3542
Au 6.49634 22.4154 17.9794
Pd 17.3554 12.6405 27.7898
Au 13.8699 13.9371 21.69
Pd 20.7007 12.3096 25.1463
Au 14.0429 5.37919 25.3088
Pd 15.9314 29.6999 12.1202
Au 19.1385 6.1862 20.9153
Pd 6.62421 9.05937 21.626
Au 8.44146 7.28724 20.083
Pd 16.4446 8.85198 11.3004
Au 7.24506 9.54276 9.96559
Pd 14.8624 8.00678 18.1645
Au 9.99689 19.3373 25.8018
Pd 10.1901 20.7154 22.0323
Pd 22.7449 15.4256 22.0701
Au 19.1239 14.3572 7.93083
Au 14.2029 10.314 4.81969
Pd 14.7398 27.1854 12.4438
Au 9.79546 6.26579 22.3101
Pd 16.9434 15.0906 18.8651
Au 5.91781 11.6387 22.2871
Pd 8.99676 6.18608 12.8379
Au 18.1281 12.5467 23.511
Pd 16.4161 10.7811 21.5968
Au 11.1726 22.3346 13.0921
Pd 16.8927 20.5636 9.44622
Au 10.0899 6.52823 8.15194
Pd 10.6548 24.007 18.3736
Au 22.076 14.0495 12.3533
Pd 19.7885 11.8667 27.7563
Au 22.5908 8.64792 22.506
Pd 11.9197 11.6511 17.1982
Au 3.89603 12.0076 17.9929
Pd 16.3283 10.0412 6.72818
Au 21.9645 10.7025 26.7885
Pd 13.0799 17.7178 19.6424
Pd 5.32896 8.91579 11.7426
Au 15.0193 12.3159 19.4843
Au 18.3996 19.5275 14.7452
Pd 21.2727 8.2317 11.3294
Au 26.7974 16.5217 12.4898
Pd 8.28905 9.25994 7.23617
Au 21.4066 21.0696 25.073
Pd 21.8834 15.0522 25.0249
Au 20.6406 9.25414 24.8336
Pd 25.4426 11.225 20.425
Au 25.5826 15.2213 21.7796
Pd 10.9102 6.22201 14.6946
Au 5.93694 15.5178 4.86503
Pd 7.90009 24.6904 18.6518
Au 15.1882 15.3707 2.36618
Pd 21.0271 9.99453 20.4097
Au 19.1855 16.913 14.8689
Pd 14.5998 26.1068 20.4084
Au 12.6662 21.8221 22.8071
Pd 6.62946 15.3314 10.3113
Au 15.9082 2.11107 14.5778
Pd 21.076 18.5409 26.0565
Pd 9.60456 4.74539 16.5593
Au 15.016 5.1608 18.1863
Au 8.47269 18.5768 22.3431
Pd 8.53924 16.8672 8.92907
Au 14.0313 8.60282 7.16144
Pd 12.2861 10.5322 7.02978
Au 12.2903 8.9098 22.7958
Pd 24.3867 17.9438 13.0751
Au 26.385 13.8943 13.2656
Pd 9.40845 10.5252 11.2204
Au 18.953 10.1823 11.3627
Pd 16.9624 7.00809 19.601
Au 24.8377 15.4055 8.91589
Pd 16.4804 19.3293 16.986
Au 14.6272 29.1857 14.3365
Pd 18.576 24.0497 21.6139
Au 10.3207 17.1309 19.0581
Pd 4.98902 17.5293 14.3819
Au 24.3161 20.0436 21.7252
Pd 11.9938 28.7283 14.3551
Au 18.2056 11.0967 25.6874
Pd 23.1528 7.52454 13.1541
Pd 12.4281 15.1502 15.3128
Pd 8.48971 13.9331 16.9695
Pd 10.0594 18.2948 10.5734
Pd 10.8795 26.29 14.6383
Pd 16.2173 25.5447 15.4549
Pd 20.9359 10.6191 6.2488
Pd 13.9477 24.0006 15.9286
Pd 20.1596 6.02651 16.345
Pd 21.7527 21.2798 11.0037
Pd 16.9301 23.0652 11.854
Pd 17.9191 21.5021 16.5824
Pd 9.69543 12.2569 19.0453
Au 14.1478 9.65655 9.80643
Au 11.1678 24.0634 22.9299
Pd 11.776 3.74571 15.117
Au 24.4905 14.9883 24.2369
Pd 20.2388 20.3254 12.7876
Au 26.1053 21.4456 10.8064
Pd 14.797 14.873 4.83652
Au 25.8944 11.3534 17.9003
Pd 15.2479 28.2351 10.0766
Au 13.0118 21.9678 4.68741
Pd 5.83011 18.7202 21.3837
Au 17.6742 20.4576 12.0644
Pd 19.4441 7.53568 18.4888
Au 9.09895 15.6264 11.3383
Pd 18.4786 23.3957 18.8724
Au 21.7635 13.5173 27.3641
Pd 16.1818 28.027 16.2468
Au 22.4243 5.72076 11.3933
Pd 20.7596 11.0326 22.8668
Au 19.4697 26.4726 9.91337
Pd 19.5362 14.9145 17.9829
Pd 20.0209 19.0624 16.9388
Au 14.0376 9.35979 27.2517
Au 18.4207 1.88929 15.2278
Pd 14.1955 7.18929 11.3052
Au 16.4444 18.9671 4.49221
Pd 20.4346 17.4048 19.0987
Au 11.3206 22.7416 20.5709
Pd 9.67343 19.0664 15.4271
Au 13.7242 24.0362 21.8221
Pd 17.3258 13.0218 14.3999
Au 19.4695 5.7815 8.10055
Pd 22.6928 22.1373 23.0427
Au 15.214 6.28039 6.52153
Pd 17.9259 24.9833 13.6131
Au 15.2605 12.4 23.5494
Pd 22.0157 11.9833 14.0206
Au 21.6334 23.57 16.1303
Pd 12.1437 17.4062 11.8394
Au 7.7926 8.68731 12.7917
Pd 20.5873 19.7544 3.43931
Au 10.1173 27.0575 10.2859
Pd 20.4717 14.2407 10.2122
Pd 20.2657 16.6502 21.7171
Au 12.5811 6.10041 6.973
Au 18.9798 16.944 27.2782
Pd 18.3609 18.6523 2.6519
Au 19.6579 16.6225 24.6806
Pd 23.4123 9.69486 14.7717
Au 9.53062 16.972 2.76128
Pd 23.1637 10.1871 12.2029
Au 8.79352 22.866 22.5633
Pd 16.4343 10.0336 18.9996
Au 20.2617 14.3756 14.6885
Pd 13.7261 11.0463 21.7505
Au 7.82372 26.0666 11.6675
Pd 19.0447 18.8621 5.35932
Au 13.5501 24.1657 18.7883
Pd 19.1244 10.2458 18.2462
Au 13.5039 23.0675 11.3954
Pd 10.8795 13.5863 10.6047
Au 20.273 24.0724 8.8077
Pd 23.732 18.1209 15.5455
Au 19.7606 22.9735 6.3194
Pd 26.3695 18.5188 14.7051
Pd 8.88252 14.8469 19.473
Au 8.16569 22.111 9.20849
Au 23.5497 17.4192 7.59512
Pd 11.8039 15.3378 20.2298
Au 9.69088 27.9093 12.7887
Pd 19.7966 19.3221 23.8939
Au 16.4866 5.67644 24.3743
Pd 14.0105 12.0753 11.1553
Au 12.6774 8.89561 16.9084
Pd 17.3922 15.6568 13.2861
Au 23.2281 11.0499 21.6945
Pd 15.7104 12.4478 5.53729
Au 11.5528 11.6466 12.3874
Pd 19.4371 8.99458 15.8764
Au 5.96065 7.4387 16.2787
Pd 7.68837 12.5631 14.8694
Au 19.1038 13.3218 12.4536
Pd 15.7587 16.9705 6.16905
Au 8.73985 22.9613 16.7635
Pd 21.1815 16.4698 16.5592
Au 11.1244 15.0922 13.0303
Pd 12.4249 21.959 17.7107
Pd 14.8765 13.6169 27.9046
Au 8.4624 7.19592 15.2778
Au 21.5572 15.6424 7.84115
Pd 22.446 20.1341 16.6723
Au 8.22652 10.0611 19.8194
Pd 14.8216 15.2841 23.8568
Au 5.37354 13.489 8.76239
Pd 18.509 8.14499 9.44044
Au 11.8134 19.4525 4.91251
Pd 21.1909 18.5473 14.621
Au 21.594 7.24651 20.2389
Pd 18.4181 21.2472 4.4982
Au 12.8815 21.9639 25.573
Pd 14.6075 24.2822 5.25663
Au 14.4979 7.21135 23.3349
Pd 8.06911 26.5713 14.3398
Au 6.42142 21.6474 12.6273
Pd 17.3566 14.6984 5.9326
Au 25.3079 19.5165 8.97117
Pd 12.0058 4.40507 17.6904
Au 15.2148 18.6013 26.1596
Pd 15.0962 11.6738 14.647
Pd 8.09887 19.4546 8.62017
Pd 23.8725 13.4469 20.6289
Pd 17.6777 25.9115 17.7755
Pd 6.67791 16.5407 22.5776
Pd 11.8025 19.493 23.7969
Pd 10.4994 21.8354 24.5086
Pd 11.368 4.06682 22.1419
Pd 15.7263 4.50026 13.1064
Pd 9.48187 17.3579 13.2723
Pd 13.0203 17.6859 6.7102
Pd 16.9731 4.91599 21.9205
Pd 7.7736 14.0615 22.1161
Au 6.19742 15.1481 20.1831
Au 12.4613 6.40235 21.7129
Pd 18.9325 6.13012 23.5771
Au 10.7981 22.7683 10.4572
Pd 14.433 9.87672 12.7171
Au 8.78439 11.3132 25.9912
Pd 15.3949 17.986 23.4374
Au 25.9902 9.88166 15.6159
Pd 18.8312 21.4276 25.4331
Au 17.6212 15.1124 23.2195
Pd 5.37313 20.1872 14.7479
Au 7.04315 4.52481 12.6525
Pd 22.6359 5.43977 14.8977
Au 8.92087 13.96 26.5103
Pd 11.9065 25.458 20.5443
Au 26.3842 13.6288 19.6607
Pd 10.2527 7.99788 24.5188
Au 24.0634 22.5929 12.1578
Pd 11.8087 17.6204 14.661
Au 18.6184 12.1467 5.43517
Pd 16.8301 15.9285 8.51046
Pd 14.3981 18.529 10.8083
Au 10.4316 5.32842 19.7725
Au 18.5526 25.3061 7.22512
Pd 7.33374 9.81486 15.2846
Au 20.214 17.0597 3.60717
Pd 10.4317 7.03861 17.6108
Au 21.9152 15.0761 19.262
Pd 12.8869 23.2517 8.7164
Au 12.9138 8.08482 13.9987
Pd 15.5016 22.926 9.57645
Au 22.7447 17.8148 20.8137
Pd 7.53108 20.4522 16.3869
Au 15.1508 24.627 13.0533
Pd 13.9626 16.3167 8.95966
Au 6.84292 6.70932 11.0987
Pd 12.1257 25.1401 10.4202
Au 23.7186 12.7047 25.717
Pd 20.185 14.2764 23.1365
Au 17.9744 18.19 7.68274
Pd 17.6117 22.6976 7.88017
Au 13.6152 4.41186 11.2874
Pd 10.2107 25.1298 12.2573
Pd 10.5414 9.7323 18.438
Au 16.8724 16.5714 25.3912
Au 14.1152 19.9086 3.18055
Pd 19.0556 14.2679 25.8856
Au 17.6372 7.48721 6.85399
Pd 6.5535 22.5383 15.1492
Au 6.86374 16.3868 12.9633
Pd 16.1771 18.2486 12.7145
Au 16.6222 13.5264 21.2595
Pd 12.9952 12.6694 5.52826
Au 14.1724 4.43628 22.7643
Pd 9.00491 24.1497 14.4217
Au 6.02259 6.88476 13.6757
Pd 9.00322 24.6417 9.72711
Au 13.9032 17.3476 4.07208
Pd 20.0854 3.95913 14.6587
Au 17.1939 9.61852 13.9223
Pd 17.1654 12.6031 7.6825
Au 5.00486 11.3385 10.5519
Pd 19.3296 19.3543 21.2501
Au 11.1469 18.0922 21.5523
Pd 10.379 8.99643 15.7335
Pd 6.64307 19.9042 19.0242
Au 23.8533 13.9134 14.5063
Au 18.8517 22.4724 13.6446
Pd 14.7936 22.357 6.97391
Au 16.5475 2.9541 17.3664
Pd 17.1961 10.8079 16.3358
Au 12.8129 7.89396 25.3843
Pd 16.7991 6.19989 10.8892
Au 23.8326 22.4866 15.0101
Pd 22.3173 16.1643 10.3685
Au 18.58 9.41601 5.23336
Pd 17.0549 26.9064 8.80189
Au 19.3258 11.2929 14.2108
Pd 21.6247 8.9371 18.0891
Au 18.3204 5.17925 12.8063
Pd 20.6535 6.43112 13.4971
Au 19.4923 16.3949 6.16286
Pd 9.51603 20.6679 6.58941
Au 12.4702 10.7038 14.7455
Pd 19.0849 14.519 20.5836
Au 5.91894 17.6971 8.98545
Pd 8.25768 15.4669 24.4071
Pd 10.4981 20.5186 9.10489
Au 8.57912 11.5325 22.0842
Au 24.4962 17.5468 10.4427
Pd 22.6294 13.0961 23.3665
Au 16.6688 11.569 12.0425
Pd 8.30595 13.2797 6.59289
Au 17.9586 15.0904 10.7544
Pd 16.4359 13.8634 25.531
Au 26.3655 15.2803 17.481
Pd 13.8686 21.8267 20.0764
Au 20.8951 9.32787 13.6052
Pd 11.7427 15.1762 22.9948
Au 12.3934 12.6995 19.6572
Pd 20.7961 18.4563 7.58327
Au 18.1154 6.91371 14.8984
Pd 11.2441 23.3725 15.6827
Au 14.4751 11.6922 7.97441
Pd 13.0121 4.16071 20.119
Au 17.2109 20.224 23.4964
Pd 10.3943 8.48051 13.1834
Au 19.5291 9.3078 27.1746
Pd 12.1539 21.0578 7.10646
