665
Atoms. Timestep: 20371
Pd 13.8295 12.2752 8.2145
Pd 3.21737 14.6145 18.677
Pd 14.525 9.77822 8.80537
Pd 16.9857 6.17193 16.5847
Pd 15.3348 18.9434 15.205
Au 14.125 19.9625 5.28789
Au 15.3778 7.50436 9.74252
Pd 18.6323 4.15726 17.6219
Au 9.19825 11.406 9.27415
Pd 14.3134 5.81269 17.0367
Au 11.4695 2.54018 8.96142
Pd 9.85227 18.5451 21.4277
Au 12.975 17.3768 14.2497
Pd 9.76544 25.2379 22.8496
Au 8.50783 23.8973 15.9935
Pd 14.5653 8.15303 12.7402
Au 3.29693 14.4421 12.5837
Au 15.2646 5.6836 14.378
Pd 12.5893 4.39639 7.26721
Au 21.4399 4.07161 17.4419
Pd 10.2948 23.2057 17.8568
Au 10.6266 7.23455 7.55513
Pd 15.9975 14.7377 4.61135
Au 8.92393 11.995 25.5675
Pd 5.40149 14.973 17.1549
Au 16.7344 19.8676 27.7655
Pd 14.1696 21.4279 19.5616
Au 4.64232 21.6882 15.3087
Au 6.72813 17.022 10.4763
Pd 15.9618 3.93978 17.8694
Au 9.93086 14.7381 20.6584
Pd 11.6942 6.55643 17.126
Au 22.3647 24.9085 16.6529
Pd 5.11111 17.112 12.6933
Au 17.4915 13.3104 26.5139
Pd 17.1738 21.1172 20.5031
Au 18.5878 20.6718 23.2307
Pd 8.67688 16.5922 25.8767
Au 6.87035 12.2555 7.97374
Au 5.24778 12.0587 12.733
Pd 10.8992 10.4271 11.4916
Au 12.6292 6.62744 5.58719
Pd 11.5742 15.1005 10.4353
Au 9.47801 16.3491 3.51051
Pd 12.0475 21.2723 23.7213
Au 5.4799 18.1916 20.8277
Pd 24.8787 21.7454 18.7296
Au 7.53865 18.176 22.7654
Pd 7.81457 10.8473 19.4504
Au 17.3476 16.84 3.37557
Au 20.7056 12.8327 5.6067
Pd 10.3248 17.3285 15.0082
Au 26.3203 11.4939 9.58919
Pd 5.84156 9.26661 12.687
Au 3.30886 17.0449 19.8698
Pd 17.8921 18.3667 9.86097
Au 5.13387 14.7885 14.4439
Pd 11.5089 20.7299 21.0236
Au 7.91206 24.4938 18.5905
Pd 11.9148 14.0371 13.1299
Pd 14.7014 10.5107 6.25284
Pd 25.721 10.9075 12.1152
Pd 14.9 4.84829 8.61484
Pd 17.5799 24.9211 17.0315
Pd 14.1603 8.04216 21.7622
Pd 14.4626 13.9919 17.5223
Pd 14.1496 16.6295 26.0685
Pd 9.60877 20.8011 22.9459
Pd 8.28332 19.0472 15.0109
Pd 9.71911 9.44431 20.9652
Pd 14.2693 21.3661 24.998
Pd 11.7022 19.3191 6.36904
Au 16.1339 21.3489 4.26715
Au 17.0599 23.7455 7.80801
Pd 15.4793 3.16026 10.9385
Au 19.3024 6.63304 6.75103
Pd 5.90292 19.4418 14.0018
Au 3.39194 12.4872 14.5856
Pd 14.0085 10.7936 22.1422
Au 7.4008 9.42087 8.33025
Pd 7.7291 21.8971 17.8278
Au 10.73 25.3363 16.0781
Pd 17.0604 4.56291 12.7044
Au 8.7001 13.5682 22.9586
Pd 6.99493 8.6945 15.4756
Au 10.477 8.18017 4.92757
Pd 23.6903 15.1842 16.6163
Au 14.1304 6.64836 24.0479
Pd 12.0516 12.4785 3.75233
Au 11.4254 14.0964 5.83492
Pd 16.4019 17.0079 23.8055
Au 14.2281 10.4405 11.3553
Pd 18.9856 18.4125 27.3204
Pd 20.5834 21.7425 10.8755
Au 6.41636 23.9855 14.213
Au 16.6589 12.2318 11.0115
Pd 5.20894 19.505 23.1047
Au 9.89301 7.70137 12.0598
Pd 15.7163 19.0929 12.4875
Au 10.0316 13.039 11.372
Pd 6.68309 21.6584 10.1815
Au 8.17258 6.2695 15.6305
Pd 9.82999 11.9681 13.8136
Au 17.5963 25.2679 22.7801
Pd 23.034 13.7254 14.4935
Au 3.97088 15.5805 10.1881
Pd 22.6014 17.427 17.5148
Au 7.34337 20.5724 24.3662
Pd 7.39055 13.3379 20.5807
Au 22.1712 6.2869 18.7803
Pd 16.3124 23.5144 21.2955
Au 13.0045 12.496 15.7415
Pd 3.55982 19.2799 12.8593
Au 9.71973 11.9926 21.0284
Pd 16.2167 23.0305 18.6199
Pd 19.0703 20.6925 8.91343
Au 8.04266 21.1377 7.92014
Au 19.9016 9.08393 7.8585
Pd 16.8203 6.28293 7.68273
Au 16.5885 15.6376 17.8285
Pd 18.96 11.4376 4.14203
Au 16.6496 7.36546 23.4738
Pd 17.7207 17.2267 15.3352
Au 12.0863 22.2328 26.3448
Pd 9.6555 17.1009 10.105
Au 16.5618 25.9727 20.0224
Pd 7.8575 16.6396 8.1011
Au 13.3284 14.8876 28.0218
Pd 6.14408 19.6778 16.6287
Au 19.0883 27.2937 13.3834
Pd 14.2829 16.6429 18.9867
Au 12.1626 25.4156 18.3748
Pd 11.0027 12.0427 23.6586
Au 11.7655 20.793 18.1383
Pd 13.931 13.2402 23.2077
Au 5.64185 22.1321 22.6635
Pd 19.7505 21.5301 13.4036
Pd 9.7289 8.74989 9.61885
Au 18.6544 26.8405 18.4996
Au 8.91552 25.3055 13.7342
Pd 9.32471 9.31757 14.0756
Au 11.8679 20.9113 4.15755
Pd 14.6263 16.3984 2.83222
Au 6.25968 17.7922 24.9838
Pd 9.99922 4.58726 8.27389
Au 10.8381 6.24139 10.0785
Pd 7.49809 15.8444 21.5401
Au 9.909 18.9029 4.34326
Pd 15.9643 23.9661 10.4658
Au 7.6539 8.31857 18.6548
Pd 16.7723 9.89404 4.67609
Au 11.44 7.38482 21.4233
Pd 23.5686 20.3052 22.6897
Au 24.0671 22.6462 21.2132
Pd 25.2187 16.5734 18.3938
Au 11.5189 16.7425 25.0901
Pd 7.30539 12.8741 5.21464
Au 11.9845 16.458 21.2403
Pd 18.1717 25.0207 14.3831
Pd 18.3993 13.7065 7.09691
Au 20.5219 20.3338 6.59659
Au 9.35246 22.0632 10.455
Pd 12.121 15.1395 15.7909
Au 8.43585 19.4515 9.97267
Pd 4.81689 21.6933 18.0275
Au 9.12445 5.95959 18.0835
Pd 24.1291 18.5123 12.1208
Au 6.30535 22.7318 20.0728
Pd 13.7245 15.6027 12.0502
Au 12.1916 12.6636 21.0473
Pd 10.3546 17.0145 19.2969
Au 18.0887 22.4586 15.5784
Pd 8.39005 11.2468 16.491
Au 22.3447 22.1838 17.6897
Pd 9.01998 22.5636 20.3774
Au 12.4518 3.92447 17.5195
Pd 9.9689 15.5492 17.1303
Au 4.52258 20.7344 20.6937
Pd 23.3984 24.429 14.2792
Au 22.0938 24.7366 21.3786
Pd 12.0786 19.3616 25.5462
Pd 11.2552 10.3566 15.6365
Pd 19.4513 6.16594 11.3865
Pd 8.93477 15.0445 6.20925
Pd 14.0308 20.1486 21.9169
Pd 23.4063 8.3256 13.8317
Pd 9.96772 14.3596 25.159
Pd 18.4761 19.6724 16.5034
Pd 21.785 17.4422 11.5669
Pd 10.4469 9.85796 25.1894
Pd 21.0811 11.6058 10.8336
Pd 9.92743 9.82942 7.09288
Pd 18.2789 7.51009 9.33803
Au 14.5604 8.35366 4.38689
Au 22.6248 5.03717 12.1303
Pd 14.566 16.5732 16.3062
Au 20.2057 4.11617 12.7984
Pd 24.5516 9.78787 8.45836
Au 14.427 3.28439 15.6852
Pd 15.5726 16.7462 13.6847
Au 7.22384 15.2325 4.09017
Pd 7.29276 10.9365 14.0813
Au 7.13007 7.99599 10.6464
Pd 4.76982 10.2437 14.9206
Au 15.4644 23.9428 24.0763
Pd 5.45762 15.3426 19.9539
Au 12.293 12.1587 18.283
Pd 16.3436 10.3757 13.1801
Au 15.2514 17.5244 28.5946
Pd 18.7819 10.8865 12.2079
Au 5.67604 17.4125 18.2543
Pd 22.924 21.7442 15.1569
Au 2.52189 16.9756 11.8892
Pd 12.5689 5.05265 15.0113
Pd 10.1725 5.52681 5.75592
Au 21.2027 10.2642 5.54836
Au 11.9025 15.2132 3.24148
Pd 4.02528 12.3526 17.4009
Au 10.8193 16.0137 8.01906
Pd 17.5579 4.3612 6.26518
Au 16.9739 7.18194 5.18846
Pd 5.93116 14.7593 11.8663
Au 8.25572 7.75524 6.21591
Pd 15.9077 6.7047 19.0672
Au 12.382 9.84556 4.27809
Pd 13.1519 18.2087 11.5945
Au 7.16078 8.8585 21.3547
Pd 6.31201 14.6209 9.17592
Au 6.27459 11.3337 21.9196
Pd 14.501 12.1178 19.8212
Au 8.24794 10.213 11.6833
Pd 5.40683 17.2611 15.5191
Au 8.33974 5.5793 11.0141
Pd 10.8873 23.0913 22.198
Au 20.4853 7.29093 20.6877
Pd 11.5915 22.602 15.4596
Pd 23.1816 15.9385 22.5596
Au 12.7575 18.0806 3.91976
Au 24.6573 20.7874 9.1608
Pd 9.36456 18.665 7.41457
Au 10.4604 20.0581 13.802
Pd 16.0209 21.2867 14.1845
Au 15.4202 18.9729 3.12681
Pd 12.0493 8.85202 13.3267
Au 17.2539 11.4152 19.5364
Pd 13.6936 22.8481 4.80525
Au 15.2057 19.033 9.89999
Pd 16.4276 11.7999 8.2817
Au 13.4696 25.5151 9.19821
Pd 16.3553 14.0056 19.7373
Au 20.2003 14.0047 26.2202
Pd 14.1787 24.2606 19.9946
Au 7.80864 17.0381 16.6964
Pd 17.8322 27.5375 15.7861
Au 21.0792 19.4357 25.9036
Pd 11.903 23.0275 19.8558
Au 9.30247 8.0829 23.2101
Pd 15.5072 19.1828 19.7631
Pd 13.3885 7.56904 15.2042
Au 8.07455 20.7631 12.5408
Au 19.6653 23.0532 7.68487
Pd 9.39214 13.1225 18.5391
Au 9.43011 8.53889 16.6605
Pd 12.5312 8.99611 6.85697
Au 16.904 9.62321 10.4261
Pd 13.2123 14.8237 7.73564
Au 9.43217 5.08506 13.3974
Pd 14.0222 13.0651 5.56602
Au 15.5514 5.70748 21.6557
Pd 17.7246 25.6076 11.6301
Au 17.9411 17.3154 12.5553
Pd 9.58524 18.6636 24.4754
Au 11.3463 12.3672 26.553
Pd 15.9484 14.9343 22.2603
Au 12.206 26.3366 11.4883
Pd 9.79939 18.6584 17.3343
Au 20.7773 16.7796 26.1364
Pd 22.5617 13.3787 19.992
Au 16.457 27.3619 13.2856
Pd 18.8142 15.6246 19.4395
Pd 16.6218 12.3503 5.62426
Au 16.4423 21.362 9.11629
Au 14.2547 13.7318 2.85961
Pd 19.0997 8.36626 13.3494
Au 7.81726 19.1262 26.5614
Pd 21.1132 11.5868 8.00736
Au 7.9072 14.1845 16.1579
Pd 4.67676 12.7511 20.0762
Au 4.05451 18.2312 10.1305
Pd 21.0057 24.1622 9.72077
Au 7.48487 16.2867 14.0596
Pd 8.53117 18.0924 12.445
Au 7.60028 10.3766 5.87137
Pd 12.049 14.8063 18.7169
Au 6.29328 14.924 6.54823
Pd 22.2295 12.8684 17.2987
Au 8.09943 22.982 22.9953
Pd 10.0938 25.0328 20.104
Au 10.4128 3.7459 11.1492
Pd 3.04218 16.7624 14.4311
Au 12.2822 25.348 21.5838
Pd 9.45281 22.7168 13.7728
Pd 19.7273 3.62125 15.322
Pd 14.8868 7.84013 6.92017
Pd 6.58665 12.8167 18.1614
Pd 21.6446 16.0436 9.0133
Pd 16.6625 19.0272 22.1963
Pd 16.5985 9.58839 21.8268
Pd 12.331 9.95347 20.1879
Pd 13.7576 3.81292 12.9831
Pd 12.1141 6.03858 12.5334
Pd 10.1218 23.1299 24.7061
Pd 16.743 17.3894 26.3956
Pd 18.5793 14.2112 4.34706
Au 19.6001 16.0548 10.9503
Au 9.86887 10.9789 4.55433
Pd 20.721 8.46806 18.1041
Au 24.7266 14.0343 18.7307
Pd 19.1919 18.2402 21.7803
Au 9.80125 20.8404 25.9986
Pd 24.4836 21.1216 11.9376
Au 12.7782 9.33338 17.52
Pd 10.6358 8.02079 18.97
Au 16.687 14.7552 15.2971
Pd 7.9375 17.8611 19.7023
Au 17.4374 4.6791 20.0039
Pd 18.4461 15.8169 22.3061
Au 17.7075 7.30847 20.9471
Pd 14.8835 9.27734 24.1047
Au 14.0644 2.28102 8.88904
Pd 19.9917 20.5447 20.759
Au 10.1832 4.45431 16.0104
Pd 5.08737 16.5377 22.7784
Au 10.6381 7.03085 14.7314
Pd 10.2363 10.5545 18.3396
Pd 16.1389 16.8624 8.17581
Au 12.6931 2.07047 11.3287
Au 9.81664 23.1524 7.59747
Pd 16.7734 12.4362 3.06065
Au 27.2524 14.9702 19.2418
Pd 10.987 16.7327 12.4795
Au 24.5767 23.4118 16.5854
Pd 18.5114 5.9496 14.3258
Au 16.9659 3.1058 8.58898
Pd 19.7007 13.0329 18.7997
Au 8.19549 6.61322 8.57301
Pd 9.57056 13.6523 3.95522
Au 11.2919 3.18049 13.6141
Pd 12.3228 21.9584 6.8584
Au 12.769 8.59859 25.4979
Pd 23.7283 19.876 17.1803
Au 21.2763 9.51415 22.0296
Pd 17.0142 5.32658 10.2046
Au 14.5718 12.8249 26.7971
Pd 23.1042 16.0866 19.9279
Au 17.0577 3.72367 15.3621
Pd 21.4231 11.4642 23.8117
Pd 21.2445 15.5716 15.6162
Au 25.1924 15.4275 14.4172
Au 9.72063 21.1038 5.86365
Pd 14.2125 14.6216 14.4849
Au 16.636 14.7659 2.02659
Pd 11.8955 10.4768 9.01554
Au 14.6836 24.6136 6.86911
Pd 11.5139 14.5052 22.9469
Au 11.3225 5.31107 19.6093
Pd 9.35883 12.4691 6.76623
Au 25.4758 9.79784 20.0809
Pd 15.8453 11.8029 24.6391
Au 11.5127 6.86766 24.0159
Pd 20.4244 21.3341 16.0043
Au 20.2935 24.4578 23.4164
Pd 26.8808 15.1739 12.3804
Au 10.8572 15.5096 27.3686
Pd 11.7976 18.356 9.07778
Au 2.92442 14.5566 16.024
Pd 4.60387 12.9411 10.3145
Au 16.0639 21.5464 23.0522
Pd 24.6924 12.4761 16.4089
Pd 11.2625 13.1412 8.53385
Au 23.3721 11.3573 6.72778
Au 5.95872 23.6592 16.8075
Pd 19.7882 8.99431 10.7451
Au 5.95964 19.4469 11.369
Pd 17.0198 10.3461 15.9534
Au 12.8697 4.47018 10.2388
Pd 9.76293 14.8492 14.2577
Au 24.6311 6.85564 11.7363
Pd 21.823 21.6567 8.45912
Au 8.86643 6.81583 20.688
Pd 3.86708 19.2905 18.4094
Au 19.5833 25.844 21.1388
Pd 14.3384 18.6598 24.1175
Au 11.9895 18.5587 22.9133
Pd 10.7283 19.4655 11.3007
Au 8.56832 10.6749 23.2272
Pd 17.7095 16.1388 6.09104
Au 26.7159 17.7247 20.2171
Pd 18.0913 23.0736 24.3632
Au 14.3822 21.5683 27.8328
Pd 20.0018 26.1178 16.166
Pd 18.7366 21.5945 18.3895
Au 7.60356 23.5459 11.9243
Au 11.6163 24.715 13.5768
Pd 17.5226 22.9816 12.7608
Au 22.5692 25.0479 11.7195
Pd 13.8951 21.1796 15.9391
Au 24.863 17.9904 22.1787
Pd 14.0157 26.8974 19.6509
Au 14.8581 25.7179 22.1629
Pd 20.7565 12.1223 21.3187
Au 12.4979 11.4545 13.3479
Pd 3.24311 16.935 17.168
Au 5.52664 13.9276 22.4338
Pd 19.0217 16.3131 8.37978
Au 13.6856 20.1113 8.07103
Pd 13.3317 23.0677 17.6179
Au 18.3438 18.8938 19.2635
Pd 5.15141 16.7892 8.09078
Au 7.6609 24.8048 21.2179
Pd 6.55258 19.9813 19.1206
Au 22.314 22.5749 12.7252
Pd 15.1259 21.6962 11.641
Pd 13.0482 6.76028 8.4949
Pd 13.9852 19.1561 17.6172
Pd 15.7727 14.3605 7.3043
Pd 19.2247 9.7243 20.3008
Pd 20.9747 6.88577 9.00784
Pd 17.2864 12.8255 17.2265
Pd 14.4252 19.212 26.7377
Pd 18.4611 24.1747 19.4561
Pd 27.6616 16.3286 14.9439
Pd 16.5233 8.05786 14.5906
Pd 11.9582 11.5271 6.36641
Pd 7.58985 7.27568 13.2244
Au 5.5126 21.8368 12.743
Au 5.88825 10.5519 10.2782
Pd 20.2068 17.6343 13.9854
Au 17.6591 19.1806 4.71597
Pd 13.5715 15.6633 5.19992
Au 19.1352 4.83048 8.70042
Pd 18.6343 18.5655 7.13687
Au 22.2124 4.34705 14.8371
Pd 23.0516 17.1735 14.2843
Au 25.2631 12.7296 20.9893
Pd 20.8723 15.0959 21.1473
Au 21.6408 19.0572 15.6627
Pd 20.2601 6.12796 16.392
Au 7.35657 12.7113 10.8593
Pd 13.675 15.9938 23.5025
Au 14.2408 10.0247 14.9345
Pd 17.7248 13.4677 23.7673
Au 18.7514 20.8122 26.122
Pd 14.7513 5.78366 11.6179
Au 22.3293 15.0156 24.8748
Pd 15.5533 12.3699 15.0915
Pd 15.2617 8.39266 16.9885
Au 16.1358 19.3659 7.16082
Au 28.0523 10.0491 11.2408
Pd 21.4353 10.8772 19.0792
Au 18.3652 2.3125 13.384
Pd 15.7666 2.29165 13.4913
Au 18.7696 6.67695 18.5647
Pd 18.7164 11.1363 22.6281
Au 27.3124 11.8884 16.1211
Pd 14.0652 4.70743 19.5849
Au 22.9691 13.3518 22.6815
Pd 16.4954 18.152 17.5435
Au 19.0833 8.4441 22.9389
Pd 9.59444 16.3257 23.1261
Au 17.4833 9.73615 24.59
Pd 12.5795 18.6808 19.8383
Au 10.2218 18.2956 27.2521
Pd 10.4593 12.9854 16.1811
Au 5.28412 10.1462 19.7642
Pd 7.41207 20.5219 21.4884
Au 5.97803 10.3035 17.2965
Pd 5.91141 12.5372 15.5936
Pd 15.6009 23.3286 15.8839
Au 12.6141 24.0841 24.1704
Au 17.9576 21.343 6.43159
Pd 14.5724 11.1728 3.68625
Au 24.9744 10.3668 14.7465
Pd 26.2008 19.3604 10.78
Au 11.0401 16.8202 5.57455
Pd 19.1227 13.5073 11.5307
Au 25.5671 20.292 20.8482
Pd 22.0024 19.8842 13.1742
Au 23.171 9.46704 17.065
Pd 14.4659 17.481 21.5709
Au 13.7172 26.7596 13.7715
Pd 17.9286 12.6229 14.0348
Au 14.6473 12.8757 12.5831
Pd 16.4424 22.1858 26.237
Au 13.1717 11.2301 24.9928
Pd 25.1864 13.1627 7.78544
Au 20.6164 22.0125 24.7327
Pd 22.6335 20.7493 20.1003
Au 13.2973 7.27607 19.289
Pd 22.8464 17.9836 24.304
Pd 17.0671 7.35935 12.022
Au 13.4161 23.9904 11.4568
Au 25.6121 18.4576 8.19617
Pd 23.6714 7.4311 9.34403
Au 26.5664 14.5422 16.6519
Pd 20.7127 16.7093 23.4183
Au 14.7932 14.1105 9.9788
Pd 19.4682 10.5682 14.7999
Au 14.9849 5.42931 5.7654
Pd 27.5977 17.0689 17.4896
Au 18.7984 11.4011 9.42362
Pd 14.9553 26.4031 11.2829
Au 20.7129 17.4999 19.6378
Pd 23.4938 11.965 9.56767
Au 20.1681 4.74598 19.7346
Pd 3.32591 14.8561 21.3532
Au 21.0475 25.6252 18.9044
Pd 23.2411 11.8297 12.6129
Au 20.9092 22.9622 19.7878
Pd 25.8228 9.96455 17.4042
Au 25.968 21.1693 16.1669
Pd 14.9778 25.2325 17.7837
Pd 20.7425 23.6986 14.7848
Au 7.08207 15.3037 24.2335
Au 10.1194 24.5264 11.3883
Pd 12.0854 24.5402 7.1517
Au 6.29715 19.1039 8.50935
Pd 11.6159 23.2438 9.55509
Au 17.4489 14.496 9.56978
Pd 11.5162 22.1403 12.2637
Au 19.8082 19.2097 11.6949
Pd 21.1981 8.6731 15.429
Au 23.0117 19.3532 7.64072
Pd 13.7018 16.6163 9.54512
Au 18.4443 23.1007 10.1827
Pd 26.6664 20.3528 13.3087
Au 12.9513 5.3627 21.973
Pd 7.27699 21.6192 15.0689
Au 27.3001 18.9632 15.4946
Pd 7.57868 13.487 13.5152
Au 3.59793 19.2303 15.6315
Pd 20.4482 15.2704 6.37937
Au 24.1728 15.0335 9.37413
Pd 26.0442 16.776 10.4148
Pd 19.0258 15.0888 13.9569
Pd 22.2066 18.2587 21.5663
Pd 18.6748 8.25606 16.1643
Pd 18.5178 13.4572 21.1464
Pd 15.0058 9.44725 19.5969
Pd 17.3978 8.96833 18.4654
Pd 13.5102 27.2047 16.756
Pd 18.8659 18.3262 24.5955
Pd 20.7591 12.6203 13.3637
Pd 12.6542 12.5792 10.7524
Pd 26.2291 8.52095 13.1326
Pd 20.182 13.8355 9.04507
Au 13.2871 20.1428 13.4084
Au 11.0073 23.3113 5.05559
Pd 10.7376 20.7272 8.63038
Au 21.9217 7.49159 11.4491
Pd 23.5632 16.5726 7.18238
Au 25.0224 13.4059 11.333
Pd 25.1482 17.5831 16.0207
Au 27.9159 11.018 13.6948
Pd 13.5564 17.5545 7.06722
Au 12.6333 8.29514 10.6692
Pd 21.1456 6.56534 13.8191
Au 26.0581 15.8953 7.75761
Pd 12.9232 20.7884 10.4839
Au 15.952 15.1114 27.7427
Pd 19.0568 8.81689 5.27949
Au 24.3191 5.80425 14.1129
Pd 26.2669 17.7007 13.215
Au 15.1596 3.03442 6.64185
Pd 19.9862 23.6913 17.3053
Au 18.5979 15.7286 27.651
Pd 23.7384 9.49034 11.3502
Pd 16.742 16.8557 20.4025
Au 22.473 8.52785 7.09214
Au 25.432 15.4597 21.1189
Pd 17.6608 20.6832 11.4335
Au 23.3248 22.8808 10.2706
Pd 25.6926 12.8758 13.9241
Au 15.2993 28.5568 15.3649
Pd 26.6325 12.2283 18.6894
Au 21.652 22.2152 22.3294
Pd 22.2835 11.1688 15.1725
Au 21.4413 15.2547 12.9775
Pd 14.9284 11.1587 17.443
Au 19.2664 10.7268 17.4902
Pd 23.4221 24.1386 19.076
Au 16.2092 12.2394 21.942
Pd 11.9736 19.4097 15.7982
Au 20.3155 13.8799 23.4879
Pd 17.1026 9.16023 7.45098
Au 12.077 20.1827 28.0514
Pd 7.8416 15.3309 18.7745
Au 28.1274 13.7623 14.3424
Pd 6.71043 12.5219 24.3163
Pd 16.7489 14.6015 12.4624
Au 21.3687 9.83014 12.8774
Au 24.4579 19.6527 14.5074
Pd 21.1895 17.7052 6.74396
Au 22.8793 8.7542 19.9118
Pd 23.6425 17.6984 9.66272
Au 22.4986 19.9982 10.4806
Pd 22.0294 9.55332 9.44057
Au 23.3504 10.9853 21.4428
Pd 16.5835 19.7222 25.0045
Au 20.3069 26.4332 11.1454
Pd 21.2644 15.1483 18.2621
Au 22.8938 6.66535 16.245
Pd 19.9658 24.1119 12.2982
Au 16.201 20.8236 17.2893
Pd 18.7284 11.1403 6.69509
Au 24.6629 7.63515 18.3451
Pd 12.149 17.2606 17.3664
Au 12.6152 17.5285 28.0415
Pd 26.2085 19.2977 18.0991
Au 7.8653 17.4193 5.51554
Pd 15.529 24.6393 13.2169
Pd 18.0545 19.59 13.9478
Au 18.9456 22.9367 21.7617
Au 21.3348 26.0987 13.8116
Pd 8.91782 14.2828 9.04204
Au 26.0528 8.674 10.3279
Pd 18.9019 15.025 16.8093
Au 22.5555 13.8788 7.4969
Pd 20.6646 18.5636 9.15888
Au 19.8148 17.4698 17.0941
Pd 13.887 14.6659 20.7242
Au 14.2244 23.7697 26.3736
Pd 15.2924 21.9807 6.69119
Au 15.614 14.6366 25.0279
Pd 9.66002 21.0619 16.2517
Au 18.499 3.22261 10.8563
Pd 23.9887 11.4103 18.785
Au 24.0223 18.6018 19.5916
Pd 20.9976 19.6973 23.3191
Au 18.4706 15.6794 25.0295
Pd 12.7415 14.2646 25.4246
Au 11.8743 9.49253 23.0074
Pd 25.1896 22.5025 14.0202
Pd 20.9164 19.8049 18.2319
Au 16.0123 16.6063 10.8708
Au 14.102 22.8437 8.90194
Pd 13.6963 22.7958 22.1207
Au 27.4802 9.21134 15.4726
Pd 18.7223 25.4773 9.1176
Au 20.0285 12.9214 15.8968
Pd 19.1812 11.7319 25.1815
Au 25.3083 7.77563 15.7249
Pd 15.7395 26.0007 15.4367
Au 19.6083 17.2673 4.70542
Pd 22.1992 13.9895 10.8631
Au 16.0726 27.6131 17.8095
Pd 24.0239 15.8145 12.0413
Au 27.7653 12.7404 11.6894
Pd 15.5324 17.4607 5.31285
Au 16.0976 26.037 8.84458
Pd 9.3631 20.2243 19.3376
Au 13.7325 22.7894 13.8125
Pd 8.62857 15.2898 11.6941
Au 26.9128 14.2661 9.63769
Pd 13.3142 24.8093 15.6264
