665
Atoms. Timestep: 20567
Pd 18.6569 17.2282 6.18632
Pd 5.89152 16.558 20.9674
Pd 19.0349 8.2091 10.2971
Pd 6.72819 16.391 18.4772
Pd 15.295 14.3824 27.3658
Au 5.46758 5.94843 15.4243
Au 24.2088 11.9456 8.34018
Pd 10.2797 13.1614 16.3289
Au 13.6594 3.60576 16.3166
Pd 7.24016 9.79315 8.42808
Au 23.3767 6.67633 19.4755
Pd 10.9709 11.4188 18.099
Au 9.28048 20.4014 10.9964
Pd 17.3782 17.5471 15.7423
Au 12.3477 18.5363 6.91653
Pd 14.7317 17.6012 7.54248
Au 11.86 4.55032 9.629
Au 19.757 3.18302 14.495
Pd 10.2907 18.5674 9.07595
Au 17.5817 2.93617 18.8182
Pd 7.71145 7.13252 14.6948
Au 12.5773 19.5626 15.2309
Pd 5.4755 19.2708 7.01581
Au 17.9857 16.6128 25.1069
Pd 10.0433 10.5541 24.8933
Au 23.7552 18.1273 25.1697
Pd 21.8377 20.6895 21.8461
Au 13.2607 16.7814 11.5606
Au 7.39325 4.89494 13.232
Pd 23.6623 21.0891 8.39766
Au 14.8693 16.1977 16.6751
Pd 17.3956 4.64078 9.91968
Au 9.73514 9.13182 7.35777
Pd 8.04536 17.9024 10.3001
Au 18.4726 13.3848 23.5129
Pd 18.443 18.3781 13.2502
Au 19.0716 11.1716 14.8658
Pd 23.2926 24.4391 18.3218
Au 15.9659 5.51303 7.6444
Au 4.11726 20.8847 8.66629
Pd 9.85868 8.91853 12.9846
Au 17.0226 13.7383 9.53764
Pd 6.92337 9.48119 18.3586
Au 14.6882 20.5176 5.09706
Pd 21.4013 22.2368 8.65787
Au 16.3079 15.0375 18.7477
Pd 15.4697 17.5317 10.2042
Au 7.56072 7.6673 22.4262
Pd 17.7753 9.72564 18.2213
Au 17.9854 17.8175 3.57781
Au 20.426 16.4938 4.38907
Pd 11.1058 17.9289 4.60176
Au 25.0655 22.6153 19.5193
Pd 12.8729 5.9766 20.2869
Au 4.38119 14.7519 12.2263
Pd 20.5695 23.9282 6.69485
Au 12.5868 11.8483 24.8395
Pd 8.5062 20.7005 8.53981
Au 4.30313 17.2486 17.215
Pd 12.171 21.0793 5.96417
Pd 16.7293 19.0805 25.0798
Pd 23.16 11.1181 12.4167
Pd 6.66091 14.9903 13.3604
Pd 17.9269 18.8276 20.1306
Pd 18.2544 8.58775 15.753
Pd 8.18057 16.8767 22.2722
Pd 5.87298 13.7183 17.6329
Pd 5.38624 11.2198 16.7486
Pd 11.838 26.4908 8.26357
Pd 14.4951 7.6234 12.2697
Pd 6.77689 19.1009 21.4057
Pd 12.562 6.62449 16.2081
Au 10.8787 23.1995 4.83299
Au 7.33537 16.1373 6.25531
Pd 19.8271 10.1952 8.70476
Au 19.7683 16.7592 14.9991
Pd 8.60118 20.1959 17.2445
Au 18.5271 23.9459 19.1536
Pd 4.34371 13.2481 9.81782
Au 9.33509 11.4435 8.97293
Pd 8.43812 15.7214 8.81093
Au 8.35063 21.3378 22.0022
Pd 15.7389 12.6997 12.006
Au 8.37122 26.7293 12.2164
Pd 10.0415 16.8929 6.95039
Au 24.5969 14.6786 14.0417
Pd 14.4421 12.3079 14.3423
Au 14.8437 3.59973 19.3335
Pd 13.4 22.8298 4.22845
Au 15.6853 16.4889 3.37303
Pd 10.7509 7.05856 18.1619
Au 21.1375 7.56579 22.916
Pd 17.7452 22.9321 21.6917
Pd 13.9677 25.4683 20.9355
Au 11.8416 26.337 17.028
Au 11.48 25.3037 19.554
Pd 9.41454 17.2815 17.305
Au 11.007 15.776 26.1874
Pd 16.7744 21.6297 9.51254
Au 5.60299 21.2357 14.0223
Pd 18.6997 3.83554 12.0707
Au 23.0052 20.613 24.3052
Pd 13.5704 6.70641 23.0465
Au 4.61176 21.0744 11.2557
Pd 10.0933 20.5442 24.3108
Au 6.42223 14.8825 10.3315
Pd 16.4728 20.4563 22.0091
Au 9.23641 5.65371 22.9742
Pd 18.8687 14.2138 18.6994
Au 26.7235 21.0208 17.8912
Pd 19.5029 20.6071 9.65276
Au 7.49514 10.0672 23.8587
Pd 9.85485 23.364 20.6789
Au 11.3957 6.27907 24.6304
Pd 18.2544 23.9052 10.1845
Pd 6.11119 20.8815 16.8563
Au 15.1423 28.078 11.4774
Au 24.6654 18.6247 8.81546
Pd 6.20824 12.6563 11.9323
Au 21.1785 7.8089 8.67289
Pd 7.5896 20.4347 5.80548
Au 6.23623 11.8859 19.5898
Pd 10.905 16.3696 13.0342
Au 18.7226 25.5224 8.0694
Pd 9.98765 12.9359 4.67517
Au 19.2877 23.983 13.158
Pd 17.3353 27.0766 12.6577
Au 11.5805 18.5568 26.2003
Pd 16.8331 19.1735 8.32098
Au 13.3496 28.3924 13.5445
Pd 15.2106 19.4369 20.0047
Au 9.96897 17.671 24.3173
Pd 15.0715 22.9294 22.1077
Au 20.8376 16.2958 19.5766
Pd 5.79372 12.0185 23.0505
Au 12.2053 8.7724 24.8151
Pd 24.1284 11.6786 17.2938
Pd 10.3139 2.48534 18.8208
Au 4.31421 15.3344 19.1186
Au 22.3296 20.5098 14.9111
Pd 9.25813 22.3371 6.64122
Au 19.918 19.3973 4.48642
Pd 11.5063 12.7376 14.0541
Au 13.1296 13.2985 7.6355
Pd 10.9687 6.82207 11.1547
Au 10.7126 6.70871 8.35802
Pd 8.40085 11.5327 13.4262
Au 15.2145 14.073 4.22515
Pd 13.5341 16.3346 26.8274
Au 10.0632 5.27638 16.1921
Pd 15.4932 10.6791 7.50537
Au 12.716 13.5792 27.011
Pd 25.8728 18.1708 11.3139
Au 21.6431 10.1355 23.2098
Pd 20.4571 23.0885 21.2561
Au 16.2922 21.7509 26.3604
Pd 5.84777 17.0821 8.6307
Au 22.0485 11.6549 9.86331
Pd 8.83921 18.1957 12.8102
Pd 23.8303 13.4431 11.1886
Au 14.4714 25.8591 16.0885
Au 7.1168 9.11842 12.9963
Pd 9.39136 14.4988 21.9455
Au 4.54486 19.2043 15.4681
Pd 15.0651 18.5979 15.4178
Au 12.2094 7.45131 13.6689
Pd 20.7152 19.1536 19.58
Au 6.87495 18.2364 16.6092
Pd 12.6439 22.6265 23.4789
Au 15.6124 23.0179 16.8739
Pd 13.1313 13.0245 22.5248
Au 26.2042 24.0315 14.4843
Pd 10.652 10.2701 5.14057
Au 7.59864 5.46132 20.7474
Pd 7.74247 10.5814 10.9504
Au 9.6097 26.3561 14.7114
Pd 21.7387 11.5616 20.9135
Au 6.18468 5.33508 18.2834
Pd 27.0578 21.5765 15.2866
Au 19.057 24.6752 16.0685
Pd 14.5263 21.8978 19.3381
Pd 17.723 14.8832 16.2918
Pd 14.829 10.1959 12.6826
Pd 18.1 6.42881 11.9395
Pd 12.1606 19.2667 23.4006
Pd 23.1188 18.2222 15.8762
Pd 13.1175 18.1162 21.0266
Pd 20.1959 13.9326 21.1508
Pd 11.1582 17.7272 19.3949
Pd 15.94 12.0546 19.0443
Pd 8.01021 12.2404 21.7437
Pd 24.3953 17.5018 13.457
Pd 13.046 10.6455 6.66537
Au 13.213 13.3746 18.5465
Au 23.3938 6.7672 16.5809
Pd 25.2883 19.5077 15.2226
Au 13.1442 5.72394 7.51939
Pd 12.6229 19.957 3.60392
Au 11.0962 2.60393 16.2535
Pd 14.3536 4.34971 21.9027
Au 8.12811 7.29716 8.92093
Pd 15.1552 12.1486 25.847
Au 10.6806 3.80567 11.9501
Pd 25.7861 10.0369 16.14
Au 27.582 17.2758 19.5988
Pd 12.231 17.1268 16.7939
Au 14.6272 9.51132 9.98225
Pd 10.1139 10.7037 15.3196
Au 14.6407 10.2378 23.8562
Pd 19.9531 17.9222 21.7439
Au 9.57719 3.50695 21.1777
Pd 21.7117 18.2749 13.4184
Au 10.8754 13.9871 11.7257
Pd 13.3906 6.92963 9.88386
Pd 24.029 20.7715 17.3498
Au 12.1279 15.4583 4.01186
Au 9.83687 24.5106 16.7639
Pd 9.47695 9.77189 22.1795
Au 24.5682 15.9928 9.77566
Pd 14.3391 0.958632 13.0003
Au 13.0491 5.28706 12.0601
Pd 15.33 15.0273 14.3681
Au 17.089 4.09942 14.2039
Pd 16.2235 3.88423 16.7297
Au 13.9852 26.919 18.6733
Pd 8.60373 13.8426 6.9478
Au 8.14521 11.8731 17.4757
Pd 3.76469 12.5488 18.8041
Au 8.07357 12.6359 24.4079
Pd 15.3305 16.6402 24.6735
Au 17.0618 7.39019 6.06214
Pd 16.6443 7.57175 13.9122
Au 7.54545 4.48723 15.9888
Pd 5.60261 18.7921 18.9614
Au 18.9261 26.5738 18.4887
Pd 18.7763 25.5354 21.2192
Pd 20.6634 23.3879 17.7536
Au 13.6876 19.3044 12.8256
Au 24.3807 8.95628 18.4074
Pd 5.77085 11.1458 14.035
Au 19.5579 8.57729 6.62001
Pd 14.7655 18.5465 23.0424
Au 21.5788 16.5064 9.8033
Pd 12.3721 10.2016 13.969
Au 13.9205 14.3832 24.796
Pd 24.2919 11.1174 19.9602
Au 20.0991 20.6249 12.8586
Pd 19.2771 4.90411 19.7192
Au 17.3716 17.908 22.6581
Pd 8.69979 7.97564 20.0109
Au 26.6018 20.21 12.9947
Pd 13.8921 9.92965 26.4827
Au 23.2714 23.136 10.5894
Pd 6.24298 19.621 9.50429
Au 15.3111 13.3892 16.706
Pd 9.1945 16.053 19.8325
Au 11.9261 2.03855 13.6364
Pd 15.0136 22.2895 12.0751
Pd 16.1338 16.9456 27.1509
Au 25.0655 20.6275 10.5347
Au 23.2129 16.7788 7.59732
Pd 12.2646 25.9881 14.275
Au 6.30353 21.862 7.61314
Pd 22.3183 22.0883 19.4123
Au 7.98516 22.0906 12.8898
Pd 10.0124 19.6513 6.63141
Au 5.10722 7.69383 17.433
Pd 12.1687 9.30928 16.615
Au 13.3655 7.99136 18.5269
Pd 19.9494 19.4166 15.2863
Au 16.125 22.7328 4.34467
Pd 20.0408 9.40625 19.9657
Au 12.3133 9.22825 11.4193
Pd 7.29658 13.0935 15.3287
Au 19.3417 26.1144 11.1348
Pd 9.78295 9.00147 10.1311
Au 10.4239 11.2725 11.7409
Pd 19.7962 13.9275 14.4777
Au 13.0744 12.031 11.89
Pd 17.5299 10.6621 23.8356
Pd 22.2468 13.5107 13.4664
Au 21.1131 13.9195 11.1106
Au 18.6292 17.9691 27.2668
Pd 10.2906 5.84183 20.4205
Au 19.281 11.7677 19.3348
Pd 13.7201 15.3931 6.07727
Au 7.56761 9.75121 15.6491
Pd 8.3469 16.4642 14.8678
Au 14.4285 22.7295 6.65216
Pd 20.3131 18.4913 11.1756
Au 16.4047 19.5031 27.6559
Pd 14.7517 5.89352 14.835
Au 14.3841 27.3341 9.0614
Pd 17.5046 20.2121 15.225
Au 14.6511 4.45085 9.76708
Pd 20.1058 22.2018 15.1388
Au 16.4967 26.6787 19.878
Pd 12.9109 24.0833 12.3611
Au 2.10016 14.2165 11.1902
Pd 17.619 19.2312 10.8289
Au 12.6857 26.8158 11.1685
Pd 9.45407 15.6054 4.65841
Pd 24.6137 13.6651 18.9463
Pd 13.399 10.6776 18.8789
Pd 21.1871 4.6243 12.6654
Pd 13.6642 24.2994 18.3189
Pd 4.7563 13.4397 14.7041
Pd 10.5405 21.7003 16.0457
Pd 13.1935 14.5237 13.0297
Pd 20.0459 11.6416 24.8665
Pd 27.32 14.3613 19.1796
Pd 22.2437 22.4843 13.1048
Pd 23.9318 20.0993 12.855
Pd 15.5825 15.1896 11.495
Au 19.2227 22.0555 5.26511
Au 14.7393 24.9642 10.5243
Pd 14.706 23.7551 14.3712
Au 24.2844 21.9619 22.1257
Pd 25.548 16.0614 18.378
Au 4.12842 11.2401 21.2199
Pd 16.1147 8.53558 22.3505
Au 9.85411 5.96789 13.4649
Pd 11.7055 4.75768 22.5256
Au 22.9154 6.4865 13.6418
Pd 20.2603 12.5891 16.9213
Au 13.2191 2.68204 11.2921
Pd 11.8366 14.6122 20.6709
Au 15.4227 6.54196 20.5964
Pd 16.5246 10.3016 14.6803
Au 12.1794 8.94943 8.57721
Pd 7.17502 14.3325 20.0968
Au 13.8228 17.766 4.78792
Pd 17.3045 10.5902 20.9649
Au 9.82115 22.9102 9.27969
Pd 13.3431 1.07645 15.6655
Pd 25.3637 16.7194 15.793
Au 15.7822 5.29627 12.1529
Au 14.9463 20.0809 10.5206
Pd 14.3376 20.2879 7.82878
Au 24.3754 11.9851 14.6497
Pd 17.2731 22.7244 14.5011
Au 27.0419 17.6358 13.8516
Pd 21.9824 10.8944 18.4502
Au 17.8456 1.63685 13.4128
Pd 14.5594 11.1534 21.2439
Au 8.8413 4.62649 18.5107
Pd 5.63272 6.91725 12.8341
Au 8.91993 10.7469 19.8264
Pd 15.747 13.3618 6.86301
Au 14.2269 18.8971 25.946
Pd 18.5667 19.5208 17.6471
Au 26.8596 17.7843 22.1947
Pd 17.7105 15.7491 13.6774
Au 11.5588 11.0606 27.0552
Pd 22.7369 13.6177 16.1886
Au 15.4592 1.51104 17.6385
Pd 19.3002 18.9015 24.2825
Pd 19.603 15.7957 23.2745
Au 22.6866 22.8475 16.2739
Au 7.01112 20.9856 19.4929
Pd 8.27606 18.4874 19.3775
Au 26.0294 15.5638 11.9844
Pd 7.8912 18.3329 7.59272
Au 22.1664 23.1304 23.364
Pd 19.9612 14.3008 25.5106
Au 4.40623 9.7535 19.15
Pd 10.5587 13.9861 8.9548
Au 19.6938 26.5091 13.8876
Pd 25.7285 18.6151 17.8343
Au 3.80473 18.6024 10.0398
Pd 8.19305 24.2267 11.1837
Au 18.9481 8.83763 22.3508
Pd 14.6967 26.0902 13.1113
Au 10.3213 13.1636 25.7846
Pd 6.76853 19.7264 12.0928
Au 2.36923 14.0395 13.9304
Pd 10.0506 20.6303 4.29695
Au 16.2614 26.399 7.29814
Pd 15.6514 16.924 20.7206
Pd 10.8455 12.0623 6.98208
Au 20.1037 5.58611 10.2663
Au 17.7125 12.6566 4.95637
Pd 12.7194 12.8601 4.94153
Au 16.8801 25.4466 14.7574
Pd 21.7179 11.4069 15.0451
Au 13.2381 21.4368 17.0499
Pd 12.0036 4.6201 14.438
Au 21.8279 13.6587 18.89
Pd 11.0977 19.5257 17.4635
Au 7.95308 7.05434 17.3854
Pd 3.90853 16.4089 14.3879
Au 8.49926 22.7798 18.2268
Pd 16.6304 14.3318 25.1636
Au 17.8662 12.2819 26.1937
Pd 17.4589 20.4447 4.1311
Au 10.7457 27.9508 12.7176
Pd 16.7491 25.3108 17.5121
Au 22.5593 6.83512 10.7286
Pd 25.9313 12.7817 21.1353
Au 14.0426 24.8982 23.5814
Pd 15.064 24.9479 5.40616
Pd 10.315 23.6525 14.2476
Au 6.91237 22.1063 10.2828
Au 18.8215 22.5647 7.95176
Pd 16.2365 17.8394 18.1912
Au 26.692 19.8923 20.3662
Pd 12.9525 18.5793 9.5933
Au 16.9803 4.36489 21.0797
Pd 16.3727 25.3022 22.2479
Au 21.4201 20.9078 6.40539
Pd 10.4869 22.715 11.8066
Au 3.58008 12.116 12.2123
Pd 13.7557 15.7793 22.3162
Au 5.0634 8.65212 14.9464
Pd 23.2121 18.2606 11.0092
Au 5.8148 14.5778 7.7512
Pd 12.5519 20.945 25.4897
Au 19.2715 23.9593 23.5715
Pd 12.4805 21.1383 11.184
Au 7.6986 24.0477 8.38753
Pd 9.5914 13.3539 19.4194
Au 23.0196 9.45437 16.1797
Pd 7.87821 24.6045 13.8145
Pd 8.54908 13.2393 10.8507
Pd 3.20383 10.6949 14.3723
Pd 17.8394 11.207 12.4445
Pd 11.2223 9.18103 19.9135
Pd 17.2135 16.4513 8.44214
Pd 16.777 21.4186 6.67132
Pd 14.805 13.9728 20.6802
Pd 14.928 21.0299 24.1981
Pd 17.9117 21.8375 11.9445
Pd 24.3026 16.7457 22.8841
Pd 15.8814 7.99977 17.131
Pd 20.6359 7.13039 12.417
Au 17.9447 11.8526 7.62221
Au 9.1869 5.12573 10.1364
Pd 20.5672 15.1827 16.9088
Au 12.0353 11.498 9.44354
Pd 17.4548 10.0498 5.65864
Au 14.5888 6.42079 5.48007
Pd 18.2056 22.1564 17.0819
Au 26.997 12.2011 15.0899
Pd 16.9569 10.9408 9.97332
Au 23.9682 24.5433 13.1619
Pd 12.9583 14.4429 15.8502
Au 22.174 20.7074 10.9021
Pd 17.288 6.14149 16.0306
Au 3.76058 15.8316 9.66705
Pd 14.9378 7.86364 24.9564
Au 17.3512 8.91307 8.26395
Pd 23.3955 9.33317 9.4772
Au 16.5603 9.78232 26.0589
Pd 6.59074 9.86656 21.264
Au 13.5661 8.60668 21.2289
Pd 20.1272 9.89723 16.9705
Pd 23.4179 15.8839 19.9857
Au 20.4822 11.5818 12.5637
Au 21.6483 25.0648 11.9499
Pd 19.2107 7.18428 17.9024
Au 18.6178 23.0437 25.9213
Pd 21.5424 4.96889 15.4272
Au 22.6584 8.97295 20.8074
Pd 21.7248 8.21221 18.223
Au 23.9121 11.4807 22.6569
Pd 19.089 8.98462 13.2221
Au 24.0037 25.1504 15.7676
Pd 10.6722 15.5541 15.4492
Au 25.4571 23.1997 16.9375
Pd 19.0088 19.8855 6.9459
Au 5.98354 7.49352 20.0148
Pd 11.283 22.7693 18.4118
Au 6.78786 14.5806 22.8284
Pd 18.0584 15.0508 27.2523
Au 4.45706 9.40579 12.3414
Pd 24.5376 22.0374 14.6459
Au 12.2609 3.24178 20.4852
Pd 10.1615 7.90946 15.4545
Pd 8.87633 15.2179 24.4746
Au 8.34571 11.2781 6.38814
Au 20.8672 17.8559 17.2242
Pd 16.4284 18.6105 5.69928
Au 19.7771 9.06065 24.8624
Pd 25.0817 17.8255 20.3607
Au 9.95198 24.9282 7.0749
Pd 17.7593 21.3619 24.0521
Au 23.3116 13.61 21.2315
Pd 17.872 7.714 20.1583
Au 24.6908 8.20547 14.5475
Pd 11.0633 16.7263 22.0464
Au 6.23367 17.746 13.9474
Pd 15.7958 1.74746 15.028
Au 18.5604 6.47553 8.2263
Pd 19.6417 21.4535 19.3885
Au 13.57 16.158 19.1244
Pd 13.7496 18.8225 17.9106
Au 15.7931 12.646 23.1214
Pd 14.9327 21.1823 14.8905
Au 26.6169 11.9765 18.086
Pd 16.2728 20.0281 12.9448
Pd 18.363 13.9066 11.9931
Au 3.2482 9.66692 16.8018
Au 21.5516 24.6858 14.6668
Pd 10.7476 16.3508 10.3378
Au 19.4015 17.8756 8.73918
Pd 22.5815 14.2183 8.81965
Au 4.07984 19.0031 12.8237
Pd 19.5107 11.4466 22.1443
Au 9.41068 3.34878 14.2869
Pd 19.2183 5.86598 14.2883
Au 21.3165 19.4438 26.0483
Pd 16.1188 27.8527 17.4086
Au 27.709 19.0145 16.0906
Pd 19.343 15.0149 9.47527
Au 4.80471 13.7824 21.1882
Pd 10.4061 12.3231 23.0041
Au 25.9037 15.3893 21.1989
Pd 20.2598 16.0376 12.4676
Au 21.1973 25.424 22.374
Pd 11.2667 18.7172 11.7571
Au 14.9079 15.2007 8.70048
Pd 12.8249 11.817 16.2949
Pd 15.7259 17.4251 13.003
Au 11.9829 24.3944 9.90212
Au 21.0472 25.2984 19.6718
Pd 20.6772 15.6661 7.25525
Au 10.2779 20.5944 13.5612
Pd 15.8115 27.9648 14.7132
Au 14.0223 22.5261 9.40817
Pd 12.1084 10.2688 22.6549
Au 6.1577 8.31688 10.4783
Pd 27.2083 14.9818 14.5252
Au 17.1273 13.0303 14.3874
Pd 9.64038 25.7925 9.6427
Au 15.4148 19.0815 3.03323
Pd 21.2357 20.6328 17.3625
Au 16.1538 5.91813 23.202
Pd 5.19557 10.7899 10.2097
Au 20.6143 16.8944 25.8335
Pd 12.6949 16.9598 24.3916
Au 8.41892 14.7701 17.2479
Pd 12.3739 16.1821 8.30066
Au 12.4398 23.8203 15.9553
Pd 20.27 13.8617 5.24162
Pd 23.1225 15.91 17.3498
Pd 17.089 21.4405 19.5389
Pd 25.5242 14.0429 16.5051
Pd 17.0304 5.662 18.6398
Pd 11.4241 14.6786 23.7561
Pd 15.1636 10.5688 16.8899
Pd 10.0094 23.0569 23.3739
Pd 21.9227 15.755 22.1604
Pd 17.4858 13.3036 20.9063
Pd 14.3228 8.64178 15.0261
Pd 14.1561 23.1485 25.5736
Pd 16.1592 7.00646 9.89428
Au 21.8275 19.1916 8.68999
Au 17.9416 16.6053 11.1064
Pd 11.8866 23.2098 7.47966
Au 22.5684 15.5566 24.7051
Pd 13.9358 25.0105 7.91321
Au 22.0802 10.3194 7.36528
Pd 12.3547 20.3569 19.6186
Au 19.1507 4.45433 16.9268
Pd 20.4162 12.943 7.93419
Au 10.5251 25.3617 12.1709
Pd 25.1313 11.0828 10.6943
Au 18.0698 15.1789 4.17153
Pd 10.3056 18.3202 15.0365
Au 12.6454 23.0983 20.7329
Pd 24.6403 14.449 7.33112
Au 24.0533 20.2539 20.0784
Pd 16.332 23.9316 8.29545
Au 11.1254 7.60563 22.2411
Pd 25.4136 22.5441 12.2603
Au 17.5824 7.76042 24.4892
Pd 20.7472 6.92073 20.4088
Pd 24.0224 8.64283 11.9849
Au 16.0734 2.68249 11.6823
Au 20.3996 21.4261 24.3202
Pd 5.62795 17.1817 11.4302
Au 12.4011 25.1443 5.73658
Pd 14.721 8.00775 7.69751
Au 18.2943 27.3657 15.9825
Pd 6.88541 12.4758 8.858
Au 28.1807 13.8131 16.7836
Pd 22.5912 15.2913 5.53208
Au 25.8924 13.6232 9.6822
Pd 8.56728 15.7632 11.7587
Au 27.7577 16.4339 16.9328
Pd 24.6518 19.3503 22.647
Au 23.1244 24.105 21.0133
Pd 9.44396 8.05717 24.3116
Au 16.5165 15.249 22.6449
Pd 8.20775 7.08025 11.6602
Au 9.7171 20.7861 19.6081
Pd 11.1692 14.6476 6.37262
Au 14.5082 5.74195 17.7901
Pd 7.99382 22.5146 15.5782
Pd 14.3521 3.48483 13.6845
Au 22.5468 12.807 6.39041
Au 2.86589 12.3184 16.3205
Pd 19.1865 20.5347 21.9188
Au 15.5824 9.1805 19.5286
Pd 21.2668 9.39403 11.0742
Au 21.2836 25.9601 17.0158
Pd 15.9132 20.3828 17.3813
Au 26.1359 12.8978 12.5515
Pd 21.7638 18.1753 23.6411
Au 15.1659 11.5572 4.89894
Pd 13.6605 28.3257 16.2974
Au 20.8475 7.53522 15.6299
Pd 16.2552 15.9505 5.9636
Au 9.50806 9.31533 17.6014
Pd 18.2821 14.4672 6.93817
Au 16.7187 24.411 12.2577
Pd 11.6353 24.8891 22.2932
Au 7.90591 19.2291 23.7246
Pd 22.5992 18.1924 21.1849
Au 17.6816 24.1954 5.96344
Pd 18.7545 20.4633 26.4591
Pd 23.1077 18.3406 18.5293
Au 21.6611 13.2074 23.4193
Au 15.9711 24.0671 19.813
Pd 20.4391 22.7545 11.0953
Au 12.9734 10.2523 4.0557
Pd 22.9797 15.8013 12.041
Au 14.6892 12.3074 9.55122
Pd 11.8915 4.577 18.1619
Au 21.394 5.51832 18.0623
Pd 18.6654 6.20621 22.2027
Au 9.73795 18.9651 21.6919
Pd 14.9604 8.98475 5.24845
Au 11.6246 11.905 20.5999
Pd 11.5801 20.8378 8.66568
Au 18.1064 2.02379 16.2514
Pd 18.6026 16.8208 18.0972
Au 11.2612 28.3453 15.2776
Pd 13.2029 16.9286 14.3288
Au 24.5296 14.1004 23.4164
Pd 6.02205 15.6523 15.8859
Au 2.73714 16.8145 11.951
Pd 13.0156 14.3551 10.29
Pd 16.4671 23.6325 24.3128
Au 12.3824 8.09707 5.99469
Au 16.8935 26.4409 9.96755
Pd 3.48256 14.803 16.6054
Au 21.9471 9.08382 13.7085
Pd 16.8576 8.87605 11.6248
Au 12.8797 1.87047 18.2561
Pd 11.0853 21.2177 21.8672
Au 25.8151 10.2773 13.2541
Pd 19.9668 11.2295 5.93352
Au 12.579 21.9381 13.8621
Pd 9.18643 14.069 13.7856
Au 7.8617 19.9162 14.7024
Pd 17.6437 12.0914 16.9697
Au 22.2671 15.9208 14.7206
Pd 13.7276 20.7279 21.8279
Au 8.50351 18.1553 4.89482
Pd 19.2633 12.1917 10.2321
Au 20.9403 24.7495 9.32769
Pd 21.2619 18.1298 6.34855
Au 18.2803 16.0178 20.7102
Pd 11.1419 15.1112 18.1011
