665
Atoms. Timestep: 20263
Pd 8.93714 8.56215 8.64271
Pd 6.04048 8.72609 12.484
Pd 3.29601 8.76093 16.3534
Pd 3.56751 8.53328 19.1828
Pd 6.71864 8.84069 22.7183
Au 9.87198 9.65089 6.25107
Au 6.88044 9.8197 10.0445
Pd 7.83271 10.9435 7.67274
Au 4.06524 9.98498 13.9335
Pd 4.95718 11.1584 11.5562
Au 3.53424 10.8276 17.9644
Pd 2.54113 11.4054 15.6056
Au 4.55771 9.83877 21.4203
Pd 4.62192 12.1622 20.0195
Au 5.63077 11.2084 23.6214
Pd 5.65172 13.4713 22.1095
Au 8.77555 12.0255 5.28429
Au 5.81005 12.2431 9.09856
Pd 6.76953 13.3423 6.72945
Au 3.16257 12.4998 13.1297
Pd 4.01317 13.6064 10.6754
Au 3.58061 13.4455 17.6448
Pd 2.71918 14.231 15.2042
Au 5.63444 16.1923 21.8728
Pd 4.66377 14.8938 19.722
Au 6.77689 12.5432 25.6896
Pd 6.6181 14.7852 24.2163
Au 9.37278 16.2954 3.14155
Au 4.85504 14.6923 8.21479
Pd 5.79177 15.7483 5.83576
Au 3.35507 15.292 12.7174
Pd 4.239 16.3996 10.2863
Au 3.65567 16.0977 17.3419
Pd 2.95862 16.9421 14.8554
Au 5.70201 18.8853 21.6319
Pd 4.71955 17.6486 19.3744
Au 7.52443 16.1382 26.2978
Pd 6.6054 17.4955 24.0347
Au 7.7136 14.4032 4.34141
Au 5.10749 17.4753 7.8692
Pd 6.15171 18.4645 5.48829
Au 3.62441 18.0994 12.331
Pd 4.57978 19.257 10.0139
Au 3.69705 18.7956 16.933
Pd 2.52882 19.4068 14.3499
Au 4.84577 20.4277 19.0719
Pd 5.66335 22.5938 16.7933
Au 8.4754 18.5594 25.7378
Pd 7.34636 20.0024 23.5908
Au 7.80188 20.6136 5.85258
Au 4.97747 21.9257 9.49789
Pd 6.75827 16.7572 3.50774
Au 6.72111 23.9994 9.96557
Pd 6.31655 22.0571 11.7483
Au 4.82608 23.28 14.0488
Pd 8.34352 21.5029 16.25
Au 6.22858 21.4522 21.3403
Pd 5.26371 23.0591 19.3685
Au 9.51876 20.9881 25.0451
Pd 8.348 22.4117 22.9002
Pd 11.0194 7.31298 7.27175
Pd 8.04916 7.45462 11.047
Pd 10.0777 6.19913 9.63972
Pd 5.24583 7.60668 14.8793
Pd 7.25893 6.38051 13.4548
Pd 5.44253 7.50844 17.6207
Pd 7.42534 6.34904 16.1818
Pd 5.71136 7.54598 20.4681
Pd 7.65576 6.40625 18.9628
Pd 8.94121 7.84524 23.9176
Pd 7.93842 6.53776 21.7322
Pd 11.5165 11.5196 5.01267
Au 12.6192 9.12671 5.93602
Au 11.4663 9.68457 8.44173
Pd 9.40678 10.9637 9.89664
Au 10.5304 8.59181 10.8602
Pd 13.1275 11.5456 7.21327
Au 8.49903 9.85849 12.2883
Pd 6.53702 11.1484 13.7615
Au 7.64908 8.7229 14.7252
Pd 11.0276 11.0289 12.1692
Au 5.60184 9.94188 16.1912
Pd 6.05599 12.1332 17.6674
Au 7.84986 8.72858 17.5082
Pd 8.10774 11.1362 16.0337
Au 5.85684 9.83174 19.0566
Pd 6.93477 11.1781 21.2622
Au 8.08383 8.8007 20.3435
Pd 8.33024 11.1332 18.8818
Au 9.16701 10.1658 22.5867
Pd 10.165 11.5818 24.7964
Au 7.80208 10.2037 24.8819
Pd 11.598 11.4462 22.4871
Pd 10.4352 13.9094 4.05431
Au 13.1609 13.3954 3.75744
Au 10.3592 12.0419 7.47638
Pd 8.33923 13.3537 8.94794
Au 11.9634 12.1209 9.74953
Pd 12.0522 13.9209 6.25254
Au 7.41418 12.2683 11.3311
Pd 5.57485 13.6596 12.8808
Au 9.04778 12.3264 13.6083
Pd 9.95447 13.4286 11.202
Au 4.82634 12.5692 15.3215
Pd 6.08016 14.7567 17.4091
Au 8.57739 13.4533 17.4381
Pd 7.23853 13.7163 15.1128
Au 7.06029 13.5161 19.784
Pd 8.08935 14.8689 21.9029
Au 9.41198 12.5357 21.0935
Pd 9.59653 14.8953 19.5858
Au 8.02415 12.5814 23.4223
Pd 9.03393 14.0037 25.6452
Au 12.8179 12.3957 24.8006
Pd 10.4724 13.9421 23.3658
Pd 11.1326 18.3435 3.53899
Au 12.0969 15.8198 2.9044
Au 9.29586 14.4147 6.53212
Pd 7.33763 15.7867 8.0208
Au 10.9079 14.5053 8.77988
Pd 10.9727 16.3211 5.33805
Au 6.42127 14.7339 10.4271
Pd 5.81299 16.5203 12.5627
Au 8.05286 14.8156 12.6787
Pd 8.96151 15.8561 10.2402
Au 5.09616 15.4659 14.9937
Pd 6.09615 17.3867 17.0309
Au 8.63276 16.1333 17.2172
Pd 7.49799 16.6756 14.7797
Au 7.08737 16.2559 19.5357
Pd 8.07148 17.597 21.7303
Au 10.5469 16.2963 21.7556
Pd 9.60913 17.6676 19.3622
Au 8.99024 16.229 24.0827
Pd 10.1891 16.6157 26.4808
Au 11.7394 14.5814 25.7923
Pd 11.6436 16.8363 24.209
Pd 8.4402 18.8132 3.88788
Au 12.9359 20.3722 3.84652
Au 8.2897 16.8126 5.62524
Pd 7.71065 18.5743 7.67747
Au 9.90736 16.9346 7.83346
Pd 10.0182 19.0082 5.99507
Au 6.71923 17.5464 10.0883
Pd 6.18649 19.2655 12.1997
Au 8.40433 17.6013 12.3149
Pd 9.35352 18.6961 9.90077
Au 5.1799 18.5712 14.6071
Pd 6.17708 20.0068 16.7744
Au 8.63498 18.7784 16.9516
Pd 7.94848 19.3426 14.4282
Au 7.14098 18.9862 19.2847
Pd 8.61144 20.1833 21.263
Au 11.1354 19.0355 21.1294
Pd 9.81868 20.4359 18.8141
Au 9.82336 18.8053 23.4611
Pd 11.2932 19.0489 25.8259
Au 14.9936 21.8165 26.2877
Pd 12.6074 19.235 23.4525
Pd 7.23222 22.3463 7.89726
Au 9.51117 22.6805 6.32214
Au 5.52388 20.1839 7.50041
Pd 4.15984 20.8338 12.7887
Au 9.46701 20.7804 8.10255
Pd 11.76 21.0639 6.22612
Au 7.10442 20.3348 9.71108
Pd 6.62426 24.5937 12.6434
Au 8.6324 20.3671 11.9413
Pd 8.92696 22.4745 10.3146
Au 3.9664 21.1348 15.522
Pd 8.47354 22.7916 13.1209
Au 10.899 20.2045 16.3149
Pd 10.2943 20.9058 13.8743
Au 7.43778 21.6868 18.87
Pd 7.39326 23.7824 20.7463
Au 10.8908 21.3678 22.7001
Pd 6.42638 21.3495 14.3286
Au 10.395 23.3892 24.3979
Pd 9.77352 24.6082 22.0393
Au 12.3985 21.5846 25.1048
Pd 9.69047 22.4983 20.5183
Pd 12.1499 4.99836 8.28333
Pd 9.27924 5.13091 12.0473
Pd 11.2981 3.91645 10.6663
Pd 9.43914 5.13459 14.7782
Pd 11.4704 3.91943 13.3942
Pd 9.67029 5.21138 17.5353
Pd 11.716 4.01042 16.1492
Pd 9.90705 5.33572 20.2844
Pd 11.9508 4.1458 18.9071
Pd 10.1518 5.57231 22.9497
Pd 12.1546 4.36864 21.6056
Pd 14.2745 11.0249 4.76536
Au 13.7505 6.76111 6.93066
Au 12.6 7.33156 9.44077
Pd 13.0715 9.75396 10.7239
Au 11.7077 6.2284 11.8769
Pd 14.2276 9.18549 8.19288
Au 9.67818 7.47412 13.2934
Pd 10.1432 9.90976 14.5927
Au 11.9065 6.29171 14.6628
Pd 12.1729 8.66225 13.163
Au 9.87442 7.51784 16.0756
Pd 10.34 9.98291 17.3756
Au 12.132 6.40613 17.4395
Pd 12.3703 8.75333 15.9479
Au 10.0952 7.61992 18.8532
Pd 10.5564 10.101 20.1892
Au 12.3677 6.56649 20.2345
Pd 12.579 8.87979 18.7401
Au 10.3488 7.79725 21.6401
Pd 13.8698 10.0905 23.8014
Au 11.3249 9.11328 23.947
Pd 12.7777 9.04073 21.5465
Pd 14.8708 15.3243 2.7452
Au 15.9293 12.9126 3.55831
Au 14.777 13.4328 6.00262
Pd 13.652 13.9913 8.52155
Au 14.7291 11.6216 9.49886
Pd 16.4743 15.3683 4.9136
Au 13.5535 12.2164 12.0256
Pd 11.5441 13.5239 13.4671
Au 12.629 11.1122 14.4525
Pd 15.2351 14.0769 10.8104
Au 10.6101 12.3702 15.8891
Pd 11.0956 14.7742 17.2547
Au 12.8185 11.2179 17.2491
Pd 13.1078 13.5703 15.742
Au 10.7997 12.4406 18.7275
Pd 11.8197 13.8606 20.9697
Au 12.9901 11.3629 20.0675
Pd 13.2491 13.6844 18.5699
Au 14.1073 12.4634 22.3499
Pd 14.5823 14.6344 25.6462
Au 15.5809 12.0213 24.6745
Pd 15.7805 14.3936 23.2331
Pd 13.9026 17.8856 3.25494
Au 16.6853 17.4093 3.01711
Au 13.6984 15.845 5.08857
Pd 12.5849 16.3883 7.582
Au 15.3106 15.8998 7.3671
Pd 15.5309 17.9545 5.46463
Au 12.4992 14.6059 11.0466
Pd 10.5852 15.9626 12.5098
Au 14.0716 14.6964 13.3201
Pd 14.1776 16.4616 9.8639
Au 9.67226 14.9254 14.9372
Pd 11.1878 17.4838 16.9968
Au 13.585 15.9582 17.1018
Pd 12.1661 16.0559 14.7907
Au 12.0792 16.3167 19.4267
Pd 13.1812 17.1178 21.8313
Au 14.31 14.877 20.7986
Pd 14.6818 17.3294 19.3311
Au 13.0614 14.7623 23.3478
Pd 13.0237 16.9085 26.4812
Au 15.7727 16.9759 26.784
Pd 14.4922 16.9838 24.2426
Pd 14.7104 22.3352 4.19065
Au 15.7118 19.9451 3.58445
Au 12.7212 18.4288 5.70853
Pd 11.6591 19.1223 8.23156
Au 14.3373 18.4806 7.97981
Pd 14.4871 20.4473 6.0632
Au 11.5079 17.0293 10.0884
Pd 10.957 18.8513 12.1439
Au 13.0937 17.1713 12.377
Pd 13.2859 19.1877 10.4964
Au 10.088 17.8182 14.583
Pd 12.2841 22.0124 17.6155
Au 13.8919 18.6218 16.9526
Pd 14.943 22.1879 13.4725
Au 12.1736 19.2876 18.7297
Pd 13.8691 19.4945 20.7511
Au 15.3561 19.1415 22.8214
Pd 12.3462 21.6913 20.3616
Au 14.0823 19.3352 25.6836
Pd 16.1652 21.3747 24.0082
Au 16 19.5545 27.5063
Pd 18.0068 20.5081 22.2629
Pd 13.601 23.0621 6.60223
Au 15.9574 25.0374 7.13083
Au 13.4726 21.2259 8.58022
Pd 11.3535 22.8603 8.29341
Au 13.2124 23.1322 10.6617
Pd 15.6525 23.1722 9.01006
Au 11.143 21.0077 10.3283
Pd 9.00322 25.3914 13.8444
Au 9.02402 24.3092 8.45383
Pd 11.2267 24.8309 10.0025
Au 12.5701 19.1164 14.4591
Pd 7.29742 23.932 15.255
Au 9.79823 23.0857 17.9322
Pd 9.99311 23.2724 15.2912
Au 11.6736 24.2168 19.9025
Pd 7.3535 24.226 17.9402
Au 12.2653 23.9471 22.6434
Pd 9.46074 25.5275 16.6988
Au 13.742 21.532 22.7557
Pd 15.4677 25.7086 22.6524
Au 14.533 23.6544 24.2237
Pd 11.2334 26.6424 18.9383
Pd 14.8966 4.53362 8.08283
Pd 13.522 2.80594 11.9836
Pd 15.7341 3.20721 10.3935
Pd 13.766 2.90317 14.7198
Pd 16.0044 3.22698 13.133
Pd 14.0166 3.04873 17.4979
Pd 16.2495 3.35468 15.902
Pd 14.2459 3.23125 20.2327
Pd 16.4939 3.52183 18.6667
Pd 12.53 6.7719 22.9675
Pd 16.7462 3.75701 21.3649
Pd 15.3961 8.64101 5.78569
Au 15.3736 6.86919 9.23174
Au 13.7244 4.93802 10.4262
Pd 14.2034 7.40595 11.7127
Au 16.2222 5.51714 11.579
Pd 15.8448 9.27711 10.5219
Au 13.9635 5.09795 13.2163
Pd 14.4227 7.53715 14.4988
Au 16.47 5.60385 14.3761
Pd 16.6949 7.95127 12.8561
Au 14.1985 5.22509 15.9943
Pd 14.6351 7.67557 17.2837
Au 16.6985 5.75455 17.1653
Pd 16.9132 8.07221 15.6542
Au 14.4296 5.3859 18.7972
Pd 14.8327 7.78272 20.1047
Au 16.9089 5.94745 19.969
Pd 17.104 8.2453 18.4569
Au 14.6317 5.45638 21.6557
Pd 15.0469 7.83848 22.8487
Au 17.1517 6.095 22.7264
Pd 17.3101 8.40405 21.2748
Pd 17.633 14.8493 2.56071
Au 17.0275 10.5043 4.53797
Au 15.8786 11.047 6.99066
Pd 16.3828 13.4912 8.31373
Au 16.3326 11.7185 11.812
Pd 17.5199 12.9376 5.83136
Au 14.6689 9.84033 13.0025
Pd 15.1526 12.3077 14.3117
Au 17.1736 10.3867 14.1518
Pd 16.8099 14.1607 13.1079
Au 14.8722 9.97945 15.7949
Pd 15.2996 12.4502 17.0952
Au 17.3427 10.5551 16.9642
Pd 17.6389 12.8536 15.4587
Au 15.0576 10.1126 18.5963
Pd 15.481 12.5539 19.8993
Au 17.5261 10.7569 19.7954
Pd 17.7263 13.0704 18.2668
Au 15.2683 10.1819 21.4204
Pd 17.3051 13.7875 25.5988
Au 16.8223 9.75037 23.6986
Pd 16.9843 12.1653 22.2703
Pd 18.4419 19.4854 3.55451
Au 19.4122 16.9103 2.92978
Au 18.3231 17.4721 5.31484
Pd 17.1466 18.0032 7.7674
Au 18.0741 15.3907 7.18409
Pd 19.2706 19.797 7.80426
Au 16.8983 15.9442 9.6502
Pd 15.7565 16.5539 12.1405
Au 17.3249 16.6262 14.4246
Pd 17.6414 18.5515 12.423
Au 15.6334 14.7436 15.6027
Pd 16.146 17.153 16.92
Au 18.1479 15.3376 16.7546
Pd 18.6128 18.1821 16.4177
Au 15.7654 14.9132 18.4256
Pd 15.9614 16.7135 21.8064
Au 17.1884 14.56 20.7527
Pd 17.6661 16.798 19.2035
Au 17.1015 16.2267 24.609
Pd 18.4751 18.4344 26.8933
Au 18.5072 15.7576 26.9082
Pd 21.1974 15.2698 23.244
Pd 17.4589 22.0212 4.11939
Au 19.5988 21.705 5.74878
Au 17.3447 20.0529 5.89887
Pd 16.0947 20.5255 8.28753
Au 17.9644 20.3524 10.2221
Pd 18.1874 22.1933 8.07791
Au 15.9522 18.5397 10.265
Pd 14.9296 19.352 12.8341
Au 14.5565 20.7456 15.6865
Pd 17.3091 21.1892 12.6495
Au 14.6539 17.263 14.6374
Pd 12.3963 22.3718 14.8248
Au 16.6472 18.941 20.3585
Pd 18.1736 24.4164 16.1139
Au 14.5128 21.0096 18.6057
Pd 15.8609 21.4592 20.9674
Au 18.1772 17.8364 22.7188
Pd 13.4951 24.4104 13.2277
Au 16.768 18.8968 24.9997
Pd 17.7483 21.1016 26.264
Au 21.2056 15.9193 26.7711
Pd 16.9705 23.5624 25.31
Pd 18.2548 24.7926 8.66261
Au 18.3551 24.0299 6.08785
Au 16.1842 22.5454 6.35586
Pd 18.0107 23.726 13.1884
Au 15.2416 21.237 10.8617
Pd 13.4333 27.1479 13.5841
Au 12.729 21.0724 12.4779
Pd 8.89184 24.9605 11.2387
Au 13.5692 24.8466 8.55091
Pd 15.7179 23.9889 11.648
Au 10.9813 23.4137 12.4161
Pd 13.9954 28.3841 16.2474
Au 11.1666 26.2168 12.2384
Pd 16.027 27.3036 15.0441
Au 11.4879 25.3282 14.6475
Pd 9.20493 25.1958 19.4819
Au 14.1871 23.8721 18.7549
Pd 11.6553 27.2392 16.4109
Au 14.5372 23.7192 21.3172
Pd 16.9964 23.4929 22.6286
Au 20.4217 21.1443 26.2655
Pd 13.2464 26.0366 20.9189
Pd 17.4087 4.98272 9.13877
Pd 18.1907 3.70991 11.5079
Pd 19.8896 5.49574 10.2641
Pd 18.4864 3.76808 14.2731
Pd 20.657 4.24073 12.6486
Pd 18.7386 3.93144 17.049
Pd 20.9596 4.35541 15.4316
Pd 18.9751 4.14152 19.7835
Pd 21.212 4.59667 18.1995
Pd 19.2318 4.47978 22.4209
Pd 21.4578 4.93864 20.8644
Pd 17.0093 8.72744 8.06668
Au 16.5345 6.33666 6.8526
Au 17.9054 7.38188 10.3462
Pd 18.3798 9.80285 11.6387
Au 20.4222 7.9114 11.4531
Pd 19.5781 9.23842 9.1476
Au 18.7066 6.05503 12.7061
Pd 19.1866 8.49798 13.972
Au 21.1946 6.60032 13.8265
Pd 20.8847 10.3582 12.7375
Au 18.9506 6.17461 15.5099
Pd 19.3668 8.68583 16.7754
Au 21.4114 6.81303 16.6497
Pd 21.69 9.0403 15.0554
Au 19.1674 6.38286 18.2964
Pd 19.5378 8.96782 19.5704
Au 21.6147 7.176 19.4113
Pd 21.7292 9.52319 17.9023
Au 19.3847 6.66196 21.0505
Pd 19.0185 8.01713 23.4321
Au 21.1341 6.35721 23.1252
Pd 21.1823 8.67483 21.7695
Pd 18.6623 12.4287 3.43354
Au 18.6598 10.5779 6.85084
Au 17.5073 11.1356 9.33178
Pd 17.9828 13.5713 10.6181
Au 20.0511 11.69 10.4295
Pd 19.1567 12.9986 8.13911
Au 18.8391 12.2631 12.9243
Pd 19.3134 14.7011 14.1777
Au 21.3902 12.8154 13.8989
Pd 20.5622 14.1173 11.6697
Au 19.6679 10.9484 15.2573
Pd 20.1857 13.4251 16.4155
Au 22.2682 11.4741 16.0885
Pd 22.7768 14.171 15.8741
Au 19.7411 11.3196 18.0837
Pd 19.1983 12.8259 20.6729
Au 21.2416 11.1007 20.3773
Pd 22.0248 12.8372 18.3992
Au 19.0749 10.3905 22.0842
Pd 18.5914 11.7303 24.4372
Au 20.7608 10.0082 24.2034
Pd 20.7394 12.5167 22.9011
Pd 20.4422 19.234 5.43774
Au 20.3287 14.3371 2.43953
Au 19.2396 14.8522 4.75049
Pd 18.871 17.8927 9.89206
Au 19.7108 15.3776 9.41473
Pd 20.0984 17.3234 7.4215
Au 18.5013 15.9949 11.911
Pd 19.786 17.5328 13.8956
Au 21.8859 15.5865 13.6349
Pd 21.0434 16.8923 11.3755
Au 20.6689 16.1765 16.1065
Pd 16.5883 19.6289 17.6942
Au 19.5605 18.8374 20.647
Pd 21.0751 19.1391 16.0048
Au 19.8236 14.733 18.816
Pd 19.4791 16.0164 21.2234
Au 21.6339 14.1572 20.7624
Pd 21.8846 16.9334 20.4337
Au 18.5901 14.2912 23.1904
Pd 22.9101 14.6281 25.2023
Au 20.1685 13.8514 25.3883
Pd 21.1793 18.104 22.7507
Pd 20.5617 23.3159 7.75875
Au 21.785 20.875 7.37822
Au 21.4329 18.9185 9.36155
Pd 17.0362 22.1151 15.1244
Au 20.1563 19.453 11.8134
Pd 20.0346 22.1138 12.3015
Au 16.72 19.3592 14.905
Pd 14.4519 23.29 16.1479
Au 22.2347 18.4351 13.4983
Pd 19.284 20.2263 14.2382
Au 18.8313 20.9491 16.754
Pd 16.566 22.4512 17.6458
Au 20.641 20.1164 18.5521
Pd 23.6464 19.5696 15.6541
Au 22.4599 19.6598 20.5843
Pd 11.9758 24.6159 17.2032
Au 20.7717 20.9079 22.2978
Pd 18.1613 20.9856 19.47
Au 19.7524 16.8408 24.7887
Pd 21.0649 18.5551 26.4565
Au 22.2315 19.9641 24.5151
Pd 19.4384 19.5416 24.4424
Pd 17.9761 22.9769 10.6152
Au 20.4014 25.7058 15.3636
Au 20.3852 21.457 9.72194
Pd 19.1866 23.1768 18.3192
Au 20.4845 24.095 10.3284
Pd 20.4559 24.7661 12.9088
Au 15.958 25.8301 9.70509
Pd 13.5959 25.8933 11.0449
Au 21.1439 24.7364 17.6479
Pd 16.1222 27.7501 17.7795
Au 15.8563 26.5462 12.4256
Pd 15.9663 24.7004 14.4299
Au 27.7442 19.8935 17.4429
Pd 23.5162 23.5718 17.8081
Au 13.8988 25.8212 15.7357
Pd 13.7259 26.5926 18.2656
Au 16.9727 23.7244 19.8862
Pd 16.0201 25.228 17.2768
Au 18.963 22.2295 24.1338
Pd 17.8958 25.7106 21.4423
Au 21.5871 22.5961 24.3429
Pd 18.2566 25.7832 18.6678
Pd 19.0398 6.84621 7.92951
Pd 22.3773 6.01481 11.3969
Pd 20.6858 8.70167 6.71907
Pd 23.1032 4.74881 13.7797
Pd 24.7987 6.55784 12.5921
Pd 23.4022 4.99489 16.5815
Pd 26.7008 11.8009 17.6123
Pd 23.6747 5.52731 19.203
Pd 25.4796 5.22234 14.9098
Pd 23.3053 6.93166 21.5473
Pd 25.3869 7.60676 19.8376
Pd 18.1417 8.22555 5.68427
Au 19.7859 10.0654 4.44564
Au 21.5651 7.31824 9.00946
Pd 22.0735 9.80251 10.2671
Au 23.9796 7.88152 10.1812
Pd 23.1148 9.25208 7.87214
Au 22.9345 8.4762 12.5795
Pd 23.486 10.939 13.5751
Au 24.6834 10.3783 11.1004
Pd 23.7862 11.6949 8.94987
Au 23.6836 7.12201 14.9487
Pd 26.8666 10.4175 15.2992
Au 25.7435 6.14941 17.4442
Pd 26.04 11.8416 13.1177
Au 23.7801 7.81047 17.6834
Pd 24.3588 9.57553 15.698
Au 25.5623 9.07828 13.2435
Pd 24.6028 13.613 17.8783
Au 23.3638 9.31766 20.1457
Pd 22.8952 8.39564 23.8157
Au 25.0367 9.02909 22.2455
Pd 26.309 7.69042 15.3488
Pd 20.2883 12.4654 5.70518
Au 21.3235 11.974 3.32435
Au 21.2326 11.1369 7.95462
Pd 21.8038 13.5563 9.17038
Au 22.9978 12.9591 6.69795
Pd 22.0327 14.2404 4.51664
Au 22.6424 12.2527 11.3965
Pd 23.9906 13.6831 13.3856
Au 22.2602 10.5971 5.52357
Pd 25.1738 13.1817 10.9396
Au 24.8864 12.2639 15.5713
Pd 22.4054 15.5192 18.1859
Au 27.3664 13.154 15.172
Pd 25.3166 14.9939 15.4474
Au 24.1814 10.8777 18.0201
Pd 23.8219 12.2095 20.3503
Au 26.2827 9.0265 17.6705
Pd 26.3367 13.1499 19.941
Au 22.8885 10.7703 22.5261
Pd 22.4329 12.0444 24.9234
Au 24.5799 10.5042 24.4974
Pd 25.9324 10.393 20.0045
Pd 22.615 18.2945 6.97049
Au 21.2815 16.7733 4.94948
Au 20.9306 14.8146 6.9364
Pd 22.2554 16.3225 8.90246
Au 24.3715 14.4846 8.69617
Pd 23.398 15.7415 6.50198
Au 23.1561 15.0269 11.1441
Pd 26.5003 14.6014 12.9898
Au 27.7939 15.9124 15.057
Pd 25.6471 15.9484 10.7746
Au 23.2032 16.9008 15.7147
Pd 24.9842 16.3414 17.7843
Au 27.1375 14.5278 17.5095
Pd 25.7159 17.7318 15.3517
Au 24.2137 14.9355 20.1645
Pd 23.5283 16.2044 22.3814
Au 25.9336 14.5341 22.2788
Pd 26.7039 15.8759 19.8473
Au 23.38 13.5122 22.7352
Pd 22.6948 17.244 24.7795
Au 25.6153 11.7713 22.3481
Pd 25.1068 13.1833 24.6183
Pd 22.8329 22.3199 9.56164
Au 23.9398 19.8223 8.96041
Au 22.6624 20.477 11.5368
Pd 21.9745 21.1779 14.1475
Au 24.734 17.2427 8.52545
Pd 25.1592 21.1148 10.9509
Au 23.5449 17.8453 10.9413
Pd 24.7422 19.135 13.108
Au 26.9619 17.377 12.8677
Pd 26.0322 18.6454 10.658
Au 27.0726 20.1193 12.8155
Pd 22.7282 18.2297 18.0546
Au 27.5254 17.2443 17.4184
Pd 24.4413 16.4277 13.2103
Au 20.1616 17.4115 18.4285
Pd 21.4762 22.4719 19.5769
Au 26.0984 17.2354 22.13
Pd 24.4588 17.6732 20.0954
Au 25.1427 20.2409 20.4368
Pd 23.9578 18.7832 22.7018
Au 25.1161 15.9476 24.4009
Pd 27.0211 18.5229 19.739
Pd 18.2125 25.5654 11.2538
Au 18.2952 27.0837 16.4081
Au 18.2477 26.305 13.8524
Pd 25.2945 19.0281 17.7542
Au 22.5314 23.1451 12.1711
Pd 24.1504 22.0846 15.9015
Au 19.8802 22.8727 14.9068
Pd 23.3337 20.8316 18.2713
Au 24.5757 21.7858 13.3791
Pd 22.3539 23.8346 14.9167
Au 28.1281 18.6725 15.006
Pd 26.168 20.4575 15.3532
Au 25.7994 21.6765 18.0793
Pd 21.4743 22.0156 16.788
Au 20.2141 25.0354 20.2867
Pd 15.729 26.0684 19.9216
Au 23.4544 21.4237 22.5141
Pd 24.0704 22.6359 20.2252
Au 21.9155 23.603 21.9397
Pd 19.1956 22.7689 21.1871
Au 19.6545 24.5614 23.1001
Pd 22.763 24.9572 19.8368
