665
Atoms. Timestep: 20443
Pd 9.21321 10.0524 8.89071
Pd 4.10852 18.3234 10.5449
Pd 13.174 12.6517 17.9544
Pd 8.26762 11.9009 16.9479
Pd 14.4484 8.48511 17.9477
Au 19.72 7.02223 6.33534
Au 21.9124 15.2686 10.729
Pd 6.70422 9.82622 17.0868
Au 14.9522 2.26813 11.4717
Pd 9.42262 9.70944 11.8327
Au 10.7534 5.84726 6.62269
Pd 12.2536 20.9392 12.2784
Au 13.3026 18.2605 12.3019
Pd 11.4367 24.2366 19.3223
Au 6.38561 22.2172 22.9362
Pd 12.9927 10.5436 13.8482
Au 13.4744 8.67574 9.46607
Au 4.59415 12.9226 8.73642
Pd 8.44119 4.61644 11.4932
Au 16.2417 3.3588 13.651
Pd 12.2963 24.1309 21.8517
Au 7.21192 12.1857 8.9323
Pd 7.68521 14.3606 16.1969
Au 10.4782 23.821 23.6556
Pd 11.5803 16.8497 23.6352
Au 13.0189 22.7737 24.1573
Pd 15.8134 18.535 26.7827
Au 10.899 13.1656 5.45055
Au 6.31681 16.8942 11.2231
Pd 13.2284 6.55501 11.1806
Au 14.5942 5.174 21.2774
Pd 14.5544 5.41123 13.6077
Au 18.3845 18.6079 23.7126
Pd 9.31678 14.5026 8.95122
Au 16.1441 25.7881 20.7891
Pd 17.196 16.4874 24.9843
Au 6.33897 7.35676 20.8893
Pd 12.2698 10.7473 24.144
Au 6.26933 12.6877 14.598
Au 7.22418 14.3223 10.6666
Pd 10.5989 9.51193 14.7398
Au 4.7534 8.05338 16.2709
Pd 7.8281 13.7104 18.7755
Au 12.739 6.17753 4.81677
Pd 13.3975 19.7185 20.8824
Au 9.24807 13.8773 27.3081
Pd 19.6412 26.4941 11.4283
Au 8.73104 16.8316 27.4383
Pd 10.0164 16.5132 13.9305
Au 5.0282 14.9951 15.4327
Au 11.792 15.6572 4.92366
Pd 14.1291 14.9916 11.3127
Au 9.72727 10.5809 6.04274
Pd 6.90703 18.4196 17.4663
Au 8.48997 18.6344 7.1755
Pd 10.7588 24.1851 10.0169
Au 9.24552 19.6166 26.5206
Pd 15.7544 18.9522 24.0975
Au 13.1634 17.5301 27.9252
Pd 16.4035 17.9626 16.9813
Pd 7.00872 8.96697 12.8351
Pd 17.3159 5.73374 9.77616
Pd 3.96209 12.0837 13.3199
Pd 24.7746 12.3616 14.1169
Pd 7.59897 13.2039 21.555
Pd 10.7559 5.63024 18.1762
Pd 21.591 7.79118 16.7351
Pd 9.43952 19.1258 18.2601
Pd 5.22398 14.4604 12.5896
Pd 18.712 6.27712 17.3422
Pd 8.92727 21.743 23.3208
Pd 17.7347 16.255 3.07837
Au 14.3569 8.41209 5.07
Au 13.4172 13.3897 4.22637
Pd 23.5013 11.5709 11.9456
Au 23.476 12.2338 7.45032
Pd 17.2964 23.3773 8.62457
Au 9.72394 15.4352 25.1817
Pd 10.8619 12.9335 25.0929
Au 11.1775 17.5242 16.5838
Pd 18.4225 12.0647 12.706
Au 10.1508 25.6008 21.3845
Pd 10.3574 6.8815 15.6697
Au 7.35984 15.706 20.616
Pd 14.1711 12.2745 15.5513
Au 8.19796 10.4964 14.6953
Pd 10.5409 13.0781 17.9367
Au 7.34317 15.4792 23.3391
Pd 9.82774 14.5334 20.0474
Au 3.41184 12.893 15.8503
Pd 13.4983 12.9723 25.3602
Au 22.1996 12.3349 15.2872
Pd 10.7375 9.90896 21.8854
Pd 13.4201 23.8994 13.5563
Au 6.61603 14.5266 7.80851
Au 13.0796 12.5518 11.9846
Pd 12.2059 19.8187 26.7421
Au 9.23425 5.68632 8.94164
Pd 15.5666 22.8734 15.1348
Au 10.341 14.9371 16.0424
Pd 6.55956 11.15 23.9248
Au 3.22147 19.2833 15.8132
Pd 21.5641 14.1197 8.15869
Au 10.2412 26.7131 18.9592
Pd 11.801 15.577 18.4133
Au 5.05763 12.3965 21.9561
Pd 19.9741 22.794 22.5272
Au 4.76431 19.2197 18.9481
Pd 7.27866 22.6429 20.5268
Au 17.6848 10.4359 14.7334
Pd 16.0215 19.1372 21.3407
Au 14.8616 12.7657 20.0556
Pd 11.8121 19.1305 14.49
Au 5.6283 13.619 24.378
Pd 12.7084 26.3902 20.3857
Pd 18.564 24.1468 10.8554
Au 21.3854 24.1554 11.097
Au 10.8188 7.97793 9.65395
Pd 13.5528 11.7056 9.22916
Au 19.659 4.78344 11.1047
Pd 14.1815 15.2116 6.20417
Au 16.8719 6.50798 22.4418
Pd 7.13066 10.0496 10.5149
Au 7.31342 12.2234 26.3186
Pd 14.2971 14.291 8.73194
Au 19.2379 24.0615 18.0925
Pd 9.05338 16.5769 11.0359
Au 10.9362 17.6591 26.0226
Pd 13.6688 17.7622 25.3254
Au 9.67788 25.2347 14.2465
Pd 18.824 12.7656 24.464
Au 7.2055 19.7347 23.6025
Pd 15.4909 16.7914 29.0237
Au 14.3829 20.8001 25.6058
Pd 6.01759 5.78685 15.3502
Au 5.8451 23.1156 15.3732
Pd 15.9242 21.621 20.5407
Pd 12.904 7.34604 7.21324
Au 19.4885 25.774 8.85007
Au 3.74227 14.7969 17.8144
Pd 4.50061 17.3152 16.9405
Au 9.27178 15.6086 6.45602
Pd 19.3741 16.0879 7.15677
Au 18.1094 18.9946 10.9079
Pd 17.2191 9.91639 19.3291
Au 6.68403 5.6645 9.83282
Pd 11.1104 18.741 21.6947
Au 5.09988 10.2459 9.00081
Pd 16.0401 24.844 17.0166
Au 6.84286 8.54011 23.3858
Pd 9.1178 13.0787 14.4824
Au 11.6556 7.88989 23.3032
Pd 18.9177 13.7674 21.2304
Au 12.4959 26.2918 17.7112
Pd 18.6101 19.4402 20.8511
Au 10.8684 21.525 25.1926
Pd 13.8171 17.2122 17.1852
Au 19.2983 11.467 19.7549
Pd 13.2486 22.2136 20.2319
Pd 13.2309 23.6308 10.9371
Au 14.8298 23.7675 6.68883
Au 15.3897 19.142 5.98752
Pd 6.8384 23.0834 17.8153
Au 12.6249 26.1561 9.84101
Pd 12.1544 25.7455 15.0668
Au 5.42114 9.83795 21.4842
Pd 21.677 16.8988 18.111
Au 5.33503 16.4164 24.6719
Pd 12.9392 21.7745 6.83415
Au 7.83446 25.2353 16.4709
Pd 6.52582 19.1305 9.65785
Au 7.84239 18.0003 13.1558
Pd 16.2388 21.4087 7.07355
Au 17.0383 20.91 25.5212
Pd 11.365 22.9995 15.0758
Au 9.154 7.80393 24.4052
Pd 9.92638 19.2963 23.9922
Au 9.88861 22.84 20.9473
Pd 22.3107 19.6413 17.8389
Au 9.0423 25.3973 11.6615
Pd 21.2162 19.0077 25.316
Pd 6.29305 15.7491 17.9879
Pd 19.6518 10.4474 10.7046
Pd 10.2677 10.3093 17.3035
Pd 20.9403 19.8956 10.7526
Pd 22.9914 10.142 16.8256
Pd 14.5156 15.4371 24.0738
Pd 17.9021 7.364 19.6125
Pd 7.25107 10.3084 7.12408
Pd 7.2182 18.2073 20.0381
Pd 19.1362 3.94827 13.6466
Pd 11.6119 10.5429 10.487
Pd 13.089 4.48176 6.9154
Au 5.47036 7.80302 10.7496
Au 17.9876 8.11238 8.15751
Pd 15.714 7.6721 10.6927
Au 23.2362 7.0193 19.0389
Pd 24.924 14.561 12.5706
Au 12.9593 3.48317 14.67
Pd 20.9087 11.6468 17.6154
Au 16.0444 3.38465 8.87535
Pd 20.692 12.901 10.5284
Au 8.52165 5.12862 14.2745
Pd 5.65217 12.7909 17.3206
Au 7.79613 9.59161 25.8577
Pd 7.61891 15.1435 13.3928
Au 10.9437 8.98161 25.8275
Pd 8.41007 13.186 24.1487
Au 18.8958 10.043 25.2447
Pd 16.5706 14.9967 10.0751
Au 15.1299 15.8694 26.6102
Pd 17.3712 23.5869 22.0534
Au 4.05991 10.5917 16.9468
Pd 11.408 12.1801 15.5747
Pd 22.2418 17.9588 4.25643
Au 19.8639 6.09544 8.8001
Au 10.8665 12.2435 8.08192
Pd 4.82136 16.7152 19.9261
Au 14.0151 17.2731 4.51911
Pd 25.4774 10.0655 16.0374
Au 17.4506 5.51663 7.15938
Pd 8.91293 8.07207 17.4336
Au 4.56308 9.89832 11.9488
Pd 11.9145 5.94684 13.7473
Au 14.6839 5.71382 8.67719
Pd 14.3958 14.1562 13.8113
Au 4.91274 15.1274 22.2117
Pd 5.32483 13.9726 19.8164
Au 9.4754 10.6394 24.1813
Pd 9.82751 15.2257 22.4958
Au 15.1306 5.88844 5.88345
Pd 8.80598 20.197 21.1486
Au 5.06505 20.9768 16.9232
Pd 5.83748 19.0803 15.1157
Au 8.58568 6.36732 19.5921
Pd 17.3584 23.1977 13.1672
Pd 15.1166 17.1278 7.8176
Au 16.1645 18.4811 3.50946
Au 17.0345 23.5273 5.38649
Pd 12.6358 17.3812 6.92887
Au 14.9342 25.1982 8.99356
Pd 23.3115 13.6582 5.23865
Au 13.0133 14.6449 16.1888
Pd 11.9598 5.58523 9.062
Au 9.73238 14.2095 12.0062
Pd 14.5545 26.9805 16.1217
Au 20.0078 17.0279 13.8996
Pd 10.6359 5.99589 11.4666
Au 14.8222 21.8001 12.6682
Pd 17.4653 3.25053 11.237
Au 18.275 23.2303 24.5213
Pd 11.5528 21.4108 22.3384
Au 3.17642 18.8136 13.1073
Pd 8.12948 24.2272 22.4178
Au 13.5564 8.54625 25.1556
Pd 11.1095 20.6771 19.6376
Au 14.6373 12.4941 27.7085
Pd 10.3638 24.4924 16.9787
Pd 16.7508 21.3929 10.896
Au 17.0579 25.6152 7.35192
Au 14.7697 21.5384 4.87381
Pd 5.18762 16.9946 13.6353
Au 14.4153 8.07146 13.0566
Pd 9.46168 12.178 10.4151
Au 3.89146 20.9535 11.4576
Pd 12.9818 16.5173 9.4121
Au 8.34792 7.48474 10.7773
Pd 9.27043 18.9366 9.72122
Au 7.45871 7.86521 15.2331
Pd 16.8347 23.7187 19.2726
Au 12.2247 13.5836 20.263
Pd 9.75612 17.181 20.0592
Au 17.7118 16.7069 27.6386
Pd 17.2554 15.475 17.5852
Au 20.7836 19.2274 15.6208
Pd 17.5627 17.1572 8.86521
Au 16.516 14.2822 28.248
Pd 22.865 17.8681 10.76
Au 22.5703 22.1826 21.7199
Pd 22.2266 21.9974 9.83995
Pd 11.7392 14.8252 7.51898
Au 16.9889 16.9786 5.6656
Au 4.76639 7.70169 13.6382
Pd 12.8835 10.2638 16.7131
Au 12.2678 28.3303 15.9187
Pd 14.5597 18.5745 14.8172
Au 3.19454 13.6074 11.0877
Pd 6.30409 21.7593 10.5011
Au 5.34253 22.9499 12.6803
Pd 12.7577 19.5502 5.40255
Au 7.73585 20.8255 16.417
Pd 7.73815 11.9782 12.4368
Au 2.75094 14.4 13.7489
Pd 12.8209 16.568 14.3902
Au 7.58583 16.7466 8.76263
Pd 22.0535 21.5557 15.7011
Au 15.721 22.9307 24.2851
Pd 10.9588 19.7679 7.61385
Au 27.4083 13.2034 13.279
Pd 7.94498 17.5769 25.0283
Au 13.3831 21.3027 14.9239
Pd 10.0089 21.4927 10.6035
Pd 18.8934 13.5518 7.89736
Pd 11.8017 13.9123 10.0775
Pd 5.40736 10.1626 14.6361
Pd 12.8136 8.13311 15.132
Pd 12.5912 10.7844 26.8199
Pd 20.9647 11.5167 13.0082
Pd 21.6521 7.90601 14.0009
Pd 17.1044 5.64408 12.468
Pd 8.93371 7.83546 21.8109
Pd 14.5966 21.0601 22.798
Pd 12.3001 14.1413 23.1111
Pd 20.4925 8.85332 8.67956
Au 12.7945 3.90214 11.9703
Au 11.2972 8.34455 5.31231
Pd 7.02133 8.09044 8.55991
Au 25.1346 11.2848 20.8835
Pd 20.8729 7.36546 11.0412
Au 13.2815 6.11878 19.1235
Pd 18.0634 12.7608 10.2557
Au 9.41566 11.4568 19.7095
Pd 12.0493 16.2126 21.0373
Au 17.0029 8.07985 13.5202
Pd 10.6391 18.433 28.491
Au 24.9002 8.01566 14.142
Pd 21.1228 14.1217 25.3705
Au 12.9875 5.83346 16.3547
Pd 17.0281 10.1075 11.6478
Au 22.3161 5.54366 10.0117
Pd 15.4854 15.7857 15.631
Au 4.92024 9.05941 18.9995
Pd 11.0618 15.7713 28.1262
Au 10.4383 3.69624 13.097
Pd 7.6905 9.11381 19.5409
Pd 18.7991 21.9227 6.6631
Au 24.5745 12.6587 16.764
Au 13.5614 27.4935 13.676
Pd 19.6942 11.4688 3.76307
Au 21.8409 16.7802 8.56723
Pd 16.6169 10.127 6.50594
Au 14.8044 22.3226 9.08334
Pd 21.6189 5.22302 12.8584
Au 24.3134 16.1845 4.7562
Pd 11.835 8.03109 17.6991
Au 18.6909 3.66036 8.81723
Pd 11.7196 14.1712 13.7448
Au 6.43206 7.0142 18.0268
Pd 15.3253 17.4167 10.486
Au 16.9509 14.2426 22.9563
Pd 19.4694 15.7886 19.246
Au 8.31018 5.43798 16.9215
Pd 20.7266 18.3061 6.34846
Au 12.6452 3.57664 17.5146
Pd 20.3139 20.2059 22.634
Au 25.8062 13.2514 8.77729
Pd 21.9116 9.33738 19.1429
Pd 22.0837 9.40463 11.8806
Au 23.75 23.6573 16.1387
Au 18.7557 18.5622 4.13421
Pd 15.478 7.92566 7.6294
Au 18.2986 12.0058 5.88227
Pd 11.7997 8.53117 12.3727
Au 23.066 19.7037 8.79808
Pd 6.6016 11.4679 19.5367
Au 10.2829 12.5512 22.1613
Pd 7.16911 15.0216 26.0695
Au 13.3903 3.30905 9.41842
Pd 4.95343 21.9079 19.4282
Au 15.4822 11.1248 17.6499
Pd 15.9346 19.0983 12.4627
Au 10.5393 20.7475 16.3587
Pd 25.027 16.5236 24.0308
Au 13.6518 14.877 28.5764
Pd 13.2779 12.6972 6.78874
Au 5.83973 17.6879 22.3554
Pd 8.87273 16.3639 17.7649
Au 25.2529 24.015 13.8222
Pd 18.272 11.2334 17.1334
Pd 5.49407 12.202 11.084
Au 20.3266 20.5106 4.85695
Au 12.5908 24.0574 8.1444
Pd 27.4133 18.6176 8.4149
Au 8.53601 12.9146 6.73162
Pd 20.0331 23.0826 8.82836
Au 16.8041 14.1627 12.6281
Pd 5.68775 19.4025 12.3619
Au 23.4997 22.2736 7.50096
Pd 20.763 23.8574 15.8806
Au 2.85067 16.7672 14.8874
Pd 8.63675 22.9912 15.2668
Au 17.368 17.8237 14.4523
Pd 23.9334 20.7543 19.8751
Au 18.5599 18.9081 26.3602
Pd 9.9793 27.0229 16.3046
Au 9.8146 11.2238 26.8881
Pd 7.00839 21.1554 13.8965
Au 23.2963 14.3769 23.7219
Pd 16.3794 8.5131 24.4238
Au 22.3606 21.1268 24.1055
Pd 18.8555 25.0769 20.5453
Pd 17.2598 26.9 15.7089
Au 6.54092 24.6031 11.0753
Au 17.6257 26.3619 18.4838
Pd 17.7985 16.582 11.9597
Au 26.095 17.3527 6.46607
Pd 9.36669 22.2648 18.2846
Au 25.9358 19.5339 13.5749
Pd 8.22001 22.8785 12.2926
Au 17.5581 22.3499 16.8258
Pd 23.588 18.0981 19.7861
Au 3.22585 16.2685 11.9243
Pd 13.7126 19.5561 8.05667
Au 4.7524 15.3895 9.75846
Pd 20.31 17.3467 11.3295
Au 8.15118 20.9802 8.52409
Pd 8.61556 17.681 22.3799
Au 21.0035 23.5832 20.119
Pd 14.5871 26.0298 11.7465
Au 8.56204 24.7011 19.2497
Pd 12.092 18.2114 19.0967
Au 23.747 18.8023 24.2048
Pd 18.1656 24.4959 15.3502
Pd 20.5885 6.90021 19.1115
Pd 9.35918 7.46472 13.2957
Pd 14.1233 10.2088 7.06987
Pd 21.2214 11.341 24.7764
Pd 21.7167 5.1493 17.418
Pd 15.3802 7.54685 20.3646
Pd 15.1549 4.21977 16.0993
Pd 18.5422 14.4509 26.4651
Pd 14.5715 17.1307 19.8946
Pd 19.3495 6.65491 13.0728
Pd 17.0014 8.63659 17.0168
Pd 10.701 3.61369 10.2883
Au 17.1586 12.7114 3.42095
Au 10.7068 11.6708 12.9163
Pd 19.532 14.0981 3.04181
Au 22.0971 15.3395 3.39761
Pd 20.6239 10.1071 15.406
Au 23.4592 6.96724 12.1335
Pd 22.8025 20.2868 5.83811
Au 24.6358 15.3341 17.3826
Pd 21.806 7.27475 21.3854
Au 14.7665 12.6562 23.0351
Pd 20.3858 5.85187 15.2795
Au 16.6808 13.1437 15.9278
Pd 15.1544 4.77181 11.0678
Au 9.3419 8.01377 7.20258
Pd 14.3043 7.26595 22.8921
Au 21.729 3.67144 15.0284
Pd 10.2825 8.62254 19.6482
Au 19.9279 16.6862 25.8684
Pd 19.6586 14.545 12.4812
Au 17.0118 9.16063 21.8785
Pd 14.7285 10.1552 20.178
Pd 18.3724 7.95628 10.8267
Au 12.3405 10.8126 5.0765
Au 21.9484 11.1712 5.26524
Pd 23.4743 14.692 15.0022
Au 19.5353 3.67127 16.4316
Pd 11.6394 9.71354 7.6967
Au 18.0818 15.136 14.7896
Pd 19.4756 9.30695 13.0173
Au 27.2514 16.0438 13.2981
Pd 18.9919 8.06237 15.3918
Au 23.3217 11.8308 18.9801
Pd 16.8497 11.1494 23.8991
Au 17.0912 4.87325 20.2555
Pd 16.9727 11.8607 21.334
Au 16.1461 13.5959 25.4574
Pd 14.9101 19.4956 18.7729
Au 9.04935 18.6888 15.4235
Pd 20.8107 14.7794 15.0371
Au 11.127 6.35373 20.8742
Pd 12.5656 19.6711 23.9671
Au 8.0499 10.5025 21.8445
Pd 6.74032 6.27486 12.6669
Pd 19.5993 26.6079 14.2638
Au 9.81086 20.9923 13.6951
Au 21.8705 12.7861 3.17316
Pd 15.5196 12.5498 10.806
Au 25.9331 16.5997 19.3831
Pd 25.2634 19.9666 7.25353
Au 15.5741 15.0825 3.90189
Pd 7.18599 16.7581 15.4847
Au 24.7353 20.7556 22.5597
Pd 19.8286 18.4217 8.84678
Au 23.9972 25.5085 11.8049
Pd 14.9312 22.2027 17.9957
Au 19.7738 26.3586 16.8527
Pd 22.1246 10.8381 9.66014
Au 18.7086 16.7599 21.5978
Pd 14.805 23.7141 21.8687
Au 15.3628 7.02597 15.5578
Pd 23.8587 20.1963 11.6121
Au 15.9581 6.17983 18.0256
Pd 19.4085 13.9253 17.3332
Au 10.6247 4.20632 15.7974
Pd 22.6554 19.4115 21.8943
Pd 14.2775 10.1804 11.4841
Au 10.4739 17.9222 5.62634
Au 21.841 24.6916 7.84226
Pd 18.3021 19.7199 16.1683
Au 25.126 17.4469 12.0753
Pd 22.4631 16.528 24.9743
Au 11.6757 16.1856 11.7372
Pd 19.3385 15.3241 9.82001
Au 19.5554 9.62133 6.01654
Pd 23.8727 22.9034 11.6819
Au 14.96 10.9639 4.35173
Pd 19.8833 24.1876 13.2598
Au 19.3426 16.8472 16.5607
Pd 15.7526 13.0331 5.70915
Au 24.2771 7.71423 16.7073
Pd 7.23062 20.6063 18.9593
Au 21.9092 25.0358 17.9646
Pd 26.9246 16.6515 16.673
Au 10.7927 27.7111 13.8063
Pd 21.1441 15.3607 21.5862
Au 25.072 21.5919 9.56275
Pd 27.0963 14.081 17.5757
Pd 24.5598 21.0534 17.1259
Au 5.88037 20.2327 21.3
Au 22.1321 26.0732 15.4575
Pd 23.4552 13.2163 9.97834
Au 12.2985 21.5316 9.46842
Pd 17.4533 25.8634 12.8092
Au 21.8274 26.4543 12.8223
Pd 10.4391 16.9897 8.46667
Au 17.0975 26.2505 10.1272
Pd 26.2983 11.4505 18.3154
Au 19.3124 22.8862 4.23905
Pd 15.9094 23.9141 11.1388
Au 22.0472 26.3785 9.99064
Pd 16.6622 14.9715 7.4436
Au 11.8292 13.1678 27.6469
Pd 15.4323 25.3708 14.2925
Au 26.3138 21.8199 15.1841
Pd 8.07127 20.1878 11.654
Au 10.4062 18.7258 12.2322
Pd 19.4589 21.8473 14.703
Au 23.352 13.3157 21.3429
Pd 16.2063 12.4158 8.18665
Pd 22.2823 13.7344 12.8261
Pd 14.5523 9.87539 22.9125
Pd 20.5676 13.5827 5.52135
Pd 19.5388 4.49438 19.1067
Pd 25.9113 19.2591 18.959
Pd 23.1137 5.99885 15.0454
Pd 21.0628 20.7045 20.016
Pd 17.2369 13.0213 18.7788
Pd 26.0088 14.5339 15.1612
Pd 12.8419 11.5037 21.6756
Pd 19.5395 9.08542 17.9407
Pd 23.1853 8.26169 9.70476
Au 15.6499 11.7082 13.3926
Au 22.7146 9.58399 7.31573
Pd 15.1649 9.69612 15.2614
Au 28.5165 14.6291 15.338
Pd 24.6169 15.5599 10.1418
Au 26.3944 10.4202 13.5454
Pd 24.3658 17.917 17.305
Au 24.7188 10.6649 9.31498
Pd 18.3935 10.7778 8.42927
Au 25.0496 17.0482 14.7395
Pd 23.3134 10.0644 14.186
Au 24.0484 21.6184 14.0053
Pd 16.2698 19.4723 8.86318
Au 17.3088 11.6965 26.8161
Pd 26.3684 19.6132 10.7746
Au 25.9757 12.0677 11.304
Pd 21.6263 11.1227 21.0683
Au 17.478 10.0302 4.02312
Pd 20.0335 21.4695 17.5865
Au 19.2873 10.9118 22.6015
Pd 23.3214 11.3527 23.1006
Pd 19.4092 12.5632 15.0613
Au 23.4875 17.8818 6.78184
Au 19.0001 8.07514 23.3504
Pd 20.7353 11.6138 7.56492
Au 22.3164 17.0253 15.6093
Pd 18.5906 20.8729 9.08751
Au 23.8678 24.246 9.41271
Pd 23.1694 16.8047 22.2471
Au 19.6316 18.8244 18.3621
Pd 27.124 12.1369 15.7137
Au 13.8113 17.7109 22.5155
Pd 17.5077 5.42383 15.1565
Au 19.7352 8.91948 20.8253
Pd 22.1681 14.2301 17.3586
Au 12.8232 8.40991 20.8162
Pd 18.0261 14.554 5.21269
Au 25.4041 13.6934 19.5358
Pd 15.9214 10.025 9.25974
Au 14.1955 24.5056 19.2178
Pd 12.0802 10.6203 19.2963
Au 26.3844 19.2789 16.2216
Pd 12.4431 15.326 25.9164
Pd 11.9253 18.8657 10.0103
Au 22.1037 6.95853 7.66261
Au 26.8213 15.8001 8.476
Pd 21.9602 15.7939 6.07348
Au 24.8653 9.27776 11.6875
Pd 18.1637 19.2261 6.7843
Au 17.378 20.8405 4.55495
Pd 22.0196 18.9594 13.1753
Au 19.3725 6.08552 21.4352
Pd 21.4283 9.30048 23.0825
Au 26.2255 21.8848 12.3217
Pd 19.3755 15.2606 23.7061
Au 17.2945 3.86218 17.6925
Pd 24.7737 18.8671 4.72594
Au 24.7071 9.36896 18.8387
Pd 15.634 20.4043 16.2959
Au 23.2374 15.4548 19.7458
Pd 17.5365 21.0662 22.8316
Au 14.9964 10.6931 25.6533
Pd 20.8052 17.561 23.2138
Au 4.00048 11.6675 19.393
Pd 18.7358 22.0822 20.2143
Pd 21.6037 21.645 12.8345
Au 20.9496 17.9102 20.5087
Au 11.8167 25.7935 12.2921
Pd 14.3126 20.0892 10.6056
Au 27.0893 14.5158 10.9024
Pd 19.3645 19.5453 13.2231
Au 25.0514 17.9065 9.09654
Pd 20.8983 20.6747 7.71713
Au 21.0882 13.5128 19.6547
Pd 22.7117 16.3837 13.0321
Au 14.994 26.9816 18.7187
Pd 19.9354 16.3067 4.53149
Au 14.3733 14.9672 21.4646
Pd 15.3474 16.5423 13.0869
Au 14.7373 14.8806 18.3359
Pd 16.7769 15.1587 20.2821
Au 25.3027 15.314 21.7138
Pd 22.5262 24.0133 13.7649
Au 19.8834 12.1597 26.8472
Pd 17.2713 17.6333 19.397
Au 14.866 3.87978 18.9162
Pd 21.0284 13.0709 22.8415
Pd 4.26848 21.0842 14.1832
Au 8.29322 23.4065 9.57489
Au 22.5248 22.4332 18.2753
Pd 12.2162 22.2825 17.7034
Au 23.5629 9.21798 21.312
Pd 23.6717 19.3545 15.2249
Au 19.2734 21.7847 11.6759
Pd 16.2738 16.7947 22.4526
Au 27.393 17.1547 10.7036
Pd 17.3626 20.378 18.6203
Au 19.3598 24.5518 6.468
Pd 17.1943 7.73516 5.48761
Au 25.3713 18.2594 21.7625
Pd 21.3343 22.7468 6.04376
Au 24.25 15.1657 7.45889
Pd 13.5851 24.1141 16.4447
Au 7.07591 24.8679 13.7495
Pd 10.8647 23.2925 12.5152
Au 17.0537 20.7658 14.0456
Pd 10.3409 22.4114 7.947
Au 19.6729 21.1187 24.9896
Pd 12.945 19.7633 17.0609
