665
Atoms. Timestep: 20452
Pd 22.2535 15.2052 18.756
Pd 6.38071 22.4352 15.4293
Pd 10.1696 17.8416 16.6357
Pd 8.08493 11.5143 9.98722
Pd 16.8108 15.4905 18.6556
Au 10.9781 21.1745 5.13383
Au 10.0688 22.4542 9.60356
Pd 21.4048 15.9411 24.0051
Au 19.378 10.5136 10.3316
Pd 13.5822 3.98446 9.40593
Au 24.5268 23.214 19.9539
Pd 19.7174 10.1031 24.26
Au 17.3614 16.83 13.1255
Pd 17.6616 20.615 6.72257
Au 10.4913 24.3323 22.0164
Pd 15.994 17.1747 2.41623
Au 20.7975 7.68593 23.422
Au 20.4137 3.18825 15.354
Pd 15.4327 7.58141 11.1428
Au 3.76588 14.0834 8.94298
Pd 13.4757 17.6255 12.6272
Au 21.1473 23.4912 24.1399
Pd 20.1437 22.582 9.55901
Au 13.2449 5.56869 21.0885
Pd 8.28258 13.2479 16.3389
Au 21.1562 17.3775 17.094
Pd 15.9035 14.023 25.2528
Au 3.36 18.0063 10.6536
Au 13.4229 22.1764 21.6683
Pd 17.9544 8.6427 25.8374
Au 6.85482 17.4141 14.2948
Pd 18.0584 7.91796 23.0557
Au 18.1756 5.23808 6.65495
Pd 5.52711 9.58788 13.7746
Au 24.3824 11.8528 13.125
Pd 13.4369 14.4732 4.81435
Au 18.8585 15.586 8.2835
Pd 10.6597 19.2052 23.0501
Au 21.604 26.3375 13.2088
Au 14.2587 26.5657 18.9659
Pd 21.81 11.6962 14.4065
Au 9.236 24.8275 19.549
Pd 11.6938 9.06398 7.69864
Au 17.0138 12.3583 3.3641
Pd 18.7103 8.91989 7.01712
Au 16.25 9.78555 6.00274
Pd 8.41803 22.4262 13.5457
Au 21.7805 11.7703 26.011
Pd 27.0744 19.0701 21.117
Au 18.249 16.0848 3.19266
Au 11.6813 26.0139 18.1512
Pd 15.3499 20.3694 5.28601
Au 23.9886 9.24289 19.5679
Pd 7.47247 10.6569 16.8586
Au 8.49692 5.86181 10.0197
Pd 14.9265 15.749 14.1124
Au 22.3943 9.39965 24.8812
Pd 21.1564 18.7436 24.47
Au 9.63043 4.74291 12.2012
Pd 15.4213 16.3077 11.2166
Pd 11.4313 13.6317 18.374
Pd 19.7621 5.52741 22.2801
Pd 9.2221 26.105 17.1092
Pd 18.9114 24.9536 24.8641
Pd 13.2938 20.8651 3.65652
Pd 6.56869 11.97 14.4061
Pd 4.58143 21.4804 18.5825
Pd 15.0515 10.1567 10.8125
Pd 7.04953 14.7775 14.3127
Pd 8.69087 17.4054 22.3445
Pd 2.58328 14.2238 13.3879
Pd 6.25543 15.375 18.3246
Au 17.5568 3.36878 15.887
Au 22.8927 13.6421 6.78487
Pd 21.3163 13.8651 4.50965
Au 26.3512 18.8687 18.4131
Pd 11.3778 20.3267 7.59527
Au 19.29 3.64592 17.9357
Pd 19.7818 10.2577 26.9118
Au 4.71582 11.0677 16.1033
Pd 3.97379 9.8212 11.4252
Au 10.2945 20.8705 12.055
Pd 13.6785 6.25525 18.2552
Au 5.31768 21.81 10.9757
Pd 23.328 24.4366 13.7361
Au 23.0467 11.1965 7.82936
Pd 12.6312 19.4222 21.2491
Au 24.1641 7.74788 16.9505
Pd 17.6357 23.7457 20.3228
Au 21.7864 18.2843 4.29181
Pd 2.54978 16.9789 13.2169
Au 21.6455 13.4352 16.7171
Pd 15.8575 23.3667 22.3702
Pd 19.1504 12.7625 27.0935
Au 4.44316 16.4341 21.8784
Au 10.2475 7.78111 22.9135
Pd 2.70786 17.2786 15.9457
Au 17.1648 5.25484 22.6912
Pd 19.9311 18.4061 19.3605
Au 20.7891 4.75877 19.9361
Pd 12.9104 18.9955 5.58167
Au 17.4292 20.3376 26.5957
Pd 16.8504 8.95333 20.7342
Au 13.8241 7.36957 24.8543
Pd 18.1623 17.5291 17.7783
Au 14.6061 24.2103 20.1342
Pd 16.035 18.4316 6.89825
Au 5.79098 8.58904 16.3708
Pd 18.6683 15.3095 27.9168
Au 19.5025 25.8732 20.1385
Pd 10.8646 21.4894 21.3418
Au 21.8702 11.3519 23.1617
Pd 14.8061 16.4134 25.1177
Au 12.4527 14.6853 20.8572
Pd 15.8816 17.4848 20.3625
Pd 6.18818 19.0065 18.6354
Au 10.926 4.57493 9.88185
Au 17.5693 11.565 25.302
Pd 11.5107 4.96429 19.0163
Au 3.91177 12.5878 18.2356
Pd 4.64571 18.82 22.8752
Au 11.1153 19.2527 3.34639
Pd 14.0874 19.9175 7.84062
Au 25.7327 19.9825 15.9496
Pd 22.9488 13.9159 24.8032
Au 11.971 16.6923 3.79763
Pd 6.93964 25.0426 15.3121
Au 22.3172 22.4566 18.7292
Pd 17.4368 21.8898 15.4551
Au 9.5181 15.8659 4.06095
Pd 22.6672 16.5783 26.1852
Au 15.0917 20.0327 21.9641
Pd 22.3576 20.273 20.7469
Au 9.4186 16.718 14.1503
Pd 8.55037 7.83653 20.8915
Au 8.32558 8.51384 10.1231
Pd 14.7014 9.98522 22.0634
Pd 12.5667 10.1486 20.5684
Au 6.83794 8.06251 18.8177
Au 11.4445 6.93596 5.91607
Pd 7.83845 23.2483 10.9249
Au 15.8278 8.01703 13.7906
Pd 15.6254 22.2004 7.84201
Au 7.03131 19.72 23.1829
Pd 21.6723 4.65448 17.3538
Au 6.12348 8.01525 11.6868
Pd 14.6504 18.4834 10.066
Au 15.0315 9.88381 16.1341
Pd 7.00227 15.5912 20.8731
Au 9.90382 16.2949 24.4782
Pd 5.16208 14.0116 12.5081
Au 15.2276 14.9041 20.8769
Pd 17.4 10.9592 8.27168
Au 24.1493 16.2634 23.9115
Pd 18.4367 13.3499 17.8235
Au 10.1091 7.20829 15.0806
Pd 20.1974 13.4786 6.92228
Au 13.9417 15.5688 2.37297
Pd 13.069 22.1457 15.9422
Pd 10.0434 4.98293 16.7381
Au 18.9552 6.15688 24.7987
Au 10.5434 23.7021 12.4713
Pd 15.8392 5.84793 20.0149
Au 9.59684 22.1228 19.0294
Pd 5.13004 16.6863 12.333
Au 18.4548 11.4228 5.73575
Pd 24.6517 13.7509 22.6583
Au 14.4523 13.0033 2.72589
Pd 7.13536 21.3349 18.0107
Au 17.7104 14.4567 14.6822
Pd 11.2235 10.2887 23.1016
Au 17.4955 10.6579 22.6586
Pd 22.9856 11.473 18.2239
Au 10.3178 10.9954 3.81326
Pd 8.41757 5.22289 14.5336
Au 12.6737 21.4662 18.8637
Pd 26.7187 12.4999 17.3905
Au 12.9203 12.216 22.3674
Pd 17.9126 28.2209 15.6698
Au 20.0808 23.2925 21.4367
Pd 20.6336 21.1919 22.9816
Pd 27.5295 15.8957 14.6557
Pd 21.4478 22.8476 7.23428
Pd 23.5073 15.8302 16.4351
Pd 7.67418 20.7541 11.5981
Pd 13.7587 12.0322 17.104
Pd 10.8774 12.4313 16.1101
Pd 4.41571 11.5879 9.22791
Pd 8.83281 21.4967 15.9993
Pd 23.7909 18.4391 17.3552
Pd 17.3744 13.2839 23.1599
Pd 23.927 20.2417 10.6888
Pd 21.693 8.98907 6.91218
Au 22.619 4.71091 14.9484
Au 18.4 23.1066 7.55723
Pd 14.6087 13.0726 14.0951
Au 21.4552 12.4074 9.55279
Pd 18.9223 4.47816 13.5228
Au 8.57789 18.5057 7.59419
Pd 14.0669 14.2259 27.0491
Au 16.3401 6.61543 24.9964
Pd 11.5193 10.9094 18.2981
Au 5.63209 14.1166 22.5845
Pd 15.0552 10.5774 13.4321
Au 20.0057 17.0344 26.3157
Pd 11.0067 11.2265 6.40761
Au 17.9322 7.3795 4.90626
Pd 7.22107 21.172 9.07999
Au 14.0074 3.69841 19.0139
Pd 19.6297 12.1539 21.9489
Au 13.437 22.0539 6.05412
Pd 7.55558 15.77 11.6672
Au 5.84001 14.55 7.33735
Pd 23.3413 14.2763 9.4321
Pd 19.1448 20.1761 10.0275
Au 10.699 9.28698 13.1714
Au 6.47091 16.8288 23.552
Pd 19.6169 15.277 16.3444
Au 19.0231 22.9594 11.9706
Pd 16.3732 14.1857 12.3461
Au 15.1113 4.63645 16.5235
Pd 10.5996 9.87433 10.2061
Au 22.7491 8.92685 22.086
Pd 16.6333 7.33476 7.29916
Au 13.0678 27.2189 13.7204
Pd 11.1248 14.1299 23.2401
Au 7.79855 13.1073 12.3303
Pd 9.60787 14.0285 14.0703
Au 12.6901 10.92 14.7848
Pd 6.72888 23.4418 19.5627
Au 22.7841 6.53545 18.8593
Pd 10.6529 15.3826 12.0066
Au 15.8643 4.37131 7.82015
Pd 13.4087 16.887 27.2816
Au 12.0127 24.5547 9.45516
Pd 11.0806 20.5577 16.7732
Pd 18.2447 15.4055 10.9174
Au 14.4856 12.7048 11.1571
Au 22.5024 26.1257 15.6225
Pd 12.3271 24.6248 14.8093
Au 15.0097 14.9416 6.96052
Pd 9.76755 15.2776 21.0287
Au 10.5427 13.7584 5.62732
Pd 13.3956 14.9237 12.1436
Au 17.3406 13.525 7.04569
Pd 15.1479 19.0114 24.716
Au 4.41599 15.5632 14.7537
Pd 8.86781 10.0911 7.88566
Au 19.5651 19.1464 5.49687
Pd 20.9563 25.4853 17.5477
Au 24.9551 22.7026 17.3525
Pd 9.69034 25.1507 10.5399
Au 17.5696 9.75773 3.64746
Pd 11.1909 17.8014 8.1832
Au 17.4561 9.86565 14.9486
Pd 15.0758 20.8522 14.6407
Au 10.3631 5.64354 21.3514
Pd 19.1692 19.7266 16.7228
Pd 19.4018 22.1202 25.654
Au 19.5782 22.1301 5.40872
Au 19.9245 5.61558 11.0648
Pd 10.999 16.2118 18.7496
Au 15.1113 17.3473 17.7501
Pd 23.1313 20.6772 7.72227
Au 9.54904 19.5091 14.3691
Pd 12.6406 12.0089 4.45778
Au 13.2127 8.98583 17.8469
Pd 17.8804 13.9762 20.52
Au 12.6175 5.69429 15.7063
Pd 14.3497 17.3691 22.5534
Au 8.69398 26.9479 14.6602
Pd 23.6587 15.7728 21.1485
Au 17.2006 10.5942 27.6808
Pd 16.1151 8.04583 18.3369
Au 23.6094 24.9748 18.0619
Pd 21.5551 23.9182 11.6878
Au 6.39127 7.00086 14.2614
Pd 10.4046 15.1406 16.362
Au 3.87914 11.7727 13.6189
Pd 20.9909 16.3102 21.1948
Pd 3.6563 15.2374 17.4632
Au 20.1133 16.3124 12.563
Au 18.2252 3.3027 8.57794
Pd 11.6479 6.32841 13.206
Au 12.3916 3.37317 16.9035
Pd 23.8739 9.35628 12.0681
Au 13.6458 18.4008 2.79024
Pd 7.6763 15.8796 8.79259
Au 17.4109 9.43003 12.1503
Pd 16.3801 14.1665 9.54951
Au 13.1394 20.5859 23.988
Pd 14.9678 11.56 26.4768
Au 19.9856 16.4123 5.64433
Pd 6.93565 20.1451 14.0763
Au 22.751 22.4269 9.6165
Pd 23.777 18.269 14.7473
Au 16.4137 24.7962 8.5309
Pd 13.6791 19.6997 16.7821
Au 12.0396 6.47596 8.48757
Pd 17.4657 19.492 19.6066
Au 17.8806 21.8292 18.1326
Pd 21.7966 20.6634 5.46738
Pd 18.6985 24.0737 16.458
Pd 9.18772 11.3932 14.4018
Pd 11.3427 7.74396 20.1068
Pd 21.5985 19.949 17.9865
Pd 19.7105 9.46633 21.5778
Pd 19.3918 18.4575 3.00004
Pd 22.6671 17.0167 9.84936
Pd 16.4056 16.6704 8.76056
Pd 19.589 10.5016 13.3709
Pd 15.1727 26.0827 21.9052
Pd 16.7308 25.8693 15.702
Pd 12.0612 15.9955 6.35221
Au 17.3584 16.2012 6.10962
Au 17.4616 19.358 14.4576
Pd 16.6477 15.8615 23.0781
Au 14.3862 26.1408 9.72709
Pd 16.406 12.2683 15.936
Au 6.87194 25.7812 18.1845
Pd 12.7527 13.2326 7.20745
Au 12.2423 3.83152 12.138
Pd 8.06302 9.02761 14.8433
Au 17.4244 8.58307 9.61358
Pd 20.0096 12.9832 24.4771
Au 5.28392 10.2388 18.5746
Pd 13.9452 7.76548 6.47831
Au 25.6999 14.2375 15.6014
Pd 13.1276 6.06398 11.0299
Au 24.4076 18.545 8.70835
Pd 17.4522 10.5093 17.5507
Au 6.54506 11.7562 7.683
Pd 20.0386 9.51036 16.0195
Au 8.49896 13.5143 7.69883
Pd 13.9645 14.6114 23.2864
Pd 11.5425 14.0504 3.05238
Au 6.08163 9.66159 9.5081
Au 24.8893 22.4896 14.7043
Pd 25.282 10.1756 17.2545
Au 22.3061 4.7549 10.1802
Pd 20.045 17.4662 10.0529
Au 16.6593 22.7256 5.43222
Pd 19.9161 21.0466 19.8664
Au 25.9762 14.3181 20.2164
Pd 17.0541 11.877 10.7962
Au 21.5114 11.4288 5.55011
Pd 16.9847 5.87615 14.9095
Au 17.1192 18.3216 4.47874
Pd 21.9913 24.78 20.1754
Au 9.96384 10.1119 20.7172
Pd 14.9731 21.2028 26.4035
Au 24.4686 13.7883 17.968
Pd 19.9605 6.58846 18.2367
Au 27.0598 15.15 17.6991
Pd 19.3652 14.7927 22.5415
Au 26.7554 13.7215 13.2675
Pd 15.9335 9.28838 24.287
Pd 16.165 15.9505 27.3546
Au 23.727 7.1566 14.2373
Au 4.36865 17.0778 19.3146
Pd 11.4959 22.6161 23.7962
Au 24.8372 9.56935 14.5909
Pd 10.7047 7.24369 10.824
Au 9.0308 13.2538 3.46452
Pd 24.7047 18.3897 20.5537
Au 14.173 8.02187 20.1917
Pd 3.1014 13.2627 15.7361
Au 10.7459 20.2656 25.5175
Pd 19.5518 21.2556 13.9864
Au 2.74689 19.6327 12.6195
Pd 12.0506 18.7926 14.8271
Au 18.0746 17.9956 27.9646
Pd 10.4212 18.0547 20.5161
Au 6.78327 11.767 22.8809
Pd 14.9545 7.21772 16.1099
Au 18.3038 16.7724 20.9046
Pd 6.05368 23.4101 12.9888
Au 11.2325 26.9024 15.6113
Pd 23.2744 20.8587 16.1931
Pd 6.59195 12.6915 18.5724
Au 14.5508 5.01641 23.4723
Au 15.0971 27.3783 11.9412
Pd 9.3938 15.9653 6.82332
Au 20.5942 13.3125 19.7703
Pd 12.9987 8.5505 10.0173
Au 12.8307 12.7377 25.0898
Pd 20.1887 10.9226 7.82176
Au 16.2619 3.72335 13.5101
Pd 21.641 7.18098 16.0971
Au 4.46767 18.5051 14.3046
Pd 17.3865 5.56159 17.8295
Au 12.4852 22.0986 26.244
Pd 21.0803 6.24798 13.4688
Au 16.449 19.5751 16.9702
Pd 16.6269 20.0076 9.0928
Au 13.8092 17.2059 7.86004
Pd 10.4627 9.72948 16.0897
Au 21.767 8.88229 13.7534
Pd 15.1468 10.4377 19.1629
Au 21.2857 21.135 11.6429
Pd 20.8356 14.9001 10.3399
Pd 13.8384 14.9186 18.4582
Au 16.5406 3.11504 18.5186
Au 19.5835 18.9477 12.5368
Pd 7.08111 18.3245 9.86838
Au 20.5852 23.9629 14.3024
Pd 19.5073 5.58551 15.8443
Au 20.997 14.5305 26.5241
Pd 19.9822 19.6436 26.7199
Au 24.2586 11.1154 21.8298
Pd 14.0137 26.2858 16.1787
Au 5.90171 17.4661 7.43588
Pd 13.0259 20.3026 12.8905
Au 8.9876 21.3535 7.14069
Pd 17.8358 24.2815 13.9579
Au 12.0169 16.0654 14.2298
Pd 20.2606 3.09077 10.2882
Au 14.3488 23.1066 24.6271
Pd 3.22307 12.6648 11.2382
Au 12.4063 16.7871 10.335
Pd 14.6533 23.6091 10.3723
Au 20.4732 14.1019 14.068
Pd 11.9426 18.8386 18.5688
Pd 9.6308 24.4088 14.9745
Pd 5.63104 13.6888 16.2992
Pd 7.61294 17.34 5.37073
Pd 14.8238 21.0406 10.8672
Pd 17.6559 5.84748 9.40101
Pd 19.6284 15.624 18.9298
Pd 11.0795 14.9712 8.64632
Pd 3.07555 15.3666 11.1138
Pd 15.3128 12.5073 5.53132
Pd 18.4536 26.4384 17.7055
Pd 24.7644 14.169 11.7217
Pd 14.4007 5.74612 13.4561
Au 20.8731 16.0896 3.15454
Au 5.42007 19.3094 11.8447
Pd 12.8032 8.13269 22.5025
Au 26.7921 16.1493 12.0732
Pd 13.4766 12.5065 19.7312
Au 13.6784 10.6051 6.53053
Pd 6.4612 18.1643 21.0428
Au 17.2991 17.6173 25.4871
Pd 15.6925 5.72772 5.48619
Au 25.0672 20.9602 21.3884
Pd 11.178 23.0992 7.17986
Au 21.324 3.656 12.6865
Pd 15.5622 4.92887 11.0007
Au 12.3435 9.2121 4.68362
Pd 3.45317 19.1117 17.7836
Au 9.11267 6.21966 18.9505
Pd 8.00837 7.00412 16.6541
Au 19.9579 8.27586 11.6654
Pd 18.3343 23.0074 23.3919
Au 15.947 2.56175 9.73044
Pd 23.2085 14.1023 14.3433
Pd 21.6804 10.7899 11.821
Au 8.39223 22.7275 21.4487
Au 11.8029 23.7618 19.8231
Pd 17.2393 22.5068 10.0033
Au 12.2657 19.6955 10.2229
Pd 21.7123 10.8431 20.4591
Au 20.2526 20.592 7.66283
Pd 17.8708 3.6895 11.2334
Au 10.1032 11.873 11.9201
Pd 24.8836 16.0539 13.8474
Au 16.3743 21.2524 24.0398
Pd 13.6112 22.8944 13.3754
Au 12.4122 26.1393 20.8223
Pd 2.61855 19.9663 15.346
Au 10.8553 17.7195 26.5588
Pd 10.9524 18.2178 12.2631
Au 12.5779 17.9665 24.6122
Pd 7.73484 18.915 16.4173
Au 12.7518 16.8788 16.7214
Pd 22.254 21.8304 13.9667
Au 5.31729 23.8489 17.3679
Pd 17.5757 6.42278 12.1768
Pd 7.94611 16.1265 16.4852
Au 5.20141 11.9775 20.7703
Au 20.511 7.91932 26.0179
Pd 15.7472 12.2893 21.2188
Au 24.1095 11.5613 24.4685
Pd 11.9098 13.3297 10.641
Au 12.937 14.2208 15.8978
Pd 16.1076 22.6338 12.8088
Au 21.8524 21.1254 25.4631
Pd 10.4115 18.1315 5.61667
Au 8.7004 18.6046 24.8844
Pd 23.265 20.5844 23.3175
Au 22.7138 22.7617 21.8497
Pd 15.7594 19.8813 2.74025
Au 25.4654 11.6321 19.5339
Pd 10.6967 12.6398 20.7558
Au 10.9371 3.92988 14.4932
Pd 9.23624 19.5806 18.5037
Au 23.9497 22.5672 11.9918
Pd 21.9691 9.44966 9.59222
Au 18.8495 24.8954 9.65868
Pd 22.2197 18.6175 12.391
Pd 17.5366 20.6603 12.0238
Au 4.08719 19.4857 20.3983
Au 26.4294 18.2896 13.8559
Pd 6.26428 20.9734 20.7048
Au 9.11949 21.3209 23.6048
Pd 16.9459 23.0877 25.8353
Au 8.14998 23.6968 17.2384
Pd 21.3214 19.3861 15.0019
Au 6.28206 13.6614 9.92114
Pd 8.40968 9.70401 22.8111
Au 22.4417 17.7791 19.5324
Pd 26.4755 11.6446 14.9063
Au 11.7174 16.6943 22.4433
Pd 18.6428 18.2821 7.90692
Au 5.18798 16.2485 9.70344
Pd 22.2254 13.321 12.0168
Au 16.662 13.3139 27.6888
Pd 18.6868 14.0238 4.72182
Au 15.4203 28.0338 14.7049
Pd 14.614 17.0215 4.95487
Au 9.53876 19.7366 9.73784
Pd 5.32211 20.1416 16.2683
Pd 20.2382 5.08088 8.41601
Au 16.7101 24.8768 11.4863
Au 22.7015 9.80801 16.1273
Pd 16.37 24.4648 17.9619
Au 15.1384 11.9371 23.8513
Pd 15.0841 12.2501 8.32044
Au 15.9438 12.9244 18.6011
Pd 15.4929 18.5689 27.3345
Au 3.71321 22.2161 16.116
Pd 16.0224 14.8141 4.28145
Au 23.5027 5.18047 12.4783
Pd 14.7005 6.51751 8.84814
Au 20.0288 9.29315 4.74431
Pd 22.2769 6.88065 8.50785
Au 11.9997 5.80224 23.4841
Pd 8.28592 18.302 12.2146
Au 24.5018 20.2731 13.3096
Pd 14.7555 18.1915 14.9839
Au 25.3327 18.7743 23.1513
Pd 15.0535 9.28615 8.39765
Au 4.51036 14.4248 20.0837
Pd 24.7052 17.9091 11.7951
Pd 24.8545 16.384 18.7706
Pd 12.6268 10.8737 11.9672
Pd 18.3332 6.78576 20.4407
Pd 15.4298 7.28879 22.4379
Pd 9.61422 16.9924 10.1496
Pd 18.9704 7.73747 14.1096
Pd 13.3518 8.39631 12.6692
Pd 9.24355 9.02054 18.3494
Pd 13.2868 17.077 20.0119
Pd 24.3204 20.5832 18.8429
Pd 17.9768 21.0367 21.7353
Pd 15.0453 25.3368 13.6053
Au 17.857 25.5418 22.3299
Au 20.4882 21.9874 16.4618
Pd 8.4749 11.7357 5.66121
Au 16.1969 25.1132 24.3238
Pd 17.4086 26.9789 13.2754
Au 8.72517 7.36985 12.6893
Pd 9.13923 11.8388 18.5896
Au 15.3395 23.5871 15.4867
Pd 18.8954 13.086 9.26121
Au 22.418 7.27465 11.2158
Pd 14.5954 19.5567 19.2784
Au 13.9167 24.3442 7.57065
Pd 13.01 19.4784 26.7426
Au 27.2992 16.8 19.7589
Pd 21.4575 15.6848 7.84588
Au 18.3806 14.9634 25.3151
Pd 8.21178 14.6385 23.1568
Au 8.65497 19.9676 21.0693
Pd 16.0551 27.6482 17.4662
Au 19.8478 23.5361 18.7763
Pd 22.8077 15.9216 12.1589
Pd 14.8655 2.14794 16.6397
Au 12.8851 11.1428 9.20272
Au 13.0416 22.094 8.77049
Pd 7.9654 10.0658 12.3383
Au 10.6345 26.3055 12.9615
Pd 21.7262 19.4691 9.59804
Au 9.57195 7.41724 7.98022
Pd 10.937 23.4866 17.1012
Au 19.3746 25.6942 12.1169
Pd 19.9821 18.9368 21.8722
Au 18.0393 7.82867 16.615
Pd 11.1764 7.30726 17.4933
Au 15.8607 21.7833 20.0895
Pd 21.7979 16.5213 14.5815
Au 22.708 18.0582 22.4373
Pd 22.622 16.0164 5.35024
Au 21.8943 13.8961 22.3192
Pd 12.9227 25.1535 11.9258
Au 19.2598 12.1516 15.5851
Pd 16.8122 26.3154 19.8341
Au 6.97781 5.44811 12.1741
Pd 8.81141 14.5156 18.6571
Pd 9.16841 14.0768 10.2687
Au 24.0549 16.1769 7.55125
Au 17.0881 18.547 22.6179
Pd 11.0572 21.9071 14.3856
Au 21.6314 8.89781 18.3988
Pd 23.8703 11.6862 10.4563
Au 13.1579 24.6072 22.8008
Pd 10.4757 12.1797 8.75998
Au 15.4861 3.62059 21.2702
Pd 11.9745 13.1361 13.4874
Au 20.2815 6.85203 6.3705
Pd 8.1478 25.1034 12.819
Au 17.0789 26.995 10.1589
Pd 19.888 7.70084 9.03813
Au 19.0187 8.9697 19.0099
Pd 17.9044 20.7759 3.95586
Au 6.54989 19.9485 6.77947
Pd 15.2049 21.8856 17.5411
Au 9.36816 12.1727 23.0739
Pd 14.8003 10.5338 3.79022
Au 9.74368 9.00791 5.59842
Pd 8.27998 17.1702 19.0525
Pd 18.0597 11.3634 19.9537
Au 17.3879 12.0587 13.4233
Au 13.3621 10.0252 24.7221
Pd 19.4984 12.9188 11.8702
Au 21.9302 18.2502 7.09701
Pd 15.5371 14.6487 16.4581
Au 5.80045 11.5024 11.6175
Pd 19.3443 17.5497 14.9742
Au 15.317 8.84877 26.7124
Pd 25.9087 17.1648 16.2942
Au 7.36006 10.3827 20.2865
Pd 16.484 14.5402 1.78098
Au 12.2451 15.3709 25.4176
Pd 22.6166 23.5185 16.1495
Au 14.5107 2.65825 11.892
Pd 12.3531 22.3557 11.2034
Au 7.60516 14.4809 5.34179
Pd 4.53732 21.2848 13.69
Au 26.0916 16.4256 22.0379
Pd 18.7101 19.8892 24.2992
Au 13.459 5.085 6.78932
Pd 19.7162 11.7877 3.51256
Pd 16.8785 16.8023 15.741
Au 5.36076 17.3225 16.6806
Au 13.5741 24.1289 17.6393
Pd 12.6557 8.31854 15.2078
Au 18.1415 4.14361 20.3895
Pd 24.0749 12.1043 15.8619
Au 19.1207 17.1538 23.6439
Pd 20.2353 11.2898 18.042
Au 23.6566 18.7597 25.1999
Pd 25.2004 16.139 9.94211
Au 20.5058 25.5646 22.6602
Pd 13.6807 3.36778 14.4828
Au 4.95762 19.6465 9.11269
Pd 13.7948 14.7433 9.3276
Au 19.6255 26.3287 15.1071
Pd 15.6043 19.0254 12.55
Au 15.362 8.00643 4.21571
Pd 21.0331 7.38474 20.6648
Au 17.5078 18.113 10.7462
Pd 23.3491 13.1539 20.2968
Au 8.59109 19.8557 4.96692
Pd 7.95302 13.0598 20.8722
