665
Atoms. Timestep: 20177
Pd 7.93691 8.75975 7.93976
Pd 5.05302 8.77306 11.9478
Pd 3.16181 9.01031 16.2357
Pd 3.37479 8.32454 18.8504
Pd 6.38567 8.43515 22.3525
Au 8.76561 10.0039 5.64615
Au 5.77128 9.8792 9.55408
Pd 6.60421 11.0904 7.22328
Au 3.21645 9.98222 13.7214
Pd 3.87866 11.1556 11.3275
Au 3.29718 10.849 18.2121
Pd 3.1976 11.7788 15.7461
Au 4.19126 9.45907 21.1426
Pd 4.32547 12.0277 20.3449
Au 7.28383 9.69042 24.5104
Pd 5.11613 10.7436 23.3027
Au 7.40661 12.3316 4.88876
Au 4.59942 12.287 8.87606
Pd 5.42134 13.5261 6.49418
Au 3.59892 12.9232 13.408
Pd 4.18995 14.0086 11.0283
Au 3.50732 13.5093 17.9002
Pd 3.75076 14.7734 15.5623
Au 5.13177 13.3564 22.4458
Pd 4.79494 14.7271 19.9187
Au 8.4886 13.4772 25.5721
Pd 6.34435 14.6374 24.4412
Au 10.5719 16.4867 3.22786
Au 4.80818 15.1233 8.6088
Pd 5.76823 16.453 6.28521
Au 4.15554 15.8827 13.1969
Pd 4.57793 16.9106 10.8213
Au 3.71889 16.3081 17.9068
Pd 4.11934 17.5465 15.5487
Au 6.09429 15.9141 21.9874
Pd 5.04305 17.5335 19.9344
Au 7.57913 15.8891 26.4625
Pd 7.45809 17.1009 24.0312
Au 8.94787 14.2693 3.64119
Au 5.00196 17.9235 8.39093
Pd 5.44423 19.2595 6.12335
Au 4.50232 18.6918 13.1625
Pd 4.90206 19.6923 10.754
Au 4.00224 19.0888 17.8793
Pd 4.45505 20.3165 15.5002
Au 6.32306 18.7274 22.0391
Pd 5.29318 20.2957 19.9576
Au 8.79525 18.2364 26.124
Pd 7.68109 19.8473 24.0858
Au 7.9722 16.4489 2.5345
Au 6.16242 20.4197 8.48822
Pd 6.42624 15.0161 4.17489
Au 4.9392 21.4607 13.0853
Pd 6.94882 23.308 12.9647
Au 4.33024 21.8076 17.8575
Pd 4.86682 22.974 15.4528
Au 6.59652 21.443 22.0559
Pd 5.62867 22.9591 19.9937
Au 11.1682 19.5166 25.8846
Pd 8.96952 22.7284 21.8511
Pd 10.1697 7.76302 6.44623
Pd 7.12782 7.57574 10.2599
Pd 9.30927 6.4719 8.68124
Pd 5.14068 8.20122 14.5486
Pd 7.16504 7.18582 12.9443
Pd 5.34072 7.62987 17.2262
Pd 7.3539 6.79428 15.6552
Pd 5.53363 7.30816 20.0303
Pd 7.53847 6.45333 18.4479
Pd 8.63287 7.4563 23.5393
Pd 7.7499 6.28505 21.2471
Pd 11.591 10.0422 5.43654
Au 12.9109 7.87177 6.19108
Au 10.4143 9.95733 7.86825
Pd 8.27322 10.988 9.44132
Au 9.57525 8.63341 10.1953
Pd 13.1191 10.418 7.66813
Au 7.49453 9.74672 11.8016
Pd 5.57024 10.9873 13.5365
Au 7.56711 9.34791 14.5646
Pd 10.0035 10.8777 11.7537
Au 5.43896 10.2767 16.261
Pd 5.91768 12.3208 18.2222
Au 7.72525 8.95436 17.3236
Pd 7.94662 11.4976 16.2856
Au 5.6556 9.76083 18.9503
Pd 6.64316 10.9158 21.212
Au 7.90264 8.66857 20.0935
Pd 8.24763 11.2037 19.0767
Au 8.88191 9.83959 22.399
Pd 9.59103 11.0951 24.6174
Au 11.889 10.2187 25.575
Pd 11.6252 11.1535 22.7662
Pd 10.2429 12.1492 4.58874
Au 13.1497 12.1351 4.42928
Au 9.0895 12.2283 7.06368
Pd 7.0043 13.3562 8.70644
Au 10.8169 12.1617 9.37572
Pd 11.8231 12.532 6.80681
Au 6.26482 12.1631 11.0738
Pd 6.0853 13.9801 13.1375
Au 8.01906 12.004 13.4264
Pd 8.71254 13.2565 10.9885
Au 5.62558 12.8958 15.5356
Pd 5.91983 14.8572 17.3912
Au 8.36558 13.7111 18.0385
Pd 8.13169 14.0058 15.2843
Au 7.10651 13.4987 20.5943
Pd 8.46253 14.6887 22.8329
Au 9.42819 12.3676 21.5932
Pd 9.61818 14.836 20.2851
Au 7.36357 12.2214 23.4795
Pd 10.8382 12.53 26.4991
Au 13.1036 12.4521 25.0139
Pd 10.7481 13.5116 23.9262
Pd 9.12949 18.727 3.29152
Au 11.8279 14.186 3.49673
Au 7.82236 14.5382 6.32839
Pd 7.32098 16.1591 8.393
Au 9.46902 14.4573 8.57835
Pd 10.4535 14.6442 5.86824
Au 6.60751 15.1294 10.7757
Pd 6.70747 17.1616 12.6511
Au 8.57747 15.1629 12.9148
Pd 9.06151 16.3253 10.5261
Au 6.27509 16.0033 15.0041
Pd 6.17141 17.5906 17.3948
Au 8.47626 16.191 16.8473
Pd 8.91837 17.3933 14.4561
Au 7.26336 16.0092 19.4421
Pd 8.57578 17.1806 21.5308
Au 10.9134 15.9861 22.4718
Pd 9.77375 17.3021 18.9678
Au 9.798 15.8849 24.9828
Pd 9.80591 14.8452 27.439
Au 12.1634 14.8228 26.1488
Pd 12.2467 17.2078 24.6565
Pd 7.72689 20.121 4.94895
Au 11.8093 18.9325 3.64988
Au 8.6728 16.835 5.26869
Pd 7.69903 18.5246 7.28416
Au 9.9951 17.1201 7.91406
Pd 10.0995 19.1366 5.89592
Au 6.98223 18.1161 10.1846
Pd 7.02418 19.9275 12.5284
Au 9.27422 18.5542 12.0413
Pd 8.5814 20.1165 9.88821
Au 6.61271 18.8009 14.9799
Pd 6.47355 20.3422 17.4237
Au 8.74368 18.9477 16.8752
Pd 9.15673 20.1797 14.4336
Au 7.50049 18.79 19.5108
Pd 8.82411 19.9821 21.6359
Au 11.055 18.4739 21.1263
Pd 9.98806 20.0808 19.0763
Au 9.90369 18.3697 23.6647
Pd 11.1047 17.1353 27.07
Au 14.5989 21.2323 27.1817
Pd 12.3162 19.6675 23.3429
Pd 6.2547 21.8183 6.2512
Au 10.2565 21.1294 4.09636
Au 6.50229 17.8744 4.13842
Pd 7.30394 22.9366 8.36686
Au 8.71497 21.0256 7.28949
Pd 8.55375 22.7071 5.25214
Au 6.51708 21.8877 10.7349
Pd 7.15022 24.3973 15.3037
Au 9.0135 21.804 12.1692
Pd 8.24823 23.9514 10.5589
Au 6.96453 21.5696 15.0115
Pd 9.33133 22.9536 14.7581
Au 8.97367 21.6837 17.0619
Pd 11.4779 21.5833 13.7667
Au 7.77346 21.5606 19.6027
Pd 8.0572 24.2443 19.7631
Au 11.2475 21.3465 21.3501
Pd 6.67051 23.0849 17.5453
Au 10.0309 21.1559 23.9283
Pd 10.5214 24.8523 21.2908
Au 12.6541 21.6873 25.2445
Pd 10.1931 22.8437 19.3049
Pd 11.5928 5.51371 7.25019
Pd 9.2211 6.11845 11.395
Pd 11.2848 5.03281 9.90351
Pd 9.37844 5.81601 14.1259
Pd 11.4219 4.77438 12.6331
Pd 9.56107 5.55196 16.9012
Pd 11.5966 4.5632 15.3987
Pd 9.74574 5.3385 19.697
Pd 11.7729 4.38967 18.1843
Pd 9.95645 5.30031 22.4178
Pd 11.947 4.29253 20.9246
Pd 14.4685 10.0578 5.32762
Au 14.2464 5.72614 7.02989
Au 11.7623 7.63784 8.67154
Pd 12.1129 9.81162 10.189
Au 11.7126 7.22844 11.4041
Pd 14.3989 8.28798 8.46935
Au 9.63499 8.30903 12.9604
Pd 10.0749 10.5639 14.5568
Au 11.8433 6.99682 14.17
Pd 12.1476 9.51589 12.9444
Au 9.78554 8.02014 15.7267
Pd 10.2201 10.2755 17.3667
Au 12.0105 6.79618 16.9616
Pd 12.2725 9.29401 15.7311
Au 9.96848 7.77099 18.5188
Pd 10.4684 10.094 20.2056
Au 12.2072 6.63476 19.7935
Pd 12.4481 9.09384 18.5618
Au 10.1632 7.61413 21.3004
Pd 13.8747 10.0036 23.7822
Au 11.0725 8.62202 23.7082
Pd 12.6405 8.93241 21.4407
Pd 14.7589 14.2576 3.61819
Au 16.1352 12.1574 4.41398
Au 14.6987 12.5506 6.69957
Pd 13.4051 12.9671 9.12593
Au 14.6659 10.7609 9.96189
Pd 16.2017 14.7449 5.93341
Au 12.4964 12.0888 11.6397
Pd 10.4481 13.1585 13.2944
Au 12.5527 11.8027 14.4475
Pd 14.9737 13.2485 11.4065
Au 10.4379 12.7595 16.1718
Pd 10.866 15.0414 17.7374
Au 12.6908 11.5723 17.2795
Pd 12.9356 14.0622 15.9394
Au 10.6779 12.5702 19.0151
Pd 11.8939 13.6484 21.3566
Au 12.8986 11.3803 20.1634
Pd 13.1371 13.8526 18.7724
Au 14.1489 12.4703 22.4849
Pd 14.8588 14.4497 25.8137
Au 15.7788 11.9977 24.7227
Pd 15.9661 14.4566 23.3363
Pd 13.3065 16.5474 3.5499
Au 16.0743 16.6242 3.72168
Au 13.2808 14.6771 5.78395
Pd 11.992 15.0413 8.20627
Au 14.824 15.1492 8.21514
Pd 14.5534 17.0614 5.95118
Au 11.1293 14.4495 10.8462
Pd 11.0405 16.4204 12.6737
Au 12.9009 14.3873 13.1186
Pd 13.526 15.4834 10.5997
Au 10.6259 15.2558 15.0235
Pd 11.0127 17.5785 16.3588
Au 13.3232 16.3439 17.3961
Pd 13.11 16.6204 14.6284
Au 12.1011 16.133 19.9561
Pd 13.3813 17.3 22.1694
Au 14.3779 14.9671 21.0623
Pd 14.5593 17.4634 19.6517
Au 13.2132 14.8523 23.5987
Pd 13.8723 16.8301 26.8718
Au 16.6059 16.3752 26.664
Pd 14.9986 16.8444 24.4188
Pd 12.9241 21.4104 4.39648
Au 14.4634 19.0179 3.88273
Au 11.712 16.9714 5.69919
Pd 11.0171 19.6617 8.49583
Au 13.0011 17.4538 8.1714
Pd 12.8542 19.378 6.16674
Au 11.409 17.6027 10.3096
Pd 11.1741 20.3164 11.2912
Au 13.4778 17.7795 12.1729
Pd 13.3865 19.5214 9.95401
Au 11.4003 18.8076 13.8962
Pd 11.2909 20.4841 16.3325
Au 13.4801 18.897 16.0926
Pd 15.7377 21.9551 13.385
Au 12.2216 18.6177 18.5659
Pd 13.4612 19.7597 20.7891
Au 15.0713 19.331 22.9605
Pd 12.3736 21.354 18.7413
Au 13.9372 19.2088 25.5667
Pd 15.5569 21.4134 24.7119
Au 15.702 18.7739 27.5858
Pd 16.7309 21.4764 22.272
Pd 11.1801 23.5615 4.99327
Au 13.8575 23.7595 5.37472
Au 11.2906 21.6456 6.67586
Pd 9.60512 23.8324 7.32073
Au 12.6003 22.092 9.14243
Pd 12.2147 24.1459 7.48812
Au 9.9621 22.2723 9.40896
Pd 9.38675 24.6676 12.7186
Au 11.3238 23.2015 11.6132
Pd 10.6093 24.8805 9.65037
Au 13.805 20.016 13.7253
Pd 9.41916 25.7438 15.0264
Au 11.5423 23.3091 16.9051
Pd 11.6057 24.2758 14.3988
Au 13.369 25.2973 17.9436
Pd 9.0365 24.3656 17.2181
Au 11.4533 23.3397 23.259
Pd 11.6264 26.1394 16.2798
Au 13.6901 21.9659 22.6632
Pd 13.2873 25.1293 22.5395
Au 14.2019 23.7962 24.7784
Pd 12.5955 23.573 20.3295
Pd 13.2725 3.81497 8.54243
Pd 13.4896 3.74149 11.1809
Pd 15.7919 4.15808 9.67591
Pd 13.6584 3.60555 13.9122
Pd 15.9404 4.00898 12.4313
Pd 13.835 3.46444 16.6911
Pd 16.0944 3.87413 15.2037
Pd 14.0065 3.35667 19.4476
Pd 16.2641 3.74691 17.9799
Pd 12.346 6.49505 22.5535
Pd 16.4234 3.68867 20.7167
Pd 15.7555 7.88002 6.10753
Au 16.3667 6.4397 8.38469
Au 13.7993 6.04607 9.79601
Pd 14.2461 8.37242 11.3039
Au 16.2704 6.39705 11.1429
Pd 16.6675 8.84267 9.86707
Au 13.9252 5.94101 12.607
Pd 14.3528 8.25627 14.1065
Au 16.3842 6.27276 13.9163
Pd 16.6789 8.76244 12.6316
Au 14.0783 5.79118 15.4039
Pd 14.498 8.09889 16.9229
Au 16.5274 6.1323 16.7104
Pd 16.796 8.61342 15.4132
Au 14.2481 5.65454 18.2319
Pd 14.6564 7.91137 19.7974
Au 16.6673 6.01798 19.5419
Pd 16.9302 8.46272 18.224
Au 14.4033 5.43548 21.1209
Pd 14.8363 7.72644 22.5871
Au 16.8437 5.89404 22.3417
Pd 17.0949 8.32905 21.075
Pd 17.728 14.3457 3.80755
Au 17.3972 9.93005 5.18144
Au 16.0279 10.3421 7.53754
Pd 16.2983 12.8603 8.97818
Au 16.99 11.2746 11.293
Pd 17.6891 12.4627 6.62037
Au 14.642 10.7232 12.7722
Pd 15.0419 13.075 14.2176
Au 17.0723 11.115 14.0905
Pd 17.3318 13.6453 12.7358
Au 14.7596 10.5619 15.5948
Pd 15.1695 12.8793 17.0465
Au 17.1989 10.9431 16.8974
Pd 17.4529 13.4468 15.5456
Au 14.9154 10.3771 18.4407
Pd 15.3688 12.6755 19.9088
Au 17.3683 10.794 19.7336
Pd 17.6138 13.2753 18.3564
Au 15.1219 10.1789 21.3202
Pd 17.5552 13.9806 25.5538
Au 16.6645 9.61853 23.5705
Pd 16.9183 12.107 22.2161
Pd 17.9497 18.5005 3.44236
Au 19.532 16.2838 3.35068
Au 18.1195 16.6739 5.53792
Pd 16.6814 17.0835 7.76885
Au 18.1509 14.8262 8.0555
Pd 18.654 18.9593 7.2061
Au 16.7259 15.2223 10.4073
Pd 15.308 15.6704 12.777
Au 17.7024 15.9544 14.1797
Pd 17.2634 17.5686 11.9123
Au 15.3864 15.3877 15.6313
Pd 15.8009 17.6855 17.1215
Au 17.8494 15.7661 17.0027
Pd 18.0848 18.2806 15.6353
Au 15.5898 15.1703 18.5096
Pd 16.1447 16.936 21.9139
Au 17.1619 14.5935 20.8193
Pd 17.3929 17.0661 19.4564
Au 17.7582 16.401 24.1874
Pd 18.4561 18.3432 27.1113
Au 19.3893 15.8875 26.3666
Pd 20.6272 15.8985 23.9501
Pd 15.6689 21.3312 4.69641
Au 18.4396 20.7105 4.98341
Au 16.4856 18.894 5.56333
Pd 14.9894 19.2265 7.78029
Au 17.1313 19.334 9.48083
Pd 16.886 21.0734 7.18679
Au 15.2089 17.4505 10.0237
Pd 15.5515 19.6615 11.7064
Au 15.9383 20.3209 15.7748
Pd 17.4453 21.6251 11.1452
Au 15.6419 17.9722 14.2296
Pd 13.626 22.1738 15.2882
Au 16.2733 19.4703 20.387
Pd 16.4528 24.5747 13.2698
Au 14.6688 19.9793 18.2404
Pd 14.8951 21.9787 20.2484
Au 17.8961 18.9356 22.5276
Pd 14.2961 22.8745 17.7057
Au 16.7441 18.8628 25.11
Pd 17.3104 20.8646 26.8852
Au 21.1907 17.8877 26.5738
Pd 16.1758 23.2856 26.5847
Pd 14.802 23.997 8.14572
Au 16.417 23.4639 6.09619
Au 14.1275 21.6773 6.88157
Pd 13.2178 24.6157 10.1675
Au 15.3082 21.4517 9.39146
Pd 17.3838 26.7387 12.0587
Au 13.5949 21.6894 11.6405
Pd 11.7295 25.7972 12.0418
Au 15.5604 23.6005 10.9645
Pd 14.698 26.2163 11.8349
Au 13.7509 24.0029 12.998
Pd 13.1522 26.537 14.0865
Au 15.787 27.093 14.2299
Pd 14.2135 27.2723 16.4329
Au 14.6203 24.7613 15.4894
Pd 10.8554 25.394 18.7782
Au 14.9264 24.7401 19.9776
Pd 12.8437 26.4108 20.3097
Au 15.5831 23.8879 22.3647
Pd 15.8348 25.7806 24.1534
Au 18.9509 22.9476 26.2562
Pd 15.4354 26.667 21.6573
Pd 18.3036 4.67157 8.32314
Pd 18.2703 4.52287 11.0114
Pd 20.6543 5.10709 9.61695
Pd 18.3846 4.38444 13.7489
Pd 20.7042 4.93399 12.3221
Pd 18.5311 4.24704 16.5047
Pd 20.8162 4.78652 15.0613
Pd 18.6779 4.1401 19.2576
Pd 20.9537 4.66812 17.8153
Pd 18.8064 4.15782 21.95
Pd 21.0687 4.6375 20.5556
Pd 18.0613 8.49 7.50197
Au 17.7996 6.16574 6.13488
Au 18.692 6.94078 9.70625
Pd 19.0318 9.31002 11.1662
Au 21.0657 7.38192 11.0053
Pd 20.4481 8.93286 8.78258
Au 18.7082 6.80741 12.4605
Pd 19.103 9.15984 13.9425
Au 21.1372 7.2209 13.7766
Pd 21.428 9.7306 12.4895
Au 18.8208 6.66134 15.2274
Pd 19.2249 9.01229 16.7129
Au 21.2555 7.07974 16.5385
Pd 21.5505 9.56423 15.2583
Au 18.955 6.53308 18.0086
Pd 19.3538 8.90967 19.5071
Au 21.3815 6.99552 19.3244
Pd 21.6611 9.46016 18.0291
Au 19.0855 6.47979 20.801
Pd 18.6965 7.74708 23.2542
Au 20.656 5.91221 22.9252
Pd 20.9169 8.34998 21.7263
Pd 19.0958 12.0314 4.36301
Au 19.7317 10.4968 6.57791
Au 18.3683 10.9036 8.92494
Pd 18.7454 13.2683 10.3566
Au 20.8176 11.302 10.2488
Pd 20.17 12.849 8.01471
Au 19.3838 11.6712 12.6071
Pd 19.7593 13.9716 14.0755
Au 21.8406 12.0305 13.9357
Pd 21.2424 13.5886 11.7112
Au 19.5087 11.4969 15.4052
Pd 19.9004 13.8281 16.8771
Au 21.9666 11.9028 16.7426
Pd 22.2384 14.3088 15.4147
Au 19.6343 11.377 18.1957
Pd 19.1686 12.6975 20.6399
Au 21.1879 10.8212 20.4334
Pd 21.5106 13.2481 19.1224
Au 18.9013 10.2074 22.0207
Pd 18.4895 11.5554 24.4278
Au 20.4788 9.6271 24.2026
Pd 20.7142 12.0981 22.8855
Pd 20.1237 18.5137 4.99822
Au 20.9113 13.9859 3.55716
Au 19.6171 14.4211 5.77784
Pd 18.7656 17.1569 9.57031
Au 20.654 15.1364 9.50311
Pd 20.2607 16.7535 7.25578
Au 19.1835 15.5631 11.841
Pd 19.6217 17.9043 13.3702
Au 21.6558 15.8753 13.2236
Pd 21.1255 17.4519 11.0497
Au 20.1754 16.2766 15.5286
Pd 17.7401 19.4253 18.0513
Au 19.7867 17.576 17.8785
Pd 20.7958 19.0401 15.7197
Au 19.45 15.1496 19.2794
Pd 19.0181 16.4513 21.7366
Au 21.0374 14.5209 21.5472
Pd 21.449 16.8403 20.1214
Au 18.7342 14.0052 23.1067
Pd 22.1293 15.3243 26.0455
Au 20.2915 13.4472 25.3268
Pd 21.2526 18.0853 22.5074
Pd 18.9653 22.7635 6.65498
Au 20.6906 20.7146 6.60978
Au 20.8273 19.074 8.83977
Pd 18.4598 22.6895 13.4741
Au 19.2426 19.5099 11.1913
Pd 20.0975 22.2378 11.2083
Au 17.6405 19.9548 13.4893
Pd 16.7421 22.9317 15.7135
Au 22.3108 18.6144 13.3945
Pd 20.3335 20.6422 13.5232
Au 18.7467 21.0237 15.8851
Pd 18.9433 22.8222 18.0947
Au 20.3549 20.4213 18.1392
Pd 23.4939 19.7322 15.7476
Au 19.487 18.7124 20.301
Pd 16.6186 21.7885 18.1631
Au 20.217 20.5144 22.4397
Pd 18.4757 21.1136 20.2307
Au 19.5704 18.4407 24.6092
Pd 20.0374 20.4494 26.3915
Au 21.9791 19.8735 24.5703
Pd 18.3734 21.034 24.383
Pd 17.3028 23.3235 8.75057
Au 22.8143 22.9032 11.2079
Au 19.075 21.2114 8.87344
Pd 20.4654 26.3151 15.3907
Au 19.9355 23.8243 8.94351
Pd 18.2376 24.2967 11.0818
Au 16.3357 25.7441 9.73109
Pd 19.3212 25.3321 13.2576
Au 17.6863 25.434 15.3944
Pd 19.4467 28.0238 17.0624
Au 18.3981 27.7682 14.4603
Pd 16.8548 27.4408 16.8073
Au 21.4708 23.5231 18.0599
Pd 20.0209 27.1795 19.5895
Au 16.3465 24.8249 17.7094
Pd 15.1826 27.2168 18.9466
Au 17.2846 23.4867 20.2473
Pd 19.0387 25.5154 17.7139
Au 17.342 23.5787 24.2979
Pd 17.8982 25.4608 22.3427
Au 20.8812 22.3204 24.4303
Pd 17.4662 26.133 19.8497
Pd 20.0993 6.59204 7.3854
Pd 23.0336 5.56908 10.9179
Pd 21.7794 8.55938 6.45119
Pd 23.1141 5.36801 13.637
Pd 25.3426 6.05906 12.2599
Pd 23.234 5.22351 16.3628
Pd 25.9202 11.7985 17.4636
Pd 23.346 5.18312 19.0954
Pd 25.478 5.8648 14.9526
Pd 22.9224 6.4401 21.5224
Pd 25.1483 7.01824 20.035
Pd 19.4171 8.149 5.21918
Au 21.0789 10.1275 4.34211
Au 22.4741 6.98642 8.63676
Pd 22.824 9.34467 10.1166
Au 24.7825 7.47766 9.9859
Pd 24.1088 8.99011 7.76423
Au 23.4641 7.85334 12.3467
Pd 23.9005 10.1157 13.8044
Au 25.3406 9.71254 11.4298
Pd 24.6542 11.1719 9.23165
Au 23.5915 7.67443 15.0946
Pd 26.284 10.4739 15.1308
Au 25.5541 5.75577 17.6423
Pd 25.7572 11.9962 12.9481
Au 23.6828 7.57872 17.8484
Pd 24.0062 9.99605 16.5961
Au 25.9204 8.23522 13.6729
Pd 23.9059 13.7171 17.6159
Au 23.2438 8.89411 20.2684
Pd 22.441 7.79851 23.8426
Au 24.7163 8.30469 22.4463
Pd 25.9685 8.11034 16.4411
Pd 21.5406 12.4148 5.67001
Au 23.4423 10.5045 5.56964
Au 22.2022 10.9031 7.88999
Pd 22.7503 13.1738 9.36401
Au 24.1129 12.7318 6.96248
Pd 23.3216 14.2263 4.87545
Au 23.3231 11.6371 11.5873
Pd 23.7267 13.9217 13.0974
Au 26.2588 13.0646 8.44643
Pd 25.1764 13.505 10.7986
Au 24.3248 12.3839 15.2711
Pd 21.8395 15.6271 17.7582
Au 26.9038 13.1684 15.2463
Pd 24.8905 15.0772 15.4101
Au 23.5914 11.3321 18.9782
Pd 23.0986 12.6612 21.3717
Au 25.5921 9.42711 18.8439
Pd 25.5043 13.0719 19.8013
Au 22.7196 10.2392 22.6424
Pd 22.2714 11.5055 25.0239
Au 24.1989 9.64997 24.6801
Pd 25.0612 10.7367 21.2608
Pd 22.3084 18.539 6.59194
Au 21.6783 16.3028 4.94585
Au 22.1094 14.6962 7.18711
Pd 22.6227 16.9917 8.74361
Au 24.6452 15.0691 8.56162
Pd 23.9822 16.4629 6.41974
Au 23.172 15.438 10.9048
Pd 26.3411 14.7 13.0923
Au 27.4332 15.8612 15.3943
Pd 25.8033 16.1851 10.8915
Au 22.8742 17.0259 15.5723
Pd 24.4825 16.4335 17.7884
Au 26.541 14.5156 17.6039
Pd 25.5305 17.7754 15.5808
Au 23.5071 14.9649 19.9572
Pd 23.0914 16.144 22.3128
Au 25.1689 14.2984 22.1551
Pd 26.0821 15.792 19.9571
Au 22.5879 13.8928 23.8118
Pd 22.9216 17.4243 24.6246
Au 24.5856 12.0755 23.6316
Pd 24.5911 15.4224 24.4689
Pd 21.723 21.8091 8.93324
Au 23.5086 19.7531 8.81316
Au 21.9354 20.2215 11.156
Pd 23.0356 21.2566 13.5001
Au 25.2343 17.7227 8.71733
Pd 24.5626 20.8439 11.1976
Au 23.7992 18.164 11.031
Pd 24.9956 19.2742 13.3961
Au 26.9031 17.3448 13.2021
Pd 26.3171 18.8186 11.0448
Au 26.086 20.4454 15.7744
Pd 22.9742 21.1835 18.1517
Au 27.0383 17.216 17.7896
Pd 24.3375 16.6127 13.2189
Au 22.4464 18.4147 17.9572
Pd 20.9779 22.1266 20.3011
Au 25.6295 16.973 22.3497
Pd 24.0267 17.6917 20.1722
Au 22.1173 19.671 20.3972
Pd 22.7743 21.4375 22.3938
Au 23.8782 18.9699 22.5881
Pd 26.5134 18.447 20.1724
Pd 20.9307 24.815 11.177
Au 22.0764 25.7862 13.3411
Au 21.2152 23.2727 13.4592
Pd 21.663 26.1703 17.7077
Au 23.9224 23.8482 13.4772
Pd 24.1918 22.3716 15.8122
Au 19.7262 23.7068 15.6895
Pd 23.9616 24.118 17.8924
Au 25.65 21.8317 13.5335
Pd 22.4268 24.4316 15.6794
Au 25.1139 19.186 17.9853
Pd 25.4754 21.851 18.1389
Au 24.6996 20.4712 20.3913
Pd 21.5421 21.7173 15.8565
Au 19.7714 24.552 20.1606
Pd 17.7304 28.4885 19.0085
Au 21.7012 23.8988 22.2935
Pd 23.5236 22.8866 20.1804
Au 20.4707 26.241 22.0422
Pd 19.1066 22.9604 22.3023
Au 19.7936 24.7561 24.2096
Pd 22.2983 25.273 20.0663
