665
Atoms. Timestep: 20510
Pd 19.2397 8.91728 8.34524
Pd 6.40654 14.8998 15.371
Pd 5.36711 16.3028 17.8808
Pd 7.27871 11.2491 11.1735
Pd 24.4505 12.0941 17.6043
Au 8.37134 11.9091 4.41031
Au 15.5041 12.3981 6.20229
Pd 14.9184 15.3135 5.42485
Au 17.2239 4.7915 8.8074
Pd 7.52644 9.74534 8.53265
Au 10.8327 10.8799 5.1757
Pd 10.5504 16.8504 16.8522
Au 4.88273 21.3489 19.6242
Pd 15.8188 20.981 26.0833
Au 6.83535 21.5651 21.9773
Pd 8.68374 15.3387 7.41285
Au 6.02905 16.3269 6.92245
Au 15.7074 9.17962 4.35515
Pd 12.0934 6.84569 7.82959
Au 11.394 4.18105 11.0186
Pd 12.5771 18.65 23.0928
Au 8.17597 17.4936 5.67974
Pd 5.51137 16.5751 11.2587
Au 8.72299 18.665 18.0028
Pd 6.60663 14.0357 22.7363
Au 17.1399 21.9393 20.3654
Pd 17.1538 15.9528 23.9975
Au 14.6496 14.4881 2.94021
Au 5.57699 11.5031 9.05309
Pd 20.3296 5.48309 11.6002
Au 6.97792 5.88624 19.088
Pd 9.61396 6.97371 19.0255
Au 13.1624 23.8794 23.7105
Pd 4.59621 18.2113 13.2521
Au 5.39308 7.39785 17.3616
Pd 19.636 14.9904 24.169
Au 16.5651 9.37094 26.1438
Pd 18.2458 14.0245 22.0203
Au 3.07516 17.471 10.881
Au 5.70394 13.6754 11.1725
Pd 12.0675 12.4887 12.2448
Au 4.69098 11.041 11.6105
Pd 4.96083 19.7774 15.4616
Au 2.8703 14.8082 11.5665
Pd 9.63205 16.5397 19.4049
Au 5.32848 10.3874 18.7642
Pd 10.8877 22.5665 23.9634
Au 4.1337 9.65334 16.4816
Pd 4.08843 14.3519 16.3046
Au 5.08591 18.0181 8.87708
Au 10.7809 17.832 4.6992
Pd 9.63292 16.2072 9.79924
Au 13.7404 14.1909 7.58118
Pd 4.88531 12.796 13.8419
Au 8.21069 22.9876 16.344
Pd 5.58879 23.7053 12.8176
Au 13.3119 21.9387 25.5952
Pd 13.4554 21.1274 23.1119
Au 15.3895 19.9287 20.999
Pd 15.9647 17.9231 22.6196
Pd 9.28029 10.6665 12.9798
Pd 15.8649 6.29026 10.4945
Pd 15.9409 12.7015 9.77552
Pd 18.35 5.00354 18.1669
Pd 11.7543 11.2324 9.87174
Pd 9.74528 9.91436 25.0654
Pd 9.74687 11.0908 8.05272
Pd 10.8402 20.486 22.355
Pd 8.30055 13.3365 16.2641
Pd 11.2539 8.26898 20.9392
Pd 7.21191 10.1065 20.9997
Pd 25.3875 12.7929 12.3281
Au 17.5353 11.226 4.79207
Au 7.12028 11.7463 6.75581
Pd 11.732 9.11735 18.4508
Au 18.5707 3.62344 11.0286
Pd 12.8296 18.6813 8.48438
Au 12.2898 6.46496 19.1751
Pd 7.87692 6.68326 16.5582
Au 4.63292 15.3609 13.4172
Pd 16.0765 3.84902 11.9473
Au 9.30577 22.5132 21.3195
Pd 11.4319 18.8776 18.3042
Au 8.97083 4.95522 20.5874
Pd 2.29053 14.2547 14.3242
Au 6.48526 10.5844 13.9658
Pd 6.34732 13.8002 18.1864
Au 2.91511 15.4539 18.5617
Pd 10.9675 18.2095 20.9319
Au 4.91808 14.8815 20.295
Pd 11.1395 16.4159 22.8927
Au 16.8738 12.6709 20.1005
Pd 10.4157 12.8256 25.2798
Pd 15.8748 22.308 7.4733
Au 7.58612 20.2686 9.47969
Au 3.49922 12.8657 9.92082
Pd 2.62136 12.2947 12.5966
Au 20.0382 5.59525 14.1929
Pd 17.3755 16.4226 9.03982
Au 1.86584 16.2078 16.1656
Pd 5.653 13.7956 7.77745
Au 7.28671 8.43443 18.9449
Pd 16.9989 11.5655 11.8749
Au 18.3597 20.4489 25.3157
Pd 14.0911 20.6379 12.0745
Au 8.68241 4.38396 15.2314
Pd 22.5898 16.2904 16.3871
Au 2.96658 11.9155 15.5926
Pd 5.83446 19.3304 20.9911
Au 19.8453 13.3383 18.0926
Pd 9.49481 8.81609 17.0525
Au 11.277 5.71172 21.628
Pd 9.45347 13.7195 18.6579
Au 14.0737 4.04262 19.5922
Pd 12.8388 20.1538 20.4263
Pd 20.0016 20.1422 6.05466
Au 18.6173 22.3842 7.1185
Au 13.519 10.5044 5.41029
Pd 14.1629 11.2571 8.42648
Au 14.7105 3.93448 9.74869
Pd 10.0046 18.9441 9.41756
Au 7.33992 6.2126 13.7515
Pd 9.43655 9.86045 10.4002
Au 10.3456 20.7886 19.6778
Pd 16.7622 16.4241 3.64703
Au 12.1647 22.7199 21.2473
Pd 7.03779 19.4706 13.4935
Au 7.06298 18.8413 23.3123
Pd 4.26626 17.4702 20.0182
Au 11.2123 24.8832 19.883
Pd 18.524 12.5399 24.1804
Au 1.63492 13.6865 17.0167
Pd 16.0773 20.4847 23.4915
Au 16.7958 19.9468 18.4661
Pd 13.4732 11.0993 18.7198
Au 19.0358 28.2162 14.8538
Pd 15.3192 13.7049 27.2753
Pd 10.3578 6.30083 9.899
Au 15.6612 18.1726 5.48335
Au 7.97532 7.50189 10.0948
Pd 6.93585 15.4755 9.40135
Au 9.71636 19.4664 12.2141
Pd 20.8894 8.56531 6.25441
Au 11.9091 9.81835 12.4591
Pd 9.09201 18.392 14.8197
Au 5.92187 12.4299 20.498
Pd 11.7154 17.6091 10.9633
Au 13.1957 6.00316 10.1515
Pd 18.7442 24.0435 20.2185
Au 7.83561 11.4604 18.3584
Pd 9.77113 16.8071 12.6281
Au 5.9502 16.6572 22.0601
Pd 20.5796 19.6064 22.1849
Au 22.2589 21.8321 21.9797
Pd 16.2296 24.7971 20.4218
Au 16.4401 18.4743 25.3163
Pd 12.2808 13.7779 18.81
Au 9.8903 15.6632 25.3354
Pd 17.4159 12.5903 17.3341
Pd 7.77383 24.2961 11.2362
Au 7.59103 21.902 7.2792
Au 8.8011 24.0327 8.65543
Pd 5.8469 22.2601 17.3256
Au 12.7661 26.0952 9.54903
Pd 13.3255 19.2834 4.48048
Au 11.18 4.09439 19.1462
Pd 9.26288 21.2389 14.324
Au 5.64831 19.2156 18.1263
Pd 10.6527 13.8295 8.90469
Au 7.19239 24.9244 17.9227
Pd 9.65143 22.1584 11.6627
Au 13.6708 16.0546 12.2464
Pd 17.354 17.3502 15.0643
Au 21.6195 23.9515 20.2833
Pd 10.2161 26.06 13.5455
Au 7.84893 13.8917 25.2085
Pd 14.896 22.8337 21.6907
Au 18.6529 17.018 25.9085
Pd 22.6806 17.9416 21.6153
Au 17.8492 25.6673 18.0508
Pd 15.1845 27.1237 21.0134
Pd 13.244 13.4621 10.0694
Pd 21.2831 6.87452 8.22243
Pd 15.1519 11.8365 3.62301
Pd 17.4537 14.421 11.2735
Pd 13.841 8.7232 20.026
Pd 13.6691 12.6076 23.2988
Pd 13.1297 4.72991 17.1514
Pd 12.105 9.62389 7.63477
Pd 12.7091 10.6017 21.648
Pd 14.7673 6.87469 18.3703
Pd 8.68714 9.66603 6.02898
Pd 24.274 8.40426 13.9074
Au 24.3809 5.84791 14.3772
Au 16.3123 14.3513 7.80899
Pd 17.7131 5.77312 12.6513
Au 21.3543 3.23783 10.6415
Pd 23.9317 17.8842 12.349
Au 15.4829 3.87095 14.6863
Pd 19.4897 12.5761 11.3146
Au 11.0783 8.26044 5.69053
Pd 16.2784 9.91458 9.75879
Au 12.0114 12.2698 7.15581
Pd 8.31891 8.52456 14.5766
Au 8.01538 15.8102 17.5287
Pd 6.82834 9.52132 16.5887
Au 13.394 15.4581 26.5703
Pd 16.3778 17.4633 19.8838
Au 13.9288 10.1 26.3685
Pd 13.7852 11.5072 14.0035
Au 8.54599 7.64498 21.3831
Pd 18.4001 18.5332 23.4894
Au 9.16768 5.3167 12.0703
Pd 10.688 14.6216 20.8341
Pd 21.1464 14.0184 9.57719
Au 21.7733 14.9123 5.17993
Au 16.7771 17.1026 11.5732
Pd 2.40169 18.7263 15.2433
Au 17.006 13.8331 4.09695
Pd 22.2064 7.43403 15.6705
Au 13.6221 8.36016 14.1809
Pd 10.9428 8.93596 14.7726
Au 9.74851 8.24239 8.08513
Pd 12.702 7.48996 16.5951
Au 18.8748 9.87219 10.7953
Pd 12.4112 16.0153 8.98263
Au 3.83623 10.0541 13.8771
Pd 10.031 10.1948 22.2819
Au 6.13249 11.4293 22.9794
Pd 16.0171 11.9048 25.4719
Au 18.1458 8.77591 5.83357
Pd 7.50248 20.2752 16.3018
Au 8.64094 12.4177 21.0645
Pd 4.34531 16.9515 15.5323
Au 10.0772 6.44512 14.3782
Pd 16.3135 23.5271 18.1099
Pd 25.0274 19.9126 8.65334
Au 14.2117 17.0946 3.42661
Au 10.2357 22.2875 6.65888
Pd 9.49867 13.0906 6.42079
Au 16.1785 18.8875 8.58236
Pd 20.504 19.1707 13.8864
Au 9.09087 19.7673 6.91838
Pd 9.44032 15.4133 4.73712
Au 7.80795 17.9288 11.0732
Pd 21.0507 17.7435 8.69825
Au 7.61177 13.0026 13.543
Pd 5.64005 9.04573 10.1582
Au 11.3232 19.4865 15.347
Pd 7.95641 12.9953 9.03478
Au 17.8482 26.2093 21.8375
Pd 17.3482 27.6496 19.6079
Au 3.44706 20.8691 17.2479
Pd 13.9559 19.3002 25.2094
Au 11.8824 17.4389 25.4244
Pd 20.4895 17.0204 22.8814
Au 12.2081 14.5947 24.4221
Pd 13.104 17.9454 16.403
Pd 11.7178 21.0408 13.1064
Au 14.4156 20.1271 6.81524
Au 11.9901 20.2465 10.5258
Pd 14.6419 20.9761 9.50279
Au 7.16157 14.1871 5.53403
Pd 12.6833 18.505 13.2134
Au 6.40696 19.3182 6.78364
Pd 14.3727 18.1832 10.6233
Au 9.62362 12.6474 11.1098
Pd 11.3646 14.9369 11.3981
Au 15.2104 8.79878 16.5922
Pd 17.4295 23.6118 22.603
Au 10.6541 24.745 22.5015
Pd 14.2997 18.5295 18.6942
Au 15.4705 25.3289 23.0156
Pd 11.6282 16.4111 14.4717
Au 23.7664 22.2371 19.6795
Pd 18.0827 19.1649 13.1118
Au 15.9118 16.2169 26.4825
Pd 22.0643 19.9847 19.961
Au 17.6669 15.0633 19.1193
Pd 13.9012 24.1322 19.403
Pd 2.38166 19.4739 12.5909
Au 14.0748 27.6971 11.6749
Au 10.6701 13.2475 3.95381
Pd 7.01403 16.7751 13.463
Au 8.41754 26.0205 15.6578
Pd 12.9857 17.1988 6.08025
Au 2.24947 16.7961 13.4109
Pd 4.19543 15.4369 9.25108
Au 6.72024 23.3193 19.9772
Pd 10.5223 17.3581 7.34852
Au 7.06461 21.6297 11.8577
Pd 9.9339 21.6339 9.14403
Au 3.18084 18.1526 17.7054
Pd 14.8639 16.7847 7.83564
Au 7.14579 26.0142 13.2776
Pd 21.9981 24.4615 14.1584
Au 8.60252 25.0837 20.6735
Pd 6.53949 22.8515 9.48152
Au 22.3835 14.0765 24.6866
Pd 9.68616 18.3851 23.8866
Au 19.3376 27.8569 17.6404
Pd 6.20179 24.5269 15.3821
Pd 14.7621 5.8995 7.87293
Pd 20.6163 3.21396 13.1642
Pd 10.8852 3.91529 13.6646
Pd 15.2536 11.3541 16.2348
Pd 14.6596 10.168 23.8456
Pd 9.67374 7.99436 12.2129
Pd 16.5077 8.16571 19.9948
Pd 11.974 6.6507 12.3842
Pd 10.6211 5.95207 16.8648
Pd 8.54207 19.4934 21.1986
Pd 7.56941 16.3396 24.2051
Pd 24.4504 11.0784 10.5474
Au 16.2847 6.8932 5.86961
Au 13.167 13.2277 4.8593
Pd 16.9077 8.36577 11.8686
Au 19.4895 12.1091 15.7142
Pd 22.8205 8.96438 18.391
Au 13.0565 2.90038 15.0173
Pd 18.5653 13.659 9.02068
Au 15.8863 3.66849 21.7153
Pd 9.19944 14.4889 23.0088
Au 18.8197 10.3881 13.5826
Pd 8.54484 11.8917 23.6806
Au 16.7038 2.82346 19.1995
Pd 24.3768 20.1167 21.4125
Au 22.9864 4.35622 12.5294
Pd 10.819 14.1921 16.2897
Au 10.8796 3.34667 16.4322
Pd 13.0485 8.26773 22.8743
Au 13.277 4.03642 22.2253
Pd 18.4828 21.2292 22.7377
Au 8.76152 4.34258 17.938
Pd 5.59877 8.05882 14.7057
Pd 17.2403 20.2082 6.43293
Au 17.3537 2.68556 16.5043
Au 11.4575 24.0117 8.46544
Pd 22.7686 12.0314 8.80109
Au 16.9503 12.3491 14.4253
Pd 26.4509 16.1754 16.1261
Au 21.4923 10.6957 11.1444
Pd 17.5267 7.57032 17.5013
Au 15.8609 4.68654 17.4503
Pd 15.0455 6.34808 15.6465
Au 17.58 5.76572 22.4205
Pd 12.9273 14.1545 14.1847
Au 11.7866 8.48727 10.1166
Pd 15.3776 18.5043 13.3521
Au 20.7098 21.3519 24.2111
Pd 19.6286 19.7274 18.5468
Au 12.5521 5.98543 24.0195
Pd 23.6612 12.9606 22.3905
Au 17.3479 7.34022 24.6208
Pd 18.1967 16.6289 21.5425
Au 18.6566 4.01617 20.7363
Pd 24.5543 13.7724 19.7068
Pd 21.0394 7.97495 10.604
Au 18.8501 6.43181 7.13356
Au 25.6318 12.4034 8.54928
Pd 11.4339 14.9754 6.45681
Au 20.9914 17.5189 5.99609
Pd 11.1621 11.7304 14.7088
Au 19.9645 4.73452 8.98118
Pd 8.76431 10.9674 15.551
Au 12.2376 16.4697 19.1488
Pd 7.81275 9.2703 23.4297
Au 14.2142 8.34927 11.5237
Pd 18.3137 19.6506 16.0577
Au 8.91754 15.7286 14.9874
Pd 18.6606 18.2255 7.4938
Au 9.98044 21.0461 17.0731
Pd 24.1391 18.3092 19.3542
Au 10.312 7.72641 23.4689
Pd 15.0775 15.3948 10.1215
Au 11.3547 20.1667 25.0487
Pd 9.2904 23.2841 18.7135
Au 21.7708 26.592 18.082
Pd 24.6959 15.1883 23.5466
Pd 18.3405 13.4814 6.33556
Au 20.9684 18.0928 11.5165
Au 10.1319 26.4 9.04854
Pd 18.6015 18.5949 10.253
Au 20.0276 20.2228 8.67326
Pd 21.785 24.1824 9.15651
Au 6.9861 8.59322 12.2815
Pd 8.13475 14.9004 11.7163
Au 15.4331 25.334 16.0053
Pd 16.3228 21.5776 16.2553
Au 10.1562 13.9302 13.5644
Pd 15.5397 22.9278 24.3577
Au 20.2802 15.9251 17.9564
Pd 18.646 22.0638 17.8715
Au 8.68534 20.9614 23.8242
Pd 10.4432 24.314 16.0576
Au 17.6676 14.1999 26.094
Pd 12.819 25.212 12.0902
Au 24.6333 24.2581 15.1555
Pd 15.1654 14.2988 24.6257
Au 22.3562 15.2887 22.1985
Pd 22.4623 16.1208 19.5419
Pd 16.4565 19.9022 11.1873
Au 3.10171 19.9602 10.064
Au 11.0506 26.9926 15.9994
Pd 11.1189 23.5866 13.4109
Au 19.1441 16.6205 13.1147
Pd 6.5783 21.9387 14.5178
Au 15.3392 14.0578 15.6444
Pd 4.51982 20.9997 13.1301
Au 5.0955 20.8082 8.53127
Pd 24.4912 14.3365 16.2002
Au 3.84874 12.7047 18.398
Pd 5.49307 19.4795 11.0815
Au 4.19988 22.7869 15.2745
Pd 28.5249 15.8897 17.5679
Au 4.41612 22.1393 10.8228
Pd 8.66543 16.9019 21.8784
Au 20.2228 24.4671 18.084
Pd 13.8142 22.9297 13.6016
Au 13.7884 17.4721 21.1515
Pd 19.7894 26.4383 19.9577
Au 26.168 20.1147 16.3891
Pd 12.531 25.1934 17.4695
Pd 19.4454 7.92509 15.4984
Pd 19.8463 3.28073 15.8021
Pd 22.3432 15.5365 7.67096
Pd 16.2281 12.5261 22.7762
Pd 18.8379 6.9304 20.0032
Pd 20.7684 5.09331 19.4645
Pd 14.2099 8.3804 8.82359
Pd 18.9793 10.4408 18.3023
Pd 11.0985 12.6833 22.6353
Pd 14.9671 6.19647 13.003
Pd 7.66763 14.845 20.419
Pd 14.6363 2.46321 17.1869
Au 12.147 15.5832 3.9166
Au 13.4852 4.02426 12.5086
Pd 22.5656 5.63714 10.2455
Au 19.7848 10.9359 6.2309
Pd 17.6543 9.99269 16.0355
Au 18.018 3.29522 13.7877
Pd 21.838 16.7351 13.7699
Au 21.8395 3.52638 17.615
Pd 15.8046 8.02712 22.5238
Au 19.4742 9.09915 24.9148
Pd 23.1161 13.9592 13.9523
Au 10.6478 11.4902 17.4414
Pd 14.1232 6.32315 21.2304
Au 16.8073 7.65811 8.35019
Pd 9.47753 9.80439 19.6475
Au 20.3105 6.05655 22.034
Pd 11.1054 11.8425 20.0583
Au 18.567 11.2001 26.3716
Pd 20.81 14.5841 15.3957
Au 24.7801 7.4915 16.5845
Pd 17.8956 10.2284 20.8289
Pd 18.5933 6.8452 10.1249
Au 16.9997 7.73045 14.5089
Au 11.628 19.813 6.36293
Pd 19.7287 10.666 22.7116
Au 24.7197 7.49577 19.4034
Pd 13.8121 7.92041 6.08806
Au 15.7958 16.3501 17.2391
Pd 16.18 10.4008 18.5832
Au 28.2985 18.1487 16.0503
Pd 22.0048 10.9639 21.4369
Au 21.0818 11.3805 24.8815
Pd 25.4943 11.1913 22.1329
Au 15.3379 10.5113 21.2338
Pd 26.6107 13.9854 17.8436
Au 14.6356 15.4337 19.5171
Pd 20.8373 13.103 22.7227
Au 13.9244 20.4692 14.807
Pd 18.7072 8.17924 22.3741
Au 13.2202 12.654 26.0119
Pd 14.171 16.6712 24.0967
Au 5.72512 11.9918 16.3028
Pd 12.6926 5.57278 14.6766
Pd 11.8649 22.2 15.5432
Au 19.6825 15.6235 7.49786
Au 20.007 12.9614 4.41215
Pd 23.1289 18.8926 10.0147
Au 28.1567 13.9399 15.6382
Pd 22.8203 13.0323 11.3845
Au 14.2444 11.0133 11.2574
Pd 13.1942 15.3599 16.8624
Au 21.3938 28.3628 16.0929
Pd 17.5025 21.1243 9.19123
Au 27.1852 11.6231 16.7982
Pd 6.81998 17.7194 16.0205
Au 15.3062 27.948 14.4542
Pd 18.1677 14.992 16.2037
Au 15.0231 13.2569 18.1844
Pd 19.6198 12.1871 20.4446
Au 21.4657 9.37533 13.7883
Pd 23.2926 21.8769 15.51
Au 14.632 7.70408 25.1109
Pd 21.6666 11.3575 18.5424
Au 20.3948 9.2639 20.3124
Pd 24.9291 20.3295 13.6067
Pd 17.3028 24.8996 11.9872
Au 8.46996 23.8121 13.7568
Au 22.492 19.9369 7.45249
Pd 16.8062 27.699 16.6547
Au 18.8954 13.9288 13.623
Pd 19.573 16.0072 10.3955
Au 18.1713 17.563 17.8472
Pd 17.5364 26.103 14.4963
Au 16.5487 15.2922 13.5946
Pd 20.0392 17.3898 15.7635
Au 12.8752 26.9812 19.3858
Pd 16.724 27.5415 12.2619
Au 14.4745 16.5177 14.7512
Pd 26.2302 18.1959 14.2799
Au 22.1229 7.21799 20.4012
Pd 7.0521 17.3933 19.6952
Au 12.645 27.5159 13.8701
Pd 20.2956 17.7224 20.1433
Au 13.7008 27.4402 16.5241
Pd 22.3098 12.2501 15.8604
Au 19.2841 15.5875 4.6151
Pd 21.4235 8.5845 22.8157
Pd 17.1393 23.8525 9.41896
Au 2.36036 21.1832 14.6827
Au 23.5531 20.348 17.6175
Pd 19.911 21.6335 20.46
Au 8.74821 26.7653 11.3134
Pd 19.293 26.762 12.5064
Au 14.1814 23.6971 8.9595
Pd 7.8355 17.753 8.37274
Au 15.2396 25.6499 10.4689
Pd 24.7021 16.122 21.0717
Au 23.882 24.0296 10.7011
Pd 15.0401 25.6038 13.2768
Au 21.2892 23.2311 11.6791
Pd 19.5359 25.0082 10.5455
Au 24.9542 17.9503 23.0552
Pd 15.3272 23.0061 11.3739
Au 22.9075 24.0906 17.3576
Pd 15.2248 26.3192 18.4539
Au 9.6658 26.0208 18.1027
Pd 20.1133 23.4245 22.4772
Au 20.6508 18.7149 25.0178
Pd 16.4141 23.4996 14.1117
Pd 16.4413 5.53455 19.9829
Pd 26.9884 15.6985 19.831
Pd 17.7575 5.37038 15.568
Pd 22.1869 6.86049 12.96
Pd 20.9052 9.93727 16.3934
Pd 20.3779 7.88227 18.0774
Pd 21.1937 21.7285 13.8058
Pd 24.0513 11.0033 19.9027
Pd 23.8254 8.94749 21.5495
Pd 13.1118 14.9604 21.9024
Pd 25.5683 9.69861 17.9489
Pd 17.5959 11.3278 7.8769
Au 15.7457 9.67395 6.90069
Au 22.4841 10.9583 6.34423
Pd 14.124 23.0765 16.5457
Au 19.4324 7.87834 12.7497
Pd 24.0292 14.3586 9.3104
Au 23.8553 7.61073 9.10885
Pd 21.0575 14.761 12.2691
Au 23.7016 13.3844 6.71246
Pd 17.3188 16.2298 6.27857
Au 24.6595 6.59594 11.7223
Pd 20.4243 5.66318 16.7938
Au 23.7708 17.6762 7.69335
Pd 22.6245 20.1983 12.2888
Au 28.0674 20.2926 14.5395
Pd 15.609 18.9515 16.2338
Au 21.9814 9.47413 8.58259
Pd 22.0748 13.3442 20.2694
Au 15.181 5.52541 23.6136
Pd 21.4494 21.9905 18.3025
Au 23.2865 10.5909 23.6534
Pd 24.3428 16.4118 14.4358
Pd 15.8264 9.93975 13.7511
Au 25.9486 23.6908 12.4512
Au 24.562 10.0163 8.04613
Pd 20.1145 11.4545 8.89304
Au 28.0539 13.9945 12.4027
Pd 20.9747 13.2059 7.01657
Au 22.1289 21.4108 9.91441
Pd 26.7693 17.9345 18.2311
Au 23.4668 11.0518 13.2605
Pd 23.3919 8.86371 11.4464
Au 26.1947 13.7998 21.6959
Pd 7.6106 20.9608 19.0968
Au 22.3012 4.51025 15.1756
Pd 24.8013 15.969 18.2692
Au 12.0445 10.7252 24.3296
Pd 19.6205 22.656 9.58284
Au 26.5578 11.93 19.6075
Pd 12.8223 10.1069 16.2051
Au 22.8143 16.9965 24.3339
Pd 14.1093 12.8611 20.6874
Au 21.0999 16.0552 26.0806
Pd 12.9804 12.7016 16.4571
Pd 12.8613 25.0832 14.8898
Au 18.4711 18.2288 4.82912
Au 26.3112 9.55249 15.3038
Pd 22.9476 19.0349 14.9054
Au 27.1303 11.6702 10.751
Pd 26.1212 14.5271 14.0697
Au 25.8743 8.87537 10.2664
Pd 26.2233 9.3938 20.4441
Au 22.8571 6.08803 17.9399
Pd 21.0207 12.1916 13.4711
Au 28.218 18.5823 12.6024
Pd 15.7788 15.1507 21.8737
Au 26.3629 18.2391 20.8339
Pd 23.8863 22.3856 8.37915
Au 25.1895 12.0547 15.0082
Pd 21.8023 18.2865 17.8267
Au 19.4363 2.68549 18.4434
Pd 8.28283 23.6366 23.2944
Au 20.2275 13.4498 26.284
Pd 20.6586 23.0438 15.9569
Au 12.0191 8.32013 25.4496
Pd 18.139 19.3297 20.8471
Pd 21.8478 25.7793 11.5395
Au 21.2927 22.3023 7.33485
Au 19.4099 24.1712 13.4702
Pd 12.4802 21.5825 8.15145
Au 26.4556 14.3457 10.3351
Pd 19.9445 20.6372 11.5305
Au 24.0463 25.633 12.9748
Pd 25.9655 10.0754 12.6465
Au 27.5831 11.8645 13.9092
Pd 25.078 16.8635 9.86526
Au 18.1031 23.9283 16.0399
Pd 22.4303 14.0555 17.7974
Au 22.8615 19.7025 23.6793
Pd 23.65 22.6787 13.0198
Au 14.9232 13.472 12.3508
Pd 24.5899 18.0412 16.6468
Au 20.9327 20.337 16.2347
Pd 27.0709 21.2115 12.2849
Au 25.8435 20.4123 19.1255
Pd 18.6661 21.681 14.4791
Au 17.2859 10.1211 23.6597
Pd 28.3043 16.2347 14.1802
Pd 11.9303 22.6343 18.3671
Au 11.3253 27.3952 11.404
Au 20.1572 25.9061 15.723
Pd 21.5682 27.1525 13.7557
Au 26.2852 22.2927 14.7289
Pd 23.0668 26.3083 15.7515
Au 17.92 22.2949 11.7999
Pd 20.1224 15.0465 20.5546
Au 26.627 16.4861 12.1096
Pd 14.6888 21.6449 19.058
Au 24.7616 21.4469 10.8619
Pd 22.4666 16.2361 10.3954
Au 23.6127 9.92747 15.9891
Pd 24.3015 15.2197 11.9588
Au 25.9758 19.0605 11.1517
Pd 16.2358 20.9996 13.6337
Au 10.4362 24.6548 10.9676
Pd 13.1839 20.5464 17.2922
Au 17.63 26.6303 9.97357
Pd 12.5005 22.8063 10.9086
Au 25.2066 22.5383 17.3384
Pd 13.235 25.4183 21.5912
