665
Atoms. Timestep: 20654
Pd 16.728 15.9525 8.13883
Pd 10.7971 11.4355 21.8403
Pd 7.04249 12.3521 19.2114
Pd 6.85595 6.66437 13.2254
Pd 15.9222 14.5263 18.9239
Au 9.42801 12.4925 6.60083
Au 14.5124 7.6951 5.40153
Pd 12.6793 9.46673 9.01169
Au 12.6261 2.42136 13.2555
Pd 7.88491 5.47371 17.8506
Au 16.9501 3.48536 10.2628
Pd 9.32287 18.0613 12.1833
Au 5.74391 20.3335 9.0367
Pd 8.73277 21.3518 18.7364
Au 10.1357 26.6879 22.3786
Pd 13.3853 12.0559 8.72809
Au 6.3314 8.33646 11.1427
Au 12.0562 8.80094 5.33394
Pd 13.0561 9.07253 11.8152
Au 12.423 3.06578 10.5969
Pd 9.37486 25.9137 19.8481
Au 10.4655 26.0202 11.3765
Pd 7.28923 16.3286 8.03991
Au 14.049 18.325 21.4133
Pd 10.6711 13.9735 20.8019
Au 14.2892 25.5097 22.7043
Pd 14.0088 13.5866 25.2364
Au 14.2339 19.5733 4.73544
Au 8.04613 18.9442 8.52249
Pd 11.7438 11.1239 6.59289
Au 15.3817 6.78438 25.0594
Pd 13.7324 4.75754 21.9179
Au 15.504 21.0797 22.9157
Pd 12.1306 18.2725 9.75545
Au 16.1317 17.3414 25.8056
Pd 18.676 21.0854 20.1107
Au 14.2056 2.55644 23.0694
Pd 14.8065 15.5077 21.6269
Au 4.82743 18.9181 11.4079
Au 11.1682 19.4826 5.01997
Pd 10.3338 9.28284 10.6197
Au 5.71083 9.2328 16.4175
Pd 6.26969 14.4228 17.4462
Au 10.3571 4.69725 10.7166
Pd 12.0538 19.7998 16.7341
Au 4.81517 19.091 20.1831
Pd 12.2829 21.2903 11.2239
Au 9.52051 14.6811 26.054
Pd 10.5073 16.8233 16.4183
Au 9.68434 17.1852 6.89516
Au 7.16274 13.6177 7.56873
Pd 9.20387 14.8538 5.4313
Au 11.3947 13.805 12.7779
Pd 5.87759 9.047 13.8354
Au 3.32219 20.4135 13.3579
Pd 8.94795 24.2386 12.7152
Au 4.35617 20.2583 17.8884
Pd 12.7367 20.4704 22.7966
Au 7.75011 23.6563 19.8684
Pd 19.0541 19.9823 15.9198
Pd 7.45616 7.36698 15.7698
Pd 8.18894 8.41282 9.05001
Pd 15.7863 10.4996 8.65278
Pd 16.9171 6.16138 9.42982
Pd 9.45102 6.9098 13.9011
Pd 10.3774 15.9347 22.7933
Pd 13.0011 10.9777 4.23646
Pd 11.3326 20.9339 19.3864
Pd 4.23514 15.0459 13.9223
Pd 9.38393 7.69724 17.6137
Pd 8.8459 14.3761 18.8
Pd 25.5595 12.8318 7.16857
Au 11.4484 13.1473 4.73239
Au 11.5464 23.7977 6.95669
Pd 21.6176 11.1166 12.0812
Au 17.8555 1.53789 14.9443
Pd 17.2191 18.7421 4.45419
Au 7.6681 7.17783 22.708
Pd 8.16911 12.2563 21.8526
Au 5.5611 11.4728 21.2922
Pd 16.5144 11.6412 6.13583
Au 9.63883 24.1278 21.9701
Pd 10.829 10.6273 17.2042
Au 9.38784 10.9273 24.0521
Pd 8.50014 15.0673 16.086
Au 6.8662 5.67058 20.4311
Pd 7.17047 9.91015 22.9763
Au 9.54572 21.5089 21.5412
Pd 5.97631 8.2912 21.0471
Au 4.68309 11.6277 14.3097
Pd 14.4941 16.0545 24.1343
Au 20.0913 14.459 21.841
Pd 18.1272 6.22545 24.3243
Pd 10.7029 19.453 7.72696
Au 14.5011 23.1083 5.36844
Au 10.2994 9.08953 7.51536
Pd 6.4333 19.1813 22.2584
Au 15.4866 10.0612 4.17596
Pd 9.8308 21.6489 6.44763
Au 6.9182 19.3168 18.3152
Pd 14.0612 7.1178 20.8774
Au 6.90117 17.2671 20.4257
Pd 19.7869 9.14084 12.426
Au 10.8606 22.2763 23.8567
Pd 11.3174 13.8503 10.043
Au 5.38787 10.0875 18.9611
Pd 18.0246 14.9977 17.4003
Au 8.17508 18.1621 15.7706
Pd 4.77725 21.5855 11.1582
Au 19.0048 11.8863 11.8979
Pd 12.1496 18.3668 19.2186
Au 16.0826 9.3506 26.1003
Pd 9.54114 16.1412 13.8633
Au 7.65022 12.8525 24.6303
Pd 11.9371 15.2656 24.8816
Pd 22.5186 16.061 7.54554
Au 14.1547 23.5349 12.2666
Au 7.17822 17.2006 10.7498
Pd 19.2151 9.33792 6.70596
Au 12.1228 4.88263 8.69547
Pd 14.2361 15.6655 6.72115
Au 8.7744 3.64756 19.6362
Pd 9.62853 17.0931 9.63389
Au 10.3666 23.535 19.3221
Pd 9.66705 11.5314 12.2008
Au 13.3272 18.8487 14.4438
Pd 8.50824 21.4827 9.2604
Au 6.03229 13.7726 22.7065
Pd 7.95939 15.5083 24.1298
Au 10.8487 28.1076 20.283
Pd 20.0947 15.5842 24.2422
Au 2.86633 19.1959 15.8237
Pd 16.0053 13.313 23.5779
Au 12.6621 20.7891 25.4544
Pd 15.519 11.4104 15.4295
Au 11.9552 28.9523 17.9477
Pd 13.4894 11.2866 26.8614
Pd 6.00879 12.1491 9.5974
Au 26.9703 14.2557 8.96722
Au 8.36712 9.06908 12.7584
Pd 4.40138 21.5609 15.5977
Au 8.82974 23.7206 7.88235
Pd 19.1972 18.7881 10.863
Au 15.8075 18.2642 6.69435
Pd 11.4334 16.1943 11.4282
Au 12.3123 11.4002 19.5518
Pd 7.2168 22.582 11.5478
Au 5.47563 10.7899 11.8855
Pd 13.0683 23.5821 19.1011
Au 11.1333 9.89763 26.334
Pd 6.86627 15.3611 12.8449
Au 11.9291 13.5696 27.0309
Pd 22.4826 24.7441 15.81
Au 21.8334 23.8849 21.5114
Pd 14.7444 25.7226 19.7915
Au 11.2975 16.1655 27.3316
Pd 16.3674 8.41912 21.026
Au 16.9523 8.49548 23.6888
Pd 12.7848 13.9742 22.6607
Pd 12.598 21.3229 6.23815
Au 16.8231 26.843 8.56939
Au 18.2559 18.2639 8.22798
Pd 5.44581 18.793 15.8091
Au 13.9379 22.9782 7.98758
Pd 13.2039 25.624 8.21312
Au 8.21872 14.9538 21.5427
Pd 9.62101 20.7212 16.1656
Au 10.759 11.6239 14.6938
Pd 11.8375 16.1794 8.37569
Au 7.56543 25.5059 17.8207
Pd 6.19983 11.8201 16.7043
Au 15.9991 12.6254 13.0002
Pd 9.81289 17.3312 4.25054
Au 12.6472 27.5483 22.4057
Pd 15.0584 24.0855 17.4453
Au 11.9686 11.9749 24.622
Pd 20.5022 19.2775 21.4672
Au 19.6353 23.5227 20.1331
Pd 16.0991 21.9272 19.152
Au 20.0979 20.2178 24.4145
Pd 16.8845 19.7723 25.0465
Pd 12.5625 5.42385 16.7984
Pd 21.849 7.66474 10.841
Pd 8.62459 6.86425 11.1736
Pd 20.5436 15.6868 16.839
Pd 20.6483 4.11455 18.4024
Pd 13.1589 13.959 19.8197
Pd 15.3256 5.39411 17.374
Pd 10.5382 11.3863 8.90437
Pd 4.16034 16.5679 20.6382
Pd 13.1826 5.12308 12.058
Pd 8.64142 12.8898 9.75141
Pd 19.968 9.89377 9.93426
Au 19.3144 11.8734 5.74916
Au 13.5984 14.8224 4.0534
Pd 17.7143 8.61488 8.79432
Au 21.0763 4.80883 11.3383
Pd 24.2985 14.6714 8.96646
Au 14.0402 4.35034 14.594
Pd 23.157 10.7615 14.8108
Au 12.5062 7.22728 7.33438
Pd 20.9315 13.6849 7.18674
Au 8.38212 4.57676 12.5913
Pd 8.92407 7.16693 20.2263
Au 2.98219 17.9481 18.3681
Pd 7.83571 9.93666 20.3785
Au 18.5954 13.3939 24.7907
Pd 12.9319 6.78933 23.5418
Au 18.9936 13.2694 19.5775
Pd 20.1311 14.5443 14.4327
Au 13.8677 4.60998 24.7172
Pd 11.7524 24.8856 23.5094
Au 11.573 3.20294 15.659
Pd 4.03655 13.6319 16.2059
Pd 20.8965 12.3318 9.6855
Au 16.516 6.26732 6.74724
Au 14.5212 27.4847 9.609
Pd 9.57184 11.8478 19.4301
Au 15.2254 16.9251 4.40588
Pd 19.3069 7.19626 10.4122
Au 15.7596 13.3308 8.12462
Pd 12.2856 6.58738 14.2882
Au 7.66438 4.80491 15.1492
Pd 17.4689 9.9084 11.0968
Au 18.3758 11.416 8.35372
Pd 10.1343 19.8104 10.3765
Au 3.71382 10.9666 16.7603
Pd 11.4401 6.37105 21.1538
Au 9.7264 12.124 26.3676
Pd 9.63621 8.93607 22.13
Au 19.0623 16.8743 3.59115
Pd 11.4001 15.7422 18.5769
Au 5.93219 16.4706 22.7036
Pd 4.81808 13.4399 11.9511
Au 11.4039 7.27905 25.7511
Pd 9.78521 18.856 18.0942
Pd 23.5571 17.0171 9.90803
Au 19.8235 11.7756 3.11007
Au 10.5987 25.4814 8.81162
Pd 12.6089 17.4786 3.92883
Au 19.3285 26.9623 9.73927
Pd 17.8004 25.139 10.7071
Au 4.68819 16.2037 11.4788
Pd 7.8418 10.4822 10.5881
Au 7.46424 11.171 14.2971
Pd 17.4099 12.4794 3.76555
Au 11.1721 14.3505 15.5127
Pd 12.9855 12.1272 16.1018
Au 6.0994 18.7567 6.77832
Pd 10.0712 5.57185 15.9911
Au 15.524 27.6421 21.5402
Pd 12.4252 18.1413 25.9849
Au 6.15069 16.2447 15.4037
Pd 18.0248 22.0206 24.2706
Au 16.168 12.088 26.4497
Pd 12.0289 22.7622 21.4806
Au 9.70793 16.8663 20.2455
Pd 12.773 24.8464 16.3408
Pd 11.9233 18.7966 12.2766
Au 16.8076 22.8487 8.75814
Au 11.0498 15.2631 3.22689
Pd 13.8057 14.7498 9.23036
Au 7.43013 19.9081 11.2405
Pd 16.7837 12.4187 10.44
Au 5.88685 20.5405 13.5087
Pd 5.21297 24.2323 10.9931
Au 11.4561 8.20401 16.1172
Pd 12.0055 11.4721 11.0707
Au 13.2909 11.662 13.3599
Pd 16.3416 17.8455 22.8516
Au 11.6881 21.0485 14.0338
Pd 12.2814 16.2828 21.0973
Au 13.5456 22.9345 23.7854
Pd 9.06544 8.52864 24.8745
Au 13.8307 20.9501 20.3909
Pd 16.7299 20.5899 14.1219
Au 14.4859 13.6142 27.8565
Pd 21.8264 25.3666 19.1591
Au 24.8903 20.8743 19.6029
Pd 21.1314 21.6576 15.8265
Pd 17.628 16.3706 5.71442
Au 11.7822 27.7763 13.1291
Au 12.926 18.1895 6.67641
Pd 6.53035 14.691 10.0904
Au 10.483 19.5933 24.1157
Pd 20.8196 13.7941 11.9979
Au 3.50081 16.4912 16.1299
Pd 6.38728 13.6172 14.7528
Au 6.96014 20.9385 16.1838
Pd 14.4543 17.3795 8.86927
Au 5.86721 23.9312 15.8509
Pd 7.27709 12.7717 12.0458
Au 4.00832 17.7632 13.7269
Pd 15.5409 18.2512 13.0796
Au 4.78014 23.0159 13.4013
Pd 23.4693 20.2512 15.2418
Au 15.2107 21.7311 25.5347
Pd 8.10729 25.3026 15.1608
Au 22.7141 15.6239 23.4198
Pd 8.60678 17.8307 22.7796
Au 13.8976 21.4517 17.6517
Pd 8.47752 20.0668 13.8714
Pd 15.4904 9.90139 13.0187
Pd 9.48384 14.7964 8.18894
Pd 14.811 2.9188 11.7409
Pd 18.796 13.8534 9.52572
Pd 15.985 6.14512 22.5225
Pd 16.2254 8.76182 15.2494
Pd 17.3586 1.54788 12.1582
Pd 17.4295 7.62003 12.6601
Pd 14.6137 10.1182 20.0373
Pd 13.8977 15.9791 26.735
Pd 14.6532 11.0166 24.53
Pd 21.4965 5.85192 8.90448
Au 19.0912 6.64673 7.51879
Au 11.6932 15.7983 5.73239
Pd 21.2776 10.8498 7.41212
Au 15.474 8.25898 10.7411
Pd 16.0328 3.17585 18.7818
Au 6.7705 7.78498 18.5631
Pd 14.5909 11.0691 10.896
Au 11.5152 2.85116 18.3835
Pd 13.4764 14.6934 17.1116
Au 20.5018 16.5549 12.2642
Pd 10.0283 13.5238 23.5785
Au 15.6938 1.05 16.8086
Pd 21.1859 17.6892 18.9228
Au 13.4307 4.99359 19.2819
Pd 15.1246 7.7696 18.6116
Au 15.7776 5.62356 11.7759
Pd 13.5797 8.75849 25.6704
Au 12.3269 7.55132 18.6724
Pd 8.08511 16.7635 18.0502
Au 9.25496 2.83944 14.41
Pd 3.88987 13.8337 21.0857
Pd 16.0257 14.2482 5.42112
Au 22.5377 4.67416 16.6197
Au 20.5071 20.1756 7.6372
Pd 19.6706 16.0134 7.49661
Au 20.5161 11.8726 14.419
Pd 25.4434 12.8176 12.7414
Au 23.5355 14.147 5.99115
Pd 18.4783 5.11046 11.85
Au 23.0506 6.07156 12.801
Pd 13.8893 3.072 17.2471
Au 19.5205 2.86189 13.3025
Pd 8.03507 10.1004 17.7334
Au 13.2257 1.14236 15.631
Pd 10.6184 18.6322 14.5929
Au 17.3323 14.7514 21.3652
Pd 14.823 23.3586 21.237
Au 10.5449 5.38371 18.7356
Pd 15.1242 19.4472 16.1374
Au 9.10143 4.93668 21.8598
Pd 17.2339 19.7432 17.9178
Au 18.5436 7.03486 21.67
Pd 21.9265 12.4359 18.9929
Pd 18.202 9.91909 4.25903
Au 24.3508 6.64944 16.8237
Au 23.8328 16.7171 5.29882
Pd 16.6319 8.99688 6.36857
Au 20.8238 7.47692 5.64278
Pd 18.2112 14.4328 12.3111
Au 25.6744 15.5939 6.89915
Pd 9.11193 9.40643 15.3887
Au 12.3138 9.0527 21.197
Pd 13.4047 11.3921 22.223
Au 10.5089 6.97713 9.15899
Pd 14.3698 20.9556 13.034
Au 6.0514 14.7221 20.0329
Pd 17.184 23.024 6.11357
Au 11.4396 22.5225 17.0643
Pd 16.3291 19.7695 20.7011
Au 4.38742 12.5866 18.7938
Pd 11.028 9.24333 13.4548
Au 5.40543 17.0243 18.0711
Pd 12.2997 17.5931 23.4485
Au 19.2309 25.4851 18.2972
Pd 22.4074 13.5185 16.3006
Pd 14.8846 12.6239 3.56188
Au 24.8198 23.3035 12.1972
Au 15.2143 24.7933 9.90805
Pd 21.1228 8.29829 8.26848
Au 9.05832 14.9818 11.3385
Pd 16.0706 19.786 8.94158
Au 13.4559 9.78879 17.4962
Pd 8.83559 12.483 16.6252
Au 14.3896 28.0862 12.2169
Pd 14.7817 21.8302 10.2849
Au 8.95988 13.5339 13.9438
Pd 7.78028 25.0669 10.4532
Au 17.9786 10.3346 13.9221
Pd 23.9884 22.7215 16.6947
Au 14.6713 19.3798 26.7964
Pd 8.35529 23.1609 16.9172
Au 20.7753 11.7704 21.3274
Pd 11.7691 27.3341 15.9066
Au 23.5675 23.1986 19.4042
Pd 14.6387 12.2514 18.1983
Au 18.1616 19.8464 22.6254
Pd 19.9495 25.8975 21.1538
Pd 16.5282 17.6645 10.5066
Au 5.9712 22.4877 18.1477
Au 10.6743 25.6297 14.211
Pd 15.3225 21.0319 6.80394
Au 21.1935 15.9777 5.18477
Pd 9.7107 21.623 12.271
Au 26.3045 20.9972 11.972
Pd 11.2376 21.8406 8.73212
Au 15.6234 24.9324 7.13037
Pd 18.2466 24.6923 13.4842
Au 3.55159 15.0927 18.5052
Pd 5.22538 17.6367 9.06824
Au 6.60033 21.2041 20.4597
Pd 26.0022 19.3428 14.1262
Au 8.53854 19.3566 5.72214
Pd 9.99765 17.1833 25.1365
Au 15.9386 28.6493 18.9751
Pd 14.2774 19.2534 10.9593
Au 10.9645 18.966 21.5246
Pd 18.5862 22.3102 14.7746
Au 26.7124 18.0096 16.7167
Pd 10.1042 23.0779 14.8474
Pd 20.7997 5.39589 20.7607
Pd 13.2066 6.94281 10.0633
Pd 16.9347 15.2171 3.22381
Pd 18.2893 12.4315 22.2671
Pd 18.0442 8.7488 19.1244
Pd 20.1784 5.98174 16.5147
Pd 16.2657 6.04663 14.8398
Pd 17.3444 15.6269 23.901
Pd 20.1519 11.1495 23.8789
Pd 10.9229 4.55428 13.3626
Pd 19.1205 6.31026 19.0209
Pd 14.1307 10.0766 6.62895
Au 21.5512 13.0364 4.59421
Au 16.7585 3.73291 13.3616
Pd 21.0797 10.0675 4.77865
Au 25.5079 12.0603 9.85797
Pd 18.0155 4.63319 17.3299
Au 15.2447 1.57253 14.0707
Pd 21.9713 22.5178 8.7245
Au 19.9651 3.12531 16.0193
Pd 19.78 10.7133 19.0413
Au 22.8792 13.9542 21.3012
Pd 18.7945 9.79303 21.7767
Au 19.8482 13.0489 16.9626
Pd 13.8043 2.5714 20.2305
Au 7.923 10.8772 7.97877
Pd 9.2075 3.29252 17.0299
Au 16.1442 3.51243 21.4539
Pd 16.1624 9.94587 17.6412
Au 19.0432 15.9951 19.6234
Pd 18.8525 17.6601 17.3319
Au 18.5529 4.50803 22.3856
Pd 18.6154 10.2684 16.5087
Pd 14.5931 4.67606 9.54722
Au 16.1968 14.9948 10.5069
Au 19.1684 14.3543 4.47683
Pd 17.349 7.22388 17.1475
Au 22.5156 9.9274 19.7125
Pd 13.92 12.7929 6.08514
Au 17.98 12.8795 14.845
Pd 13.7037 14.1267 14.3239
Au 26.2008 16.4647 18.9402
Pd 16.256 3.41219 15.9033
Au 18.6935 17.8829 24.7535
Pd 22.4137 20.4285 22.733
Au 11.7243 9.31827 23.806
Pd 24.437 11.986 20.0743
Au 16.1562 10.7719 22.335
Pd 18.8883 17.0857 22.1801
Au 16.3209 21.8267 16.4273
Pd 13.4137 9.51133 14.7741
Au 10.2079 6.63991 23.5277
Pd 17.6184 10.9234 24.5511
Au 10.3464 9.32183 19.4781
Pd 14.1695 7.39647 16.1309
Pd 17.4355 24.2838 16.3282
Au 22.182 18.4608 6.43202
Au 18.2427 7.3599 5.02373
Pd 19.0157 19.3864 13.3754
Au 27.586 14.7844 12.9737
Pd 25.5531 15.0706 11.2519
Au 22.0887 18.6736 11.3014
Pd 15.7453 15.3368 13.0554
Au 16.6501 26.3552 17.8064
Pd 13.0962 25.9898 11.2496
Au 24.3206 17.6974 15.419
Pd 14.063 16.4255 19.1347
Au 14.128 27.1939 17.353
Pd 25.7236 10.4941 14.3215
Au 20.2832 20.1564 18.2738
Pd 24.8628 24.4469 14.678
Au 21.3745 15.0963 9.72535
Pd 24.3834 18.4293 18.1377
Au 16.5554 5.75971 19.8372
Pd 21.4269 14.9469 19.235
Au 22.8215 7.36153 21.0135
Pd 26.191 10.5306 18.8079
Pd 24.5734 17.9552 7.61291
Au 6.39301 23.0545 8.99718
Au 19.5738 22.6294 7.38328
Pd 18.7113 22.3378 17.6749
Au 22.9562 15.4784 12.0608
Pd 22.9935 16.335 17.3599
Au 13.0879 17.3799 16.8207
Pd 21.2257 20.7523 13.3115
Au 23.1495 12.4847 8.23599
Pd 23.0414 22.6277 14.1484
Au 15.7694 14.0922 16.0326
Pd 16.6412 27.9147 13.7098
Au 21.5931 18.5998 16.4368
Pd 18.821 16.2999 10.1335
Au 18.1425 1.98975 17.6248
Pd 6.74726 17.9727 13.3397
Au 9.57562 27.6145 17.7737
Pd 18.6286 18.5334 19.8553
Au 13.5812 22.6169 15.1158
Pd 21.6491 21.5207 20.241
Au 27.7882 12.2 13.8769
Pd 20.4915 8.25102 20.2485
Pd 9.87698 23.447 10.3796
Au 9.27833 27.7225 15.1334
Au 21.3779 23.1021 17.9631
Pd 17.2297 18.1665 15.1971
Au 7.18868 21.3373 6.96895
Pd 19.5312 23.2129 10.0239
Au 23.1762 24.5384 10.2391
Pd 7.44356 16.8743 5.47245
Au 16.8247 27.7792 10.9999
Pd 23.6901 16.443 20.0424
Au 16.2737 21.2429 4.37067
Pd 10.1383 25.115 16.9147
Au 18.4271 24.9179 7.95044
Pd 16.772 22.9321 11.7028
Au 19.0867 24.2407 23.0024
Pd 20.9676 17.84 8.96363
Au 20.9276 26.8317 16.7765
Pd 7.49866 22.6374 14.2217
Au 13.4854 28.1387 19.9475
Pd 15.8138 25.6886 12.4836
Au 26.9234 19.3393 18.8909
Pd 13.99 16.591 11.4877
Pd 14.5647 7.39127 13.302
Pd 22.4266 15.8073 14.7507
Pd 18.69 5.06757 14.5977
Pd 24.4587 8.34241 18.9874
Pd 22.1831 6.97117 15.1976
Pd 22.9247 8.87251 16.8927
Pd 19.0627 21.7774 12.1565
Pd 24.9854 12.9243 15.5069
Pd 20.7635 9.26552 14.9744
Pd 14.4104 8.8279 22.9962
Pd 21.3933 10.9447 16.9025
Pd 24.648 10.3081 7.74881
Au 11.2188 7.01575 11.8511
Au 26.9052 10.523 11.929
Pd 13.863 13.6873 11.5746
Au 22.8149 10.1264 9.78102
Pd 24.2165 10.5545 12.0678
Au 24.5207 7.882 11.6226
Pd 17.6807 15.5999 14.8973
Au 23.7263 7.75336 8.8593
Pd 18.4513 20.8675 9.31249
Au 18.4906 3.69654 19.8787
Pd 21.4049 4.52234 14.2106
Au 24.2026 21.7768 10.113
Pd 20.6416 23.519 13.6107
Au 27.406 14.1513 15.6105
Pd 17.8972 17.0783 12.6813
Au 25.6158 9.1152 16.6447
Pd 21.4272 16.7208 21.3783
Au 19.4259 2.63621 10.7703
Pd 20.085 21.902 22.3838
Au 21.5874 13.2696 23.707
Pd 22.8772 13.1924 13.6726
Pd 18.7001 7.75387 14.9943
Au 20.9864 25.0305 8.7854
Au 24.0908 11.3274 17.4527
Pd 23.2805 13.0175 10.9515
Au 26.9351 16.817 14.454
Pd 19.5862 18.236 5.84898
Au 20.7558 26.1946 14.1346
Pd 25.3977 15.4914 16.6015
Au 18.5931 28.2489 17.6389
Pd 20.3562 6.71614 13.1134
Au 15.2747 12.8656 20.9467
Pd 12.3091 16.4072 13.9944
Au 16.3471 4.07184 24.0809
Pd 25.4442 14.4833 20.5901
Au 11.3474 3.61764 20.8882
Pd 18.1391 13.8867 6.95577
Au 23.949 14.1148 18.4438
Pd 20.2744 8.42034 17.5178
Au 16.4583 17.0949 20.1436
Pd 17.185 11.1976 19.915
Au 25.4865 18.3438 20.7581
Pd 11.232 13.2333 17.9026
Pd 12.4875 23.7669 10.0486
Au 14.949 7.84197 8.17224
Au 23.3664 11.4177 5.68281
Pd 20.8933 20.7515 10.3358
Au 22.941 8.82827 6.41137
Pd 22.0855 18.3059 13.8588
Au 27.6935 12.9326 11.1504
Pd 19.4917 8.60826 24.1525
Au 22.1055 6.63537 18.4982
Pd 24.9361 15.1603 13.9602
Au 26.3903 13.302 18.1911
Pd 23.5986 17.9315 22.5268
Au 21.2657 17.9804 23.7753
Pd 22.0504 22.6854 11.575
Au 20.824 6.7116 22.9675
Pd 14.8872 16.5871 15.1341
Au 25.6926 9.3672 9.9086
Pd 8.54714 19.3328 20.4946
Au 23.1558 11.4059 22.318
Pd 19.9641 24.3299 15.9923
Au 11.5612 4.33021 23.423
Pd 14.7076 18.9952 18.6992
Pd 16.2916 28.5122 16.2618
Au 26.9553 17.4364 11.8363
Au 14.0388 28.2222 14.7991
Pd 11.7844 13.6946 7.39749
Au 22.9704 19.7674 8.8067
Pd 18.3797 26.6713 15.4404
Au 26.2736 16.8078 9.30213
Pd 24.5269 8.05847 14.4436
Au 27.0513 11.4512 16.4309
Pd 22.4401 8.77341 13.0878
Au 16.1143 23.7795 23.8445
Pd 19.8102 17.2761 14.8079
Au 16.3336 14.689 26.147
Pd 20.5712 25.1749 11.4885
Au 17.2718 12.385 17.5353
Pd 25.5723 20.5012 16.8472
Au 20.5036 27.6766 19.3005
Pd 18.8548 27.0356 12.4849
Au 22.9282 19.1743 20.312
Pd 16.1482 16.983 17.4195
Au 21.5613 9.28572 22.4712
Pd 22.8639 20.6618 17.8826
Pd 6.45498 25.0114 13.1226
Au 8.4093 26.8345 12.8057
Au 16.9609 25.3884 21.8523
Pd 17.3763 22.6275 21.687
Au 25.1916 19.1415 10.3585
Pd 17.1101 24.2773 19.4293
Au 16.8699 20.1952 11.5247
Pd 14.408 18.9494 24.2561
Au 25.6195 21.928 14.4811
Pd 15.9825 23.3756 14.2257
Au 17.9379 20.4208 6.52652
Pd 19.1597 4.67894 9.23441
Au 23.8089 20.4798 12.5193
Pd 17.8622 27.1528 20.0725
Au 24.4724 17.6398 12.614
Pd 13.368 25.6371 13.8729
Au 11.9153 26.2227 18.5359
Pd 13.3874 20.2142 8.54805
Au 15.5983 25.9377 15.2591
Pd 11.6076 23.6251 12.6636
Au 22.8919 25.0826 12.9398
Pd 12.0982 25.3894 20.9496
