665
Atoms. Timestep: 20672
Pd 21.2091 9.25279 10.9627
Pd 7.55509 11.7614 21.1694
Pd 16.0217 6.94593 15.8039
Pd 14.7797 9.31881 22.7422
Pd 10.7073 6.43473 17.5214
Au 6.67916 17.358 14.2077
Au 19.1971 15.0675 14.2089
Pd 24.64 14.0447 17.9902
Au 13.8082 12.827 3.86592
Pd 15.8327 16.1703 10.0957
Au 24.7774 16.713 18.1483
Pd 23.9504 15.3084 20.2736
Au 14.3783 22.93 22.1766
Pd 24.0059 19.3003 18.2775
Au 18.5178 26.1591 18.099
Pd 13.8335 20.3605 3.57136
Au 13.4461 9.33491 18.8713
Au 17.4948 6.49845 24.6437
Pd 19.5225 8.85637 6.40186
Au 20.0314 6.79276 25.2402
Pd 5.53615 10.785 16.7699
Au 21.2514 15.7773 25.3948
Pd 19.8175 17.9427 10.5394
Au 17.5384 5.13645 22.4454
Pd 5.2448 18.2047 19.5382
Au 17.038 16.8443 19.6999
Pd 16.8122 2.55134 17.5275
Au 5.03352 17.6374 16.478
Au 17.5542 17.5466 25.9942
Pd 26.2229 15.509 11.57
Au 6.41165 6.99105 18.8629
Pd 16.9747 10.7478 21.8883
Au 20.9343 4.72762 16.1366
Pd 3.01411 16.7828 20.3714
Au 22.2394 6.81233 23.7168
Pd 9.11389 22.1953 7.9213
Au 20.5687 12.7381 14.7979
Pd 14.6814 23.4004 10.8005
Au 23.6328 15.3384 12.4871
Au 8.58389 22.0947 12.2454
Pd 18.3772 5.28556 14.9561
Au 20.9623 11.1251 12.8374
Pd 3.73364 13.9497 19.8939
Au 8.41339 16.7625 7.21125
Pd 20.8805 16.7709 12.7693
Au 21.483 14.9348 3.08914
Pd 7.6293 14.8 13.6384
Au 8.66672 14.9605 24.6815
Pd 25.7855 14.0569 13.7451
Au 16.6085 23.388 6.80247
Au 10.4628 22.3153 10.3505
Pd 10.1212 15.6575 13.0526
Au 27.096 18.6758 12.3242
Pd 9.7603 7.12684 13.2381
Au 14.6881 4.21479 9.99077
Pd 8.4005 19.9448 13.9602
Au 8.4187 14.3994 17.5203
Pd 13.371 11.1287 23.9397
Au 14.5712 2.58791 13.612
Pd 6.33698 22.3489 13.712
Pd 23.4614 10.377 12.1376
Pd 25.1474 17.1718 23.3348
Pd 10.3453 12.4382 17.4993
Pd 13.2855 13.1475 27.1411
Pd 21.6608 4.82993 9.53057
Pd 9.81627 13.8372 15.1564
Pd 5.62392 10.4921 22.2797
Pd 18.2701 7.98071 10.8003
Pd 8.61125 19.4725 8.09674
Pd 11.2047 8.10711 19.7154
Pd 12.337 9.76202 21.6943
Pd 10.992 20.6777 21.8088
Au 15.3501 16.3747 5.30186
Au 18.8821 14.395 2.98032
Pd 13.1342 12.2158 6.68259
Au 19.7644 22.2762 11.8026
Pd 12.7932 13.1387 10.8635
Au 18.9372 15.1662 27.0794
Pd 7.36013 12.782 15.5789
Au 16.0894 14.2717 3.50057
Pd 9.01579 9.61994 13.2355
Au 6.14914 12.6106 12.8922
Pd 15.9128 8.65337 9.36326
Au 1.95378 17.1075 15.9044
Pd 14.3888 26.0195 10.4501
Au 23.2746 6.31168 14.3106
Pd 11.967 17.5359 26.1952
Au 25.8801 21.3837 15.5307
Pd 18.9607 19.3288 8.16334
Au 21.0909 20.4148 10.0492
Pd 7.69378 18.8212 16.228
Au 12.3741 12.7089 21.8868
Pd 21.4212 23.4179 23.626
Pd 21.0056 25.8356 9.37412
Au 4.54639 8.2509 17.4562
Au 17.0414 23.5529 22.2735
Pd 5.25179 15.8554 21.3874
Au 17.1305 5.18878 17.5736
Pd 21.0106 23.1275 9.30851
Au 14.5872 10.824 26.4448
Pd 16.6983 17.8684 1.07648
Au 15.9842 12.7148 27.7112
Pd 12.1815 6.6111 12.5095
Au 8.16074 7.42751 11.1627
Pd 24.0184 21.8329 13.6132
Au 11.3454 24.6584 18.937
Pd 15.6145 18.7187 13.6046
Au 5.36527 13.2228 22.0078
Pd 13.7442 14.953 22.9635
Au 15.7378 21.6091 20.2477
Pd 15.3939 17.9391 21.7958
Au 17.3307 10.5548 26.7601
Pd 10.7012 19.848 26.1853
Au 20.4286 19.9827 19.7843
Pd 16.2896 19.7425 18.0536
Pd 13.1034 24.9558 16.7609
Au 19.5075 12.3302 9.52155
Au 18.7745 12.5855 27.8652
Pd 12.2869 3.47413 17.7719
Au 3.16075 19.5854 20.5229
Pd 14.2325 19.0312 19.6237
Au 5.06706 22.8732 18.0175
Pd 21.6721 13.1068 7.94847
Au 17.0853 18.2123 11.4433
Pd 22.5863 13.0523 5.40358
Au 16.2325 20.2209 2.27504
Pd 16.0788 24.97 12.4326
Au 9.87729 8.41749 22.0136
Pd 11.938 26.6137 12.1001
Au 22.545 26.7893 11.3599
Pd 19.9765 10.6862 26.3393
Au 19.0708 22.1853 23.5885
Pd 20.3196 13.9431 22.9578
Au 7.67386 19.3057 18.9427
Pd 19.9835 9.0472 17.7927
Au 7.5061 12.4361 10.6223
Pd 19.5061 5.22196 20.5249
Pd 13.2662 9.03566 11.8696
Au 7.84486 8.26548 8.72627
Au 12.0021 17.7667 9.04026
Pd 16.0087 9.16069 11.8938
Au 6.07197 6.0491 16.0229
Pd 17.3975 12.4029 7.65728
Au 11.0746 9.8161 17.5834
Pd 13.5813 12.1778 18.0052
Au 17.8146 2.95874 13.1868
Pd 6.00224 13.2558 8.58151
Au 21.2611 15.3896 20.6924
Pd 13.2676 8.83659 25.2176
Au 7.41389 12.591 23.7303
Pd 10.3671 9.10299 8.29033
Au 23.6852 10.2662 21.0889
Pd 20.5058 9.9953 15.3125
Au 23.555 9.30089 23.6549
Pd 19.3457 7.93715 20.0994
Au 4.81907 11.7121 10.6147
Pd 24.072 8.17346 16.1858
Au 12.9848 18.0415 13.686
Pd 17.3476 20.5761 13.0106
Pd 21.0136 19.445 17.2747
Au 15.8167 25.0313 17.5529
Au 3.34102 10.4275 18.3988
Pd 21.163 10.4989 19.8572
Au 14.9277 25.8592 14.929
Pd 12.2421 24.482 10.4941
Au 17.0897 6.45947 20.1511
Pd 18.585 15.4407 24.5054
Au 4.64808 12.7162 15.0705
Pd 19.754 17.0491 6.71475
Au 2.06917 12.9666 14.7672
Pd 24.1271 12.1636 8.89607
Au 27.0292 12.8643 11.6774
Pd 19.313 8.60239 13.1503
Au 7.56575 24.7283 12.257
Pd 22.9264 13.1296 21.3552
Au 20.5486 25.6525 19.7174
Pd 19.5556 7.18539 22.6658
Au 20.3305 13.2426 25.653
Pd 15.0633 20.5744 11.3102
Au 24.7948 16.3396 9.31548
Pd 14.6312 23.0037 15.8749
Pd 19.1291 11.563 23.949
Pd 18.9127 10.4472 4.19587
Pd 19.3858 19.6431 22.5736
Pd 10.405 22.0409 19.5095
Pd 14.2812 10.9945 10.5631
Pd 15.531 11.4374 15.2458
Pd 7.54184 22.0579 18.7041
Pd 11.7132 19.6805 18.6185
Pd 16.9679 19.0955 4.49311
Pd 9.87869 18.5673 20.3446
Pd 18.7185 24.7237 12.9918
Pd 21.0571 10.355 8.47397
Au 25.686 10.7688 10.6992
Au 23.4183 21.7963 9.12718
Pd 20.1263 11.6787 17.394
Au 12.0862 10.7698 4.4359
Pd 13.2157 15.6009 3.9345
Au 14.8395 16.3366 15.2776
Pd 9.28095 10.178 19.784
Au 15.0115 6.93594 18.4474
Pd 5.37121 20.9717 19.8971
Au 11.8986 11.0962 26.2061
Pd 25.1159 12.5382 15.8244
Au 15.9303 15.9321 24.3104
Pd 6.5919 14.8713 6.59715
Au 14.8379 15.9027 1.80648
Pd 20.6794 6.16732 7.27397
Au 18.2865 10.5621 19.3907
Pd 21.8778 7.53589 18.98
Au 6.62739 10.6022 8.79133
Pd 7.7874 5.31179 12.998
Au 7.52221 12.3293 6.59805
Pd 23.9683 5.96995 19.5198
Pd 18.5571 13.4702 18.7482
Au 25.6325 11.2703 13.4746
Au 4.32492 21.9572 15.5784
Pd 15.8319 4.53744 12.3824
Au 18.9913 22.3595 5.98906
Pd 13.2217 8.50587 9.32205
Au 15.0301 5.05036 21.147
Pd 13.4468 11.282 13.3791
Au 16.7411 6.93208 13.1979
Pd 10.4197 11.5654 6.28913
Au 19.6547 26.9296 11.5768
Pd 21.4585 18.4326 8.25918
Au 7.70514 14.6906 22.0933
Pd 18.4133 11.3351 14.0436
Au 25.8978 13.92 9.4749
Pd 11.1733 17.7727 11.7421
Au 22.4666 9.9729 17.4439
Pd 14.4029 8.57589 14.2729
Au 17.19 15.1674 1.04962
Pd 9.86102 21.3486 24.1862
Au 3.11605 19.568 15.7248
Pd 7.64732 12.0942 18.4655
Pd 18.797 7.77502 15.615
Au 17.128 10.1752 6.08545
Au 26.798 21.2781 12.9913
Pd 3.42421 13.2637 12.4085
Au 12.9401 4.16483 12.1019
Pd 6.72689 22.9188 21.1281
Au 14.3014 27.4911 16.9507
Pd 17.1467 17.811 6.75826
Au 24.7843 8.63596 13.6696
Pd 20.9188 24.8719 17.1637
Au 13.3628 15.3678 9.3551
Pd 14.6192 10.4557 5.1483
Au 26.6834 19.7317 17.5947
Pd 2.95162 18.2201 18.1218
Au 22.331 17.0054 10.4969
Pd 9.11204 23.4975 17.1947
Au 10.5769 8.78386 5.6114
Pd 7.30878 21.6424 16.0356
Au 13.0909 8.19883 4.93234
Pd 22.899 15.9938 22.6815
Au 11.1698 5.9392 21.3409
Pd 18.2597 15.8208 11.778
Pd 12.7135 5.88623 19.0817
Au 14.3002 21.883 6.79947
Au 23.131 10.9106 6.87947
Pd 10.0779 11.2945 22.1197
Au 4.11929 18.7636 11.869
Pd 20.354 16.6218 22.9682
Au 14.4801 19.1782 15.9904
Pd 10.986 20.3479 13.0532
Au 10.1467 4.34927 13.7047
Pd 12.4554 13.1546 15.8304
Au 6.50872 9.83554 11.691
Pd 7.03657 8.42149 16.2847
Au 6.03739 24.069 15.807
Pd 23.9718 15.6348 25.1967
Au 20.3927 3.66246 13.7123
Pd 10.1265 13.877 22.7807
Au 19.3701 16.6003 1.49078
Pd 17.0146 20.6479 6.78116
Au 9.89544 8.50665 15.6412
Pd 14.1479 18.0068 11.0247
Au 6.74883 10.4277 14.3707
Pd 17.7884 17.4644 22.8712
Pd 15.1248 10.7262 7.90457
Au 15.3408 9.37161 16.9473
Au 25.278 10.326 17.1636
Pd 16.3186 11.0737 24.361
Au 13.8587 5.2684 16.575
Pd 18.1222 12.8893 5.07253
Au 19.1039 24.5703 7.65017
Pd 8.84039 12.3231 13.1064
Au 12.1677 15.6056 14.7431
Pd 22.5794 17.4652 16.57
Au 5.17451 11.6657 19.8126
Pd 21.8457 18.5414 21.9737
Au 22.2854 4.90265 12.2063
Pd 6.58477 20.0536 12.08
Au 24.3753 17.8955 20.8235
Pd 22.5601 19.3984 12.1625
Au 25.0271 25.75 12.01
Pd 3.8853 17.452 14.0665
Au 7.38679 21.2512 9.70902
Pd 5.36664 13.3324 17.6307
Au 9.37872 23.0102 22.213
Pd 22.9713 14.444 9.94525
Pd 23.1106 22.986 15.8889
Pd 10.0992 12.862 10.7845
Pd 16.9907 18.1837 15.9229
Pd 24.9113 20.5409 11.2498
Pd 22.5471 12.8413 16.6558
Pd 12.1767 18.2453 3.70975
Pd 10.6394 16.2541 4.77979
Pd 11.6728 11.367 19.6957
Pd 14.9942 13.3203 25.0985
Pd 16.3128 22.4413 17.7923
Pd 23.3175 24.4499 13.4136
Pd 12.368 22.8805 14.6462
Au 22.611 15.8817 5.31885
Au 4.13015 21.2384 12.7891
Pd 19.6237 24.1317 21.6978
Au 26.3344 15.9473 21.2895
Pd 23.2028 13.0181 13.9596
Au 5.86634 19.3322 24.247
Pd 18.5894 5.41233 12.1789
Au 16.7253 4.66337 8.09608
Pd 16.7939 14.0026 13.9237
Au 16.5241 1.52329 15.0545
Pd 15.0183 6.70895 23.4167
Au 4.71885 8.9017 20.2107
Pd 4.96896 15.0848 13.5623
Au 16.2048 15.2352 26.8854
Pd 17.622 7.26357 7.83574
Au 23.3875 7.4838 11.6501
Pd 20.1028 14.3767 16.7467
Au 7.92653 16.4791 4.7068
Pd 21.244 13.9885 12.3453
Au 10.666 24.9484 15.6496
Pd 13.8218 7.47666 20.9809
Pd 20.4016 14.4843 5.50429
Au 18.7898 2.80045 15.7517
Au 27.3753 19.1471 14.9407
Pd 18.6262 15.0683 21.124
Au 23.7834 17.427 7.12691
Pd 18.6342 18.4204 18.0967
Au 13.7908 19.7386 8.43736
Pd 24.3763 22.6958 20.2946
Au 24.7789 13.0543 25.3887
Pd 17.0788 8.0361 22.3609
Au 20.0452 3.51497 11.1052
Pd 9.19059 14.2975 5.97096
Au 21.8016 18.4858 5.54709
Pd 14.8209 18.0107 3.26981
Au 12.1689 13.3504 24.6063
Pd 14.808 17.6291 26.4317
Au 19.3761 9.78463 22.0076
Pd 10.3779 18.1449 14.5801
Au 25.0301 21.8784 17.9333
Pd 14.1516 16.3125 20.145
Au 22.1239 8.42557 6.9169
Pd 22.6164 13.6469 24.0007
Pd 22.4997 11.3599 25.2866
Au 20.6409 22.0066 16.4403
Au 13.6281 26.2042 19.2181
Pd 16.1808 27.1484 19.0142
Au 24.3387 8.57169 18.9947
Pd 11.8079 8.90316 13.9989
Au 17.0412 26.7805 10.8582
Pd 20.4268 23.0341 19.18
Au 10.2829 4.42813 19.2586
Pd 5.51398 14.3619 10.9492
Au 18.8309 24.6579 10.2986
Pd 9.44622 19.7982 10.819
Au 7.00201 17.0274 23.4445
Pd 14.8189 19.2224 5.91702
Au 12.3523 18.1591 21.4397
Pd 11.7652 14.0124 19.1425
Au 6.76264 9.65398 18.7894
Pd 16.9051 9.26668 14.4063
Au 9.97653 27.583 15.7032
Pd 11.5055 13.3227 13.1497
Au 11.73 27.1209 17.5315
Pd 10.9216 9.76792 24.1152
Pd 8.55788 10.5909 16.5451
Au 25.9959 10.5896 19.8016
Au 18.2196 20.3877 10.4747
Pd 8.73944 14.2988 8.60031
Au 21.093 21.7532 21.6456
Pd 21.717 15.7871 7.92645
Au 13.6258 17.5008 23.88
Pd 17.2467 3.77907 19.9909
Au 19.0818 5.38213 9.29505
Pd 25.0235 14.3808 22.9611
Au 2.13265 15.5049 18.1679
Pd 10.8588 8.21294 10.8696
Au 17.7901 23.906 19.4825
Pd 12.397 5.90695 9.86751
Au 16.7759 20.803 22.675
Pd 17.1875 22.7574 11.2881
Au 4.48266 17.8569 9.36862
Pd 11.7527 15.4702 21.3058
Au 26.8123 14.598 16.2178
Pd 13.8819 23.4835 19.0013
Au 19.8534 17.0765 16.0647
Pd 20.592 6.33357 13.8881
Pd 7.31525 16.7636 18.0125
Au 7.6836 3.94898 15.3132
Au 21.0103 9.18196 24.3496
Pd 16.4664 20.999 15.5058
Au 23.7771 19.0719 9.41614
Pd 20.0545 7.96284 8.90744
Au 17.4894 8.03702 17.9654
Pd 15.1705 17.2473 17.7995
Au 22.5928 7.18228 9.15961
Pd 9.33452 26.1023 17.9854
Au 10.637 23.8866 12.8178
Pd 12.6865 22.2371 12.0326
Au 11.725 22.5604 17.238
Pd 11.904 17.009 19.0618
Au 16.0947 11.6601 12.6911
Pd 27.1918 17.1033 16.8546
Au 21.1674 24.5828 11.8075
Pd 6.73209 16.0231 9.17136
Au 3.46339 16.0516 11.3398
Pd 8.79378 19.1444 22.9756
Au 18.5201 22.2264 8.64628
Pd 16.9331 24.25 14.9963
Pd 8.8564 24.1752 19.9268
Pd 7.50106 17.061 20.6747
Pd 9.94487 21.8858 14.9836
Pd 12.3435 19.9494 10.797
Pd 15.3359 13.8222 11.3629
Pd 23.1405 24.1611 18.3884
Pd 8.85462 8.11712 18.1357
Pd 6.29039 15.2517 15.9789
Pd 4.22493 10.7406 13.2114
Pd 13.9981 24.2215 8.20148
Pd 26.1292 16.761 14.0693
Pd 16.0479 4.1726 15.2167
Au 9.67337 20.7714 5.79125
Au 9.51442 20.6171 17.3274
Pd 15.8713 18.8552 24.258
Au 22.2816 24.0998 21.0467
Pd 8.69615 6.26971 15.4673
Au 8.30289 9.809 6.63192
Pd 23.5772 27.2983 13.6671
Au 14.8112 3.91705 18.73
Pd 14.7728 13.1931 8.75563
Au 22.6836 17.9776 24.5157
Pd 17.4958 14.1182 9.82086
Au 20.2125 4.83551 23.2652
Pd 11.1771 10.7873 12.0748
Au 9.93284 6.56868 8.89614
Pd 11.4108 15.9855 24.0359
Au 5.71096 17.3098 7.00824
Pd 16.6911 6.08414 10.2621
Au 19.2953 3.62021 18.2312
Pd 10.8449 15.385 17.0838
Au 15.152 8.26196 6.71697
Pd 19.6002 6.29263 17.8676
Pd 19.5248 17.6547 20.6893
Au 6.9482 24.7591 18.2062
Au 18.1963 16.6858 8.96042
Pd 4.75978 8.64618 14.8549
Au 16.2967 19.0522 9.04686
Pd 25.7147 20.2507 20.179
Au 26.7358 12.4766 18.0681
Pd 23.3875 17.3961 14.0014
Au 12.1533 7.06965 7.28865
Pd 25.1114 23.1246 11.4813
Au 13.4382 24.7118 13.0154
Pd 12.4035 26.778 14.7285
Au 13.9158 21.0785 17.719
Pd 9.80579 25.5173 10.8873
Au 9.77009 12.1646 24.8795
Pd 8.27209 15.0836 11.1466
Au 11.3326 18.9301 23.8299
Pd 8.47165 20.9116 20.9267
Au 11.8611 10.9484 9.44458
Pd 19.4053 12.3453 21.1204
Au 9.38663 17.4882 25.1799
Pd 14.13 13.8337 13.7785
Pd 16.856 27.1544 16.2446
Au 10.674 11.2369 14.8785
Au 21.2781 13.1597 19.2412
Pd 23.7164 11.8052 18.9422
Au 12.417 21.9125 23.7974
Pd 14.6472 27.254 12.742
Au 18.2398 9.92052 8.60031
Pd 18.7123 22.3571 14.3958
Au 15.9343 20.0225 26.5816
Pd 5.96309 19.8102 7.81988
Au 16.4655 24.6606 9.16739
Pd 11.8613 23.4661 21.3438
Au 7.27196 21.4771 23.3444
Pd 6.97768 18.5642 9.96328
Au 20.5993 12.428 3.72912
Pd 23.2738 10.5781 14.9626
Au 11.6013 13.728 5.09564
Pd 13.0828 10.4978 15.9435
Au 22.2779 15.3043 17.971
Pd 21.6063 11.2874 22.7016
Au 21.7005 8.50101 21.5995
Pd 13.5584 14.8372 6.67416
Pd 14.6631 17.2339 7.93136
Au 10.1234 4.04191 16.3882
Au 25.6284 13.1767 20.552
Pd 15.1758 21.6553 24.5475
Au 3.1467 20.9368 18.1503
Pd 5.58496 19.7591 14.5657
Au 15.4233 22.5454 13.3631
Pd 23.2388 20.3143 15.8272
Au 11.8514 20.1613 15.7912
Pd 14.4557 11.1212 20.5147
Au 21.5905 20.5087 23.9896
Pd 24.9543 19.4511 13.7189
Au 18.0898 20.1568 25.0341
Pd 19.3702 19.5718 5.49338
Au 3.58989 15.0669 15.9802
Pd 14.1445 13.7378 20.1938
Au 9.49228 13.2284 20.1686
Pd 12.3404 20.098 5.94158
Au 19.0997 25.986 15.4237
Pd 12.934 22.1132 9.26057
Au 2.75947 12.8563 17.4224
Pd 8.5214 17.7282 12.3283
Pd 22.0051 17.6952 19.3096
Au 23.2885 20.1156 7.02399
Au 18.3717 9.05501 24.6393
Pd 20.8774 21.0878 7.4117
Au 23.5352 22.1651 22.735
Pd 10.9245 15.304 10.382
Au 21.2808 18.813 14.5927
Pd 9.58615 16.6946 22.3489
Au 4.28139 15.3179 8.67393
Pd 11.4394 13.3584 8.34159
Au 24.5085 11.7576 23.1257
Pd 19.1692 14.4298 7.73623
Au 17.3968 3.46153 10.4411
Pd 18.7026 10.5011 11.4031
Au 13.5121 15.4169 25.8469
Pd 8.13233 5.28057 17.8114
Au 15.5365 24.9342 20.5518
Pd 18.982 19.9081 15.4345
Au 12.4285 17.6095 16.5507
Pd 12.9632 7.85625 16.6029
Au 19.9812 18.2759 24.9646
Pd 22.0029 8.59011 13.6123
Pd 17.5192 13.4472 23.0203
Pd 11.062 20.3294 8.42044
Pd 11.5898 6.19263 15.0632
Pd 14.1894 5.83589 14.0044
Pd 19.815 19.6432 12.5722
Pd 26.9004 15.1293 18.8627
Pd 24.124 7.5789 21.6016
Pd 13.4855 15.1813 17.5748
Pd 6.01958 16.8551 11.7176
Pd 15.8575 8.59683 25.2085
Pd 25.9256 23.635 13.953
Pd 15.8091 21.7378 4.62531
Au 20.0074 16.9885 4.07826
Au 20.8876 24.0029 14.5867
Pd 8.40477 23.8412 14.5153
Au 13.3954 19.8487 25.4659
Pd 9.5621 26.2139 13.5119
Au 6.98246 7.72558 13.6597
Pd 8.80215 16.3279 15.5433
Au 10.5745 24.3464 8.53614
Pd 23.4777 9.64884 9.4805
Au 11.0098 15.7607 7.46048
Pd 6.73536 14.3335 19.7018
Au 12.9507 22.5318 4.64924
Pd 9.82544 17.9044 17.5724
Au 22.6573 13.7851 26.7076
Pd 21.4821 7.5252 16.163
Au 24.202 19.6303 22.9596
Pd 9.54109 15.8353 19.5873
Au 8.13407 10.0555 23.4045
Pd 15.8239 21.8116 9.00287
Au 17.4785 15.6435 16.5101
Pd 16.0657 15.2596 21.6878
Pd 14.661 6.36692 8.4442
Au 15.5454 13.0534 5.89459
Au 16.0609 14.6508 18.6
Pd 8.96425 10.066 10.5861
Au 5.50947 20.1252 17.3601
Pd 17.9187 15.4901 5.49268
Au 9.33239 17.2673 9.67184
Pd 13.0148 21.3292 20.307
Au 25.309 24.1827 16.5618
Pd 26.7431 17.8546 19.4713
Au 18.6343 21.1265 18.0177
Pd 16.0056 9.04891 19.9911
Au 18.7788 18.9882 2.54728
Pd 22.4438 21.5625 18.3341
Au 23.0664 25.7055 15.8194
Pd 18.4027 17.6916 13.7607
Au 17.3856 19.3365 20.4937
Pd 7.90204 25.9706 15.8445
Au 25.4833 26.0231 14.6995
Pd 13.7187 20.6147 13.8308
Au 15.6904 16.1767 12.7834
Pd 4.70696 20.9803 22.4342
Pd 12.4802 3.67877 14.8635
Au 24.7585 17.7444 11.6298
Au 3.05823 10.5824 15.7259
Pd 18.5817 23.6635 16.9085
Au 24.395 12.9145 11.5709
Pd 20.6951 6.70903 11.2186
Au 17.3552 27.0211 13.5622
Pd 11.633 22.5534 6.92574
Au 10.099 5.35075 11.2391
Pd 15.2249 13.7833 16.2474
Au 7.5299 18.9338 5.73396
Pd 23.2895 24.4841 10.1902
Au 17.2976 16.7407 3.28716
Pd 21.8381 15.2781 14.8863
Au 18.6745 13.1419 12.0685
Pd 20.2559 15.0621 10.1202
Au 5.87675 22.8234 11.197
Pd 21.1205 26.5038 13.7657
Au 4.78036 15.8461 18.4638
Pd 10.4652 18.3114 6.59594
Au 4.7706 20.591 10.09
Pd 15.0436 12.6577 22.5486
Pd 19.5607 16.0029 18.6529
Au 21.9641 5.80769 21.3048
Au 12.3001 7.53665 23.2103
Pd 17.9245 10.3272 16.5873
Au 21.4879 10.2113 4.97559
Pd 23.9898 14.5066 7.36784
Au 16.4252 11.5585 3.59535
Pd 22.5053 22.215 11.5543
Au 13.0716 5.01238 22.8619
Pd 18.5401 21.7313 20.7937
Au 13.9593 20.1301 22.5591
Pd 16.3193 15.0903 7.58387
Au 23.2855 5.78277 17.0095
Pd 18.0052 26.1135 20.7895
Au 13.0256 15.6676 12.0914
Pd 9.58393 18.6214 4.09687
Au 2.20485 15.3904 13.6585
Pd 8.83086 6.55216 20.1905
Au 23.1206 20.3769 20.5924
Pd 17.5951 13.1558 25.6286
Au 9.18676 11.6487 8.53525
Pd 14.5185 6.78874 11.3416
Pd 25.0425 18.2882 16.021
Au 12.6529 3.71556 20.5435
Au 11.1954 20.7631 3.65141
Pd 16.7212 11.5736 10.094
Au 14.355 2.43983 16.3772
Pd 21.9751 11.9682 10.5025
Au 7.31521 8.66232 21.1819
Pd 21.3853 21.408 13.9248
Au 17.8548 12.9492 16.1638
Pd 16.7358 12.8856 20.4773
Au 8.11798 19.817 25.4691
Pd 24.329 15.3834 15.6631
Au 6.51917 19.2846 21.6541
Pd 12.8461 17.36 6.05734
Au 18.2437 21.3168 3.71475
Pd 8.1787 23.7531 9.89151
Au 19.9173 11.7005 6.51357
Pd 21.6292 4.79952 18.8381
Au 12.678 9.71681 7.03378
Pd 10.8332 14.8252 26.3185
Au 4.28654 18.1237 22.4108
Pd 16.1628 11.7562 18.1192
