665
Atoms. Timestep: 20858
Pd 19.7572 11.6521 6.72269
Pd 6.34719 7.82635 19.9814
Pd 16.3753 14.5954 3.24155
Pd 23.8856 20.5756 18.959
Pd 20.0802 13.2584 24.6784
Au 23.3785 16.1828 25.0792
Au 17.534 5.13098 20.9398
Pd 21.5004 10.8931 24.4504
Au 8.06242 21.9856 8.01285
Pd 18.604 19.5685 22.8703
Au 4.05755 9.68739 11.744
Pd 9.64441 5.36601 13.2557
Au 12.0637 11.4104 21.098
Pd 15.7481 23.665 10.4004
Au 4.44894 7.31252 12.9362
Pd 15.9863 5.74833 8.07619
Au 3.12305 12.4651 18.5626
Au 27.5447 20.2246 17.1281
Pd 18.6409 6.05114 17.9916
Au 21.8356 7.96203 16.9693
Pd 23.67 21.323 14.3688
Au 17.2902 20.5827 13.7705
Pd 19.8745 4.66725 19.8207
Au 17.2906 10.13 2.92508
Pd 16.5279 8.78254 18.0533
Au 14.6739 13.1567 24.7691
Pd 17.115 14.5898 10.4757
Au 10.4513 13.0003 27.2736
Au 14.969 7.7777 23.762
Pd 24.8969 17.2513 9.10022
Au 10.2607 23.7839 25.3957
Pd 19.2197 18.6793 13.1311
Au 14.8196 3.15638 17.5872
Pd 18.0645 7.61871 20.0994
Au 21.7815 8.28322 23.6249
Pd 10.055 20.5307 18.8888
Au 27.1269 17.7032 20.8561
Pd 15.8066 25.4563 12.4062
Au 8.64282 26.2209 21.0402
Au 21.0985 12.6351 4.48415
Pd 16.1442 15.4163 24.9109
Au 11.1336 26.8002 21.8688
Pd 5.99999 11.6078 12.0299
Au 5.47577 13.9966 6.27066
Pd 9.6051 11.6573 6.05654
Au 12.7713 7.99275 16.051
Pd 14.4607 7.79155 8.99498
Au 25.4622 11.6136 19.0663
Pd 14.8385 11.7732 6.49347
Au 20.2808 18.4103 17.4433
Au 27.6082 13.6096 19.1938
Pd 22.3249 21.6893 24.0461
Au 17.4845 17.0294 2.80309
Pd 21.6409 9.84825 18.9959
Au 23.7172 7.28255 18.7711
Pd 23.2842 15.1865 18.3965
Au 19.3852 11.3509 22.8045
Pd 20.311 22.3268 17.2459
Au 26.4368 18.2434 15.5984
Pd 24.956 16.4162 16.7105
Pd 14.4537 18.7987 20.791
Pd 25.2679 16.4158 13.9114
Pd 8.27856 5.52452 15.6204
Pd 25.4515 13.8413 17.5592
Pd 22.8098 12.2291 20.0319
Pd 6.38672 19.1384 16.0542
Pd 14.6783 18.7138 18.0288
Pd 17.5952 25.9535 20.4329
Pd 11.7771 19.1259 17.4901
Pd 10.0223 24.2681 22.507
Pd 19.8914 11.4361 17.4712
Pd 26.8955 10.1308 17.1478
Au 14.5943 10.2449 16.1144
Au 11.2399 16.2018 24.3024
Pd 19.47 9.4205 12.5288
Au 8.3911 7.79333 5.99452
Pd 18.4184 4.88317 12.0033
Au 6.73957 6.44083 17.6435
Pd 15.7846 19.8422 25.9157
Au 9.20496 15.6555 11.9606
Pd 17.4218 7.08576 22.8264
Au 14.2937 24.1223 14.4219
Pd 21.0484 9.66623 8.05417
Au 17.712 8.19183 4.73219
Pd 9.29836 8.20601 20.1127
Au 7.16193 17.6345 9.1235
Pd 9.50153 17.6621 22.792
Au 18.159 25.3093 10.9964
Pd 7.69486 9.17362 18.184
Au 10.8599 5.76789 20.6303
Pd 6.52027 10.6789 16.4253
Au 11.9434 14.6686 15.7571
Pd 19.336 20.2619 15.5909
Pd 11.9558 10.8545 16.0023
Au 14.4502 12.996 21.9273
Au 15.7484 17.1467 16.1259
Pd 18.4216 17.6689 15.5477
Au 11.1445 21.992 23.774
Pd 22.66 16.2318 13.8741
Au 11.0982 9.19143 17.9307
Pd 12.6373 15.9383 5.49226
Au 8.18453 19.2776 20.5459
Pd 6.71809 16.8858 13.6778
Au 6.70162 21.2036 22.3789
Pd 7.84953 10.5485 14.1199
Au 20.0024 23.5759 12.3706
Pd 6.50563 15.1093 17.9579
Au 14.5658 3.26342 14.906
Pd 21.7518 12.8586 22.5042
Au 13.4842 6.15026 7.06665
Pd 11.8065 8.9954 23.9524
Au 19.0859 21.0726 11.8516
Pd 19.5676 3.74439 17.1502
Au 25.6512 7.72478 16.7433
Pd 17.3347 24.0146 24.1407
Pd 23.6562 14.4483 15.5927
Au 8.00491 12.4204 18.3417
Au 9.09399 8.01963 12.9167
Pd 7.72525 21.3705 15.7117
Au 13.7075 9.52081 22.1912
Pd 14.5403 14.9253 15.0063
Au 20.5134 5.94021 15.8812
Pd 7.60415 16.7601 16.2314
Au 21.3339 23.867 10.1114
Pd 7.40556 20.5119 18.2806
Au 5.29128 12.2179 14.5404
Pd 5.14134 16.2799 19.9712
Au 20.9436 15.4104 26.0975
Pd 18.8566 22.6821 14.6471
Au 24.3307 11.9642 22.3402
Pd 23.0705 19.3415 9.80548
Au 14.0068 4.89144 9.59255
Pd 15.6975 13.8975 19.6163
Au 14.9208 16.7328 4.26187
Pd 11.4022 18.8819 7.62368
Au 11.1989 9.07877 11.6178
Pd 9.99865 12.3621 23.5709
Pd 5.32602 9.49979 14.3433
Au 20.2058 16.3289 4.22501
Au 11.2834 24.7526 10.9762
Pd 14.8279 26.7197 17.2808
Au 25.1342 11.6638 15.8109
Pd 13.8486 5.8014 14.7845
Au 19.1291 25.9276 23.2988
Pd 23.0325 18.1419 17.8697
Au 13.1088 27.3321 19.8551
Pd 13.4896 14.5303 12.4495
Au 7.42512 15.8244 5.73016
Pd 9.27862 23.5091 12.2884
Au 15.8841 17.2869 26.8513
Pd 27.8956 10.939 19.5048
Au 15.1374 12.0226 10.8299
Pd 12.7174 25.3234 18.119
Au 20.4319 8.05392 5.95963
Pd 14.8832 23.8922 17.1762
Au 14.3593 4.71684 12.3882
Pd 15.8614 16.7369 19.8213
Au 17.4008 12.5255 1.67274
Pd 8.91288 11.5216 8.92042
Pd 19.3895 6.80342 13.5679
Au 9.86106 10.8855 19.5281
Au 7.39511 10.3441 20.6
Pd 15.6252 21.97 15.482
Au 5.17359 16.9429 22.6674
Pd 18.2781 16.2944 12.235
Au 21.7139 9.82648 10.7
Pd 5.28516 9.5236 21.8574
Au 15.4988 7.9716 20.8922
Pd 13.2624 12.5353 14.3976
Au 18.4506 16.3958 26.5153
Pd 12.3036 23.5885 16.1336
Au 9.5437 16.2572 3.8063
Pd 21.9554 9.88761 13.382
Au 10.3859 16.8619 16.3219
Pd 16.9351 19.5595 20.3753
Au 21.2916 24.3885 22.8731
Pd 20.3142 11.8397 11.8878
Au 22.0948 25.8795 16.1534
Pd 15.4437 8.05312 2.93462
Au 15.6134 10.9985 23.3915
Pd 2.72188 14.7303 10.8665
Pd 15.7651 24.0965 21.916
Pd 21.6875 24.6304 18.3476
Pd 17.596 17.7407 18.15
Pd 26.9209 11.9335 13.7596
Pd 12.7321 17.2282 11.4277
Pd 14.6219 7.80306 13.1247
Pd 4.76835 11.3992 6.67135
Pd 7.4889 16.9151 21.3018
Pd 26.949 14.4178 12.4621
Pd 13.8934 23.0527 19.4785
Pd 23.5211 6.24018 16.0995
Pd 6.91986 20.0785 10.1295
Au 26.2778 10.0702 21.51
Au 10.9054 21.1694 26.2504
Pd 11.1103 13.8552 13.1705
Au 26.7493 19.7163 22.5354
Pd 5.49222 14.9915 15.4389
Au 22.8617 8.02618 9.3202
Pd 16.5498 18.0631 13.6657
Au 9.23666 9.28035 24.6014
Pd 24.1406 21.0709 11.657
Au 24.3151 24.8206 17.4058
Pd 17.5387 15.4815 7.79062
Au 13.3818 18.9127 3.72621
Pd 10.6544 18.8667 12.2392
Au 24.1709 14.7648 22.8567
Pd 25.1943 19.1022 13.1527
Au 8.56548 12.9188 13.0818
Pd 9.19045 14.8664 22.5895
Au 12.7084 26.1593 15.524
Pd 17.3082 21.8491 22.4037
Au 7.57617 6.58392 10.713
Pd 5.42722 10.727 18.8833
Pd 6.66703 15.9678 11.0932
Au 12.1318 24.7231 20.6557
Au 12.3175 3.73445 16.5056
Pd 11.9023 18.1659 26.4298
Au 3.95068 11.2195 9.32019
Pd 9.16369 14.6642 17.3016
Au 22.7598 23.3034 12.4649
Pd 11.6739 6.6433 18.2964
Au 26.8301 12.5854 21.4752
Pd 11.9044 16.1902 8.13374
Au 22.5461 18.7467 25.0481
Pd 21.0362 13.7247 15.9632
Au 3.20194 16.0517 14.9987
Pd 11.8075 6.95991 13.3723
Au 18.2003 6.65469 6.87117
Pd 6.37237 15.1086 8.52793
Au 18.5784 4.46574 14.7389
Pd 8.95363 15.2248 14.5553
Au 26.9893 21.043 12.012
Pd 22.6033 20.4805 6.97201
Au 13.4361 11.918 26.8049
Pd 3.12408 12.1625 11.57
Pd 20.0302 16.7082 6.97139
Au 3.87487 8.84977 19.6785
Au 20.7482 18.0052 26.8708
Pd 17.2302 23.2192 12.634
Au 18.8815 21.6046 20.2298
Pd 24.7571 19.0723 20.9492
Au 20.0112 27.2001 15.3197
Pd 14.5984 16.1306 7.54092
Au 13.1463 8.89981 6.74874
Pd 13.0226 11.5923 4.408
Au 12.4579 4.05741 19.1174
Pd 3.63233 11.2896 20.7699
Au 19.9494 6.58664 21.9529
Pd 14.9545 13.3938 1.27711
Au 22.568 7.68146 21.2512
Pd 22.8156 13.4279 24.8438
Au 25.9852 22.1506 18.3865
Pd 25.5675 22.8881 15.8718
Au 18.0672 10.4147 19.4296
Pd 8.6041 10.6715 11.5295
Au 8.12024 13.5802 7.10887
Pd 13.9011 26.1259 22.1414
Pd 9.30631 14.5008 25.2848
Au 17.1869 8.01059 9.04708
Au 16.9059 9.18418 24.8729
Pd 5.95722 13.1566 19.8066
Au 10.8446 14.1773 2.65662
Pd 13.9604 8.36203 18.5043
Au 15.4458 7.74323 15.8158
Pd 9.64328 17.4832 18.8896
Au 10.8224 16.1323 20.9366
Pd 9.04291 18.046 14.2092
Au 10.9602 5.89397 15.6685
Pd 14.1063 15.3602 9.98789
Au 19.4409 14.0818 21.6437
Pd 16.2282 16.9362 9.54851
Au 6.22553 12.4087 8.61827
Pd 21.2763 19.349 22.6863
Au 3.18344 8.41733 15.1809
Pd 5.58056 17.2056 7.05776
Au 15.9102 22.0441 8.34896
Pd 9.282 7.2405 17.3987
Au 12.2195 16.5946 2.92886
Pd 5.10137 13.796 10.7782
Pd 19.3206 8.74159 17.7644
Au 20.2971 25.9294 20.661
Au 17.0808 15.1023 0.78489
Pd 20.184 11.8122 20.2807
Au 18.6273 15.4476 23.8543
Pd 12.7581 9.53977 13.8272
Au 15.6243 12.2203 3.89851
Pd 5.34324 12.8921 17.2201
Au 17.6532 11.2515 13.5299
Pd 22.6085 14.6381 10.6953
Au 13.2147 26.1837 12.8026
Pd 15.0748 10.6901 13.3216
Au 9.89825 10.0727 22.1463
Pd 18.4597 20.2923 18.1037
Au 12.0014 4.08552 13.8783
Pd 21.0107 14.6562 8.39356
Au 16.1135 11.7065 17.917
Pd 18.6385 22.9794 9.95038
Au 18.2562 5.46895 9.40264
Pd 18.5632 20.5586 8.96625
Au 17.972 13.7408 26.3474
Pd 7.67815 8.28649 22.3357
Pd 17.2556 24.593 8.32812
Pd 11.4074 13.494 5.1888
Pd 16.7991 24.4515 15.1962
Pd 11.4656 22.8466 18.4943
Pd 16.2682 17.7336 6.39335
Pd 14.8297 9.69111 4.6938
Pd 17.7797 18.6357 10.8393
Pd 23.9766 9.73645 20.3096
Pd 24.3208 14.0431 12.9218
Pd 14.3289 19.5209 15.1255
Pd 7.41949 23.939 21.6745
Pd 10.9536 18.0347 5.14699
Au 11.5708 19.066 14.8259
Au 10.5099 10.9537 13.532
Pd 17.6292 22.6256 17.1009
Au 15.9739 23.188 6.06164
Pd 26.5949 15.2556 21.6598
Au 26.4449 9.39829 14.6509
Pd 11.0701 7.05436 6.32984
Au 23.8647 23.2467 19.6313
Pd 21.0784 18.2602 14.8183
Au 5.07765 7.64446 10.2464
Pd 18.6865 13.7119 13.1823
Au 20.0741 17.6287 24.3881
Pd 9.6087 24.1549 19.8524
Au 16.3745 5.13335 16.3001
Pd 16.6916 21.1089 10.8623
Au 11.5416 5.25167 8.72909
Pd 17.1538 15.3978 14.569
Au 9.37843 20.1954 6.17285
Pd 19.2316 16.54 9.67216
Au 5.98417 9.14135 5.48566
Pd 12.024 20.5287 5.47328
Pd 8.17204 12.6586 21.4577
Au 15.8985 12.5352 15.3165
Au 20.7897 21.908 8.36878
Pd 18.6109 18.3476 5.13703
Au 7.53924 8.16377 15.4613
Pd 23.6713 18.3516 15.1955
Au 8.45723 9.88158 4.45713
Pd 25.4241 22.8887 13.1194
Au 8.6008 11.7628 25.7264
Pd 10.0079 4.64296 17.8718
Au 25.599 18.4519 18.4264
Pd 22.2265 18.4565 20.3479
Au 17.7289 15.7498 5.17133
Pd 14.7379 24.859 24.348
Au 10.1194 7.37299 22.6285
Pd 21.9423 10.395 5.70051
Au 6.88628 11.9177 5.16633
Pd 21.409 15.2875 23.5124
Au 4.77884 19.0455 8.91079
Pd 24.5518 10.7621 13.2337
Au 18.789 11.051 25.4321
Pd 13.0587 6.85947 11.0893
Pd 17.3712 9.60946 22.0038
Au 17.2716 12.3194 21.2396
Au 23.366 22.0402 9.11553
Pd 13.6088 23.6099 11.9462
Au 12.9661 20.3551 22.4827
Pd 21.9993 7.26065 14.0583
Au 5.5134 21.626 8.70151
Pd 6.37185 14.2743 13.0964
Au 19.8055 20.5175 6.2138
Pd 5.62926 21.4471 19.9913
Au 11.501 24.3059 13.6742
Pd 9.96904 22.7918 9.74767
Au 10.7013 13.4416 8.14943
Pd 25.4723 17.3473 23.0301
Au 21.5119 23.2491 15.0304
Pd 13.8447 9.44577 11.1057
Au 4.8332 19.4568 18.3212
Pd 20.8131 19.0098 8.12309
Au 13.2926 23.2113 22.5733
Pd 18.2131 18.2521 7.9559
Au 9.0001 20.9035 11.4164
Pd 21.9638 10.443 16.1687
Pd 13.5873 6.23728 20.1372
Au 23.8382 24.4713 14.6872
Au 23.6539 23.3221 22.3814
Pd 12.1252 11.3672 6.94727
Au 14.9894 21.5858 12.9393
Pd 20.0037 7.46272 8.93793
Au 12.7485 14.0904 28.0274
Pd 10.3773 13.4838 20.2248
Au 15.7194 19.7335 23.167
Pd 17.1475 8.63073 13.7112
Au 12.6277 17.5116 19.3769
Pd 4.60411 18.3473 14.2371
Au 6.95786 17.7774 18.6221
Pd 6.94584 19.5944 7.27362
Au 12.7319 14.7743 0.951551
Pd 16.7216 23.2403 19.6452
Au 17.808 21.3161 24.9653
Pd 13.5484 14.2032 3.50542
Au 18.7351 23.9405 21.7361
Pd 15.0283 25.4485 19.6432
Au 16.556 26.4002 22.9343
Pd 20.9155 13.834 18.6626
Pd 27.1091 20.1491 19.8166
Au 15.546 13.5623 8.51984
Au 7.05291 19.7184 13.3818
Pd 21.0673 21.0042 13.6736
Au 22.007 16.9118 9.37479
Pd 14.19 10.5542 8.7263
Au 15.2415 22.1983 24.2731
Pd 13.5762 18.1593 9.14937
Au 18.3849 13.1837 15.9352
Pd 9.35508 20.4735 22.522
Au 12.038 25.2365 23.9402
Pd 24.3151 16.5799 20.501
Au 28.9673 18.1677 15.7668
Pd 14.9211 10.6964 1.90561
Au 20.0849 11.5793 14.5791
Pd 15.8916 19.4129 8.69348
Au 9.27856 17.5174 25.5426
Pd 7.7822 13.4782 10.5727
Au 19.3155 8.82283 23.8195
Pd 21.272 12.1168 9.2715
Au 11.1516 19.1876 24.1926
Pd 27.9015 16.2778 14.1571
Pd 8.28668 14.9769 19.8488
Pd 4.33478 16.1898 12.4886
Pd 13.1567 13.8764 7.19482
Pd 23.4066 10.536 7.96677
Pd 12.6648 11.6909 11.9948
Pd 17.2985 13.1433 6.4621
Pd 21.2399 23.102 20.4576
Pd 15.2047 14.4211 5.6465
Pd 15.1977 18.6244 11.4147
Pd 16.3143 4.07158 10.6112
Pd 19.1709 24.0751 18.963
Pd 15.881 6.63342 11.0166
Au 12.787 9.48455 2.78648
Au 4.37597 16.4712 9.66561
Pd 10.0639 15.4316 6.30004
Au 23.1391 22.5289 17.0832
Pd 22.9176 17.3235 22.6891
Au 5.13567 21.0931 14.6231
Pd 11.4864 15.315 18.4089
Au 11.7468 7.9121 8.95205
Pd 27.6228 12.6105 16.7051
Au 18.7595 13.1625 8.69169
Pd 13.9471 17.249 13.763
Au 11.1342 10.9106 25.7609
Pd 15.6334 16.0613 12.1368
Au 25.8612 21.7887 9.75805
Pd 15.9711 13.4995 12.854
Au 14.8115 16.2325 1.6768
Pd 11.6492 24.5757 8.19776
Au 7.27192 13.3804 24.0346
Pd 8.37228 5.86708 19.62
Au 26.7119 20.8686 14.6091
Pd 18.3731 15.6899 19.7538
Pd 10.5808 26.5799 19.2193
Au 9.22472 10.6784 16.5625
Au 3.76057 14.9666 18.0053
Pd 13.9481 5.72065 17.4102
Au 16.5584 9.55828 11.2004
Pd 25.2602 14.8981 10.4388
Au 20.4288 18.9376 10.6951
Pd 13.0394 13.4001 19.5986
Au 15.0534 21.457 21.1326
Pd 21.9915 10.3698 21.8994
Au 16.8835 11.0815 8.50134
Pd 12.7576 6.86803 22.5401
Au 16.5734 14.8056 17.2381
Pd 11.0678 12.6406 17.8067
Au 22.2023 14.9181 20.893
Pd 10.8981 15.7206 26.9784
Au 13.4539 21.3014 17.0329
Pd 7.15109 22.4324 13.3444
Au 25.7937 12.3044 11.2871
Pd 22.0205 20.2648 16.334
Au 5.48723 12.1935 22.2991
Pd 6.91515 7.74448 8.22271
Pd 13.7149 15.5683 20.9198
Au 11.9113 8.51206 20.5046
Au 15.24 10.6962 20.2698
Pd 23.8907 8.82714 15.0381
Au 8.9773 8.74434 9.7962
Pd 19.7451 14.2335 6.051
Au 14.088 9.82416 25.2927
Pd 9.05964 17.6111 7.30091
Au 8.05485 18.2581 4.98115
Pd 7.52406 13.1763 15.6821
Au 24.0382 12.7586 9.17442
Pd 19.0938 9.99197 9.86955
Au 13.5531 15.8918 26.3184
Pd 23.0386 12.4931 17.4506
Au 12.9235 22.8614 9.43919
Pd 17.2172 10.7243 5.54423
Au 4.78196 17.1656 16.8763
Pd 17.7707 17.3106 21.781
Au 27.7149 15.6364 16.7523
Pd 21.3035 25.4923 13.6454
Au 16.6196 3.32933 13.2652
Pd 18.5537 25.5835 13.6519
Pd 22.7404 21.055 21.3415
Au 5.27825 21.1602 11.8482
Au 13.6768 18.3823 6.30302
Pd 6.3041 14.6876 21.9323
Au 16.1684 19.1023 4.0542
Pd 26.5971 16.9839 11.6914
Au 12.8951 23.1798 25.4862
Pd 7.46583 10.7711 23.3616
Au 9.0384 15.4367 9.06861
Pd 7.41329 16.1806 24.0533
Au 6.67842 23.6255 19.0428
Pd 13.5796 25.5999 10.1715
Au 13.0499 17.1454 16.2613
Pd 10.1178 12.8394 15.3716
Au 16.9438 27.7505 18.53
Pd 3.76044 10.7241 16.5604
Au 15.5989 27.7565 20.8098
Pd 5.38523 18.4102 11.536
Au 11.1063 22.0525 21.053
Pd 6.94901 23.9099 16.2965
Au 5.44396 21.8866 17.193
Pd 17.381 12.9743 23.8873
Pd 3.61327 13.8978 13.3822
Au 17.3524 3.70855 18.6039
Au 14.6854 20.88 5.39569
Pd 7.43121 10.2412 7.22905
Au 21.2185 20.6182 19.0295
Pd 15.8583 8.95639 7.01036
Au 24.4644 10.1158 10.3374
Pd 8.37012 21.93 20.4084
Au 23.6754 15.1257 8.04763
Pd 19.9851 8.90929 15.134
Au 17.5086 27.0271 15.9426
Pd 17.0925 25.2167 17.7947
Au 19.4716 26.6759 18.0669
Pd 19.4545 24.7594 16.2152
Au 5.05418 8.47938 17.3055
Pd 8.21138 18.1405 11.5391
Au 5.53591 18.9176 20.9272
Pd 15.5671 6.85632 5.51093
Au 26.2836 14.1832 15.0017
Pd 22.4903 19.0278 12.6195
Au 13.099 19.6808 12.6176
Pd 16.2192 11.5408 26.1413
Pd 11.0149 21.7218 7.66106
Pd 22.3094 12.8635 6.87717
Pd 19.9351 9.12592 21.1114
Pd 15.3374 17.1071 22.6026
Pd 8.43545 22.5951 23.8471
Pd 26.3625 15.9167 19.0161
Pd 10.2816 6.54787 10.8908
Pd 24.8123 13.9177 20.271
Pd 3.10168 13.3438 15.8907
Pd 26.4994 9.72467 12.0001
Pd 17.6681 10.2513 16.052
Pd 3.7964 14.0581 20.7365
Au 9.2978 23.5104 15.0284
Au 21.8573 5.20563 18.013
Pd 28.1457 17.8594 18.2794
Au 14.0709 18.0101 24.7773
Pd 8.84308 22.8067 17.722
Au 23.8858 17.0052 11.5562
Pd 10.9691 19.0424 20.8927
Au 22.9611 12.1091 11.5701
Pd 15.7346 21.1272 18.4168
Au 19.4903 18.774 20.1637
Pd 13.5464 20.616 7.85215
Au 13.1722 7.46786 4.49556
Pd 18.4431 12.6371 4.12795
Au 24.94 19.8899 8.05332
Pd 24.8635 20.3212 16.5396
Au 22.8354 25.3563 20.7915
Pd 11.8409 13.9695 22.3801
Au 11.4424 15.0717 10.5747
Pd 11.1751 9.46628 4.92948
Au 18.3319 19.1216 26.568
Pd 13.1332 10.8861 18.5617
Pd 14.621 24.5481 8.03215
Au 6.66811 8.76694 12.1699
Au 3.01605 11.0034 13.9819
Pd 16.0788 6.21197 18.8592
Au 23.7773 8.29759 12.1629
Pd 16.5557 14.8518 22.0065
Au 17.8156 12.0904 10.9969
Pd 18.0192 7.26354 15.8249
Au 9.26136 6.50756 8.28549
Pd 21.3338 18.4524 5.43979
Au 10.2621 25.0919 16.9735
Pd 12.9543 12.9512 9.6511
Au 22.8123 12.2508 14.4664
Pd 19.9218 15.7897 14.4256
Au 17.0887 2.64822 16.0244
Pd 9.22071 19.8137 8.9095
Au 19.2195 15.5809 17.1227
Pd 16.715 19.67 16.2863
Au 5.28625 6.66642 15.3622
Pd 20.279 20.3091 25.0911
Au 11.6485 20.1542 9.99507
Pd 13.2785 20.5298 25.2145
Pd 16.5542 5.98921 13.6463
Au 15.0804 4.003 20.081
Au 13.8083 13.0537 17.0377
Pd 20.9426 16.4776 19.0868
Au 20.7744 7.16094 19.3939
Pd 26.1325 8.71019 19.2143
Au 11.5173 10.621 9.46801
Pd 12.6072 17.5939 22.4293
Au 23.1945 17.7977 7.13522
Pd 14.1588 15.5813 18.0668
Au 25.8373 19.2265 10.5103
Pd 12.6324 21.7109 14.3376
Au 10.0628 9.36548 7.3791
Pd 17.1021 20.3703 6.42959
Au 18.281 13.2075 18.7865
Pd 21.8208 16.2699 16.4436
Au 12.5988 12.1585 1.8294
Pd 11.9809 13.7353 25.2525
Au 7.20216 22.7346 10.544
Pd 18.5769 9.31025 7.22034
Au 21.1681 7.33455 11.4702
Pd 11.856 4.50626 11.3299
Pd 8.10102 25.6569 18.341
Au 16.0233 26.3129 9.85091
Au 20.9514 16.6298 11.9552
Pd 21.4289 14.0039 13.1067
Au 6.42109 10.0124 9.79971
Pd 10.3006 8.61333 15.175
Au 4.69701 9.07463 7.88337
Pd 11.5154 21.9937 11.9122
Au 9.7125 20.9707 13.9045
Pd 7.02325 6.34018 13.3668
Au 10.4288 11.5604 3.39976
Pd 14.167 20.8784 10.4494
Au 8.75897 13.7087 4.37356
Pd 19.7844 23.159 24.6649
Au 10.3671 12.6537 10.9046
Pd 20.3351 16.8053 21.7058
Au 15.3836 14.0567 27.2021
Pd 10.4004 17.5927 9.90222
Au 18.4347 22.6197 7.12565
Pd 12.8638 20.5309 19.5508
Au 19.0112 14.6829 2.5953
Pd 15.2098 5.62618 22.1842
Pd 24.1855 19.8978 23.3344
Au 7.10711 18.7827 23.359
Au 27.8784 18.7929 13.2809
Pd 19.8863 14.2786 10.8582
Au 20.1766 21.7438 22.5635
Pd 24.1221 9.35974 22.9912
Au 3.85214 13.8726 8.45533
Pd 9.07621 19.1642 16.6725
Au 13.2117 22.9132 6.54164
Pd 22.1387 15.4912 5.90829
Au 13.7297 15.3232 23.6282
Pd 12.7033 11.6118 23.7118
Au 17.2137 17.8883 24.4972
Pd 18.4168 7.44322 11.2541
Au 24.1193 9.7611 17.5921
Pd 8.77398 20.1523 25.0504
Au 10.683 21.3812 16.3248
Pd 15.2201 26.642 14.6694
Au 19.6473 10.1593 4.41579
Pd 21.5504 21.3506 10.9764
Au 25.4305 21.6718 21.2457
Pd 11.3397 16.4926 13.6668
