665
Atoms. Timestep: 20705
Pd 17.5548 3.37221 16.2862
Pd 11.7401 14.2632 10.1853
Pd 19.1452 8.17007 7.43468
Pd 17.65 12.9074 20.3214
Pd 3.62512 17.6883 8.87142
Au 13.3527 26.3414 11.041
Au 15.9635 22.1601 6.87075
Pd 17.1196 19.4944 19.5046
Au 8.69173 21.2357 15.5905
Pd 14.0017 10.04 22.8837
Au 12.7216 11.7829 6.15725
Pd 13.1471 6.68341 6.92287
Au 10.9864 9.98876 15.4005
Pd 10.655 15.0189 15.637
Au 9.2236 5.76418 18.6571
Pd 12.998 14.475 2.76228
Au 11.1446 21.7503 6.675
Au 23.558 13.224 13.5859
Pd 17.2887 10.722 16.6915
Au 22.0106 10.9285 19.4734
Pd 3.77859 20.7255 15.2293
Au 25.5102 17.9217 5.63425
Pd 11.2133 11.9992 17.242
Au 7.8109 7.64965 10.7558
Pd 12.6762 5.13297 14.6626
Au 19.1384 3.65166 11.1848
Pd 5.61162 16.6996 10.7484
Au 10.7048 26.2241 17.6205
Au 27.5927 16.9672 15.1755
Pd 18.804 8.15176 21.0262
Au 4.30679 12.7049 9.48212
Pd 13.42 11.0973 14.8955
Au 15.8691 13.3762 28.124
Pd 20.4689 11.4957 23.829
Au 20.8099 9.88493 21.6933
Pd 9.29998 16.671 12.0659
Au 13.6564 2.92677 20.1129
Pd 13.2465 21.7596 13.6062
Au 11.536 19.1654 7.49879
Au 20.3158 16.818 16.0267
Pd 13.1919 23.4575 7.2536
Au 12.1035 14.2821 5.25459
Pd 6.57048 20.1566 21.5491
Au 11.606 13.3884 20.1966
Pd 10.4103 18.0916 16.069
Au 18.9776 5.75649 12.9054
Pd 24.3989 19.8687 7.26996
Au 21.4025 13.9339 8.73956
Pd 17.2793 4.55197 9.50049
Au 8.83854 14.18 23.6414
Au 22.8703 12.2679 24.7313
Pd 18.8035 18.669 17.4109
Au 22.5333 23.6498 17.1091
Pd 16.134 17.1329 23.2318
Au 24.4534 10.0125 18.4639
Pd 15.5488 9.37494 15.0816
Au 13.3494 19.2634 21.9396
Pd 19.9968 18.7334 24.0846
Au 14.7876 21.3633 20.5477
Pd 14.6535 20.1107 24.2295
Pd 19.8194 15.5236 10.5971
Pd 22.6047 6.45445 10.4461
Pd 17.8099 14.677 26.7026
Pd 23.2509 8.99903 20.7867
Pd 16.4576 5.47079 17.4732
Pd 15.482 22.6271 9.36446
Pd 21.3059 7.15031 21.5872
Pd 8.77525 24.9869 8.99817
Pd 15.3422 10.6017 5.46024
Pd 16.6092 4.92454 14.1193
Pd 13.242 11.5626 19.3026
Pd 16.6068 9.49184 18.992
Au 20.7193 17.3663 5.52331
Au 11.1173 6.01345 23.6918
Pd 14.281 14.9514 10.8798
Au 8.37451 5.96993 15.9711
Pd 11.6535 10.2546 12.7991
Au 24.4486 10.5872 10.3318
Pd 5.79599 22.6072 7.75494
Au 19.2784 7.25849 25.8346
Pd 26.7528 9.9855 17.1109
Au 18.5601 21.4547 4.72328
Pd 24.8233 14.991 11.7066
Au 5.87479 16.0661 15.1285
Pd 13.0345 5.78586 17.1627
Au 11.1245 14.1068 25.186
Pd 9.44488 24.9422 14.0708
Au 21.9729 14.4963 11.7015
Pd 24.3633 14.266 21.6664
Au 10.9323 12.4533 22.8553
Pd 24.2787 11.0464 15.8614
Au 8.92733 12.9547 27.4002
Pd 26.2979 9.48198 9.03914
Pd 27.9848 11.9488 13.0661
Au 8.01123 17.7208 25.0758
Au 7.62715 7.23129 20.5533
Pd 10.8171 19.1431 11.8967
Au 13.8847 5.58112 24.0624
Pd 23.4275 6.23797 12.9641
Au 15.3271 12.635 25.52
Pd 5.24819 12.361 16.6577
Au 5.00511 17.8659 6.36714
Pd 5.10786 18.5401 16.0818
Au 9.41205 11.9354 25.0161
Pd 10.0214 12.3372 5.34828
Au 12.9117 21.3828 8.83103
Pd 20.9228 7.46635 12.4612
Au 5.74176 13.7687 19.0056
Pd 9.96375 8.4249 19.8458
Au 18.3082 17.0171 6.76126
Pd 26.8404 16.789 12.4463
Au 22.0916 21.4676 18.7131
Pd 21.0519 7.23481 16.7717
Au 22.9278 11.8414 21.8908
Pd 10.6198 22.4411 13.9173
Pd 17.1239 14.8951 14.8202
Au 18.9954 5.52343 7.73033
Au 12.0086 19.1351 26.9817
Pd 7.50775 11.9575 18.0494
Au 4.20254 15.9115 12.9101
Pd 16.5558 15.0202 19.033
Au 18.8924 4.25377 18.367
Pd 14.9098 17.6274 10.7486
Au 10.7117 4.6002 16.597
Pd 7.15655 10.6699 15.5446
Au 18.1005 12.416 25.1808
Pd 10.33 17.8955 9.66892
Au 7.27978 14.5395 16.8477
Pd 23.2615 7.61379 18.309
Au 6.6312 11.5001 9.09895
Pd 13.0767 12.5656 12.2352
Au 16.9864 6.67696 6.42937
Pd 20.7443 24.7522 10.5584
Au 12.4033 24.5597 22.3703
Pd 15.9038 8.67914 12.2268
Au 6.96895 20.7196 9.31396
Pd 19.0513 10.005 25.7286
Pd 17.089 23.8778 13.5224
Au 22.3494 14.1835 19.9037
Au 18.9631 19.267 26.5551
Pd 10.9831 22.7775 23.6654
Au 13.6631 16.6951 4.10805
Pd 8.17408 14.081 7.95165
Au 16.1605 26.0104 15.2576
Pd 19.409 14.5786 18.9262
Au 19.5292 23.4505 12.5753
Pd 11.0384 16.5156 3.79141
Au 7.21767 22.7944 20.7596
Pd 12.0173 16.6284 6.40664
Au 13.2334 26.6014 16.3651
Pd 16.1768 17.1924 5.06631
Au 6.31834 7.99351 15.5277
Pd 18.8844 3.42128 13.9624
Au 8.02694 18.8504 10.9785
Pd 11.4839 19.9259 14.4718
Au 9.79927 6.00804 11.6315
Pd 19.4212 20.6217 22.292
Au 18.5626 12.3923 27.9468
Pd 4.89086 11.0577 22.0459
Pd 19.7915 12.0248 7.59111
Au 21.3708 6.75736 8.06859
Au 7.5363 24.5081 6.76948
Pd 6.77618 25.2783 14.0692
Au 21.6424 19.298 26.0006
Pd 13.0152 16.4554 20.588
Au 22.9022 16.5399 21.2165
Pd 13.0549 21.6374 18.5958
Au 11.254 25.0711 20.0081
Pd 14.1545 16.5258 18.2065
Au 6.54062 17.4001 20.8049
Pd 8.68176 15.2668 26.0728
Au 25.6618 20.627 9.72797
Pd 13.0515 9.20034 6.29375
Au 17.4268 14.0136 11.1436
Pd 20.07 10.2602 12.209
Au 24.6316 16.9778 23.2352
Pd 15.4166 25.286 9.7493
Au 15.6984 17.2113 20.4684
Pd 26.7288 10.0919 14.5451
Au 11.8576 9.52639 18.2589
Pd 9.54306 13.8101 18.2726
Pd 16.7662 14.7671 24.2293
Pd 23.2644 12.5553 17.9496
Pd 14.3965 13.175 4.68496
Pd 16.217 9.73487 9.77436
Pd 21.5647 9.3862 7.29444
Pd 16.7498 6.10371 11.5541
Pd 10.8679 13.2439 7.66075
Pd 8.62986 18.9299 7.97285
Pd 14.3762 19.553 15.2229
Pd 14.2781 10.7814 8.20863
Pd 25.6526 12.5168 11.8709
Pd 8.09655 10.2487 11.0379
Au 13.9382 17.5291 27.924
Au 13.3154 16.5199 8.75229
Pd 9.26524 11.9865 9.34152
Au 17.0986 19.9051 15.7083
Pd 20.9318 18.2914 21.5757
Au 17.6033 11.2297 11.4592
Pd 3.50525 17.4705 17.8945
Au 22.3182 11.6469 11.725
Pd 14.8098 24.6367 17.3031
Au 6.18803 24.6158 9.41721
Pd 19.4885 9.41446 17.2327
Au 5.82401 15.5181 5.37281
Pd 17.2446 21.9735 11.3994
Au 8.22913 16.1549 4.00645
Pd 23.948 17.1179 7.49276
Au 16.6912 3.36962 11.9284
Pd 8.8343 8.48934 15.1028
Au 16.1438 16.18 28.6016
Pd 6.61471 15.5657 24.2503
Au 24.4539 10.5721 13.2641
Pd 17.3931 19.2882 24.2773
Pd 7.70688 9.75775 19.6513
Au 7.75153 18.6396 16.3306
Au 21.8843 11.1529 9.16131
Pd 8.59615 16.313 22.1571
Au 6.1976 18.2291 8.64677
Pd 25.128 14.5213 18.8936
Au 23.9058 14.7101 24.2314
Pd 16.9569 19.3773 10.629
Au 14.2974 3.59409 13.1545
Pd 15.5482 17.0523 15.2318
Au 25.1477 7.72302 10.8982
Pd 21.8808 15.1678 14.3285
Au 14.942 14.9273 21.9105
Pd 10.8059 10.5082 7.5954
Au 22.6633 8.11966 14.6674
Pd 12.7751 19.0729 9.97587
Au 24.5826 20.8179 19.3827
Pd 23.0956 16.5984 4.15036
Au 25.9475 12.7797 14.673
Pd 9.69518 15.0716 5.92153
Au 11.5082 4.39505 19.2363
Pd 20.9506 8.50242 19.2858
Pd 24.1536 14.3648 16.2709
Au 18.5719 10.8263 3.40064
Au 18.4126 21.3971 17.8354
Pd 18.3094 17.0616 19.4758
Au 15.9907 18.8075 13.1075
Pd 22.3658 19.7355 12.0368
Au 21.012 4.50381 16.8424
Pd 14.6796 19.1975 4.10512
Au 16.2956 8.94468 21.6751
Pd 6.06443 18.004 23.2583
Au 11.2771 17.2003 13.7874
Pd 12.2158 11.7138 9.62654
Au 13.4999 12.6246 22.0732
Pd 5.32583 15.6723 8.10872
Au 27.21 16.2597 18.6662
Pd 15.9095 14.7425 8.75043
Au 26.6742 9.80123 11.7926
Pd 15.6108 25.897 12.4857
Au 7.09587 20.1195 24.4296
Pd 22.3331 12.4602 6.6848
Au 18.0433 14.5711 29.3818
Pd 23.5453 16.5589 18.5164
Pd 7.70746 7.78154 17.8401
Au 9.7338 17.7666 5.83692
Au 21.422 21.1267 24.0057
Pd 9.07212 13.4466 21.0799
Au 27.7597 14.2995 11.6553
Pd 6.5276 20.1696 6.6542
Au 5.29197 8.96741 20.1474
Pd 19.7059 10.1316 5.68292
Au 15.8488 21.5293 13.857
Pd 7.22346 11.933 23.2504
Au 19.6984 6.13584 10.207
Pd 20.6279 20.739 8.82892
Au 10.3901 15.7324 8.39683
Pd 22.1139 9.87274 16.9117
Au 7.80749 6.66526 13.3986
Pd 13.1223 23.8098 10.002
Au 13.3013 21.4491 3.62782
Pd 7.98831 16.4466 9.55693
Au 21.1975 5.62557 14.4973
Pd 10.0679 7.87381 25.3358
Au 22.7683 18.8787 19.5877
Pd 12.5456 5.87406 9.42234
Pd 11.9052 21.6186 11.3529
Au 13.3252 18.976 12.7454
Au 13.3731 9.92058 3.73797
Pd 17.958 16.0545 16.9996
Au 19.9109 19.5043 15.0952
Pd 12.5958 8.61658 8.85798
Au 26.6281 19.264 16.3385
Pd 21.8602 10.5232 14.178
Au 13.9143 11.3842 27.5978
Pd 9.30098 7.99665 22.6611
Au 7.10722 23.6215 16.1059
Pd 14.3966 6.27682 12.7857
Au 15.8657 23.6038 21.6043
Pd 11.3308 12.0088 27.0681
Au 20.5953 16.4463 8.16672
Pd 22.2857 15.2769 6.32089
Au 17.669 24.6844 10.9895
Pd 17.722 20.9456 8.58677
Au 20.3365 12.627 20.8098
Pd 17.9348 12.7519 13.644
Au 9.05706 20.7916 20.5504
Pd 18.8584 13.5486 22.8115
Pd 19.8236 12.6423 10.5564
Pd 21.122 17.9192 10.5557
Pd 11.9938 19.0559 4.76746
Pd 14.7592 22.5232 25.472
Pd 11.5036 19.7691 19.9349
Pd 14.6316 4.60976 10.6416
Pd 27.9115 16.426 9.87746
Pd 26.434 16.0236 7.5457
Pd 15.0476 4.28974 21.993
Pd 25.508 16.5108 20.6912
Pd 24.917 12.651 5.9456
Pd 18.6534 24.9113 15.3089
Au 12.917 16.8578 15.8904
Au 15.5924 27.1796 17.5699
Pd 8.9976 12.6119 15.8801
Au 28.1063 12.0631 15.8737
Pd 17.0828 14.6824 5.88393
Au 12.0107 9.35556 26.5688
Pd 25.4889 16.7474 16.7824
Au 25.3343 20.7681 14.3959
Pd 18.2113 20.3023 13.2415
Au 16.5631 16.2284 12.5422
Pd 9.58494 8.55616 12.5172
Au 19.8284 8.50387 14.6828
Pd 10.3284 16.6793 24.2182
Au 24.8236 12.0909 20.0915
Pd 27.3843 19.1528 13.6096
Au 8.91975 19.0509 13.8186
Pd 23.5172 8.44168 8.93956
Au 21.6541 16.4292 23.6808
Pd 8.70086 18.893 22.6528
Au 18.9914 21.5239 24.8577
Pd 14.831 3.9563 15.8307
Pd 12.2216 6.9887 19.4031
Au 24.0397 10.5152 7.42079
Au 10.7092 7.97265 6.88677
Pd 9.11157 20.3459 5.79827
Au 16.9954 6.09181 22.3515
Pd 16.6211 21.7198 23.345
Au 5.79744 13.2379 7.1603
Pd 9.21472 21.162 12.0189
Au 4.57518 15.8781 22.5114
Pd 6.22532 16.9268 17.9693
Au 22.3259 14.6696 26.2724
Pd 8.18995 9.66369 24.4839
Au 17.6797 21.7301 20.6914
Pd 21.4472 23.335 8.38729
Au 6.57069 17.8184 13.1085
Pd 10.6276 9.73142 10.3152
Au 9.07101 18.1007 19.8785
Pd 11.265 7.36855 14.1787
Au 11.8712 12.1171 3.45274
Pd 10.0258 5.07423 14.056
Au 5.03782 13.3925 23.655
Pd 19.9337 19.8171 19.6216
Pd 17.7979 10.0973 13.8846
Au 16.6038 6.88139 19.8318
Au 21.0011 8.61398 9.96592
Pd 16.7693 21.0195 26.1548
Au 5.10555 11.3506 13.9708
Pd 12.0087 22.2026 21.0448
Au 13.4049 26.446 19.055
Pd 10.731 23.0611 9.14579
Au 15.4943 11.2878 20.762
Pd 18.742 17.8504 11.9544
Au 10.8361 26.9433 15.0504
Pd 14.5789 23.5064 4.93573
Au 21.3599 5.80425 19.1473
Pd 21.9756 12.6664 15.6781
Au 21.0294 23.944 14.936
Pd 14.0296 18.2998 6.55495
Au 9.46454 10.076 26.8252
Pd 15.4861 20.7235 17.6865
Au 16.9065 8.36809 26.2498
Pd 13.9329 9.07862 20.1283
Au 17.1944 7.99303 16.7114
Pd 11.5338 17.5004 18.4939
Pd 10.9668 20.3754 22.6614
Au 15.7769 12.4152 15.3652
Au 17.3937 12.2675 8.9258
Pd 13.686 14.3341 24.2559
Au 27.442 18.8987 10.8149
Pd 13.7042 20.9212 6.15808
Au 24.0896 21.8267 11.8729
Pd 18.3145 18.1896 21.8175
Au 14.9993 6.66901 15.3881
Pd 24.248 14.3843 7.80211
Au 20.2258 22.5157 20.2817
Pd 9.7403 19.9245 17.8828
Au 4.63994 11.3806 19.3082
Pd 8.98551 11.0144 13.6526
Au 20.9631 17.6808 13.436
Pd 25.0529 18.0936 14.457
Au 18.7974 23.3159 22.6981
Pd 20.0266 14.3421 25.0508
Au 17.3428 23.7847 5.45464
Pd 17.9421 12.1564 5.67101
Au 24.8147 8.39935 16.2172
Pd 16.322 2.28582 14.2894
Pd 12.5537 5.05434 21.6013
Au 19.4677 6.08061 23.4041
Au 17.5379 15.4068 21.4997
Pd 5.12466 19.2674 10.9675
Au 15.8607 15.0309 3.46231
Pd 10.9246 9.91527 4.93197
Au 20.8744 16.9731 18.9337
Pd 27.5793 11.8311 10.3008
Au 21.7573 9.97674 25.7933
Pd 15.6458 12.7175 6.99584
Au 17.5518 24.1032 8.28222
Pd 15.4487 7.84389 23.9249
Au 19.2798 15.3492 13.1805
Pd 13.1549 25.8487 8.29282
Au 7.92687 22.9213 10.3983
Pd 7.22445 18.4363 4.84106
Au 10.1026 17.4338 26.7741
Pd 20.5354 12.8605 13.2987
Au 16.031 19.513 21.9456
Pd 19.2019 22.7649 9.83794
Au 12.0948 6.38914 26.1698
Pd 16.1641 18.012 17.581
Pd 13.371 14.2719 14.8313
Pd 22.7638 18.9038 23.4813
Pd 14.8081 17.933 25.4622
Pd 4.20999 13.456 21.1259
Pd 23.7312 13.1433 9.97935
Pd 17.4243 16.5497 10.0296
Pd 18.3523 18.7854 4.29305
Pd 21.3449 4.73052 12.0189
Pd 20.9584 15.0881 3.72194
Pd 12.1979 4.9686 12.0293
Pd 17.5181 25.1559 17.6247
Pd 12.1572 16.7671 11.2027
Au 3.60254 15.141 10.2292
Au 6.49923 21.2329 12.0313
Pd 5.88213 9.74664 17.621
Au 19.824 23.6124 17.5466
Pd 12.5106 16.3948 25.91
Au 25.4125 17.0368 10.0635
Pd 7.99413 21.9828 18.2486
Au 23.357 23.8741 10.1913
Pd 19.6402 20.2641 11.1486
Au 19.3386 22.5148 6.9981
Pd 7.61454 16.5737 6.8875
Au 10.0728 5.94275 21.1358
Pd 21.4681 19.0596 17.2551
Au 5.74022 23.8965 11.9642
Pd 12.8293 11.7221 24.8509
Au 21.6928 14.8483 17.3284
Pd 12.8314 8.04921 24.3203
Au 15.2045 5.61515 8.20248
Pd 15.3368 14.7637 16.7171
Au 14.3555 20.2186 26.9436
Pd 23.2387 22.4175 14.4876
Pd 25.0424 19.1342 12.022
Au 14.6177 6.97635 26.2988
Au 8.55826 22.2654 7.67582
Pd 6.93566 15.2192 12.5194
Au 11.2702 12.5694 14.4569
Pd 17.271 10.1221 7.28798
Au 13.3068 26.5429 13.7254
Pd 10.39 15.7366 20.092
Au 17.1616 23.7405 24.822
Pd 12.2927 24.0782 17.7133
Au 4.34672 20.2186 8.22685
Pd 15.5747 3.01785 18.1904
Au 6.911 19.4695 18.7881
Pd 18.582 14.5718 8.38993
Au 16.6031 22.994 16.1447
Pd 23.2347 21.4727 9.02089
Au 16.06 25.7593 19.7627
Pd 13.603 12.8268 16.9854
Au 24.6014 19.0005 21.4589
Pd 15.3766 24.8795 7.08927
Au 20.7569 8.38996 23.9529
Pd 19.0217 10.1223 9.36254
Pd 16.4602 18.6676 27.5349
Au 10.1818 7.25297 9.35284
Au 18.9558 10.6154 19.5349
Pd 19.1949 5.49606 20.7858
Au 4.01887 18.6752 13.5336
Pd 17.8331 13.2895 17.1186
Au 10.376 12.2915 11.7207
Pd 19.5863 11.3738 15.3987
Au 10.8072 14.9238 27.6922
Pd 24.0785 19.0823 17.0772
Au 18.4402 8.31566 11.4688
Pd 4.79876 13.4042 12.1204
Au 9.80567 19.8147 25.0793
Pd 15.3566 13.8496 13.0424
Au 26.5335 18.5607 8.19728
Pd 22.9733 8.893 11.8615
Au 18.321 24.4072 20.1961
Pd 9.11916 10.5961 21.9333
Au 14.0682 18.9958 19.2982
Pd 17.336 7.47125 14.0819
Au 13.0036 8.34383 16.0787
Pd 26.6866 21.2182 12.0988
Pd 11.0505 17.7587 21.8405
Au 7.95941 20.8699 3.57344
Au 19.7835 14.3977 6.02708
Pd 21.53 22.1265 10.9653
Au 11.9785 24.4458 15.1358
Pd 21.6763 13.9281 22.864
Au 6.81417 9.25003 13.1732
Pd 17.307 7.29869 9.15179
Au 9.269 23.1408 5.07416
Pd 13.81 23.9497 19.9571
Au 25.2829 8.02506 13.5536
Pd 21.8688 21.2081 6.52085
Au 15.1877 15.4806 26.2641
Pd 20.9313 21.4256 13.4761
Au 11.7606 10.4149 21.2017
Pd 9.11026 16.4504 17.5785
Au 19.4052 19.7019 6.63141
Pd 7.91322 22.9302 13.4966
Au 20.2176 14.6997 27.8716
Pd 11.9054 7.8899 21.8837
Au 6.78985 22.3952 5.30151
Pd 5.30482 21.4505 19.48
Pd 13.9337 22.2197 16.1327
Au 8.55814 9.28912 8.50492
Au 12.9865 3.13147 17.4989
Pd 9.1258 14.0503 13.5252
Au 5.35945 10.839 11.3523
Pd 26.262 14.3223 9.57413
Au 23.1164 13.7151 4.3402
Pd 15.8328 12.3213 18.371
Au 18.6645 13.665 3.4805
Pd 14.4902 9.67373 25.7158
Au 27.0597 14.5689 16.6477
Pd 18.1055 17.5401 14.5796
Au 23.2094 17.1542 25.6307
Pd 9.53951 18.7517 3.43248
Au 20.7925 12.2854 26.539
Pd 12.163 18.6885 24.3989
Au 8.6431 24.6172 18.9192
Pd 10.067 20.5765 9.5009
Au 22.3143 24.0498 12.6073
Pd 13.7036 9.94556 10.9961
Au 13.7102 22.251 23.015
Pd 18.7571 5.782 15.8051
Pd 10.6874 21.2177 3.84825
Pd 14.5485 24.1446 14.4394
Pd 22.9743 17.0186 15.7686
Pd 10.4736 22.5156 18.9435
Pd 25.7507 18.4619 18.9591
Pd 11.5464 15.0228 22.4667
Pd 4.73068 22.1224 10.1663
Pd 14.4957 10.2489 17.3512
Pd 21.228 21.5304 16.2372
Pd 14.4037 5.2707 19.3936
Pd 17.0124 6.01254 24.9823
Pd 16.2658 23.0501 18.8597
Au 3.86061 21.2261 12.578
Au 7.75808 15.3654 19.591
Pd 14.1227 14.1003 19.5161
Au 15.2409 8.31716 7.60352
Pd 18.1183 8.37809 23.6665
Au 4.43076 15.9466 19.8802
Pd 13.4774 16.8043 23.2495
Au 16.0063 21.4431 4.21046
Pd 7.02646 13.1977 25.5323
Au 12.0836 7.62401 11.4817
Pd 10.1272 23.7846 11.622
Au 14.1985 11.9735 2.27135
Pd 10.0301 14.1297 3.3954
Au 13.233 13.9225 27.1063
Pd 20.3373 12.2811 17.8287
Au 18.9186 6.91446 18.447
Pd 18.6338 16.9581 28.1048
Au 8.12084 11.4956 6.89259
Pd 6.8957 11.9721 20.6621
Au 22.1782 20.773 21.4343
Pd 9.89713 11.35 19.4908
Pd 23.0023 18.9137 5.26416
Au 15.9912 17.3901 8.03655
Au 22.9325 16.009 9.72764
Pd 9.0889 14.3708 10.6907
Au 20.7151 12.3279 4.54548
Pd 14.4101 6.92703 21.6234
Au 10.9786 9.90637 23.9215
Pd 17.4686 17.0775 25.7069
Au 8.57095 21.6994 23.0517
Pd 11.3321 21.7126 16.442
Au 12.5901 19.4541 17.0832
Pd 6.40052 20.1958 14.3912
Au 23.348 17.0399 12.4969
Pd 15.9486 9.80526 3.01359
Au 2.76194 20.0818 10.3432
Pd 5.35216 22.7066 14.334
Au 16.6147 19.6022 6.24545
Pd 17.1304 25.505 22.615
Au 11.9425 23.475 4.79792
Pd 10.8974 26.3294 12.3872
Au 6.8279 9.25144 22.2355
Pd 14.4087 26.0484 21.6721
Pd 16.1966 12.6558 22.8543
Au 22.7756 19.6629 14.7191
Au 24.9992 15.3174 5.41042
Pd 20.2291 15.6258 21.2946
Au 23.3464 5.97828 16.1136
Pd 9.16264 9.95383 17.3427
Au 9.71204 23.7724 16.5578
Pd 6.63534 14.4127 21.7988
Au 13.4545 13.7006 8.20096
Pd 8.51741 16.4183 14.7634
Au 14.6408 7.37562 10.2083
Pd 14.6411 20.7781 11.2712
Au 12.0444 14.8688 17.8638
Pd 10.6419 24.5433 7.01435
Au 17.5018 8.86332 4.96083
Pd 20.6755 17.6709 3.00954
Au 25.3864 15.4541 14.2591
Pd 18.9546 18.5004 9.04024
Au 2.89036 17.613 11.3573
Pd 18.8508 22.1832 15.094
Au 15.3079 11.16 12.9336
Pd 13.581 8.66275 13.4968
Pd 12.5273 24.1907 12.5457
Au 6.07894 23.7921 18.5082
Au 18.2751 10.861 22.231
Pd 11.0938 25.6349 9.85362
Au 4.51184 18.8302 20.016
Pd 16.6048 10.8757 27.0541
Au 7.37692 12.5407 11.9957
Pd 18.9352 16.3224 23.6446
Au 8.35397 26.0413 16.2799
Pd 16.4617 12.3477 3.44844
Au 14.9691 7.90503 4.90737
Pd 18.5331 16.1943 4.0924
Au 16.8789 4.20028 20.1209
Pd 16.5129 10.4025 24.2507
Au 15.0542 12.3877 10.3312
Pd 19.6837 14.1697 15.6062
Au 14.5363 15.4202 6.36486
Pd 5.93859 21.2374 16.788
Au 4.07574 13.9213 14.7296
Pd 6.42558 14.1466 10.0053
Au 11.5807 14.7419 12.8129
Pd 22.9253 9.76208 23.4251
Pd 9.6851 23.4895 21.3878
Au 3.77245 20.0904 17.8186
Au 23.5418 18.9066 9.7356
Pd 6.7141 13.3593 14.5183
Au 7.63456 13.6346 5.15081
Pd 13.9292 16.3641 13.2266
Au 3.25095 16.6761 15.3179
Pd 20.3729 16.8432 26.0808
Au 21.8324 18.7512 7.67281
Pd 14.9925 23.4046 11.8632
Au 15.1258 19.8842 8.6275
Pd 4.36599 15.0185 17.1595
Au 10.5669 7.38389 17.0012
Pd 14.7489 7.64983 18.0242
Au 28.0654 14.4705 14.2047
Pd 12.3605 21.1897 25.2322
Au 20.7931 19.9748 4.3241
Pd 8.03581 25.3465 11.6742
Au 24.2209 21.6356 16.819
Pd 25.9221 12.3714 17.5442
Au 25.8482 12.0752 8.36178
Pd 14.8082 24.5789 23.8351
