665
Atoms. Timestep: 20257
Pd 6.9481 7.4085 7.7973
Pd 5.3827 7.45482 12.2202
Pd 3.81195 7.80456 16.5151
Pd 4.0267 7.41237 19.0934
Pd 5.97898 8.20451 21.8089
Au 7.32099 8.70629 5.29832
Au 5.59196 8.66402 9.74116
Pd 6.09464 9.92813 7.31323
Au 4.15739 8.91695 14.143
Pd 4.70268 10.0953 11.8008
Au 3.87445 10.0548 18.0817
Pd 4.13639 11.1944 15.6235
Au 4.03181 9.4889 20.7124
Pd 4.54592 11.9458 20.0975
Au 6.73206 8.99609 24.3974
Pd 5.19592 10.636 22.9538
Au 6.70485 11.2478 4.97773
Au 5.11488 11.3702 9.43095
Pd 5.68164 12.6123 7.08807
Au 4.53153 12.4734 13.1839
Pd 5.07731 13.7818 10.7975
Au 4.03305 13.0008 17.7147
Pd 3.92709 14.0937 15.3189
Au 5.52425 13.2263 22.2766
Pd 4.8082 14.6217 19.8949
Au 6.29211 11.5561 25.2629
Pd 6.77272 14.3342 24.4093
Au 8.1451 15.6116 4.3686
Au 5.60926 15.1427 8.40452
Pd 6.37273 16.6391 6.1028
Au 4.26938 15.3277 12.9688
Pd 4.80307 16.611 10.6435
Au 4.14019 15.8048 17.5076
Pd 3.85126 17.0051 15.1212
Au 5.76848 15.9202 22.1581
Pd 4.94552 17.3194 19.6978
Au 8.0084 15.6497 26.5385
Pd 6.85029 17.0502 24.4103
Au 7.26982 18.0851 3.87688
Au 5.26104 17.914 8.29246
Pd 5.91562 19.2898 6.01782
Au 4.1119 18.2246 12.7681
Pd 4.63774 19.4899 10.447
Au 4.2537 18.6088 17.3151
Pd 3.95681 19.9136 14.9095
Au 5.77166 18.6231 21.9478
Pd 5.07787 20.0551 19.5018
Au 7.86921 18.3885 26.5336
Pd 6.72231 19.7501 24.1642
Au 8.31531 22.6385 4.15503
Au 4.99593 20.7345 8.11124
Pd 6.645 20.6501 3.88392
Au 4.0547 21.0883 12.5201
Pd 4.69093 22.3402 10.2256
Au 4.4463 21.3902 17.0994
Pd 4.27402 22.6796 14.6597
Au 5.90674 21.3427 21.6759
Pd 5.57364 22.7046 19.19
Au 8.1363 20.9934 25.9656
Pd 7.53589 22.2983 23.6167
Pd 8.77598 6.62046 5.9236
Pd 7.33988 6.70958 10.357
Pd 9.3038 6.164 8.42173
Pd 5.854 6.94268 14.7994
Pd 7.79032 6.27693 12.967
Pd 6.09661 6.59983 17.4203
Pd 8.29347 5.91306 15.7091
Pd 6.2069 6.2124 20.065
Pd 8.42703 5.6813 18.5037
Pd 7.77213 6.74984 23.0279
Pd 8.41903 5.16695 21.142
Pd 9.36943 10.3749 4.83615
Au 10.7968 8.15586 5.31067
Au 8.9926 8.93575 7.34005
Pd 7.71389 10.2988 9.42345
Au 9.45104 8.31817 9.96717
Pd 11.0339 10.5723 6.96547
Au 7.43379 8.98276 11.8853
Pd 6.326 10.4706 13.9339
Au 8.05195 8.43574 14.556
Pd 9.60229 10.5839 11.5963
Au 5.95162 9.23311 16.3147
Pd 6.24102 11.4598 17.9574
Au 8.34151 8.11792 17.282
Pd 8.23504 10.7371 16.1052
Au 6.17716 8.8301 19.0091
Pd 6.76241 10.6513 20.8526
Au 8.34703 7.75734 20.246
Pd 8.60323 10.3078 18.8904
Au 8.45319 9.31586 22.4508
Pd 8.8764 10.3869 25.1482
Au 9.60495 7.83972 24.5259
Pd 10.6226 10.5667 23.1077
Pd 8.72929 12.9792 4.59086
Au 11.4321 12.1736 4.41844
Au 8.27534 11.5936 7.01385
Pd 7.28144 13.0455 9.19609
Au 9.94762 11.9338 9.13727
Pd 10.3808 13.3124 6.67045
Au 6.8146 11.7472 11.5655
Pd 6.73941 14.0607 13.0536
Au 8.56604 12.0353 13.7118
Pd 9.06203 13.3351 11.3397
Au 6.30343 12.7299 15.48
Pd 6.43101 14.3551 17.6646
Au 8.71564 12.8663 17.7829
Pd 8.58363 14.2298 15.3313
Au 7.10811 13.1417 20.0261
Pd 8.19375 14.4941 22.1498
Au 9.3671 11.9222 21.0896
Pd 9.70696 14.3977 19.8906
Au 7.71385 11.91 23.1964
Pd 8.50611 12.9927 25.8451
Au 11.0509 11.8155 25.8715
Pd 10.0605 13.1979 23.6941
Pd 10.077 17.4634 4.08439
Au 10.767 14.7982 4.22024
Au 7.67584 14.3249 6.73281
Pd 7.83526 16.8203 8.33415
Au 9.45543 14.684 8.94172
Pd 9.78665 16.0233 6.52858
Au 7.26094 15.3922 10.6558
Pd 6.49713 16.882 12.9033
Au 8.99261 15.6103 12.9184
Pd 9.5136 17.0284 10.5792
Au 6.12603 15.5946 15.2697
Pd 6.56563 17.1561 17.4989
Au 8.92542 15.7298 17.5895
Pd 8.50407 17.0697 15.2152
Au 7.28551 15.881 19.8739
Pd 8.22093 17.2708 22.0954
Au 10.7738 15.9917 22.0896
Pd 9.77708 17.2114 19.822
Au 9.3223 15.7799 24.3339
Pd 10.2996 17.1806 26.5869
Au 10.6591 14.4913 26.3593
Pd 11.7431 17.4406 24.3946
Pd 9.23005 20.0459 3.94128
Au 11.9288 19.5309 4.06283
Au 8.56304 18.3911 6.1072
Pd 7.42508 19.5968 8.32551
Au 10.0404 18.6804 8.38959
Pd 10.5902 20.4378 6.28779
Au 7.00276 18.2005 10.5803
Pd 6.37419 19.7658 12.7507
Au 8.80414 18.4392 12.8676
Pd 9.23925 19.918 10.6726
Au 6.15201 18.4529 15.1217
Pd 6.68088 19.9659 17.3407
Au 9.00514 18.549 17.4661
Pd 8.66447 19.9439 15.0736
Au 7.39495 18.6385 19.7485
Pd 8.22061 20.0528 21.9705
Au 10.6705 18.8295 22.0752
Pd 10.0141 19.9758 19.6064
Au 9.19332 18.5802 24.3187
Pd 10.4978 19.8779 26.2862
Au 12.9043 18.7735 26.4733
Pd 12.2763 20.0931 24.1196
Pd 5.67884 22.0734 5.89897
Au 10.9675 22.151 4.19688
Au 7.99552 21.0817 6.1989
Pd 6.90225 22.6072 8.24585
Au 9.34189 21.604 8.56051
Pd 9.65606 23.1831 6.37462
Au 6.87122 21.098 10.4725
Pd 6.15299 22.7436 12.5556
Au 8.5408 21.584 12.7661
Pd 8.41365 23.2639 10.5551
Au 6.38019 21.3062 14.9295
Pd 6.11128 23.4005 16.6017
Au 8.36658 21.9945 16.8175
Pd 7.93109 23.5499 14.5482
Au 7.73856 21.3569 19.4911
Pd 7.5496 23.406 21.1805
Au 9.94405 22.0458 21.3407
Pd 7.87778 24.013 18.5591
Au 9.89689 21.2057 23.9105
Pd 9.38498 23.282 25.4754
Au 11.7837 22.2756 25.7859
Pd 9.53633 24.0729 23.002
Pd 11.2738 5.70068 6.42868
Pd 9.77432 5.7069 11.0543
Pd 11.7559 5.2981 9.02286
Pd 10.2668 5.39038 13.8065
Pd 12.208 4.90059 11.8466
Pd 10.6912 5.25609 17.1761
Pd 12.5808 5.08059 15.3283
Pd 10.754 5.26313 20.135
Pd 12.9949 5.05966 18.8357
Pd 10.0548 5.13654 23.3274
Pd 12.6029 5.32006 22.1501
Pd 12.7662 9.91532 4.9991
Au 13.3842 7.36149 5.9327
Au 11.4815 7.82967 7.92775
Pd 11.7171 9.95847 9.59859
Au 11.9301 7.38622 10.6359
Pd 13.5975 9.57128 7.56217
Au 9.95813 7.87094 12.6452
Pd 10.3024 10.0234 14.2689
Au 12.4369 7.02828 13.4913
Pd 12.1674 9.56948 12.2363
Au 10.5319 7.43314 15.5307
Pd 10.6644 9.73959 17.0639
Au 12.7915 7.12027 17.1107
Pd 12.7127 9.193 15.2435
Au 10.6043 7.48159 18.6607
Pd 10.6104 9.45801 20.5261
Au 12.7687 7.26632 20.4078
Pd 12.8129 9.40198 18.7562
Au 10.4136 7.22914 21.9797
Pd 11.7151 9.30419 25.1916
Au 12.0368 6.65345 24.3391
Pd 12.57 8.7425 22.674
Pd 13.4542 14.1352 4.15444
Au 14.645 11.7705 4.49847
Au 13.0083 12.3053 6.60898
Pd 12.0818 13.6784 8.81977
Au 13.8332 11.6694 9.28247
Pd 14.9188 14.1513 6.40783
Au 11.7901 12.1815 11.2694
Pd 10.8203 13.6428 13.461
Au 12.5634 11.662 13.8724
Pd 13.9024 13.8164 11.0227
Au 10.5617 12.2664 15.8259
Pd 11.2198 14.2313 17.5966
Au 12.9468 11.4483 16.9508
Pd 12.9535 13.809 15.5106
Au 11.0023 11.7618 18.9242
Pd 11.6892 13.3952 21.4864
Au 12.7487 10.9518 21.0321
Pd 13.2373 13.2109 19.1941
Au 12.6817 12.0276 23.7022
Pd 13.2536 13.3545 26.1724
Au 13.8776 10.7556 25.794
Pd 14.7852 13.5721 23.9051
Pd 12.7189 16.8006 4.11353
Au 15.3391 16.191 3.93657
Au 12.3929 15.1743 6.40212
Pd 11.544 16.4534 8.76859
Au 14.0972 15.5214 8.62045
Pd 14.3336 17.1642 6.3398
Au 11.2952 14.9734 11.1124
Pd 11.2445 17.1438 12.8594
Au 13.1411 15.2396 13.2497
Pd 13.4196 16.7509 10.9884
Au 10.9107 15.6881 15.2331
Pd 11.3428 17.135 17.5094
Au 13.6341 15.5933 17.5345
Pd 13.2646 17.1418 15.2541
Au 12.1601 15.7268 19.8013
Pd 13.1918 17.6773 22.1833
Au 13.8603 15.0097 21.7979
Pd 14.4838 17.267 19.7797
Au 12.2114 14.7692 24.0989
Pd 12.8943 16.0652 26.5033
Au 15.4485 14.8597 26.479
Pd 14.4488 16.303 24.3245
Pd 13.678 21.6358 4.37209
Au 14.5483 18.9133 4.23445
Au 11.6857 17.9297 6.32892
Pd 11.9175 20.7322 8.7051
Au 13.4422 18.408 8.67049
Pd 13.3977 20.0343 6.47814
Au 11.6741 18.7854 10.7064
Pd 10.9316 20.2786 12.9637
Au 13.2742 18.927 13.0884
Pd 13.2817 20.9442 11.0755
Au 10.9756 18.559 15.1574
Pd 10.7934 20.5077 17.0084
Au 13.3008 19.0026 17.2989
Pd 12.7504 20.7773 15.1176
Au 12.224 18.5564 19.7447
Pd 12.638 20.6208 21.4844
Au 15.2529 19.355 21.5992
Pd 12.6838 21.149 18.8601
Au 14.6534 18.9772 24.2766
Pd 14.1907 21.143 25.8654
Au 15.2885 17.5623 26.627
Pd 14.5705 21.5765 23.2081
Pd 12.7699 24.1022 4.61282
Au 15.4314 23.7608 4.72905
Au 12.2548 22.5596 6.62747
Pd 10.8879 23.7752 8.72575
Au 13.4421 22.9591 9.02257
Pd 13.9752 24.6355 6.91334
Au 10.8432 22.1413 10.8662
Pd 10.0007 23.9459 12.6987
Au 12.4233 22.6974 13.0527
Pd 12.2443 24.4939 10.9797
Au 10.3214 22.2441 14.8331
Pd 9.70632 24.3363 16.5328
Au 12.1648 22.9558 16.7773
Pd 11.6826 24.683 14.737
Au 10.2196 22.6401 18.6733
Pd 9.78888 24.682 20.3623
Au 12.2225 23.3071 20.4303
Pd 11.5918 25.0659 18.3825
Au 12.0459 22.7791 23.1172
Pd 11.5577 24.8098 24.7003
Au 13.9995 23.7578 24.8084
Pd 11.7244 25.3345 22.0812
Pd 13.8397 4.99884 7.1619
Pd 14.0812 4.52805 9.85488
Pd 16.3352 5.10228 8.50829
Pd 14.4618 4.78806 13.436
Pd 16.2492 4.66864 11.3352
Pd 14.8429 4.99754 16.9721
Pd 16.6694 4.87558 15.0245
Pd 14.952 5.20681 20.7748
Pd 16.9126 5.09798 18.8065
Pd 14.5221 5.43809 24.066
Pd 17.0349 5.40613 22.5722
Pd 15.3629 9.25644 5.4484
Au 16.0147 6.72524 6.41195
Au 14.1468 7.03801 8.66644
Pd 14.3896 9.14077 10.3278
Au 16.5962 7.17867 10.1965
Pd 16.2191 8.91303 8.06691
Au 14.3009 6.62233 11.4924
Pd 14.5318 8.86356 13.2119
Au 16.4594 6.75703 13.0719
Pd 16.8487 9.2967 11.9299
Au 14.6568 6.92707 15.1346
Pd 14.855 9.09462 16.9532
Au 16.8188 6.95895 16.8286
Pd 16.6822 8.92086 14.8716
Au 14.9382 7.07468 18.8113
Pd 14.9277 9.23351 20.6389
Au 16.9993 7.16023 20.5966
Pd 16.9741 9.09273 18.6867
Au 14.8688 7.29568 22.4066
Pd 14.1942 8.16007 24.8836
Au 16.6605 7.06503 24.5699
Pd 17.0466 9.03622 22.653
Pd 16.4635 13.7758 4.27856
Au 17.3062 11.2637 4.93654
Au 15.6016 11.4596 7.07546
Pd 15.8609 13.5143 8.93966
Au 16.5182 11.0096 9.80818
Pd 17.5662 13.4228 6.77532
Au 14.6431 11.2816 11.9651
Pd 15.0457 13.3735 13.6005
Au 17.1463 11.3825 13.6472
Pd 16.845 13.1198 11.5409
Au 14.865 11.0723 15.0431
Pd 15.1313 13.2279 17.0591
Au 16.9561 11.0629 16.7716
Pd 17.2873 13.3948 15.3876
Au 15.0376 11.1849 18.8421
Pd 14.8788 12.4581 21.3433
Au 17.1566 10.9878 20.7491
Pd 17.2523 12.9552 18.9159
Au 14.7155 10.3434 23.1965
Pd 16.0691 12.3279 25.8677
Au 16.4072 9.71083 25.26
Pd 16.9083 11.9555 23.3232
Pd 17.1319 18.211 4.51615
Au 18.2517 15.7481 3.92882
Au 16.7657 16.0384 6.1999
Pd 15.9769 17.4607 8.70784
Au 17.7995 15.5221 8.70532
Pd 18.3226 18.0382 7.04047
Au 15.8693 15.5404 10.8154
Pd 15.2439 17.0921 13.1515
Au 17.1738 15.2057 13.3061
Pd 17.4366 17.5047 11.3034
Au 15.2979 15.3927 15.3466
Pd 15.626 17.4154 17.2798
Au 17.206 15.2209 17.356
Pd 17.2928 17.2641 15.1158
Au 15.3923 14.7749 19.4903
Pd 15.9632 16.6725 22.0909
Au 16.9756 14.0879 21.5619
Pd 17.1665 16.8722 19.6136
Au 16.9443 15.0407 24.2007
Pd 17.7095 16.3116 26.6933
Au 18.3288 13.8098 26.1916
Pd 19.31 16.355 24.5099
Pd 16.2845 21.036 4.63877
Au 18.7735 20.2339 5.34242
Au 16.0064 19.3688 6.7136
Pd 15.0142 20.6693 8.95604
Au 17.5029 19.5365 9.38508
Pd 17.6399 21.4772 7.47984
Au 15.132 18.916 11.0187
Pd 14.7922 21.2193 13.3057
Au 16.8627 19.3868 13.2581
Pd 16.6295 21.3201 11.3201
Au 15.0855 19.2187 15.2511
Pd 14.7049 21.4136 17.0781
Au 17.3918 19.4849 16.7709
Pd 16.6901 21.5949 15.2502
Au 15.6423 19.579 18.9431
Pd 14.9381 21.8114 20.3688
Au 17.9608 18.4891 21.7684
Pd 17.1624 21.7916 18.2869
Au 17.0568 17.7926 24.437
Pd 16.5811 19.8875 26.1239
Au 19.0166 18.5664 26.4361
Pd 17.0206 20.4268 23.5063
Pd 16.7169 24.5379 7.10691
Au 17.9677 23.0191 5.31266
Au 15.0985 22.2236 6.78636
Pd 14.7885 25.2342 9.3697
Au 16.3986 23.1019 9.30556
Pd 17.6142 25.6318 9.47017
Au 14.6435 23.3001 11.3832
Pd 13.788 25.1523 13.1321
Au 16.3518 23.5708 13.3988
Pd 16.0149 25.6323 11.6509
Au 14.2131 23.2812 15.057
Pd 13.5633 25.4323 16.5648
Au 16.178 23.9162 16.8605
Pd 15.6819 25.7239 14.9395
Au 14.1058 23.7095 18.5704
Pd 13.5201 25.8228 20.1422
Au 16.5382 24.0178 19.8544
Pd 15.5605 26.0707 18.3341
Au 14.3849 23.9968 21.9408
Pd 13.8337 26.0691 23.3765
Au 16.4135 22.5651 25.1254
Pd 15.8841 26.1547 21.2954
Pd 18.8721 4.53732 7.58692
Pd 18.6023 5.20229 10.1463
Pd 21.0841 4.60887 9.17728
Pd 18.4017 4.7971 12.9277
Pd 20.8079 5.31925 11.7953
Pd 18.7783 4.98669 16.7431
Pd 20.5446 4.92239 14.5797
Pd 19.0043 5.23629 20.5915
Pd 20.8875 5.12421 18.4099
Pd 19.053 5.83232 24.4154
Pd 20.9667 5.44666 22.4754
Pd 17.999 8.77554 5.8986
Au 18.6028 6.21349 5.54821
Au 18.2917 7.04732 8.03138
Pd 18.5705 9.147 9.76093
Au 20.5538 7.14568 9.65432
Pd 20.2632 8.94888 7.56325
Au 18.8704 7.30044 11.8687
Pd 19.0974 9.38745 13.665
Au 21.076 7.41404 13.5699
Pd 20.8152 9.29832 11.4607
Au 18.6109 6.84473 14.7276
Pd 18.8197 8.9584 16.5804
Au 20.7619 6.92709 16.4282
Pd 21.2712 9.46911 15.4239
Au 18.9416 7.01269 18.5724
Pd 19.1323 9.06508 20.4103
Au 21.1418 6.97384 20.2931
Pd 21.0077 8.92874 18.3089
Au 19.1369 7.30731 22.3485
Pd 18.8851 8.61933 24.6701
Au 21.3031 7.38651 24.2433
Pd 21.3167 9.03078 22.174
Pd 19.2034 13.2831 4.63955
Au 19.9693 10.7552 5.38866
Au 18.2816 10.8976 7.59493
Pd 18.5923 13.0063 9.40501
Au 20.5437 11.0875 9.34575
Pd 20.2621 12.9202 7.2054
Au 18.8647 11.2506 11.5428
Pd 19.248 13.3716 13.3829
Au 21.0778 11.3392 13.3105
Pd 20.8453 13.1867 11.1839
Au 19.375 11.4736 15.4581
Pd 19.4184 13.4057 17.2888
Au 21.5834 11.5115 17.2923
Pd 21.5312 13.4358 15.3516
Au 19.1058 10.9991 18.503
Pd 19.2882 12.8142 20.8656
Au 21.1858 10.9411 20.2989
Pd 21.4474 13.4151 19.2356
Au 19.2762 10.7317 22.6843
Pd 18.6094 11.277 25.2754
Au 21.0858 10.1512 24.6569
Pd 21.4766 12.5261 22.8099
Pd 19.8479 17.7276 4.77561
Au 21.0748 15.2392 4.29655
Au 19.4458 15.4589 6.41714
Pd 19.4393 17.5946 9.46613
Au 20.5916 15.079 9.05717
Pd 21.0535 17.5035 7.21903
Au 18.9142 15.1393 11.2281
Pd 19.29 17.0317 13.2345
Au 21.4421 15.2548 13.4094
Pd 21.1859 16.8097 11.3055
Au 19.3111 15.2799 15.3235
Pd 19.0587 17.1797 17.2921
Au 21.206 15.4701 17.4315
Pd 21.1492 17.3644 15.3274
Au 19.1811 15.1292 19.3674
Pd 18.7733 16.0037 21.9149
Au 21.1562 14.9565 21.3828
Pd 20.8051 17.3851 19.6372
Au 19.147 13.6299 23.5336
Pd 20.5753 15.304 26.5571
Au 20.8109 12.7513 25.5729
Pd 21.0836 17.4536 22.6117
Pd 20.2875 22.2364 6.48931
Au 21.4576 19.8066 5.58777
Au 19.9667 19.9724 7.95216
Pd 19.1221 21.5438 10.1701
Au 21.4443 19.2856 10.2643
Pd 21.6646 21.7898 9.04745
Au 19.1823 19.4323 11.7904
Pd 18.5786 21.7042 13.268
Au 21.505 18.8458 13.1128
Pd 21.1638 21.4456 11.9678
Au 19.1492 19.3005 14.7263
Pd 19.1626 21.6789 16.4007
Au 20.5913 19.4099 17.0823
Pd 21.0211 21.1677 14.617
Au 18.5567 19.0606 19.1157
Pd 17.5605 20.9387 20.7683
Au 20.3582 19.6918 21.055
Pd 19.9763 21.3097 18.9271
Au 19.4904 19.1459 23.9237
Pd 18.779 21.2912 25.444
Au 21.1708 20.1034 25.9111
Pd 19.4133 21.6595 22.7341
Pd 19.4542 24.9465 6.47512
Au 21.7765 24.1334 7.73681
Au 19.0431 23.5612 8.53053
Pd 19.8067 26.019 11.6642
Au 20.8389 23.8166 10.6019
Pd 20.2827 25.8938 9.0145
Au 18.1448 23.8528 11.3986
Pd 17.887 25.889 13.4553
Au 20.2431 23.838 13.3067
Pd 20.1054 26.103 14.7735
Au 18.332 23.938 15.1931
Pd 17.799 26.1753 16.5629
Au 22.3832 21.8658 16.9286
Pd 20.9223 23.89 16.1001
Au 18.7525 24.01 17.9546
Pd 18.0261 26.1859 19.3549
Au 19.101 23.2429 20.5336
Pd 20.3335 26.0967 17.5063
Au 16.9023 22.9468 22.378
Pd 16.2316 25.027 23.8058
Au 18.694 23.8134 24.2355
Pd 18.3187 25.3135 21.973
Pd 20.8326 6.29624 7.06053
Pd 23.2505 4.82041 10.8121
Pd 22.7435 8.19565 6.62609
Pd 22.9969 5.49258 13.4285
Pd 24.8895 7.4124 12.9814
Pd 22.6824 5.09986 16.1702
Pd 25.0591 5.77206 15.0804
Pd 22.9768 6.92869 18.0933
Pd 25.3818 7.66299 16.9067
Pd 23.1213 7.09765 22.1321
Pd 25.5937 9.49348 18.9308
Pd 20.5222 8.10644 5.06416
Au 22.4387 10.0484 4.67577
Au 23.0627 6.401 8.65693
Pd 22.5053 9.09896 9.22888
Au 25.1076 6.67149 10.3846
Pd 24.8802 8.39685 8.32358
Au 22.7313 7.33779 11.3347
Pd 23.0498 9.40893 13.1279
Au 25.2897 9.42185 14.8064
Pd 24.7344 9.27766 10.9244
Au 23.2316 7.5797 15.2513
Pd 23.2749 11.2835 15.0323
Au 27.0746 9.77393 16.693
Pd 26.7443 11.8079 14.862
Au 23.474 9.48345 17.1974
Pd 25.1156 11.5904 16.9724
Au 27.28 11.672 18.4727
Pd 25.5407 13.5598 19.2029
Au 23.1892 8.8427 20.0379
Pd 23.4837 9.11526 23.892
Au 25.1797 8.98866 21.812
Pd 25.8741 11.3813 20.7777
Pd 21.9223 12.7714 5.07412
Au 24.5675 10.1362 6.27652
Au 22.1771 10.8943 7.15233
Pd 22.5164 12.9913 8.88018
Au 24.5188 11.0708 8.79377
Pd 24.0815 12.7849 6.62572
Au 22.8386 11.2097 11.0003
Pd 23.0868 13.082 12.9109
Au 25.1242 11.311 12.7785
Pd 24.8848 13.0812 10.6612
Au 24.7043 13.5281 15.007
Pd 23.4467 13.7117 17.4512
Au 26.7519 13.7575 16.7558
Pd 26.0336 15.8591 15.019
Au 23.6476 11.5136 19.214
Pd 23.5806 13.5785 21.0663
Au 26.1569 13.6899 21.9977
Pd 25.579 15.8834 20.5596
Au 23.3801 10.9522 21.9585
Pd 23.2182 11.6736 24.7871
Au 25.4803 11.3768 23.4132
Pd 24.093 13.854 23.6525
Pd 22.5314 17.3497 4.99289
Au 23.7677 14.9217 4.93509
Au 22.2052 14.9985 6.90928
Pd 22.8495 16.8663 9.09933
Au 24.552 14.7411 8.38238
Pd 24.2841 16.9834 6.88613
Au 22.9121 14.8428 10.7742
Pd 24.1902 15.4919 12.9867
Au 26.2594 13.8951 12.8739
Pd 25.4048 15.9316 10.592
Au 23.3171 15.7566 15.6587
Pd 22.7574 17.7019 17.5636
Au 25.2271 15.8083 17.7189
Pd 25.2154 18.0934 16.3622
Au 23.094 15.8022 19.4982
Pd 23.4567 16.2073 22.2367
Au 25.8518 16.0124 23.2709
Pd 24.8134 18.1085 19.1738
Au 21.6264 15.01 24.0646
Pd 21.5259 17.5521 25.343
Au 22.9944 14.0201 26.1795
Pd 23.8613 16.1745 25.0287
Pd 22.9794 21.7779 6.68823
Au 24.1344 19.4242 5.72315
Au 22.8523 19.3636 7.96611
Pd 23.8074 20.6077 10.2611
Au 25.1982 18.3251 9.13115
Pd 25.1727 20.7103 7.8885
Au 23.75 17.9935 11.4176
Pd 23.6035 20.5147 13.0029
Au 26.2289 17.2673 12.7382
Pd 25.9448 19.6176 11.4662
Au 23.0401 19.6483 15.652
Pd 22.4758 20.0354 18.9113
Au 24.8426 20.4995 17.5222
Pd 23.863 17.815 14.0426
Au 22.9685 18.698 21.1383
Pd 21.7932 20.373 23.206
Au 25.4781 18.2775 21.8733
Pd 24.8278 20.573 20.1648
Au 23.4348 21.1108 25.1238
Pd 21.0556 22.5234 24.7385
Au 23.6099 18.4986 23.906
Pd 24.4359 20.7202 22.7038
Pd 22.9511 25.2252 9.94273
Au 24.1004 23.0699 8.81668
Au 23.3196 22.9626 11.5009
Pd 22.3251 25.3391 12.5607
Au 26.1421 21.9161 10.056
Pd 25.6749 22.1293 12.6183
Au 22.7229 23.0698 14.169
Pd 22.6475 25.6935 15.2123
Au 25.9255 19.5474 14.155
Pd 25.3824 24.3214 10.914
Au 24.8941 21.7625 15.1459
Pd 24.122 23.9202 16.3546
Au 24.0072 22.8795 18.8528
Pd 24.7318 24.4933 13.555
Au 21.3218 23.5407 18.8212
Pd 20.4559 25.6133 20.1894
Au 24.9146 22.9606 21.3229
Pd 22.8286 25.4447 18.0414
Au 22.2314 21.8743 20.9518
Pd 20.7904 23.9986 22.4195
Au 23.1517 23.0492 23.2393
Pd 22.8709 24.5366 20.7614
