665
Atoms. Timestep: 20501
Pd 7.91524 13.2929 5.34213
Pd 5.38027 18.0341 15.8579
Pd 8.80578 12.4301 16.8602
Pd 9.52539 9.71338 21.8371
Pd 12.216 13.5279 24.8205
Au 9.58954 11.1165 4.34253
Au 9.27572 6.1791 12.8879
Pd 7.74062 8.47564 7.63675
Au 8.90669 4.13154 16.4749
Pd 7.34363 13.2566 13.5415
Au 12.7452 6.60719 15.6351
Pd 6.50677 19.0448 18.3629
Au 2.97964 15.353 13.2368
Pd 7.44102 24.3711 20.0566
Au 4.60245 20.0732 19.8167
Pd 6.35161 11.5105 15.5252
Au 6.59109 15.3368 6.83299
Au 12.2905 2.55241 14.3432
Pd 5.42828 14.601 9.29346
Au 3.23133 9.64303 12.9099
Pd 6.94413 14.1094 16.0493
Au 5.00368 21.2203 17.3624
Pd 11.289 16.226 18.9364
Au 7.99175 22.6429 21.9788
Pd 8.0486 19.02 20.6998
Au 7.01936 16.5737 19.8887
Pd 12.7456 18.3721 23.1576
Au 11.1904 18.8764 7.42726
Au 8.8083 8.54069 4.97118
Pd 5.75615 17.1516 8.61146
Au 3.0476 14.4828 10.6226
Pd 8.2455 8.29791 11.4343
Au 6.06513 23.7372 17.8687
Pd 4.66231 17.0094 18.7723
Au 4.311 12.7557 17.1626
Pd 9.79273 24.6094 21.4644
Au 13.9449 17.951 25.4968
Pd 15.4611 17.8995 23.2314
Au 8.27414 17.5123 7.3657
Au 4.83297 16.5332 11.1588
Pd 6.77488 18.4852 13.2732
Au 4.59927 12.1968 10.0612
Pd 3.58808 19.9018 15.123
Au 3.92036 18.0576 13.1738
Pd 7.6908 21.7296 16.9339
Au 4.34064 10.1186 17.2463
Pd 11.8956 16.2891 24.5962
Au 6.63716 15.9093 22.6823
Pd 10.0446 18.4433 22.7135
Au 6.77666 19.5944 8.39789
Au 6.88551 21.6101 19.5784
Pd 7.22399 18.0515 10.6388
Au 6.69604 20.7939 10.739
Pd 5.90306 23.0619 15.2954
Au 6.94647 25.4665 15.7593
Pd 10.446 22.1328 16.5331
Au 3.54361 18.9795 17.5603
Pd 9.12526 20.2564 18.5645
Au 4.62474 12.4648 19.9827
Pd 11.3967 20.5236 23.7139
Pd 10.9265 7.01389 11.1132
Pd 6.19342 7.93367 9.73839
Pd 11.7594 6.29927 8.75856
Pd 11.487 4.22655 16.2016
Pd 10.0772 4.47383 10.9728
Pd 10.6693 14.1477 20.4631
Pd 16.4295 7.50359 14.8964
Pd 4.65967 15.4715 16.569
Pd 6.90852 9.18674 17.003
Pd 8.84847 7.23901 20.7745
Pd 5.18821 9.24257 14.8335
Pd 10.3724 14.0829 4.53448
Au 11.9428 11.9902 3.51164
Au 14.1349 5.69342 5.68786
Pd 12.5718 10.5421 5.82752
Au 11.3123 11.2376 8.92851
Pd 13.5717 15.4908 6.92785
Au 11.8549 4.76678 6.68236
Pd 5.65485 8.46812 12.3773
Au 7.47423 4.91315 14.3427
Pd 9.34567 10.8212 11.1293
Au 2.84652 12.5897 12.5513
Pd 8.88119 10.1822 15.5802
Au 11.4325 6.39926 17.9665
Pd 5.19827 14.0467 12.0284
Au 9.78827 9.61493 24.4996
Pd 10.9231 8.50458 19.673
Au 4.77619 15.1943 20.8794
Pd 5.40633 18.0332 21.2877
Au 3.30548 11.2969 15.0025
Pd 6.61281 11.6343 18.2389
Au 13.6653 15.3135 19.8759
Pd 14.0779 12.5589 26.505
Pd 8.52109 16.0441 5.00821
Au 10.6822 16.6689 3.42964
Au 12.6807 13.3021 5.68816
Pd 7.67956 10.7543 6.15394
Au 10.2789 9.57006 6.76866
Pd 11.0555 16.2041 6.16863
Au 5.18402 11.3738 12.7502
Pd 8.06511 16.2764 14.6305
Au 9.53385 14.2381 12.1425
Pd 8.56263 10.8843 8.62369
Au 4.69663 13.5074 14.5602
Pd 9.08356 17.629 18.4838
Au 8.46066 6.33332 9.64062
Pd 9.58985 14.1503 15.0349
Au 8.90917 14.8212 18.3099
Pd 7.06381 16.4841 17.1874
Au 11.3539 13.5149 17.907
Pd 13.9638 15.6594 22.9162
Au 24.2528 10.8074 22.3826
Pd 18.9161 15.8303 25.0493
Au 13.132 6.50999 22.603
Pd 12.5943 13.5103 22.1179
Pd 9.62534 18.5075 5.17211
Au 13.6675 20.1605 3.41067
Au 9.13271 14.7011 7.21155
Pd 5.8637 10.4203 8.21428
Au 10.1568 12.289 6.65718
Pd 10.4055 16.5271 8.76393
Au 6.72328 10.4117 10.6456
Pd 7.91402 15.5984 9.46875
Au 6.11926 14.289 18.6702
Pd 7.09444 12.9412 7.96817
Au 10.296 16.4792 16.343
Pd 2.92492 17.0983 15.4772
Au 12.4817 17.762 15.0438
Pd 10.599 19.2608 16.5415
Au 8.61368 20.6312 23.679
Pd 9.7498 12.3336 24.9493
Au 2.46362 14.2862 15.7353
Pd 9.15541 16.4101 21.3309
Au 8.29872 9.59763 19.3781
Pd 16.5588 11.8489 25.3345
Au 6.28648 20.5493 21.9737
Pd 16.5154 16.9876 25.5935
Pd 8.92652 20.3627 7.05643
Au 9.28984 22.9677 6.79736
Au 7.2962 13.0291 10.766
Pd 7.32287 15.7561 12.0854
Au 12.2208 18.0753 10.0077
Pd 9.45487 19.028 9.44812
Au 5.48453 16.05 14.0385
Pd 6.1632 20.408 15.0991
Au 8.00293 18.7552 16.1783
Pd 8.94597 19.8093 12.0067
Au 4.17356 9.63279 10.428
Pd 8.71186 24.2174 17.3782
Au 13.4404 16.7189 12.3505
Pd 12.6242 18.5949 18.2953
Au 12.5278 20.364 21.185
Pd 3.32037 14.6442 18.6895
Au 14.8217 19.7825 27.3563
Pd 14.7148 18.6145 16.3927
Au 8.88802 16.5078 24.2794
Pd 14.4481 15.2198 25.5856
Au 12.2509 19.9712 26.5457
Pd 15.8617 22.3194 23.3128
Pd 7.10658 22.2839 8.2802
Au 11.4267 24.393 7.92684
Au 4.73261 19.0465 10.4433
Pd 6.90191 21.9774 13.0996
Au 9.08727 21.6545 9.73065
Pd 8.93493 24.3783 9.00505
Au 4.79144 20.47 12.7326
Pd 13.5281 25.5677 9.03507
Au 8.80311 20.7891 14.6302
Pd 9.34079 22.4178 12.3619
Au 10.3776 22.9046 23.4202
Pd 8.69528 23.465 14.8206
Au 12.8516 20.5778 16.3966
Pd 11.036 24.1072 13.3647
Au 17.2915 21.3168 27.1947
Pd 9.91434 20.9365 21.3116
Au 5.69324 13.2049 22.4981
Pd 9.09418 26.0665 14.1639
Au 16.5121 15.0496 23.6564
Pd 13.9333 20.4587 24.5043
Au 11.7796 23.0811 20.7834
Pd 7.35418 18.3809 23.1828
Pd 12.1306 7.51324 6.20184
Pd 14.2299 6.37956 13.2655
Pd 11.2347 5.99458 20.7103
Pd 9.9786 6.37863 15.3954
Pd 14.8843 7.04706 17.1007
Pd 17.605 8.26617 21.7138
Pd 16.2691 2.76572 14.6126
Pd 9.02876 5.58536 18.6972
Pd 14.8379 8.55533 21.8507
Pd 17.62 7.67392 24.3075
Pd 12.7982 8.68256 17.6905
Pd 12.9463 15.4465 4.14972
Au 11.3737 9.09419 4.05924
Au 14.1754 10.5754 3.49228
Pd 14.0709 10.5155 10.0104
Au 18.7042 6.27233 6.30355
Pd 12.5359 8.94237 8.41778
Au 9.70956 4.47845 8.27808
Pd 11.8527 5.09208 13.4198
Au 14.0508 11.1904 22.0937
Pd 13.618 4.78665 17.8771
Au 9.68764 6.78809 6.97697
Pd 9.88237 9.10921 13.2639
Au 7.70749 7.89797 14.4268
Pd 13.8735 9.98477 19.7123
Au 9.29051 8.01075 17.4422
Pd 6.98489 8.86057 21.7038
Au 7.64103 11.0269 23.5713
Pd 11.4114 11.1987 20.5328
Au 11.6766 11.1755 23.3608
Pd 21.1733 14.8337 24.0171
Au 16.4252 9.9364 23.49
Pd 18.9003 10.5367 22.0585
Pd 15.427 15.9668 2.91709
Au 13.3331 17.645 2.61644
Au 14.7403 17.2955 5.12907
Pd 11.7297 14.0941 8.13555
Au 13.617 13.4686 9.98571
Pd 16.4258 11.1604 7.90182
Au 9.61142 13.3452 9.54216
Pd 9.72978 11.918 13.5263
Au 9.91955 8.5953 9.2578
Pd 15.9067 8.73033 9.39911
Au 11.2388 11.9149 15.6703
Pd 13.2898 16.3108 17.1647
Au 10.6482 10.5385 17.9171
Pd 18.4863 5.87061 22.4651
Au 14.3306 13.8708 17.3181
Pd 17.0287 14.1908 26.1831
Au 5.45833 9.5477 19.562
Pd 9.49585 12.3429 22.2009
Au 15.1958 14.3415 28.1527
Pd 5.43659 6.61259 14.4382
Au 6.81372 7.30051 19.0443
Pd 14.6877 13.0748 23.8902
Pd 13.8842 20.1621 6.04188
Au 20.2081 17.2812 5.06583
Au 12.3163 18.2143 5.04315
Pd 13.697 17.9876 7.62474
Au 16.0636 16.6298 7.45353
Pd 15.584 14.7068 5.33843
Au 11.6807 15.278 10.7308
Pd 10.9621 16.0484 13.5615
Au 12.7181 14.0396 12.9803
Pd 14.1837 16.1199 9.57008
Au 9.10152 12.2081 19.4724
Pd 13.2952 12.7144 19.6416
Au 10.1339 14.8571 25.975
Pd 7.51428 10.3901 13.2772
Au 7.75766 14.0974 20.9762
Pd 16.4748 14.6499 18.8389
Au 6.77222 6.09073 11.9649
Pd 17.4468 16.0494 27.9807
Au 12.5172 14.6865 27.2771
Pd 11.7612 16.366 21.6644
Au 11.9739 17.2417 27.1144
Pd 18.8819 14.7173 22.4828
Pd 11.5901 23.4515 5.49644
Au 11.1246 19.3161 3.00314
Au 11.2782 20.8292 5.33103
Pd 13.448 20.3153 8.842
Au 15.8831 18.8832 9.06143
Pd 16.3846 19.0482 6.28853
Au 9.64806 17.1013 11.4406
Pd 9.64245 18.2992 14.1186
Au 11.6978 18.7854 12.565
Pd 14.2412 19.4535 11.3699
Au 12.2285 14.5574 15.5422
Pd 10.8292 18.5832 20.2106
Au 15.9877 17.3498 11.3242
Pd 15.0543 23.9455 13.9214
Au 17.6457 19.9798 22.8473
Pd 13.7934 17.9382 20.7884
Au 19.0337 25.3131 23.8476
Pd 11.6431 21.1359 18.8117
Au 12.2858 8.53601 24.5152
Pd 14.9468 20.1938 22.0508
Au 15.0855 22.2315 26.1076
Pd 13.6544 22.6389 17.8534
Pd 13.8244 25.0023 6.38263
Au 15.5517 23.8567 8.52426
Au 11.1914 21.6147 8.07396
Pd 11.0201 26.1301 9.98391
Au 13.5268 22.5601 7.12788
Pd 15.4876 21.5207 10.1279
Au 10.9093 23.535 10.5818
Pd 15.8101 26.4342 14.9493
Au 13.1324 27.5696 10.9156
Pd 12.9344 24.9828 11.6661
Au 11.3231 21.1342 13.9837
Pd 9.12277 26.8442 16.7113
Au 7.0867 26.2215 18.2683
Pd 10.8651 24.9394 15.8691
Au 13.8702 27.303 18.9512
Pd 9.40503 22.7575 19.4285
Au 14.4165 24.23 24.5486
Pd 9.59662 25.8749 19.2202
Au 7.86398 13.8712 23.9335
Pd 15.3399 17.4651 14.0751
Au 12.387 22.5306 25.5047
Pd 14.1076 24.7347 21.8557
Pd 16.605 3.49757 9.14304
Pd 14.1488 4.48821 8.29411
Pd 11.8523 2.73073 11.7937
Pd 13.6455 4.68972 20.5785
Pd 12.1626 10.5926 13.5538
Pd 17.3052 4.18675 20.7249
Pd 18.4919 5.42299 15.4595
Pd 7.31457 6.32734 16.5893
Pd 12.264 8.96471 21.8487
Pd 22.8314 12.8693 23.1534
Pd 11.1924 8.95217 15.6393
Pd 19.2997 11.4701 4.41157
Au 18.8518 4.26449 8.13061
Au 11.8737 3.33734 9.10694
Pd 12.8067 5.05808 10.9155
Au 14.2454 2.72625 10.2945
Pd 13.6678 11.9135 7.8402
Au 14.0805 4.32877 15.239
Pd 15.4418 9.65009 17.4409
Au 11.2794 3.99318 18.9388
Pd 13.8996 9.07566 15.249
Au 14.9335 7.71865 24.3679
Pd 4.94358 7.52017 16.9831
Au 16.4997 5.11376 13.5413
Pd 22.2419 11.9962 15.2679
Au 15.8118 6.11074 21.8094
Pd 9.81202 3.64245 13.9012
Au 20.9573 6.40594 21.8262
Pd 13.2961 11.2974 17.3436
Au 16.1553 11.6422 27.8894
Pd 10.34 14.6222 23.1736
Au 11.8091 10.991 26.0101
Pd 16.4131 10.6814 20.9455
Pd 17.4708 16.6953 4.75029
Au 14.4649 13.3385 3.25876
Au 14.1007 8.25555 4.64235
Pd 15.5735 13.8443 7.87524
Au 14.3038 11.9151 12.2583
Pd 20.4008 13.6551 7.18007
Au 11.5594 12.2984 11.3957
Pd 14.8422 14.7558 14.5702
Au 16.4852 10.2566 11.5827
Pd 16.6004 12.81 13.3946
Au 14.1428 10.4286 24.8243
Pd 15.3574 13.5006 21.2432
Au 13.5469 7.15705 19.7919
Pd 11.7973 9.52644 11.1144
Au 20.2867 14.0179 19.1911
Pd 17.2498 12.5038 22.889
Au 26.5361 10.8554 18.1489
Pd 18.0312 13.0162 20.4268
Au 10.4269 7.38219 22.9394
Pd 22.1136 12.4326 17.8844
Au 26.3862 9.79221 15.6888
Pd 20.2868 10.6893 16.848
Pd 15.9995 18.688 3.37367
Au 22.3595 18.2681 6.53836
Au 17.3581 14.2016 3.39758
Pd 18.6123 17.8744 7.09809
Au 19.6479 14.5364 4.69566
Pd 23.8123 18.6008 8.86879
Au 18.1988 13.1207 8.64549
Pd 16.1334 12.5273 10.2549
Au 17.272 15.5955 13.4587
Pd 18.4508 17.6462 9.861
Au 13.8794 12.2048 14.8835
Pd 15.9935 16.049 16.5397
Au 14.2379 9.13752 12.5571
Pd 16.6734 19.881 14.466
Au 15.2832 17.3288 18.7189
Pd 10.3824 18.5396 25.3107
Au 16.026 16.0896 21.1553
Pd 18.7352 15.5148 17.5417
Au 6.96333 11.4095 21.0197
Pd 21.7172 14.7737 21.3408
Au 18.3488 23.0134 22.6746
Pd 19.1794 13.0144 24.6656
Pd 13.2669 22.9263 9.75637
Au 16.1012 23.5607 5.88238
Au 18.3656 19.3333 4.60919
Pd 15.8793 21.3002 7.49655
Au 17.9601 18.1842 12.9175
Pd 17.7663 22.4621 9.06456
Au 18.2707 15.2698 6.97288
Pd 16.9173 15.4088 9.64157
Au 15.2172 21.7841 15.6937
Pd 15.6373 21.5558 12.7437
Au 15.2856 14.681 11.7977
Pd 13.1542 22.3897 12.4435
Au 14.8117 16.9765 27.7987
Pd 18.2612 22.6888 16.9726
Au 16.659 20.0883 17.2759
Pd 14.6547 24.7458 19.1346
Au 19.7912 17.198 27.3058
Pd 12.8031 23.0983 15.2391
Au 18.0054 17.2977 22.8431
Pd 16.3409 19.7871 25.1551
Au 22.061 18.6579 26.8343
Pd 16.6144 18.666 20.6439
Pd 18.1707 21.6878 6.21692
Au 16.1591 26.0437 7.38344
Au 13.8946 22.6185 4.51235
Pd 17.7736 22.6787 11.6179
Au 17.4702 20.0114 11.0887
Pd 13.7354 27.7262 16.197
Au 11.5194 20.8066 10.8383
Pd 7.24568 23.4225 10.8157
Au 15.5538 26.9493 9.84946
Pd 15.0173 26.435 12.4576
Au 9.07313 25.214 11.6477
Pd 11.5695 26.8608 17.7632
Au 6.94068 24.6534 13.2018
Pd 19.5928 26.0628 11.9264
Au 11.2478 27.5512 15.1721
Pd 13.1475 22.4826 22.9548
Au 15.8748 26.5349 20.6534
Pd 12.1925 25.6682 20.1905
Au 17.3266 23.5872 25.2303
Pd 18.7326 26.8714 16.9037
Au 23.3644 23.5528 21.5791
Pd 13.4504 25.2443 16.8864
Pd 14.3701 7.01227 7.96792
Pd 14.2429 3.6095 12.7538
Pd 18.6182 3.48046 13.4573
Pd 12.0498 7.77691 13.3425
Pd 16.6492 3.03082 11.7563
Pd 18.4155 6.61616 19.8751
Pd 17.5364 7.11487 17.3837
Pd 21.7829 10.1939 21.6749
Pd 19.8871 8.27067 17.9087
Pd 16.0733 8.1397 19.5022
Pd 22.7792 7.97128 20.5638
Pd 14.7399 9.42833 6.95078
Au 16.6877 11.686 3.38534
Au 19.0838 2.91543 10.5598
Pd 18.2173 5.29178 10.7801
Au 18.3307 8.06774 10.517
Pd 16.9367 6.32446 8.64806
Au 18.8338 6.4318 13.0534
Pd 13.6829 7.52927 10.55
Au 20.7881 6.13128 16.6561
Pd 17.7951 9.61483 16.4138
Au 19.8614 4.33601 20.4738
Pd 22.0003 8.66736 15.8538
Au 25.4857 8.42973 18.0261
Pd 23.9328 10.2883 14.2695
Au 18.5335 2.92114 16.154
Pd 15.7582 12.0011 18.8752
Au 20.3996 12.6304 22.0895
Pd 23.864 10.3461 17.0325
Au 18.7326 11.8287 27.0137
Pd 20.0709 8.59963 20.5083
Au 25.8832 12.1172 20.7499
Pd 18.3721 4.64091 18.1882
Pd 23.6537 16.1628 7.67715
Au 15.0567 11.9758 5.58217
Au 16.2987 7.36463 5.97489
Pd 18.1747 13.8783 11.3699
Au 18.3627 10.6284 9.67285
Pd 17.9829 8.69701 7.66796
Au 15.4219 5.30764 10.7301
Pd 16.3186 7.46624 12.0345
Au 16.0706 10.2358 14.3093
Pd 20.4786 12.3002 10.0625
Au 16.1037 12.0346 16.2681
Pd 17.5841 14.1202 15.6322
Au 20.5907 10.0844 14.1479
Pd 18.8431 11.5007 12.2562
Au 18.2843 12.3921 17.835
Pd 24.3772 14.4623 21.3401
Au 21.0062 16.7938 19.5523
Pd 18.0483 9.88394 19.0674
Au 20.0278 8.41222 23.2432
Pd 21.0863 6.23567 19.2297
Au 17.7012 13.5384 28.7695
Pd 21.952 9.7185 18.7508
Pd 18.3121 20.0583 8.40556
Au 22.1053 15.3247 5.60737
Au 17.6026 12.8869 5.84971
Pd 20.7547 18.925 8.81388
Au 22.2474 14.3702 8.95009
Pd 20.8093 16.4424 7.61806
Au 19.5342 16.1642 12.0641
Pd 21.4402 14.2843 11.6478
Au 20.3868 9.59391 11.3705
Pd 19.7055 15.1544 9.57601
Au 19.6315 13.618 13.5851
Pd 18.7173 18.5456 25.2172
Au 17.9124 17.9286 18.4113
Pd 19.7129 15.9383 14.9318
Au 22.0063 14.5377 14.3779
Pd 17.2475 18.644 27.5574
Au 22.2224 19.0236 21.5061
Pd 23.0344 17.5591 17.9986
Au 25.6773 15.8645 23.3194
Pd 24.3299 10.1317 19.768
Au 16.3674 9.35717 26.169
Pd 17.0304 21.3382 20.7121
Pd 20.1933 22.1628 7.92388
Au 22.5004 20.7185 7.85663
Au 24.0238 17.9995 11.5638
Pd 17.5855 22.4891 14.3785
Au 22.4727 20.1061 10.6723
Pd 19.9137 21.196 10.4399
Au 13.87 19.9308 13.9778
Pd 15.8306 24.2299 16.5347
Au 20.3532 18.7234 11.5526
Pd 20.2224 18.4507 14.3
Au 20.2222 17.8902 17.0209
Pd 16.2063 22.4495 18.5111
Au 21.6811 19.9809 16.1005
Pd 22.5384 17.3176 15.3682
Au 25.5331 13.1043 23.2792
Pd 11.4367 24.0466 18.2671
Au 20.1613 25.9222 19.3393
Pd 14.6439 20.1311 19.1192
Au 23.0051 19.4279 24.1525
Pd 20.7235 23.9904 21.7425
Au 19.8181 21.2614 21.3185
Pd 18.6624 21.2763 24.9255
Pd 19.809 23.8902 10.1013
Au 20.5658 25.6427 14.5805
Au 25.2589 23.2003 13.9216
Pd 14.3539 22.3773 20.5283
Au 17.359 27.4493 11.7156
Pd 19.3077 20.7998 13.1454
Au 17.573 25.2492 9.98735
Pd 11.1639 26.7821 12.6089
Au 19.012 20.3463 15.8945
Pd 16.4792 25.1597 23.1487
Au 13.3397 28.1825 13.5545
Pd 13.0659 25.6967 14.3207
Au 25.2257 22.8714 16.5903
Pd 22.6866 23.8074 16.539
Au 22.6917 24.1115 13.9258
Pd 15.9892 26.7929 17.5535
Au 10.0341 21.294 25.8004
Pd 18.1405 24.8319 15.3953
Au 17.9367 27.4715 19.3432
Pd 17.5712 24.9536 18.5051
Au 19.6822 14.382 27.1549
Pd 20.6231 22.5153 15.1586
Pd 20.9928 4.68865 9.6567
Pd 20.6682 4.45644 12.2407
Pd 19.6991 6.73894 8.71577
Pd 15.8449 5.54252 19.1233
Pd 23.1821 5.56966 15.8027
Pd 16.2541 4.69304 16.5667
Pd 25.1156 12.283 15.6881
Pd 22.8327 12.3375 20.4511
Pd 20.7931 4.00964 15.0212
Pd 21.6357 13.0151 25.815
Pd 23.7443 14.3722 16.3989
Pd 16.9358 10.0255 5.42709
Au 21.6392 12.6336 5.12647
Au 16.425 4.69035 6.68388
Pd 18.2366 9.05917 13.2496
Au 23.0161 5.57772 11.2029
Pd 20.7701 6.98209 11.2645
Au 22.9779 4.2154 13.5072
Pd 18.5172 11.6029 14.9497
Au 24.2066 6.55233 13.3254
Pd 22.3631 7.25577 9.16896
Au 20.7555 3.78489 17.7672
Pd 22.5705 8.69115 12.7237
Au 26.5803 14.5135 16.515
Pd 24.3249 7.97578 10.9088
Au 24.5342 7.89088 15.5832
Pd 19.4158 7.91823 15.2764
Au 21.4812 6.52879 13.9352
Pd 20.1598 13.3931 16.25
Au 23.8793 17.0404 20.478
Pd 23.0846 16.4959 22.9768
Au 25.6934 15.391 18.9886
Pd 23.063 7.40971 17.9079
Pd 19.2594 11.0894 7.04585
Au 19.2448 8.76026 5.30019
Au 21.2185 7.51407 6.65125
Pd 21.9993 11.6341 7.97064
Au 23.6139 13.3912 6.81065
Pd 24.7016 10.6315 11.6435
Au 20.5854 9.30743 8.55511
Pd 21.8397 11.6484 12.5052
Au 21.464 10.0835 5.79739
Pd 22.6655 9.96284 10.1376
Au 25.7556 8.70335 13.178
Pd 23.0324 14.8442 19.007
Au 26.4749 11.3662 13.488
Pd 24.0444 12.9698 13.2786
Au 24.4603 15.6246 13.9677
Pd 22.1929 21.6075 20.2505
Au 24.7352 12.7801 18.4121
Pd 19.3302 18.7034 20.7284
Au 19.6122 19.9272 27.3094
Pd 20.1765 11.3769 19.6845
Au 21.2692 20.8931 25.5361
Pd 18.6899 10.185 24.8659
Pd 20.2624 19.9206 6.36556
Au 16.1053 21.1029 4.5708
Au 24.6292 11.3283 8.68454
Pd 21.9843 16.8497 10.0798
Au 23.3278 12.5957 10.5423
Pd 23.2286 9.23871 7.62341
Au 23.9877 15.1936 11.2747
Pd 26.5713 13.9757 13.8824
Au 27.6921 12.1727 15.9894
Pd 25.8888 13.1865 11.3776
Au 24.8311 18.3202 14.1484
Pd 21.1553 17.457 24.7567
Au 25.0637 16.7147 16.4742
Pd 27.0193 16.5376 14.624
Au 23.9605 17.2317 25.358
Pd 21.434 15.5059 17.0484
Au 27.4197 13.2977 18.7684
Pd 21.9286 21.7134 22.9729
Au 24.3044 21.0014 21.9713
Pd 20.2953 19.5559 23.3329
Au 21.0859 10.9726 24.1305
Pd 20.5375 16.9254 22.2546
Pd 21.8506 24.6349 11.5442
Au 26.1801 19.0833 10.6259
Au 24.6418 21.1468 9.70614
Pd 21.7154 21.969 12.4904
Au 25.0657 14.0609 8.95016
Pd 24.8012 20.6068 12.4819
Au 25.523 16.6594 9.56335
Pd 22.4566 19.5048 13.3942
Au 27.0929 18.9723 13.1685
Pd 25.9942 20.8519 14.9313
Au 25.989 18.1021 18.5799
Pd 21.2828 19.5203 18.8789
Au 27.0269 14.4539 21.3021
Pd 22.025 16.7693 12.8299
Au 17.7733 17.7295 15.6567
Pd 20.7566 22.0462 17.8361
Au 26.3267 19.8861 20.586
Pd 26.5256 17.0611 21.0019
Au 23.8231 14.5912 24.8879
Pd 18.5311 15.9919 20.2349
Au 21.988 15.7012 26.563
Pd 26.2722 16.5201 12.1136
Pd 15.388 24.0464 11.1896
Au 17.3181 25.0145 12.8779
Au 22.1984 22.6592 9.7061
Pd 20.3662 23.2126 24.4512
Au 24.03 23.0216 11.6177
Pd 23.291 21.5078 17.7195
Au 18.2625 24.318 7.38876
Pd 24.813 22.3514 19.6606
Au 23.3687 21.6318 14.8397
Pd 19.7429 23.675 12.9923
Au 24.9713 18.4699 22.6088
Pd 24.2927 19.4067 16.5216
Au 26.1366 20.7468 17.9198
Pd 23.9769 19.6495 19.4993
Au 22.1159 24.0223 19.209
Pd 18.3326 27.1603 14.1813
Au 20.21 24.6092 17.0982
Pd 26.9077 18.719 16.0918
Au 18.7527 20.5811 18.8073
Pd 16.5465 23.9005 20.832
Au 18.473 25.6627 21.3016
Pd 19.1657 23.2808 19.6768
