665
Atoms. Timestep: 20550
Pd 8.97833 8.58407 7.74109
Pd 5.61531 8.64501 11.3072
Pd 4.62402 9.46515 17.7046
Pd 6.96793 10.5559 18.2514
Pd 8.60597 9.30482 20.0447
Au 10.1434 9.74286 5.60299
Au 6.73374 9.81905 9.06005
Pd 7.9305 11.036 6.93434
Au 3.94699 12.1102 14.3544
Pd 4.67864 11.0988 10.5423
Au 6.25634 10.575 20.8585
Pd 4.34248 11.5509 19.182
Au 6.85218 12.2035 23.1688
Pd 4.12899 14.147 18.8248
Au 5.67847 14.6844 23.5242
Pd 8.10265 16.0012 23.6542
Au 9.071 12.2621 4.79572
Au 5.76834 12.3024 8.31313
Pd 6.94041 13.5373 6.18789
Au 2.6802 12.3844 12.0121
Pd 3.80386 13.5951 9.82223
Au 2.86895 15.2229 16.4551
Pd 4.49504 14.845 14.3455
Au 5.65321 17.3066 23.03
Pd 4.94608 15.7363 20.9555
Au 7.5363 13.8217 25.2982
Pd 5.6567 19.4927 24.3467
Au 9.80606 16.7792 3.16095
Au 4.89708 14.8345 7.64181
Pd 6.05016 16.0485 5.51216
Au 3.02408 15.1085 11.9746
Pd 4.21172 16.3738 9.87782
Au 2.58012 17.8999 16.4281
Pd 2.46827 16.63 14.1236
Au 6.92583 22.4463 21.3039
Pd 5.39692 18.2562 19.849
Au 10.2826 13.3942 25.8887
Pd 6.45131 19.7727 21.7418
Au 8.06877 14.778 4.03431
Au 5.32515 17.5888 7.69055
Pd 6.55173 18.7748 5.55206
Au 3.59342 17.9349 12.1132
Pd 4.7602 19.1394 9.97988
Au 4.60013 19.4642 17.1199
Pd 3.20576 19.3993 14.351
Au 5.73969 20.9369 19.2759
Pd 5.22971 22.1464 16.8599
Au 11.834 15.4505 26.4659
Pd 9.25067 23.1069 22.7488
Au 8.22901 20.8191 6.23716
Au 5.34069 21.8562 9.99562
Pd 7.19459 17.2517 3.41237
Au 6.54572 25.3038 12.9278
Pd 6.82293 21.5453 12.3319
Au 4.88631 23.3339 12.211
Pd 9.84406 21.1841 16.8745
Au 6.35179 23.6121 18.9363
Pd 8.37575 21.79 19.1539
Au 9.60174 21.0781 24.7759
Pd 10.4921 26.0311 19.2407
Pd 11.3092 7.3066 6.47879
Pd 7.77315 7.4347 9.89747
Pd 10.0801 6.24611 8.64249
Pd 4.59519 7.51257 13.56
Pd 6.66544 6.26625 12.108
Pd 7.79436 5.94568 17.4428
Pd 6.41044 5.88978 14.7774
Pd 4.80906 9.72614 15.0831
Pd 8.68545 6.59879 19.8525
Pd 13.0222 8.73141 24.7722
Pd 8.4457 10.0043 22.6668
Pd 11.7783 11.7381 4.62797
Au 12.8508 9.22598 5.3753
Au 11.6112 9.41828 7.93812
Pd 9.33487 10.7819 9.28513
Au 10.358 8.38097 10.147
Pd 13.2836 11.4256 6.92512
Au 8.13682 9.61937 11.4727
Pd 6.07315 10.8687 12.9374
Au 6.98009 8.42779 13.7253
Pd 10.7465 10.5315 11.7673
Au 3.59068 9.89785 12.6908
Pd 5.3825 11.9909 16.7092
Au 6.33537 7.97616 16.3657
Pd 7.40937 10.5217 15.4952
Au 4.98975 13.0493 21.374
Pd 8.50909 12.0666 21.0107
Au 6.53609 8.0135 19.0153
Pd 9.47076 11.6046 18.4973
Au 10.8245 10.6596 20.5423
Pd 9.27172 13.5879 23.3039
Au 11.9344 6.65132 23.3771
Pd 13.4527 11.2705 23.957
Pd 10.7665 14.2654 3.86371
Au 13.4324 13.7741 3.61796
Au 10.5355 11.9349 7.09821
Pd 8.36295 13.2411 8.51412
Au 12.0042 11.5838 9.52706
Pd 12.2618 13.9375 6.15976
Au 7.20987 12.0543 10.6898
Pd 5.17204 13.3416 12.1533
Au 8.64322 11.8139 13.2131
Pd 9.81944 12.9623 10.9371
Au 2.00105 13.894 14.2452
Pd 2.93582 12.6518 16.7952
Au 7.92376 12.9732 16.8705
Pd 6.5673 13.0836 14.5241
Au 6.58552 13.0367 19.2246
Pd 7.37548 14.4802 21.4805
Au 11.8531 9.07838 22.3742
Pd 9.09145 14.2236 19.3373
Au 8.81283 11.3552 24.9848
Pd 7.27504 21.4426 23.7142
Au 16.2238 12.6433 26.4289
Pd 10.7761 11.3663 23.1701
Pd 11.5822 18.7628 3.93135
Au 12.4718 16.3157 2.99779
Au 9.52615 14.448 6.32722
Pd 7.44477 15.7644 7.80219
Au 11.0145 14.1284 8.7149
Pd 11.2776 16.4754 5.44705
Au 6.29597 14.5663 9.96684
Pd 5.59776 16.1353 12.2757
Au 7.75644 14.3112 12.3647
Pd 8.92103 15.4639 10.155
Au 4.22846 16.7442 18.1286
Pd 6.60193 17.6447 17.1278
Au 5.70726 14.7762 16.7488
Pd 7.09699 15.8694 14.6313
Au 6.77723 15.8122 19.0727
Pd 8.22748 18.7548 23.5487
Au 9.75737 18.3242 25.8693
Pd 8.52458 15.6552 16.9372
Au 9.08789 15.7878 26.2299
Pd 10.7578 16.2194 24.1371
Au 10.9397 19.0191 23.6071
Pd 10.0595 18.3428 21.2869
Pd 8.89338 19.2188 4.1196
Au 10.6539 21.1958 4.8713
Au 8.58859 16.9759 5.61467
Pd 7.95937 18.5155 7.83694
Au 10.0663 16.6723 7.95248
Pd 10.3314 18.9657 6.39101
Au 6.77672 17.3179 10.0654
Pd 6.13677 18.8152 12.4562
Au 8.27542 17.0324 12.423
Pd 9.45308 18.2144 10.1766
Au 4.95749 17.5379 14.9095
Pd 7.19844 20.3352 16.9825
Au 9.21576 18.4807 17.004
Pd 7.617 18.6132 14.7419
Au 7.57472 17.2255 21.2594
Pd 7.84314 19.1393 19.3725
Au 6.92659 17.3766 25.5425
Pd 10.4014 19.9754 19.2471
Au 7.6102 19.9001 25.9888
Pd 13.5837 19.4358 23.352
Au 16.6994 21.6952 24.2687
Pd 11.4911 21.5621 22.9854
Pd 7.65147 22.312 8.50608
Au 9.99613 22.8065 7.00938
Au 5.92254 20.3066 7.75835
Pd 4.25044 20.682 12.2196
Au 9.70512 20.5307 8.58483
Pd 9.43087 24.2862 9.27268
Au 7.34026 20.0393 10.1004
Pd 8.84848 25.7627 11.4967
Au 8.84562 19.7234 12.44
Pd 9.13945 22.0477 10.8365
Au 5.58641 20.4716 14.6678
Pd 8.2716 21.3216 14.6378
Au 11.8822 19.2845 17.0341
Pd 10.3659 19.495 14.7221
Au 10.7274 22.4515 20.5146
Pd 8.6918 24.267 20.3251
Au 9.47439 16.9088 19.1727
Pd 6.21438 23.1452 14.5146
Au 12.1286 20.5604 25.5301
Pd 9.02611 20.6892 21.7137
Au 18.5268 23.3449 23.1192
Pd 8.1437 25.4046 17.9131
Pd 11.5726 4.17688 9.56813
Pd 8.92331 5.15472 10.7591
Pd 10.5986 3.77489 12.1776
Pd 8.4948 4.81005 13.5291
Pd 11.9514 3.49732 14.4739
Pd 9.87771 4.58204 16.0435
Pd 12.2013 3.4761 17.249
Pd 10.7451 5.48833 21.2399
Pd 9.95563 4.39669 18.7602
Pd 13.3385 7.23429 20.9872
Pd 13.4115 3.20402 19.625
Pd 14.4657 11.2906 4.39513
Au 14.0678 6.7818 6.26224
Au 12.774 6.64453 8.67655
Pd 13.0575 8.90116 10.3097
Au 11.5517 6.15835 11.167
Pd 14.3358 8.94576 7.7484
Au 9.14856 7.22828 12.3551
Pd 9.49691 9.41434 13.9805
Au 10.9122 5.86885 13.8858
Pd 11.8111 8.24228 12.7721
Au 8.78192 6.9787 15.2117
Pd 8.75338 8.84177 17.2708
Au 12.4445 5.86163 16.1572
Pd 11.1628 8.21452 15.6096
Au 10.3665 6.74505 17.6868
Pd 11.0227 7.96547 19.9507
Au 12.3058 5.48142 19.1943
Pd 13.3262 7.68573 18.0869
Au 9.53937 7.6283 22.2485
Pd 14.8497 13.4954 23.7268
Au 10.2794 9.00325 24.5206
Pd 14.4453 9.43598 22.3235
Pd 15.1509 15.8596 2.85882
Au 16.1294 13.3564 3.39539
Au 14.9513 13.4613 5.93739
Pd 13.7339 13.6017 8.53427
Au 14.7282 11.0649 9.33898
Pd 16.6501 15.5306 5.08651
Au 13.4042 11.166 11.9292
Pd 11.245 12.6836 13.3863
Au 12.2128 10.3532 14.3441
Pd 15.1795 13.2302 10.9246
Au 10.0655 11.376 15.8133
Pd 10.6392 13.8279 17.1779
Au 11.26 9.72428 17.8308
Pd 12.6291 12.4965 15.8697
Au 10.9779 13.2653 21.1264
Pd 9.96814 15.6793 21.6249
Au 13.3267 11.9517 21.425
Pd 12.3089 12.2957 18.7242
Au 13.3202 14.7009 21.7493
Pd 11.9498 13.6656 23.8296
Au 15.8014 15.1268 25.7721
Pd 17.5313 13.8096 23.8923
Pd 14.2813 18.3096 3.76194
Au 16.976 17.8749 3.54432
Au 13.9511 15.9925 5.26196
Pd 12.7732 16.1443 7.79241
Au 15.4555 15.6426 7.62676
Pd 15.7816 17.9884 6.05059
Au 12.4791 13.7858 11.1127
Pd 10.4134 15.1803 12.5314
Au 13.9038 13.3624 13.5137
Pd 14.2802 15.7896 10.1641
Au 9.25794 14.0243 14.7596
Pd 11.2326 16.5467 17.1172
Au 13.3261 14.6698 17.3871
Pd 11.8885 14.9229 14.9205
Au 11.7897 15.2466 19.5083
Pd 12.5252 17.9451 25.5317
Au 12.3748 17.2204 22.1142
Pd 14.7133 18.783 20.8114
Au 13.4257 13.2234 26.0598
Pd 13.4975 15.7425 24.4106
Au 14.4175 10.6102 26.2977
Pd 17.5732 18.0718 21.0189
Pd 13.3771 20.7491 4.72
Au 16.0987 20.2985 4.54484
Au 13.063 18.473 6.21619
Pd 11.8409 18.6488 8.73413
Au 14.5782 18.1222 8.5912
Pd 14.8647 20.4365 7.02848
Au 11.5694 16.3492 10.3057
Pd 10.9787 17.899 12.519
Au 13.1089 15.9834 12.6695
Pd 13.3616 18.3109 11.1003
Au 9.75923 16.7888 14.7618
Pd 10.1561 23.6264 18.0778
Au 13.9611 17.3359 17.2382
Pd 14.447 22.0481 14.0682
Au 12.2906 17.9823 19.485
Pd 12.6289 20.4774 20.8258
Au 16.2795 19.1633 23.1601
Pd 12.1989 21.7887 18.27
Au 15.236 17.6917 25.3298
Pd 15.1128 21.2898 21.9882
Au 20.0097 18.6001 26.0467
Pd 14.5353 22.3889 19.5941
Pd 12.4623 23.1422 5.71554
Au 16.6351 22.3629 7.96396
Au 12.1082 20.9343 7.17212
Pd 11.4868 22.5031 9.37721
Au 13.6208 20.6198 9.54397
Pd 15.334 22.6408 10.3868
Au 11.2315 20.2005 10.9556
Pd 11.2058 26.1973 10.0415
Au 10.9006 24.0612 11.6132
Pd 12.9778 22.219 11.7491
Au 12.4951 17.5981 14.8563
Pd 8.05351 25.264 15.1788
Au 5.85652 24.7854 16.5966
Pd 10.1008 23.463 15.3316
Au 12.7745 26.5922 17.8302
Pd 7.82996 22.997 16.7423
Au 12.52 24.2613 19.3726
Pd 10.4275 25.8933 16.5195
Au 11.0264 24.8842 21.6416
Pd 13.1619 23.2395 21.8059
Au 15.5958 23.8182 23.0731
Pd 15.1734 27.0911 19.1358
Pd 15.6024 4.71435 7.08084
Pd 16.6794 3.07253 8.87503
Pd 15.4572 2.64629 11.182
Pd 14.2257 2.2019 13.5379
Pd 16.5844 2.58618 14.7575
Pd 14.511 5.08595 17.7694
Pd 14.7066 2.29928 17.0668
Pd 13.21 4.71154 21.9743
Pd 17.6864 4.46253 20.2549
Pd 11.6012 11.0474 25.7571
Pd 17.5149 6.90329 23.9396
Pd 15.5455 8.86225 5.215
Au 15.6293 6.74625 8.72505
Au 14.2679 4.31594 9.35045
Pd 14.3349 6.47778 11.0823
Au 16.7025 5.00273 10.6268
Pd 15.8392 8.83696 10.5462
Au 13.1896 3.99149 11.8671
Pd 13.5274 6.13884 13.6003
Au 17.9247 4.9922 14.4078
Pd 15.6287 4.55031 13.0415
Au 14.337 4.08243 15.3071
Pd 15.6976 6.36033 15.3523
Au 16.816 4.13509 16.8899
Pd 18.1011 7.01554 16.2901
Au 15.9351 2.91524 19.2285
Pd 15.0763 5.32614 20.3312
Au 16.3697 4.67156 22.6343
Pd 16.7794 6.37388 18.539
Au 14.7641 6.74826 23.1677
Pd 15.6929 8.68198 24.789
Au 18.95 9.23294 24.6701
Pd 15.6038 8.41585 19.911
Pd 17.8184 15.4533 2.67438
Au 17.1665 10.9342 4.1059
Au 16.0201 10.9864 6.67267
Pd 16.4374 13.1042 8.32231
Au 16.1047 11.0292 12.3908
Pd 17.6877 13.0224 5.71098
Au 14.4959 8.73765 12.8412
Pd 14.8407 10.899 14.738
Au 16.8279 8.93828 14.537
Pd 16.4078 13.1406 14.3381
Au 13.7935 8.27658 15.3657
Pd 13.7312 10.398 17.1312
Au 15.7764 8.52798 17.1356
Pd 17.0626 10.8923 16.5124
Au 13.28 9.79207 19.8069
Pd 14.6569 13.4892 19.5379
Au 15.6499 10.8897 18.9587
Pd 17.1911 13.014 18.7956
Au 16.9647 9.27798 22.4589
Pd 20.0757 13.4261 23.2074
Au 17.1214 10.0979 26.4851
Pd 16.0409 11.9119 21.5638
Pd 18.8055 19.767 4.50104
Au 19.6671 17.3935 3.42375
Au 18.5085 17.4818 5.8772
Pd 17.3113 17.5873 8.42925
Au 18.1772 15.1376 7.38888
Pd 19.0124 20.6912 9.1387
Au 16.9795 15.2538 9.98265
Pd 15.8378 15.4071 12.5349
Au 17.4527 15.5654 14.737
Pd 17.5709 17.9457 13.2505
Au 15.1881 12.7917 16.8066
Pd 16.0773 15.2849 17.3731
Au 18.2354 13.4456 16.3355
Pd 16.3054 17.7657 15.8051
Au 14.5672 16.2082 19.768
Pd 18.9921 15.87 21.9074
Au 16.1298 14.7014 21.6698
Pd 17.4473 15.7068 19.6256
Au 17.2359 16.5838 23.8203
Pd 21.0076 13.7409 25.7002
Au 14.8626 20.2256 25.6458
Pd 22.1092 15.0358 23.3686
Pd 13.8911 22.8771 8.02548
Au 17.9301 22.1903 5.52179
Au 17.6123 19.9043 6.93376
Pd 16.3587 20.0695 9.43443
Au 17.7908 20.4058 11.7114
Pd 18.0219 22.8775 10.2461
Au 16.0949 17.7611 10.9716
Pd 14.861 17.9698 13.46
Au 16.5721 20.2827 16.9913
Pd 16.5458 20.2074 14.2394
Au 14.6377 15.5471 15.053
Pd 12.1617 21.604 15.4925
Au 17.8981 16.9332 26.4436
Pd 19.655 26.4695 19.0228
Au 14.1949 19.9148 18.4437
Pd 14.8123 24.6939 17.9601
Au 22.8776 18.0443 26.7483
Pd 12.3744 23.8923 13.9257
Au 19.7209 15.863 24.5107
Pd 22.4011 12.4849 22.2667
Au 18.4605 14.3675 26.4578
Pd 17.5611 19.3894 25.413
Pd 14.2452 25.0397 6.56596
Au 13.4822 26.5878 8.619
Au 15.1994 22.7219 5.53685
Pd 16.7453 22.6377 12.6938
Au 15.0865 20.3344 11.9213
Pd 12.5839 26.1375 12.3652
Au 12.7451 19.9236 13.3124
Pd 7.09763 23.8302 10.7235
Au 11.771 24.7391 7.80992
Pd 15.5868 24.8866 8.87378
Au 10.6394 21.7813 13.1965
Pd 12.7222 26.3407 15.1014
Au 8.55468 23.5995 13.0695
Pd 21.6563 25.1025 14.9495
Au 10.3156 25.7614 13.7756
Pd 17.3303 25.4653 21.9266
Au 15.0823 26.994 16.4021
Pd 14.9471 24.924 20.69
Au 12.8581 26.5861 20.5407
Pd 19.7137 26.5579 21.6593
Au 22.1321 22.3213 23.8699
Pd 14.7481 24.5224 15.2399
Pd 18.0086 5.30711 8.23839
Pd 19.0256 3.62763 10.0778
Pd 18.0852 7.30232 10.0952
Pd 17.84 3.10572 12.3952
Pd 21.4339 4.23306 11.2996
Pd 18.4622 2.56514 18.4304
Pd 19.1145 3.08477 15.9184
Pd 19.2206 5.39184 22.2031
Pd 20.1676 3.77114 20.1031
Pd 20.1324 6.81994 24.1573
Pd 19.284 6.78701 19.9324
Pd 17.0958 9.02043 8.17463
Au 16.9433 6.93634 6.36979
Au 16.7063 6.99865 12.6145
Pd 18.2159 9.29905 12.0168
Au 20.5263 7.85957 11.4054
Pd 19.565 9.55137 9.50057
Au 19.0998 5.52133 11.9498
Pd 19.2191 7.49546 13.8728
Au 21.5612 6.0872 13.2504
Pd 20.6327 9.83451 13.4395
Au 20.3722 5.55488 15.6217
Pd 20.496 7.489 17.6044
Au 22.7996 6.05451 16.9825
Pd 21.7125 8.00116 15.2642
Au 19.1386 5.0647 17.9583
Pd 18.1026 8.81529 18.3671
Au 22.8477 8.0234 19.1148
Pd 21.6925 9.9689 17.3385
Au 17.0436 6.85931 21.3648
Pd 21.2632 10.1459 22.0556
Au 21.5586 7.08131 21.6399
Pd 19.3246 8.33317 22.1269
Pd 18.8191 12.9868 3.25609
Au 18.6521 11.2779 7.55425
Au 17.3801 11.1512 10.0115
Pd 17.6882 13.2667 11.8983
Au 19.7406 11.5741 11.4593
Pd 18.9862 13.3622 9.39952
Au 18.3625 11.2948 14.0088
Pd 19.515 13.8196 13.8425
Au 21.815 12.3086 13.1203
Pd 20.7544 14.1447 11.3317
Au 19.3467 9.42907 15.8967
Pd 20.5639 11.9249 15.5735
Au 22.9116 10.477 14.9373
Pd 22.9698 13.3244 15.4526
Au 19.3286 11.3599 17.9756
Pd 18.0484 10.5935 20.2994
Au 20.4466 9.23925 19.7123
Pd 21.7572 12.7991 17.9141
Au 16.3079 11.2368 24.178
Pd 18.7818 11.9344 25.4184
Au 21.9287 8.58596 23.9669
Pd 18.8103 11.1932 22.7976
Pd 19.2583 23.0824 7.76423
Au 21.8862 16.1693 4.45026
Au 19.3872 15.086 4.78789
Pd 18.7806 18.2273 10.6299
Au 19.7069 16.0016 9.49552
Pd 19.9242 18.4482 8.0439
Au 18.6176 15.7886 12.1014
Pd 19.8498 16.7427 14.4307
Au 21.9714 15.1292 13.6242
Pd 21.0464 16.9646 11.7749
Au 20.6774 14.7968 16.1825
Pd 16.2868 17.9327 18.5568
Au 20.1059 19.3787 20.6808
Pd 20.9433 17.7135 16.8645
Au 19.5775 14.2614 18.6804
Pd 18.3505 13.3832 21.1475
Au 22.6025 20.7429 20.3596
Pd 19.923 16.8767 19.4982
Au 20.4683 12.0797 20.3451
Pd 23.4061 13.0353 24.7202
Au 21.1894 11.2055 24.5386
Pd 20.5354 21.9853 21.7276
Pd 20.4468 24.068 10.0779
Au 21.4909 21.8793 8.92965
Au 21.2354 19.4354 10.3031
Pd 16.8031 22.6679 15.4062
Au 19.9819 19.1989 12.9652
Pd 20.2136 21.6481 11.4328
Au 14.2437 19.7009 15.6205
Pd 14.4962 22.2198 16.8244
Au 22.2107 17.9994 14.1779
Pd 18.7405 18.9916 15.5605
Au 18.7087 19.0292 18.3313
Pd 16.8518 22.7755 18.1277
Au 21.1132 20.2984 18.031
Pd 23.3261 18.9893 16.5975
Au 24.0494 19.234 24.401
Pd 12.4594 24.0983 16.6497
Au 20.9521 24.4825 22.7671
Pd 16.5982 20.4291 19.7663
Au 20.7659 16.1901 26.9107
Pd 18.097 20.7734 22.0302
Au 24.2745 21.1716 22.5707
Pd 21.7431 19.8157 22.8827
Pd 19.2183 23.9013 12.4924
Au 21.7555 25.2787 17.6382
Au 22.6107 22.9336 11.3159
Pd 19.3683 24.1684 20.5671
Au 16.989 24.5536 6.56592
Pd 18.9343 21.4905 13.9793
Au 14.7472 26.6129 10.922
Pd 13.2283 24.4458 10.1916
Au 18.9855 21.5256 16.6997
Pd 17.4631 27.4653 17.7198
Au 18.2409 25.2517 8.8799
Pd 14.6255 24.3319 12.5089
Au 25.7425 20.2604 16.3588
Pd 22.9883 23.2611 21.4341
Au 23.7163 23.8653 13.619
Pd 15.021 26.7494 13.6585
Au 13.8359 22.1754 24.2237
Pd 17.1223 25.0948 16.555
Au 21.7949 25.4149 20.3386
Pd 17.2191 25.2075 19.2256
Au 19.6185 21.0348 24.3165
Pd 19.3167 24.0317 17.8692
Pd 19.3581 7.56343 7.65613
Pd 20.3895 5.90217 9.51765
Pd 20.8443 9.73723 7.03138
Pd 23.7593 4.79985 12.6539
Pd 22.8429 6.5071 10.8356
Pd 21.3026 3.7184 17.434
Pd 26.7009 12.9395 16.8353
Pd 21.6456 5.67424 19.3243
Pd 20.2616 3.66063 13.5923
Pd 23.5762 8.90948 21.5534
Pd 25.0711 9.64207 19.1151
Pd 18.2973 9.23111 5.79221
Au 19.8725 11.317 5.04502
Au 21.8513 8.11621 8.92954
Pd 21.978 10.1141 10.8915
Au 24.2936 8.76437 10.3848
Pd 23.3052 10.352 8.44267
Au 22.9535 8.43681 12.8401
Pd 24.1379 10.875 12.4593
Au 25.3615 11.2431 10.0235
Pd 24.1101 12.9262 8.20013
Au 24.018 6.5741 14.6574
Pd 27.4333 10.6195 14.2019
Au 22.5753 4.1826 14.9833
Pd 26.502 12.2694 12.2768
Au 24.0719 8.5922 16.7373
Pd 25.225 9.08205 14.3273
Au 26.3917 9.54615 11.9346
Pd 24.3919 14.2095 17.6065
Au 22.7809 10.7951 19.7437
Pd 24.8113 11.3563 21.4364
Au 26.8917 13.1001 21.5502
Pd 25.1708 7.12115 12.3048
Pd 20.2758 13.4194 6.82693
Au 21.4247 13.4371 4.32725
Au 21.1176 11.7784 8.86123
Pd 21.9092 14.4084 8.8213
Au 23.0111 14.5327 6.30513
Pd 21.075 18.5236 5.54958
Au 23.0491 12.6214 10.6304
Pd 24.2453 13.6697 12.9138
Au 22.392 11.8486 6.33358
Pd 25.455 13.9595 10.4178
Au 25.2611 11.9392 14.7737
Pd 22.0819 15.54 18.4269
Au 27.6942 13.2955 14.4413
Pd 25.4216 14.692 15.1681
Au 24.0682 11.4804 17.3027
Pd 23.4482 13.3942 19.9351
Au 26.3244 10.2333 16.6698
Pd 25.8398 14.8488 19.8406
Au 24.5211 14.0664 22.317
Pd 23.6681 10.5648 23.689
Au 25.2683 17.2432 25.6255
Pd 25.837 12.2254 19.1823
Pd 22.3968 19.5761 7.81272
Au 20.2208 20.8466 6.62982
Au 20.8262 16.1369 6.93289
Pd 22.1829 17.1482 9.1714
Au 24.421 15.6435 8.52782
Pd 23.2583 17.2562 6.67807
Au 23.2432 15.4109 11.0482
Pd 26.6292 15.0003 12.6935
Au 27.792 15.976 14.9896
Pd 25.6393 16.6954 10.8433
Au 23.1194 16.1284 15.958
Pd 24.4987 16.8904 18.2128
Au 26.8145 15.6171 17.4434
Pd 25.5071 17.4111 15.7318
Au 23.5645 16.0721 20.6754
Pd 21.4025 17.2537 21.7956
Au 25.7997 12.2264 23.7895
Pd 25.997 17.4415 20.4422
Au 25.5864 14.7375 24.7251
Pd 23.8664 18.6733 21.5592
Au 23.1834 15.5245 25.8244
Pd 21.8429 17.5588 24.4128
Pd 21.3228 22.7231 13.7501
Au 23.6931 20.6916 10.1265
Au 22.4149 20.4716 12.6707
Pd 21.1105 20.2723 15.2821
Au 24.5819 18.368 8.97449
Pd 24.8097 21.6739 12.5255
Au 23.4514 18.2052 11.4919
Pd 24.5904 19.2216 13.9332
Au 26.823 17.7151 13.1776
Pd 25.7921 19.4243 11.3948
Au 26.9057 20.4354 13.769
Pd 22.3345 18.1858 19.2631
Au 26.8747 18.2828 17.986
Pd 24.4048 16.4471 13.3683
Au 18.5286 16.4801 17.1023
Pd 21.4257 22.9263 19.1965
Au 26.2282 18.282 23.1342
Pd 21.1595 14.6443 20.8693
Au 21.9461 20.3047 25.5945
Pd 14.9706 16.8902 22.5596
Au 26.6445 15.6936 22.4067
Pd 24.1693 16.6341 23.2842
Pd 16.8773 25.0756 11.2328
Au 17.3929 27.377 15.0251
Au 19.5343 26.28 13.7264
Pd 24.7212 19.5248 18.9568
Au 19.2552 26.1871 11.1362
Pd 23.807 23.961 16.2761
Au 17.0892 25.0415 13.8597
Pd 23.4467 21.5851 17.7757
Au 23.4966 21.4863 15.0579
Pd 19.2384 23.9239 15.1944
Au 27.8258 18.6602 15.5121
Pd 25.8223 22.6361 14.9009
Au 25.8051 22.6687 17.5796
Pd 21.3885 22.7981 16.4696
Au 17.5633 27.549 20.3692
Pd 19.5785 26.3418 16.3715
Au 26.2542 19.9879 21.1234
Pd 24.9832 22.0057 20.0452
Au 19.0106 21.6479 19.4567
Pd 16.9403 22.9762 20.8561
Au 19.2692 18.4645 23.2905
Pd 23.8075 24.0939 18.9313
