665
Atoms. Timestep: 20185
Pd 5.54987 5.70067 7.4615
Pd 5.51139 5.6367 11.2961
Pd 5.49748 5.62663 15.2433
Pd 5.52002 5.6428 19.1904
Pd 5.56679 5.71285 23.0247
Au 5.55542 7.54145 5.58951
Au 5.37241 7.49033 9.37642
Pd 5.40298 9.41784 7.43865
Au 5.34849 7.43171 13.2719
Pd 5.33301 9.38027 11.3255
Au 5.35278 7.43476 17.2123
Pd 5.3175 9.34443 15.2407
Au 5.38514 7.49955 21.1074
Pd 5.34152 9.38652 19.1555
Au 5.57616 7.55672 24.8936
Pd 5.41986 9.43024 23.0419
Au 5.52057 11.3174 5.54999
Au 5.30425 11.3457 9.34525
Pd 5.38453 13.2724 7.38391
Au 5.2487 11.3173 13.2789
Pd 5.2777 13.281 11.2974
Au 5.25301 11.3206 17.1995
Pd 5.24644 13.2732 15.2375
Au 5.31704 11.3552 21.1326
Pd 5.28639 13.288 19.1777
Au 5.54161 11.3324 24.9277
Pd 5.40159 13.2845 23.0911
Au 5.51316 15.2212 5.53767
Au 5.29067 15.2235 9.30741
Pd 5.3858 17.1722 7.38184
Au 5.21654 15.2274 13.2652
Pd 5.27977 17.17 11.294
Au 5.22091 15.231 17.2062
Pd 5.24847 17.1857 15.2331
Au 5.30388 15.2332 21.1653
Pd 5.28831 17.1758 19.1752
Au 5.53415 15.2359 24.9344
Pd 5.40357 17.1846 23.0883
Au 5.52307 19.1261 5.54788
Au 5.30805 19.1028 9.33925
Pd 5.41896 21.0217 7.43238
Au 5.253 19.1395 13.2698
Pd 5.33982 21.076 11.3109
Au 5.25682 19.1396 17.1937
Pd 5.32303 21.1121 15.232
Au 5.32093 19.1113 21.1271
Pd 5.3473 21.0767 19.1468
Au 5.54562 19.1395 24.9219
Pd 5.4258 21.0391 23.0335
Au 7.43783 24.7749 5.57007
Au 5.38366 22.9623 9.35176
Pd 5.59586 22.9022 5.58145
Au 5.35518 23.0208 13.2607
Pd 5.51637 24.8085 11.2797
Au 5.36035 23.0251 17.2004
Pd 5.50667 24.8298 15.2285
Au 5.39291 22.9666 21.0958
Pd 5.52951 24.82 19.1758
Au 5.58423 22.9153 24.8823
Pd 5.57639 24.756 23.0103
Pd 7.42507 5.69831 5.58216
Pd 7.39093 5.55063 9.36416
Pd 9.33159 5.54818 7.41921
Pd 7.34272 5.51375 13.2713
Pd 9.29859 5.45652 11.3121
Pd 7.34703 5.5168 17.2114
Pd 9.27223 5.43588 15.2393
Pd 7.40377 5.55983 21.1184
Pd 9.30719 5.46266 19.1665
Pd 7.44597 5.7137 24.9
Pd 9.3486 5.56053 23.0591
Pd 7.40657 9.41531 5.43064
Au 9.34185 7.48532 5.39823
Au 7.42751 7.53961 7.45748
Pd 7.33153 9.42962 9.38848
Au 9.35661 7.42246 9.38247
Pd 9.36067 9.42706 7.35487
Au 7.35065 7.45873 11.3265
Pd 7.2785 9.37999 13.2847
Au 9.31417 7.35741 13.2804
Pd 9.31569 9.38149 11.3341
Au 7.33459 7.43642 15.2399
Pd 7.28274 9.38309 17.1922
Au 9.31844 7.36048 17.1952
Pd 9.29266 9.351 15.2363
Au 7.35916 7.46486 19.1532
Pd 7.34422 9.43892 21.088
Au 9.36936 7.43168 21.0928
Pd 9.32415 9.38768 19.1383
Au 7.44437 7.55189 23.0217
Pd 7.42789 9.43056 25.0457
Au 9.36335 7.50075 25.0769
Pd 9.37784 9.4394 23.1172
Pd 7.35663 13.2699 5.40754
Au 9.31536 11.3407 5.32531
Au 7.36295 11.3469 7.3883
Pd 7.28056 13.2849 9.34189
Au 9.31949 11.3546 9.34049
Pd 9.31873 13.2824 7.29917
Au 7.23372 11.3484 11.329
Pd 7.20287 13.2835 13.2772
Au 9.2547 11.3295 13.2825
Pd 9.25237 13.2862 11.3065
Au 7.20326 11.3285 15.2371
Pd 7.20706 13.2871 17.1937
Au 9.25886 11.3327 17.187
Pd 9.21867 13.2809 15.2332
Au 7.24214 11.3548 19.1447
Pd 7.29332 13.2943 21.1289
Au 9.33227 11.3639 21.1287
Pd 9.26076 13.2926 19.16
Au 7.38 11.3592 23.0853
Pd 7.37809 13.285 25.0633
Au 9.33704 11.356 25.144
Pd 9.33604 13.2946 23.1672
Pd 7.35789 17.1713 5.4051
Au 9.28161 15.2192 5.30728
Au 7.34629 15.2216 7.36703
Pd 7.28243 17.1602 9.33996
Au 9.29373 15.2217 9.31
Pd 9.32197 17.1572 7.29648
Au 7.20327 15.2242 11.3044
Pd 7.20468 17.1697 13.2731
Au 9.21946 15.2254 13.2693
Pd 9.25428 17.1611 11.3034
Au 7.16674 15.2283 15.2335
Pd 7.20892 17.172 17.1906
Au 9.22367 15.2284 17.194
Pd 9.22054 17.1729 15.23
Au 7.21182 15.2309 19.1639
Pd 7.29531 17.1702 21.1262
Au 9.30634 15.2312 21.1538
Pd 9.2627 17.1669 19.1572
Au 7.36347 15.2336 23.101
Pd 7.38007 17.1851 25.0604
Au 9.30363 15.2342 25.1564
Pd 9.33801 17.1707 23.1644
Pd 7.42003 21.0085 5.4299
Au 9.32416 19.0924 5.31829
Au 7.36829 19.0928 7.38473
Pd 7.33916 21.0185 9.37737
Au 9.32426 19.0894 9.33498
Pd 9.36677 21.0137 7.34641
Au 7.23739 19.1024 11.3216
Pd 7.28389 21.0724 13.2749
Au 9.25843 19.121 13.2761
Pd 9.32212 21.0659 11.3252
Au 7.20693 19.1272 15.2304
Pd 7.28846 21.075 17.1833
Au 9.26266 19.1236 17.1811
Pd 9.2983 21.102 15.2272
Au 7.24606 19.1067 19.1391
Pd 7.35006 21.0253 21.0794
Au 9.33619 19.0984 21.123
Pd 9.32997 21.0715 19.1294
Au 7.38395 19.1081 23.0796
Pd 7.43387 21.0396 25.0371
Au 9.341 19.1123 25.1382
Pd 9.38371 21.0259 23.1086
Pd 5.58678 24.7728 7.44827
Au 9.33031 22.9607 5.37778
Au 7.44018 22.9074 7.44746
Pd 7.40635 24.899 9.35846
Au 9.36765 23.0231 9.37314
Pd 9.33882 24.9046 7.40413
Au 7.35846 22.99 11.3139
Pd 7.35055 24.9369 13.2548
Au 9.32216 23.0923 13.2688
Pd 9.31265 24.9918 11.3018
Au 7.34199 23.0183 15.2278
Pd 7.35646 24.941 17.1964
Au 9.3261 23.0956 17.1829
Pd 9.28119 25.0169 15.2236
Au 7.36686 22.9962 19.1414
Pd 7.41339 24.9042 21.1036
Au 9.37716 23.0305 21.081
Pd 9.31677 24.9964 19.1514
Au 7.4522 22.9152 23.0102
Pd 7.45575 24.7565 24.8855
Au 9.37116 22.9676 25.0652
Pd 9.35837 24.9047 23.0443
Pd 11.2595 5.62943 5.5353
Pd 11.2836 5.45401 9.32267
Pd 13.2386 5.50627 7.36241
Pd 11.2597 5.38672 13.2684
Pd 13.2442 5.38419 11.2795
Pd 11.264 5.3898 17.206
Pd 13.2382 5.34883 15.2351
Pd 11.2965 5.46331 21.1515
Pd 13.2528 5.39041 19.1905
Pd 11.2808 5.64467 24.9386
Pd 13.2559 5.51862 23.1073
Pd 11.2933 9.37274 5.35216
Au 13.2372 7.42172 5.36578
Au 11.2962 7.45374 7.37219
Pd 11.3106 9.37897 9.33475
Au 13.2544 7.35241 9.33149
Pd 13.2568 9.37241 7.29327
Au 11.2979 7.32524 11.3196
Pd 11.2881 9.30934 13.2797
Au 13.2528 7.26452 13.2702
Pd 13.2605 9.30682 11.3029
Au 11.2815 7.29027 15.2357
Pd 11.2923 9.31246 17.1886
Au 13.2571 7.26762 17.1969
Pd 13.2558 9.26677 15.232
Au 11.3065 7.3314 19.1517
Pd 11.3235 9.38824 21.1332
Au 13.2674 7.36167 21.1354
Pd 13.2691 9.31303 19.161
Au 11.3134 7.46607 23.0988
Pd 11.3149 9.38811 25.1158
Au 13.2589 7.43713 25.1009
Pd 13.2742 9.3848 23.1704
Pd 11.2696 13.2737 5.29205
Au 13.2488 11.3072 5.26109
Au 11.3034 11.3433 7.25033
Pd 11.2878 13.2835 9.26667
Au 13.2614 11.3243 9.26704
Pd 13.2543 13.2755 7.21279
Au 11.2886 11.3266 11.3053
Pd 11.2512 13.2755 13.266
Au 13.2537 11.2854 13.266
Pd 13.2518 13.2729 11.261
Au 11.2668 11.3022 15.2326
Pd 11.2554 13.2786 17.1961
Au 13.258 11.2885 17.1948
Pd 13.2434 13.2639 15.2289
Au 11.2971 11.3329 19.1598
Pd 11.3006 13.293 21.1955
Au 13.2744 11.3337 21.1937
Pd 13.2604 13.2791 19.1967
Au 11.3208 11.3557 23.2146
Pd 11.2914 13.289 25.17
Au 13.2707 11.3227 25.1995
Pd 13.2715 13.2883 23.2449
Pd 11.274 17.1597 5.28873
Au 13.2415 15.2157 5.22381
Au 11.2839 15.2186 7.21532
Pd 11.2901 17.1582 9.26355
Au 13.2534 15.2199 9.22694
Pd 13.2559 17.1611 7.20965
Au 11.2642 15.2226 11.2759
Pd 11.2532 17.1729 13.2629
Au 13.2424 15.2232 13.2496
Pd 13.2539 17.1703 11.2579
Au 11.2388 15.2258 15.2295
Pd 11.2573 17.1758 17.1932
Au 13.2466 15.2262 17.2051
Pd 13.2454 17.1855 15.2259
Au 11.2726 15.2287 19.1833
Pd 11.3026 17.1674 21.1926
Au 13.2663 15.2292 21.2278
Pd 13.2624 17.1763 19.1938
Au 11.3007 15.2317 23.244
Pd 11.2934 17.1773 25.1671
Au 13.2623 15.2322 25.2307
Pd 13.2734 17.1732 23.242
Pd 11.2933 21.0691 5.34412
Au 13.2498 19.1296 5.25533
Au 11.3076 19.096 7.24398
Pd 11.317 21.0635 9.32577
Au 13.2652 19.1159 9.26067
Pd 13.2611 21.0659 7.28372
Au 11.2929 19.1187 11.2993
Pd 11.2944 21.1387 13.271
Au 13.2579 19.1608 13.2601
Pd 13.2669 21.1364 11.2939
Au 11.2707 19.1491 15.2266
Pd 11.2982 21.1416 17.1796
Au 13.262 19.1637 17.1889
Pd 13.2621 21.1823 15.2233
Au 11.3009 19.1244 19.154
Pd 11.3293 21.072 21.1244
Au 13.2783 19.1246 21.1878
Pd 13.275 21.1422 19.152
Au 11.3247 19.1077 23.2088
Pd 11.3208 21.0782 25.107
Au 13.2746 19.1418 25.1937
Pd 13.28 21.0766 23.1615
Pd 11.268 24.8038 5.51625
Au 13.2456 23.0116 5.35304
Au 11.301 22.9867 7.35903
Pd 11.2949 24.989 9.30893
Au 13.2616 23.0879 9.31857
Pd 13.2471 24.93 7.34578
Au 11.3078 23.12 11.3092
Pd 11.2717 25.0618 13.2556
Au 13.2619 23.1815 13.259
Pd 13.2549 25.0592 11.2651
Au 11.2896 23.1607 15.224
Pd 11.2736 25.0643 17.1908
Au 13.2652 23.1845 17.1851
Pd 13.2491 25.1005 15.2211
Au 11.3143 23.1258 19.1395
Pd 11.3062 24.9969 21.1365
Au 13.2752 23.0966 21.1234
Pd 13.2626 25.0648 19.1754
Au 11.3212 22.9972 23.087
Pd 11.2904 24.8215 24.9239
Au 13.2667 23.0273 25.0891
Pd 13.2656 24.9427 23.0925
Pd 15.2067 5.61432 5.51269
Pd 15.2108 5.42833 9.28766
Pd 17.1788 5.50427 7.35802
Pd 15.2152 5.34631 13.2537
Pd 17.1819 5.38223 11.2752
Pd 15.2195 5.34943 17.212
Pd 17.1966 5.34689 15.2307
Pd 15.2239 5.43766 21.1779
Pd 17.1906 5.38845 19.1861
Pd 15.2281 5.62953 24.9525
Pd 17.1962 5.51661 23.103
Pd 15.2084 9.33183 5.32802
Au 17.1777 7.41966 5.36137
Au 15.2097 7.42641 7.34751
Pd 15.2128 9.3434 9.30317
Au 17.1692 7.35041 9.32713
Pd 17.1645 9.37034 7.28891
Au 15.214 7.28524 11.2945
Pd 15.2172 9.26425 13.2663
Au 17.1795 7.26258 13.2658
Pd 17.1695 9.30489 11.2985
Au 15.2183 7.24404 15.2314
Pd 15.2215 9.26734 17.1933
Au 17.1839 7.26567 17.1925
Pd 17.1828 9.26483 15.2276
Au 15.2226 7.29144 19.1681
Pd 15.2258 9.35274 21.1563
Au 17.1823 7.35969 21.1311
Pd 17.1782 9.31105 19.1567
Au 15.227 7.43875 23.1149
Pd 15.2302 9.34729 25.1313
Au 17.1995 7.4351 25.0966
Pd 17.1819 9.38281 23.1661
Pd 15.2108 13.2598 5.25193
Au 17.17 11.305 5.25668
Au 15.2116 11.318 7.21132
Pd 15.2148 13.273 9.22424
Au 17.1662 11.3225 9.26257
Pd 17.1709 13.274 7.20829
Au 15.216 11.2971 11.2748
Pd 15.2191 13.2613 13.2489
Au 17.1826 11.2835 13.2616
Pd 17.1821 13.271 11.2565
Au 15.2203 11.2689 15.2283
Pd 15.2235 13.2644 17.2046
Au 17.1869 11.2865 17.1905
Pd 17.1992 13.2619 15.2245
Au 15.2246 11.3032 19.1816
Pd 15.2279 13.2823 21.2291
Au 17.1793 11.3318 21.1895
Pd 17.1909 13.2771 19.1925
Au 15.2291 11.3307 23.2451
Pd 15.2322 13.2757 25.2013
Au 17.1917 11.3207 25.1953
Pd 17.1887 13.2863 23.2407
Pd 15.2107 17.173 5.24901
Au 17.1813 15.2157 5.21957
Au 15.2133 15.2176 7.16983
Pd 15.2165 17.1652 9.22109
Au 17.1779 15.2182 9.22236
Pd 17.1723 17.1596 7.20512
Au 15.2179 15.2206 11.2418
Pd 15.2212 17.183 13.2458
Au 17.1979 15.2212 13.2452
Pd 17.184 17.1684 11.2534
Au 15.2223 15.2237 15.2252
Pd 15.2255 17.1859 17.2016
Au 17.2023 15.2242 17.2008
Pd 17.2012 17.1835 15.2215
Au 15.2266 15.2267 19.2085
Pd 15.2298 17.1741 21.2262
Au 17.1914 15.2272 21.2236
Pd 17.1929 17.1743 19.1896
Au 15.2311 15.2298 23.2804
Pd 15.2341 17.1868 25.1984
Au 17.2041 15.2302 25.2264
Pd 17.1906 17.1712 23.2378
Pd 15.2142 21.1 5.31868
Au 17.1734 19.1248 5.25061
Au 15.2143 19.1175 7.20492
Pd 15.2182 21.095 9.29362
Au 17.1697 19.1139 9.25628
Pd 17.17 21.0627 7.27968
Au 15.2199 19.1442 11.2686
Pd 15.2234 21.1799 13.2573
Au 17.1866 19.1589 13.2555
Pd 17.1752 21.1345 11.2892
Au 15.2245 19.1784 15.2224
Pd 15.2277 21.1828 17.1845
Au 17.191 19.1618 17.1846
Pd 17.189 21.1804 15.2187
Au 15.2286 19.1501 19.1758
Pd 15.2317 21.1036 21.1475
Au 17.1833 19.1226 21.1837
Pd 17.1843 21.1402 19.1479
Au 15.233 19.1288 23.2392
Pd 15.236 21.1151 25.1224
Au 17.1956 19.1398 25.1894
Pd 17.1878 21.0746 23.1574
Pd 15.2162 24.818 5.49747
Au 17.1853 23.0104 5.3491
Au 15.2172 23.0088 7.33509
Pd 15.2198 25.0096 9.27176
Au 17.1768 23.0859 9.31474
Pd 17.1883 24.9289 7.34281
Au 15.2217 23.156 11.282
Pd 15.2256 25.098 13.239
Au 17.1875 23.1797 13.2535
Pd 17.1913 25.0569 11.2597
Au 15.2269 23.2031 15.2198
Pd 15.23 25.1009 17.1976
Au 17.1922 23.1826 17.1808
Pd 17.2067 25.0984 15.2159
Au 15.2307 23.1618 19.1563
Pd 15.2337 25.0187 21.163
Au 17.1903 23.0946 21.1193
Pd 17.2008 25.0629 19.1715
Au 15.2348 23.0206 23.103
Pd 15.2377 24.8326 24.9379
Au 17.2072 23.0252 25.0848
Pd 17.206 24.9407 23.0883
Pd 19.154 5.62539 5.52653
Pd 19.1381 5.45007 9.31396
Pd 21.086 5.54226 7.40618
Pd 19.1707 5.38283 13.2595
Pd 21.1276 5.45072 11.2989
Pd 19.1751 5.38592 17.1973
Pd 21.1626 5.43008 15.2261
Pd 19.1512 5.45935 21.1428
Pd 21.1363 5.45683 19.1534
Pd 19.1754 5.64059 24.9299
Pd 21.1033 5.55452 23.0461
Pd 19.1236 9.36866 5.34336
Au 21.0732 7.47932 5.38512
Au 19.1232 7.44974 7.36346
Pd 19.1151 9.37507 9.326
Au 21.0672 7.41666 9.36939
Pd 21.0605 9.42129 7.34172
Au 19.1301 7.32135 11.3109
Pd 19.1463 9.3055 13.2709
Au 21.1182 7.35164 13.2673
Pd 21.1144 9.37572 11.3208
Au 19.1552 7.28641 15.2269
Pd 19.1506 9.30854 17.1799
Au 21.1226 7.35468 17.1821
Pd 21.146 9.3452 15.2231
Au 19.1388 7.32748 19.143
Pd 19.1281 9.38426 21.1247
Au 21.0802 7.42577 21.08
Pd 21.1231 9.38174 19.1254
Au 19.1406 7.46207 23.0902
Pd 19.1454 9.38411 25.1073
Au 21.095 7.49471 25.0641
Pd 21.0781 9.43345 23.1045
Pd 19.1505 13.2702 5.2832
Au 21.1029 11.3351 5.31198
Au 19.1195 11.3395 7.24149
Pd 19.1416 13.28 9.25757
Au 21.108 11.3489 9.32717
Pd 21.106 13.2768 7.28576
Au 19.1434 11.3228 11.2963
Pd 19.1871 13.2716 13.257
Au 21.1816 11.3237 13.2691
Pd 21.1815 13.2805 11.2929
Au 19.1738 11.2982 15.2238
Pd 19.1915 13.2746 17.1875
Au 21.186 11.3267 17.174
Pd 21.2238 13.2748 15.22
Au 19.1521 11.3288 19.1513
Pd 19.155 13.289 21.187
Au 21.1212 11.3579 21.116
Pd 21.1903 13.2864 19.1471
Au 19.1373 11.3517 23.2061
Pd 19.1729 13.2851 25.1614
Au 21.1253 11.3501 25.1312
Pd 21.1239 13.2887 23.1544
Pd 19.1526 17.1584 5.28017
Au 21.1403 15.2132 5.29379
Au 19.1432 15.2158 7.20612
Pd 19.1434 17.1546 9.25449
Au 21.1377 15.2163 9.2962
Pd 21.108 17.1528 7.28279
Au 19.1716 15.2187 11.2668
Pd 19.189 17.1689 13.254
Au 21.2205 15.2192 13.2559
Pd 21.1834 17.155 11.2899
Au 19.2056 15.2217 15.2207
Pd 19.1935 17.1718 17.1845
Au 21.225 15.2222 17.181
Pd 21.2257 17.1666 15.217
Au 19.1806 15.2247 19.1747
Pd 19.157 17.1634 21.1841
Au 21.1511 15.2252 21.1409
Pd 21.1923 17.1609 19.1442
Au 19.1614 15.2278 23.2354
Pd 19.1749 17.1733 25.1585
Au 21.1627 15.2282 25.1434
Pd 21.1259 17.1647 23.1515
Pd 19.1292 21.0594 5.33422
Au 21.107 19.0914 5.30597
Au 19.1233 19.0918 7.23547
Pd 19.1207 21.0593 9.31686
Au 21.1118 19.0837 9.32119
Pd 21.0662 21.0082 7.33273
Au 19.1471 19.1147 11.2902
Pd 19.1521 21.1349 13.2617
Au 21.1854 19.1148 13.2631
Pd 21.12 21.0598 11.3118
Au 19.1777 19.1451 15.2178
Pd 19.1567 21.1378 17.171
Au 21.1899 19.1176 17.168
Pd 21.1518 21.0962 15.2141
Au 19.1561 19.1205 19.1455
Pd 19.1341 21.068 21.116
Au 21.1252 19.0925 21.1102
Pd 21.129 21.0656 19.1166
Au 19.1412 19.1038 23.2003
Pd 19.1512 21.0742 25.0985
Au 21.1292 19.1063 25.1254
Pd 21.084 21.0199 23.0959
Pd 19.1634 24.803 5.51159
Au 21.0807 22.9469 5.37309
Au 19.1307 22.9815 7.35132
Pd 19.1477 24.9842 9.29872
Au 21.0748 23.0158 9.35729
Pd 21.0955 24.8871 7.39111
Au 19.1378 23.116 11.2985
Pd 19.1803 25.0574 13.2443
Au 21.1259 23.0868 13.2551
Pd 21.1371 24.9846 11.2838
Au 19.1631 23.1569 15.2148
Pd 19.1851 25.0604 17.1825
Au 21.1304 23.0897 17.1701
Pd 21.1723 25.0113 15.2111
Au 19.1469 23.1218 19.1313
Pd 19.1613 24.993 21.1283
Au 21.0882 23.0245 21.0683
Pd 21.1462 24.9905 19.1388
Au 19.1484 22.9932 23.0786
Pd 19.1851 24.8174 24.9154
Au 21.1028 22.9616 25.0526
Pd 21.1132 24.8987 23.0317
Pd 22.9886 5.69037 5.56495
Pd 23.0311 5.54301 9.34667
Pd 24.8681 5.69145 7.43991
Pd 23.0879 5.50609 13.2538
Pd 24.9149 5.62733 11.2745
Pd 23.0922 5.50912 17.194
Pd 24.9375 5.6172 15.2217
Pd 23.044 5.55206 21.1012
Pd 24.9236 5.6333 19.169
Pd 23.0101 5.70558 24.8829
Pd 24.8853 5.7032 23.0036
Pd 23.0101 9.40776 5.41308
Au 24.8597 7.53204 5.5677
Au 22.992 7.53196 7.44004
Pd 23.0941 9.42193 9.37078
Au 25.0514 7.48084 9.35448
Pd 25.0183 9.40822 7.41658
Au 23.0775 7.45107 11.3089
Pd 23.1558 9.37226 13.267
Au 25.0839 7.42214 13.25
Pd 25.0969 9.37068 11.3035
Au 23.1022 7.42874 15.2224
Pd 23.1602 9.37525 17.1747
Au 25.0883 7.42512 17.1904
Pd 25.121 9.3348 15.2187
Au 23.0862 7.45707 19.1359
Pd 23.1073 9.43089 21.0709
Au 25.0645 7.4897 21.0859
Pd 25.1057 9.3766 19.1338
Au 23.0094 7.54397 23.0048
Pd 23.0322 9.42268 25.0288
Au 24.8816 7.54683 24.8728
Pd 25.0359 9.42016 23.0207
Pd 23.0639 13.2622 5.38972
Au 24.8984 11.3079 5.52816
Au 23.0601 11.3393 7.37058
Pd 23.1488 13.2772 9.32391
Au 25.1231 11.336 9.32299
Pd 25.0405 13.2627 7.36178
Au 23.1981 11.3406 11.3111
Pd 23.2352 13.2757 13.2591
Au 25.1874 11.3077 13.2565
Pd 25.1558 13.2716 11.2748
Au 23.2372 11.3206 15.2192
Pd 23.2396 13.2787 17.1763
Au 25.1918 11.3106 17.1775
Pd 25.1959 13.2632 15.2155
Au 23.207 11.3466 19.1274
Pd 23.1621 13.2861 21.1117
Au 25.1365 11.345 21.1111
Pd 25.1648 13.2775 19.1563
Au 23.0778 11.3512 23.0682
Pd 23.086 13.2771 25.0462
Au 24.9202 11.3226 24.9066
Pd 25.0582 13.2746 23.0696
Pd 23.0659 17.1624 5.38671
Au 24.9099 15.2114 5.51566
Au 23.0806 15.2138 7.34904
Pd 23.1507 17.1533 9.32094
Au 25.1402 15.2142 9.2846
Pd 25.0424 17.1629 7.3588
Au 23.2323 15.2167 11.2859
Pd 23.2371 17.1607 13.2561
Au 25.2234 15.2172 13.243
Pd 25.1578 17.1599 11.2719
Au 23.2774 15.2197 15.2162
Pd 23.2416 17.1636 17.1733
Au 25.2278 15.2202 17.1849
Pd 25.1979 17.1743 15.2125
Au 23.2412 15.2226 19.1465
Pd 23.1641 17.1622 21.1088
Au 25.1536 15.2232 21.1436
Pd 25.1667 17.1658 19.1533
Au 23.0983 15.2257 23.0838
Pd 23.088 17.1772 25.0432
Au 24.9317 15.2261 24.9131
Pd 25.0602 17.1747 23.0667
Pd 23.0161 21.017 5.40415
Au 24.9023 19.1151 5.52219
Au 23.064 19.0884 7.36463
Pd 23.0999 21.0087 9.36187
Au 25.1271 19.0925 9.31709
Pd 25.0241 21.0175 7.40775
Au 23.202 19.0928 11.3051
Pd 23.1615 21.0642 13.258
Au 25.1912 19.1268 13.2505
Pd 25.1027 21.061 11.2945
Au 23.2411 19.1188 15.2132
Pd 23.166 21.0671 17.1657
Au 25.1957 19.1298 17.1715
Pd 25.1268 21.1027 15.2096
Au 23.2109 19.0987 19.1215
Pd 23.1132 21.0174 21.0622
Au 25.1404 19.1013 21.1052
Pd 25.1115 21.0668 19.1249
Au 23.0818 19.1002 23.0624
Pd 23.0381 21.0316 25.0201
Au 24.9242 19.1297 24.9007
Pd 25.0418 21.0291 23.0119
Pd 22.9979 24.7341 5.55006
Au 24.8676 22.891 5.55609
Au 22.9996 22.8957 7.4282
Pd 23.0404 24.8876 9.33179
Au 25.059 22.9479 9.34254
Pd 24.8773 24.7346 7.42526
Au 23.0851 22.9825 11.2969
Pd 23.0973 24.9304 13.2389
Au 25.0915 23.0124 13.238
Pd 24.9242 24.8044 11.2598
Au 23.1098 23.0107 15.2104
Pd 23.1018 24.9333 17.1792
Au 25.096 23.0154 17.1785
Pd 24.9469 24.8205 15.207
Au 23.094 22.9883 19.1241
Pd 23.0539 24.8963 21.0867
Au 25.0723 22.9566 21.0742
Pd 24.9332 24.8103 19.1544
Au 23.0173 22.9072 22.9933
Pd 23.0198 24.7484 24.8687
Au 24.8895 22.9052 24.8613
Pd 24.8949 24.7461 22.9893
