665
Atoms. Timestep: 20526
Pd 15.994 15.1022 10.5787
Pd 9.87224 17.7007 13.0552
Pd 9.32034 13.4997 15.7029
Pd 6.16355 11.6283 14.2378
Pd 19.2519 9.19139 15.9455
Au 8.21965 15.4822 4.88937
Au 10.8582 7.08518 6.34906
Pd 8.98547 7.13066 13.4901
Au 16.0494 3.50451 13.9917
Pd 7.39526 16.4533 12.5453
Au 12.5972 7.26698 8.88956
Pd 9.22698 18.3416 18.4326
Au 12.6202 18.4137 9.58145
Pd 12.2189 17.8873 25.65
Au 10.0551 24.2885 24.1263
Pd 10.554 15.0974 3.61473
Au 5.88006 16.5184 10.4462
Au 5.99491 14.5395 8.34579
Pd 10.7813 4.94233 12.556
Au 5.01968 6.9177 16.3241
Pd 4.74915 18.296 18.6691
Au 9.52127 17.6551 3.69094
Pd 8.70436 16.6535 10.2464
Au 4.83911 20.6464 19.9956
Pd 5.54608 15.9713 17.5258
Au 12.8311 21.1421 23.2141
Pd 9.92858 14.9988 27.1603
Au 5.66813 23.0825 10.7432
Au 10.6523 16.6838 5.79617
Pd 17.2417 8.61847 6.66772
Au 15.5847 8.02944 25.0599
Pd 14.8632 3.99613 18.4743
Au 20.9079 18.7399 22.0474
Pd 14.7562 17.9589 8.06102
Au 9.90778 19.0516 24.8619
Pd 19.8368 21.1162 18.9747
Au 13.3324 12.691 25.0581
Pd 18.3523 16.6716 21.7403
Au 7.07428 18.1441 8.61782
Au 4.14576 16.665 8.45302
Pd 8.70667 8.67564 6.75016
Au 6.4844 13.9073 16.0665
Pd 9.86734 10.3071 17.9776
Au 6.28135 9.67066 9.73847
Pd 13.6536 18.8976 21.6643
Au 6.66758 10.4683 22.6085
Pd 12.3398 20.6786 11.0878
Au 7.23684 13.0145 21.8308
Pd 13.6498 16.3027 16.1876
Au 12.245 14.0039 8.03271
Au 17.1258 13.306 3.39636
Pd 8.8832 10.045 8.94532
Au 10.8297 11.8982 8.66819
Pd 5.53351 9.53993 15.6367
Au 9.22748 26.4297 13.2029
Pd 10.0482 20.376 12.6974
Au 3.07974 16.1377 18.2972
Pd 19.0181 20.2561 25.9524
Au 8.24325 24.2359 20.1866
Pd 10.6187 19.9807 22.4052
Pd 7.06125 14.1446 10.8238
Pd 14.083 9.04221 10.3174
Pd 9.19959 11.3631 6.51017
Pd 22.5948 12.4212 16.9285
Pd 4.41323 9.12531 18.0014
Pd 9.55246 10.0545 22.3875
Pd 16.6336 6.05083 14.079
Pd 12.1599 14.7178 23.0716
Pd 11.4926 8.19437 17.6877
Pd 20.5531 10.445 24.756
Pd 4.90511 14.4562 22.2652
Pd 20.6039 15.9336 5.77573
Au 14.641 12.6241 4.31471
Au 5.13467 18.9383 7.19284
Pd 20.073 9.45393 13.117
Au 13.4053 6.27357 6.5897
Pd 14.2625 22.635 8.28322
Au 15.1256 5.36163 20.8102
Pd 3.97492 13.7224 17.487
Au 3.71658 11.4738 19.1919
Pd 14.367 13.2798 9.51208
Au 5.41198 20.5064 17.271
Pd 14.0977 8.40842 17.272
Au 7.70608 8.99788 20.5337
Pd 8.76847 15.835 14.7129
Au 7.29324 5.30549 16.619
Pd 8.77867 14.2641 20.018
Au 4.69083 16.4034 20.4811
Pd 7.09836 9.63112 18.0259
Au 3.11299 11.1893 16.5358
Pd 10.2686 16.2693 24.7394
Au 18.3301 13.8132 15.4248
Pd 16.419 9.72616 23.175
Pd 12.1232 18.0533 14.9277
Au 11.2538 16.2853 11.1497
Au 4.59938 18.8596 10.0095
Pd 6.18528 18.5396 21.5285
Au 6.51341 7.50012 11.7248
Pd 16.5291 19.7766 5.25966
Au 7.1827 16.8737 19.4135
Pd 8.23702 5.08426 19.0317
Au 4.55213 11.9245 21.7329
Pd 20.109 16.6374 12.5334
Au 7.83361 24.7348 14.647
Pd 14.2363 17.6097 18.6793
Au 10.5129 8.62774 20.2492
Pd 20.0202 18.1157 19.5994
Au 7.87616 8.10218 23.1388
Pd 7.0454 19.5818 19.2739
Au 15.5012 10.3715 18.5865
Pd 16.3246 18.0895 22.8474
Au 18.7448 13.8833 22.1474
Pd 19.1218 14.2178 12.9704
Au 14.4149 9.56396 26.7975
Pd 12.6584 15.2756 25.6618
Pd 17.1285 17.1901 9.14409
Au 21.1082 23.0487 6.87227
Au 12.65 13.5686 2.64795
Pd 12.0004 21.1769 5.7072
Au 13.4211 10.9482 8.54588
Pd 12.4712 14.0813 5.246
Au 18.0491 4.18861 12.083
Pd 11.9299 11.7131 6.19841
Au 6.57553 22.6936 16.0713
Pd 14.3772 18.0987 5.27059
Au 14.8617 26.8885 15.541
Pd 7.32215 18.8971 11.3344
Au 8.41293 11.7718 24.287
Pd 11.2043 11.0713 24.24
Au 9.39123 22.6467 22.0001
Pd 13.3042 7.26609 23.7864
Au 5.0458 18.0599 12.922
Pd 8.45207 14.5614 23.7245
Au 9.63181 11.8131 26.707
Pd 14.6886 10.7019 21.2081
Au 9.47683 26.4472 16.0269
Pd 12.8315 12.2002 22.357
Pd 4.75189 15.2826 12.8603
Au 23.422 22.4909 8.1167
Au 6.02036 20.9123 9.16872
Pd 7.48435 18.5762 14.1354
Au 8.36436 15.8496 7.63768
Pd 14.4508 12.9689 6.89746
Au 16.2479 19.8462 2.60324
Pd 12.661 16.4135 20.754
Au 4.68605 7.9284 13.733
Pd 12.2547 22.6678 15.4905
Au 7.40416 7.50716 9.04958
Pd 8.09684 20.105 22.9731
Au 7.99664 12.6713 17.9671
Pd 7.52722 20.4004 6.94502
Au 10.5279 7.48252 23.1576
Pd 20.1978 21.4296 21.6241
Au 16.1663 23.1211 23.2726
Pd 11.3211 18.6485 20.2232
Au 6.89806 21.6526 21.2714
Pd 16.4646 14.8928 13.1635
Au 18.8905 11.8798 26.3609
Pd 12.2697 18.9497 28.0212
Pd 11.0628 16.4182 8.45311
Au 21.729 20.4518 7.34223
Au 17.934 15.5766 2.21585
Pd 8.25791 20.6321 17.0657
Au 12.0981 22.8787 12.6971
Pd 10.5524 24.7883 11.5675
Au 12.4835 6.80927 21.1925
Pd 17.0287 21.8128 15.0466
Au 7.05039 13.957 13.4846
Pd 12.1043 13.768 10.8751
Au 7.8523 24.4529 11.5876
Pd 7.34641 11.5001 11.4308
Au 16.8223 21.8651 12.3143
Pd 14.1354 22.8098 5.57362
Au 20.1983 22.8362 24.0295
Pd 8.05973 24.6074 17.4431
Au 16.041 11.4779 25.3906
Pd 10.0436 17.677 27.1401
Au 8.01219 17.4868 23.6448
Pd 21.7622 22.6378 19.8212
Au 17.7959 22.6634 25.2806
Pd 18.5131 23.6044 22.1792
Pd 11.5227 4.22181 15.0395
Pd 21.2964 11.2964 5.65439
Pd 8.68654 8.97156 11.2663
Pd 19.8805 18.6101 14.5178
Pd 20.9373 5.31716 15.4897
Pd 16.9813 14.6165 20.356
Pd 19.049 9.09752 22.729
Pd 10.452 9.71617 4.90951
Pd 6.34147 11.4791 19.8103
Pd 15.5087 4.96002 11.7199
Pd 15.5953 15.2249 7.86459
Pd 18.1267 6.73399 8.58485
Au 13.893 4.77025 9.11792
Au 12.5225 10.9939 3.6141
Pd 15.6812 11.1507 10.3343
Au 21.6486 7.50376 9.14312
Pd 22.0855 13.1957 7.56374
Au 19.8331 5.49778 10.2279
Pd 25.2136 11.7469 16.3172
Au 9.9485 7.41033 8.88517
Pd 15.5891 7.83823 12.1912
Au 3.59067 10.6496 13.9878
Pd 7.5155 7.82884 15.938
Au 3.4465 14.0065 20.081
Pd 5.61047 11.6734 17.1736
Au 8.82181 6.6232 21.0718
Pd 16.5875 12.7516 18.4126
Au 23.5243 10.1426 24.2244
Pd 21.2632 14.2868 11.3005
Au 12.0049 13.457 27.5582
Pd 14.1061 19.0826 24.2958
Au 4.09716 13.2192 14.7727
Pd 12.7035 10.8787 17.5353
Pd 15.4129 6.75094 9.7057
Au 19.9322 14.017 3.5155
Au 8.65865 20.4226 9.32684
Pd 8.29409 15.5244 17.4335
Au 16.7229 17.2542 6.39177
Pd 18.747 11.0845 6.83906
Au 14.6375 7.72592 14.6856
Pd 10.2688 3.41982 19.5822
Au 3.02398 8.6471 15.7191
Pd 21.6153 10.6569 15.0241
Au 10.3208 12.4786 4.18573
Pd 11.8619 17.901 17.6748
Au 4.12128 14.4453 10.2815
Pd 14.9252 8.02161 21.7994
Au 9.30672 9.34671 25.0707
Pd 12.6591 15.0284 18.3363
Au 15.9518 6.06773 7.22211
Pd 9.59678 22.6611 18.5448
Au 3.61685 15.6902 15.5888
Pd 7.97038 21.0878 14.39
Au 8.86442 7.62867 18.2774
Pd 11.908 23.6214 22.2758
Pd 13.2404 16.149 6.70469
Au 17.127 10.8192 2.36082
Au 12.1993 18.6997 6.87225
Pd 15.0952 14.8989 2.54367
Au 18.574 20.8123 3.60382
Pd 22.2197 16.8483 10.7249
Au 9.99148 13.9782 6.49949
Pd 4.8866 12.6698 12.1464
Au 14.0808 20.5512 4.05623
Pd 18.0705 15.4379 4.89695
Au 11.3229 12.9993 13.379
Pd 9.97804 11.8775 11.1527
Au 14.8294 22.2557 16.5447
Pd 17.8484 7.18975 23.985
Au 19.7358 25.8334 17.7066
Pd 7.78388 13.7247 26.0766
Au 10.6576 12.9917 18.1936
Pd 15.2296 14.544 25.3824
Au 14.4052 12.1277 27.5847
Pd 6.14351 15.5688 24.3356
Au 10.6036 13.5597 25.0374
Pd 11.0332 24.5831 17.1477
Pd 12.6199 22.5349 18.1771
Au 9.71997 22.0018 7.36055
Au 16.3289 22.2087 4.12549
Pd 9.80342 14.306 9.55556
Au 3.31718 16.829 11.1711
Pd 9.8405 19.7317 5.51484
Au 12.6656 20.4458 13.7872
Pd 10.2526 18.8052 10.6034
Au 7.50297 9.35483 13.6382
Pd 15.1057 17.1936 13.8934
Au 16.9069 3.86211 16.6123
Pd 14.8515 21.6922 25.1066
Au 10.071 12.8299 22.3177
Pd 17.8209 14.9838 17.7411
Au 14.5519 19.714 26.9956
Pd 16.4146 15.2494 22.9364
Au 15.0823 26.7195 18.2285
Pd 16.0277 24.3928 15.2455
Au 14.3774 14.8443 27.9462
Pd 15.8639 19.3594 20.2351
Au 21.8786 25.2504 19.0258
Pd 20.5427 23.7787 11.7952
Pd 11.9619 18.7131 4.18395
Au 9.37319 22.9746 13.1912
Au 5.17121 20.6692 11.9414
Pd 8.09649 10.8685 15.9322
Au 12.6741 23.3556 24.771
Pd 16.1436 10.9103 7.71518
Au 8.01121 12.5653 8.81391
Pd 11.5338 15.6397 13.8959
Au 12.3567 26.5441 18.4486
Pd 14.1131 18.2678 2.57759
Au 10.8737 20.4235 18.0723
Pd 6.76589 10.7244 7.36388
Au 4.42668 18.2004 15.9321
Pd 17.5348 17.0159 11.8664
Au 7.68781 21.5354 11.6078
Pd 18.9464 22.1947 8.17084
Au 12.0604 25.8543 23.6992
Pd 12.7112 18.1822 12.3357
Au 24.6864 19.0075 20.4851
Pd 7.12522 15.805 21.7579
Au 12.1584 26.7585 15.6995
Pd 12.2888 23.3437 9.81746
Pd 22.9261 8.88513 13.175
Pd 5.45191 12.1623 9.538
Pd 10.0324 6.25257 16.2748
Pd 17.0556 13.1497 8.9623
Pd 16.7658 13.3033 27.3883
Pd 17.3353 11.2546 16.3592
Pd 18.2386 6.42405 16.3007
Pd 21.0642 7.28708 11.9653
Pd 13.4657 6.24295 18.7847
Pd 12.2766 20.5761 25.7965
Pd 11.6661 11.169 20.1216
Pd 20.3648 14.3305 17.1686
Au 11.2632 5.15733 9.92894
Au 13.0111 16.2104 3.76979
Pd 14.182 10.3829 5.88378
Au 23.6521 9.28411 16.122
Pd 15.5212 6.10603 16.7681
Au 13.7907 5.24884 13.7841
Pd 13.8993 14.2953 14.3335
Au 17.2725 9.35288 20.6577
Pd 14.5892 12.7327 16.67
Au 21.4117 7.89275 15.0615
Pd 8.98976 11.4743 20.2075
Au 17.8042 6.76374 11.4267
Pd 22.5409 17.2071 20.1223
Au 20.5857 4.74081 12.7948
Pd 17.2192 8.91488 14.2376
Au 19.5095 4.50177 17.5925
Pd 14.3281 14.3024 21.2994
Au 12.1566 3.95997 17.6745
Pd 11.6265 13.9195 20.5047
Au 6.27161 7.15234 18.7514
Pd 9.85572 8.82626 15.5048
Pd 16.3082 17.2139 3.59823
Au 22.4446 5.36702 10.8715
Au 24.089 19.9033 8.62731
Pd 12.7171 8.44329 5.03577
Au 13.7663 15.6651 12.1367
Pd 24.3751 18.9177 11.1352
Au 18.6908 18.152 4.63286
Pd 24.8666 12.1279 9.15562
Au 16.9801 4.59866 9.54866
Pd 14.2193 3.82069 15.9278
Au 8.68794 6.00622 10.9937
Pd 5.29501 9.96778 12.13
Au 13.0377 3.84345 11.5644
Pd 18.4819 23.8759 16.3422
Au 14.7266 17.1264 26.12
Pd 25.2655 20.521 18.1277
Au 19.8944 11.805 16.7288
Pd 17.8301 16.6991 14.6024
Au 16.8086 10.5491 27.6606
Pd 17.4897 21.6508 20.6127
Au 22.8586 6.04412 13.5277
Pd 10.7036 4.94856 21.7752
Pd 19.7996 13.0229 8.9568
Au 26.7952 15.0771 19.0529
Au 22.1052 8.93911 6.72638
Pd 16.7991 8.85743 9.445
Au 16.6784 10.8246 5.03893
Pd 12.8234 11.285 11.4929
Au 20.8865 15.4219 8.56297
Pd 6.05756 14.1597 19.482
Au 12.1409 13.5504 16.0704
Pd 6.13434 16.3488 14.926
Au 8.86538 4.6285 14.4729
Pd 14.1536 22.4632 21.4061
Au 12.7665 4.04494 20.2873
Pd 15.3885 24.7093 6.94304
Au 9.98723 25.5648 21.7729
Pd 22.1131 19.9271 19.9335
Au 11.8662 8.69098 25.3841
Pd 13.5457 15.885 9.4855
Au 9.70368 26.18 18.9078
Pd 8.85243 18.1289 21.1762
Au 23.126 23.338 12.8467
Pd 18.9081 18.4514 23.9166
Pd 15.2534 15.1853 5.16597
Au 23.0921 15.8587 6.7847
Au 11.9501 23.4994 7.09677
Pd 26.6021 12.4765 11.1408
Au 7.30978 13.3524 6.31095
Pd 21.2954 21.9947 9.57228
Au 10.5987 9.90138 13.0843
Pd 8.84715 11.9007 13.5902
Au 24.1647 13.5141 11.8264
Pd 16.7437 26.6658 11.199
Au 9.54461 18.1045 15.8393
Pd 13.3879 20.0899 19.2816
Au 19.8551 11.8245 11.471
Pd 18.3251 19.271 21.3127
Au 19.3707 17.3739 26.471
Pd 10.8617 24.7606 14.4301
Au 19.0634 14.6713 26.8345
Pd 12.5184 26.2271 21.1073
Au 22.1571 25.1479 16.1136
Pd 12.1796 16.3281 28.0104
Au 17.0511 18.5734 27.4184
Pd 23.6853 23.4941 18.0899
Pd 16.6514 22.1162 9.52636
Au 10.5025 20.5019 15.3542
Au 15.2327 26.5057 20.8201
Pd 14.438 22.4658 11.141
Au 23.3668 14.69 9.40342
Pd 9.17011 20.6346 20.2165
Au 17.4674 21.8931 17.8059
Pd 7.86995 23.0182 9.17947
Au 15.8218 24.4969 12.5244
Pd 20.9135 23.2719 17.3804
Au 13.042 20.1084 16.5484
Pd 13.5342 24.8535 14.1723
Au 5.43356 20.3526 14.6022
Pd 26.0718 12.8636 13.7761
Au 5.91685 16.3685 6.43136
Pd 5.99591 12.8794 24.1355
Au 20.8879 24.465 21.4982
Pd 14.3619 20.3888 6.82571
Au 9.99251 15.8431 21.9172
Pd 15.2862 16.727 20.9091
Au 23.5861 24.2772 20.7752
Pd 13.7383 24.7452 16.8593
Pd 19.795 5.85047 19.9113
Pd 17.6938 9.90826 11.8645
Pd 14.6404 8.50461 7.67085
Pd 20.2801 13.1848 24.2961
Pd 21.3336 9.64157 17.6123
Pd 21.8953 11.4901 22.7373
Pd 15.7244 7.58136 19.2557
Pd 17.1177 16.7386 25.1016
Pd 14.5815 17.5408 28.6273
Pd 12.4618 9.22787 15.3323
Pd 15.022 10.2693 15.6387
Pd 19.4172 8.55875 10.3602
Au 18.3232 18.2619 2.01225
Au 6.5801 6.07888 14.0819
Pd 18.761 11.5171 14.0216
Au 19.7423 13.4404 6.15254
Pd 19.6359 8.67208 7.75393
Au 25.4326 7.80239 17.3961
Pd 25.9613 14.635 9.65532
Au 24.8519 7.33406 14.6548
Pd 12.8219 6.21751 16.261
Au 16.801 15.9669 27.6654
Pd 18.2859 11.5364 23.5457
Au 19.1197 12.9894 19.2965
Pd 13.0362 8.8793 12.743
Au 14.8573 9.72035 3.29408
Pd 13.2614 8.99653 19.6882
Au 17.511 6.74723 21.3267
Pd 10.8197 5.92979 19.0805
Au 21.4783 15.1702 26.0172
Pd 20.3856 15.9463 15.0915
Au 22.4637 14.6579 23.6441
Pd 19.6683 11.1416 21.2257
Pd 13.2847 6.48205 11.436
Au 15.2713 10.4182 12.8711
Au 17.4439 8.63182 3.86726
Pd 23.1695 6.43521 16.4808
Au 24.1577 8.08473 22.367
Pd 11.4396 9.3899 7.41767
Au 15.118 19.6384 14.9378
Pd 16.1399 12.4885 14.3328
Au 24 10.5869 18.4862
Pd 19.1707 6.90735 13.8279
Au 25.2008 15.3996 23.3727
Pd 22.5251 12.4449 25.2868
Au 16.7562 8.60361 16.8527
Pd 24.3099 12.7878 23.3077
Au 15.5087 12.6454 23.07
Pd 20.9155 16.06 21.9715
Au 14.0902 16.4915 23.4407
Pd 20.594 7.12573 17.5416
Au 13.8812 12.6255 19.3114
Pd 7.97574 16.3872 26.0388
Au 5.04565 9.3267 20.5708
Pd 10.8808 7.44682 11.5222
Pd 13.9188 24.4948 19.5875
Au 16.5295 22.1985 6.79514
Au 20.3029 16.6181 3.15356
Pd 18.6553 14.8994 10.4666
Au 26.7695 10.1087 17.7507
Pd 21.8301 17.8844 8.17432
Au 18.33 15.2127 7.68935
Pd 13.2815 11.5875 14.2509
Au 18.8264 26.5582 9.54571
Pd 9.66634 18.5331 7.84216
Au 23.8048 21.6298 10.6954
Pd 11.6685 17.6855 22.9905
Au 18.3267 23.9091 13.5658
Pd 23.5832 13.1342 14.5372
Au 22.2354 14.2779 18.9684
Pd 14.2738 24.824 22.6418
Au 22.5098 15.6004 13.3552
Pd 24.3062 15.9675 18.537
Au 12.2801 9.40969 22.2401
Pd 21.0714 20.353 24.1384
Au 18.6552 4.20535 14.6954
Pd 17.9798 19.4122 18.5445
Pd 15.258 7.77392 5.15617
Au 7.83417 18.0162 5.78999
Au 21.3116 26.2138 10.7432
Pd 15.6561 20.6405 22.5846
Au 27.8359 11.6601 15.3783
Pd 23.4873 18.5491 17.948
Au 9.43706 14.5568 12.281
Pd 15.5313 19.809 17.5895
Au 20.623 19.2762 2.97507
Pd 23.9432 20.7083 13.1944
Au 13.2992 25.4319 8.40054
Pd 21.9171 19.516 10.2495
Au 20.7846 19.1954 17.2044
Pd 19.6617 17.326 9.97039
Au 22.0325 5.27025 18.6088
Pd 10.3793 16.1553 19.2328
Au 19.2352 26.242 12.3087
Pd 21.7931 20.539 14.8726
Au 10.327 21.721 24.4005
Pd 21.4267 11.6193 19.2682
Au 22.4065 17.801 15.3978
Pd 19.3909 15.7114 24.1721
Pd 15.2224 22.0192 19.1751
Au 6.84831 22.351 18.7443
Au 24.2024 21.7174 20.2775
Pd 21.5168 16.6558 17.7588
Au 11.8835 20.9201 8.45499
Pd 18.7494 22.8417 5.4994
Au 19.6035 19.2144 11.8276
Pd 6.98123 18.1913 16.8304
Au 24.6654 16.1527 11.4557
Pd 23.2584 17.26 22.6263
Au 17.1591 19.5581 10.6177
Pd 15.0705 17.7109 10.8845
Au 23.7712 18.4614 6.46641
Pd 19.2532 17.7473 7.29323
Au 17.6356 13.7713 24.801
Pd 24.471 17.8751 13.61
Au 24.4577 17.1697 8.88516
Pd 11.9045 26.7726 12.9181
Au 6.18903 22.9292 13.3831
Pd 19.032 21.7098 10.8862
Au 22.4729 22.5774 22.5392
Pd 14.8575 19.9602 12.2505
Pd 19.0927 11.5391 4.12447
Pd 17.0629 11.9762 20.9604
Pd 21.7125 9.74176 10.8652
Pd 24.5898 10.6873 13.9914
Pd 20.2998 8.61685 20.2494
Pd 17.2232 5.3054 18.8883
Pd 16.1497 17.3555 16.7449
Pd 18.3519 7.72267 18.7259
Pd 24.2405 10.73 11.4272
Pd 12.1149 10.912 26.7643
Pd 18.6436 10.3873 18.6156
Pd 21.0989 10.7202 8.36809
Au 11.6101 6.97589 14.0742
Au 19.6801 9.14157 5.1809
Pd 14.6016 22.3379 13.8635
Au 26.2883 9.91679 10.1917
Pd 27.3169 12.8512 17.6882
Au 25.6483 8.54104 12.4531
Pd 22.0778 18.6135 12.8037
Au 23.6665 11.2317 6.86029
Pd 17.0165 13.2465 6.19047
Au 27.2329 10.5559 12.8554
Pd 22.1513 11.7686 12.7306
Au 26.6952 17.7639 11.787
Pd 23.3552 22.6622 15.4722
Au 26.2866 11.4902 19.9166
Pd 25.5692 14.4338 16.4293
Au 28.5926 12.8625 12.9932
Pd 27.4862 16.351 16.8339
Au 11.3331 9.60255 10.1474
Pd 18.2229 21.0217 23.3378
Au 25.6691 16.5904 21.0138
Pd 24.7394 13.2954 18.6384
Pd 15.2086 15.1298 18.4685
Au 21.3305 18.4999 5.42072
Au 25.3304 8.81556 19.9799
Pd 18.4285 10.8627 9.4329
Au 24.3741 19.9098 15.6742
Pd 21.005 21.2298 4.83522
Au 22.8192 24.1139 10.2462
Pd 23.5694 14.9181 21.1872
Au 22.6238 21.1376 17.5593
Pd 23.0251 7.90751 18.7064
Au 19.025 23.7648 19.4293
Pd 10.8053 11.3085 15.5764
Au 18.0076 9.46032 25.4354
Pd 21.3473 17.4394 24.4507
Au 15.6462 5.9115 23.3553
Pd 14.6554 13.0725 12.1237
Au 25.1336 10.5277 22.1401
Pd 17.32 12.6795 11.7354
Au 16.7241 21.2213 27.1226
Pd 17.2714 17.0848 19.2794
Au 25.9618 13.7505 21.2764
Pd 10.8037 15.7829 16.5167
Pd 13.3691 25.0244 11.4813
Au 14.8788 12.1528 1.82597
Au 23.7128 7.71593 10.8814
Pd 19.5325 19.7825 9.02558
Au 23.6716 9.61102 8.94951
Pd 21.4978 21.2834 12.2392
Au 24.6677 13.7962 7.12961
Pd 20.9712 13.3298 14.628
Au 19.9904 6.6176 22.4229
Pd 23.6203 12.2507 20.7568
Au 26.221 17.9064 18.6087
Pd 16.2608 24.2762 17.9832
Au 22.2201 6.78184 20.9458
Pd 22.3793 12.221 10.0621
Au 21.6392 8.63829 23.0435
Pd 18.9818 17.2104 17.0741
Au 26.5233 9.30084 15.2234
Pd 21.1884 13.5221 21.2971
Au 13.2541 4.79794 22.779
Pd 19.6604 25.8455 15.006
Au 9.55812 3.79765 17.0302
Pd 17.2664 19.2134 13.3286
Pd 17.3301 26.3851 16.6452
Au 20.8607 23.2519 14.5608
Au 17.1143 26.5303 13.9533
Pd 16.9323 19.7159 7.95216
Au 26.864 19.0319 16.262
Pd 14.2995 27.1275 10.2031
Au 27.8436 14.448 14.9991
Pd 26.3495 19.6476 13.7065
Au 22.707 9.68646 20.7861
Pd 22.9352 15.115 16.1488
Au 17.5733 26.1172 19.3989
Pd 19.2191 21.2165 13.5983
Au 23.4693 19.0919 24.8789
Pd 19.576 21.3326 16.213
Au 15.9562 14.9057 15.8257
Pd 23.7196 16.5021 25.2365
Au 27.1751 17.0914 14.2814
Pd 15.4924 24.5907 9.75838
Au 25.4827 18.2374 23.254
Pd 19.7314 15.5132 19.6406
Au 13.9286 10.1342 24.1672
Pd 16.3454 24.0872 20.7055
Pd 11.6546 21.6027 20.5641
Au 10.1222 24.5204 8.88358
Au 18.0302 24.2373 10.7261
Pd 11.2383 24.2307 19.8208
Au 23.3076 20.0803 22.4569
Pd 20.2993 24.4016 9.07004
Au 16.3131 26.724 8.50106
Pd 16.6151 19.5861 25.0106
Au 27.11 15.021 12.2205
Pd 14.6144 26.9795 12.8823
Au 19.0674 20.2867 6.31065
Pd 22.2295 13.8458 5.05683
Au 21.782 25.5967 13.3726
Pd 25.1174 15.3313 14.012
Au 24.9893 17.1202 16.1535
Pd 17.767 24.5091 7.99108
Au 11.6648 26.5875 10.1028
Pd 10.0944 22.2436 10.5639
Au 17.7477 19.3603 15.9209
Pd 14.6404 20.2371 9.54121
Au 21.3713 19.0725 26.4879
Pd 9.4139 22.8895 15.8931
