286
Atoms. Timestep: 20260
Pt 15.3091 20.2692 19.3948
Pt 16.8672 16.668 13.5049
Au 13.9594 6.82364 9.88528
Pt 16.6123 8.87347 19.8084
Au 18.3972 23.2702 16.177
Pt 16.3205 12.3588 8.31081
Pt 16.3553 21.9752 9.7231
Au 7.51543 20.9061 13.8196
Pt 8.71401 13.7722 11.6873
Pt 15.0292 15.3872 14.8245
Au 23.6043 16.8028 13.6844
Pt 17.7161 17.7349 8.55794
Pt 13.9654 6.34633 12.4676
Au 18.0338 6.55327 15.5545
Pt 16.7678 20.4607 16.4251
Pt 22.8051 14.2812 12.7339
Au 10.8348 6.37568 16.2811
Pt 14.3779 14.8144 21.4646
Pt 9.80455 8.59685 11.4107
Au 23.6904 13.0918 18.8761
Pt 16.577 11.3719 16.5909
Pt 8.13053 16.3417 10.962
Au 5.48659 13.2899 15.7804
Pt 10.7289 15.2244 17.6257
Pt 17.9816 18.1877 11.2505
Au 11.0771 12.0825 6.20469
Pt 16.1771 8.69008 16.7078
Pt 18.6409 20.4434 9.93112
Au 23.5741 16.1083 19.0618
Pt 14.5551 10.0384 18.5093
Pt 14.1016 8.83511 20.7988
Pt 14.946 7.1972 18.8078
Pt 21.0466 12.9759 14.3098
Au 8.96827 13.5423 22.0698
Pt 11.9737 8.87766 15.0467
Pt 14.8948 10.3614 7.934
Au 8.83504 20.7282 11.3973
Pt 12.1201 22.3798 18.683
Pt 15.5439 13.9115 10.2962
Au 17.5742 10.0665 7.05999
Pt 8.24461 19.3406 16.8618
Pt 14.5079 18.0133 17.8733
Pt 15.3511 6.28816 16.3136
Au 9.57422 17.8263 21.9873
Pt 15.3416 18.3818 7.38045
Pt 12.3765 7.59374 19.2106
Pt 18.5381 13.3944 20.6788
Au 15.948 5.45779 13.9113
Pt 15.0197 15.3193 17.3682
Au 21.7937 16.7012 8.75357
Pt 19.6066 20.4058 12.4786
Pt 14.4706 22.9602 19.2541
Au 7.54162 16.8872 20.3761
Pt 8.14905 14.101 15.8573
Pt 12.0702 10.6462 8.18809
Pt 17.9806 20.5807 20.2112
Au 20.0415 8.00842 16.8505
Pt 17.3029 13.7393 6.28667
Pt 19.2482 18.5096 21.6328
Pt 12.6483 22.3372 12.5762
Au 10.4376 15.4964 23.1083
Pt 15.4136 8.67029 11.8457
Pt 13.9997 20.0893 12.2192
Au 23.3335 19.1637 15.3479
Pt 13.8204 9.54985 10.0974
Pt 18.189 8.10363 11.0049
Au 11.4266 23.6355 14.5696
Pt 23.2939 14.2725 15.2841
Pt 12.7449 14.7534 13.6961
Pt 18.7476 16.49 15.3726
Au 8.40062 19.6486 20.0012
Pt 22.3128 12.2719 16.6303
Pt 18.0587 12.9344 10.3222
Pt 18.2444 9.95524 17.9883
Au 17.55 17.3925 23.4863
Pt 19.8724 11.3597 16.4658
Pt 13.9615 12.7864 12.2265
Au 16.9878 24.2851 13.673
Pt 13.8341 16.5327 6.26836
Pt 14.8039 15.4814 12.1532
Pt 15.3373 17.9749 11.7372
Pt 16.3104 17.6143 16.0071
Pt 20.7339 12.5646 18.7773
Pt 12.0919 14.1342 8.21464
Au 15.4905 8.85627 5.86351
Pt 13.1548 14.9865 19.1661
Pt 21.1932 15.6523 14.4293
Au 14.5695 20.9153 7.75328
Pt 20.6191 18.747 10.5574
Pt 18.1608 12.8647 18.054
Pt 18.0135 22.5435 11.6893
Pt 10.618 8.62094 17.5769
Au 13.0012 15.2501 23.8044
Pt 8.44959 16.24 13.6324
Pt 17.6093 15.8184 17.6826
Au 11.2956 12.7679 23.5897
Pt 9.29858 19.0234 14.3079
Pt 11.247 16.5353 7.08223
Au 11.4036 6.20365 11.3398
Pt 17.5928 15.3899 11.3434
Pt 16.0013 19.4369 9.71299
Pt 12.1255 10.7947 17.1387
Au 13.0934 5.51638 17.5878
Pt 19.3381 20.9007 15.2157
Pt 16.9818 14.0241 15.8162
Pt 13.9503 12.8072 23.1272
Au 19.986 18.8557 7.93397
Pt 14.6173 12.6093 17.7785
Pt 13.1524 21.081 20.8331
Au 15.7601 14.9356 23.9899
Pt 20.3253 9.77207 11.3104
Pt 18.229 10.4024 9.6305
Au 13.3303 12.3309 4.30585
Pt 11.7124 10.7684 10.862
Pt 11.9098 19.5909 13.7124
Pt 11.1115 19.0952 20.3711
Au 19.6335 23.03 13.6749
Pt 19.7486 14.1345 16.3122
Pt 14.7934 17.1662 22.6038
Pt 10.1183 20.6863 18.1645
Au 8.70698 16.8127 7.93278
Pt 7.34482 11.4634 15.3961
Pt 12.336 14.4756 5.68501
Pt 10.4905 14.646 14.9061
Au 22.4435 9.3067 13.063
Pt 9.10061 11.1473 11.5166
Pt 16.2457 13.035 22.0312
Pt 19.3058 8.36088 19.6216
Au 12.3527 18.8741 22.7958
Pt 15.6499 19.3697 14.1767
Au 5.89216 16.4125 12.7703
Pt 13.5034 19.0728 9.714
Pt 21.8614 14.351 20.4015
Pt 19.7658 17.0407 12.7327
Pt 18.1718 11.4816 22.499
Pt 12.1237 10.129 19.6914
Pt 14.8735 19.8642 22.417
Au 6.61061 18.4421 14.9092
Pt 15.6665 10.4832 21.9843
Pt 11.8474 13.7377 21.2745
Pt 10.0584 18.1658 11.8163
Au 13.4103 8.12245 7.54262
Pt 17.3167 20.295 7.70876
Pt 17.5815 14.9012 8.62041
Pt 6.4207 15.9082 15.5251
Au 21.7465 21.0814 14.1733
Pt 13.769 17.4703 13.8335
Pt 15.8751 11.1623 10.8436
Au 10.3733 23.3836 17.0606
Pt 13.2172 10.2358 5.87508
Pt 15.7572 11.6332 5.69842
Pt 7.53603 18.5317 12.3864
Pt 11.8815 21.256 15.972
Pt 19.7214 14.938 19.028
Pt 16.5764 13.1345 12.8002
Au 23.5121 10.4867 18.0992
Pt 12.4953 8.38244 12.1931
Pt 12.9666 6.29785 14.8345
Au 19.882 7.87481 13.352
Pt 8.293 14.4683 9.18375
Pt 14.7133 12.7776 14.8368
Pt 18.4403 16.9714 19.8218
Pt 20.4354 16.8446 17.4182
Au 8.67702 7.93854 15.6506
Pt 6.90148 14.0073 13.5941
Pt 8.33213 9.63775 13.5876
Au 10.288 11.2621 21.3684
Pt 19.4469 12.2623 12.2664
Pt 21.9377 9.78791 15.83
Au 6.68998 11.6358 12.4954
Pt 15.9278 21.888 21.1902
Pt 14.2007 10.4049 15.8147
Pt 9.57004 13.3561 19.4544
Au 8.27247 18.7329 9.72435
Pt 13.3749 8.10473 16.9315
Pt 12.7492 18.7389 7.2751
Pt 17.0486 15.5974 21.6389
Au 6.20539 14.2548 10.9684
Pt 10.9231 18.3717 9.20893
Pt 13.7241 12.569 6.92916
Au 14.139 24.2801 13.9969
Pt 13.1482 16.5828 8.90205
Pt 22.8778 16.7164 16.2543
Pt 9.23022 12.4324 13.9754
Pt 11.9917 12.6915 18.8762
Pt 9.77181 10.3686 15.75
Pt 11.2121 12.9154 12.2372
Au 19.3807 16.1731 6.94662
Pt 10.2931 21.5147 13.4032
Pt 20.2459 14.3543 8.77509
Pt 15.6281 16.5841 9.5627
Au 22.2524 11.3014 20.4991
Pt 11.9974 17.2621 18.7139
Pt 10.9497 18.7136 16.4773
Pt 14.8192 14.6566 7.84321
Au 18.3887 14.0487 23.5062
Pt 12.5366 17.3378 11.5118
Pt 19.7382 15.5775 21.754
Au 10.4462 21.6018 20.6506
Pt 18.203 18.8926 14.0228
Pt 16.1836 14.0521 19.4493
Pt 16.0818 10.4676 13.999
Pt 21.9726 14.693 17.5946
Pt 16.5336 16.2003 6.532
Pt 8.97761 16.8206 16.0917
Au 23.4612 11.6106 14.2865
Pt 13.5756 12.2845 9.5971
Pt 17.1674 7.79977 13.4455
Pt 21.2038 16.9825 20.0891
Au 18.0867 8.95776 21.9368
Pt 16.7596 22.3279 18.4113
Pt 14.6863 8.14059 14.3848
Pt 10.8318 10.2309 13.2663
Au 7.74212 11.4728 20.2657
Pt 18.3113 9.35764 15.2686
Au 16.3598 6.2122 11.1841
Pt 20.3762 14.4864 11.551
Pt 13.7773 21.6571 10.1813
Pt 13.7739 18.4471 20.4582
Pt 9.44345 17.7239 18.5788
Pt 12.2915 16.5256 21.4098
Pt 22.0418 11.8559 12.0236
Au 7.50736 12.0104 9.65235
Pt 9.78623 10.8562 18.644
Pt 17.9204 10.2408 12.3553
Au 17.496 20.2636 22.8681
Pt 8.18944 15.3161 18.1832
Pt 11.5108 20.2849 11.0952
Pt 7.47628 12.6143 17.8621
Pt 20.0111 19.1185 19.1175
Au 15.0217 14.3493 5.00972
Pt 18.997 21.2041 17.8815
Pt 13.228 23.5005 16.5402
Au 17.6194 6.88057 18.1958
Pt 10.1208 12.7145 16.7892
Pt 12.7732 16.5085 16.2105
Pt 12.0043 12.0664 14.7184
Pt 20.5673 12.0021 9.86081
Pt 22.0447 16.4912 11.4574
Pt 15.3191 22.5956 12.1916
Au 5.63666 14.8211 17.949
Pt 9.68471 10.2341 9.15245
Pt 18.8642 18.7687 16.7219
Au 7.00254 14.1337 20.2682
Pt 20.9985 9.9738 18.4143
Pt 19.3997 10.8831 20.3429
Pt 20.3168 10.4484 13.9259
Pt 10.5583 15.5219 12.2068
Pt 14.1888 21.613 14.5583
Pt 21.8924 18.7775 12.8177
Au 20.6251 12.7781 22.2023
Pt 10.5233 15.8253 9.64337
Pt 10.4538 7.36919 13.6653
Au 7.67394 9.81812 17.5038
Pt 15.5366 16.5548 19.7276
Pt 15.7837 23.2575 15.9806
Pt 18.2216 12.0583 14.6129
Pt 16.21 8.59395 9.25175
Pt 20.8282 18.2795 15.0383
Pt 11.5731 8.2965 9.53583
Au 9.69854 14.3106 6.95461
Pt 16.6179 18.4742 21.1308
Pt 12.8205 10.8191 22.0816
Au 17.925 18.401 5.97302
Pt 12.6457 19.871 18.3767
Pt 18.8876 12.3536 7.80749
Pt 16.7633 20.3576 11.9889
Pt 10.0468 15.7204 20.3162
Pt 14.4475 21.31 17.2063
Pt 19.5244 16.487 9.95647
Au 22.5763 14.0258 10.0564
Pt 9.3202 21.3576 15.7327
Au 6.59729 17.489 17.7897
Pt 12.7413 13.8638 16.4635
Pt 12.6963 14.6304 10.7398
Pt 13.5897 19.197 15.7964
Pt 16.7022 11.4286 19.7413
Pt 13.5969 10.4599 13.0887
Pt 11.1104 17.1197 14.2145
Pt 21.2447 20.2028 16.828
Pt 17.0902 18.6869 18.4774
Pt 14.1489 12.2187 20.3851
Pt 22.4041 18.3759 18.1402
Pt 10.3564 12.7822 9.52418
Pt 17.0618 21.7339 14.151
Pt 18.7301 14.526 13.6688
