286
Atoms. Timestep: 20412
Pt 9.72238 7.08054 17.2073
Pt 16.1613 17.6423 13.726
Au 5.51052 17.0264 12.2174
Pt 15.2624 15.3949 10.0062
Au 13.5963 18.6862 22.9058
Pt 13.6421 14.5149 19.2113
Pt 20.0678 8.84088 10.7402
Au 8.99383 13.3063 23.5674
Pt 22.3326 18.6618 14.1484
Pt 8.20833 17.2191 12.2817
Au 22.9959 17.9914 11.482
Pt 14.5192 11.0083 15.1889
Pt 17.948 19.4284 12.8702
Au 7.95948 14.5399 8.20832
Pt 12.8137 11.9088 19.4358
Pt 18.9762 7.18674 12.9229
Au 14.561 14.579 4.79954
Pt 16.1759 12.8931 10.7974
Pt 15.0923 22.46 13.738
Au 11.5117 7.67772 10.3659
Pt 8.14605 9.62107 13.6688
Pt 14.217 13.8073 12.4917
Au 10.362 9.47103 21.5828
Pt 14.271 12.5856 17.2932
Pt 12.6471 14.866 10.556
Au 22.444 18.8365 16.7273
Pt 13.0121 20.7306 14.0886
Pt 16.9054 17.2039 8.48479
Au 21.7734 18.9677 19.3319
Pt 12.2563 9.3785 19.7194
Pt 19.783 15.0979 19.712
Pt 17.8415 7.63353 10.5139
Pt 18.3659 16.2615 17.4557
Au 8.11402 10.5924 20.7823
Pt 15.4672 19.8593 15.8347
Pt 15.2356 12.3124 6.58793
Au 23.4991 14.0385 9.12705
Pt 23.1268 14.2224 14.0829
Pt 8.97186 17.228 9.87178
Au 9.92297 19.1827 8.40041
Pt 10.5715 9.44204 14.6169
Pt 18.1207 15.5439 10.1242
Pt 8.79727 15.6196 18.97
Au 19.2013 22.7433 18.5824
Pt 9.35854 18.1885 18.9954
Pt 18.6943 16.7632 12.7963
Pt 10.5094 21.0809 13.06
Au 18.5924 16.2085 22.1551
Pt 15.9553 14.6526 17.1506
Au 22.1034 20.7138 12.1487
Pt 9.95224 14.7204 10.0194
Pt 11.4914 13.8244 12.6296
Au 19.0694 6.6462 16.5363
Pt 13.548 15.6482 23.4174
Pt 10.9674 14.8536 22.751
Pt 12.7781 20.8449 19.4527
Au 22.5813 16.6528 9.00271
Pt 14.8306 11.8224 21.4566
Pt 9.6615 11.8079 13.5418
Pt 15.7788 17.171 16.5393
Au 15.9003 20.0244 22.5012
Pt 22.2075 14.2828 19.2555
Pt 11.6011 12.9029 9.01712
Au 4.2335 15.6003 14.1905
Pt 19.2013 12.8723 7.30693
Pt 9.82168 18.6719 13.827
Au 18.5105 18.0666 6.20734
Pt 13.0214 11.0645 7.76597
Pt 15.9555 18.7452 6.66516
Pt 17.4677 10.9447 7.4945
Au 16.4369 23.1584 18.892
Pt 16.382 6.78466 12.4982
Pt 6.86723 17.4922 18.3138
Pt 20.6647 9.24824 13.2533
Au 16.9337 22.1853 9.31982
Pt 21.0405 16.6294 17.9043
Pt 10.3449 13.9368 7.12564
Au 11.5777 12.4892 23.8777
Pt 17.8344 12.6756 12.8705
Pt 16.9742 18.5977 18.41
Pt 10.8992 14.222 19.8661
Pt 8.022 12.9487 19.6759
Pt 15.6222 9.0784 11.1204
Pt 17.154 15.8395 19.8375
Au 23.1735 11.2199 9.18197
Pt 19.6743 11.2917 11.6949
Pt 9.3491 16.1948 14.5293
Au 17.6523 23.8155 16.5577
Pt 17.7909 20.924 17.2905
Pt 21.8387 12.3513 15.6148
Pt 16.9824 10.3848 21.6562
Pt 10.022 16.3483 7.77916
Au 16.7265 6.65746 17.8887
Pt 17.7762 18.5729 15.5494
Pt 14.2721 7.19978 16.4873
Au 15.4759 6.52155 9.79728
Pt 7.72009 13.0263 10.5206
Pt 13.0115 16.357 21.0699
Au 24.1224 16.5973 13.5284
Pt 8.77001 14.3473 12.5549
Pt 16.7056 6.90541 15.1389
Pt 12.3312 20.8202 11.2847
Au 22.9325 10.4851 14.0536
Pt 22.6521 15.0041 11.4562
Pt 7.19988 15.5549 10.5802
Pt 19.5632 22.2994 15.6394
Au 18.8629 14.0176 23.6893
Pt 9.45131 8.89634 19.1089
Pt 18.0549 13.6092 21.0562
Au 7.39642 19.7375 19.8071
Pt 12.8217 13.5527 21.6216
Pt 11.5796 7.44085 13.0574
Au 9.19742 7.12801 14.4669
Pt 17.893 19.7105 8.28975
Pt 15.465 8.7711 13.8315
Pt 11.3664 17.4123 23.0822
Au 23.5388 14.093 16.895
Pt 17.1127 10.8248 14.7555
Pt 15.2542 20.744 18.3428
Pt 15.1914 15.1671 7.32564
Au 20.9966 7.22372 14.8279
Pt 16.4027 8.65591 8.54782
Pt 10.7877 20.7613 15.5987
Pt 13.329 15.8593 16.7517
Au 23.5544 16.5435 18.3178
Pt 8.49951 14.6587 21.4226
Pt 17.34 18.4246 20.9918
Pt 17.75 10.4754 10.0924
Au 14.7044 21.9264 20.852
Pt 12.4529 19.8225 8.91467
Au 13.694 23.1459 18.3037
Pt 19.5744 18.7544 17.4327
Pt 22.139 10.4294 11.4376
Pt 20.8474 20.9456 17.4047
Pt 14.6915 21.762 10.9916
Pt 14.0701 18.9183 10.8107
Pt 15.2138 10.543 19.1821
Au 11.7034 15.665 5.45898
Pt 7.76951 10.8041 18.0934
Pt 11.8419 13.6724 17.4772
Pt 19.8336 17.2905 8.32806
Au 19.282 21.028 10.477
Pt 20.0016 17.0681 15.3357
Pt 21.4522 12.873 10.3569
Pt 19.356 20.2182 19.5572
Au 19.3708 11.6534 22.3651
Pt 10.3157 11.4059 18.8557
Pt 13.1643 20.8792 16.7063
Au 17.8404 23.7088 13.8767
Pt 15.401 22.4903 16.3019
Pt 19.4104 17.6251 19.837
Pt 10.3537 9.57606 12.0212
Pt 13.1955 13.5673 14.9832
Pt 16.8303 13.4896 8.35076
Pt 10.3798 15.9115 16.8814
Au 12.6724 23.016 12.6686
Pt 12.3618 11.4231 13.397
Pt 20.6307 16.613 10.7706
Au 20.8903 14.0607 21.8619
Pt 10.2437 12.2546 21.4291
Pt 16.7393 11.6451 17.1615
Pt 20.3099 12.3374 19.7896
Pt 6.84834 11.097 15.5043
Au 14.5701 9.05309 21.4715
Pt 6.58748 13.0737 17.3354
Pt 15.045 20.352 8.56203
Au 7.96135 20.0261 12.2354
Pt 13.7277 18.5441 17.7407
Pt 17.6152 15.6756 14.9781
Au 6.19582 15.037 19.363
Pt 14.6258 19.0385 20.3467
Pt 10.1038 20.5826 19.9425
Pt 16.5769 16.3626 5.629
Au 23.8963 12.5597 11.6678
Pt 14.3015 17.6505 8.53236
Pt 13.8076 18.1689 14.8386
Pt 14.5881 7.94548 19.0254
Au 4.79703 14.9601 16.8662
Pt 8.32417 8.96532 16.2771
Pt 20.9677 9.66564 16.0114
Au 9.30786 18.9893 21.9429
Pt 8.04152 13.4582 15.0014
Pt 20.6498 14.1855 17.1504
Pt 19.9876 19.7381 14.983
Pt 10.5824 13.8086 15.1196
Pt 10.9748 9.33592 17.155
Pt 7.05191 18.3953 14.2207
Au 17.222 13.6883 5.51878
Pt 21.549 12.5984 12.9729
Pt 11.2009 19.4547 17.883
Pt 15.3259 14.5154 21.5179
Au 12.746 23.1523 15.4329
Pt 16.6555 15.0388 12.494
Pt 9.39348 11.3462 16.1236
Pt 19.7599 14.3684 11.9486
Au 19.0411 8.7242 8.21453
Pt 21.4242 16.3609 13.2428
Pt 19.6571 11.6664 17.1894
Au 22.4318 11.8068 18.1341
Pt 17.8365 9.54055 12.554
Pt 5.51568 13.3167 14.8056
Pt 17.0354 8.67554 19.6251
Pt 13.5222 9.72462 17.3735
Pt 20.7396 9.81876 18.6536
Pt 10.7073 16.4155 12.0297
Au 9.14505 11.8598 8.53191
Pt 17.141 21.9267 12.0706
Pt 18.4483 9.32426 17.4679
Pt 13.7335 8.85078 9.28105
Au 8.09321 10.3787 10.8999
Pt 17.9435 11.2759 19.442
Pt 16.0194 9.09147 16.6708
Pt 22.4532 16.1989 15.7205
Au 6.44422 19.6691 16.7714
Pt 18.7736 12.981 9.90636
Au 8.73306 20.8424 17.6193
Pt 12.8505 13.426 6.49104
Pt 13.8501 7.14274 11.7223
Pt 12.0952 15.9851 14.242
Pt 20.2923 10.9231 8.98259
Pt 7.64173 17.1496 20.8543
Pt 10.1921 12.1536 11.0787
Au 21.2536 19.2055 9.7118
Pt 18.5967 8.73727 14.9716
Pt 17.3436 21.2377 14.7025
Au 8.83501 16.4871 23.3135
Pt 19.3209 9.60314 20.7083
Pt 13.0779 9.51417 11.8877
Pt 11.9824 11.4384 16.0616
Pt 17.0363 20.8708 20.1491
Au 16.3746 15.1994 23.8645
Pt 20.5916 14.773 8.82763
Pt 11.8448 17.3604 9.83815
Au 22.0324 21.3453 14.8598
Pt 19.6664 11.3614 14.4236
Pt 12.537 10.8795 21.9496
Pt 6.85074 15.6809 14.1494
Pt 8.73462 18.1861 16.3965
Pt 12.15 7.28299 18.2221
Pt 12.2317 18.5676 12.7685
Au 14.0424 6.146 14.117
Pt 13.9106 16.591 12.177
Pt 18.2892 13.2988 15.6519
Au 14.2807 13.0915 23.9018
Pt 7.5707 15.5235 16.6699
Pt 12.6045 15.5201 8.02492
Pt 10.2764 16.613 20.9101
Pt 14.1623 13.3334 8.86154
Pt 14.0096 17.0144 5.90958
Pt 16.5821 19.8786 10.5451
Au 11.0649 22.3423 17.8575
Pt 19.6576 21.5535 13.103
Pt 11.7151 7.00275 15.6404
Au 13.573 19.7799 6.39041
Pt 20.3987 18.8161 12.4114
Pt 8.33606 20.5161 14.9426
Pt 13.2716 11.8693 10.8416
Pt 15.8663 13.2542 14.7085
Pt 15.9133 13.1209 19.4247
Pt 5.69544 17.2196 15.9658
Au 19.3913 7.44732 19.1049
Pt 10.2459 19.147 11.1159
Pt 9.22356 13.5005 17.5065
Au 21.7888 12.7357 7.48374
Pt 11.4546 18.0762 15.7824
Pt 14.9257 16.7381 19.1456
Pt 16.3122 17.4256 11.1444
Pt 11.3785 10.2747 9.65684
Pt 15.5072 17.0213 22.0198
Pt 18.3588 15.3898 7.30973
Au 14.9563 9.65426 6.64725
Pt 13.0885 8.91909 14.689
Au 21.8334 16.5469 20.6812
Pt 18.6776 18.3378 10.3977
Pt 20.3026 14.4356 14.5434
Pt 11.8604 16.8387 18.7571
Pt 15.33 11.2543 12.6404
Pt 11.896 17.9268 7.10554
Pt 5.91916 14.2047 12.3289
Pt 18.2315 13.6825 18.2731
Pt 11.8717 18.7558 20.6989
Pt 7.09859 11.9676 12.9263
Pt 14.7979 15.5954 14.538
Pt 16.754 12.6147 23.0055
Pt 15.2327 19.9671 12.9714
Pt 15.3102 11.0005 9.14983
