286
Atoms. Timestep: 20215
Pt 12.9009 8.35215 19.5653
Pt 11.795 9.36779 17.1743
Au 12.469 12.2672 23.5288
Pt 15.0529 9.25809 21.0454
Au 10.1459 10.9916 21.9706
Pt 11.3855 11.0565 15.1851
Pt 10.9826 7.3577 15.7203
Au 9.19557 6.99174 13.7628
Pt 13.3769 7.30918 17.1565
Pt 14.621 11.6846 22.1374
Au 7.15273 10.1016 17.4245
Pt 9.04845 11.8738 14.1963
Pt 9.02108 9.38774 15.4349
Au 8.22746 9.53305 10.0699
Pt 15.3248 8.19923 18.6027
Pt 7.70189 12.7214 18.5993
Au 6.58975 10.3478 14.4828
Pt 8.29309 17.368 14.1458
Pt 6.38031 12.9421 13.5485
Au 5.98082 16.7285 10.8491
Pt 11.6494 15.1193 20.2042
Pt 7.17577 14.8873 17.1886
Au 5.19931 14.2932 15.4955
Pt 6.02675 15.6716 13.281
Pt 14.498 16.1423 8.39123
Au 6.84415 21.0793 13.7556
Pt 8.91415 21.076 11.7984
Pt 12.3835 18.8732 19.3577
Au 14.936 23.5257 9.50485
Pt 7.14807 19.2556 15.8593
Pt 6.34142 16.7483 15.6929
Pt 14.3859 7.71688 12.6141
Pt 15.5871 5.94948 16.8354
Au 13.9987 5.02069 12.467
Pt 16.2409 13.6905 14.7976
Pt 17.4897 8.98672 20.0412
Au 22.448 14.6178 20.9306
Pt 10.6731 10.39 9.33539
Pt 12.3981 8.96146 11.1084
Au 11.451 7.89106 8.78879
Pt 10.8277 9.17409 13.5264
Pt 9.691 11.1623 17.287
Pt 16.2583 11.7115 20.0247
Au 12.5255 18.7669 16.4925
Pt 11.3108 10.5915 19.3618
Pt 10.4259 8.53806 20.4088
Pt 13.9886 10.7889 19.2294
Au 14.7873 14.2104 24.2751
Pt 19.5488 8.96716 18.4554
Au 7.71386 17.6283 20.4236
Pt 10.085 8.01629 11.2248
Pt 8.53704 12.1608 9.59365
Au 11.0929 15.3507 5.74876
Pt 8.34009 9.32628 12.8019
Pt 9.55597 16.1067 16.0949
Pt 11.5815 14.5778 17.6909
Au 13.9361 14.7399 13.5369
Pt 8.07573 14.5957 14.5178
Pt 9.4476 13.527 16.571
Pt 10.6108 13.6487 22.2111
Au 13.478 16.3685 18.3966
Pt 7.1401 12.3884 16.0479
Pt 10.174 12.9461 19.4577
Au 8.11672 12.8919 21.2736
Pt 10.5368 15.9559 10.5015
Pt 15.5235 14.034 6.45437
Au 5.71366 18.4174 13.6569
Pt 9.06684 13.5186 12.0984
Pt 8.31513 16.0455 11.951
Pt 6.63149 14.021 11.19
Au 17.3652 18.99 7.51152
Pt 11.3795 20.4741 12.8992
Pt 8.73863 21.308 16.4685
Pt 9.67814 18.8705 16.4796
Au 14.1577 18.637 13.8659
Pt 9.19294 15.3149 18.8414
Pt 10.4454 17.5117 20.5469
Au 6.7662 15.0129 19.8882
Pt 10.8639 20.6257 10.1926
Pt 15.395 20.9394 10.951
Pt 15.2459 20.9126 8.37417
Pt 15.0348 18.5965 9.37686
Pt 11.0936 22.7812 11.7731
Pt 16.4086 16.5946 6.77798
Au 14.6319 18.6829 6.6976
Pt 10.2176 18.4191 11.5736
Pt 9.46118 22.4231 14.037
Au 9.35136 22.2392 18.9224
Pt 9.02373 19.8335 14.0513
Pt 13.5474 21.7902 12.5709
Pt 11.8738 6.86778 13.0625
Pt 15.8785 9.74213 8.52283
Au 11.0906 6.71005 18.4408
Pt 11.6496 13.6127 15.1609
Pt 9.39061 8.6304 17.9441
Au 18.1021 5.81396 15.6988
Pt 10.1948 11.0404 11.7415
Pt 11.9619 12.102 7.91639
Au 13.9134 16.1004 5.63295
Pt 13.2832 9.84427 8.63599
Pt 7.39733 11.4597 11.8079
Pt 14.0376 12.0749 14.9414
Au 12.5127 16.9005 12.4162
Pt 18.3296 8.66771 15.9355
Pt 13.1227 8.75214 14.7996
Pt 18.6537 11.4798 19.1675
Au 12.4531 16.2615 15.4804
Pt 20.4517 12.9322 20.4726
Pt 16.923 10.0688 17.728
Au 20.0926 14.6812 22.5987
Pt 9.75306 16.2638 7.84381
Pt 13.0226 13.6606 6.27277
Au 18.0365 14.4478 5.92165
Pt 7.60569 18.775 11.9208
Pt 10.7805 13.3253 10.0608
Pt 12.0074 15.0461 8.31343
Au 10.5009 15.4239 13.4684
Pt 15.8765 12.0747 9.78312
Pt 14.3524 10.0756 16.7066
Pt 19.5599 10.9228 16.6348
Au 19.744 21.1315 9.90131
Pt 12.4708 12.1182 17.4534
Pt 9.29046 19.4767 19.0201
Pt 17.1058 10.4209 22.1535
Au 15.5488 12.4281 17.4547
Pt 12.5863 9.97973 21.6676
Pt 9.00863 15.4795 21.3998
Pt 13.3846 14.5589 22.141
Au 16.4122 15.3023 17.3744
Pt 8.69028 10.542 19.7406
Au 9.28613 19.4075 21.8634
Pt 12.7974 19.7629 8.49402
Pt 8.36653 14.7833 9.51921
Pt 20.9765 13.2559 10.1114
Pt 12.2192 17.4398 7.18032
Pt 18.0811 16.5984 12.1737
Pt 12.9899 14.7222 10.8629
Au 21.7441 19.4036 10.1069
Pt 12.6325 17.3641 9.77701
Pt 7.87213 17.4426 17.8035
Pt 17.0413 16.9757 9.61897
Au 11.0249 18.1431 14.2359
Pt 10.8489 17.2041 18.0567
Pt 11.0237 20.8605 20.5184
Pt 13.3593 16.9708 21.0842
Au 15.0264 17.6427 16.6091
Pt 11.1498 20.9288 15.4033
Pt 12.0243 18.9782 22.1041
Au 10.5797 23.3287 16.6595
Pt 19.4965 18.1689 9.40295
Pt 13.0327 21.9379 9.99847
Pt 19.4107 19.1476 11.9382
Pt 20.8191 21.1852 12.5416
Pt 14.5651 23.4759 14.4626
Pt 13.7314 20.8871 15.1067
Au 17.3218 22.3636 9.39393
Pt 12.0037 23.1494 14.2513
Pt 11.3863 20.8646 17.9096
Au 13.3232 24.3043 11.857
Pt 15.8366 23.361 11.9592
Pt 17.1551 23.3664 14.2502
Pt 17.2826 7.67827 9.04697
Pt 15.7403 8.14322 15.6622
Au 20.0753 11.3015 8.11687
Pt 14.5754 7.71442 9.83623
Pt 13.5026 6.10904 14.931
Au 12.4903 6.21252 10.5822
Pt 14.8913 12.5183 12.3636
Pt 9.85293 13.618 7.62264
Au 18.1584 9.49257 7.15103
Pt 8.30762 17.4743 9.74046
Pt 11.7526 13.0689 12.6355
Pt 16.9397 14.5309 8.53497
Au 18.9239 6.66951 10.8614
Pt 12.8789 11.8285 10.4414
Pt 20.1864 7.1215 16.6786
Pt 20.5509 13.0595 17.7633
Au 15.6832 14.7145 10.8638
Pt 18.1663 10.3479 9.75824
Pt 17.6949 17.2297 19.2125
Au 23.6939 11.4387 14.4598
Pt 19.1025 15.3022 10.216
Pt 10.4499 18.5303 8.8421
Pt 17.3792 12.0925 7.53059
Pt 14.1241 13.5868 8.75309
Pt 18.8388 16.4056 7.6703
Pt 20.2464 14.4 12.7053
Au 21.4075 15.9381 8.88748
Pt 16.2544 6.24435 11.4215
Pt 21.218 9.20686 15.4873
Pt 14.1773 13.7419 19.3537
Au 15.1048 17.1703 11.6498
Pt 15.3489 9.90997 13.6411
Pt 18.2831 12.7005 21.847
Pt 18.779 12.7773 14.423
Au 14.0596 14.3967 16.4154
Pt 17.9323 15.8257 21.5056
Pt 12.4446 12.4727 20.7534
Au 22.2615 17.2177 20.3299
Pt 20.7425 16.9615 11.3542
Pt 18.0221 21.7559 11.9038
Pt 15.8655 21.2432 13.5948
Pt 17.451 19.6754 10.0469
Pt 16.4906 19.504 15.3524
Pt 19.2304 15.439 17.5607
Au 22.9795 20.9154 14.2687
Pt 18.4781 15.4393 14.8253
Pt 15.5998 16.3801 22.6703
Pt 23.0511 13.438 16.4147
Au 16.0686 16.5128 14.2597
Pt 15.9106 13.8356 21.6485
Pt 13.6191 20.8755 20.4987
Pt 17.4581 14.5571 23.6179
Au 16.5179 12.1549 24.0148
Pt 11.2457 16.2358 22.6687
Au 19.7961 17.9301 21.3743
Pt 18.5003 20.8518 14.2316
Pt 19.0569 19.9129 16.7157
Pt 13.1834 19.4461 11.2664
Pt 15.9423 21.9563 16.3711
Pt 15.0201 22.4642 18.8703
Pt 15.0385 18.3973 19.5544
Au 19.6494 23.3727 13.5188
Pt 13.2402 22.7291 16.8036
Pt 14.6671 19.0159 22.1224
Au 12.2606 22.9729 19.2814
Pt 17.6032 21.9077 18.5424
Pt 16.6805 19.5975 17.9512
Pt 15.9065 5.88731 14.1184
Pt 16.8014 8.74086 11.289
Au 19.9381 8.50324 9.01301
Pt 14.7318 10.1198 11.0065
Pt 21.255 10.777 19.1783
Au 18.3317 5.37286 13.0634
Pt 19.5924 13.9152 7.97427
Pt 17.5717 13.9531 12.4492
Pt 14.676 11.6145 7.19125
Pt 19.9103 7.52812 13.9177
Pt 12.8687 10.7295 12.9615
Pt 22.3673 11.0444 16.8746
Au 21.4815 10.4704 10.3272
Pt 16.8741 11.0593 15.3022
Pt 18.049 13.1225 16.9215
Au 19.6707 10.2119 21.3123
Pt 19.8123 11.813 12.0497
Pt 22.46 14.9779 11.4095
Pt 19.4654 9.09263 11.6824
Pt 21.1914 12.0598 14.6816
Pt 22.895 14.2048 13.8868
Pt 22.7973 12.9089 18.9585
Au 23.9913 16.6091 13.1728
Pt 17.789 14.0336 19.5112
Pt 17.2558 11.2107 12.288
Au 21.5616 19.8041 19.6442
Pt 22.3645 18.7752 12.5651
Pt 18.6258 18.0236 14.2381
Pt 20.7837 14.551 15.5374
Pt 21.7012 19.9152 16.9061
Pt 15.6311 15.848 20.04
Pt 16.7778 19.0619 12.5417
Au 23.3449 17.2679 10.5208
Pt 20.0543 15.5337 20.0217
Pt 21.9179 15.3499 18.1427
Au 22.1271 8.54874 17.9046
Pt 17.8432 17.5156 16.6395
Pt 20.7724 21.8423 15.392
Pt 21.2875 16.5866 13.7867
Pt 20.1699 17.8792 18.5359
Pt 16.224 20.6013 20.4327
Pt 22.7665 17.7844 17.7789
Au 20.2956 21.8302 18.249
Pt 17.0931 18.3384 21.4771
Au 13.4012 17.1229 23.8442
Pt 14.1625 20.3348 17.8366
Pt 18.7425 19.7916 19.6138
Pt 17.4008 7.95346 13.5622
Pt 18.3429 12.8456 10.1037
Pt 19.1164 10.1722 14.0198
Pt 21.6277 9.90832 13.0418
Pt 22.3639 12.3533 12.2096
Pt 17.6448 7.21172 17.9502
Pt 23.1267 15.9706 15.8348
Pt 23.0855 18.4024 15.1261
Pt 20.6201 17.3113 16.1293
Pt 20.7318 19.3768 14.4678
Pt 18.5123 22.598 16.2565
