286
Atoms. Timestep: 20266
Pt 8.95607 11.0866 16.3104
Pt 6.60873 19.3097 15.4325
Au 9.7083 6.47319 15.1385
Pt 21.7065 14.0623 17.1957
Au 18.6395 13.6224 23.2652
Pt 16.5321 14.8369 12.4678
Pt 20.2698 15.2545 15.392
Au 5.0462 14.529 14.3551
Pt 15.5315 8.22895 19.726
Pt 11.2398 22.0753 18.7698
Au 13.9848 17.651 6.12955
Pt 13.3943 7.48438 18.3516
Pt 19.4635 7.83461 16.1182
Au 18.776 18.9144 20.9629
Pt 16.3845 21.1435 15.0968
Pt 20.8906 16.5094 17.6347
Au 8.68754 11.9649 21.2248
Pt 9.05519 16.8678 10.3497
Pt 11.2635 15.8969 9.12613
Au 24.2614 13.7374 17.0806
Pt 13.9175 18.4278 21.6872
Pt 21.3385 15.7749 12.9772
Au 22.8809 12.7124 19.3777
Pt 18.1923 9.79369 14.9293
Pt 20.969 11.7607 8.40699
Au 15.6084 15.2838 5.66743
Pt 18.5966 7.73046 13.3662
Pt 21.6308 10.2426 10.3462
Au 8.79867 16.3295 7.6993
Pt 9.7971 9.0662 14.8429
Pt 9.06197 8.55286 17.3973
Pt 16.7471 18.5331 15.7739
Pt 19.7601 8.44415 18.9002
Au 17.925 22.8658 17.031
Pt 22.5189 11.1672 12.6166
Pt 8.76445 10.5778 18.9904
Au 23.2602 15.5176 19.0733
Pt 18.0236 16.4797 16.8555
Pt 13.9044 21.6892 18.7951
Au 21.2749 19.7847 10.227
Pt 9.93422 19.7811 19.6153
Pt 11.0178 11.022 20.3565
Pt 13.358 18.4388 11.7673
Au 9.08101 13.9847 22.9183
Pt 15.0132 13.7091 14.3512
Pt 16.4605 11.6455 13.9095
Pt 12.4855 20.3453 20.6088
Au 12.7868 24.0381 17.6038
Pt 9.09674 19.5789 10.6721
Au 5.41869 18.3882 13.0584
Pt 13.2886 9.97543 16.8169
Pt 18.3285 19.5075 13.9016
Au 18.5739 23.545 12.3298
Pt 11.2342 8.20866 10.3732
Pt 6.59405 16.8267 14.719
Pt 14.3951 21.2092 11.8565
Au 13.2793 7.21694 21.0428
Pt 20.8485 10.3546 14.7659
Pt 13.0381 20.273 13.8155
Pt 9.05124 16.1387 15.4207
Au 16.7338 23.8402 14.3552
Pt 12.4778 15.9723 21.7237
Pt 9.43805 14.2564 9.70747
Au 9.17764 9.708 9.65307
Pt 17.6206 15.7459 21.988
Pt 11.7921 13.9831 11.2879
Au 16.962 9.42445 23.2564
Pt 17.4407 8.81355 17.7371
Pt 14.2983 11.7841 9.54443
Pt 16.1247 20.3251 20.4089
Au 17.3154 17.7474 6.59879
Pt 19.1884 14.3142 12.6551
Pt 17.3936 12.4047 11.3351
Pt 7.42273 17.3786 17.1995
Au 13.8462 24.6649 12.7076
Pt 15.2832 17.0061 17.2792
Pt 20.8133 14.8356 10.6365
Au 20.7068 21.34 17.4478
Pt 13.4496 17.5938 9.0004
Pt 15.8955 19.4318 10.5981
Pt 13.5999 14.5502 18.011
Pt 19.5373 15.9893 8.0889
Pt 15.5835 7.94895 11.1905
Pt 19.7936 12.5766 16.0346
Au 13.2816 16.9388 23.9815
Pt 12.3111 19.4832 7.47473
Pt 14.4309 19.0142 19.016
Au 10.8549 21.2289 8.9974
Pt 11.3319 16.5812 11.7105
Pt 18.8409 16.5015 19.6209
Pt 15.9847 16.3399 14.5504
Pt 8.70371 16.9951 12.9178
Au 16.3198 22.8246 19.3143
Pt 15.3493 16.7984 10.8908
Pt 20.447 12.3275 11.4103
Au 6.69043 10.0825 17.1712
Pt 11.6853 17.9157 19.9726
Pt 9.81074 20.5913 16.9851
Au 17.7689 6.63544 19.4281
Pt 18.7194 14.2364 17.8046
Pt 16.9576 7.35432 15.4161
Pt 21.368 13.0467 14.0982
Au 21.9399 8.61165 16.7467
Pt 15.0831 10.679 11.69
Pt 12.7366 17.2904 17.3964
Pt 11.6616 20.6389 11.4389
Au 6.78913 18.1453 10.7463
Pt 11.1789 11.26 14.6667
Pt 15.384 10.4134 18.3792
Au 9.47302 18.98 7.9998
Pt 22.2882 19.7562 12.8049
Pt 18.099 15.3903 10.4224
Au 11.3274 18.5141 22.5355
Pt 11.1988 7.23925 12.8717
Pt 16.9129 12.0916 8.63954
Pt 11.0028 8.48591 19.3953
Au 8.44682 7.95108 12.8168
Pt 22.3128 11.5552 16.6254
Pt 10.1108 17.8088 17.5251
Pt 13.7364 15.7452 12.7553
Au 20.2392 15.5486 22.0346
Pt 14.0768 16.5731 19.7125
Pt 22.3899 17.593 11.3642
Pt 11.2683 18.5081 9.88073
Au 10.5669 14.332 6.85666
Pt 9.3382 21.5313 12.3907
Pt 11.0321 10.4825 17.6613
Pt 18.6275 19.617 10.798
Au 16.1602 7.18474 21.9523
Pt 19.9123 17.272 10.5049
Au 23.3936 9.72666 14.7046
Pt 12.2074 13.6973 14.0438
Pt 13.8885 14.0426 20.5217
Pt 17.5346 9.84545 12.1616
Pt 13.1277 9.03384 11.9505
Pt 6.74011 12.4116 15.6023
Pt 18.1634 11.4566 21.9048
Au 11.3463 14.8879 23.8959
Pt 7.80903 19.494 13.0181
Pt 6.73478 14.8647 16.543
Pt 12.0742 12.7356 16.5466
Au 18.3788 15.4874 5.55008
Pt 9.91645 14.5372 12.9625
Pt 17.3691 14.6374 7.77305
Pt 18.4222 20.9511 19.0879
Au 16.1002 14.3359 24.1446
Pt 15.8085 6.66109 17.6135
Pt 13.5899 13.7208 23.169
Au 12.3412 5.83372 15.1854
Pt 19.0008 10.6117 9.93037
Pt 17.5098 17.6047 12.0284
Pt 15.5967 11.7088 23.3524
Pt 6.43409 15.9297 12.2178
Pt 14.2921 19.6669 16.2991
Pt 18.8992 22.0947 14.6117
Au 15.155 5.30974 15.2193
Pt 16.4389 15.4857 19.3982
Pt 14.3782 22.4919 14.1439
Au 16.985 12.7136 5.95247
Pt 12.3348 11.5779 12.1992
Pt 15.7718 9.84469 15.9213
Pt 11.9354 22.7915 12.6196
Pt 17.3835 17.6361 9.23892
Au 11.7281 9.31203 22.258
Pt 17.5087 20.2091 8.45319
Pt 15.24 19.1794 7.92603
Au 15.3703 10.5032 7.18766
Pt 8.84852 17.2999 19.6863
Pt 16.3427 17.7772 20.9198
Au 21.2859 7.8394 14.0609
Pt 19.0217 11.8321 13.5047
Pt 15.5494 8.81173 13.6271
Pt 11.2183 15.2231 16.6565
Au 13.1885 23.0008 10.2447
Pt 12.4405 8.90688 14.4164
Pt 7.3048 10.1409 14.3775
Pt 20.2316 18.262 12.8428
Au 21.3673 17.4059 20.1942
Pt 18.577 20.2148 16.5401
Pt 14.385 13.1935 11.8885
Au 13.1638 11.0014 24.1712
Pt 20.154 9.62222 12.3208
Pt 18.5262 16.5012 14.0238
Pt 11.0729 12.0362 22.9235
Pt 20.8558 20.2934 14.8644
Pt 19.8035 18.0239 15.6939
Pt 19.6716 10.2711 17.1521
Au 13.2861 6.6154 10.6402
Pt 13.6062 15.4078 15.585
Pt 16.1897 20.6699 17.7248
Pt 7.84153 10.521 11.8229
Au 16.5156 6.16187 12.9483
Pt 13.8889 11.144 14.2484
Pt 20.2892 12.2764 18.7724
Pt 9.02545 18.7422 15.1967
Au 5.98495 12.2161 13.0089
Pt 15.8319 10.799 20.8615
Pt 16.1723 13.4608 21.6104
Au 23.5487 16.7853 16.7731
Pt 11.2519 15.5092 19.2715
Pt 17.958 22.0259 10.2606
Pt 16.5116 9.73608 9.56266
Pt 12.1849 13.2578 8.75981
Pt 11.5989 18.96 15.5719
Pt 14.6732 12.3309 16.561
Au 6.89858 15.3592 9.57845
Pt 13.8883 6.79836 13.248
Pt 17.7633 13.9696 14.9123
Pt 12.6508 21.6693 16.2714
Au 7.63689 19.7638 18.0855
Pt 17.2195 18.4258 18.5634
Pt 7.59654 14.3919 14.0378
Pt 11.2211 13.6711 21.0696
Au 12.7102 11.0596 7.33688
Pt 13.619 15.1064 9.9188
Au 7.38273 7.82842 15.4998
Pt 15.9012 14.091 9.90037
Pt 15.5221 21.7949 9.42446
Pt 12.2142 23.8533 14.9034
Pt 22.9876 14.9825 14.9572
Pt 13.4563 20.2623 9.57675
Pt 20.5879 12.7382 21.3821
Au 18.6904 10.8205 7.22179
Pt 15.0441 15.904 22.2265
Pt 11.8079 10.6824 9.84587
Au 7.50098 11.9793 9.52517
Pt 15.642 19.1013 13.3011
Pt 17.3701 11.8631 16.7531
Pt 10.3555 23.0473 16.4808
Pt 13.8611 9.13662 9.38669
Au 7.99344 13.7162 7.53644
Pt 21.6224 14.3495 8.29688
Pt 11.3933 16.5759 14.3228
Au 8.06366 21.5526 15.0131
Pt 23.2449 15.3428 10.4039
Pt 11.3124 17.2278 7.00778
Pt 14.2225 7.68778 15.8391
Pt 23.146 13.7893 12.4454
Pt 11.4781 7.9228 16.7035
Pt 17.0388 21.2742 12.5308
Au 24.0317 12.4117 14.6545
Pt 21.9213 18.9206 16.9029
Pt 13.0958 12.0812 18.9074
Au 24.1317 16.3316 12.9107
Pt 13.7859 17.7969 14.5468
Pt 10.3133 12.9776 18.5836
Pt 13.1173 15.3149 7.16242
Pt 19.6131 18.6419 8.30424
Pt 15.4543 16.286 8.13413
Pt 19.8321 18.7933 18.4248
Au 19.6945 13.3689 6.57652
Pt 7.72476 12.8421 18.0879
Pt 14.4142 9.26827 22.3793
Au 9.66948 23.6913 13.9486
Pt 8.91747 12.069 13.6248
Pt 18.0762 11.0732 19.2464
Pt 10.0002 16.2612 21.7521
Pt 16.0873 14.5315 16.8177
Pt 13.2779 9.65081 19.8342
Pt 20.8503 14.6964 19.654
Au 21.9718 17.1027 8.70047
Pt 19.1493 13.2957 9.25486
Pt 17.8839 8.97358 20.7556
Au 14.4697 25.05 15.4052
Pt 9.89659 12.1083 11.0964
Pt 8.87301 15.2898 17.9569
Pt 22.6892 12.7179 10.1421
Pt 16.0093 12.9084 18.9906
Pt 15.1209 22.8726 16.7301
Pt 14.7548 13.3408 7.50823
Au 18.4405 7.93733 10.602
Pt 13.3909 11.6664 21.5853
Au 20.3481 10.1218 21.0091
Pt 10.3886 9.78838 12.3389
Pt 18.4159 13.7006 20.3463
Pt 9.42684 13.53 15.828
Pt 12.1105 19.7634 18.0499
Pt 7.70689 13.6615 11.5613
Pt 10.6836 21.2202 14.5022
Pt 8.68111 14.4607 20.3056
Pt 19.9566 21.1215 12.3525
Pt 9.99917 11.9728 8.34964
Pt 21.7916 10.2285 18.844
Pt 10.5791 18.8938 12.9502
Pt 15.8595 23.3376 11.6483
Pt 22.2409 17.6757 14.5442
