286
Atoms. Timestep: 20573
Pt 12.1971 11.6498 8.51566
Pt 12.1008 16.4746 17.7255
Au 16.4775 24.0969 18.407
Pt 18.4304 15.1293 16.9894
Au 7.83889 20.2264 10.1343
Pt 22.3673 11.4961 17.9858
Pt 13.7592 13.3572 9.55189
Au 10.0216 7.50773 9.81274
Pt 11.9023 20.7884 14.7955
Pt 16.2385 19.3803 7.55341
Au 12.3795 19.0827 22.3566
Pt 21.4689 12.6668 20.1068
Pt 16.1119 14.053 15.9325
Au 19.9572 20.3474 20.1509
Pt 13.7821 12.6745 16.8
Pt 20.3258 22.1743 15.1515
Au 13.6447 4.50185 15.3303
Pt 10.6501 10.7891 13.6534
Pt 11.7817 16.6861 20.4889
Au 10.1571 16.4736 6.71702
Pt 18.7237 12.2679 11.8305
Pt 7.08821 16.4507 12.6347
Au 17.8768 11.1407 7.48499
Pt 19.3494 13.5345 7.59616
Pt 12.7626 12.3451 12.0204
Au 23.2814 10.3276 15.7552
Pt 15.006 8.39598 11.7283
Pt 12.9853 21.5829 10.2262
Au 15.4816 4.35148 13.3372
Pt 17.4308 10.6729 19.8105
Pt 7.66172 19.2085 12.8962
Pt 15.2628 19.3891 18.7614
Pt 22.3648 16.4593 13.4238
Au 7.03205 20.3121 15.3148
Pt 17.8913 10.1077 16.9283
Pt 10.3196 9.8541 16.1367
Au 8.53721 9.88013 9.90479
Pt 18.3994 23.1714 16.6906
Pt 17.654 18.9462 14.1462
Au 23.042 11.3826 13.2036
Pt 9.48653 15.4125 11.5174
Pt 15.0291 12.8999 22.5652
Pt 9.95014 17.8262 18.7235
Au 11.7906 16.4134 23.1448
Pt 8.94509 20.6498 17.295
Pt 19.2737 16.805 10.5987
Pt 23.0279 15.5278 16.0107
Au 19.5155 7.63859 12.9855
Pt 17.1029 11.1094 22.4692
Au 9.58592 12.128 8.07726
Pt 16.7392 15.0318 19.1049
Pt 9.05226 17.9947 10.9216
Au 21.7522 8.80227 17.519
Pt 11.5133 14.1758 7.75188
Pt 8.14596 9.86485 14.5226
Pt 11.8568 13.1014 14.6439
Au 18.5726 5.93058 14.9055
Pt 12.644 18.9351 19.3741
Pt 13.1456 10.8969 14.7058
Pt 18.5397 20.5972 16.2561
Au 8.54073 11.4747 21.2429
Pt 9.50331 7.71372 14.4417
Pt 17.2169 12.6732 18.0119
Au 14.9315 6.66925 20.6041
Pt 15.3077 6.29922 18.0142
Pt 16.0507 23.9643 15.745
Au 15.1267 15.2963 5.23361
Pt 16.7673 6.67387 12.8074
Pt 11.6531 17.2576 11.7555
Pt 20.447 19.0011 17.7263
Au 11.3119 21.0756 8.05837
Pt 16.1168 16.7676 15.2844
Pt 10.7695 14.4569 16.5348
Pt 9.27349 10.4493 18.7171
Au 18.0474 6.33791 19.6134
Pt 19.6494 11.6036 9.46223
Pt 17.0044 17.121 12.3813
Au 13.1757 24.1628 12.9728
Pt 14.9132 10.9239 20.832
Pt 13.4724 7.03504 16.1933
Pt 19.2256 21.8302 10.6815
Pt 17.2944 13.076 20.8807
Pt 7.56768 10.9046 16.7944
Pt 16.4737 16.8859 6.85104
Au 20.6156 21.7391 17.806
Pt 14.1975 7.74518 9.38917
Pt 17.6851 14.705 11.6569
Au 13.5918 13.1847 6.3604
Pt 21.4389 12.5774 11.3133
Pt 9.31169 12.35 15.3406
Pt 13.9074 17.9395 16.6517
Pt 8.51135 12.87 10.3501
Au 12.4957 13.7192 23.6938
Pt 6.29445 14.9271 14.758
Pt 16.7824 7.46252 10.2071
Au 20.426 19.5043 9.51139
Pt 17.2466 8.48652 14.6691
Pt 15.888 6.18864 15.3712
Au 14.3694 18.1773 5.73489
Pt 19.8899 13.7976 22.0137
Pt 20.1339 14.6822 12.6288
Pt 18.5976 12.6969 15.7344
Au 14.8212 5.63566 10.9795
Pt 15.9249 11.192 15.5325
Pt 16.2078 19.2868 16.2769
Pt 8.05846 15.3379 16.954
Au 18.795 9.06467 9.51166
Pt 21.0489 17.8358 20.0265
Pt 7.63405 16.568 19.2662
Au 18.7696 15.7064 6.15543
Pt 15.7775 19.4503 12.4424
Pt 15.5308 15.1611 13.2511
Au 14.8042 23.5807 10.6797
Pt 15.8205 23.7244 13.1503
Pt 19.4484 11.3738 21.2866
Pt 14.5464 19.8057 21.1396
Au 12.7518 21.6735 19.7824
Pt 18.6467 10.558 14.0955
Pt 16.4397 21.4751 14.4787
Pt 20.1889 10.1682 11.8127
Au 13.8111 23.4043 17.7411
Pt 15.2699 11.8906 7.94289
Pt 21.3602 17.9736 11.4715
Pt 9.49337 21.7382 14.84
Au 15.8993 22.0716 8.68858
Pt 11.3337 21.9298 17.1613
Pt 13.3237 14.7987 21.3913
Pt 14.9876 19.9575 10.0072
Au 7.89085 17.2144 8.41524
Pt 22.5458 19.0308 13.5598
Au 10.8423 10.0715 21.1073
Pt 7.32252 13.809 12.4404
Pt 11.2506 11.9546 17.2446
Pt 13.9871 8.64248 19.0543
Pt 16.0489 8.83311 21.6283
Pt 14.5098 15.1679 17.6277
Pt 14.7956 13.2339 19.6312
Au 21.8248 13.4277 8.7854
Pt 18.8393 16.9039 19.0636
Pt 21.3455 15.3 20.2823
Pt 7.76383 18.3018 17.2989
Au 7.98359 19.3581 19.7534
Pt 12.1386 9.18954 9.82718
Pt 17.6787 7.1983 17.0796
Pt 6.41832 13.3004 16.7845
Au 22.5598 21.6713 13.9287
Pt 12.0265 18.3395 7.25265
Pt 13.9588 22.5192 15.1928
Au 13.2669 8.9467 21.5649
Pt 8.31835 11.1331 12.3169
Pt 20.9131 16.0454 17.7726
Pt 12.352 18.9249 9.70661
Pt 9.23852 16.3569 21.2767
Pt 16.4107 17.1624 17.8153
Pt 16.8247 17.8672 9.8084
Au 20.1162 6.4289 17.5446
Pt 7.23782 15.44 10.2797
Pt 22.6201 12.9167 15.68
Au 7.92182 8.31238 12.2204
Pt 10.6299 16.6628 9.31924
Pt 10.956 7.34373 16.6893
Pt 10.1935 18.6979 21.164
Pt 13.4362 15.3523 15.3148
Au 18.7096 8.71698 21.3165
Pt 9.79782 18.986 8.54875
Pt 6.93346 12.2782 14.4485
Au 6.37003 18.0215 10.6185
Pt 13.9995 6.56892 13.5026
Pt 12.9106 9.78469 12.2593
Au 21.4839 9.3264 13.9795
Pt 10.0043 15.1828 18.9901
Pt 14.3071 10.6956 10.1737
Pt 10.5292 12.4703 19.824
Au 11.4679 23.5499 15.0028
Pt 17.9502 19.3014 18.4828
Pt 12.9901 15.9985 6.70752
Pt 21.3535 17.5601 15.6266
Au 18.797 18.0981 7.78823
Pt 12.9659 15.864 9.43996
Pt 9.45509 17.2363 13.4672
Au 10.4585 9.58334 7.94033
Pt 20.5776 10.8611 16.0993
Pt 11.467 22.1023 12.548
Pt 22.6478 13.9973 13.2945
Pt 15.5046 8.68186 16.7815
Pt 21.8866 15.3775 10.8528
Pt 11.982 8.45424 14.3251
Au 17.9612 23.9974 11.5334
Pt 12.6213 12.1609 21.5199
Pt 15.4902 12.9734 11.4461
Pt 11.3922 19.1928 16.9913
Au 22.9779 17.7618 17.9396
Pt 17.0399 16.7145 23.2006
Pt 14.264 16.8129 19.6067
Pt 10.413 8.84925 12.0262
Au 13.5702 9.62806 7.498
Pt 15.0833 14.8929 7.90076
Pt 14.3527 17.5719 11.0823
Au 13.8259 20.4589 7.53116
Pt 17.169 13.2329 9.30264
Pt 19.2971 8.71453 18.6941
Pt 17.6235 9.19005 12.0534
Pt 12.8441 19.5992 12.2417
Pt 13.6045 20.6773 17.2326
Pt 17.0801 12.8292 13.6572
Au 16.3601 19.184 23.0178
Pt 9.09042 14.7544 8.61961
Pt 19.2654 13.9967 19.3742
Pt 19.7147 17.2132 13.4225
Au 12.6713 4.55317 12.4896
Pt 15.58 15.4443 10.3455
Pt 20.5996 12.3342 13.894
Pt 18.6814 19.1796 11.6415
Au 21.3549 9.86743 20.0788
Pt 16.5943 8.42081 19.1667
Au 10.0142 6.15294 12.2623
Pt 22.8002 14.2157 18.2955
Pt 16.9237 13.7041 6.6393
Pt 12.4058 14.0472 18.9463
Pt 11.8951 18.0645 14.6131
Pt 10.7608 14.2865 21.6157
Pt 15.3725 21.9194 19.5737
Au 24.0278 17.9432 15.411
Pt 15.5706 10.7539 12.8166
Pt 19.656 11.3643 18.5542
Au 20.5423 16.5009 22.5222
Pt 18.0429 21.8853 18.8843
Pt 10.4902 20.4318 19.2744
Pt 15.7979 15.2097 21.4993
Pt 9.95731 16.893 16.1351
Au 8.63924 21.7293 12.3161
Pt 10.463 20.6322 10.5272
Pt 18.233 23.6565 14.1829
Au 14.7261 15.2662 23.988
Pt 11.3042 8.83543 18.7785
Pt 14.4305 17.6946 8.38363
Pt 9.40646 19.229 15.2176
Pt 14.6877 8.82768 14.372
Pt 20.6071 13.4037 17.2603
Pt 14.3523 17.3143 22.2567
Au 6.00633 14.4945 19.0651
Pt 19.691 8.38193 15.7443
Pt 14.2262 21.7108 12.6486
Au 5.66707 16.376 17.0758
Pt 10.3052 19.6524 12.8399
Pt 20.62 14.9508 15.1493
Pt 19.6596 14.1981 10.0703
Pt 10.6737 11.2178 10.7326
Pt 16.6459 21.674 11.4
Pt 17.1752 20.3037 20.7593
Au 20.5227 23.2459 12.6511
Pt 8.77992 13.0162 17.9221
Pt 10.0574 13.1659 12.6693
Au 20.685 16.0163 8.30006
Pt 18.7384 17.622 16.166
Pt 16.5242 17.6994 20.5588
Pt 12.4304 7.12353 11.5155
Pt 16.0546 9.37054 8.54504
Pt 14.4127 13.0383 14.0472
Pt 8.82682 14.8068 14.4396
Au 8.40691 8.3032 17.0371
Pt 18.3848 15.6693 21.2858
Pt 14.2715 19.8144 14.639
Au 6.75312 11.8274 19.222
Pt 20.1928 19.6157 14.4188
Pt 21.0186 20.5772 12.0554
Pt 17.785 20.2336 9.37485
Pt 12.9227 9.61343 16.8458
Pt 11.3537 15.4911 13.7765
Pt 18.8167 18.299 21.5283
Au 12.6333 6.37275 18.7033
Pt 11.1832 13.8304 10.2882
Au 17.4546 13.9537 23.4636
Pt 22.1527 20.0747 16.0923
Pt 16.9705 10.926 10.3242
Pt 17.8113 15.6363 8.68746
Pt 11.5351 5.93323 14.452
Pt 7.2766 17.4059 15.0176
Pt 13.2333 14.9567 11.9768
Pt 14.1306 17.3508 13.6245
Pt 8.2318 13.9557 20.3979
Pt 15.2809 10.8915 18.1644
Pt 18.6387 21.3376 13.1883
Pt 16.0608 21.7271 17.0935
Pt 12.789 11.0932 19.1683
Pt 18.0993 15.2788 14.3428
