286
Atoms. Timestep: 20327
Pt 10.7363 9.20453 21.0096
Pt 10.4024 7.54509 18.9402
Au 8.63776 7.54879 16.9647
Pt 13.4417 9.1421 21.446
Au 7.83344 13.8743 21.6843
Pt 10.3303 9.62368 17.2444
Pt 15.3076 6.42469 12.9338
Au 6.34481 9.73581 14.1339
Pt 16.1272 8.25872 16.7092
Pt 16.141 9.49271 21.2474
Au 7.0047 9.91144 17.1493
Pt 8.86615 9.37705 15.0503
Pt 11.5763 9.49098 14.8638
Au 10.7919 7.87676 9.66255
Pt 15.8314 6.18809 18.14
Pt 8.85523 11.7941 17.7283
Au 9.98724 7.06356 14.2634
Pt 8.531 16.7116 15.4995
Pt 6.46142 15.593 16.6915
Au 7.40591 21.1375 16.8553
Pt 9.67984 13.5608 19.6909
Pt 8.6367 14.0119 16.3429
Au 10.2302 23.3981 16.9183
Pt 9.29336 18.2544 12.9821
Pt 12.3405 14.8651 9.89204
Au 7.06474 19.5904 12.0762
Pt 11.1622 19.4212 14.5039
Pt 13.41 18.4043 15.746
Au 17.722 23.5023 16.89
Pt 9.02885 18.9712 16.7581
Pt 6.88029 17.1427 13.5799
Pt 14.9916 8.53394 14.323
Pt 13.3271 6.75281 18.3103
Au 17.0631 12.9357 5.38326
Pt 14.079 10.9737 14.8266
Pt 14.9164 7.16337 20.4399
Au 24.0549 13.9988 16.2445
Pt 10.4009 10.3202 8.38684
Pt 13.6767 8.00153 9.00847
Au 15.1611 8.85658 6.87356
Pt 8.77667 10.7739 12.8936
Pt 8.70819 9.68591 19.3221
Pt 14.0562 13.3437 18.2413
Au 14.3462 16.7304 12.2809
Pt 11.0197 11.2959 19.374
Pt 9.30163 11.4968 21.3528
Pt 15.0499 9.1045 18.8785
Au 13.7907 15.4146 24.722
Pt 17.2166 14.5244 21.9274
Au 12.6656 24.2945 16.3739
Pt 10.7124 8.955 12.3353
Pt 6.42963 12.3521 13.0553
Au 6.46797 10.1548 11.4417
Pt 8.89903 9.72099 10.4121
Pt 10.2247 18.2226 19.021
Pt 11.1297 13.3106 17.5808
Au 12.72 13.1698 15.3103
Pt 6.41233 12.8608 17.2127
Pt 7.68261 17.1641 18.377
Pt 13.7549 11.2241 19.8432
Au 15.1263 16.2771 16.8909
Pt 7.39246 14.5429 18.9151
Pt 7.31488 12.0272 19.6875
Au 6.33576 18.3378 16.3409
Pt 9.12137 13.2397 13.383
Pt 14.7086 13.9731 6.13908
Au 9.00391 17.5423 8.46274
Pt 6.91715 14.5202 14.4624
Pt 7.74507 17.184 11.011
Pt 6.99682 14.7547 11.9209
Au 13.8484 16.6995 5.84707
Pt 13.987 20.4718 17.7031
Pt 9.72572 21.2994 15.5047
Pt 12.0234 16.097 22.7613
Au 13.694 15.685 14.679
Pt 7.86514 19.6204 18.9957
Pt 9.0273 16.0118 20.4238
Au 12.2756 19.5909 22.7883
Pt 11.2135 21.4357 10.57
Pt 15.3186 17.8591 9.84264
Pt 15.9649 20.1625 8.66069
Pt 11.7189 17.0074 7.86241
Pt 15.6716 22.1465 10.2018
Pt 16.173 17.9792 7.26055
Au 13.2939 21.5291 8.5772
Pt 13.7684 19.1424 13.1516
Pt 9.59302 20.9488 12.7705
Au 15.5673 24.161 12.1894
Pt 11.5011 19.7989 17.2383
Pt 13.3385 22.818 11.1841
Pt 12.6942 7.2626 13.9784
Pt 15.3372 11.4573 6.86216
Au 14.9917 6.03672 10.2944
Pt 13.2834 9.72763 12.659
Pt 11.4714 7.26238 16.5012
Au 12.2191 6.86913 20.7781
Pt 7.81279 12.4338 10.9046
Pt 11.6639 12.5176 8.77708
Au 12.5043 14.3619 4.67234
Pt 16.4017 8.08815 9.0439
Pt 7.59784 11.7983 15.24
Pt 13.5593 8.81833 16.5295
Au 12.0795 14.3067 12.5665
Pt 11.5825 11.6552 13.2686
Pt 14.3234 6.35136 15.8357
Pt 17.0958 11.87 22
Au 12.5896 15.4583 17.3164
Pt 18.5681 15.6638 20.0923
Pt 18.6518 10.2811 20.2547
Au 19.6621 11.7926 22.3147
Pt 10.0681 14.987 8.3103
Pt 12.3536 14.61 7.19436
Au 21.2339 15.5119 7.16244
Pt 7.86044 19.6372 14.5755
Pt 10.2425 11.7855 15.4708
Pt 9.90104 14.1575 10.8802
Au 10.7342 14.9266 15.0342
Pt 12.9254 10.1877 7.71675
Pt 12.538 11.135 17.1549
Pt 15.2056 11.1196 17.2028
Au 21.3674 12.8555 8.62221
Pt 12.4271 9.0827 18.9606
Pt 12.421 21.6732 15.7133
Pt 17.687 9.99097 17.7254
Au 15.3488 13.6407 15.936
Pt 14.5329 11.2977 22.4501
Pt 11.6393 15.9508 20.0071
Pt 11.9033 11.4046 21.9084
Au 17.6027 15.388 16.1452
Pt 10.5542 13.9174 22.1125
Au 7.98884 18.2508 21.2321
Pt 13.7748 20.0445 10.6102
Pt 9.01804 12.5457 8.7158
Pt 20.6157 10.9386 11.052
Pt 11.3843 19.3362 9.02732
Pt 20.4421 17.4974 8.87507
Pt 9.18582 15.7292 12.9382
Au 21.6394 21.7321 14.6558
Pt 10.3513 16.7987 10.6156
Pt 10.658 17.9372 21.5594
Pt 16.979 15.9506 9.02713
Au 11.713 16.9688 13.3027
Pt 11.016 17.3685 16.1957
Pt 13.3473 17.7417 21.045
Pt 16.248 17.1129 21.2636
Au 15.8803 17.8463 14.4179
Pt 12.2376 19.9629 19.964
Pt 14.3506 17.7626 23.4161
Au 10.9007 23.3749 14.1463
Pt 19.2548 14.7582 8.72497
Pt 13.7223 18.7754 7.92488
Pt 19.8545 21.4706 12.3157
Pt 17.4701 22.2321 12.1467
Pt 12.2656 21.3586 13.0347
Pt 14.7868 20.6423 15.1043
Au 18.48 19.7477 7.4536
Pt 11.4803 19.1361 11.7439
Pt 15.8053 18.8519 16.9608
Au 9.75923 20.3844 20.9378
Pt 15.0058 21.4519 12.671
Pt 18.9451 22.1948 14.6943
Pt 20.2042 13.705 11.0564
Pt 17.3185 8.48114 13.2369
Au 19.0784 8.14076 9.32206
Pt 15.2363 8.58099 11.3563
Pt 16.856 6.37553 15.1188
Au 8.08583 8.16442 12.5633
Pt 10.4567 11.6589 10.9665
Pt 12.808 12.1806 6.22876
Au 10.2911 12.9447 6.38328
Pt 7.88142 15.0403 9.54924
Pt 12.3282 9.93086 10.2487
Pt 16.7536 13.4882 8.10744
Au 18.8274 6.23911 13.3783
Pt 17.6631 9.87285 10.8036
Pt 17.3859 7.9781 19.4639
Pt 21.1974 14.8668 19.5877
Au 13.346 12.219 11.0902
Pt 16.5968 15.5895 6.35924
Pt 16.6245 14.3816 18.7974
Au 23.7178 11.3712 12.8609
Pt 22.7037 13.0981 11.1138
Pt 9.1954 19.4087 10.4753
Pt 14.4243 15.8805 8.26234
Pt 14.185 13.0289 8.61269
Pt 18.656 16.9916 7.1919
Pt 19.5729 16.3626 11.1706
Au 24.0341 15.525 11.3356
Pt 17.3786 10.4392 8.15281
Pt 21.6694 9.88439 13.3203
Pt 9.83765 15.7024 17.9056
Au 14.9908 14.7229 10.6978
Pt 16.1624 12.2828 10.5333
Pt 15.0737 13.3551 20.8462
Pt 21.1043 12.4453 13.2062
Au 14.732 13.1872 13.189
Pt 19.592 14.2798 17.6128
Pt 13.0283 13.4904 22.9496
Au 16.9945 18.875 23.0827
Pt 21.8452 19.8497 12.4111
Pt 17.3532 20.0678 13.7774
Pt 16.3949 19.651 11.4239
Pt 18.044 18.3197 9.54387
Pt 16.31 22.8657 14.5692
Pt 19.2492 14.55 13.5359
Au 18.1244 24.3947 13.4718
Pt 19.2322 18.9473 11.8218
Pt 12.2778 22.2925 18.3323
Pt 23.606 13.8927 13.5954
Au 16.464 15.2248 13.5729
Pt 16.9818 17.0654 18.63
Pt 9.79162 21.223 18.4028
Pt 14.4833 15.4461 22.1218
Au 15.6205 13.4144 23.833
Pt 12.4263 13.56 20.2932
Au 18.7975 16.652 22.8251
Pt 17.1897 20.9518 16.249
Pt 16.3294 21.724 18.5672
Pt 12.8291 17.4249 10.2213
Pt 14.8142 22.8021 16.7479
Pt 17.0093 20.5528 20.801
Pt 15.2682 18.981 19.5312
Au 20.7652 20.0084 9.82632
Pt 14.2709 21.5904 20.052
Pt 19.983 14.3658 21.8182
Au 9.27241 16.0911 23.0132
Pt 17.9017 19.5681 18.4989
Pt 13.0017 17.8915 18.3992
Pt 18.6264 8.38358 15.5824
Pt 19.1739 10.3138 13.8089
Au 19.0701 14.7509 5.79046
Pt 12.8378 7.39936 11.4157
Pt 18.6844 12.9993 19.9551
Au 20.8741 7.64638 14.3947
Pt 21.809 15.3285 9.76334
Pt 17.6644 14.4379 11.1014
Pt 19.0278 12.4997 7.12901
Pt 18.262 6.71695 17.4066
Pt 15.9058 10.7812 12.7188
Pt 21.5092 14.0945 15.2046
Au 20.2042 10.3462 8.38595
Pt 16.8706 10.3904 15.2156
Pt 17.5689 12.5764 17.1368
Au 21.3337 12.1575 20.244
Pt 18.6661 12.1735 9.60882
Pt 21.9151 17.6673 10.965
Pt 17.4255 6.95815 11.18
Pt 20.72 9.89557 15.9681
Pt 23.567 17.626 12.8913
Pt 19.8274 11.4796 18.1063
Au 20.4609 22.9975 16.8351
Pt 16.4139 11.572 19.4883
Pt 17.3701 12.799 14.4072
Au 19.002 21.9788 19.0448
Pt 21.0206 17.5359 13.5228
Pt 19.8894 19.6674 14.3908
Pt 22.9683 16.3111 14.952
Pt 20.4532 19.4691 19.1428
Pt 14.4244 15.8265 19.5165
Pt 17.0225 17.0492 11.6597
Au 23.8223 17.9985 16.9025
Pt 21.7002 15.2801 12.6046
Pt 21.9512 13.0152 17.6784
Au 22.2335 10.3765 18.0812
Pt 21.1233 18.305 16.5515
Pt 18.2666 20.9133 10.0228
Pt 22.6933 19.2646 14.8123
Pt 22.2021 17.6103 18.9666
Pt 14.7564 19.8361 21.9019
Pt 20.6772 17.034 20.9314
Au 22.379 20.5293 17.304
Pt 18.5008 18.3872 20.7185
Au 16.3991 16.1571 24.0427
Pt 18.3043 18.2357 16.2118
Pt 19.675 17.0082 18.2552
Pt 19.7245 12.2925 15.5599
Pt 14.9368 10.3706 9.39066
Pt 18.3938 12.0805 12.2017
Pt 19.6794 8.48759 11.9496
Pt 22.5771 11.694 15.3554
Pt 19.8223 8.75754 18.2102
Pt 22.162 15.6893 17.323
Pt 18.4732 17.2297 13.7992
Pt 20.1024 16.1462 15.6287
Pt 19.7372 20.5498 16.8162
Pt 13.721 23.3116 14.065
