286
Atoms. Timestep: 20197
Pt 6.95773 11.8101 19.0628
Pt 9.95334 8.67043 18.9689
Au 8.22724 7.90957 16.9393
Pt 6.38759 10.2702 17.0681
Au 7.33172 9.12931 19.2721
Pt 7.90446 12.2119 16.0302
Pt 7.57725 9.59516 14.8942
Au 6.18704 9.93837 12.4049
Pt 9.09647 10.4562 17.3758
Pt 9.14468 10.9227 20.1737
Au 8.48191 13.3646 21.1291
Pt 6.3221 14.0051 14.6197
Pt 5.58851 11.4353 14.797
Au 5.17037 12.7399 12.4149
Pt 5.67858 12.922 17.0868
Pt 6.91181 14.4696 19.031
Au 5.16208 15.4778 16.9429
Pt 8.2957 16.2501 13.0342
Pt 5.66236 15.6063 12.6908
Au 5.84659 14.3543 10.0958
Pt 9.24077 13.8461 14.3725
Pt 6.74673 16.7023 15.1918
Au 6.08149 19.2995 15.4829
Pt 7.07073 16.6459 10.5826
Pt 8.48437 18.6608 9.12315
Au 6.23617 19.4524 10.5492
Pt 8.4346 18.6184 11.7362
Pt 7.18146 20.6676 13.0044
Au 8.77711 23.0684 11.9575
Pt 6.13676 18.1399 12.9315
Pt 8.64154 20.892 10.5016
Pt 9.92058 8.3314 14.8043
Pt 13.564 7.40425 16.9017
Au 10.7582 7.38271 12.2676
Pt 10.9744 7.34502 16.9719
Pt 12.5036 8.57007 18.9804
Au 13.8236 8.51109 21.4584
Pt 9.02434 9.52467 12.6011
Pt 11.791 9.73176 13.232
Au 7.89133 9.50134 10.2286
Pt 9.92142 11.0029 14.718
Pt 9.06029 13.0649 18.4382
Pt 11.5747 9.78135 16.4511
Au 10.7954 12.9538 16.4513
Pt 11.3685 11.233 18.7132
Pt 11.0547 12.3039 21.3548
Pt 13.5886 10.9182 20.2472
Au 13.0289 11.1397 22.8735
Pt 11.372 9.72906 21.0199
Au 12.5329 13.8529 23.5382
Pt 7.14415 11.9905 10.6317
Pt 9.2473 11.5701 9.10268
Au 7.31605 13.3022 8.04767
Pt 7.73958 11.7957 13.3482
Pt 9.78333 16.2656 15.3162
Pt 11.6508 12.4941 13.4635
Au 13.4781 13.765 11.7999
Pt 7.84062 14.762 16.5898
Pt 9.59153 15.8723 18.0257
Pt 11.1709 14.0943 19.3655
Au 11.995 15.3536 16.8931
Pt 8.73413 15.898 20.4073
Pt 10.7924 14.9616 21.783
Au 10.0351 17.7876 21.9056
Pt 9.76627 16.739 10.4703
Pt 8.44208 16.0202 8.25412
Au 12.7343 16.9613 6.68889
Pt 7.61565 14.0279 12.1474
Pt 10.3128 14.6093 12.1637
Pt 8.88812 14.1846 9.95447
Au 14.875 18.1001 9.02535
Pt 12.1318 14.9982 14.13
Pt 8.46646 18.5744 14.2478
Pt 8.67277 18.1899 16.7045
Au 13.3093 18.261 12.1824
Pt 7.03297 16.9464 18.1952
Pt 9.06317 18.3064 19.3576
Au 7.10907 19.7971 18.0487
Pt 10.3564 17.9573 7.58428
Pt 10.7427 20.3086 8.74968
Pt 12.9569 19.5578 7.57123
Pt 10.8255 19.2677 11.0955
Pt 9.68355 20.809 13.1422
Pt 13.2493 20.2385 10.2889
Au 12.8832 22.3606 8.85567
Pt 10.7123 17.4827 13.0193
Pt 8.31723 20.7853 15.6256
Au 8.87882 23.0879 14.6011
Pt 11.0528 21.9463 10.86
Pt 12.194 20.5734 13.0572
Pt 12.364 7.3813 14.4938
Pt 12.8068 8.63373 11.0045
Au 13.6316 6.39201 12.3356
Pt 13.7971 9.44853 15.1393
Pt 15.0193 7.76971 19.0736
Au 16.1269 6.12503 17.1529
Pt 12.4542 11.2849 10.9787
Pt 11.665 11.3072 8.21714
Au 13.9347 11.4984 6.60614
Pt 10.558 9.66303 10.3951
Pt 9.78721 11.9553 11.6646
Pt 15.8026 11.1221 15.0885
Au 15.8273 13.5856 10.429
Pt 15.9089 8.76512 16.812
Pt 13.9664 10.3027 17.6627
Pt 18.2264 8.73006 18.9967
Au 13.2494 12.1511 15.7356
Pt 16.0359 10.1001 19.3648
Pt 15.596 10.5191 21.956
Au 16.5764 8.01483 21.1705
Pt 11.0555 15.6348 8.42611
Pt 12.5224 13.8093 7.13529
Au 15.5322 19.0932 6.48621
Pt 9.95134 13.4893 7.56109
Pt 11.4315 13.4568 9.8781
Pt 13.8207 12.5649 9.09326
Au 13.7177 15.3826 8.89777
Pt 14.041 11.37 13.1386
Pt 14.4746 14.4949 16.6082
Pt 15.9434 12.2303 17.601
Au 14.9255 16.2844 11.2701
Pt 13.4227 12.911 18.4266
Pt 11.4055 16.8146 19.8777
Pt 15.7667 12.6238 20.209
Au 16.3301 14.8935 18.5031
Pt 13.3106 13.5183 21.0192
Pt 13.2124 16.0679 21.9068
Pt 17.5157 12.3119 22.2695
Au 13.6183 15.5769 19.134
Pt 15.0907 13.0033 22.8944
Au 14.83 15.4211 23.9648
Pt 15.3169 16.4913 6.81219
Pt 15.0619 20.7992 8.41406
Pt 17.5153 17.7993 7.93314
Pt 12.2211 17.863 9.39215
Pt 16.6314 19.6454 10.2801
Pt 16.4289 15.7215 9.01753
Au 17.6683 20.4264 7.93268
Pt 12.1967 15.9635 11.1917
Pt 12.2579 17.4532 15.1461
Pt 14.7499 13.8332 14.1705
Au 14.4758 16.5783 14.0564
Pt 11.2338 17.9968 17.5415
Pt 9.80789 20.4465 17.7055
Pt 13.4235 18.7574 19.0479
Au 14.336 17.3594 16.9546
Pt 11.1852 19.7586 19.8042
Pt 12.6205 18.4756 21.6233
Au 12.6281 21.169 21.4878
Pt 15.5658 22.2138 10.4218
Pt 13.3708 22.7312 11.723
Pt 17.4138 21.4367 12.1871
Pt 14.822 20.6158 12.32
Pt 11.1081 22.0494 15.7483
Pt 13.8524 19.4576 14.7426
Au 15.6844 23.3889 13.054
Pt 10.7543 19.5106 15.2067
Pt 12.4735 20.2837 17.095
Au 11.4722 22.303 18.743
Pt 11.2496 23.0235 13.3192
Pt 13.6492 22.2127 14.5282
Pt 15.1638 7.80397 10.4604
Pt 19.5369 9.05884 14.8926
Au 17.8326 6.93599 10.3132
Pt 15.0288 6.96202 14.7748
Pt 18.3584 7.65957 16.715
Au 17.7474 6.01181 14.7616
Pt 16.1589 11.5392 8.18996
Pt 16.6356 9.24712 9.02976
Au 17.5749 12.7488 6.05357
Pt 13.831 9.83752 8.85884
Pt 15.2321 10.7835 10.8181
Pt 17.2099 9.26086 11.7805
Au 18.0362 11.5196 10.5168
Pt 14.7032 8.87175 12.8198
Pt 17.7875 10.5029 16.7229
Pt 20.5021 9.92939 19.943
Au 16.5669 12.5123 12.7339
Pt 16.9929 8.75661 14.4025
Pt 18.2284 11.5304 19.2262
Au 22.7741 10.0304 18.4805
Pt 15.3465 13.8716 7.2072
Pt 17.8039 15.4655 6.71144
Pt 19.8918 14.0089 7.07459
Pt 17.7675 13.5562 8.59102
Pt 19.2788 15.7926 9.20476
Pt 19.956 16.8343 11.7357
Au 20.249 16.8818 7.12058
Pt 18.4352 14.388 11.2171
Pt 16.7094 15.306 12.9609
Pt 17.229 13.2791 15.5713
Au 19.0415 14.1367 13.795
Pt 18.6648 13.7351 17.9062
Pt 18.1979 14.0469 20.4666
Pt 20.7617 12.1294 18.4643
Au 19.0092 15.7705 16.167
Pt 18.2347 10.0381 21.3312
Pt 17.335 14.9699 22.9453
Au 19.4976 13.4781 23.5967
Pt 19.4628 18.5613 9.40357
Pt 16.2304 18.4864 12.7999
Pt 18.7912 19.1614 11.869
Pt 17.5117 17.1142 10.858
Pt 16.3558 18.4716 15.4425
Pt 18.4004 17.1731 13.8998
Au 19.1334 21.2126 10.1188
Pt 16.4768 15.8051 15.6031
Pt 15.3595 17.4175 19.8767
Pt 21.01 14.2725 19.8044
Au 17.1758 17.3839 17.7662
Pt 15.521 15.0523 21.1491
Pt 14.8592 19.6244 21.3535
Pt 19.8271 15.512 21.9261
Au 17.7716 16.7259 20.6152
Pt 15.7601 17.4103 22.4623
Au 18.3483 17.4953 23.2459
Pt 16.1079 21.0239 14.5119
Pt 16.0048 23.0676 15.8965
Pt 18.3464 19.8835 14.3226
Pt 15.0087 20.4221 16.88
Pt 16.1395 22.435 18.3377
Pt 16.2343 19.7718 19.0727
Au 18.3042 22.8564 14.3344
Pt 13.9449 21.3283 19.2848
Pt 17.5875 19.3908 21.3305
Au 16.1126 21.8827 20.9979
Pt 13.5908 22.7177 17.0582
Pt 17.6569 20.4192 16.8891
Pt 19.0625 9.10403 9.58779
Pt 19.0719 7.42405 12.7662
Au 21.1347 7.9264 10.7859
Pt 16.4331 6.78799 12.5688
Pt 22.0851 8.94854 15.9142
Au 20.5101 6.65317 15.3232
Pt 19.0154 11.3101 7.96409
Pt 20.1348 13.1755 9.61011
Pt 21.0082 10.6915 9.78136
Pt 19.7874 9.83493 12.0428
Pt 20.4311 12.3846 12.0828
Pt 22.3282 11.5817 16.345
Au 21.7418 12.1757 7.64902
Pt 18.3725 11.1422 13.8545
Pt 20.1609 9.95686 17.3152
Au 20.8017 7.60491 18.0935
Pt 21.8682 14.8112 8.66462
Pt 21.3958 14.7469 11.5977
Pt 22.6636 12.7484 10.2074
Pt 21.613 13.5358 14.4585
Pt 21.0102 16.0253 14.157
Pt 23.2772 13.2385 18.0582
Au 23.7675 15.3169 10.6156
Pt 19.7049 12.2475 15.9117
Pt 22.4458 12.0417 20.3847
Au 23.7864 14.4036 20.4259
Pt 21.643 17.082 9.73502
Pt 20.6915 18.6493 13.8764
Pt 23.5234 15.1349 13.3535
Pt 21.4252 17.0231 16.5969
Pt 19.8197 16.3473 18.8222
Pt 21.1459 14.3471 16.9913
Au 21.4472 19.5446 11.1327
Pt 19.9895 12.2184 21.2624
Pt 22.0138 16.435 20.8329
Au 21.9465 13.9139 22.3707
Pt 19.4099 18.5617 16.3845
Pt 20.1218 21.2172 12.8238
Pt 22.5521 17.3253 12.2027
Pt 18.8635 18.9432 19.0261
Pt 18.2983 21.5087 19.4762
Pt 21.5183 18.4561 18.8554
Au 22.6196 20.3214 13.7216
Pt 20.0436 18.0507 21.1826
Au 20.5206 20.5338 20.5781
Pt 18.5375 22.7029 17.0032
Pt 20.3438 20.7981 17.9218
Pt 21.6239 8.33334 13.4042
Pt 22.4999 10.2827 11.8306
Pt 21.1551 10.9277 14.0924
Pt 23.6195 10.4826 14.2587
Pt 23.2564 12.6292 12.6569
Pt 24.0836 13.0079 15.1488
Pt 23.3687 15.3149 15.971
Pt 23.1284 17.6553 14.691
Pt 22.7953 15.9388 18.4628
Pt 21.9953 19.4997 16.2701
Pt 20.2529 21.2205 15.4141
