286
Atoms. Timestep: 20398
Pt 11.7215 15.5229 11.2596
Pt 12.5009 22.9756 16.9421
Au 19.3542 6.85946 16.8024
Pt 17.4623 16.0652 20.2079
Au 14.361 21.0274 8.30104
Pt 16.1218 10.8584 11.9236
Pt 10.2379 19.2185 9.16687
Au 15.1158 18.7336 6.44878
Pt 8.21394 14.5645 14.2044
Pt 10.8177 8.50377 15.1663
Au 20.4019 21.0379 11.6179
Pt 14.1907 14.2182 6.6494
Pt 16.1121 16.1959 7.46712
Au 22.1992 9.72723 14.6827
Pt 15.9921 17.3483 16.3807
Pt 16.4941 17.8576 11.7047
Au 8.22789 9.85712 20.6234
Pt 12.3121 18.0902 13.8934
Pt 13.3021 16.8905 16.2246
Au 23.4772 13.1068 18.035
Pt 10.9186 10.5792 13.348
Pt 8.21073 15.4011 16.811
Au 7.18127 19.719 13.5231
Pt 21.6131 18.6383 10.9812
Pt 16.2233 13.8189 8.51558
Au 14.6556 16.2421 4.90421
Pt 12.7573 12.3385 21.597
Pt 13.7766 9.60141 21.5379
Au 21.4133 11.989 9.13316
Pt 19.9621 13.3125 11.3611
Pt 16.0608 8.37457 18.229
Pt 15.8607 17.5646 21.9731
Pt 17.6291 10.9674 14.6707
Au 11.4795 12.4568 23.9008
Pt 11.9056 11.946 17.153
Pt 9.89776 11.6273 11.0161
Au 6.55439 17.6063 16.7834
Pt 15.2871 22.4301 12.5362
Pt 19.2499 10.6079 9.71165
Au 18.9541 13.9503 23.3733
Pt 10.8656 15.7833 17.531
Pt 12.9967 20.4624 17.295
Pt 13.9354 12.9195 18.8886
Au 7.65188 11.5636 9.66629
Pt 7.40474 12.9074 16.1082
Pt 23.155 17.5375 12.7859
Pt 18.6808 15.4775 10.4917
Au 6.00718 12.8435 13.7609
Pt 14.9997 23.9639 16.6484
Au 18.895 7.16305 11.5326
Pt 18.4674 11.1902 22.0768
Pt 14.424 19.3366 15.4338
Au 19.5876 23.2573 14.0962
Pt 12.2284 15.0507 21.4516
Pt 12.1917 12.9545 10.6034
Pt 12.8798 7.3012 11.0337
Au 16.855 9.13062 7.69431
Pt 13.9026 16.3543 23.2507
Pt 12.8325 18.2204 18.4743
Pt 19.4717 19.5476 9.32291
Au 13.8149 19.2636 22.9012
Pt 14.945 7.94977 9.377
Pt 10.667 7.66412 12.6189
Au 17.8089 24.2733 16.265
Pt 14.16 10.2755 10.0855
Pt 6.97438 10.6014 15.15
Au 10.0324 22.9307 12.2515
Pt 11.1613 18.6119 16.3415
Pt 9.01525 20.2766 11.4868
Pt 18.7761 9.13504 18.0528
Au 17.346 15.9334 5.1729
Pt 19.4327 17.9224 20.7273
Pt 17.4649 8.87154 13.035
Pt 17.1092 18.8965 20.1684
Au 20.3878 9.87214 20.2809
Pt 20.4592 17.159 9.25176
Pt 16.322 15.0385 22.9441
Au 22.8281 20.2189 12.7241
Pt 15.6287 12.7565 13.6112
Pt 18.3319 13.3029 13.584
Pt 16.0714 11.6968 6.75356
Pt 8.81958 12.0069 13.8745
Pt 14.7293 14.8785 14.8527
Pt 13.7778 14.9935 9.38919
Au 13.8 11.6781 5.43403
Pt 7.98737 17.8743 11.6268
Pt 21.7521 16.1424 14.6333
Au 15.7701 24.5508 14.1105
Pt 9.80384 12.4815 8.32927
Pt 9.98321 6.70216 16.8421
Pt 15.5514 19.6171 17.9019
Pt 9.63442 14.1854 10.2233
Au 19.0132 15.7694 7.50933
Pt 10.8964 18.1039 11.5475
Pt 16.5238 13.1446 18.833
Au 22.183 20.5341 17.0831
Pt 10.3875 13.7099 15.4298
Pt 17.8998 22.4362 12.1716
Au 9.25632 16.3544 22.0997
Pt 13.468 8.18556 19.2262
Pt 17.7079 13.5879 21.0762
Pt 12.724 10.3115 15.2928
Au 9.63694 9.71475 8.65216
Pt 11.5795 9.06774 17.5787
Pt 20.2649 12.6746 21.0579
Pt 16.6392 12.521 23.4566
Au 23.7252 14.0361 15.4266
Pt 14.9762 14.9821 20.7177
Pt 9.09075 9.22902 11.1906
Au 13.7906 21.7948 21.3875
Pt 17.7995 13.6614 6.48852
Pt 18.3487 11.4053 19.435
Au 18.7491 11.1368 7.13548
Pt 21.0914 14.6711 9.2488
Pt 10.1031 10.8322 18.8565
Pt 16.7292 10.8205 17.2737
Au 5.86614 15.1831 15.4727
Pt 11.8803 11.0274 8.92325
Pt 21.1908 11.9012 18.7091
Pt 23.5229 15.0068 12.9594
Au 24.2373 16.7085 15.2615
Pt 15.0049 17.3191 13.832
Pt 22.6558 18.8575 15.06
Pt 11.7231 9.57063 11.0794
Au 21.4003 9.57915 17.4118
Pt 12.7377 12.856 14.2111
Pt 10.9369 17.1172 20.0157
Pt 19.6287 16.6645 16.0293
Au 13.8124 5.6177 12.7586
Pt 12.703 22.7547 13.0813
Au 8.89339 6.59425 14.4186
Pt 21.8604 12.1615 16.0876
Pt 11.8684 12.8081 6.80253
Pt 22.5369 13.5083 11.1412
Pt 21.2579 13.775 13.6322
Pt 17.8676 17.8936 14.0966
Pt 7.28611 10.8344 12.2284
Au 6.31043 15.645 12.604
Pt 19.1396 17.9348 11.579
Pt 17.7776 9.0531 20.4778
Pt 16.4788 21.9459 17.1786
Au 16.7426 5.95526 16.3941
Pt 9.54677 16.7697 9.641
Pt 21.7641 14.4067 19.6215
Pt 8.31891 8.67157 16.292
Au 17.8992 18.2553 6.72935
Pt 8.57794 19.3174 15.9862
Pt 16.1858 10.0961 22.3124
Au 7.30368 14.5935 21.2565
Pt 14.1369 5.71234 15.3801
Pt 15.1954 9.99191 14.4322
Pt 15.1879 14.9389 17.4526
Pt 9.45034 13.1465 17.7377
Pt 21.6901 14.8267 17.0533
Pt 13.4691 16.647 7.27119
Au 23.219 16.2765 10.2471
Pt 17.759 15.4053 17.7024
Pt 14.3884 8.11588 16.1628
Au 15.8209 13.6194 4.7271
Pt 9.7443 18.7198 13.7291
Pt 19.6129 9.17418 15.4357
Pt 14.8647 18.0393 9.10715
Pt 14.4893 19.6608 20.1798
Au 13.1391 24.6196 14.8782
Pt 10.8953 23.1029 14.8985
Pt 12.4854 6.66224 17.0516
Au 14.8174 5.98898 18.3191
Pt 15.3655 17.1384 19.0122
Pt 19.302 15.7695 13.3522
Au 16.2708 6.38885 11.3413
Pt 10.4508 19.5873 18.721
Pt 18.6925 11.0426 12.1047
Pt 9.74494 10.8825 16.0334
Au 7.27518 15.5151 10.0663
Pt 20.6384 18.3911 13.5671
Pt 13.7221 20.1442 12.9147
Pt 21.1564 21.0656 14.6001
Au 6.95449 16.4804 19.2755
Pt 14.3762 22.2021 18.7252
Pt 10.7171 17.1347 7.2132
Au 11.7772 9.83866 23.1593
Pt 13.4439 11.0055 12.5477
Pt 17.3338 15.5053 15.1472
Pt 14.1423 10.2784 17.5645
Pt 11.6431 6.09492 14.5512
Pt 10.0106 16.5359 15.1779
Pt 18.7951 13.1783 8.94351
Au 23.2439 12.0318 13.5045
Pt 9.31139 21.2092 14.2237
Pt 20.6806 18.9854 18.7411
Pt 18.5173 6.94775 14.2757
Au 16.2846 20.3091 22.3091
Pt 10.3841 11.2928 21.4925
Pt 9.28183 15.1394 19.5663
Pt 11.308 20.625 12.3403
Au 14.16 11.1804 23.7903
Pt 12.1822 17.2685 9.39579
Pt 16.6137 11.2908 9.27292
Au 12.4805 17.9693 5.24543
Pt 12.5481 19.1882 7.61498
Pt 18.6321 22.9533 18.4818
Pt 17.2292 8.93279 10.3771
Pt 20.1679 16.3354 18.7449
Pt 13.4696 22.104 10.6778
Pt 14.6504 12.3589 16.1174
Au 11.1617 6.60642 19.3204
Pt 18.1446 17.9217 17.9561
Pt 14.3583 21.9668 15.1317
Pt 21.1853 15.9268 11.7303
Au 17.7791 6.65144 19.035
Pt 8.46436 12.4867 20.1548
Pt 14.0235 14.8476 12.2922
Pt 16.6013 21.5615 19.9363
Au 21.0412 23.0706 16.7337
Pt 12.0999 15.4846 14.0187
Au 15.5723 7.61743 20.836
Pt 15.3033 12.4344 21.3162
Pt 11.9302 21.6644 19.2846
Pt 13.9689 13.8059 23.2948
Pt 13.9864 12.3654 8.36916
Pt 9.9996 13.8268 21.9363
Pt 17.2978 13.2308 11.1033
Au 11.8188 15.2548 5.57133
Pt 14.2274 9.85849 7.52564
Pt 15.8059 7.05879 13.9713
Au 11.4818 17.7005 22.8236
Pt 9.19426 8.41374 18.6673
Pt 9.04456 17.5977 17.904
Pt 13.0218 15.5273 18.9578
Pt 11.926 19.5771 20.8687
Au 10.8537 21.7492 9.86926
Pt 18.4667 20.3804 18.3548
Pt 17.2259 19.7186 15.8693
Au 19.004 20.6531 21.0009
Pt 15.6092 10.488 19.7326
Pt 17.7991 20.1357 11.1085
Pt 7.7139 10.8897 17.8923
Pt 14.7685 12.8694 10.8548
Pt 19.838 15.2682 21.1685
Pt 7.60507 17.1912 14.37
Au 16.3194 24.1124 18.9329
Pt 16.7841 19.9275 8.59986
Pt 12.6693 19.7167 10.2134
Au 20.7987 21.6499 19.1152
Pt 16.2284 20.003 13.3765
Pt 16.6652 15.2992 12.7059
Pt 13.0591 8.17076 13.7143
Pt 20.1728 9.00508 12.9193
Pt 19.6782 13.9635 15.8039
Pt 15.1887 19.9894 10.8316
Au 12.2093 8.31941 8.61472
Pt 7.76983 13.4182 11.7834
Pt 11.316 13.3414 19.5483
Au 11.4554 15.1677 23.9449
Pt 20.2342 11.4677 14.21
Pt 16.9817 22.2739 14.6231
Pt 18.237 16.664 22.6478
Pt 15.994 15.7405 10.2668
Pt 17.6772 17.5694 9.2653
Pt 17.1743 13.1455 16.1726
Au 11.6997 10.1308 6.48604
Pt 11.0818 8.91264 20.5858
Pt 17.094 8.56722 15.8399
Au 8.68258 18.4504 20.4393
Pt 22.0402 17.4295 17.1018
Pt 19.9637 19.1847 16.1371
Pt 13.738 17.5031 11.5379
Pt 13.4467 17.3439 20.9243
Pt 10.3231 21.3181 16.8172
Pt 12.6063 10.7807 19.5901
Au 20.4707 13.3708 6.90897
Pt 11.4749 14.8113 8.37953
Au 8.90387 15.0034 7.65235
Pt 18.8274 20.3913 13.6784
Pt 9.41717 15.9665 12.4397
Pt 8.64603 9.18969 13.7424
Pt 21.3512 11.1111 11.7772
Pt 10.6116 13.5097 12.7319
Pt 12.7412 14.2951 16.5804
Pt 11.9589 20.7026 14.8731
Pt 19.3304 11.5095 16.8594
Pt 19.3747 13.7421 18.6647
Pt 19.0447 21.6684 16.176
Pt 6.9737 13.8289 18.5322
Pt 16.2773 22.1393 10.0915
Pt 14.8995 8.5609 11.9874
