286
Atoms. Timestep: 20184
Pt 8.43931 12.985 20.3903
Pt 11.1823 7.48447 17.967
Au 9.62099 6.49398 15.88
Pt 8.58286 10.4836 19.3947
Au 10.2571 8.64778 20.3105
Pt 9.2201 13.1249 14.6833
Pt 7.75288 8.66145 15.4822
Au 6.51108 9.29505 13.283
Pt 10.9107 10.2408 18.0698
Pt 10.7076 11.5057 20.4621
Au 5.85024 10.5422 15.8954
Pt 7.45893 15.0731 14.1137
Pt 8.89104 8.56803 17.7082
Au 5.8043 13.5946 11.7474
Pt 8.44327 10.9287 16.3494
Pt 6.82679 11.8075 18.267
Au 4.98684 14.4722 14.3164
Pt 8.80953 16.1898 12.2319
Pt 6.15287 15.7556 16.5645
Au 5.99937 16.4175 12.1321
Pt 10.2 15.7854 14.5317
Pt 8.14374 17.3217 15.5988
Au 5.5741 17.3841 14.5744
Pt 7.91389 17.8188 10.4541
Pt 10.6652 16.8326 10.3456
Au 6.16366 18.5359 17.0002
Pt 9.97814 18.7216 12.006
Pt 8.06611 19.9507 15.7041
Au 10.6532 23.0174 13.4803
Pt 7.68164 18.4822 13.2295
Pt 9.90629 18.8986 8.98513
Pt 10.671 8.91994 15.4419
Pt 12.475 6.48538 15.9378
Au 10.3314 6.77337 11.2612
Pt 13.2462 11.8913 16.8482
Pt 12.8707 8.17401 19.8385
Au 20.0886 9.14496 20.2398
Pt 7.231 11.0877 11.5172
Pt 11.029 9.26723 12.6769
Au 8.65909 10.1424 8.63198
Pt 8.92601 10.5433 13.6863
Pt 9.485 12.6349 17.9669
Pt 16.011 12.1937 16.9711
Au 12.6188 16.7096 15.5624
Pt 12.027 13.3204 19.2031
Pt 12.0444 12.3236 22.6415
Pt 13.2029 10.775 19.2161
Au 13.9281 10.4333 23.6782
Pt 15.2025 9.42151 21.3229
Au 12.1763 14.8541 23.663
Pt 8.99154 7.78557 13.4862
Pt 7.61505 12.6364 9.56867
Au 7.74912 14.3463 7.53357
Pt 6.74951 12.1271 13.8676
Pt 11.9261 17.1774 12.783
Pt 10.9052 12.0324 12.6862
Au 14.8036 12.5121 14.1131
Pt 8.65699 14.8049 16.5926
Pt 9.759 15.0067 19.0657
Pt 11.9187 16.056 20.0448
Au 11.4468 14.2651 16.7777
Pt 6.68222 13.1862 16.1661
Pt 10.585 14.1075 21.4614
Au 8.16456 15.7548 20.9974
Pt 11.376 15.1254 8.38863
Pt 14.8656 12.6851 6.62088
Au 10.1406 14.8954 6.14261
Pt 7.15598 15.269 10.085
Pt 10.9304 14.6175 12.2564
Pt 9.50417 14.4341 10.0266
Au 15.647 16.8713 8.5162
Pt 13.9959 18.3484 13.9091
Pt 10.2916 18.5274 14.6475
Pt 10.3113 16.735 17.1151
Au 16.5196 18.606 12.8407
Pt 7.09049 14.376 18.679
Pt 9.80224 17.8299 19.8145
Au 7.94792 19.6482 18.7926
Pt 11.1519 17.3894 6.98081
Pt 12.1122 19.1794 10.6044
Pt 12.1342 19.7221 7.87764
Pt 14.3913 17.6025 11.2778
Pt 9.04316 20.785 13.3123
Pt 14.3805 19.3251 9.19041
Au 14.3493 21.2116 7.31301
Pt 11.9661 20.1577 13.3357
Pt 7.87492 16.9272 18.332
Au 9.2503 21.8182 17.7132
Pt 8.55719 20.3645 10.7035
Pt 14.3778 20.2526 11.6638
Pt 11.3757 6.6957 13.6322
Pt 11.0599 8.92095 10.0031
Au 14.9795 5.75864 11.3356
Pt 12.6764 10.8598 14.1584
Pt 13.8759 6.53782 18.0506
Au 15.2479 5.02538 16.12
Pt 9.79387 11.339 10.5762
Pt 9.81964 12.7639 8.01886
Au 13.4755 10.4098 6.55042
Pt 8.68985 9.00531 11.2327
Pt 8.4645 13.3593 12.149
Pt 14.9882 10.2138 15.5606
Au 16.7243 13.009 12.1057
Pt 15.164 7.62542 15.891
Pt 12.962 9.09599 16.8698
Pt 18.9418 7.96307 17.7946
Au 14.1404 15.4134 13.2825
Pt 17.3771 8.7142 19.8248
Pt 12.3807 9.88214 21.6304
Au 16.4501 11.4084 23.4224
Pt 15.9891 14.9125 6.74987
Pt 17.6091 12.6196 7.18513
Au 16.6196 17.3323 5.94669
Pt 9.00702 16.4871 8.30845
Pt 11.727 13.0078 10.0034
Pt 13.7078 11.8124 8.86378
Au 13.9035 13.0069 11.6122
Pt 15.3966 8.26718 10.4741
Pt 12.1959 13.6287 14.3122
Pt 14.9694 8.92399 18.5218
Au 15.6792 15.2492 10.8024
Pt 10.8736 11.583 15.8124
Pt 12.089 18.7561 21.0341
Pt 16.1419 11.1378 19.4163
Au 16.4534 14.8535 17.6733
Pt 13.4372 14.2951 21.3014
Pt 10.5523 16.6431 22.0826
Pt 14.2486 11.7701 21.3262
Au 13.6803 15.7095 18.1777
Pt 14.3999 13.1164 23.5871
Au 16.8205 20.2537 22.9164
Pt 14.0826 18.2845 6.72419
Pt 16.4315 19.5072 7.5519
Pt 18.2941 17.669 8.06938
Pt 12.9241 17.2022 8.85814
Pt 16.7551 18.8211 10.1529
Pt 13.9621 14.5155 8.60096
Au 20.3881 21.8214 10.2299
Pt 12.8771 15.4141 10.8129
Pt 12.513 19.6387 16.0067
Pt 14.8718 10.0743 12.8254
Au 15.7051 16.6132 15.2453
Pt 12.0745 18.036 18.3198
Pt 10.0161 19.2614 17.2195
Pt 14.3483 17.8179 19.9501
Au 14.5454 18.2236 17.172
Pt 10.7772 20.3584 19.4325
Pt 13.2634 16.8071 22.2329
Au 12.7458 21.4382 21.0033
Pt 16.018 21.3608 9.65504
Pt 10.8475 21.4015 11.3644
Pt 17.4047 23.7211 13.3081
Pt 13.1138 21.6401 9.78019
Pt 12.7224 22.5134 15.1933
Pt 14.4043 20.8755 14.1995
Au 10.4295 21.4952 8.84369
Pt 10.4729 21.2207 15.4576
Pt 12.0971 21.8705 17.6684
Au 14.4546 23.795 16.8379
Pt 13.0853 22.4785 12.4138
Pt 14.9224 23.5295 14.0335
Pt 13.596 9.19451 8.99186
Pt 17.2693 8.86824 14.7721
Au 17.6116 6.91349 10.7819
Pt 14.0015 5.9081 13.8599
Pt 17.6239 6.48994 15.6771
Au 16.6221 5.17932 13.5598
Pt 15.953 10.5924 7.87934
Pt 11.3982 10.7529 8.28767
Au 18.745 15.2958 6.43993
Pt 12.2505 13.0696 6.95479
Pt 12.7561 10.6038 11.1373
Pt 15.5645 10.8635 10.501
Au 19.6467 10.604 8.11033
Pt 13.2593 8.39806 14.2112
Pt 16.5666 6.83509 18.0172
Pt 20.1601 12.0001 20.9087
Au 16.8176 14.0793 15.0134
Pt 15.7659 7.63339 13.0652
Pt 18.9423 10.8685 18.6783
Au 23.7885 15.7898 18.925
Pt 20.9318 11.8747 10.2729
Pt 13.2326 15.7056 6.48102
Pt 17.6823 14.8745 8.76266
Pt 15.9559 13.06 9.20009
Pt 20.1685 15.9831 8.80064
Pt 18.441 20.2923 11.4274
Au 20.8101 18.634 7.84992
Pt 17.3589 9.58622 12.0037
Pt 21.8366 14.2873 10.0946
Pt 14.6669 13.2457 19.0704
Au 17.2026 15.9414 12.9904
Pt 20.2868 13.2303 18.3906
Pt 17.871 13.2759 19.5192
Pt 19.0883 14.2498 13.7406
Au 14.2061 14.3054 16.0264
Pt 17.8648 10.9164 21.2863
Pt 18.61 13.3389 22.6333
Au 21.4839 13.6097 22.6276
Pt 18.6039 20.3531 8.828
Pt 16.4465 21.4473 12.5796
Pt 17.8996 22.7405 10.7585
Pt 18.0859 16.6519 10.5894
Pt 16.2692 19.3615 15.4337
Pt 18.404 17.5956 15.0202
Au 15.2616 23.4822 11.2209
Pt 20.5155 16.0375 11.5606
Pt 15.579 15.5966 20.2048
Pt 21.0293 14.0519 15.7978
Au 17.1595 17.5678 17.4273
Pt 16.2456 13.338 21.5308
Pt 15.1799 20.14 20.9015
Pt 19.9825 14.6433 20.7318
Au 17.6177 15.4638 24.234
Pt 15.319 15.408 22.981
Au 20.0732 15.9241 23.1551
Pt 16.6404 21.9345 15.1897
Pt 16.8504 22.5418 17.7051
Pt 18.5356 20.3286 14.0619
Pt 13.4512 20.053 18.8801
Pt 16.5133 20.0244 18.5659
Pt 15.6044 17.9119 22.3946
Au 16.9149 24.5299 15.8147
Pt 14.6292 22.29 19.1952
Pt 18.1728 17.9268 22.7314
Au 16.9758 22.1443 20.4931
Pt 14.6696 21.1179 16.8082
Pt 18.5469 20.052 16.562
Pt 18.5424 7.17638 13.1516
Pt 19.9759 7.66137 15.3259
Au 21.2741 7.92989 12.746
Pt 13.0627 7.81955 11.6221
Pt 21.7745 11.1061 19.1941
Au 21.4277 8.89316 17.6364
Pt 19.8601 13.3485 8.33408
Pt 19.089 14.0419 10.8564
Pt 17.6065 9.2368 9.33348
Pt 19.4823 9.59554 13.5526
Pt 19.118 11.7817 12.1872
Pt 21.5351 11.5227 16.7616
Au 22.4792 17.0212 9.7058
Pt 17.4228 11.4268 14.3665
Pt 22.3585 13.6194 20.0268
Au 15.272 6.91244 20.4057
Pt 19.9904 18.4942 10.2502
Pt 23.05 15.6095 12.1263
Pt 18.0939 11.7756 9.80439
Pt 22.835 12.137 14.5371
Pt 20.8963 16.1803 14.2039
Pt 22.9575 13.6509 17.4196
Au 23.5532 12.812 11.8559
Pt 16.9993 9.66912 17.2246
Pt 21.9741 17.987 18.8874
Au 23.1746 18.9019 16.5311
Pt 20.9136 20.3512 12.4448
Pt 19.3034 18.0295 12.6978
Pt 23.2396 14.6448 14.502
Pt 20.9424 18.7917 14.7427
Pt 18.5186 15.9555 19.0408
Pt 18.5784 12.632 16.5985
Au 22.249 19.804 10.0457
Pt 21.1053 15.6126 18.5285
Pt 19.9509 17.4458 20.8271
Au 22.2614 16.1151 21.187
Pt 19.1766 18.7527 18.7534
Pt 19.5104 22.459 12.9022
Pt 22.0858 18.0861 12.2013
Pt 17.039 17.9108 20.222
Pt 18.4249 19.9852 20.9174
Pt 20.3423 17.5185 16.8423
Au 23.1746 20.0559 13.944
Pt 17.7129 15.6406 21.6182
Au 21.0083 20.1121 20.1948
Pt 19.0091 21.4674 18.6838
Pt 21.0325 20.1799 17.372
Pt 19.3426 10.0589 16.2011
Pt 19.7555 9.45236 10.8751
Pt 20.1916 11.9336 14.5376
Pt 21.7058 10.7682 12.4991
Pt 21.2921 13.6098 12.702
Pt 21.7787 9.63095 14.9374
Pt 22.6256 16.2162 16.5215
Pt 23.2973 17.3499 14.3302
Pt 18.9142 15.3424 16.4378
Pt 20.9097 21.326 14.988
Pt 18.9488 22.6511 15.8778
