286
Atoms. Timestep: 20198
Pt 10.2701 12.004 21.1388
Pt 11.0359 7.50258 17.049
Au 9.01683 6.87396 15.2008
Pt 9.19792 10.8171 18.8693
Au 9.51235 8.1602 19.143
Pt 9.69056 12.3927 16.8502
Pt 8.9576 9.1793 16.6908
Au 7.32533 10.0053 11.4592
Pt 11.3419 10.1799 17.0275
Pt 11.4892 9.77533 19.9867
Au 7.63295 12.3822 20.5704
Pt 7.91324 13.5234 15.0853
Pt 7.46246 10.9949 15.9335
Au 5.06522 13.0144 12.625
Pt 7.28431 12.7236 17.8886
Pt 7.47972 14.9118 19.4815
Au 5.36456 12.5918 15.4621
Pt 7.9401 16.6589 10.7079
Pt 5.73372 14.9652 14.2152
Au 5.617 15.2642 11.2085
Pt 9.30154 12.5919 12.3656
Pt 7.90182 16.345 15.0864
Au 5.49255 17.3321 15.6791
Pt 7.20626 14.9726 8.95428
Pt 9.23279 16.676 8.34802
Au 6.37549 19.6633 14.1287
Pt 7.70768 19.0569 11.8636
Pt 8.16598 21.3601 15.4218
Au 9.72921 23.5569 14.1385
Pt 6.54254 17.144 13.0293
Pt 9.01234 18.9551 9.65875
Pt 10.7186 8.85983 14.738
Pt 13.2822 6.15267 17.1035
Au 10.084 7.19624 12.5837
Pt 14.0359 11.139 16.8469
Pt 14.6338 7.03495 19.4685
Au 13.3671 8.63265 21.4384
Pt 8.34465 9.26448 13.8182
Pt 12.6254 8.28532 13.0826
Au 9.33508 8.55167 10.2827
Pt 9.86017 11.3454 14.5846
Pt 9.68962 13.5198 19.1643
Pt 16.2082 12.1376 18.1824
Au 10.3294 14.6339 14.6539
Pt 11.8561 12.0109 18.7844
Pt 12.71 11.7479 21.682
Pt 14.1936 10.7955 19.7405
Au 14.3082 13.0368 23.6344
Pt 12.0046 7.1626 19.4283
Au 11.392 13.6962 23.031
Pt 7.05842 12.8608 10.8316
Pt 9.10967 11.2691 10.0615
Au 7.82239 12.5623 8.128
Pt 7.13407 11.6778 13.4416
Pt 9.36805 16.8647 12.9131
Pt 11.8457 12.699 13.1903
Au 14.005 13.5238 11.2829
Pt 8.87731 14.9569 17.1308
Pt 10.1702 16.2046 19.2778
Pt 12.0594 14.2542 20.369
Au 12.1877 16.4424 15.5556
Pt 6.20313 14.8592 16.8162
Pt 9.22928 14.5044 21.4568
Au 8.35193 17.1136 20.9669
Pt 10.6524 17.0402 10.4356
Pt 9.63731 14.4218 7.36778
Au 13.5728 18.4392 6.36057
Pt 7.87446 14.6983 12.6321
Pt 10.9183 14.8847 11.9562
Pt 9.28285 14.1671 10.0543
Au 15.3661 17.7221 10.1098
Pt 11.8858 17.5014 12.9694
Pt 9.11502 18.9773 14.3391
Pt 9.79148 17.3345 16.4488
Au 14.4818 18.4251 12.8237
Pt 7.33785 16.9359 17.9674
Pt 9.03953 18.6615 18.8092
Au 7.9803 21.0569 18.1888
Pt 11.1339 18.6243 8.08731
Pt 10.896 20.7254 9.72248
Pt 13.1891 20.2564 8.45296
Pt 12.599 18.8137 10.5591
Pt 8.48783 21.2582 12.9129
Pt 14.7928 20.3139 10.6211
Au 14.9197 22.361 8.768
Pt 10.2926 19.4238 11.9876
Pt 7.52172 18.9583 16.4444
Au 9.7483 22.8051 16.9643
Pt 10.5913 22.1561 11.8421
Pt 12.6098 20.4302 12.5967
Pt 11.7158 6.36803 14.7363
Pt 14.5937 7.94782 11.2232
Au 13.0076 5.84343 12.1387
Pt 12.6675 10.6043 14.4049
Pt 17.2273 6.88409 19.0539
Au 15.5615 4.9082 18.1166
Pt 11.4154 12.5281 10.6042
Pt 12.3074 13.715 6.94948
Au 12.8366 10.8377 6.93091
Pt 11.9832 8.01919 10.6507
Pt 10.4759 10.0778 12.2103
Pt 16.0613 9.75537 15.7771
Au 16.8547 13.3646 12.0039
Pt 15.539 7.34938 16.9018
Pt 13.3712 8.90644 18.2522
Pt 18.4115 8.96137 19.9115
Au 13.2793 15.0218 13.501
Pt 16.0056 8.62128 21.0144
Pt 15.0381 10.6694 22.3823
Au 17.925 9.89168 22.589
Pt 11.4675 16.2966 6.85085
Pt 13.9966 15.5766 6.32777
Au 18.1051 16.6598 6.25851
Pt 10.5979 12.2174 8.09241
Pt 11.6732 14.858 9.1799
Pt 13.4958 12.1156 9.09804
Au 14.4314 14.8386 8.83173
Pt 17.044 8.70019 12.0339
Pt 12.0746 12.6773 15.9226
Pt 16.0855 9.43683 18.4647
Au 15.711 15.9018 12.2792
Pt 11.529 14.6789 17.5776
Pt 10.8235 18.6452 20.7099
Pt 16.8383 11.118 20.4988
Au 16.3243 15.1164 17.6385
Pt 14.874 13.0101 21.0126
Pt 10.9629 16.2648 21.9376
Pt 16.9965 12.5144 22.7081
Au 13.7588 16.2493 17.7865
Pt 13.4568 15.2849 22.3911
Au 12.6285 18.1961 22.7641
Pt 15.7207 16.983 7.52767
Pt 15.6653 19.5601 8.09938
Pt 17.9508 17.7902 8.61099
Pt 13.1888 17.1777 8.56967
Pt 17.414 19.8598 10.1108
Pt 17.0297 15.4549 9.75008
Au 17.4766 21.6271 8.26392
Pt 13.2339 16.168 11.008
Pt 11.9218 19.0327 15.115
Pt 14.9933 9.33666 13.489
Au 14.9347 16.8622 15.0439
Pt 11.6309 18.1274 17.9879
Pt 10.0572 20.0348 16.7144
Pt 13.0709 19.6217 19.3648
Au 14.0673 18.8943 16.9114
Pt 10.6366 20.8888 19.1515
Pt 12.8373 17.0132 20.2695
Au 12.0273 20.9554 21.4986
Pt 16.6607 22.347 10.8301
Pt 12.9245 22.1794 10.5701
Pt 18.4043 22.2681 12.7275
Pt 14.8081 22.0216 12.6743
Pt 12.061 23.2996 15.7618
Pt 13.6278 21.095 14.8673
Au 14.5905 24.1619 11.2175
Pt 10.8009 21.2457 14.44
Pt 12.4103 21.1768 17.2382
Au 11.7037 23.4064 18.7065
Pt 12.5154 23.2113 13.1622
Pt 14.509 23.7123 14.8494
Pt 16.4272 8.75139 9.43002
Pt 18.5524 9.06632 14.4725
Au 17.3609 6.42899 10.4495
Pt 14.2689 6.5913 14.4323
Pt 17.7911 5.82332 16.6921
Au 15.7455 4.70052 15.4013
Pt 15.807 10.81 8.02615
Pt 13.8613 9.40456 9.1463
Au 16.9664 11.9817 5.92283
Pt 11.4041 10.1373 9.31208
Pt 12.988 10.5447 11.5845
Pt 15.4266 10.8134 11.0387
Au 18.3544 9.78821 7.74358
Pt 13.3428 8.54878 15.7627
Pt 18.1878 8.49146 17.106
Pt 20.6588 9.44612 18.6685
Au 14.6353 12.2218 13.5635
Pt 16.8391 7.30866 14.6333
Pt 18.8651 11.3548 18.9041
Au 23.0121 10.6387 17.6364
Pt 14.7067 12.9154 6.85605
Pt 16.7292 14.4917 7.14663
Pt 19.2215 14.9228 7.87938
Pt 16.1948 12.9603 9.38554
Pt 19.5114 16.2577 10.1533
Pt 20.2134 17.4715 12.3537
Au 20.5805 17.2537 7.833
Pt 17.8403 11.0616 10.3319
Pt 18.6521 15.2814 12.6339
Pt 13.9371 13.4629 18.4966
Au 16.3472 12.5423 15.5729
Pt 18.4088 13.5389 17.3329
Pt 17.3375 13.7711 20.0129
Pt 18.8375 13.4252 14.7197
Au 14.2507 14.1928 15.8867
Pt 19.2865 12.1015 21.4228
Pt 16.1583 14.9343 22.4947
Au 20.4401 9.69885 21.3942
Pt 19.9658 18.9502 9.9055
Pt 16.6404 20.0953 12.6194
Pt 19.2335 19.8279 12.2412
Pt 17.6534 17.6619 11.51
Pt 15.9285 19.417 15.075
Pt 17.9804 17.7456 14.1179
Au 19.4341 21.6862 10.2624
Pt 16.7364 14.9938 14.5615
Pt 15.2868 17.9006 19.4161
Pt 20.8603 14.4328 16.7071
Au 16.7535 17.7581 17.0258
Pt 14.9091 15.3649 20.1033
Pt 14.3903 19.7297 21.4872
Pt 18.7787 14.5734 22.0372
Au 17.3603 16.476 20.432
Pt 15.1593 17.31 22.0899
Au 18.0433 17.1467 22.8847
Pt 16.4442 21.9373 14.7014
Pt 16.6101 23.7559 16.5204
Pt 18.5078 20.3041 14.713
Pt 15.0671 21.4987 16.9593
Pt 16.3026 22.9321 18.9397
Pt 15.8057 20.3271 19.1256
Au 16.6015 24.2094 13.1957
Pt 13.8105 22.068 19.6047
Pt 16.9468 19.195 21.4045
Au 15.8885 21.9129 21.4408
Pt 14.0623 23.743 17.507
Pt 17.585 20.7657 17.1554
Pt 18.9774 8.48993 10.0057
Pt 19.0944 7.17952 12.5478
Au 21.4175 8.40804 11.0424
Pt 15.9409 6.14957 12.5705
Pt 19.6935 6.88915 15.2588
Au 18.1136 5.06377 13.9556
Pt 18.3915 12.3659 8.01923
Pt 19.1715 13.6325 10.1377
Pt 20.3565 10.8853 9.82884
Pt 19.4247 9.88952 12.1275
Pt 19.671 12.5405 12.2773
Pt 20.771 9.17705 16.2115
Au 21.0225 12.7424 8.01549
Pt 17.3148 11.1306 13.3857
Pt 20.8123 11.8848 16.9829
Au 19.9638 6.87165 18.0991
Pt 21.6072 14.9999 9.24312
Pt 21.2153 14.9405 12.0175
Pt 21.9436 12.8499 10.6587
Pt 21.3497 13.3516 14.2714
Pt 20.8699 16.0002 14.4345
Pt 22.6381 13.3595 18.4717
Au 23.7021 15.0949 11.2974
Pt 18.3661 10.9794 16.3893
Pt 21.4067 11.6509 19.8484
Au 23.5088 17.7202 18.1888
Pt 22.014 17.2617 10.3773
Pt 20.7572 18.76 14.5465
Pt 23.3464 15.1067 14.1443
Pt 21.9956 19.5123 16.8945
Pt 19.0792 16.191 18.4204
Pt 18.7139 16.0041 15.8854
Au 21.9274 19.7501 11.7575
Pt 19.9801 13.8525 19.368
Pt 21.857 15.7329 19.1417
Au 21.498 14.055 21.432
Pt 19.2898 18.7469 16.7507
Pt 20.7689 21.3841 13.7018
Pt 22.7883 17.3606 12.8514
Pt 18.1562 18.7524 19.12
Pt 18.0988 21.3119 20.0585
Pt 20.9343 18.248 19.1492
Au 23.0574 20.0372 14.316
Pt 20.0305 16.4906 20.8946
Au 19.6242 19.2019 21.3395
Pt 18.7804 22.8465 17.8659
Pt 20.1176 20.6186 18.6838
Pt 21.1953 8.59998 13.7139
Pt 21.8856 10.8127 12.282
Pt 20.1374 11.0901 14.4247
Pt 22.6312 10.7327 14.8581
Pt 23.3757 12.805 12.9439
Pt 23.2667 12.9636 15.9437
Pt 23.3472 15.3988 16.8244
Pt 23.1924 17.5757 15.3702
Pt 21.1679 16.9911 16.8491
Pt 20.3917 21.3585 16.2464
Pt 18.7552 23.027 15.1796
