286
Atoms. Timestep: 20340
Pt 11.5277 13.6737 21.3007
Pt 20.0281 13.8246 9.59313
Au 8.7764 10.3194 20.5925
Pt 9.67447 19.8814 20.0776
Au 8.18245 7.69845 12.8821
Pt 9.26806 16.9096 14.0958
Pt 16.839 17.2347 14.6839
Au 18.4208 9.56134 21.2438
Pt 18.3815 18.7448 10.0354
Pt 17.4842 20.9833 11.3211
Au 7.32956 18.1776 19.3097
Pt 15.9229 21.1427 19.0449
Pt 13.6066 22.1054 8.85926
Au 17.4058 16.339 5.19975
Pt 15.9877 10.8217 21.5756
Pt 20.7455 15.49 12.0749
Au 19.0647 21.2481 9.1121
Pt 17.3105 13.0911 13.5616
Pt 12.1064 20.1501 7.51704
Au 9.66294 12.0168 22.6232
Pt 18.4462 6.44054 13.1519
Pt 14.7132 10.7427 7.08665
Au 8.36047 9.82174 11.0622
Pt 11.6509 23.2136 13.6461
Pt 9.73662 16.7568 9.43552
Au 9.30244 17.6739 21.526
Pt 12.2341 11.7336 23.1444
Pt 13.4875 17.1597 10.7902
Au 8.42319 8.70443 15.4651
Pt 17.2868 19.6733 7.81731
Pt 14.7228 9.33797 14.3493
Pt 10.8744 16.2261 11.9224
Pt 14.4202 9.68841 11.5022
Au 7.07442 12.7626 11.7097
Pt 13.1597 10.4154 9.24121
Pt 11.6854 18.9489 21.6281
Au 22.1369 11.697 19.2556
Pt 10.09 9.37651 13.4071
Pt 17.2166 9.00646 10.2376
Au 18.3948 21.9826 19.6328
Pt 14.0477 16.8933 18.7811
Pt 9.43007 11.8314 12.9739
Pt 10.5501 9.84192 8.83425
Au 11.7343 15.9194 14.542
Pt 12.6469 19.4757 16.27
Pt 8.50779 13.9319 17.7321
Pt 17.5413 17.1099 7.85734
Au 22.1122 15.6099 9.79163
Pt 16.7629 8.77646 16.7051
Au 15.0627 8.37936 8.74888
Pt 11.1026 21.3207 9.656
Pt 13.2039 19.7327 9.81005
Au 20.6078 7.57554 18.1371
Pt 7.03547 18.1727 13.792
Pt 8.48684 14.9068 10.8487
Pt 12.2412 8.67967 15.3422
Au 10.6334 16.3521 6.81498
Pt 14.6116 14.577 17.7484
Pt 12.3275 18.9891 19.0557
Pt 11.9264 18.5612 13.7973
Au 13.3407 14.7016 12.1015
Pt 23.1646 14.8895 13.1102
Pt 17.8768 19.4653 18.2295
Au 10.6225 6.77544 14.0105
Pt 21.8241 18.774 15.6245
Pt 12.5651 22.9744 11.1277
Au 23.0971 17.2087 11.9437
Pt 15.974 13.5871 21.5562
Pt 17.6354 17.0869 21.8774
Pt 10.4739 10.7247 15.5418
Au 21.6928 8.98244 10.6568
Pt 9.50455 19.3184 13.1879
Pt 13.7399 12.1705 21.1052
Pt 15.2584 7.58724 18.8883
Au 10.6921 8.42878 19.7913
Pt 16.8577 10.7654 12.2892
Pt 21.9749 10.3586 14.8776
Au 11.116 14.0227 23.9889
Pt 16.2413 21.7885 9.02298
Pt 23.3528 14.5882 15.6627
Pt 13.9242 19.3512 12.2376
Pt 18.5216 19.7925 13.499
Pt 21.3638 16.1834 14.6072
Pt 15.7742 18.7956 22.4298
Au 19.8819 22.7481 17.1558
Pt 16.4251 7.08556 14.7872
Pt 20.8212 20.9441 14.096
Au 19.4497 7.39824 10.8903
Pt 15.5843 12.5488 16.3044
Pt 14.7482 18.9922 14.7838
Pt 11.3476 11.117 20.3159
Pt 10.2434 7.94681 11.1419
Au 14.1537 5.2687 18.0417
Pt 13.6476 14.8086 20.3626
Pt 14.9163 19.0948 17.6208
Au 13.6041 24.6641 15.3228
Pt 16.5315 12.62 7.38556
Pt 21.2232 13.2498 14.1741
Au 16.5646 13.821 5.00248
Pt 16.1098 15.7339 20.0713
Pt 13.8229 17.5359 21.2482
Pt 9.70872 15.977 16.6802
Au 14.8384 23.5697 17.6951
Pt 16.3211 8.11888 12.48
Pt 12.1786 11.304 6.86575
Pt 20.85 17.8764 10.6356
Au 19.2811 11.9835 7.61017
Pt 11.5709 20.8381 12.1755
Pt 17.3637 22.0421 17.0786
Au 15.8628 8.15205 21.3918
Pt 18.342 17.019 19.3822
Pt 18.0882 11.8416 10.0285
Au 21.5581 14.0833 20.8812
Pt 16.0478 18.4751 19.9145
Pt 14.4235 6.95698 11.1785
Pt 12.467 8.04171 9.86488
Au 13.1208 7.54301 20.9099
Pt 18.601 14.5279 20.7215
Pt 9.60889 14.2935 8.55458
Pt 18.1159 7.89335 18.7421
Au 9.02253 22.5236 16.4021
Pt 11.7345 21.398 20.3348
Pt 19.2792 10.0182 11.6312
Pt 14.2382 16.6826 16.0346
Au 17.6791 14.8308 23.276
Pt 14.7209 15.0755 9.74692
Pt 13.7934 9.85381 19.6898
Pt 16.5076 9.82516 19.2364
Au 13.0046 11.7452 15.8714
Pt 11.968 16.9594 17.2355
Au 9.74359 19.2297 8.42522
Pt 11.8862 9.99396 17.7751
Pt 11.0703 14.5631 18.8424
Pt 18.7866 15.8819 16.7864
Pt 17.2924 14.1708 18.2527
Pt 13.2811 15.5971 7.33676
Pt 16.8734 23.2539 12.5511
Au 11.0353 9.42915 22.3102
Pt 8.39874 17.6128 11.5378
Pt 15.3971 12.3005 19.0451
Pt 20.0872 20.2501 11.4577
Au 12.0192 5.8695 11.7468
Pt 13.2215 18.0134 6.30764
Pt 19.6329 12.7049 12.1096
Pt 14.6617 15.9532 5.18329
Au 19.5725 9.36659 8.83982
Pt 9.75903 13.3109 15.5378
Pt 14.5838 10.1097 17.2017
Au 9.53752 11.8749 7.31722
Pt 9.22456 13.0451 20.1872
Pt 10.8442 20.824 17.6735
Pt 21.1099 7.94749 15.5294
Pt 17.0823 19.5999 15.787
Pt 16.6491 6.02927 17.2527
Pt 20.6554 18.2393 20.1297
Au 7.26395 10.312 13.5634
Pt 10.848 13.5457 11.3813
Pt 18.4112 22.1787 14.6641
Au 9.36446 22.3896 19.1647
Pt 14.9337 4.99251 15.4342
Pt 7.68254 15.1662 15.4116
Pt 20.4484 11.7261 16.6389
Pt 11.1559 10.5689 11.1921
Au 16.9761 6.29307 10.5533
Pt 20.8662 14.3719 16.5012
Pt 19.2542 16.23 9.53443
Au 10.3541 7.51401 16.9238
Pt 14.065 16.9116 13.3822
Pt 13.4267 21.2844 13.9645
Au 9.33622 15.0061 22.1344
Pt 16.0148 23.383 15.0824
Pt 13.4289 21.242 18.3528
Pt 12.0511 17.7023 8.59368
Au 6.69584 14.0752 19.7236
Pt 20.1394 18.025 17.5714
Pt 19.3236 17.8295 15.0629
Pt 15.5954 11.2099 9.67023
Au 19.5374 22.6882 12.2754
Pt 8.34962 20.1271 17.6831
Pt 8.83199 15.8596 19.5595
Au 16.4701 21.2352 21.6099
Pt 14.7072 20.0727 7.53413
Pt 17.7665 12.0883 20.0731
Pt 7.66017 17.9239 16.3461
Pt 11.9584 15.1067 9.54308
Pt 16.6104 16.7341 10.4318
Pt 13.3383 12.2404 11.1875
Au 22.776 16.5693 19.8822
Pt 15.0024 21.2979 16.1643
Pt 19.4884 11.1234 14.1773
Pt 11.7746 13.1865 13.8441
Au 12.6731 8.72023 7.24416
Pt 7.98333 11.3839 16.1189
Pt 19.5263 20.273 16.2246
Pt 16.1244 15.4732 12.8392
Au 14.9917 11.9293 23.7339
Pt 12.5062 10.7494 13.4252
Pt 13.7676 6.6717 13.8354
Au 20.2313 16.2982 21.8406
Pt 19.7068 10.2555 18.9616
Pt 15.8488 13.2306 11.311
Pt 18.2352 14.7333 11.5208
Pt 10.7676 21.036 14.9129
Pt 15.9064 5.41741 12.88
Pt 9.04925 20.3 10.8326
Au 18.008 12.1758 22.8089
Pt 14.793 21.5643 11.288
Pt 14.8375 17.5148 8.44172
Pt 12.8778 12.5434 18.5899
Au 17.9169 23.4892 10.1536
Pt 13.9414 13.0139 8.48587
Pt 11.5664 13.7994 6.83476
Pt 9.05103 12.1524 10.0753
Au 18.7096 14.6388 6.96249
Pt 9.29762 14.4578 13.2674
Au 10.8907 24.3437 15.9584
Pt 12.4281 8.36889 12.5377
Pt 13.6438 14.0848 23.0105
Pt 18.3466 8.8062 14.0526
Pt 7.21716 12.9692 14.2682
Pt 16.5116 17.0063 17.4566
Pt 22.1389 13.3417 11.3431
Au 6.05335 13.3852 16.8369
Pt 11.4778 12.4401 9.13905
Pt 15.7651 19.3443 10.0104
Au 14.1624 22.8085 20.3906
Pt 15.8135 18.1676 6.12679
Pt 20.3263 20.4515 18.734
Pt 8.0844 20.389 15.0686
Pt 6.97373 15.6129 12.9339
Au 17.5781 4.63358 14.9999
Pt 12.1253 14.2188 16.5596
Pt 6.8025 15.9517 17.7536
Au 22.6101 19.0039 18.3441
Pt 11.9959 16.1191 22.4976
Pt 15.2931 16.0435 22.6511
Pt 14.0719 20.1264 20.8345
Pt 16.4915 14.9133 15.6258
Pt 7.54454 11.7138 18.6315
Pt 21.911 9.75188 17.4082
Au 23.7264 12.3366 13.8885
Pt 9.19886 9.74474 17.924
Pt 18.3563 19.4424 20.8103
Au 12.3132 5.74389 16.0029
Pt 12.5961 22.4141 16.1879
Pt 16.9295 10.7841 15.002
Pt 14.8096 12.0213 13.5606
Pt 14.1343 13.3265 5.98499
Pt 22.3901 16.6021 17.1205
Pt 9.28473 21.9829 13.0157
Au 11.844 23.4941 18.5375
Pt 17.2099 10.1807 7.89836
Pt 10.3269 12.0975 17.898
Au 22.0279 21.1929 16.6671
Pt 11.0636 18.6154 10.9559
Pt 10.1367 18.67 15.8877
Pt 22.6316 14.1947 18.3851
Pt 20.8441 11.4311 9.93004
Pt 16.4133 18.5153 12.4115
Pt 15.8739 15.2091 7.27475
Au 5.51547 16.5211 15.2603
Pt 19.8267 13.1639 18.6856
Pt 21.0781 18.4532 13.1543
Au 15.132 24.0015 10.3722
Pt 19.2711 9.45602 16.4597
Pt 13.6984 9.76142 22.2738
Pt 20.0733 11.9012 21.0605
Pt 17.2865 14.255 9.20936
Pt 9.81954 18.0188 18.404
Pt 18.7382 17.2926 12.3359
Au 23.8146 17.1653 14.666
Pt 18.9608 15.1851 14.1093
Au 7.06484 20.4705 12.5322
Pt 12.6948 7.58012 18.2288
Pt 17.6971 11.3733 17.5342
Pt 14.3132 23.5623 13.0185
Pt 18.8129 6.87857 16.0407
Pt 22.9209 12.2251 16.5608
Pt 11.4764 16.7073 20.0838
Pt 20.7421 8.52798 13.1345
Pt 18.5045 13.2054 15.8705
Pt 21.7605 11.0084 12.438
Pt 16.0792 21.0359 13.6266
Pt 14.1391 14.3175 14.6972
Pt 14.4069 7.49653 16.351
Pt 20.4861 15.7021 18.9514
