286
Atoms. Timestep: 20358
Pt 16.4166 10.5026 19.7017
Pt 9.98352 8.64196 15.125
Au 13.2792 11.8872 23.5228
Pt 17.0844 8.23251 18.8344
Au 6.58956 10.9834 18.3478
Pt 9.22809 10.6873 19.0186
Pt 13.9755 9.91235 8.23246
Au 10.0039 11.7602 21.4595
Pt 19.3253 7.16391 11.8525
Pt 19.4465 14.6053 19.983
Au 7.24349 15.435 20.546
Pt 9.83685 10.9801 9.91018
Pt 6.6507 11.9363 13.0818
Au 7.44594 8.22283 14.2683
Pt 14.4982 8.2018 15.3556
Pt 14.0282 11.3859 19.5771
Au 8.35761 6.91268 16.7
Pt 12.9565 14.4229 11.4894
Pt 11.9486 12.0158 11.8872
Au 5.81527 13.4364 15.6965
Pt 13.9612 15.5879 20.6983
Pt 11.4854 12.066 19.0747
Au 5.91883 18.3199 16.5233
Pt 9.23011 20.1327 12.4801
Pt 17.0405 12.7619 10.6139
Au 9.75669 23.6881 14.957
Pt 8.12658 16.2256 13.0777
Pt 13.517 21.294 19.6635
Au 15.234 24.0086 13.3503
Pt 8.546 14.7609 16.7056
Pt 11.1878 13.6537 16.8677
Pt 12.3616 8.97961 16.5162
Pt 15.3875 6.84131 17.4533
Au 15.6218 10.1232 6.16109
Pt 12.3519 10.8185 14.5065
Pt 12.1828 9.54966 19.0299
Au 21.9688 11.0453 20.2453
Pt 8.65214 10.6841 14.3183
Pt 13.9319 9.48255 12.7245
Au 12.359 10.8089 6.11329
Pt 8.14445 9.53385 16.7703
Pt 8.13724 13.7746 14.2352
Pt 17.5684 12.7547 19.5821
Au 16.952 16.3685 12.3869
Pt 16.9785 8.94735 15.994
Pt 15.0115 10.6236 21.9722
Pt 14.7424 9.43839 17.7339
Au 22.1461 18.8037 19.6278
Pt 17.5599 11.3602 21.9471
Au 7.60095 17.7904 9.01199
Pt 9.24924 12.0995 12.1395
Pt 7.49914 18.3572 11.6256
Au 5.53177 17.3709 13.2734
Pt 5.8603 14.6343 13.2439
Pt 10.3326 15.3815 14.9039
Pt 13.1557 11.7033 16.9348
Au 13.9856 16.7876 18.3204
Pt 14.2966 12.5281 9.85897
Pt 11.5773 14.7888 19.2751
Pt 12.3638 10.5721 21.3796
Au 17.6105 15.5793 15.0194
Pt 11.1056 6.53168 16.1753
Pt 6.34734 10.8401 15.449
Au 7.52495 12.5289 20.614
Pt 12.1075 16.5968 13.1278
Pt 11.9416 13.5133 6.49918
Au 7.07831 11.4066 10.4393
Pt 9.98287 17.9528 14.4374
Pt 8.63057 17.446 16.6029
Pt 11.6568 20.0886 8.56869
Au 16.8145 12.675 5.9109
Pt 12.3746 19.0556 18.3462
Pt 8.28005 12.229 16.5846
Pt 9.06077 20.932 14.8567
Au 14.5528 12.4488 12.5989
Pt 6.71586 16.0516 15.2866
Pt 6.6933 16.209 17.9588
Au 13.1555 20.9337 22.334
Pt 17.6853 22.8808 13.0163
Pt 10.2093 17.5363 8.35874
Pt 14.5688 19.1351 9.67092
Pt 16.6518 17.4285 9.97988
Pt 18.2067 21.6317 10.701
Pt 16.4283 19.7882 11.2725
Au 6.17982 16.1391 10.8695
Pt 17.0478 13.643 13.1366
Pt 10.9903 22.0986 13.2914
Au 6.43519 13.6564 18.3897
Pt 9.22481 16.0868 18.9473
Pt 11.529 21.8056 15.8446
Pt 14.9284 7.64246 10.7857
Pt 7.58905 13.9394 11.4801
Au 17.3509 6.42354 9.79501
Pt 11.2136 9.56746 8.16905
Pt 12.3062 7.36953 11.5703
Au 12.8479 6.95848 18.2881
Pt 8.2915 9.57073 11.9366
Pt 8.42333 13.27 9.11156
Au 9.16653 5.74658 14.5093
Pt 12.1215 11.9521 8.6775
Pt 13.1614 22.9243 12.0716
Pt 9.82305 7.41785 12.7179
Au 15.3524 13.4475 15.2011
Pt 16.2196 8.37261 13.4839
Pt 10.2404 14.6324 12.4098
Pt 16.7445 17.5113 18.0717
Au 15.0657 10.7781 15.0141
Pt 18.5265 17.0585 19.9778
Pt 18.2793 10.4364 17.695
Au 20.0954 12.4603 21.6214
Pt 10.2106 14.8625 7.94421
Pt 14.3697 14.8657 6.178
Au 23.5574 16.3231 19.4564
Pt 12.7787 23.6801 14.7093
Pt 13.9786 16.9009 10.9546
Pt 12.0485 18.7129 10.7897
Au 12.8165 18.2407 15.516
Pt 15.4972 14.8206 10.6609
Pt 10.2125 8.35593 17.9612
Pt 17.7671 22.2653 19.5313
Au 14.1985 17.7425 5.96288
Pt 13.5223 5.88028 15.6592
Pt 9.23035 22.1381 17.1375
Pt 20.2202 11.5975 16.2044
Au 11.2119 16.6752 17.1846
Pt 18.9403 16.1768 22.2864
Pt 15.7826 17.6158 20.6534
Pt 18.0159 6.77443 16.8627
Au 13.3388 15.2792 16.1436
Pt 10.5645 10.8966 16.7254
Au 11.0715 13.4908 23.3987
Pt 18.5198 17.1185 7.99962
Pt 7.54398 18.7447 14.4056
Pt 23.4416 11.8926 13.3875
Pt 10.7311 13.5533 10.1128
Pt 20.8174 17.8137 9.14459
Pt 10.363 12.5402 14.5551
Au 24.5048 12.4289 15.8605
Pt 9.49942 19.4332 10.0057
Pt 9.22619 13.3705 18.831
Pt 12.7646 17.7797 8.3854
Au 12.6178 13.6989 14.1506
Pt 13.5961 21.6864 9.54122
Pt 11.1417 20.0036 20.6184
Pt 19.8008 18.4831 18.1595
Au 14.3533 18.3598 13.2231
Pt 15.7623 20.6958 20.9112
Pt 11.7045 17.2259 20.0628
Au 15.2748 23.2943 19.9593
Pt 20.294 9.55043 11.4125
Pt 11.4625 16.1451 10.187
Pt 22.4364 18.2627 17.0096
Pt 19.9569 13.1579 10.2365
Pt 15.092 22.7418 15.6585
Pt 16.1157 19.9749 15.8809
Au 20.1487 22.3227 12.4171
Pt 11.6409 19.5173 13.2896
Pt 7.95482 19.8897 17.1516
Au 11.2215 24.1124 17.1683
Pt 15.8992 21.193 13.5383
Pt 13.4625 21.0929 14.2626
Pt 22.0283 11.4745 11.0552
Pt 13.0553 14.598 8.6965
Au 22.8839 9.41649 12.6588
Pt 11.7208 5.63413 13.6378
Pt 16.1483 6.10198 15.0099
Au 20.7546 10.8454 8.73206
Pt 10.8247 9.80391 12.6139
Pt 8.84867 15.806 10.1774
Au 9.85381 11.9361 7.2569
Pt 13.8052 20.4788 11.7849
Pt 14.2624 6.48781 13.1182
Pt 14.8953 16.443 8.37125
Au 12.8339 7.55514 8.95687
Pt 18.3705 10.6843 9.94516
Pt 12.2239 8.03513 14.0975
Pt 21.1605 16.4261 20.8874
Au 15.401 17.2768 15.678
Pt 12.582 9.88189 10.4768
Pt 19.1375 10.0837 20.1616
Au 23.7055 16.4714 12.1798
Pt 20.375 15.192 8.46297
Pt 18.5247 20.56 14.1742
Pt 14.2741 12.4092 7.03282
Pt 16.0543 14.0989 8.11189
Pt 16.4956 16.3762 6.38164
Pt 19.1835 14.8661 12.1629
Au 22.2869 13.3154 9.01618
Pt 10.2701 8.42908 10.3426
Pt 22.5308 11.9899 17.7215
Pt 9.77994 18.6772 18.7946
Au 14.6538 15.5065 13.4751
Pt 19.1397 17.0631 10.7927
Pt 15.3031 13.1725 21.1252
Pt 20.8611 10.9301 13.765
Au 15.8748 11.9824 17.4703
Pt 22.095 13.2575 15.2255
Pt 13.8511 14.4517 23.1131
Au 15.929 12.7947 23.6886
Pt 23.4535 13.8103 11.4185
Pt 15.6693 22.4081 11.1729
Pt 18.1431 18.1021 15.9671
Pt 12.1027 16.1278 6.67204
Pt 17.6615 22.5429 15.6642
Pt 19.5425 13.7433 14.6294
Au 16.2485 21.2169 8.74195
Pt 18.3457 14.7691 6.844
Pt 9.41325 17.3412 21.2117
Pt 23.9208 14.4416 13.9059
Au 16.0122 14.9459 17.3399
Pt 16.1576 15.7944 22.5625
Pt 10.581 19.5525 16.4588
Pt 16.6264 15.2029 19.9333
Au 17.0591 8.70909 21.5336
Pt 12.5255 13.2358 21.1821
Au 18.3535 20.9449 21.8326
Pt 14.022 20.0291 7.4167
Pt 22.4143 17.9966 14.2378
Pt 9.96995 17.5743 11.8283
Pt 13.5912 23.1031 17.7069
Pt 17.5701 18.4021 22.2178
Pt 13.6525 20.6259 16.7982
Au 22.8335 20.4929 15.2927
Pt 11.3077 21.5765 18.4582
Pt 9.67648 14.4562 21.1744
Au 7.27629 18.2993 19.4433
Pt 21.3416 20.7255 17.483
Pt 11.2813 21.2543 10.9038
Pt 16.8606 6.19855 12.3668
Pt 17.8225 11.4822 15.0365
Au 18.342 10.097 7.14219
Pt 16.4924 8.76468 8.68649
Pt 11.6383 15.7755 22.1704
Au 11.4917 18.4555 22.7351
Pt 21.5098 15.4664 10.7625
Pt 17.4127 8.68867 11.2161
Pt 18.0114 15.0215 9.60176
Pt 18.6498 9.43201 13.5594
Pt 15.2925 10.2573 10.554
Pt 18.6837 15.7828 17.6815
Au 19.3089 8.2622 9.15734
Pt 18.1981 13.2842 16.9835
Pt 23.4059 14.3696 17.6073
Au 14.4729 8.4642 20.2742
Pt 16.3259 11.4292 8.37344
Pt 22.492 10.3319 15.5638
Pt 20.916 8.18853 13.828
Pt 19.7123 8.88027 15.9978
Pt 19.9605 20.8387 19.5607
Pt 21.2567 16.3373 18.348
Au 20.8612 20.3542 10.3176
Pt 21.9341 13.9167 19.7508
Pt 19.021 11.9205 12.3437
Au 19.5398 22.9973 17.6602
Pt 16.333 18.6967 7.63325
Pt 19.4746 17.4901 13.5456
Pt 20.0177 12.2109 18.8628
Pt 15.9472 21.5495 17.9618
Pt 13.9465 13.8087 18.6458
Pt 16.9468 18.6394 13.625
Au 16.6519 24.0524 17.6517
Pt 20.7643 14.1256 17.2078
Pt 19.9532 18.7867 21.1511
Au 19.6672 7.7909 18.6781
Pt 21.4654 15.6573 13.5331
Pt 18.9643 19.4364 11.881
Pt 20.3546 21.8936 15.2859
Pt 20.415 19.2049 15.5608
Pt 13.8389 17.103 22.8414
Pt 17.6443 19.5531 19.537
Au 15.2417 19.2905 23.1238
Pt 17.8397 13.8996 22.0649
Au 8.7799 20.9699 19.5482
Pt 13.5692 18.815 20.8749
Pt 18.4834 20.563 17.1468
Pt 18.54 6.95588 14.363
Pt 18.6864 12.6359 8.0879
Pt 21.286 13.3183 12.6275
Pt 16.6375 10.8753 12.66
Pt 21.4799 17.9511 11.7103
Pt 21.0665 9.85236 18.0044
Pt 22.9604 15.9578 15.7873
Pt 18.4439 19.3996 9.26783
Pt 20.388 16.4776 15.8044
Pt 21.1446 20.0883 13.1973
Pt 15.0335 19.2898 18.6308
