286
Atoms. Timestep: 20548
Pt 13.6951 6.83302 15.5306
Pt 13.435 21.3101 8.10687
Au 12.5763 16.2566 24.1433
Pt 16.3183 13.8565 8.80195
Au 20.9484 22.1847 15.4131
Pt 13.2592 11.9108 13.5338
Pt 15.8226 11.4434 9.38129
Au 9.35374 7.69155 17.7647
Pt 18.9174 19.3497 17.9861
Pt 22.7723 11.9851 17.6299
Au 9.78282 22.069 16.9495
Pt 20.0663 13.9284 13.9209
Pt 7.444 12.8109 18.0326
Au 17.4364 16.324 23.3351
Pt 13.7436 17.745 22.0428
Pt 17.6514 20.2609 11.9002
Au 16.6063 21.1903 21.1595
Pt 14.7892 12.41 22.6165
Pt 13.7682 8.54867 11.7023
Au 9.32501 8.03903 13.1737
Pt 19.2769 8.08245 12.3771
Pt 14.9864 7.24968 17.6795
Au 15.4314 6.42359 10.6395
Pt 13.1307 20.2104 19.53
Pt 13.8074 15.1076 6.41557
Au 12.0696 6.5393 17.6868
Pt 6.72673 17.6741 11.9048
Pt 21.1981 18.2997 17.3659
Au 8.99793 9.32021 20.1403
Pt 13.2509 8.9291 18.7304
Pt 11.6362 19.7065 21.5826
Pt 17.4931 10.9164 16.5185
Pt 22.2499 12.7401 12.8663
Au 12.7084 13.5946 23.7407
Pt 12.7088 16.9342 8.80792
Pt 17.7196 9.75706 8.55281
Au 10.6415 17.391 22.5574
Pt 15.0352 21.4458 12.1314
Pt 18.0953 12.2938 13.6865
Au 24.1753 13.3246 14.638
Pt 8.51127 16.3493 10.6586
Pt 18.6211 21.7536 16.8883
Pt 20.7176 13.8916 18.298
Au 10.3563 6.80083 15.4143
Pt 13.582 19.9674 10.248
Pt 15.2091 18.797 19.9676
Pt 20.5575 10.411 12.7083
Au 12.4269 10.1984 6.75797
Pt 22.4659 15.496 14.3111
Au 5.75957 16.4509 14.0988
Pt 12.0715 7.34871 13.4446
Pt 17.2201 22.8462 12.0159
Au 12.7944 10.6098 23.0795
Pt 21.1724 14.9992 11.901
Pt 18.1582 9.72698 14.1005
Pt 19.7864 18.9605 12.416
Au 8.42317 9.30354 10.704
Pt 8.92091 17.3453 17.973
Pt 18.2993 9.8851 19.1648
Pt 12.1292 17.6976 20.0432
Au 18.0843 23.4871 14.8569
Pt 15.7785 13.6073 13.4839
Pt 13.0886 8.82687 9.19912
Au 23.8085 14.9784 12.0588
Pt 16.8248 16.5465 20.7173
Pt 14.7388 6.57536 13.2323
Au 17.3796 5.99287 12.6102
Pt 15.3016 22.2272 9.69907
Pt 19.9805 16.8349 8.19956
Pt 15.3484 19.034 12.8918
Au 6.11161 19.5182 13.9322
Pt 10.653 21.0019 19.342
Pt 21.5181 12.165 20.1549
Pt 14.8045 15.3095 22.608
Au 11.6581 15.3775 4.88394
Pt 9.03465 13.6972 11.6406
Pt 8.17955 10.4486 13.2564
Au 14.7142 24.078 11.6001
Pt 18.1129 15.2249 17.3613
Pt 19.1729 13.1618 16.2633
Pt 13.3254 11.4854 8.82343
Pt 11.3605 9.90052 13.4891
Pt 22.6404 10.806 14.578
Pt 12.9076 17.495 6.12045
Au 14.4829 22.4073 18.7607
Pt 19.3971 21.6734 13.3229
Pt 11.4868 10.1304 20.638
Au 18.54 7.41584 20.3972
Pt 14.1561 13.0411 11.082
Pt 18.3374 7.1912 14.8197
Pt 20.6507 18.7698 19.9132
Pt 16.3593 14.6798 6.34179
Au 22.7299 20.0164 15.881
Pt 9.8458 12.0299 17.1302
Pt 7.25829 13.0606 13.5688
Au 21.1111 20.9716 17.9239
Pt 21.0817 14.8169 20.7826
Pt 8.31484 15.5114 13.4849
Au 6.05758 16.3644 9.56914
Pt 19.7515 14.4375 9.71236
Pt 14.5797 19.9827 17.307
Pt 9.65492 19.48 15.901
Au 11.1444 7.55231 20.033
Pt 16.6888 20.5526 18.6575
Pt 15.58 15.7628 16.308
Pt 19.1847 9.07743 16.5406
Au 16.2043 5.80375 15.5428
Pt 23.1781 14.6423 16.9532
Pt 17.6877 7.4352 17.7287
Au 20.4922 9.75005 21.0082
Pt 12.8677 20.0882 12.7906
Pt 14.2507 20.8919 14.8631
Au 8.32659 16.2282 7.82289
Pt 9.29473 14.6477 18.071
Pt 7.05892 18.6218 16.2786
Pt 22.0795 17.4564 12.2183
Au 22.3346 16.211 9.6772
Pt 11.2996 21.3222 14.7607
Pt 17.8001 21.5953 9.64291
Pt 15.2748 16.2169 8.40959
Au 7.44152 21.1955 15.9054
Pt 18.7218 14.1633 7.38846
Pt 11.2098 15.534 7.36289
Pt 14.681 12.589 6.9121
Au 10.2064 17.6694 6.21157
Pt 9.57631 9.62859 15.5487
Pt 17.6566 18.3124 13.9667
Pt 11.8608 18.2087 11.0181
Au 13.7601 6.42827 19.919
Pt 16.1382 19.5595 10.0112
Au 22.5881 9.87565 19.2372
Pt 15.1459 12.2062 18.1811
Pt 13.1233 17.3835 13.304
Pt 11.8913 11.3383 15.7241
Pt 12.3763 15.329 21.5578
Pt 7.60354 14.1352 9.50554
Pt 10.6862 21.3079 12.1049
Au 20.4151 6.76574 16.5667
Pt 11.4235 16.2787 17.9027
Pt 15.0045 18.113 15.3762
Pt 10.7881 18.8186 13.5729
Au 19.1449 14.1372 22.741
Pt 16.0555 20.7386 7.65991
Pt 16.012 22.224 16.4928
Pt 9.45652 13.7604 7.70905
Au 23.332 13.9726 19.5094
Pt 10.615 15.1914 9.84938
Pt 10.1073 15.9781 20.2803
Au 16.4475 13.9662 24.238
Pt 10.7854 10.0877 9.10813
Pt 19.0558 12.0851 20.8579
Pt 17.8285 10.3691 11.4455
Pt 10.9785 20.4164 9.74169
Pt 15.9362 9.62866 18.2195
Pt 9.96986 11.203 11.5521
Au 7.57699 18.6554 9.35595
Pt 18.819 19.0932 9.66662
Pt 10.3281 16.8588 15.5123
Au 22.3143 10.9382 10.7909
Pt 11.1415 12.7017 9.44671
Pt 13.7577 17.5925 17.8286
Pt 15.6712 15.2205 11.0087
Pt 14.1546 10.3289 16.5563
Au 16.4103 5.98978 19.5373
Pt 11.4889 13.9143 16.5337
Pt 21.7175 20.1621 13.4258
Au 6.90654 11.9008 11.2135
Pt 15.2279 10.7848 11.9862
Pt 16.2324 18.6137 22.3733
Au 8.06902 14.025 20.4938
Pt 17.293 17.5093 11.4353
Pt 20.3944 8.37652 18.7191
Pt 8.74102 20.648 13.6592
Au 15.156 9.83091 7.27816
Pt 13.4136 14.2499 8.85415
Pt 6.4809 14.8614 11.7944
Pt 8.50345 19.9469 18.1993
Au 12.695 6.3199 10.9671
Pt 21.3545 17.9073 14.8198
Pt 15.7496 11.1006 14.54
Au 14.1762 20.4627 22.1021
Pt 14.5838 17.5743 10.7571
Pt 19.6526 19.8639 15.2932
Pt 17.7201 16.07 9.19109
Pt 17.1427 18.2919 7.84156
Pt 6.84737 15.4234 18.3837
Pt 16.6613 17.5572 18.0958
Au 9.97242 11.3186 6.91539
Pt 13.9719 13.1634 15.7599
Pt 12.0499 13.029 6.85174
Pt 12.549 10.8327 11.1793
Au 20.2253 21.2184 10.8641
Pt 14.02 10.8226 20.4615
Pt 17.8013 7.82671 10.3919
Pt 15.5835 8.96691 9.88526
Au 15.0325 17.3778 24.3836
Pt 16.1372 14.6551 18.8708
Pt 11.1595 18.9068 17.9331
Au 10.0998 14.2733 22.4128
Pt 11.4796 13.9824 19.3794
Pt 16.9888 12.862 11.2603
Pt 22.2586 13.5046 10.1524
Pt 10.9021 14.6423 14.1398
Pt 12.3016 21.235 17.2008
Pt 8.17814 10.2051 17.835
Au 15.4642 9.79143 22.8268
Pt 12.9036 22.771 13.2925
Pt 7.7848 16.755 20.3963
Pt 15.5212 17.2665 6.03416
Au 23.4883 17.2119 16.4889
Pt 19.8558 12.5206 11.4897
Pt 19.6774 16.5562 13.5266
Pt 15.7343 16.3583 13.4583
Au 5.20844 16.7189 16.7859
Pt 9.70715 11.9901 19.7064
Au 19.1384 21.3223 19.8516
Pt 16.522 13.292 16.1243
Pt 8.77322 13.9074 15.63
Pt 18.5147 12.1272 9.23781
Pt 16.4303 11.4271 20.4911
Pt 19.3779 16.8298 18.8464
Pt 9.30699 18.9129 11.4162
Au 14.2042 19.8867 5.8144
Pt 16.143 8.52643 15.5826
Pt 17.4254 11.8696 22.954
Au 18.2369 16.5401 6.19168
Pt 11.0817 8.53904 11.1863
Pt 14.1294 13.5373 20.3511
Pt 13.6522 14.668 17.9341
Pt 10.8382 9.78524 18.1062
Au 21.4222 14.5396 7.65404
Pt 14.3462 16.2187 19.9904
Pt 10.1601 17.8373 8.97983
Au 13.4585 23.284 16.0086
Pt 21.9831 16.2747 18.7786
Pt 14.4832 18.6992 8.11196
Pt 12.0545 8.71791 16.056
Pt 15.8788 8.48186 20.4297
Pt 18.6784 14.6158 19.9979
Pt 9.57537 18.6812 20.2542
Au 21.4959 18.9114 10.0019
Pt 21.7421 13.0616 15.625
Pt 20.7974 8.51515 14.4777
Au 12.6484 19.0065 23.9791
Pt 17.1706 11.9801 7.02751
Pt 13.9512 9.1917 14.1606
Pt 17.8829 12.5721 18.5437
Pt 20.6996 15.6434 16.2984
Pt 16.6945 13.949 21.471
Pt 11.9302 12.5164 21.4328
Au 6.02016 14.0292 15.9345
Pt 8.31502 18.0332 13.9518
Pt 13.4953 14.6939 13.5022
Au 7.13073 20.3478 11.5389
Pt 20.2474 11.2086 18.0258
Pt 11.5793 13.3778 11.9722
Pt 7.60973 11.5289 15.6428
Pt 7.74045 16.1683 15.9936
Pt 12.4584 18.9067 15.6208
Pt 12.7646 22.3209 10.6913
Au 20.9773 11.8985 8.4662
Pt 17.773 15.2083 14.691
Pt 12.9508 16.1002 15.644
Au 6.39793 18.2443 18.8163
Pt 11.922 19.299 7.63311
Pt 9.96233 12.1683 14.0809
Pt 8.69047 11.7567 9.30911
Pt 16.3845 8.46391 12.7002
Pt 18.2373 14.9668 11.9767
Pt 16.9765 21.1106 14.2253
Au 23.8501 18.1913 13.9807
Pt 19.9152 9.87436 10.1245
Au 17.2078 23.0834 18.8357
Pt 15.4279 23.2856 14.0975
Pt 10.4944 16.4448 12.3774
Pt 18.0155 18.8615 20.4216
Pt 12.8926 15.5916 11.1448
Pt 17.0034 19.5512 16.2159
Pt 20.1511 11.0838 15.187
Pt 19.4036 16.7837 21.4702
Pt 21.8436 9.49191 16.7079
Pt 17.9364 9.62968 21.756
Pt 13.4203 8.50932 21.4573
Pt 12.5028 11.8088 18.4278
Pt 19.8111 16.9038 10.7739
Pt 18.7661 17.4193 16.1148
