286
Atoms. Timestep: 20539
Pt 15.5856 8.8867 16.96
Pt 10.2937 12.0573 12.2787
Au 11.7727 12.4837 23.2094
Pt 5.84034 13.0113 13.5614
Au 5.63844 10.3696 14.5112
Pt 11.8663 22.2404 17.2124
Pt 11.7798 17.2024 13.2055
Au 13.9172 8.51623 8.01957
Pt 9.72064 18.6856 12.5433
Pt 18.828 17.3259 12.8082
Au 9.63262 19.7145 20.8828
Pt 15.9131 18.5654 18.1461
Pt 9.33851 19.5356 10.1733
Au 7.5024 8.77862 19.0563
Pt 16.5995 6.8719 15.5865
Pt 8.69449 20.6682 13.8757
Au 23.6399 13.9461 9.46181
Pt 11.3384 14.7662 7.1432
Pt 11.1157 11.0678 20.967
Au 16.8177 18.1438 23.7013
Pt 15.7884 10.9542 12.0687
Pt 8.61377 12.2742 10.1234
Au 16.8969 10.4455 6.65475
Pt 10.8356 18.2473 8.49735
Pt 8.57098 10.8384 20.4756
Au 20.3097 13.1413 6.10342
Pt 18.2215 18.501 8.39895
Pt 15.1519 6.38981 17.6652
Au 21.9039 14.9245 7.42863
Pt 7.34623 11.1287 12.3335
Pt 14.9879 15.244 9.82548
Pt 6.51597 17.046 15.1213
Pt 11.6112 9.54032 11.9379
Au 15.2341 12.5776 5.20873
Pt 13.2625 9.78177 16.0438
Pt 13.4581 8.2034 18.2906
Au 15.0781 8.51393 21.8822
Pt 16.1597 11.0383 22.168
Pt 18.3487 16.5741 10.2796
Au 22.7488 20.5391 15.6384
Pt 11.9046 11.1727 14.2407
Pt 14.9112 10.2705 19.7781
Pt 11.8491 19.0929 10.8913
Au 12.6719 13.8055 14.1481
Pt 15.9935 9.27053 14.4688
Pt 16.8564 13.7473 22.5027
Pt 21.1716 14.5927 10.1855
Au 11.3714 20.8844 8.82909
Pt 17.4438 19.8743 19.6471
Au 22.1899 15.2539 21.5717
Pt 16.0039 17.6514 20.9073
Pt 20.3672 16.902 17.9568
Au 8.97497 7.15741 17.6054
Pt 5.73273 12.7473 16.0734
Pt 14.1187 21.0545 8.79616
Pt 17.8914 7.74788 17.7437
Au 6.38801 17.7955 17.887
Pt 7.30968 19.4732 15.948
Pt 12.4922 15.4231 19.2314
Pt 18.0646 21.5547 11.1981
Au 15.3712 13.9957 15.5843
Pt 15.948 17.7757 9.50718
Pt 17.8714 15.8141 16.9196
Au 12.429 17.0672 23.7221
Pt 23.6253 15.7426 14.7999
Pt 12.7391 14.8693 22.0095
Au 23.3848 20.133 13.0127
Pt 17.2662 14.1102 10.6111
Pt 14.2965 13.7217 18.2592
Pt 10.6017 14.1074 9.86474
Au 13.9696 6.50333 20.2176
Pt 8.41405 16.2415 16.9993
Pt 17.7921 9.82754 20.4933
Pt 14.4078 18.7279 22.8869
Au 12.9831 14.5742 11.4363
Pt 15.5092 19.7303 15.7439
Pt 16.4814 21.2859 17.6765
Au 5.98427 10.8043 20.024
Pt 17.0855 17.5105 6.28158
Pt 14.6143 19.721 11.0379
Pt 15.9761 9.8705 9.3144
Pt 13.1439 18.2162 15.4102
Pt 13.3275 21.0484 15.4018
Pt 17.9823 17.0793 19.338
Au 16.1469 7.23087 9.23085
Pt 17.4343 18.4111 14.6449
Pt 17.934 20.9737 15.5455
Au 7.87222 17.7643 20.3443
Pt 16.1439 12.5014 20.0112
Pt 9.23322 12.7092 22.1587
Pt 8.27212 15.0127 10.6271
Pt 17.589 13.2041 6.41368
Au 19.247 21.0167 8.76319
Pt 10.6134 14.6519 12.5192
Pt 12.8454 13.1671 8.90455
Au 8.36651 15.3049 21.7107
Pt 17.0876 18.9573 11.5464
Pt 20.5825 10.236 9.638
Au 19.7468 18.0679 6.27751
Pt 13.1994 12.6897 20.3399
Pt 21.6725 19.198 17.696
Pt 7.56194 14.6907 14.8795
Au 10.7426 14.4217 17.4534
Pt 21.1427 10.0612 16.2791
Pt 14.9886 11.4932 17.2018
Pt 21.4587 12.4929 8.5568
Au 15.5451 16.8747 15.9101
Pt 15.1552 14.859 20.7424
Pt 10.4933 16.7479 10.7907
Au 9.26748 16.1026 8.36471
Pt 19.7738 11.3736 14.3933
Pt 12.4588 16.0061 9.08861
Au 19.2358 21.0767 21.1083
Pt 9.67733 16.0945 19.3141
Pt 10.5159 21.1375 12.0015
Pt 18.1056 9.98107 13.1121
Au 6.65323 13.1139 21.3013
Pt 22.0189 17.8237 15.4584
Pt 18.0828 10.6418 10.581
Pt 22.0873 14.9531 18.877
Au 22.5304 10.715 13.9477
Pt 13.4288 17.0919 20.9646
Pt 23.4864 13.9721 16.8902
Pt 19.7249 14.23 17.9844
Au 20.4655 8.56886 14.0328
Pt 15.0092 12.5998 10.2104
Pt 21.4774 12.0814 18.3321
Pt 17.0802 13.3606 17.5845
Au 15.035 18.4129 13.3916
Pt 9.0037 18.7828 18.0361
Au 13.1877 14.5549 24.5748
Pt 19.1944 11.3503 7.79593
Pt 8.2629 13.5029 12.7581
Pt 20.9438 16.8524 11.2389
Pt 17.1442 15.5919 8.15484
Pt 14.7357 16.5455 7.51075
Pt 19.3228 21.0164 18.0055
Au 11.4872 5.92707 14.844
Pt 15.0801 13.8536 7.55246
Pt 18.7371 12.0547 19.3382
Pt 17.1052 11.7081 15.2632
Au 9.8608 8.53421 21.1926
Pt 14.567 11.2808 7.62856
Pt 20.2356 16.6156 8.52779
Pt 16.207 15.239 5.52537
Au 11.2368 6.82678 19.3448
Pt 10.8231 13.9685 20.6285
Pt 20.5583 10.5307 12.1192
Au 12.8305 19.8061 6.62409
Pt 18.9912 15.5232 6.2976
Pt 15.1728 21.7904 19.9147
Pt 15.4206 13.6932 12.7136
Pt 6.36456 15.578 12.64
Pt 12.5363 8.8102 20.6145
Pt 21.07 18.7496 13.2122
Au 14.5365 17.6801 5.12513
Pt 12.0445 10.5044 7.69964
Pt 12.337 17.1749 6.66612
Au 17.709 22.686 19.5772
Pt 14.0703 7.95511 10.7353
Pt 17.6747 16.1306 22.1466
Pt 12.672 10.6645 18.5575
Pt 7.87543 11.7309 15.0112
Au 24.4621 18.3784 14.8792
Pt 13.552 10.3668 10.0527
Pt 9.51222 20.9449 16.2722
Au 6.19755 13.3164 10.9314
Pt 12.7829 21.7451 10.9578
Pt 14.0156 22.3956 13.1776
Au 13.7432 21.2958 22.1322
Pt 13.6896 17.1977 11.2318
Pt 10.0982 12.9789 15.0303
Pt 11.5196 8.64862 9.58652
Au 23.0018 16.6729 9.57476
Pt 13.9537 20.5109 17.8528
Pt 6.13435 12.9822 18.5962
Pt 19.2079 14.8222 12.2318
Au 13.5187 17.6339 18.0738
Pt 13.9051 9.34115 13.0544
Pt 10.7123 16.8061 21.599
Au 14.4544 23.2029 17.6763
Pt 13.5121 10.7066 22.0707
Pt 20.0019 18.9321 19.6105
Pt 7.03928 15.4124 19.2663
Pt 11.3633 18.2899 19.5146
Pt 23.0506 14.8181 12.0369
Pt 17.0562 12.3143 8.74519
Au 18.3867 8.80796 8.59378
Pt 10.3703 10.3552 16.3501
Pt 15.0432 16.0349 23.0688
Pt 9.51831 10.0868 13.8044
Au 18.3711 22.8255 13.718
Pt 8.24255 13.5619 17.0231
Pt 15.7311 15.8927 18.4992
Pt 20.1512 19.6827 15.6066
Au 23.7542 13.1533 14.1546
Pt 14.551 11.6471 14.4479
Pt 7.76553 9.30184 16.1162
Au 17.9093 23.3697 16.7928
Pt 21.1257 13.2046 13.0629
Pt 16.6546 20.4378 9.2677
Pt 13.867 7.27857 15.3937
Pt 8.7214 16.3327 13.1097
Pt 19.5598 19.0796 10.6789
Pt 12.7446 12.6916 6.34144
Au 20.6491 10.682 20.6645
Pt 23.2416 17.3699 12.665
Pt 17.9473 14.4933 20.0793
Pt 9.32 7.61397 15.0029
Au 13.0935 15.4529 16.3372
Pt 9.15418 9.7077 11.0628
Pt 10.2836 12.5084 7.76122
Pt 18.416 9.285 15.7748
Au 23.5195 11.328 16.5556
Pt 13.5865 15.0593 5.67319
Au 9.40909 10.0427 8.40717
Pt 15.2488 6.9829 13.1808
Pt 17.1947 10.4612 18.0324
Pt 12.6057 6.97228 12.6099
Pt 10.9789 17.1663 17.033
Pt 19.6806 9.64345 18.4131
Pt 12.1861 20.9649 19.7944
Au 19.6357 14.4451 22.7355
Pt 8.59175 13.3811 19.5733
Pt 16.1025 8.01101 19.4995
Au 10.4739 14.8757 23.5044
Pt 21.1939 15.8157 13.6701
Pt 12.4917 12.4757 16.5581
Pt 11.152 11.4027 9.98686
Pt 7.85951 17.5216 10.8927
Au 9.87347 7.41215 12.3653
Pt 22.2426 19.08 10.8319
Pt 10.4226 15.6108 15.0028
Au 9.74931 21.3878 18.8093
Pt 14.2433 19.4057 20.204
Pt 18.6317 12.0642 21.852
Pt 14.1675 15.9374 13.6751
Pt 19.5111 17.0087 15.3367
Pt 5.94052 15.2033 16.913
Pt 17.894 12.6472 12.8401
Au 19.3406 8.19316 11.2309
Pt 8.14024 11.1464 17.8854
Pt 9.12857 17.9786 15.1723
Au 5.60701 10.3987 17.3489
Pt 19.1993 14.0247 15.0822
Pt 15.415 19.2092 7.26817
Pt 7.49757 8.75785 13.3988
Pt 16.5821 8.46669 11.545
Pt 15.695 22.4969 15.3246
Pt 11.5466 19.6771 17.3185
Au 22.343 17.5076 19.876
Pt 21.0262 21.3676 13.7094
Pt 7.19374 18.5825 13.2248
Au 20.3659 22.4233 15.9935
Pt 10.5802 12.0772 18.5629
Pt 11.1825 22.1089 14.3734
Pt 19.2348 11.8359 16.8435
Pt 11.3955 7.82682 16.8304
Pt 13.4271 18.5222 8.86431
Pt 17.9862 7.46754 13.5777
Au 13.1477 23.7452 15.314
Pt 21.506 12.7975 15.7184
Pt 14.463 13.0389 22.7272
Au 21.1664 19.0902 8.41867
Pt 16.2194 20.9131 13.2236
Pt 20.0156 16.2095 20.6007
Pt 21.4024 15.313 16.2266
Pt 18.8577 20.1372 13.1628
Pt 10.2725 9.37487 18.7788
Pt 18.3527 18.684 17.2163
Au 20.8381 21.3745 11.1014
Pt 12.8944 20.0257 13.0536
Au 23.5325 16.8379 17.4266
Pt 22.337 12.1922 11.0574
Pt 20.601 13.4531 20.4745
Pt 12.0255 19.2064 21.9068
Pt 13.0916 11.9661 12.0218
Pt 16.3336 20.261 21.8803
Pt 11.0288 19.5202 14.6845
Pt 17.2311 15.4118 14.1763
Pt 19.2141 14.0577 8.49562
Pt 19.6184 12.6085 10.6687
Pt 15.473 22.1535 10.9432
Pt 18.5337 18.5268 21.699
Pt 16.2622 16.3667 11.9519
Pt 11.63 8.55764 14.3687
