286
Atoms. Timestep: 20192
Pt 9.75451 12.2226 21.4689
Pt 11.3616 7.77232 16.3841
Au 9.66806 6.56001 14.4523
Pt 8.89047 11.0125 19.1779
Au 9.25797 8.38375 18.35
Pt 9.89289 12.5157 16.9961
Pt 9.06161 8.83703 15.6019
Au 7.29337 10.3905 11.2762
Pt 10.9447 10.1669 17.4489
Pt 10.9275 9.82974 20.3671
Au 7.2262 12.7036 20.7295
Pt 8.08926 13.2519 15.2006
Pt 7.95023 10.7467 16.7292
Au 6.05016 12.4384 12.8242
Pt 7.21152 12.8449 18.0084
Pt 7.25276 15.1441 19.5231
Au 5.72481 12.2409 15.7074
Pt 9.31285 16.5946 12.8333
Pt 5.87614 14.7027 14.2861
Au 5.62118 14.874 11.5738
Pt 9.20588 11.9563 12.3789
Pt 7.83423 16.3539 15.151
Au 5.42799 17.2819 15.5028
Pt 7.80814 16.1003 10.5702
Pt 8.47804 18.1843 9.14302
Au 6.53527 19.5365 13.8204
Pt 8.08486 18.6691 11.6705
Pt 8.27032 21.353 15.1897
Au 9.89399 23.4746 14.0323
Pt 6.61499 16.9414 12.9558
Pt 9.54986 20.2824 10.202
Pt 11.1436 8.83925 13.9751
Pt 13.4912 6.48812 17.0212
Au 10.6286 6.86991 11.912
Pt 13.2265 11.8034 17.3514
Pt 14.6194 7.44348 19.1666
Au 12.9523 8.45413 21.4819
Pt 8.8275 8.81347 12.8245
Pt 12.9933 8.22852 12.4
Au 9.16146 8.60726 9.96874
Pt 10.0591 11.1761 14.7581
Pt 9.4312 13.6862 19.3664
Pt 15.7795 12.4521 18.1819
Au 10.245 15.1228 14.9976
Pt 11.4769 12.0955 19.3156
Pt 12.1431 11.6612 21.9502
Pt 13.6588 10.5005 19.8471
Au 13.5482 13.0996 24.0877
Pt 11.9585 7.92047 18.9929
Au 10.9198 13.8534 23.2943
Pt 7.50869 13.1902 10.6132
Pt 9.18253 11.436 9.65102
Au 8.63781 13.8244 8.22366
Pt 7.56227 10.7233 14.1079
Pt 11.8277 16.9585 13.1444
Pt 12.2216 11.5031 12.9896
Au 14.0664 13.0049 11.4569
Pt 8.72727 14.993 17.2521
Pt 10.0551 16.3586 19.378
Pt 11.6669 14.5142 20.7584
Au 12.4868 16.4644 15.7981
Pt 6.11792 14.8685 16.8256
Pt 8.90418 14.8058 21.5976
Au 8.10363 17.3665 20.9485
Pt 10.4842 17.216 10.6037
Pt 9.83895 16.198 8.29499
Au 12.4717 18.0477 6.25571
Pt 8.11561 14.3736 12.8784
Pt 10.9563 13.8987 12.8191
Pt 9.81207 14.5368 10.5949
Au 15.2535 17.6043 9.65147
Pt 13.9448 18.5439 13.6529
Pt 9.136 18.7865 14.3241
Pt 9.77903 17.3378 16.5908
Au 14.9519 16.6151 12.2006
Pt 7.17736 17.0511 17.8721
Pt 8.81387 18.8092 18.793
Au 7.88228 21.2053 17.9628
Pt 10.9644 18.7193 8.4728
Pt 12.06 20.6837 9.92141
Pt 13.572 19.3155 8.33402
Pt 12.8788 18.2626 10.9347
Pt 8.69889 21.0314 12.7038
Pt 14.7975 20.0927 10.7074
Au 14.1297 21.9626 8.46737
Pt 10.7056 19.2659 12.3032
Pt 7.43912 19.0163 16.3025
Au 9.86757 22.8043 16.8416
Pt 10.8424 22.1485 11.7732
Pt 12.8712 20.5981 12.505
Pt 12.3426 6.34279 14.2164
Pt 14.6142 7.87653 10.3918
Au 13.8097 5.63176 11.9857
Pt 12.6479 10.4278 15.2867
Pt 17.3407 7.64585 19.0402
Au 16.1304 5.50659 17.593
Pt 11.4187 12.3769 10.5656
Pt 13.0965 13.4165 6.56064
Au 12.5083 10.7066 6.36393
Pt 12.058 7.97088 9.94698
Pt 10.7651 9.88975 11.5113
Pt 15.3672 10.4971 15.9573
Au 16.6936 12.1954 11.5395
Pt 15.8852 7.92649 16.7138
Pt 13.5738 9.1964 17.5036
Pt 18.1095 9.45831 20.8482
Au 13.4075 14.811 13.6299
Pt 15.5969 8.74241 21.0908
Pt 14.3329 10.5555 22.656
Au 16.9206 9.92911 23.1855
Pt 11.5335 15.5506 6.50951
Pt 14.1144 15.9405 6.59187
Au 17.2744 16.5407 5.81083
Pt 10.7268 12.2986 7.54618
Pt 11.6175 14.2807 8.73652
Pt 13.3125 11.9946 8.74404
Au 14.2967 14.4647 8.92044
Pt 16.6471 9.2174 11.5198
Pt 11.9152 13.0667 15.2806
Pt 16.1068 9.84616 18.5591
Au 16.3541 14.788 10.6821
Pt 11.4066 14.5097 17.7056
Pt 10.551 18.9312 20.7897
Pt 16.0415 11.3055 20.7855
Au 15.8693 15.254 18.4459
Pt 14.217 13.0638 21.5988
Pt 10.5728 16.6341 22.1456
Pt 16.2029 12.4994 23.218
Au 13.1949 16.2556 18.4501
Pt 12.8932 15.6028 22.9543
Au 12.2329 18.6226 23.0619
Pt 15.4014 18.0843 6.98537
Pt 16.1495 20.2654 8.38418
Pt 17.7036 18.0776 8.32656
Pt 12.6929 16.7387 8.69635
Pt 17.5528 19.936 10.489
Pt 16.4751 15.7609 8.18008
Au 18.6855 22.4196 10.1742
Pt 12.5222 15.3325 11.0184
Pt 11.7874 18.9151 15.1684
Pt 14.7434 10.179 13.08
Au 15.2869 16.4123 15.0734
Pt 11.4512 18.3713 18.196
Pt 9.94708 20.0581 16.6694
Pt 13.1286 19.7526 19.3924
Au 14.0123 18.5461 17.0449
Pt 10.5294 20.9732 19.0719
Pt 12.6256 17.4245 20.7484
Au 11.9359 21.1845 21.3974
Pt 16.1251 22.3397 10.4043
Pt 13.4813 22.6569 10.9085
Pt 18.1462 21.479 12.6619
Pt 15.285 21.7685 12.7726
Pt 12.3113 23.2206 15.8785
Pt 13.7699 20.9543 14.9411
Au 15.0396 24.3619 12.2757
Pt 10.9615 21.1993 14.4223
Pt 12.4215 20.9981 17.1975
Au 11.9108 23.2603 18.688
Pt 12.731 23.1466 13.3628
Pt 14.8454 23.4631 14.9418
Pt 16.6694 8.36945 8.93036
Pt 19.7235 8.01006 14.7588
Au 16.6609 6.20566 10.6412
Pt 14.8792 5.78561 14.9904
Pt 17.4249 6.42398 15.2059
Au 16.4435 4.88894 13.0574
Pt 17.2715 10.2903 7.46786
Pt 13.9144 9.28934 8.21333
Au 17.4797 12.221 5.64486
Pt 11.3159 10.1062 8.79251
Pt 13.3069 10.3004 10.7694
Pt 15.5788 10.7253 9.58417
Au 19.8017 9.34932 8.17163
Pt 13.9545 8.26616 14.9381
Pt 18.3148 9.06112 16.8364
Pt 19.7505 9.07516 18.9378
Au 14.5828 12.5215 14.4157
Pt 17.0502 8.93597 14.4549
Pt 18.1643 11.4966 19.2173
Au 22.3508 10.1959 18.5573
Pt 15.0398 11.4799 6.83079
Pt 15.7484 14.0483 6.3072
Pt 18.3985 14.4069 7.09113
Pt 16.6293 12.8332 8.48434
Pt 18.8571 15.8024 9.54674
Pt 20.2259 16.7201 11.8851
Au 18.9825 20.4736 8.30161
Pt 18.3503 10.6402 9.9675
Pt 18.5882 14.7021 12.308
Pt 13.6366 13.5387 19.2084
Au 16.6998 14.1273 16.0233
Pt 18.7099 13.6501 17.8984
Pt 16.7759 13.7768 20.5209
Pt 18.8518 13.3651 14.6366
Au 14.0331 14.2817 16.5195
Pt 18.4467 11.8935 21.9527
Pt 15.535 14.9895 23.1591
Au 21.9037 15.0755 20.8536
Pt 19.8229 18.3898 9.83516
Pt 16.4153 19.2511 12.7838
Pt 19.1402 19.0215 12.4051
Pt 17.4989 17.2877 11.1912
Pt 15.9396 19.0014 15.3447
Pt 17.8168 16.9656 13.8788
Au 20.6421 20.7477 10.926
Pt 16.2843 14.4251 13.4054
Pt 15.1389 17.8302 19.6683
Pt 20.8856 13.7462 16.3951
Au 16.8545 17.4335 17.2091
Pt 14.4072 15.5012 20.8064
Pt 14.2297 19.8271 21.6573
Pt 18.0796 14.434 22.6997
Au 16.899 16.4509 21.1506
Pt 14.7867 17.4882 22.6137
Au 17.5809 17.0791 23.562
Pt 16.5844 21.4005 14.9105
Pt 16.9522 23.2926 16.582
Pt 18.4552 19.4897 14.9339
Pt 15.1321 21.1261 17.1716
Pt 16.5656 22.6746 19.0192
Pt 15.901 20.1851 19.417
Au 17.2914 23.8096 13.7391
Pt 14.0317 22.0924 19.7657
Pt 16.792 19.1321 21.7986
Au 16.0399 21.8495 21.6204
Pt 14.3746 23.506 17.5556
Pt 17.6787 20.2108 17.3628
Pt 18.8347 7.97267 10.3445
Pt 18.157 7.00864 12.7481
Au 20.7955 7.47035 12.2722
Pt 15.5081 7.3909 12.9858
Pt 20.223 11.2765 17.4057
Au 21.1804 8.07112 17.0064
Pt 19.2305 11.9657 7.65135
Pt 18.7132 13.2765 9.9509
Pt 21.0153 11.9324 9.52482
Pt 18.9353 9.55489 12.5919
Pt 19.5881 12.0032 12.1563
Pt 21.5339 9.91192 13.2448
Au 19.807 16.7826 7.20648
Pt 17.1207 11.4872 13.9426
Pt 21.6133 12.9628 18.9787
Au 18.978 6.48378 17.3253
Pt 21.4692 16.3316 9.37817
Pt 20.9323 14.2243 11.2155
Pt 20.7043 14.1863 8.30688
Pt 22.9809 12.2376 16.7575
Pt 20.8021 15.1774 13.919
Pt 23.2032 14.6807 17.781
Au 23.1046 13.9491 9.84622
Pt 17.6821 11.5779 16.5645
Pt 20.4316 11.1423 20.342
Au 24.1403 16.9996 16.4982
Pt 21.8782 18.7202 12.4651
Pt 20.4052 17.8543 14.5247
Pt 23.1297 14.1557 12.7218
Pt 22.0692 18.6042 17.5984
Pt 18.4187 15.9822 19.0548
Pt 18.9479 15.7649 16.042
Au 22.4519 18.7202 9.93795
Pt 19.5282 13.777 20.4527
Pt 20.7852 15.4408 18.4741
Au 23.229 16.8551 19.2046
Pt 19.5175 18.0344 17.23
Pt 20.6359 20.6863 13.7622
Pt 22.8404 16.3757 11.4686
Pt 18.0153 18.5033 19.5143
Pt 18.2441 21.0683 20.2819
Pt 20.7188 17.6517 19.7595
Au 22.7431 19.2689 15.0749
Pt 19.5022 16.2957 21.5533
Au 19.4758 19.0242 21.7456
Pt 19.034 22.2305 17.9164
Pt 20.1939 20.0564 18.9658
Pt 21.992 10.1722 15.7189
Pt 20.829 9.71839 10.7166
Pt 19.531 10.6599 14.9023
Pt 22.3626 11.8754 11.7175
Pt 21.2896 12.5668 14.1053
Pt 23.5992 11.8154 14.1789
Pt 23.28 14.4167 15.2311
Pt 22.9551 16.778 13.9981
Pt 21.6224 16.4074 16.2703
Pt 20.5184 20.3715 16.38
Pt 19.0235 22.2019 15.247
