286
Atoms. Timestep: 20416
Pt 16.4026 7.34312 13.2054
Pt 12.1951 10.451 10.0191
Au 8.6069 8.10085 9.81773
Pt 11.6598 16.333 18.9781
Au 11.2964 7.80293 8.82465
Pt 13.352 11.8754 6.20226
Pt 21.8178 18.2517 12.1282
Au 8.15801 12.5195 21.1502
Pt 13.4424 13.9043 8.18072
Pt 9.95928 18.6875 14.3817
Au 22.6953 20.2458 13.9469
Pt 19.8944 18.3511 19.7993
Pt 8.10193 14.1045 13.5127
Au 5.51341 14.9775 10.012
Pt 16.8361 11.5274 18.8173
Pt 15.9095 15.8669 20.5187
Au 21.5388 20.8313 11.3338
Pt 12.0303 15.7199 9.83348
Pt 7.96601 14.0678 16.1954
Au 21.7467 19.3549 21.6036
Pt 19.7515 12.0104 7.96095
Pt 9.90239 10.1166 8.52811
Au 11.4809 7.11215 17.6506
Pt 16.9052 19.6322 8.19641
Pt 9.75601 10.1302 11.2425
Au 13.9925 9.23437 22.2583
Pt 20.8629 11.6239 10.7495
Pt 9.73388 14.8871 10.9323
Au 15.5869 6.7508 10.6584
Pt 11.9134 13.043 10.6407
Pt 18.4246 9.94351 17.4003
Pt 15.8763 19.9579 15.0761
Pt 7.56727 10.8172 9.9998
Au 18.2457 12.9717 5.67862
Pt 22.7085 17.9065 19.6481
Pt 13.0536 8.91068 19.34
Au 10.2093 8.90504 19.3193
Pt 16.0605 10.7549 15.8725
Pt 14.433 11.4459 8.81606
Au 13.1067 11.7233 23.3741
Pt 17.0281 15.2307 22.9896
Pt 15.6141 11.588 22.1776
Pt 12.7849 9.69168 7.5714
Au 12.9647 6.01282 10.4807
Pt 9.99778 14.2446 19.9676
Pt 8.62453 11.7019 15.4192
Pt 10.115 17.0578 8.73351
Au 20.4039 22.5132 18.2371
Pt 13.9138 6.73768 12.9356
Au 20.5251 8.14581 15.3064
Pt 11.9275 15.2716 12.4149
Pt 13.3222 17.3164 16.7211
Au 15.3111 10.0804 6.50842
Pt 6.70019 16.0928 17.4874
Pt 7.37488 13.3492 11.0151
Pt 8.10151 18.3729 17.0243
Au 11.5557 22.3509 16.569
Pt 14.8435 13.9583 22.4348
Pt 12.4712 19.5717 18.3743
Pt 18.4846 16.6191 18.3686
Au 16.1735 17.1939 15.0103
Pt 14.9124 20.095 12.2926
Pt 19.5227 14.5468 17.1426
Au 15.2143 7.30068 19.9523
Pt 21.14 16.2322 18.6397
Pt 15.9902 16.5263 17.5951
Au 16.7878 18.015 5.8082
Pt 16.8192 18.3682 19.5571
Pt 22.8837 18.3455 16.8967
Pt 7.98398 9.15702 16.4273
Au 5.26233 14.0126 12.6016
Pt 13.5607 17.4974 11.5987
Pt 7.69641 7.74147 14.2838
Pt 11.6484 15.1373 16.6911
Au 12.5007 20.7006 21.1248
Pt 17.3985 15.3831 13.2562
Pt 21.6382 15.8125 13.3842
Au 5.37696 13.8562 17.0679
Pt 9.47247 12.5065 9.73232
Pt 14.0944 14.3856 10.9861
Pt 11.9209 10.7609 12.5638
Pt 20.1258 21.1577 13.7691
Pt 21.1167 20.5495 16.2227
Pt 11.9263 13.5482 21.7723
Au 18.0664 23.5976 17.0444
Pt 17.8894 12.62 13.8495
Pt 21.0316 16.1358 10.7558
Au 19.1607 18.5481 7.29363
Pt 18.9978 20.2918 18.3383
Pt 15.3561 13.0361 14.2016
Pt 10.4164 14.1803 14.7095
Pt 13.9078 8.53001 9.62572
Au 9.46874 14.5345 22.61
Pt 12.1167 18.1008 20.8207
Pt 20.9021 18.3653 14.5926
Au 12.1192 23.36 13.7378
Pt 18.1941 14.1516 7.96309
Pt 19.7977 14.3855 14.6041
Au 8.02524 20.1885 19.061
Pt 10.6941 17.659 16.7035
Pt 6.17482 15.439 14.7897
Pt 13.3068 15.4218 20.7854
Au 12.6068 18.7034 23.2707
Pt 17.1383 14.2736 18.5545
Pt 17.973 12.4317 16.4547
Pt 17.1931 11.4439 7.9789
Au 10.9153 10.7063 5.93378
Pt 12.5103 18.1957 8.85309
Pt 14.6307 15.6786 13.2076
Au 7.45001 15.1786 20.547
Pt 13.7552 21.4117 14.2844
Pt 15.9728 13.7862 9.1591
Au 19.522 7.616 17.84
Pt 11.6353 16.2374 22.6196
Pt 14.1123 15.0388 15.5545
Pt 9.58703 16.3925 13.0127
Au 11.2491 13.6306 5.8039
Pt 18.3772 12.6146 10.1286
Pt 7.71923 17.5597 19.4768
Pt 21.6745 20.0873 18.7795
Au 9.01336 12.3203 7.02128
Pt 14.9484 13.1629 19.9246
Pt 22.241 13.8347 11.8157
Pt 13.9873 18.3425 14.1326
Au 24.849 16.65 16.1507
Pt 24.1534 14.1285 16.3988
Pt 16.7612 17.8914 22.4321
Pt 19.5893 14.5145 19.8302
Au 15.5394 5.90165 15.3523
Pt 14.8218 20.6429 19.5474
Au 17.4107 22.2516 9.05295
Pt 17.4396 8.20991 15.591
Pt 20.119 12.2634 21.2235
Pt 15.7675 9.0303 17.7277
Pt 14.4114 16.6413 22.7807
Pt 16.7415 18.1954 12.5174
Pt 18.8769 10.0563 9.53877
Au 10.9709 21.7821 11.5587
Pt 9.89074 20.2595 16.8261
Pt 17.0484 14.7816 15.765
Pt 19.3446 16.9099 12.6469
Au 14.3389 16.9402 5.07215
Pt 12.4948 16.1438 7.10961
Pt 18.8037 8.32043 13.262
Pt 20.67 13.9275 9.42439
Au 21.2005 18.5173 9.46735
Pt 10.0982 7.2007 15.0881
Pt 23.6539 15.8306 18.3941
Au 19.0586 22.3156 11.4231
Pt 9.43719 9.76807 13.919
Pt 8.53875 17.6812 10.7165
Pt 20.5624 12.1498 16.2533
Pt 13.6023 22.2418 11.7411
Pt 18.3689 15.319 10.34
Pt 15.3921 13.1101 16.9744
Au 6.87276 13.0038 8.46593
Pt 20.9484 9.60988 12.6613
Pt 18.2045 15.8663 6.17571
Au 24.24 15.0211 13.7879
Pt 22.0823 10.4006 14.9042
Pt 14.1922 17.6213 19.4129
Pt 16.6637 21.0905 17.7932
Pt 12.0701 8.69373 14.1058
Au 10.4834 21.3146 19.2904
Pt 17.2472 20.3643 20.9083
Pt 17.0583 16.8948 8.42328
Au 5.06223 16.8557 12.9131
Pt 16.2411 22.5906 11.5083
Pt 17.3432 21.1261 13.3007
Au 5.92069 17.9656 15.548
Pt 17.1722 20.2301 10.8095
Pt 19.1392 18.9157 22.1491
Pt 7.62422 11.5332 12.7193
Au 19.1304 16.8046 23.682
Pt 12.7548 13.23 13.6453
Pt 18.4958 21.2161 15.8646
Pt 14.6715 18.2709 7.37708
Au 20.4112 23.118 15.5768
Pt 9.73135 16.7211 20.9091
Pt 14.1952 11.8422 11.7344
Au 10.2716 5.99954 10.5948
Pt 9.20941 15.7867 18.0405
Pt 11.6031 10.9371 18.0819
Pt 13.1527 11.3506 20.6973
Pt 15.2852 18.587 9.98833
Pt 15.6129 15.5073 6.93906
Pt 10.0449 12.5916 12.5462
Au 16.9008 6.59489 17.7486
Pt 19.8521 20.9573 20.6137
Pt 19.373 12.1808 18.713
Pt 7.50373 17.9371 13.4215
Au 9.01735 19.9268 12.1811
Pt 14.2105 11.1563 18.2116
Pt 21.0243 16.6082 21.4373
Pt 14.419 16.2699 9.05188
Au 11.4062 9.60157 21.7218
Pt 23.153 11.6686 16.9308
Pt 17.9332 10.8143 21.1197
Au 24.187 13.202 19.0197
Pt 17.6434 8.61081 19.5741
Pt 16.0944 22.5358 15.4903
Pt 7.1977 15.8495 11.83
Pt 12.8215 20.0246 10.5219
Pt 10.4578 9.29377 16.4742
Pt 13.7595 14.3914 5.50886
Au 9.86948 19.4943 21.4419
Pt 8.03372 15.3442 9.14719
Pt 14.0572 21.352 16.8917
Pt 11.4516 6.14462 13.0492
Au 10.2214 19.7083 9.64486
Pt 12.7907 6.53837 15.3407
Pt 10.3948 14.4985 8.17161
Pt 20.5468 12.0728 13.4705
Au 24.5395 12.0545 14.6419
Pt 19.8737 16.2551 8.34063
Au 7.76475 20.1356 14.9918
Pt 11.5857 12.1316 8.1154
Pt 18.3942 16.5021 21.0286
Pt 21.8938 11.713 19.2986
Pt 12.0063 19.7146 12.9716
Pt 16.1108 16.2038 11.0037
Pt 23.3311 17.6028 14.2685
Au 17.8989 22.6266 19.6291
Pt 19.0426 10.3629 14.8782
Pt 11.889 16.7975 14.4497
Au 17.9646 12.5115 23.3446
Pt 15.7074 12.9141 6.5457
Pt 8.852 10.9696 18.1724
Pt 8.6557 16.4199 15.3864
Pt 16.4911 10.1603 13.376
Au 6.39093 11.3082 17.0883
Pt 10.1115 18.5651 19.0088
Pt 14.0304 15.0567 18.2448
Au 12.9213 22.504 19.0102
Pt 10.1577 13.0725 17.3383
Pt 14.6816 19.0232 21.5489
Pt 7.32592 9.08994 12.0471
Pt 17.6405 18.6699 16.8799
Pt 6.58714 10.0697 14.4971
Pt 17.417 13.4638 20.9909
Au 16.3306 14.783 4.55573
Pt 9.46731 7.65818 12.4287
Pt 13.8597 10.8481 14.3943
Au 12.9091 14.5096 24.0845
Pt 19.6229 13.979 12.0361
Pt 14.4272 9.17688 12.0928
Pt 14.7996 8.42663 14.9415
Pt 22.308 13.4569 14.7478
Pt 19.367 20.3977 9.4214
Pt 7.71036 13.3826 18.6157
Au 13.7629 23.8717 15.9652
Pt 18.6678 10.8323 12.0665
Pt 14.1699 7.07626 17.4428
Au 18.1738 23.5036 13.9949
Pt 6.15796 12.6679 14.7486
Pt 12.2997 13.3562 19.0638
Pt 14.975 21.1472 9.57523
Pt 17.355 8.64295 11.145
Pt 12.2407 19.697 15.679
Pt 20.34 18.2321 17.1589
Au 10.2443 21.4479 14.2857
Pt 10.4491 11.6388 20.256
Pt 18.4197 18.9814 14.4064
Au 14.9849 23.8185 13.4643
Pt 15.0389 19.035 17.37
Pt 12.8996 12.7278 16.3972
Pt 15.4657 9.91682 20.2622
Pt 21.9374 15.9778 16.0331
Pt 11.0274 17.825 11.3721
Pt 19.4237 19.4549 11.9955
Au 15.4416 23.3968 18.2042
Pt 19.6106 14.5035 22.4375
Au 10.2911 11.8629 22.9227
Pt 16.3076 10.9739 10.6149
Pt 13.083 9.37528 16.5755
Pt 19.9599 9.85728 19.7039
Pt 18.5331 17.9488 10.1397
Pt 16.4806 13.4175 11.7774
Pt 16.2547 9.11445 8.81432
Pt 21.8938 13.8429 17.7716
Pt 11.8604 8.24911 11.4663
Pt 21.1015 9.87931 17.3635
Pt 22.9037 11.5285 12.6671
Pt 11.1957 11.4073 15.0688
Pt 19.019 16.6585 15.497
Pt 22.0772 14.29 20.4139
