286
Atoms. Timestep: 20187
Pt 6.93985 11.8261 19.0855
Pt 9.94358 8.68443 18.9798
Au 8.22209 7.9233 16.9491
Pt 6.38907 10.2984 17.0738
Au 7.32097 9.14581 19.278
Pt 7.91749 12.2394 16.0247
Pt 7.59062 9.61971 14.906
Au 6.20746 9.95162 12.4139
Pt 9.08452 10.4733 17.3863
Pt 9.1298 10.9372 20.1905
Au 8.47847 13.3915 21.1354
Pt 6.32818 14.0229 14.6091
Pt 5.60111 11.4548 14.7971
Au 5.18526 12.7437 12.4088
Pt 5.69627 12.9453 17.0876
Pt 6.90912 14.4888 19.028
Au 5.15796 15.4951 16.945
Pt 8.31124 16.252 13.0479
Pt 5.6647 15.6038 12.6679
Au 5.85665 14.3475 10.084
Pt 9.25491 13.8887 14.3719
Pt 6.72544 16.7164 15.1778
Au 6.05344 19.313 15.4553
Pt 7.10258 16.6269 10.5766
Pt 8.48697 18.6432 9.10309
Au 6.24659 19.4273 10.5127
Pt 8.45896 18.6133 11.7151
Pt 7.16401 20.6526 12.9475
Au 8.69376 23.0333 12.0004
Pt 6.13402 18.1318 12.8961
Pt 8.64621 20.883 10.4857
Pt 9.92247 8.34551 14.8215
Pt 13.5553 7.39982 16.9321
Au 10.7644 7.39535 12.2835
Pt 10.9639 7.33494 16.9936
Pt 12.493 8.56714 19.0115
Au 13.81 8.5219 21.4899
Pt 9.04196 9.54502 12.6137
Pt 11.7973 9.74077 13.2548
Au 7.91161 9.50355 10.239
Pt 9.94332 11.0241 14.7345
Pt 9.03931 13.0684 18.445
Pt 11.563 9.76842 16.4851
Au 10.7773 12.9811 16.4716
Pt 11.3509 11.2362 18.7316
Pt 11.0387 12.3207 21.3723
Pt 13.5751 10.9187 20.2761
Au 13.0135 11.1764 22.8987
Pt 11.3557 9.74142 21.0413
Au 12.5407 13.914 23.5578
Pt 7.16144 11.9931 10.6329
Pt 9.2627 11.575 9.1041
Au 7.33196 13.2981 8.04039
Pt 7.761 11.8159 13.3542
Pt 9.8295 16.3241 15.338
Pt 11.6595 12.5234 13.4641
Au 13.4859 13.8109 11.8085
Pt 7.8417 14.7945 16.573
Pt 9.57815 15.8527 18.0389
Pt 11.1528 14.1008 19.3802
Au 12.0238 15.3508 16.8728
Pt 8.70718 15.9288 20.4171
Pt 10.7922 14.9889 21.7979
Au 9.94435 17.8254 21.9083
Pt 9.79885 16.749 10.4626
Pt 8.46804 16.0152 8.23853
Au 12.767 16.9605 6.69849
Pt 7.63167 14.0386 12.1402
Pt 10.329 14.6248 12.1413
Pt 8.90124 14.1878 9.9456
Au 14.8843 18.1015 8.92969
Pt 12.0828 15.0374 14.1391
Pt 8.42705 18.5839 14.2268
Pt 8.63051 18.2057 16.6901
Au 13.3058 18.3742 12.3631
Pt 7.02327 16.9634 18.2019
Pt 9.05192 18.3391 19.3355
Au 7.09248 19.8258 18.022
Pt 10.3889 17.9475 7.58604
Pt 10.7309 20.2724 8.74414
Pt 12.9565 19.5651 7.56964
Pt 10.8695 19.2873 11.1089
Pt 9.68135 20.8161 13.1273
Pt 13.3595 20.228 10.3367
Au 12.8184 22.2405 8.72512
Pt 10.7072 17.5112 13.0483
Pt 8.28474 20.8014 15.5696
Au 9.06493 23.0943 14.6669
Pt 11.0303 21.9747 10.7691
Pt 12.1794 20.7556 12.9631
Pt 12.3551 7.37487 14.5217
Pt 12.8198 8.65281 11.0341
Au 13.6286 6.4012 12.3615
Pt 13.7866 9.43605 15.1639
Pt 15.0098 7.76486 19.1054
Au 16.1188 6.12174 17.1834
Pt 12.4585 11.3073 10.9902
Pt 11.6775 11.319 8.22642
Au 13.9439 11.4907 6.61707
Pt 10.5748 9.67273 10.4024
Pt 9.80078 11.9701 11.6646
Pt 15.7847 11.1072 15.1097
Au 15.8286 13.6149 10.4502
Pt 15.9035 8.76014 16.8433
Pt 13.9605 10.2929 17.6896
Pt 18.2059 8.72283 19.0237
Au 13.206 12.1142 15.7543
Pt 16.0214 10.0953 19.4076
Pt 15.5812 10.5354 21.991
Au 16.5576 8.01917 21.2111
Pt 11.0809 15.6393 8.43219
Pt 12.5396 13.8103 7.13989
Au 15.5371 19.094 6.43893
Pt 9.96706 13.4933 7.55687
Pt 11.4533 13.4797 9.88195
Pt 13.8385 12.5653 9.10567
Au 13.7228 15.3766 8.91556
Pt 14.0317 11.3661 13.1453
Pt 14.5172 14.3949 16.6428
Pt 15.9492 12.2065 17.6426
Au 14.8947 16.4198 11.218
Pt 13.4015 12.8875 18.4606
Pt 11.356 16.823 19.9157
Pt 15.7539 12.6327 20.2289
Au 16.3525 14.9207 18.5122
Pt 13.3021 13.5216 21.0576
Pt 13.2295 16.1267 21.8948
Pt 17.5086 12.3264 22.2749
Au 13.5799 15.5335 19.1713
Pt 15.092 13.0243 22.9277
Au 14.8414 15.4688 23.9553
Pt 15.3416 16.4706 6.77038
Pt 15.0779 20.8061 8.38831
Pt 17.5244 17.786 7.89992
Pt 12.2574 17.8779 9.41868
Pt 16.5989 19.6177 10.2755
Pt 16.4265 15.7241 9.00085
Au 17.6628 20.4082 7.91296
Pt 12.2272 16.0395 11.2626
Pt 12.3786 17.5664 15.1399
Pt 14.7212 13.7941 14.1929
Au 14.4508 16.496 14.0025
Pt 11.1769 17.9301 17.5335
Pt 9.79313 20.4863 17.6371
Pt 13.3586 18.6233 19.1429
Au 14.3276 17.1759 16.9849
Pt 11.1539 19.8135 19.7766
Pt 12.5044 18.5257 21.6817
Au 12.6607 21.1838 21.437
Pt 15.6886 22.1461 10.4292
Pt 13.4075 22.7878 11.4881
Pt 17.3557 21.3667 12.3285
Pt 14.8232 20.7624 12.5224
Pt 11.3745 21.9611 15.5277
Pt 13.6628 19.9155 14.878
Au 15.8411 23.5185 12.904
Pt 10.7066 19.4766 15.1949
Pt 12.3961 20.1572 17.2296
Au 11.5934 22.3482 18.5248
Pt 11.2209 23.171 13.1131
Pt 13.689 22.6805 14.2015
Pt 15.1664 7.80007 10.4873
Pt 19.5384 9.06548 14.9168
Au 17.8481 6.93863 10.3451
Pt 15.0222 6.95897 14.8025
Pt 18.3537 7.65556 16.7375
Au 17.734 5.99896 14.793
Pt 16.1658 11.5317 8.20207
Pt 16.6281 9.23896 9.04891
Au 17.5769 12.7318 6.06015
Pt 13.8295 9.83741 8.87585
Pt 15.2349 10.7881 10.8312
Pt 17.2101 9.26073 11.8006
Au 18.0304 11.5198 10.5251
Pt 14.7162 8.87637 12.8488
Pt 17.7813 10.4971 16.7416
Pt 20.4881 9.91456 19.9693
Au 16.5567 12.4996 12.7472
Pt 16.9944 8.74717 14.4317
Pt 18.2191 11.5226 19.2552
Au 22.7631 10.0117 18.4957
Pt 15.3514 13.8632 7.20859
Pt 17.8176 15.4456 6.70073
Pt 19.8974 13.9927 7.07871
Pt 17.7644 13.5531 8.59939
Pt 19.2727 15.7902 9.19832
Pt 19.9394 16.8253 11.7417
Au 20.249 16.882 7.11996
Pt 18.4448 14.3821 11.2215
Pt 16.6494 15.2891 12.895
Pt 17.218 13.2514 15.5973
Au 18.9968 14.1418 13.8055
Pt 18.6633 13.7135 17.9176
Pt 18.1993 14.06 20.471
Pt 20.754 12.11 18.4843
Au 19.005 15.7415 16.173
Pt 18.2205 10.0373 21.361
Pt 17.3554 14.9866 22.95
Au 19.4991 13.4767 23.6108
Pt 19.4257 18.5824 9.40971
Pt 16.1785 18.5218 12.7137
Pt 18.7681 19.1466 11.8855
Pt 17.5138 17.0969 10.8527
Pt 16.1637 18.4341 15.2882
Pt 18.3353 17.1686 13.8876
Au 18.9783 21.2568 10.1571
Pt 16.4746 15.7767 15.5586
Pt 15.3775 17.3518 19.8461
Pt 21.0257 14.2509 19.8177
Au 17.164 17.4151 17.6756
Pt 15.5268 15.0488 21.1691
Pt 14.8378 19.5693 21.3741
Pt 19.8476 15.4981 21.9254
Au 17.8055 16.7612 20.6147
Pt 15.8454 17.4219 22.4496
Au 18.418 17.4938 23.2596
Pt 16.0359 21.1987 14.8759
Pt 16.089 23.4729 15.7344
Pt 18.2162 19.8874 14.3592
Pt 14.99 19.8856 17.1127
Pt 16.1499 22.2074 18.039
Pt 16.3468 19.6919 19.2514
Au 18.3624 22.9548 14.2223
Pt 13.9843 21.2476 19.2407
Pt 17.7271 19.4391 21.4046
Au 16.1071 21.8647 20.8917
Pt 13.8372 22.3408 16.7367
Pt 17.6634 20.2024 16.9441
Pt 19.0569 9.11014 9.59247
Pt 19.0656 7.42017 12.8047
Au 21.102 7.90433 10.8049
Pt 16.4328 6.78617 12.5952
Pt 22.0765 8.93843 15.9331
Au 20.4988 6.64964 15.3425
Pt 19.0201 11.3081 7.97129
Pt 20.1356 13.1708 9.6135
Pt 21.0068 10.6897 9.79584
Pt 19.7818 9.83078 12.0542
Pt 20.4126 12.3858 12.0934
Pt 22.3144 11.5652 16.3541
Au 21.7529 12.1696 7.66383
Pt 18.3625 11.134 13.8689
Pt 20.1494 9.94084 17.3437
Au 20.7921 7.59145 18.1196
Pt 21.8636 14.8135 8.67212
Pt 21.3858 14.7446 11.6004
Pt 22.662 12.7526 10.2208
Pt 21.5843 13.5445 14.4646
Pt 20.9735 16.0349 14.1642
Pt 23.2803 13.1962 18.0759
Au 23.7513 15.338 10.6136
Pt 19.7017 12.2321 15.9218
Pt 22.4388 12.0092 20.4071
Au 23.8059 14.3526 20.4424
Pt 21.6144 17.0906 9.73156
Pt 20.6411 18.6517 13.8545
Pt 23.4927 15.1304 13.3474
Pt 21.4528 16.9839 16.6245
Pt 19.8341 16.3166 18.8252
Pt 21.1536 14.3182 17.0095
Au 21.41 19.5507 11.1103
Pt 19.9818 12.215 21.2786
Pt 22.056 16.3968 20.8449
Au 21.9564 13.8892 22.3884
Pt 19.4543 18.4954 16.3234
Pt 20.0749 21.2046 12.801
Pt 22.5243 17.336 12.1983
Pt 18.9229 18.8741 19.0357
Pt 18.3124 21.512 19.3834
Pt 21.5624 18.4258 18.8644
Au 22.6051 20.2775 13.6841
Pt 20.122 18.0346 21.2053
Au 20.4968 20.5352 20.5637
Pt 18.4684 22.5641 16.816
Pt 20.354 20.7414 17.8843
Pt 21.6156 8.32825 13.4201
Pt 22.4931 10.2675 11.8381
Pt 21.153 10.9296 14.0939
Pt 23.6103 10.46 14.2691
Pt 23.231 12.6149 12.6725
Pt 24.0612 12.9886 15.1504
Pt 23.3697 15.2913 15.9702
Pt 23.1087 17.6285 14.6812
Pt 22.8249 15.8947 18.4763
Pt 22.0111 19.4677 16.2526
Pt 20.2276 21.1515 15.3652
