286
Atoms. Timestep: 20276
Pt 10.8494 8.69865 20.8217
Pt 11.4456 7.15398 14.4134
Au 9.97297 8.23654 9.46566
Pt 9.38612 9.08963 18.569
Au 10.8833 6.83369 18.7592
Pt 8.55874 12.6132 16.1554
Pt 10.1006 7.71548 16.3981
Au 6.53639 9.64583 12.799
Pt 14.2895 9.72678 17.3365
Pt 13.2207 9.60745 21.7646
Au 7.47043 8.42173 16.7346
Pt 7.40236 14.2495 14.3294
Pt 6.89495 10.5641 15.259
Au 5.73233 13.566 10.6278
Pt 9.41198 10.1845 16.0059
Pt 7.88487 12.7579 20.1731
Au 4.78394 14.5283 13.9388
Pt 11.2326 15.3844 12.559
Pt 6.93559 13.7904 18.0036
Au 5.51624 15.498 16.4635
Pt 8.95892 16.4365 13.5309
Pt 8.5263 15.2117 16.3263
Au 6.81197 15.2465 20.339
Pt 8.78841 18.1796 9.62963
Pt 13.9472 16.5721 8.74529
Au 6.48965 18.8125 16.5767
Pt 7.5639 19.2613 14.0466
Pt 10.0175 19.4704 20.596
Au 9.21151 21.7579 13.787
Pt 6.53976 16.8437 14.4716
Pt 7.40018 17.84 11.8401
Pt 10.842 9.79122 13.5948
Pt 12.9528 7.25785 16.8608
Au 12.7045 7.43348 10.0264
Pt 16.7944 10.5791 15.5873
Pt 12.9507 8.27659 19.3899
Au 19.4107 9.49162 21.4658
Pt 7.3099 11.4921 10.912
Pt 11.5541 9.86951 10.9263
Au 8.23478 11.266 8.30478
Pt 8.739 11.4564 13.599
Pt 7.56017 11.0311 17.9931
Pt 15.9107 12.0068 18.289
Au 13.0583 16.6931 17.0988
Pt 11.9335 10.746 19.6748
Pt 11.1815 11.1168 22.2655
Pt 13.9961 12.1044 20.3567
Au 16.5936 14.4993 24.4962
Pt 15.7651 10.388 22.1247
Au 13.899 14.2419 24.293
Pt 8.92863 9.57701 11.6008
Pt 8.17262 13.7523 9.46959
Au 6.78511 16.1737 9.51218
Pt 6.22417 12.3417 13.1365
Pt 11.0829 18.6772 16.5613
Pt 11.1032 12.3954 12.5429
Au 13.4876 13.7959 12.4098
Pt 10.071 13.9293 14.4102
Pt 10.938 14.0647 16.928
Pt 10.8613 13.079 20.5684
Au 12.7187 14.6296 18.8766
Pt 5.87732 12.8298 15.8749
Pt 9.2438 10.7034 20.5098
Au 8.86892 12.3478 22.6361
Pt 11.4355 16.4834 9.64361
Pt 14.3307 13.1648 5.90096
Au 11.7212 13.919 5.57634
Pt 6.6344 15.4126 12.1425
Pt 10.9524 14.0914 10.2688
Pt 9.04709 15.886 10.9241
Au 16.8588 19.9697 7.09822
Pt 12.6087 18.2903 13.4746
Pt 8.72752 17.6794 15.8571
Pt 9.26149 14.5244 19.0017
Au 15.4543 18.4798 13.324
Pt 9.07727 14.8346 21.7457
Pt 7.35982 16.6467 18.087
Au 10.0463 17.41 22.5996
Pt 9.2868 15.836 8.2806
Pt 12.486 20.446 8.15983
Pt 13.1155 18.1968 6.78385
Pt 14.3807 20.2013 11.3432
Pt 8.95554 20.4003 16.0942
Pt 12.7313 21.9509 10.4534
Au 14.695 21.8582 8.28034
Pt 10.517 17.9401 11.6891
Pt 8.81757 18.8651 18.2791
Au 10.2414 22.9439 16.1431
Pt 10.4839 20.2397 9.78087
Pt 11.6134 20.3632 12.2343
Pt 8.66413 8.50145 14.1188
Pt 15.5267 11.9609 11.3092
Au 12.6794 5.7955 12.3137
Pt 11.1528 16.389 15.1062
Pt 15.1931 7.33371 18.5797
Au 15.2094 5.58775 16.5046
Pt 9.81244 11.76 10.371
Pt 10.3206 13.1861 7.88817
Au 14.7795 10.3946 6.31214
Pt 10.7971 10.4736 8.39367
Pt 8.63784 13.5918 12.0755
Pt 15.2417 9.48483 13.5914
Au 15.6561 17.7964 10.6789
Pt 12.9851 9.28063 15.1209
Pt 11.4377 11.6945 15.359
Pt 19.259 8.62043 18.7731
Au 12.9072 13.9465 15.0815
Pt 17.8498 11.7435 22.6073
Pt 13.5075 11.8949 23.0368
Au 15.7973 11.8813 24.4674
Pt 13.8698 15.7246 6.00008
Pt 16.6668 12.2783 6.62032
Au 16.6052 14.7905 5.26311
Pt 11.4984 16.1166 6.99755
Pt 12.7971 14.1922 8.181
Pt 14.6429 14.3252 10.1263
Au 15.9317 15.5516 12.4157
Pt 17.6894 8.5468 13.7329
Pt 10.0667 11.8962 18.2123
Pt 15.0457 9.86605 19.79
Au 19.9122 18.2346 7.43479
Pt 11.6478 9.65396 17.3542
Pt 11.6371 18.1195 19.2593
Pt 17.743 10.856 19.9779
Au 15.8203 13.1904 13.9257
Pt 13.1568 14.1827 21.6339
Pt 11.1641 15.8543 20.6836
Pt 15.7134 13.1658 22.166
Au 15.0788 14.4338 16.8787
Pt 12.507 16.3335 23.0518
Au 11.1407 13.8071 23.3315
Pt 10.7788 18.4007 7.96968
Pt 15.7508 17.3682 6.92549
Pt 21.8298 14.7036 9.32195
Pt 14.7242 19.1683 8.55646
Pt 21.3866 16.543 11.3993
Pt 15.6338 14.6911 7.63323
Au 22.1532 17.3499 8.92181
Pt 12.6282 18.7266 10.1418
Pt 10.3528 20.9436 18.257
Pt 13.3108 11.149 12.9803
Au 13.428 16.5118 11.6052
Pt 10.3038 16.5202 17.8631
Pt 8.89086 17.0709 20.2045
Pt 14.062 19.0056 19.6676
Au 14.1846 16.2327 14.5183
Pt 12.3167 22.6492 17.8771
Pt 12.2773 18.7618 21.7794
Au 12.1442 21.1996 20.411
Pt 16.5397 20.5393 9.75477
Pt 8.84469 20.0087 11.7959
Pt 19.9642 18.4781 10.1123
Pt 15.4381 22.6587 10.6863
Pt 11.6665 20.9098 15.3278
Pt 13.8221 20.9192 13.8292
Au 10.0884 22.4451 11.1732
Pt 10.148 19.0221 14.0495
Pt 12.7355 20.0904 17.8769
Au 14.6777 23.9825 17.4363
Pt 11.6958 22.694 13.2572
Pt 12.9082 23.4373 15.3546
Pt 14.237 9.79627 10.7625
Pt 15.8468 8.0768 15.855
Au 15.4875 7.74903 9.29108
Pt 14.0957 6.855 14.3996
Pt 18.6538 8.49499 16.1377
Au 16.6867 6.12806 14.1016
Pt 16.9408 13.001 9.17527
Pt 13.3157 9.6653 8.44911
Au 20.7822 15.5329 6.9924
Pt 14.5874 12.146 8.44958
Pt 12.6298 12.0889 10.0692
Pt 16.9755 15.6624 9.57014
Au 18.4053 8.63697 9.18186
Pt 14.4056 11.6013 15.4623
Pt 17.1617 8.31892 20.3983
Pt 21.8901 12.9754 19.5975
Au 17.219 15.473 14.9734
Pt 15.1371 7.19941 11.946
Pt 19.8777 12.1647 21.1727
Au 23.159 10.8885 17.9633
Pt 20.5235 10.4386 9.69526
Pt 12.4383 11.7529 6.9872
Pt 18.0567 16.3124 7.05305
Pt 18.6426 13.8922 7.35166
Pt 19.5518 15.9368 9.33047
Pt 20.1168 18.5105 12.7575
Au 21.1576 12.5915 7.68759
Pt 12.9473 8.4357 12.6016
Pt 20.0939 11.6868 12.3963
Pt 15.2844 14.4635 19.8207
Au 18.4132 16.536 11.7598
Pt 17.4398 13.0515 16.3639
Pt 17.5304 13.3627 20.2595
Pt 21.241 13.2056 14.4352
Au 13.0447 12.2439 17.66
Pt 20.0821 14.6463 20.6245
Pt 15.3785 15.7235 22.4113
Au 22.3152 16.2166 20.3197
Pt 17.6108 18.1724 8.91324
Pt 17.7987 19.2888 11.6289
Pt 18.1226 22.0446 11.2061
Pt 22.3401 18.9776 11.2704
Pt 16.3072 20.3288 15.2002
Pt 19.8824 16.109 13.9885
Au 17.0506 23.8966 12.8109
Pt 20.5458 14.2227 11.954
Pt 15.2591 16.7732 18.6427
Pt 21.243 12.3461 16.9076
Au 16.1365 17.5053 16.2242
Pt 13.6275 16.6694 20.6782
Pt 14.5457 20.4181 21.6127
Pt 18.3512 14.3638 22.5944
Au 17.4496 17.1283 23.3445
Pt 14.5088 18.1173 23.0348
Au 20.0431 16.6752 22.2985
Pt 14.1469 23.2601 12.7265
Pt 19.1053 21.983 17.7438
Pt 16.2623 21.3279 12.8499
Pt 14.2255 21.5187 16.4044
Pt 16.623 22.0752 17.4572
Pt 16.017 18.0544 20.9929
Au 19.0532 20.6643 8.86114
Pt 14.5783 21.7355 19.181
Pt 18.5547 18.6285 21.2072
Au 16.7814 19.844 22.8305
Pt 15.5447 23.1267 14.9204
Pt 17.5021 18.0992 18.6987
Pt 20.3049 8.81368 14.0712
Pt 20.9832 9.5974 16.7661
Au 17.8015 6.84817 11.5275
Pt 10.5223 7.55031 12.0107
Pt 20.7134 10.7029 19.209
Au 17.588 6.61719 17.7327
Pt 18.7356 11.2595 7.93953
Pt 19.6225 13.2123 9.7359
Pt 16.2795 10.2677 8.71964
Pt 17.4892 11.1549 13.0738
Pt 17.7644 13.7152 11.5737
Pt 22.0073 10.6162 14.594
Au 24.7422 14.1213 13.8544
Pt 18.6886 13.5046 13.9632
Pt 19.3631 13.22 18.5294
Au 14.8123 7.55738 21.3329
Pt 23.336 14.4341 11.3987
Pt 22.4286 15.3928 13.5922
Pt 18.1672 11.1721 10.5361
Pt 22.0355 12.3169 10.441
Pt 19.7053 14.5464 16.2181
Pt 23.0112 12.296 12.8341
Au 23.7246 16.5557 17.7681
Pt 16.8378 9.31467 17.9481
Pt 17.6075 15.2905 18.0701
Au 24.4346 16.7193 15.0179
Pt 20.3357 20.8032 11.3717
Pt 20.4481 19.0098 15.3671
Pt 22.9548 14.5653 16.0033
Pt 22.9827 18.9373 16.0897
Pt 13.8127 18.9267 15.7198
Pt 17.9872 18.1077 14.3114
Au 24.1183 16.9066 11.9413
Pt 19.6693 16.8475 19.4141
Pt 21.4846 18.0558 18.121
Au 23.9341 13.5654 18.148
Pt 18.3406 19.8059 16.6454
Pt 21.719 20.5469 13.5789
Pt 22.4988 18.0465 13.7135
Pt 21.3063 20.5007 17.4227
Pt 16.892 20.4942 19.9362
Pt 20.4045 21.7321 15.4409
Au 19.8495 22.9791 13.0846
Pt 17.5312 15.994 20.7088
Au 21.2617 18.7174 20.7574
Pt 15.6276 19.6403 17.7359
Pt 19.4753 19.7691 19.052
Pt 19.4051 11.1069 14.9853
Pt 16.6733 9.23473 11.2976
Pt 18.7473 10.9924 17.4717
Pt 19.3639 9.11473 11.713
Pt 23.654 12.2145 15.6009
Pt 21.8808 9.97656 12.0328
Pt 21.3516 15.1078 18.1236
Pt 21.5909 16.6783 15.8886
Pt 19.1071 17.1495 16.7485
Pt 18.765 20.6087 13.6986
Pt 17.9955 22.5545 15.1846
