286
Atoms. Timestep: 20399
Pt 18.4255 16.6843 11.5029
Pt 9.32701 9.92051 14.0562
Au 18.9666 8.85417 20.2621
Pt 9.14846 10.6364 19.5622
Au 15.1656 6.12198 14.5256
Pt 7.5515 12.8997 19.3166
Pt 12.0896 8.95882 9.09019
Au 19.5403 15.3639 22.9508
Pt 14.2452 8.68672 15.486
Pt 18.2274 10.231 15.5572
Au 16.1708 21.6161 21.5069
Pt 18.8709 15.3314 7.37859
Pt 8.21038 11.0587 9.83134
Au 6.19599 15.9431 10.1058
Pt 14.2541 16.9801 17.7602
Pt 21.0934 13.0141 14.0193
Au 5.98621 12.1582 11.5027
Pt 9.70929 12.884 8.51617
Pt 10.1254 9.70889 17.1113
Au 7.65186 17.9895 9.42028
Pt 20.5876 10.1393 18.5247
Pt 18.1529 15.2068 17.7099
Au 10.4088 21.7886 10.6794
Pt 10.9018 11.2382 10.2971
Pt 21.3867 16.1913 11.2595
Au 9.66886 23.0998 13.0248
Pt 15.0074 20.1635 10.5486
Pt 17.5702 22.653 16.2503
Au 15.5089 22.3879 9.02095
Pt 7.52467 19.2374 14.6912
Pt 9.87518 10.1569 8.12007
Pt 15.5825 14.7206 18.3718
Pt 11.7818 19.5164 19.4604
Au 23.7944 15.7175 10.1151
Pt 15.7585 9.85368 17.3765
Pt 11.538 8.70632 15.0957
Au 20.1736 13.0445 7.19783
Pt 10.3319 13.8204 11.0189
Pt 8.45533 15.0698 20.4447
Au 17.1224 6.84507 9.24552
Pt 11.4358 16.097 13.0864
Pt 16.5889 10.2278 19.9639
Pt 19.701 14.2634 9.89293
Au 6.36848 12.575 16.5946
Pt 17.4957 13.7384 11.4149
Pt 19.9738 13.1696 18.5074
Pt 15.1299 7.04585 17.3177
Au 16.0317 17.6869 24.3295
Pt 18.8503 17.8255 18.5317
Au 14.442 16.6196 5.59694
Pt 10.0345 16.6008 15.4805
Pt 10.7481 20.7083 13.4138
Au 15.9617 18.9751 6.06794
Pt 12.1174 18.3666 16.8843
Pt 6.90811 15.1004 18.1425
Pt 20.7703 14.2123 20.9112
Au 14.4838 13.6522 16.0085
Pt 16.604 8.77016 10.885
Pt 14.9444 12.1992 18.481
Pt 18.0122 21.7187 19.7078
Au 15.6873 15.979 11.5304
Pt 8.76974 15.3109 9.18254
Pt 9.00418 7.74843 15.6445
Au 15.7468 12.5379 23.8761
Pt 7.70116 14.4665 11.605
Pt 10.8612 15.258 7.57515
Au 7.0011 13.323 9.2194
Pt 8.21931 14.5841 16.0063
Pt 11.3103 13.1027 22.5408
Pt 14.1232 19.7444 8.09619
Au 6.70815 10.5173 18.5351
Pt 10.175 17.5789 8.82013
Pt 18.0062 19.7123 14.9627
Pt 9.72999 17.3647 20.7514
Au 13.3172 10.6253 13.7744
Pt 7.80921 9.57585 11.9103
Pt 10.2128 20.8233 17.7173
Au 12.7202 8.53286 21.527
Pt 15.7976 20.7252 15.8499
Pt 12.1938 20.707 15.9791
Pt 17.5933 13.0435 8.71901
Pt 13.0752 21.8912 9.78283
Pt 16.7115 20.113 8.42396
Pt 23.2625 16.1378 17.8368
Au 5.43699 15.6669 12.6795
Pt 19.6261 14.7029 12.6189
Pt 20.2686 19.8915 13.7234
Au 8.36952 8.23325 18.3848
Pt 7.53986 17.1833 16.4843
Pt 22.4282 20.4245 12.3693
Pt 18.6125 9.16406 9.21962
Pt 12.0217 11.3467 7.59807
Au 19.0829 7.39409 11.25
Pt 9.73395 8.79584 10.3699
Pt 18.3474 10.9543 7.31564
Au 22.0351 8.76224 13.5251
Pt 17.2463 15.6719 9.38341
Pt 9.62197 14.3784 13.6024
Au 10.8223 6.02255 14.6244
Pt 15.4577 17.3443 8.00274
Pt 19.6884 17.3216 13.7109
Pt 12.9347 12.9138 20.3176
Au 17.2395 15.0671 13.831
Pt 12.9554 7.36533 13.3719
Pt 10.8151 11.918 13.0167
Pt 15.5202 12.2048 21.2102
Au 16.0259 15.9657 16.0327
Pt 20.3246 19.1631 16.4624
Pt 19.1518 11.4858 20.4306
Au 10.7325 19.7989 21.8999
Pt 13.6728 11.164 16.4297
Pt 13.6835 10.9457 9.58103
Au 10.9206 13.1203 6.06358
Pt 22.3577 20.5727 15.0346
Pt 10.7551 13.8707 16.3278
Pt 11.0666 8.80254 19.4623
Au 14.2885 15.9687 13.928
Pt 11.638 15.8772 9.95868
Pt 19.2457 8.33885 17.0621
Pt 20.6722 15.7255 18.61
Au 15.2968 13.8281 4.95303
Pt 20.1224 12.3042 11.6934
Pt 16.2965 19.7724 19.3398
Pt 18.5669 15.3684 20.2435
Au 5.50604 17.6728 14.4853
Pt 23.7569 16.0616 15.3469
Pt 17.615 17.0435 22.0999
Pt 12.0785 15.5203 23.4052
Au 12.4681 13.6356 14.1527
Pt 11.2279 15.0924 20.8677
Au 12.8376 6.57527 19.0473
Pt 14.1801 15.3291 9.07964
Pt 9.05627 12.1424 17.4112
Pt 13.679 9.01491 11.3144
Pt 14.1684 9.8893 7.19153
Pt 18.3287 19.2733 20.8772
Pt 12.6248 20.255 11.661
Au 17.6592 10.6982 22.5138
Pt 9.26859 16.5227 11.3714
Pt 16.9373 7.99825 15.5625
Pt 22.3225 18.0887 13.8673
Au 15.2519 13.2499 13.2702
Pt 7.79654 16.2787 13.9172
Pt 8.74512 12.2608 14.9103
Pt 11.6076 22.8584 14.8978
Au 13.2665 14.783 11.6462
Pt 14.0798 19.9877 17.7204
Pt 22.3853 11.7426 17.575
Au 8.11673 20.8173 12.6554
Pt 15.2558 13.2062 10.2292
Pt 13.0083 12.1991 11.6625
Pt 18.3505 21.9124 13.423
Pt 17.3226 21.4129 10.8378
Pt 19.0569 19.5656 9.51529
Pt 20.0835 20.1025 19.1872
Au 12.4333 22.2231 18.3348
Pt 14.4452 18.5236 15.3275
Pt 9.62747 7.64853 12.9045
Au 13.1545 17.8777 24.2443
Pt 9.5287 18.2595 13.2691
Pt 19.5033 8.08834 14.3581
Pt 18.2121 19.2955 12.1404
Pt 14.7503 8.22571 9.12065
Au 8.81407 12.5056 21.7095
Pt 17.2206 8.04568 18.4755
Pt 17.8986 9.64504 13.0046
Au 21.8566 20.2479 9.71405
Pt 8.507 12.0726 12.1466
Pt 11.2634 11.3968 15.5633
Au 11.6138 19.7637 8.99559
Pt 11.5321 18.0382 11.3532
Pt 10.2807 13.1611 19.5343
Pt 12.7081 17.2627 7.67354
Au 7.01754 8.25756 14.0356
Pt 23.2258 18.1738 11.3479
Pt 20.2418 9.70804 11.4191
Pt 15.97 22.778 14.1859
Au 5.58237 15.261 15.7012
Pt 6.73407 13.617 13.8788
Pt 13.6886 10.3975 19.8928
Au 22.082 20.8981 17.6391
Pt 19.9293 21.6356 15.6874
Pt 18.4518 17.2009 15.946
Pt 21.6811 11.8513 20.1934
Pt 21.6537 15.5303 13.9534
Pt 24.0709 13.6652 16.6351
Pt 16.0634 20.3478 13.0972
Au 20.3507 12.2532 22.6524
Pt 11.3514 9.45136 12.2881
Pt 7.67237 10.0278 16.1745
Pt 9.78246 18.005 17.9076
Au 17.1618 12.8989 16.3728
Pt 16.6828 18.223 10.2452
Pt 12.27 22.778 12.2882
Pt 22.2726 13.8681 11.6136
Au 12.5658 15.8949 15.9453
Pt 16.1987 10.7737 9.00056
Pt 14.4439 15.4527 24.526
Au 10.366 17.6119 23.4747
Pt 23.8408 16.0235 12.7159
Pt 13.7152 21.1214 13.9443
Pt 14.8654 22.4806 11.7814
Pt 12.3161 13.4119 9.14858
Pt 14.0803 22.6202 16.2247
Pt 20.6337 18.5698 11.3956
Au 13.7629 24.1286 13.9511
Pt 22.7638 11.4051 15.0616
Pt 15.3877 8.658 13.2612
Pt 16.6562 8.87005 7.41705
Au 14.3488 18.3166 12.5285
Pt 12.1257 18.5129 14.0977
Pt 18.1229 20.4285 17.4713
Pt 12.9327 6.50321 16.1047
Au 22.6023 11.2256 12.3205
Pt 11.2333 10.9178 21.0714
Au 13.412 11.9203 5.38895
Pt 13.1932 14.5129 6.68753
Pt 22.6907 13.9193 19.009
Pt 7.13092 17.9897 12.0995
Pt 9.05975 19.6629 19.7596
Pt 13.8029 15.5541 20.1297
Pt 19.7878 16.9806 9.25739
Au 8.96824 21.7508 15.3808
Pt 9.92474 19.2812 15.5985
Pt 11.808 16.7891 18.9389
Au 22.612 16.2456 20.5045
Pt 17.3717 13.0257 19.3303
Pt 13.391 11.375 22.5625
Pt 15.8853 10.9028 14.7388
Pt 18.1596 10.8276 18.0043
Au 22.2999 17.7264 8.90535
Pt 17.6849 13.3178 6.10302
Pt 14.0166 14.084 22.3739
Au 15.2305 9.46955 22.1748
Pt 19.9891 21.2363 11.3746
Pt 17.3122 7.01645 13.0639
Pt 16.0838 11.2681 6.11555
Pt 12.625 14.2149 18.122
Pt 13.7654 17.8197 9.99507
Pt 10.8213 7.166 17.3692
Au 11.7273 6.99305 11
Pt 9.63302 15.4111 18.1677
Pt 15.4807 10.9936 11.8717
Au 13.0459 13.1359 24.6656
Pt 16.0006 14.8451 7.28085
Pt 19.9956 11.5008 9.2924
Pt 6.67981 10.959 13.9114
Pt 14.8489 8.17772 19.6773
Pt 18.0123 13.3164 22.0064
Pt 20.2556 10.6103 13.8594
Au 21.7159 15.0543 8.4746
Pt 20.0326 11.9705 16.2378
Pt 13.4331 19.6051 22.2219
Au 21.1134 22.5466 13.4543
Pt 14.0295 21.0268 20.1163
Pt 17.9148 11.1912 10.9043
Pt 21.0784 16.7339 16.2193
Pt 21.2477 9.54897 16.0509
Pt 7.84519 19.6486 17.3146
Pt 17.9507 17.8707 7.69746
Au 17.1691 16.4009 5.51872
Pt 18.1853 12.3672 13.7178
Pt 16.7658 15.0561 23.5565
Au 14.9946 6.55425 11.4458
Pt 21.6895 14.1613 16.4453
Pt 21.708 18.1737 18.6665
Pt 11.7778 11.4279 18.3036
Pt 15.9276 19.0514 21.8915
Pt 20.1515 17.333 20.833
Pt 14.7215 16.7722 22.2456
Au 19.8206 22.6231 18.0769
Pt 23.0457 18.4661 16.4078
Au 9.40483 15.0938 22.9076
Pt 16.4477 18.4144 17.1335
Pt 16.7253 17.703 13.7598
Pt 7.6347 17.413 19.1472
Pt 14.6508 12.6433 7.73165
Pt 23.6264 13.679 14.027
Pt 19.3379 14.5744 15.4297
Pt 16.1468 14.8359 21.023
Pt 15.808 22.0884 18.2314
Pt 12.9621 8.90726 17.7071
Pt 12.2148 17.4489 21.5558
Pt 14.1114 18.3228 19.9669
Pt 9.41064 19.3607 10.8539
Pt 16.4872 17.1181 19.6477
