286
Atoms. Timestep: 20328
Pt 22.8802 11.5465 13.4886
Pt 13.4607 8.70271 9.41742
Au 17.469 7.85499 20.8281
Pt 9.64665 17.8752 18.1195
Au 10.5638 7.23157 17.6534
Pt 10.5222 15.4927 19.8254
Pt 14.4995 14.612 8.08641
Au 21.9747 12.8806 9.19916
Pt 15.428 6.54554 12.2645
Pt 20.0207 11.6993 13.3697
Au 24.4542 16.7441 13.2108
Pt 16.5057 16.2519 6.77752
Pt 5.37692 15.0075 14.007
Au 15.1957 11.017 5.79752
Pt 8.93213 10.2675 10.5835
Pt 20.8086 20.0103 18.3432
Au 14.7849 18.4234 5.82735
Pt 15.178 11.9929 8.39982
Pt 15.9871 12.5419 22.5381
Au 5.62774 12.5565 12.8692
Pt 22.0214 15.7848 12.9715
Pt 19.3992 21.5185 16.6802
Au 6.89161 14.2946 8.73386
Pt 12.1666 19.1987 11.0048
Pt 11.1703 10.1314 9.18066
Au 8.9327 22.1759 10.3759
Pt 14.4752 16.8852 14.8596
Pt 9.70208 22.4824 13.0121
Au 23.1322 15.8695 10.5905
Pt 6.10748 14.8416 11.28
Pt 11.9116 17.3951 9.09285
Pt 11.5043 8.20148 11.223
Pt 7.35955 18.7461 19.1015
Au 23.7843 12.2503 15.9376
Pt 15.2601 8.0631 17.2022
Pt 21.6699 10.9473 11.1179
Au 16.6618 5.7521 16.2921
Pt 11.5126 11.5677 18.3263
Pt 9.58803 18.4711 20.6577
Au 16.2597 22.6789 10.2684
Pt 13.5068 9.94583 17.705
Pt 14.0643 5.78476 16.8309
Pt 19.6051 14.7187 12.8038
Au 15.1045 12.4948 14.9593
Pt 19.878 10.8407 9.09671
Pt 19.8847 8.82273 17.0282
Pt 17.8468 7.67561 11.3984
Au 13.728 20.2349 22.0146
Pt 19.6869 17.5017 19.094
Au 20.1225 11.8557 6.64231
Pt 13.6853 21.0318 18.9335
Pt 9.56775 17.4222 15.4994
Au 7.32223 21.4538 12.5484
Pt 9.77159 12.4071 16.3293
Pt 11.6118 20.1643 20.3013
Pt 22.5195 15.6471 15.6459
Au 15.9472 15.9783 12.0298
Pt 11.2131 10.7285 11.7291
Pt 24.8021 14.9234 16.1506
Pt 15.8022 19.6827 17.9208
Au 14.3336 4.85907 14.3025
Pt 9.33265 16.705 8.28747
Pt 15.7385 7.44558 9.82908
Au 10.4646 22.8476 15.7086
Pt 9.40283 14.155 7.91692
Pt 12.1457 13.425 20.008
Au 13.349 6.33102 10.6778
Pt 9.15368 10.3577 18.3915
Pt 11.5253 14.0494 17.3956
Pt 14.2469 22.7904 12.0069
Au 11.9431 10.181 22.1855
Pt 8.57156 19.3488 13.952
Pt 14.9695 22.361 14.5456
Pt 7.11261 16.7266 17.4949
Au 14.032 14.3834 13.1221
Pt 12.1174 9.23235 13.8681
Pt 10.1127 20.1257 16.2415
Au 8.45221 13.9875 21.2557
Pt 16.3752 16.491 9.35791
Pt 19.0005 21.6442 14.066
Pt 18.8613 11.0544 16.6872
Pt 14.7267 19.6727 15.4181
Pt 15.9714 18.9421 8.15343
Pt 20.036 16.1047 14.9996
Au 5.23472 18.444 16.9628
Pt 14.6008 9.86424 15.0083
Pt 16.7278 17.3912 18.819
Au 18.671 12.3144 23.2654
Pt 7.32918 12.0175 17.2394
Pt 20.2922 17.5981 12.4615
Pt 21.4925 13.5122 14.6451
Pt 17.4204 11.9127 9.88346
Au 7.4136 10.3792 12.7964
Pt 13.1525 10.6011 7.59619
Pt 8.46583 9.87073 15.738
Au 19.6295 9.62835 21.5537
Pt 21.5788 9.26225 13.046
Pt 11.5122 13.3982 14.1855
Au 14.0985 15.6204 5.50564
Pt 19.1877 9.07442 14.0306
Pt 7.3061 16.9186 10.0573
Pt 9.394 13.1608 18.8618
Au 13.5428 15.568 10.4961
Pt 15.856 9.85803 10.4812
Pt 10.2388 10.959 14.2217
Pt 17.485 14.5182 21.9752
Au 16.7752 13.1289 17.0068
Pt 17.1142 20.5532 15.4239
Pt 21.2253 10.5708 15.317
Au 11.7768 5.4787 15.535
Pt 12.6713 6.76647 13.3236
Pt 9.89085 17.4877 10.7035
Au 8.04309 21.6732 15.2114
Pt 18.4158 21.6715 11.4588
Pt 7.24136 14.4547 15.9512
Pt 16.1889 11.8688 19.7201
Au 18.9524 13.5396 15.3573
Pt 18.23 19.4154 12.8396
Pt 14.6745 14.8289 23.0562
Pt 22.1328 13.4503 11.8696
Au 4.24829 17.3148 14.7559
Pt 20.5084 10.7625 19.1393
Pt 16.6082 16.6569 23.315
Pt 22.1726 18.1688 19.6
Au 7.46998 11.7636 19.9683
Pt 23.9087 14.099 13.845
Pt 18.4907 19.1198 17.3713
Pt 16.2652 18.8976 21.8833
Au 15.627 15.6052 17.1738
Pt 14.1695 17.5636 22.8042
Au 12.1734 15.9033 23.8506
Pt 10.5021 18.9452 7.67072
Pt 13.4572 11.104 20.1068
Pt 15.578 11.4857 12.3871
Pt 16.8846 19.4188 10.5899
Pt 11.0656 20.5755 13.8965
Pt 11.8198 21.8208 11.5165
Au 21.1632 11.7149 21.8853
Pt 7.31251 18.9999 11.6378
Pt 13.9851 8.85556 12.0863
Pt 12.4096 22.8597 13.8618
Au 14.1745 12.7439 17.9502
Pt 15.8954 13.5623 6.02084
Pt 17.1925 10.4055 21.6847
Pt 10.8647 12.0897 7.34025
Au 16.5637 14.9095 14.6404
Pt 11.3672 21.8613 18.0898
Pt 18.2748 10.3987 11.7954
Au 12.1448 17.6184 6.16277
Pt 10.9692 20.8097 9.29086
Pt 11.9707 17.5912 19.6276
Pt 20.8892 15.127 17.6373
Pt 16.1504 21.0038 12.7184
Pt 18.472 18.4191 8.51443
Pt 22.0951 15.6064 20.0194
Au 4.87752 15.4717 16.7214
Pt 6.92846 17.0178 14.897
Pt 8.30698 16.8239 12.7239
Au 19.5069 21.8263 19.7642
Pt 13.2939 12.9769 6.36318
Pt 13.0532 7.48297 18.6311
Pt 11.9014 16.0618 14.5237
Pt 12.5443 11.6335 15.8296
Au 18.0686 20.9945 21.9885
Pt 15.4438 9.24049 19.6325
Pt 17.5752 11.5311 7.27215
Au 19.3186 6.55636 15.7974
Pt 13.5472 11.1275 10.4797
Pt 13.1821 11.5048 13.2268
Au 8.2187 11.7029 8.26849
Pt 19.3998 18.8463 15.0092
Pt 7.71287 19.2306 16.5282
Pt 13.5397 20.2545 13.1207
Au 13.4827 8.1639 21.1195
Pt 14.5585 18.0871 10.4044
Pt 10.3175 7.69885 14.9884
Pt 22.0085 18.0174 14.4612
Au 13.5645 14.4991 15.8716
Pt 11.0665 15.0649 9.74835
Pt 10.9726 13.9903 22.2221
Au 5.92018 19.5161 14.2638
Pt 23.1091 19.1494 17.183
Pt 16.7658 17.8675 15.8081
Pt 23.2471 13.9618 17.9888
Pt 14.6948 10.309 22.1223
Pt 15.3104 13.5434 10.595
Pt 10.6111 15.3658 12.3707
Au 19.9799 7.98392 19.4938
Pt 10.1286 12.5167 9.88386
Pt 7.43608 12.4674 10.8049
Pt 9.35946 20.3839 18.7347
Au 18.3582 15.8959 17.1167
Pt 14.1096 17.8219 17.3982
Pt 24.3588 17.5167 15.6756
Pt 17.6633 7.60088 18.1288
Au 5.22001 12.8041 15.6436
Pt 14.4615 20.6313 10.5317
Pt 14.6903 13.767 20.586
Au 16.999 23.4708 13.0136
Pt 17.5391 6.66775 13.8471
Pt 17.9419 16.9073 13.5659
Pt 20.8934 17.5207 9.8161
Pt 8.62815 19.356 9.37882
Pt 10.7589 18.0372 13.1075
Pt 17.4951 13.1492 12.6779
Au 17.3699 23.202 15.7741
Pt 16.9811 14.0217 8.29371
Pt 16.4134 9.00475 13.1331
Pt 12.7855 7.91654 15.9951
Au 17.4207 11.1658 14.522
Pt 8.69052 14.7955 10.6176
Pt 8.10494 16.3427 19.9421
Pt 13.2031 12.6019 22.4091
Au 15.4504 6.46654 19.3722
Pt 10.9341 9.669 16.592
Au 18.5368 14.1459 6.09175
Pt 12.306 18.6379 15.23
Pt 16.1456 10.5704 17.2583
Pt 12.1489 13.3026 11.5176
Pt 12.0272 19.3614 17.7876
Pt 11.3871 9.28627 19.5448
Pt 23.4003 16.5783 17.93
Au 5.49458 17.2256 12.3455
Pt 7.72215 14.3964 13.1619
Pt 12.7803 21.3098 15.9749
Au 15.2459 21.4473 8.00858
Pt 19.0708 13.1202 18.2516
Pt 20.5898 16.9607 21.6523
Pt 20.1142 8.83278 10.9486
Pt 9.49373 12.6738 12.4311
Au 13.1166 22.5249 9.29011
Pt 17.9422 14.6497 10.616
Pt 19.3954 15.1037 19.9266
Au 22.4402 9.91121 17.5147
Pt 18.3787 17.1973 10.8748
Pt 15.4345 16.3003 20.8533
Pt 19.7086 12.6328 11.0274
Pt 14.9886 7.33212 14.6602
Pt 9.73283 20.0672 11.6401
Pt 7.77793 12.2252 14.5955
Au 20.1342 6.88416 12.9423
Pt 10.2969 11.6557 20.7646
Pt 12.6446 12.9966 8.95113
Au 9.75799 16.3645 22.3393
Pt 13.1836 19.6126 8.30127
Pt 14.1161 17.0659 7.91789
Pt 15.6438 9.47062 7.9233
Pt 9.55115 8.85382 12.8323
Pt 18.7122 12.3695 20.662
Pt 14.3335 18.5756 20.0112
Au 17.9404 21.0451 8.76453
Pt 19.4877 13.4467 8.53854
Pt 21.4409 20.3771 15.6571
Au 18.7645 18.5917 23.1528
Pt 6.97787 14.2597 18.6194
Pt 18.9199 15.9609 8.29833
Pt 21.0195 17.7124 16.9185
Pt 21.3254 12.4435 17.0832
Pt 9.53789 14.8537 14.8921
Pt 20.5981 15.1191 10.3841
Au 22.7638 18.4494 11.761
Pt 17.9554 9.17709 9.15711
Pt 16.9113 14.539 19.3823
Au 21.6613 7.89507 15.2894
Pt 19.736 19.6393 10.601
Pt 17.8941 19.5175 19.8341
Pt 12.8043 15.7365 21.3424
Pt 20.3499 14.2053 22.0585
Pt 21.3707 13.1685 19.7128
Pt 17.3944 21.6868 18.2364
Au 23.7722 19.8308 14.3389
Pt 18.0325 17.0361 21.1232
Au 19.114 15.8672 23.6714
Pt 13.2409 17.3051 12.5751
Pt 15.8147 20.9943 20.3547
Pt 9.25626 15.342 17.458
Pt 11.9065 15.1491 7.26434
Pt 15.6887 18.4926 13.074
Pt 18.0547 10.0471 19.1095
Pt 20.1923 19.4567 20.9404
Pt 15.1266 22.059 17.0386
Pt 17.3401 8.63095 15.7377
Pt 13.5233 15.4994 18.7965
Pt 11.7928 18.1813 22.1329
Pt 20.9316 20.1389 13.0284
Pt 11.7107 16.6514 17.0688
