286
Atoms. Timestep: 20514
Pt 22.6267 12.701 17.6209
Pt 11.8918 9.59318 16.8488
Au 16.9511 12.4122 24.1259
Pt 10.3617 11.8574 21.4516
Au 7.06609 11.0683 17.2175
Pt 10.5737 13.6232 14.4678
Pt 10.2367 16.8003 7.96359
Au 11.6906 14.2145 24.8055
Pt 16.7108 8.59342 21.0914
Pt 18.414 7.27348 14.7498
Au 11.2329 21.1598 21.284
Pt 14.5891 16.7393 7.78287
Pt 9.66155 18.2079 13.1974
Au 7.62569 19.8761 18.0791
Pt 12.8067 12.2222 20.3507
Pt 17.0205 11.0795 21.9223
Au 8.02088 15.4527 8.31425
Pt 15.8833 13.1895 8.58207
Pt 10.3649 14.1126 7.48291
Au 10.3359 11.3148 7.37845
Pt 17.3394 13.8989 21.7771
Pt 18.0802 19.0085 21.0215
Au 5.5213 17.5714 14.4274
Pt 10.9458 19.1554 9.37647
Pt 17.7554 11.2392 7.40585
Au 8.26207 18.6161 8.51364
Pt 6.19599 14.8863 14.9638
Pt 12.5505 19.056 20.1885
Au 16.753 15.7586 4.86407
Pt 8.05685 16.6666 14.5269
Pt 12.4067 18.0483 7.30029
Pt 14.0582 11.299 18.1924
Pt 15.8612 6.79219 19.0538
Au 20.3368 22.7661 12.0796
Pt 13.8019 15.3215 23.71
Pt 9.85746 8.18332 15.9543
Au 18.6115 6.86511 10.3682
Pt 7.52901 12.1567 11.5786
Pt 11.5233 10.8692 14.0906
Au 21.0138 17.2334 6.93926
Pt 6.62324 11.9185 14.3086
Pt 14.653 10.8317 23.3267
Pt 21.3873 13.1135 15.4114
Au 12.8206 15.1501 15.8091
Pt 19.0137 17.9713 11.9059
Pt 18.9263 12.7803 20.0929
Pt 14.6967 10.4748 20.8105
Au 22.8798 10.0632 17.8744
Pt 20.6649 13.9439 13.0773
Au 12.4078 20.8066 7.64306
Pt 11.9478 8.30912 14.3474
Pt 7.23294 18.5094 12.4696
Au 12.9402 19.4527 5.24663
Pt 11.4265 17.534 11.3822
Pt 8.08701 15.4776 16.7773
Pt 16.1972 9.07317 14.3257
Au 12.3132 15.4029 13.1649
Pt 11.7882 6.61599 12.2406
Pt 12.9866 14.6629 21.2991
Pt 15.3765 18.5349 21.0454
Au 14.7991 13.1892 16.2985
Pt 9.19696 17.9643 17.0059
Pt 11.6373 9.88494 9.29972
Au 16.4841 15.077 24.081
Pt 12.5039 16.3898 9.38666
Pt 18.314 15.34 12.7416
Au 10.2405 19.3437 6.72625
Pt 11.3998 12.6373 9.36997
Pt 10.4829 14.2916 17.1179
Pt 9.04812 19.7785 10.9666
Au 17.4995 5.68179 16.9412
Pt 11.7607 19.406 17.5584
Pt 11.39 21.9858 16.6754
Pt 8.41525 13.2534 18.4472
Au 15.3835 14.5027 12.5825
Pt 8.00886 13.9384 13.3988
Pt 10.6618 11.5559 18.6333
Au 7.36472 17.799 19.7984
Pt 12.6389 21.5281 19.0567
Pt 10.652 19.4284 15.2297
Pt 19.2032 15.2781 6.5268
Pt 14.0076 17.1401 11.8063
Pt 16.4624 17.9781 6.28097
Pt 20.7558 15.2735 8.74416
Au 7.33412 9.66243 12.3368
Pt 18.341 16.3294 9.9028
Pt 12.945 22.388 12.5331
Au 11.6693 7.49024 21.1822
Pt 10.186 13.1007 11.8449
Pt 17.6297 22.4797 12.8253
Pt 18.2006 9.18297 9.40802
Pt 18.6401 13.6704 8.48458
Au 7.62215 9.43661 15.0716
Pt 14.1195 9.68008 10.5433
Pt 9.70407 10.5962 11.0107
Au 19.4357 12.1124 22.5687
Pt 15.8573 10.1279 8.70851
Pt 13.6639 11.6279 8.84518
Au 10.4448 6.03096 14.4437
Pt 20.4478 9.11151 18.4295
Pt 20.0069 21.6715 14.5689
Pt 12.0931 12.3148 16.4187
Au 15.1381 15.8499 17.2023
Pt 17.0848 7.36543 12.4216
Pt 12.1116 6.68223 16.5665
Pt 15.5045 14.4229 19.5576
Au 14.9731 16.3844 14.4516
Pt 20.6662 16.0298 18.0757
Pt 20.786 8.85352 14.9114
Au 8.17688 13.9707 21.044
Pt 12.3737 11.6135 11.5467
Pt 15.2934 15.7052 9.99245
Au 17.2745 20.3126 7.58545
Pt 13.2141 23.1399 14.9944
Pt 10.4279 15.0147 10.0099
Pt 7.85922 14.638 10.7877
Au 13.3681 12.8964 13.8401
Pt 12.9556 20.4576 14.4924
Pt 10.0799 9.49062 20.4757
Pt 18.6168 12.1563 15.4803
Au 19.9592 12.6063 6.48199
Pt 20.7508 10.926 16.5885
Pt 10.0174 20.971 18.7498
Pt 18.6199 9.2966 16.368
Au 6.5488 15.2915 19.0785
Pt 20.6498 11.3602 13.7107
Pt 16.8415 19.8892 18.9153
Pt 12.5042 12.5517 22.9794
Au 17.2536 13.5764 17.5538
Pt 12.4166 9.69343 19.5183
Au 10.0574 7.87994 10.4883
Pt 16.8959 15.6591 7.71741
Pt 9.04128 21.1218 16.1748
Pt 15.8454 7.80055 10.1296
Pt 16.2818 18.2153 9.37179
Pt 18.5923 19.5403 9.75371
Pt 12.47 17.9776 13.848
Au 23.5033 15.1347 17.8913
Pt 8.95953 17.1666 10.5789
Pt 14.1862 7.98675 20.7042
Pt 20.1134 17.6554 16.2093
Au 17.5968 11.6675 10.0763
Pt 7.68223 19.15 15.1917
Pt 8.32371 13.1113 15.8204
Pt 14.5718 20.9454 20.7389
Au 13.106 14.1327 11.0228
Pt 11.3751 16.4411 20.534
Pt 18.5386 11.1157 18.1567
Au 15.4389 24.1215 13.5954
Pt 12.3221 15.541 6.50073
Pt 8.8599 12.7202 9.30541
Pt 18.8611 20.0076 16.6558
Pt 15.3249 20.7561 9.49784
Pt 19.2427 20.5141 12.1126
Pt 11.6366 16.7098 17.8153
Au 13.2689 23.7585 17.6577
Pt 15.3217 22.1839 18.6544
Pt 9.64461 8.61744 13.2019
Au 17.262 21.8232 20.7038
Pt 9.70875 15.6663 12.6148
Pt 16.3957 18.2249 16.6652
Pt 22.5667 18.0553 14.5041
Pt 14.1877 17.0505 5.34768
Au 20.0044 6.97007 16.8831
Pt 16.2062 9.5833 18.8186
Pt 12.9594 7.50584 10.0649
Au 22.5966 16.8653 19.7903
Pt 11.8774 9.14474 11.8962
Pt 6.59034 15.9825 12.5035
Au 6.37806 17.463 17.0496
Pt 13.8262 21.1056 16.723
Pt 9.06587 11.3209 13.5906
Pt 12.6348 21.1809 10.2369
Au 6.44129 17.1198 10.0889
Pt 14.1429 8.04374 15.3958
Pt 14.6584 5.876 16.84
Pt 20.0944 19.1065 14.1098
Au 13.6591 9.05533 7.7653
Pt 14.7534 14.4232 6.16396
Pt 10.7263 13.9116 19.8105
Au 20.4181 22.1373 17.2492
Pt 22.0206 15.6343 15.6687
Pt 15.3266 18.9237 14.133
Pt 21.8325 11.4442 10.9574
Pt 19.7044 7.98087 12.5002
Pt 20.4835 16.5678 13.7512
Pt 18.5674 17.7994 7.79946
Au 23.0661 10.7955 15.1523
Pt 15.0477 11.7067 6.6206
Pt 9.05161 9.4707 18.0635
Pt 10.7835 18.6423 22.058
Au 16.0534 11.8822 13.9243
Pt 16.5315 17.2449 12.0086
Pt 17.6692 20.101 14.249
Pt 16.6216 9.84855 11.7419
Au 13.0501 14.1301 18.4052
Pt 22.8523 15.5781 13.0538
Pt 9.05721 16.5907 21.6086
Au 16.3013 20.2648 22.7529
Pt 22.4686 13.9943 10.9313
Pt 8.81632 20.698 13.4024
Pt 21.1621 18.9374 18.5839
Pt 14.0553 19.8701 12.0263
Pt 15.3391 21.5577 14.0556
Pt 21.7546 18.2423 11.9961
Au 22.9768 16.533 10.2199
Pt 20.0172 11.1082 8.87656
Pt 9.72633 11.0049 16.1297
Pt 18.461 9.94472 13.8066
Au 16.8821 14.4374 14.9018
Pt 10.5366 16.4694 15.2329
Pt 13.5929 18.0802 16.2237
Pt 18.8927 10.0209 20.453
Au 20.8873 8.6804 10.0912
Pt 14.9475 13.0611 22.0168
Au 10.2886 22.22 11.4182
Pt 14.6927 19.4667 7.29683
Pt 22.7377 17.6255 17.1074
Pt 13.458 14.2273 8.43868
Pt 15.5273 23.289 16.232
Pt 18.7695 18.0684 18.5254
Pt 20.5981 15.839 11.2542
Au 22.0706 20.6941 13.1505
Pt 9.20481 15.9119 19.0623
Pt 13.8202 16.7122 19.4688
Au 8.09376 11.2016 20.0204
Pt 17.8245 16.6075 21.9393
Pt 14.4545 19.2116 18.455
Pt 15.9363 6.28734 14.5283
Pt 21.8756 9.49491 12.5879
Au 21.8996 12.9047 8.50739
Pt 19.4566 10.4007 11.4623
Pt 13.2899 17.3834 22.1717
Au 14.3889 13.0401 24.8408
Pt 21.5697 19.981 16.1229
Pt 18.2147 7.90875 18.7876
Pt 17.2328 14.1537 10.707
Pt 13.9998 10.5944 15.6008
Pt 17.1933 13.4621 6.19443
Pt 19.9912 13.4698 17.6974
Au 13.095 6.04256 19.14
Pt 13.9563 8.36333 17.9845
Pt 14.07 10.1136 13.0878
Au 13.3359 19.9068 22.8472
Pt 12.5317 12.7137 6.63021
Pt 15.1468 12.1063 11.1761
Pt 16.4035 8.02932 16.7181
Pt 12.3701 10.0378 22.0874
Pt 17.9133 16.1476 17.0173
Pt 21.0487 11.5122 19.4266
Au 18.8562 17.5189 5.21205
Pt 23.7817 13.8439 15.34
Pt 15.4197 15.858 21.6657
Au 17.7791 22.0513 10.139
Pt 11.3828 20.0387 12.3482
Pt 19.4524 14.8552 15.4317
Pt 18.3306 12.5477 12.7406
Pt 21.4153 14.2535 19.741
Pt 16.3952 12.0458 19.588
Pt 17.8557 17.392 14.5054
Au 21.2107 20.4365 10.4286
Pt 14.3522 7.56066 12.497
Pt 20.0931 17.1441 20.5617
Au 5.91524 13.4995 17.1297
Pt 19.7889 14.7517 21.7232
Pt 13.604 18.7365 9.66091
Pt 16.5213 17.0647 19.3353
Pt 15.3278 22.3226 11.5074
Pt 10.4611 14.2763 22.3998
Pt 17.8405 22.2967 17.9725
Au 8.67264 20.0007 20.9482
Pt 22.946 12.6252 13.1479
Au 15.6015 17.731 23.6711
Pt 16.2915 20.7278 16.4326
Pt 11.2675 16.4224 23.337
Pt 10.9596 7.72211 18.5923
Pt 20.6432 17.88 9.55493
Pt 19.9196 13.2229 10.6531
Pt 13.2552 5.86354 14.3108
Pt 19.366 20.6181 19.3028
Pt 18.4062 15.283 19.5311
Pt 16.4279 10.9029 16.5492
Pt 10.0401 18.4358 19.4134
Pt 17.8397 22.6403 15.3877
Pt 10.8144 22.104 14.1516
Pt 16.6748 19.9107 11.7094
