286
Atoms. Timestep: 20304
Pt 12.8598 12.4625 20.9172
Pt 10.6601 9.57304 18.5556
Au 6.32354 13.5877 19.4271
Pt 13.0305 8.50953 19.1638
Au 8.98754 16.5596 21.7067
Pt 10.1007 11.7288 17.1353
Pt 9.43383 8.87204 13.2517
Au 7.82211 10.7765 9.36412
Pt 21.3938 9.05582 15.5245
Pt 16.9895 9.9269 21.1493
Au 12.4235 11.1084 23.5014
Pt 6.8898 12.0402 14.1433
Pt 9.46206 8.89591 16.0602
Au 6.73542 13.2902 9.25196
Pt 15.1485 5.61595 15.516
Pt 10.4396 12.0307 19.8167
Au 7.11122 9.36258 14.2586
Pt 10.655 16.781 14.6194
Pt 8.04626 13.2604 16.0859
Au 6.52469 15.9021 10.0156
Pt 11.0612 14.5217 20.9443
Pt 8.96989 14.0044 18.3435
Au 5.62707 12.552 16.9332
Pt 10.0772 17.7993 12.0598
Pt 18.8022 15.6622 13.4517
Au 12.8861 23.1533 9.70048
Pt 6.39103 16.9162 15.3871
Pt 13.3413 22.5523 16.4809
Au 19.2013 23.6568 14.8669
Pt 7.54425 10.7132 16.4796
Pt 8.83219 15.9591 16.5802
Pt 11.8038 10.1274 15.7962
Pt 13.5354 7.75484 14.8686
Au 15.7032 14.4727 5.56282
Pt 16.0161 8.10809 15.1762
Pt 14.2753 9.39905 16.9681
Au 23.5459 15.254 16.9904
Pt 12.1732 11.921 6.92811
Pt 16.2349 8.48695 8.29239
Au 16.7171 10.6925 6.29767
Pt 7.94614 10.915 12.0391
Pt 12.0504 10.0738 20.9563
Pt 14.1087 10.7743 14.6774
Au 14.9936 18.1078 12.925
Pt 14.62 10.5845 19.5777
Pt 8.57831 13.8534 20.891
Pt 11.7947 7.78424 17.0207
Au 19.3192 10.7615 22.7104
Pt 16.6088 14.5348 24.1766
Au 9.08548 16.9402 6.74751
Pt 9.51708 9.02772 10.5451
Pt 8.80378 14.9287 8.54193
Au 8.98567 12.4253 7.42454
Pt 6.86352 13.6526 12.0027
Pt 8.78646 20.3909 17.7443
Pt 12.6388 11.3316 18.1323
Au 12.0127 12.4026 13.9476
Pt 12.2126 9.29155 13.2476
Pt 10.175 16.2714 19.0669
Pt 11.6215 13.8241 18.4078
Au 15.6387 18.4054 15.798
Pt 8.0145 11.6261 18.8723
Pt 8.91082 18.4575 19.5991
Au 9.15969 9.92954 20.7764
Pt 11.3971 16.4595 7.89739
Pt 16.6538 11.0538 8.80869
Au 10.4248 14.5535 6.1593
Pt 6.26422 16.1714 12.7965
Pt 8.31023 15.0604 14.1853
Pt 5.89203 14.3379 14.7496
Au 19.5994 21.759 9.73104
Pt 11.6239 21.9838 14.5592
Pt 6.45494 15.1349 17.2738
Pt 7.3557 17.9139 17.6008
Au 14.0361 13.9902 12.3765
Pt 10.6714 20.4294 19.5138
Pt 11.6887 16.2581 22.7695
Au 16.9258 21.135 22.287
Pt 13.6023 20.8135 11.9385
Pt 12.4156 18.5459 13.031
Pt 10.2922 19.0394 7.92976
Pt 13.9949 18.7562 10.3734
Pt 14.8174 21.2924 9.56898
Pt 15.4901 13.0366 10.0033
Au 10.2237 22.4742 10.34
Pt 12.9459 16.4711 11.5503
Pt 7.72004 19.4905 15.521
Au 5.95442 18.8949 13.5115
Pt 8.33271 17.6189 13.9055
Pt 9.24936 21.6071 15.4784
Pt 13.4511 7.34231 11.5479
Pt 14.2932 10.059 7.47422
Au 12.8075 5.50737 13.3839
Pt 10.5781 10.94 12.0235
Pt 15.0212 9.08931 12.7624
Au 10.107 12.0035 22.4347
Pt 9.08335 13.0267 10.3951
Pt 11.6829 13.0889 11.1186
Au 11.1532 7.19702 9.31284
Pt 17.4946 9.35146 10.5527
Pt 7.44952 18.1586 11.4013
Pt 11.0133 7.24611 14.5903
Au 16.1936 15.988 14.1909
Pt 16.9593 6.83845 17.2922
Pt 9.31197 13.0753 12.9901
Pt 17.2821 11.1173 18.8422
Au 16.5812 14.7655 16.5959
Pt 20.108 17.8942 21.9889
Pt 19.6904 10.4775 17.3133
Au 21.2656 15.2679 22.2997
Pt 8.92803 17.3536 9.43378
Pt 17.4456 13.1687 7.57023
Au 18.0772 15.7389 6.78812
Pt 10.9954 20.5568 12.161
Pt 8.62039 15.5707 11.6171
Pt 13.1285 14.5845 6.85839
Au 11.7582 15.9365 16.8975
Pt 15.3055 15.941 10.7161
Pt 10.513 13.9258 15.554
Pt 18.6258 19.7262 20.6962
Au 18.1942 18.6689 7.06198
Pt 10.9636 7.26763 11.9587
Pt 15.0613 21.0803 20.3609
Pt 17.1157 9.5246 16.9082
Au 14.2702 13.8347 18.7688
Pt 18.6339 16.0583 23.0912
Pt 16.0733 16.8431 22.8149
Pt 18.4769 8.53462 18.9981
Au 15.3409 11.9055 17.0586
Pt 7.59913 16.0258 19.4646
Au 9.59781 14.5405 23.3553
Pt 12.0397 20.6625 9.64686
Pt 9.35615 19.8529 10.2911
Pt 21.097 13.9103 14.0776
Pt 11.8378 9.41855 7.93784
Pt 17.4321 20.6765 8.70249
Pt 11.1052 14.9936 12.8962
Au 23.0952 17.5504 18.6071
Pt 10.8009 15.5431 10.2871
Pt 11.1218 17.997 20.9494
Pt 20.0694 17.0175 8.12819
Au 13.2684 13.5009 16.1174
Pt 12.862 21.6761 18.9322
Pt 12.7923 16.1438 19.6094
Pt 16.7962 17.4929 18.1225
Au 12.7924 18.1751 15.7929
Pt 16.7388 20.1104 18.5739
Pt 15.5507 16.1455 19.9909
Au 10.5824 22.669 17.663
Pt 19.7173 14.0858 11.4624
Pt 12.8622 19.0855 7.74126
Pt 19.4832 16.378 10.4566
Pt 11.5322 18.1301 10.0109
Pt 12.1551 22.9793 12.2187
Pt 14.2018 22.8455 14.029
Au 20.8049 19.6186 8.32402
Pt 10.4106 19.4595 14.5349
Pt 11.5067 20.4448 16.7844
Au 15.8238 23.9703 15.9027
Pt 13.3477 14.4904 9.54668
Pt 16.8244 23.2075 13.4847
Pt 20.7081 11.9494 12.3428
Pt 16.227 11.507 11.9581
Au 17.8026 5.99979 14.8459
Pt 12.1845 9.40429 10.5443
Pt 15.887 7.25863 10.6896
Au 18.7738 9.18366 8.071
Pt 9.50659 11.1272 14.6229
Pt 11.1523 13.6208 8.51712
Au 13.1548 17.0961 5.90345
Pt 8.43597 20.1778 12.9274
Pt 14.822 9.79497 10.2168
Pt 17.3648 17.1302 11.7145
Au 17.9289 5.74958 11.952
Pt 19.5456 7.92693 11.4026
Pt 14.2958 6.8642 17.5456
Pt 19.3148 14.7189 20.664
Au 13.3791 15.8278 14.3634
Pt 20.2031 10.1966 10.2583
Pt 19.1104 13.5304 23.0969
Au 18.1768 6.85764 9.3982
Pt 15.7583 17.1019 6.55751
Pt 13.698 20.3443 14.6294
Pt 16.8663 14.2155 12.1278
Pt 13.1939 11.6857 9.30743
Pt 16.9768 17.2614 8.98709
Pt 21.4669 13.5253 16.7627
Au 22.8197 10.8112 11.1699
Pt 10.5304 11.1256 9.24786
Pt 22.7247 11.2388 13.8403
Pt 9.92867 18.2478 16.8836
Au 17.6003 18.6344 13.9407
Pt 20.8738 16.46 14.7952
Pt 16.9158 11.993 23.1701
Pt 22.7642 13.6409 12.0555
Au 15.6445 13.172 14.4725
Pt 21.0511 16.3514 17.3055
Pt 14.6594 10.6347 22.3238
Au 14.8362 19.5573 23.1298
Pt 23.2915 15.6902 14.0924
Pt 14.8309 23.0933 11.5754
Pt 16.3928 19.4396 10.7683
Pt 14.7925 12.5827 7.32594
Pt 18.2947 21.2634 14.4332
Pt 19.2293 14.4193 15.9236
Au 9.49526 22.6844 12.9941
Pt 21.3546 15.95 12.3031
Pt 14.4519 18.4985 19.19
Pt 22.4847 11.1285 16.4895
Au 14.431 16.3101 17.2634
Pt 13.8079 17.4792 21.6946
Pt 12.8988 19.8897 20.9402
Pt 16.8437 14.5906 21.7
Au 14.4916 8.26796 21.3447
Pt 13.9497 14.7587 21.5276
Au 21.3395 19.4281 20.0705
Pt 13.9177 16.9016 8.57307
Pt 21.101 20.0735 11.0952
Pt 13.5242 11.308 11.9656
Pt 15.9847 21.2916 15.7442
Pt 18.1432 19.6888 16.5145
Pt 11.9988 18.4539 18.4989
Au 19.3454 22.9824 12.244
Pt 16.2136 18.7915 20.9762
Pt 12.1298 13.7366 23.2889
Au 12.198 18.8113 23.3456
Pt 18.7871 15.6186 18.3096
Pt 14.1674 20.1351 17.3197
Pt 15.4147 6.38001 13.118
Pt 18.8659 9.25089 14.8706
Au 20.125 7.04043 13.9234
Pt 13.7273 7.8113 8.93141
Pt 14.5866 13.0558 23.4341
Au 8.1231 8.9587 18.4065
Pt 21.9031 15.1953 9.85056
Pt 21.091 9.40201 12.9323
Pt 17.6252 14.7652 9.71058
Pt 19.4182 7.67124 16.7355
Pt 16.7064 10.6337 14.4146
Pt 19.4576 12.9408 18.494
Au 19.6397 11.674 7.87407
Pt 17.9172 12.1737 16.2914
Pt 21.7421 11.7216 18.8293
Au 12.522 5.40389 16.0644
Pt 18.6596 10.4614 12.5529
Pt 23.4415 13.3134 15.0781
Pt 18.416 12.1905 10.3429
Pt 17.4854 8.10357 12.9757
Pt 21.6863 14.406 19.2337
Pt 20.8404 12.6491 21.1658
Au 23.8119 16.3655 11.5183
Pt 18.2004 12.3456 20.9098
Pt 18.4089 12.8812 13.6835
Au 22.696 20.266 15.1715
Pt 18.5589 20.4052 11.9854
Pt 15.9648 20.7927 13.0482
Pt 20.3039 11.5292 14.9956
Pt 15.4366 22.4182 18.1277
Pt 15.5343 12.5653 20.8766
Pt 18.9201 18.8524 9.89724
Au 18.0058 22.6319 17.0987
Pt 22.8824 17.6835 15.843
Pt 16.9793 13.878 19.048
Au 21.4708 8.91353 18.3237
Pt 20.2273 18.9327 15.0514
Pt 15.422 19.2016 8.05214
Pt 20.3414 21.4172 16.0803
Pt 20.7701 20.9667 13.4614
Pt 14.0514 15.6866 23.9039
Pt 21.3705 19.2675 17.3741
Au 17.5664 22.3006 19.9092
Pt 20.9161 16.729 19.9376
Au 17.8926 18.7513 23.2374
Pt 18.0497 17.0066 20.6125
Pt 19.492 20.8848 18.5407
Pt 15.8809 8.39123 19.0894
Pt 15.5951 15.0093 8.09962
Pt 18.4516 17.0001 15.9836
Pt 21.3037 12.6263 9.84561
Pt 19.8138 14.3386 8.49035
Pt 19.7899 10.4476 20.037
Pt 22.3538 18.335 13.1798
Pt 21.7191 17.7744 10.3149
Pt 19.8483 18.151 12.5091
Pt 17.0903 22.1954 10.8674
Pt 19.2859 18.2493 18.4958
