286
Atoms. Timestep: 20240
Pt 11.749 12.4072 7.75283
Pt 16.1783 14.0776 10.1947
Au 13.4649 12.1822 23.229
Pt 21.1845 12.8846 11.6712
Au 9.71885 12.3801 22.4099
Pt 17.833 12.1758 16.9746
Pt 14.8407 7.61762 10.6273
Au 6.32956 10.8771 17.8147
Pt 16.5018 19.4783 16.2204
Pt 22.1394 15.1433 10.5442
Au 5.88908 15.6847 17.8123
Pt 20.6087 16.8211 15.6931
Pt 9.83937 7.93238 15.4611
Au 16.8963 23.5433 13.7766
Pt 10.0187 19.1293 18.1392
Pt 18.011 10.222 10.9647
Au 13.3534 6.05654 12.5219
Pt 12.9743 20.8293 16.398
Pt 14.0721 7.10355 15.2108
Au 14.3702 23.4247 15.8738
Pt 13.9043 13.0235 9.16273
Pt 12.6866 14.7854 11.1809
Au 13.9287 8.17669 8.14928
Pt 5.93434 15.0813 15.0619
Pt 15.7274 7.30876 13.1218
Au 9.09261 13.2049 7.27799
Pt 10.4307 19.2573 9.12856
Pt 19.0324 18.6589 9.72747
Au 9.78205 8.32914 9.20415
Pt 6.45001 10.4481 12.0931
Pt 8.08898 19.5353 9.94279
Pt 22.2715 19.217 15.2264
Pt 15.9836 11.5447 9.90639
Au 19.4771 6.86063 15.9599
Pt 18.96 19.7965 12.2783
Pt 7.41146 12.2634 9.27597
Au 9.30629 8.58006 18.2903
Pt 19.8891 21.057 19.4523
Pt 12.2195 17.1839 21.5196
Au 19.4691 23.5172 14.937
Pt 9.08387 13.7028 10.7427
Pt 22.8696 16.2046 14.7675
Pt 18.6415 8.24388 20.2151
Au 14.0734 8.16316 20.4019
Pt 14.6803 22.7039 12.4078
Pt 10.2002 10.5972 20.3168
Pt 16.4114 20.6453 9.52154
Au 18.0975 13.7048 24.2271
Pt 16.1722 11.9853 19.2467
Au 16.3233 14.754 5.65493
Pt 19.1274 13.6695 13.3295
Pt 13.097 15.2844 8.45541
Au 7.65766 14.0519 21.3766
Pt 13.9278 13.5379 6.58704
Pt 14.5394 14.2992 15.688
Pt 8.76793 8.58182 11.6662
Au 11.3152 21.8695 9.16157
Pt 15.2007 21.365 17.721
Pt 13.4434 8.72501 12.5551
Pt 16.7922 21.2928 12.0455
Au 5.02863 13.1145 16.7017
Pt 19.5515 14.967 10.8803
Pt 10.9166 17.3242 13.9525
Au 22.1079 18.3877 19.9268
Pt 16.4256 18.1383 8.5662
Pt 15.031 7.53276 17.7277
Au 8.84958 6.53748 13.4657
Pt 16.6927 18.5977 11.2169
Pt 17.0032 18.9626 13.7969
Pt 21.0133 20.9553 13.5377
Au 6.23122 19.5622 14.1104
Pt 10.97 21.4644 18.196
Pt 20.6982 16.7582 18.2898
Pt 15.9446 16.7923 18.4814
Au 11.6106 6.05834 14.7136
Pt 17.9113 9.04016 13.4496
Pt 14.8393 16.6835 22.3156
Au 12.0658 7.29106 17.1749
Pt 12.4043 11.101 13.088
Pt 23.9322 13.7885 15.3403
Pt 14.4237 20.0313 12.4867
Pt 13.7535 10.9951 19.4338
Pt 16.8549 12.811 21.9921
Pt 17.0518 22.6409 16.4107
Au 5.46019 16.9067 13.2265
Pt 7.83428 19.9037 16.2977
Pt 16.4118 9.84476 16.9171
Au 22.2488 16.1597 21.7472
Pt 9.68445 11.1019 8.89258
Pt 10.296 12.8124 12.8778
Pt 10.3239 20.5399 15.8653
Pt 11.5542 12.3639 10.437
Au 13.0603 18.7243 5.64688
Pt 18.9303 14.3108 21.5739
Pt 13.2163 19.6186 21.7205
Au 15.2042 20.1049 7.13907
Pt 12.8341 14.7669 22.3331
Pt 21.0439 20.2052 10.9727
Au 7.4599 21.1201 12.2409
Pt 18.2643 16.3999 14.5816
Pt 22.9765 19.388 12.5663
Pt 10.9422 9.98534 16.7476
Au 19.4147 23.07 17.6952
Pt 10.037 18.3476 11.7164
Pt 17.3727 21.9521 19.1036
Pt 11.907 9.85525 8.49813
Au 12.4552 10.0644 21.7326
Pt 16.6889 19.3457 18.8474
Pt 7.52594 12.818 16.0113
Au 18.1006 19.8237 7.52976
Pt 11.3373 17.2264 7.63215
Pt 21.1797 14.0551 15.0175
Au 10.5986 19.541 6.43569
Pt 20.4345 12.1019 20.3951
Pt 5.69689 12.8221 13.906
Pt 15.1305 11.9814 16.7537
Au 18.4507 6.53696 13.4038
Pt 14.7791 14.6542 12.9207
Pt 15.459 17.1055 13.1345
Pt 22.9392 12.1106 16.9704
Au 20.5465 10.742 9.90352
Pt 12.2434 7.70279 10.2803
Pt 13.9779 17.5803 7.85592
Pt 8.47102 15.4677 19.2094
Au 20.0127 8.41307 11.6123
Pt 13.7069 10.1559 10.2843
Pt 14.6421 18.3041 20.1974
Pt 14.4875 13.2433 21.0018
Au 10.8191 19.8272 20.6247
Pt 15.7075 15.4758 7.9977
Au 20.8091 8.90706 14.2099
Pt 11.9721 12.6544 20.9249
Pt 9.29347 17.908 15.8535
Pt 19.6269 11.0581 12.8063
Pt 11.6017 12.06 18.2887
Pt 14.2883 10.8901 7.73447
Pt 12.7391 11.6832 15.7115
Au 16.4846 6.62038 19.8495
Pt 15.2895 20.9273 20.4658
Pt 13.1931 16.2898 14.6879
Pt 17.2246 11.2365 14.5772
Au 17.147 10.701 23.5637
Pt 14.0139 21.5569 10.1064
Pt 7.10755 13.3659 18.5929
Pt 14.8423 16.3512 10.506
Au 16.6204 8.42584 21.9963
Pt 13.0121 17.5888 12.3464
Pt 17.0298 13.9946 14.9669
Au 20.3975 19.578 21.694
Pt 23.1476 15.8671 19.2636
Pt 20.531 12.6621 17.7411
Pt 8.95599 19.5398 13.7785
Pt 20.9552 18.1591 13.2977
Pt 11.9598 18.3408 16.2426
Pt 10.2936 15.027 21.5883
Au 18.8961 8.65331 9.00143
Pt 7.60505 14.8629 8.96884
Pt 18.5736 20.4784 17.2896
Au 25.0413 16.0779 16.4327
Pt 22.9643 17.5265 17.1229
Pt 14.2162 18.8579 14.8132
Pt 16.2428 9.20567 9.04534
Pt 18.2496 17.5801 17.0791
Au 20.5769 8.15271 18.2207
Pt 10.2354 14.9941 14.8383
Pt 22.1923 14.7916 17.1978
Au 13.5844 16.001 5.59725
Pt 9.61495 13.1394 19.8864
Pt 16.4282 14.3896 17.6763
Au 15.7666 19.2393 22.6711
Pt 13.4999 16.1898 17.3587
Pt 22.7075 13.1131 19.4782
Pt 7.57625 8.84059 13.9118
Au 7.34992 9.62963 9.63505
Pt 14.3337 18.7504 17.4936
Pt 15.0091 9.5331 14.6838
Pt 11.9187 9.17167 19.0768
Au 18.8882 21.4173 9.91431
Pt 9.13917 15.9152 7.16601
Pt 6.6318 13.0929 11.5463
Au 7.59123 11.405 20.4723
Pt 19.8052 16.9163 21.2188
Pt 18.8609 17.238 12.1079
Pt 12.8977 22.0088 14.0873
Pt 11.0617 7.63282 12.6751
Pt 22.1938 11.7644 14.3007
Pt 13.9088 15.7422 20.0107
Au 8.37152 18.3708 7.52156
Pt 18.3643 13.2178 19.3281
Pt 18.2654 14.24 8.31764
Pt 23.0961 14.0664 12.9
Au 12.0053 22.713 11.6809
Pt 17.7806 7.88983 17.8069
Pt 11.0813 9.87416 11.1159
Pt 20.9181 15.6245 12.9653
Au 18.4843 18.333 23.1875
Pt 10.1398 12.1698 15.4314
Pt 17.6027 16.3282 9.86398
Au 6.55051 17.3324 9.43998
Pt 19.4078 19.0765 15.142
Pt 15.6974 9.97888 12.1335
Pt 11.7689 19.7613 13.6832
Pt 7.28866 18.3509 11.9461
Pt 23.3209 16.8178 12.2729
Pt 16.1905 9.36579 19.4351
Au 19.0386 5.96127 18.8109
Pt 7.86461 17.7117 18.0867
Pt 19.9611 15.6276 23.4142
Pt 20.6875 21.3809 16.036
Au 20.7686 13.3898 8.89126
Pt 8.81711 11.197 11.3392
Pt 19.1341 14.7378 16.7977
Pt 14.3435 18.9096 10.0807
Au 15.2776 14.2787 23.6101
Pt 12.2777 8.92541 14.8267
Au 11.3988 23.0802 16.0482
Pt 7.32172 15.6981 11.5044
Pt 17.3465 15.9318 22.9148
Pt 15.1796 10.6669 21.636
Pt 19.7338 11.9581 15.2488
Pt 15.4481 21.2968 14.6494
Pt 17.3865 7.72249 11.1087
Au 15.8526 17.5993 5.89986
Pt 14.7786 12.1213 14.0881
Pt 13.8654 13.5669 18.4384
Au 22.1151 10.3044 12.1185
Pt 16.2219 12.7778 7.56953
Pt 8.96263 11.3088 18.0966
Pt 11.558 14.9337 19.3344
Pt 15.8669 16.7092 15.7933
Au 24.7164 13.9391 17.996
Pt 9.19399 16.8494 9.76752
Pt 12.1792 19.9478 11.0604
Au 24.6056 18.1639 14.4175
Pt 12.2413 17.8936 19.0063
Pt 21.2921 17.612 10.7777
Pt 7.99231 11.5768 13.7804
Pt 16.758 7.50608 15.4799
Pt 14.0806 12.4549 11.6197
Pt 17.9723 10.7093 20.9291
Au 25.2489 15.5401 13.6953
Pt 16.3785 14.9563 20.5625
Pt 9.61535 13.8056 17.4101
Au 21.5391 13.6267 22.3313
Pt 18.1943 11.2741 8.43279
Pt 12.0322 14.1581 16.5335
Pt 16.7786 12.5569 12.3829
Pt 10.2885 15.6279 12.0248
Pt 10.0442 9.96193 13.6991
Pt 12.4591 13.8207 13.804
Au 20.5062 9.66802 21.317
Pt 9.86859 20.9848 11.3072
Pt 9.95053 17.2928 20.1347
Au 5.74584 10.5163 15.1068
Pt 19.4014 11.9358 22.7461
Pt 13.067 20.4024 19.1829
Pt 10.5218 16.3657 17.472
Pt 17.8199 20.195 21.1245
Pt 12.0115 17.2172 10.0701
Pt 8.04556 14.1941 13.566
Au 10.8593 17.0078 5.14764
Pt 18.6166 12.6907 10.5661
Pt 6.53409 17.574 15.7737
Au 13.1537 22.9947 18.3162
Pt 18.2158 21.2421 14.555
Pt 18.8154 9.47616 15.9379
Pt 10.6708 14.6989 9.08325
Pt 8.10121 15.524 16.3323
Pt 21.2064 10.2438 16.5621
Pt 10.2059 21.9141 13.6873
Au 18.1924 16.7341 7.0488
Pt 20.1459 16.3027 8.82836
Au 22.0612 10.4234 19.0867
Pt 8.19694 16.7956 13.7782
Pt 17.2271 15.2541 12.3548
Pt 13.6882 9.62484 17.1343
Pt 12.7499 19.8666 8.20097
Pt 19.1786 22.413 12.4062
Pt 17.1338 17.5954 20.9167
Pt 20.9596 19.283 17.5612
Pt 20.7506 14.7024 19.7696
Pt 8.30331 10.0434 16.0189
Pt 18.3772 15.8953 19.1676
Pt 11.3875 14.6749 6.48501
Pt 19.1667 18.6141 19.4101
Pt 19.0615 10.4027 18.5591
