286
Atoms. Timestep: 20165
Pt 9.68824 11.1737 20.8926
Pt 11.3385 7.50252 18.5968
Au 9.95558 6.29731 16.3525
Pt 8.08695 10.8054 18.7717
Au 9.12282 8.56314 20.2651
Pt 7.45969 13.252 14.1737
Pt 8.82419 8.29558 14.9143
Au 6.1256 11.3753 12.394
Pt 10.5991 10.0808 18.592
Pt 11.6489 9.29927 20.863
Au 6.77175 9.5807 16.5722
Pt 9.22149 14.7589 13.0211
Pt 8.90893 8.33682 17.6159
Au 5.29143 14.6588 13.5077
Pt 9.55683 10.5442 16.2959
Pt 7.51164 13.8289 18.6369
Au 5.37428 11.8397 15.0675
Pt 8.98864 17.5231 13.5057
Pt 6.07141 14.2415 16.2953
Au 5.79039 17.5857 13.0942
Pt 9.23443 12.1595 12.4706
Pt 7.36899 15.934 14.6617
Au 5.00191 16.5939 15.6619
Pt 8.59633 16.2225 9.27313
Pt 8.08367 18.3875 10.9796
Au 7.08211 21.2695 15.3268
Pt 7.47104 19.7483 13.0638
Pt 9.68733 21.8381 16.3143
Au 10.5789 23.8217 14.3506
Pt 6.93278 18.4364 15.3967
Pt 8.92637 20.8191 11.0138
Pt 11.5044 8.8405 16.2017
Pt 12.5391 6.46187 16.3529
Au 12.4463 6.46376 11.6339
Pt 15.1428 11.0032 17.8325
Pt 14.0462 6.89841 18.4438
Au 13.8753 7.89602 20.986
Pt 10.1294 8.05932 11.6258
Pt 12.3513 9.09816 12.3014
Au 9.19817 9.21732 9.1834
Pt 10.4131 9.99842 13.7648
Pt 9.9376 12.6821 18.0759
Pt 17.0822 13.0577 17.4586
Au 10.8277 15.7442 14.818
Pt 11.9386 11.9207 19.8946
Pt 11.2031 13.13 22.2557
Pt 14.3918 10.7507 20.5111
Au 13.2899 13.0961 24.0881
Pt 13.1058 9.45294 18.6595
Au 9.67047 15.2454 22.6644
Pt 7.07464 13.6309 11.4995
Pt 7.96353 11.5376 10.2185
Au 7.46644 13.7698 8.72233
Pt 7.79367 10.6559 14.3375
Pt 12.1908 17.2713 12.9459
Pt 11.9866 11.841 12.5602
Au 14.7413 12.2062 13.23
Pt 8.85261 14.4988 16.2501
Pt 9.67043 15.4727 18.4834
Pt 11.9539 14.6734 19.8155
Au 11.8143 14.3281 16.9998
Pt 7.57462 12.1584 16.6341
Pt 9.45748 13.7325 20.4595
Au 7.79579 15.9399 20.413
Pt 10.2082 16.7219 11.3207
Pt 9.97194 14.404 7.72976
Au 9.88703 17.0624 7.02136
Pt 7.39555 16.0653 11.6917
Pt 11.5861 14.3932 11.998
Pt 9.53826 13.974 10.3999
Au 14.6284 17.7133 8.99908
Pt 13.8576 18.8723 14.2584
Pt 9.31752 19.6659 14.9627
Pt 9.23453 17.3334 16.3869
Au 14.9768 15.0342 13.2621
Pt 7.13822 16.3914 17.5559
Pt 8.90786 18.0247 19.0111
Au 9.30617 21.1456 19.2691
Pt 10.0341 18.5684 9.28859
Pt 11.3016 20.7458 9.91558
Pt 13.487 20.3471 8.68805
Pt 12.4158 18.4384 10.4458
Pt 8.98645 21.8419 13.5215
Pt 15.0255 20.0672 10.7303
Au 15.9434 22.5012 9.6445
Pt 10.5046 19.3775 12.3842
Pt 7.99648 19.7503 17.3315
Au 10.5133 24.2132 17.0519
Pt 10.9833 22.2856 11.91
Pt 12.9548 20.3581 12.2593
Pt 11.0551 7.21545 13.9816
Pt 14.3683 8.20102 10.476
Au 13.3356 5.23998 14.0544
Pt 12.9744 10.5951 14.7491
Pt 18.3129 8.39176 19.3882
Au 16.7956 6.3675 18.2703
Pt 10.5742 10.7754 10.6927
Pt 12.09 12.938 6.932
Au 14.2679 11.3018 6.03243
Pt 11.874 8.55124 9.68833
Pt 8.27285 9.66551 12.0035
Pt 15.7633 10.6279 15.2704
Au 17.367 13.0674 11.8162
Pt 17.0979 8.73151 16.9315
Pt 14.3839 8.77836 16.5561
Pt 16.9949 10.1998 21.1432
Au 12.6305 13.6892 14.3547
Pt 15.7315 8.76304 19.2364
Pt 12.6866 10.9928 22.4939
Au 14.9582 9.59302 22.8519
Pt 12.1141 15.5485 6.64726
Pt 14.3291 14.0639 6.14698
Au 14.4252 19.2776 6.41901
Pt 9.71121 11.9577 8.40806
Pt 11.8803 13.1162 9.58216
Pt 14.2874 12.3246 8.4162
Au 14.2743 13.3766 10.9314
Pt 16.8259 8.61771 11.6091
Pt 10.1939 12.6207 14.9305
Pt 17.6139 10.827 18.6146
Au 15.9797 15.5565 10.7891
Pt 12.2429 11.5699 17.0675
Pt 10.9708 19.1951 20.1783
Pt 16.2648 12.6344 20.0441
Au 16.2319 15.3025 16.0919
Pt 13.7087 13.1976 21.4652
Pt 10.4875 16.6868 20.7203
Pt 15.7175 12.1842 22.6701
Au 14.0661 15.6549 17.95
Pt 12.4768 15.5662 22.3242
Au 12.0834 18.2967 22.5052
Pt 12.3287 18.0649 7.70184
Pt 16.1038 20.136 8.34162
Pt 16.7587 17.9703 6.96275
Pt 11.4078 16.005 9.15799
Pt 17.1619 17.9911 9.57284
Pt 13.9041 14.9222 8.58154
Au 18.7769 19.8344 8.22234
Pt 13.2919 15.9512 10.9165
Pt 11.5083 18.3474 15.2913
Pt 14.7975 9.66341 12.7745
Au 13.5216 16.2257 15.2677
Pt 11.5906 17.1454 17.9174
Pt 10.6128 19.5673 17.5015
Pt 13.1017 19.8526 18.8545
Au 14.1228 18.1839 17.1277
Pt 11.6098 21.9849 18.1892
Pt 12.9978 17.3838 20.1075
Au 11.9452 21.5572 20.8503
Pt 17.6292 20.4245 10.6265
Pt 13.4676 22.3536 10.6879
Pt 18.4516 21.9362 12.661
Pt 15.7312 22.1843 12.2927
Pt 12.7339 23.1308 15.9867
Pt 14.2647 21.4256 14.3245
Au 14.9502 24.5661 11.9623
Pt 11.4611 21.1605 14.3227
Pt 12.8664 20.4674 16.3638
Au 12.5388 24.3877 18.7521
Pt 12.9726 23.3078 13.1841
Pt 15.0169 23.9588 14.7792
Pt 16.5979 8.56928 8.97305
Pt 18.8673 8.6134 14.98
Au 16.4945 6.17589 10.3906
Pt 15.1363 6.32728 16.026
Pt 17.725 6.32284 15.6348
Au 16.1662 4.90702 14.0009
Pt 16.4579 10.8173 7.77383
Pt 14.2204 9.57721 8.24937
Au 16.7909 15.5759 5.54108
Pt 11.891 10.6583 8.12604
Pt 13.2475 10.7994 10.4656
Pt 15.795 10.8998 10.4973
Au 19.1645 9.17631 7.95238
Pt 13.5109 7.90595 14.3305
Pt 19.7877 9.56394 17.5326
Pt 19.5173 10.7034 20.2639
Au 16.8301 13.135 14.6525
Pt 16.3084 8.16676 14.3849
Pt 18.7171 13.8739 19.6489
Au 21.8497 10.328 19.168
Pt 16.6074 13.1704 6.68654
Pt 14.4906 16.6342 6.54928
Pt 16.5365 15.6077 8.14022
Pt 16.7483 13.1949 9.25059
Pt 18.4984 15.6847 10.1718
Pt 20.3079 16.8964 12.2449
Au 19.1968 17.095 7.7959
Pt 18.3057 10.4899 10.1042
Pt 20.0568 14.2831 11.9662
Pt 13.9901 13.1462 18.8025
Au 16.1184 17.3485 14.339
Pt 18.9806 14.5914 16.2984
Pt 16.634 15.3091 18.8879
Pt 19.366 12.9673 14.1714
Au 14.4827 13.0718 16.153
Pt 18.3488 12.4017 21.853
Pt 14.9669 14.9268 23.2158
Au 19.48 14.743 22.5433
Pt 19.8403 18.289 10.1513
Pt 16.4583 19.7782 13.0671
Pt 19.1928 19.3313 12.568
Pt 14.7851 17.8269 11.926
Pt 15.9011 19.7038 15.8036
Pt 17.5702 17.5024 12.0405
Au 20.2498 21.0306 10.6982
Pt 18.0125 15.2737 13.3189
Pt 15.5987 17.6865 19.6877
Pt 21.3613 13.4713 15.9127
Au 16.8742 17.6708 17.1771
Pt 14.6392 15.3572 20.5862
Pt 14.0737 19.751 21.1922
Pt 16.9463 14.6578 21.5398
Au 17.3152 13.877 24.05
Pt 14.7144 17.419 22.2752
Au 17.137 16.7213 23.2716
Pt 16.7966 21.9522 14.7771
Pt 17.1806 23.8108 16.4964
Pt 18.5382 19.9633 14.9257
Pt 15.0782 21.8725 16.9349
Pt 16.613 22.9241 18.886
Pt 15.7848 20.2254 18.9646
Au 17.3715 24.2852 13.5441
Pt 14.0645 22.2984 19.3657
Pt 16.7581 19.1334 21.5344
Au 15.8312 21.7747 21.3456
Pt 14.753 24.2899 17.4349
Pt 17.7815 20.8944 17.2914
Pt 18.7448 7.6292 10.1286
Pt 17.9869 6.61237 12.8737
Au 20.5138 6.50503 11.7372
Pt 15.0505 6.76674 12.5475
Pt 21.4326 8.50571 15.6998
Au 20.2918 6.39428 14.4478
Pt 18.7728 11.811 7.66413
Pt 19.3697 13.1851 9.72329
Pt 20.9122 8.991 10.5069
Pt 19.2701 8.92698 12.447
Pt 19.9321 11.5388 11.8115
Pt 21.8388 10.9267 16.4721
Au 18.9603 14.477 7.34719
Pt 17.5078 10.7143 13.1867
Pt 19.8815 12.2154 17.8873
Au 19.612 6.95743 17.3256
Pt 20.9404 15.4355 9.66322
Pt 22.5959 15.0686 11.9205
Pt 20.8285 11.0983 9.19543
Pt 23.7749 12.5611 15.5704
Pt 20.9156 15.4993 14.2843
Pt 22.7689 12.5899 18.1858
Au 24.2977 12.6718 12.7261
Pt 18.3537 11.1263 15.923
Pt 20.9614 12.8934 20.3954
Au 23.0704 16.9349 18.6937
Pt 21.7686 19.3086 12.1376
Pt 20.8975 18.4508 14.6523
Pt 23.4729 14.8358 14.3942
Pt 22.0961 19.0322 17.2273
Pt 18.9689 16.318 18.3399
Pt 18.7277 17.0919 15.042
Au 22.5005 17.3992 10.4666
Pt 20.7585 15.736 20.5137
Pt 21.0206 14.579 18.2883
Au 23.1601 14.5263 19.9599
Pt 19.4625 18.7186 17.0409
Pt 20.7762 21.1326 13.7086
Pt 22.8849 17.2632 13.242
Pt 18.0729 18.8569 19.2424
Pt 18.1476 21.286 20.1385
Pt 20.7297 18.0018 19.3416
Au 23.0635 19.8644 14.6934
Pt 18.2812 16.8082 20.8737
Au 19.548 19.2705 21.4449
Pt 19.2284 22.7742 17.9075
Pt 20.2755 20.5252 18.8771
Pt 21.7246 8.47588 13.0854
Pt 22.4441 10.709 11.7693
Pt 20.4565 10.581 14.2425
Pt 22.0109 12.9834 10.5706
Pt 21.8606 12.7809 13.4104
Pt 23.1073 10.4213 14.2456
Pt 23.3683 14.8989 17.0367
Pt 23.3112 17.2299 15.7399
Pt 21.0542 16.5546 16.6898
Pt 20.7146 20.9994 16.3119
Pt 19.2065 22.7471 15.1834
