286
Atoms. Timestep: 20303
Pt 16.9403 11.9497 20.9499
Pt 12.9275 6.20977 14.3206
Au 19.1324 18.1777 22.2971
Pt 17.5495 13.5791 22.9184
Au 10.5565 11.3002 23.7858
Pt 8.95817 10.6568 18.6452
Pt 8.04092 12.5025 10.2792
Au 15.6145 21.0264 22.0783
Pt 15.6282 10.4028 19.1583
Pt 19.2303 9.44614 10.7851
Au 7.77235 15.3735 20.8154
Pt 14.829 16.374 6.35265
Pt 10.3971 15.9528 10.0779
Au 9.26079 21.1246 10.2818
Pt 10.378 8.74409 19.8135
Pt 16.5853 9.44892 21.6581
Au 12.9519 7.56769 9.45764
Pt 7.98701 16.4644 11.1349
Pt 10.4133 9.5871 12.6081
Au 4.79295 13.9605 13.8646
Pt 19.3919 15.2996 22.114
Pt 14.5366 16.6477 23.028
Au 6.8592 19.0022 10.9799
Pt 13.8615 19.5972 9.49115
Pt 15.0287 14.3435 8.07341
Au 10.9218 20.3777 8.12379
Pt 11.4542 19.4068 16.6193
Pt 8.76225 19.5951 17.1432
Au 23.3619 16.3329 9.62447
Pt 7.2311 17.4108 16.1743
Pt 12.6582 17.2545 11.0538
Pt 11.3482 12.5819 21.6129
Pt 13.0323 12.6418 23.5097
Au 17.7733 20.2982 6.76659
Pt 13.9369 10.1216 21.1446
Pt 7.00178 15.0037 13.1008
Au 20.5308 9.02399 19.0855
Pt 10.6677 7.90496 10.6762
Pt 12.1852 16.8208 17.6797
Au 14.2441 11.7108 6.21824
Pt 10.7321 13.2703 10.2677
Pt 15.3675 7.87718 20.0683
Pt 21.1549 9.40285 12.6319
Au 11.6543 16.4073 14.9491
Pt 15.5307 12.0852 11.5462
Pt 13.2997 9.1613 18.6972
Pt 11.2988 9.63758 17.0688
Au 21.468 8.3932 16.5296
Pt 20.2515 13.4929 17.9306
Au 9.34516 16.7606 7.51206
Pt 9.73777 14.4529 16.7964
Pt 9.06403 19.6062 12.4917
Au 13.4613 21.5987 7.77631
Pt 8.93089 15.7606 14.6336
Pt 9.18259 8.26745 17.4752
Pt 17.7689 8.78575 19.0561
Au 12.7173 5.85837 11.6531
Pt 17.28 7.21921 13.193
Pt 15.3417 19.5644 19.7977
Pt 12.8685 18.9789 19.2161
Au 17.9058 20.4382 14.2045
Pt 6.72102 14.6419 15.8
Pt 12.1448 9.08655 14.6409
Au 17.1902 16.2066 23.4556
Pt 9.11898 18.4132 9.72574
Pt 17.4205 15.181 6.70904
Au 6.85741 16.9526 8.9194
Pt 7.78785 12.7293 17.3472
Pt 9.40167 10.8832 21.1832
Pt 11.2401 19.3818 10.8816
Au 15.2871 5.3978 13.3316
Pt 10.9723 21.4591 12.5262
Pt 9.56867 18.3774 14.8183
Pt 11.5899 9.70277 21.9258
Au 12.1165 14.8341 12.205
Pt 8.16591 10.459 16.1973
Pt 10.4184 15.0529 21.5953
Au 12.4237 4.98944 16.8115
Pt 12.9897 20.9732 14.476
Pt 13.4898 20.2974 11.9561
Pt 17.1101 18.9008 9.37842
Pt 12.0374 21.7675 10.1065
Pt 19.0067 15.7833 8.87267
Pt 16.4442 16.4549 8.70369
Au 6.13467 14.4384 10.5749
Pt 17.1586 13.6713 9.53772
Pt 13.858 23.3273 14.9335
Au 18.0459 10.9753 23.3686
Pt 6.80312 12.5215 12.575
Pt 17.8398 22.3847 16.122
Pt 14.9669 11.9364 8.88031
Pt 13.0296 14.1328 6.50528
Au 18.2557 8.74054 8.2429
Pt 14.1899 9.95215 10.6693
Pt 16.5202 9.55317 12.3043
Au 19.2698 6.99541 17.5069
Pt 13.4404 9.87074 8.13177
Pt 12.6564 14.9658 9.18204
Au 15.0266 5.4722 16.139
Pt 16.7732 11.0696 16.9175
Pt 16.3774 18.7401 15.9394
Pt 9.17104 13.1966 19.6374
Au 12.5187 14.3135 16.6464
Pt 14.3414 10.4708 13.5146
Pt 7.86598 10.3763 13.5302
Pt 19.1867 15.9509 18.5662
Au 13.8356 16.8046 13.3452
Pt 17.5145 16.3615 16.3871
Pt 18.8482 10.1786 13.435
Au 8.66325 13.1339 22.3718
Pt 12.824 8.4886 12.2475
Pt 15.6853 18.7159 7.24927
Au 20.3394 19.8079 7.62973
Pt 18.3495 22.7639 13.2683
Pt 12.1647 11.7058 12.688
Pt 9.54903 11.9263 12.2693
Au 11.0777 19.625 21.4058
Pt 13.1298 18.9614 7.02075
Pt 15.3843 11.5187 22.9862
Pt 21.2057 11.0417 17.4139
Au 15.4774 13.9701 5.30698
Pt 13.4457 11.9697 18.0317
Pt 9.97808 15.7824 19.1397
Pt 19.4778 7.97828 14.7136
Au 6.04181 11.9288 15.2289
Pt 22.3276 13.8566 11.0545
Pt 19.1519 21.4269 18.6451
Pt 10.6123 12.1664 17.2247
Au 14.7786 17.7158 17.8277
Pt 12.7154 7.60799 20.6795
Au 8.76598 9.90272 10.3356
Pt 17.6917 16.2495 10.9737
Pt 7.56688 15.2687 18.1332
Pt 16.131 10.0928 7.32145
Pt 19.4989 18.4426 9.98078
Pt 22.6997 18.0528 16.309
Pt 10.1748 17.1004 12.4833
Au 23.9994 14.1176 13.6973
Pt 7.41348 17.7513 13.3778
Pt 15.7829 8.24568 17.3364
Pt 19.9861 15.073 15.8058
Au 14.7274 15.866 15.8694
Pt 5.47308 16.4975 14.5066
Pt 10.9234 13.7043 14.3299
Pt 7.92389 17.6631 18.9186
Au 12.8302 11.981 15.2801
Pt 15.3111 19.3038 13.5617
Pt 17.7538 13.7739 17.335
Au 9.43719 22.1547 17.1425
Pt 12.3281 12.2549 8.20326
Pt 9.29069 14.4347 12.1412
Pt 18.732 17.8538 14.6737
Pt 21.0061 20.5896 10.3556
Pt 20.7302 16.2171 10.982
Pt 11.9927 22.1383 16.5299
Au 7.3998 20.0317 14.8393
Pt 13.6431 18.5627 15.5506
Pt 15.0234 7.3817 11.5186
Au 17.5892 23.559 18.5057
Pt 11.8162 18.8928 13.5153
Pt 20.7096 16.8654 20.5196
Pt 23.0373 16.2916 12.2932
Pt 8.39202 14.6806 9.06283
Au 8.31769 7.94923 12.2645
Pt 14.0445 6.30228 18.5978
Pt 10.7288 7.00442 13.1994
Au 22.4562 18.287 18.9712
Pt 8.43401 12.9917 14.66
Pt 11.5914 10.5572 10.3518
Au 5.34696 16.7915 11.8027
Pt 16.0318 20.3391 11.157
Pt 10.3039 11.0566 14.8361
Pt 18.6405 21.1803 9.1487
Au 10.8069 9.2159 8.26034
Pt 20.7653 11.5595 11.2116
Pt 17.2555 6.77724 15.7596
Pt 22.7624 18.9329 13.3849
Au 16.6532 11.8562 14.123
Pt 12.1013 16.4464 6.79489
Pt 13.9731 12.6215 20.7877
Au 22.8641 13.2705 18.1693
Pt 21.3343 16.9426 14.3512
Pt 17.6007 18.4273 12.294
Pt 19.5917 12.809 13.4193
Pt 19.6083 13.8555 10.6618
Pt 17.605 14.2494 14.8032
Pt 20.2386 18.5744 12.5156
Au 17.7942 22.3378 20.862
Pt 10.5834 14.316 7.70787
Pt 9.23272 8.53908 14.8133
Pt 10.3299 18.5721 19.0065
Au 14.4287 13.8264 13.4667
Pt 22.2409 18.3828 10.8971
Pt 18.647 20.6469 11.6382
Pt 22.2857 12.0191 13.1788
Au 15.2073 13.211 16.1596
Pt 14.9574 15.0638 10.7838
Pt 13.2574 21.1523 20.6316
Au 11.1878 23.4103 14.3563
Pt 21.1416 17.3276 8.32793
Pt 17.1293 22.6875 10.8064
Pt 22.7602 15.2589 15.8585
Pt 11.4948 17.9004 8.74431
Pt 15.5451 22.0985 12.9848
Pt 21.4334 14.5498 13.404
Au 15.2524 23.4525 17.1738
Pt 18.9016 11.3889 8.93554
Pt 11.491 7.01094 18.3818
Pt 21.7269 12.9336 15.5882
Au 16.4337 16.4537 13.6959
Pt 9.66382 17.0247 16.9357
Pt 13.0976 22.9558 12.4297
Pt 16.3853 15.632 18.6351
Au 19.7124 7.21582 12.1504
Pt 15.1688 14.1234 23.5798
Au 19.8399 22.9622 10.9926
Pt 15.9991 21.1507 8.56495
Pt 21.2692 20.1567 17.4701
Pt 9.79565 11.718 8.49567
Pt 13.9706 20.6152 17.5087
Pt 17.8142 19.8006 20.5002
Pt 19.1698 15.722 13.0865
Au 24.2812 16.9345 14.484
Pt 9.49825 17.4543 21.1912
Pt 16.6653 20.8106 17.9109
Au 13.2626 10.0572 23.9181
Pt 14.8803 17.0059 20.4494
Pt 16.3124 18.4408 22.1781
Pt 14.8623 7.93058 14.3121
Pt 19.0337 10.1904 20.9711
Au 21.4962 12.1567 8.79383
Pt 16.9171 12.5213 7.15068
Pt 13.0906 14.8273 21.8162
Au 11.6679 17.0846 23.0911
Pt 20.2079 17.5898 16.9008
Pt 17.4483 7.64383 10.6088
Pt 15.2791 17.7444 11.0871
Pt 14.3604 10.09 16.245
Pt 13.2905 12.8496 10.6598
Pt 19.6411 12.604 21.782
Au 16.8129 6.0938 18.465
Pt 11.69 13.7954 19.294
Pt 16.9608 9.27909 15.0093
Au 14.5016 8.01651 22.6694
Pt 14.0149 17.0762 8.71963
Pt 18.1247 11.8021 11.4741
Pt 15.473 8.21098 8.97288
Pt 13.3016 7.64596 16.5132
Pt 17.6866 16.6918 20.6979
Pt 15.7972 13.0025 18.8572
Au 20.1188 15.7545 6.36938
Pt 21.0046 10.4489 14.9061
Pt 18.7672 19.8191 16.6632
Au 20.3635 22.0757 15.6279
Pt 14.5436 22.3637 10.3436
Pt 19.0959 12.0547 15.8329
Pt 21.4398 14.7595 8.71134
Pt 21.0479 11.7086 19.856
Pt 12.1253 16.8348 20.4408
Pt 17.0797 14.0914 12.2757
Au 22.7864 19.3381 8.6208
Pt 18.9729 9.54624 16.7652
Pt 15.8369 14.6295 21.1626
Au 10.7183 14.0479 23.9959
Pt 18.6101 11.4876 18.7626
Pt 20.7645 21.2162 13.0181
Pt 13.5882 18.8247 21.8885
Pt 15.5128 21.2705 15.4778
Pt 17.4224 18.1887 18.4271
Pt 15.4414 22.2508 19.6435
Au 16.3987 24.0484 14.587
Pt 21.0697 14.3171 20.2417
Au 13.005 15.1998 24.6496
Pt 13.1137 22.8314 18.6684
Pt 18.2948 13.9826 20.0306
Pt 10.8214 6.89854 15.8672
Pt 18.4314 17.7723 7.30527
Pt 19.325 13.5052 7.66212
Pt 16.7553 10.2997 9.82219
Pt 21.7998 15.8348 18.1463
Pt 13.8819 15.0139 18.9948
Pt 11.5696 11.0494 19.5385
Pt 11.177 21.0084 18.8283
Pt 19.8158 18.8431 19.2439
Pt 10.0825 20.9266 14.8956
Pt 20.8276 19.5364 14.9844
