286
Atoms. Timestep: 20232
Pt 10.2588 15.5559 21.9041
Pt 9.24316 11.3868 20.667
Au 12.6088 7.84124 20.2522
Pt 11.9308 13.5455 21.9202
Au 13.0798 11.3375 23.3152
Pt 10.6993 12.7202 15.2864
Pt 11.193 10.3528 16.5349
Au 10.4825 6.29964 15.9101
Pt 13.066 10.2851 18.8242
Pt 15.8903 11.5206 22.7374
Au 7.15145 12.7975 19.8012
Pt 8.69001 10.9608 15.8383
Pt 9.34235 8.55038 17.1702
Au 7.00486 10.031 10.7125
Pt 10.4894 9.36139 19.4118
Pt 6.47099 12.1919 17.1667
Au 6.74423 9.26092 16.3745
Pt 9.53804 19.4906 12.8184
Pt 6.2084 11.3855 14.7825
Au 6.6603 9.1709 13.3932
Pt 8.96775 18.3374 17.1204
Pt 8.04615 13.3338 14.9126
Au 5.60048 14.3863 15.8351
Pt 9.9328 17.9757 10.2216
Pt 17.1721 16.0248 11.053
Au 6.16623 15.4034 11.2654
Pt 9.34412 20.4945 10.2665
Pt 11.5128 20.5163 18.111
Au 11.2286 23.8188 13.7933
Pt 6.98047 15.7209 13.9795
Pt 5.92742 13.4347 13.2433
Pt 11.6301 8.41527 14.991
Pt 11.9123 7.99674 17.6592
Au 10.8325 7.1906 10.5149
Pt 15.0183 11.9501 18.1639
Pt 13.9996 9.65808 21.4866
Au 21.8733 12.6404 21.3998
Pt 8.2886 14.3139 9.63823
Pt 12.0512 8.88505 8.90159
Au 9.38462 13.6715 7.21075
Pt 10.3783 10.5053 13.768
Pt 9.86998 13.758 20.0469
Pt 17.3135 11.9678 20.2705
Au 10.9558 16.6916 16.3549
Pt 12.7723 13.3063 19.2653
Pt 14.2717 13.6541 23.3731
Pt 14.3816 12.2049 20.8382
Au 17.0558 13.6123 24.1698
Pt 15.9381 7.55506 15.9998
Au 12.5994 15.8699 23.5089
Pt 9.35839 9.35828 9.5169
Pt 6.64058 12.6463 10.8765
Au 7.65489 11.7543 8.46241
Pt 8.89087 8.50503 14.673
Pt 9.03569 17.5321 14.5484
Pt 8.49994 15.5075 16.2287
Au 10.9109 12.9076 12.5059
Pt 8.72811 13.1622 17.5635
Pt 11.0104 14.2633 17.4508
Pt 16.0924 16.4414 20.8229
Au 13.3725 15.4301 17.349
Pt 8.22542 10.5885 18.4158
Pt 13.8276 15.1679 21.2378
Au 7.71737 15.3582 20.7908
Pt 12.2593 16.8082 9.79121
Pt 16.6953 16.3891 8.00786
Au 7.56355 16.8915 9.32834
Pt 8.0643 11.423 12.9552
Pt 8.39087 14.0387 12.3184
Pt 10.3934 15.3707 11.0952
Au 13.6655 20.0811 7.33445
Pt 13.3679 18.93 14.3169
Pt 6.73913 18.2808 13.3965
Pt 7.8568 19.8713 15.0112
Au 14.9984 17.1954 15.7674
Pt 6.83528 14.939 18.1422
Pt 6.69141 17.3853 16.1104
Au 6.716 19.817 17.4343
Pt 11.3295 19.7119 8.80981
Pt 14.246 20.4476 12.1158
Pt 15.4935 21.1101 9.81599
Pt 13.7459 17.691 12.0461
Pt 10.5577 22.0062 11.8099
Pt 16.1485 19.124 8.23237
Au 18.7384 16.3231 6.28816
Pt 11.1385 17.4378 12.781
Pt 9.49558 21.7464 14.2524
Au 7.56957 21.1927 12.4382
Pt 11.7866 19.6164 11.46
Pt 13.0177 22.8699 12.0529
Pt 9.13384 8.96939 12.0342
Pt 12.6951 11.3908 9.01937
Au 9.93039 6.59285 13.1163
Pt 11.872 8.5604 12.4758
Pt 11.8022 11.1585 20.9393
Au 15.5107 7.37629 20.6142
Pt 15.1085 11.604 9.79152
Pt 10.9875 13.5056 9.4547
Au 13.7516 13.8306 5.18374
Pt 10.2823 11.2182 8.12367
Pt 9.16226 11.9101 10.5997
Pt 15.5663 10.7991 12.4236
Au 12.9237 14.9778 11.8714
Pt 13.8296 9.62119 16.2935
Pt 12.9363 10.8343 14.0247
Pt 18.4328 8.44144 16.2418
Au 13.5138 13.5102 14.155
Pt 19.8876 11.0121 20.7538
Pt 15.7953 9.94324 19.7152
Au 18.3759 10.7088 22.9233
Pt 11.7254 17.7745 7.31718
Pt 14.6342 12.2292 7.19888
Au 16.191 17.941 5.85269
Pt 8.43733 16.7297 12.0352
Pt 11.2279 10.5176 11.0014
Pt 14.8605 14.7941 7.34749
Au 10.2543 15.1111 14.0485
Pt 13.2724 12.111 11.6412
Pt 12.9711 12.3618 16.6514
Pt 16.3588 9.97316 17.079
Au 13.6601 16.5394 5.3904
Pt 10.7357 11.7967 18.4927
Pt 8.8076 19.8401 19.1976
Pt 17.2288 7.89523 18.5031
Au 17.4299 12.9415 17.6501
Pt 16.2547 13.921 21.676
Pt 9.26636 16.0137 18.6936
Pt 18.1172 9.17608 20.5755
Au 15.4644 14.2607 16.2375
Pt 15.5889 15.9428 23.4057
Au 7.02267 17.5614 18.9964
Pt 13.7445 19.0148 9.74713
Pt 12.2701 15.2938 7.45996
Pt 22.7919 15.281 11.3561
Pt 14.2158 17.3848 7.77732
Pt 18.5805 18.454 11.9378
Pt 13.5719 13.8694 9.39643
Au 18.6734 18.9761 7.15924
Pt 14.8178 16.1076 10.0382
Pt 10.7944 19.4994 15.4154
Pt 15.4742 13.6591 11.5691
Au 12.8488 16.1452 14.4698
Pt 11.0109 18.0848 18.9394
Pt 9.15108 21.126 16.933
Pt 11.7225 15.687 19.7315
Au 12.8725 18.3866 17.0378
Pt 11.3115 22.3362 16.03
Pt 9.17588 17.6987 20.7812
Au 9.97101 22.3397 19.2596
Pt 20.5146 17.1173 8.28026
Pt 12.8267 21.5327 9.86133
Pt 19.5227 20.9664 11.8918
Pt 18.0684 20.3861 9.68244
Pt 12.4658 23.0469 18.1481
Pt 15.4178 20.7575 14.5081
Au 14.7542 23.5579 10.189
Pt 12.0833 21.0825 13.7575
Pt 13.5509 20.9071 16.2765
Au 14.722 23.7078 19.7067
Pt 15.5837 22.8377 12.6362
Pt 13.7537 23.0076 14.6207
Pt 18.1445 9.31519 11.8529
Pt 15.9693 7.98287 11.9621
Au 12.4397 10.2885 6.53073
Pt 12.4401 6.22711 13.782
Pt 14.5344 8.01735 18.2578
Au 14.6594 7.31036 9.30147
Pt 18.5294 13.8473 11.3441
Pt 11.9737 12.8709 6.9568
Au 16.2378 15.3338 5.17451
Pt 9.97695 16.0195 8.45741
Pt 14.2392 8.57589 13.8605
Pt 17.5895 13.8467 6.93488
Au 20.5932 14.384 7.20992
Pt 16.4729 9.27419 9.7287
Pt 15.1937 6.17847 13.7996
Pt 21.4484 10.701 18.7682
Au 16.7436 13.6884 13.8559
Pt 14.5508 9.66811 8.03576
Pt 20.1544 13.3504 19.4843
Au 22.4531 8.56769 17.3475
Pt 20.1122 11.5316 11.4552
Pt 7.5077 18.9168 11.044
Pt 18.2682 17.7693 9.42935
Pt 16.5325 13.8042 9.23211
Pt 18.8496 15.1749 8.97789
Pt 21.4382 16.4992 13.2927
Au 22.561 15.6249 8.76349
Pt 19.0403 9.96087 9.25253
Pt 20.4921 10.0217 16.3518
Pt 15.3941 14.3855 19.1257
Au 15.4107 15.9254 13.2066
Pt 18.2645 11.6728 13.1877
Pt 18.8669 13.1442 22.0643
Pt 23.9332 13.9385 16.4768
Au 15.3981 11.6449 15.1437
Pt 20.506 15.0886 21.6944
Pt 18.1465 15.6993 22.582
Au 22.52 17.6658 20.2498
Pt 22.3748 17.6696 10.6261
Pt 16.0755 18.4856 10.8498
Pt 16.9138 20.6644 12.1169
Pt 20.3904 19.175 9.97557
Pt 16.538 23.1442 15.0937
Pt 19.1313 13.7932 14.9757
Au 19.0776 22.7205 15.9736
Pt 18.7457 15.9481 13.1603
Pt 14.0021 17.097 19.3709
Pt 21.5826 14.8959 17.5607
Au 17.4762 16.0949 15.4431
Pt 17.3175 18.112 22.511
Pt 10.7044 19.9876 20.8769
Pt 20.0406 17.6766 21.7138
Au 15.5659 19.9055 23.2138
Pt 11.7895 17.6452 21.5791
Au 19.2769 21.8313 18.629
Pt 18.2608 22.8096 13.1919
Pt 16.7774 21.7995 19.6679
Pt 16.3655 18.4195 13.553
Pt 14.3892 21.2969 18.6792
Pt 14.758 21.4279 21.2841
Pt 13.229 19.4214 20.0575
Au 17.4888 22.891 10.607
Pt 12.3821 21.9285 20.4489
Pt 14.2719 17.8377 22.1562
Au 12.781 20.1238 22.6703
Pt 17.7928 19.6257 18.5547
Pt 16.5933 16.6345 18.0822
Pt 13.6439 6.82826 11.6283
Pt 20.6056 8.87023 10.9913
Au 18.2987 7.31205 10.0296
Pt 13.8133 9.43612 10.869
Pt 19.928 8.41757 18.4434
Au 17.1493 5.66927 11.9033
Pt 21.0267 13.8107 10.0202
Pt 20.1905 16.3604 10.9232
Pt 16.9906 11.2972 7.91337
Pt 19.8186 9.39332 13.7869
Pt 17.4929 11.6205 10.6378
Pt 20.6514 7.52935 15.3723
Au 21.7099 11.1124 9.49661
Pt 18.2837 11.2533 15.6994
Pt 20.3368 12.5538 17.0457
Au 16.3587 8.94365 22.5659
Pt 21.7907 13.8978 15.1504
Pt 22.6711 12.6781 11.8688
Pt 20.9553 11.7075 14.1676
Pt 22.5268 9.50007 14.8079
Pt 23.672 16.0706 18.1872
Pt 22.2971 10.2224 12.3521
Au 23.8685 11.9987 14.157
Pt 18.6642 10.6404 18.3589
Pt 18.925 15.0262 17.5162
Au 17.227 23.7385 17.8571
Pt 21.1822 19.0087 12.5243
Pt 23.0825 16.3538 15.6275
Pt 22.7421 11.5146 16.4922
Pt 16.6389 21.2997 16.9176
Pt 18.0673 14.8132 19.9884
Pt 19.2757 18.3297 14.4397
Au 23.7525 17.5654 13.0939
Pt 20.3949 16.3226 19.3898
Pt 22.8289 12.9036 18.7133
Au 22.0199 7.6036 13.022
Pt 17.1445 18.818 16.0719
Pt 21.8082 18.6431 15.0594
Pt 23.6461 14.7066 13.6623
Pt 19.1213 17.6332 17.3573
Pt 15.9553 19.1987 20.4845
Pt 21.7881 17.8181 17.5369
Au 20.7689 21.1248 14.2834
Pt 18.2016 17.5535 20.023
Au 18.5403 20.1911 21.1907
Pt 15.2668 19.0398 17.8954
Pt 20.328 19.1151 19.3219
Pt 13.5207 6.76889 16.0045
Pt 19.1947 12.5252 8.74921
Pt 16.8556 9.43043 14.2661
Pt 19.5166 7.06132 12.4694
Pt 20.6991 14.0466 12.7592
Pt 17.7441 7.00332 14.1633
Pt 22.5177 14.961 20.1677
Pt 19.7458 20.055 16.591
Pt 20.393 16.2166 15.5847
Pt 18.0818 20.6624 14.4879
Pt 14.7527 23.3137 16.9993
