286
Atoms. Timestep: 20186
Pt 9.81508 12.1089 21.1673
Pt 11.9101 7.78098 18.3256
Au 10.6596 6.26328 16.3696
Pt 8.93298 10.9267 18.9128
Au 9.20304 8.24631 18.0589
Pt 10.0384 12.3884 16.6957
Pt 9.19763 8.33749 15.3786
Au 7.65592 9.89342 11.1719
Pt 11.0506 10.0378 17.2106
Pt 12.1848 11.2686 21.4645
Au 7.28578 12.8178 20.2696
Pt 8.25613 13.0298 14.8302
Pt 8.256 10.461 16.3948
Au 6.53233 11.9808 12.4253
Pt 7.46622 12.6923 17.5735
Pt 7.54695 15.3247 18.8813
Au 6.03092 11.7484 15.2707
Pt 8.84517 17.2566 12.7834
Pt 5.92638 14.1344 13.6759
Au 5.98109 14.1745 10.7743
Pt 9.4125 12.2756 12.6302
Pt 7.68906 15.7712 14.6217
Au 4.94194 16.3102 14.9475
Pt 6.26506 16.5023 12.4145
Pt 8.42242 18.5936 10.083
Au 6.35144 20.8408 14.1694
Pt 7.37069 19.4309 12.1459
Pt 8.38498 21.9042 15.4626
Au 10.0108 23.8187 14.2017
Pt 6.69717 18.1852 14.3692
Pt 9.22289 21.0275 10.2674
Pt 11.7565 8.40134 15.3672
Pt 13.441 6.50543 16.4966
Au 12.2836 6.58276 11.2566
Pt 13.3571 11.7644 17.0452
Pt 14.5051 7.39394 18.8011
Au 12.9379 8.20409 21.0945
Pt 10.3149 7.78275 13.135
Pt 12.5729 8.96104 12.6113
Au 9.27235 10.0654 9.07031
Pt 10.4697 10.6448 14.555
Pt 9.54161 13.6122 18.9868
Pt 16.0335 12.3953 17.7179
Au 10.1689 14.9541 14.0766
Pt 11.5371 11.8906 19.0266
Pt 11.3472 13.6552 22.7932
Pt 13.6328 10.1788 19.4716
Au 12.7754 11.6775 23.9998
Pt 10.8779 9.52281 19.9711
Au 13.9909 13.9617 24.4391
Pt 8.11828 12.5051 10.2272
Pt 9.68869 12.5956 7.97967
Au 7.60313 14.4348 8.14445
Pt 8.06876 10.2246 13.7761
Pt 11.5571 17.3986 13.1731
Pt 12.1389 11.8777 12.6319
Au 14.5937 12.7131 13.7544
Pt 9.08645 14.9904 16.7389
Pt 10.1466 16.1961 19.0879
Pt 11.792 14.3608 20.4053
Au 11.601 16.1845 15.9985
Pt 6.24246 14.4551 16.3534
Pt 9.03199 14.6248 21.279
Au 8.16756 17.1637 20.8
Pt 10.3869 16.8348 10.7763
Pt 7.6196 16.2048 10.2377
Au 11.5608 17.6949 6.47987
Pt 8.27179 14.5453 12.1739
Pt 11.195 14.2442 11.7218
Pt 9.66814 14.6072 9.70534
Au 14.934 17.5359 9.89926
Pt 14.478 18.2103 12.5444
Pt 9.06128 19.5307 14.2542
Pt 9.30725 17.5634 15.8954
Au 15.4079 15.5882 12.7306
Pt 6.91707 16.9611 16.9223
Pt 8.67013 18.4175 18.4599
Au 7.96462 21.2373 18.3124
Pt 10.6163 19.0118 8.83673
Pt 11.9074 20.9802 9.88523
Pt 13.1969 19.3045 8.30673
Pt 12.4571 18.5155 10.7648
Pt 8.59751 21.7072 12.831
Pt 14.6339 20.1642 10.6603
Au 14.3929 21.7987 8.54434
Pt 10.2969 19.5241 11.9672
Pt 7.32819 19.5484 16.422
Au 9.94747 22.9648 17.2508
Pt 10.8839 22.3142 11.8799
Pt 12.6986 20.3849 12.669
Pt 12.4168 6.39412 13.8919
Pt 14.2358 8.36239 10.4696
Au 14.4496 4.89821 14.5915
Pt 13.1064 10.5742 14.7402
Pt 17.1281 7.25047 19.0349
Au 15.8093 5.39776 17.2448
Pt 10.7867 11.9831 10.286
Pt 11.9886 12.8968 6.57237
Au 13.4163 10.7108 5.96495
Pt 11.5996 8.81731 9.92617
Pt 10.2067 9.93235 11.8394
Pt 15.6285 10.5667 15.5457
Au 16.9057 12.8876 11.9739
Pt 16.1744 7.96459 16.4972
Pt 13.7454 9.18544 17.0288
Pt 18.1557 9.36087 20.4258
Au 12.9547 14.9904 13.6788
Pt 15.6109 8.63532 20.8073
Pt 14.4298 10.4237 22.3419
Au 17.068 9.95905 22.7868
Pt 9.2996 16.86 8.26352
Pt 13.0456 15.3016 6.50209
Au 17.2072 17.6613 6.38
Pt 10.5169 14.9953 7.13233
Pt 12.0946 13.9523 9.06839
Pt 13.8756 12.2497 8.41837
Au 14.1718 13.3627 11.0498
Pt 16.6615 8.89638 11.3263
Pt 11.8578 12.9946 15.0458
Pt 16.0704 9.79678 18.3102
Au 16.622 15.1453 10.3284
Pt 11.8601 14.1863 17.724
Pt 10.421 18.7179 20.5341
Pt 16.0216 11.2311 20.4603
Au 16.2621 15.0601 18.0486
Pt 13.9144 13.1547 21.8792
Pt 10.6113 16.4351 21.9492
Pt 16.1869 12.4876 22.9549
Au 13.6665 16.2954 17.8402
Pt 13.0084 15.7294 22.6384
Au 12.3353 18.575 22.5169
Pt 14.5039 17.3954 7.20724
Pt 15.8514 19.5091 8.20419
Pt 17.4015 17.4771 8.95235
Pt 12.1464 16.6473 8.74259
Pt 17.4228 20.0591 10.2466
Pt 14.4379 15.0899 8.74463
Au 18.5822 19.6607 7.82414
Pt 13.0977 15.9434 11.1103
Pt 11.7616 19.0542 15.1895
Pt 14.8908 10.258 12.6497
Au 13.8464 17.3092 14.9252
Pt 11.3252 18.2165 17.8635
Pt 9.93267 20.1851 16.7283
Pt 12.8413 19.6206 19.5219
Au 13.9585 18.9722 17.1365
Pt 10.451 20.8956 19.1644
Pt 12.4656 17.0732 20.2257
Au 11.935 21.2264 21.394
Pt 16.1583 22.3371 10.6742
Pt 13.4614 22.6603 10.9289
Pt 18.0742 21.9809 12.5444
Pt 14.9536 21.9038 12.8979
Pt 12.2427 23.361 16.0023
Pt 13.6502 20.999 15.0172
Au 14.914 24.4719 12.2645
Pt 10.9362 21.4276 14.5083
Pt 12.3864 21.1913 17.3795
Au 11.8964 23.2838 19.0972
Pt 12.6767 23.2616 13.4414
Pt 14.7146 23.6318 15.057
Pt 16.8426 9.05863 8.663
Pt 18.7801 8.61689 15.3481
Au 16.2507 6.5467 9.97888
Pt 16.7486 6.04871 14.6922
Pt 18.3468 6.44797 16.8116
Au 16.0956 4.6401 12.385
Pt 15.8857 11.0038 7.03945
Pt 14.1096 9.52836 8.27079
Au 17.4327 13.1558 5.91595
Pt 11.698 10.7583 8.09912
Pt 13.1524 10.7984 10.5283
Pt 15.7618 11.1127 10.0135
Au 19.6751 9.28914 8.16855
Pt 14.3079 8.11306 14.607
Pt 18.5274 9.09939 17.8
Pt 20.531 9.86225 19.3547
Au 16.7321 13.4119 15.1964
Pt 16.7146 8.49343 13.858
Pt 18.3164 11.5693 18.9454
Au 22.9814 10.4316 18.0631
Pt 14.615 13.1607 6.10286
Pt 15.8687 15.3278 6.53677
Pt 18.0777 15.172 7.79345
Pt 16.3132 13.2534 8.40679
Pt 19.277 15.8838 10.0772
Pt 20.0845 16.9666 12.2703
Au 19.9097 17.121 7.69368
Pt 18.3375 10.5984 10.3629
Pt 20.1501 14.1793 11.9586
Pt 13.9697 12.9594 19.289
Au 16.1912 16.0821 15.3233
Pt 18.6918 13.615 17.2903
Pt 16.3986 13.6784 20.484
Pt 19.1921 13.2083 14.4098
Au 14.2108 14.1816 16.1768
Pt 18.5148 11.9671 21.5352
Pt 15.6901 15.1028 22.762
Au 20.8257 14.2468 21.752
Pt 19.7554 18.5325 9.99013
Pt 16.485 19.8457 12.7281
Pt 19.0318 19.4119 12.3396
Pt 17.2659 17.5244 11.5685
Pt 15.8687 19.1663 15.1674
Pt 18 17.7002 14.1534
Au 19.9243 21.2348 10.5971
Pt 18.0697 15.2772 13.0034
Pt 14.9614 17.9489 19.6527
Pt 21.1168 13.9193 16.2803
Au 16.5546 17.8161 17.3886
Pt 14.4059 15.3838 20.3467
Pt 14.419 19.9907 21.5246
Pt 18.1938 14.4952 22.3972
Au 16.9719 16.4152 20.5157
Pt 14.9086 17.5245 22.2345
Au 17.6358 17.0844 23.0794
Pt 16.534 21.709 14.8525
Pt 16.8917 23.6045 16.5743
Pt 18.5643 20.1423 14.7776
Pt 15.1395 21.4467 17.0726
Pt 16.5541 22.8167 18.964
Pt 15.9523 20.2069 19.202
Au 17.0946 24.1992 13.7965
Pt 14.0629 21.9721 19.677
Pt 17.0047 19.1524 21.4856
Au 16.2198 21.9051 21.4894
Pt 14.2507 23.7155 17.7007
Pt 17.6753 20.5989 17.2051
Pt 17.7955 6.61015 12.2116
Pt 19.3486 6.39923 14.1898
Au 20.749 6.99874 11.8957
Pt 14.8837 6.91239 12.4621
Pt 21.0335 8.94751 16.9044
Au 20.9332 6.40479 16.3486
Pt 18.2518 11.4803 7.87338
Pt 18.6364 13.2855 9.8648
Pt 18.8056 7.85629 10.1841
Pt 19.1904 9.00843 12.6835
Pt 19.7973 11.6484 12.1346
Pt 22.6701 10.3685 15.3501
Au 20.0129 13.5012 7.30437
Pt 17.5731 10.9455 13.5904
Pt 20.6207 11.5736 17.234
Au 19.9604 7.19018 18.9206
Pt 21.2708 14.2439 9.59141
Pt 22.6532 14.7447 11.9359
Pt 20.6039 11.6689 9.2297
Pt 23.4419 12.6434 15.958
Pt 21.0643 15.5196 14.1837
Pt 22.6761 12.9951 18.3989
Au 24.125 12.1473 13.2756
Pt 18.0785 11.1642 16.2627
Pt 20.7192 12.3631 19.8762
Au 23.3482 17.2318 18.4497
Pt 21.5845 19.2607 11.8921
Pt 20.6995 18.3305 14.4992
Pt 23.5627 14.7542 14.3766
Pt 22.0024 19.0267 16.9093
Pt 18.7906 16.2237 18.2732
Pt 18.8582 15.714 15.6437
Au 21.9361 16.8509 10.1891
Pt 18.8243 14.1455 19.8595
Pt 21.1616 15.0284 18.9292
Au 22.2123 16.4717 20.8882
Pt 19.2465 18.4613 16.7276
Pt 20.6104 21.2079 13.4305
Pt 22.7142 17.1724 12.902
Pt 18.2332 18.6435 19.2634
Pt 18.3274 21.1967 20.0299
Pt 20.838 17.8666 19.0834
Au 22.8431 19.8371 14.3488
Pt 19.5173 16.5769 21.0241
Au 19.8791 19.2846 21.2716
Pt 19.0708 22.5961 17.7599
Pt 20.2616 20.3482 18.5616
Pt 21.266 8.21706 14.3015
Pt 20.8663 9.53038 10.6682
Pt 20.2016 10.7278 14.7086
Pt 22.2178 12.2689 11.2104
Pt 21.7132 12.8059 13.8675
Pt 22.0742 10.2141 12.8164
Pt 23.3496 15.0871 16.9992
Pt 23.2183 17.2207 15.4097
Pt 21.1117 16.5415 16.735
Pt 20.6585 20.9972 16.0666
Pt 18.9819 22.7354 15.0903
