665
Atoms. Timestep: 438
Pt 18.1758 3.71897 15.4667
Pt 11.2723 5.64709 17.3
Pt 6.17923 9.6459 14.1823
Pt 5.48323 9.59815 11.6898
Pt 12.8512 7.97649 9.19843
Pd 18.1681 6.32166 19.253
Pd 3.59576 11.218 20.2752
Pd 12.6025 6.78211 21.7795
Pt 12.635 5.27589 8.7654
Pd 12.5027 11.277 25.7199
Pt 17.4135 14.0589 24.583
Pt 14.0372 22.9207 15.0585
Pt 12.4148 10.1462 14.4214
Pt 9.99033 22.7624 10.7627
Pt 14.7158 16.3319 18.55
Pd 15.5676 3.22545 14.7523
Pd 2.72925 14.4244 15.4156
Pt 5.75968 12.0867 12.777
Pd 6.78397 5.13475 16.7817
Pd 4.17536 8.36572 17.6027
Pd 3.47903 13.5841 12.8947
Pt 7.98594 11.1443 8.28021
Pd 4.73033 8.68046 20.1699
Pd 5.53843 18.2025 19.4979
Pd 9.69625 6.76188 21.4947
Pd 6.70401 16.2628 23.9837
Pd 13.4926 16.257 27.1151
Pt 7.6698 22.2028 12.7911
Pd 15.9454 17.5257 26.6573
Pt 14.6612 24.4282 12.6037
Pd 5.43839 20.3559 9.51952
Pd 7.9626 3.88393 12.581
Pd 3.78897 16.4174 20.3141
Pt 13.0518 15.2178 12.7481
Pt 12.6709 14.1507 25.5615
Pd 7.84911 14.6433 15.8069
Pd 13.7674 18.8167 26.097
Pd 9.66622 23.3003 22.0685
Pt 14.469 11.8838 11.5702
Pt 13.3652 15.8602 5.54289
Pd 7.5267 10.2847 5.7796
Pt 5.67132 12.9055 19.8345
Pt 16.1728 19.8953 8.02207
Pd 3.94266 11.5127 10.8049
Pd 5.03543 12.0332 22.3436
Pt 7.76999 14.2396 18.7341
Pt 14.6276 17.4517 20.8804
Pt 9.35887 16.1126 20.0498
Pt 14.7024 17.8407 23.6242
Pd 23.4073 20.9719 10.5115
Pd 10.1155 25.4571 10.2946
Pt 8.92261 9.08604 20.1753
Pd 8.65758 15.9668 13.433
Pd 5.1727 21.4581 13.4647
Pt 13.5764 11.6929 18.5875
Pd 13.6595 27.231 17.226
Pt 5.32082 15.1947 18.6612
Pt 4.8561 12.8002 15.0093
Pt 16.3834 10.5204 16.5493
Pd 10.734 26.6175 17.4193
Pt 14.7935 25.654 14.8683
Pt 10.5068 11.2982 12.8397
Pt 9.67258 9.44629 17.6705
Pd 7.21281 13.9101 8.91321
Pd 7.74058 13.086 6.4178
Pd 19.2263 17.0351 3.15865
Pd 11.5741 4.40385 6.37369
Pd 25.2522 15.656 19.5291
Pd 14.7321 4.91992 21.1474
Pt 13.5358 7.06975 17.4636
Pt 13.8413 4.89864 10.8519
Pt 5.99768 17.9726 10.3326
Pd 23.2226 20.5867 19.5784
Pd 2.89763 15.5358 17.8125
Pt 7.5132 12.1177 14.7548
Pt 10.495 13.414 5.71139
Pt 9.20299 15.2024 7.33123
Pt 9.36699 14.9524 10.2537
Pt 7.00954 15.6054 11.1259
Pt 19.7997 13.5574 6.37799
Pt 21.9694 8.81699 10.3269
Pd 9.99478 8.78148 11.5702
Pd 5.76739 4.47256 14.2564
Pd 18.0654 7.75333 22.9713
Pd 10.9295 16.7127 11.8585
Pt 13.269 17.4158 10.9121
Pt 14.9593 14.4592 11.0194
Pt 12.0308 14.6248 7.48933
Pt 11.5907 19.2212 24.1582
Pt 9.7934 10.6506 15.2117
Pd 14.3911 3.08555 19.188
Pt 12.5801 5.5901 15.0789
Pt 11.8053 11.095 16.8152
Pt 9.94082 13.033 8.43516
Pt 13.0509 13.2251 5.01373
Pd 11.1494 3.25688 15.8738
Pd 8.72842 23.6257 8.49629
Pt 21.7433 6.81149 14.1501
Pd 8.35312 17.7084 6.00107
Pt 15.3391 16.4904 12.4471
Pt 10.2496 18.724 7.4989
Pt 6.57255 12.658 17.1338
Pt 10.0165 5.61219 14.9251
Pd 7.74571 24.3571 11.077
Pt 8.05547 10.5606 12.6311
Pt 11.5212 22.5806 15.6761
Pd 9.92505 13.3536 14.7302
Pt 10.7238 7.34305 19.0695
Pt 16.2627 12.2406 18.4531
Pt 16.1618 9.77317 22.549
Pd 14.0819 14.3709 20.3499
Pt 9.19162 4.37631 17.4458
Pd 20.0646 21.6836 23.741
Pd 4.45729 6.14148 15.9385
Pt 10.7289 15.0809 24.0579
Pt 7.43288 8.00186 12.3408
Pd 8.25771 6.54263 10.0204
Pt 16.0668 22.2483 6.31169
Pd 7.41634 8.36282 7.80997
Pd 16.5338 16.5898 2.69439
Pt 14.2811 23.3967 10.1057
Pt 5.19463 15.0303 16.193
Pt 10.6213 18.8526 4.79029
Pd 6.72139 15.6934 6.71241
Pt 12.9716 19.8603 4.08376
Pt 9.44799 17.354 24.5949
Pd 5.19135 19.1995 14.8813
Pd 14.4418 13.9748 17.5091
Pt 8.58661 17.806 11.4279
Pt 11.3547 14.372 21.6144
Pd 7.91406 21.4858 23.492
Pd 18.7001 10.0013 15.5357
Pt 9.00123 12.9833 23.7445
Pd 13.3466 10.5209 9.24423
Pd 21.5426 15.5264 25.8286
Pd 11.1872 18.3567 26.6748
Pd 21.8837 24.4592 17.3767
Pd 7.26308 11.0398 23.6001
Pt 9.50153 12.4761 17.2734
Pt 18.4844 21.1886 7.73137
Pt 16.764 23.7954 11.2544
Pd 2.42009 11.7845 15.5385
Pt 8.00461 16.8315 8.87611
Pt 13.8769 22.0672 7.89822
Pd 24.7528 20.1873 12.8423
Pt 9.46612 19.6893 16.1407
Pt 15.9827 22.25 16.7193
Pd 17.7062 26.4409 11.4263
Pd 4.02917 16.725 14.3847
Pd 7.53791 23.8475 15.0719
Pd 14.4954 18.6559 2.18394
Pd 6.47541 13.6421 24.0336
Pd 14.055 9.47367 16.5917
Pd 22.7583 18.809 21.6353
Pt 9.54514 20.3334 11.7601
Pd 24.9461 7.71733 17.3895
Pt 14.5721 23.9422 20.0499
Pt 9.1264 17.1213 15.8271
Pt 20.2739 14.229 21.054
Pd 7.22953 21.2285 7.67679
Pd 12.8789 24.376 6.76331
Pd 13.4026 22.4012 5.12774
Pt 8.00785 11.3914 19.1791
Pd 22.2331 18.1936 14.7476
Pd 4.64305 17.5419 17.0934
Pd 6.36274 5.67252 11.7996
Pd 17.296 12.3099 26.7248
Pd 4.33762 19.1102 12.1882
Pt 7.07519 21.1511 15.3215
Pd 18.7343 16.9173 26.6084
Pt 13.1045 16.0878 22.4677
Pt 6.80907 19.9565 11.8453
Pt 6.627 17 15.3733
Pd 6.32233 18.4786 7.631
Pd 6.58725 22.6956 17.3831
Pt 16.2789 19.4563 24.6648
Pt 8.06642 17.5982 22.126
Pd 14.7875 28.2281 15.0065
Pt 7.4518 13.01 21.5611
Pt 15.3447 9.85436 19.1717
Pt 7.75472 21.7407 10.1542
Pt 11.1068 6.55647 10.4769
Pt 18.3346 15.0494 4.6588
Pt 11.4052 8.18554 16.1896
Pd 3.5357 8.57561 15.0517
Pd 9.1568 12.1867 10.7273
Pd 13.7471 2.01478 16.4732
Pd 10.3405 3.19849 13.3481
Pt 14.2371 18.0541 16.3376
Pt 19.3829 7.89541 17.324
Pt 14.488 5.24841 13.3407
Pt 16.9212 8.24723 20.5308
Pd 8.72134 12.3523 4.12765
Pt 14.9682 9.38088 11.0035
Pd 10.2976 4.72398 19.8809
Pd 5.82764 7.64096 10.0208
Pd 9.04732 20.581 5.99133
Pd 9.45476 8.29068 6.06142
Pd 8.73256 15.1865 4.6804
Pd 11.2238 12.3694 3.14855
Pd 11.7641 3.06264 18.3912
Pd 17.4799 15.8167 13.8898
Pd 19.1121 13.5894 14.1984
Pd 10.9508 18.9068 10.0858
Pt 13.651 4.39738 17.047
Pd 15.3162 24.5294 7.8083
Pd 11.8859 13.721 18.7804
Pd 10.6395 14.0692 12.3529
Pd 18.2206 4.31685 7.7207
Pd 12.8181 18.4112 18.6374
Pt 13.7086 13.7047 23.0847
Pt 15.4296 19.876 21.615
Pt 8.88201 8.40756 14.5179
Pt 10.4275 18.5106 13.7445
Pt 16.5118 8.18458 15.1715
Pt 14.5848 10.3027 4.08251
Pt 9.96441 21.1633 8.59511
Pt 15.4418 17.5629 6.9727
Pd 16.7768 19.6429 16.6076
Pt 7.92406 9.42885 10.1609
Pt 6.35283 7.84964 16.0398
Pt 10.6187 26.2618 12.8281
Pt 5.47397 10.6493 18.5626
Pt 14.9793 19.1929 12.2825
Pt 8.21866 19.3325 9.32753
Pd 16.8843 21.1707 11.6922
Pt 10.8003 11.1084 19.33
Pd 15.3586 20.9961 3.75618
Pt 4.80044 10.5517 16.1248
Pt 15.8644 7.47206 12.6041
Pt 17.1492 13.4206 9.48914
Pd 15.5736 18.8457 18.8138
Pd 9.74429 10.6212 24.7998
Pt 14.977 10.0939 13.6033
Pd 6.44111 20.8301 19.2754
Pd 8.32265 23.2019 19.3718
Pd 5.33264 17.5434 22.1799
Pt 23.0226 20.7855 15.0517
Pt 7.46634 10.186 16.5437
Pt 12.3629 19.578 12.2665
Pt 12.1543 12.0908 7.48386
Pt 10.7624 16.6441 8.85659
Pt 16.933 19.834 5.54953
Pd 15.4365 27.1631 12.6581
Pd 18.2774 10.0038 18.4261
Pt 15.576 5.5545 18.5682
Pt 7.04161 19.1513 17.126
Pd 5.87459 14.8493 13.5428
Pd 19.1478 26.3686 16.2673
Pt 16.472 22.4391 8.94688
Pt 8.64821 15.1309 22.479
Pd 19.5098 11.9002 25.2006
Pt 15.7897 15.4818 22.4749
Pd 7.0146 8.51813 18.5502
Pd 8.14686 6.1282 19.2202
Pd 25.82 12.2955 16.8339
Pt 22.5958 12.6532 21.0766
Pd 21.6925 19.6093 24.0808
Pd 18.926 10.1759 3.49362
Pt 22.0613 19.9098 12.5912
Pd 14.0038 3.77033 6.97555
Pt 20.8239 15.3055 4.57392
Pd 17.0653 14.753 18.2517
Pd 25.575 6.53951 11.3388
Pd 8.06937 25.8864 13.4368
Pt 12.5309 24.9736 16.3805
Pd 19.3579 14.1529 2.52556
Pt 18.7777 22.4192 10.0431
Pt 11.8264 20.7604 6.74495
Pt 12.5136 15.964 17.1969
Pt 12.2068 13.6364 15.9942
Pt 17.6639 17.394 5.30279
Pt 11.5876 21.2569 22.1424
Pd 21.9833 12.9739 25.2794
Pd 17.2498 13.7221 12.2567
Pd 25.9946 9.61078 15.8538
Pt 8.72219 21.1239 20.9798
Pt 20.8259 22.2808 19.0277
Pd 21.9037 17.5228 19.3187
Pd 15.6248 18.0085 9.9164
Pd 5.31555 15.9309 8.94617
Pt 12.7007 18.2353 6.241
Pd 18.4841 21.9545 5.14403
Pt 12.3063 24.5204 13.8531
Pt 14.2201 21.846 12.4209
Pd 19.2566 19.6088 4.24931
Pd 16.8049 25.3898 21.2133
Pd 3.62755 10.6886 13.4299
Pd 19.8158 24.7604 10.7198
Pt 7.93181 13.526 12.5246
Pt 11.6361 18.1092 16.1376
Pd 23.4352 6.24063 18.9725
Pd 6.74937 15.8718 20.6639
Pt 10.0499 24.8636 15.3615
Pt 9.08473 22.4189 16.6332
Pd 18.2337 26.2304 18.842
Pt 19.9561 14.3876 24.0323
Pd 12.9564 22.8769 24.0605
Pd 5.49321 22.5175 11.0714
Pd 18.3582 23.6617 7.17969
Pd 15.0391 21.1841 26.1785
Pd 18.211 23.4936 23.0172
Pd 9.89809 10.0013 3.99729
Pd 16.5771 11.2756 2.59687
Pd 1.59098 13.1567 17.7744
Pd 2.72322 10.5883 17.8756
Pt 14.0687 13.0897 9.09856
Pd 14.2354 2.6688 9.45215
Pt 22.8 11.0339 19.1649
Pd 24.068 14.7402 24.5415
Pd 8.71974 8.9171 22.8513
Pt 11.7601 10.1556 23.2515
Pt 17.1595 11.0309 24.4769
Pt 17.2165 12.2937 6.99289
Pd 21.7426 3.85652 11.9112
Pd 17.0268 3.81021 19.7985
Pt 16.4236 5.02267 11.5308
Pd 15.8242 15.4088 4.94808
Pd 6.64401 10.266 21.1347
Pd 13.5284 5.87897 5.05239
Pt 12.1712 10.786 5.12118
Pt 15.2951 5.85518 15.8259
Pt 18.4898 6.7715 12.0895
Pd 8.4315 14.9533 25.5013
Pd 12.4125 17.3547 3.43207
Pt 12.6167 9.17663 18.847
Pd 21.0862 9.10134 15.4398
Pt 14.8062 15.5426 24.898
Pd 14.3146 11.9741 15.6243
Pd 4.96503 14.6576 22.0362
Pt 19.7629 4.86545 13.6268
Pd 24.8121 13.9086 21.8116
Pt 19.9339 19.1894 22.1944
Pt 11.2439 8.9972 21.0995
Pd 10.0078 15.1456 17.427
Pd 14.0771 7.85517 3.3091
Pd 13.9446 12.4241 2.59037
Pt 7.53569 6.21211 14.4058
Pt 21.1493 6.34862 11.6585
Pd 24.0017 12.2941 7.49763
Pd 18.556 17.9135 15.2758
Pd 19.3958 12.9011 10.9816
Pt 20.3453 8.61578 12.5526
Pd 21.7452 13.8539 13.491
Pd 17.7541 19.4785 26.908
Pd 23.8931 12.9185 10.1088
Pd 17.7294 9.25028 13.0345
Pt 17.2054 24.5131 16.0017
Pd 16.4631 13.8553 15.7447
Pt 17.2287 16.6945 24.5052
Pd 12.0346 16.3131 19.8911
Pt 11.6887 9.43648 7.28267
Pt 13.7779 9.3891 21.5063
Pd 13.8766 7.80842 14.509
Pd 22.7243 17.1496 24.1309
Pt 16.8252 13.8319 20.687
Pt 24.9058 14.9242 16.9996
Pt 21.8567 16.5078 12.151
Pd 17.1144 2.94778 10.0731
Pd 27.0329 14.2489 15.5424
Pt 17.4538 14.8874 7.08401
Pt 13.3427 16.6738 8.34216
Pt 11.4088 14.9363 3.84243
Pt 15.303 8.95231 7.98377
Pd 10.6112 25.3837 7.6926
Pt 9.84224 11.0398 6.48978
Pd 10.4051 22.9953 6.42025
Pd 5.52393 10.057 8.85426
Pt 14.7896 13.9647 6.86801
Pd 13.9644 26.2618 21.2573
Pd 15.2707 25.9124 10.2715
Pt 10.0702 17.8948 18.2169
Pd 20.395 16.0759 14.4522
Pd 15.0603 13.6073 13.5838
Pd 10.4054 21.9862 24.305
Pd 15.0537 10.3736 25.9966
Pt 12.3584 11.892 21.2048
Pd 7.17795 18.9293 24.243
Pd 10.0104 4.1558 10.6912
Pd 12.394 9.95126 2.67252
Pt 23.4808 7.86658 12.2159
Pt 17.1002 7.06991 7.61502
Pt 14.9815 17.9956 4.54438
Pd 20.7354 12.4454 4.11777
Pt 20.3079 19.897 14.9466
Pd 13.2423 19.2926 8.63223
Pt 11.6495 23.2629 8.7701
Pt 21.1985 22.3456 11.0943
Pt 14.4145 20.1487 6.19205
Pd 11.1996 15.8051 14.6288
Pd 19.3782 17.4072 20.3238
Pt 8.08208 18.6029 19.8087
Pt 8.83547 7.04766 16.8509
Pt 9.51982 19.5594 22.7889
Pd 14.9317 24.4081 22.7872
Pd 21.5687 24.4608 12.7846
Pd 12.2586 24.0517 21.5231
Pd 24.7374 11.0678 21.0687
Pd 19.3299 21.6132 21.1317
Pd 23.2062 5.76758 10.2642
Pd 16.5282 14.9648 26.8799
Pd 26.2057 11.8224 11.3461
Pd 10.9635 21.4978 4.30676
Pd 20.8091 22.6698 8.34472
Pd 5.50828 6.42119 18.6728
Pt 12.1448 24.0965 11.3224
Pt 15.9901 18.0375 14.4122
Pt 9.68947 23.8469 13.0556
Pd 4.27024 16.2244 11.7022
Pd 13.1274 20.6476 19.8678
Pt 14.0841 22.0748 21.7779
Pt 10.6861 17.1516 22.2423
Pt 9.58335 21.3657 14.229
Pd 9.33809 19.925 25.5
Pt 9.58802 11.222 21.8359
Pd 12.8317 25.6763 9.2486
Pd 24.1904 16.5201 22.0194
Pd 3.18341 13.851 19.9903
Pd 22.0626 7.29056 21.0271
Pt 18.4621 15.6454 22.2621
Pd 24.4589 18.1289 19.5467
Pt 7.4272 16.7083 17.9587
Pd 26.0068 17.2789 17.2576
Pd 24.0882 5.75895 15.6453
Pt 15.587 12.6735 4.74543
Pt 20.9255 14.0948 16.2581
Pt 16.0575 12.7181 22.9569
Pt 18.1208 12.5344 4.41378
Pt 12.7169 18.8086 21.8319
Pd 13.0265 3.03935 13.9984
Pt 14.3872 6.54246 7.41714
Pd 20.8433 23.7176 21.7982
Pt 14.4987 7.42282 19.9457
Pd 12.7899 5.36383 19.4935
Pt 20.6327 10.9955 17.5201
Pd 17.0552 19.0974 2.96893
Pd 19.7379 6.07781 21.4792
Pd 11.6016 3.00308 8.73624
Pd 21.224 11.7573 15.0621
Pd 23.2856 9.49932 7.56551
Pd 11.9025 12.3584 10.6542
Pt 15.3099 6.97141 9.92838
Pd 13.676 8.62531 24.268
Pd 14.0497 15.1612 2.99054
Pt 19.8043 7.61018 9.79252
Pt 14.869 20.6779 10.1212
Pd 17.1708 11.2274 11.4208
Pd 19.5496 11.1627 13.1139
Pt 17.689 5.94442 16.6771
Pt 14.1273 11.1593 23.5774
Pt 20.9543 12.1521 22.9064
Pt 18.8102 12.8777 19.1736
Pt 23.7975 8.75405 19.7206
Pt 22.973 15.7234 15.0912
Pd 11.3205 7.73479 13.5656
Pd 14.9972 12.9435 25.5649
Pt 13.6533 8.6617 5.91679
Pt 23.8669 10.3167 11.0302
Pd 20.1831 20.6217 26.2095
Pt 20.5117 9.40877 8.06787
Pt 6.63645 11.7823 10.4486
Pt 19.1732 4.30361 11.1894
Pt 21.3105 8.79436 18.8836
Pt 14.8978 20.3955 14.6515
Pd 16.6836 8.69142 3.20188
Pd 5.09193 7.22581 13.4644
Pd 18.5606 12.4771 16.6005
Pd 16.9269 16.5342 20.1587
Pd 17.3932 8.65164 10.3141
Pt 21.3656 13.2335 18.8046
Pt 12.4544 9.85867 11.7487
Pt 23.4868 17.5183 17.0555
Pd 22.3648 10.0351 13.2933
Pt 15.7151 4.71861 8.75927
Pd 21.9032 21.3095 21.7504
Pt 12.3999 16.8716 24.7982
Pd 19.6722 6.69227 7.25518
Pt 20.2987 11.1362 20.3825
Pd 18.4819 8.15628 5.37784
Pt 24.3935 13.1812 19.1109
Pd 9.31593 6.14246 12.4316
Pt 16.7466 10.1896 5.4625
Pt 20.6372 19.7832 19.6889
Pd 24.9692 18.7701 10.5286
Pd 12.2822 14.8917 10.1871
Pd 12.2724 21.2817 10.2665
Pt 16.2834 16.4981 16.4289
Pd 21.5976 10.2172 24.4549
Pd 26.5043 14.1052 12.9038
Pt 10.6584 19.3635 20.2973
Pt 20.917 22.0449 13.7711
Pt 24.0183 14.9246 12.5099
Pd 19.5033 15.3663 12.026
Pd 17.0106 11.715 14.1689
Pt 19.4996 12.0013 8.46916
Pt 22.0263 19.7079 17.3138
Pt 17.6517 20.6997 22.8194
Pt 19.0581 7.39765 14.6639
Pt 11.7183 6.90685 6.90173
Pd 25.854 14.5119 10.3428
Pd 16.5948 13.9647 2.64981
Pd 12.2832 2.82658 11.3566
Pt 19.2804 23.9806 17.6036
Pt 14.5159 11.1897 6.71693
Pd 17.56 18.1568 12.1178
Pd 25.5939 16.2476 14.5597
Pd 17.693 20.1434 14.0094
Pt 18.958 18.8698 6.97933
Pd 23.88 17.8554 8.22528
Pd 21.6677 11.8363 11.6202
Pt 14.1837 15.5634 15.1319
Pt 22.2671 14.5284 22.9136
Pt 12.3013 20.2481 14.9009
Pd 14.0004 20.5299 17.1647
Pd 9.70926 27.3899 15.0671
Pt 18.8781 19.1214 24.5719
Pd 26.5194 11.8057 14.2166
Pd 19.4621 20.5135 12.0004
Pt 20.7287 17.2956 16.8722
Pt 19.5905 10.2402 10.4514
Pd 18.0746 17.5902 18.0156
Pt 12.3576 26.9958 14.7417
Pd 19.3392 10.7569 5.97773
Pt 19.8262 16.226 6.86142
Pt 15.5466 15.5201 8.76795
Pt 17.1377 25.0256 13.5355
Pt 21.705 16.1533 8.98373
Pd 26.1454 16.6538 11.9094
Pd 15.7815 22.2506 23.89
Pd 8.35094 25.0792 17.4053
Pt 13.0371 26.4201 12.0555
Pd 5.06891 13.8898 10.7303
Pt 14.8484 24.6496 17.2521
Pd 20.7482 20.7154 6.36144
Pd 19.7188 17.5158 10.2191
Pt 20.5315 20.277 9.49811
Pd 21.5244 25.8885 15.1326
Pd 4.04574 12.9176 17.6105
Pd 17.5106 10.9997 20.6924
Pt 11.4066 20.6455 17.6414
Pd 19.0556 9.19808 25.126
Pd 16.2823 3.33957 17.2719
Pt 10.6995 23.8943 17.8842
Pt 16.7963 23.9668 18.6796
Pd 19.2209 14.2779 26.5719
Pt 17.9417 5.92976 9.66242
Pt 12.6454 12.6192 13.4855
Pt 19.5058 8.58199 20.6471
Pd 8.28989 3.58678 15.1423
Pt 16.384 7.95626 17.7812
Pd 15.0274 2.78266 12.0705
Pt 19.1397 10.2385 22.7399
Pt 18.6857 15.3654 16.3196
Pt 13.848 20.3706 23.8002
Pd 23.6311 11.9757 23.4333
Pt 22.0595 11.223 9.14159
Pt 22.0956 4.3184 14.583
Pt 24.064 12.3086 12.743
Pt 22.1752 9.94956 21.707
Pd 17.6564 3.02327 12.9336
Pt 10.535 10.4484 9.38039
Pd 6.98676 7.54388 21.1304
Pd 17.1314 5.70366 21.5972
Pt 10.8212 16.4718 5.87026
Pt 21.7582 14.331 10.7632
Pd 22.2932 4.44631 17.2948
Pd 10.314 13.0297 26.0949
Pt 15.8461 7.60876 5.39529
Pt 19.3891 14.8709 9.10671
Pd 19.083 4.01085 18.0222
Pt 19.9549 16.9459 24.0971
Pt 6.2883 17.4617 12.8915
Pt 13.3139 7.34706 11.8275
Pd 23.3981 22.217 17.4601
Pt 24.4813 13.6828 14.7976
Pd 20.6926 8.09315 23.1429
Pd 15.2331 7.23761 22.6187
Pd 22.6087 13.7658 5.69692
Pt 17.7114 17.1893 8.36183
Pd 24.7127 19.866 17.4449
Pd 25.3445 10.6403 9.00425
Pt 23.9284 17.7106 12.8072
Pt 18.5429 12.785 22.4217
Pd 9.93533 5.35564 8.24617
Pd 20.5207 2.86425 15.9622
Pd 16.3906 8.44882 24.874
Pt 11.4821 12.5887 23.6483
Pt 17.1346 5.5584 14.0224
Pd 23.3838 22.4208 12.7498
Pt 17.3395 15.9137 10.6721
Pt 23.9458 11.1343 15.1017
Pd 22.1228 7.16687 8.17714
Pt 23.8719 16.3195 10.4095
Pd 25.4216 10.3719 18.4949
Pd 19.5462 26.0844 13.3112
Pd 6.54357 19.8428 21.7721
Pt 19.4086 19.749 17.3945
Pt 20.9431 22.0296 16.4811
Pt 25.1574 9.75525 13.2434
Pt 23.0847 12.6695 16.916
Pt 15.5541 21.4842 19.2095
Pd 16.4954 22.5594 13.9822
Pd 21.78 11.3491 6.39775
Pt 9.94171 8.07851 8.69365
Pt 20.2389 5.57252 16.123
Pt 22.1705 7.19373 16.8929
Pt 21.2533 16.6787 21.9306
Pt 21.2613 18.3548 7.8521
Pt 18.4451 21.8816 15.8512
Pt 14.9111 11.8022 20.8875
Pd 21.1313 8.67558 5.74221
Pd 24.4197 8.06017 9.48188
Pt 23.6837 8.35013 14.976
Pd 11.8231 5.16833 12.6107
Pd 17.8624 21.6654 25.3711
Pd 25.7197 7.22626 13.9004
Pt 17.943 9.60194 7.89068
Pt 23.1809 9.72523 17.1024
Pt 18.8974 23.1779 12.6823
Pd 16.188 5.04191 6.02434
Pd 20.6914 5.05527 9.22361
Pt 21.6835 13.6524 8.20069
Pd 24.0839 14.9217 8.16352
Pt 22.5619 15.3174 17.8198
Pt 16.0262 11.1499 9.1013
Pt 8.94207 20.6739 18.4756
Pd 20.9784 17.9873 5.16105
Pd 17.9919 19.5519 9.85226
Pd 12.624 25.5228 19.0913
Pt 18.1858 21.7027 18.5975
Pt 16.6598 22.57 21.1846
Pt 19.8508 15.4159 18.6619
Pd 22.8647 23.3712 19.9365
Pd 23.8109 5.35712 12.936
Pt 17.3185 18.1029 22.3529
Pt 15.4499 26.276 19.1256
Pd 22.577 16.2945 6.42572
Pd 20.8325 25.2645 19.5616
Pd 20.7567 6.02737 18.9297
Pd 21.043 18.144 26.1919
Pd 10.744 15.7334 26.6771
Pd 17.6373 25.0686 9.16279
Pd 12.2291 20.9915 25.9716
Pd 11.5958 7.95448 4.41409
Pd 16.4361 26.9665 16.8238
Pd 22.8019 20.4326 8.07264
Pt 13.1853 17.6955 13.8509
Pd 11.0013 7.78726 23.6734
Pd 24.9157 18.7464 15.0909
Pt 10.914 22.2658 19.8323
Pd 10.1277 25.1009 20.0548
Pd 17.4136 27.4027 14.4273
Pt 20.0648 18.1526 12.8878
Pt 11.6829 22.0378 12.9139
Pt 18.773 23.934 20.239
Pd 5.93822 24.1522 13.0799
Pd 22.798 23.528 15.0867
Pt 7.92275 19.0519 14.0482
Pt 17.779 19.6179 20.1322
Pd 26.2915 9.06303 11.0862
Pt 22.7413 15.1649 20.3245
Pt 9.63877 13.3448 20.1635
Pt 19.7364 24.0287 15.0139
Pt 22.263 18.5109 10.3965
Pt 13.1147 22.8476 18.147
