665
Atoms. Timestep: 638
Pt 22.7031 13.8834 11.1435
Pt 15.7645 16.1407 11.5803
Pt 9.28674 22.4802 9.17716
Pt 19.285 12.0787 6.86646
Pd 9.3346 24.3401 11.4034
Pd 8.95093 6.16731 9.7765
Pt 17.5181 26.0529 18.0765
Pt 12.6946 23.8574 17.3599
Pt 9.37616 6.08863 12.5099
Pt 23.7034 17.6855 13.3212
Pd 13.4527 23.7386 22.4277
Pt 7.70385 24.0854 15.1659
Pt 9.06246 10.9069 11.2051
Pt 4.91822 17.3318 9.45563
Pt 15.4937 4.55524 19.7935
Pt 17.2309 22.777 19.8812
Pt 13.7141 10.6818 11.4575
Pt 11.573 12.0639 7.46476
Pt 24.2077 13.323 22.6028
Pd 19.1207 14.7525 27.341
Pd 12.9698 16.5052 1.58019
Pt 20.7559 18.7032 20.5728
Pd 22.6737 16.4227 6.70339
Pt 26.0012 16.7102 12.6637
Pd 26.0348 11.2074 18.9559
Pd 10.3599 2.6702 15.6292
Pt 14.2549 15.178 5.51359
Pt 23.9028 11.9252 12.8044
Pt 16.445 18.8152 22.905
Pt 18.2779 21.8354 8.20976
Pd 15.9134 8.38211 5.54901
Pt 8.38592 15.7947 17.3381
Pt 7.81184 14.1288 5.18624
Pt 12.0697 4.14418 20.1411
Pt 15.1046 14.3152 9.70594
Pt 15.38 22.4639 4.00236
Pt 6.32015 19.5272 11.6109
Pt 14.1785 21.6537 6.0741
Pd 6.81824 6.74201 11.2582
Pt 17.4312 20.8676 3.8234
Pd 9.36295 24.0564 20.4667
Pt 8.54093 22.0136 16.559
Pt 15.6653 2.81196 17.5967
Pd 13.2146 8.50638 5.06914
Pt 21.3069 15.6553 9.59566
Pt 12.0297 5.94199 21.9875
Pt 6.88671 21.8367 10.5695
Pt 26.115 14.84 14.4707
Pd 20.4856 25.1961 18.2446
Pt 20.3278 25.4101 13.4542
Pd 22.466 5.08292 12.3277
Pt 21.5476 12.5325 16.2475
Pd 13.5569 10.5428 3.41118
Pd 12.317 25.9394 15.7025
Pt 12.9254 6.65538 16.9843
Pd 3.44522 15.4973 19.3518
Pt 18.2984 21.4196 10.8325
Pt 18.3272 11.3112 21.9573
Pt 10.2099 15.2377 24.0756
Pt 10.2438 24.1745 16.1508
Pt 14.1469 13.6042 12.1941
Pt 15.9867 22.7945 11.024
Pt 10.404 19.107 7.70298
Pt 11.9764 8.73666 18.1333
Pd 14.0019 5.58901 7.13464
Pd 18.6454 5.78288 8.49533
Pt 18.9924 6.08539 14.5491
Pt 18.4479 24.0203 12.1838
Pd 8.97051 6.61972 7.11692
Pt 24.563 16.5197 18.6577
Pt 23.1938 10.3234 19.7027
Pt 7.96989 13.7643 14.781
Pt 8.33765 24.3565 17.8211
Pt 18.0459 8.31776 9.47773
Pt 15.21 4.0779 11.1071
Pt 17.6334 4.53352 18.3376
Pt 24.9896 9.67535 13.6489
Pt 14.6819 6.15819 14.772
Pt 12.8387 2.27805 16.8659
Pt 19.5603 17.2925 13.9922
Pt 9.46949 18.7309 20.9692
Pd 7.45253 6.8276 16.5561
Pt 17.6291 15.7287 14.992
Pt 7.30691 12.0414 21.1527
Pt 19.1348 16.7758 4.74566
Pt 3.50779 15.3049 10.2825
Pt 21.2037 15.2683 4.82888
Pt 22.0531 9.41577 13.2034
Pt 16.9423 13.8645 3.21005
Pt 14.9542 21.5687 22.7472
Pd 15.5786 20.6757 1.91503
Pt 5.19631 13.0006 8.59879
Pt 11.8976 14.4652 6.63378
Pt 7.21822 23.4655 12.6151
Pt 19.7667 9.87306 8.04266
Pt 4.19885 16.9043 14.3415
Pd 3.64893 10.2251 11.974
Pt 13.0414 20.019 14.6811
Pd 14.3801 13.0638 2.72664
Pt 12.1599 4.62163 15.5861
Pt 16.3253 14.7865 17.0569
Pt 15.6334 10.4563 15.8149
Pt 11.5443 12.104 12.3353
Pd 4.4994 21.7732 9.17301
Pt 10.4034 14.5128 14.2575
Pt 8.74524 16.6711 14.8243
Pd 20.0094 25.0255 8.62974
Pt 12.3109 14.9257 3.78669
Pt 16.7211 6.2388 10.5676
Pt 14.4725 24.3725 15.4194
Pd 25.2201 20.4738 18.6795
Pt 5.41803 17.8284 6.88373
Pt 14.9855 15.6472 14.2008
Pd 20.0258 22.9652 6.63267
Pt 14.6488 22.9355 20.1957
Pt 16.6593 19.0252 18.4116
Pd 13.5368 15.1117 27.1063
Pt 23.1096 20.1718 12.1529
Pt 15.8642 20.0477 14.8916
Pt 14.1115 21.9037 16.113
Pt 4.4174 15.4228 7.78524
Pt 23.975 11.9466 10.0498
Pt 17.4333 9.62086 11.6604
Pd 13.2111 3.9049 9.29872
Pt 9.7665 16.4143 7.62123
Pt 21.8786 13.4956 24.021
Pd 8.77156 15.135 9.93215
Pd 12.4322 11.1403 27.1526
Pt 23.8734 11.7144 17.4885
Pt 3.94302 19.6844 10.8486
Pd 9.51558 5.26353 20.9752
Pt 21.3405 12.3938 9.07853
Pt 10.112 7.69491 21.9009
Pt 11.524 14.3362 21.6864
Pt 20.3827 18.7078 25.1202
Pd 20.8701 5.10023 10.1299
Pd 14.1138 8.72289 25.8281
Pd 8.97057 18.7711 2.59602
Pt 11.7765 16.7062 25.807
Pt 21.3601 11.9837 18.8416
Pt 17.08 12.2434 17.3187
Pt 9.49424 21.4106 6.85889
Pt 15.8232 15.095 19.9197
Pt 7.09446 18.1891 19.4076
Pt 7.73431 16.8082 6.06353
Pt 6.1931 9.46306 20.2643
Pt 17.5174 16.4018 2.60853
Pt 10.5237 9.95471 23.3281
Pd 17.7449 24.6405 7.21285
Pt 23.5748 14.2998 17.7384
Pd 24.6149 8.95903 17.8352
Pt 10.2617 12.8776 9.8166
Pd 16.3854 15.5769 27.2043
Pt 16.6863 14.0045 13.0533
Pt 23.4065 20.0022 14.739
Pt 20.0497 13.7939 11.097
Pd 26.4518 13.0606 21.2592
Pt 8.05832 8.76574 12.5453
Pt 6.90014 13.6855 17.2234
Pt 8.34281 23.8169 7.07817
Pt 12.0408 7.93133 23.7903
Pt 9.63685 16.292 21.7327
Pt 12.1006 6.04948 11.5171
Pd 8.60448 5.34146 18.4658
Pd 3.41842 19.2376 8.25172
Pd 24.5476 17.7492 22.971
Pd 13.311 25.2604 13.1546
Pt 11.6912 6.70353 14.2039
Pt 10.9481 20.5798 13.3167
Pt 8.19565 11.255 13.7713
Pt 12.7384 14.8572 24.3674
Pt 22.976 15.6427 22.9992
Pt 16.9305 25.0432 15.6943
Pt 14.2574 18.1275 13.1282
Pd 2.3373 17.6521 10.3215
Pt 25.4591 13.7987 11.8164
Pt 14.2388 17.2359 23.9788
Pd 9.53035 23.3547 4.76613
Pt 12.7912 10.6997 24.5434
Pt 11.5152 21.6553 5.22146
Pt 19.4245 14.1325 13.7178
Pt 9.06882 8.99219 17.003
Pt 24.0415 13.2881 15.2267
Pt 12.5645 11.0304 21.9223
Pt 20.4319 7.67024 21.0224
Pd 5.58383 15.8914 5.05969
Pt 15.8281 20.2529 12.1628
Pd 14.9012 26.4831 17.0816
Pt 4.41187 14.6546 12.7053
Pt 11.5297 10.7118 5.03473
Pt 12.7898 13.6149 14.4589
Pt 21.5388 15.0374 15.4141
Pt 19.112 22.9195 21.9257
Pt 21.0368 19.4373 13.4077
Pd 23.8971 6.39689 17.5743
Pt 19.6086 9.05662 23.1296
Pd 24.1951 13.0279 25.3328
Pt 20.2941 22.1564 12.5008
Pd 2.02485 13.5886 11.5993
Pd 4.05927 10.1844 18.292
Pt 18.1396 18.7321 15.9002
Pt 21.7021 11.0179 6.75867
Pt 25.5649 19.5625 13.2564
Pd 11.5235 5.92868 8.90181
Pt 20.0284 16.1156 7.21488
Pd 6.44328 7.00936 19.0851
Pd 3.09211 12.0051 16.34
Pd 9.36808 15.9111 26.4089
Pt 20.967 14.4417 18.1284
Pt 8.43033 9.63872 21.6678
Pt 20.9361 24.4541 11.1426
Pt 11.8149 18.1592 11.6939
Pt 11.6205 23.2777 9.68411
Pt 15.2141 14.9474 24.8939
Pt 15.4812 5.95283 17.3831
Pt 17.0761 4.69434 15.7915
Pt 8.44651 10.525 19.1328
Pt 7.14201 12.1861 7.03644
Pd 4.63916 19.9055 13.8831
Pt 17.6261 16.6126 18.2965
Pt 20.7657 20.2217 10.6857
Pt 12.952 21.5971 18.5187
Pt 24.2719 15.9482 10.8677
Pt 13.1501 17.4998 15.4969
Pt 17.4512 13.9606 10.4822
Pt 10.323 8.11941 11.2244
Pt 18.3096 21.0462 17.6539
Pd 20.0483 8.67208 15.6329
Pt 7.79241 19.4571 6.96684
Pt 14.3867 22.3864 13.3453
Pt 17.277 22.5315 5.78033
Pt 11.4194 14.5572 11.6103
Pt 12.3289 18.9629 24.8303
Pt 19.8078 4.50353 16.885
Pt 8.67517 13.2096 19.3109
Pt 10.1864 11.41 25.6453
Pd 7.52795 12.7036 9.79525
Pt 15.9612 10.7503 19.1026
Pt 21.5774 11.4553 11.5289
Pt 15.0362 2.41671 13.0586
Pt 17.1804 7.20943 13.0482
Pt 16.8087 17.8002 13.53
Pt 11.2833 9.28491 15.6128
Pd 7.03401 6.52805 13.9348
Pt 11.7953 22.9409 12.1725
Pt 10.3464 22.5553 18.4182
Pt 12.3976 17.3252 18.1051
Pd 19.1132 13.8991 16.3307
Pt 16.6234 2.15277 15.069
Pt 12.6743 8.38308 21.1806
Pt 19.827 17.8121 11.129
Pt 25.8893 17.7191 15.0952
Pt 12.6645 8.27599 9.87166
Pt 21.5645 13.904 7.03447
Pt 22.4081 23.7976 13.2265
Pt 16.0363 20.3723 20.7499
Pt 17.4413 21.3013 22.9378
Pd 18.7672 7.32874 25.0274
Pd 18.056 11.3324 27.2879
Pt 10.8897 18.8629 16.6593
Pt 22.6447 22.3658 10.9646
Pt 12.0405 9.60426 7.35802
Pd 4.77435 21.9644 12.0788
Pt 13.7287 19.2173 22.4238
Pt 24.9822 15.4782 21.1431
Pt 17.7378 12.2954 14.8046
Pd 18.089 4.01229 10.4709
Pt 18.3864 15.8964 12.0819
Pt 20.905 12.6702 4.83445
Pt 22.4778 9.12991 22.0528
Pt 20.3623 22.6133 9.55225
Pt 14.5115 10.6765 6.12939
Pt 22.2414 12.0333 21.5846
Pd 24.6123 8.25886 20.491
Pt 9.93094 17.6214 9.97382
Pd 13.0895 21.6753 3.08487
Pt 11.1992 21.3791 16.2524
Pt 7.45069 17.34 8.61222
Pd 15.3026 24.3769 6.02451
Pd 7.65906 16.02 24.266
Pt 10.9015 4.23081 17.8074
Pt 21.9282 9.82094 17.3266
Pd 21.8501 17.8644 4.39607
Pt 7.81415 9.12844 7.17867
Pt 20.3842 5.05006 21.4333
Pd 3.7587 10.7969 9.34715
Pt 19.1826 14.0333 8.4848
Pd 16.0404 25.3525 20.166
Pt 12.2096 23.1697 14.6907
Pt 21.901 5.32698 19.1949
Pt 10.3358 6.73179 16.8943
Pd 22.6033 23.5714 18.166
Pt 7.9892 8.86075 9.91456
Pt 21.2194 4.43397 14.668
Pt 23.9752 18.5032 16.7338
Pt 13.349 16.1357 10.7584
Pt 9.34448 13.6557 7.4293
Pd 20.0691 9.56793 10.7557
Pt 14.044 4.39443 21.9253
Pd 18.7232 25.0455 20.3194
Pd 18.8823 2.7793 21.8874
Pt 16.6795 15.8643 5.0639
Pd 2.50615 18.6719 12.897
Pt 12.6098 19.4236 5.94904
Pd 22.2646 20.2744 23.9346
Pd 24.521 22.1196 13.296
Pt 12.0255 16.9957 6.19588
Pt 17.4927 9.33337 17.4888
Pt 6.91447 15.6122 13.0515
Pt 6.2157 15.9189 15.6305
Pt 23.1007 21.6459 19.9273
Pt 18.8174 20.4424 6.08986
Pt 3.53144 16.5347 16.8295
Pt 17.7779 4.90997 20.9833
Pd 26.4264 18.2614 17.7532
Pt 16.0396 13.0883 5.47044
Pd 26.0384 11.057 11.5223
Pd 2.76422 14.6458 14.9863
Pt 17.309 21.9865 13.3667
Pd 2.66643 13.287 8.91782
Pt 13.94 6.21323 23.8448
Pt 20.6534 11.2628 23.5558
Pt 14.9163 16.9764 18.3926
Pt 16.1515 7.2113 24.5246
Pt 7.26593 21.7453 5.48431
Pt 6.12536 11.7312 18.7957
Pd 21.97 11.429 26.0011
Pt 12.744 21.3026 21.1919
Pd 13.2354 19.2384 1.78705
Pt 11.4616 15.195 9.10778
Pt 18.9367 3.24896 14.6455
Pt 7.38506 17.2697 11.1349
Pt 15.981 11.6574 10.401
Pt 21.9292 17.553 15.1251
Pd 17.8822 17.8668 20.7469
Pd 14.107 12.9917 20.6795
Pt 8.50765 19.8843 9.60798
Pt 9.8129 21.3661 20.7063
Pt 19.4567 11.0504 16.7123
Pt 21.0626 21.2314 21.5911
Pt 23.3395 11.0791 23.7406
Pd 14.6047 12.9413 18.1087
Pt 17.7888 9.76009 14.4322
Pd 19.5121 14.4751 2.98974
Pt 25.6257 10.5585 15.9959
Pd 21.3392 20.7695 5.25747
Pd 5.07628 8.54931 10.2338
Pt 7.87869 15.7401 19.9773
Pt 6.53223 15.1697 22.0764
Pt 16.0605 24.3369 13.3242
Pd 2.7467 18.797 15.6131
Pt 14.1942 19.6651 8.04035
Pd 4.46534 9.16504 15.5587
Pt 7.67706 22.3318 19.2504
Pt 14.0136 10.7209 8.77642
Pt 11.4167 10.4924 9.98715
Pt 15.8296 17.5139 16.0368
Pt 20.998 19.5652 16.393
Pd 4.12198 14.1659 21.7066
Pt 18.1521 15.1829 21.2544
Pt 20.9512 20.7114 7.9392
Pt 9.31783 21.6887 11.6017
Pt 19.6668 12.8283 25.6905
Pt 21.2793 6.6113 16.8206
Pd 15.0007 19.8411 24.9477
Pt 13.9046 15.41 21.9719
Pt 11.9947 21.272 7.87262
Pd 14.1312 2.30868 19.8528
Pt 19.1898 6.69988 11.2361
Pd 18.7224 17.2384 26.5246
Pt 18.6497 11.5623 9.64158
Pd 22.8148 6.46244 21.45
Pd 13.1338 15.0346 19.2812
Pt 11.1884 20.3468 10.2278
Pd 15.2434 10.8976 27.1906
Pd 7.46619 7.20022 21.5318
Pt 5.2756 13.5433 14.8403
Pd 17.2168 27.6277 15.9519
Pt 6.55128 13.0378 12.4554
Pt 23.7398 15.0761 13.3362
Pt 18.6436 20.5429 20.3581
Pt 21.1924 18.1331 8.7569
Pt 16.3578 20.0843 6.61119
Pt 12.6718 2.27964 14.2545
Pt 15.5434 24.0004 17.8707
Pd 23.6019 5.60884 15.0013
Pt 4.46533 12.645 11.0445
Pt 19.5098 6.15163 19.211
Pt 16.9726 9.18546 23.1003
Pt 22.8056 17.7978 25.0063
Pd 7.25419 24.2371 9.57491
Pt 7.28357 20.2872 20.8168
Pt 10.9984 23.718 7.05791
Pt 13.8927 19.3288 19.6672
Pd 12.7344 21.4626 24.067
Pt 5.42734 11.0556 13.8047
Pt 15.1932 8.74805 20.5169
Pt 9.97287 11.9193 21.4067
Pt 6.65687 20.5095 15.7924
Pd 25.4381 15.2461 23.8781
Pt 12.0857 17.3941 20.6274
Pt 18.5368 19.6382 12.8006
Pt 9.64531 13.5807 16.8967
Pd 22.9533 19.1392 6.78994
Pt 24.0259 16.0216 15.8011
Pt 5.83455 14.0933 19.7364
Pt 18.5249 11.9147 12.2512
Pt 21.5149 24.4763 15.6559
Pd 11.5928 25.6553 11.1536
Pd 25.2031 21.1518 10.8658
Pt 18.2067 6.9391 22.3977
Pt 16.4584 7.80783 15.5773
Pt 10.3962 13.0872 4.97569
Pt 7.8162 18.2721 16.8048
Pt 21.4663 17.8632 22.9081
Pd 4.14921 20.9375 16.4823
Pt 18.3818 16.3954 9.36058
Pd 25.4373 7.75793 15.4742
Pt 19.5659 8.4915 13.0382
Pd 6.66373 7.15393 8.52304
Pt 10.7529 9.75876 20.1897
Pt 11.1808 19.7424 22.5609
Pt 13.5287 4.34951 18.0439
Pd 10.561 4.12989 10.6439
Pt 14.9547 17.7184 6.22456
Pt 19.704 16.618 16.6161
Pt 11.1747 6.58442 19.4193
Pt 13.5149 4.58461 13.1341
Pt 16.5146 17.3892 25.1802
Pt 23.0802 21.0844 17.1839
Pt 14.6651 6.69036 12.1645
Pd 7.95755 16.4548 3.46235
Pt 16.1518 2.98609 21.7945
Pt 8.90932 7.8888 19.3615
Pt 20.0588 16.3301 19.6503
Pt 11.1182 12.707 23.7217
Pt 19.8494 8.72999 18.5096
Pt 14.2293 6.2574 9.64188
Pd 12.8875 23.8367 5.01151
Pt 16.7764 12.4198 7.94311
Pd 16.0421 4.38924 8.61016
Pt 24.9775 18.5064 10.9105
Pd 5.11045 13.4985 6.00132
Pd 21.639 23.8105 20.833
Pt 6.27889 10.4615 8.73075
Pt 17.9348 19.5825 24.9489
Pt 16.3062 20.3226 9.45486
Pd 25.6666 20.4802 15.956
Pt 14.1476 8.23127 7.64438
Pt 19.3341 25.9372 15.9561
Pt 9.96321 15.6433 5.14827
Pt 17.9954 11.2888 24.5074
Pt 15.4119 11.0099 24.5559
Pt 16.8792 7.0117 19.3586
Pt 18.4345 6.86459 16.9812
Pd 22.4396 4.07607 16.9801
Pt 16.6838 22.4006 15.8575
Pt 19.0639 23.5786 14.7862
Pd 21.3377 16.7399 27.0413
Pt 15.5839 6.6141 21.8048
Pt 23.016 19.0299 19.0176
Pt 8.98441 11.1541 5.7204
Pt 6.26157 12.9569 23.2726
Pt 13.49 23.4928 7.79254
Pd 14.2717 17.6132 26.5858
Pt 16.5919 13.0338 26.0458
Pt 22.4073 14.5274 20.4171
Pd 10.8378 22.6936 22.6304
Pd 12.6062 25.6937 8.69683
Pt 13.2436 12.7027 5.0687
Pt 15.8173 11.5358 13.0673
Pt 20.5416 22.457 16.8884
Pd 15.469 11.0252 21.8461
Pt 14.781 8.59954 17.8357
Pd 18.9611 26.2358 10.9082
Pt 5.98804 19.6199 8.97788
Pd 15.2148 26.7457 14.3343
Pt 19.988 13.194 20.7663
Pd 8.46001 13.5627 25.2504
Pt 23.1037 10.7818 15.0913
Pd 23.7699 12.293 7.48497
Pt 6.77499 18.26 13.9722
Pt 20.5914 15.672 24.8352
Pt 7.09537 9.21372 15.0598
Pt 4.39855 14.1351 17.2235
Pt 11.2187 13.7614 26.1984
Pt 6.48224 9.2165 17.6316
Pt 9.73377 18.3417 5.26551
Pd 20.0797 17.1357 2.36464
Pt 23.1846 19.5904 21.5671
Pt 18.6909 11.2997 19.2072
Pt 23.761 17.4306 8.82322
Pt 26.139 13.0503 16.6917
Pd 19.7199 9.78824 25.8627
Pt 16.2911 6.9506 7.93558
Pt 17.8524 23.9808 9.7089
Pt 26.0302 14.2761 18.9703
Pt 10.4926 15.1507 19.2162
Pt 9.04195 19.0355 12.282
Pt 22.2475 9.88782 9.18154
Pt 12.5082 16.0424 13.3757
Pt 16.442 9.7896 8.15918
Pt 9.19722 20.716 4.29767
Pt 14.9713 15.5713 3.02897
Pt 23.8433 7.44301 13.0432
Pd 17.8642 26.4284 13.5245
Pd 8.68419 20.372 23.0775
Pt 21.6719 21.8455 14.6575
Pd 11.705 12.4615 2.77896
Pd 13.5627 25.4452 19.2564
Pt 20.9999 20.6628 18.7986
Pt 20.5455 10.2585 20.7461
Pt 17.7651 17.6883 6.94079
Pd 12.6762 2.67645 11.5642
Pd 16.0671 11.0769 3.68734
Pt 20.2558 11.102 14.1317
Pd 17.3202 2.21497 19.6493
Pt 17.0376 18.4261 4.47213
Pt 22.283 7.90134 19.1471
Pt 4.8256 11.6785 21.0881
Pt 13.9352 12.8884 23.2712
Pt 15.4351 18.0058 2.41089
Pd 9.77446 14.485 2.7683
Pt 5.61885 22.509 14.5662
Pt 23.2676 15.4307 25.5043
Pt 7.06558 18.9234 4.62036
Pt 17.2079 18.299 10.9132
Pd 17.6874 2.33715 12.4782
Pt 6.90672 21.913 8.00268
Pt 9.06077 19.8028 15.0178
Pt 18.3035 23.7519 17.5202
Pt 21.8096 7.52902 11.2763
Pt 18.7475 17.0642 23.5306
Pd 24.9649 10.7618 21.6434
Pt 15.3361 8.68228 10.3126
Pt 19.8529 21.3402 24.0314
Pd 15.8432 17.3435 8.82784
Pt 20.5834 15.5297 22.1111
Pd 20.9822 6.72267 23.4879
Pt 15.8317 22.4984 8.06253
Pd 3.093 12.3021 13.6269
Pd 19.0189 4.79344 23.7283
Pt 16.5713 13.2881 23.1649
Pt 11.4619 19.5498 3.6101
Pt 19.5597 19.2648 3.88609
Pt 9.52311 22.6197 14.0624
Pt 11.6107 12.6621 19.563
Pt 12.1528 13.3742 17.0678
Pd 21.9324 8.97951 24.6464
Pt 11.9618 23.5509 20.1869
Pt 19.6725 4.54556 12.5214
Pt 19.2565 19.3713 22.6123
Pt 13.8789 24.2138 10.8064
Pt 9.33163 7.79237 14.5965
Pd 5.1666 20.4511 6.47596
Pt 10.4941 9.8712 13.2206
Pt 13.3634 10.571 19.4277
Pt 17.9228 15.0114 24.9729
Pt 20.3608 18.4932 6.39461
Pt 14.7547 19.8117 4.28025
Pt 26.3715 15.7129 16.8819
Pt 16.71 4.64298 13.2188
Pt 10.2033 8.33339 8.60709
Pt 17.3086 10.6065 5.95957
Pt 18.339 8.16829 6.83899
Pd 21.7146 13.9603 26.8795
Pd 25.3607 18.32 20.4108
Pt 4.78352 17.3044 11.9779
Pt 12.3793 17.9214 8.87983
Pt 11.8554 17.0663 23.0614
Pt 7.40342 17.7836 22.1413
Pt 7.38395 21.0309 13.3444
Pt 8.18147 11.3897 16.4724
Pt 13.7762 15.2517 16.5581
Pt 13.1691 20.4976 12.0455
Pt 21.8037 13.1756 13.5882
Pd 11.2801 9.03763 25.9891
Pd 23.8543 23.0501 15.6776
Pt 10.9848 15.9588 16.3885
Pt 11.3439 19.7419 19.2478
Pd 4.19877 18.4344 18.7378
Pt 19.8357 22.7924 19.3987
Pt 21.3322 15.877 12.5259
Pt 6.11024 20.3455 18.3172
Pd 18.3883 2.23222 17.1154
Pt 15.4579 24.9191 8.83295
Pt 8.70596 13.9056 22.4321
Pt 9.37763 5.15 15.1335
Pt 22.0596 16.8835 17.8462
Pt 14.3574 18.6775 10.5377
Pt 12.6875 8.53187 12.6422
Pt 9.74283 17.5586 18.701
Pt 15.1553 17.5197 20.9573
Pt 16.642 15.0368 7.55924
Pt 20.5986 7.59597 8.95456
Pt 22.3889 17.8591 11.0801
Pt 16.4096 4.86532 23.4481
Pt 19.237 13.5654 23.2568
Pt 15.2578 9.02588 13.2425
Pt 16.949 9.28604 25.8302
Pt 21.3821 6.86104 13.9059
Pd 3.43162 12.7134 19.1478
Pt 14.3618 8.88211 23.1444
Pt 18.3947 14.1319 18.8156
Pt 10.8895 17.9885 14.1615
Pt 10.0271 8.80875 5.93633
Pt 14.6139 3.66134 15.4278
Pt 5.59298 11.4287 16.3357
Pt 16.3727 16.0225 22.7745
Pt 15.6409 21.366 18.229
Pt 23.748 9.54827 11.2694
Pt 13.8498 21.6591 9.86488
Pt 10.5658 25 13.6858
Pt 13.7844 6.51047 19.7115
Pd 6.03522 22.9276 17.1676
Pd 19.8191 9.89794 5.24411
Pt 8.41664 11.446 23.6632
Pt 6.96921 14.855 7.6908
Pt 19.1337 20.9625 15.0294
Pt 12.9247 12.8937 9.90267
Pd 16.4332 23.7587 22.2505
Pt 5.82733 16.3035 18.1777
Pt 13.866 12.8332 25.8746
Pt 5.2722 18.4109 16.323
Pt 13.307 10.9855 14.1045
Pt 5.51315 8.56974 12.944
Pt 13.6968 8.5455 15.3181
Pt 13.2438 10.9528 16.7629
Pt 10.8641 17.032 3.14696
Pt 8.8594 20.1278 18.4054
Pt 14.1942 13.1189 7.49622
Pt 9.62483 16.3271 12.3276
Pt 24.1642 12.8018 19.9137
Pt 19.3984 18.6179 18.3317
Pt 23.1524 20.0383 9.42275
Pt 22.8357 17.0371 20.7042
Pd 17.8611 18.9883 1.86514
Pt 10.6498 11.0958 17.6905
Pt 16.8627 12.8573 20.4642
Pd 9.82404 25.2306 8.93839
Pd 10.8236 25.3886 18.4644
Pt 18.5054 12.1095 4.22627
Pd 26.3538 12.2123 13.9794
Pt 22.9328 8.2141 15.5667
Pd 16.2471 25.804 11.215
Pt 10.6701 11.8933 15.018
Pt 10.9372 4.09535 13.2652
Pt 18.6944 14.2921 5.68532
Pd 5.12584 16.9552 20.8203
Pd 11.7542 6.94687 6.57064
Pd 6.13286 10.1974 22.9187
Pd 19.8868 3.34129 19.3564
Pt 23.5332 14.5752 8.74135
Pt 9.24514 10.8894 8.35602
Pt 13.8257 15.863 8.00891
Pt 14.0707 19.4007 17.0783
Pt 18.7363 19.2675 8.81289
Pt 9.03109 13.491 12.2153
Pt 6.06991 14.9799 10.3568
Pt 2.34624 16.0877 12.6028
Pt 9.61544 17.9341 24.0025
Pt 6.35834 10.6232 11.3463
Pt 13.359 17.5394 4.02651
Pt 15.1537 13.0418 15.3155
Pt 17.9859 9.02206 20.5529
