105
Atoms. Timestep: 134
Pt 14.7267 11.8252 4.82345
Pt 14.2436 11.5224 7.31427
Pt 15.2773 13.7529 10.9469
Pt 15.3719 13.8813 13.7799
Pt 13.8948 12.2773 15.5127
Pt 15.6206 14.0831 5.99204
Pd 16.1911 13.0811 8.35967
Pd 17.6147 13.9818 12.171
Pd 15.7783 14.2046 16.3217
Pt 13.1092 13.6304 5.89231
Pd 13.7617 13.9306 8.57858
Pt 13.0825 14.7012 12.5197
Pt 13.3239 14.724 15.267
Pt 12.3259 11.2556 5.41568
Pt 11.6247 12.5822 8.07675
Pt 11.9142 12.6925 13.7542
Pd 11.3223 13.0463 16.2528
Pd 14.8851 7.024 6.66028
Pt 12.3988 12.7233 10.6986
Pt 14.1123 11.9991 12.7527
Pt 10.3705 10.8914 14.8078
Pt 15.6079 9.57156 5.91585
Pd 14.7343 11.2601 10.1262
Pd 16.7055 11.3951 12.5594
Pt 15.7514 10.7466 14.8184
Pt 16.5406 15.758 7.91814
Pt 18.2434 14.1761 9.48151
Pd 19.7452 14.1722 14.0152
Pt 14.1667 16.0411 6.92916
Pt 15.3169 16.0729 12.3517
Pt 17.3897 15.4641 14.3953
Pt 11.6768 15.2749 7.14202
Pt 14.62 16.0916 9.71142
Pt 15.1704 16.5953 14.8724
Pt 10.4405 13.0614 5.94696
Pd 11.6921 15.2548 9.85093
Pt 10.901 15.1713 14.549
Pt 8.70222 12.0756 7.84114
Pt 10.5292 14.2879 12.1333
Pd 8.44392 15.5628 13.3114
Pt 10.324 10.6571 9.62005
Pt 10.2191 11.6196 12.0405
Pt 9.27047 13.0918 14.2363
Pt 12.5833 10.1332 8.84351
Pt 12.3803 10.2764 11.6728
Pt 10.5098 9.09768 13.0434
Pt 14.823 8.98555 8.30558
Pt 13.8328 8.45569 10.5463
Pt 12.8381 10.141 14.3583
Pt 16.73 10.5357 8.14314
Pd 14.8409 9.53903 12.605
Pd 14.8033 8.2094 14.7597
Pt 17.008 11.8669 5.94023
Pd 17.5967 11.808 10.2727
Pt 17.5179 12.8126 14.7064
Pt 19.11 16.1318 7.69971
Pt 20.2133 14.1135 11.2534
Pt 17.7092 17.962 8.76425
Pt 19.079 16.2191 12.5
Pt 17.1798 16.1341 10.5975
Pt 17.048 17.7737 13.1804
Pt 15.1421 18.162 8.25959
Pt 14.5434 18.5617 12.9286
Pt 12.6196 17.4515 8.50212
Pt 12.773 16.9862 14.0341
Pt 10.0673 16.868 8.3865
Pd 11.9895 19.2111 12.5723
Pd 7.26409 13.8815 9.41795
Pt 10.6126 16.8466 12.4877
Pd 8.2381 9.48383 8.41347
Pt 8.01297 13.3309 11.9639
Pt 10.4715 10.4545 6.89256
Pt 8.21982 10.7608 13.0873
Pt 12.9111 9.02044 6.47217
Pt 11.2422 8.07641 10.6577
Pd 15.4469 6.57647 9.44655
Pd 12.8006 7.69478 12.9906
Pd 17.2375 7.83185 7.93991
Pd 15.3785 6.93115 12.1147
Pd 18.4278 9.64236 6.35264
Pd 17.1525 8.4997 13.2414
Pt 18.9802 11.9075 7.84909
Pd 18.4776 10.4072 14.3945
Pt 18.2168 14.0299 6.7046
Pt 19.3535 12.059 12.5465
Pt 20.4858 14.0025 8.55423
Pt 19.8623 16.3537 10.0353
Pt 18.5318 18.3432 11.1277
Pt 15.9202 18.3913 10.7645
Pt 13.5461 19.1518 10.2593
Pt 12.9869 16.9981 11.3864
Pt 10.9182 18.1408 10.3388
Pt 9.2949 14.5778 7.79685
Pt 9.0429 15.7442 10.518
Pt 9.80349 13.2479 9.90685
Pt 7.88703 11.3516 10.369
Pt 8.88654 9.09286 11.0598
Pt 10.6406 8.32465 8.21541
Pt 12.8919 7.20985 8.46334
Pd 13.0732 6.00843 10.8468
Pd 17.9444 7.29011 10.6662
Pt 18.9116 9.57117 9.13685
Pt 16.4423 9.24557 10.4979
Pt 18.8068 9.76881 11.6513
Pt 20.1984 11.7604 10.1032
