105
Atoms. Timestep: 20000
Pt 14.7636 12.3565 4.85037
Pt 14.6702 11.5644 7.34433
Pt 15.0418 13.9326 11.1185
Pt 15.494 13.9533 14.0638
Pt 13.9561 12.1659 15.7268
Pt 15.6958 14.2434 6.29408
Pd 16.1784 13.262 8.56705
Pd 17.8182 14.1601 12.1997
Pd 15.9687 14.5 16.5221
Pt 12.9712 13.7166 6.01834
Pd 13.5267 13.6289 8.78385
Pt 13.2429 14.7413 12.9189
Pt 13.2716 14.4375 15.4709
Pt 12.5458 11.0956 5.85208
Pt 11.4904 12.5468 8.00751
Pt 11.8676 12.5601 13.7693
Pd 10.9322 12.8898 16.2479
Pd 15.1062 7.29341 6.31227
Pt 12.1351 12.7053 10.865
Pt 14.1949 12.0488 12.7832
Pt 10.1365 10.8601 14.7588
Pt 15.3368 9.86795 5.90119
Pd 14.7783 11.5056 10.0052
Pd 16.7987 11.6256 12.6779
Pt 15.6943 10.6733 14.6035
Pt 16.7389 15.9425 7.76996
Pt 18.5445 14.3966 9.4065
Pd 20.0198 14.1359 13.9489
Pt 14.0864 15.9919 6.89139
Pt 15.986 16.1424 12.3558
Pt 17.5201 15.4637 14.5504
Pt 11.4345 15.1448 6.98455
Pt 14.4296 15.9987 9.54263
Pt 14.9499 16.296 14.8931
Pt 10.389 12.8167 5.86312
Pd 11.7479 15.3673 9.86197
Pt 10.9021 14.9191 14.6127
Pt 8.87958 11.9716 7.55878
Pt 10.543 14.2595 12.1474
Pd 8.49401 15.5333 13.8043
Pt 10.3615 10.6085 9.58405
Pt 9.97341 11.6372 11.8424
Pt 8.98509 12.8913 14.1859
Pt 12.5518 10.218 8.35529
Pt 12.3339 10.2925 11.9123
Pt 10.417 9.19378 12.9793
Pt 14.8213 8.93741 8.22665
Pt 13.5111 8.70386 10.4254
Pt 12.662 10.2593 14.3627
Pt 16.6911 10.5118 8.24342
Pd 14.6862 9.38521 12.6515
Pd 14.7593 8.41815 14.9612
Pt 17.1491 12.1677 5.65645
Pd 17.6394 12.0471 10.3032
Pt 17.7744 13.0059 14.6671
Pt 19.4729 16.2343 7.61094
Pt 20.3677 14.2977 11.26
Pt 17.6055 18.1859 8.63623
Pt 19.0579 16.4149 12.3003
Pt 17.2684 16.2277 10.2071
Pt 17.6131 18.1415 13.1481
Pt 14.9782 18.3466 8.08391
Pt 15.0856 18.2004 13.1797
Pt 12.3445 17.2382 8.06502
Pt 12.5901 16.9306 14.4744
Pt 9.71642 16.4199 8.76368
Pd 12.5074 18.9979 12.7741
Pd 7.28639 14.0145 9.42535
Pt 11.0021 16.63 12.4428
Pd 8.30805 9.41756 7.93921
Pt 8.08925 13.4021 11.7681
Pt 10.3448 10.1172 6.55984
Pt 7.69322 10.6645 12.5001
Pt 12.7234 8.46102 6.48533
Pt 11.2256 7.97646 10.7576
Pd 15.4553 6.54807 9.52174
Pd 12.6097 7.76126 13.0997
Pd 17.2077 7.79442 8.16098
Pd 15.3126 6.78047 12.3043
Pd 18.027 9.53922 6.34793
Pd 16.9431 8.5178 13.3674
Pt 18.9241 11.6018 7.63069
Pd 18.2288 10.2676 14.8517
Pt 18.3539 14.249 6.75419
Pt 19.3368 12.0816 12.3251
Pt 20.4314 13.8627 8.0809
Pt 20.1708 16.326 9.9368
Pt 18.635 18.5509 10.7029
Pt 15.8957 18.3459 10.7095
Pt 13.5962 18.7348 10.1587
Pt 13.3071 16.7994 11.5626
Pt 11.1888 18.0699 10.3211
Pt 9.00508 14.5497 7.42485
Pt 8.88836 15.9093 11.036
Pt 9.7817 13.328 9.74895
Pt 7.79512 11.292 10.0123
Pt 8.7231 9.00779 10.8608
Pt 10.6475 8.17165 8.32184
Pt 13.1317 7.08963 8.76
Pd 13.1726 6.0369 11.2193
Pd 17.6433 7.39577 10.8874
Pt 18.9715 9.66211 9.24681
Pt 16.4183 9.43108 10.5698
Pt 18.7372 9.6628 11.7553
Pt 20.1812 11.9787 9.93856
