3871
Atoms. Timestep: 21114
Au 8.27535 9.61454 26.6631
Pt 24.1964 18.8933 30.2779
Pt 28.6419 8.92462 17.5397
Pt 10.4983 14.4978 35.48
Pt 7.98865 25.9952 27.391
Pt 16.3587 30.4245 17.6001
Au 17.9355 8.49848 14.7941
Pt 11.7569 12.9459 25.9611
Pt 11.285 31.515 21.9207
Pt 14.5653 13.7161 37.8468
Au 8.98897 28.4907 39.5879
Pt 12.4162 25.2664 29.1938
Au 12.7508 43.5887 30.5224
Pt 12.8876 12.4254 21.8319
Pt 10.1841 22.7306 19.4457
Pt 15.1588 21.6439 24.9757
Pt 22.8602 12.0069 28.0626
Au 8.57736 12.6327 35.845
Pt 15.7043 27.3038 26.9498
Au 7.32504 14.1213 33.4186
Pt 10.0603 27.6768 32.8364
Au 0.747628 30.994 28.7948
Pt 20.5642 21.0716 29.2041
Au 14.7706 25.8878 43.1525
Pt 14.9995 24.8373 20.3329
Au 17.5857 9.43044 41.2945
Pt 13.5381 29.5813 22.5701
Pt 13.736 10.6178 30.396
Pt 4.89977 15.284 25.3153
Pt 9.17129 19.6318 34.0057
Pt 6.74428 13.5097 25.9003
Au 20.1596 24.2496 20.8766
Pt 12.5595 35.7685 38.6079
Pt 4.37229 22.6133 23.8716
Pt 10.4099 36.107 12.6812
Au 11.5853 6.06196 26.2732
Pt 33.4424 8.15582 24.0718
Au 25.4898 30.4233 40.3095
Pt 27.1363 14.2235 17.5749
Au 2.62427 20.5856 28.599
Pt 6.77779 31.3825 32.815
Pt 6.26459 32.5917 13.9139
Pt 7.69196 23.0043 28.0456
Au 2.25582 17.8162 27.9297
Pt 10.7822 14.3716 17.9357
Pt 11.29 29.6662 34.882
Pt 20.1587 20.9924 41.6178
Au 19.6115 44.8015 18.733
Pt 15.239 15.1366 22.3826
Au 0.883875 25.025 17.7887
Pt 18.708 22.9869 16.6618
Pt 11.464 16.963 28.7887
Pt 12.5465 20.8665 37.0943
Au 13.5636 9.25297 38.656
Pt 7.29654 18.0539 30.5437
Pt 20.6706 14.8871 43.7235
Pt 16.568 20.8303 28.9186
Au 9.55039 11.977 19.1959
Au 23.2574 33.6017 9.28663
Pt 13.0659 17.7544 11.2632
Au 5.66802 24.3485 34.9927
Pt 8.80921 16.4619 28.7566
Pt 8.25059 18.5931 24.8008
Pt 15.1234 10.6361 32.6472
Pt 22.2333 30.9666 16.1184
Pt 25.041 10.4974 34.8127
Pt 21.1309 23.3906 30.4409
Au 7.95126 15.4951 35.715
Au 1.57101 27.001 22.9013
Pt 18.5645 11.6944 15.2277
Au 34.6686 15.1575 44.1129
Pt 22.1186 27.1405 34.427
Pt 2.74385 29.2612 27.5749
Pt 22.484 10.9186 33.7433
Au 14.6446 28.6612 42.9184
Au 26.7653 13.739 47.6113
Au 11.354 5.75587 29.0855
Pt 17.1133 20.1771 36.8733
Pt 9.84441 17.0994 26.4154
Au 15.0443 13.761 43.0844
Au 16.8871 24.8618 41.4907
Pt 7.90902 26.9843 31.314
Au 28.8546 26.306 18.2033
Pt 16.3602 10.2891 19.8144
Pt 6.98972 24.169 13.9165
Pt 10.7118 21.0876 38.8314
Pt 23.8506 9.45766 28.7948
Au 4.36749 30.2165 12.6561
Pt 18.8557 6.52041 26.7928
Au 8.62934 14.6563 19.5099
Pt 17.184 14.4649 41.2467
Pt 4.92157 18.6549 29.2188
Pt 12.5935 25.415 24.4266
Pt 14.0283 41.4819 26.3504
Au 6.03053 13.4445 30.403
Pt 21.6649 29.3742 26.0622
Pt 3.53971 31.6182 20.8391
Pt 10.2557 19.2327 36.699
Pt 16.0906 40.3771 30.4387
Pt 16.6664 23.4996 29.2341
Pt 8.76817 21.2651 24.4985
Au 38.1252 13.7004 32.665
Pt 22.7231 34.1413 32.5312
Pt 12.2241 16.0765 31.7726
Pt 15.9134 11.1084 38.3454
Pt 20.1287 9.62179 40.1182
Pt 18.1825 18.4011 32.7928
Pt 24.0354 14.9393 39.5504
Au 1.67565 32.8423 30.7767
Pt 17.5695 21.5816 23.7668
Au 37.2562 19.5035 35.6896
Pt 13.3127 34.0087 33.7665
Au 7.20796 38.8961 23.2947
Au 1.97182 31.0569 35.2989
Pt 14.1132 24.6049 40.7857
Pt 14.4207 36.8359 18.1485
Pt 16.7702 12.849 33.2323
Pt 24.9792 21.1837 35.7874
Pt 19.113 36.8726 40.5094
Au 9.99137 36.1659 39.3798
Au 27.7384 26.3224 4.74185
Pt 5.76247 17.8404 24.9285
Pt 13.4727 24.9413 12.2143
Pt 19.4846 37.5195 19.7485
Pt 25.0726 14.3785 37.0802
Pt 13.0848 22.8367 24.1818
Au 18.0004 25.3742 4.91881
Au 0.128619 32.6473 26.7304
Au 46.3967 19.5697 36.76
Pt 13.6642 27.5078 15.469
Pt 13.6395 27.1399 19.775
Pt 15.6747 22.3266 10.645
Pt 22.3758 22.7487 35.9478
Pt 13.9129 16.4175 24.3687
Pt 12.4534 19.7913 12.9769
Pt 4.51192 32.4508 25.0044
Pt 16.1425 24.3072 31.8471
Pt 14.6538 40.8623 32.6047
Pt 15.6738 18.9488 30.968
Pt 14.3667 36.3741 33.3011
Au 8.5727 39.1116 15.8496
Pt 13.347 23.3994 38.4629
Pt 13.8095 41.0404 23.7374
Pt 11.9905 18.3219 21.0618
Au 21.1331 20.7272 6.63189
Au 25.2575 19.1123 46.9111
Pt 24.0998 18.7974 44.4435
Pt 11.4079 35.3567 15.0898
Pt 11.63 20.9604 31.0304
Au 3.16968 23.1634 34.3512
Au 3.73023 25.4496 33.103
Pt 7.37339 29.8201 37.424
Au 25.63 2.59391 26.3247
Pt 19.0393 26.9356 37.6886
Pt 2.72294 29.5601 22.2742
Pt 15.8799 32.113 34.7613
Pt 10.9325 28.1062 11.0571
Pt 15.2052 24.5145 36.4623
Pt 10.0968 26.2293 30.1853
Pt 18.3263 39.4733 40.3103
Pt 30.3697 35.4966 20.1006
Pt 22.2463 8.00717 40.2259
Pt 13.532 30.6856 15.7335
Au 16.3602 20.3858 5.40066
Au 3.91439 37.446 30.4274
Pt 18.8821 18.9367 11.3673
Pt 11.8736 27.2717 17.877
Au 8.56666 9.37386 29.3561
Pt 12.2695 24.8087 19.3378
Pt 11.3163 32.0729 33.6316
Au 11.7239 20.7244 34.5591
Pt 5.01846 34.8953 24.4519
Pt 21.1367 35.4916 15.7101
Pt 19.7441 41.2412 29.8411
Au 1.19837 28.9267 30.414
Au 9.93527 10.1585 34.627
Au 21.5603 44.4464 15.7536
Pt 18.5745 19.4542 18.8832
Pt 5.78311 31.5065 30.1349
Au 7.11169 20.9143 35.0644
Pt 17.4959 13.1466 28.4997
Au 23.1936 31.2291 32.9255
Pt 7.84941 36.1368 19.2789
Pt 11.4195 38.8364 30.39
Pt 16.314 19.2395 11.1672
Pt 18.656 15.3994 39.2778
Pt 18.4344 41.8318 35.2986
Pt 22.6448 21.0549 30.8664
Au 4.83481 37.3712 23.5057
Pt 13.1526 26.6997 26.721
Au 8.53635 24.6397 36.5571
Pt 26.5432 15.9814 40.8833
Pt 21.7943 42.0853 28.1429
Pt 20.6247 45.3149 33.2422
Pt 14.5793 28.9587 31.6839
Au 1.31169 25.0579 27.7383
Pt 11.125 31.9496 30.781
Pt 5.42509 28.5394 18.6322
Pt 20.187 34.0607 35.8891
Pt 14.3213 24.1709 7.75582
Pt 13.5535 13.7266 24.0665
Pt 9.38677 28.4021 17.8078
Pt 9.3069 34.9405 17.2959
Pt 20.0774 22.4715 8.65026
Pt 24.8881 32.6782 25.2348
Pt 10.1602 24.809 21.248
Pt 12.6126 17.822 26.4516
Pt 12.5074 29.5387 26.8883
Au 10.8718 16.1467 39.7958
Au 12.0203 19.6003 43.8062
Au 13.3089 21.6756 8.25967
Pt 19.1588 23.0803 25.3834
Pt 14.2 37.6176 21.9031
Au 0.687942 23.1566 19.7949
Au 1.41554 22.3311 17.2966
Pt 16.9065 28.9012 23.8372
Pt 15.9802 40.032 38.8299
Pt 18.2284 39.1181 35.8068
Au 20.5401 25.2246 44.2053
Pt 8.71725 28.912 35.0797
Pt 13.496 38.8631 26.1274
Pt 17.2322 25.2646 17.0296
Pt 5.16759 19.6563 19.4004
Pt 13.6476 20.7228 39.5607
Pt 12.0487 29.8334 32.3675
Pt 13.1464 26.6104 10.1544
Pt 17.068 21.0279 17.351
Au 0.464498 26.0161 20.3935
Au 23.1601 48.3714 33.5367
Pt 18.1348 32.8235 17.843
Pt 10.9682 10.4675 27.0206
Au 20.4441 44.7126 36.0181
Pt 4.67578 16.8028 27.3174
Pt 5.61737 35.9533 28.9713
Au 2.49439 27.0954 18.4497
Pt 8.32237 35.4344 27.345
Au 14.2112 36.4377 41.1772
Pt 30.9326 36.1134 32.5386
Au 5.54546 38.8526 16.5554
Au 4.22522 30.6874 36.9945
Pt 9.02761 39.3037 20.9388
Pt 14.0969 24.9722 33.9733
Au 31.53 46.8543 34.0234
Pt 14.0359 38.3176 29.8771
Pt 9.1379 30.2652 15.8322
Pt 16.5886 30.9189 25.8366
Pt 15.2438 29.6123 20.0466
Au 9.99467 26.6981 41.392
Pt 19.721 30.7201 17.6501
Pt 16.2515 25.6149 12.2429
Pt 23.8016 43.1888 17.689
Pt 11.6134 36.3124 22.6567
Au 11.1728 45.0659 23.5595
Pt 19.1744 37.4526 28.7508
Pt 17.7614 44.4851 30.7581
Au 17.9068 46.9604 18.619
Pt 17.7114 18.4642 8.92108
Au 4.90362 13.9523 27.8963
Pt 19.2091 37.998 33.5768
Pt 37.8597 41.3949 27.6037
Pt 30.039 42.0549 21.8292
Pt 16.0431 19.8237 22.7027
Pt 18.1576 26.2295 32.7923
Pt 5.3762 21.2762 28.0507
Pt 19.8682 13.3352 37.9694
Au 18.0036 22.5046 43.1598
Pt 12.4319 12.436 18.8551
Au 20.4269 6.93594 14.1542
Pt 15.8677 18.7672 18.2522
Pt 26.6166 9.49017 29.6712
Au 0.149024 31.3984 24.3034
Pt 7.68454 20.9733 19.5636
Pt 20.479 10.625 32.0129
Au 21.7064 5.54771 17.6675
Pt 13.0558 14.9021 29.5519
Pt 29.2264 19.3701 28.9535
Pt 8.6191 12.9816 31.1699
Pt 14.0426 28.8124 17.7126
Au 1.00569 19.3264 23.4529
Au 4.85905 22.4651 13.4736
Pt 16.2041 10.9474 35.2149
Pt 11.8189 28.0596 39.2705
Pt 16.3449 20.0853 33.3557
Pt 18.267 28.7648 10.9299
Au 24.9419 26.666 18.2458
Pt 14.0152 20.6695 29.7217
Au 29.2598 19.9546 21.8909
Pt 25.0801 14.4374 31.461
Pt 8.82771 36.4736 14.6868
Au 45.8803 22.0664 35.8819
Au 39.6386 19.0014 37.6114
Au 44.8603 17.4832 36.0795
Pt 24.9542 5.37675 27.3877
Pt 11.3592 12.4204 31.0124
Pt 13.7143 10.4977 27.7694
Au 17.4772 6.82831 37.6103
Pt 5.11262 35.9448 15.7281
Au 48.8012 25.659 27.861
Pt 18.7614 32.1579 31.1451
Au 27.798 33.9275 44.8558
Au 19.1118 27.6198 44.4362
Pt 22.1711 35.558 18.0898
Au 2.84076 17.3668 25.0441
Au 10.94 38.4253 14.2734
Au 13.032 12.2675 11.188
Au 3.29818 37.2555 16.9646
Au 5.46172 29.9519 39.2869
Pt 12.1338 22.3889 28.7016
Pt 6.19648 27.0491 29.1305
Au 27.9484 31.8677 40.547
Pt 24.3743 17.4662 20.3106
Au 20.6438 28.5791 16.3023
Pt 19.2411 29.1808 24.9419
Pt 17.951 24.6435 36.7903
Au 15.3705 7.41913 19.906
Pt 7.96509 23.3005 34.1894
Au 5.87355 32.488 38.515
Pt 4.84505 31.2453 18.2346
Au 28.7445 30.0431 15.3763
Au 21.6863 23.6513 24.4991
Pt 11.7039 12.0873 35.4342
Au 31.7415 7.30359 39.5233
Au 40.1104 27.3334 9.13981
Au 27.3014 25.9838 32.6549
Pt 20.2929 5.77991 29.756
Pt 7.96652 14.0013 28.3905
Pt 4.29179 19.2799 26.6264
Au 35.6422 24.3875 33.9133
Pt 15.2212 39.8491 28.0104
Pt 20.1166 15.9238 37.0997
Au 19.4107 9.46919 16.9332
Au 15.7302 5.66587 32.9865
Pt 13.8852 23.289 30.5237
Pt 10.5872 18.7016 11.1743
Au 3.58604 26.0141 35.8182
Pt 9.41578 18.9963 28.6942
Pt 7.10848 29.4697 13.8655
Pt 3.57393 26.5078 28.0872
Au 8.73155 22.9693 38.8212
Pt 7.69482 23.1659 20.8854
Au 10.3713 11.9217 37.843
Au 28.7482 24.9376 20.8794
Au 24.165 31.1782 2.50887
Pt 17.2379 24.6618 26.752
Pt 26.5475 39.0755 16.6224
Pt 6.93956 22.713 23.4177
Au 32.8424 31.4451 10.009
Au 40.5082 25.4719 18.9823
Au 22.0607 31.4856 21.7417
Au 23.2091 16.2007 5.44115
Au 34.0182 30.4333 23.8783
Au 42.5883 26.531 17.5947
Au 31.5886 30.6245 36.3957
Pt 7.96274 26.7363 24.8698
Au 15.2643 25.0996 5.37822
Pt 9.99614 24.3404 28.2709
Au 39.2167 21.4458 35.5115
Pt 8.50774 27.5824 22.1006
Au 31.5183 28.8548 13.6869
Au 17.7144 39.838 11.8046
Pt 11.364 27.6884 28.4341
Au 23.8462 33.1003 43.9029
Au 32.1964 11.5863 40.7853
Au 26.668 39.3342 13.9014
Pt 23.6506 22.4659 26.5209
Pt 20.9836 14.4593 31.1253
Au 23.3303 25.4942 36.1945
Pt 19.9662 7.95972 37.5429
Au 1.18265 22.531 26.9291
Pt 29.6065 14.9178 16.0988
Pt 18.733 12.6423 31.2798
Au 23.0665 33.791 35.2173
Au 13.4704 6.71619 34.049
Pt 14.3915 44.7701 20.8799
Pt 5.45532 13.6456 23.1961
Pt 38.4618 22.4013 22.443
Pt 11.9982 32.9845 16.7894
Au 16.6233 5.20224 24.3168
Au 25.6711 5.27216 14.8002
Au 21.6006 26.1278 22.2428
Pt 10.441 19.6182 26.0775
Au 40.9809 16.7199 8.36257
Pt 20.1621 40.1986 18.1767
Au 31.9111 39.9807 42.5467
Au 3.47106 20.5185 33.2197
Au 47.3114 16.331 29.501
Pt 15.0402 22.5388 33.6727
Pt 8.49621 31.6813 30.41
Au 29.1214 32.8529 15.3628
Pt 14.1328 29.4608 34.369
Au 41.3972 23.1047 41.5815
Pt 5.74614 25.1657 24.3962
Au 30.1052 27.9026 16.12
Au 44.444 21.5191 12.5059
Au 33.1818 32.2653 4.88357
Pt 6.64503 33.8353 31.2989
Au 28.8431 17.7512 12.0964
Pt 4.33906 33.7706 29.6973
Au 15.3304 22.2772 41.4491
Pt 19.2451 9.07517 25.4069
Au 23.4619 28.6014 15.2142
Au 38.8226 29.9454 12.9549
Pt 18.4034 19.3809 30.2088
Au 22.0998 30.7806 43.1115
Au 24.1745 5.07766 22.666
Pt 9.3101 31.0316 26.0631
Pt 18.7119 13.8637 35.2479
Pt 13.556 16.5087 38.12
Pt 13.0457 38.6012 32.4886
Au 9.53732 18.6647 40.0524
Au 15.5549 8.79754 36.8159
Pt 15.581 27.104 33.3909
Au 14.8608 10.3609 40.8194
Pt 21.0409 19.1208 27.0919
Pt 12.7572 18.4996 30.8309
Pt 17.7078 23.6534 9.18038
Pt 9.06488 27.4215 15.3219
Au 2.25583 26.8568 15.7426
Pt 10.1258 28.3846 26.242
Pt 27.0932 16.9253 33.6414
Pt 12.3636 23.4947 21.7829
Au 11.0327 17.3778 42.3853
Pt 9.85585 25.4516 18.3252
Au 24.744 21.4155 11.0424
Pt 2.59131 26.904 25.7363
Au 10.5081 7.74376 30.7278
Pt 21.3537 43.1688 25.401
Au 24.802 25.2729 27.8756
Au 27.0137 17.3798 10.0853
Au 30.026 28.4522 37.2677
Pt 15.9989 32.6141 19.4282
Au 22.4592 31.2942 18.8121
Pt 12.235 27.5869 31.0414
Au 48.8281 30.4719 24.6507
Pt 18.3504 31.807 24.2405
Au 22.5757 24.3191 42.4994
Au 38.6116 25.3578 7.44318
Pt 15.1676 39.2858 17.1187
Au 21.8054 29.9934 13.5344
Au 33.3755 12.572 45.1457
Au 42.0775 39.1718 34.95
Au 19.0887 27.6347 30.5564
Au 30.7723 29.8457 29.1764
Au 26.3775 36.441 14.8209
Au 49.2302 28.0618 23.5074
Pt 27.271 19.0498 35.4668
Au 37.7178 31.0754 44.1759
Pt 7.95873 20.6802 26.9252
Au 23.0838 3.25477 33.35
Pt 16.8495 19.5055 25.4707
Au 41.3713 37.5034 17.2541
Au 28.1387 33.0559 38.0437
Au 12.8751 11.8233 39.1546
Au 8.41716 25.6203 39.3613
Pt 15.0501 21.8993 37.3103
Pt 10.6449 24.1221 34.6966
Pt 11.4906 32.4599 26.3909
Pt 19.22 11.2082 27.0346
Pt 12.6492 16.8738 14.14
Pt 5.54587 23.5233 19.2802
Pt 5.33213 27.3054 31.9754
Au 4.49613 27.9625 14.1459
Pt 3.45465 27.2984 21
Au 33.8707 18.9101 14.1544
Pt 12.5104 22.8807 32.8542
Au 32.3999 20.978 15.2105
Au 31.3278 34.1635 13.7995
Au 24.0258 24.0257 17.6194
Au 38.5428 27.528 11.5913
Au 19.6651 30.2746 5.24337
Pt 7.92803 23.5297 18.1841
Pt 7.68334 28.3124 19.8406
Pt 7.24557 28.7199 33.0273
Au 28.9537 39.5088 8.09611
Au 2.10579 33.2042 33.6236
Au 38.1726 41.4622 13.5614
Au 16.5066 43.3079 15.0008
Au 10.3797 7.93607 27.9158
Pt 22.6126 35.2552 22.3817
Au 39.5257 24.4736 40.0029
Au 24.1423 26.0093 32.9968
Pt 21.8564 41.7694 16.6989
Pt 20.818 35.2021 20.4184
Au 20.3133 36.8348 8.91211
Pt 23.4609 30.2057 30.4039
Au 33.2442 24.8639 43.4548
Pt 12.7377 18.407 35.8168
Pt 15.9585 23.2554 18.518
Au 35.391 32.3503 44.8098
Au 28.4692 25.8632 44.8192
Au 13.0802 40.3698 39.6166
Pt 14.5426 34.0647 39.8253
Pt 26.0051 13.2029 39.5044
Pt 21.3443 15.0596 39.3539
Pt 18.2239 11.5854 36.7851
Au 22.1823 18.3623 46.4824
Au 7.86604 31.0648 39.9314
Au 28.431 15.8253 48.2704
Pt 11.7775 36.5588 33.8091
Pt 16.233 16.9517 15.077
Pt 12.3722 29.4739 19.9767
Pt 9.95063 29.0568 13.4065
Au 3.37428 15.0217 21.2274
Au 1.23819 29.5167 17.4746
Pt 6.74924 21.8644 15.2672
Au 9.8417 12.6275 33.466
Pt 12.8489 29.4865 13.3462
Au 16.6557 15.9269 9.00928
Pt 26.1587 44.3905 26.3251
Au 2.89918 24.7863 20.2236
Pt 22.3238 33.2446 28.348
Au 32.8278 26.3044 20.8933
Au 20.0903 12.7372 45.192
Au 29.2619 5.29822 20.6644
Au 3.99283 23.5898 36.9392
Pt 3.76601 29.1139 16.7685
Pt 9.41896 34.3079 22.5465
Au 10.9452 13.474 40.3539
Pt 6.83903 34.6838 21.1211
Au 27.132 27.1649 29.6592
Au 12.3016 41.4584 14.0035
Au 2.73498 34.492 17.1183
Au 10.6423 21.9053 43.0153
Pt 9.62439 25.1905 13.6297
Pt 14.9601 29.9716 27.8147
Au 35.1545 3.3232 34.2637
Pt 19.4075 32.7028 38.319
Pt 11.5863 30.5761 24.4748
Au 11.2915 40.7505 25.5386
Pt 16.8091 18.1877 28.3306
Pt 9.822 36.8724 28.9897
Au 29.0174 6.29943 38.8625
Au 24.1529 19.7152 40.1028
Au 16.6544 11.7386 42.4028
Pt 30.1605 36.1657 41.0267
Pt 17.578 37.7545 24.0028
Pt 21.6286 9.91899 24.1145
Pt 12.2945 28.0022 24.4559
Au 14.2497 8.25413 31.9216
Pt 12.7121 34.9616 12.1425
Au 12.356 28.4533 8.12005
Pt 18.5583 26.8545 15.2274
Au 6.4463 13.4314 18.5013
Pt 4.45405 34.4195 27.0584
Pt 9.29515 31.8094 23.479
Pt 22.7173 35.051 26.3785
Pt 18.9038 39.0819 26.1916
Pt 3.51965 24.5075 17.5587
Pt 6.92502 31.0746 24.9925
Pt 7.3923 36.905 16.8693
Au 3.38269 22.0234 19.1378
Au 29.029 22.6426 22.8635
Au 9.54511 21.8267 36.1017
Pt 17.4152 28.6794 21.2385
Au 2.3825 32.3741 23.34
Pt 4.13923 27.5978 23.7158
Pt 10.2407 11.6134 21.8459
Pt 24.305 42.2715 29.3525
Pt 14.7333 39.0524 34.5647
Pt 14.8069 42.7881 28.6061
Pt 20.0273 25.3293 26.4567
Pt 9.83021 15.4181 32.9793
Au 9.97692 43.2116 21.5617
Pt 12.5177 38.7708 23.7133
Pt 4.86706 16.4275 22.9257
Pt 28.1595 18.2847 17.6333
Pt 17.355 28.7443 32.312
Au 21.8691 39.2772 9.69597
Au 8.9441 32.3181 10.6321
Au 19.216 23 6.05766
Au 39.1766 18.3865 7.24917
Pt 20.3031 35.2043 27.8512
Au 2.64439 31.7627 16.2799
Pt 16.1789 42.2995 24.1775
Au 5.6421 38.9973 25.554
Pt 23.0989 40.5365 36.1868
Pt 19.0853 39.2629 21.8469
Pt 11.5509 38.584 21.2425
Au 38.863 23.6073 37.4522
Au 19.4058 11.2979 42.5684
Pt 16.1619 42.5503 33.9126
Au 1.08051 20.4333 19.3174
Pt 15.947 21.6869 31.2708
Pt 13.7425 31.3216 18.3229
Pt 30.2392 39.8684 24.1549
Pt 15.2997 34.4718 12.3735
Pt 21.4853 37.6364 21.6951
Pt 16.3333 34.7991 9.52254
Pt 15.0902 32.6778 16.6514
Pt 14.1951 27.7052 29.1432
Pt 17.4782 10.6758 22.311
Pt 25.6011 10.5343 39.6811
Au 13.1933 7.53372 36.5511
Pt 25.4757 16.6752 29.8509
Pt 17.4776 12.9154 25.8084
Pt 17.1152 22.0543 26.6346
Au 17.4309 11.27 17.5603
Pt 9.97585 17.4227 31.0823
Au 12.6811 27.0342 41.7135
Pt 6.42381 24.8158 32.3334
Pt 24.8942 22.4375 24.2374
Pt 7.63876 18.3967 20.0606
Pt 15.033 27.5175 21.9874
Au 30.496 25.4665 26.0296
Pt 27.5744 8.67954 39.0281
Pt 3.19585 24.9994 23.3651
Pt 11.7179 20.9718 20.7298
Pt 24.4254 9.43318 41.7085
Au 20.1099 3.58635 31.4387
Pt 8.03606 24.9908 22.8396
Pt 26.3869 14.2208 29.1794
Au 3.91007 35.077 34.298
Au 26.3255 33.1939 42.5227
Pt 11.8658 13.9031 15.5146
Pt 15.1852 22.4309 22.1754
Pt 31.9777 14.4207 11.9012
Pt 23.0287 17.0353 18.0308
Pt 18.6825 20.146 27.533
Pt 16.7926 29.5134 34.7855
Pt 19.3801 17.4538 28.4969
Au 11.8362 11.3419 14.4705
Pt 15.6653 16.6828 11.4003
Au 31.6496 44.2967 16.2345
Pt 14.7028 16.7702 19.5614
Pt 18.0438 23.7028 11.7819
Au 11.6622 9.73194 36.7161
Pt 14.8649 29.5179 7.78456
Au 24.7484 23.6467 34.6232
Pt 17.8213 26.1551 10.1335
Au 32.2483 26.4356 23.9577
Pt 20.0821 37.0922 36.1053
Pt 28.2033 6.79046 33.4053
Au 28.8249 30.9464 36.359
Au 35.7731 26.9873 45.4646
Au 33.8117 9.31038 40.0624
Au 34.7649 20.775 16.6456
Au 45.699 31.3393 18.5266
Au 23.9597 34.8757 41.7334
Au 0.940442 24.7692 25.0264
Au 3.85167 22.3289 15.9866
Pt 20.0184 17.8104 14.8953
Pt 18.2107 32.9448 33.8032
Pt 10.444 26.4614 37.7859
Pt 23.0898 3.54254 26.8857
Pt 10.4653 23.6894 24.0286
Au 9.01175 21.2392 40.879
Pt 25.0365 15.8263 22.468
Pt 13.6945 10.4955 20.0097
Pt 7.23617 18.9766 17.4149
Pt 13.9628 20.3251 10.6653
Au 5.74144 25.9043 12.3159
Au 5.01471 19.8174 15.6736
Pt 10.9767 31.9548 36.4782
Au 10.1277 37.8214 10.6971
Pt 17.9918 21.1051 9.79557
Pt 12.9343 32.2167 28.5312
Au 22.2318 29.1969 2.14445
Pt 11.9386 19.6662 28.4341
Au 41.0889 28.1586 12.8469
Pt 27.8479 13.0038 37.3943
Au 30.9107 23.7496 7.45385
Au 33.322 8.54962 33.2926
Pt 7.19703 20.5485 29.6756
Pt 16.2927 10.9338 27.7211
Pt 14.2772 19.0791 24.6966
Au 44.0299 24.6451 15.3778
Pt 8.05024 22.505 31.3501
Au 36.9689 5.28611 29.392
Au 45.4945 15.4089 16.0463
Au 16.0807 15.7654 44.4798
Pt 19.7191 13.9657 41.416
Au 33.0896 26.1065 12.6998
Au 39.8599 42.9256 17.0708
Au 23.525 14.3738 44.3123
Au 19.7342 14.0796 26.8849
Au 27.3519 18.833 40.0437
Au 9.84285 33.3686 40.0774
Pt 22.8942 5.12081 29.2073
Au 12.0879 24.5308 42.6744
Pt 5.25388 19.0434 22.3319
Au 33.0492 31.2742 21.3656
Pt 7.7611 24.8325 29.8856
Pt 28.4145 13.9468 40.2023
Pt 25.2307 13.1304 26.9024
Pt 19.6236 13.8047 22.2737
Pt 16.3376 21.0697 20.0626
Pt 11.4489 18.5143 33.0684
Pt 14.7423 13.0187 28.7067
Pt 17.3953 42.3755 29.2462
Pt 6.71875 29.0052 16.4036
Pt 6.41468 32.1766 35.9745
Au 42.6606 35.3167 36.2345
Pt 19.0519 26.1275 12.6098
Pt 15.9064 33.0897 24.3886
Pt 21.0328 21.6534 20.4317
Pt 11.7682 26.8779 13.4288
Pt 16.0072 30.972 22.4369
Pt 13.6073 34.2352 26.0603
Au 19.6058 29.9422 2.55453
Au 25.2694 22.9836 42.2324
Au 42.6054 17.76 10.2778
Au 25.0014 18.7067 11.8365
Au 20.0981 27.5901 9.10853
Au 29.6893 31.424 27.0119
Pt 36.7092 8.28221 19.649
Pt 18.5036 15.397 24.4963
Pt 12.4908 18.6444 18.4029
Pt 13.6549 9.53211 34.7103
Au 28.1421 21.5906 36.0287
Au 43.8555 24.0865 18.193
Pt 12.3457 23.9767 26.6834
Au 38.5252 14.5169 37.9145
Pt 35.0414 30.2433 26.5633
Au 24.2015 31.181 13.9478
Pt 16.4692 14.6698 19.9839
Pt 11.703 25.3754 32.4895
Pt 17.6585 15.6968 27.0957
Au 46.8712 18.0132 15.8283
Pt 24.9079 7.92262 39.4444
Pt 12.7085 29.8809 29.7178
Pt 12.2821 10.931 32.8868
Au 29.882 25.3738 39.7838
Au 17.5283 17.9402 45.2594
Pt 16.3603 26.3525 38.1812
Au 26.3313 2.31029 30.7519
Pt 16.4366 14.3478 31.1
Pt 9.0894 34.421 30.3375
Au 7.0012 10.9355 30.8033
Pt 21.6042 28.2208 29.6682
Au 11.6862 23.6548 7.12323
Pt 11.6606 15.5724 25.1706
Au 15.3029 6.27267 30.1028
Au 11.016 21.003 15.1175
Au 39.5397 28.2691 15.0882
Au 22.62 10.4376 9.38695
Au 20.4032 8.81964 9.64799
Au 15.019 15.1677 7.08983
Au 11.3158 13.5397 12.8436
Au 42.7059 28.1045 10.4098
Pt 14.435 25.7365 17.5303
Au 27.5654 34.2095 13.3588
Au 22.3039 31.0091 8.88627
Pt 13.6912 24.9076 14.8793
Pt 21.026 21.8636 26.7913
Pt 6.45371 28.6713 23.7399
Au 43.7857 25.5632 10.2546
Au 19.1493 8.3432 12.1352
Au 20.356 32.8767 9.33719
Au 43.1556 25.5804 36.5666
Au 33.5182 38.2888 9.31126
Au 23.7842 28.9965 11.8777
Au 24.5127 17.7495 15.707
Au 25.4119 29.2991 18.9477
Pt 9.65974 21.6004 29.1648
Pt 6.15319 33.7765 33.9276
Au 4.33538 31.5485 34.2963
Au 40.796 7.12233 20.8208
Pt 28.1635 30.5582 25.0783
Au 33.874 22.2405 33.7971
Au 7.26582 38.9031 18.8098
Au 23.5772 32.1519 41.1297
Pt 20.4347 20.996 17.9337
Au 39.2613 16.4211 42.3097
Au 29.7331 27.1792 29.2905
Au 18.9445 43.5876 38.0792
Pt 7.19914 15.4793 23.9706
Pt 12.5969 25.4757 36.1488
Au 44.467 8.93205 24.5033
Au 27.5352 42.1891 37.9634
Pt 31.2396 15.3501 35.1432
Pt 17.8796 26.4825 28.3523
Pt 13.2616 33.4126 14.3714
Au 3.75834 28.2565 30.0685
Pt 15.9579 39.8172 25.2631
Au 34.084 31.0591 7.45937
Au 4.82579 18.1996 31.9273
Au 41.0509 31.8759 7.48233
Pt 9.34948 30.3663 32.7412
Au 22.4171 23.032 10.3044
Au 31.2627 33.9325 9.56777
Au 22.0689 33.2192 14.4101
Pt 18.0387 13.878 17.7652
Pt 19.5465 35.3365 38.195
Pt 8.54904 24.8641 15.9844
Au 24.9231 28.5384 2.7172
Au 42.5203 24.5355 33.1056
Pt 12.5075 28.109 36.6296
Au 39.3339 34.6886 10.8284
Au 28.1334 21.6244 38.8778
Au 22.8376 38.4851 5.4919
Au 29.0502 28.6596 44.2428
Pt 20.1167 12.3959 18.5155
Au 23.018 39.7968 26.0272
Au 23.2933 20.9053 45.9534
Au 35.0249 26.3673 41.7576
Pt 20.0288 28.0589 33.114
Au 26.5323 20.9645 22.5689
Au 36.0041 24.8382 9.49865
Pt 12.3397 33.9703 21.494
Pt 28.767 36.5517 28.5393
Au 41.5537 28.4822 41.9967
Pt 26.8554 39.4884 40.6906
Au 24.8931 27.7025 41.3171
Au 18.2492 11.9006 39.9871
Au 23.1924 26.9567 39.0885
Au 7.52404 18.3491 35.9435
Au 34.2507 25.0668 39.4529
Pt 20.1854 17.3436 44.6485
Pt 11.8924 14.1379 37.9045
Au 31.0703 30.4023 44.6587
Pt 29.7096 38.9832 41.1595
Pt 13.6415 37.0097 35.9906
Pt 6.15107 32.027 20.6241
Pt 8.28043 27.1497 12.6381
Pt 36.2174 6.74019 21.7537
Au 2.48692 31.8238 13.5637
Pt 15.3159 29.9396 12.0441
Au 7.51509 12.5373 21.0234
Au 7.7146 36.642 11.8558
Pt 7.42181 30.6226 18.6402
Pt 25.0037 39.6678 24.0063
Au 26.8833 12.1512 41.8944
Pt 12.2312 39.8837 28.1083
Au 10.4672 21.3138 7.95289
Pt 12.1437 12.5413 28.5312
Pt 23.3153 41.8773 24.0389
Pt 10.211 19.0033 16.8243
Pt 7.12596 33.5781 18.5365
Au 33.5388 28.1799 25.5147
Au 21.5046 34.5222 7.31439
Au 25.8566 35.3136 4.71999
Au 30.8245 33.5408 40.0921
Au 28.5155 31.7433 3.79952
Au 29.1642 34.062 32.7976
Pt 9.08104 29.2172 24.0742
Pt 20.3336 33.4826 22.6129
Au 27.9212 34.6589 40.62
Pt 22.9598 36.7284 31.4469
Au 48.1353 25.7237 18.8065
Au 9.70479 28.609 8.61241
Au 32.7183 3.5489 27.5088
Au 42.1093 12.9235 35.4287
Au 25.7791 16.5104 48.2026
Pt 20.9197 32.323 33.9141
Au 34.0013 34.0342 39.8504
Au 23.8868 23.1691 44.6275
Au 31.9181 18.8223 42.8242
Pt 15.3739 18.4152 40.2013
Pt 14.6061 31.4758 39.4251
Au 45.4892 38.9719 20.2352
Pt 18.2497 40.4136 24.0542
Au 39.3936 13.7656 35.3942
Pt 12.3696 32.9867 38.685
Pt 9.8302 17.2507 34.8809
Au 8.73656 21.4818 10.0872
Pt 10.344 37.4213 16.7887
Au 12.3819 7.44444 23.8378
Pt 33.6959 42.1751 20.7037
Au 5.52938 22.3214 33.0208
Au 11.9285 43.4997 35.4384
Au 22.2019 16.0757 15.6165
Au 11.1501 18.8685 6.68469
Pt 9.15654 24.8143 32.3585
Au 22.2072 25.6243 8.83543
Pt 5.0275 30.9158 23.0214
Au 6.4479 37.7616 14.1887
Au 5.40431 15.6177 31.9272
Pt 15.3869 35.7701 20.2692
Au 32.7096 26.8711 15.3535
Pt 6.67174 26.6262 14.8458
Pt 11.0457 30.799 11.7553
Au 1.97868 26.0439 30.3199
Au 2.55188 36.0564 19.2238
Au 22.8377 5.82304 15.0709
Pt 9.82409 39.6214 18.253
Au 27.6091 24.5977 42.3568
Au 9.78105 41.9061 16.8876
Au 24.4217 31.9616 7.19695
Au 46.0902 22.7679 14.3713
Au 29.8108 19.3182 38.7618
Pt 11.6548 19.8598 41.1386
Au 28.0622 31.2769 43.7366
Pt 18.4094 38.9849 31.0993
Au 14.3129 6.2259 25.3945
Au 4.5504 21.3127 35.6355
Au 24.1421 43.3374 39.783
Pt 19.9748 17.1572 31.1645
Au 20.6611 48.3815 29.9441
Pt 21.185 37.8654 14.4655
Pt 12.7499 27.3716 33.8466
Pt 10.9953 23.6739 37.4435
Pt 19.4033 44.7624 26.3122
Pt 21.0452 26.018 31.8325
Pt 16.252 20.8047 39.3283
Au 26.2094 28.6062 24.4411
Pt 26.6446 35.3313 38.3685
Au 23.784 11.957 7.40453
Au 11.705 45.2651 20.8308
Pt 16.297 39.658 14.736
Au 0.586046 24.1714 22.4078
Pt 23.8736 37.4519 27.1983
Au 0.788963 28.6685 20.3739
Au 18.6133 46.3886 21.1135
Au 4.58859 38.2448 27.9288
Pt 21.2085 39.0588 30.5443
Au 18.4667 38.9047 9.07825
Au 4.58414 38.1463 19.151
Pt 13.9616 33.9014 10.0098
Au 21.9419 31.8219 6.16542
Au 11.0034 26.1027 8.52581
Au 33.6372 38.2968 14.5832
Au 48.1477 23.1844 17.5414
Pt 9.89145 38.7613 23.6071
Au 3.24134 23.1937 31.5421
Au 9.45103 39.7286 28.0999
Pt 9.07186 36.8061 21.8231
Pt 8.78381 31.576 35.0458
Pt 22.0053 43.9782 22.8258
Au 2.73611 35.7959 28.5883
Pt 22.002 37.153 28.9671
Au 5.97644 11.0738 22.6645
Pt 9.08283 33.7258 25.2884
Au 0.0365163 29.8119 26.4922
Au 39.6756 18.895 43.1699
Au 24.1727 46.6163 26.4902
Pt 36.4995 41.461 25.0668
Pt 11.4905 34.3948 29.3519
Pt 16.186 29.5474 40.4887
Pt 24.9149 32.4058 27.998
Pt 22.554 17.4981 39.3579
Pt 17.6899 33.3072 13.0352
Au 29.7055 46.2881 27.5873
Pt 17.8839 30.8643 19.8395
Au 23.3513 46.3641 22.6555
Pt 37.8774 31.9614 21.0408
Pt 19.1199 33.7787 15.3097
Pt 14.8259 44.028 26.2429
Pt 13.7102 22.4422 19.7716
Pt 15.6384 27.7556 10.4202
Au 22.6395 38.5828 12.2652
Pt 15.9006 26.1999 14.8092
Au 1.54768 22.0976 24.2503
Pt 15.1392 38.8636 19.7354
Pt 8.80422 21.2447 17.1017
Pt 2.42018 33.0086 28.1399
Au 12.894 45.1263 18.3989
Pt 21.5374 34.8616 30.2186
Au 26.3906 44.6575 38.3869
Pt 10.5576 34.3783 34.7623
Au 6.11751 39.0977 30.1897
Au 3.29809 23.352 28.7202
Au 14.3028 22.4471 5.58617
Au 27.646 46.4778 36.6809
Au 16.8998 32.3443 40.7732
Pt 10.3014 34.2839 37.5188
Au 19.7141 30.5267 44.5917
Pt 13.4881 40.9821 30.1464
Pt 17.0094 27.9561 13.0926
Au 9.2284 14.4493 38.0182
Au 32.0993 20.1026 48.1573
Au 8.16494 39.856 34.4761
Au 18.0661 46.7996 32.0581
Pt 10.773 23.5306 30.7426
Pt 10.1703 37.2595 19.408
Pt 20.2548 38.2156 24.0338
Au 38.7301 29.6197 7.93247
Pt 23.7458 44.3951 24.9762
Pt 31.2577 38.1837 34.2131
Pt 6.96792 33.11 23.2751
Pt 31.8466 43.5158 25.745
Au 11.4669 38.467 38.5319
Au 21.2304 3.44721 24.9081
Pt 28.6466 4.26859 34.1426
Pt 39.5462 19.0527 30.1661
Au 11.9931 10.3186 17.3029
Au 9.12642 12.9669 14.287
Pt 9.6942 22.0514 22.0354
Au 9.61732 10.2551 31.8178
Au 30.4127 10.4948 18.9939
Pt 33.1866 18.9749 26.669
Pt 8.10288 26.1817 34.296
Pt 18.7803 11.242 34.1845
Pt 25.0759 14.1453 42.053
Pt 11.0214 13.9668 20.6652
Pt 10.2008 22.3163 26.5129
Pt 43.0387 12.3325 25.1364
Pt 22.8705 10.5547 36.5161
Au 19.0879 16.5107 34.6677
Au 6.50351 27.5328 39.3155
Pt 18.7851 20.0722 39.2483
Pt 19.2313 23.3329 28.2378
Pt 17.8511 24.8536 19.569
Pt 14.0037 12.9671 13.7149
Pt 34.9069 16.493 18.0686
Pt 13.4393 14.6591 17.7153
Pt 22.6161 13.0144 37.9462
Pt 36.1698 8.58095 23.6733
Pt 16.8573 24.1234 24.1648
Pt 9.56277 17.009 18.3899
Pt 8.11204 35.4396 32.9833
Au 38.4744 3.70223 31.3479
Pt 20.1584 20.1205 31.9285
Pt 20.55 16.5888 41.5074
Pt 24.8601 7.08725 29.5485
Au 17.2222 5.64324 21.6534
Pt 26.0209 11.1435 21.4233
Au 19.3276 5.16376 36.537
Pt 21.3151 16.2749 33.1501
Pt 19.4175 26.2259 41.8585
Pt 23.5835 19.9904 20.8351
Au 23.5818 15.5104 8.1238
Pt 14.5354 14.9145 33.3537
Au 42.5653 10.5582 17.6466
Pt 6.93039 16.4009 18.4166
Au 25.5155 25.7039 37.9139
Au 41.2785 39.3398 19.8951
Pt 16.4039 12.2147 12.9081
Pt 9.94042 19.5803 19.4331
Pt 5.61515 24.7024 27.8801
Au 39.6002 25.7879 13.6746
Au 36.5278 31.0236 41.7137
Au 39.4145 20.5677 14.0364
Au 40.7749 14.876 40.2839
Au 2.13059 34.187 25.62
Au 4.3823 15.1883 18.7861
Au 21.6253 31.5688 3.4293
Au 19.8106 35.5554 13.3247
Pt 22.4741 12.3745 31.0216
Pt 18.0252 22.5031 40.4727
Au 30.4004 24.2758 43.2274
Pt 22.4698 14.697 41.7029
Au 40.9232 24.3184 35.5192
Au 31.1665 3.19027 24.8221
Au 26.8597 15.9668 45.9066
Au 21.9802 3.41677 21.9153
Pt 15.4202 12.9272 40.2428
Pt 15.426 17.1531 26.4276
Pt 18.0069 9.49842 38.4883
Pt 18.7586 15.0279 29.6547
Au 31.5888 3.54937 29.9347
Pt 18.1104 9.02172 35.8476
Au 22.9657 25.9798 45.1442
Pt 27.1074 9.47299 41.5931
Au 28.0799 10.4708 9.27484
Pt 19.2121 27.58 22.8939
Pt 10.4743 11.0345 24.3932
Au 26.4139 2.76505 23.3975
Au 31.9554 7.03085 17.7437
Au 8.2853 9.99344 21.0794
Pt 11.6816 23.5243 14.2442
Pt 17.6574 23.2439 21.6641
Au 16.6575 9.50257 12.493
Pt 7.48612 30.9928 27.966
Au 17.2636 30.3449 6.66
Pt 11.193 41.0351 19.9413
Pt 9.68368 20.5262 12.7562
Pt 27.8784 12.349 15.7267
Au 39.254 32.1343 9.43277
Pt 10.8246 25.5024 11.3
Au 20.2471 40.0372 12.8266
Au 37.0015 34.2076 7.05415
Au 30.8097 25.8977 36.1905
Au 27.3697 20.176 10.8646
Au 37.806 6.37914 31.7309
Au 26.2642 24.8872 13.6389
Au 18.6872 34.9457 5.24351
Pt 10.6207 14.5871 27.646
Pt 31.5284 13.1741 17.0033
Pt 34.4409 10.0547 28.077
Pt 22.9996 13.3107 15.9003
Pt 41.1836 39.1376 25.2392
Au 33.7883 10.5644 43.0864
Au 40.6369 36.5927 9.51555
Pt 29.3282 5.3415 24.7333
Pt 13.2447 14.3081 35.7472
Pt 17.3139 16.891 30.7218
Au 48.2594 33.378 31.9605
Au 35.8512 34.4085 12.4995
Au 35.87 32.0939 5.65211
Au 41.457 25.801 41.6797
Pt 25.8394 9.62158 32.2761
Au 15.549 6.22652 35.7307
Au 34.2928 22.6021 9.66172
Pt 24.6079 16.8923 32.5394
Au 41.0426 29.1041 39.282
Pt 8.74298 31.5077 13.3194
Pt 20.2547 24.7458 15.4523
Au 29.1875 16.5252 5.03149
Pt 24.2741 10.1745 23.1616
Au 36.8632 25.2248 4.48673
Au 38.6872 34.8784 13.5301
Pt 34.4286 18.3724 20.395
Pt 23.4398 36.5251 20.1948
Pt 20.523 22.5886 39.1506
Au 21.5428 22.2651 15.8746
Pt 12.3006 19.1994 8.9863
Pt 6.91497 33.59 28.7273
Pt 14.3105 27.4262 12.7463
Au 27.5965 14.5018 14.1816
Au 26.9439 23.2528 29.3855
Au 24.6236 16.2638 10.4992
Au 40.9437 13.2654 12.9616
Au 26.9173 26.475 22.6851
Pt 14.1767 19.6647 20.1499
Au 41.6614 29.304 7.98737
Au 29.8536 15.4176 9.78508
Au 21.758 19.0367 16.5845
Au 28.1342 24.6486 2.61962
Au 29.63 26.4794 23.2425
Pt 12.7811 8.38465 26.5096
Pt 18.3963 15.7499 15.838
Pt 28.8826 9.032 34.8298
Au 14.8073 32.8168 7.3073
Au 24.2019 40.5289 40.956
Au 38.5177 28.2717 38.1358
Au 27.6045 24.1522 34.9186
Au 20.5839 29.3393 19.883
Pt 11.1636 16.5523 37.03
Pt 22.5485 16.8552 43.6412
Pt 13.6726 26.1042 38.4807
Pt 14.8269 27.2662 36.0057
Pt 18.5914 22.096 30.6135
Pt 23.7153 12.3004 40.6673
Pt 31.8291 12.2777 35.3556