3871
Atoms. Timestep: 21097
Au 16.8965 26.0545 4.00513
Pt 24.4288 21.8218 38.5861
Pt 30.319 23.0565 33.6775
Pt 17.5894 17.9376 38.9368
Pt 27.4504 19.8024 32.9429
Pt 29.5871 37.6278 13.4239
Au 16.4396 23.6241 5.21481
Pt 22.1579 38.693 24.6927
Pt 24.6162 15.1064 21.2275
Pt 33.2896 35.2108 32.198
Au 10.8617 42.0958 31.9172
Pt 20.6127 33.1325 20.6745
Au 15.6341 44.4885 16.5793
Pt 13.6781 22.3446 33.0931
Pt 19.8024 37.631 29.3701
Pt 31.6823 41.0475 18.5081
Pt 18.7303 38.4544 14.2363
Au 41.3843 39.2708 14.8927
Pt 26.2483 31.2083 26.6661
Au 35.4242 43.9439 34.0457
Pt 12.5088 25.9723 9.30496
Au 29.1235 41.4441 38.4325
Pt 34.4305 33.5854 10.8888
Au 32.211 18.8265 46.7357
Pt 24.6787 17.8508 22.434
Au 27.9094 47.4794 30.409
Pt 18.2532 38.6734 31.2102
Pt 29.4768 11.5651 35.6795
Pt 26.7771 23.1517 39.1674
Pt 21.6849 12.1709 14.7708
Pt 15.4104 32.6105 23.1594
Au 28.9877 2.06326 27.1853
Pt 27.3138 26.5229 30.6256
Pt 21.5683 26.1122 20.5425
Pt 24.1384 16.5497 19.1111
Au 27.1941 47.81 18.1078
Pt 20.0492 36.2193 39.2049
Au 40.9989 35.2392 37.5677
Pt 10.6721 15.1608 36.144
Au 13.7864 17.2245 39.638
Pt 32.6367 33.6144 36.0226
Pt 4.20951 32.0668 27.2632
Pt 7.19423 21.415 34.8523
Au 28.9446 25.2823 7.0376
Pt 22.3623 35.8667 13.8125
Pt 20.9656 12.232 20.152
Pt 15.0461 6.92677 27.4164
Au 3.8309 16.6088 24.0551
Pt 26.4457 15.2592 26.0345
Au 41.7996 8.70977 31.3629
Pt 24.5265 45.1974 30.7933
Pt 6.89151 27.62 26.6648
Pt 27.6974 29.1696 34.2678
Au 3.73655 25.4456 35.0558
Pt 26.4298 45.8183 20.1427
Pt 16.9412 43.7604 30.5706
Pt 41.6065 32.6124 37.7978
Au 49.8243 27.5476 22.7862
Au 45.3862 31.017 23.1316
Pt 32.5453 16.0356 26.7068
Au 13.9636 6.77413 18.0673
Pt 30.8694 32.8406 24.263
Pt 22.9533 39.9926 38.3592
Pt 22.6661 35.3575 16.4085
Pt 27.4871 28.3392 13.5034
Pt 9.53372 25.9843 14.665
Pt 32.6532 33.881 28.4013
Au 7.2458 34.349 14.6443
Au 31.8366 42.2453 14.1637
Pt 9.4962 21.9461 20.1826
Au 6.27398 7.99808 29.6261
Pt 24.8217 22.2313 23.6089
Pt 31.6848 17.1958 37.3446
Pt 27.1106 14.6891 44.4203
Au 21.8915 41.2644 36.1523
Au 10.0985 41.5344 34.5717
Au 23.0514 5.5515 19.2869
Pt 7.66574 16.2499 25.2257
Pt 18.7877 17.9611 41.3329
Au 32.8313 4.35963 17.8782
Au 46.0499 17.2426 16.4404
Pt 19.5029 7.92307 33.1839
Au 3.48063 33.3578 18.3936
Pt 12.9259 23.1836 19.2725
Pt 23.7261 18.973 38.8672
Pt 20.0809 20.6819 22.1833
Pt 31.6745 29.3793 20.3313
Au 10.0228 37.8474 38.7737
Pt 20.9641 6.09263 23.8994
Au 12.7039 4.77042 27.6303
Pt 23.3722 42.9695 27.1922
Pt 24.691 26.7282 30.7711
Pt 31.6818 16.9046 30.612
Pt 20.3252 33.1913 9.74951
Au 33.1293 8.40002 43.2846
Pt 18.737 25.7154 11.1607
Pt 16.1028 42.0666 23.1395
Pt 9.85531 31.138 31.1016
Pt 22.9027 27.6143 28.7734
Pt 15.1453 21.8581 40.0817
Pt 21.9808 20.8775 39.3819
Au 35.9115 23.0305 8.79595
Pt 6.29515 29.3201 34.9063
Pt 33.8888 18.4648 7.71467
Pt 23.4628 8.90345 26.533
Pt 7.72632 14.523 27.6989
Pt 28.8057 28.1025 38.6882
Pt 20.5072 5.3392 20.2407
Au 14.9174 11.651 39.1561
Pt 15.9565 21.7972 10.0484
Au 42.5131 39.6276 35.0312
Pt 24.746 32.8339 42.1676
Au 37.8582 18.1949 41.8733
Au 12.0907 8.12796 23.1123
Pt 24.1477 35.4251 35.9909
Pt 9.57309 35.135 24.6937
Pt 34.113 26.0203 13.5256
Pt 19.1861 13.8085 10.0561
Pt 30.7921 36.2434 11.3618
Au 10.7775 33.1202 11.3912
Au 26.7546 38.1021 44.918
Pt 18.5307 19.4521 30.4633
Pt 20.7763 13.4676 30.7722
Pt 10.5983 13.4428 22.6445
Pt 17.6654 35.9568 14.6698
Pt 15.5786 19.2337 35.8235
Au 38.6092 24.3885 9.69866
Au 17.6312 46.0743 17.7805
Au 37.9582 25.4364 42.5908
Pt 10.2975 26.0787 11.9188
Pt 29.1848 29.3184 4.53911
Pt 32.7491 30.6939 24.7654
Pt 31.3778 42.8155 33.4985
Pt 25.1253 36.5169 38.8253
Pt 21.2902 18.4606 40.1279
Pt 11.1105 20.1674 37.2389
Pt 9.28011 30.2452 17.4362
Pt 30.3087 29.7963 17.7947
Pt 19.7987 10.5566 31.521
Pt 26.2022 42.2718 34.7569
Au 10.0713 42.6634 27.1991
Pt 26.1853 45.2319 17.629
Pt 24.6152 34.9637 20.8004
Pt 28.2766 18.9787 28.6801
Au 19.1032 24.4162 4.0714
Au 22.6741 33.2976 2.10972
Pt 16.0373 12.0577 33.6796
Pt 13.0024 18.3842 22.7762
Pt 22.3953 27.0796 31.9366
Au 5.43895 18.3323 25.4115
Au 31.5811 25.2401 6.08109
Pt 25.2831 24.8451 40.5562
Au 37.3129 5.80797 34.7956
Pt 15.1223 40.015 17.8893
Pt 20.335 40.4442 20.924
Pt 24.5485 41.4749 22.2196
Pt 31.2483 45.8244 27.3393
Pt 11.1984 29.1139 39.8751
Pt 25.5521 35.0792 33.7898
Pt 18.0908 20.2715 9.46704
Pt 9.00507 19.4216 35.1469
Pt 32.3197 6.41349 36.2089
Pt 26.1375 25.3809 22.0177
Au 21.6971 2.13932 27.6059
Au 41.7619 41.3243 33.1691
Pt 21.4995 22.6396 35.0969
Pt 11.6551 38.9667 21.7411
Au 14.6888 29.8439 6.40968
Pt 20.0595 18.6459 32.4566
Pt 25.6326 32.5959 21.4422
Au 42.4386 16.8217 40.056
Pt 22.1808 7.05261 15.3344
Pt 9.29237 28.3504 31.1743
Pt 16.8368 27.9359 38.6774
Au 22.1869 42.5337 38.7966
Au 27.0908 3.27032 34.3462
Au 7.29744 40.8144 17.8405
Pt 28.8532 11.3204 19.505
Pt 23.8872 33.7922 13.9816
Au 44.7067 30.1664 14.6199
Pt 27.8679 22.2291 17.7139
Au 22.4401 3.65921 37.2777
Pt 28.2351 21.5969 24.7514
Pt 12.3495 41.4901 26.1036
Pt 15.0309 35.3644 29.3802
Pt 28.7061 21.078 37.7175
Pt 24.6574 26.5817 16.6081
Pt 21.0681 9.48208 14.9646
Au 7.08345 13.2281 24.8643
Pt 3.78342 28.9165 20.2652
Au 40.2929 25.3914 27.2444
Pt 29.8695 20.7971 32.3252
Pt 16.8973 46.8019 22.3418
Pt 33.0733 33.5106 21.1472
Pt 27.1681 22.7743 14.888
Au 32.5112 8.23251 17.0101
Pt 32.1156 14.7235 20.9414
Pt 8.06411 34.3964 29.5469
Pt 27.943 19.2614 18.3874
Pt 23.6544 17.9683 36.351
Pt 27.3571 31.2386 29.2575
Pt 18.7705 29.6735 29.4581
Pt 27.9287 38.8168 19.0039
Pt 15.8794 21.6447 37.2723
Pt 14.4183 42.9423 21.1431
Pt 14.0123 20.9257 15.0337
Pt 16.0142 9.8259 20.7295
Pt 4.19815 26.613 19.0581
Au 43.3178 13.1257 17.1726
Au 27.1804 45.3395 34.7488
Au 39.0563 23.7099 44.6155
Pt 15.0293 27.2886 17.8115
Pt 29.3455 22.4408 10.5515
Au 28.3949 43.6057 11.086
Au 33.457 24.7443 20.8301
Pt 27.4057 25.4193 13.5993
Pt 18.7108 24.7637 31.2125
Pt 14.367 19.3463 28.7695
Au 43.5288 15.6112 37.7946
Pt 31.8148 28.1626 25.8374
Pt 13.3613 30.2676 41.6047
Pt 13.999 24.0009 28.3525
Pt 21.9485 33.2397 41.9217
Pt 29.2985 28.2535 26.6565
Pt 23.9083 38.1258 17.7775
Pt 21.7014 14.0503 8.44363
Pt 7.23928 23.9764 37.4581
Au 28.3043 22.6756 7.87605
Au 36.7233 16.4879 37.1513
Pt 31.3453 11.7521 32.1143
Pt 18.5622 29.1051 15.3459
Au 25.2517 41.6517 5.71026
Pt 28.2403 18.4056 38.3017
Pt 21.3796 25.2205 39.5224
Au 12.0807 32.9399 8.66429
Pt 22.5776 41.6152 20.5422
Au 5.60151 20.2252 15.8367
Pt 20.2667 9.75384 39.3082
Au 4.93862 31.1518 36.5049
Au 6.36859 18.8208 20.4196
Pt 15.2637 13.6786 16.5996
Pt 14.8065 15.9557 27.2708
Au 40.0705 39.3331 36.1784
Pt 26.0919 24.786 32.2401
Pt 23.5358 15.6396 12.2253
Pt 14.5105 34.8319 39.9602
Pt 20.6267 40.3618 14.4633
Au 20.8425 15.1031 6.05249
Pt 11.2739 22.6463 28.08
Pt 31.5769 20.7615 34.4813
Pt 15.7582 34.2277 35.5576
Pt 29.9324 14.7718 22.4147
Au 28.1872 24.3913 45.1
Pt 14.315 30.8049 21.2819
Pt 29.0885 36.9589 36.8324
Au 35.6165 12.8571 34.0848
Pt 31.2451 25.2206 19.4534
Au 15.1324 45.5086 31.5896
Pt 35.2363 29.5476 11.3898
Pt 10.4412 35.3834 37.4902
Pt 15.0561 19.6667 11.4786
Pt 13.1939 22.1618 24.1932
Pt 20.6687 18.899 19.6845
Pt 16.1161 21.0527 30.5884
Pt 29.9456 44.0931 25.4964
Au 34.6759 27.0671 41.6756
Pt 28.9708 36.5755 26.3017
Au 33.8176 34.2941 39.512
Pt 33.7726 32.0584 37.9647
Pt 27.9702 15.7382 14.8924
Au 8.01658 19.0339 16.6351
Pt 13.1899 19.4378 25.2249
Pt 16.4293 22.5266 15.3935
Au 19.9881 15.6151 23.3402
Pt 24.6051 37.165 41.3871
Pt 14.8443 39.3578 34.4448
Pt 24.3636 37.0787 29.0368
Pt 19.5537 24.3352 8.80625
Au 7.69208 16.4292 15.9486
Au 14.2406 9.53906 37.4648
Pt 6.75065 23.0613 23.4785
Pt 13.893 14.1074 28.9212
Pt 22.6086 7.17917 31.9872
Pt 15.2497 38.4 38.7016
Au 45.9048 40.3647 22.9399
Pt 17.3232 20.255 40.6243
Au 34.6333 15.4656 22.2039
Pt 23.6337 8.64601 36.411
Pt 16.5255 31.3975 8.69192
Au 33.1266 23.0659 34.1276
Au 33.8574 45.4122 27.6851
Au 36.4247 26.211 23.2689
Pt 21.1383 15.125 11.0721
Pt 13.3675 27.0613 34.794
Pt 17.4206 23.7657 19.313
Au 33.6521 15.5151 44.7364
Pt 22.0822 26.5513 17.8431
Au 38.2167 30.5871 28.7155
Pt 18.3324 20.6937 14.9953
Au 32.0872 28.074 40.9923
Au 46.0317 26.783 26.6174
Pt 33.867 40.4282 29.8841
Au 2.67643 22.2081 32.2498
Au 20.6254 13.9106 16.5773
Au 37.0076 38.6142 17.9205
Au 9.13107 8.84827 32.903
Au 2.58569 25.9267 32.6891
Pt 32.1411 27.354 15.1565
Pt 11.7866 15.3896 33.8525
Au 46.1605 14.0245 23.6941
Pt 14.2159 17.8283 7.42831
Au 16.3709 4.80964 23.0416
Pt 9.70406 26.784 40.2924
Pt 31.003 35.9343 27.8039
Au 10.251 25.3896 42.613
Pt 15.9096 38.4082 21.9432
Au 15.0405 18.9314 41.4508
Pt 21.4845 16.397 18.6896
Au 41.6557 33.1782 11.0873
Au 23.7154 44.7689 13.4524
Pt 26.6757 15.951 19.4978
Au 30.2411 14.3731 6.05628
Au 40.2884 20.1301 21.55
Au 41.4503 23.9742 34.4716
Pt 34.4679 35.0997 37.0828
Pt 9.95936 39.1734 30.4223
Pt 24.3039 40.1941 24.6568
Au 44.1408 19.5136 19.5413
Pt 27.6845 44.3828 24.2141
Pt 22.6327 21.6009 12.2679
Au 7.27022 21.8798 39.1073
Au 5.31033 15.1932 25.966
Pt 8.36947 27.7684 17.7823
Pt 25.5034 44.2928 26.289
Au 11.2861 27.9387 42.2888
Pt 30.2051 26.0105 39.9545
Pt 17.3661 39.9092 23.8936
Pt 13.0948 25.0394 17.1566
Au 14.1798 9.73393 18.6559
Pt 12.5184 14.7893 23.8543
Au 17.6251 4.88146 15.4599
Au 14.9561 27.5733 45.1641
Au 30.3392 34.9206 7.81839
Pt 23.4246 25.2414 22.0484
Pt 26.097 42.6283 17.4938
Pt 22.8029 26.1265 14.6085
Au 43.3926 13.6888 19.8235
Au 38.6342 35.7214 30.4569
Au 45.4147 32.1464 30.4598
Au 28.4136 30.9225 2.39059
Au 21.8962 3.06764 20.4642
Au 21.9575 47.9514 25.2187
Au 34.716 8.35646 31.7973
Pt 8.93005 29.833 20.0208
Au 27.7662 31.5394 35.3051
Pt 23.67 13.418 16.3259
Au 20.2295 14.3337 45.4649
Pt 29.5439 29.3399 36.3575
Au 1.82331 20.4106 23.059
Au 20.269 34.6395 33.9132
Pt 15.2825 35.7051 10.1608
Au 32.7582 48.7431 21.631
Au 28.4741 5.54721 16.2572
Au 25.5381 49.5174 22.819
Pt 23.7588 11.1156 28.1615
Pt 29.0704 23.3964 20.2758
Au 14.8969 28.3969 4.04795
Pt 20.0076 8.71618 17.1834
Au 11.2131 7.60874 34.1987
Pt 9.33366 25.3989 33.1485
Pt 30.3802 23.3646 24.5224
Au 6.68348 30.7888 39.9736
Au 31.6801 2.49344 27.409
Pt 20.4089 41.3595 18.4318
Pt 12.8337 34.7298 10.5737
Pt 11.091 33.9532 28.1102
Pt 19.2657 29.7298 22.4043
Au 14.931 4.63639 29.088
Au 33.1213 38.8473 7.45009
Au 48.4494 18.4241 24.2171
Pt 16.3808 16.1152 16.6546
Au 46.1775 26.9846 22.0565
Pt 32.7952 20.6221 40.3872
Au 36.5525 10.1551 40.5617
Au 29.654 2.72787 32.8527
Au 43.5185 26.5725 23.1853
Pt 27.1305 29.1166 6.05167
Pt 18.1374 11.6186 35.4636
Au 37.1201 17.012 11.0371
Pt 22.9631 31.3741 32.6538
Au 40.1762 5.72614 23.8141
Pt 28.4658 32.0016 17.9856
Au 37.7418 15.1984 42.0247
Au 22.8178 23.5307 5.52789
Au 14.99 22.3775 7.4187
Pt 24.7381 37.184 10.4834
Au 31.6587 2.91985 19.9543
Pt 28.5716 41.8457 24.8886
Au 3.67169 16.9431 27.1662
Pt 27.2926 10.8122 24.2439
Au 43.1377 20.2408 22.207
Au 34.6317 21.3843 14.333
Pt 19.0421 42.0738 35.5739
Au 34.0801 40.3013 14.1274
Au 45.265 38.3079 24.6938
Pt 13.8214 37.9175 36.4161
Pt 14.8881 32.0643 33.0261
Pt 22.1246 24.5448 8.14071
Pt 27.4352 27.5912 36.4194
Au 34.2061 12.4888 44.0856
Au 12.8299 8.77294 16.2945
Pt 29.3074 31.5169 37.9784
Au 22.9542 18.0781 45.6691
Pt 28.5098 24.2881 35.361
Pt 32.8997 37.5144 14.1375
Pt 10.6789 13.4591 17.8393
Pt 9.5527 25.9384 19.4614
Au 17.4753 30.0116 6.24036
Pt 11.3688 16.9578 24.7039
Pt 29.3226 30.2575 7.41505
Pt 12.7124 16.1807 37.4746
Au 45.3246 33.5134 35.609
Pt 21.5054 35.8966 41.8898
Au 12.5457 36.7913 6.73649
Pt 28.6912 5.14326 33.2242
Au 39.7021 21.6872 33.2489
Pt 25.5755 33.1495 18.8283
Au 46.2183 19.5305 37.1399
Au 11.8453 13.0541 14.8196
Au 3.19665 24.3731 20.2839
Pt 8.11836 27.635 21.1056
Au 40.3189 17.3465 17.2806
Pt 27.1718 38.0852 11.372
Au 35.5781 42.9204 18.3101
Pt 15.3212 18.2914 18.4285
Au 36.5029 28.6176 21.6424
Au 34.32 24.1032 31.6852
Pt 14.9349 36.2777 20.3477
Au 36.3265 20.0056 43.6304
Au 38.2198 7.50648 23.4002
Au 18.69 21.8049 4.72189
Au 41.8766 37.0766 35.657
Au 38.1183 16.367 39.5476
Au 38.309 8.4448 17.5489
Au 26.4144 49.3032 25.3914
Pt 31.6684 39.9925 21.592
Au 38.9362 17.2407 8.94361
Pt 19.7457 9.32159 28.6462
Au 40.6045 8.2772 24.7302
Pt 25.3058 11.8675 9.67984
Au 30.6648 8.52726 42.1154
Au 44.8576 18.059 21.9385
Au 17.1061 35.3966 12.0306
Au 22.9312 9.78746 40.3282
Pt 22.8512 21.385 17.6955
Pt 10.1162 14.134 30.6275
Pt 17.8279 22.7311 21.6898
Pt 36.7248 10.5108 18.395
Pt 31.7545 12.8896 36.4494
Pt 24.3328 32.5716 4.362
Pt 32.639 19.8905 37.2058
Au 36.5188 44.6918 28.4315
Pt 14.3969 7.31825 31.2475
Au 12.3609 26.5107 44.348
Pt 6.34225 29.5484 24.7929
Au 45.3391 36.5081 20.0603
Au 40.4999 22.9908 37.062
Au 43.8171 25.0317 29.9467
Au 35.4564 12.8722 13.6413
Au 32.1963 5.82619 28.6532
Pt 7.58426 26.4534 38.3968
Pt 18.2792 24.5162 16.7393
Pt 26.5596 41.1396 19.9436
Au 40.0372 37.5984 38.3905
Au 43.9417 42.3369 23.356
Au 24.6378 44.8736 33.9424
Au 40.3722 35.6671 33.4006
Au 22.5747 41.554 6.21714
Pt 22.3558 21.5387 24.7418
Au 39.3361 14.8721 25.4714
Au 35.283 24.7151 38.2129
Pt 26.1617 28.9686 30.1039
Pt 21.2193 36.7489 23.0538
Au 35.8851 23.6059 19.2822
Pt 5.69268 24.1343 20.9868
Au 17.617 17.9872 45.4386
Pt 22.609 18.1395 27.6059
Pt 13.4825 33.4978 31.0178
Au 38.624 40.873 24.3515
Au 41.7291 35.1083 18.5962
Au 24.1634 20.5238 41.1364
Pt 13.4697 41.1642 32.8961
Pt 27.6159 33.8394 22.8206
Pt 30.9614 38.6209 38.2355
Pt 28.9123 25.1909 18.2394
Au 6.67158 12.8106 32.5554
Au 26.1878 34.7643 40.8299
Au 45.0626 12.2511 31.4821
Pt 10.88 32.7144 24.3382
Pt 16.0813 29.8147 33.3451
Pt 28.6315 26.0112 21.1091
Pt 14.5259 32.7824 15.3532
Au 11.8603 12.1316 30.0579
Au 35.4526 27.6184 32.1619
Pt 13.5071 21.611 29.6612
Au 22.7483 13.4384 44.705
Pt 28.2136 9.47421 26.5405
Au 40.8003 27.6237 15.7107
Pt 6.61845 22.2339 28.4735
Au 20.909 9.58099 42.1412
Pt 22.4874 35.6802 38.1754
Au 44.7842 25.9453 40.7762
Au 24.2545 42.2377 12.2721
Au 14.7677 5.11636 25.4353
Au 11.4356 17.8252 35.6235
Pt 23.873 36.8081 22.7636
Pt 17.0408 29.3096 24.9775
Au 38.5301 14.018 37.8832
Pt 16.5592 33.0866 37.933
Au 7.7016 8.86238 21.3453
Au 10.9722 36.5981 11.203
Au 39.4196 31.6935 10.1321
Au 15.9125 7.35874 37.3329
Pt 18.2175 43.3492 18.3883
Pt 23.7663 45.4295 28.3303
Au 30.9797 24.5775 11.4585
Pt 21.5643 11.3779 17.5534
Pt 31.7169 42.5809 21.1276
Au 29.9416 20.4983 47.6264
Pt 25.1038 17.0139 32.2831
Pt 15.2027 15.947 31.979
Au 35.2525 15.9555 15.6891
Au 4.54216 16.5766 21.4904
Au 33.1536 8.5379 26.1342
Pt 22.2005 32.7751 16.3262
Pt 26.5654 45.7875 28.288
Pt 20.1798 20.4627 17.1785
Pt 12.0519 29.2922 31.011
Au 23.6569 9.26943 43.1185
Pt 17.0247 26.9007 15.8709
Au 28.1634 45.1891 13.3125
Pt 11.1741 28.4071 11.0492
Au 33.6901 41.8038 34.8783
Pt 32.9796 22.9827 42.237
Pt 27.1716 8.80153 39.1301
Pt 20.195 21.197 13.2306
Pt 19.7752 35.9263 12.8044
Pt 21.5172 30.0276 28.4381
Pt 28.2185 30.7745 12.8251
Pt 5.13421 27.1944 24.2166
Au 3.15834 33.4101 23.0267
Au 34.1288 44.1108 20.7235
Au 13.7375 11.4113 16.1966
Pt 25.031 10.1395 21.2723
Au 39.8231 22.5649 13.4724
Pt 26.1037 24.484 27.583
Pt 24.4107 18.1216 11.9302
Pt 8.38215 30.1349 14.6309
Pt 25.9817 13.4411 40.8387
Pt 13.1947 38.8176 26.8509
Pt 23.2114 14.5394 42.1031
Pt 37.0925 8.49709 34.7351
Au 48.5625 23.9216 28.7086
Pt 16.1199 32.4565 17.6508
Pt 21.2331 34.4076 26.8751
Pt 22.8556 3.35841 29.7102
Pt 7.76401 30.9848 37.436
Au 39.4495 28.3989 29.759
Au 1.39802 31.0664 27.4426
Au 35.6831 30.7992 24.7532
Au 41.4058 26.8851 25.1606
Pt 24.6943 26.8067 23.8063
Au 36.3975 15.0834 29.9934
Pt 23.1237 34.5752 29.4075
Au 37.1152 31.547 45.519
Pt 26.6265 9.92336 18.9725
Pt 28.2769 15.0213 34.2929
Pt 20.7817 32.182 23.1642
Au 34.2775 43.5344 29.6499
Au 16.78 20.879 45.4784
Pt 27.7137 15.6119 10.3517
Au 27.9993 33.002 46.8965
Pt 26.9135 26.5342 34.006
Pt 43.6939 17.6821 17.5588
Pt 22.757 22.0421 7.76221
Pt 23.8105 25.0498 28.8021
Pt 7.86823 23.8359 14.3611
Pt 20.7215 38.7405 10.4024
Pt 11.4459 15.9908 29.1478
Pt 26.56 37.1462 17.352
Pt 23.5832 29.8764 4.01597
Pt 22.6303 10.4133 13.0454
Au 38.3058 6.01785 25.8168
Pt 18.7801 12.4467 26.4334
Pt 28.2088 24.7544 11.1805
Pt 17.8442 32.3267 28.7198
Au 18.7068 31.1607 3.89056
Pt 18.0951 9.32489 15.3248
Au 45.1488 41.0749 25.4351
Pt 31.4963 31.8891 26.7711
Pt 21.7632 14.6942 21.1733
Pt 36.4751 22.7155 39.4987
Pt 14.1347 37.9564 29.3422
Au 37.1034 42.5404 13.6937
Pt 16.9637 24.0294 8.9905
Pt 11.7083 12.5516 25.2128
Pt 21.0709 41.2971 28.9057
Pt 11.7013 10.9523 23.0219
Au 49.8903 30.1447 23.9041
Pt 13.8211 32.2737 35.3662
Pt 16.6052 20.7199 19.5668
Au 33.622 46.8041 19.8136
Au 31.362 15.953 46.2643
Pt 43.8238 20.12 24.8817
Pt 27.3722 35.5509 31.8945
Pt 31.1853 31.9634 19.7304
Pt 11.2215 20.2748 23.5694
Pt 30.4627 10.0687 21.4693
Pt 25.6045 12.8314 25.0481
Pt 20.0733 15.9435 31.5046
Au 39.1101 44.0469 27.7484
Pt 24.3253 25.7316 19.2726
Au 18.6944 19.6386 6.46702
Pt 15.607 8.63396 16.5907
Pt 28.1704 35.645 12.4862
Au 12.9006 7.10769 29.0569
Pt 34.0861 13.347 15.869
Au 35.7646 32.4446 6.2375
Pt 14.5528 20.6789 22.5022
Au 26.4643 7.10474 15.0839
Pt 28.9961 30.9657 27.2291
Pt 29.7796 34.0735 26.3432
Au 34.443 28.1236 24.8472
Au 35.3039 24.464 35.5008
Au 24.4424 11.2699 44.9654
Au 37.8908 26.5055 28.4698
Au 8.57843 9.16118 25.9504
Au 6.46774 36.134 16.8502
Au 6.93066 15.6191 20.7064
Au 19.5629 16.634 20.7575
Pt 26.4105 7.75981 20.5584
Pt 13.533 8.87287 33.3179
Pt 24.2214 46.2165 21.4978
Pt 32.9088 41.8818 27.9122
Pt 22.2745 40.8022 26.321
Au 13.2028 31.9508 43.9223
Pt 20.7697 20.7751 30.007
Pt 15.5467 9.75327 31.8504
Pt 5.42063 21.4939 32.8217
Pt 5.99586 26.6633 36.0926
Au 15.6161 28.7926 14.5371
Au 34.5668 47.832 26.7467
Pt 14.4761 38.7071 31.9988
Au 35.4763 15.0938 27.1084
Pt 15.3773 8.82601 29.249
Pt 28.5241 42.6527 29.7451
Au 31.0172 37.4139 5.75948
Pt 25.7184 17.5196 14.8784
Au 38.803 31.115 33.8121
Pt 18.8696 32.0967 7.91447
Au 42.4188 26.8556 13.2387
Au 0.785224 24.801 19.4172
Pt 27.8557 21.7999 28.0624
Pt 13.3332 21.8482 11.0839
Pt 20.0235 16.0711 8.62651
Au 44.5563 30.1675 32.2232
Pt 26.6918 32.884 32.786
Au 25.2997 28.0162 9.11077
Au 45.371 27.0868 13.5601
Au 37.5555 18.2453 6.23494
Pt 16.9213 16.4661 24.8809
Au 22.0844 27.8038 2.00459
Au 2.61774 20.4948 20.4536
Au 37.4215 19.4138 21.2672
Au 17.8102 42.8864 38.0042
Au 23.2599 15.9463 5.00003
Au 34.2437 40.4429 22.7
Pt 8.12041 29.6754 22.8303
Au 4.23639 27.2266 28.5118
Pt 18.2873 8.78334 21.4449
Au 31.5497 29.9249 5.65019
Pt 22.3762 10.6974 37.7652
Pt 14.6717 40.5122 25.1043
Pt 29.4702 21.5822 22.2568
Pt 19.8628 20.4215 25.0146
Pt 20.7851 27.6496 15.3185
Pt 21.1306 14.5779 33.6224
Pt 31.1708 27.0973 32.9966
Pt 15.7824 35.7863 23.0609
Pt 32.7681 33.7301 18.4584
Pt 27.2643 4.16716 20.9233
Au 36.8465 10.1826 32.5888
Pt 36.7842 39.4399 29.4999
Pt 27.5454 35.0909 7.93548
Pt 28.1705 14.5725 41.9782
Pt 19.33 26.9563 39.1214
Pt 26.8591 42.3649 13.0301
Pt 21.6528 33.8033 31.6388
Au 39.4546 37.0257 26.5587
Au 25.2473 13.7936 46.2514
Au 24.8913 4.09624 38.3702
Au 35.8498 22.4222 33.4129
Au 23.3354 21.0787 4.04743
Au 33.0453 29.1309 3.60664
Pt 23.933 15.7694 27.879
Pt 32.427 13.5157 18.2242
Pt 19.3613 8.26059 13.0559
Pt 12.0459 30.2597 24.6685
Au 18.6092 5.59012 12.9526
Au 37.0204 13.4482 15.8845
Pt 34.8536 34.5737 34.39
Au 38.4667 14.5518 11.653
Pt 20.6256 38.9759 27.1729
Au 26.3011 37.9421 8.37266
Pt 24.1807 17.1014 25.4056
Pt 24.6888 22.0232 15.877
Pt 30.4935 37.4881 22.7989
Au 14.2558 39.9506 12.5992
Pt 30.1972 12.2566 17.486
Pt 25.4822 39.8888 10.1034
Pt 26.4991 8.20703 23.1381
Au 40.8723 25.4747 43.6536
Au 22.7234 34.469 46.3132
Pt 21.6072 41.2203 12.0188
Au 36.9928 6.67707 19.1528
Pt 24.9468 15.2195 30.3269
Pt 7.08054 34.4923 24.5167
Au 15.0668 19.076 44.2194
Pt 31.3684 8.64379 28.6484
Au 18.0901 49.2889 21.9937
Pt 10.2326 29.6342 28.9053
Au 14.064 26.0321 5.13455
Au 7.39959 36.9457 34.0735
Au 44.702 12.4075 25.951
Au 41.0444 18.2019 29.5733
Au 10.3833 33.2749 41.6083
Au 17.4579 7.42309 11.2065
Au 4.96414 33.8405 36.147
Au 30.682 17.2597 25.3682
Pt 18.8436 33.2515 26.382
Au 42.644 32.0812 27.1999
Au 19.0318 8.94789 9.41857
Pt 24.1527 11.1394 15.1749
Pt 13.4775 32.4204 25.1229
Pt 21.7728 33.9575 11.9447
Au 20.2448 4.24121 15.5009
Au 13.6847 37.1166 12.0922
Au 36.2917 45.6033 20.0303
Au 45.8865 14.0426 33.3121
Au 37.0616 39.6946 13.6391
Au 46.4899 19.3506 14.7485
Au 37.0486 29.9976 6.21065
Au 14.2913 13.5792 10.8317
Pt 6.91309 34.6095 27.0571
Pt 32.4448 38.3683 11.4322
Au 7.08869 10.8678 23.1321
Au 45.195 15.1746 18.339
Pt 30.0742 44.1572 31.542
Au 36.8194 7.89083 39.1576
Au 42.1765 23.1265 15.7344
Au 38.7173 30.5397 25.4961
Pt 22.4462 13.9021 18.6039
Au 2.27542 32.3877 20.5785
Au 31.1736 29.5239 28.1434
Au 21.7608 45.8321 34.2612
Pt 23.3873 17.085 41.0543
Pt 5.32097 35.1922 22.6695
Au 35.3926 31.2902 28.8713
Au 44.3384 28.6784 40.249
Pt 11.0313 25.5069 35.1917
Pt 22.969 32.8442 44.2998
Pt 8.209 32.3298 16.1306
Au 17.4964 37.2148 6.33619
Pt 9.67767 37.2355 21.2524
Au 14.5891 42.2598 14.036
Au 2.64212 24.9115 17.4276
Au 39.8366 21.6034 30.3524
Pt 25.1701 26.9792 13.8977
Au 49.2733 30.055 20.9368
Au 47.6245 29.1314 22.9309
Au 9.65439 43.0754 22.2443
Pt 13.6356 38.8414 19.9722
Pt 34.7839 18.9309 41.614
Pt 25.6262 22.345 31.5669
Au 15.7429 32.4875 44.8435
Au 35.9187 38.9755 8.1327
Pt 26.2421 12.6568 13.9005
Au 28.3337 13.523 29.0104
Au 14.0145 14.2057 40.808
Au 8.1155 12.8072 35.0386
Au 11.6343 10.8974 17.999
Pt 26.6309 36.5279 5.99261
Au 35.5209 14.6527 11.586
Au 36.2299 11.4325 20.8406
Au 47.7881 30.7618 28.2917
Pt 23.2925 20.7377 34.1439
Au 44.9871 20.5996 39.4879
Au 44.5765 16.558 33.3094
Pt 29.6409 13.9345 31.3303
Pt 22.8231 33.3002 37.0164
Au 32.4046 19.4792 26.4501
Pt 32.3592 34.865 9.60036
Au 28.8403 4.46825 25.9056
Au 32.8515 23.399 23.1882
Au 16.0761 28.7683 8.58009
Au 24.706 1.36358 30.7308
Au 39.8143 16.6935 32.9317
Pt 19.2139 21.2556 19.6897
Pt 11.2634 12.5038 20.2507
Au 6.27674 17.221 30.2517
Pt 28.6158 41.2611 17.8557
Pt 25.519 15.6903 42.1104
Pt 8.27663 9.41879 28.5768
Pt 15.5487 36.7431 26.9458
Pt 19.2291 16.1669 43.7651
Au 31.9307 36.4007 45.6341
Pt 26.8151 15.7777 28.5708
Au 22.9552 11.4807 7.83867
Au 21.2652 17.8739 5.71555
Pt 27.4464 19.0389 35.677
Pt 28.5229 32.256 15.3324
Au 6.83573 17.5704 35.186
Pt 18.2897 11.4273 20.7829
Au 5.03474 19.7505 34.9427
Pt 21.1768 36.9358 18.0577
Pt 16.9473 34.3258 21.2505
Pt 18.6539 29.5028 32.345
Pt 14.6301 42.7796 26.6511
Au 19.0375 45.2772 13.3634
Au 7.89974 41.0119 27.2341
Au 26.7075 33.0125 3.01252
Au 12.1951 42.1935 36.7881
Au 25.8763 44.6511 11.9197
Au 38.8705 46.202 19.4268
Pt 9.3019 18.1919 23.8272
Pt 14.0834 17.6738 13.0085
Au 33.1031 32.8606 42.7104
Pt 10.7062 18.9257 17.0782
Au 39.1644 24.2588 29.6231
Au 43.6459 20.1131 37.0161
Au 19.42 36.6513 43.702
Au 32.584 24.6566 29.4025
Au 30.1727 49.7945 21.2889
Pt 17.8305 19.6817 43.2738
Au 6.97419 32.7532 31.4868
Au 28.4768 22.0291 43.3588
Au 33.4269 16.7889 42.3237
Pt 22.5163 37.9846 15.516
Pt 17.309 12.8764 37.6808
Au 41.1677 11.5394 31.7926
Pt 29.9956 11.3869 41.4995
Au 44.1973 15.3998 15.8578
Pt 26.0459 42.3174 24.3823
Pt 10.2665 28.555 15.7463
Au 48.927 19.1375 26.871
Pt 7.44884 27.6553 15.1506
Au 27.5358 28.2965 2.42316
Pt 26.8329 22.5043 36.6362
Au 15.562 38.4325 10.4456
Au 4.02632 32.6042 34.0249
Au 34.1012 4.55711 34.8342
Au 26.0098 17.1086 4.08972
Pt 11.1251 30.3665 12.9162
Au 41.4103 10.1798 36.8221
Pt 34.9462 43.0887 26.7622
Au 32.3222 22.1423 28.4729
Au 26.1273 22.4623 45.0196
Pt 21.7683 29.7086 23.7439
Au 44.1178 25.2486 11.7933
Pt 32.4564 43.7506 25.8117
Pt 20.2278 23.2931 6.42067
Au 7.69244 6.28554 25.4954
Au 17.1093 46.2074 15.0581
Au 42.6546 29.3671 23.5545
Pt 26.8435 25.5349 9.03416
Au 35.2945 12.9583 18.1824
Au 6.20664 40.5198 20.2474
Au 11.2432 42.1196 17.2374
Au 44.5275 11.9949 34.672
Au 38.1773 29.2987 44.444
Pt 20.3142 34.4934 37.0588
Au 15.844 41.2652 39.5212
Pt 13.5495 36.6424 24.9947
Au 39.8129 34.4293 9.44862
Au 46.9551 29.1942 33.0858
Au 32.7013 47.6431 28.9862
Pt 34.1286 32.4793 26.5402
Au 41.8191 16.0837 26.235
Pt 16.7928 28.5538 35.727
Pt 19.3518 11.9955 29.1352
Pt 18.8272 31.2271 17.1219
Pt 30.1622 34.5985 16.3179
Pt 27.6504 20.4379 9.81137
Pt 11.3939 22.8593 36.3558
Au 12.954 24.2023 7.02446
Pt 10.1995 16.0516 17.2064
Au 10.5318 10.8427 27.81
Au 34.9664 13.0084 9.31356
Pt 33.4949 43.3025 23.2519
Au 27.0737 10.0533 14.3662
Pt 28.1648 38.7626 38.5701
Au 21.0975 22.5825 3.66985
Au 35.7344 10.3088 30.0047
Au 28.6291 20.2984 2.98892
Pt 15.8753 21.2794 42.6619
Au 38.0326 37.636 21.4669
Au 6.31542 27.9541 40.3869
Pt 16.4381 24.9739 14.0755
Au 24.6315 35.001 2.74981
Au 28.8901 2.38069 19.7557
Au 38.3946 24.3633 22.4254
Au 43.8231 21.556 17.4742
Pt 25.9277 31.8008 23.9375
Au 36.411 39.9588 39.1664
Au 17.6096 3.97763 29.7265
Pt 26.742 26.6603 18.4857
Pt 15.5777 42.7385 18.697
Pt 11.9681 9.92173 20.6312
Au 47.0471 37.1861 26.7109
Pt 26.218 16.6246 35.2732
Au 17.9253 5.54572 36.8439
Pt 17.401 27.9136 21.331
Au 35.833 42.6942 36.3967
Au 1.55983 29.4646 25.2253
Au 18.4083 41.4309 30.5527
Pt 15.5159 18.1411 33.3076
Pt 4.69249 24.0528 32.6393
Pt 7.92746 36.3959 23.0052
Pt 31.2641 39.5405 31.3168
Pt 13.9048 20.4239 19.8745
Pt 21.6483 16.0188 35.9073
Au 42.5482 37.5185 19.5356
Pt 18.5496 22.2073 30.2731
Au 25.8054 33.767 44.5575
Pt 29.5519 32.2524 32.8794
Pt 21.8739 12.1275 32.7572
Pt 24.661 29.4124 23.3695
Pt 14.2334 28.4816 29.2371
Pt 21.5224 20.7748 27.2427
Au 43.3349 16.7877 29.0742
Pt 31.3947 37.2871 32.9437
Au 37.7847 37.7545 40.212
Pt 18.4199 39.9525 28.3284
Pt 14.4697 12.9601 13.9144
Pt 19.6204 42.681 13.9534
Au 34.3438 6.2195 26.8849
Pt 30.8197 21.2029 42.1571
Au 40.9128 27.9053 37.3392
Pt 30.8308 41.4498 26.2442
Au 37.8645 35.8067 38.1763
Au 5.10159 15.0848 31.6417
Au 45.2071 23.8377 16.5859
Au 48.8362 19.4609 29.5019
Au 6.20582 38.7872 26.9786
Pt 29.1234 16.3572 29.6542
Au 31.2247 20.5335 44.9401
Pt 16.8181 33.4296 13.9455
Pt 23.511 42.8256 24.516
Au 46.5672 33.7178 23.7302
Au 44.2543 39.3283 18.4697
Au 2.10056 27.1684 30.2315
Au 13.1055 20.6751 42.6917
Pt 24.6239 15.3394 39.4809
Pt 26.7757 34.1015 14.4403
Pt 16.5199 36.7787 31.4698
Au 38.33 38.1566 31.8787
Pt 10.4851 16.5076 31.7148
Pt 24.9584 37.6247 34.3727
Pt 14.0969 24.3298 12.4647
Pt 9.00638 30.4954 35.1893
Au 10.647 20.2584 41.1143
Au 5.71291 12.6554 30.0276
Pt 21.61 31.7303 4.11172
Pt 32.2384 21.8342 31.7494
Au 29.1263 42.829 14.3603
Au 44.1232 38.2824 15.7789
Pt 21.1748 18.1165 30.004
Au 29.5018 18.067 46.3376
Au 26.2362 12.1101 16.752
Pt 17.5482 15.3912 37.9321
Pt 23.0637 23.2698 40.3245
Pt 22.4348 40.5016 16.4278
Pt 33.3673 37.7306 36.986
Pt 21.3639 30.3788 20.9079
Pt 32.5911 22.0886 25.6662
Pt 26.2803 16.2438 12.5954
Pt 16.2218 15.6469 29.4455
Au 38.3545 18.2555 18.9067
Au 2.06315 28.6705 32.4848
Pt 8.52589 28.8756 39.0368
Pt 24.784 6.59624 27.3235
Pt 28.5564 16.0974 24.2385
Pt 17.3126 38.261 33.71
Pt 22.5126 20.5729 36.7532
Pt 23.8645 23.3346 33.5778
Pt 27.4474 29.1059 10.7947
Pt 29.8571 27.3441 16.7506
Pt 32.321 29.1418 11.1282
Pt 16.3314 31.4502 35.6016
Pt 36.1411 37.0481 30.7314
Au 24.6292 14.2304 8.06536
Pt 12.2402 21.885 21.5614
Pt 21.9675 21.7098 42.2511
Pt 30.5338 5.10263 23.588
Au 40.5596 28.4227 12.0599
Pt 25.5787 20.4403 18.2907
Au 32.1157 5.63714 38.9577
Pt 20.5379 8.09623 30.7723
Pt 25.0218 13.9529 18.6887
Pt 26.2549 26.298 45.4692
Au 17.6283 28.676 3.62561
Pt 24.1279 20.3414 26.8651
Au 5.0632 26.8151 13.4349
Pt 25.2151 19.7769 31.5676
Au 49.1688 25.0144 19.4996
Au 31.6065 45.7409 17.6215
Pt 31.5816 11.985 20.1973
Pt 29.9419 25.7494 26.0484
Pt 17.6831 22.5078 39.058
Au 37.2319 16.8286 25.7972
Au 33.4871 22.5713 36.8624
Au 40.9709 25.1767 11.3703
Au 38.3725 12.0815 40.0168
Au 50.697 24.4078 27.1231
Au 11.7853 15.0751 10.3735
Au 24.9626 24.0044 7.63166
Au 21.0988 40.1568 40.3789
Pt 26.0241 39.9042 17.6516
Pt 27.2491 16.2657 40.0159
Au 40.9048 25.4362 22.7851
Pt 30.7486 7.47788 21.9325
Au 48.201 35.6507 28.5735
Au 43.743 22.5788 33.3152
Au 35.5451 10.9798 15.858
Au 42.4187 19.5228 39.7294
Pt 29.5471 16.1636 38.7242
Pt 13.8203 12.4826 23.3234
Pt 31.3329 18.6228 7.34719
Pt 5.3969 19.6427 30.9013
Au 38.9247 8.49018 29.9594
Pt 18.0026 13.8462 23.9568
Au 34.9935 25.0054 5.99415
Pt 30.7639 19.095 39.1741
Au 24.2714 8.60597 14.2778
Pt 15.3057 23.754 26.0124
Pt 13.8691 41.9708 16.572
Au 35.2458 21.4592 41.3817
Au 6.21729 8.17031 26.9074
Au 14.2473 26.437 14.8458
Pt 29.6064 39.1189 25.8712
Pt 14.7868 29.991 17.0603
Au 33.2313 4.48286 32.1271
Pt 7.86239 25.9621 30.9772
Au 29.3959 33.4129 3.53232
Pt 13.0635 36.1248 27.502
Pt 16.4798 24.3163 11.4797
Pt 24.9826 44.8743 23.7131
Au 8.11348 6.61183 28.1308
Pt 12.2361 35.9883 20.5864
Au 37.5658 24.114 27.2096
Au 22.0643 8.47166 9.3886
Au 37.8827 26.4566 31.1691
Au 30.1951 41.6914 11.803
Au 38.4114 11.0088 16.3067
Au 30.9771 31.2334 3.35568
Au 21.1655 20.7533 5.76402
Pt 6.66223 27.9476 29.3889
Pt 34.1406 29.6177 36.3766
Pt 17.2376 26.4796 19.0866
Pt 15.6247 18.6342 21.1493
Pt 22.2783 34.9637 9.11942
Au 26.1237 46.6979 32.4343
Au 23.4575 44.0687 10.4043
Pt 20.2568 22.5771 40.0154
Pt 30.5181 24.4428 22.1906
Pt 22.2339 15.5465 29.8541
Au 39.5682 25.5096 17.0677
Au 42.3526 37.3318 22.5612
Au 22.2813 46.6513 16.9368
Au 46.3006 19.1565 25.6284
Pt 22.2437 34.6787 19.1472
Au 31.7763 8.14205 14.2669
Au 19.1946 3.50907 27.3992
Pt 22.5127 17.3251 21.0283
Au 32.434 21.5816 47.385
Pt 11.4986 35.2407 32.554
Pt 16.5224 41.9812 16.3021
Au 22.9801 4.47672 15.655
Pt 9.69471 22.3311 22.7476
Au 38.3191 24.7565 12.5723
Au 35.4276 38.5873 20.4217
Pt 22.1716 8.64601 23.8541
Pt 36.8462 32.9076 33.8821
Pt 23.4464 32.2181 39.8547
Au 37.8716 27.3912 33.9649
Pt 36.8802 25.5268 8.10876
Pt 12.6131 37.3902 33.9367
Pt 17.5251 16.8977 27.3238
Au 48.0734 16.9044 30.1299
Au 36.0119 22.6837 16.4398
Au 43.7089 27.7828 15.6383
Au 22.6024 2.69407 23.0283
Au 40.349 22.9737 42.3255
Pt 29.1201 33.268 12.8538
Au 16.5961 40.7919 11.2531
Au 37.2792 36.9163 13.3997
Au 37.1844 21.6836 28.5696
Au 19.5598 29.7279 45.3293
Au 19.2702 38.0331 41.1677
Pt 25.8574 33.0346 8.84984
Pt 4.23822 28.952 17.6158
Pt 21.8707 36.7037 27.8332
Au 30.4746 23.0198 48.7013
Au 11.7303 21.0234 31.8537
Au 33.1058 37.6143 43.4575
Au 35.3578 46.953 29.3615
Au 36.2778 34.1128 12.6796
Pt 13.5074 42.6897 23.8789
Pt 19.1922 15.1409 25.9467
Pt 18.5812 31.3347 24.4196
Pt 7.65436 26.1347 12.9005
Pt 16.3413 31.9951 20.1788