3871
Atoms. Timestep: 20972
Au 7.223 9.65877 23.5539
Pt 26.0456 12.0794 20.6821
Pt 23.0403 13.7625 32.3851
Pt 21.1485 16.603 42.7481
Pt 16.6064 14.2965 17.4334
Pt 19.5742 8.70113 30.557
Au 26.4938 2.23195 17.6121
Pt 13.3909 13.341 38.7998
Pt 11.7386 8.66746 22.8807
Pt 19.4326 15.6959 40.9513
Au 5.72149 25.4418 23.909
Pt 4.40675 31.4112 30.2167
Au 1.2816 23.9113 24.6478
Pt 26.0059 16.2182 34.7859
Pt 12.2449 18.2026 24.2334
Pt 16.5716 14.1688 27.343
Pt 22.806 9.69639 34.8581
Au 5.13618 15.2319 35.0033
Pt 14.5439 9.02203 31.3473
Au 10.156 10.095 36.8834
Pt 8.90944 15.6197 29.5846
Au 4.71108 33.9613 31.2067
Pt 19.8219 13.1758 21.6569
Au 2.50337 19.8228 30.4246
Pt 9.62017 17.6685 27.7474
Au 7.20084 22.4457 36.3231
Pt 7.52225 17.3871 20.3205
Pt 21.7243 3.29085 25.9773
Pt 4.68366 20.7569 16.7933
Pt 14.2154 13.4131 25.7403
Pt 5.49769 22.2925 21.1858
Au 24.0504 3.4524 16.5586
Pt 9.19353 22.8221 29.1733
Pt 15.1581 11.411 14.0981
Pt 4.86516 23.3991 17.0742
Au 8.50958 11.1335 32.8725
Pt 11.2 15.4455 31.1311
Au 15.0212 11.1047 37.6821
Pt 11.902 12.4461 24.7614
Au 5.7872 11.0432 25.8246
Pt 6.31074 23.388 33.0033
Pt 9.49345 33.5798 12.7456
Pt 10.1033 20.3808 12.4821
Au 3.70907 33.2852 20.554
Pt 17.0927 14.8398 35.949
Pt 9.66924 18.0357 36.0345
Pt 20.4116 14.4056 31.1022
Au 3.30267 30.7736 19.3392
Pt 13.3105 15.7217 25.1031
Au 3.10179 16.4726 21.2739
Pt 15.6727 21.8375 9.6429
Pt 9.66047 14.1862 24.6405
Pt 14.5704 20.2048 14.3997
Au 2.70276 20.0198 27.6061
Pt 7.52114 15.661 34.0296
Pt 4.91374 33.4657 28.5023
Pt 14.6019 21.6991 25.7633
Au 4.47148 30.0693 16.8631
Au 16.6419 33.0684 6.35235
Pt 10.436 26.6279 19.226
Au 4.98751 12.8947 30.4842
Pt 6.44768 23.0069 28.3043
Pt 12.2429 32.8161 28.1181
Pt 5.99668 18.6488 25.2901
Pt 8.74345 15.4246 22.3278
Pt 6.74835 14.2468 28.7458
Pt 11.4975 11.4398 18.148
Au 7.45832 16.1606 17.8517
Au 2.19375 25.9163 23.0301
Pt 13.3095 13.8561 22.9603
Au 17.8691 22.0891 34.8467
Pt 12.4188 13.7282 29.5701
Pt 11.3328 22.9762 26.9481
Pt 15.5364 15.0028 40.2582
Au 2.88621 22.3776 31.5051
Au 16.6234 17.9263 44.3772
Au 10.1889 8.5734 32.2949
Pt 13.6304 18.478 33.7867
Pt 12.2403 21.4461 39.414
Au 9.82708 22.3236 40.3919
Au 5.98997 10.8648 31.8885
Pt 17.3631 26.0304 9.18847
Au 5.21387 19.9168 13.978
Pt 16.8812 28.5155 9.70984
Pt 12.3368 27.7849 8.48398
Pt 5.02837 18.9625 30.3611
Pt 23.5165 10.5042 14.4426
Au 6.35677 38.7499 20.0448
Pt 17.5886 9.73389 18.5806
Au 12.9705 4.02619 22.9133
Pt 11.4864 13.9551 35.1732
Pt 7.91775 12.1776 24.6496
Pt 18.4525 11.2947 16.505
Pt 13.2241 32.3704 35.8098
Au 7.05835 16.6617 36.6573
Pt 7.3985 20.8616 25.0687
Pt 11.031 37.7977 23.2726
Pt 9.46213 15.4837 36.0813
Pt 24.273 40.0767 30.7263
Pt 11.4088 24.2757 29.8555
Pt 9.9911 21.3312 24.9292
Au 32.6724 24.9735 19.384
Pt 3.40631 20.6449 21.9971
Pt 13.4307 21.1509 33.5486
Pt 10.635 22.516 31.7274
Pt 14.8411 24.0872 39.7561
Pt 11.5968 30.8799 29.9169
Pt 5.39242 21.2734 31.6226
Au 2.02035 23.3268 21.8465
Pt 23.2624 20.11 36.6527
Au 31.5738 22.2714 25.5266
Pt 12.9187 34.9828 37.0837
Au 8.01803 40.8665 20.5161
Au 11.3461 29.5071 42.5369
Pt 12.0307 25.3091 35.8444
Pt 15.6678 27.4926 34.5462
Pt 20.2091 11.2293 38.3357
Pt 14.1868 15.2747 27.8214
Pt 22.938 31.9518 42.0538
Au 26.6455 42.1189 44.7793
Au 1.59165 21.4444 19.8912
Pt 10.9029 16.4564 25.8278
Pt 7.8354 29.3563 14.1274
Pt 13.6767 36.0006 18.1195
Pt 12.3248 11.1235 22.4952
Pt 10.6311 22.752 17.14
Au 4.29502 27.5327 22.5726
Au 8.2276 28.2459 9.80418
Au 13.0732 21.7547 44.1392
Pt 4.16412 22.7378 23.6435
Pt 11.6599 34.4425 14.2228
Pt 5.85519 20.4736 22.9923
Pt 5.53468 16.1666 24.7402
Pt 7.15497 18.1045 22.94
Pt 13.3022 41.6665 24.1843
Pt 9.67989 27.9494 21.4137
Pt 12.9601 18.8793 39.0239
Pt 7.63907 29.7706 20.8189
Pt 6.98059 27.5417 22.1079
Pt 5.61244 29.2872 31.7204
Au 2.07567 28.692 23.7431
Pt 8.71865 22.7775 33.843
Pt 6.569 32.3429 23.914
Pt 14.7578 21.5021 38.5337
Au 1.0889 23.9543 19.2244
Au 11.5328 20.8523 42.1549
Pt 15.8742 27.9517 37.4939
Pt 12.8564 34.4675 25.9172
Pt 13.7126 18.8229 36.5723
Au 2.43777 29.0766 27.0463
Au 6.7524 28.6877 35.9908
Pt 18.5969 16.9704 36.4138
Au 17.1415 37.0721 45.3333
Pt 11.6655 32.8655 33.7389
Pt 6.2193 25.8185 31.9883
Pt 15.216 26.7857 40.0808
Pt 12.1688 28.0489 29.6741
Pt 17.7878 27.6764 39.3591
Pt 19.2969 33.8074 32.5178
Pt 12.3536 37.5565 37.1787
Pt 13.457 36.8971 26.6286
Pt 28.5759 7.67743 31.5961
Pt 19.0227 37.9616 19.1915
Au 8.34417 20.404 10.3424
Au 6.89087 40.9911 27.6661
Pt 13.3185 9.35423 17.7402
Pt 8.06487 26.5918 14.2502
Au 7.82478 11.3242 35.5952
Pt 8.81896 21.1624 18.3469
Pt 6.40014 24.2208 19.1184
Au 6.4222 37.6767 17.4834
Pt 7.97516 27.027 27.9176
Pt 5.26931 26.5804 20.1661
Pt 7.22258 37.0125 25.4873
Au 4.38859 13.5059 24.9303
Au 2.62423 25.1585 17.3133
Au 1.90429 27.6643 29.7449
Pt 13.4904 6.71883 22.3922
Pt 4.97873 33.0472 25.9109
Au 3.8011 18.4141 15.9357
Pt 11.1172 17.1635 38.1199
Au 14.5252 39.0757 41.8831
Pt 8.58392 20.3933 22.6984
Pt 17.446 21.1309 37.409
Pt 16.9498 32.0254 29.0148
Pt 19.593 40.6736 29.0594
Pt 9.9323 26.4861 29.9288
Pt 16.4335 16.6227 29.8815
Au 4.13806 21.9775 33.9824
Pt 3.98417 23.9651 28.1326
Au 4.04279 19.3846 32.9434
Pt 13.0669 15.494 33.324
Pt 4.58054 31.6617 32.8444
Pt 17.4622 39.4048 25.1195
Pt 8.75554 32.6234 34.3275
Au 8.01357 36.4561 36.3425
Pt 18.1984 30.1258 40.5429
Pt 15.0209 29.0578 43.6159
Pt 13.6784 36.1988 24.1345
Pt 9.73896 30.8816 17.425
Pt 3.30814 26.5873 27.7228
Pt 6.50393 33.6005 33.2709
Pt 10.3333 29.7855 14.929
Pt 10.8538 22.3035 14.2578
Pt 8.4927 36.3138 23.1793
Pt 12.2815 34.6035 20.0594
Pt 10.1803 33.4796 21.4396
Pt 6.30629 30.3543 25.6349
Au 4.54683 29.2824 34.2324
Au 5.27127 30.0655 14.1369
Au 4.98677 24.7083 12.8343
Pt 11.5146 14.6448 37.6967
Pt 7.61406 34.0631 26.272
Au 18.589 35.0574 6.51748
Au 6.63028 20.7385 34.1361
Pt 7.11518 27.9889 33.4567
Pt 7.20618 33.9315 29.7172
Pt 18.9742 37.5149 42.8942
Au 20.3597 34.8 48.0376
Pt 14.5427 27.3999 30.6871
Pt 15.0812 37.6164 22.1193
Pt 17.4927 31.6565 33.6401
Pt 10.1669 40.292 18.9236
Pt 10.5451 22.4939 37.4662
Pt 23.6372 28.0182 39.2731
Pt 19.8806 17.8349 33.6966
Pt 12.6955 22.4322 21.7151
Au 2.36128 28.5093 20.9198
Au 15.4352 46.3642 22.944
Pt 10.4934 33.4978 26.0153
Pt 14.0616 16.49 22.6649
Au 6.17011 38.4097 32.4376
Pt 10.2282 30.6284 20.2256
Pt 8.27032 32.2863 19.8836
Au 12.6377 39.7021 12.4556
Pt 8.66775 29.1511 23.6832
Au 15.3961 24.9087 47.4119
Pt 11.8146 34.7125 11.5225
Au 5.30379 24.0748 35.3547
Au 19.5649 40.2559 42.4416
Pt 4.23979 28.8131 29.5136
Pt 14.8022 30.3489 34.2669
Au 14.8966 44.7201 20.8509
Pt 23.294 34.2413 43.6581
Pt 10.613 24.9101 33.633
Pt 17.4768 38.7634 22.1257
Pt 9.45153 28.0057 12.3807
Au 4.10775 27.7191 25.2806
Pt 21.2286 29.0656 7.9579
Pt 6.22557 35.0027 24.1253
Pt 22.4523 46.5684 30.62
Pt 12.7196 42.9024 31.5391
Au 10.8124 41.1348 35.4528
Pt 13.4715 28.0822 35.8727
Pt 20.2341 39.9638 11.8973
Au 26.4434 47.6005 27.9315
Pt 7.57982 26.2699 11.6005
Au 4.23711 32.9049 17.8803
Pt 17.7893 40.3334 19.6851
Pt 25.6993 45.3074 32.8503
Pt 21.8632 39.401 25.6481
Pt 20.8619 11.4561 26.1376
Pt 15.6293 8.06994 17.7034
Pt 7.58846 14.6623 20.0745
Pt 16.0312 15.5172 25.1383
Au 11.6444 6.3005 30.8168
Pt 11.9127 11.439 28.2667
Au 26.5323 1.06393 20.2058
Pt 20.5739 6.91791 28.8537
Pt 9.97111 12.103 26.4424
Au 8.84388 15.1757 38.6164
Pt 14.6244 18.7411 12.1553
Pt 6.75753 14.133 26.0961
Au 5.80892 10.6549 29.0575
Pt 23.4745 6.97044 33.5401
Pt 22.7079 10.1793 24.7008
Pt 9.15709 13.7771 31.7206
Pt 8.17086 12.6718 21.8863
Au 15.4307 9.49044 12.2684
Au 5.60336 11.7752 23.0288
Pt 14.0026 8.73731 24.4701
Pt 11.3417 15.7743 23.1807
Pt 7.58901 18.0112 29.5993
Pt 13.1816 25.3908 10.6446
Au 28.8093 12.3268 24.9796
Pt 11.7277 16.2568 28.5779
Au 30.6771 15.5719 25.4062
Pt 13.9577 20.0774 41.1092
Pt 7.92521 25.7676 17.1552
Au 33.5358 24.0512 24.6834
Au 29.5861 20.0164 26.7776
Au 36.5832 23.0322 20.8958
Pt 13.1506 23.5322 37.6325
Pt 13.1265 11.4754 30.6947
Pt 17.5424 17.3424 40.0875
Au 19.7534 1.72756 25.0124
Pt 5.11957 18.4444 27.8266
Au 30.1589 4.48329 34.45
Pt 9.52328 10.3378 28.5779
Au 23.8075 19.9263 29.9334
Au 5.01606 15.4067 19.4833
Pt 11.5247 31.9821 13.1301
Au 3.26252 17.7233 25.8223
Au 7.73778 37.7173 12.7563
Au 10.1468 9.12279 18.7255
Au 5.11515 26.0733 17.5511
Au 3.46357 17.5381 18.5814
Pt 13.9899 7.74621 26.9044
Pt 9.10426 24.0778 18.8257
Au 17.0449 21.2481 31.1227
Pt 17.9676 6.89842 18.2303
Au 15.4607 23.5888 18.6127
Pt 7.03009 16.6197 27.2872
Pt 13.6194 10.6707 26.3519
Au 12.831 5.10972 20.2767
Pt 13.96 7.6354 19.8706
Au 15.73 18.9118 21.9631
Pt 10.8082 27.762 27.4892
Au 19.0911 20.4938 32.8553
Au 22.5341 22.81 19.1333
Pt 7.66856 19.3217 27.1776
Au 15.7371 12.0998 40.1159
Au 19.5193 29.358 22.1777
Au 14.6098 27.4158 20.6765
Pt 17.1832 10.6098 21.3305
Pt 5.74976 25.6227 27.1017
Pt 9.23039 20.7921 35.6148
Au 24.2683 25.2742 38.3521
Pt 11.1102 29.0032 31.9232
Pt 22.0921 9.02408 29.7473
Au 10.3587 13.2786 12.9183
Au 12.7502 15.6911 40.4297
Pt 25.0088 25.2566 43.3016
Pt 16.0999 23.0975 13.9615
Au 0.654262 21.9074 26.4792
Pt 12.1568 28.745 20.0323
Pt 9.23099 22.7352 11.7493
Pt 15.0051 18.0545 24.6521
Au 7.07336 10.4056 20.9775
Pt 10.1584 16.0944 17.6781
Au 2.05705 18.862 20.4565
Au 16.1144 17.2025 27.2233
Au 21.1059 27.3093 20.8738
Pt 10.7171 13.328 22.3914
Pt 6.84952 29.8579 29.2969
Pt 11.317 20.2348 22.7714
Au 12.8029 25.858 28.0495
Au 16.5381 22.0953 28.1265
Au 17.5667 21.8724 18.7774
Au 15.5622 24.7533 16.0729
Au 14.1751 24.5802 20.8427
Au 27.0092 22.6564 18.9957
Au 19.9646 28.2467 26.062
Pt 9.37155 27.0847 32.5534
Au 18.4056 24.2935 27.7512
Pt 12.0525 17.8211 21.5257
Au 27.7068 23.8193 34.9624
Pt 18.2789 11.7883 23.6182
Au 28.5821 32.4874 26.8979
Au 18.4984 18.3749 22.4762
Pt 9.91535 20.5709 27.551
Au 22.4953 21.3413 24.286
Au 31.9131 19.6781 30.7319
Au 22.8862 35.436 22.8019
Pt 11.9948 26.319 31.7382
Pt 16.0527 19.3619 38.9853
Au 16.4349 32.1999 46.8308
Pt 15.5918 29.4559 39.9708
Au 8.73868 26.8895 38.533
Pt 30.8671 12.8879 23.2831
Pt 25.2678 10.3746 36.4653
Au 14.0055 19.0859 43.7171
Au 8.47364 9.83534 25.9625
Pt 13.8427 33.1131 11.9737
Pt 11.7636 24.621 23.0831
Pt 19.5149 27.9914 9.73596
Pt 14.2658 27.9165 13.5161
Au 12.0524 4.56085 25.4723
Au 20.2963 1.55424 27.8097
Au 21.7595 29.5271 10.8172
Pt 8.4276 22.6874 26.6692
Au 25.4869 30.6266 8.63488
Pt 12.9842 33.0763 9.4461
Au 32.5528 18.9999 36.1403
Au 8.34912 25.4914 9.17597
Au 23.7319 29.6822 29.5434
Pt 7.72647 25.3715 34.0655
Pt 9.72346 36.1865 25.663
Au 24.8052 24.8645 35.3689
Pt 7.48073 24.9927 29.5041
Au 37.3613 31.0457 26.7489
Pt 17.3171 13.4567 21.3745
Au 15.9439 25.6415 32.1962
Au 30.7334 24.1789 4.80756
Au 16.4503 28.7138 32.3819
Pt 5.12529 26.3286 29.607
Au 29.321 36.0124 32.3949
Pt 14.7286 30.2794 37.0447
Au 21.4887 31.2348 30.7999
Pt 12.36 10.2164 32.88
Au 22.8636 37.213 27.2131
Au 21.7626 34.0355 30.303
Pt 13.2772 17.8269 26.7196
Au 25.9549 34.7925 35.8954
Au 35.5134 23.0079 34.7686
Pt 14.1778 17.7882 29.1426
Pt 11.9492 23.9986 40.0196
Pt 9.49303 20.2797 30.1931
Pt 19.1193 31.316 43.1296
Au 9.27848 24.3513 35.9894
Au 19.8278 8.90744 39.554
Pt 8.88708 24.5936 31.6178
Au 8.21971 23.8666 38.5038
Pt 20.2849 16.5125 38.3392
Pt 23.1173 20.5326 43.5075
Pt 12.3891 31.9804 20.8998
Pt 10.8859 36.0693 18.3741
Au 6.44555 36.6068 14.7798
Pt 9.79542 24.9083 21.2367
Pt 8.29981 21.8507 14.3556
Pt 7.70953 34.2092 14.9342
Au 4.94441 36.2567 19.2614
Pt 6.18455 24.9787 15.2975
Au 21.8401 14.858 20.1843
Pt 8.91959 31.93 14.9145
Au 4.69964 12.8023 27.6779
Pt 15.5369 40.2009 15.6275
Au 17.6224 18.3439 31.7009
Au 28.198 30.0985 8.28805
Au 22.2423 24.6644 21.2505
Pt 5.08282 29.2342 20.584
Au 24.4974 36.7237 34.0912
Pt 10.2315 31.436 32.2932
Au 31.6629 34.9121 33.3102
Pt 6.96347 20.6513 29.2859
Au 30.4325 33.0041 34.87
Au 25.2298 33.4653 26.7665
Pt 17.7769 41.3176 22.3253
Au 23.3589 32.1068 28.5277
Au 32.0288 22.1639 32.3974
Au 34.597 25.9372 35.2637
Au 23.5051 34.8593 28.4054
Au 25.3661 35.1787 38.7031
Au 22.2739 33.4624 32.8008
Au 39.3784 25.3863 40.2786
Pt 18.2246 20.067 40.5748
Au 28.794 21.8318 39.228
Pt 22.4822 25.1383 44.6832
Au 13.9713 9.97506 35.259
Pt 13.6094 22.6644 41.6622
Au 17.1591 29.5781 35.4559
Au 9.60194 12.7984 37.1294
Au 11.5707 8.61801 35.0307
Au 7.44657 31.3931 36.5155
Pt 11.4787 26.9018 40.027
Pt 17.5767 33.4025 42.6918
Pt 19.5425 21.8532 39.0775
Pt 11.8451 24.7332 14.6255
Pt 7.59276 22.9442 16.7462
Pt 3.5971 24.9456 25.4672
Pt 5.71442 22.3882 14.74
Au 3.35503 30.7251 22.1385
Pt 7.2811 30.3069 16.5586
Au 24.8811 37.809 29.1378
Pt 11.7964 29.1718 12.8899
Au 18.6992 17.7306 28.4312
Au 20.0057 24.5767 12.3076
Au 21.7946 14.6207 22.9857
Au 23.8555 18.8581 16.9724
Au 30.2355 29.4571 3.87711
Pt 9.39614 35.5681 30.1764
Pt 4.39866 18.121 23.194
Pt 9.35664 27.2812 25.5152
Au 23.9784 36.0614 19.9436
Au 2.16802 32.117 31.9011
Au 18.2141 25.6203 17.1931
Au 22.4545 16.9819 15.5197
Au 11.0996 11.4802 39.01
Pt 7.20959 31.9466 27.7234
Au 35.9581 25.252 32.8815
Au 18.891 33.7654 29.9303
Pt 17.5893 43.2118 29.4765
Pt 12.7414 38.4441 28.5497
Au 16.4405 31.5349 23.2761
Pt 13.8012 38.0849 19.8273
Au 19.2261 22.5244 29.6767
Pt 14.6823 39.2809 36.941
Pt 19.3062 36.103 33.8641
Au 37.177 27.1156 45.0918
Au 10.1679 16.6051 40.5257
Au 22.0084 36.9676 48.1106
Pt 7.5776 37.8564 30.0941
Pt 16.9461 27.742 44.8446
Pt 18.4533 12.5505 35.1392
Pt 17.2225 23.0669 39.2812
Au 19.8967 36.8695 46.149
Au 7.09222 19.4238 36.5835
Au 14.5385 16.5557 42.6675
Pt 22.3135 29.0846 46.112
Pt 10.819 25.5608 16.9684
Pt 7.87927 26.5632 19.7347
Pt 10.3 17.8849 30.4173
Au 3.89091 26.3608 14.9472
Au 1.11215 19.4075 25.5684
Pt 8.85573 33.8419 23.9883
Au 6.7702 23.8182 10.6638
Pt 17.9574 34.2152 16.7672
Au 4.88653 35.4715 21.8845
Pt 8.72843 31.4841 22.5111
Au 14.4525 35.2923 10.0668
Pt 8.56355 38.6798 27.1154
Au 19.2359 32.0132 23.7004
Au 1.98984 30.4963 29.3596
Au 12.9131 7.46622 32.8729
Au 2.99512 35.869 29.7627
Pt 8.72967 38.5274 21.6322
Pt 3.72922 23.3036 19.4689
Au 10.2332 41.8991 32.807
Pt 7.45845 27.5613 30.5331
Au 18.1638 26.999 23.7749
Au 2.83498 34.7128 27.1797
Au 6.5789 39.8006 25.1696
Au 9.28777 30.774 41.4732
Pt 3.1784 22.3901 26.1896
Pt 13.3599 34.2511 31.8304
Au 10.2476 31.6506 36.1508
Pt 18.4994 41.386 34.6358
Pt 23.7825 39.9248 23.7097
Au 5.97259 38.3714 27.7663
Pt 13.2447 25.5222 41.6119
Pt 14.3128 35.9161 41.462
Au 11.2402 23.6487 42.642
Au 17.9188 34.8397 46.896
Au 9.26305 31.5672 38.9336
Pt 30.1485 45.2026 31.4845
Pt 11.7996 24.2441 19.438
Pt 12.5897 21.1906 16.2781
Pt 5.67136 28.2935 27.3948
Au 10.6961 15.8162 11.951
Pt 18.6367 22.5422 13.3595
Au 14.3794 28.7601 17.7995
Pt 10.9226 29.7314 25.3117
Au 4.2932 36.4561 32.2086
Pt 18.3711 33.0052 13.259
Pt 24.0011 40.3289 18.2206
Pt 5.44806 35.5733 26.8134
Pt 11.2053 27.5088 23.6171
Pt 5.6673 36.0132 29.4358
Pt 13.3163 38.8064 24.7294
Pt 15.316 38.9107 26.4633
Au 10.1268 38.6288 13.6762
Au 18.8502 28.1751 30.9871
Au 13.9979 4.79926 30.4674
Pt 14.9312 30.7247 27.7992
Au 4.58991 30.8127 27.6352
Pt 14.8226 33.2065 27.351
Pt 18.692 19.5285 35.3446
Pt 22.0439 44.3608 37.6047
Pt 20.2854 28.5948 39.506
Pt 11.3283 42.3885 26.0972
Pt 6.94984 30.726 33.8498
Pt 13.673 25.9044 33.762
Au 16.9744 45.8761 29.1338
Pt 13.1593 33.9693 22.6192
Pt 9.79622 25.0496 27.614
Pt 27.0027 25.4324 10.9378
Pt 10.62 33.0351 18.6899
Au 18.8917 37.6243 7.92549
Au 9.95786 36.7547 11.5207
Au 10.3343 25.7599 7.38406
Au 20.7109 34.4079 16.5647
Pt 16.7208 32.1001 15.6578
Au 12.2486 44.3751 20.4754
Pt 16.5462 33.6921 31.6889
Au 10.3619 44.9153 27.2514
Pt 25.7455 41.4582 24.6444
Pt 26.0013 41.8147 20.0113
Pt 12.532 29.8371 27.6013
Au 20.3941 33.7829 25.5848
Au 3.80216 24.5517 32.9387
Pt 20.3503 38.1299 28.1035
Au 9.01918 42.6835 27.9951
Pt 16.872 25.4743 38.2576
Pt 6.10602 31.1006 18.8212
Pt 19.486 40.0568 26.5489
Pt 25.4788 42.5609 17.4225
Pt 18.6075 43.9569 18.3997
Pt 17.7891 30.3161 11.3047
Pt 15.532 34.7918 36.1009
Pt 22.1821 43.8696 31.5467
Pt 27.9751 5.3291 24.807
Pt 14.2481 6.05142 24.8877
Au 7.39757 8.73013 28.1472
Pt 10.8592 17.9993 33.1156
Pt 19.2665 7.24807 25.2298
Pt 25.7322 5.44505 23.3448
Au 39.5957 7.72344 16.4908
Pt 10.7476 11.3625 34.5722
Au 22.5843 10.2211 7.83491
Pt 19.7462 3.66138 22.6242
Pt 28.5779 8.28162 28.6658
Pt 11.5836 19.6728 34.935
Pt 30.4439 8.51635 22.5314
Au 31.1039 6.9622 10.5548
Pt 22.9806 4.51037 30.0429
Pt 13.7149 7.24385 29.4459
Pt 13.0619 31.3113 32.1646
Pt 14.753 17.4812 40.2067
Au 16.557 4.88002 25.9266
Pt 21.1801 11.9865 23.5316
Pt 18.4082 10.0933 26.0307
Au 3.4732 16.9393 33.9075
Au 19.3598 13.7443 43.0188
Pt 5.82027 17.1338 32.2231
Pt 21.8824 7.62408 24.4343
Pt 25.8018 17.0305 10.149
Pt 18.4826 5.76964 20.7251
Pt 9.01465 13.3717 34.3403
Pt 27.874 7.55629 23.2442
Pt 16.5935 9.74233 23.9738
Au 10.6164 10.7754 14.1992
Pt 19.2393 12.5961 13.9979
Au 14.2456 15.2924 18.3399
Pt 30.6734 5.56394 26.4063
Pt 14.542 9.36779 21.9554
Au 24.2763 2.70291 19.3366
Pt 22.018 7.30444 20.3169
Au 33.0253 14.465 24.1504
Pt 14.8873 12.0027 21.3239
Au 23.5374 30.1034 37.0217
Pt 5.80775 23.2286 25.6925
Pt 32.6498 6.55281 22.7051
Au 24.7589 29.3572 20.0065
Au 30.4388 24.6116 33.0566
Au 16.4705 19.8463 26.3617
Au 19.3996 19.8582 30.1817
Au 23.6296 12.9903 24.4825
Au 12.2679 18.0718 41.7543
Au 5.76487 12.745 20.3532
Au 17.4178 5.71583 33.3232
Pt 19.075 15.1266 34.0595
Pt 14.8778 16.7309 35.3561
Pt 12.8175 23.7001 32.5087
Pt 19.7933 9.90628 33.9328
Pt 9.83213 23.9932 24.7872
Au 10.2871 19.4049 40.257
Pt 8.13419 19.3094 13.8324
Pt 7.48607 24.0559 13.2171
Pt 18.336 26.5022 11.576
Pt 12.0174 19.8632 14.1277
Au 2.62347 25.9161 20.1064
Au 13.0133 9.391 13.7309
Pt 7.3523 22.995 23.4966
Au 7.68107 40.0785 17.8531
Pt 13.6855 19.8041 9.78214
Pt 16.2282 18.2033 15.0701
Au 21.8513 19.38 11.0019
Pt 24.5186 9.67752 28.9009
Au 26.6232 15.2307 21.9588
Pt 10.3953 11.2345 30.9572
Au 30.1412 37.1741 27.5838
Au 27.9894 15.8118 14.5999
Pt 17.7107 15.2903 31.8617
Pt 17.7695 8.57819 16.0048
Pt 10.158 11.2106 20.6607
Au 29.9683 22.9437 7.20738
Pt 5.85897 31.8769 21.3913
Au 21.9703 21.9416 28.9325
Au 22.9105 28.0408 25.4815
Au 4.27472 14.8094 32.3563
Pt 16.8682 9.05774 29.7296
Au 24.4129 30.1697 11.1345
Au 12.3903 30.7926 18.3045
Au 12.742 9.3754 37.6057
Au 8.96589 9.125 34.6284
Au 20.8788 26.4259 32.5363
Au 31.0795 29.556 34.808
Pt 18.4241 12.722 30.3382
Au 14.4737 26.9384 45.8125
Pt 11.287 22.4788 34.641
Au 27.0901 14.1168 28.6665
Pt 15.792 23.7808 42.5527
Pt 18.1673 10.6052 31.7863
Pt 23.987 11.1242 22.4902
Pt 18.8469 19.0314 38.1725
Pt 10.256 15.606 33.5736
Pt 9.76868 10.8408 23.3601
Pt 7.16094 19.9847 20.4589
Pt 11.2576 9.87761 25.3227
Pt 11.3642 28.3326 17.3384
Pt 7.06428 24.7938 21.607
Au 34.7865 29.6288 5.33321
Pt 11.5466 25.7405 25.6251
Pt 10.0225 13.8437 19.8894
Pt 19.7749 10.4864 21.6094
Pt 19.209 13.7609 16.517
Pt 15.1088 10.143 19.4592
Pt 8.82011 28.0848 16.384
Au 26.5549 26.0627 8.29179
Au 23.6569 37.8282 17.1868
Au 35.9412 35.2665 32.2891
Au 25.2618 32.7017 10.327
Au 19.8509 24.6606 15.0868
Au 14.5475 17.4117 20.071
Pt 18.5002 8.137 27.7969
Pt 6.79994 14.7662 31.383
Pt 18.3518 8.26953 22.5491
Pt 9.15375 13.7432 17.3424
Au 27.2831 34.2168 25.0224
Au 30.9121 16.1929 14.5929
Pt 8.5161 16.7964 31.9069
Au 20.4267 22.6764 26.3761
Pt 22.8916 24.3494 33.3944
Au 14.1892 20.332 28.1099
Pt 16.9718 12.8099 32.7482
Pt 5.37341 20.9057 26.8571
Pt 13.8859 23.4564 35.009
Au 16.7202 16.2072 22.5844
Pt 21.5857 14.0085 41.5393
Pt 20.3945 33.9658 35.1436
Pt 8.22162 18.3573 34.0378
Au 22.6135 27.257 28.3136
Au 4.39476 15.5084 27.1497
Pt 22.8208 15.8169 37.4372
Au 13.5821 13.306 41.3959
Pt 20.2712 18.3896 40.3813
Pt 16.0474 21.5519 40.8842
Au 7.99435 9.4312 30.728
Pt 7.77207 25.1363 25.723
Au 11.8473 30.7026 8.2589
Pt 13.0482 11.014 15.8921
Au 9.38041 10.8667 16.6602
Au 6.02109 27.9018 15.7198
Au 16.3142 25.7227 22.1938
Au 31.8998 8.99483 9.02685
Au 11.3011 8.8503 16.0516
Au 16.7198 7.47985 13.6095
Au 26.9352 19.3586 9.17622
Au 28.9847 29.1416 13.1171
Pt 11.2521 18.2291 16.2849
Au 29.7328 34.1452 17.612
Au 19.5237 31.1019 26.3167
Pt 9.93435 34.1568 16.3446
Pt 13.5186 35.1161 28.8248
Pt 5.20017 23.7315 30.5851
Au 24.7444 20.6202 15.1361
Au 17.7743 23.0545 16.1549
Au 27.2784 21.3336 7.22958
Au 24.1981 15.3238 28.1609
Au 26.4004 35.1558 6.69164
Au 26.1393 23.7634 6.40554
Au 16.2654 37.1362 24.4772
Au 13.794 23.0613 28.1398
Pt 14.2438 32.6218 29.949
Pt 8.76632 26.0349 23.3388
Au 9.16692 29.3108 37.3032
Au 26.6157 32.6683 39.3813
Pt 3.73787 20.228 24.7798
Au 20.1708 16.6175 24.0706
Au 3.14527 17.1496 31.2703
Au 24.5483 33.6436 21.3945
Pt 9.634 20.4003 32.9778
Au 28.2849 21.5479 36.3491
Au 21.1463 15.7265 28.1544
Au 31.6494 31.6159 32.8653
Pt 20.9476 18.671 36.5385
Pt 11.8343 19.0611 28.6758
Au 34.2303 34.3958 27.9688
Au 13.9476 43.0537 38.101
Pt 23.4145 27.6376 43.8639
Pt 19.9489 14.9052 8.63038
Pt 16.9613 28.1323 13.1548
Au 6.15268 17.5781 14.8571
Pt 15.2989 29.5455 11.635
Au 25.7911 35.7087 23.2444
Au 17.9611 23.3403 4.61745
Au 19.8083 20.0098 13.0786
Pt 12.3967 9.78361 20.2238
Au 34.908 33.0645 23.3887
Au 20.8672 18.6247 17.1725
Au 15.4855 21.8524 21.0362
Pt 13.1126 22.6917 9.64197
Pt 18.2767 36.9636 26.3821
Pt 7.25318 36.3581 20.6682
Au 23.2909 21.3719 12.5618
Au 14.1194 22.0287 30.7091
Pt 10.5968 34.3203 35.6708
Au 19.3465 34.7559 19.2012
Au 19.053 25.3901 30.5712
Au 24.767 23.9811 8.92321
Au 21.5047 18.5901 29.1403
Pt 19.8685 34.0474 37.9934
Au 29.3545 39.6277 29.0233
Au 20.4419 27.5176 35.1376
Au 29.9486 35.0604 29.9081
Pt 19.8976 45.7561 29.9435
Au 25.996 24.6339 30.5304
Au 17.7412 26.6951 26.6588
Pt 16.3275 38.3474 30.8527
Pt 13.5753 28.5179 32.8542
Au 21.9285 27.6141 48.7091
Pt 8.82347 33.6304 31.8704
Au 29.1375 24.0318 37.5319
Au 18.2181 25.9297 46.359
Au 26.2512 31.4763 28.1726
Au 8.44187 20.9659 38.4416
Au 33.5191 28.5165 35.7263
Pt 11.541 32.0042 40.9224
Pt 20.7474 26.9168 43.8083
Au 40.6414 25.3566 42.8092
Pt 18.6524 23.7318 37.0601
Pt 13.8852 30.8943 41.9595
Pt 5.83 16.0742 21.9453
Pt 14.6819 25.5793 6.452
Pt 22.5134 20.0193 19.5469
Au 25.9976 46.0427 15.8113
Pt 12.7442 25.0791 8.13608
Au 8.67327 22.7207 8.99608
Au 11.9638 18.5096 11.5672
Pt 4.36418 24.6422 21.733
Pt 10.7581 29.3427 10.3835
Au 19.1088 14.2331 19.1575
Pt 8.83227 37.811 18.9603
Au 18.5087 31.1384 5.58196
Pt 5.7865 17.9972 34.6499
Pt 14.9181 30.2195 25.212
Pt 9.42776 33.7096 28.3114
Pt 12.2693 38.4446 17.801
Au 17.2878 20.6423 14.6914
Au 17.6924 22.4186 25.6188
Au 25.024 26.1886 13.009
Au 16.945 26.6853 29.4533
Au 26.3954 26.3037 5.29446
Au 33.935 33.3672 33.0697
Pt 23.6225 34.0562 46.2786
Pt 25.363 38.5447 19.5919
Au 24.1311 31.2189 32.1767
Pt 20.0085 40.3004 36.9537
Au 26.6499 28.1954 10.0348
Au 14.195 39.8595 10.1207
Au 18.7259 15.6485 26.4527
Au 32.6363 23.5795 27.8737
Au 20.6806 32.5265 28.2417
Pt 21.342 44.244 26.408
Au 25.0962 26.769 41.0656
Au 24.9833 33.9285 33.2946
Au 37.1951 18.615 34.1336
Pt 9.57713 37.403 31.9571
Pt 10.6746 25.0944 38.1128
Au 34.7337 43.1143 38.9861
Pt 16.5269 30.8736 42.474
Au 26.4818 11.8966 43.4932
Pt 27.4705 33.0755 42.3585
Pt 17.4085 30.3102 44.8989
Au 11.0179 22.894 7.59526
Pt 18.9662 35.3259 14.5001
Au 23.8792 19.158 8.94047
Pt 19.5285 37.5674 13.191
Au 14.0997 44.1231 13.7673
Au 9.06952 43.4946 25.1928
Au 2.28545 22.4136 17.2461
Au 12.2822 24.2094 5.53811
Pt 9.60004 18.8045 25.2484
Au 16.4127 36.3534 7.4926
Pt 16.1152 31.8271 12.9416
Au 2.38067 32.0688 26.9278
Au 3.49995 28.0533 18.4565
Pt 9.97204 35.9956 21.0109
Au 20.2273 34.655 22.9191
Pt 10.588 26.7257 10.2524
Pt 6.29252 21.6122 18.629
Au 9.24276 28.0423 41.0277
Au 10.0229 42.7208 20.6305
Au 28.5864 17.2827 10.1648
Pt 8.5055 34.9292 18.8083
Au 29.3421 41.2311 45.0407
Au 2.82689 29.5659 31.8768
Au 25.2657 32.3215 16.2467
Au 13.9519 20.3644 23.4831
Au 20.9033 30.2049 35.8668
Pt 15.3365 16.9772 32.3952
Au 16.6403 19.3882 29.1289
Pt 15.1494 32.8345 21.3063
Au 16.4111 27.474 47.7033
Au 16.4367 37.6434 40.4969
Au 23.7781 22.3934 38.3154
Pt 25.492 31.5002 41.6439
Au 12.2575 43.379 28.4545
Pt 20.5543 45.6222 32.5087
Pt 19.4194 24.5161 39.7868
Pt 21.8675 32.4054 37.2375
Pt 31.0667 39.4496 38.7508
Pt 23.6397 15.4315 42.3616
Pt 17.2811 17.1734 34.1753
Au 9.93154 38.7536 36.5267
Pt 23.7706 36.6053 42.8726
Au 14.8731 27.8948 4.74736
Au 9.60076 41.781 16.7396
Pt 16.1234 42.3856 14.0503
Au 12.3929 20.5442 7.52594
Pt 16.6661 46.2009 26.4349
Au 5.98233 34.9678 16.9676
Au 3.60377 35.382 24.685
Au 12.5768 45.3592 30.2817
Pt 19.1861 36.7587 16.8957
Au 4.67501 37.7738 25.1749
Au 4.03124 34.1365 34.0256
Pt 9.83526 25.1926 12.5708
Au 21.5728 25.8661 5.78911
Au 21.5785 26.7683 11.2444
Au 13.6625 28.7455 22.9488
Au 31.2544 25.0956 16.4983
Pt 9.07551 40.9185 25.9331
Au 5.99798 36.3048 34.3487
Au 5.63979 32.3473 15.6493
Pt 16.757 43.7468 27.013
Pt 11.2172 27.5509 37.2405
Pt 15.5042 42.5569 22.7163
Au 12.2518 37.5144 41.8047
Pt 23.3216 42.3025 29.7692
Au 5.29736 34.3699 13.8802
Pt 11.0554 39.4729 30.9833
Au 16.011 34.4581 44.9142
Au 26.3121 29.9681 30.3964
Au 17.634 44.5776 22.3004
Pt 18.9425 38.4151 30.6175
Pt 8.79216 40.1688 29.4438
Pt 8.30529 37.9258 34.1379
Pt 19.8944 43.4773 38.9264
Pt 10.2055 31.1647 27.5538
Pt 13.4308 28.4535 38.6641
Au 25.0318 45.6732 40.8501
Pt 10.7155 32.2003 10.6084
Au 3.50739 37.3229 27.5881
Pt 21.5766 46.7326 27.8467
Pt 14.6983 23.4747 11.6784
Pt 16.7399 36.1563 18.232
Pt 11.7689 21.6268 29.277
Pt 11.2227 29.9566 22.5522
Au 24.9548 34.8614 12.0159
Pt 15.5158 40.0471 12.6464
Au 6.26418 37.9257 22.8812
Pt 19.7688 43.0249 22.9155
Pt 13.7687 30.8234 13.515
Pt 14.9177 40.151 18.2262
Au 11.6348 44.9013 25.0164
Pt 30.0273 41.0758 16.4781
Au 10.8984 42.918 23.2283
Pt 10.9081 40.4286 27.9214
Au 1.49078 26.7133 25.6368
Au 2.33659 33.2407 29.4829
Au 15.8672 44.5732 18.2371
Au 15.0545 46.5754 30.9791
Au 23.9881 18.4321 46.2115
Pt 18.8175 32.1142 36.1604
Au 1.80048 22.3616 28.9582
Pt 18.6483 32.7822 40.3069
Pt 14.7974 32.9755 33.6897
Au 17.0858 15.6194 42.4844
Au 6.95121 25.8559 36.6626
Au 4.98921 31.8335 35.4225
Au 11.4191 42.8647 18.3705
Pt 6.80707 27.7142 24.9656
Pt 29.8776 44.7364 18.1127
Pt 10.6239 40.4269 21.7656
Au 28.8341 48.6703 20.1432
Pt 10.6159 42.0206 30.164
Pt 19.8891 44.9313 20.5856
Pt 13.0201 39.4241 22.1991
Pt 25.7845 37.9932 31.7574
Au 13.4207 34.8211 44.0566
Au 9.19317 8.83318 21.498
Pt 20.0208 9.59898 24.1456
Pt 28.2862 11.0021 19.5214
Au 42.7742 9.95691 17.2322
Au 4.96623 16.0296 16.7973
Pt 12.1226 17.5224 18.8133
Au 19.407 8.18405 13.646
Au 16.5379 4.07633 31.417
Pt 16.6647 7.48966 25.5374
Pt 16.3836 18.8057 36.2765
Pt 30.1836 12.7841 30.3259
Pt 18.5779 12.8476 26.151
Pt 6.74801 14.2128 23.4619
Pt 15.7183 6.72219 31.1395
Pt 22.2719 6.78956 31.1696
Pt 21.7793 4.84692 23.8147
Au 14.0345 4.9697 27.4897
Au 5.69385 27.4794 13.0148
Pt 16.1403 16.7809 37.856
Pt 18.6359 5.48062 27.6239
Pt 7.73133 12.163 30.255
Pt 22.0695 12.0874 20.8959
Pt 28.4404 13.4182 20.9957
Pt 27.5624 11.1619 28.853
Pt 21.6088 15.9225 33.0066
Pt 31.5937 2.10027 25.6806
Pt 21.3518 6.01306 26.449
Pt 16.247 11.8071 25.7495
Pt 23.3737 17.918 43.5783
Au 24.1171 1.08683 21.633
Pt 22.1563 13.2334 37.4385
Pt 23.6047 12.3508 35.4558
Pt 20.2643 16.6318 10.7657
Au 11.6053 6.06906 27.9934
Pt 34.0377 3.12303 25.3608
Au 6.38921 13.617 17.7042
Pt 19.4645 11.5138 19.1891
Pt 14.3519 13.3771 31.9252
Pt 25.0877 11.0025 9.94257
Au 18.9014 4.46807 16.8811
Pt 14.1854 9.81165 28.836
Au 34.1044 -0.00704368 18.9821
Pt 10.0286 22.6233 22.5738
Au 15.3892 20.008 18.854
Au 15.0345 15.7973 15.5196
Pt 15.9226 21.1409 12.2284
Pt 19.4797 8.23652 20.0621
Pt 16.8714 12.2972 19.0704
Au 19.9156 22.8326 20.5617
Au 27.0637 16.7205 24.4544
Au 27.5076 29.9412 20.4319
Au 29.4431 26.0758 35.4294
Au 17.7514 28.2966 4.83529
Au 14.6934 3.28838 20.8376
Au 32.8381 23.3552 6.68181
Au 14.0723 24.8193 30.3282
Pt 12.0498 16.7389 35.5384
Pt 9.88933 13.1713 29.0276
Au 30.4463 22.2866 30.1286
Pt 14.0179 15.5181 30.5516
Au 23.7934 21.3781 33.3183
Au 37.7601 10.7823 36.0646
Au 26.3249 29.8983 36.5578
Au 26.9096 7.60997 39.991
Pt 25.4756 13.7475 33.2423
Pt 19.7495 26.2247 37.8008
Pt 27.7226 13.3803 31.2002
Pt 17.9018 12.5205 37.8937
Au 12.7366 27.4022 43.8833
Pt 21.8801 36.0238 33.3976
Au 17.8768 13.422 40.7712
Pt 26.1 14.3305 42.3652
Au 11.1897 7.24953 20.6129
Pt 16.2062 19.737 33.6312
Pt 10.7232 27.1749 14.7782
Au 28.9402 1.56063 19.075
Au 22.9529 8.30714 9.72457
Au 9.71602 7.68694 29.5103
Pt 21.9115 9.13923 12.7314
Pt 12.9138 29.2702 15.4567
Au 9.20697 18.0178 11.1821
Pt 7.86653 22.1417 31.3299
Au 34.4526 23.323 9.07357
Pt 13.0969 26.3901 18.5625
Pt 9.9799 16.5799 20.2626
Pt 20.871 4.13322 28.2969
Au 25.6297 36.0439 17.6924
Pt 13.133 21.111 12.0308
Au 29.3637 20.8208 16.4295
Au 18.7028 16.783 17.6376
Au 36.9996 19.1112 41.5912
Au 27.9676 19.8586 23.062
Au 36.5676 32.532 32.7599
Au 24.2555 16.003 23.3592
Au 32.3556 34.8463 18.3555
Pt 11.9552 20.1165 31.5571
Pt 24.069 11.2303 26.703
Pt 24.3136 8.81356 31.728
Pt 22.1807 21.9098 21.6433
Pt 42.021 26.0386 10.7992
Au 19.8994 17.0252 30.9354
Au 20.5734 17.8893 26.492
Pt 15.9278 13.4886 23.5306
Pt 20.8789 11.4537 35.8137
Pt 15.0667 10.9047 32.985
Au 20.3308 21.4491 36.4646
Au 25.8724 29.6991 17.416
Au 27.2765 38.0686 27.5988
Au 30.7523 14.9998 21.7492
Pt 26.6698 9.49398 27.0343
Au 16.8864 20.4619 45.6477
Au 31.7612 19.5531 18.6545
Pt 26.334 7.44786 25.3824
Au 20.8736 45.0076 40.8778
Pt 14.1528 31.4884 16.4269
Pt 18.1851 21.4971 10.8934
Au 6.62905 21.5067 12.1924
Pt 15.2421 9.06044 15.2094
Au 8.05993 16.4854 13.1513
Au 20.0044 23.1291 17.7338
Pt 12.7692 12.2608 13.5229
Pt 5.46002 16.3756 29.6416
Pt 9.12403 14.8275 27.1297
Au 27.3582 25.4339 18.039
Pt 5.0075 18.4381 20.7171
Pt 4.09984 20.5322 19.421
Pt 11.5845 31.9332 15.7672
Au 33.8283 21.0555 16.6451
Au 19.0153 20.539 27.5209
Au 13.8621 18.7846 16.8332
Au 40.5613 20.6386 11.334
Au 21.1116 23.8044 31.3721
Pt 9.85018 20.3443 15.9135
Au 16.7764 28.7831 19.3539
Au 22.3741 32.1156 15.8796
Au 28.0075 24.7548 20.7071
Au 24.1124 23.2361 22.9074
Au 34.1512 40.534 27.3204
Pt 24.7895 17.6513 37.1695
Pt 23.4048 11.2673 30.9941
Pt 29.264 21.9975 21.8015
Au 27.7728 37.3942 18.7018
Au 34.1406 27.7461 38.3959
Au 40.1616 30.3718 41.8174
Au 30.785 37.7162 30.7437
Au 26.7499 22.5993 22.023
Pt 14.0057 29.8941 30.1403
Pt 20.2675 13.7765 39.2796
Pt 14.807 25.6879 36.3181
Pt 13.4505 28.324 41.3671
Pt 17.2061 25.329 41.0354
Pt 15.6895 13.8776 37.9092