3871
Atoms. Timestep: 21153
Au 9.23254 9.90806 24.1843
Pt 32.0028 13.9141 22.1867
Pt 23.8346 15.1307 24.0573
Pt 11.358 24.5561 37.9936
Pt 9.11978 20.6789 28.5072
Pt 21.2843 27.0833 22.5557
Au 7.59326 13.4333 12.7565
Pt 14.2392 9.0549 18.3951
Pt 19.3907 14.4104 20.8935
Pt 17.7554 16.9357 26.7138
Au 20.5583 23.1139 46.902
Pt 22.2772 35.722 31.4996
Au 23.2448 47.2359 35.6859
Pt 18.4817 10.6501 32.7593
Pt 9.10704 20.2082 20.6385
Pt 30.4837 13.0512 27.1914
Pt 30.7981 24.8301 21.678
Au 9.17273 11.8614 29.1794
Pt 21.131 22.7541 28.6838
Au 13.7337 5.71602 27.2913
Pt 11.9865 20.1305 41.4559
Au 7.95623 38.0763 35.9892
Pt 23.405 15.4439 12.9176
Au 15.401 41.7624 40.7734
Pt 15.6185 12.3194 26.4038
Au 7.42068 11.256 22.5644
Pt 8.76028 32.847 15.6825
Pt 28.0343 7.53614 27.1119
Pt 19.1604 13.9152 23.6457
Pt 21.1261 15.4478 31.8463
Pt 16.7236 20.0095 13.4657
Au 9.85067 22.6368 8.39269
Pt 15.9259 28.1125 41.6697
Pt 11.5975 14.7717 21.046
Pt 15.7304 15.1615 11.0879
Au 8.46485 10.9689 14.1826
Pt 32.9597 14.1663 17.9176
Au 28.7503 36.8007 46.1324
Pt 16.0965 11.9077 29.2137
Au 9.64203 7.61797 25.4091
Pt 16.5459 14.6657 25.376
Pt 8.72734 37.0673 22.6916
Pt 7.24093 33.2217 33.2233
Au 2.94506 25.0646 21.5965
Pt 23.5426 6.42597 17.2714
Pt 14.2308 25.7835 42.2855
Pt 24.4696 23.4421 47.3889
Au 16.0566 41.7124 12.0259
Pt 24.8666 8.46023 18.357
Au 8.09651 10.961 16.8495
Pt 6.2466 19.8379 19.4532
Pt 22.4095 29.195 26.9874
Pt 22.7531 4.17578 29.2322
Au 19.9055 4.09097 20.1259
Pt 10.8398 23.432 15.2394
Pt 15.2431 19.1406 29.928
Pt 13.9415 21.116 16.509
Au 8.3514 22.9031 10.8457
Au 39.4314 30.4547 11.4868
Pt 19.5923 20.6459 24.8018
Au 20.3652 7.56687 37.9196
Pt 20.854 19.4355 38.9826
Pt 20.9726 32.3554 38.3413
Pt 13.8804 29.4566 20.9995
Pt 7.08223 24.1966 21.918
Pt 11.1311 14.8717 25.6949
Pt 19.993 19.88 31.2693
Au 18.5084 8.98158 35.0515
Au 9.33738 37.5586 38.395
Pt 7.18707 21.2515 21.957
Au 15.6265 11.9642 41.229
Pt 19.8977 39.8106 31.1934
Pt 9.01609 26.201 27.2233
Pt 15.3193 17.1336 25.0824
Au 4.75564 28.053 33.4079
Au 20.0572 27.5281 47.8693
Au 21.8903 3.14224 21.9442
Pt 15.2827 19.7967 37.968
Pt 4.72083 27.7909 24.5365
Au 33.9323 6.15304 34.1306
Au 9.87011 19.1757 43.0697
Pt 16.4906 23.8648 26.4055
Au 28.6196 36.1209 16.8024
Pt 17.3303 7.49668 21.8732
Pt 7.38454 29.2598 18.1969
Pt 10.5086 17.1939 27.4186
Pt 27.7556 10.2526 26.2341
Au 7.68714 35.0268 14.6389
Pt 29.5676 8.17375 25.0936
Au 5.8323 17.0553 18.8034
Pt 13.8262 12.1937 30.5415
Pt 19.0829 9.44732 22.815
Pt 14.1739 10.4134 25.0955
Pt 22.7217 37.9214 23.2075
Au 25.0777 5.15238 15.321
Pt 27.1588 38.2678 17.8
Pt 29.132 38.1986 23.8328
Pt 12.0297 22.5096 39.6814
Pt 15.243 30.8552 35.5614
Pt 25.0512 22.5657 30.3002
Pt 5.68314 22.0093 23.9066
Au 28.8264 8.34396 42.4073
Pt 30.6008 36.2731 36.2446
Pt 10.4791 25.7406 20.6763
Pt 12.4391 15.5603 28.1541
Pt 9.72355 23.1799 35.6162
Pt 14.8556 13.5331 32.7765
Pt 16.4535 21.6497 28.4061
Au 5.33992 14.8321 28.2488
Pt 18.3641 17.0512 6.80315
Au 18.195 15.318 43.7297
Pt 8.79817 23.9739 38.1757
Au 30.1673 46.1974 14.1268
Au 11.8019 29.8878 43.2445
Pt 22.7123 28.1148 39.5443
Pt 13.1639 35.8822 18.4491
Pt 14.5995 16.4416 29.9288
Pt 28.061 16.5302 33.3639
Pt 16.4629 41.1267 23.2739
Au 15.264 23.6039 40.7472
Au 18.3191 19.0001 1.46205
Pt 14.2494 17.7872 39.3572
Pt 10.8698 18.141 11.2685
Pt 10.0931 28.7002 13.9556
Pt 20.2132 4.85765 29.5393
Pt 17.9453 16.5759 21.0827
Au 23.1283 28.2501 0.116933
Au 16.6744 41.2761 20.0599
Au 36.3419 27.43 43.2145
Pt 10.5067 24.7285 18.112
Pt 23.0211 37.9523 20.4467
Pt 19.1029 35.0883 25.629
Pt 24.8993 27.3685 36.1764
Pt 12.5103 9.52433 21.1276
Pt 6.929 18.5082 21.5251
Pt 17.8761 32.4751 32.0037
Pt 21.8798 19.5625 35.2968
Pt 23.0274 40.3251 24.2345
Pt 15.4676 8.76378 31.3557
Pt 19.9728 41.3258 28.8798
Au 38.5783 23.6253 4.94761
Pt 17.2963 36.1324 39.2561
Pt 11.8849 41.4158 21.3778
Pt 15.9234 21.6308 33.5988
Au 9.26988 37.2309 15.2268
Au 21.7875 19.0914 44.7784
Pt 18.1023 32.9255 42.9817
Pt 12.0557 36.573 15.6337
Pt 22.4058 8.76889 30.4866
Au 15.8493 4.67492 28.8692
Au 5.13137 19.7892 30.557
Pt 4.91744 24.2228 28.8035
Au 28.6582 10.9617 46.0713
Pt 21.2103 24.3605 36.0827
Pt 6.89638 32.6825 30.6121
Pt 22.6953 28.2232 34.9825
Pt 21.1316 29.7697 13.5254
Pt 18.8329 22.4138 37.542
Pt 9.77356 20.7469 23.0557
Pt 29.4653 27.8222 36.2108
Pt 32.5861 38.7891 18.9883
Pt 21.454 26.7604 26.433
Pt 11.5855 19.1588 21.7522
Au 16.067 22.7854 8.8332
Au 8.45479 35.3379 39.7935
Pt 21.0214 14.9552 15.5122
Pt 15.9678 23.2011 23.8695
Au 14.3577 6.7727 29.8226
Pt 7.94857 19.2953 33.5605
Pt 24.1192 35.4053 38.4782
Au 20.5713 11.7042 40.1121
Pt 27.0541 17.3864 18.0986
Pt 11.2284 26.1924 13.8613
Pt 19.0333 40.633 34.3113
Au 8.89527 39.52 33.8676
Au 16.929 5.24607 23.5972
Au 7.236 29.3186 13.7093
Pt 36.8331 8.49861 24.0408
Pt 17.3658 31.2192 27.5201
Au 14.9516 6.77324 24.9915
Pt 17.2288 6.94056 30.1043
Au 36.2756 33.4289 31.9336
Pt 9.46493 24.2219 25.6875
Pt 7.88654 29.9404 30.5978
Pt 22.2295 39.0457 16.1785
Pt 21.523 29.0489 37.1593
Pt 24.587 36.617 30.4781
Pt 16.5299 18.418 5.6933
Au 6.77381 39.6478 23.8964
Pt 19.439 6.96727 20.4055
Au 3.76567 18.9402 27.902
Pt 24.9672 13.259 35.0671
Pt 32.2813 38.6097 32.4004
Pt 25.8597 27.7335 27.1859
Pt 23.3469 20.9351 13.8544
Au 3.50529 26.9574 31.1645
Pt 25.8584 25.5882 23.0105
Pt 14.1849 30.5198 8.68935
Pt 28.7462 25.9399 34.0441
Pt 5.21069 29.0803 27.3656
Pt 14.4053 22.3333 25.9695
Pt 14.4214 32.0316 21.7677
Pt 16.7729 30.598 15.0945
Pt 9.39057 25.6195 15.976
Pt 16.3313 26.1905 20.459
Pt 19.4661 33.2486 20.7131
Pt 15.502 35.4643 33.2416
Pt 12.6615 28.3033 22.9245
Au 23.5727 9.2903 37.5246
Au 7.62935 17.936 41.0523
Au 22.069 30.1942 1.73642
Pt 13.1754 18.3641 18.9096
Pt 19.887 39.9401 9.98528
Au 5.9533 30.6296 32.5136
Au 2.71942 25.9211 28.4992
Pt 12.8965 42.479 23.6796
Pt 12.1678 28.4517 33.0956
Pt 19.7712 30.718 41.8298
Au 31.5487 25.0947 46.5604
Pt 22.5763 38.5701 31.6578
Pt 24.5793 44.3676 23.2653
Pt 10.6685 32.3535 17.6101
Pt 7.63832 33.171 27.8746
Pt 10.5181 16.3033 30.0555
Pt 21.7204 20.9026 33.037
Pt 12.8101 21.1615 19.1091
Pt 9.29477 17.9956 22.5842
Au 11.4574 30.8645 7.88844
Au 32.6152 34.6847 45.9712
Pt 14.9617 20.3796 9.64762
Pt 6.41582 28.8954 22.3798
Au 3.55097 30.5034 25.5457
Pt 13.5098 14.7446 34.6691
Pt 15.1813 35.4533 40.7173
Au 2.11869 28.9039 24.0241
Pt 10.0857 26.5971 29.5854
Au 29.5039 27.0791 39.0283
Pt 11.3992 36.4998 27.8131
Au 7.47188 26.4122 37.8346
Au 8.97801 9.78823 27.0116
Pt 16.2485 35.6737 19.7177
Pt 10.2395 24.0787 30.464
Au 36.4823 42.8751 36.4792
Pt 21.8135 38.8105 29.0259
Pt 16.7272 29.8953 9.78503
Pt 17.8012 35.538 30.7688
Pt 16.6628 26.5162 13.1775
Au 20.9355 5.35539 17.9979
Pt 6.98425 18.8268 16.969
Pt 11.8356 10.3795 18.6798
Pt 21.7611 45.0108 26.6635
Pt 15.5541 34.0643 38.424
Au 9.15638 42.7692 27.4873
Pt 35.4628 33.7703 37.2101
Pt 21.8875 35.4689 21.0965
Au 4.76793 23.6109 35.6394
Pt 11.392 24.5539 28.0188
Au 13.4327 10.3697 32.5387
Pt 29.5038 44.6927 30.1843
Pt 23.4455 32.3518 15.4645
Pt 22.8383 41.0813 14.5678
Pt 24.003 9.19255 12.5405
Pt 22.1478 33.0428 31.8829
Pt 10.0598 12.2124 26.475
Pt 22.5574 21.2563 30.4741
Au 13.222 25.8283 44.8283
Pt 10.0324 24.5685 12.2712
Au 18.6647 17.5614 3.75338
Pt 10.8484 18.7893 24.632
Pt 31.6186 21.867 18.0641
Au 8.62876 41.7708 24.7561
Pt 7.69872 28.7093 33.0349
Pt 19.5808 12.644 16.5618
Au 15.5858 6.40288 32.6477
Pt 11.0163 16.9799 17.7638
Pt 23.8559 11.1831 18.05
Pt 19.1017 4.94573 25.3003
Pt 24.0338 23.4904 22.64
Au 14.8408 6.32231 22.1201
Au 10.9429 8.94302 32.1309
Pt 12.8428 14.6789 30.721
Pt 5.98768 28.1212 30.9668
Pt 8.7264 21.8853 33.2543
Pt 16.6205 33.0222 19.9904
Au 26.6116 18.8294 12.6334
Pt 22.3885 23.79 17.2465
Au 21.2414 21.1407 5.655
Pt 9.21052 27.2649 18.8008
Pt 18.67 31.1899 13.3865
Au 40.3583 30.2255 41.1657
Au 35.2746 17.8679 40.0378
Au 40.3322 25.2716 41.7661
Pt 12.1025 25.0551 25.379
Pt 26.3491 23.4047 21.1626
Pt 13.1553 9.39331 29.9566
Au 25.0072 10.4137 35.3503
Pt 15.4296 39.9421 17.6617
Au 48.8969 28.0964 28.0223
Pt 18.8113 29.9445 32.5058
Au 15.0638 21.4188 43.0523
Au 24.6594 28.9645 47.5692
Pt 15.3288 27.1866 22.8529
Au 2.78667 19.6848 19.8264
Au 30.6626 36.2729 9.01158
Au 13.7182 22.265 4.45812
Au 5.13949 32.125 34.6619
Au 13.0644 7.01883 20.0697
Pt 24.7097 29.9052 25.7626
Pt 17.3864 26.6499 39.1105
Au 27.605 25.0371 39.6886
Pt 37.4188 13.9023 27.0694
Au 27.4902 42.737 9.81544
Pt 18.7171 23.5153 24.5925
Pt 19.8759 34.6255 32.4045
Au 31.0922 9.39837 14.3607
Pt 11.5602 27.1503 27.4539
Au 5.64375 36.6465 35.489
Pt 19.7218 20.0048 17.051
Au 28.5278 31.606 11.8982
Au 28.3731 24.3811 3.59888
Pt 12.4929 17.702 31.202
Au 19.1235 17.3737 38.3255
Au 34.7648 34.7211 18.3465
Au 30.533 31.5321 41.5937
Pt 21.321 22.4604 13.224
Pt 10.8276 32.2776 24.5505
Pt 12.684 18.2856 33.9189
Au 26.9675 22.8664 46.4112
Pt 27.9429 42.0738 12.6081
Pt 30.9538 18.0972 35.6348
Au 11.5262 22.0068 6.38288
Au 11.5183 12.5991 38.4946
Pt 13.9241 20.6956 28.2052
Pt 7.85735 31.8643 18.119
Au 6.79528 19.3094 36.1808
Pt 19.7401 24.0346 11.8624
Pt 8.5019 23.2369 16.9804
Pt 11.4079 28.0729 35.9112
Au 9.68192 15.0579 34.8946
Pt 24.0526 23.6438 19.5694
Au 3.11348 24.319 30.9731
Au 28.4529 21.238 4.98963
Au 19.9871 31.8678 1.42861
Pt 20.9212 32.1959 14.5628
Pt 8.62113 34.3202 18.7254
Pt 11.5676 21.8524 28.8016
Au 31.9933 17.4376 12.6583
Au 34.4144 7.05359 11.7986
Au 25.9003 37.5713 8.02843
Au 24.1538 18.3403 9.63461
Au 30.0915 25.7262 18.9374
Au 35.0255 27.5045 10.3305
Au 21.4687 16.6235 39.7596
Pt 19.6277 30.7205 26.1804
Au 5.15385 34.5879 22.1856
Pt 23.8904 4.6811 26.9135
Au 41.7492 15.8029 34.9345
Pt 7.31144 21.7346 26.36
Au 32.475 34.4097 10.1226
Au 3.57981 33.4982 26.4124
Pt 21.0255 26.1206 28.9898
Au 42.2455 19.2534 39.2952
Au 25.2843 21.8357 37.525
Au 21.9508 48.3902 23.3224
Pt 16.5134 17.368 15.1297
Pt 14.1952 19.5818 25.7984
Au 42.8679 40.4516 30.7459
Pt 15.3775 13.9099 39.2159
Au 3.16527 31.2072 28.1297
Pt 22.5652 9.97159 19.9998
Pt 10.5865 14.9081 37.4601
Au 26.3554 36.6192 37.3206
Au 13.2155 7.56415 32.4035
Pt 25.1147 42.0552 24.3907
Pt 8.42009 18.0135 29.2059
Pt 36.9989 27.1866 28.3431
Pt 6.57994 35.2299 29.383
Au 17.3139 4.98781 20.9472
Au 22.6507 5.69394 13.8325
Au 19.4593 24.671 9.17498
Pt 12.5811 12.3959 25.9288
Au 14.1106 21.4721 7.17709
Pt 12.3083 30.668 13.3574
Au 40.532 25.172 45.5425
Au 2.56809 18.9937 30.2582
Au 45.4416 18.6441 34.7266
Pt 20.1683 22.1181 35.1308
Pt 25.3505 15.5682 33.6655
Au 19.99 27.2054 9.87291
Pt 16.2567 26.6002 44.1978
Au 28.1922 16.7704 41.7083
Pt 13.949 25.2017 27.2104
Au 27.1841 30.2036 24.4
Au 32.3019 13.1761 10.6965
Au 24.183 20.7392 11.0571
Pt 20.0729 35.2896 42.8952
Au 22.0306 15.1732 5.65075
Pt 4.27219 24.2116 23.8294
Au 4.26859 17.3477 31.5146
Pt 10.0377 27.7565 22.5387
Au 27.9663 37.2589 6.17509
Au 29.042 18.5809 0.399475
Pt 17.3558 16.383 29.2503
Au 35.1272 26.4912 37.3996
Au 36.311 13.3348 18.4381
Pt 4.75531 22.9916 26.3
Pt 9.69795 21.2393 39.9025
Pt 26.4879 31.2128 35.6415
Pt 38.1175 30.4753 35.2993
Au 5.98897 24.1116 38.0497
Au 25.7371 10.7025 38.5478
Pt 26.4616 35.1789 31.8749
Au 21.4421 8.6208 35.5506
Pt 17.8122 21.4919 23.0663
Pt 21.3717 21.7253 37.4866
Pt 13.4057 13.8304 10.2579
Pt 15.0298 24.3699 31.0483
Au 10.5555 18.5098 8.5661
Pt 11.3817 28.432 20.3465
Pt 26.7378 29.3268 18.015
Pt 12.615 41.2179 25.9995
Au 16.7727 16.4914 39.4046
Pt 6.70314 24.9875 24.5246
Au 8.95458 14.319 10.595
Pt 11.9823 36.361 32.8474
Au 30.2553 5.44742 14.7865
Pt 15.9418 36.6994 26.4689
Au 36.4058 17.8387 10.8866
Au 28.9782 26.1727 13.5506
Au 29.079 21.1601 46.7741
Pt 15.4883 41.8605 30.2209
Au 29.8343 30.5006 7.12131
Pt 21.6233 32.6289 22.4646
Au 31.3947 39.355 8.58098
Pt 23.1225 27.9708 24.6298
Au 37.0953 22.1366 42.6735
Au 48.0636 20.0832 22.3205
Pt 8.99154 34.0833 25.5753
Au 31.1469 32.6638 8.40506
Au 22.7505 21.2499 46.627
Au 31.4432 38.3247 13.3791
Au 28.9072 31.3242 22.6114
Au 23.8004 23.3517 12.0712
Au 32.5613 41.4003 17.8805
Au 44.8115 19.6138 40.1445
Pt 35.1721 17.8826 32.4076
Au 36.7285 17.3034 43.4762
Pt 17.2062 25.9039 24.4937
Au 36.4123 5.68715 17.7214
Pt 17.8744 28.5784 23.6012
Au 12.8004 38.4941 11.1267
Au 24.3639 33.0311 40.1964
Au 12.2487 6.93477 25.19
Au 10.3034 21.8565 42.7149
Pt 13.6247 18.0461 36.8776
Pt 7.42521 24.5861 35.7485
Pt 13.9048 23.9124 38.3299
Pt 18.8606 17.476 32.6534
Pt 23.2195 15.8901 10.323
Pt 12.9351 32.1871 26.2697
Pt 9.37186 37.2208 32.389
Au 5.89921 37.1165 23.0436
Pt 10.1209 34.8221 16.5752
Au 25.1626 20.6315 8.27077
Pt 18.3001 28.0268 26.235
Au 32.4816 30.1997 5.75831
Au 18.209 32.0006 10.5845
Au 36.9818 12.7435 12.8707
Au 10.9825 12.8353 9.39495
Au 27.0849 22.0936 2.51553
Pt 5.30423 26.7809 28.7624
Pt 18.4498 25.9364 15.1186
Pt 14.1317 37.0354 23.1753
Au 28.6005 26.9409 0.427555
Au 29.076 26.8361 41.729
Au 41.7468 25.3588 8.07413
Au 37.3957 35.4429 7.70927
Au 7.30508 14.5587 19.1039
Pt 12.6558 23.078 30.996
Au 45.1811 36.6599 34.2179
Au 21.7225 20.2782 41.5444
Pt 15.4469 37.1962 17.6652
Pt 20.6484 42.7835 14.4115
Au 6.24855 23.9652 12.553
Pt 20.1524 29.4873 34.7578
Au 33.4501 24.7002 35.9791
Pt 26.3158 7.07989 29.2481
Pt 13.1388 27.6494 25.3166
Au 31.0553 22.8091 49.6609
Au 32.8069 17.7939 38.3413
Au 15.2594 33.0645 42.0485
Pt 24.1296 32.48 34.8762
Pt 24.2522 9.00046 25.0874
Pt 20.2829 22.691 31.3989
Pt 21.6148 18.7788 23.4685
Au 28.1722 13.755 42.1388
Au 20.8604 46.7462 21.301
Au 42.0231 30.0997 39.0171
Pt 34.4871 36.0863 38.3821
Pt 8.2735 28.2741 11.5224
Pt 23.2493 32.0039 26.9001
Pt 8.98284 24.6234 33.4519
Au 9.79473 12.468 23.6703
Au 4.43381 32.6891 31.8392
Pt 10.7163 17.1281 20.4224
Au 20.4158 4.65474 34.0468
Pt 6.36084 29.7246 25.0501
Au 24.8259 13.2182 8.57327
Pt 14.7932 39.4434 29.1268
Au 6.32812 33.7735 38.7429
Pt 23.5502 33.886 17.6417
Au 24.3179 21.3295 -0.453164
Au 7.64656 16.1701 27.2992
Au 14.0983 7.09123 16.6646
Au 23.732 16.0885 41.3593
Pt 17.8617 33.6347 12.8954
Pt 33.013 43.639 27.5272
Au 24.4232 29.1765 50.2466
Pt 13.1887 33.9592 32.8949
Au 30.6889 34.7404 41.8235
Au 20.6912 44.2445 12.04
Au 6.17075 30.4806 16.0298
Au 12.2359 32.3198 42.0343
Pt 10.4597 38.8525 30.2243
Pt 11.4065 37.2302 20.3111
Au 28.3596 3.23145 25.516
Pt 19.5813 17.6186 35.2893
Pt 26.8741 30.9471 32.8964
Au 7.77654 39.3551 31.3321
Pt 11.4032 10.4109 28.1018
Pt 20.7093 32.7978 43.5637
Au 22.5532 25.3828 40.2082
Au 27.763 26.0211 43.9342
Au 19.3386 13.4898 45.3039
Pt 35.1987 42.4579 32.4231
Pt 10.3571 37.2749 34.8648
Pt 18.3136 10.7448 37.187
Pt 23.0219 43.1664 13.0822
Au 20.7652 2.8233 24.7017
Pt 11.7119 32.8971 21.84
Au 32.0834 42.6649 12.4435
Pt 22.2497 28.3687 20.2845
Au 9.1787 16.7935 25.0511
Pt 12.9419 38.0145 30.7507
Pt 20.0283 28.5961 28.039
Pt 13.8956 36.958 28.3553
Pt 25.4034 41.8151 13.6499
Pt 10.8448 23.1834 23.6795
Pt 11.9913 31.6411 28.8267
Pt 13.8533 39.936 24.0013
Au 9.61967 20.4521 10.4476
Au 28.7345 28.4732 4.922
Au 5.36537 18.3746 33.7954
Pt 22.0906 29.6537 22.6059
Au 8.81884 26.9419 8.85051
Pt 16.9755 33.6801 26.5837
Pt 18.1601 26.8843 28.9548
Pt 16.6023 38.5981 19.7541
Pt 15.16 39.715 31.7243
Pt 29.2683 40.7555 24.8703
Pt 18.1167 39.1673 22.3291
Pt 18.709 30.415 29.675
Au 28.9092 38.4327 8.39522
Pt 24.28 45.6222 16.4795
Pt 12.3864 20.8475 24.1691
Pt 20.3077 18.6281 7.84159
Pt 15.5796 38.079 39.8546
Au 40.8104 36.8496 16.5482
Au 9.86966 42.4417 20.0464
Au 10.2157 41.3498 17.3284
Au 32.9481 9.04506 10.7554
Pt 11.45 39.0419 32.7884
Au 2.3619 23.242 28.4337
Pt 7.22172 35.5271 31.9105
Au 4.67493 28.7338 17.6732
Pt 29.5425 39.1887 33.2446
Pt 22.1333 33.4529 28.8904
Pt 16.7184 20.4639 21.0419
Au 35.0155 17.617 36.6779
Au 19.2485 16.3393 41.4424
Pt 11.6672 30.3979 16.0747
Au 12.0952 28.2446 45.3985
Pt 18.9398 22.5372 20.8017
Pt 15.4672 32.2198 10.2045
Pt 21.5851 36.7932 14.9058
Pt 6.91158 24.3763 26.9707
Pt 14.3218 29.8979 11.2886
Pt 9.50007 31.2911 13.6126
Pt 23.2794 31.7216 12.9649
Pt 13.2691 36.6074 25.551
Pt 19.2593 18.6466 12.2766
Pt 26.1522 17.6962 31.8037
Au 24.3922 4.93842 36.8289
Pt 22.0099 30.6922 24.9158
Pt 9.60462 15.0681 22.9764
Pt 28.5737 14.9818 23.7384
Au 16.7534 7.18476 16.7976
Pt 15.3588 12.0088 14.8942
Au 15.0494 35.1672 43.7099
Pt 12.4772 23.761 35.8079
Pt 23.5737 27.0636 28.2634
Pt 16.0194 11.3389 31.8817
Pt 6.61304 30.7182 20.4454
Au 16.0745 32.2732 7.50161
Pt 28.348 12.5547 20.0713
Pt 12.774 20.2476 30.7427
Pt 11.6331 12.1271 21.1049
Pt 25.1254 11.3726 13.5956
Au 30.5255 3.62537 32.8109
Pt 9.39619 23.1246 21.384
Pt 23.7022 12.2609 20.8978
Au 24.2593 21.7561 42.0025
Au 21.4065 25.682 42.8231
Pt 10.907 21.3753 16.8082
Pt 15.0656 24.2288 12.7169
Pt 41.0142 19.3493 24.0342
Pt 19.7644 13.4526 9.15988
Pt 4.69183 20.5933 21.513
Pt 17.2771 35.8005 15.8167
Pt 15.1531 15.8526 37.1957
Au 13.4163 8.82511 34.8516
Pt 8.59584 26.5049 13.5099
Au 13.6515 31.0894 6.01203
Pt 30.5308 26.8931 25.5903
Pt 14.3774 26.8901 16.8361
Au 19.164 6.48048 35.705
Pt 15.3008 30.8396 19.363
Au 46.007 28.7148 38.6513
Pt 19.3132 29.5008 11.3426
Au 27.1394 31.0022 15.6864
Pt 15.036 17.1369 34.8692
Pt 30.2988 15.7799 25.6699
Au 38.4502 32.0789 42.1972
Au 23.5656 38.7513 45.4856
Au 25.4421 14.6844 45.3546
Au 17.285 20.162 3.66807
Au 39.3117 38.382 19.1217
Au 43.4747 26.2718 35.9113
Au 22.9823 12.0308 36.723
Au 7.20078 21.3012 12.8721
Pt 25.0272 13.8947 11.2852
Pt 24.654 17.3914 29.558
Pt 17.0442 30.7347 41.8149
Pt 28.5953 5.9892 19.015
Pt 17.3313 22.9349 30.997
Au 7.31911 16.7296 34.649
Pt 15.9176 18.0024 19.622
Pt 16.1102 7.03793 27.5769
Pt 14.7592 24.6826 21.8688
Pt 12.8318 29.1566 18.2388
Au 4.2133 21.7874 18.9872
Au 6.88436 36.027 20.5728
Pt 13.2663 34.0508 23.8332
Au 21.3701 23.5012 7.57805
Pt 14.6688 18.6419 7.57009
Pt 11.7804 36.8738 37.1955
Au 39.9964 41.112 18.8059
Pt 23.2058 7.2999 23.3668
Au 32.2658 26.9923 9.02843
Pt 26.6893 7.33343 15.8051
Au 16.9372 25.6615 8.38952
Au 35.5024 12.8252 39.9315
Pt 16.9153 13.0655 16.8424
Pt 21.4822 17.9762 10.1092
Pt 17.6125 14.7443 18.9659
Au 46.8252 34.12 24.14
Pt 11.5131 15.6987 32.8797
Au 24.1765 7.35412 35.6768
Au 49.1588 30.4934 23.9027
Au 23.2571 20.2833 49.2296
Pt 17.7442 23.9568 39.4439
Au 46.7919 26.9432 17.2609
Au 37.3418 40.1668 18.6309
Au 27.4892 5.69293 13.6201
Au 7.3533 13.1903 27.7283
Au 22.2932 14.1547 38.5434
Au 25.4504 33.1762 45.2266
Pt 26.4352 8.8816 13.7985
Au 3.03953 21.6482 23.9981
Pt 13.9476 13.5921 21.3276
Au 22.1139 13.2551 10.7948
Pt 14.7838 19.1132 32.5792
Pt 32.4351 26.8676 29.4969
Pt 22.7991 6.04316 33.4183
Pt 19.0729 11.9782 21.8294
Pt 24.0198 17.8304 24.7382
Pt 7.90506 23.306 31.2206
Pt 14.7177 29.6874 16.5528
Pt 14.6682 29.2206 13.8406
Pt 21.6752 31.592 35.8642
Pt 16.1428 24.9558 37.3202
Au 44.08 27.2495 17.3737
Pt 8.55918 35.7316 27.6418
Pt 22.9431 22.2175 35.4569
Pt 10.2112 40.6072 26.6416
Pt 7.68025 34.739 23.1632
Pt 15.7844 43.2083 28.0568
Pt 14.9966 32.418 28.2527
Au 15.9906 31.4477 4.69175
Au 23.3195 11.4309 42.2604
Au 43.306 27.6951 14.692
Au 32.7191 21.8556 2.93583
Au 23.9779 18.7734 0.507115
Au 24.2929 37.8573 27.9731
Pt 44.2101 15.9286 21.2431
Pt 19.0524 16.4553 14.0255
Pt 15.068 18.5754 17.1539
Pt 17.5637 7.19972 25.3641
Au 25.7574 33.6235 42.4687
Au 45.4581 26.0293 14.9987
Pt 14.499 25.0688 18.84
Au 32.5854 20.1549 36.718
Pt 30.143 34.6982 24.338
Au 34.5145 32.3129 16.8856
Pt 15.5165 15.558 20.4793
Pt 17.5276 34.3675 22.1317
Pt 7.75818 20.4201 30.8741
Au 28.276 23.7708 9.20045
Pt 29.2348 24.7629 26.8575
Pt 21.3847 32.0801 17.3962
Pt 25.7587 13.0344 19.3645
Au 32.8771 30.3956 42.6612
Au 13.9383 30.3202 45.2625
Pt 17.9368 20.0974 38.6292
Au 31.8352 3.88446 22.1971
Pt 17.7372 17.9689 17.4065
Pt 23.977 34.8776 14.9488
Au 8.46664 14.2185 25.4613
Pt 38.3977 34.5116 29.1799
Au 3.4021 19.8907 32.7124
Pt 20.9864 10.8803 17.9788
Au 16.3391 7.19336 35.2397
Au 3.67928 22.6307 33.2148
Au 35.0794 21.8164 12.909
Au 29.4854 19.5117 9.17477
Au 9.94988 19.2927 13.7093
Au 33.0314 23.3252 9.16334
Au 5.17772 17.3465 15.7432
Au 42.7204 39.7541 25.3426
Pt 10.4961 27.1778 11.1039
Au 14.8625 39.4738 12.6039
Au 30.8522 34.2793 14.653
Pt 6.73022 26.6376 17.8603
Pt 11.2608 34.2761 19.2724
Pt 15.2608 39.366 21.83
Au 35.5634 20.0551 14.8571
Au 7.59105 17.7986 14.4587
Au 37.4244 30.8289 6.3435
Au 28.763 19.164 34.3774
Au 37.9335 7.59118 16.6361
Au 41.7012 25.155 10.9977
Au 40.7941 15.2219 18.0878
Au 28.5848 21.0731 18.0417
Pt 24.5611 21.3343 20.8914
Pt 21.515 34.3041 15.941
Au 5.77333 14.9473 25.529
Au 33.8035 4.52187 24.4653
Pt 34.7517 37.2018 32.0849
Au 26.6349 23.3133 42.8135
Au 14.1912 34.5078 10.1295
Au 24.5695 41.1868 39.1942
Pt 18.8805 35.9888 20.5044
Au 8.90521 16.2249 39.3604
Au 29.8588 15.0829 49.2913
Au 26.4101 35.2672 46.9066
Pt 11.9102 22.6044 26.2956
Pt 20.3601 26.9346 38.7347
Au 41.1781 22.4776 44.7949
Au 14.9939 43.4391 38.7758
Pt 31.9219 13.7647 36.0993
Pt 18.7881 25.3312 26.9245
Pt 9.54907 34.9886 21.0942
Au 7.6628 15.3215 29.8704
Pt 22.6056 43.0502 24.87
Au 35.9057 28.8181 12.8567
Au 2.74027 21.6177 30.673
Au 34.264 11.3514 9.33143
Pt 21.3778 18.1927 32.9743
Au 33.8134 33.7411 4.90522
Au 12.4778 26.9267 5.09162
Au 26.3415 24.3193 13.7045
Pt 10.3362 22.3737 19.1742
Pt 13.316 21.2477 33.0634
Pt 10.5595 34.8338 23.4862
Au 5.3538 30.6249 29.642
Au 47.4451 34.578 30.7399
Pt 15.4431 26.7806 29.964
Au 47.0004 23.7429 15.4747
Au 33.3125 28.0136 36.1096
Au 15.2527 40.9573 14.941
Au 29.8906 21.3828 36.0278
Pt 24.6339 18.8848 22.2823
Au 26.6699 29.9814 13.0284
Au 29.2259 24.0805 45.2531
Au 43.3702 28.0515 38.1231
Pt 11.2428 25.9479 31.9668
Au 44.1621 23.507 14.8794
Au 20.579 24.3778 5.01235
Pt 18.459 37.7023 26.0665
Pt 27.8496 32.9826 20.7502
Au 31.7973 37.544 38.3263
Pt 26.5506 44.274 30.1462
Au 31.3297 37.4372 45.4129
Au 21.8108 17.4543 37.1194
Au 33.532 25.6544 15.6279
Au 9.71552 9.10121 29.6906
Au 28.9835 34.3982 47.4296
Pt 18.6447 28.1631 37.2365
Pt 16.7331 14.3853 22.6204
Au 19.4325 18.485 46.8293
Pt 28.701 35.0282 34.2144
Pt 11.2162 32.264 33.6858
Pt 14.6308 25.3896 24.6648
Pt 7.873 26.7245 21.2
Pt 45.0936 17.2487 23.3797
Au 13.0413 43.1623 34.6461
Pt 10.3414 26.9038 25.0153
Au 5.94577 12.8671 20.7966
Au 4.41809 24.8814 14.3981
Pt 12.2411 31.2839 19.8266
Pt 22.4641 36.6278 34.066
Au 21.3715 12.3307 43.9139
Pt 23.2962 23.8945 37.8108
Au 3.38699 26.9747 19.3931
Pt 24.1663 35.482 19.6307
Pt 13.4793 40.6247 33.6372
Pt 9.78167 21.293 25.6883
Pt 14.4841 34.4052 26.2974
Au 32.7335 33.4452 25.8556
Au 18.2784 33.9709 8.28809
Au 30.9757 28.3546 0.683814
Au 46.3291 24.7982 22.0542
Au 31.3512 36.743 15.7312
Au 30.188 37.9539 18.2053
Pt 23.0288 24.5924 27.8477
Pt 13.964 26.2375 14.0104
Au 39.8928 34.1461 37.8937
Pt 33.8749 36.7123 19.8959
Au 27.8444 21.3732 7.89285
Au 24.906 34.8384 9.14387
Au 22.9263 6.82567 38.4324
Au 41.3017 27.1154 43.5384
Au 21.9127 46.2222 37.9784
Pt 17.5411 33.1717 29.3068
Au 33.249 30.4882 39.8084
Au 28.496 33.045 42.7819
Au 39.0817 23.7441 43.6447
Pt 6.34582 23.6677 33.3433
Pt 24.1376 29.3154 31.582
Au 35.9418 22.9374 5.74107
Pt 23.1984 27.9637 14.341
Au 25.9041 10.8066 41.3507
Pt 13.1095 34.5329 37.3357
Pt 20.4377 9.72717 15.6113
Au 7.4186 36.5865 25.2874
Pt 9.4177 31.7773 29.5717
Au 21.1039 18.3714 1.28998
Pt 32.8805 38.6536 21.6309
Au 16.1978 32.0656 44.6763
Au 12.996 41.5767 39.1188
Au 31.4945 22.8881 0.667977
Au 2.57629 19.336 22.5813
Pt 6.92671 22.3315 28.9657
Au 20.2423 10.7745 9.74489
Pt 10.7453 21.7331 37.5333
Au 29.6126 41.3929 8.39743
Au 12.6039 12.3551 14.5831
Pt 10.0921 36.5555 25.4738
Au 47.5392 20.1524 19.5805
Pt 14.0903 31.8511 14.9209
Pt 10.9798 29.5094 24.7719
Au 9.71335 23.7473 40.8469
Au 5.14306 34.809 33.6382
Au 29.7201 5.47961 26.3834
Pt 8.73039 29.2911 20.7097
Au 15.446 9.60918 36.5986
Au 13.1255 43.5948 30.0687
Au 39.8372 21.3203 9.10501
Au 37.2213 15.2844 11.5278
Au 22.7322 24.0224 45.3964
Pt 10.9717 19.0057 29.3508
Au 44.6936 33.3184 37.2203
Pt 16.7846 30.1117 37.5758
Au 32.3132 4.34725 19.5401
Au 7.32933 25.2533 40.3071
Au 27.8175 35.485 41.5852
Pt 15.2697 16.1977 27.4723
Au 26.6591 37.6202 42.9167
Pt 8.9505 30.2772 16.0419
Pt 11.9265 16.3987 35.7604
Pt 23.2297 14.9742 36.1461
Pt 24.0854 33.8322 21.8423
Pt 22.9999 14.1088 33.3084
Pt 22.2443 28.8131 29.7121
Au 23.7436 18.3794 12.4769
Pt 32.5768 27.9541 26.9314
Au 9.31054 29.5569 9.25065
Au 27.3561 46.3314 14.2798
Pt 22.6829 36.4356 17.4054
Au 6.07996 15.4591 32.2772
Pt 26.7324 39.4886 33.0256
Au 5.62982 17.3024 29.1104
Au 19.7054 45.0231 36.8612
Au 6.65729 37.8469 28.0061
Pt 10.0314 18.6699 40.4108
Au 28.1203 44.7139 12.0372
Au 9.88358 41.1011 31.5888
Pt 6.31841 33.7451 25.1358
Au 7.41716 39.9951 26.5221
Au 3.21025 28.6622 29.1028
Au 43.367 36.6297 17.8633
Au 45.6272 19.1424 15.2355
Pt 12.3179 29.6593 27.0389
Au 14.8067 27.8351 46.2086
Au 12.0901 27.4428 38.7487
Pt 10.3475 35.0632 13.9331
Pt 31.2728 29.2755 34.9962
Pt 12.6061 25.4791 11.4824
Au 6.73906 31.5153 37.0939
Pt 17.6414 26.2174 35.2194
Au 9.35063 9.2953 18.5736
Pt 27.3066 31.9512 18.4007
Au 8.22328 41.356 22.1056
Au 17.6532 5.15696 33.9073
Au 19.6015 42.3641 37.0653
Pt 27.8946 37.1946 32.5807
Pt 13.8776 31.8487 37.6512
Pt 16.8759 38.3203 37.5004
Pt 35.2188 34.0856 39.9006
Pt 16.7091 15.6197 33.2538
Pt 9.97139 14.9026 18.9899
Au 26.9599 44.9353 37.1017
Pt 14.9659 34.6979 21.871
Au 11.7209 42.8718 32.2842
Pt 42.1991 30.4004 30.0649
Pt 25.8382 33.3702 16.5301
Pt 21.8431 45.5985 24.009
Pt 6.87209 26.3211 33.7601
Pt 7.63997 30.4324 27.9231
Au 31.1826 35.5974 12.2752
Pt 13.5541 37.2096 13.5017
Au 6.57053 34.0309 36.0306
Pt 14.6405 35.8165 15.5181
Pt 10.8256 19.4713 18.8771
Pt 19.7484 36.055 40.4031
Au 9.3111 28.7151 42.7865
Pt 16.0802 33.4835 14.9954
Au 24.7287 35.7612 44.0726
Pt 9.2848 20.3948 35.4799
Au 8.80816 33.1268 38.0143
Au 9.88965 16.5851 42.1324
Au 24.3341 35.7783 6.4493
Au 28.0958 43.2534 41.3065
Au 28.6085 34.9945 37.3567
Pt 16.8315 39.0712 33.7206
Au 26.3083 43.495 39.3512
Pt 22.3375 36.6552 41.2398
Pt 18.625 28.5926 14.0729
Au 19.6121 14.514 39.5344
Au 26.4438 30.6685 46.3303
Au 8.92681 10.7581 31.7498
Au 13.5573 39.5542 40.7202
Pt 7.74163 27.8942 28.8688
Pt 22.3539 35.5516 10.5486
Pt 16.7931 39.4957 26.9813
Au 31.1843 25.6042 0.441307
Pt 13.0252 38.424 18.0626
Pt 44.4236 33.9573 34.4106
Pt 18.901 25.1932 37.2644
Pt 24.3208 44.7677 25.8216
Au 19.8984 30.0108 46.7854
Au 19.3812 4.17728 22.7322
Pt 29.0249 7.72651 14.0338
Pt 34.0327 15.365 31.4193
Au 11.6774 7.1779 30.1553
Au 11.7017 7.85921 17.7899
Pt 14.0346 11.3376 19.8986
Au 10.0867 9.24693 15.9394
Au 28.3963 7.0512 38.1678
Pt 31.4802 11.39 29.2846
Pt 9.22114 19.3075 38.0564
Pt 15.3271 20.6823 18.8155
Pt 25.4386 25.8828 20.3965
Pt 6.6594 27.1182 26.4131
Pt 16.0011 17.5634 9.77053
Pt 32.5573 21.6136 29.8131
Pt 18.56 18.9423 14.8941
Au 12.726 10.7474 36.6865
Au 3.028 18.7769 25.221
Pt 13.3124 18.1047 28.288
Pt 27.2456 18.8782 22.3509
Pt 23.7736 14.9094 15.6756
Pt 8.47007 23.7255 14.0992
Pt 41.7136 20.7841 18.883
Pt 27.6403 15.0343 19.1254
Pt 31.5032 17.5287 27.1792
Pt 33.7139 17.8314 17.3758
Pt 14.5468 20.005 35.2797
Pt 17.7223 15.3582 9.09073
Pt 14.0193 28.1061 43.6008
Au 38.2159 10.9867 36.2771
Pt 25.9953 21.9338 18.7133
Pt 12.2243 17.3001 40.8999
Pt 28.9052 15.7698 16.7143
Au 36.2747 6.48661 29.1218
Pt 32.6592 19.1264 28.958
Au 15.1697 7.95929 14.2081
Pt 19.3482 15.0807 33.893
Pt 16.9583 18.7521 34.1735
Pt 21.4487 21.4253 26.4429
Au 15.7843 11.9886 6.73882
Pt 15.0852 8.72811 20.8495
Au 43.0015 21.276 35.1347
Pt 21.3634 8.46717 21.8107
Au 28.524 29.7855 20.2857
Au 24.8101 42.0215 9.1701
Pt 26.1647 19.4245 19.9433
Pt 6.55036 19.7365 28.176
Pt 17.5039 24.2545 22.149
Au 41.6503 23.5569 13.7979
Au 17.0277 14.3842 41.3313
Au 46.9063 15.631 21.7865
Au 32.8249 16.5799 40.8389
Au 6.98802 36.1925 37.7275
Au 4.19864 16.6973 23.8103
Au 20.6482 38.4002 7.82972
Au 24.4528 40.0267 7.25263
Pt 30.1479 13.9309 18.2307
Pt 20.1296 15.3286 36.7299
Au 16.3124 29.3282 44.1909
Pt 18.0994 10.9629 27.8938
Au 37.8147 11.1809 39.0743
Au 31.0151 9.29708 34.3666
Au 31.9854 7.09471 35.851
Au 35.3479 9.97897 39.5285
Pt 8.28053 26.3785 31.5198
Pt 13.8899 11.0853 27.9282
Pt 17.8215 9.81663 30.3831
Pt 6.98199 21.9655 35.2621
Au 26.2092 3.76464 23.3262
Pt 21.7554 15.599 20.2029
Au 19.8351 20.8382 45.5616
Pt 28.5939 18.8878 31.655
Au 45.8305 18.331 18.159
Pt 15.3034 28.1326 18.939
Pt 21.5905 21.7192 15.7894
Au 19.4393 2.95925 27.116
Au 23.5243 12.7848 6.12219
Au 7.46668 10.9241 19.7549
Pt 13.5267 31.8435 17.5815
Pt 12.732 23.3762 17.695
Au 38.3192 20.7325 17.8056
Pt 18.1414 28.9478 39.9743
Au 16.5742 26.8851 5.97123
Pt 19.9284 32.8017 30.3194
Pt 10.6038 27.8985 16.6622
Pt 24.7057 17.5355 16.7841
Au 24.4511 22.857 1.77686
Pt 8.47574 18.0581 19.1434
Au 31.6295 35.3416 4.68503
Au 43.0233 14.1297 32.6102
Au 23.3044 19.7928 37.6631
Au 28.4351 19.5547 2.71412
Au 27.4054 2.68723 28.0997
Au 20.9049 25.2211 2.04296
Au 20.0536 42.5716 9.94382
Pt 5.07377 20.4126 25.9522
Pt 25.2995 16.7444 14.1893
Pt 29.8296 22.3384 30.4086
Pt 26.7953 8.21332 24.7906
Pt 30.7098 40.3738 19.833
Au 20.564 25.9056 45.6375
Au 44.5252 31.8168 23.6481
Pt 31.0769 19.9493 31.3192
Pt 20.2183 12.5823 27.4472
Pt 16.2686 9.0072 23.6862
Au 48.8806 28.2165 22.3658
Au 29.5498 37.5604 11.2354
Au 28.7055 29.2651 2.18618
Au 24.2853 26.1203 47.1556
Pt 10.9078 11.6873 16.5095
Au 19.0857 9.38723 39.6083
Au 39.0071 16.6436 15.18
Pt 27.1602 8.39519 31.2896
Au 29.0138 38.4368 37.7137
Pt 15.7165 33.8896 31.1336
Pt 9.52172 18.9327 16.4572
Au 37.2398 21.6438 3.75593
Pt 19.616 15.0064 28.7566
Au 28.0425 18.8993 6.71218
Au 34.5799 26.8079 18.0774
Pt 33.5634 8.44365 18.1176
Pt 18.1535 30.7106 20.239
Pt 18.4385 22.2367 33.2153
Au 27.7202 28.3525 7.43444
Pt 14.5337 19.2058 14.6651
Pt 13.3947 26.2302 36.8693
Pt 8.05454 21.635 37.5848
Au 42.6979 9.57434 21.6506
Au 32.5533 24.5308 18.0034
Au 30.2128 5.79308 23.4673
Au 26.8454 18.8424 9.67458
Au 31.4127 27.4143 14.3354
Pt 15.4845 23.0822 17.3787
Au 27.1277 16.1295 6.00388
Au 38.3327 27.0262 14.0142
Au 24.8883 27.2312 6.93473
Au 29.248 17.4792 4.57447
Au 31.2715 32.6105 12.2404
Pt 18.4578 12.4816 30.3203
Pt 15.0378 13.5466 18.6649
Pt 11.8479 12.9704 28.6345
Au 40.4843 23.0679 6.87654
Au 33.4932 18.3408 45.1507
Au 30.3465 21.522 39.3326
Au 36.4606 17.8272 7.48684
Au 30.3694 34.3137 26.9863
Pt 13.371 16.9649 21.1351
Pt 31.111 7.56293 27.3174
Pt 24.1582 34.67 33.095
Pt 12.2443 12.9686 32.8052
Pt 19.9914 22.6584 17.6829
Pt 27.233 18.648 29.3801
Pt 33.8039 7.40605 30.0508