3871
Atoms. Timestep: 21576
Au 23.8452 12.5552 12.1756
Pt 11.8871 20.4752 27.7049
Pt 26.2141 12.3622 16.3958
Pt 27.8328 9.35245 32.8891
Pt 14.1529 15.3935 28.1494
Pt 20.9708 29.6562 10.3966
Au 15.484 47.171 23.094
Pt 18.5839 32.5807 28.228
Pt 18.9728 7.81696 30.0105
Pt 25.8471 13.715 31.6834
Au 13.0171 40.1453 28.6371
Pt 11.0633 34.9431 15.4347
Au 33.7584 45.9547 22.2478
Pt 19.5542 13.1224 31.9495
Pt 6.58877 26.8028 19.7931
Pt 22.5646 28.707 29.0905
Pt 16.6163 36.1976 28.8633
Au 27.1009 9.32752 40.2609
Pt 16.1391 21.3013 32.5049
Au 11.1207 13.5821 40.0522
Pt 6.72037 24.5842 21.7339
Au 3.61634 32.3737 26.6868
Pt 35.5767 23.101 19.0307
Au 16.5497 28.2228 45.5545
Pt 20.8024 25.9971 42.9002
Au 3.99945 36.1277 22.7127
Pt 34.6378 38.5782 17.0499
Pt 21.9843 17.1698 35.4079
Pt 15.9198 12.7871 34.7578
Pt 12.1188 18.9437 25.4886
Pt 34.2725 17.6411 31.795
Au 4.92887 26.1091 16.4514
Pt 8.02689 23.0947 35.5407
Pt 12.6204 13.5427 26.7392
Pt 29.7178 5.34071 28.2988
Au 22.1461 34.313 3.28605
Pt 15.8098 11.5707 16.0151
Au 23.9185 28.846 44.6555
Pt 21.9937 8.67354 26.8074
Au 7.01939 38.3763 32.1604
Pt 16.4051 23.9035 32.4513
Pt 26.7057 38.8545 17.7929
Pt 7.97792 29.9867 37.0514
Au 2.01619 30.0328 27.5032
Pt 13.8679 28.7505 15.1807
Pt 19.8871 18.6319 41.9016
Pt 26.7906 13.317 34.107
Au 17.0713 16.2721 14.3763
Pt 15.0511 23.4385 25.8391
Au 16.7009 13.1807 7.35658
Pt 35.4309 32.2036 20.4757
Pt 40.049 32.1469 27.2683
Pt 6.5086 20.5004 29.8783
Au 9.4758 14.8761 17.1912
Pt 21.5918 34.7955 12.3231
Pt 36.3968 16.502 29.5188
Pt 19.2716 19.2624 17.5747
Au 11.2686 16.6069 10.4863
Au 21.6855 17.9775 13.48
Pt 10.4069 19.4169 23.2056
Au 14.1987 10.6385 34.0249
Pt 14.1128 34.6475 41.5213
Pt 6.5558 29.7141 32.3716
Pt 10.3945 34.7839 22.2515
Pt 10.7321 25.0969 23.2441
Pt 11.288 19.3456 16.0948
Pt 18.5877 22.6876 33.5119
Au 12.8768 8.71068 32.3387
Au 16.9616 45.3528 31.3549
Pt 4.04687 24.0605 22.029
Au 33.6874 13.1107 48.2509
Pt 25.9927 23.5703 38.1809
Pt 3.82394 27.9538 28.1384
Pt 30.7537 10.5906 29.2335
Au 4.05542 17.1316 33.3645
Au 4.03443 34.9985 27.535
Au 17.143 9.92199 40.2162
Pt 16.3837 27.7397 35.3492
Pt 30.3155 6.3925 16.8964
Au 19.9829 5.07835 34.4626
Au 25.1728 17.9668 7.21914
Pt 12.6555 14.0826 18.8477
Au 17.6828 20.7392 13.1089
Pt 7.61699 20.6523 32.461
Pt 4.31422 21.735 20.5451
Pt 8.77778 26.1658 21.6706
Pt 21.226 25.9713 17.2666
Au 10.5 41.8042 22.0308
Pt 22.508 9.95048 11.7451
Au 3.11069 28.6099 19.8318
Pt 6.04861 18.4655 31.4774
Pt 13.1482 16.3743 25.83
Pt 19.1633 12.5601 21.6172
Pt 21.3061 30.888 5.27299
Au 20.8122 6.90721 22.9292
Pt 21.8548 42.2279 10.259
Pt 27.4151 30.8979 16.9764
Pt 8.25227 33.9073 20.637
Pt 24.3548 41.5578 37.905
Pt 9.19592 20.7573 20.9515
Pt 9.21906 36.6287 32.7077
Au 32.3801 18.7096 42.1421
Pt 14.8479 25.3332 34.1704
Pt 17.271 11.6314 32.6152
Pt 24.9379 23.7271 35.8102
Pt 21.3204 11.2368 31.4177
Pt 11.7369 14.1848 37.182
Pt 29.617 14.5779 37.5332
Au 22.5766 4.39731 33.906
Pt 20.1622 14.961 19.9039
Au 3.24133 18.941 31.5033
Pt 41.1752 21.4108 35.7202
Au 22.4452 31.6359 2.98709
Au 9.46822 27.4692 43.1261
Pt 14.5161 16.4958 39.1226
Pt 14.1125 35.7956 18.5518
Pt 34.4017 14.8498 30.1572
Pt 22.247 10.0932 37.9333
Pt 23.0883 44.1445 20.59
Au 5.25707 31.787 24.3301
Au 21.0207 32.9571 7.3734
Pt 19.3518 22.2817 39.2504
Pt 15.0266 19.978 5.6301
Pt 14.6731 36.194 26.9247
Pt 27.4935 8.7837 19.6856
Pt 22.2911 28.5166 31.8506
Au 13.5478 26.3529 5.81423
Au 17.4812 44.6827 36.9102
Au 23.6369 7.6403 37.8037
Pt 10.844 18.0028 34.6556
Pt 12.4646 20.7081 11.85
Pt 28.8032 30.1267 26.8629
Pt 39.6686 18.754 30.6462
Pt 30.3667 12.3636 27.2834
Pt 7.06059 22.6172 28.4082
Pt 21.534 29.0844 36.3509
Pt 31.915 15.364 29.7949
Pt 23.8583 22.2725 16.0267
Pt 19.0838 14.7247 39.8677
Pt 10.6146 25.0431 28.1399
Au 31.8171 45.8598 14.8408
Pt 13.4257 36.6476 38.2272
Pt 21.0543 37.0843 30.0357
Pt 25.7961 10.5504 25.1417
Au 3.85411 23.534 16.9986
Au 11.7843 16.0598 39.1754
Pt 18.0749 24.3477 40.382
Pt 25.5187 26.9487 14.9123
Pt 25.0138 9.95078 38.418
Au 31.1354 7.93828 35.7933
Au 8.51159 27.6104 38.4401
Pt 7.79756 32.5333 37.7123
Au 35.6765 3.73584 26.0689
Pt 13.5373 30.2163 10.9136
Pt 10.6214 20.8132 13.9582
Pt 13.8803 27.8533 36.8252
Pt 25.4167 33.6573 12.7471
Pt 15.5726 33.7318 32.5343
Pt 19.2977 23.5481 17.5516
Pt 24.7768 35.14 22.6401
Pt 19.2653 14.6896 17.0454
Pt 15.9591 21.3097 36.5734
Pt 3.60369 26.0444 30.0554
Au 31.63 23.5499 6.06106
Au 23.1986 33.5907 42.8476
Pt 18.6362 20.1657 23.0105
Pt 17.7158 30.2729 35.1395
Au 14.7539 9.31474 36.3029
Pt 16.4848 22.1429 39.4792
Pt 31.8746 21.0804 18.5427
Au 39.8676 9.80211 26.8906
Pt 27.4007 6.36852 16.6288
Pt 20.1281 39.1572 32.4907
Pt 20.237 39.211 20.6548
Au 35.83 26.3083 44.3311
Au 37.8745 13.9396 28.5931
Au 22.1628 48.7871 27.2414
Pt 33.9653 16.04 22.9554
Pt 21.8509 12.112 22.8464
Au 8.10372 21.6213 13.5848
Pt 20.2641 11.1284 17.4948
Au 37.598 17.506 45.3305
Pt 11.0373 34.9913 33.8737
Pt 25.6304 26.5332 17.5856
Pt 20.8151 32.3308 23.5043
Pt 20.4861 21.1379 41.3444
Pt 23.2334 46.5282 19.1584
Pt 32.3389 12.2665 20.3616
Au 6.91037 39.0695 22.0876
Pt 8.38577 27.7539 31.2931
Au 23.0676 8.43502 21.8252
Pt 21.1086 18.7339 45.4524
Pt 35.7748 34.3223 34.3359
Pt 33.0655 42.1845 35.2564
Pt 40.1852 9.90692 31.8821
Au 14.289 22.7026 46.6286
Pt 35.8432 18.4376 18.8464
Pt 14.8551 25.3059 9.35757
Pt 17.7909 22.9658 25.5482
Pt 12.6639 30.7622 19.4297
Pt 10.2181 17.1025 24.9229
Pt 34.9465 21.3831 23.3277
Pt 23.8085 38.8353 12.1199
Pt 12.5629 18.657 32.4385
Pt 11.7709 28.2258 20.0475
Pt 28.5111 29.4017 24.3616
Pt 27.2891 13.7062 18.8295
Pt 6.41062 31.3275 26.8664
Au 43.0989 14.4265 27.3332
Au 36.5306 21.6349 43.7155
Au 27.9203 19.8495 0.89542
Pt 16.3943 26.7475 14.3044
Pt 20.2241 36.6271 32.8923
Au 1.48934 23.9594 23.1155
Au 15.8458 19.0863 8.0269
Pt 28.093 26.9767 11.4125
Pt 11.0449 27.8352 28.1369
Pt 28.7437 38.2438 28.0794
Au 23.3456 26.0682 44.8915
Pt 28.8143 27.5104 32.8569
Pt 26.9314 42.1417 14.692
Pt 19.1526 30.3715 14.7172
Pt 17.1799 24.2958 29.75
Pt 23.1809 15.4336 42.1175
Pt 12.1529 24.2161 18.2811
Pt 14.5373 21.2689 21.3184
Pt 8.30828 13.9803 31.7755
Au 15.9336 34.6846 6.3932
Au 37.0333 21.0027 37.9162
Pt 17.5061 10.9674 13.7208
Pt 8.95878 20.24 18.172
Au 22.3967 45.6757 25.3144
Pt 16.9402 15.9377 38.4547
Pt 21.213 44.8758 18.6629
Au 9.90752 39.29 15.5979
Pt 9.33959 29.8034 23.585
Au 22.3156 14.3593 44.4621
Pt 14.345 41.096 24.3528
Au 2.40087 27.7337 35.2713
Au 7.1644 13.4543 27.4982
Pt 9.76495 17.668 17.445
Pt 24.8652 16.0482 30.7748
Au 35.0032 45.1417 29.4203
Pt 18.1565 35.977 24.3842
Pt 13.544 16.2614 20.1175
Pt 19.5028 36.562 40.7733
Pt 30.2422 28.2292 15.243
Au 11.7546 11.5004 12.5181
Pt 10.6794 32.9303 19.8623
Pt 22.6025 36.8696 10.7186
Pt 30.2588 42.1492 20.3159
Pt 11.5366 26.5945 17.4954
Au 14.458 35.3377 44.741
Pt 16.3184 19.262 38.4445
Pt 24.7883 30.8758 29.8358
Au 3.77573 16.0771 24.503
Pt 12.5317 21.8407 36.6413
Au 3.66633 25.6712 37.0728
Pt 40.8964 36.6045 27.3053
Pt 10.0189 31.0297 13.7082
Pt 33.8392 25.0635 17.5795
Pt 25.5778 15.9205 18.6647
Pt 5.35173 34.5004 34.0271
Pt 24.152 16.9037 36.8414
Pt 10.2902 20.4786 41.5499
Au 27.3578 18.6601 39.5335
Pt 6.47501 28.7361 27.462
Au 43.6337 33.1659 34.2853
Pt 19.4963 16.9476 38.1118
Pt 16.4989 19.7021 17.5423
Au 15.024 40.8924 38.7657
Pt 17.6646 38.024 32.9639
Pt 28.2652 26.486 18.5445
Au 21.0274 12.789 12.6071
Pt 14.5342 36.5082 21.3585
Pt 25.5654 18.0548 32.4213
Pt 12.1366 21.977 29.9613
Pt 29.6667 19.9779 19.7367
Au 4.02059 20.3174 16.2182
Au 3.94127 19.147 24.7032
Pt 8.48537 20.0197 39.3459
Pt 11.4462 39.4666 17.9536
Pt 13.7163 29.2452 31.7259
Pt 20.7963 23.9905 15.4773
Au 43.7485 26.8568 22.0302
Pt 15.8957 16.8162 26.637
Au 28.0692 23.0274 15.1743
Pt 18.6437 20.6275 25.8393
Pt 22.3401 38.2098 17.1826
Au 44.5288 33.7114 24.3638
Au 38.7686 10.1645 40.3248
Au 43.2093 14.4887 31.2155
Pt 30.5336 9.5309 33.7183
Pt 29.3751 38.3001 17.9179
Pt 27.0391 5.08671 28.6671
Au 41.2323 9.76537 21.8539
Pt 27.3429 38.5446 22.5146
Au 46.258 21.7544 20.542
Pt 24.7563 31.7759 25.9333
Au 12.4663 37.0192 40.8091
Au 41.4491 22.4391 44.0407
Pt 10.5517 26.312 30.457
Au 1.81588 30.5394 30.2408
Au 33.8881 21.9965 6.19129
Au 25.6966 15.2517 7.28533
Au 2.37306 22.8119 27.5755
Au 8.42678 40.8202 20.5978
Pt 37.2843 40.9651 23.2607
Pt 24.7475 29.1431 27.743
Au 41.2508 12.0565 36.3048
Pt 24.505 15.1073 16.4071
Au 13.4661 41.1686 18.6734
Pt 12.7714 26.5358 31.8882
Pt 26.327 29.7224 25.7142
Au 15.8182 8.47498 21.9119
Pt 17.4903 38.7402 20.7547
Au 18.0012 47.7051 30.2779
Pt 12.795 16.9877 36.8615
Au 26.8472 21.0256 3.1139
Au 42.3481 38.8768 14.2082
Pt 11.2642 30.5127 28.4078
Au 28.7509 2.83971 28.1451
Au 38.5 31.5582 14.5928
Au 25.3154 31.9258 41.7709
Pt 5.50019 27.1222 32.1756
Pt 17.107 23.9688 9.80562
Pt 23.5413 12.0989 39.119
Au 36.1246 26.2849 33.5067
Pt 19.3073 32.8131 16.254
Pt 18.2156 15.1187 21.7732
Au 41.9683 22.1853 24.1653
Au 9.5254 12.4306 37.8625
Pt 14.7757 24.4401 18.2011
Pt 9.6999 38.9443 22.2015
Au 4.30607 31.1204 31.2342
Pt 12.0438 30.5089 23.5416
Pt 22.2879 25.2805 10.8546
Pt 7.45935 14.1387 34.196
Au 32.0399 11.4174 40.3274
Pt 16.7144 31.9783 8.02652
Au 1.04068 21.9626 34.9942
Au 42.1811 40.5401 11.7827
Au 39.3113 35.2171 4.72618
Pt 18.8444 34.354 12.3939
Pt 20.9792 43.5269 12.7141
Pt 16.0116 30.7012 12.0714
Au 46.253 31.0922 20.7687
Au 36.371 30.7532 13.0094
Au 23.1911 20.0584 6.78147
Au 6.80677 14.9847 22.3532
Au 20.6443 10.9536 7.53244
Au 41.9944 31.4059 11.4028
Au 21.259 27.9195 44.8357
Pt 13.397 33.1156 18.8889
Au 22.3132 29.2562 47.0334
Pt 30.5265 17.1598 19.1815
Au 15.3791 8.00984 33.6473
Pt 22.5156 12.4216 41.9204
Au 32.5784 29.808 7.35959
Au 11.4752 40.9286 33.1223
Pt 10.284 13.6108 20.0745
Au 29.0417 14.6489 46.0215
Au 30.0576 18.5065 40.498
Au 34.4705 34.8407 3.92759
Pt 5.51455 25.6841 23.8883
Pt 26.0396 22.3336 31.1252
Au 20.1691 46.5132 26.5783
Pt 14.3473 19.0869 27.0037
Au 1.37488 28.5893 32.2903
Pt 12.2701 17.4205 23.295
Pt 11.3912 22.9995 41.0279
Au 30.1979 19.2692 48.0329
Au 21.5591 23.5789 47.4994
Pt 23.1598 23.3584 30.9887
Pt 6.64823 21.7731 21.7297
Pt 38.3483 28.0554 41.0082
Pt 9.66148 28.2578 16.6511
Au 6.08888 14.8748 25.3586
Au 17.057 11.0116 22.6598
Au 40.938 26.9887 9.37904
Pt 12.4779 13.3899 31.627
Au 33.7566 46.4501 25.0892
Pt 9.25416 23.4227 21.6468
Au 31.7384 19.7875 44.6306
Au 19.5349 8.8611 40.9736
Au 35.9213 26.159 23.0125
Pt 13.6344 34.3119 34.2533
Pt 21.6708 27.1273 34.2492
Au 37.739 20.6296 18.7435
Pt 4.10718 24.4881 34.5908
Au 31.5012 3.08558 21.2709
Pt 27.0637 17.4938 30.329
Au 32.6576 24.9032 15.016
Au 20.1364 7.55727 20.3548
Au 16.1677 26.8716 4.9114
Pt 30.9006 39.9118 28.4435
Au 44.3775 12.5515 19.1814
Pt 23.5588 29.8395 11.473
Au 10.6143 9.9938 26.2279
Pt 26.4709 22.4651 23.2289
Au 29.9988 26.35 3.68788
Au 33.3496 19.6809 8.38895
Pt 25.9635 7.50851 28.918
Au 41.3491 25.7484 34.3567
Au 25.6702 6.89247 12.4429
Pt 13.3895 36.2648 32.4637
Pt 12.7366 16.9554 30.3958
Pt 24.7429 13.2176 42.9528
Pt 35.3219 42.5194 28.192
Au 13.8442 28.0962 46.2046
Au 6.27074 24.7556 12.2181
Pt 12.5555 33.835 31.7371
Au 16.913 7.65998 36.1378
Pt 23.9952 10.6937 27.1383
Pt 10.8139 12.4446 24.9828
Pt 14.7778 18.0591 24.4868
Pt 12.486 23.264 27.405
Au 4.50127 29.0588 23.3482
Pt 17.0194 29.4188 6.991
Pt 32.3592 11.8662 25.5169
Pt 28.684 46.3653 23.3603
Au 34.5851 18.1478 49.0172
Pt 10.6339 32.2492 33.1281
Au 1.66224 21.2382 32.2163
Pt 28.2338 29.54 21.7361
Au 46.3987 28.0374 17.0534
Pt 25.3659 42.8438 30.605
Au 30.6134 29.8279 42.4805
Au 17.6329 21.6196 7.91564
Au 37.5651 28.5379 29.2178
Pt 15.7963 33.8434 27.7447
Au 45.2287 24.5213 26.0423
Pt 18.1505 34.2404 20.2991
Au 39.6673 37.5545 19.4168
Pt 14.3995 21.541 28.0228
Au 43.9786 21.4506 35.574
Au 34.019 29.2846 35.6458
Pt 16.7758 29.313 14.3186
Au 45.099 33.2898 21.8056
Au 47.9606 19.9906 30.9764
Au 22.72 35.5382 5.61757
Au 30.7533 40.1932 42.632
Au 36.5128 25.8105 28.8186
Au 39.2491 41.97 25.8171
Au 39.0944 29.4949 26.2883
Pt 23.9408 33.3443 33.8288
Au 35.9422 18.5765 38.9187
Pt 12.948 18.6235 39.1141
Au 43.3165 29.327 20.6708
Pt 12.6738 24.6457 29.8229
Au 36.5688 13.7737 12.6043
Au 8.66807 32.329 41.9917
Au 15.219 17.642 16.2807
Au 5.52122 36.4727 37.9771
Pt 23.1848 8.96808 31.3742
Pt 13.0202 15.8248 32.687
Pt 5.9696 18.0776 35.1788
Pt 26.7292 17.1437 34.8589
Pt 30.0673 12.6012 21.5021
Pt 27.4123 45.8449 33.0202
Pt 8.93528 30.3502 39.521
Au 31.4859 47.9649 26.1744
Pt 31.423 41.665 37.3805
Au 28.6077 6.46291 30.6319
Pt 22.2743 23.6013 27.7688
Au 28.1965 40.5729 7.09984
Au 30.1103 30.9368 8.40893
Au 42.1174 26.2369 16.5645
Au 21.4719 20.0817 9.25347
Au 36.4134 15.7367 18.2716
Pt 12.9322 10.8935 30.7575
Pt 17.0754 29.6328 24.891
Pt 25.942 31.0276 12.4434
Au 38.5109 38.3973 10.2518
Au 30.2479 28.6763 47.2612
Au 43.3477 31.1612 22.9717
Au 39.2185 32.2455 4.84675
Au 29.3478 26.1493 8.63177
Pt 6.03522 22.5264 33.5603
Au 32.8673 17.5208 39.7388
Au 32.926 12.3789 45.4469
Pt 25.4022 24.1309 14.3349
Pt 25.2401 28.7239 7.00974
Au 18.6827 44.809 14.4066
Pt 18.3669 33.9031 7.23577
Au 36.8911 10.8177 38.2014
Pt 16.538 12.1352 25.2878
Pt 6.05084 23.0472 23.9163
Au 25.0704 30.1468 46.9634
Au 31.9978 28.8851 44.8337
Au 5.39513 30.8479 37.7741
Pt 25.8344 40.2948 35.9309
Pt 43.1151 18.9373 29.5639
Pt 18.2559 35.8871 34.6529
Pt 3.85342 21.5846 23.1609
Au 22.7633 5.98715 12.8407
Au 30.8276 47.9367 28.9045
Au 39.1756 12.471 38.7156
Pt 28.9345 31.7524 23.2282
Pt 25.9197 29.6958 14.8206
Pt 16.1326 26.8548 18.6979
Pt 9.3539 33.1073 15.1458
Au 20.9695 7.81557 38.7322
Au 10.126 30.1077 42.5102
Pt 13.5458 26.3328 19.5128
Au 21.1431 13.5393 29.8563
Pt 18.1988 34.9201 17.7314
Au 23.8216 4.3115 25.0246
Pt 20.6023 41.2702 34.2609
Au 7.0424 13.9556 36.9991
Pt 28.5404 21.6992 29.8589
Au 37.085 29.2373 15.3581
Au 6.44324 21.7008 40.4742
Au 11.2316 13.9618 11.4669
Au 32.472 11.1089 34.6101
Pt 21.8553 27.6229 12.1595
Pt 23.2978 21.4485 28.924
Au 35.867 13.3857 38.0276
Pt 25.2628 46.4071 17.4109
Au 19.8202 48.7321 28.5814
Au 14.516 30.0959 8.20629
Au 21.9453 40.9919 13.1631
Au 11.3333 37.8439 33.7937
Pt 22.2207 23.1361 20.3759
Pt 20.8968 36.7725 24.8938
Au 27.4222 24.4263 9.56258
Pt 13.1558 27.0438 24.4622
Pt 30.8666 14.2018 25.422
Au 14.0927 44.8762 27.5762
Pt 23.1139 28.0982 21.9227
Pt 16.9976 33.6094 30.1606
Au 38.4154 27.4702 47.5046
Au 28.8871 33.8981 45.8733
Au 37.1001 10.2156 42.7061
Pt 32.0504 34.9297 33.1775
Pt 12.0326 40.008 23.3138
Pt 19.0002 12.3589 26.3425
Pt 14.7876 31.0197 14.4069
Au 26.3221 3.86301 16.065
Pt 15.8174 35.7498 34.2589
Au 29.3674 24.3945 11.4759
Pt 25.5888 28.2012 12.4861
Au 7.93272 17.3298 38.5902
Pt 23.9731 39.9093 28.2043
Pt 16.307 20.2289 29.8955
Pt 22.6931 18.7842 27.8788
Pt 21.6447 44.4708 22.7778
Pt 9.57183 33.4243 35.6401
Pt 19.086 25.9629 15.335
Pt 16.0098 42.7114 31.332
Au 16.1745 41.0087 19.5418
Au 39.3342 11.7428 21.6641
Au 17.9419 13.5351 41.9359
Pt 23.7959 13.751 29.8688
Au 24.726 33.5002 3.27515
Pt 33.017 33.7458 20.9136
Pt 15.0858 32.184 10.0599
Pt 17.8082 42.5916 24.3667
Pt 14.2949 38.842 37.181
Pt 11.8568 39.6536 20.6385
Pt 17.0469 31.7165 21.0066
Pt 21.5878 15.3397 37.575
Au 31.3872 41.1862 10.0506
Pt 17.6259 28.8897 32.8598
Pt 6.65582 25.0643 33.5412
Pt 22.613 13.6893 20.62
Pt 8.26612 18.4651 33.6936
Au 26.429 48.2868 28.1992
Au 35.4535 44.5914 24.0943
Au 31.5918 24.7535 9.5085
Au 40.5327 20.3574 12.9211
Pt 12.1926 32.5032 14.5952
Au 17.4082 6.12021 33.9823
Pt 28.4814 34.7243 29.571
Au 14.8217 38.3433 39.9806
Pt 26.3564 37.5901 36.1165
Pt 17.805 31.8728 37.1812
Pt 14.5906 10.0382 28.7596
Au 33.0468 24.565 44.7059
Au 29.2318 7.03313 33.4144
Pt 30.0338 38.8022 34.7349
Au 23.7308 36.4105 43.8063
Pt 16.9887 19.2159 27.5147
Pt 30.2735 22.6096 19.9947
Pt 18.0496 37.1717 15.994
Pt 25.8417 35.7167 29.5577
Pt 32.0958 27.8504 23.9455
Pt 19.0009 29.5959 20.8777
Pt 26.3017 41.6966 17.9331
Pt 22.0305 41.6242 27.5184
Pt 32.6275 10.9761 22.7653
Pt 31.62 18.8208 36.0167
Au 30.614 21.5764 36.4119
Pt 4.03165 29.1134 33.3413
Pt 19.9455 29.2811 25.23
Pt 30.3131 10.8954 16.4806
Au 17.0742 28.1098 11.8506
Pt 27.9986 16.8269 18.525
Au 3.02795 26.4261 32.8829
Pt 10.8082 36.6908 38.6679
Pt 29.4588 28.492 30.2439
Pt 19.5341 16.2404 35.5171
Pt 21.032 29.6879 22.8526
Au 22.9994 15.349 6.58375
Pt 20.4569 8.84054 32.0179
Pt 24.6521 17.917 20.3396
Pt 13.2378 19.918 14.271
Pt 24.4399 10.0348 16.1458
Au 27.0086 8.09639 10.3662
Pt 7.87895 16.5708 24.2067
Pt 19.3238 19.4839 20.4464
Au 27.3001 19.4453 48.5831
Au 25.4586 29.065 42.0177
Pt 28.8119 17.0863 4.22118
Pt 10.377 26.2179 25.8702
Pt 23.0415 16.9734 32.9553
Pt 13.8075 32.4345 12.4407
Pt 17.6356 14.6381 26.3518
Pt 37.5056 24.8803 25.0571
Pt 23.4568 16.3011 39.6459
Au 2.66 23.8075 19.507
Pt 16.4841 29.2039 21.9174
Au 9.7039 11.0159 19.9788
Pt 24.421 13.506 18.5631
Pt 16.6407 19.5029 20.3224
Au 8.39239 11.4973 26.011
Pt 3.52127 25.3019 27.224
Au 41.93 14.4297 40.6702
Pt 7.56673 27.6885 33.8146
Au 23.1572 32.812 5.4538
Pt 36.2511 8.45077 20.9542
Pt 36.3048 23.994 31.9657
Au 32.5115 31.4523 43.8912
Au 9.43332 20.7886 44.2727
Au 22.8529 17.9217 47.7694
Au 38.0325 34.0802 6.67595
Au 30.2715 18.6525 5.82196
Au 33.1074 41.8749 8.07438
Au 11.9499 19.6266 44.0617
Au 4.02593 34.9175 36.4667
Pt 11.7383 15.2045 21.6937
Pt 15.4374 17.3004 36.704
Pt 28.5279 42.2441 30.555
Pt 32.2466 25.2003 30.5201
Pt 27.6246 10.3098 37.5745
Au 8.35455 40.521 26.3734
Pt 15.043 18.7033 31.8908
Pt 7.67915 22.0257 25.9277
Pt 10.2489 30.134 18.5105
Pt 24.72 44.0902 26.0426
Au 22.4883 20.4329 2.33865
Au 1.22344 25.2169 28.5591
Pt 27.1305 36.1991 41.2312
Au 38.8905 37.7279 5.74233
Pt 13.542 24.1012 12.4351
Pt 26.9807 39.4206 38.2428
Au 43.5327 35.7118 22.7686
Pt 20.0748 18.4715 24.5522
Au 41.7956 25.6112 11.6283
Pt 5.85368 26.1428 28.1424
Au 43.8958 38.3373 16.6535
Au 31.3327 13.562 11.2521
Pt 24.8273 15.1662 21.0865
Pt 25.9755 6.49738 18.8154
Pt 24.3118 29.056 24.2088
Au 40.1613 41.1201 28.423
Pt 4.46762 30.4637 28.6902
Au 18.5557 8.67621 22.5399
Au 32.5194 40.8581 15.1666
Au 40.4007 32.0102 32.9012
Pt 29.5627 9.82753 26.8825
Au 17.0371 41.0737 12.3659
Au 25.7805 28.2072 2.29431
Au 15.5866 15.8513 7.37214
Au 19.3119 27.5162 46.6413
Au 38.7112 11.1571 36.2441
Au 33.0224 43.9179 37.3977
Pt 18.4991 7.25569 26.223
Au 2.24431 31.1241 33.0565
Pt 33.673 17.3108 29.0929
Au 40.9789 15.6642 19.4354
Pt 21.9654 14.0897 39.9083
Pt 20.3895 17.7624 31.7211
Pt 21.5571 8.35992 35.9104
Pt 27.787 7.96932 22.2873
Pt 19.77 10.3535 14.9666
Pt 32.1757 8.94292 26.8271
Pt 15.1437 40.9535 26.9356
Pt 10.1512 23.3532 14.6087
Pt 6.85737 30.9636 29.9043
Pt 8.67836 28.7528 21.0781
Au 40.2862 40.379 9.73896
Pt 24.6458 33.9149 16.8257
Pt 21.5768 30.0994 20.2821
Pt 26.8756 40.4167 31.7042
Pt 12.4137 40.0142 25.969
Pt 16.1764 31.7366 23.5241
Pt 17.6092 43.3358 21.9119
Au 41.2303 30.921 14.0371
Au 25.3207 17.2445 41.48
Au 47.7977 20.4163 28.3285
Au 46.2983 19.5062 26.1384
Au 35.188 27.2373 3.91483
Au 40.2971 23.3917 22.3061
Pt 35.6936 27.3136 19.4639
Pt 12.8811 31.145 26.3201
Pt 34.9397 5.75772 23.7594
Pt 13.8573 22.611 16.6147
Au 40.7173 10.3133 38.3735
Au 42.3729 36.0993 12.661
Pt 13.4913 34.1432 16.3735
Au 39.8757 11.8873 28.639
Pt 21.7197 37.2852 19.6385
Au 41.5187 29.0979 16.0061
Pt 16.8386 22.2433 27.983
Pt 10.8526 23.6358 31.5699
Pt 13.6828 22.8889 23.2145
Au 38.225 19.5871 5.87761
Pt 34.3872 22.276 33.2428
Pt 24.3907 37.1611 41.2349
Pt 11.8084 20.717 21.1791
Au 25.4416 24.0165 45.1938
Au 19.4957 43.467 38.5216
Pt 14.4277 29.6833 24.5198
Au 12.3537 10.3725 24.2277
Pt 15.3351 33.5144 14.6861
Pt 11.3346 25.1272 33.8252
Au 7.52038 16.3216 30.532
Pt 28.9122 35.746 27.2119
Au 19.9519 25.9118 26.0037
Pt 18.2703 36.5752 8.58062
Au 7.81415 11.9139 29.9083
Au 29.3884 14.8021 43.1617
Au 46.8839 36.0029 18.7675
Au 28.7784 21.4684 12.8053
Au 6.45949 35.9686 23.799
Au 11.0174 12.4169 17.6502
Au 18.7755 5.18526 24.3531
Au 33.4506 22.8973 3.63984
Pt 19.4075 34.8002 29.4075
Au 22.567 17.6968 8.15785
Au 35.3111 20.5313 4.29979
Pt 7.22372 17.5608 18.269
Pt 23.2196 29.2046 8.73408
Pt 18.1396 34.666 39.103
Au 35.4562 17.8016 14.2668
Au 2.88747 17.685 22.4926
Au 26.3698 26.9257 8.99247
Au 34.8375 10.6219 30.3013
Au 37.9591 44.4596 25.7316
Au 30.566 28.9687 2.24947
Au 35.5779 27.2338 1.20694
Au 28.5542 13.885 11.2496
Pt 15.4547 31.2654 18.8658
Pt 17.6868 42.2387 26.9698
Au 11.2135 11.8712 35.773
Au 33.6701 4.57341 30.9847
Pt 31.2028 33.5637 35.2673
Au 35.2121 17.025 46.5623
Au 17.963 15.5124 11.6472
Au 21.7731 30.7028 44.7527
Pt 25.6646 28.9438 21.8006
Au 26.4654 19.2016 43.6994
Au 32.9165 5.80225 35.5569
Au 28.8854 39.8726 40.7377
Pt 14.4074 29.2028 40.9934
Pt 14.2773 14.8817 36.0425
Au 34.324 13.6476 43.221
Au 9.98012 34.1249 43.5377
Pt 35.1245 28.8686 17.2782
Pt 18.7682 14.3792 37.338
Pt 20.7479 28.454 15.893
Au 2.46405 19.554 20.5932
Pt 19.1245 37.1266 27.95
Au 22.954 24.9568 5.62965
Au 11.2407 36.231 30.8588
Au 41.7061 8.56322 19.0376
Pt 32.5247 22.3856 30.7004
Au 14.808 24.2612 4.67761
Au 18.682 18.0188 12.5663
Au 31.7764 32.912 7.5142
Pt 14.2182 26.5218 16.6101
Pt 23.0644 15.9442 28.3326
Pt 30.5203 36.7193 29.4934
Au 13.6772 37.9919 13.3359
Au 42.5009 37.929 31.3007
Pt 7.38194 36.3531 19.1846
Au 36.1722 31.7813 35.3252
Au 23.0651 31.9631 46.8802
Au 5.19608 37.5525 20.7493
Au 11.1862 22.2758 7.06741
Pt 30.9773 32.1535 37.5655
Au 45.8388 25.0998 13.7438
Au 34.0007 16.2242 34.6229
Au 29.4171 22.7207 42.2277
Pt 11.8596 29.728 33.4903
Au 45.3666 23.6116 36.6474
Au 20.0042 40.9772 8.70423
Pt 19.0562 28.5384 8.62474
Pt 16.8303 38.2297 23.4398
Au 40.1117 27.4453 45.4085
Pt 20.1818 33.9844 33.9057
Au 33.9026 31.3162 46.1218
Au 39.1457 22.9737 31.3292
Au 29.122 13.8577 4.47642
Au 34.6162 5.70258 33.3483
Au 44.6408 11.9177 27.3152
Pt 13.9513 12.8452 29.3225
Pt 25.1609 15.503 33.6435
Au 19.3498 33.7679 47.331
Pt 33.5768 35.4692 35.2872
Pt 16.2562 31.2185 32.9923
Pt 22.0342 23.481 35.642
Pt 11.0073 19.3439 29.8791
Pt 32.2229 6.6056 20.3764
Au 35.8743 44.4763 21.2999
Pt 9.9566 18.3432 27.2227
Au 1.61943 27.2191 26.6888
Au 12.2082 24.7903 15.5566
Pt 18.6435 27.9163 23.2582
Pt 19.1653 31.421 8.91953
Au 10.509 9.63551 31.0568
Pt 23.2326 21.3286 22.9945
Au 8.80172 39.9712 29.1386
Pt 13.0524 24.5674 35.8622
Pt 30.6235 42.2545 22.8359
Pt 8.95576 22.7453 42.3012
Pt 16.7858 45.0417 23.9175
Au 34.9808 32.2344 3.08234
Au 12.3741 15.964 12.9856
Au 41.6567 35.9748 18.3897
Au 35.2621 38.7075 14.238
Au 41.7688 33.6264 14.0639
Au 22.6455 40.4613 8.18939
Pt 10.2741 31.006 25.7982
Pt 19.1138 34.2499 9.66555
Au 38.3923 16.112 43.1018
Pt 16.5228 36.3958 19.406
Au 35.1406 31.9709 10.8519
Au 28.3559 21.7123 9.97591
Au 34.915 11.8876 35.9053
Au 32.5994 22.1862 38.1298
Au 30.5637 43.8818 38.7422
Pt 7.08666 36.5849 34.1756
Au 25.5036 17.2234 48.5784
Au 32.7885 15.8729 47.2324
Au 30.6989 5.90709 37.4559
Pt 5.36193 21.7114 18.2042
Pt 13.1633 27.4703 34.2878
Au 29.0591 28.7406 4.48762
Pt 26.8459 18.33 25.8095
Au 33.3834 23.7364 47.2549
Pt 20.7445 46.8922 23.5953
Pt 12.3337 24.3597 10.0407
Au 17.6087 25.5666 45.6962
Pt 15.4778 31.6503 26.1951
Au 15.5244 11.7521 11.907
Pt 19.8755 29.6857 31.3413
Au 23.0292 24.7419 42.3894
Au 12.524 43.0342 23.4391
Au 28.7528 24.8476 5.9293
Au 11.1122 18.434 12.6769
Pt 18.122 22.3168 42.2206
Au 22.0681 13.3155 8.326
Pt 12.0958 32.6626 35.4503
Au 27.2062 46.647 14.3583
Au 4.43365 19.0601 18.8232
Pt 29.9364 44.2969 24.3809
Au 26.906 44.0875 9.53927
Pt 20.6128 39.2914 27.6884
Pt 6.98299 30.5963 22.5251
Au 14.3602 6.96175 27.9248
Au 14.8811 21.8587 7.88909
Au 3.79331 18.6103 38.3901
Pt 16.0298 19.9822 23.0858
Au 47.2417 24.7106 31.1538
Au 10.6975 41.8005 19.239
Au 22.8263 36.4439 8.15491
Au 13.5544 15.1831 10.3482
Au 38.6029 25.2384 40.3562
Pt 13.1643 13.2996 34.2056
Au 39.8854 18.4965 41.8417
Pt 16.0866 34.1397 25.0669
Au 11.4915 19.1817 9.78866
Au 1.58494 24.8538 35.5373
Au 33.9856 35.792 42.9262
Pt 24.5193 24.4346 26.6411
Au 28.2492 31.1927 46.4338
Pt 20.1944 41.4281 31.2537
Pt 31.3374 18.5528 25.7186
Pt 17.2148 10.9052 27.6987
Pt 20.0223 28.1823 18.7042
Pt 10.2347 20.8504 25.6437
Pt 7.18732 21.9953 37.9008
Au 13.2603 12.3893 10.3646
Pt 40.4551 27.5182 18.2622
Au 15.9801 46.5073 28.8283
Au 35.1949 26.9839 8.77056
Pt 17.3189 26.6196 9.54156
Au 28.2122 10.8341 44.6121
Pt 16.3659 33.1521 40.8487
Au 2.61611 19.9163 26.9656
Au 36.4042 25.7074 47.881
Au 20.3376 20.2251 11.8041
Pt 22.6372 44.4174 27.7218
Au 25.7415 49.4506 30.996
Au 9.44898 38.4112 19.5378
Pt 8.80115 25.7062 35.243
Au 12.8281 31.2487 6.49258
Au 7.30191 12.7836 23.9173
Au 38.8797 36.7355 36.9824
Au 46.2824 15.4105 24.5991
Pt 30.949 34.1446 16.8985
Au 17.3091 45.3295 34.1552
Au 29.0795 20.9137 39.6093
Pt 24.0068 32.7546 23.6104
Pt 20.8044 25.3896 19.7635
Pt 8.4963 22.1813 16.53
Au 13.8686 45.1016 24.6676
Pt 26.429 25.0799 24.9767
Au 19.0751 5.01651 29.8854
Pt 8.96742 28.7466 26.5256
Au 16.4468 38.4518 12.603
Au 14.5839 19.302 43.4688
Au 16.6955 35.7581 41.4815
Pt 27.9408 16.82 27.9907
Pt 11.5681 22.5634 34.1069
Pt 27.3346 44.3445 35.1822
Pt 31.8059 39.1228 30.6684
Pt 24.5769 18.9155 39.1145
Pt 13.7616 32.4571 24.133
Au 10.0633 27.9887 40.5295
Pt 7.61295 22.3696 19.3105
Au 13.3398 39.6086 34.609
Pt 26.1818 45.9999 22.7036
Pt 20.3793 32.2918 11.129
Pt 18.2957 21.3111 15.8833
Pt 23.1549 19.6193 36.6816
Pt 12.7556 35.0966 23.5589
Au 37.1312 31.6545 17.0246
Pt 22.5574 27.4972 19.2648
Au 25.6889 34.6867 42.9526
Pt 26.4649 29.3521 4.68526
Pt 18.4236 13.6269 23.9892
Pt 20.5509 32.9901 38.3455
Au 4.48118 18.6924 29.0087
Pt 15.064 36.3518 24.1256
Au 24.4828 27.514 47.1373
Pt 6.11945 28.302 29.9335
Au 8.05965 17.6017 41.1998
Au 5.61694 15.8344 28.115
Au 38.0454 8.47163 15.5523
Au 25.9632 32.7038 46.5828
Au 20.2406 31.2553 46.9418
Pt 23.131 27.4477 37.6721
Au 30.2391 24.4893 44.2321
Pt 11.7523 37.9704 36.4677
Pt 23.9751 27.3269 10.4624
Au 26.2024 23.0045 47.8872
Au 38.4326 29.561 36.7492
Au 7.48663 17.2592 15.5301
Au 22.5243 46.1076 32.757
Pt 13.5239 31.7811 33.2698
Pt 13.8303 20.0094 16.9478
Pt 21.105 24.8403 29.6369
Au 40.7132 9.62018 16.6504
Pt 24.6561 41.2701 13.4673
Pt 31.6414 38.5426 21.8085
Pt 16.3192 30.4101 39.6763
Pt 21.5938 41.7187 20.7748
Au 15.2329 14.0409 42.8692
Au 16.5816 14.3061 16.3911
Pt 36.6334 13.9768 20.343
Pt 32.9303 20.0433 32.5346
Au 9.57282 15.8755 12.5052
Au 24.5279 18.6898 12.9127
Pt 9.99469 22.4593 27.9625
Au 2.08683 28.4445 22.224
Au 21.3823 3.80305 26.3736
Pt 25.5601 5.72232 26.5309
Pt 9.79193 36.8238 23.939
Pt 20.3574 16.919 18.0992
Pt 5.33151 22.5425 36.1306
Pt 20.345 35.226 14.6826
Pt 12.1079 23.3908 21.0961
Pt 32.7136 13.729 27.6681
Pt 28.4598 14.4385 7.03857
Au 16.3901 5.54145 26.1354
Au 4.96091 14.396 32.7282
Pt 26.1241 18.6967 36.9108
Pt 33.2374 19.1736 17.3764
Pt 27.4646 14.6144 29.8833
Pt 18.8574 20.7694 28.735
Pt 37.8203 33.4754 20.6322
Pt 36.4136 17.2423 33.9511
Pt 40.7233 18.9663 34.3852
Pt 28.448 8.82055 35.4046
Pt 22.1424 25.9398 39.9268
Pt 23.2826 5.73531 22.328
Pt 19.9983 34.2144 25.014
Au 18.3917 8.23409 12.9771
Pt 31.8866 17.7929 33.6178
Pt 9.6644 20.6541 34.6507
Pt 27.3894 11.6101 23.1232
Au 44.0716 18.5684 38.4259
Pt 31.8863 14.6111 19.0457
Au 35.6434 5.60085 18.6428
Pt 25.606 12.9763 26.4087
Pt 19.4022 23.2118 36.2059
Pt 13.8806 17.4803 34.497
Au 29.3441 36.5722 4.69902
Pt 23.2074 7.05144 24.5744
Au 42.1456 33.8497 27.4579
Pt 15.3562 18.4802 13.6932
Au 29.6689 46.3356 13.1905
Au 27.4042 48.4554 22.1761
Pt 28.7847 7.77047 14.7791
Pt 24.1877 14.4219 37.91
Pt 14.8027 29.5857 34.3189
Au 32.266 24.6958 12.2107
Au 6.38839 12.1667 32.4348
Au 42.995 10.7686 17.733
Au 34.7034 6.50599 26.4501
Au 37.7548 30.0644 39.4173
Au 2.23331 20.643 29.5949
Au 13.9389 17.6901 6.20176
Au 26.9752 17.3956 11.8247
Pt 25.4461 12.6973 20.9586
Pt 19.3368 16.0151 24.5448
Au 33.4209 23.018 40.6317
Pt 20.9737 11.0001 35.832
Au 45.829 28.8278 11.575
Au 42.5349 26.426 36.7229
Au 38.5413 7.53311 31.9614
Au 44.1265 16.7964 36.0853
Pt 13.9003 37.2845 29.8469
Pt 10.3677 13.4226 33.5275
Pt 13.4493 12.8613 24.1619
Pt 5.9987 17.6326 25.9467
Au 14.046 11.1117 14.1463
Pt 28.2164 5.11894 26.1111
Au 42.1866 19.7548 10.7946
Pt 19.376 18.4869 34.058
Au 38.6547 12.1015 12.2305
Pt 25.7505 28.0529 35.8187
Pt 20.7508 21.2338 19.0477
Au 25.4893 11.0766 44.4248
Au 11.4681 9.78418 21.6484
Au 8.45268 18.4616 13.1091
Pt 22.7168 36.1399 15.4062
Pt 29.5195 25.1982 20.8301
Au 42.4533 34.7303 36.0938
Pt 23.1712 21.4498 34.5011
Au 12.4651 28.6408 6.81297
Pt 13.7985 30.0162 29.0164
Pt 20.8848 21.3447 16.3758
Pt 28.0597 7.43761 27.5632
Au 28.3856 15.0275 13.7479
Pt 12.2796 32.6741 21.8986
Au 24.5031 27.3103 4.76163
Au 39.6205 12.6275 16.555
Au 39.6874 13.8684 44.1209
Au 38.0351 24.5533 5.52575
Au 43.0205 16.9322 15.3151
Au 17.4995 29.5535 4.32544
Au 21.6837 24.5689 8.20673
Pt 8.78274 31.4105 27.9428
Pt 29.6807 15.1077 17.4704
Pt 28.0087 11.7053 26.0096
Pt 22.2005 16.6974 23.9259
Pt 26.2943 39.7924 20.1159
Au 12.1749 35.5735 43.138
Au 24.2157 43.2137 9.13903
Pt 18.0951 22.0917 30.8759
Pt 28.0352 16.7346 37.1327
Pt 10.1059 12.8361 27.5893
Au 34.5406 35.9794 14.0682
Au 48.9403 31.4771 20.5172
Au 6.83888 20.0716 11.7407
Au 20.379 29.1195 42.397
Pt 9.70637 21.5226 37.1483
Au 29.7889 23.8003 28.5388
Au 35.4628 10.4476 17.9165
Pt 31.6152 8.28708 18.3287
Au 29.6737 32.3364 41.452
Pt 19.5798 41.5155 28.6173
Pt 15.5219 21.7958 18.9559
Au 28.009 10.4079 9.34839
Pt 11.8137 14.4921 29.1759
Au 18.2517 12.6625 11.7556
Au 25.568 35.4216 14.9297
Pt 36.2154 13.6624 25.997
Pt 15.8583 36.7479 36.9865
Pt 20.6926 12.6168 38.1859
Au 42.0757 18.6606 8.3971
Pt 14.9279 21.056 12.5124
Pt 25.536 26.0522 37.6384
Pt 17.0349 26.7407 41.2794
Au 47.7247 17.8819 24.2503
Au 34.912 11.4248 13.2016
Au 24.646 5.68783 14.8476
Au 18.4066 5.96803 21.755
Au 43.6726 20.3563 19.602
Pt 4.5911 27.255 25.6969
Au 31.806 18.01 10.3708
Au 28.6181 20.322 7.46694
Au 43.4446 7.99954 29.3001
Au 38.9387 42.7547 14.2941
Au 20.1474 40.518 16.1091
Pt 15.2865 9.93941 31.6473
Pt 15.3468 27.3804 7.53433
Pt 8.68792 18.8951 36.4597
Au 27.0393 34.3204 10.5287
Au 31.5147 19.7311 38.5017
Au 41.993 19.9643 42.9569
Au 32.2737 37.3988 7.63408
Au 40.4956 20.5604 7.37851
Pt 13.4548 32.6309 28.5802
Pt 16.715 20.9273 44.2331
Pt 10.5053 27.4759 33.2248
Pt 5.74877 24.0505 26.4252
Pt 19.204 24.5348 31.5439
Pt 32.8062 15.4086 32.3176
Pt 5.41979 24.116 19.5892
Au 18.3971 11.9806 36.1828