3871
Atoms. Timestep: 21524
Au 8.04921 7.94302 22.1271
Pt 23.1444 17.5998 16.0548
Pt 24.7755 15.7211 17.1994
Pt 17.9118 9.61265 37.5253
Pt 15.0512 11.2089 33.3727
Pt 21.4997 26.9627 17.3921
Au 23.0161 4.97358 12.4929
Pt 9.20699 10.1409 23.2768
Pt 15.1029 19.6676 24.4787
Pt 16.9483 15.5364 32.3671
Au 9.42514 33.4516 40.002
Pt 4.33764 31.2712 30.5804
Au 19.3961 37.085 41
Pt 15.936 10.1644 25.5415
Pt 19.0886 22.2966 19.3921
Pt 24.3133 19.7958 34.8017
Pt 24.6465 23.2253 27.7764
Au 12.7739 10.1384 35.2189
Pt 14.365 21.9908 19.7769
Au 6.37913 12.072 30.9098
Pt 12.3978 28.0257 41.3408
Au 2.82003 32.7572 21.5367
Pt 29.1148 23.0384 25.2873
Au 19.3329 26.4558 47.1065
Pt 7.38073 24.3626 26.7573
Au 12.7842 11.2988 37.8279
Pt 18.183 31.8959 23.1049
Pt 18.5128 9.49251 26.0488
Pt 13.0288 17.9238 24.2094
Pt 17.3098 13.1336 34.4709
Pt 9.64649 13.7792 25.3895
Au 17.8014 19.6098 14.7962
Pt 15.0575 28.604 42.0035
Pt 11.2651 16.2294 14.9064
Pt 17.7673 19.322 8.78983
Au 14.0282 6.81714 15.1243
Pt 29.2869 6.75025 33.0572
Au 24.0335 24.9922 39.294
Pt 21.1935 22.8243 21.0498
Au 7.7105 8.40958 24.8132
Pt 18.778 19.8549 30.3723
Pt 16.5957 33.1268 20.9415
Pt 9.35966 19.7449 21.8065
Au 6.13066 12.3328 21.5397
Pt 22.0282 22.2081 13.196
Pt 7.33226 26.9065 33.9272
Pt 19.9878 10.6146 40.926
Au 14.2035 45.2951 21.6983
Pt 15.7041 10.7257 20.0241
Au 10.2975 10.7845 34.2569
Pt 18.4682 16.8736 9.52233
Pt 13.442 20.7556 31.5402
Pt 10.6329 23.8332 33.2721
Au 23.3336 1.75763 22.3362
Pt 15.3316 16.7674 15.9601
Pt 16.1047 16.1043 34.9684
Pt 16.1337 23.7835 20.3677
Au 11.0842 12.8076 11.9541
Au 20.6823 27.8892 12.5126
Pt 28.4673 22.3903 31.4591
Au 10.5196 12.2605 36.5233
Pt 9.93443 17.2402 31.423
Pt 11.2045 25.8738 19.0681
Pt 13.4257 15.3553 34.9802
Pt 9.04504 23.3109 13.7829
Pt 19.2815 15.7244 38.6024
Pt 10.9646 17.9093 25.9264
Au 15.9732 5.76172 33.8604
Au 2.55303 24.8561 26.7384
Pt 16.2803 17.6207 13.5626
Au 28.9789 21.26 47.6968
Pt 21.8776 36.0324 28.7954
Pt 9.77647 31.7444 22.617
Pt 18.893 15.3973 30.3839
Au 16.1043 34.0181 42.989
Au 29.9681 12.7878 44.0104
Au 22.146 2.28275 27.5118
Pt 15.9288 21.0626 37.3829
Pt 7.13116 32.0304 18.9049
Au 19.4769 6.54901 40.8311
Au 13.1005 18.3439 43.4749
Pt 9.06908 19.7737 31.7963
Au 26.5412 27.1595 22.7115
Pt 17.5333 9.93682 18.1421
Pt 14.1359 22.1604 8.73636
Pt 6.77818 23.2888 31.8909
Pt 20.2044 10.07 23.6023
Au 10.7334 41.9866 20.9855
Pt 15.5921 6.18817 23.118
Au 12.4817 7.02967 17.4735
Pt 20.2486 18.0274 34.0497
Pt 8.96701 25.3591 29.1099
Pt 7.84719 15.5448 30.3941
Pt 16.7883 42.2903 24.212
Au 5.99421 10.441 25.6274
Pt 19.2517 31.249 18.4871
Pt 19.0104 43.8678 24.0596
Pt 8.13641 23.9834 34.192
Pt 20.398 28.3118 28.5491
Pt 20.4735 13.7678 34.6159
Pt 7.83375 18.4037 29.9021
Au 34.0018 16.8672 36.5695
Pt 27.8425 41.9912 36.8357
Pt 9.11509 14.2655 28.0674
Pt 14.7422 12.0837 35.8952
Pt 13.3835 17.9749 35.1405
Pt 17.9116 19.5193 37.7414
Pt 20.9413 16.5396 23.8479
Au 3.11598 18.2501 31.427
Pt 23.5983 23.3622 19.8756
Au 23.5956 14.6797 45.8482
Pt 12.9606 36.7183 36.984
Au 20.0689 49.5863 27.9278
Au 7.31472 29.6508 40.1022
Pt 14.4126 16.4163 42.3454
Pt 10.1273 34.6508 21.2384
Pt 24.8517 9.68241 34.5812
Pt 29.5488 15.763 36.7092
Pt 30.8531 37.885 31.556
Au 7.48737 32.5385 38.2729
Au 20.2697 22.4473 4.2241
Pt 14.9993 22.0357 30.0143
Pt 15.8578 20.3839 12.8383
Pt 16.5444 38.7512 20.9851
Pt 22.1266 9.42992 33.9268
Pt 11.6462 22.5933 18.9441
Au 23.3095 19.7689 6.17283
Au 7.53951 39.8441 25.0345
Au 39.9423 39.9038 38.1315
Pt 14.1592 31.0702 17.142
Pt 8.88925 35.9283 25.4216
Pt 21.8353 30.7132 28.8529
Pt 21.3195 22.6236 32.8139
Pt 10.671 15.5419 18.8482
Pt 12.475 15.0184 12.6563
Pt 3.87705 32.5761 27.9679
Pt 12.4911 21.9494 40.7668
Pt 16.6126 42.4472 33.4396
Pt 18.952 17.6535 31.803
Pt 19.0262 36.8945 30.062
Au 12.6061 36.9715 12.3137
Pt 14.6413 31.9055 36.1352
Pt 21.0705 45.7533 24.9994
Pt 14.4732 20.637 22.1025
Au 6.42616 24.1397 14.165
Au 19.3951 14.7857 43.8821
Pt 15.2999 21.5395 40.2421
Pt 15.0989 28.3994 12.4409
Pt 18.4556 6.63998 34.3581
Au 4.12092 29.7661 17.5077
Au 3.42074 27.227 27.9957
Pt 10.7484 26.3415 39.9824
Au 26.7586 13.598 40.4242
Pt 18.5756 23.4538 43.5061
Pt 9.37368 31.2035 14.7627
Pt 19.4204 27.6553 42.215
Pt 27.2584 22.0436 5.00388
Pt 21.0837 22.7771 43.2396
Pt 13.9522 20.6844 35.814
Pt 17.0795 31.7228 39.1221
Pt 28.9553 42.313 23.1752
Pt 21.3276 14.8152 41.8589
Pt 13.4147 27.038 14.2999
Au 18.1557 20.819 3.50458
Au 5.56382 37.5837 32.0187
Pt 14.2684 18.292 8.77604
Pt 7.26648 20.6292 23.208
Au 10.5458 6.60651 19.5453
Pt 5.12176 21.3178 21.6992
Pt 4.51584 29.6568 32.6863
Au 11.2753 13.2617 39.1517
Pt 17.604 22.0356 26.2591
Pt 13.7927 39.5648 17.1825
Pt 23.1441 44.0676 35.315
Au 5.99102 34.6541 36.8667
Au 9.27564 8.38672 29.4276
Au 15.3807 43.4931 15.2119
Pt 18.5916 16.7945 25.0682
Pt 18.0132 24.5756 29.8499
Au 6.00393 21.5494 38.1452
Pt 21.9827 5.03069 30.852
Au 24.7093 37.3113 40.0258
Pt 5.54957 28.4331 29.2537
Pt 15.5143 40.7889 30.9518
Pt 10.9798 27.9582 10.5551
Pt 17.6896 11.3701 39.7046
Pt 22.9228 33.7158 30.2069
Pt 25.9848 14.0282 21.7453
Au 7.73461 38.7431 19.3588
Pt 13.6929 12.6101 31.4117
Au 7.38581 23.2298 39.8337
Pt 14.3108 14.4854 39.1327
Pt 31.0445 36.6749 25.9534
Pt 28.7308 31.2391 32.3475
Pt 11.6938 23.234 23.4244
Au 1.41693 26.6844 30.2596
Pt 16.2324 29.2936 32.3468
Pt 9.77706 32.3582 17.4096
Pt 35.2633 36.9825 38.4431
Pt 7.49052 27.8742 22.6667
Pt 14.1381 9.004 32.2138
Pt 7.21224 16.3612 27.9727
Pt 16.6597 36.1082 20.6601
Pt 13.3082 26.7867 11.3686
Pt 7.05147 25.4966 21.297
Pt 8.77052 37.1628 29.5006
Pt 19.0379 13.5095 32.3656
Pt 12.013 27.0564 25.5423
Au 22.1753 10.5121 42.4798
Au 12.7242 28.0724 43.9855
Au 18.4503 26.8853 8.84937
Pt 11.0541 13.1591 20.3562
Pt 21.0295 38.4064 19.9888
Au 3.19833 25.0909 21.2746
Au 1.06423 29.2375 29.0696
Pt 12.229 30.8631 21.5262
Pt 13.6454 26.8727 39.2628
Pt 32.2212 32.6064 35.2363
Au 29.7971 24.8645 48.8494
Pt 18.7328 28.5531 32.7821
Pt 14.8818 37.1699 27.4426
Pt 22.7164 33.3398 24.7174
Pt 5.47025 29.2086 26.6384
Pt 7.12431 18.5676 34.869
Pt 16.4334 20.0547 31.6251
Pt 7.46153 21.1096 19.8876
Pt 17.3562 29.8615 16.3392
Au 3.92964 36.8141 30.1425
Au 25.5114 47.3127 33.1078
Pt 14.5311 29.0479 7.27455
Pt 11.4673 18.8151 15.0472
Au 6.94888 33.7324 34.6228
Pt 16.3337 16.2503 40.534
Pt 18.1253 41.4686 31.2866
Au 3.13687 30.1246 20.2439
Pt 15.4448 33.3785 26.8788
Au 21.4356 33.4685 37.9227
Pt 25.546 46.0347 26.5467
Au 16.7509 34.7898 15.2744
Au 5.10301 16.8491 22.0747
Pt 18.2408 43.1804 19.6563
Pt 9.10334 24.832 38.5583
Au 34.3055 47.9803 27.5903
Pt 15.8094 35.6045 33.4957
Pt 15.148 30.9105 11.6827
Pt 25.2398 25.3507 20.603
Pt 20.4637 29.2512 19.7499
Au 3.71588 19.6855 26.027
Pt 19.0933 17.7664 13.1204
Pt 7.62291 20.7381 36.1966
Pt 25.0157 46.2088 21.3159
Pt 15.0377 38.1291 32.6266
Au 4.27423 36.6816 25.0628
Pt 24.4235 38.457 30.2672
Pt 21.8158 45.1733 30.2801
Au 6.7668 31.6427 14.211
Pt 12.0533 21.5208 21.4099
Au 15.1785 13.7605 41.545
Pt 39.5286 33.7782 33.782
Pt 26.7058 41.8905 24.7584
Pt 22.5308 46.2011 20.3142
Pt 16.7496 14.9512 14.3393
Pt 15.6278 26.2195 29.5342
Pt 5.56681 23.0523 34.2905
Pt 16.7964 17.3098 30.3592
Au 22.4665 29.769 47.732
Pt 18.9376 14.2654 18.3716
Au 28.1702 6.93703 16.5183
Pt 8.21905 18.4423 18.9442
Pt 25.1546 20.9083 25.9645
Au 1.94051 32.6008 24.2376
Pt 4.06104 23.6879 31.7732
Pt 22.6304 19.8288 25.4741
Au 18.0071 1.31971 23.568
Pt 9.2354 19.6645 24.9004
Pt 25.3541 11.2884 24.7213
Pt 13.4155 10.3247 29.9554
Pt 18.0994 32.7376 16.6123
Au 6.60235 9.94975 20.2231
Au 8.23608 13.7553 35.2386
Pt 12.8551 9.70434 17.347
Pt 6.0332 25.2828 35.5461
Pt 16.1573 25.8825 39.1125
Pt 12.8175 28.6324 16.9372
Au 32.5454 26.2844 12.1995
Pt 16.112 26.2269 18.8948
Au 35.9207 22.8668 9.18981
Pt 19.8132 8.51773 32.4619
Pt 14.7721 29.2326 15.1764
Au 40.6134 27.3397 41.281
Au 32.0099 15.0352 37.6032
Au 42.1439 25.2625 40.3088
Pt 17.0687 14.6292 25.2613
Pt 13.3874 7.27551 21.6621
Pt 10.7476 12.8258 32.4395
Au 27.3462 5.65253 34.9271
Pt 11.1541 37.3764 26.1494
Au 35.7291 27.8743 46.6103
Pt 17.0521 24.4007 33.6502
Au 13.5193 34.949 43.3637
Au 20.5553 34.3373 45.4855
Pt 22.7778 29.5962 21.1438
Au 5.72195 29.1437 15.1955
Au 15.4614 37.6722 15.9465
Au 17.7147 20.0006 6.08445
Au 4.87763 34.8862 32.4947
Au 6.3658 15.9075 34.9633
Pt 12.4782 29.7975 25.9553
Pt 13.6802 28.2929 37.0683
Au 31.8575 11.7192 42.1465
Pt 30.1286 10.0198 16.6091
Au 22.3951 37.0391 13.7978
Pt 6.54731 19.821 25.7216
Pt 15.5172 28.2082 27.7694
Au 17.8553 9.75402 9.27087
Pt 4.86141 21.2948 32.4159
Au 5.55226 28.0311 38.8755
Pt 6.86185 20.1363 17.4349
Au 26.7582 30.1307 20.0265
Au 26.9808 34.1933 14.9964
Pt 16.7618 10.4518 35.2602
Au 24.6732 17.0313 35.1965
Au 25.2978 18.6293 17.6499
Au 24.1807 25.1132 34.7889
Pt 20.2559 16.0198 16.7568
Pt 9.34097 19.7697 16.5522
Pt 11.7839 25.6783 37.7363
Au 26.444 23.7462 35.6149
Pt 23.6484 44.9516 24.7285
Pt 23.5385 19.5546 30.0186
Au 20.8788 27.8642 1.32994
Au 13.3338 5.61671 29.8313
Pt 10.2439 23.7531 36.2597
Pt 13.6802 24.5105 19.314
Au 4.91938 20.7231 35.3358
Pt 12.4005 17.8429 28.1465
Pt 11.7281 29.2081 14.5818
Pt 9.90953 26.3121 33.9669
Au 7.94934 19.5295 38.7391
Pt 12.5356 24.3566 25.6194
Au 2.82623 22.4812 33.8714
Au 31.8054 37.4314 6.65668
Au 15.3086 31.3331 3.89829
Pt 17.8341 30.5657 20.8463
Pt 15.2404 41.742 17.5849
Pt 16.6161 18.9014 17.1961
Au 37.3243 24.9474 14.1204
Au 30.171 33.8441 19.3763
Au 28.6842 25.324 18.3595
Au 10.2629 20.7949 9.02265
Au 30.6389 26.631 32.4832
Au 25.5097 35.7894 4.89187
Au 29.3145 23.3979 39.455
Pt 11.0582 21.9471 25.7715
Au 13.4149 21.8582 5.90155
Pt 15.1713 11.0773 17.4673
Au 33.4734 22.7622 33.5878
Pt 14.4483 16.831 32.8488
Au 24.033 30.4046 15.8582
Au 20.9537 35.8928 6.33981
Pt 13.0567 23.161 16.9132
Au 27.8889 29.5672 46.7638
Au 27.2327 12.4713 42.9271
Au 31.1057 45.1631 16.2942
Pt 26.4918 16.5766 22.6439
Pt 14.6151 16.5001 28.7077
Au 42.2296 29.9121 38.8147
Pt 23.352 7.50255 35.6082
Au 1.87017 31.8228 29.8203
Pt 20.3607 16.0376 19.9832
Pt 24.0428 15.8953 32.3419
Au 30.0398 36.515 39.9167
Au 6.10354 14.6043 23.0395
Pt 15.2997 42.3496 26.5897
Pt 8.72602 11.4166 20.7341
Pt 46.5869 24.3633 23.5407
Pt 17.4228 28.8152 26.2133
Au 10.2312 8.69315 17.3134
Au 23.9097 3.85913 14.8166
Au 25.2641 31.3704 11.2632
Pt 20.6589 21.5601 26.0044
Au 33.537 21.6382 9.55477
Pt 23.0899 34.1033 18.4504
Au 35.9864 42.9089 38.8203
Au 5.73105 18.921 37.2093
Au 38.6066 27.4391 39.442
Pt 19.6366 13.2852 39.9705
Pt 18.1335 28.9846 35.3717
Au 31.9945 38.8065 14.1338
Pt 16.7357 23.9082 40.8691
Au 35.4637 23.1324 37.9569
Pt 9.68369 22.4038 20.7877
Au 32.5849 29.5797 16.4386
Au 35.2072 19.9022 8.2017
Au 18.3784 28.7963 0.901775
Pt 18.3372 33.7945 25.3879
Au 34.0778 16.1852 14.4915
Pt 8.67079 34.3865 29.4941
Au 7.70374 17.0792 37.2795
Pt 24.9811 10.2445 12.2154
Au 27.4147 27.2815 20.0707
Au 37.8874 25.3101 16.8138
Pt 14.3894 18.4293 30.6655
Au 23.9515 32.1192 47.6118
Au 30.3169 4.87153 16.6986
Pt 14.7137 26.8964 32.0619
Pt 22.6854 14.3188 36.3911
Pt 16.4926 19.4077 43.8553
Pt 17.3964 31.3663 36.3733
Au 13.0202 25.0842 43.9547
Au 28.9069 7.1991 36.6221
Pt 22.0822 18.1403 28.0034
Au 19.1784 4.10255 30.6521
Pt 11.3301 12.0985 29.8725
Pt 17.832 22.034 39.0938
Pt 18.0314 21.0517 11.1182
Pt 7.58952 17.8914 23.6209
Au 9.1891 17.2656 11.0847
Pt 12.4715 16.663 30.5525
Pt 21.5043 24.9145 34.0638
Pt 7.60725 30.4791 21.4904
Au 11.88 22.5186 43.3877
Pt 8.97597 26.898 17.8102
Au 34.6099 28.7785 8.96691
Pt 14.1598 35.5903 29.3291
Au 16.5402 2.02304 21.2518
Pt 17.0405 44.7203 28.5081
Au 32.5045 31.1598 22.111
Au 19.5656 15.1553 14.0716
Au 36.3647 16.6395 43.132
Pt 12.233 41.485 23.8405
Au 33.3841 37.1013 12.2802
Pt 22.2639 32.0197 22.337
Au 45.7607 31.0082 18.4189
Pt 12.1732 27.6375 21.2734
Au 39.8377 38.5604 40.4459
Au 41.118 28.8405 18.0551
Pt 16.4563 41.3194 20.0045
Au 23.9962 27.1545 16.0389
Au 19.4696 17.502 47.4323
Au 48.3993 36.2615 25.0347
Au 22.1174 32.1708 35.4374
Au 27.0786 29.7583 30.0509
Au 29.5042 31.6796 25.9917
Au 43.3514 25.3229 37.7972
Pt 31.4645 16.8829 35.2362
Au 29.8256 28.0581 40.0502
Pt 16.8353 21.2741 21.0298
Au 28.0382 1.88306 23.1134
Pt 13.5016 24.3008 29.4613
Au 30.0776 36.2857 17.9812
Au 32.1306 36.0553 43.9762
Au 18.1005 4.09689 33.2226
Au 20.7369 29.5765 40.8066
Pt 11.3092 28.4661 33.3086
Pt 5.63647 17.1967 30.4055
Pt 13.6347 29.3877 32.5921
Pt 17.723 5.49615 26.702
Pt 19.1134 7.87137 11.5669
Pt 12.1365 35.9108 19.2876
Pt 20.0686 45.2802 28.2648
Au 2.76893 27.7587 21.8124
Pt 3.6005 30.9165 25.5986
Au 28.2313 17.7246 11.8026
Pt 14.7013 28.7933 30.1361
Au 26.5024 22.0934 11.8041
Au 25.0915 29.0805 7.17574
Au 43.1382 29.7034 11.7519
Au 35.2522 20.7426 14.9872
Au 24.1371 28.6528 4.56172
Pt 9.47877 20.493 13.8976
Pt 9.7887 33.0037 31.4942
Pt 13.9534 34.086 31.6005
Au 30.9944 27.6126 17.9174
Au 9.60342 28.53 41.0563
Au 33.4939 41.2511 14.8993
Au 13.2936 41.7489 15.5839
Au 6.55986 17.4935 16.6989
Pt 11.6134 24.3385 21.0393
Au 32.9146 25.9592 43.4607
Au 30.443 27.0904 43.112
Pt 11.9 31.4352 15.9218
Pt 14.3193 43.1509 23.9485
Au 18.7491 30.7473 5.20067
Pt 23.5277 35.42 26.6681
Au 29.8684 36.8969 45.2231
Pt 15.3167 12.0125 38.6148
Pt 17.2444 19.2134 22.6634
Au 34.9667 44.2204 36.3772
Au 30.7979 25.9015 38.5376
Au 14.4482 38.3398 29.9624
Pt 18.692 39.7109 35.3149
Pt 30.3517 17.0937 30.5128
Pt 21.0129 15.7974 32.0734
Pt 19.0537 9.14163 34.8258
Au 31.2947 9.0351 43.4843
Au 4.4823 35.7874 27.7468
Au 21.6028 27.4835 46.0854
Pt 35.8684 39.163 36.5089
Pt 16.1337 13.1837 12.4144
Pt 16.9342 20.7454 34.7466
Pt 5.37778 31.7549 21.5226
Au 4.11958 14.9339 24.9621
Au 2.69485 20.2967 23.4121
Pt 14.9856 15.5379 12.2798
Au 17.9839 6.12486 29.2476
Pt 11.7686 31.0134 18.6425
Au 25.2039 11.0189 9.51187
Pt 25.0839 43.4634 26.4966
Au 4.77578 15.2291 27.6778
Pt 19.6666 41.2616 24.5684
Au 33.9452 23.7561 11.2602
Au 21.5094 6.07761 42.602
Au 26.2194 8.61753 10.4851
Au 11.584 17.3817 41.1986
Pt 13.6794 36.809 25.0034
Pt 20.3732 43.5123 26.3381
Au 9.77408 22.2037 41.0743
Pt 17.7661 35.392 35.9545
Au 31.9473 29.1889 27.4922
Au 18.4747 48.4219 26.0364
Au 6.86113 37.1865 24.3923
Au 17.8009 13.0526 41.9616
Pt 6.52486 25.5991 18.4581
Pt 17.6755 34.5169 22.9193
Au 30.357 8.55685 34.7492
Pt 22.1169 12.5209 40.6317
Pt 10.1752 29.4974 16.7718
Au 5.32869 30.8553 38.7683
Pt 13.1837 19.4501 40.4283
Pt 29.7924 32.4103 36.6458
Au 32.1847 8.96029 40.941
Au 16.9707 27.1273 46.0973
Au 14.3809 22.596 44.7698
Pt 28.7164 38.2254 33.5946
Pt 9.98292 35.8691 31.5229
Pt 29.8624 13.3082 27.7341
Pt 15.9105 32.7421 24.2011
Au 12.8853 5.55407 26.9511
Pt 10.6893 27.0058 15.7861
Au 20.8223 34.72 9.01852
Pt 14.4249 37.4454 18.6476
Au 7.78804 19.4238 12.0218
Pt 9.67004 40.7238 23.2703
Pt 7.98076 30.779 26.2537
Pt 13.0086 40.4946 29.2401
Pt 22.069 45.5953 17.6876
Pt 8.79895 24.5166 19.4077
Pt 25.0836 35.0658 24.5944
Pt 6.28426 33.6891 28.2268
Au 8.63835 26.8913 11.6272
Au 27.9897 25.2117 26.8645
Au 19.8077 5.32053 38.3317
Pt 21.057 27.6615 22.5264
Au 6.99715 41.6305 23.1868
Pt 5.95886 30.0678 24.1371
Pt 11.3212 21.3383 36.9416
Pt 18.4133 45.7362 26.2162
Pt 12.6196 30.9365 37.7332
Pt 22.5425 35.9786 24.1267
Pt 24.8536 32.834 26.2319
Pt 9.74137 19.1043 36.6248
Au 19.6216 44.1997 16.9758
Pt 26.5131 42.0852 17.0392
Pt 6.7665 13.5656 28.6052
Pt 23.0082 17.2397 25.5112
Pt 21.7943 39.7829 26.3226
Au 26.5307 38.4853 9.98288
Au 13.8704 46.0492 19.0518
Au 10.6383 30.7065 10.3671
Au 40.3648 19.4651 13.5419
Pt 14.5961 28.2539 25.2905
Au 5.00469 24.4328 16.3764
Pt 13.0014 39.0033 26.748
Au 2.84456 25.6168 24.0501
Pt 20.7996 34.5716 25.8806
Pt 17.5577 38.3718 27.9141
Pt 10.6645 22.2103 15.5943
Au 30.8264 11.049 39.6149
Au 13.357 12.0888 40.4289
Pt 12.7758 35.2624 21.9766
Au 6.88839 36.1966 20.2699
Pt 20.0391 20.4961 38.9935
Pt 26.153 17.345 15.3596
Pt 25.3331 47.1116 23.99
Pt 13.9804 35.5414 16.9156
Pt 25.0259 40.0158 23.5296
Pt 13.5439 24.5073 7.61918
Pt 15.9832 28.3216 20.6696
Pt 12.3907 39.8441 21.7168
Pt 12.6525 13.5191 25.5989
Pt 28.3283 12.2024 32.0016
Au 11.0613 6.56769 28.6684
Pt 12.8697 32.3667 26.2341
Pt 13.6195 9.91553 21.4605
Pt 25.6122 22.4441 30.8951
Au 6.04947 14.8602 17.323
Pt 7.53535 17.1111 32.6131
Au 11.2385 20.0224 42.2884
Pt 12.2886 25.9194 32.5908
Pt 38.9813 22.7631 30.0842
Pt 9.75911 9.83356 26.0443
Pt 10.3119 27.7754 28.7385
Au 27.579 27.5037 25.2513
Pt 20.5343 10.7431 20.8201
Pt 11.1106 21.2519 32.5363
Pt 12.292 18.8673 21.7064
Pt 27.1168 19.2689 26.8688
Au 20.0554 4.4896 35.161
Pt 13.7709 18.3528 17.295
Pt 17.4797 4.74769 18.8586
Au 11.3993 32.586 42.4766
Au 35.5016 32.6471 43.6696
Pt 15.5508 20.2706 10.1308
Pt 15.4265 25.7034 12.8338
Pt 33.9823 10.9549 16.3336
Pt 21.068 12.4867 23.2762
Pt 12.5166 18.8205 37.7295
Pt 23.0995 36.1849 31.2258
Pt 15.0151 13.9329 33.534
Au 18.4868 4.00365 14.1394
Pt 14.7037 19.4493 15.0743
Au 22.8208 29.5242 2.26314
Pt 23.0751 22.717 25.4603
Pt 13.4155 21.8975 14.6056
Au 9.65995 14.8634 37.4489
Pt 10.5124 24.4249 17.0875
Au 28.5312 27.4811 45.0319
Pt 16.1464 21.8022 15.5078
Au 28.5514 24.686 8.55188
Pt 15.4777 18.9251 38.8712
Pt 25.3869 11.7341 30.5101
Au 26.4077 24.2864 32.8125
Au 23.6279 27.598 38.2582
Au 38.7357 11.7428 37.8191
Au 24.47 17.2572 3.83844
Au 34.6121 36.2386 5.83339
Au 31.5041 29.3124 41.9047
Au 5.05491 14.5374 30.4304
Au 8.98533 22.0153 11.2799
Pt 23.0984 22.0358 15.5295
Pt 17.0064 18.1605 33.5108
Pt 16.8794 36.2718 41.2781
Pt 25.1357 8.8873 14.7613
Pt 11.498 30.5644 40.5343
Au 14.4235 19.9037 45.3518
Pt 19.1087 20.2235 17.2592
Pt 14.4982 8.27015 19.171
Pt 4.91169 21.63 24.3387
Pt 12.8242 20.0559 10.2018
Au 7.19242 38.9868 22.1665
Au 9.4119 23.9159 9.29099
Pt 15.8461 33.424 29.6638
Au 11.7944 28.9211 5.98905
Pt 14.4047 18.1559 11.5486
Pt 15.2701 40.8287 22.3923
Au 20.3832 37.588 15.639
Pt 14.3892 15.0291 23.909
Au 37.3986 38.239 13.4432
Pt 24.1453 6.53401 27.4045
Au 31.7314 22.1578 6.0108
Au 31.9711 6.36857 33.5916
Pt 10.2471 17.6553 23.2015
Pt 15.8984 8.40734 21.4549
Pt 11.734 7.94856 26.3044
Au 47.4218 35.5526 29.7468
Pt 12.8107 26.6902 30.1125
Au 32.7217 4.533 35.4903
Au 42.4937 24.2717 18.2264
Au 26.1779 23.1498 43.3452
Pt 16.6277 12.9421 31.5366
Au 37.0433 22.6868 16.0512
Au 37.1072 41.2145 13.5227
Au 14.9446 5.67686 17.6121
Au 15.7746 11.0144 41.5302
Au 23.9122 18.7869 44.6876
Au 25.3959 24.4945 45.7234
Pt 21.1117 7.897 16.774
Au 2.58266 18.9492 28.6883
Pt 14.4446 24.8332 33.9001
Au 28.731 20.5639 11.9175
Pt 9.63897 21.686 34.7833
Pt 26.018 21.6984 33.6431
Pt 24.5375 8.23202 25.3074
Pt 20.3469 21.1752 15.1254
Pt 13.6987 29.5738 19.7681
Pt 15.436 18.7147 41.5679
Pt 15.348 19.3391 19.6306
Pt 8.61799 36.5162 22.2768
Pt 8.63542 34.2815 19.0098
Pt 11.6928 19.8723 34.8122
Au 51.1945 29.3185 22.8292
Pt 7.96333 27.6078 30.2935
Pt 17.4153 21.9025 29.1491
Pt 19.3909 24.6423 32.2199
Pt 15.2056 35.5477 22.8051
Pt 7.58804 33.3103 21.2616
Pt 9.64845 27.0358 23.995
Au 23.2466 42.69 10.9735
Au 23.0315 16.1413 43.5932
Au 43.2679 32.4776 11.0971
Au 31.4212 18.8865 11.8727
Au 28.2706 28.3741 2.06753
Au 28.3164 29.287 22.2628
Pt 40.2858 13.8473 29.8456
Pt 15.4184 23.8059 25.5922
Pt 15.9499 16.6343 9.93782
Pt 17.1111 17.1874 27.4594
Au 33.5708 25.1047 38.6895
Au 44.5142 27.2652 11.8143
Pt 22.2606 29.6925 23.8964
Au 34.8131 18.0595 41.1962
Pt 39.2727 29.1332 25.8017
Au 32.8365 34.91 7.33476
Pt 17.3543 5.93654 16.3467
Pt 16.3588 27.0519 34.2709
Pt 8.87489 16.3731 25.9179
Au 36.2915 27.9162 7.00633
Pt 29.5225 23.2628 28.0101
Pt 16.5611 27.4472 23.229
Pt 18.0531 7.04227 22.1097
Au 40.5948 22.923 40.7986
Au 14.1012 32.3632 44.0907
Pt 14.2563 25.9705 41.6542
Au 21.4087 1.38238 20.4621
Pt 14.7945 15.0154 30.9368
Pt 20.6806 34.7504 30.9816
Au 7.49037 9.08691 27.4645
Pt 28.3294 37.0013 26.5149
Au 11.0243 25.7421 6.807
Pt 13.2296 11.6522 19.2253
Au 21.4948 2.56138 30.0576
Au 2.51698 24.0509 29.4498
Au 46.7343 24.7729 14.5369
Au 19.0709 23.4938 2.06578
Au 6.45384 12.5503 18.8643
Au 17.3472 7.06443 9.79384
Au 21.8034 13.9802 10.0724
Au 32.9735 32.8613 12.3611
Pt 7.60131 27.8066 20.0641
Au 29.2402 36.5123 6.07815
Au 29.8466 31.7871 23.335
Pt 17.2162 18.5157 11.3329
Pt 13.6224 31.0564 23.8491
Pt 9.78999 29.2547 12.7464
Au 29.0599 29.8175 27.915
Au 19.2069 3.64229 16.8147
Au 28.5409 27.7789 13.9952
Au 34.5481 15.3456 47.5191
Au 30.2193 33.1282 12.7758
Au 35.2254 28.402 11.6833
Au 27.8682 14.3546 7.64466
Au 27.7505 24.8491 21.3969
Pt 9.73113 24.2277 25.2473
Pt 6.43587 34.842 22.9582
Au 4.60778 27.6467 34.5628
Au 31.9951 4.94337 23.8188
Pt 30.3971 30.8187 34.5348
Au 25.0021 21.7418 36.7945
Au 20.6441 46.4431 32.4206
Au 27.7341 38.269 44.3285
Pt 22.0351 26.4136 36.3186
Au 34.9984 17.6974 46.0269
Au 27.8028 27.6653 42.0174
Au 25.9254 39.9029 39.8404
Pt 11.3065 16.688 33.7182
Pt 18.4971 19.9473 27.6695
Au 48.4056 24.2349 31.6002
Au 27.1908 48.5058 26.5319
Pt 33.3279 13.0479 33.3601
Pt 18.2182 29.3711 38.1504
Pt 13.9555 37.4749 21.0933
Au 2.98776 19.7927 33.5395
Pt 30.1682 43.4252 20.9474
Au 19.8008 39.2638 10.2792
Au 3.03608 30.4798 22.9415
Au 35.5312 25.109 7.43149
Pt 4.71448 19.8267 30.0411
Au 31.5583 40.0221 3.6954
Au 24.9087 34.466 11.9126
Au 32.5219 24.8629 14.6383
Pt 17.4866 25.9139 21.1165
Pt 19.8521 24.6519 36.1939
Pt 5.05526 27.0182 20.1128
Au 17.7011 31.0356 10.5304
Au 38.2411 32.1553 39.0127
Pt 7.38668 29.9257 37.3217
Au 43.797 24.152 10.7408
Au 27.9716 27.1378 36.4339
Au 24.3719 41.8284 8.57538
Au 23.9393 29.6336 45.3512
Pt 16.4684 13.5459 22.6961
Au 22.0734 31.5175 13.8849
Au 24.8323 25.1339 48.4455
Au 31.8654 24.1922 40.5956
Pt 17.5289 31.4068 30.7034
Au 26.7562 25.9702 2.11877
Au 34.3995 37.5025 14.9226
Pt 3.49044 30.0244 28.2271
Pt 19.4596 39.1528 31.8205
Au 37.011 34.9095 38.7289
Pt 30.7676 45.9189 28.8111
Au 27.9779 35.1505 41.1645
Au 19.0317 14.7978 46.6925
Au 22.8826 29.5894 36.3441
Au 17.5742 7.0904 38.7642
Au 21.1657 32.1259 47.2287
Pt 19.4217 11.5321 35.4984
Pt 22.4491 13.6164 32.9121
Au 23.8973 25.8277 41.9617
Pt 34.1526 34.5206 39.4478
Pt 12.4638 31.9754 32.7383
Pt 11.6463 34.6524 29.9627
Pt 9.15493 22.1957 17.9478
Pt 35.6123 14.4478 16.7481
Au 14.3998 35.6772 7.8999
Pt 6.05047 31.0279 28.544
Au 2.80105 27.7506 19.0275
Au 8.36208 29.1916 10.2781
Pt 9.62424 12.931 22.7392
Pt 22.996 39.2463 35.8992
Au 26.8209 9.98414 41.6544
Pt 13.9324 38.7888 35.0945
Au 11.7363 22.7153 10.2352
Pt 17.615 22.4294 31.7668
Pt 23.3074 38.4593 32.811
Pt 9.69595 14.556 16.3773
Pt 17.5425 39.729 23.4234
Au 31.0032 23.9566 34.041
Au 8.59767 33.6721 13.4935
Au 30.6959 41.7585 10.5865
Au 44.6033 38.783 31.7101
Au 30.5666 41.954 5.30034
Au 32.7396 32.185 38.001
Pt 19.3853 26.9505 26.1884
Pt 16.1227 35.4278 25.427
Au 31.0352 26.1155 35.7296
Pt 29.3559 43.5686 27.9957
Au 45.7412 33.0953 16.5808
Au 15.2296 31.1188 8.95073
Au 32.5776 8.17467 28.4236
Au 40.3315 10.5419 39.5157
Au 24.8567 28.3603 42.9774
Pt 16.1435 30.8105 28.5037
Au 22.435 30.854 42.6621
Au 22.8634 39.5438 38.5531
Au 22.9266 16.8147 38.0224
Pt 10.3027 30.7763 33.7516
Pt 18.4591 24.623 38.6449
Au 42.5638 37.6121 15.9045
Pt 25.1728 33.3174 28.7893
Au 38.576 8.46812 33.8971
Pt 21.2669 25.6199 43.0576
Pt 7.98961 11.9737 26.6598
Au 3.88666 34.0631 30.1093
Pt 9.47347 21.9421 23.4984
Au 16.3833 3.4828 16.6202
Pt 30.4418 42.1916 18.6434
Au 6.36502 36.4333 34.343
Au 26.2895 42.6957 38.9976
Au 35.7495 14.1703 10.1626
Au 16.207 13.8945 9.8275
Pt 14.2664 23.3485 42.0749
Au 16.4273 17.5461 7.20501
Pt 10.4709 30.1613 36.5243
Au 11.2319 40.1234 16.3522
Au 9.18493 14.9288 32.8
Pt 9.73219 32.0099 20.0784
Au 29.4245 27.1677 8.97452
Pt 15.4339 28.8119 17.8871
Pt 11.4282 24.6049 14.6187
Au 2.58467 21.4047 31.0019
Au 13.2811 38.6812 14.6048
Au 30.9904 8.56547 10.1442
Pt 18.4984 36.368 26.3359
Au 14.2982 7.92143 34.6917
Au 9.03277 35.9895 15.1622
Au 24.7879 38.4249 5.48245
Au 36.8141 16.9948 14.7809
Au 25.5318 17.3842 39.4381
Pt 9.06551 21.9328 38.1775
Au 28.0872 22.6513 50.0118
Pt 19.6612 34.8745 28.2569
Au 15.2489 4.91163 25.6307
Au 3.22575 16.4406 29.4603
Au 15.8833 36.6082 43.6743
Pt 19.9418 11.1429 38.2891
Au 21.4573 35.348 41.9548
Pt 16.3944 39.2207 18.286
Pt 13.767 24.1999 39.5202
Pt 21.8134 8.04379 40.8984
Pt 20.6513 43.1305 35.6081
Pt 30.8144 21.4273 32.4556
Pt 14.1442 16.6553 37.2745
Au 28.1782 27.9316 17.2
Pt 30.2767 40.3744 30.559
Au 10.8156 15.1776 10.4592
Au 20.7538 48.4534 24.5595
Pt 24.6366 45.1766 18.3689
Au 5.19385 18.1797 27.8792
Pt 30.9438 45.5371 31.8769
Au 3.82987 22.4757 17.8883
Au 17.5195 44.9335 35.3448
Au 8.68004 38.2479 26.913
Pt 9.53614 38.2352 23.9664
Au 18.7251 47.2809 20.6295
Au 4.42004 27.1068 16.9277
Pt 10.3765 24.6431 11.8244
Au 11.9079 26.8732 4.30545
Au 10.335 35.6252 12.7902
Au 18.1706 41.3648 10.8521
Au 41.9975 21.5256 16.9892
Pt 14.8432 43.524 19.3983
Au 8.58548 38.6192 34.7608
Au 11.3171 39.6315 35.0707
Pt 8.43266 33.4306 26.5079
Pt 20.9708 25.5689 38.5537
Pt 25.8327 37.2322 19.5402
Au 4.16831 33.7337 34.8388
Pt 28.0625 35.3599 43.8361
Au 7.54611 12.8464 16.2757
Pt 12.781 25.8523 16.8499
Au 18.3369 47.3619 28.6979
Au 31.8886 6.19793 39.9093
Au 13.2623 41.5018 35.7234
Pt 38.2167 43.1606 21.3194
Pt 18.1528 34.3811 30.5549
Pt 11.7072 34.5742 32.9494
Pt 29.5401 39.1535 36.0566
Pt 17.1141 14.0674 39.2116
Pt 16.8716 21.4655 18.3362
Au 33.0576 47.5307 30.0382
Pt 12.2162 27.6232 8.27153
Au 8.44037 39.8409 30.2321
Pt 40.6784 37.8569 28.2743
Pt 19.9913 29.0337 17.1443
Pt 23.8843 45.205 32.0638
Pt 8.43811 21.7142 26.5844
Pt 11.9852 20.5366 16.9261
Au 18.6051 32.123 7.82479
Pt 15.3282 30.7756 21.5811
Au 3.66424 19.0123 21.1958
Pt 16.5121 44.9522 23.7038
Pt 19.5429 25.783 11.1088
Pt 20.9852 39.1663 34.0593
Au 10.9597 43.3404 25.3063
Pt 23.3629 33.1756 16.0626
Au 23.0237 36.6754 37.5238
Pt 13.1895 33.9131 37.1416
Au 15.1542 26.962 44.1675
Au 3.41411 31.0183 34.6298
Au 21.8003 24.9627 12.3153
Au 35.2507 43.5578 30.5859
Au 26.6719 32.7352 41.6323
Pt 22.4847 33.2824 27.7706
Au 16.5705 40.9881 40.1293
Pt 13.3748 42.1477 31.2757
Pt 27.6451 13.5395 13.6607
Au 24.8367 7.93933 38.9542
Au 14.8655 29.7157 44.6382
Au 17.8428 24.2543 46.1392
Au 22.7778 46.526 34.2146
Pt 15.2077 22.166 33.0866
Pt 14.8926 35.6711 11.6447
Pt 25.3605 43.6471 20.3344
Au 36.633 24.5716 11.3518
Pt 19.646 40.971 27.2182
Pt 30.8697 38.661 38.4045
Pt 6.54999 32.8712 30.7506
Pt 30.647 44.079 25.8124
Au 8.17708 37.7604 32.192
Au 19.5148 3.35747 22.9097
Pt 22.5078 7.21532 32.4778
Pt 33.6088 15.8612 26.9284
Au 15.1317 3.48055 19.4293
Au 7.61807 15.4395 14.9979
Pt 15.3067 21.2018 26.9223
Au 8.16894 12.0511 33.0823
Au 25.2957 6.18585 15.5164
Pt 42.1833 19.796 22.0651
Pt 5.46712 25.4416 32.8955
Pt 13.057 10.1932 26.0796
Pt 15.6042 24.315 31.3402
Pt 18.3933 23.3555 21.9198
Pt 13.1329 14.5758 19.6372
Pt 37.3138 19.0297 33.5752
Pt 28.2594 20.5758 24.7625
Au 11.7597 8.27265 33.5007
Au 3.12573 21.5519 28.2161
Pt 18.9104 15.7566 34.0003
Pt 23.1397 20.8223 21.0668
Pt 21.7955 16.7301 13.9528
Pt 14.3357 13.7607 17.3449
Pt 40.8229 21.9608 19.4315
Pt 12.7103 16.2053 22.1087
Pt 30.7064 15.8805 32.8386
Pt 34.4737 19.6175 29.4307
Pt 22.3504 12.1082 37.7919
Pt 20.9168 11.2691 14.0039
Pt 16.6093 33.356 34.8798
Au 47.4902 16.8919 28.6389
Pt 27.1676 15.03 35.7368
Pt 20.0894 13.4851 37.2454
Pt 22.9987 10.5941 23.757
Au 19.8707 5.92116 9.83228
Pt 33.1658 16.3195 20.0918
Au 12.9495 6.28979 24.2366
Pt 24.5744 13.3318 26.1514
Pt 15.9675 10.4267 30.9149
Pt 16.8113 14.7722 16.9442
Au 31.2268 11.3794 10.1129
Pt 13.0412 23.3773 31.9343
Au 50.487 24.3785 20.942
Pt 7.92889 16.7465 21.185
Au 30.2838 24.2538 22.7554
Au 28.9954 44.8699 14.4394
Pt 11.6474 13.3083 17.6359
Pt 9.0544 13.1583 18.5125
Pt 14.9701 31.5092 33.5249
Au 33.8097 19.0836 10.4255
Au 27.4716 31.5152 39.2277
Au 46.1172 25.0053 11.8466
Au 34.6053 12.5735 43.7647
Au 9.27807 43.2577 22.9378
Au 4.90507 12.3606 24.0162
Au 22.0372 32.5196 7.90909
Au 19.9121 39.4268 7.49128
Pt 16.8742 16.2409 22.9839
Pt 22.3877 19.2101 39.2552
Au 20.4912 36.0854 38.5275
Pt 22.1545 8.24995 28.0747
Au 28.5037 24.7171 44.2845
Au 37.0863 7.36535 35.9646
Au 29.0803 6.29033 39.5669
Au 22.8087 4.89429 33.9595
Pt 11.346 16.7758 36.4091
Pt 17.7896 6.48018 31.8304
Pt 11.9581 15.8127 38.7648
Pt 12.6657 22.5143 34.4673
Au 32.5726 5.29417 30.8606
Pt 17.9601 8.73924 30.5392
Au 25.4085 23.0155 50.0786
Pt 30.6101 18.6083 33.2472
Au 41.0951 23.8375 10.0731
Pt 18.1345 21.9979 13.683
Pt 18.8749 21.4716 24.014
Au 14.4225 3.71088 28.1699
Au 22.196 4.69486 9.99234
Au 10.1691 11.3576 16.15
Pt 7.87606 21.8804 15.6375
Pt 16.6328 25.8876 10.5879
Au 26.3171 24.1511 9.9784
Pt 8.51017 31.8484 28.9314
Au 21.2151 29.7278 4.53444
Pt 13.473 33.1108 28.7276
Pt 12.0394 35.8539 14.9235
Pt 26.4834 12.143 17.4156
Au 40.7336 31.0285 11.2269
Pt 24.6734 19.841 15.3751
Au 24.172 36.9833 9.74259
Au 18.7681 23.9834 9.24177
Au 28.3312 28.1449 31.917
Au 22.2723 6.97805 8.49547
Au 28.8404 2.75676 30.3085
Au 24.3315 18.9732 8.76599
Au 18.5378 37.5372 6.02281
Pt 12.9685 14.2332 29.163
Pt 32.0008 9.81143 14.6067
Pt 23.8804 4.32114 29.123
Pt 23.892 13.2083 23.2801
Pt 32.8509 36.7976 27.9173
Au 30.5082 17.1112 47.4275
Au 35.5754 41.3623 10.9099
Pt 27.1496 22.3379 26.888
Pt 14.583 8.68426 23.7637
Pt 12.7992 29.9423 35.088
Au 49.3672 30.9086 29.2552
Au 29.929 44.1487 12.0101
Au 27.2422 30.8603 2.53099
Au 27.0857 10.2561 44.5122
Pt 25.1123 11.1985 22.0304
Au 16.6395 7.65662 36.1035
Au 31.2393 16.4511 13.4793
Pt 26.7663 12.571 34.4221
Au 43.7395 34.1407 36.0961
Pt 12.1309 37.4563 16.9181
Pt 17.8496 24.2164 12.3689
Au 40.2114 16.1485 10.9201
Pt 20.9398 18.7556 21.014
Au 31.0064 24.2554 4.2302
Au 42.043 26.2351 11.6297
Pt 28.8935 10.3681 21.1341
Pt 17.8612 28.8091 18.8341
Pt 13.4837 21.2586 38.4348
Au 17.963 28.0294 11.896
Pt 5.52272 22.2189 26.9305
Pt 13.6141 27.1091 19.0503
Pt 6.63349 20.4265 28.3382
Au 44.9876 14.306 24.9916
Au 29.5604 28.2837 34.5389
Au 27.0817 9.66977 7.86418
Au 35.5664 20.9795 17.9091
Au 24.6844 28.4958 29.4525
Pt 14.4904 26.1024 21.4663
Au 25.8456 20.8253 7.00125
Au 40.3541 25.5314 7.6198
Au 25.7093 22.2719 14.4999
Au 28.3141 16.5426 9.30184
Au 21.8819 28.9906 15.0666
Pt 12.2291 10.6796 32.3387
Pt 15.3381 20.1976 7.37995
Pt 26.7837 20.1172 22.5987
Au 20.3342 33.4452 12.1343
Au 25.3274 21.5814 45.4516
Au 35.4405 19.7562 36.5223
Au 33.0804 26.7013 16.4698
Au 24.2558 24.726 29.8949
Pt 10.8138 20.0603 27.5776
Pt 16.9009 26.5897 41.7066
Pt 16.4357 21.9017 42.7022
Pt 11.2404 23.2946 38.9309