3871
Atoms. Timestep: 20356
Au 4.14618 9.40563 23.3533
Pt 9.73435 5.73414 25.4292
Pt 7.80951 7.69805 21.4486
Pt 7.99978 5.84708 23.4441
Pt 7.72391 7.63898 25.3608
Pt 7.9159 5.97757 27.3106
Au 5.89199 7.45613 23.3535
Pt 7.74496 7.68501 29.3167
Pt 5.90758 11.6133 19.5417
Pt 7.73281 9.63626 19.4626
Au 7.46346 11.3597 17.3307
Pt 5.94832 9.62489 21.4578
Au 5.48995 11.6457 23.3751
Pt 7.67159 9.63375 23.3988
Pt 7.61513 11.6565 21.4809
Pt 5.8846 9.58235 25.3085
Pt 5.82696 11.5148 27.3589
Au 7.51877 9.44073 27.3878
Pt 7.52363 11.6509 25.3191
Au 5.68687 9.6659 29.3829
Pt 5.96244 11.6119 31.3271
Au 7.50099 9.40706 31.4716
Pt 7.64094 11.534 29.387
Au 7.48025 11.4192 33.5315
Pt 5.81675 15.602 15.6208
Au 7.44821 13.4221 15.3609
Pt 7.56969 15.5969 13.5589
Pt 5.8987 13.5793 17.5713
Pt 5.69192 15.5124 19.427
Pt 7.62831 13.5545 19.5029
Pt 7.62142 15.5172 17.501
Au 5.40708 13.5991 21.3571
Pt 5.64193 15.5493 23.3817
Pt 7.44613 13.5787 23.3919
Pt 7.50272 15.4904 21.4126
Au 5.38981 13.5883 25.4153
Pt 5.62119 15.5253 27.3616
Au 7.44535 13.5661 27.4054
Pt 7.43585 15.5146 25.3802
Au 5.46377 13.4926 29.4111
Pt 5.69451 15.4498 31.4526
Pt 7.57784 13.5545 31.3955
Pt 7.39081 15.5245 29.3982
Au 5.59964 13.5426 33.358
Pt 7.56978 17.4721 35.3945
Pt 5.82636 15.5757 35.245
Pt 7.60459 15.4851 33.3597
Au 7.39059 15.4062 37.4412
Pt 5.87819 19.5745 11.564
Au 7.43854 17.3623 11.3559
Pt 7.65731 19.5266 9.57606
Pt 5.8426 17.5986 13.549
Pt 5.65643 19.4385 15.4861
Au 7.57839 17.5234 15.533
Pt 7.57964 19.5194 13.507
Pt 5.66492 17.4896 17.5021
Pt 5.58163 19.4769 19.5011
Au 7.48709 17.515 19.4755
Au 7.44904 19.5301 17.5153
Pt 5.62101 17.4599 21.4347
Au 5.22967 19.4486 23.3965
Pt 7.41407 17.546 23.4155
Pt 7.35897 19.5179 21.4829
Pt 5.58786 17.4506 25.365
Pt 5.52575 19.4383 27.3129
Pt 7.37552 17.5007 27.3909
Pt 7.34808 19.4718 25.341
Au 5.28376 17.394 29.3598
Au 5.25419 19.4594 31.4221
Pt 7.36935 17.5001 31.3261
Au 7.2465 19.427 29.401
Pt 5.69344 17.4299 33.3933
Pt 5.70478 19.4252 35.3384
Pt 7.51308 19.5045 37.3274
Au 7.4186 19.4528 33.3058
Au 5.5439 17.5118 37.2507
Au 5.59271 19.5152 39.2908
Pt 7.54131 17.5862 39.1866
Pt 9.43438 19.4434 39.3421
Au 7.47211 19.5033 41.3324
Au 5.73318 23.4389 7.67173
Pt 7.73733 21.5217 7.68992
Au 7.7631 23.4324 5.65948
Pt 5.90933 21.5195 9.6656
Pt 5.72108 23.4109 11.4976
Pt 7.64903 21.5005 11.6197
Pt 7.70099 23.4484 9.60399
Au 5.38875 21.4527 13.4712
Pt 5.5662 23.4744 15.5359
Au 7.4025 21.482 15.4549
Pt 7.39904 23.4731 13.5665
Pt 5.57978 21.4987 17.5234
Pt 5.49161 23.4647 19.5001
Pt 7.38055 21.4988 19.4995
Au 7.39055 23.4684 17.5162
Pt 5.5025 21.4856 21.4306
Pt 5.46192 23.4145 23.3713
Pt 7.30836 21.4317 23.4094
Pt 7.34344 23.4519 21.4465
Pt 5.4847 21.442 25.3644
Pt 5.45076 23.3875 27.3536
Au 7.30733 21.4448 27.3599
Pt 7.27346 23.4632 25.382
Pt 5.4897 21.4641 29.3392
Pt 5.48193 23.4067 31.369
Pt 7.31103 21.4152 31.3215
Pt 7.26778 23.4392 29.3618
Pt 5.58704 21.4188 33.3723
Au 5.40618 21.4376 37.3554
Pt 7.43419 21.4711 35.3973
Au 7.31776 23.4257 33.3626
Pt 7.54757 21.4708 39.2433
Au 3.70985 25.5738 35.4915
Au 5.68412 21.6504 41.1926
Pt 7.47484 23.4077 37.2782
Pt 7.67002 23.4853 41.2215
Pt 9.563 23.4947 43.2303
Pt 11.4396 21.4555 43.2752
Pt 11.4846 25.4267 43.2404
Au 11.4785 23.4448 45.2825
Au 5.95372 25.4931 5.8187
Pt 5.93859 27.3422 7.72626
Pt 7.77454 25.3771 7.70847
Pt 7.83508 27.3886 5.88398
Pt 5.81903 25.3924 9.57769
Pt 5.70611 27.3783 11.5365
Au 7.5129 25.4081 11.6521
Au 7.62483 27.4196 9.66996
Au 5.32328 25.4269 13.5424
Pt 5.5359 27.4032 15.55
Pt 7.37924 25.4587 15.5032
Pt 7.39934 27.3868 13.5946
Pt 5.53888 25.4426 17.486
Pt 5.45462 27.3784 19.4045
Pt 7.35049 25.4372 19.475
Pt 7.38891 27.3994 17.4948
Pt 5.47175 25.4135 21.4128
Pt 5.44477 27.353 23.3488
Pt 7.23898 25.3965 23.4299
Pt 7.2527 27.4379 21.3967
Au 5.15841 25.391 25.3763
Pt 5.42879 27.3888 27.4276
Pt 7.19013 25.3994 27.3809
Pt 7.15545 27.3804 25.3965
Au 5.14243 25.3234 29.3293
Au 5.14446 27.442 31.2915
Pt 7.16019 25.4564 31.2961
Pt 7.18019 27.3918 29.4191
Pt 5.46588 25.4194 33.3818
Au 3.68222 27.4973 33.5761
Au 3.81209 27.4832 37.4479
Pt 7.35715 25.3567 35.3546
Au 5.28346 23.3531 35.3509
Pt 5.76384 27.3824 39.2926
Pt 7.67473 25.4374 39.2452
Pt 9.45307 25.3681 37.2693
Pt 5.76487 23.5291 39.2634
Pt 7.62401 29.3999 39.2836
Pt 11.4834 27.4482 41.4107
Pt 7.70263 25.4415 43.0626
Pt 5.88577 25.4275 41.1212
Pt 11.3914 29.4793 43.32
Pt 7.7004 29.357 7.7381
Au 5.64082 29.3801 9.60687
Au 5.6303 31.461 11.5593
Pt 7.52455 29.4038 11.6089
Pt 7.64786 31.341 9.67623
Au 5.4042 29.3703 13.5362
Pt 5.67878 31.4465 15.4798
Pt 7.42297 29.3631 15.4926
Au 7.52625 31.3492 13.5089
Pt 5.5553 29.3652 17.4448
Pt 5.52743 31.3871 19.3297
Pt 7.32339 29.367 19.4566
Au 7.4454 31.3473 17.4654
Au 5.17094 29.3619 21.3278
Au 5.15997 31.4136 23.3577
Pt 7.10997 29.4228 23.3925
Pt 7.23507 31.2923 21.3962
Au 5.13772 29.3392 25.4056
Pt 5.42035 31.3806 27.483
Au 7.19389 29.3886 27.3864
Pt 7.15916 31.2983 25.4064
Pt 5.4419 29.4638 29.4245
Pt 5.47922 31.4144 31.4362
Pt 7.27792 29.4068 31.3541
Pt 7.31322 31.393 29.4212
Pt 7.24359 27.4367 33.2882
Au 3.78339 29.4586 35.4941
Pt 5.66094 27.4537 35.4288
Au 7.41985 31.3953 33.3572
Pt 5.63733 25.4286 37.3998
Pt 5.69979 29.4391 37.4007
Pt 7.55949 27.406 37.3218
Pt 7.44279 29.4583 35.3585
Au 5.61542 31.3695 39.3123
Pt 7.65301 27.4028 41.2339
Pt 7.52563 31.4684 37.3659
Pt 7.65217 33.3753 11.5586
Pt 5.89719 33.3992 13.5817
Pt 5.88706 35.2985 15.5159
Pt 7.6421 33.3595 15.5275
Pt 7.67681 35.3671 13.5283
Pt 5.65297 33.3925 17.4133
Pt 5.67927 35.3373 19.304
Pt 7.45407 33.3163 19.4047
Pt 7.61049 35.3322 17.4681
Pt 5.54311 33.3387 21.2579
Au 5.24918 35.3525 23.4365
Au 7.19723 33.3093 23.4131
Au 7.30831 35.3654 21.433
Pt 5.45496 33.3435 25.4742
Pt 5.51121 35.3115 27.4002
Au 7.29275 33.3122 27.41
Au 7.3004 35.3412 25.3856
Pt 5.48131 33.3494 29.4648
Pt 5.60245 35.3403 31.5135
Pt 7.40435 33.3342 31.3816
Au 7.31454 35.3442 29.4092
Pt 5.60354 33.3795 33.4064
Pt 5.7849 35.342 35.2312
Pt 7.53785 33.3774 35.3369
Pt 7.57493 35.3125 33.3527
Pt 5.50227 29.4751 33.3804
Pt 5.6128 31.4398 35.3775
Pt 7.60361 35.3404 37.2408
Pt 7.67088 37.3193 15.5272
Au 5.65157 37.3185 17.3824
Au 5.65379 39.3608 19.3535
Pt 7.51515 37.3374 19.4124
Pt 7.66657 39.3094 17.5042
Au 5.38028 37.3714 21.3556
Pt 5.714 39.3549 23.4476
Pt 7.3854 37.2645 23.398
Au 7.46831 39.2466 21.4114
Pt 5.56336 37.377 25.395
Au 5.37069 39.3294 27.3557
Pt 7.33738 37.3003 27.4203
Au 7.48591 39.2239 25.4568
Au 5.32412 37.2975 29.4934
Pt 5.84049 39.2106 31.4368
Pt 7.55877 37.2756 31.3995
Au 7.43024 39.233 29.3602
Pt 5.78931 37.2774 33.3467
Pt 7.58225 37.3309 35.3042
Pt 7.58694 39.289 33.4045
Pt 7.68689 41.2356 19.5426
Au 5.65927 41.3282 21.4992
Pt 5.93914 43.146 23.5291
Pt 7.68427 41.1958 23.4344
Pt 7.72815 43.1629 21.5245
Pt 5.77791 41.2769 25.3865
Au 5.9067 45.0357 25.417
Pt 7.59507 41.1893 27.449
Pt 7.77985 43.1067 25.435
Au 5.62013 41.2675 29.4105
Pt 7.63441 41.1965 31.3592
Au 7.46987 43.3308 29.5138
Pt 7.81244 45.0058 23.5237
Pt 7.79193 44.989 27.3332
Pt 5.92083 43.129 27.2975
Pt 9.67863 7.69867 19.4862
Pt 11.6732 5.91122 19.4723
Pt 11.6372 7.71357 17.5465
Pt 9.7759 5.87042 21.4527
Au 9.725 7.71223 23.4613
Pt 11.5851 5.70629 23.4286
Au 11.6654 7.66274 21.4222
Pt 11.567 5.68157 27.3424
Pt 9.72884 7.7201 27.3403
Au 11.5524 3.99336 29.3614
Pt 11.6564 7.60181 25.4267
Pt 9.68299 5.83929 29.2714
Au 9.45439 7.40481 31.5003
Pt 11.6194 5.81297 31.2959
Pt 11.6008 7.60185 29.3483
Pt 11.5758 7.59763 33.3043
Pt 9.61194 11.5477 15.6115
Au 11.4098 9.41626 15.399
Au 11.4337 11.3768 13.3783
Pt 9.65736 9.6034 17.5558
Pt 9.50621 11.5943 19.4007
Pt 11.5966 9.63195 19.4314
Pt 11.55 11.4928 17.4303
Au 9.62138 9.67647 21.4053
Pt 9.52269 11.6187 23.3884
Au 11.641 9.68008 23.4417
Pt 11.5246 11.634 21.3569
Pt 9.53939 9.62636 25.4111
Au 9.45412 11.5166 27.3945
Au 11.6099 9.59181 27.4031
Au 11.5687 11.5768 25.4234
Pt 9.54464 9.50564 29.4723
Pt 9.37623 11.4713 31.4644
Pt 11.452 9.43726 31.3601
Au 11.4206 11.5203 29.448
Pt 9.61189 9.52234 33.2916
Au 9.46288 11.3217 35.4855
Pt 11.628 9.4924 35.312
Au 11.4017 11.4693 33.4266
Au 11.4904 11.3293 37.4849
Pt 9.57435 15.6059 11.5244
Au 11.4545 13.3877 11.3395
Au 11.3952 15.359 9.36661
Au 9.44048 13.457 13.3457
Au 9.47388 15.4001 15.4211
Au 11.466 13.427 15.3811
Pt 11.5127 15.4081 13.3959
Pt 9.40877 13.4386 17.451
Au 9.55286 15.4812 19.4535
Pt 11.4879 13.4651 19.3745
Au 11.4824 15.418 17.3905
Pt 9.50986 13.5536 21.4622
Pt 9.38845 15.5217 23.4132
Au 11.5204 13.5381 23.4093
Pt 11.5014 15.4176 21.4359
Au 9.45795 13.5765 25.3897
Pt 9.35571 15.5474 27.3936
Au 11.474 13.5314 27.441
Au 11.4895 15.5139 25.4325
Pt 9.38741 13.5806 29.3875
Au 9.43194 15.5209 31.3824
Au 11.3909 13.4908 31.4116
Au 11.4718 15.5083 29.395
Pt 9.42604 13.4203 33.4243
Pt 9.42815 15.461 35.4762
Pt 11.3248 13.3641 35.4922
Au 11.401 15.421 33.4824
Pt 7.60181 13.5736 35.2861
Pt 9.44119 15.6578 39.231
Au 9.36442 13.3943 37.4446
Au 11.3718 15.288 37.4846
Pt 11.3788 17.4668 39.3868
Pt 9.60953 19.5316 7.63771
Au 11.374 17.3476 7.42117
Pt 11.6107 19.5104 5.84671
Pt 9.57427 17.5856 9.57435
Pt 9.49415 19.4176 11.5125
Au 11.5177 17.4218 11.4278
Pt 11.5624 19.3927 9.45442
Au 9.47636 17.472 13.4189
Au 9.54037 19.4775 15.4888
Au 11.4998 17.4202 15.3987
Pt 11.5678 19.3486 13.4222
Pt 9.46371 17.5145 17.5155
Pt 9.34605 19.5596 19.5514
Au 11.4697 17.491 19.4563
Au 11.473 19.4841 17.5092
Au 9.43973 17.489 21.4597
Au 9.39762 19.5067 23.4218
Au 11.4533 17.4481 23.4233
Au 11.4126 19.5455 21.4143
Au 9.37228 17.4947 25.4208
Pt 9.27331 19.4766 27.3946
Au 11.4272 17.4967 27.4125
Pt 11.3676 19.4313 25.4625
Au 9.36005 17.4947 29.3652
Pt 9.31329 19.4696 31.3288
Au 11.4311 17.4495 31.4279
Au 11.342 19.4784 29.4081
Pt 9.38956 17.4639 33.3864
Au 9.42779 19.4679 35.3658
Au 11.442 17.4028 35.4585
Au 11.4096 19.4136 33.3883
Pt 9.43974 17.4789 37.3408
Pt 9.47996 21.4512 41.2336
Au 11.3764 19.4338 41.3237
Pt 11.3979 19.3986 37.4249
Au 9.33345 17.4227 41.3706
Pt 13.4647 19.4463 43.186
Pt 11.5535 17.5154 43.1526
Au 11.641 19.3948 45.1645
Au 15.488 17.1342 46.8184
Pt 9.7154 21.4897 5.85385
Pt 9.64502 23.4389 7.64952
Pt 11.6019 21.447 7.64943
Pt 11.5228 23.4118 5.71318
Au 9.6101 21.4233 9.60411
Au 9.59187 23.4769 11.5821
Au 11.5818 21.3928 11.5126
Pt 11.5792 23.4537 9.48154
Au 9.55005 21.4802 13.5486
Pt 9.35913 23.5025 15.5411
Au 11.5631 21.4149 15.4588
Au 11.5489 23.4835 13.5577
Au 9.43235 21.5038 17.5123
Pt 9.32248 23.4657 19.537
Pt 11.3817 21.4985 19.4909
Au 11.444 23.4438 17.4723
Pt 9.29479 21.5008 21.4734
Au 9.30272 23.44 23.4372
Pt 11.3502 21.4435 23.428
Au 11.3625 23.4285 21.4422
Au 9.34994 21.4446 25.422
Au 9.28711 23.454 27.4075
Pt 11.3095 21.3837 27.4407
Au 11.3312 23.4643 25.4509
Pt 9.24167 21.4261 29.3415
Au 9.26362 23.4098 31.3252
Pt 11.3443 21.405 31.3662
Au 11.3223 23.3778 29.4195
Au 9.36681 21.4529 33.333
Pt 9.38998 23.4257 35.3699
Au 11.427 21.4241 35.4009
Au 11.3923 23.423 33.3653
Pt 9.46156 21.4413 37.3552
Pt 9.4611 23.4191 39.251
Pt 11.3959 21.4036 39.309
Pt 11.3853 23.4066 37.3345
Au 9.49322 19.5248 43.3559
Au 7.6048 21.6401 43.1977
Pt 13.4042 23.4699 43.3199
Au 11.4307 23.4047 41.2874
Pt 13.4225 21.4298 45.1082
Pt 13.3531 25.4895 45.1974
Pt 9.63585 25.4417 5.77014
Pt 9.64513 27.4156 7.72458
Au 11.5721 25.4478 7.58159
Pt 11.4854 27.4875 5.71835
Pt 9.59191 25.4532 9.62485
Pt 9.50893 27.41 11.6039
Au 11.5752 25.4958 11.5183
Pt 11.5881 27.4591 9.54254
Au 9.47018 25.4697 13.6059
Pt 9.3849 27.4106 15.5556
Au 11.486 25.4945 15.5351
Pt 11.5047 27.4329 13.5438
Au 9.3928 25.4461 17.4859
Au 9.3673 27.4373 19.4686
Au 11.4149 25.4571 19.4494
Pt 11.4589 27.4683 17.498
Au 9.29414 25.4849 21.4727
Pt 9.09671 27.4326 23.4078
Au 11.3175 25.5179 23.3978
Pt 11.3745 27.4611 21.3611
Au 9.23014 25.4726 25.4111
Au 9.18534 27.3934 27.4348
Pt 11.2784 25.4426 27.4783
Au 11.2862 27.4087 25.4831
Au 9.22677 25.4236 29.3901
Au 9.24738 27.4183 31.3518
Au 11.3918 25.4182 31.4017
Au 11.3199 27.4269 29.399
Au 9.2855 25.4095 33.3326
Au 9.35749 27.3741 35.2916
Pt 11.4101 25.3607 35.3427
Au 11.4249 27.3764 33.3951
Pt 11.4107 25.3764 39.2904
Au 9.57559 27.4343 39.2961
Pt 9.58107 25.4396 41.2496
Au 11.4399 27.3933 37.2458
Au 11.4839 29.4888 39.3513
Au 7.59771 29.3473 43.1747
Au 9.53974 25.4908 45.1148
Pt 13.3352 31.4895 43.3461
Pt 9.51991 27.437 43.2108
Pt 11.4993 27.424 44.9903
Pt 9.63424 29.3743 5.88465
Pt 9.55243 31.3439 7.69905
Pt 11.5546 29.4045 7.6801
Pt 11.4962 31.3133 5.8689
Au 9.56726 29.4304 9.6638
Pt 9.54601 31.4248 11.5655
Au 11.568 29.3909 11.559
Pt 11.5235 31.3877 9.54376
Au 9.47443 29.3322 13.5393
Au 9.52379 31.3836 15.5055
Au 11.5019 29.3784 15.4897
Au 11.5215 31.4434 13.4853
Au 9.42615 29.3807 17.4859
Pt 9.37375 31.3264 19.4449
Pt 11.4288 29.422 19.426
Pt 11.4798 31.3957 17.4942
Au 9.27977 29.3841 21.4572
Au 9.20706 31.3541 23.4515
Au 11.2805 29.3443 23.4385
Au 11.3739 31.372 21.4148
Au 9.17248 29.3525 25.3888
Pt 9.19757 31.3425 27.4168
Au 11.2518 29.4233 27.4543
Au 11.2658 31.3957 25.4633
Pt 9.17064 29.3922 29.3727
Pt 9.30085 31.351 31.3564
Au 11.3406 29.4249 31.3593
Pt 11.2889 31.368 29.3943
Au 9.35717 29.3899 33.3595
Pt 9.42168 31.4405 35.3581
Pt 11.4356 29.4584 35.324
Au 11.3926 31.409 33.389
Au 9.48974 29.4699 37.2744
Au 7.43358 33.5126 39.4209
Pt 9.49157 31.4565 39.2991
Pt 11.4329 31.4869 37.3419
Pt 9.5478 29.4116 41.2816
Pt 9.54425 33.3721 41.1957
Au 9.45255 31.4229 43.2628
Au 11.4413 31.483 41.3675
Au 5.6964 29.3194 41.1941
Pt 7.65813 31.3138 41.1809
Pt 11.472 33.2862 7.66474
Pt 9.54064 33.3145 9.59003
Pt 9.55558 35.3397 11.6051
Au 11.4934 33.4512 11.4474
Au 11.302 35.5196 9.44863
Pt 9.49643 33.3955 13.499
Au 9.54772 35.3581 15.4785
Pt 11.4973 33.3784 15.5089
Au 11.5144 35.3956 13.478
Pt 9.47252 33.3167 17.5354
Au 9.4426 35.316 19.5014
Pt 11.4411 33.3324 19.4657
Au 11.4849 35.3333 17.5103
Au 9.31375 33.291 21.4218
Au 9.35779 35.3086 23.4116
Au 11.3602 33.3435 23.4379
Pt 11.4033 35.3039 21.437
Pt 9.2259 33.3069 25.4521
Au 9.356 35.3074 27.3822
Pt 11.3137 33.3108 27.4306
Au 11.3729 35.2997 25.4283
Au 9.36288 33.32 29.3805
Au 9.46757 35.3035 31.3869
Au 11.415 33.3301 31.402
Pt 11.4396 35.3188 29.4196
Pt 9.41754 33.3341 33.3625
Au 9.49508 35.3829 35.3366
Pt 11.4221 33.4235 35.3822
Pt 11.434 35.3871 33.4046
Au 9.45144 33.4046 37.394
Pt 9.56154 35.3433 39.2789
Pt 11.489 33.4286 39.3493
Au 11.4576 35.4149 37.3712
Au 5.57246 33.4279 37.2644
Au 11.3971 33.5309 43.3194
Pt 11.5218 35.3686 41.2332
Pt 11.4918 37.4187 11.657
Pt 9.57472 37.3716 13.5903
Pt 9.5675 39.3679 15.5667
Au 11.5161 37.452 15.4823
Pt 11.5192 39.4205 13.5942
Au 9.52499 37.3874 17.485
Pt 9.53629 39.3194 19.4719
Au 11.4896 37.3372 19.5121
Pt 11.4847 39.4058 17.5119
Pt 9.42019 37.3097 21.4082
Pt 9.42491 39.146 23.3989
Pt 11.3998 37.2354 23.3617
Pt 11.4768 39.277 21.4485
Pt 9.3594 37.2565 25.3965
Pt 9.43998 39.2038 27.4232
Au 11.4489 37.2906 27.4456
Au 11.4592 39.1406 25.3832
Au 9.43444 37.2844 29.381
Pt 9.44124 39.2577 31.4141
Au 11.4492 37.3557 31.4091
Pt 11.3911 39.2804 29.428
Pt 9.46104 37.3366 33.3837
Pt 9.50601 39.2576 35.3189
Pt 11.4231 37.4125 35.4187
Pt 11.386 39.3492 33.4278
Pt 9.49842 37.304 37.294
Pt 11.4929 37.3187 39.3219
Au 11.2968 39.4337 37.5198
Pt 11.5226 41.3262 15.5982
Pt 9.58244 41.2828 17.5613
Pt 9.61368 43.1884 19.5508
Pt 11.5199 41.358 19.4469
Au 11.3766 43.4111 17.4033
Au 9.5927 41.2137 21.4587
Au 9.6888 43.1941 23.4937
Au 11.5918 41.2244 23.4902
Pt 11.6028 43.1929 21.5138
Au 9.59031 41.143 25.4442
Pt 9.5861 43.1278 27.4217
Au 11.5339 41.207 27.4048
Pt 11.6277 43.3552 25.4845
Pt 9.43896 41.2589 29.4139
Pt 9.54954 43.1734 31.312
Au 11.42 41.2419 31.379
Au 11.5455 43.215 29.3349
Pt 9.48329 41.2267 33.3272
Au 11.2811 41.4366 35.458
Pt 11.4312 43.2042 33.2728
Pt 11.5969 45.0089 19.6198
Pt 9.69018 44.9966 21.5545
Pt 11.5629 45.1797 23.4549
Pt 9.63377 45.1173 25.4435
Pt 11.4945 45.1763 27.4349
Pt 9.61099 44.9821 29.2995
Pt 11.5221 45.0081 31.2803
Pt 13.5485 7.74043 15.6399
Pt 17.4585 5.67237 17.5396
Au 15.2842 7.62718 13.3969
Pt 15.4339 7.47854 17.4364
Pt 13.6077 7.61491 19.3812
Pt 15.4804 5.69582 19.4264
Au 17.2718 7.25256 15.2942
Pt 13.5549 5.70217 21.3783
Au 13.6074 7.47715 23.4396
Pt 15.5132 5.5496 23.3146
Pt 15.5363 7.49995 21.3918
Pt 13.5232 5.57951 25.3932
Pt 13.5954 7.41883 27.3815
Au 15.4877 5.24925 27.3535
Pt 15.5425 7.31633 25.3976
Pt 13.5545 5.65276 29.3937
Pt 13.5544 7.60811 31.3216
Pt 15.49 5.61118 31.3918
Au 15.5651 7.38988 29.3582
Pt 13.547 5.78962 33.214
Pt 13.595 7.55313 35.2391
Au 15.5352 5.50613 35.263
Au 15.5524 7.49073 33.3231
Pt 15.5678 7.50257 37.1941
Pt 13.5951 11.5207 11.4663
Pt 15.5487 9.63923 11.511
Pt 15.5543 11.5473 9.49802
Pt 13.5433 9.62632 13.5738
Pt 13.4485 11.4398 15.4759
Pt 15.4935 9.5034 15.4676
Au 15.4927 11.4593 13.4649
Pt 13.523 9.59969 17.462
Au 13.5616 11.5588 19.3982
Pt 15.5518 9.46671 19.353
Pt 15.5059 11.4653 17.3874
Au 13.6223 9.58651 21.3923
Pt 13.6005 11.5832 23.348
Au 15.5691 9.45507 23.4055
Pt 15.5565 11.4913 21.334
Au 13.6441 9.4979 25.455
Pt 13.5904 11.4816 27.424
Pt 15.5932 9.28902 27.39
Au 15.5392 11.4778 25.4377
Au 13.5911 9.50683 29.3452
Au 13.4643 11.4626 31.4048
Au 15.6054 9.4957 31.39
Au 15.598 11.4617 29.4086
Au 13.4877 9.50589 33.3521
Au 13.4279 11.4632 35.4595
Au 15.5121 9.47923 35.3109
Pt 15.5466 11.4406 33.4043
Pt 13.6101 9.43857 37.2759
Pt 13.675 11.2844 39.2458
Pt 15.5807 9.34705 39.2065
Pt 15.5228 11.3559 37.3635
Au 13.4711 13.1051 41.3196
Pt 13.5714 15.5265 7.58491
Pt 15.55 13.5521 7.56938
Pt 15.5218 15.5721 5.80374
Pt 13.6353 13.5075 9.45436
Au 13.4322 15.409 11.3578
Au 15.4917 13.4414 11.4154
Pt 15.5271 15.4937 9.43569
Au 13.4175 13.3884 13.41
Pt 13.5089 15.4199 15.397
Pt 15.4802 13.4139 15.4142
Au 15.4526 15.422 13.4188
Pt 13.5148 13.4295 17.3722
Au 13.4881 15.4216 19.3992
Pt 15.5169 13.4593 19.3296
Au 15.4811 15.4152 17.3484
Au 13.5574 13.5093 21.4077
Pt 13.504 15.4798 23.3949
Pt 15.4837 13.5215 23.3937
Pt 15.4851 15.4504 21.4056
Au 13.5471 13.5099 25.4274
Pt 13.4736 15.5414 27.436
Au 15.5171 13.4948 27.4754
Au 15.4359 15.5093 25.4239
Au 13.4814 13.487 29.4208
Pt 13.4459 15.4853 31.4511
Au 15.4853 13.4426 31.4481
Au 15.4368 15.4862 29.4972
Au 13.4254 13.4399 33.4488
Au 13.3958 15.3661 35.5405
Au 15.4383 13.4081 35.502
Au 15.3887 15.4612 33.4731
Pt 13.4121 13.2878 37.5063
Au 11.2798 15.4233 41.3138
Pt 15.4426 13.2964 39.3669
Au 15.4096 15.3925 37.5818
Pt 15.2635 15.3534 41.2683
Pt 13.3873 17.371 41.2836
Pt 15.5381 13.3276 43.1025
Pt 15.3788 17.4413 43.1066
Pt 15.5341 15.3729 44.7743
Pt 13.5926 17.5449 5.82554
Pt 13.5475 19.4417 7.60261
Pt 15.5178 17.503 7.58623
Pt 15.4519 19.4029 5.61805
Pt 13.4381 17.4129 9.40997
Au 13.5685 19.3838 11.4437
Pt 15.4665 17.4127 11.4084
Pt 15.5342 19.4202 9.41925
Pt 13.5067 17.3794 13.4012
Pt 13.5467 19.3458 15.3556
Pt 15.4986 17.3707 15.3627
Pt 15.5155 19.3165 13.4369
Au 13.4859 17.449 17.3748
Au 13.5019 19.5106 19.4797
Au 15.4906 17.4263 19.4018
Au 15.4845 19.4152 17.3736
Au 13.4916 17.4391 21.4415
Au 13.394 19.4721 23.4233
Pt 15.4081 17.4414 23.432
Pt 15.4219 19.4524 21.474
Pt 13.411 17.4921 25.4074
Pt 13.3553 19.4457 27.4429
Au 15.4041 17.4649 27.474
Au 15.3782 19.419 25.4443
Pt 13.4315 17.4999 29.4431
Au 13.4217 19.4017 31.4477
Pt 15.4254 17.3917 31.4708
Au 15.4319 19.3924 29.507
Pt 13.4231 17.4108 33.4735
Pt 13.3957 19.3426 35.5166
Pt 15.3561 17.3813 35.5419
Au 15.3802 19.3411 33.4937
Pt 13.363 17.3454 37.542
Pt 13.3945 19.3818 39.4081
Pt 15.4046 17.4153 39.4608
Au 15.3781 19.3515 37.4802
Au 13.2577 15.2041 39.4603
Pt 15.313 19.4025 45.1509
Au 17.6198 15.0799 46.4705
Pt 15.3893 19.4825 41.3546
Pt 13.5642 17.4053 44.9387
Au 17.1632 19.2701 47.0984
Pt 13.466 21.3536 5.68167
Au 13.5886 23.4271 7.40408
Pt 15.5627 21.4195 7.34269
Au 15.4309 23.3638 5.27734
Au 13.6151 21.4582 9.46964
Au 13.5916 23.4807 11.4748
Au 15.5568 21.441 11.4664
Au 15.6252 23.4739 9.32744
Au 13.5716 21.4097 13.4638
Au 13.5661 23.4973 15.4861
Au 15.5019 21.453 15.3887
Pt 15.6004 23.5393 13.407
Au 13.5156 21.4336 17.4427
Au 13.4264 23.4317 19.4431
Pt 15.4234 21.4847 19.4624
Pt 15.4316 23.4811 17.4879
Pt 13.399 21.4707 21.4293
Au 13.3338 23.4603 23.4218
Au 15.377 21.4469 23.4316
Au 15.3834 23.4562 21.4421
Au 13.3069 21.414 25.4578
Au 13.3154 23.4165 27.4573
Au 15.3748 21.3983 27.4723
Au 15.3597 23.4382 25.4576
Au 13.3734 21.4133 29.4654
Pt 13.3805 23.4207 31.4442
Pt 15.3861 21.3772 31.5025
Au 15.3702 23.3978 29.5229
Au 13.4001 21.4128 33.419
Pt 13.3731 23.4243 35.4077
Au 15.4018 21.3896 35.4711
Au 15.3833 23.4026 33.4452
Au 13.3871 21.4042 37.4176
Pt 13.3464 23.4066 39.337
Au 15.4322 21.4352 39.4016
Au 15.4355 23.4131 37.405
Au 13.4141 21.4543 41.3379
Pt 15.4269 21.4732 43.3856
Pt 17.4377 19.5533 43.504
Au 15.4505 23.4517 41.4497
Au 15.2336 21.3834 47.075
Pt 17.2536 21.5418 45.3654
Pt 13.4015 25.5242 5.65274
Pt 13.5206 27.4845 7.50762
Au 15.566 25.4304 7.23088
Pt 15.381 27.5514 5.56078
Au 13.6172 25.4734 9.42987
Au 13.5982 27.482 11.4669
Au 15.6192 25.5291 11.3727
Pt 15.5926 27.4801 9.2873
Au 13.5912 25.4984 13.4601
Au 13.532 27.4673 15.4555
Au 15.5321 25.4788 15.4281
Pt 15.5902 27.5003 13.3834
Pt 13.4407 25.5112 17.4912
Pt 13.4055 27.4829 19.4146
Au 15.3972 25.4643 19.4389
Au 15.4399 27.4848 17.4659
Pt 13.3559 25.464 21.3612
Au 13.3541 27.4223 23.4237
Au 15.3581 25.4522 23.4438
Au 15.3726 27.4542 21.4195
Au 13.3259 25.4766 25.5092
Pt 13.3482 27.4739 27.4786
Au 15.3696 25.4451 27.485
Au 15.3784 27.4587 25.5223
Au 13.3473 25.4398 29.4253
Pt 13.3896 27.4275 31.4362
Au 15.3508 25.4373 31.4783
Au 15.369 27.4699 29.4442
Pt 13.4138 25.3856 33.4337
Pt 13.411 27.3746 35.3502
Au 15.4173 25.4211 35.4053
Pt 15.3622 27.3991 33.4452
Au 13.3973 25.387 37.3559
Au 13.3893 27.4406 39.3767
Au 15.4536 25.4388 39.388
Au 15.4376 27.4314 37.3801
Au 13.4373 25.4211 41.3252
Pt 13.4431 27.4494 43.2837
Pt 15.3638 25.5005 43.4357
Au 15.4316 27.4761 41.3919
Pt 15.2062 23.5083 45.3009
Pt 15.2319 27.4988 45.3018
Pt 13.3971 29.4363 5.68049
Pt 13.5097 31.3824 7.52557
Pt 15.4742 29.472 7.40627
Au 15.3858 31.3906 5.34697
Pt 13.5658 29.4359 9.44154
Au 13.5452 31.4151 11.4558
Au 15.5656 29.4359 11.365
Pt 15.5087 31.412 9.34525
Pt 13.557 29.4475 13.486
Au 13.4847 31.4215 15.4711
Pt 15.445 29.4695 15.465
Au 15.5183 31.4556 13.4636
Pt 13.4291 29.4464 17.465
Pt 13.3958 31.3967 19.4157
Pt 15.3371 29.4425 19.4231
Pt 15.3823 31.4118 17.4536
Au 13.3712 29.4202 21.418
Au 13.3793 31.4113 23.4937
Au 15.4075 29.4567 23.4939
Au 15.3951 31.4037 21.4565
Au 13.3624 29.4086 25.4935
Au 13.3495 31.4091 27.4237
Pt 15.3874 29.4635 27.4808
Pt 15.4173 31.3932 25.5028
Au 13.3559 29.4419 29.4319
Pt 13.4025 31.4321 31.4506
Au 15.3751 29.4268 31.4698
Au 15.3979 31.4154 29.4768
Au 13.4008 29.4051 33.4073
Au 13.4118 31.4741 35.395
Au 15.4159 29.4404 35.393
Pt 15.4002 31.4282 33.4327
Au 13.4161 29.45 37.3176
Au 13.4593 31.4809 39.3441
Au 15.4179 29.4498 39.3852
Pt 15.432 31.485 37.3657
Pt 13.392 29.4786 41.4655
Au 13.5146 33.5069 45.1858
Pt 15.3557 29.4515 43.3713
Au 15.3854 31.4277 41.4229
Pt 13.3799 29.4243 45.0856
Pt 15.2843 31.4338 45.1643
Au 13.3493 33.3994 5.64835
Pt 13.3807 35.3046 7.59387
Au 15.4755 33.365 7.37279
Pt 15.5633 35.5721 6.05244
Au 13.4744 33.4252 9.43784
Au 13.4127 35.5099 11.3632
Au 15.4841 33.4461 11.4125
Au 15.3946 35.5642 9.26477
Pt 13.4955 33.4043 13.4874
Au 13.5129 35.3805 15.4869
Pt 15.456 33.3825 15.505
Au 15.4467 35.3806 13.4532
Au 13.4662 33.394 17.498
Pt 13.4534 35.3531 19.4946
Au 15.4288 33.402 19.4721
Pt 15.4783 35.3828 17.514
Pt 13.3968 33.3506 21.3961
Au 13.4071 35.3009 23.4199
Au 15.4223 33.3468 23.4914
Au 15.4598 35.391 21.4542
Pt 13.3649 33.3508 25.473
Au 13.419 35.3442 27.4407
Au 15.4142 33.3817 27.4243
Au 15.4728 35.3779 25.4519
Au 13.3796 33.357 29.4328
Au 13.4255 35.3918 31.4307
Pt 15.376 33.4265 31.4962
Au 15.4283 35.4378 29.452
Pt 13.4099 33.4042 33.4249
Au 13.4197 35.4296 35.3822
Au 15.4271 33.4345 35.3924
Au 15.4269 35.4543 33.3968
Pt 13.4453 33.4581 37.3817
Au 13.4603 35.4122 39.3528
Pt 15.4374 33.4677 39.4003
Pt 15.3996 35.4758 37.4307
Pt 13.4459 33.4478 41.3523
Pt 13.4728 35.4006 43.1595
Pt 15.4258 33.4206 43.2773
Pt 15.4366 35.4175 41.3224
Au 17.2102 33.4332 45.4828
Pt 15.4386 35.4388 44.9496
Au 15.2892 37.7872 7.50041
Au 13.302 37.6506 9.50598
Pt 13.5071 39.4941 11.6195
Au 15.3836 37.5134 11.4204
Pt 15.5273 39.5417 9.63827
Au 13.4858 37.4944 13.4633
Au 13.4779 39.5069 15.4834
Au 15.4802 37.4522 15.5318
Pt 15.3848 39.5776 13.5028
Au 13.5252 37.389 17.5425
Au 13.5108 39.3886 19.5173
Pt 15.5582 37.4368 19.5011
Au 15.5168 39.4463 17.549
Au 13.4922 37.3448 21.4603
Au 13.5762 39.326 23.4543
Au 15.5542 37.4415 23.4519
Pt 15.5772 39.4551 21.475
Au 13.5131 37.3125 25.4097
Au 13.536 39.2653 27.4184
Pt 15.4995 37.4113 27.4365
Pt 15.5909 39.4717 25.4562
Pt 13.4468 37.3531 29.4354
Au 13.4613 39.3107 31.3973
Pt 15.448 37.405 31.4441
Au 15.5433 39.3591 29.4115
Pt 13.3848 37.3937 33.4115
Au 13.3123 39.3955 35.4496
Au 15.3967 37.4781 35.4286
Au 15.4638 39.3887 33.4284
Pt 13.391 37.4341 37.4125
Pt 13.4496 39.2814 39.3195
Pt 15.4066 37.4391 39.4167
Pt 15.4009 39.4213 37.4682
Pt 13.4675 37.3277 41.2552
Pt 15.3958 37.3854 43.1465
Au 15.2367 39.5117 41.4368
Pt 15.5354 41.4429 11.6063
Au 13.3343 41.5604 13.4229
Pt 13.5523 43.2474 15.6397
Pt 15.4575 41.4073 15.5475
Pt 15.4994 43.2766 13.6477
Pt 13.4362 41.3982 17.5318
Pt 13.4882 43.2612 19.4814
Au 15.5425 41.4459 19.507
Pt 15.4388 43.3691 17.5324
Au 13.5795 41.3547 21.5234
Pt 13.5439 43.3959 23.5272
Pt 15.5663 41.5247 23.4989
Pt 15.4789 43.4315 21.5113
Au 13.5861 41.3638 25.4571
Pt 13.5628 43.45 27.3672
Au 15.574 41.4505 27.4269
Pt 15.4823 43.4843 25.4658
Au 13.5314 41.2977 29.3531
Au 13.4942 43.2559 31.3679
Au 15.5436 41.3997 31.4065
Au 15.5147 43.4476 29.3919
Au 13.3929 41.334 33.4238
Pt 13.395 43.2417 35.2331
Au 15.4112 41.4295 35.4239
Pt 15.5043 43.3777 33.3497
Pt 13.4508 41.2465 37.3053
Au 15.279 41.4703 39.4394
Au 15.2708 43.3888 37.38
Au 15.4733 45.3028 15.5357
Au 13.4662 45.2833 17.5777
Pt 15.3663 45.203 19.5206
Pt 13.4724 45.1763 21.5055
Pt 15.4092 45.2907 23.4959
Au 13.484 45.564 25.4705
Pt 15.4905 45.3281 27.4228
Pt 13.4646 45.2016 29.4098
Pt 15.4084 45.2325 31.4
Pt 13.4082 45.045 33.2299
Au 15.1827 45.2638 35.2006
Au 17.4776 7.54535 11.4945
Pt 19.5435 7.49849 13.3647
Pt 21.5513 7.58287 11.4811
Au 23.4674 3.74301 17.3726
Au 21.537 3.81536 15.39
Pt 21.4543 5.60369 17.3941
Au 19.3978 5.49269 15.2417
Au 19.463 3.81357 17.3971
Pt 17.47 7.48533 19.4398
Pt 19.3885 5.51679 19.4686
Pt 19.4398 7.34995 17.3987
Pt 17.4219 5.53472 21.3237
Pt 17.4758 7.37205 23.331
Pt 19.351 5.43542 23.2426
Pt 19.4434 7.36497 21.3896
Pt 17.4466 5.47472 25.2348
Au 17.5353 7.18964 27.3557
Au 19.3837 5.15328 27.3645
Pt 19.4868 7.17076 25.3175
Pt 17.4906 5.52506 29.4838
Pt 17.5519 7.41599 31.3763
Pt 19.4612 5.46572 31.4451
Pt 19.5422 7.21602 29.4221
Pt 17.5092 5.57801 33.3159
Pt 17.5189 7.50109 35.2363
Pt 19.424 5.56018 35.2065
Pt 19.5271 7.40842 33.2886
Pt 17.5811 5.74408 37.1546
Pt 17.5805 7.48168 39.1816
Au 19.4555 5.47094 39.166
Pt 19.5553 7.43676 37.212
Pt 17.5757 9.34276 41.1048
Pt 17.4944 11.6073 7.60456
Au 19.4037 9.42138 7.48974
Pt 19.5649 11.6056 5.93921
Au 17.4012 9.4631 9.43674
Pt 17.5125 11.4534 11.3922
Pt 19.4299 9.50106 11.4004
Pt 19.46 11.5069 9.36422
Au 17.4609 9.42278 13.4324
Pt 17.4576 11.4017 15.4479
Au 19.4288 9.31227 15.4192
Pt 19.4029 11.4047 13.4394
Au 17.467 9.33053 17.3636
Au 17.4985 11.4004 19.3619
Pt 19.456 9.28328 19.3831
Pt 19.4087 11.3454 17.4052
Pt 17.5118 9.36288 21.3752
Au 17.48 11.4337 23.3802
Au 19.4758 9.28782 23.4133
Au 19.48 11.3387 21.3958
Au 17.5158 9.28226 25.4128
Au 17.5244 11.3995 27.4301
Au 19.5111 9.19907 27.3854
Au 19.4986 11.3373 25.4053
Au 17.5833 9.33761 29.39
Pt 17.5889 11.4559 31.447
Pt 19.5319 9.31311 31.3626
Au 19.489 11.3886 29.4701
Pt 17.6032 9.41073 33.3282
Au 17.5249 11.4634 35.402
Au 19.557 9.41707 35.3339
Au 19.527 11.4391 33.3816
Au 17.525 9.38279 37.2871
Pt 17.467 11.3037 39.2659
Pt 19.532 9.39697 39.1776
Pt 19.5092 11.4178 37.3729
Pt 15.5637 11.2343 41.1787
Au 13.3096 15.2566 43.2338
Pt 17.6176 11.2236 43.0119
Au 19.5386 11.2883 41.2117
Pt 19.4858 15.5111 44.48
Au 17.4543 13.4803 5.60381
Pt 17.4949 15.4958 7.5147
Pt 19.4956 13.6209 7.49642
Au 19.3877 15.4591 5.34649
Au 17.5127 13.4944 9.45778
Au 17.509 15.5022 11.4208
Pt 19.4605 13.4972 11.3797
Pt 19.4908 15.5236 9.40439
Au 17.5189 13.4145 13.4074
Pt 17.4537 15.4077 15.365
Au 19.4319 13.4065 15.4293
Pt 19.4282 15.4721 13.4106
Pt 17.4478 13.4318 17.3475
Pt 17.4259 15.401 19.3307
Au 19.4333 13.4312 19.3421
Pt 19.371 15.4137 17.3398
Au 17.4453 13.4624 21.3783
Au 17.4589 15.4623 23.4184
Au 19.4867 13.3989 23.4188
Au 19.438 15.434 21.3758
Au 17.4909 13.4777 25.4139
Au 17.4817 15.4549 27.509
Au 19.4487 13.436 27.4813
Pt 19.4402 15.449 25.4488
Pt 17.525 13.4945 29.5551
Pt 17.451 15.4256 31.512
Pt 19.4649 13.4596 31.4979
Pt 19.4318 15.4153 29.5761
Au 17.4746 13.4501 33.4432
Au 17.4173 15.411 35.5258
Pt 19.4612 13.4251 35.4448
Pt 19.4346 15.3957 33.4865
Pt 17.4397 13.4068 37.4899
Au 17.519 15.502 39.6333
Au 19.466 13.3488 39.392
Au 19.4107 15.3917 37.4922
Au 17.3602 13.2472 41.2608
Pt 17.3783 15.5042 42.8731
Au 19.7716 13.9202 42.2913
Au 19.8331 16.4869 41.7242
Pt 17.9271 13.3948 44.4016
Au 24.0137 17.0121 46.9909
Pt 17.3908 17.4742 5.65881
Pt 17.4883 19.4826 7.37954
Au 19.5199 17.4505 7.29436
Pt 19.4562 19.464 5.52157
Au 17.5509 17.5032 9.40477
Au 17.5003 19.3954 11.4301
Pt 19.4934 17.4748 11.3984
Pt 19.5177 19.4473 9.25942
Pt 17.4835 17.3897 13.4091
Au 17.4758 19.3868 15.365
Pt 19.4224 17.3843 15.3823
Pt 19.4529 19.3476 13.395
Pt 17.4487 17.3548 17.3099
Au 17.3981 19.465 19.4153
Au 19.3777 17.3968 19.3477
Au 19.4159 19.4326 17.371
Au 17.4107 17.4306 21.4251
Au 17.417 19.4266 23.4264
Pt 19.4099 17.4259 23.4115
Au 19.4171 19.4396 21.4265
Au 17.4561 17.4319 25.4205
Au 17.4314 19.4 27.5086
Au 19.4242 17.3914 27.5216
Au 19.4282 19.4241 25.4438
Pt 17.442 17.36 29.582
Pt 17.3771 19.3223 31.5117
Pt 19.4122 17.3327 31.5359
Au 19.3803 19.3626 29.5713
Au 17.4178 17.3761 33.4947
Au 17.4012 19.3577 35.5406
Au 19.4435 17.4006 35.5617
Au 19.4093 19.3711 33.5165
Pt 17.3778 17.4083 37.5339
Pt 17.3928 19.4478 39.4336
Pt 19.3523 17.5723 39.3907
Pt 19.4022 19.4455 37.5311
Pt 17.3999 17.7075 41.4237
Pt 17.3355 17.3825 44.9412
Pt 19.7171 18.0152 44.0737
Au 19.603 19.446 41.7434