3871
Atoms. Timestep: 20135
Au 5.76869 7.67208 23.4321
Pt 7.87192 5.89204 23.4714
Pt 7.80174 7.70916 21.514
Pt 6.19104 5.8962 25.4421
Pt 5.99604 7.70931 27.3253
Pt 7.89768 5.84487 27.396
Au 7.84442 7.7494 25.4077
Pt 7.74846 7.67679 29.333
Pt 5.93377 11.6021 19.5498
Pt 7.74812 9.61786 19.4996
Au 7.47671 11.3386 17.3467
Pt 5.98288 9.65301 21.4821
Au 5.49021 11.4815 23.415
Pt 7.71831 9.65712 23.4446
Pt 7.63832 11.6521 21.5047
Pt 5.87942 9.58169 25.4158
Pt 5.80568 11.524 27.4183
Au 7.72395 9.64795 27.4538
Pt 7.53772 11.6605 25.3605
Au 5.67145 9.61899 29.3598
Pt 5.96842 11.6284 31.3541
Au 7.50207 9.42655 31.4836
Pt 7.65074 11.5595 29.428
Au 7.49964 11.4386 33.5561
Pt 5.82243 15.5817 15.6366
Au 7.45823 13.4038 15.3766
Pt 7.57622 15.5785 13.5759
Pt 5.91034 13.5616 17.5864
Pt 5.69283 15.4788 19.4603
Pt 7.63663 13.5456 19.5239
Pt 7.62308 15.5033 17.5206
Au 5.42382 13.5376 21.4172
Pt 5.63856 15.5377 23.3992
Pt 7.42107 13.5441 23.417
Pt 7.4956 15.473 21.437
Au 5.39976 13.5502 25.4063
Pt 5.62241 15.5172 27.3672
Au 7.44661 13.5684 27.4268
Pt 7.4304 15.5067 25.3916
Au 5.46892 13.5176 29.4481
Pt 5.71306 15.4593 31.4881
Pt 7.59517 13.5661 31.4267
Pt 7.39236 15.5369 29.415
Au 5.62477 13.5554 33.3982
Pt 5.89034 15.5649 35.3124
Pt 7.64615 13.5738 35.3406
Pt 7.63073 15.4866 33.392
Au 7.47 15.3783 37.5125
Pt 5.87688 19.5571 11.5785
Au 7.44069 17.346 11.3722
Pt 7.6558 19.5119 9.59164
Pt 5.84547 17.5789 13.5642
Pt 5.65272 19.4199 15.5004
Au 7.57681 17.508 15.5502
Pt 7.57564 19.506 13.5223
Pt 5.66315 17.4653 17.5221
Pt 5.57412 19.4663 19.5143
Au 7.47671 17.4992 19.4937
Au 7.43771 19.5176 17.5302
Pt 5.61499 17.4483 21.451
Au 5.22155 19.4483 23.4103
Pt 7.4043 17.5433 23.4289
Pt 7.34617 19.5146 21.4952
Pt 5.584 17.4472 25.3786
Pt 5.5236 19.4408 27.3259
Pt 7.37091 17.5031 27.4015
Pt 7.33743 19.4756 25.3502
Au 5.28953 17.3945 29.3739
Au 5.26851 19.4615 31.4561
Pt 7.37384 17.5119 31.3457
Au 7.24254 19.436 29.4155
Pt 5.72677 17.4241 33.4419
Pt 5.72716 19.4251 35.3881
Pt 7.61236 17.4726 35.4379
Au 7.42977 19.4623 33.3333
Au 5.60298 17.4894 37.3115
Au 5.63973 19.48 39.3234
Pt 7.64493 17.5498 39.2377
Pt 7.59065 19.4428 37.3428
Au 7.52772 19.3698 41.445
Au 5.72808 23.4219 7.68443
Pt 7.73416 21.5064 7.70465
Au 7.75859 23.4159 5.67303
Pt 5.90544 21.5032 9.67945
Pt 5.71412 23.3974 11.5087
Pt 7.64311 21.4876 11.6338
Pt 7.69457 23.435 9.61673
Au 5.38306 21.4376 13.4829
Pt 5.55584 23.4669 15.5451
Au 7.39101 21.4717 15.4677
Pt 7.389 23.4636 13.5779
Pt 5.57048 21.49 17.5343
Pt 5.47891 23.4635 19.5083
Pt 7.36676 21.4955 19.5095
Au 7.37636 23.4652 17.5251
Pt 5.49135 21.4845 21.4407
Pt 5.45044 23.4187 23.3812
Pt 7.29481 21.4354 23.4189
Pt 7.32833 23.4546 21.4536
Pt 5.47579 21.4504 25.3791
Pt 5.44482 23.4058 27.3815
Au 7.29608 21.4546 27.3688
Pt 7.25823 23.4735 25.394
Pt 5.49231 21.4688 29.3576
Pt 5.49757 23.4028 31.3778
Pt 7.31022 21.426 31.351
Pt 7.26876 23.4478 29.3737
Pt 5.59265 21.4144 33.4311
Au 5.33889 23.3459 35.4129
Pt 7.49719 21.4636 35.3867
Au 7.32282 23.4249 33.3905
Pt 5.72391 21.3754 37.3532
Au 5.46552 23.4168 39.3619
Au 7.57802 21.4264 39.2828
Pt 7.4275 23.4488 37.3405
Pt 5.94844 21.5556 41.2729
Pt 5.95143 23.5323 43.0986
Pt 7.73123 21.5688 43.2541
Pt 7.71257 23.4896 41.167
Au 7.69148 23.4846 45.2476
Au 5.9473 25.4754 5.83007
Pt 5.93108 27.3275 7.73443
Pt 7.76801 25.3625 7.71974
Pt 7.82841 27.3717 5.89309
Pt 5.81169 25.3788 9.58721
Pt 5.69635 27.369 11.5432
Au 7.50292 25.398 11.6624
Au 7.61588 27.4082 9.67844
Au 5.31326 25.4188 13.5505
Pt 5.52362 27.4009 15.5552
Pt 7.36614 25.4547 15.5109
Pt 7.38767 27.3815 13.6013
Pt 5.52601 25.4412 17.4925
Pt 5.44114 27.3817 19.41
Pt 7.335 25.4393 19.481
Pt 7.37451 27.4003 17.4998
Pt 5.45857 25.4174 21.4203
Pt 5.43304 27.36 23.3584
Pt 7.22314 25.4031 23.4376
Pt 7.23695 27.4438 21.4023
Au 5.14928 25.3985 25.3912
Pt 5.42379 27.3961 27.4526
Pt 7.17965 25.412 27.3994
Pt 7.14023 27.3887 25.4088
Au 5.1494 25.3593 29.3836
Au 5.18808 27.4547 31.4561
Pt 7.19011 25.4546 31.2995
Pt 7.16101 27.3993 29.4622
Pt 5.56382 25.4188 33.3614
Au 5.3392 27.5107 35.3813
Au 7.27994 25.4328 35.4183
Pt 7.29351 27.4465 33.3517
Au 5.3803 25.5104 37.4606
Pt 5.77354 27.4787 39.3737
Pt 7.54233 25.4088 39.2283
Pt 7.4907 27.4203 37.3164
Pt 5.79256 25.4383 41.2508
Pt 5.89247 27.3742 43.0148
Pt 7.82319 25.4308 43.0742
Pt 7.7157 27.4239 41.1879
Pt 5.96892 25.4765 44.7506
Pt 7.70569 27.3711 44.9603
Pt 7.69221 29.3431 7.74407
Au 5.6318 29.3693 9.61176
Au 5.61992 31.4556 11.5611
Pt 7.51305 29.397 11.6143
Pt 7.6377 31.3311 9.67914
Au 5.39296 29.3663 13.5399
Pt 5.66645 31.4478 15.4828
Pt 7.40921 29.3624 15.4964
Au 7.51324 31.3468 13.5118
Pt 5.54248 29.3672 17.4488
Pt 5.51536 31.3924 19.3348
Pt 7.3087 29.3712 19.4607
Au 7.43126 31.3503 17.4685
Au 5.1589 29.3684 21.3353
Au 5.15169 31.4202 23.3726
Pt 7.09538 29.4304 23.4022
Pt 7.22122 31.2975 21.4022
Au 5.13019 29.3461 25.4249
Pt 5.41818 31.3815 27.5186
Au 7.18309 29.3926 27.4106
Pt 7.14644 31.3028 25.4261
Pt 5.448 29.4515 29.4724
Pt 5.51326 31.4163 31.45
Pt 7.30253 29.4049 31.3783
Pt 7.31927 31.3918 29.4425
Pt 5.55262 29.4529 33.3903
Au 5.3557 31.4055 35.4621
Pt 7.39646 29.4183 35.3684
Au 7.38667 31.3797 33.4236
Pt 5.70832 29.434 37.4241
Pt 5.87351 31.3443 39.2376
Pt 7.65511 29.4035 39.3073
Pt 7.60848 31.3701 37.2929
Au 5.63825 29.4438 41.2414
Pt 7.69366 29.3433 43.1428
Pt 7.64046 31.3286 41.2416
Pt 7.64072 33.3704 11.5595
Pt 5.88659 33.3986 13.5833
Pt 5.87595 35.3013 15.5186
Pt 7.62861 33.3613 15.5301
Pt 7.66411 35.3672 13.5294
Pt 5.641 33.3971 17.4175
Pt 5.67045 35.3425 19.3119
Pt 7.4414 33.3208 19.4085
Pt 7.59772 35.3361 17.4717
Pt 5.53476 33.3446 21.2664
Au 5.24499 35.3622 23.4597
Au 7.18303 33.3161 23.4275
Au 7.29636 35.3715 21.4439
Pt 5.4513 33.3493 25.5005
Pt 5.51596 35.3187 27.429
Au 7.2893 33.3155 27.4331
Au 7.29581 35.3461 25.4064
Pt 5.49131 33.3546 29.4969
Pt 5.62258 35.3411 31.5494
Pt 7.42192 33.3332 31.411
Au 7.32225 35.3469 29.437
Pt 5.63032 33.3952 33.4408
Pt 5.82184 35.3031 35.3304
Pt 7.55437 33.3309 35.3507
Pt 7.5912 35.3065 33.4015
Pt 5.85798 33.3268 37.3303
Pt 7.64063 33.3524 39.3016
Pt 7.62921 35.3287 37.3085
Pt 7.65804 37.3224 15.5305
Au 5.64227 37.3228 17.3897
Au 5.64674 39.3646 19.3675
Pt 7.50479 37.3421 19.421
Pt 7.65466 39.3137 17.512
Au 5.37418 37.3783 21.3729
Pt 5.71558 39.3616 23.4737
Pt 7.37919 37.2686 23.4154
Au 7.46058 39.2503 21.4267
Pt 5.56653 37.3854 25.4232
Au 5.38383 39.3356 27.391
Pt 7.34287 37.3051 27.448
Au 7.49062 39.228 25.481
Au 5.33935 37.3032 29.5321
Pt 5.86617 39.2041 31.4883
Pt 7.57372 37.2693 31.442
Au 7.44338 39.2326 29.3989
Pt 5.81378 37.2577 33.4056
Pt 7.60484 37.3065 35.3579
Pt 7.61177 39.2757 33.4534
Pt 7.67722 41.239 19.5567
Au 5.65687 41.3324 21.5236
Pt 5.94383 43.1476 23.5593
Pt 7.68584 41.1984 23.4562
Pt 7.72361 43.1649 21.5446
Pt 5.78691 41.2813 25.4191
Au 5.91987 45.0344 25.4535
Pt 7.6078 41.1884 27.4822
Pt 7.78888 43.1069 25.4638
Au 5.64186 41.2678 29.4547
Pt 7.65825 41.1927 31.4035
Au 7.49278 43.3281 29.5538
Pt 7.81536 45.0059 23.5484
Pt 7.80971 44.9868 27.3685
Pt 5.93908 43.129 27.3368
Pt 9.69035 7.67076 19.5236
Pt 11.6624 5.83077 19.4983
Pt 11.6123 7.6681 17.5547
Pt 9.75901 5.84974 21.4926
Au 9.78222 7.66655 23.473
Pt 11.6304 5.66607 23.4321
Au 11.6734 7.62852 21.4441
Pt 9.67697 5.71371 25.4368
Pt 9.75783 7.63936 27.3918
Au 11.6137 5.35861 27.4201
Pt 11.6824 7.48497 25.4986
Pt 9.76361 5.86494 29.3521
Au 9.46044 7.42196 31.5581
Pt 11.6414 5.88715 31.3592
Pt 11.6313 7.61687 29.3718
Pt 11.5758 7.63771 33.3778
Pt 9.62087 11.5335 15.6296
Au 11.4121 9.40657 15.4102
Au 11.4691 11.3459 13.3919
Pt 9.65737 9.59097 17.5813
Pt 9.51342 11.582 19.4252
Pt 11.5915 9.61516 19.4503
Pt 11.5616 11.4714 17.4465
Au 9.63992 9.66122 21.4403
Pt 9.54747 11.6438 23.4032
Au 11.6667 9.64909 23.4818
Pt 11.5345 11.619 21.3812
Pt 9.64948 9.67996 25.4307
Au 9.55965 11.6236 27.4318
Au 11.6117 9.56797 27.4224
Au 11.6212 11.5938 25.4354
Pt 9.57319 9.50569 29.5385
Pt 9.39958 11.4879 31.4881
Pt 11.4754 9.42971 31.4043
Au 11.4551 11.5159 29.4741
Pt 9.61634 9.5586 33.3276
Au 9.46363 11.3858 35.543
Pt 11.6223 9.56566 35.3693
Au 11.4175 11.4936 33.4489
Au 11.4392 11.3969 37.5544
Pt 9.57901 15.5913 11.5437
Au 11.4628 13.3718 11.3581
Au 11.3961 15.3473 9.38535
Au 9.45704 13.4351 13.3654
Au 9.47665 15.3853 15.4396
Au 11.4723 13.4108 15.3985
Pt 11.5149 15.398 13.4154
Pt 9.41553 13.4227 17.4711
Au 9.55392 15.4739 19.4694
Pt 11.494 13.4494 19.3918
Au 11.4817 15.4073 17.4075
Pt 9.51687 13.5562 21.4803
Pt 9.37444 15.5193 23.4244
Au 11.5328 13.5533 23.4201
Pt 11.5045 15.4216 21.4426
Au 9.46838 13.5924 25.3967
Pt 9.35502 15.5567 27.4039
Au 11.5217 13.5745 27.45
Au 11.4932 15.5332 25.4337
Pt 9.39966 13.6116 29.4123
Au 9.44038 15.5427 31.3944
Au 11.4063 13.5068 31.4149
Au 11.4807 15.5343 29.4014
Pt 9.4543 13.4371 33.451
Pt 9.47246 15.493 35.4506
Pt 11.393 13.4091 35.4923
Au 11.4298 15.457 33.4593
Pt 9.52968 13.5709 37.3553
Pt 9.5861 15.5579 39.2961
Au 11.4158 13.4047 39.5441
Au 11.4904 15.4075 37.4414
Pt 11.6295 15.5853 41.2911
Pt 9.60874 19.5184 7.65443
Au 11.375 17.336 7.43914
Pt 11.6104 19.4987 5.86397
Pt 9.575 17.5728 9.59187
Pt 9.491 19.4061 11.5292
Au 11.5169 17.4129 11.4459
Pt 11.561 19.3827 9.47173
Au 9.47492 17.4601 13.4363
Au 9.53193 19.4693 15.5039
Au 11.4949 17.4136 15.4169
Pt 11.5635 19.341 13.4385
Pt 9.45675 17.5069 17.5332
Pt 9.33109 19.5555 19.5631
Au 11.4629 17.4911 19.4668
Au 11.4635 19.4829 17.5211
Au 9.42855 17.4848 21.4708
Au 9.38464 19.5097 23.4277
Au 11.4445 17.4556 23.4247
Au 11.3993 19.55 21.4178
Au 9.36254 17.4992 25.4279
Pt 9.26153 19.4894 27.3993
Au 11.4217 17.5148 27.4111
Pt 11.3543 19.4455 25.4606
Au 9.35758 17.5109 29.3716
Pt 9.31097 19.4944 31.333
Au 11.4373 17.4839 31.4165
Au 11.3341 19.5057 29.3989
Pt 9.39677 17.4942 33.3797
Au 9.46572 19.4722 35.3687
Au 11.4809 17.4645 35.4155
Au 11.4235 19.4564 33.3639
Pt 9.50953 17.4374 37.3712
Pt 9.49276 19.4364 39.3845
Au 11.4656 17.4994 39.395
Pt 11.4377 19.4455 37.3829
Au 9.46927 17.3644 41.4374
Pt 9.68339 19.5621 43.2568
Pt 11.6194 17.5595 43.2274
Au 11.542 19.4856 41.3485
Au 11.5671 19.4737 45.256
Pt 9.71304 21.4754 5.86946
Pt 9.64015 23.4255 7.66372
Pt 11.5994 21.4358 7.66573
Pt 11.52 23.3979 5.72838
Au 9.60597 21.4113 9.6197
Au 9.58355 23.4672 11.5952
Au 11.5768 21.3843 11.5284
Pt 11.5738 23.4435 9.49623
Au 9.54159 21.4716 13.5627
Pt 9.34547 23.497 15.5512
Au 11.5542 21.41 15.4695
Au 11.5401 23.4777 13.5692
Au 9.41778 21.4992 17.5224
Pt 9.30603 23.4669 19.5432
Pt 11.3668 21.5016 19.4962
Au 11.4299 23.4433 17.4774
Pt 9.27945 21.5034 21.4807
Au 9.28501 23.4498 23.4402
Pt 11.334 21.4535 23.4266
Au 11.346 23.4374 21.4418
Au 9.33414 21.4549 25.4234
Au 9.27532 23.4678 27.4069
Pt 11.294 21.4064 27.433
Au 11.3154 23.4818 25.442
Pt 9.23059 21.4451 29.3484
Au 9.26426 23.4294 31.3371
Pt 11.3462 21.4395 31.3529
Au 11.3115 23.4071 29.4113
Au 9.3892 21.4763 33.3374
Pt 9.37257 23.4659 35.4118
Au 11.4425 21.461 35.3888
Au 11.3942 23.4599 33.377
Pt 9.48466 21.4618 37.3407
Pt 9.51042 23.4296 39.1978
Pt 11.4647 21.427 39.2686
Pt 11.4431 23.4236 37.3005
Au 9.55747 21.4267 41.2998
Au 9.66107 23.4561 43.2704
Pt 11.6978 21.4836 43.3387
Au 11.5995 23.3963 41.2735
Pt 9.7294 21.5442 45.0357
Pt 11.5997 23.4833 45.2181
Pt 9.6307 25.4258 5.78244
Pt 9.63772 27.402 7.73436
Au 11.5664 25.4348 7.59485
Pt 11.4794 27.4716 5.72896
Pt 9.58377 25.4419 9.63667
Pt 9.49835 27.402 11.6124
Au 11.567 25.4877 11.5287
Pt 11.5802 27.4483 9.55223
Au 9.45901 25.4635 13.6154
Pt 9.37125 27.4091 15.5609
Au 11.4741 25.4932 15.5418
Pt 11.4936 27.429 13.5497
Au 9.37783 25.4459 17.4914
Au 9.35214 27.4424 19.4707
Au 11.4009 25.4628 19.4492
Pt 11.4458 27.4722 17.4989
Au 9.27709 25.4929 21.4754
Pt 9.07822 27.442 23.4137
Au 11.3012 25.5327 23.3934
Pt 11.3614 27.4713 21.3572
Au 9.21338 25.4855 25.4149
Au 9.16809 27.4062 27.4436
Pt 11.267 25.4643 27.4675
Au 11.2679 27.4257 25.478
Au 9.22696 25.4394 29.3906
Au 9.25154 27.42 31.3738
Au 11.3837 25.4412 31.408
Au 11.313 27.4437 29.399
Au 9.28305 25.4206 33.3717
Au 9.38234 27.394 35.3435
Pt 11.4321 25.3848 35.3627
Au 11.4298 27.3873 33.4099
Pt 9.46204 25.4024 37.2995
Au 9.60366 27.4194 39.2466
Pt 11.5047 25.3792 39.2003
Au 11.5052 27.4095 37.27
Au 9.70092 25.4414 41.1793
Au 9.66552 27.4575 43.2487
Au 11.6635 25.448 43.3697
Pt 11.6352 27.4461 41.3642
Pt 9.59997 25.4499 45.1088
Pt 11.6058 27.4485 45.1921
Pt 9.62725 29.3581 5.89188
Pt 9.54378 31.3306 7.70313
Pt 11.5467 29.3912 7.6881
Pt 11.4887 31.2976 5.87431
Au 9.55736 29.4202 9.6706
Pt 9.53356 31.419 11.5691
Au 11.5576 29.384 11.5649
Pt 11.5133 31.3777 9.5486
Au 9.46169 29.3289 13.5439
Au 9.50975 31.3848 15.5072
Au 11.4894 29.3796 15.4911
Au 11.5088 31.4415 13.4872
Au 9.41163 29.3838 17.4876
Pt 9.35933 31.3317 19.4463
Pt 11.4155 29.4296 19.4228
Pt 11.4666 31.4012 17.4921
Au 9.26374 29.3907 21.4597
Au 9.18947 31.3618 23.4578
Au 11.2637 29.3571 23.4355
Au 11.3583 31.3808 21.4122
Au 9.15549 29.3628 25.3967
Pt 9.19032 31.3465 27.4299
Au 11.2427 29.4357 27.4529
Au 11.253 31.4064 25.4631
Pt 9.17175 29.3927 29.388
Pt 9.29101 31.3474 31.395
Au 11.3394 29.4303 31.3714
Pt 11.2796 31.3686 29.407
Au 9.35992 29.3916 33.3883
Pt 9.4592 31.3976 35.3543
Pt 11.4745 29.4469 35.3367
Au 11.4178 31.4026 33.3959
Au 9.53973 29.4339 37.3
Au 9.56035 31.451 39.3882
Pt 11.5389 29.4789 39.3676
Pt 11.4816 31.456 37.3695
Pt 9.60983 29.3995 41.2602
Pt 9.61283 31.2658 43.1779
Au 11.6123 29.3912 43.3057
Au 11.5329 31.5149 41.3992
Au 9.58667 29.4098 45.2435
Pt 11.6325 31.3311 45.0169
Pt 11.463 33.2736 7.66661
Pt 9.5296 33.3046 9.59084
Pt 9.54241 35.336 11.6056
Au 11.4797 33.446 11.4496
Au 11.2889 35.5107 9.44922
Pt 9.48231 33.3943 13.5009
Au 9.53308 35.3606 15.4798
Pt 11.4836 33.3811 15.5079
Au 11.4992 35.3954 13.4786
Pt 9.45862 33.3208 17.5365
Au 9.42849 35.3206 19.5051
Pt 11.4268 33.3387 19.4641
Au 11.4708 35.3379 17.5095
Au 9.29729 33.297 21.4268
Au 9.34583 35.3131 23.4209
Au 11.3462 33.3511 23.4377
Pt 11.3901 35.309 21.4369
Pt 9.21268 33.311 25.4644
Au 9.35335 35.3092 27.4003
Pt 11.3054 33.3144 27.4383
Au 11.3626 35.3029 25.4338
Au 9.3639 33.3191 29.4012
Au 9.47417 35.299 31.4147
Au 11.4218 33.3256 31.4132
Pt 11.4389 35.3185 29.4333
Pt 9.43551 33.3199 33.3794
Au 9.51129 35.3585 35.3682
Pt 11.4648 33.4103 35.379
Pt 11.4471 35.374 33.4213
Au 9.51848 33.3767 37.3631
Pt 9.58215 35.3186 39.2947
Pt 11.4988 33.4351 39.4203
Au 11.4944 35.3892 37.4035
Au 9.41757 33.5222 41.449
Au 11.467 33.5376 43.4238
Pt 11.5862 35.3646 41.2829
Pt 11.4769 37.4179 11.6584
Pt 9.56053 37.3727 13.5918
Pt 9.5535 39.371 15.5708
Au 11.5012 37.4549 15.4831
Pt 11.5041 39.4223 13.5954
Au 9.51101 37.3913 17.4885
Pt 9.52455 39.3228 19.4788
Au 11.4769 37.3414 19.5126
Pt 11.4715 39.409 17.5142
Pt 9.40955 37.3132 21.4159
Pt 9.41971 39.1472 23.4111
Pt 11.3907 37.2379 23.3652
Pt 11.4678 39.2795 21.4511
Pt 9.35485 37.2583 25.4124
Pt 9.44476 39.2052 27.4491
Au 11.4446 37.2911 27.4578
Au 11.4546 39.1403 25.3928
Au 9.43964 37.2832 29.4074
Pt 9.45539 39.2514 31.4501
Au 11.4566 37.347 31.4302
Pt 11.3964 39.2778 29.4517
Pt 9.47775 37.3248 33.4206
Pt 9.53663 39.2412 35.3571
Pt 11.4394 37.3829 35.4465
Pt 11.4042 39.3353 33.4541
Pt 9.52931 37.2703 37.3408
Pt 11.5337 37.292 39.3632
Au 11.3163 39.402 37.5533
Pt 11.5085 41.3284 15.6005
Pt 9.56957 41.2856 17.5686
Pt 9.60354 43.1899 19.5614
Pt 11.5095 41.3603 19.4505
Au 11.3644 43.4119 17.4077
Au 9.58478 41.2153 21.4691
Au 9.68779 43.1939 23.5094
Au 11.5858 41.223 23.4966
Pt 11.5957 43.1924 21.5202
Au 9.5945 41.1442 25.4648
Pt 9.59741 43.125 27.4519
Au 11.5383 41.2058 27.4245
Pt 11.6286 43.3525 25.4972
Pt 9.4531 41.2581 29.4494
Pt 9.57854 43.171 31.3523
Au 11.4393 41.2374 31.411
Au 11.561 43.2114 29.3654
Pt 9.51245 41.219 33.365
Au 11.3254 41.4304 35.4825
Pt 11.4751 43.2041 33.3084
Pt 11.5879 45.0077 19.6254
Pt 9.6854 44.9959 21.5683
Pt 11.5608 45.1776 23.465
Pt 9.63931 45.1146 25.4657
Pt 11.5012 45.1689 27.456
Pt 9.6326 44.977 29.3363
Pt 11.5572 45.0029 31.3208
Pt 13.5228 7.65945 15.6104
Pt 15.4715 5.8271 15.6206
Au 15.3879 7.47743 13.4562
Pt 13.5616 5.82245 17.5985
Pt 13.6007 7.65601 19.4803
Pt 15.4962 5.63253 19.4545
Au 15.5552 7.55073 17.5207
Pt 13.5717 5.65616 21.3878
Au 13.6207 7.45402 23.4537
Pt 15.5366 5.52827 23.3349
Pt 15.5666 7.46602 21.412
Pt 13.577 5.55527 25.3843
Pt 13.5756 7.3496 27.4195
Au 15.4783 5.25184 27.4218
Pt 15.5615 7.29711 25.4236
Pt 13.501 5.66166 29.4966
Pt 13.5748 7.64013 31.4003
Pt 15.4891 5.65179 31.5026
Au 15.5421 7.35346 29.4097
Pt 13.549 5.8629 33.3324
Pt 13.595 7.64401 35.3496
Au 15.5316 5.613 35.4227
Au 15.5551 7.54289 33.4296
Pt 15.5553 7.6467 37.3382
Pt 13.606 11.4989 11.4895
Pt 15.5548 9.61045 11.538
Pt 15.5484 11.5347 9.51649
Pt 13.5989 9.56748 13.5818
Pt 13.4498 11.4257 15.48
Pt 15.4972 9.48469 15.492
Au 15.4928 11.4529 13.4847
Pt 13.5229 9.554 17.4674
Au 13.5649 11.5356 19.4141
Pt 15.5737 9.49804 19.4359
Pt 15.5007 11.4661 17.4088
Au 13.6217 9.59526 21.4477
Pt 13.6002 11.5896 23.3735
Au 15.5828 9.42847 23.4233
Pt 15.5564 11.5016 21.3746
Au 13.6428 9.44198 25.4878
Pt 13.5959 11.4599 27.4333
Pt 15.5846 9.23657 27.4192
Au 15.5298 11.4471 25.4468
Au 13.6032 9.48986 29.3622
Au 13.4788 11.46 31.4204
Au 15.6044 9.49511 31.4181
Au 15.5942 11.4479 29.4075
Au 13.4974 9.54266 33.4183
Au 13.4339 11.5263 35.5084
Au 15.5054 9.56477 35.4114
Pt 15.5491 11.4572 33.4144
Pt 13.5965 9.5769 37.3779
Pt 13.5917 11.5315 39.3569
Pt 15.551 9.54942 39.3088
Pt 15.492 11.5002 37.4593
Au 15.3385 11.3653 41.443
Pt 13.5729 15.517 7.60334
Pt 15.5519 13.5405 7.58769
Pt 15.5232 15.5644 5.82276
Pt 13.635 13.4969 9.47269
Au 13.4318 15.4025 11.3743
Au 15.4894 13.4364 11.4298
Pt 15.5284 15.4847 9.45167
Au 13.4212 13.3824 13.4249
Pt 13.5057 15.4137 15.417
Pt 15.4711 13.411 15.4357
Au 15.4495 15.4201 13.4378
Pt 13.5132 13.415 17.3911
Au 13.4853 15.4203 19.411
Pt 15.5118 13.4568 19.3496
Au 15.4775 15.413 17.3672
Au 13.558 13.5051 21.417
Pt 13.5091 15.4911 23.3961
Pt 15.4861 13.5277 23.4071
Pt 15.4843 15.4546 21.4132
Au 13.5679 13.5287 25.4344
Pt 13.487 15.5714 27.433
Au 15.5169 13.4866 27.4701
Au 15.4421 15.528 25.4224
Au 13.494 13.4942 29.4249
Pt 13.4581 15.5159 31.4303
Au 15.4895 13.4546 31.4251
Au 15.4374 15.5048 29.47
Au 13.452 13.4625 33.4284
Au 13.4502 15.447 35.4679
Au 15.4535 13.453 35.4747
Au 15.4145 15.5026 33.4245
Pt 13.4227 13.4182 37.531
Au 13.509 15.4577 39.4224
Pt 15.4803 13.4586 39.4581
Au 15.4663 15.484 37.4694
Pt 13.5909 13.5641 41.3217
Pt 13.5818 15.5374 43.221
Pt 15.4672 13.5826 43.255
Pt 15.534 15.5762 41.4074
Pt 15.5379 15.56 45.0213
Pt 13.5939 17.536 5.84356
Pt 13.5472 19.4329 7.6203
Pt 15.5186 17.4961 7.60393
Pt 15.4547 19.3938 5.63684
Pt 13.4383 17.4046 9.42738
Au 13.5669 19.3771 11.4607
Pt 15.4652 17.4066 11.4253
Pt 15.5339 19.4155 9.43601
Pt 13.5038 17.374 13.42
Pt 13.5426 19.3425 15.3702
Pt 15.4974 17.367 15.3808
Pt 15.5133 19.311 13.4541
Au 13.4812 17.448 17.3891
Au 13.4935 19.5155 19.4856
Au 15.4884 17.4302 19.4114
Au 15.4807 19.417 17.3845
Au 13.4879 17.4478 21.4451
Au 13.3838 19.4867 23.4177
Pt 15.4082 17.4565 23.4273
Pt 15.4182 19.4638 21.4708
Pt 13.4095 17.5131 25.4003
Pt 13.3473 19.4724 27.4285
Au 15.4073 17.4955 27.4545
Au 15.3723 19.4457 25.4272
Pt 13.433 17.5328 29.4247
Au 13.4255 19.4471 31.4151
Pt 15.4321 17.433 31.4219
Au 15.4275 19.4367 29.4678
Pt 13.4545 17.4699 33.4312
Pt 13.4437 19.4235 35.4561
Pt 15.4191 17.4696 35.4787
Au 15.4083 19.4046 33.4336
Pt 13.4518 17.4783 37.4622
Pt 13.5077 19.4613 39.3835
Pt 15.5095 17.516 39.4496
Au 15.4677 19.42 37.4498
Au 13.5774 17.5502 41.4073
Pt 13.5951 19.5748 43.397
Au 15.6048 17.6039 43.4079
Pt 15.5595 19.524 41.4686
Pt 13.5668 17.5157 44.9898
Au 15.4652 19.4828 45.5389
Pt 13.466 21.3418 5.69888
Au 13.5865 23.4157 7.41934
Pt 15.5643 21.4099 7.36041
Au 15.4329 23.3483 5.29449
Au 13.6124 21.4503 9.48621
Au 13.5872 23.4741 11.4878
Au 15.5561 21.4366 11.4807
Au 15.6256 23.4646 9.34087
Au 13.5675 21.4049 13.4772
Au 13.558 23.4966 15.4944
Au 15.4979 21.4531 15.4003
Pt 15.5967 23.5377 13.4179
Au 13.5071 21.435 17.4493
Au 13.4148 23.4386 19.4418
Pt 15.4172 21.4912 19.4626
Pt 15.4269 23.4844 17.4906
Pt 13.3861 21.4814 21.4264
Au 13.3206 23.4772 23.4115
Au 15.3684 21.4662 23.4184
Au 15.3758 23.4694 21.4325
Au 13.2927 21.4356 25.4455
Au 13.3019 23.448 27.4385
Au 15.3659 21.4368 27.4424
Au 15.3489 23.4676 25.4344
Au 13.3644 21.4529 29.4396
Pt 13.3753 23.4636 31.4279
Pt 15.3856 21.4294 31.459
Au 15.3621 23.4423 29.4912
Au 13.4113 21.4616 33.389
Pt 13.4092 23.452 35.3865
Au 15.4454 21.44 35.4291
Au 15.3996 23.4479 33.4075
Au 13.4472 21.4319 37.3914
Pt 13.4512 23.4031 39.3022
Au 15.5239 21.4436 39.42
Au 15.5017 23.4274 37.3942
Au 13.5918 21.4669 41.3843
Pt 13.6103 23.4684 43.4702
Pt 15.564 21.4901 43.6112
Au 15.5432 23.454 41.5309
Au 13.5047 21.5336 45.5284
Pt 15.5013 23.5221 45.3643
Pt 13.3973 25.5099 5.66678
Pt 13.5148 27.4711 7.51849
Au 15.567 25.4154 7.24056
Pt 15.3752 27.537 5.57255
Au 13.6137 25.463 9.44099
Au 13.5907 27.4747 11.4745
Au 15.6161 25.5236 11.3822
Pt 15.59 27.4685 9.29375
Au 13.5833 25.4945 13.4684
Au 13.5216 27.4683 15.4578
Au 15.5261 25.4799 15.4331
Pt 15.5836 27.4972 13.3894
Pt 13.431 25.5157 17.4919
Pt 13.3941 27.4912 19.4105
Au 15.3895 25.4732 19.4335
Au 15.4321 27.4917 17.4635
Pt 13.3446 25.4753 21.3549
Au 13.3401 27.4395 23.412
Au 15.3485 25.4739 23.4258
Au 15.3641 27.4697 21.4068
Au 13.3123 25.501 25.4926
Pt 13.3371 27.4969 27.4667
Au 15.3592 25.4787 27.461
Au 15.3697 27.4843 25.5017
Au 13.3374 25.4695 29.413
Pt 13.3874 27.4501 31.4307
Au 15.3534 25.478 31.453
Au 15.3665 27.5003 29.4242
Pt 13.4248 25.4207 33.4297
Pt 13.4429 27.3995 35.3617
Au 15.458 25.4469 35.3831
Pt 15.3809 27.4247 33.4329
Au 13.4755 25.3991 37.3406
Au 13.4659 27.449 39.3797
Au 15.517 25.4417 39.4136
Au 15.4878 27.4428 37.3825
Au 13.5507 25.4125 41.3671
Pt 13.6099 27.4285 43.4257
Pt 15.5225 25.487 43.5058
Au 15.5251 27.449 41.4411
Pt 13.5731 25.4669 45.3268
Pt 15.4829 27.448 45.3863
Pt 13.3901 29.4205 5.68908
Pt 13.5013 31.3691 7.53144
Pt 15.4679 29.4586 7.41435
Au 15.3785 31.374 5.35293
Pt 13.5582 29.4247 9.44871
Au 13.5349 31.4083 11.4594
Au 15.5592 29.4273 11.3693
Pt 15.5004 31.3999 9.35167
Pt 13.5473 29.4455 13.4886
Au 13.4733 31.4242 15.4693
Pt 15.4364 29.4722 15.4642
Au 15.5097 31.4539 13.4636
Pt 13.4177 29.452 17.4624
Pt 13.3835 31.4055 19.4099
Pt 15.3283 29.4536 19.415
Pt 15.3727 31.4191 17.4477
Au 13.3586 29.433 21.4098
Au 13.3668 31.4242 23.4845
Au 15.3979 29.4746 23.4774
Au 15.3861 31.4167 21.443
Au 13.3496 29.4253 25.4823
Au 13.3405 31.4206 27.4188
Pt 15.3821 29.4865 27.4634
Pt 15.4074 31.4091 25.4868
Au 13.351 29.4594 29.4281
Pt 13.4149 31.4385 31.4502
Au 15.3859 29.4472 31.4573
Au 15.4021 31.4301 29.4646
Au 13.4236 29.4129 33.4056
Au 13.4398 31.4656 35.4121
Au 15.4444 29.4525 35.4004
Pt 15.4207 31.4356 33.4353
Au 13.4504 29.4538 37.3614
Au 13.4968 31.4615 39.3823
Au 15.4993 29.4363 39.3917
Pt 15.4545 31.4688 37.3978
Pt 13.5643 29.4585 41.434
Au 13.5727 31.4741 43.3525
Pt 15.523 29.4015 43.4631
Au 15.5339 31.4185 41.4125
Pt 13.563 29.4124 45.2469
Pt 15.4645 31.392 45.2601
Au 13.342 33.3849 5.65143
Pt 13.3688 35.2935 7.59537
Au 15.4649 33.3496 7.37967
Pt 15.5436 35.5509 6.05012
Au 13.4622 33.4153 9.4418
Au 13.3971 35.5055 11.3653
Au 15.4731 33.4404 11.4144
Au 15.3794 35.5529 9.26984
Pt 13.4829 33.4038 13.4866
Au 13.4999 35.384 15.484
Pt 15.446 33.3865 15.4998
Au 15.4344 35.3812 13.4506
Au 13.454 33.4003 17.4934
Pt 13.441 35.3596 19.4899
Au 15.4195 33.4125 19.4622
Pt 15.4689 35.3901 17.5059
Pt 13.3853 33.359 21.3898
Au 13.396 35.3069 23.4146
Au 15.4133 33.3582 23.477
Au 15.4516 35.4007 21.4439
Pt 13.3553 33.3604 25.4672
Au 13.4122 35.3465 27.44
Au 15.4103 33.3907 27.4122
Au 15.4656 35.3841 25.4398
Au 13.3778 33.3597 29.4324
Au 13.4335 35.383 31.4383
Pt 15.391 33.4301 31.4925
Au 15.4284 35.4352 29.4442
Pt 13.4361 33.3987 33.4311
Au 13.4429 35.4073 35.4036
Au 15.4494 33.4227 35.4149
Au 15.4453 35.4406 33.4066
Pt 13.4676 33.4302 37.4235
Au 13.4978 35.3845 39.3873
Pt 15.4885 33.4512 39.4131
Pt 15.4246 35.4521 37.4524
Pt 13.5308 33.4512 41.3892
Pt 13.5751 35.339 43.2481
Pt 15.5455 33.3967 43.3507
Pt 15.495 35.3836 41.3549
Au 13.5989 33.4333 45.3128
Pt 15.5461 35.3908 45.036
Au 15.2646 37.7698 7.49987
Au 13.2843 37.6446 9.50786
Pt 13.4909 39.493 11.6187
Au 15.3674 37.5104 11.4198
Pt 15.5065 39.5353 9.63463
Au 13.4707 37.4953 13.4631
Au 13.4642 39.5099 15.4819
Au 15.4689 37.4564 15.5265
Pt 15.3709 39.5791 13.4994
Au 13.5131 37.3937 17.5392
Au 13.5013 39.3923 19.5144
Pt 15.5505 37.4446 19.4924
Au 15.5074 39.4513 17.542
Au 13.4823 37.3499 21.4565
Au 13.569 39.3275 23.4535
Au 15.548 37.4477 23.4439
Pt 15.571 39.4605 21.4684
Au 13.5049 37.3139 25.4076
Au 13.5321 39.2615 27.4229
Pt 15.4956 37.4082 27.4263
Pt 15.5875 39.4727 25.451
Pt 13.4443 37.3469 29.4425
Au 13.4687 39.2979 31.4119
Pt 15.4503 37.3858 31.4435
Au 15.5404 39.3451 29.4051
Pt 13.396 37.3713 33.4275
Au 13.3206 39.3588 35.4677
Au 15.4142 37.4495 35.4428
Au 15.4698 39.3533 33.4319
Pt 13.412 37.4019 37.4402
Pt 13.4655 39.225 39.3743
Pt 15.4365 37.4005 39.4537
Pt 15.4026 39.3585 37.4972
Pt 13.5258 37.2738 41.3239
Pt 15.4709 37.3303 43.2091
Au 15.2755 39.4597 41.485
Pt 15.5187 41.4413 11.5997
Au 13.3194 41.5611 13.4212
Pt 13.5395 43.2479 15.6378
Pt 15.4459 41.4098 15.5417
Pt 15.4859 43.276 13.6402
Pt 13.4248 41.4006 17.5309
Pt 13.4792 43.2617 19.4813
Au 15.5348 41.4495 19.5011
Pt 15.4297 43.3708 17.5265
Au 13.5718 41.3557 21.5226
Pt 13.5389 43.3926 23.5299
Pt 15.5614 41.5248 23.4949
Pt 15.473 43.431 21.5077
Au 13.5813 41.3606 25.4607
Pt 13.5648 43.4433 27.3774
Au 15.5714 41.4438 27.4262
Pt 15.4786 43.4796 25.4657
Au 13.536 41.2909 29.3677
Au 13.5165 43.2547 31.3961
Au 15.5448 41.3807 31.4042
Au 15.5187 43.4373 29.395
Au 13.4148 41.3232 33.4485
Pt 13.4752 43.2515 35.2583
Au 15.404 41.3628 35.4472
Pt 15.5306 43.3729 33.3624
Pt 13.4541 41.1925 37.3396
Au 15.2508 41.3855 39.4729
Au 15.2544 43.3984 37.4185
Au 15.4623 45.3011 15.5286
Au 13.4557 45.282 17.5769
Pt 15.3582 45.2014 19.517
Pt 13.466 45.174 21.5081
Pt 15.4043 45.2866 23.4955
Au 13.4823 45.5584 25.4781
Pt 15.4903 45.3214 27.4245
Pt 13.4755 45.1944 29.4257
Pt 15.4272 45.2267 31.4018
Pt 13.477 45.0396 33.2805
Au 15.3602 45.2679 35.3211
Au 17.4778 7.41894 11.4542
Pt 19.7038 5.75992 11.6184
Pt 19.6304 7.58256 9.64064
Au 17.5999 5.55084 13.5554
Au 17.5252 7.43732 15.4994
Pt 19.6013 5.60346 15.4817
Au 19.5264 7.51531 13.5135
Au 17.5045 5.33522 17.4728
Pt 17.5296 7.3939 19.4299
Pt 19.4729 5.49737 19.483
Pt 19.5249 7.31421 17.5082
Pt 17.4756 5.52232 21.3791
Pt 17.4979 7.35043 23.3615
Pt 19.3784 5.41793 23.2896
Pt 19.4747 7.3346 21.4186
Pt 17.4553 5.45755 25.2757
Au 17.5344 7.16002 27.4087
Au 19.383 5.14497 27.4373
Pt 19.4952 7.15149 25.3604
Pt 17.4856 5.52846 29.5768
Pt 17.5411 7.42141 31.4575
Pt 19.4496 5.49175 31.563
Pt 19.5376 7.20576 29.5001
Pt 17.5142 5.64143 33.4686
Pt 17.5009 7.58773 35.3677
Pt 19.4411 5.67089 35.4028
Pt 19.5119 7.44215 33.3935
Pt 17.5657 5.88885 37.3305
Pt 17.5574 7.65596 39.3369
Au 19.4551 5.64025 39.3709
Pt 19.5429 7.55955 37.3751
Pt 19.5104 7.7004 41.2527
Pt 17.4886 11.5797 7.62723
Au 19.2997 9.35277 7.4991
Pt 19.5377 11.5801 5.94792
Au 17.3707 9.4164 9.46425
Pt 17.5008 11.458 11.3949
Pt 19.3945 9.50729 11.4443
Pt 19.4343 11.4774 9.38523
Au 17.453 9.43361 13.4439
Pt 17.4534 11.4392 15.4639
Au 19.5257 9.44358 15.5232
Pt 19.4019 11.4527 13.4571
Au 17.5587 9.45235 17.4758
Au 17.5138 11.4378 19.4294
Pt 19.5067 9.27611 19.4604
Pt 19.4456 11.4313 17.4609
Pt 17.5476 9.31611 21.3944
Au 17.4855 11.4097 23.3944
Au 19.4913 9.26261 23.4437
Au 19.4986 11.3288 21.437
Au 17.5216 9.25545 25.4432
Au 17.5134 11.3687 27.4336
Au 19.5091 9.16932 27.4215
Au 19.4997 11.3142 25.4212
Au 17.5703 9.30476 29.4181
Pt 17.569 11.4589 31.4289
Pt 19.5149 9.30865 31.4047
Au 19.4734 11.3667 29.4652
Pt 17.5779 9.4363 33.367
Au 17.5038 11.5192 35.4221
Au 19.4886 9.47517 35.3761
Au 19.488 11.4568 33.3527
Au 17.5028 9.5284 37.4151
Pt 17.3982 11.5082 39.4215
Pt 19.4791 9.57831 39.3305
Pt 19.4384 11.5303 37.4334
Pt 17.5469 9.58445 41.2433
Au 17.3523 11.3736 43.4382
Pt 19.5452 9.61107 43.2166
Au 19.4406 11.5359 41.3972
Pt 19.5691 11.6018 44.9994
Au 17.4519 13.4742 5.6247
Pt 17.4968 15.4897 7.5306
Pt 19.4914 13.6202 7.50568
Au 19.3981 15.4583 5.36271
Au 17.5155 13.4883 9.46821
Au 17.5075 15.4975 11.4377
Pt 19.4522 13.4914 11.4081
Pt 19.4824 15.5282 9.42447
Au 17.5077 13.4208 13.4262
Pt 17.454 15.4025 15.3872
Au 19.4456 13.417 15.4478
Pt 19.43 15.4652 13.4306
Pt 17.4461 13.438 17.3743
Pt 17.4262 15.4026 19.3499
Au 19.4506 13.4576 19.3841
Pt 19.3759 15.416 17.3603
Au 17.4508 13.4737 21.4111
Au 17.4611 15.4718 23.4279
Au 19.489 13.3924 23.439
Au 19.4459 15.4465 21.3989
Au 17.4811 13.4612 25.4119
Au 17.4776 15.4617 27.4793
Au 19.4381 13.4195 27.465
Pt 19.4355 15.4509 25.4424
Pt 17.5129 13.4976 29.5197
Pt 17.4493 15.4508 31.4569
Pt 19.4473 13.467 31.4453
Pt 19.4243 15.426 29.5223
Au 17.4681 13.4759 33.405
Au 17.4491 15.4683 35.4655
Pt 19.44 13.4765 35.3868
Pt 19.427 15.4311 33.4018
Pt 17.4497 13.4765 37.4684
Au 17.4694 15.5246 39.4706
Au 19.4518 13.5081 39.4315
Au 19.4475 15.4695 37.44
Au 17.3898 13.448 41.4692
Pt 17.5393 15.621 43.3511
Au 19.5026 13.5942 43.3535
Au 19.498 15.6118 41.4587
Pt 17.4925 13.5978 44.9894
Au 19.4674 15.4669 45.5286
Pt 17.3949 17.4671 5.67824
Pt 17.4942 19.4762 7.3977
Au 19.526 17.4412 7.31104
Pt 19.4632 19.4614 5.54602
Au 17.5476 17.4993 9.42189
Au 17.497 19.3904 11.4499
Pt 19.4909 17.4728 11.4189
Pt 19.5172 19.4358 9.284
Pt 17.4843 17.3838 13.428
Au 17.4751 19.3838 15.3805
Pt 19.4249 17.3798 15.3994
Pt 19.4531 19.345 13.4148
Pt 17.4486 17.3539 17.3264
Au 17.3995 19.4699 19.4194
Au 19.3829 17.4005 19.3593
Au 19.4207 19.4321 17.3801
Au 17.4123 17.4385 21.4298
Au 17.4164 19.4478 23.4139
Pt 19.4157 17.4405 23.4093
Au 19.4229 19.4521 21.4234
Au 17.4565 17.4564 25.4048
Au 17.4287 19.438 27.4714
Au 19.4206 17.4127 27.4843
Au 19.4315 19.452 25.4186
Pt 17.4386 17.3885 29.5273
Pt 17.3816 19.3707 31.4447
Pt 19.4101 17.3687 31.4575
Au 19.3795 19.4056 29.5099
Au 17.4308 17.4274 33.4212
Au 17.4445 19.4202 35.4808
Au 19.4481 17.4566 35.4649
Au 19.412 19.4307 33.425
Pt 17.4603 17.4941 37.5102
Pt 17.4939 19.4604 39.493
Pt 19.4303 17.5614 39.5045
Pt 19.4224 19.4698 37.5236
Pt 17.4909 17.5968 41.4809
Pt 17.5256 19.5451 43.6112
Pt 19.4469 17.5294 43.5695