3871
Atoms. Timestep: 20178
Au 5.75924 7.67754 23.4392
Pt 7.86187 5.89648 23.4787
Pt 7.79224 7.71358 21.5213
Pt 6.18089 5.90166 25.4492
Pt 5.98692 7.71528 27.3319
Pt 7.88797 5.85002 27.4027
Au 7.83511 7.75421 25.4143
Pt 7.73976 7.68236 29.3392
Pt 5.9256 11.6079 19.5573
Pt 7.73907 9.62224 19.507
Au 7.468 11.3431 17.3543
Pt 5.97407 9.65851 21.4893
Au 5.48231 11.488 23.4216
Pt 7.70968 9.66204 23.4513
Pt 7.63024 11.6571 21.5118
Pt 5.87093 9.58777 25.4223
Pt 5.79819 11.5308 27.4241
Au 7.71558 9.65336 27.4598
Pt 7.52976 11.6663 25.3664
Au 5.66318 9.62561 29.3655
Pt 5.96103 11.6355 31.3586
Au 7.49407 9.43271 31.489
Pt 7.64347 11.5654 29.4331
Au 7.49197 11.4454 33.5604
Pt 5.81507 15.588 15.6452
Au 7.44973 13.4086 15.3845
Pt 7.56809 15.5833 13.5842
Pt 5.90265 13.5676 17.5943
Pt 5.6865 15.4861 19.4675
Pt 7.62911 13.5509 19.5312
Pt 7.61628 15.5086 17.5281
Au 5.4167 13.5447 21.424
Pt 5.63276 15.5459 23.4053
Pt 7.41382 13.5505 23.4232
Pt 7.48933 15.4795 21.4434
Au 5.39292 13.558 25.4121
Pt 5.61675 15.526 27.3723
Au 7.4394 13.5751 27.4318
Pt 7.42437 15.5141 25.3971
Au 5.46225 13.5255 29.453
Pt 5.70736 15.4684 31.4917
Pt 7.58826 13.5731 31.4305
Pt 7.38655 15.5446 29.4191
Au 5.61782 13.5637 33.4012
Pt 5.88403 15.5742 35.3143
Pt 7.63863 13.5814 35.3435
Pt 7.62476 15.4942 33.3949
Au 7.46292 15.3867 37.5144
Pt 5.87058 19.5632 11.5878
Au 7.43282 17.3505 11.3809
Pt 7.64879 19.5157 9.60039
Pt 5.83854 17.5853 13.5731
Pt 5.64789 19.4276 15.5083
Au 7.57059 17.5135 15.5581
Pt 7.57026 19.5112 13.5304
Pt 5.65744 17.4729 17.5297
Pt 5.5703 19.4759 19.5215
Au 7.47111 17.5062 19.5004
Au 7.43291 19.5249 17.5372
Pt 5.61016 17.4571 21.4577
Au 5.21853 19.4592 23.4164
Pt 7.39944 17.5512 23.4347
Pt 7.3422 19.5233 21.5014
Pt 5.57955 17.4568 25.3841
Pt 5.52099 19.4522 27.3306
Pt 7.36602 17.5117 27.4063
Pt 7.33399 19.4848 25.3552
Au 5.2854 17.405 29.3779
Au 5.26588 19.474 31.4594
Pt 7.36911 17.5207 31.3487
Au 7.23931 19.4463 29.4196
Pt 5.72236 17.4343 33.4444
Pt 5.72405 19.4369 35.3895
Pt 7.60717 17.4813 35.4397
Au 7.42628 19.4721 33.3353
Au 5.59759 17.5002 37.3121
Au 5.63549 19.4925 39.3227
Pt 7.63867 17.559 39.2384
Pt 7.58687 19.4525 37.3437
Au 7.52181 19.3796 41.4447
Au 5.72294 23.4264 7.6929
Pt 7.72774 21.5092 7.71285
Au 7.75253 23.4175 5.68052
Pt 5.8998 21.5086 9.68846
Pt 5.71081 23.4043 11.5168
Pt 7.63822 21.4926 11.6419
Pt 7.69036 23.4389 9.62412
Au 5.37894 21.4455 13.4914
Pt 5.55403 23.4769 15.5531
Au 7.38703 21.479 15.475
Pt 7.38609 23.4706 13.5853
Pt 5.56769 21.4999 17.542
Pt 5.47848 23.4755 19.5156
Pt 7.36404 21.5046 19.5161
Au 7.37472 23.4743 17.532
Pt 5.48964 21.496 21.4475
Pt 5.45153 23.432 23.3875
Pt 7.2932 21.4454 23.4246
Pt 7.32812 23.4651 21.4597
Pt 5.47492 21.463 25.3845
Pt 5.44663 23.4203 27.3865
Au 7.29475 21.4654 27.3734
Pt 7.25922 23.4853 25.3993
Pt 5.49205 21.4825 29.3619
Pt 5.50007 23.4186 31.3811
Pt 7.3094 21.4378 31.3542
Pt 7.2704 23.4607 29.3775
Pt 5.59232 21.4282 33.4334
Au 5.34092 23.3617 35.4146
Pt 7.49609 21.4744 35.388
Au 7.32408 23.4381 33.3933
Pt 5.72266 21.3887 37.3534
Au 5.46676 23.4321 39.3615
Au 7.57599 21.4372 39.2828
Pt 7.42845 23.4612 37.3413
Pt 5.94591 21.569 41.2716
Pt 5.95092 23.5469 43.0969
Pt 7.7265 21.579 43.2534
Pt 7.71255 23.5012 41.1665
Au 7.68868 23.495 45.2468
Au 5.94278 25.4786 5.83742
Pt 5.92894 27.3319 7.74079
Pt 7.76433 25.3654 7.72622
Pt 7.82536 27.3734 5.89842
Pt 5.80898 25.3845 9.59464
Pt 5.69609 27.3766 11.55
Au 7.50077 25.4039 11.6691
Au 7.61447 27.4127 9.68408
Au 5.31243 25.4283 13.5585
Pt 5.52533 27.4122 15.5627
Pt 7.36563 25.4636 15.5178
Pt 7.38801 27.3893 13.6075
Pt 5.52677 25.4531 17.5002
Pt 5.445 27.3957 19.4176
Pt 7.33616 25.4501 19.4874
Pt 7.37666 27.4109 17.5063
Pt 5.46121 25.4313 21.4273
Pt 5.43913 27.3761 23.3651
Pt 7.22581 25.4157 23.4434
Pt 7.24143 27.4566 21.4085
Au 5.15344 25.4146 25.3972
Pt 5.43171 27.4148 27.458
Pt 7.18298 25.4259 27.404
Pt 7.1464 27.4035 25.4143
Au 5.15455 25.377 29.3879
Au 5.19703 27.4751 31.4608
Pt 7.19457 25.4697 31.3028
Pt 7.16803 27.4164 29.4669
Pt 5.56952 25.4365 33.3642
Au 5.34881 27.5307 35.3843
Au 7.28441 25.4476 35.4208
Pt 7.30159 27.4634 33.3552
Au 5.38528 25.5283 37.4622
Pt 5.78176 27.4968 39.3747
Pt 7.5465 25.4224 39.2288
Pt 7.4991 27.4361 37.3184
Pt 5.79623 25.4543 41.2499
Pt 5.89851 27.3902 43.0139
Pt 7.82552 25.4428 43.0736
Pt 7.7229 27.4378 41.1886
Pt 5.97116 25.4913 44.7491
Pt 7.71021 27.3838 44.9603
Pt 7.69144 29.3461 7.74837
Au 5.63216 29.3755 9.61728
Au 5.62296 31.4634 11.5658
Pt 7.51405 29.4032 11.6191
Pt 7.63934 31.3356 9.68247
Au 5.39545 29.376 13.5464
Pt 5.67196 31.4593 15.4891
Pt 7.41233 29.372 15.5023
Au 7.5167 31.3543 13.5161
Pt 5.54732 29.3803 17.456
Pt 5.52364 31.408 19.3422
Pt 7.31408 29.3841 19.4671
Au 7.43734 31.3621 17.4742
Au 5.16661 29.3851 21.3429
Au 5.16411 31.4405 23.38
Pt 7.10313 29.446 23.4082
Pt 7.23061 31.3129 21.4082
Au 5.14029 29.3658 25.4313
Pt 5.43202 31.4044 27.5256
Au 7.19207 29.4109 27.4159
Pt 7.15758 31.3223 25.4322
Pt 5.45958 29.4732 29.4784
Pt 5.52903 31.4391 31.4559
Pt 7.31415 29.4236 31.3828
Pt 7.3333 31.4121 29.4479
Pt 5.56553 29.4745 33.3948
Au 5.37207 31.4277 35.4669
Pt 7.40914 29.4365 35.372
Au 7.40256 31.3993 33.4286
Pt 5.72089 29.454 37.4269
Pt 5.88889 31.3638 39.2407
Pt 7.66699 29.4194 39.3097
Pt 7.62506 31.3877 37.2973
Au 5.64915 29.4622 41.2423
Pt 7.70285 29.3571 43.1439
Pt 7.65489 31.3444 41.2444
Pt 7.64497 33.3762 11.562
Pt 5.89257 33.4079 13.5874
Pt 5.88488 35.3122 15.522
Pt 7.63528 33.3706 15.5337
Pt 7.67131 35.3747 13.531
Pt 5.64972 33.4107 17.4235
Pt 5.68358 35.358 19.3176
Pt 7.45129 33.3348 19.4137
Pt 7.60791 35.3473 17.4743
Pt 5.54801 33.3628 21.2737
Au 5.2623 35.389 23.471
Au 7.19513 33.3367 23.4348
Au 7.30896 35.3909 21.4513
Pt 5.46677 33.373 25.509
Pt 5.53612 35.346 27.4371
Au 7.30455 33.3374 27.4398
Au 7.31203 35.37 25.4144
Pt 5.50935 33.3789 29.5041
Pt 5.64544 35.3657 31.5572
Pt 7.44032 33.3542 31.4169
Au 7.3419 35.3706 29.4439
Pt 5.6501 33.4181 33.4472
Pt 5.84462 35.323 35.3397
Pt 7.57491 33.3496 35.3571
Pt 7.61476 35.3256 33.4099
Pt 5.87751 33.3473 37.3362
Pt 7.66026 33.3696 39.3069
Pt 7.65317 35.3463 37.3169
Pt 7.66859 37.3316 15.531
Au 5.65463 37.3353 17.3923
Au 5.66299 39.3794 19.3677
Pt 7.51874 37.3554 19.4226
Pt 7.66906 39.3245 17.511
Au 5.39074 37.3986 21.3791
Pt 5.73813 39.3839 23.4782
Pt 7.39725 37.2928 23.4246
Au 7.47891 39.2656 21.4259
Pt 5.58924 37.417 25.4338
Au 5.41594 39.3644 27.4032
Pt 7.36399 37.3337 27.4563
Au 7.50815 39.2663 25.4948
Au 5.36498 37.3339 29.5395
Pt 5.89274 39.2221 31.5068
Pt 7.59962 37.2904 31.452
Au 7.47379 39.2585 29.41
Pt 5.83939 37.2767 33.4189
Pt 7.63209 37.3233 35.3703
Pt 7.64177 39.2914 33.4715
Pt 7.69646 41.2519 19.5531
Au 5.67661 41.3485 21.5196
Pt 5.97525 43.1838 23.5369
Pt 7.70938 41.2184 23.4458
Pt 7.74755 43.1849 21.536
Pt 5.80724 41.3173 25.4029
Au 5.68708 43.2161 27.3658
Pt 7.5772 41.2642 27.5063
Pt 7.82096 43.078 25.485
Au 5.66284 41.2516 29.5237
Pt 7.69765 41.2026 31.4416
Au 7.51732 43.3106 29.5485
Pt 7.86653 45.046 23.4989
Pt 6.17347 44.951 25.416
Pt 7.81447 44.9609 27.4037
Pt 9.68085 7.67384 19.5312
Pt 11.6525 5.83283 19.5064
Pt 11.6028 7.66973 17.5626
Pt 9.74896 5.85308 21.5002
Au 9.77302 7.67021 23.4799
Pt 11.621 5.66908 23.4393
Au 11.6643 7.63104 21.4514
Pt 9.66746 5.71782 25.4437
Pt 9.74901 7.64378 27.3979
Au 11.6047 5.36232 27.4267
Pt 11.6739 7.48813 25.5051
Pt 9.75445 5.86968 29.3582
Au 9.45223 7.42705 31.5638
Pt 11.6331 5.89153 31.3647
Pt 11.6233 7.62058 29.3771
Pt 11.5684 7.64213 33.3828
Pt 9.61206 11.5361 15.6374
Au 11.4028 9.40773 15.4182
Au 11.4599 11.3467 13.4
Pt 9.64823 9.59382 17.589
Pt 9.50498 11.5857 19.4322
Pt 11.5828 9.61736 19.4575
Pt 11.5533 11.4733 17.4536
Au 9.63116 9.66487 21.4473
Pt 9.53951 11.6481 23.4095
Au 11.6583 9.65188 23.4883
Pt 11.5265 11.6217 21.3876
Pt 9.64091 9.68422 25.4369
Au 9.55184 11.6285 27.437
Au 11.6037 9.57165 27.4279
Au 11.6134 11.5972 25.4409
Pt 9.56533 9.51044 29.544
Pt 9.39218 11.4934 31.4928
Pt 11.4682 9.43372 31.4091
Au 11.4477 11.5199 29.4789
Pt 9.60879 9.56392 33.3322
Au 9.45623 11.3917 35.5465
Pt 11.6153 9.57013 35.3732
Au 11.4105 11.4981 33.4528
Au 11.4323 11.4014 37.5571
Pt 9.57024 15.5937 11.5522
Au 11.4539 13.372 11.3664
Au 11.3872 15.3472 9.39384
Au 9.44819 13.4377 13.3735
Au 9.46927 15.3888 15.4468
Au 11.4642 13.4124 15.4057
Pt 11.5073 15.3992 13.4226
Pt 9.40754 13.4264 17.4781
Au 9.54727 15.4784 19.476
Pt 11.4864 13.4519 19.3982
Au 11.4747 15.4096 17.4139
Pt 9.50951 13.5606 21.4867
Pt 9.36821 15.5248 23.4301
Au 11.5256 13.5566 23.4258
Pt 11.4982 15.4248 21.4484
Au 9.46108 13.5976 25.4021
Pt 9.34882 15.5629 27.4085
Au 11.5147 13.5784 27.4545
Au 11.4869 15.5372 25.4383
Pt 9.39277 13.6173 29.4164
Au 9.43442 15.5488 31.3977
Au 11.3996 13.5113 31.4186
Au 11.4748 15.5386 29.405
Pt 9.44741 13.4428 33.4547
Pt 9.46598 15.4995 35.453
Pt 11.3864 13.4138 35.4955
Au 11.4238 15.4614 33.4622
Pt 9.52194 13.5773 37.3576
Pt 9.5788 15.5642 39.2975
Au 11.4084 13.4092 39.5457
Au 11.484 15.4122 37.4434
Pt 11.6222 15.5894 41.292
Pt 9.60117 19.5194 7.66262
Au 11.3665 17.3353 7.44747
Pt 11.6024 19.4971 5.87171
Pt 9.56681 17.5747 9.60043
Pt 9.48495 19.4091 11.5368
Au 11.5098 17.4136 11.4532
Pt 11.5543 19.3828 9.47873
Au 9.46809 17.4635 13.4439
Au 9.52678 19.4737 15.5109
Au 11.4885 17.4159 15.4234
Pt 11.5579 19.3427 13.445
Pt 9.45076 17.5117 17.54
Pt 9.32637 19.562 19.5691
Au 11.4572 17.4943 19.4725
Au 11.4585 19.4864 17.5271
Au 9.42307 17.4905 21.4765
Au 9.38081 19.5165 23.4327
Au 11.4392 17.4598 23.4294
Au 11.3949 19.5544 21.4224
Au 9.35737 17.5057 25.4329
Pt 9.25779 19.4971 27.4036
Au 11.4168 17.5194 27.4148
Pt 11.3502 19.4507 25.4647
Au 9.35264 17.5177 29.3753
Pt 9.30754 19.5021 31.3359
Au 11.4324 17.4884 31.4192
Au 11.3304 19.511 29.4018
Pt 9.39156 17.5011 33.382
Au 9.46189 19.4795 35.3701
Au 11.4755 17.4693 35.4173
Au 11.4195 19.4617 33.3655
Pt 9.50392 17.4442 37.3728
Pt 9.48804 19.4436 39.3853
Au 11.4594 17.504 39.3962
Pt 11.4332 19.4506 37.384
Au 9.46186 17.3709 41.4378
Pt 9.67638 19.568 43.2566
Pt 11.6119 17.563 43.2277
Au 11.5359 19.4895 41.3494
Au 11.5591 19.4766 45.2561
Pt 9.70597 21.4755 5.87699
Pt 9.63506 23.4267 7.67023
Pt 11.5932 21.4352 7.67224
Pt 11.5142 23.3964 5.73419
Au 9.60036 21.4135 9.62694
Au 9.57977 23.4709 11.6017
Au 11.5717 21.3857 11.5347
Pt 11.5694 23.4439 9.50188
Au 9.53716 21.476 13.5698
Pt 9.34277 23.5034 15.5576
Au 11.5502 21.4131 15.4752
Au 11.5368 23.4807 13.5749
Au 9.41413 21.5053 17.5284
Pt 9.30479 23.4747 19.5487
Pt 11.3634 21.5065 19.5012
Au 11.4273 23.4482 17.4824
Pt 9.2769 21.5109 21.4862
Au 9.28463 23.4588 23.4452
Pt 11.3311 21.459 23.4306
Au 11.3445 23.4435 21.4461
Au 9.33213 21.4629 25.4278
Au 9.2755 23.4775 27.4109
Pt 11.2917 21.4127 27.4366
Au 11.3146 23.4885 25.4456
Pt 9.22923 21.454 29.352
Au 9.26487 23.4401 31.3399
Pt 11.3437 21.4461 31.3547
Au 11.3112 23.4149 29.4138
Au 9.38736 21.485 33.3392
Pt 9.373 23.4758 35.4128
Au 11.4399 21.467 35.3896
Au 11.3937 23.4673 33.3782
Pt 9.48262 21.4702 37.3414
Pt 9.51039 23.4385 39.1982
Pt 11.4614 21.4322 39.2694
Pt 11.4426 23.4301 37.3009
Au 9.55357 21.4339 41.3005
Au 9.65848 23.4635 43.2708
Pt 11.6923 21.4869 43.3393
Au 11.5971 23.4008 41.2743
Pt 9.72347 21.5502 45.0353
Pt 11.5955 23.4865 45.2194
Pt 9.62616 25.4259 5.78799
Pt 9.63539 27.4033 7.73893
Au 11.5626 25.4343 7.59961
Pt 11.4762 27.47 5.73259
Pt 9.58074 25.4444 9.64237
Pt 9.49752 27.4063 11.6173
Au 11.5645 25.4896 11.5334
Pt 11.5786 27.4489 9.55588
Au 9.45731 25.4689 13.6213
Pt 9.3721 27.4165 15.5663
Au 11.4727 25.4978 15.5467
Pt 11.4932 27.4326 13.5538
Au 9.37746 25.4538 17.4972
Au 9.35444 27.4521 19.4763
Au 11.4005 25.4694 19.4539
Pt 11.4462 27.4787 17.5034
Au 9.27822 25.5023 21.4808
Pt 9.08282 27.4536 23.419
Au 11.3023 25.5401 23.3977
Pt 11.3632 27.4795 21.3621
Au 9.21582 25.4963 25.4197
Au 9.17259 27.4197 27.4477
Pt 11.2679 25.4735 27.4701
Au 11.2709 27.4361 25.4812
Au 9.22989 25.4515 29.394
Au 9.25814 27.434 31.3771
Au 11.3858 25.4504 31.41
Au 11.3175 27.4545 29.4015
Au 9.2861 25.4327 33.3738
Au 9.38939 27.4072 35.3455
Pt 11.4341 25.3932 35.3633
Au 11.4352 27.3978 33.4113
Pt 9.46534 25.413 37.3004
Au 9.61125 27.431 39.2481
Pt 11.5066 25.3857 39.2007
Au 11.5114 27.4184 37.271
Au 9.70362 25.4507 41.1797
Au 9.67048 27.4673 43.2499
Au 11.6629 25.4524 43.3712
Pt 11.64 27.4537 41.3663
Pt 9.59945 25.4579 45.1095
Pt 11.6071 27.4537 45.1942
Pt 9.62562 29.3582 5.89522
Pt 9.54449 31.3319 7.70533
Pt 11.5459 29.3907 7.6906
Pt 11.4887 31.2959 5.87556
Au 9.55732 29.4229 9.67408
Pt 9.5358 31.423 11.5717
Au 11.5581 29.386 11.5676
Pt 11.5147 31.3784 9.54995
Au 9.46319 29.3346 13.548
Au 9.51395 31.3921 15.5107
Au 11.4911 29.3846 15.4945
Au 11.5116 31.445 13.4889
Au 9.41486 29.3932 17.4928
Pt 9.36576 31.3436 19.4518
Pt 11.4182 29.4381 19.4278
Pt 11.4708 31.4081 17.4953
Au 9.26912 29.4028 21.4653
Au 9.19754 31.3775 23.4631
Au 11.2687 29.3686 23.4397
Au 11.3641 31.3927 21.4171
Au 9.16216 29.3773 25.4011
Pt 9.20123 31.3641 27.4343
Au 11.2489 29.4481 27.456
Au 11.2607 31.4203 25.4671
Pt 9.18109 29.4085 29.3919
Pt 9.30491 31.3646 31.3991
Au 11.3481 29.4431 31.3735
Pt 11.2907 31.3837 29.4097
Au 9.37103 29.407 33.3917
Pt 9.47568 31.4136 35.3589
Pt 11.485 29.4585 35.3388
Au 11.4319 31.4164 33.3989
Au 9.55194 29.4476 37.3029
Au 9.57623 31.465 39.3922
Pt 11.5496 29.4893 39.3705
Pt 11.4973 31.4684 37.3738
Pt 9.62008 29.4114 41.2625
Pt 9.62495 31.278 43.1799
Au 11.6198 29.3994 43.308
Au 11.5472 31.526 41.4028
Au 9.59442 29.4209 45.2446
Pt 11.6434 31.3414 45.0176
Pt 11.4653 33.2731 7.66659
Pt 9.53268 33.3071 9.59196
Pt 9.54813 35.3399 11.6055
Au 11.4835 33.448 11.4498
Au 11.2935 35.5113 9.4478
Pt 9.48722 33.3999 13.5027
Au 9.54136 35.3678 15.4804
Pt 11.4892 33.3863 15.5089
Au 11.5058 35.3988 13.4774
Pt 9.46614 33.3304 17.5395
Au 9.4388 35.3324 19.5078
Pt 11.4341 33.348 19.4669
Au 11.4795 35.3451 17.51
Au 9.30619 33.3131 21.4329
Au 9.35872 35.3338 23.4282
Au 11.3547 33.3666 23.4432
Pt 11.4009 35.3207 21.4393
Pt 9.22516 33.3304 25.4697
Au 9.36917 35.3306 27.4061
Pt 11.3173 33.3312 27.4413
Au 11.3743 35.324 25.4387
Au 9.3797 33.3385 29.4062
Au 9.49544 35.3181 31.4209
Au 11.4383 33.3416 31.4172
Pt 11.4564 35.3372 29.4376
Pt 9.45467 33.3371 33.3847
Au 9.53617 35.3746 35.3767
Pt 11.4849 33.4242 35.3845
Pt 11.4704 35.3892 33.4281
Au 9.53931 33.3924 37.3694
Pt 9.60646 35.3348 39.3011
Pt 11.5192 33.4483 39.4255
Au 11.5195 35.4038 37.4105
Au 9.43733 33.5372 41.4528
Au 11.4863 33.5507 43.4257
Pt 11.6107 35.3803 41.2863
Pt 11.4844 37.4199 11.6555
Pt 9.56938 37.3782 13.5903
Pt 9.56594 39.3779 15.5678
Au 11.5113 37.4598 15.4805
Pt 11.5147 39.4257 13.5909
Au 9.52302 37.4003 17.488
Pt 9.54092 39.3338 19.4769
Au 11.4893 37.3506 19.5122
Pt 11.4858 39.4154 17.5101
Pt 9.42412 37.3271 21.4178
Pt 9.43742 39.1634 23.4118
Pt 11.4054 37.2525 23.3667
Pt 11.4841 39.291 21.4502
Pt 9.36693 37.2863 25.4224
Pt 9.44681 39.2465 27.4635
Au 11.4561 37.3159 27.4637
Au 11.4739 39.153 25.3975
Au 9.46075 37.305 29.4136
Pt 9.48686 39.2659 31.4643
Au 11.4818 37.3626 31.4375
Pt 11.4191 39.295 29.4587
Pt 9.50556 37.3405 33.432
Pt 9.56869 39.2569 35.3708
Pt 11.4692 37.3982 35.4564
Pt 11.437 39.3494 33.4664
Pt 9.5576 37.2868 37.3503
Pt 11.5627 37.3086 39.3689
Au 11.3496 39.4192 37.5632
Pt 11.5229 41.3334 15.5941
Pt 9.58648 41.2939 17.5632
Pt 9.62646 43.2002 19.5514
Pt 11.5283 41.3686 19.4447
Au 11.3837 43.4191 17.3983
Au 9.60661 41.23 21.4643
Au 9.70512 43.2073 23.5139
Au 11.6027 41.2358 23.4983
Pt 11.6177 43.2006 21.5176
Au 9.62091 41.1497 25.4744
Pt 9.63513 43.1383 27.4579
Au 11.5643 41.2195 27.4318
Pt 11.6445 43.3718 25.4998
Pt 9.47853 41.2685 29.4595
Pt 9.60385 43.1831 31.3614
Au 11.4675 41.2527 31.4225
Au 11.5886 43.2226 29.3761
Pt 9.55011 41.2348 33.3857
Au 11.3619 41.4473 35.4978
Pt 11.5076 43.2189 33.3199
Pt 11.615 45.016 19.6147
Pt 9.7243 45.0089 21.5525
Pt 11.5761 45.1881 23.4717
Pt 9.62213 45.1283 25.4746
Pt 11.5201 45.1802 27.4604
Pt 9.66404 44.9853 29.3525
Pt 11.5874 45.0133 31.332
Pt 13.5134 7.65955 15.6185
Pt 15.462 5.82635 15.6295
Au 15.3786 7.47578 13.465
Pt 13.5518 5.82321 17.607
Pt 13.5917 7.65726 19.4879
Pt 15.4872 5.63296 19.4625
Au 15.5463 7.55068 17.5287
Pt 13.5624 5.65795 21.3954
Au 13.6123 7.45607 23.4604
Pt 15.5282 5.52975 23.3421
Pt 15.5586 7.46678 21.419
Pt 13.5683 5.55784 25.3911
Pt 13.5679 7.35254 27.4254
Au 15.4705 5.25423 27.428
Pt 15.5538 7.29894 25.4299
Pt 13.493 5.66502 29.5025
Pt 13.5674 7.6436 31.4052
Pt 15.4821 5.65484 31.5078
Au 15.5351 7.35599 29.415
Pt 13.5416 5.86679 33.3372
Pt 13.5883 7.64785 35.3539
Au 15.5251 5.61633 35.4269
Au 15.5486 7.546 33.4341
Pt 15.5494 7.64994 37.3418
Pt 13.5969 11.4974 11.4977
Pt 15.5453 9.60765 11.5467
Pt 15.5392 11.531 9.525
Pt 13.5895 9.56675 13.5899
Pt 13.4413 11.426 15.4872
Pt 15.4885 9.48377 15.4996
Au 15.4843 11.4512 13.4922
Pt 13.5142 9.55476 17.4747
Au 13.557 11.5368 19.4207
Pt 15.5657 9.49834 19.4431
Pt 15.4928 11.4658 17.4155
Au 13.6135 9.59683 21.4546
Pt 13.5925 11.5916 23.3795
Au 15.5755 9.42957 23.4295
Pt 15.549 11.5023 21.3809
Au 13.6351 9.44444 25.4937
Pt 13.5888 11.4627 27.4382
Pt 15.5777 9.23891 27.4246
Au 15.5231 11.4485 25.4519
Au 13.5959 9.4928 29.3671
Au 13.4722 11.4632 31.4245
Au 15.598 9.49768 31.4225
Au 15.5878 11.4498 29.4117
Au 13.4908 9.54637 33.4226
Au 13.4275 11.5301 35.5118
Au 15.4994 9.56802 35.4151
Pt 15.5435 11.4599 33.4179
Pt 13.5901 9.58056 37.3811
Pt 13.5855 11.5349 39.3594
Pt 15.5453 9.55239 39.3118
Pt 15.4863 11.5031 37.4623
Au 15.3326 11.3678 41.4455
Pt 13.5641 15.5142 7.6115
Pt 15.543 13.5361 7.59588
Pt 15.5142 15.5595 5.83074
Pt 13.6262 13.4945 9.48085
Au 13.424 15.4016 11.3813
Au 15.4812 13.4339 11.4371
Pt 15.5205 15.4814 9.45864
Au 13.413 13.3821 13.4321
Pt 13.4986 15.4141 15.4234
Pt 15.4636 13.4101 15.4422
Au 15.4423 15.4186 13.4441
Pt 13.5057 13.4158 17.3976
Au 13.4787 15.4217 19.4165
Pt 15.5047 13.457 19.3555
Au 15.4709 15.4126 17.3727
Au 13.5508 13.5067 21.4226
Pt 13.503 15.4932 23.4008
Pt 15.4796 13.5286 23.4121
Pt 15.4782 15.455 21.4179
Au 13.5611 13.531 25.4393
Pt 13.4811 15.5741 27.4366
Au 15.5109 13.4881 27.4742
Au 15.4365 15.529 25.4262
Au 13.4877 13.4971 29.4288
Pt 13.4526 15.5189 31.4332
Au 15.484 13.4566 31.4284
Au 15.4322 15.5063 29.4731
Au 13.4458 13.4659 33.4315
Au 13.4444 15.4501 35.4703
Au 15.448 13.4556 35.4774
Au 15.4094 15.5047 33.4269
Pt 13.4166 13.4218 37.5338
Au 13.5026 15.4608 39.4243
Pt 15.4746 13.4612 39.4608
Au 15.4607 15.4862 37.4716
Pt 13.584 13.5667 41.3231
Pt 13.5748 15.5395 43.2219
Pt 15.4606 13.5844 43.2564
Pt 15.5278 15.5779 41.409
Pt 15.5309 15.5612 45.0225
Pt 13.5852 17.5325 5.85145
Pt 13.5402 19.4306 7.62683
Pt 15.5109 17.4921 7.61063
Pt 15.4473 19.3887 5.643
Pt 13.4307 17.4031 9.43428
Au 13.5608 19.3765 11.4667
Pt 15.4584 17.4044 11.4313
Pt 15.5276 19.4124 9.44171
Pt 13.4973 17.3739 13.4262
Pt 13.5373 19.3433 15.3755
Pt 15.4915 17.3661 15.3862
Pt 15.5078 19.3097 13.4592
Au 13.4752 17.4491 17.3945
Au 13.4888 19.5176 19.4902
Au 15.4827 17.4305 19.4159
Au 15.4756 19.4171 17.3888
Au 13.4825 17.4498 21.4498
Au 13.3794 19.4896 23.4213
Pt 15.4032 17.4573 23.4309
Pt 15.414 19.4646 21.4742
Pt 13.4045 17.5157 25.4038
Pt 13.3435 19.4756 27.4314
Au 15.4025 17.4967 27.4572
Au 15.3682 19.4469 25.4298
Pt 13.4282 17.5355 29.4274
Au 13.4215 19.4503 31.4168
Pt 15.4275 17.4348 31.424
Au 15.4235 19.4382 29.4695
Pt 13.4495 17.4727 33.4333
Pt 13.4392 19.4265 35.4571
Pt 15.414 17.4713 35.4804
Au 15.4042 19.4061 33.4347
Pt 13.4463 17.4812 37.4636
Pt 13.5025 19.4637 39.3846
Pt 15.5041 17.5174 39.4513
Au 15.4631 19.4211 37.4509
Au 13.5709 17.5527 41.4086
Pt 13.5885 19.5764 43.3982
Au 15.5983 17.6048 43.4093
Pt 15.5541 19.5245 41.47
Pt 13.5591 17.5173 44.9904
Au 15.4587 19.482 45.5407
Pt 13.4594 21.3384 5.70495
Au 13.5816 23.4133 7.42405
Pt 15.5586 21.4055 7.36554
Au 15.4278 23.3426 5.29891
Au 13.6068 21.4489 9.49174
Au 13.5832 23.474 11.4924
Au 15.5511 21.4346 11.4853
Au 15.6213 23.4613 9.34464
Au 13.5628 21.4054 13.4823
Au 13.5549 23.4985 15.499
Au 15.4936 21.4529 15.4044
Pt 15.5931 23.5368 13.4215
Au 13.5032 21.4372 17.454
Au 13.4124 23.4422 19.4456
Pt 15.4135 21.492 19.466
Pt 15.424 23.4854 17.494
Pt 13.3826 21.4847 21.43
Au 13.319 23.4813 23.4146
Au 15.3651 21.4676 23.4207
Au 15.3735 23.4712 21.435
Au 13.2898 21.4392 25.4485
Au 13.3007 23.453 27.4406
Au 15.3628 21.4386 27.4439
Au 15.3467 23.47 25.4358
Au 13.3616 21.4568 29.4414
Pt 13.3737 23.4685 31.4284
Pt 15.3825 21.4312 31.4596
Au 15.3601 23.4448 29.4917
Au 13.4082 21.4654 33.3896
Pt 13.4079 23.4561 35.3867
Au 15.4418 21.4409 35.4294
Au 15.3976 23.4496 33.4073
Au 13.4437 21.4346 37.392
Pt 13.449 23.4056 39.3028
Au 15.5196 21.4437 39.421
Au 15.499 23.4275 37.3943
Au 13.5867 21.4683 41.3851
Pt 13.6062 23.4688 43.4718
Pt 15.5589 21.4887 43.6129
Au 15.5392 23.4524 41.5324
Au 13.4982 21.5338 45.5298
Pt 15.4962 23.519 45.3672
Pt 13.3927 25.5068 5.67071
Pt 13.5124 27.4687 7.52127
Au 15.5635 25.4109 7.24321
Pt 15.372 27.5321 5.57453
Au 13.6107 25.4616 9.44464
Au 13.5896 27.4746 11.4772
Au 15.6136 25.5216 11.385
Pt 15.5885 27.4651 9.29532
Au 13.5811 25.4956 13.4722
Au 13.5213 27.471 15.461
Au 15.524 25.4802 15.436
Pt 15.5827 27.4964 13.3912
Pt 13.4293 25.5196 17.4958
Pt 13.3944 27.4967 19.4142
Au 15.3879 25.4755 19.436
Au 15.4317 27.4938 17.4659
Pt 13.3442 25.4803 21.3585
Au 13.3416 27.4465 23.4149
Au 15.3472 25.4771 23.4273
Au 15.3642 27.4735 21.4087
Au 13.3122 25.507 25.495
Pt 13.3396 27.5049 27.4682
Au 15.3588 25.4823 27.4614
Au 15.3703 27.4893 25.5025
Au 13.338 25.476 29.4138
Pt 13.3911 27.4578 31.4312
Au 15.353 25.4811 31.4527
Au 15.3682 27.5051 29.424
Pt 13.426 25.4264 33.4302
Pt 13.4473 27.4056 35.3621
Au 15.4579 25.4486 35.3826
Pt 15.3836 27.4288 33.4325
Au 13.4765 25.4032 37.3408
Au 13.4694 27.4535 39.381
Au 15.5152 25.4406 39.4141
Au 15.4897 27.4445 37.3828
Au 13.5493 25.4141 41.3682
Pt 13.6104 27.4299 43.4283
Pt 15.5191 25.4841 43.5088
Au 15.5241 27.447 41.4428
Pt 13.5699 25.4667 45.3298
Pt 15.4803 27.4443 45.3911
Pt 13.3885 29.4171 5.6907
Pt 13.5019 31.3667 7.53179
Pt 15.467 29.4544 7.41507
Au 15.3784 31.3685 5.35237
Pt 13.558 29.4234 9.45026
Au 13.5369 31.4082 11.4599
Au 15.5596 29.4252 11.3699
Pt 15.5017 31.3967 9.35122
Pt 13.548 29.4468 13.4905
Au 13.4763 31.4272 15.4706
Pt 15.4372 29.4732 15.4655
Au 15.5119 31.4532 13.4634
Pt 13.4192 29.4566 17.4654
Pt 13.3877 31.4121 19.4125
Pt 15.3301 29.4573 19.4169
Pt 15.3758 31.4216 17.4483
Au 13.3613 29.4407 21.4131
Au 13.3722 31.4351 23.4879
Au 15.3999 29.4807 23.4786
Au 15.3901 31.4227 21.4444
Au 13.3539 29.4349 25.4847
Au 13.3481 31.4324 27.4209
Pt 15.3857 29.4933 27.4638
Pt 15.4124 31.418 25.488
Au 13.357 29.4692 29.4291
Pt 13.4259 31.4502 31.4519
Au 15.3909 29.4535 31.4567
Au 15.4092 31.4387 29.4648
Au 13.4314 29.4218 33.4066
Au 13.4533 31.4755 35.4151
Au 15.4504 29.4569 35.4011
Pt 15.4309 31.4428 33.4366
Au 13.459 29.4613 37.3635
Au 13.5107 31.4706 39.3853
Au 15.5049 29.4386 39.3936
Pt 15.4661 31.4753 37.3996
Pt 13.5716 29.4643 41.4364
Au 13.5844 31.4809 43.3549
Pt 15.5243 29.3993 43.4669
Au 15.5445 31.4222 41.415
Pt 13.5653 29.4144 45.2506
Pt 15.4673 31.3897 45.2663
Au 13.3436 33.3814 5.65043
Pt 13.3726 35.2912 7.59317
Au 15.467 33.3451 7.37797
Pt 15.5467 35.545 6.04635
Au 13.4652 33.414 9.44089
Au 13.4025 35.5055 11.3628
Au 15.4767 33.4384 11.4128
Au 15.384 35.5496 9.2666
Pt 13.4872 33.4052 13.486
Au 13.507 35.3869 15.4823
Pt 15.4505 33.3873 15.4984
Au 15.4401 35.3807 13.4475
Au 13.4596 33.405 17.4938
Pt 13.4498 35.3667 19.4899
Au 15.425 33.4171 19.4619
Pt 15.4758 35.3927 17.5035
Pt 13.3926 33.3681 21.3923
Au 13.4065 35.319 23.4172
Au 15.4198 33.3667 23.4779
Au 15.46 35.4073 21.4431
Pt 13.3627 33.3744 25.4706
Au 13.4236 35.364 27.4438
Au 15.4183 33.4018 27.4134
Au 15.4764 35.394 25.4415
Au 13.3901 33.3738 29.4343
Au 13.4531 35.3967 31.4428
Pt 15.4039 33.4399 31.4945
Au 15.4432 35.4476 29.4468
Pt 13.4532 33.4108 33.4352
Au 13.4671 35.4209 35.4099
Au 15.466 33.4318 35.4176
Au 15.4658 35.4524 33.4111
Pt 13.4872 33.4418 37.4279
Au 13.5226 35.3975 39.3918
Pt 15.5065 33.4596 39.4159
Pt 15.4488 35.464 37.457
Pt 13.5497 33.4615 41.3925
Pt 13.5975 35.3516 43.2492
Pt 15.5608 33.4017 43.3538
Pt 15.5176 35.3937 41.3569
Au 13.6158 33.4436 45.3139
Pt 15.5668 35.3994 45.0369
Au 15.27 37.7651 7.49477
Au 13.2906 37.6433 9.5037
Pt 13.4999 39.4932 11.613
Au 15.3744 37.5087 11.4147
Pt 15.5143 39.5322 9.6281
Au 13.4791 37.4967 13.4591
Au 13.4762 39.5129 15.4763
Au 15.4776 37.4576 15.5222
Pt 15.3809 39.579 13.4928
Au 13.5234 37.3986 17.5365
Au 13.5153 39.3992 19.511
Pt 15.5603 37.4493 19.4893
Au 15.5192 39.4545 17.5367
Au 13.4946 37.3594 21.4563
Au 13.5837 39.3386 23.4546
Au 15.5597 37.4561 23.4433
Pt 15.5835 39.4667 21.466
Au 13.5214 37.3275 25.4115
Au 13.5539 39.2757 27.4281
Pt 15.5121 37.4204 27.4303
Pt 15.6022 39.4841 25.4514
Pt 13.4643 37.3632 29.4479
Au 13.4951 39.3133 31.421
Pt 15.4717 37.3995 31.4493
Au 15.5634 39.3594 29.4117
Pt 13.4226 37.3851 33.4349
Au 13.3542 39.3747 35.4784
Au 15.4429 37.464 35.4497
Au 15.4997 39.369 33.4414
Pt 13.4425 37.417 37.4479
Pt 13.4999 39.2423 39.3796
Pt 15.4667 37.4144 39.4579
Pt 15.4395 39.3755 37.505
Pt 13.5544 37.2892 41.3264
Pt 15.4977 37.3421 43.2096
Au 15.3122 39.4745 41.4875
Pt 15.5292 41.44 11.5917
Au 13.3316 41.563 13.4138
Pt 13.5558 43.2517 15.6289
Pt 15.4593 41.4115 15.534
Pt 15.4993 43.2766 13.6307
Pt 13.4407 41.4057 17.5237
Pt 13.4987 43.2668 19.4755
Au 15.5494 41.454 19.4962
Pt 15.4456 43.3744 17.5186
Au 13.5884 41.3632 21.5211
Pt 13.5551 43.4036 23.5312
Pt 15.576 41.5343 23.4943
Pt 15.4879 43.4383 21.5049
Au 13.5978 41.3744 25.4628
Pt 13.5844 43.4555 27.3815
Au 15.5911 41.4564 27.4293
Pt 15.496 43.4895 25.4668
Au 13.5624 41.3044 29.3766
Au 13.5478 43.2677 31.4067
Au 15.5747 41.3954 31.415
Au 15.5444 43.4486 29.4013
Au 13.4476 41.339 33.4604
Pt 13.5118 43.2651 35.2717
Au 15.4432 41.3797 35.4594
Pt 15.5674 43.3856 33.3766
Pt 13.4926 41.2098 37.3496
Au 15.296 41.4023 39.4799
Au 15.3026 43.4138 37.4305
Au 15.4791 45.3039 15.5173
Au 13.4765 45.2878 17.5662
Pt 15.3734 45.2066 19.5114
Pt 13.4825 45.1821 21.5077
Pt 15.4217 45.2944 23.4943
Au 13.5031 45.5685 25.4818
Pt 15.5129 45.3296 27.428
Pt 13.5011 45.2039 29.4321
Pt 15.4602 45.235 31.4118
Pt 13.5125 45.0502 33.2923
Au 15.4 45.2786 35.333
Au 17.4691 7.41492 11.4637
Pt 19.6951 5.75495 11.6288
Pt 19.622 7.5765 9.65045
Au 17.5909 5.54786 13.5653
Au 17.5168 7.43537 15.5079
Pt 19.5932 5.60077 15.4909
Au 19.5182 7.51174 13.5224
Au 17.4958 5.3342 17.4814
Pt 17.5218 7.39327 19.4371
Pt 19.4652 5.49626 19.491
Pt 19.5176 7.31236 17.5161
Pt 17.4674 5.52254 21.3866
Pt 17.4906 7.35111 23.3682
Pt 19.371 5.41817 23.2967
Pt 19.4677 7.33405 21.4256
Pt 17.4476 5.45886 25.2825
Au 17.5275 7.16185 27.4145
Au 19.3765 5.14675 27.4436
Pt 19.4886 7.15211 25.3667
Pt 17.479 5.53089 29.5823
Pt 17.5351 7.42383 31.4623
Pt 19.4439 5.49395 31.5681
Pt 19.5322 7.20734 29.5053
Pt 17.5081 5.64428 33.4732
Pt 17.4952 7.5907 35.3716
Pt 19.4357 5.67353 35.4069
Pt 19.5067 7.44448 33.3978
Pt 17.56 5.89182 37.3341
Pt 17.5522 7.65873 39.3402
Au 19.4501 5.6428 39.374
Pt 19.5378 7.56214 37.3787
Pt 19.5058 7.7027 41.2555
Pt 17.4795 11.5741 7.63582
Au 19.2907 9.34587 7.50867
Pt 19.5287 11.5725 5.95698
Au 17.3615 9.41172 9.47343
Pt 17.4923 11.4541 11.4027
Pt 19.3861 9.50277 11.4525
Pt 19.426 11.4717 9.39295
Au 17.4446 9.43078 13.452
Pt 17.4457 11.4373 15.4708
Au 19.5181 9.44072 15.5309
Pt 19.3943 11.449 13.4642
Au 17.5508 9.45111 17.4831
Au 17.5066 11.437 19.4358
Pt 19.5 9.27463 19.467
Pt 19.4386 11.429 17.4676
Pt 17.5406 9.3159 21.4007
Au 17.4793 11.4097 23.3997
Au 19.4852 9.26233 23.4498
Au 19.4927 11.3276 21.4426
Au 17.5151 9.25652 25.4489
Au 17.5077 11.3699 27.4383
Au 19.5037 9.16999 27.4267
Au 19.4945 11.3141 25.4262
Au 17.5644 9.30649 29.4228
Pt 17.5638 11.4603 31.4325
Pt 19.51 9.31025 31.409
Au 19.4688 11.3674 29.4692
Pt 17.5724 9.43877 33.371
Au 17.4986 11.5216 35.4253
Au 19.4838 9.47751 35.3798
Au 19.4834 11.4585 33.3561
Au 17.4975 9.53115 37.4185
Pt 17.3929 11.5106 39.4244
Pt 19.4744 9.58075 39.3336
Pt 19.4338 11.5325 37.4363
Pt 17.5418 9.58684 41.246
Au 17.3472 11.3751 43.4405
Pt 19.5407 9.61276 43.2192
Au 19.436 11.5377 41.3999
Pt 19.5647 11.6031 45.0017
Au 17.4428 13.4678 5.63292
Pt 17.4888 15.4841 7.53747
Pt 19.4831 13.6136 7.51306
Au 19.3901 15.4503 5.36948
Au 17.5073 13.4835 9.47561
Au 17.5003 15.4937 11.4439
Pt 19.4447 13.4863 11.4149
Pt 19.4751 15.5222 9.43078
Au 17.5002 13.4178 13.4328
Pt 17.4476 15.4004 15.3927
Au 19.4389 13.4137 15.4539
Pt 19.4235 15.461 13.4362
Pt 17.4392 13.4366 17.3803
Pt 17.4204 15.4017 19.3549
Au 19.4446 13.4556 19.3895
Pt 19.37 15.4134 17.3653
Au 17.4445 13.4732 21.4163
Au 17.4557 15.4714 23.4318
Au 19.4838 13.3914 23.4436
Au 19.4408 15.4447 21.4031
Au 17.4755 13.4614 25.4162
Au 17.4728 15.4619 27.4824
Au 19.4336 13.4197 27.4685
Pt 19.431 15.4499 25.4456
Pt 17.508 13.4983 29.523
Pt 17.4449 15.4517 31.4594
Pt 19.443 13.4678 31.4483
Pt 19.4203 15.4259 29.5249
Au 17.4633 13.4776 33.4078
Au 17.4444 15.4697 35.4679
Pt 19.4358 13.478 35.3896
Pt 19.4233 15.4319 33.4043
Pt 17.4446 13.4786 37.4711
Au 17.4642 15.5259 39.4728
Au 19.4471 13.5096 39.4341
Au 19.4433 15.4705 37.4424
Au 17.3845 13.4496 41.4719
Pt 17.5332 15.6219 43.3527
Au 19.4979 13.5953 43.3561
Au 19.4932 15.6122 41.4608
Pt 17.4864 13.5992 44.9908
Au 19.4629 15.4668 45.5307
Pt 17.3871 17.4608 5.68475
Pt 17.4877 19.4705 7.40312
Au 19.5191 17.4338 7.31672
Pt 19.4566 19.4531 5.55109
Au 17.5407 17.4946 9.42765
Au 17.4913 19.3867 11.4547
Pt 19.4848 17.4678 11.4239
Pt 19.5116 19.4294 9.28854
Pt 17.4783 17.3809 13.4331
Au 17.47 19.3817 15.3847
Pt 19.4195 17.3764 15.4039
Pt 19.4483 19.3407 13.4188
Pt 17.4431 17.3524 17.331
Au 17.3951 19.4688 19.4226
Au 19.3782 17.3983 19.363
Au 19.4164 19.4292 17.3831
Au 17.4074 17.4377 21.4333
Au 17.4123 19.4473 23.4162
Pt 19.4114 17.4388 23.4119
Au 19.4189 19.45 21.4257
Au 17.452 17.4561 25.4076
Au 17.4249 19.4378 27.4729
Au 19.4167 17.4117 27.4863
Au 19.4279 19.4504 25.4199
Pt 17.4344 17.3888 29.5294
Pt 17.3779 19.371 31.4458
Pt 19.4066 17.3687 31.4594
Au 19.3761 19.4046 29.5107
Au 17.4266 17.4281 33.4229
Au 17.4404 19.4202 35.4819
Au 19.4444 17.4568 35.4667
Au 19.4087 19.43 33.426
Pt 17.4557 17.4948 37.512
Pt 17.4895 19.4601 39.4944
Pt 19.4262 17.5612 39.5062
Pt 19.4191 19.4689 37.5249
Pt 17.4857 17.5972 41.4828