3871
Atoms. Timestep: 20117
Au 5.76547 7.67184 23.4397
Pt 7.86879 5.89164 23.479
Pt 7.7982 7.70869 21.5215
Pt 6.18809 5.89612 25.4497
Pt 5.99355 7.70965 27.3325
Pt 7.89534 5.84517 27.4031
Au 7.84151 7.74933 25.4147
Pt 7.74656 7.67743 29.3396
Pt 5.92985 11.6022 19.5577
Pt 7.74406 9.61732 19.5071
Au 7.4721 11.3381 17.3545
Pt 5.97929 9.65288 21.4898
Au 5.48702 11.4822 23.4221
Pt 7.71509 9.65709 23.4516
Pt 7.63464 11.6522 21.512
Pt 5.87661 9.58207 25.4229
Pt 5.8033 11.5251 27.4248
Au 7.72143 9.6484 27.4602
Pt 7.53458 11.6613 25.3668
Au 5.66927 9.61985 29.3662
Pt 5.96654 11.6299 31.3593
Au 7.50039 9.42767 31.4896
Pt 7.64874 11.5604 29.4336
Au 7.49774 11.4404 33.5611
Pt 5.81738 15.5822 15.6454
Au 7.45286 13.4036 15.3846
Pt 7.5702 15.5783 13.5842
Pt 5.90594 13.5619 17.5946
Pt 5.68918 15.4803 19.4679
Pt 7.63255 13.5459 19.5314
Pt 7.61874 15.5036 17.5282
Au 5.42037 13.5388 21.4245
Pt 5.63584 15.5401 23.4059
Pt 7.41767 13.5453 23.4236
Pt 7.49218 15.4743 21.4437
Au 5.39701 13.5521 25.4128
Pt 5.62026 15.5201 27.373
Au 7.44367 13.57 27.4323
Pt 7.42763 15.5089 25.3975
Au 5.46681 13.5196 29.4537
Pt 5.71136 15.4626 31.4925
Pt 7.59297 13.568 31.4312
Pt 7.39022 15.5394 29.4197
Au 5.62279 13.5579 33.4021
Pt 5.88844 15.5686 35.3153
Pt 7.64378 13.5765 35.3443
Pt 7.62892 15.4892 33.3956
Au 7.46761 15.3817 37.5152
Pt 5.87097 19.5575 11.5879
Au 7.43407 17.3455 11.3809
Pt 7.64902 19.5108 9.60028
Pt 5.83989 17.5796 13.5733
Pt 5.64865 19.4218 15.5085
Au 7.57208 17.5085 15.5581
Pt 7.57079 19.5062 13.5304
Pt 5.65915 17.4671 17.53
Pt 5.5714 19.47 19.5219
Au 7.47295 17.5011 19.5006
Au 7.43375 19.5197 17.5374
Pt 5.61226 17.4512 21.4581
Au 5.22005 19.4531 23.417
Pt 7.40167 17.546 23.435
Pt 7.34345 19.518 21.5017
Pt 5.58207 17.4509 25.3847
Pt 5.52294 19.4462 27.3312
Pt 7.36871 17.5065 27.4068
Pt 7.33567 19.4795 25.3556
Au 5.28839 17.399 29.3787
Au 5.26828 19.468 31.4603
Pt 7.37221 17.5155 31.3494
Au 7.24142 19.441 29.4202
Pt 5.7258 17.4285 33.4453
Pt 5.72692 19.4311 35.3905
Pt 7.61077 17.4763 35.4405
Au 7.42884 19.467 33.3361
Au 5.60145 17.4945 37.3132
Au 5.63881 19.4868 39.3239
Pt 7.6427 17.5541 39.2393
Pt 7.5899 19.4475 37.3446
Au 7.52541 19.3748 41.4456
Au 5.72144 23.4208 7.69301
Pt 7.72703 21.5044 7.71275
Au 7.75087 23.4128 5.68045
Pt 5.89925 21.503 9.68852
Pt 5.70964 23.3985 11.5169
Pt 7.63782 21.4876 11.6418
Pt 7.68901 23.434 9.62406
Au 5.37874 21.4396 13.4916
Pt 5.55318 23.4711 15.5534
Au 7.38692 21.4738 15.4751
Pt 7.38503 23.4655 13.5853
Pt 5.5678 21.494 17.5423
Pt 5.478 23.4695 19.516
Pt 7.36428 21.4993 19.5163
Au 7.374 23.469 17.5322
Pt 5.49014 21.49 21.4479
Pt 5.45148 23.426 23.388
Pt 7.29388 21.4401 23.4249
Pt 7.32781 23.4599 21.4599
Pt 5.47587 21.457 25.3851
Pt 5.44702 23.4143 27.3872
Au 7.29585 21.4601 27.3738
Pt 7.25932 23.4799 25.3997
Pt 5.49342 21.4765 29.3626
Pt 5.50092 23.4126 31.3819
Pt 7.31094 21.4325 31.3548
Pt 7.27095 23.4554 29.378
Pt 5.59416 21.4224 33.4343
Au 5.34224 23.3557 35.4155
Pt 7.49808 21.4694 35.3888
Au 7.32506 23.4329 33.394
Pt 5.72497 21.383 37.3544
Au 5.46851 23.4264 39.3626
Au 7.57846 21.4323 39.2837
Pt 7.42988 23.4562 37.3421
Pt 5.94864 21.5636 41.2728
Pt 5.95306 23.5415 43.098
Pt 7.72946 21.5744 43.2543
Pt 7.71447 23.4965 41.1674
Au 7.69109 23.4903 45.2477
Au 5.94029 25.4731 5.83753
Pt 5.92587 27.3263 7.74094
Pt 7.76206 25.3605 7.72618
Pt 7.82212 27.3686 5.89841
Pt 5.80685 25.3788 9.59479
Pt 5.69335 27.3709 11.5502
Au 7.4988 25.3989 11.6691
Au 7.61155 27.4077 9.68408
Au 5.31064 25.4223 13.5588
Pt 5.52293 27.4062 15.563
Pt 7.36397 25.4584 15.5179
Pt 7.38541 27.3842 13.6076
Pt 5.52533 25.4472 17.5006
Pt 5.44299 27.3897 19.4179
Pt 7.33487 25.4448 19.4876
Pt 7.37443 27.4057 17.5065
Pt 5.46018 25.4253 21.4277
Pt 5.43757 27.3701 23.3656
Pt 7.22496 25.4103 23.4437
Pt 7.23956 27.4513 21.4087
Au 5.15284 25.4084 25.3978
Pt 5.43056 27.4087 27.4586
Pt 7.18255 25.4206 27.4044
Pt 7.14497 27.3982 25.4147
Au 5.15441 25.3708 29.3886
Au 5.1963 27.4691 31.4616
Pt 7.19454 25.4644 31.3034
Pt 7.16704 27.411 29.4675
Pt 5.5698 25.4307 33.365
Au 5.3485 27.5249 35.3853
Au 7.28482 25.4425 35.4215
Pt 7.30102 27.4582 33.3558
Au 5.38599 25.5225 37.4632
Pt 5.78192 27.4912 39.3756
Pt 7.54741 25.4175 39.2296
Pt 7.49901 27.4312 37.3192
Pt 5.79739 25.4488 41.2509
Pt 5.89909 27.3848 43.0149
Pt 7.8269 25.4382 43.0744
Pt 7.72327 27.433 41.1894
Pt 5.97268 25.486 44.7501
Pt 7.711 27.3792 44.9611
Pt 7.6876 29.3412 7.7484
Au 5.62844 29.3697 9.61749
Au 5.61859 31.4575 11.5661
Pt 7.51051 29.3981 11.6192
Pt 7.63487 31.3307 9.68253
Au 5.3921 29.3701 13.5467
Pt 5.66797 31.4534 15.4894
Pt 7.40915 29.3668 15.5024
Au 7.51256 31.3492 13.5161
Pt 5.54434 29.3744 17.4563
Pt 5.52006 31.402 19.3426
Pt 7.31128 29.3789 19.4672
Au 7.43356 31.3569 17.4743
Au 5.16403 29.3789 21.3434
Au 5.16095 31.4344 23.3806
Pt 7.1007 29.4406 23.4086
Pt 7.22724 31.3076 21.4084
Au 5.13817 29.3596 25.4319
Pt 5.4293 31.3984 27.5263
Au 7.19007 29.4056 27.4164
Pt 7.15464 31.3169 25.4326
Pt 5.45784 29.4672 29.4792
Pt 5.52674 31.4332 31.4566
Pt 7.3126 29.4184 31.3834
Pt 7.33076 31.4068 29.4484
Pt 5.56423 29.4686 33.3956
Au 5.37025 31.4218 35.4678
Pt 7.40804 29.4314 35.3727
Au 7.40048 31.3941 33.4293
Pt 5.72006 29.4483 37.4278
Pt 5.88749 31.3582 39.2416
Pt 7.66638 29.4145 39.3104
Pt 7.62345 31.3828 37.298
Au 5.64873 29.4566 41.2432
Pt 7.70266 29.3524 43.1447
Pt 7.65372 31.3397 41.2451
Pt 7.63983 33.3712 11.5621
Pt 5.8876 33.4021 13.5877
Pt 5.87934 35.3064 15.5223
Pt 7.63054 33.3655 15.5338
Pt 7.66555 35.3697 13.5311
Pt 5.64515 33.4048 17.4238
Pt 5.67844 35.352 19.318
Pt 7.44693 33.3295 19.4139
Pt 7.60257 35.3421 17.4744
Pt 5.54386 33.3568 21.2741
Au 5.25757 35.3829 23.4715
Au 7.19116 33.3313 23.4351
Au 7.304 35.3856 21.4516
Pt 5.46307 33.367 25.5096
Pt 5.53182 35.34 27.4377
Au 7.30102 33.3321 27.4403
Au 7.30748 35.3646 25.4148
Pt 5.50607 33.3729 29.5048
Pt 5.6416 35.3598 31.558
Pt 7.43724 33.349 31.4174
Au 7.33778 35.3653 29.4443
Pt 5.64725 33.4122 33.448
Pt 5.84122 35.3173 35.3405
Pt 7.5723 33.3445 35.3577
Pt 7.61114 35.3205 33.4105
Pt 5.87512 33.3416 37.337
Pt 7.65808 33.3647 39.3076
Pt 7.64997 35.3414 37.3175
Pt 7.66224 37.3265 15.5311
Au 5.64846 37.3293 17.3926
Au 5.65619 39.3733 19.3681
Pt 7.5128 37.3502 19.4227
Pt 7.66209 39.3193 17.5111
Au 5.38497 37.3925 21.3795
Pt 5.73178 39.3779 23.4787
Pt 7.39172 37.2874 23.4248
Au 7.47236 39.2602 21.4261
Pt 5.5839 37.4109 25.4343
Au 5.41002 39.3583 27.4037
Pt 7.35887 37.3284 27.4567
Au 7.50205 39.261 25.4951
Au 5.36011 37.3278 29.5402
Pt 5.88732 39.2162 31.5074
Pt 7.59499 37.2852 31.4525
Au 7.46812 39.2532 29.4104
Pt 5.83498 37.2708 33.4196
Pt 7.62786 37.3182 35.3709
Pt 7.63652 39.2862 33.472
Pt 7.68888 41.2466 19.5532
Au 5.66922 41.3424 21.5201
Pt 5.96731 43.1778 23.5374
Pt 7.70225 41.2131 23.4461
Pt 7.73937 43.1796 21.5362
Pt 5.80029 41.3113 25.4034
Au 5.67954 43.21 27.3663
Pt 7.57047 41.2589 27.5066
Pt 7.81327 43.0728 25.4853
Au 5.65635 41.2455 29.5243
Pt 7.69139 41.1974 31.442
Au 7.50996 43.3053 29.5489
Pt 7.8578 45.0408 23.4992
Pt 6.16502 44.9451 25.4165
Pt 7.8062 44.9557 27.404
Pt 9.68658 7.66974 19.5311
Pt 11.6589 5.82954 19.5061
Pt 11.6083 7.66643 17.5623
Pt 9.75565 5.84901 21.5002
Au 9.7792 7.66613 23.48
Pt 11.6279 5.66574 23.4392
Au 11.6702 7.62772 21.4512
Pt 9.67459 5.71369 25.4439
Pt 9.75562 7.63965 27.3981
Au 11.6122 5.35898 27.4267
Pt 11.6803 7.4848 25.505
Pt 9.76196 5.86559 29.3585
Au 9.4593 7.42284 31.5642
Pt 11.6407 5.88823 31.3649
Pt 11.63 7.61726 29.3773
Pt 11.5755 7.6388 33.3831
Pt 9.61589 11.532 15.6373
Au 11.4074 9.40438 15.4178
Au 11.4637 11.3433 13.3995
Pt 9.65301 9.5897 17.5889
Pt 9.50917 11.5815 19.4321
Pt 11.5877 9.614 19.4572
Pt 11.5573 11.4699 17.4532
Au 9.63632 9.66071 21.4473
Pt 9.54409 11.6439 23.4096
Au 11.6636 9.64853 23.4881
Pt 11.5308 11.6182 21.3874
Pt 9.64653 9.68003 25.437
Au 9.55687 11.6242 27.4373
Au 11.6095 9.56825 27.4279
Au 11.6182 11.5937 25.4409
Pt 9.57138 9.50624 29.5443
Pt 9.39765 11.4891 31.4932
Pt 11.4744 9.43032 31.4093
Au 11.453 11.5164 29.479
Pt 9.6152 9.55976 33.3326
Au 9.4622 11.3875 35.5471
Pt 11.6218 9.56685 35.3736
Au 11.4162 11.4947 33.4531
Au 11.4385 11.3982 37.5576
Pt 9.57217 15.5896 11.5519
Au 11.4567 13.3687 11.3659
Au 11.3891 15.3439 9.39329
Au 9.45112 13.4335 13.3733
Au 9.47158 15.3846 15.4466
Au 11.4673 13.409 15.4053
Pt 11.5094 15.3958 13.4222
Pt 9.4108 13.4221 17.4781
Au 9.54992 15.4741 19.4759
Pt 11.4898 13.4485 19.3979
Au 11.4772 15.4061 17.4135
Pt 9.51312 13.5564 21.4868
Pt 9.37121 15.5204 23.4302
Au 11.5294 13.5531 23.4257
Pt 11.501 15.4212 21.4482
Au 9.4651 13.5932 25.4023
Pt 9.35226 15.5585 27.4088
Au 11.5189 13.5749 27.4546
Au 11.4901 15.5336 25.4383
Pt 9.3972 13.6129 29.4168
Au 9.43826 15.5444 31.3981
Au 11.4042 13.5077 31.4189
Au 11.4784 15.535 29.4051
Pt 9.45234 13.4386 33.4552
Pt 9.47033 15.4953 35.4536
Pt 11.3915 13.4104 35.4959
Au 11.4279 15.4579 33.4625
Pt 9.52728 13.5731 37.3582
Pt 9.5836 15.5602 39.2982
Au 11.4141 13.406 39.5463
Au 11.4885 15.4088 37.4439
Pt 11.6273 15.5863 41.2926
Pt 9.60125 19.5154 7.6623
Au 11.3674 17.3321 7.44693
Pt 11.6024 19.494 5.8712
Pt 9.56781 17.5706 9.60008
Pt 9.48535 19.4049 11.5365
Au 11.5109 17.4102 11.4527
Pt 11.5545 19.3795 9.47824
Au 9.46942 17.4593 13.4437
Au 9.52745 19.4694 15.5107
Au 11.4899 17.4124 15.423
Pt 11.5585 19.3393 13.4445
Pt 9.45237 17.5074 17.5399
Pt 9.32737 19.5576 19.5691
Au 11.459 17.4908 19.4722
Au 11.4593 19.4828 17.5267
Au 9.4251 17.4861 21.4765
Au 9.38223 19.512 23.4329
Au 11.4414 17.4561 23.4293
Au 11.396 19.5507 21.4222
Au 9.35979 17.5013 25.4331
Pt 9.25963 19.4926 27.4038
Au 11.4193 17.5157 27.4149
Pt 11.3518 19.447 25.4647
Au 9.35548 17.5133 29.3757
Pt 9.30981 19.4977 31.3363
Au 11.4354 17.4849 31.4195
Au 11.3324 19.5073 29.4019
Pt 9.39485 17.4968 33.3826
Au 9.46463 19.4753 35.3707
Au 11.479 17.4659 35.4177
Au 11.4219 19.4581 33.3658
Pt 9.50772 17.44 37.3735
Pt 9.4913 19.4395 39.386
Au 11.4635 17.5007 39.3967
Pt 11.4361 19.4472 37.3845
Au 9.46626 17.3669 41.4385
Pt 9.68015 19.5642 43.2573
Pt 11.6165 17.56 43.2283
Au 11.5395 19.4864 41.3499
Au 11.5632 19.4737 45.2566
Pt 9.70512 21.4716 5.8767
Pt 9.63358 23.4226 7.66999
Pt 11.5925 21.432 7.67179
Pt 11.5126 23.3931 5.7338
Au 9.59983 21.4094 9.62668
Au 9.57856 23.4667 11.6015
Au 11.5713 21.3824 11.5342
Pt 11.568 23.4407 9.50146
Au 9.53688 21.4717 13.5696
Pt 9.34185 23.499 15.5575
Au 11.5501 21.4096 15.4748
Au 11.5357 23.4773 13.5744
Au 9.41416 21.5009 17.5283
Pt 9.30424 23.4702 19.5487
Pt 11.3636 21.5028 19.5009
Au 11.4266 23.4446 17.4821
Pt 9.27731 21.5064 21.4862
Au 9.28448 23.4542 23.4453
Pt 11.3317 21.4552 23.4305
Au 11.3441 23.4398 21.4459
Au 9.33297 21.4584 25.428
Au 9.27577 23.473 27.4112
Pt 11.2927 21.4089 27.4366
Au 11.3146 23.4847 25.4455
Pt 9.2305 21.4494 29.3524
Au 9.26555 23.4356 31.3404
Pt 11.3451 21.4424 31.3549
Au 11.3116 23.4112 29.4139
Au 9.38906 21.4807 33.3397
Pt 9.37415 23.4715 35.4134
Au 11.4418 21.4635 35.3899
Au 11.3946 23.4637 33.3785
Pt 9.48479 21.466 37.342
Pt 9.51201 23.4344 39.1988
Pt 11.4638 21.4288 39.2698
Pt 11.4439 23.4267 37.3013
Au 9.55629 21.4299 41.3011
Au 9.66069 23.4596 43.2714
Pt 11.6953 21.484 43.3398
Au 11.5991 23.3976 41.2747
Pt 9.72666 21.5465 45.036
Pt 11.5979 23.4835 45.2198
Pt 9.62374 25.4219 5.78779
Pt 9.63234 27.3992 7.73875
Au 11.5603 25.431 7.59922
Pt 11.473 27.4668 5.73226
Pt 9.57861 25.4403 9.64215
Pt 9.49475 27.402 11.6172
Au 11.5625 25.4862 11.533
Pt 11.5757 27.4456 9.5555
Au 9.45544 25.4646 13.6211
Pt 9.36965 27.4121 15.5662
Au 11.471 25.4942 15.5463
Pt 11.4905 27.429 13.5534
Au 9.37595 25.4494 17.4972
Au 9.35233 27.4476 19.4763
Au 11.3991 25.4657 19.4537
Pt 11.4438 27.475 17.5031
Au 9.27706 25.4978 21.4808
Pt 9.08108 27.449 23.4191
Au 11.3012 25.5364 23.3976
Pt 11.3612 27.4758 21.3619
Au 9.21507 25.4918 25.4199
Au 9.1713 27.4151 27.448
Pt 11.2673 25.4698 27.4701
Au 11.2693 27.4323 25.4811
Au 9.2296 25.447 29.3943
Au 9.25728 27.4295 31.3775
Au 11.3857 25.4467 31.4102
Au 11.3164 27.4507 29.4016
Au 9.28624 25.4282 33.3743
Au 9.38901 27.4029 35.346
Pt 11.4344 25.3896 35.3636
Au 11.4346 27.3942 33.4115
Pt 9.46594 25.4088 37.3009
Au 9.61138 27.4269 39.2487
Pt 11.5075 25.3823 39.2011
Au 11.5112 27.4149 37.2714
Au 9.70477 25.4468 41.1803
Au 9.67108 27.4634 43.2505
Au 11.6643 25.4493 43.3716
Pt 11.6404 27.4506 41.3667
Pt 9.60107 25.454 45.1101
Pt 11.608 27.4507 45.1946
Pt 9.62163 29.3541 5.89508
Pt 9.53987 31.3277 7.70522
Pt 11.5421 29.3873 7.69028
Pt 11.4839 31.2925 5.87529
Au 9.55362 29.4187 9.67394
Pt 9.53148 31.4188 11.5716
Au 11.5546 29.3826 11.5672
Pt 11.5102 31.375 9.54963
Au 9.45983 29.3303 13.5478
Au 9.50997 31.3878 15.5105
Au 11.4879 29.3811 15.4941
Au 11.5074 31.4415 13.4885
Au 9.41181 29.3887 17.4927
Pt 9.36215 31.3391 19.4517
Pt 11.4153 29.4344 19.4275
Pt 11.4669 31.4045 17.495
Au 9.26646 29.3982 21.4653
Au 9.1943 31.3729 23.4632
Au 11.2661 29.3648 23.4396
Au 11.3606 31.389 21.4169
Au 9.15989 29.3728 25.4013
Pt 9.19843 31.3596 27.4346
Au 11.2467 29.4443 27.4559
Au 11.2575 31.4165 25.467
Pt 9.17927 29.4039 29.3922
Pt 9.30255 31.3601 31.3994
Au 11.3464 29.4394 31.3737
Pt 11.288 31.3799 29.4098
Au 9.36965 29.4026 33.3921
Pt 9.47377 31.4093 35.3594
Pt 11.4838 29.455 35.3391
Au 11.4296 31.4128 33.3992
Au 9.55105 29.4434 37.3034
Au 9.57483 31.461 39.3928
Pt 11.5489 29.486 39.371
Pt 11.4956 31.465 37.3741
Pt 9.61968 29.4074 41.2631
Pt 9.62401 31.2741 43.1804
Au 11.6197 29.3963 43.3084
Au 11.546 31.5229 41.4032
Au 9.59447 29.4171 45.2452
Pt 11.6427 31.3384 45.0179
Pt 11.4599 33.2697 7.66634
Pt 9.52742 33.3029 9.59185
Pt 9.54223 35.3357 11.6054
Au 11.4785 33.4445 11.4494
Au 11.2875 35.5078 9.44747
Pt 9.48228 33.3955 13.5025
Au 9.53582 35.3635 15.4802
Pt 11.4845 33.3828 15.5085
Au 11.5002 35.3953 13.477
Pt 9.46158 33.3259 17.5394
Au 9.43364 35.3279 19.5077
Pt 11.4297 33.3443 19.4666
Au 11.4741 35.3414 17.5097
Au 9.30199 33.3086 21.433
Au 9.35394 35.3293 23.4282
Au 11.3507 33.3628 23.443
Pt 11.3959 35.3169 21.4391
Pt 9.22135 33.3258 25.4698
Au 9.36482 35.3261 27.4063
Pt 11.3136 33.3274 27.4413
Au 11.3697 35.3203 25.4386
Au 9.37635 33.3341 29.4065
Au 9.49154 35.3137 31.4212
Au 11.4351 33.3379 31.4173
Pt 11.4522 35.3335 29.4376
Pt 9.4518 33.3327 33.3851
Au 9.53274 35.3703 35.3771
Pt 11.4822 33.4207 35.3847
Pt 11.4667 35.3856 33.4282
Au 9.5369 33.3882 37.3699
Pt 9.6035 35.3308 39.3015
Pt 11.517 33.4451 39.4259
Au 11.5163 35.4004 37.4108
Au 9.43537 33.5331 41.4534
Au 11.4846 33.5477 43.426
Pt 11.608 35.3771 41.2866
Pt 11.4777 37.4163 11.6551
Pt 9.56283 37.3738 13.5901
Pt 9.55876 39.3735 15.5677
Au 11.5049 37.4563 15.4801
Pt 11.5073 39.4221 13.5905
Au 9.51684 37.3959 17.4879
Pt 9.53413 39.3294 19.4768
Au 11.4833 37.3469 19.5119
Pt 11.4788 39.4118 17.5098
Pt 9.41835 37.3226 21.4178
Pt 9.43111 39.1588 23.4118
Pt 11.3998 37.2488 23.3665
Pt 11.4775 39.2872 21.4499
Pt 9.36157 37.2817 25.4226
Pt 9.44088 39.242 27.4637
Au 11.4509 37.3122 27.4636
Au 11.4678 39.1493 25.3974
Au 9.45584 37.3005 29.4138
Pt 9.4814 39.2615 31.4645
Au 11.477 37.359 31.4376
Pt 11.4133 39.2913 29.4587
Pt 9.5011 37.3362 33.4324
Pt 9.56367 39.2526 35.3711
Pt 11.465 37.3946 35.4566
Pt 11.4317 39.3458 33.4665
Pt 9.55363 37.2826 37.3507
Pt 11.5591 37.3053 39.3691
Au 11.3448 39.4157 37.5634
Pt 11.5149 41.3298 15.5938
Pt 9.57868 41.2895 17.5631
Pt 9.61805 43.1957 19.5513
Pt 11.5207 41.3649 19.4444
Au 11.375 43.4153 17.3981
Au 9.59921 41.2255 21.4642
Au 9.69712 43.2028 23.5139
Au 11.5954 41.2322 23.4981
Pt 11.6094 43.197 21.5174
Au 9.614 41.1453 25.4745
Pt 9.62758 43.1339 27.458
Au 11.5575 41.2158 27.4318
Pt 11.6366 43.3682 25.4996
Pt 9.472 41.264 29.4597
Pt 9.59671 43.1786 31.3616
Au 11.4612 41.2491 31.4225
Au 11.5812 43.219 29.376
Pt 9.54404 41.2304 33.3859
Au 11.356 41.4437 35.498
Pt 11.5006 43.2153 33.32
Pt 11.6058 45.0124 19.6145
Pt 9.71535 45.0045 21.5525
Pt 11.5673 45.1845 23.4715
Pt 9.61352 45.1238 25.4747
Pt 11.5116 45.1766 27.4603
Pt 9.65594 44.9809 29.3527
Pt 11.5795 45.0097 31.332
Pt 13.5186 7.65704 15.6178
Pt 15.468 5.82467 15.6286
Au 15.3837 7.4741 13.464
Pt 13.558 5.8207 17.6063
Pt 13.5974 7.65472 19.4874
Pt 15.4936 5.63121 19.4617
Au 15.5518 7.54893 17.5278
Pt 13.5691 5.65539 21.3949
Au 13.6185 7.4535 23.46
Pt 15.535 5.52797 23.3415
Pt 15.5644 7.46501 21.4183
Pt 13.5754 5.55528 25.3908
Pt 13.5744 7.34995 27.4252
Au 15.4778 5.25244 27.4276
Pt 15.5602 7.29715 25.4293
Pt 13.5005 5.66245 29.5024
Pt 13.5743 7.64107 31.4053
Pt 15.4896 5.6531 31.5076
Au 15.5418 7.3542 29.4147
Pt 13.5494 5.86429 33.3373
Pt 13.5956 7.64539 35.3541
Au 15.5331 5.61466 35.4269
Au 15.5557 7.54428 33.434
Pt 15.5568 7.64831 37.3419
Pt 13.6004 11.495 11.4969
Pt 15.5496 9.60608 11.5457
Pt 15.5425 11.5294 9.52392
Pt 13.5939 9.5643 13.5892
Pt 13.4452 11.4234 15.4865
Pt 15.4931 9.482 15.4987
Au 15.488 11.4494 13.4912
Pt 13.5189 9.55219 17.4742
Au 13.5611 11.5342 19.4201
Pt 15.5706 9.49655 19.4423
Pt 15.4968 11.4639 17.4147
Au 13.6186 9.59426 21.4541
Pt 13.5971 11.5889 23.3791
Au 15.5808 9.42777 23.4289
Pt 15.5533 11.5005 21.3801
Au 13.6407 9.44183 25.4934
Pt 13.5938 11.46 27.438
Pt 15.5835 9.23706 27.4242
Au 15.5279 11.4466 25.4514
Au 13.6018 9.49024 29.367
Au 13.4776 11.4606 31.4245
Au 15.6041 9.49593 31.4223
Au 15.593 11.448 29.4114
Au 13.4971 9.5438 33.4227
Au 13.4333 11.5276 35.512
Au 15.5059 9.5663 35.4151
Pt 15.549 11.4581 33.4178
Pt 13.5968 9.57816 37.3814
Pt 13.5918 11.5325 39.3597
Pt 15.5522 9.55082 39.3119
Pt 15.4923 11.5015 37.4624
Au 15.3391 11.3663 41.4456
Pt 13.5658 15.5118 7.61068
Pt 15.5454 13.5346 7.59481
Pt 15.5157 15.5581 5.82974
Pt 13.6288 13.4922 9.48001
Au 13.426 15.399 11.3805
Au 15.4839 13.4322 11.4361
Pt 15.5223 15.4798 9.45766
Au 13.4159 13.3795 13.4314
Pt 13.5009 15.4114 15.4227
Pt 15.4666 13.4082 15.4414
Au 15.4444 15.4168 13.4432
Pt 13.5089 13.4132 17.397
Au 13.4813 15.419 19.416
Pt 15.5081 13.4551 19.3547
Au 15.4734 15.4107 17.3719
Au 13.5544 13.5041 21.4222
Pt 13.506 15.4904 23.4004
Pt 15.4833 13.5266 23.4116
Pt 15.4809 15.453 21.4172
Au 13.5651 13.5283 25.439
Pt 13.4844 15.5713 27.4365
Au 15.5151 13.4862 27.4738
Au 15.4396 15.527 25.4258
Au 13.4921 13.4944 29.4288
Pt 13.4563 15.5161 31.4332
Au 15.4886 13.4547 31.4283
Au 15.4358 15.5043 29.4728
Au 13.4507 13.4632 33.4316
Au 13.4487 15.4475 35.4705
Au 15.453 13.4538 35.4774
Au 15.4134 15.5028 33.4269
Pt 13.422 13.4193 37.5341
Au 13.5075 15.4584 39.4246
Pt 15.4801 13.4596 39.4609
Au 15.4653 15.4845 37.4716
Pt 13.5898 13.5645 41.3235
Pt 13.5801 15.5373 43.2223
Pt 15.4666 13.5829 43.2566
Pt 15.5329 15.5764 41.4092
Pt 15.5364 15.5599 45.0227
Pt 13.586 17.5303 5.85068
Pt 13.5404 19.4282 7.62616
Pt 15.5118 17.4906 7.6097
Pt 15.4474 19.3872 5.64216
Pt 13.4318 17.4006 9.43358
Au 13.5612 19.374 11.466
Pt 15.4595 17.4027 11.4304
Pt 15.5279 19.4108 9.44082
Pt 13.4986 17.3712 13.4255
Pt 13.5381 19.3407 15.3749
Pt 15.4929 17.3643 15.3853
Pt 15.5084 19.3078 13.4583
Au 13.4769 17.4464 17.394
Au 13.4898 19.5147 19.4897
Au 15.4845 17.4285 19.4151
Au 15.4765 19.4151 17.388
Au 13.4844 17.447 21.4494
Au 13.3808 19.4867 23.421
Pt 15.4054 17.4552 23.4304
Pt 15.4151 19.4624 21.4736
Pt 13.4068 17.5128 25.4036
Pt 13.3452 19.4727 27.4313
Au 15.4051 17.4946 27.4569
Au 15.3697 19.4448 25.4293
Pt 13.431 17.5327 29.4274
Au 13.4237 19.4475 31.4168
Pt 15.4305 17.4327 31.4239
Au 15.4255 19.4361 29.4693
Pt 13.4527 17.47 33.4334
Pt 13.4419 19.4239 35.4573
Pt 15.4175 17.4694 35.4804
Au 15.4066 19.4041 33.4346
Pt 13.45 17.4786 37.4639
Pt 13.5058 19.4612 39.3848
Pt 15.5081 17.5158 39.4514
Au 15.4661 19.4193 37.4509
Au 13.5752 17.5504 41.4089
Pt 13.5923 19.5742 43.3985
Au 15.6028 17.6034 43.4094
Pt 15.5576 19.5231 41.4701
Pt 13.5639 17.5152 44.9908
Au 15.4628 19.4807 45.5408
Pt 13.4586 21.3361 5.70434
Au 13.5802 23.4109 7.42343
Pt 15.558 21.404 7.36468
Au 15.4263 23.3411 5.29819
Au 13.6063 21.4465 9.49106
Au 13.5821 23.4714 11.4917
Au 15.5507 21.4328 11.4844
Au 15.6201 23.4597 9.34378
Au 13.5626 21.4028 13.4816
Au 13.554 23.4957 15.4983
Au 15.4934 21.4509 15.4036
Pt 15.5921 23.5349 13.4206
Au 13.5033 21.4343 17.4535
Au 13.4118 23.4392 19.4451
Pt 15.4137 21.4898 19.4652
Pt 15.4232 23.4832 17.4932
Pt 13.383 21.4817 21.4296
Au 13.3187 23.4782 23.4143
Au 15.3656 21.4653 23.4202
Au 15.373 23.469 21.4343
Au 13.2905 21.4362 25.4483
Au 13.3008 23.4499 27.4404
Au 15.3637 21.4363 27.4435
Au 15.3465 23.4677 25.4353
Au 13.3627 21.4539 29.4413
Pt 13.3743 23.4655 31.4285
Pt 15.3839 21.429 31.4594
Au 15.3604 23.4425 29.4914
Au 13.4098 21.4626 33.3897
Pt 13.4089 23.4533 35.3869
Au 15.4437 21.439 35.4294
Au 15.3984 23.4475 33.4072
Au 13.4458 21.432 37.3922
Pt 13.4506 23.403 39.303
Au 15.5221 21.442 39.421
Au 15.5004 23.4256 37.3943
Au 13.5895 21.466 41.3854
Pt 13.6085 23.4666 43.4721
Pt 15.5621 21.4873 43.613
Au 15.5412 23.4509 41.5325
Au 13.5015 21.5316 45.5301
Pt 15.4988 23.5177 45.3672
Pt 13.3903 25.5043 5.67019
Pt 13.5094 27.4663 7.52072
Au 15.5613 25.4094 7.24243
Pt 15.3689 27.5305 5.5739
Au 13.6086 25.4591 9.44401
Au 13.5869 27.4721 11.4765
Au 15.6117 25.5199 11.3841
Pt 15.5857 27.4634 9.2945
Au 13.5793 25.493 13.4715
Au 13.5187 27.4682 15.4604
Au 15.5223 25.4782 15.4352
Pt 15.5801 27.4946 13.3903
Pt 13.4276 25.5167 17.4953
Pt 13.3922 27.4938 19.4137
Au 15.3864 25.4733 19.4352
Au 15.4292 27.4916 17.4651
Pt 13.3429 25.4773 21.358
Au 13.3397 27.4435 23.4145
Au 15.346 25.4748 23.4267
Au 15.362 27.4712 21.408
Au 13.3113 25.5039 25.4947
Pt 13.3381 27.5019 27.468
Au 15.358 25.48 27.4609
Au 15.3686 27.4869 25.5019
Au 13.3375 25.4729 29.4137
Pt 13.3901 27.4548 31.4312
Au 15.3527 25.4789 31.4525
Au 15.3669 27.5028 29.4236
Pt 13.4261 25.4235 33.4303
Pt 13.4468 27.4028 35.3621
Au 15.4581 25.4466 35.3826
Pt 15.3828 27.4266 33.4324
Au 13.4771 25.4005 37.341
Au 13.4694 27.4509 39.3812
Au 15.516 25.4389 39.4142
Au 15.4894 27.4426 37.3828
Au 13.5505 25.4117 41.3684
Pt 13.6112 27.4277 43.4285
Pt 15.5206 25.4827 43.5088
Au 15.5245 27.4454 41.4428
Pt 13.5716 25.4645 45.33
Pt 15.4814 27.443 45.391
Pt 13.3846 29.4146 5.69025
Pt 13.4974 31.3641 7.53133
Pt 15.4634 29.4528 7.41441
Au 15.3738 31.3667 5.35183
Pt 13.5544 29.4209 9.44969
Au 13.5326 31.4056 11.4593
Au 15.5561 29.4234 11.3691
Pt 15.4974 31.395 9.35045
Pt 13.5446 29.4441 13.4899
Au 13.4723 31.4244 15.47
Pt 15.4339 29.4712 15.4647
Au 15.5077 31.4513 13.4625
Pt 13.4161 29.4537 17.4649
Pt 13.384 31.4091 19.412
Pt 15.3271 29.455 19.4162
Pt 15.3718 31.4194 17.4475
Au 13.3585 29.4377 21.4127
Au 13.3688 31.432 23.4875
Au 15.3972 29.4784 23.478
Au 15.3864 31.4204 21.4437
Au 13.3514 29.4319 25.4844
Au 13.3451 31.4294 27.4206
Pt 15.3833 29.491 27.4634
Pt 15.4091 31.4157 25.4874
Au 13.3549 29.4662 29.4289
Pt 13.4233 31.4472 31.4518
Au 15.389 29.4512 31.4564
Au 15.4063 31.4364 29.4644
Au 13.4299 29.4189 33.4066
Au 13.4513 31.4728 35.4151
Au 15.449 29.4549 35.401
Pt 15.4285 31.4406 33.4364
Au 13.4579 29.4586 37.3636
Au 13.5092 31.4681 39.3854
Au 15.5042 29.4368 39.3936
Pt 15.4643 31.4734 37.3995
Pt 13.5712 29.4619 41.4366
Au 13.5835 31.4787 43.3551
Pt 15.5244 29.3979 43.4669
Au 15.5433 31.4206 41.4149
Pt 13.5655 29.4123 45.2507
Pt 15.467 31.3884 45.266
Au 13.3381 33.3786 5.65005
Pt 13.3664 35.2884 7.59265
Au 15.4619 33.3434 7.37716
Pt 15.541 35.5438 6.04629
Au 13.46 33.4114 9.44031
Au 13.3967 35.5028 11.3621
Au 15.4716 33.4367 11.4119
Au 15.3781 35.5479 9.26555
Pt 13.4823 33.4025 13.4854
Au 13.5014 35.3842 15.4817
Pt 15.4457 33.3853 15.4976
Au 15.4344 35.3788 13.4467
Au 13.4549 33.4022 17.4933
Pt 13.4445 35.3638 19.4894
Au 15.4205 33.4149 19.4612
Pt 15.4703 35.3906 17.5027
Pt 13.3883 33.3652 21.3918
Au 13.4016 35.3161 23.4168
Au 15.4156 33.3644 23.4773
Au 15.4548 35.4051 21.4424
Pt 13.3588 33.3713 25.4703
Au 13.4191 35.361 27.4435
Au 15.4144 33.3995 27.4129
Au 15.4715 35.3917 25.4409
Au 13.3866 33.3708 29.4341
Au 13.4491 35.3937 31.4427
Pt 15.4005 33.4377 31.4942
Au 15.4387 35.4454 29.4464
Pt 13.4502 33.4079 33.4352
Au 13.4636 35.4182 35.4099
Au 15.4631 33.4298 35.4174
Au 15.4618 35.4503 33.4108
Pt 13.4847 33.4392 37.428
Au 13.5197 35.395 39.3919
Pt 15.5043 33.4579 39.4159
Pt 15.4455 35.4622 37.4568
Pt 13.5478 33.4591 41.3926
Pt 13.5952 35.3493 43.2493
Pt 15.5592 33.4002 43.3536
Pt 15.5151 35.3921 41.3568
Au 13.6145 33.4414 45.3139
Pt 15.5649 35.398 45.0366
Au 15.2634 37.7638 7.49417
Au 13.2838 37.6406 9.50308
Pt 13.4925 39.4905 11.6124
Au 15.3678 37.5069 11.4139
Pt 15.507 39.5307 9.62742
Au 13.4726 37.494 13.4585
Au 13.469 39.5101 15.4757
Au 15.4712 37.4557 15.5214
Pt 15.3736 39.5771 13.492
Au 13.5172 37.3958 17.5359
Au 13.5084 39.3963 19.5105
Pt 15.5541 37.4472 19.4885
Au 15.5121 39.4525 17.5359
Au 13.4887 37.3565 21.4558
Au 13.5772 39.3357 23.4541
Au 15.5538 37.4539 23.4426
Pt 15.5766 39.4646 21.4653
Au 13.5159 37.3246 25.4112
Au 13.5479 39.2728 27.4278
Pt 15.5067 37.4182 27.4299
Pt 15.5957 39.482 25.4508
Pt 13.4593 37.3603 29.4478
Au 13.4896 39.3105 31.4208
Pt 15.4668 37.3973 31.449
Au 15.5575 39.3573 29.4113
Pt 13.4181 37.3823 33.4349
Au 13.3492 39.372 35.4784
Au 15.4386 37.462 35.4495
Au 15.4942 39.367 33.4412
Pt 13.4386 37.4144 37.4479
Pt 13.4955 39.2397 39.3796
Pt 15.4631 37.4127 39.4577
Pt 15.4348 39.3736 37.5049
Pt 13.551 37.2868 41.3265
Pt 15.4948 37.3406 43.2094
Au 15.3083 39.4727 41.4873
Pt 15.5211 41.4382 11.591
Au 13.3234 41.5601 13.4133
Pt 13.547 43.249 15.6284
Pt 15.4513 41.4095 15.5333
Pt 15.4904 43.2747 13.63
Pt 13.4328 41.4028 17.5232
Pt 13.4902 43.264 19.4751
Au 15.5416 41.4519 19.4955
Pt 15.4369 43.3723 17.518
Au 13.5809 41.3604 21.5207
Pt 13.5469 43.4007 23.5308
Pt 15.5685 41.5322 23.4937
Pt 15.4795 43.4362 21.5043
Au 13.5907 41.3715 25.4624
Pt 13.5766 43.4526 27.3813
Au 15.584 41.4543 27.4287
Pt 15.4879 43.4874 25.4663
Au 13.5557 41.3015 29.3765
Au 13.5406 43.2649 31.4065
Au 15.5682 41.3933 31.4147
Au 15.5368 43.4465 29.4009
Au 13.4414 41.3362 33.4603
Pt 13.5051 43.2623 35.2716
Au 15.4373 41.3777 35.4592
Pt 15.5604 43.3836 33.3763
Pt 13.4871 41.2071 37.3496
Au 15.2909 41.4004 39.4797
Au 15.2962 43.4118 37.4303
Au 15.4695 45.3019 15.5167
Au 13.467 45.285 17.5657
Pt 15.3641 45.2045 19.5108
Pt 13.4734 45.1792 21.5073
Pt 15.4127 45.2923 23.4938
Au 13.4943 45.5656 25.4815
Pt 15.5043 45.3275 27.4275
Pt 13.4929 45.201 29.4319
Pt 15.4522 45.2329 31.4115
Pt 13.5048 45.0473 33.2921
Au 15.3924 45.2765 35.3327
Au 17.474 7.41418 11.4624
Pt 19.7008 5.75511 11.6272
Pt 19.6267 7.57667 9.64888
Au 17.5968 5.54713 13.564
Au 17.5221 7.43448 15.5067
Pt 19.5991 5.60074 15.4895
Au 19.5233 7.51171 13.5209
Au 17.5021 5.33329 17.4803
Pt 17.5274 7.39231 19.4361
Pt 19.4716 5.49607 19.4898
Pt 19.5231 7.31219 17.5149
Pt 17.474 5.52154 21.3857
Pt 17.4966 7.35008 23.3673
Pt 19.3777 5.41788 23.2957
Pt 19.4735 7.33381 21.4245
Pt 17.4546 5.45784 25.2817
Au 17.534 7.16077 27.4139
Au 19.3837 5.14643 27.4428
Pt 19.4948 7.15184 25.3658
Pt 17.4863 5.52989 29.5819
Pt 17.5419 7.42284 31.4619
Pt 19.4514 5.4937 31.5676
Pt 19.5388 7.2071 29.5047
Pt 17.5159 5.64332 33.473
Pt 17.5024 7.58975 35.3715
Pt 19.4436 5.67335 35.4066
Pt 19.5136 7.44427 33.3973
Pt 17.568 5.89098 37.334
Pt 17.5598 7.65793 39.3401
Au 19.4584 5.64273 39.3738
Pt 19.5452 7.56202 37.3783
Pt 19.5135 7.70272 41.2553
Pt 17.4826 11.5734 7.63451
Au 19.2947 9.34594 7.50713
Pt 19.5318 11.5727 5.95547
Au 17.3656 9.41094 9.47211
Pt 17.4958 11.4533 11.4015
Pt 19.3903 9.50271 11.451
Pt 19.4293 11.4717 9.3915
Au 17.449 9.42989 13.4508
Pt 17.4495 11.4362 15.4697
Au 19.5227 9.44058 15.5296
Pt 19.3979 11.4488 13.4628
Au 17.5556 9.45013 17.4821
Au 17.5107 11.436 19.4348
Pt 19.5049 9.2744 19.4658
Pt 19.4426 11.4287 17.4663
Pt 17.5457 9.3149 21.3998
Au 17.4838 11.4086 23.399
Au 19.4905 9.26205 23.4488
Au 19.497 11.3273 21.4416
Au 17.5206 9.25542 25.4482
Au 17.5126 11.3688 27.4377
Au 19.5094 9.16966 27.426
Au 19.4992 11.3138 25.4253
Au 17.5704 9.30543 29.4224
Pt 17.5691 11.4593 31.4321
Pt 19.5161 9.31001 31.4084
Au 19.4739 11.3671 29.4685
Pt 17.5787 9.4378 33.3707
Au 17.5043 11.5206 35.4251
Au 19.4902 9.4773 35.3794
Au 19.4889 11.4582 33.3557
Au 17.5042 9.53026 37.4183
Pt 17.3991 11.5098 39.4242
Pt 19.4813 9.58068 39.3332
Pt 19.4398 11.5323 37.4359
Pt 17.5489 9.58612 41.2459
Au 17.3539 11.3744 43.4405
Pt 19.548 9.6129 43.2189
Au 19.4424 11.5377 41.3996
Pt 19.5714 11.6034 45.0014
Au 17.445 13.4671 5.63167
Pt 17.4904 15.4834 7.5363
Pt 19.4855 13.6137 7.51163
Au 19.3916 15.4504 5.36813
Au 17.5099 13.4827 9.47437
Au 17.5022 15.4929 11.4428
Pt 19.4474 13.4862 11.4135
Pt 19.4769 15.5222 9.4294
Au 17.503 13.4169 13.4317
Pt 17.4498 15.3993 15.3917
Au 19.4419 13.4134 15.4526
Pt 19.4256 15.4608 13.4349
Pt 17.4424 13.4355 17.3793
Pt 17.423 15.4005 19.3539
Au 19.4479 13.4553 19.3884
Pt 19.3724 15.413 17.3641
Au 17.4481 13.4721 21.4154
Au 17.4587 15.4701 23.431
Au 19.4876 13.391 23.4426
Au 19.4436 15.4443 21.402
Au 17.4794 13.4602 25.4155
Au 17.4761 15.4607 27.4819
Au 19.4377 13.4192 27.4678
Pt 19.4341 15.4494 25.4447
Pt 17.5123 13.4971 29.5226
Pt 17.4486 15.4505 31.459
Pt 19.4475 13.4674 31.4478
Pt 19.4238 15.4255 29.5243
Au 17.4681 13.4765 33.4075
Au 17.4487 15.4687 35.4677
Pt 19.4407 13.4778 35.3892
Pt 19.4272 15.4315 33.4038
Pt 17.4499 13.4777 37.471
Au 17.469 15.5251 39.4727
Au 19.4526 13.5095 39.4337
Au 19.4478 15.4703 37.442
Au 17.3903 13.4489 41.4718
Pt 17.5385 15.6213 43.3527
Au 19.5039 13.5955 43.3557
Au 19.4982 15.6123 41.4604
Pt 17.4926 13.5986 44.9907
Au 19.4685 15.467 45.5303
Pt 17.3878 17.4601 5.68366
Pt 17.4879 19.4697 7.40202
Au 19.5201 17.4339 7.31536
Pt 19.4568 19.4533 5.54989
Au 17.5417 17.4938 9.42649
Au 17.4918 19.3858 11.4536
Pt 19.486 17.4677 11.4226
Pt 19.512 19.4294 9.2872
Pt 17.4796 17.3799 13.432
Au 17.4707 19.3806 15.3836
Pt 19.421 17.3761 15.4027
Pt 19.4488 19.3405 13.4176
Pt 17.4448 17.3512 17.33
Au 17.396 19.4675 19.4216
Au 19.38 17.3978 19.3619
Au 19.4172 19.4287 17.3819
Au 17.4093 17.4364 21.4324
Au 17.4136 19.4459 23.4155
Pt 19.4135 17.4383 23.411
Au 19.42 19.4494 21.4246
Au 17.4543 17.4548 25.4069
Au 17.4266 19.4365 27.4724
Au 19.4193 17.4111 27.4856
Au 19.4293 19.4498 25.419
Pt 17.4372 17.3875 29.529
Pt 17.3801 19.3697 31.4454
Pt 19.4095 17.3682 31.4588
Au 19.3781 19.404 29.5101
Au 17.4298 17.427 33.4227
Au 17.4431 19.4191 35.4817
Au 19.4479 17.4565 35.4663
Au 19.4111 19.4295 33.4255
Pt 17.4594 17.4938 37.5118
Pt 17.4928 19.4593 39.4943
Pt 19.4302 17.5612 39.5059
Pt 19.422 19.4687 37.5245
Pt 17.49 17.5965 41.4827
Pt 17.5248 19.5428 43.6131
Pt 19.4476 17.5281 43.5712