3871
Atoms. Timestep: 21883
Au 6.07234 10.3692 24.3598
Pt 23.9313 9.15253 23.4674
Pt 20.3598 18.0023 33.3043
Pt 12.5839 21.0932 43.5562
Pt 7.88214 19.6984 16.5468
Pt 20.7542 6.39321 30.7342
Au 15.4564 4.56268 18.342
Pt 14.7545 8.01478 29.8947
Pt 11.8251 13.2084 20.2886
Pt 15.8822 9.76023 34.9993
Au 3.39621 22.6795 22.5006
Pt 9.09441 33.1294 22.5539
Au 4.75052 14.5869 21.7761
Pt 26.8977 17.108 36.4712
Pt 15.3812 20.0438 25.4082
Pt 19.0234 14.8754 29.906
Pt 23.2956 9.30027 38.0652
Au 9.17242 16.7889 33.6855
Pt 14.4615 14.8948 27.8088
Au 6.33547 12.3394 32.1689
Pt 8.09679 22.1171 25.8624
Au 3.8097 31.149 27.6795
Pt 14.6968 19.097 18.4796
Au 6.20326 20.0931 36.1608
Pt 15.5218 17.5516 26.7096
Au 7.74815 14.4798 32.975
Pt 12.4836 16.4359 18.7207
Pt 25.5739 6.97429 31.6539
Pt 6.74313 19.3857 21.2181
Pt 17.037 10.9216 24.5422
Pt 11.6226 21.6951 29.0483
Au 23.1703 2.25572 20.8081
Pt 10.484 21.4314 36.7913
Pt 10.9222 21.2 15.2494
Pt 6.85556 23.6474 19.3013
Au 9.2064 11.8495 36.6564
Pt 6.803 14.3623 25.551
Au 9.59101 14.0698 38.5798
Pt 11.0901 17.4156 20.8328
Au 8.63901 11.0003 22.9919
Pt 8.27826 22.2572 32.9217
Pt 16.771 37.1917 16.7362
Pt 10.989 14.072 14.4335
Au 4.59487 30.6519 17.9594
Pt 19.968 19.203 40.3395
Pt 13.9151 22.358 36.7378
Pt 12.6958 20.0163 36.5588
Au 3.95343 21.3717 34.6861
Pt 17.5352 15.4431 23.2828
Au 2.41038 26.8884 25.0838
Pt 21.2179 16.0552 7.61392
Pt 13.5922 11.1745 21.1525
Pt 20.4254 11.4336 9.27838
Au 6.3133 12.8433 23.3281
Pt 7.04114 15.7595 30.5172
Pt 5.06197 25.08 30.9725
Pt 12.5506 29.8226 28.4989
Au 9.29853 22.0063 9.95151
Au 25.0344 33.0211 11.8999
Pt 16.4872 25.4998 18.9976
Au 8.26682 11.818 25.6049
Pt 10.3694 14.3125 34.0816
Pt 8.44533 29.1658 20.323
Pt 7.26285 18.3249 18.7201
Pt 12.2357 24.2606 19.471
Pt 14.224 11.197 23.8334
Pt 14.5935 15.7429 23.3638
Au 6.54803 14.7274 16.4935
Au 4.02874 32.3154 20.126
Pt 16.5706 19.4766 21.7857
Au 16.3001 28.8863 31.4387
Pt 11.2526 10.0376 32.3113
Pt 12.9079 20.9571 23.9218
Pt 18.4677 10.3303 31.2795
Au 3.29191 19.9146 32.4523
Au 18.2551 10.1942 39.0495
Au 6.29526 11.0859 29.7848
Pt 14.7524 16.5565 34.3714
Pt 12.3818 26.3705 36.6582
Au 14.1344 12.7429 43.6549
Au 8.25634 16.415 37.9898
Pt 18.6472 28.395 10.6973
Au 13.688 27.9085 5.8165
Pt 16.8737 30.3759 7.09228
Pt 13.182 30.8771 11.5935
Pt 6.16889 18.545 26.8558
Pt 26.5117 14.0172 16.3163
Au 4.23778 32.3863 25.2785
Pt 9.40064 14.0931 16.7409
Au 11.8008 9.81432 22.9731
Pt 17.672 12.046 33.1961
Pt 13.1021 18.7502 25.5387
Pt 24.543 15.2592 13.3602
Pt 7.61283 30.2247 36.2471
Au 5.1652 14.9669 32.3015
Pt 12.9913 17.3647 27.7649
Pt 8.90277 34.7794 16.3831
Pt 8.26001 18.1626 35.8159
Pt 15.023 34.965 37.8379
Pt 8.53856 18.1414 28.2523
Pt 13.3442 20.7724 27.1368
Au 35.9038 20.8799 18.0887
Pt 8.82133 25.7613 27.5744
Pt 17.8729 17.0615 36.8464
Pt 17.8699 16.7277 33.9765
Pt 24.9353 27.0671 43.3523
Pt 9.54602 28.2393 35.9268
Pt 13.647 26.2829 34.1212
Au 2.82594 30.8689 22.3789
Pt 13.2763 18.8405 34.1917
Au 33.1287 24.2943 21.9326
Pt 11.8943 31.589 38.4925
Au 6.84872 37.5409 25.2628
Au 18.7864 28.2325 47.1574
Pt 21.5687 21.1242 41.6748
Pt 16.2449 27.4365 40.3484
Pt 15.5983 10.6489 40.074
Pt 13.2427 10.6111 26.0582
Pt 24.0373 37.2939 43.2367
Au 30.0637 45.0495 38.5471
Au 4.00147 24.013 20.0839
Pt 18.9624 17.0637 31.1181
Pt 16.5432 28.9819 9.18561
Pt 14.4213 31.0336 15.273
Pt 20.0827 15.6203 27.5152
Pt 8.33415 21.5694 14.5288
Au 6.0609 28.9557 16.1002
Au 14.7179 33.919 8.27899
Au 17.9244 20.0007 47.9591
Pt 10.6098 27.8183 28.2493
Pt 18.3062 32.4361 11.9897
Pt 5.77084 20.7233 25.5229
Pt 7.49683 14.526 21.0896
Pt 7.21593 20.989 19.0082
Pt 10.7014 35.9704 19.376
Pt 9.01205 22.4757 30.2978
Pt 12.1646 24.612 40.8646
Pt 7.19915 23.2495 28.3216
Pt 11.1681 29.5477 26.0937
Pt 6.89071 28.2852 34.622
Au 5.2966 30.6482 23.2646
Pt 11.6226 28.8402 37.5672
Pt 10.8014 31.2515 23.9358
Pt 16.4118 14.479 34.5558
Au 5.33346 26.3925 15.6372
Au 11.9433 23.6762 43.6962
Pt 26.0038 22.7633 44.0657
Pt 14.0012 34.3488 27.2815
Pt 15.4016 16.0286 36.8158
Au 5.05096 26.5981 33.456
Au 12.208 37.0106 37.7491
Pt 11.1939 22.2184 41.3401
Au 15.8531 18.7383 46.7809
Pt 13.0085 31.0861 34.2001
Pt 10.5294 23.6349 38.8126
Pt 9.43335 27.8271 33.3183
Pt 14.2399 21.5552 29.805
Pt 11.0397 19.5761 41.6807
Pt 15.1321 22.883 27.7265
Pt 19.4764 32.4899 37.7317
Pt 8.58775 36.2371 26.9548
Pt 32.0746 13.4614 36.8445
Pt 18.3234 40.6625 13.7027
Au 9.81497 18.2308 11.8124
Au 7.95866 41.1162 28.0312
Pt 18.5665 15.3742 7.46333
Pt 11.6278 22.522 11.1376
Au 8.56423 10.5194 31.7065
Pt 12.097 23.4633 23.9948
Pt 12.0783 18.813 14.1095
Au 2.86784 28.1634 22.6006
Pt 10.5805 33.8743 24.4735
Pt 7.04332 24.5114 26.0333
Pt 9.78785 37.287 29.9595
Au 4.58981 20.1718 22.8843
Au 4.25049 18.6046 20.3538
Au 2.81542 25.4699 32.3318
Pt 10.9399 10.6298 20.5918
Pt 9.12657 37.6135 20.6929
Au 4.86283 22.5447 17.8415
Pt 17.2974 19.3613 44.3838
Au 12.2654 36.032 40.7052
Pt 6.61183 18.4694 23.9585
Pt 22.2096 19.6873 44.2831
Pt 12.8894 27.9834 20.4921
Pt 13.3655 36.8049 26.9397
Pt 7.33078 26.8154 32.0048
Pt 13.3317 16.1694 25.5216
Au 2.35688 24.1216 29.996
Pt 12.1503 24.824 32.2332
Au 9.37554 17.9509 40.0799
Pt 12.1094 14.9647 32.1463
Pt 10.9134 29.4503 30.4331
Pt 13.6719 33.4491 33.151
Pt 8.19613 25.9506 34.6844
Au 10.5566 30.7013 40.7393
Pt 9.37438 28.1301 38.9557
Pt 15.8151 27.4063 42.9561
Pt 7.82118 27.1862 14.7266
Pt 8.95334 30.0049 15.8154
Pt 10.6778 26.8958 25.7044
Pt 14.1891 42.6441 29.6954
Pt 10.2309 25.7681 17.6218
Pt 26.3544 15.4523 11.2674
Pt 12.0596 37.8687 23.0905
Pt 8.10682 30.6912 22.6074
Pt 10.5018 30.8904 21.2575
Pt 6.28574 25.6001 23.426
Au 8.69822 23.6365 36.1184
Au 3.1 26.7597 29.7579
Au 8.27041 14.3175 14.3134
Pt 10.1998 18.6858 37.4416
Pt 6.6076 24.369 33.0848
Au 16.9015 42.1565 19.4195
Au 5.35602 13.6072 29.877
Pt 10.703 28.0419 41.2479
Pt 10.0302 39.6425 28.4974
Pt 20.0766 28.8337 41.1775
Au 24.273 25.5775 48.9392
Pt 9.57946 30.2319 28.3218
Pt 10.4013 35.7089 22.4195
Pt 14.5778 32.7882 35.7521
Pt 9.60664 29.9307 11.5212
Pt 14.8598 25.4252 36.2505
Pt 27.0402 33.694 37.439
Pt 15.17 17.4661 29.3752
Pt 13.0102 25.5059 25.3358
Au 4.5193 33.4729 17.263
Au 15.283 45.4227 23.1472
Pt 8.67879 33.663 26.3258
Pt 5.27884 16.5065 25.4295
Au 11.2779 31.9946 43.1631
Pt 9.94418 28.3106 13.6067
Pt 10.1706 39.9265 21.504
Au 6.09402 31.6675 15.8739
Pt 9.36482 19.5839 20.0845
Au 19.9752 25.7133 46.4024
Pt 19.4598 43.0913 14.1806
Au 7.45416 24.6189 38.5989
Au 17.4846 34.9873 44.4386
Pt 5.30975 25.273 28.305
Pt 10.8803 25.8484 34.5477
Au 15.0803 42.4158 22.7312
Pt 18.247 33.1393 42.2051
Pt 10.4268 23.2489 34.1248
Pt 13.0405 41.3408 24.3843
Pt 13.3058 33.5765 10.6609
Au 6.11774 25.1445 36.0727
Pt 21.3483 35.4257 10.0768
Pt 6.09216 30.5045 20.5457
Pt 24.2012 43.3584 29.3573
Pt 11.4495 37.0204 32.0917
Au 11.7832 42.155 31.8637
Pt 17.9242 31.481 35.6227
Pt 19.7988 40.2165 11.5651
Au 24.4888 49.5966 22.6842
Pt 11.5026 29.8229 9.68483
Au 4.37567 17.2038 22.865
Pt 17.4218 40.5862 23.2523
Pt 24.3268 45.6194 30.8462
Pt 25.9181 44.6066 23.051
Pt 18.299 8.06829 20.8593
Pt 13.4053 13.474 22.5166
Pt 7.67682 15.7637 18.6423
Pt 15.9935 14.8829 30.0343
Au 11.3417 7.28444 27.0625
Pt 23.2082 7.41393 30.3879
Au 16.1115 4.1951 23.9608
Pt 23.664 9.72093 31.4321
Pt 11.0422 12.3548 25.5958
Au 6.70901 10.1826 27.0725
Pt 10.6352 18.7921 16.4806
Pt 11.3689 14.8042 24.3405
Au 11.3518 6.24507 30.6193
Pt 29.7245 10.3887 30.9715
Pt 22.4641 9.07041 19.0707
Pt 13.7581 10.4057 31.2436
Pt 9.40712 16.7298 23.6886
Au 13.3574 9.2457 12.5569
Au 7.84573 7.90868 19.8758
Pt 23.7113 11.8454 23.472
Pt 15.5896 21.6173 23.0841
Pt 7.20431 21.1283 23.3569
Pt 16.1054 24.7064 12.6648
Au 24.2439 17.0042 22.7063
Pt 17.5877 16.774 28.6051
Au 29.192 17.386 31.9871
Pt 11.2995 26.1138 42.8527
Pt 10.4508 28.0527 19.0056
Au 32.5018 19.8482 19.7861
Au 28.8545 19.2047 36.3258
Au 22.2109 21.3844 21.177
Pt 12.3399 21.7092 38.842
Pt 19.4965 7.60632 23.5472
Pt 11.904 21.2237 34.2943
Au 16.6073 7.36183 27.5736
Pt 13.1271 15.8568 29.942
Au 33.7088 6.57404 36.7564
Pt 11.8163 22.623 17.5453
Au 16.9958 26.5427 29.7818
Au 7.52649 9.88436 17.7891
Pt 8.81941 25.7786 12.4878
Au 5.69968 9.65572 19.6738
Au 10.6018 31.1716 7.37975
Au 9.54438 10.0092 16.1269
Au 6.52354 19.3846 13.6493
Au 7.7216 12.1155 16.1131
Pt 21.0352 5.37813 24.2203
Pt 6.85087 15.8709 23.2878
Au 16.3113 21.0758 37.1192
Pt 14.8116 9.74405 17.721
Au 23.4876 30.4039 7.18505
Pt 10.5728 17.0233 26.2114
Pt 16.6742 13.9573 18.2444
Au 20.8327 3.53576 20.2304
Pt 14.7496 12.4257 16.9651
Au 24.5815 17.6925 34.7367
Pt 9.84669 23.3092 27.8316
Au 21.6873 17.6033 25.9514
Au 26.2367 30.3285 18.7951
Pt 10.8684 21.4977 26.0393
Au 13.2292 6.17094 36.0767
Au 25.0563 23.2089 20.62
Au 18.4058 27.3933 19.5328
Pt 14.9053 6.69622 21.1542
Pt 14.8651 28.0856 29.0366
Pt 12.0448 16.4814 34.2342
Au 29.9922 36.5075 32.3444
Pt 5.00504 20.4862 30.4669
Pt 22.2783 11.7322 30.7021
Au 7.26205 18.0776 11.1998
Au 9.93929 15.4724 41.1989
Pt 14.1234 15.6782 41.8527
Pt 12.6015 27.1068 14.2924
Au 3.81718 22.7258 32.082
Pt 5.384 23.1147 24.2792
Pt 14.8056 29.2304 13.1952
Pt 11.896 19.3177 18.9424
Au 5.01246 16.8437 18.1979
Pt 5.90317 25.8148 20.8618
Au 3.24396 18.5611 30.0123
Au 19.2595 21.5665 31.2843
Au 19.2745 30.3108 20.1554
Pt 18.0507 16.3686 26.0226
Pt 4.53067 22.8249 29.2732
Pt 14.3491 18.7051 23.1884
Au 14.6872 27.8676 22.407
Au 19.2335 22.4603 24.1102
Au 16.2735 23.9496 15.6196
Au 13.7586 28.5737 16.2454
Au 28.1027 26.8088 15.504
Au 28.6547 23.4684 24.1245
Au 25.0305 20.5812 31.6067
Pt 8.90774 20.8189 28.1363
Au 17.9354 32.7176 19.1601
Pt 12.9379 20.3428 16.7156
Au 28.9174 32.0261 39.176
Pt 15.908 16.9656 21.5745
Au 30.0783 26.4472 29.8669
Au 16.6504 18.9002 16.6229
Pt 8.49366 17.8805 31.0882
Au 23.4734 21.7893 18.7067
Au 23.0619 23.9274 29.9638
Au 23.55 37.3657 23.0467
Pt 14.5652 21.1368 34.3155
Pt 14.0465 12.4758 38.8578
Au 22.1181 23.6839 48.0612
Pt 23.4141 28.1589 48.0362
Au 3.96759 26.7385 35.8612
Pt 30.3425 11.2828 24.4359
Pt 15.9802 9.49197 32.4129
Au 10.5798 21.9726 45.3031
Au 13.2526 5.95616 28.6677
Pt 14.706 38.0906 11.7156
Pt 11.5381 25.5757 12.3281
Pt 28.9162 18.8284 6.26575
Pt 12.9043 35.1161 14.7445
Au 6.07392 12.0879 20.7572
Au 25.6193 4.10514 32.0467
Au 26.6666 33.0836 18.4588
Pt 10.3274 19.7043 30.1619
Au 29.6166 23.3737 18.6025
Pt 16.969 33.0753 5.98503
Au 24.0085 18.0902 37.4689
Au 3.59012 29.4535 20.1757
Au 31.18 24.9036 36.1532
Pt 11.0108 29.9125 32.9752
Pt 7.12136 28.8187 24.1258
Au 28.984 34.3803 30.7698
Pt 10.1153 25.8488 23.2177
Au 35.2739 25.2424 27.1969
Pt 7.94906 16.8377 25.8633
Au 19.655 28.1651 22.1072
Au 21.9561 28.601 3.30711
Au 14.7616 30.1878 20.5166
Pt 13.7952 22.6302 32.155
Au 33.2836 25.5516 29.1384
Pt 12.8197 29.2801 39.7696
Au 21.8392 25.9422 37.436
Pt 9.61546 15.4873 31.3278
Au 26.1319 30.5531 30.3185
Au 17.0703 31.6272 21.5881
Pt 19.3461 17.974 24.5338
Au 35.5241 20.275 28.3198
Au 37.8935 19.7664 29.9822
Pt 8.96086 15.3645 28.5127
Pt 15.9825 33.177 28.6932
Pt 9.25517 24.7853 32.3766
Pt 23.3719 25.7018 41.5698
Au 9.44718 25.5973 40.4812
Au 15.105 5.07488 34.2822
Pt 14.422 28.2303 36.3903
Au 8.2182 31.8801 40.2206
Pt 11.5857 23.8238 36.4358
Pt 19.7405 19.3797 43.193
Pt 9.46964 23.5669 18.964
Pt 14.7076 41.6648 17.5072
Au 7.29631 23.8013 10.8642
Pt 15.7355 23.3068 20.7619
Pt 12.3348 19.6803 11.3533
Pt 11.367 34.5899 12.5955
Au 3.73279 20.2072 27.7197
Pt 13.8573 23.4861 11.9822
Au 24.4618 15.309 17.9452
Pt 11.519 35.5903 16.9623
Au 5.6483 11.8336 17.9793
Pt 13.3657 36.9999 18.7338
Au 28.9424 28.9886 38.6155
Au 26.6122 27.8656 10.4546
Au 20.0256 25.955 32.9486
Pt 5.85903 20.9791 32.9297
Au 27.0417 39.4052 29.116
Pt 5.51303 28.2232 21.8563
Au 27.1011 32.7868 32.1136
Pt 10.7987 19.133 24.5142
Au 23.6715 22.7681 32.3733
Au 27.8721 30.0744 32.4373
Pt 20.1055 40.8641 22.4668
Au 19.6899 30.6946 30.4769
Au 28.5558 24.7811 40.4428
Au 46.2668 17.9789 32.621
Au 16.697 26.1234 21.6771
Au 18.0329 30.3643 33.0284
Au 18.1726 29.2914 26.0522
Au 34.8105 23.4459 37.0494
Pt 12.0252 18.9106 39.2217
Au 41.2419 23.0843 37.427
Pt 24.0307 20.5342 46.5572
Au 14.0446 7.28597 38.4597
Pt 17.5154 25.0263 40.193
Au 21.451 29.3689 24.6093
Au 5.92665 17.4454 36.7868
Au 10.5098 12.8456 40.9088
Au 15.8667 32.8791 45.4864
Pt 14.9331 24.9458 40.4765
Pt 25.1822 30.5765 44.3575
Pt 15.3959 18.6616 36.2139
Pt 13.1766 11.7872 10.8562
Pt 7.88215 24.3061 14.5166
Pt 10.5202 25.9076 20.417
Pt 8.52604 28.5994 26.5413
Au 6.73423 37.2825 19.6698
Pt 10.9568 28.1804 16.2753
Au 28.4021 24.0577 29.5295
Pt 19.4097 34.9484 12.1253
Au 23.8733 17.5236 27.9063
Au 23.451 18.1616 8.61906
Au 23.202 15.587 24.8298
Au 24.3146 20.0033 13.6593
Au 36.4596 16.8055 7.27564
Pt 11.413 34.0406 31.3544
Pt 4.85688 22.9445 26.7731
Pt 11.6342 25.454 27.7284
Au 27.1064 35.1214 16.3531
Au 2.28947 22.6057 27.5569
Au 21.8123 32.9225 16.2969
Au 17.5609 21.0935 15.1014
Au 10.8224 27.6625 45.1126
Pt 8.46834 32.3698 28.7584
Au 37.6345 26.507 31.7899
Au 20.4411 31.6982 34.5213
Pt 11.6425 34.956 33.8476
Pt 15.416 43.6549 27.0812
Au 21.9502 26.1623 18.1421
Pt 4.84431 27.7563 24.4315
Au 19.3465 27.514 28.2474
Pt 13.5501 30.5793 36.7595
Pt 13.776 33.2352 30.0747
Au 39.7838 27.5839 40.1827
Au 7.80422 20.2019 40.9644
Au 25.4448 32.0463 48.6151
Pt 11.3061 34.6925 26.8398
Pt 19.9349 30.1984 45.6244
Pt 19.9506 15.2427 37.9443
Pt 30.2609 18.2097 40.958
Au 18.0808 33.6168 47.0443
Au 10.0323 25.0832 45.09
Au 13.4222 17.8226 45.6785
Pt 22.1536 30.3293 44.1166
Pt 13.7636 21.6568 19.0384
Pt 10.2154 25.855 14.8455
Pt 17.7602 20.1562 24.0564
Au 6.12917 25.5258 12.8907
Au 4.32376 16.0614 29.9108
Pt 11.5219 19.7645 21.9444
Au 16.4927 22.6131 8.31455
Pt 22.4735 33.8717 11.8189
Au 8.55663 34.8921 13.3641
Pt 8.51427 31.0176 25.5191
Au 19.2422 42.0989 9.06229
Pt 8.34329 32.5431 14.6806
Au 22.8637 30.891 26.444
Au 3.30503 28.2114 32.04
Au 8.39092 12.1256 34.0938
Au 5.09001 31.4115 36.315
Pt 10.7755 33.526 15.0705
Pt 10.502 24.6241 30.0148
Au 7.9569 35.156 37.0735
Pt 12.4673 25.798 22.2783
Au 22.2207 35.5057 21.2141
Au 3.12038 29.7564 24.9967
Au 8.6989 41.8249 25.5164
Au 7.07322 32.4849 37.7915
Pt 6.80521 31.2877 31.3753
Pt 13.4536 40.1956 30.4834
Au 9.70054 25.8743 37.3426
Pt 16.9827 36.328 36.5742
Pt 16.1763 37.856 19.5387
Au 4.31124 29.7952 29.9283
Pt 17.4828 29.4856 41.5695
Pt 15.6499 33.6765 42.7208
Au 14.568 26.3557 47.9258
Au 7.09758 27.1308 40.0451
Au 14.7098 35.2142 44.7341
Pt 20.6894 39.6127 40.9438
Pt 13.9699 26.3773 11.7653
Pt 11.238 21.6758 20.0988
Pt 9.62574 34.7514 29.1177
Au 14.7631 12.6651 6.31825
Pt 18.649 30.892 9.68249
Au 19.7833 27.8634 14.8609
Pt 12.7337 26.6853 18.1916
Au 4.22705 29.2164 34.5235
Pt 18.6575 30.1804 15.2217
Pt 27.3213 40.9706 16.1064
Pt 7.5058 33.8804 30.8032
Pt 15.5639 33.5805 18.0326
Pt 5.89175 28.984 32.1994
Pt 8.54663 31.9927 20.0033
Pt 8.44969 32.3829 17.2174
Au 5.49699 28.1328 13.5598
Au 32.2097 21.3887 40.655
Au 6.77935 9.17029 22.0607
Pt 12.5927 23.2797 26.9363
Au 5.50031 36.6181 27.8803
Pt 9.69904 28.7822 23.9807
Pt 9.86621 12.753 27.9042
Pt 21.9861 41.8016 29.0891
Pt 26.652 31.1934 40.8822
Pt 19.1317 42.5027 24.4393
Pt 9.91286 20.6644 39.3342
Pt 12.1022 28.4667 34.9645
Au 22.6796 48.7549 27.2766
Pt 6.5651 32.9259 21.5321
Pt 13.2954 23.7007 34.4996
Pt 25.158 20.5471 8.42696
Pt 6.38699 32.766 18.7954
Au 11.0696 33.7231 8.74123
Au 11.2502 41.4126 14.7444
Au 15.1387 36.7379 6.87087
Au 28.4091 29.1442 20.3835
Pt 10.6822 28.2485 21.7142
Au 7.49914 39.9573 23.9138
Pt 7.69424 25.126 30.0429
Au 9.44991 41.9626 30.253
Pt 26.8631 42.3911 13.8214
Pt 25.0335 44.882 27.1517
Pt 8.07624 27.2782 22.0804
Au 22.5176 35.5746 26.5252
Au 6.20582 22.4711 39.9618
Pt 13.747 35.6938 31.6561
Au 4.24292 33.9356 27.7553
Pt 19.5266 24.733 43.8728
Pt 6.09012 28.1089 19.1546
Pt 24.6397 42.2831 22.1954
Pt 19.0609 45.3426 24.8393
Pt 15.9984 36.6905 26.6976
Pt 21.4831 32.1848 6.07353
Pt 15.6326 30.4435 34.8395
Pt 26.5412 44.7786 29.262
Pt 32.1565 5.45706 31.0015
Pt 18.9061 10.191 22.5604
Au 10.3427 9.77047 25.2034
Pt 16.7043 16.1709 41.2764
Pt 13.9199 8.19322 27.3032
Pt 25.3224 5.64888 29.4066
Au 26.9657 6.50748 10.1701
Pt 15.4785 12.5145 28.7138
Au 16.9366 10.8191 6.85522
Pt 23.5556 6.98777 27.7979
Pt 30.195 11.3963 28.2869
Pt 16.4001 16.9904 31.7009
Pt 26.3281 11.323 16.073
Au 29.5906 13.6176 4.12905
Pt 28.3079 12.2798 34.665
Pt 13.2246 11.5995 36.3767
Pt 7.42734 27.402 37.1925
Pt 15.6396 20.532 42.6178
Au 8.01761 8.62386 24.5539
Pt 16.3209 11.1884 21.9606
Pt 25.4688 12.183 21.4332
Au 5.31656 17.7953 31.958
Au 13.128 9.81434 38.9827
Pt 6.03855 16.7386 20.7309
Pt 21.4374 7.20353 17.2248
Pt 32.2244 23.2053 5.47496
Pt 17.238 8.48512 18.2502
Pt 11.6904 14.961 27.3493
Pt 25.3078 8.68209 29.1997
Pt 19.7735 11.3325 24.9187
Au 12.2192 11.9246 6.84116
Pt 15.1927 15.0907 13.1848
Au 16.4323 28.9932 16.0631
Pt 28.8015 8.4896 19.8164
Pt 18.4253 12.8518 22.8545
Au 18.7847 4.09828 24.8292
Pt 16.7571 11.6001 14.9185
Au 24.3635 21.2863 29.0878
Pt 11.1224 12.3764 22.9468
Au 14.796 32.9639 20.6453
Pt 11.1788 13.5819 36.4337
Pt 32.6193 9.49428 25.1754
Au 24.3907 28.9759 25.3493
Au 26.6575 22.8489 39.9753
Au 22.7498 15.0303 27.4428
Au 18.2416 24.2847 30.9723
Au 21.3178 24.5563 24.8668
Au 11.9944 14.1751 42.6907
Au 9.49001 11.7729 13.9186
Au 17.2136 4.6453 27.055
Pt 16.3134 17.7327 38.8838
Pt 11.1769 10.1448 27.6726
Pt 11.6457 26.6047 39.2023
Pt 22.5054 14.5134 31.4366
Pt 12.9685 19.1666 29.5343
Au 14.8759 21.144 47.6515
Pt 13.5193 16.3173 8.20969
Pt 15.5325 22.1411 13.6693
Pt 11.5205 17.9286 9.52149
Pt 15.5148 16.99 15.1567
Au 9.66437 15.2261 12.0176
Au 17.2811 13.4532 5.71694
Pt 9.99124 21.5788 23.5708
Au 9.4142 34.5168 10.7042
Pt 18.7612 17.1339 9.55002
Pt 12.1271 16.8892 11.997
Au 34.703 21.8715 4.26219
Pt 21.4957 16.515 29.872
Au 33.3933 18.1434 26.4684
Pt 12.7236 12.6579 27.7999
Au 24.0951 33.2761 25.8556
Au 30.9908 19.3618 22.3246
Pt 14.7574 14.7534 32.3967
Pt 14.0604 13.9242 19.2209
Pt 14.8097 6.59161 23.7437
Au 23.2997 23.6048 2.4122
Pt 8.20299 26.4955 24.8765
Au 27.1087 21.5112 33.5057
Au 22.3083 19.7378 27.8723
Au 5.17696 12.2445 26.0062
Pt 16.8589 8.55313 22.9475
Au 25.4103 23.1457 17.2991
Au 18.9172 23.3484 16.0743
Au 11.1192 9.83441 36.7638
Au 7.40073 18.9593 33.3979
Au 31.7867 22.0267 32.4904
Au 34.2889 28.4006 40.6508
Pt 21.2464 13.8002 29.3269
Au 15.1535 23.8579 47.2155
Pt 12.722 20.133 31.9067
Au 25.8607 18.7636 29.5518
Pt 13.8672 22.7774 41.8389
Pt 15.1059 12.1475 34.2138
Pt 22.4446 12.0335 27.7497
Pt 10.7035 18.8147 34.8542
Pt 12.8416 17.403 36.6477
Pt 15.5872 11.7906 19.514
Pt 6.33084 20.8045 28.2036
Pt 10.5575 15.0561 21.8603
Pt 11.5211 31.0378 16.2422
Pt 6.11635 18.2504 29.4619
Au 27.26 26.6075 7.95764
Pt 10.7835 33.1574 17.9164
Pt 14.316 8.96318 22.5204
Pt 10.0167 11.816 18.2833
Pt 13.559 13.5125 14.9197
Pt 14.0058 20.5772 21.2996
Pt 13.2896 23.0428 21.6445
Au 25.0671 16.2946 4.97396
Au 25.3076 31.8847 21.1309
Au 32.629 33.9575 26.4344
Au 30.3022 28.5077 5.85844
Au 14.9636 32.3269 23.3567
Au 17.7584 19.2229 29.7332
Pt 22.2871 7.15332 22.8347
Pt 15.4167 8.77497 25.1014
Pt 12.7904 8.19615 24.8912
Pt 9.31188 12.7879 20.9758
Au 24.7727 37.9266 28.1336
Au 34.7826 21.3834 15.1998
Pt 6.46012 15.9833 27.9423
Au 22.1747 27.8782 27.1254
Pt 23.4717 24.6138 22.5455
Au 17.252 21.9374 29.2162
Pt 18.5247 9.78555 34.1731
Pt 9.86309 26.9573 30.8347
Pt 14.9448 31.2472 32.2213
Au 19.4655 25.0027 18.242
Pt 20.6056 17.9189 37.5536
Pt 21.8436 32.6584 39.1219
Pt 13.3259 14.1655 34.8273
Au 30.7897 23.1803 45.0193
Au 8.72499 10.6566 28.8922
Pt 18.2864 26.9397 42.1534
Au 15.9304 6.8119 36.4164
Pt 15.4128 14.8186 39.1503
Pt 11.9585 27.4566 32.4218
Au 10.1543 7.61683 32.5915
Pt 13.0083 23.9685 29.7158
Au 18.0781 40.5865 6.79148
Pt 13.3066 17.81 16.4993
Au 10.5911 12.834 11.1894
Au 5.41013 23.772 15.487
Au 22.2291 34.8521 18.3694
Au 22.3183 12.2934 5.01805
Au 14.5019 7.11459 18.2913
Au 13.9277 7.92013 15.2891
Au 25.2306 22.0145 3.36644
Au 37.5733 31.6785 11.2899
Pt 8.28838 24.6939 21.3498
Au 31.0343 35.6099 18.8731
Au 16.1915 29.9529 24.0019
Pt 16.8855 31.8592 16.5473
Pt 6.45091 32.2736 26.8728
Pt 11.1792 17.7666 31.9554
Au 25.4747 18.899 10.6061
Au 17.8219 26.6074 16.728
Au 25.8633 26.123 4.89359
Au 27.1771 18.8543 34.1709
Au 18.6586 24.6133 4.50808
Au 19.3328 33.5418 4.42348
Au 15.4173 29.6149 26.9274
Au 15.6441 24.4708 33.0846
Pt 15.5486 24.0022 30.2937
Pt 10.0939 24.2673 25.449
Au 9.71153 33.2829 38.3238
Au 27.84 26.0789 43.6069
Pt 9.86659 20.1 32.7025
Au 18.4276 19.6532 38.1479
Au 6.37973 22.5604 35.1266
Au 22.6935 34.7167 31.7675
Pt 11.1676 22.3302 31.6969
Au 24.1912 24.9223 36.5074
Au 26.1025 19.8272 36.5954
Au 34.3108 31.7656 35.5115
Pt 8.74134 22.7904 40.4658
Pt 7.64124 20.2847 30.7454
Au 28.4973 31.4126 34.8041
Au 22.078 47.0184 31.6029
Pt 25.8908 25.4896 45.3969
Pt 17.2809 11.0806 12.2248
Pt 19.6566 30.2429 12.6131
Au 10.065 8.88843 18.7172
Pt 27.7589 37.3796 14.7328
Au 21.0915 32.2474 19.2887
Au 15.3213 17.6096 6.3552
Au 28.7846 28.8991 8.96211
Pt 11.5169 11.7996 15.9794
Au 24.4134 32.6134 30.8841
Au 30.4886 25.2609 22.4178
Au 19.2422 25.5689 23.0446
Pt 23.1982 20.0999 6.63948
Pt 22.6835 40.0494 22.1884
Pt 10.0809 30.5306 18.4069
Au 23.1647 30.8378 4.39138
Au 19.0109 28.0515 31.0692
Pt 8.92652 32.6478 35.7817
Au 29.0334 31.3203 18.8214
Au 25.3543 22.5265 37.4703
Au 19.1241 28.796 7.9449
Au 22.0419 18.5757 35.327
Pt 20.7369 26.1682 41.8791
Au 21.1815 37.0062 24.5016
Au 19.3191 24.4651 38.0392
Au 37.5979 25.1537 34.4926
Pt 15.1226 40.6086 36.5717
Au 26.8555 27.5399 36.9073
Au 21.9831 21.3667 30.4265
Pt 18.7267 34.0826 35.1468
Pt 12.3993 31.5439 31.4661
Au 29.6329 24.1591 47.6629
Pt 8.40801 29.3156 31.1701
Au 22.587 27.204 32.2524
Au 12.6481 25.4848 45.8156
Au 37.76 20.148 34.9898
Au 7.82849 21.7762 37.8873
Au 37.1636 27.3486 43.7852
Pt 15.2925 29.5025 38.7417
Pt 24.4171 22.8473 41.778
Au 39.1336 24.0034 32.2981
Pt 21.8639 23.7273 42.4818
Pt 10.6515 30.6341 35.6904
Pt 10.3115 16.6861 14.1267
Pt 14.0388 29.3946 7.99118
Pt 27.2459 25.0398 10.3017
Au 17.7316 42.2017 11.4711
Pt 12.9479 21.282 13.3576
Au 3.96428 27.8835 17.6367
Au 20.9394 24.1133 6.14702
Pt 6.35561 27.2269 26.9023
Pt 15.931 40.5395 15.336
Au 23.9899 16.5558 10.8897
Pt 19.6026 34.0907 17.2933
Au 27.0113 38.8905 6.25152
Pt 10.3534 16.1768 36.2128
Pt 12.7654 30.1511 22.2948
Pt 12.768 35.3635 24.1989
Pt 12.7386 35.5489 21.2982
Au 26.9764 14.9207 19.0609
Au 24.3877 16.1252 30.2398
Au 31.1276 24.547 3.07853
Au 18.8951 30.4006 23.4388
Au 32.1524 21.9689 3.1282
Au 26.6862 26.6388 39.7141
Pt 28.0455 35.7058 41.5435
Pt 22.3083 42.6937 20.8557
Au 18.9132 37.1054 26.2149
Pt 17.8688 39.0976 30.1056
Au 23.2295 38.8582 17.9689
Au 12.5096 43.0438 16.7664
Au 20.0105 18.1347 28.1792
Au 33.3847 26.8376 35.3899
Au 25.1358 31.9072 28.0531
Pt 25.266 39.5183 22.0792
Au 28.576 23.2789 42.7371
Au 24.5153 24.6895 39.3332
Au 39.6506 23.1159 42.2956
Pt 10.8484 37.2639 34.8007
Pt 17.8805 22.2595 43.6989
Au 29.6718 46.6449 36.3406
Pt 18.252 28.9614 39.0092
Au 24.8138 14.8532 44.1209
Pt 29.5065 36.2682 43.7721
Pt 14.0746 31.6104 43.3474
Au 13.4935 13.4987 8.82759
Pt 14.3509 28.8122 10.5451
Au 27.2986 14.9343 4.34583
Pt 29.6652 39.0056 13.5963
Au 8.91632 39.6794 18.7978
Au 9.36229 42.0949 20.0562
Au 9.04861 19.3252 9.38395
Au 9.37777 21.3482 7.38307
Pt 6.08115 23.1425 21.8154
Au 22.4396 37.4455 5.49103
Pt 12.8769 31.7603 8.76101
Au 6.34961 35.4921 17.6039
Au 3.81233 18.7435 25.1773
Pt 18.8304 32.8063 14.9416
Au 19.8529 34.5503 25.299
Pt 10.0266 27.3908 10.7868
Pt 9.28391 23.1722 12.5455
Au 12.749 41.122 39.8992
Au 6.87042 32.8287 24.2008
Au 23.6089 26.331 3.01876
Pt 10.6357 33.6626 20.5351
Au 25.1769 43.7869 41.0647
Au 3.82078 28.0485 27.3474
Au 22.2053 27.8701 16.108
Au 20.1999 16.9935 19.9938
Au 17.3678 26.4327 32.5613
Pt 13.4653 20.4182 40.9452
Au 18.5074 25.0388 25.6197
Pt 8.44 34.5586 19.0437
Au 8.21883 29.2628 41.3028
Au 21.4939 26.3682 48.632
Au 19.1498 32.8827 32.2856
Pt 21.6437 35.293 38.6054
Au 14.1394 45.2504 29.408
Pt 25.3178 42.2321 26.8942
Pt 16.8548 24.8547 42.9483
Pt 16.6845 31.2754 43.4111
Pt 25.1185 45.005 33.5426
Pt 13.7933 16.864 39.1184
Pt 12.1986 8.56688 29.5589
Au 15.0174 42.5548 38.5116
Pt 21.9567 34.2309 41.2676
Au 12.3874 33.1035 6.39256
Au 7.58903 36.8133 15.2739
Pt 13.9537 39.5236 19.1573
Au 12.6325 17.2179 5.74137
Pt 16.9042 38.6007 24.9183
Au 10.0265 36.9419 11.9305
Au 8.75493 37.1373 17.7271
Au 11.4784 42.4659 22.0721
Pt 21.0839 39.8584 19.9103
Au 10.2217 41.6328 17.3287
Au 6.93875 29.753 38.8962
Pt 10.9994 32.2715 11.2589
Au 15.6279 22.9318 5.46031
Au 25.2634 23.1373 9.35139
Au 14.9593 27.4788 25.0473
Au 34.9305 20.2548 7.40015
Pt 12.7505 39.364 28.0294
Au 4.72979 18.6853 34.4709
Au 3.51748 26.7551 20.1418
Pt 16.5484 36.7674 31.2087
Pt 16.6585 32.7474 33.6941
Pt 19.1705 39.9084 25.5009
Au 16.0697 28.3413 46.7353
Pt 30.4451 45.8883 27.7202
Au 7.46208 30.1067 13.5652
Pt 15.0097 30.7909 29.5228
Au 6.98926 24.7716 41.404
Au 23.542 29.6522 31.2981
Au 14.1186 45.9565 26.5885
Pt 21.588 39.6787 24.5471
Pt 7.01853 34.5738 28.3159
Pt 14.5235 36.8634 39.4424
Pt 19.7889 35.3856 42.5766
Pt 5.74765 32.3519 29.3776
Pt 12.4876 26.8267 29.8275
Au 22.633 41.9588 41.8582
Pt 15.1187 33.5491 14.8993
Au 6.70705 37.7039 22.4025
Pt 17.9511 44.4931 26.9614
Pt 21.1853 30.6047 14.9231
Pt 12.4598 31.7639 19.6772
Pt 14.6451 24.8381 23.1986
Pt 8.20785 23.6562 23.6791
Au 34.4707 28.789 13.8938
Pt 17.2184 34.6303 16.0918
Au 5.72857 35.303 23.0602
Pt 19.5242 36.6648 16.6759
Pt 18.659 36.594 9.92368
Pt 11.757 38.104 20.5331
Au 13.8564 44.1675 32.0237
Pt 19.1656 37.7873 12.3411
Au 9.17793 38.9949 25.9746
Pt 15.2963 38.4699 29.0998
Au 3.80645 17.3244 27.5871
Au 3.97352 30.9875 32.3744
Au 9.76443 39.1842 15.9153
Au 20.7188 47.6466 29.0195
Au 15.4962 13.2188 41.3192
Pt 13.4709 29.1642 30.9976
Au 2.41667 21.269 30.0699
Pt 17.3812 40.8945 37.9219
Pt 10.5909 36.647 25.1066
Au 11.3893 11.9349 38.5819
Au 7.02333 22.3199 42.5079
Au 10.014 35.8335 39.2035
Au 11.6713 44.1035 29.9879
Pt 10.625 23.5419 21.8135
Pt 36.0603 38.193 14.2087
Pt 15.0849 35.2406 22.5654
Au 25.3513 46.6321 24.69
Pt 16.868 33.5549 36.8198
Pt 16.3049 43.1173 31.9764
Pt 12.8097 37.6024 29.8892
Pt 28.3066 41.1345 31.2329
Au 22.7375 35.0178 46.4925
Au 12.3431 7.10447 22.3062
Pt 24.9793 10.9685 27.5962
Pt 29.3163 14.2125 23.6855
Au 29.1144 8.3702 9.20957
Au 7.59188 16.8388 13.5751
Pt 11.5487 23.479 13.8899
Au 12.7636 8.58361 19.9603
Au 9.45313 9.66682 34.4089
Pt 30.0034 6.12591 29.3288
Pt 13.1729 18.5846 43.1059
Pt 19.8629 12.8824 31.6559
Pt 21.3896 9.74278 23.2581
Pt 9.34834 14.5427 26.0118
Pt 23.9863 7.94755 20.9392
Pt 19.907 7.58111 35.0435
Pt 24.3868 4.47956 27.0745
Au 10.2979 7.08906 24.32
Au 6.08618 17.7711 15.8912
Pt 13.7226 8.91672 36.4169
Pt 28.4679 15.9237 25.561
Pt 16.0087 9.99225 27.2263
Pt 17.9996 10.4944 19.9298
Pt 31.2571 13.9324 28.1187
Pt 20.612 10.8471 20.5217
Pt 25.2174 15.772 38.4113
Pt 32.874 7.45912 29.1906
Pt 21.8525 5.21162 26.7591
Pt 16.9006 6.29135 19.5682
Pt 26.6678 21.0621 42.0569
Au 21.2729 2.77785 25.6182
Pt 23.9844 13.4238 37.5541
Pt 21.7396 13.1326 33.4834
Pt 28.8583 22.9167 11.3164
Au 10.4497 6.5983 20.3354
Pt 28.0176 5.59774 20.0578
Au 4.24175 14.3597 24.4106
Pt 20.855 8.28443 21.0024
Pt 17.3961 14.23 27.7717
Pt 22.7369 13.0703 13.9744
Au 16.0722 6.4352 16.1422
Pt 8.2633 10.5694 20.2194
Au 29.1479 2.27363 27.8157
Pt 14.257 25.6249 20.3773
Au 17.1379 29.9846 18.5728
Au 24.962 31.4586 16.5865
Pt 19.2783 11.8818 13.7582
Pt 25.2401 13.9686 9.29488
Pt 7.82756 13.0882 18.7491
Au 23.4138 26.3395 25.1221
Au 27.7437 26.5634 28.1778
Au 23.3852 24.045 11.1255
Au 28.6717 25.6144 35.4015
Au 20.2104 38.8759 6.13883
Au 13.6267 4.46771 22.5744
Au 28.5113 30.5882 6.52729
Au 16.872 27.0883 27.0627
Pt 13.1021 14.7924 37.4747
Pt 11.1891 11.696 34.5882
Au 36.0575 16.1485 36.6552
Pt 8.65507 20.8068 35.0965
Au 40.4972 17.5696 33.4712
Au 40.0046 18.6427 36.2128
Au 34.59 21.2071 39.0093
Au 16.9388 12.2257 44.0545
Pt 23.5859 11.7135 39.6236
Pt 16.1106 27.4154 34.6522
Pt 27.5543 10.4806 36.4883
Pt 13.3785 10.1111 33.9494
Au 9.2937 23.9309 42.8258
Pt 22.4352 30.3938 46.8021
Au 10.8648 19.2022 44.6033
Pt 25.7582 13.4862 39.6176
Au 14.9801 7.70368 10.9075
Pt 11.3596 11.3111 30.0208
Pt 9.8555 23.5126 16.0858
Au 30.2218 3.67206 19.062
Au 12.1756 9.14945 16.9699
Au 11.6742 8.07107 34.7506
Pt 18.6011 12.79 10.896
Pt 7.6653 25.2409 16.9095
Au 8.93143 29.0115 8.91355
Pt 10.785 17.0861 29.3172
Au 31.9983 20.026 10.2884
Pt 10.3115 31.2385 13.6737
Pt 9.79819 17.4595 18.5207
Pt 22.8651 9.60851 28.6326
Au 24.4312 34.2035 16.6578
Pt 14.159 18.1924 10.2289
Au 31.7856 22.6674 20.0545
Au 21.9972 16.9349 17.9032
Au 35.4353 25.4199 44.8596
Au 18.3603 23.1746 13.2564
Au 38.7568 30.1785 36.7569
Au 18.9258 18.6096 14.9572
Au 25.9381 30.6567 10.7523
Pt 13.5261 13.1983 30.2871
Pt 17.7859 12.5871 29.9788
Pt 20.1949 9.50795 37.07
Pt 23.9728 23.5616 24.9943
Pt 37.6275 21.1179 14.0616
Au 22.7384 19.3202 23.6665
Au 22.7551 15.4549 15.4726
Pt 13.2065 15.6017 21.1068
Pt 15.5769 12.4167 26.1933
Pt 18.5867 9.05717 28.5169
Au 26.5939 24.3163 47.7755
Au 19.7004 28.7099 17.4689
Au 26.0561 36.69 21.7716
Au 26.5149 21.6499 24.8842
Pt 20.0806 13.0973 27.0194
Au 16.0946 16.2043 45.9668
Au 33.8485 24.2215 12.1429
Pt 25.4992 13.7813 23.6012
Au 11.2697 38.4597 39.8482
Pt 16.5533 34.0957 10.6008
Pt 14.4665 15.609 10.5864
Au 7.4853 27.9769 11.795
Pt 17.2692 14.8132 9.77858
Au 13.8612 19.6543 5.16504
Au 20.695 25.4167 15.6432
Pt 18.1997 13.0576 20.3106
Pt 8.80846 13.8576 23.514
Pt 8.92782 19.1947 22.6961
Au 24.1918 18.1705 18.9301
Pt 8.50626 19.5137 25.6809
Pt 9.7422 21.0382 17.8114
Pt 16.7296 31.2424 13.9513
Au 31.2398 28.817 11.2036
Au 20.2365 15.1558 24.6617
Au 18.174 21.7156 21.6115
Au 36.7533 22.1102 8.62897
Au 17.6088 33.3127 23.8457
Pt 10.3259 20.7584 12.6596
Au 12.444 32.9975 22.41
Au 20.7583 21.4767 6.92449
Au 28.8034 25.7122 25.7435
Au 25.9287 21.7271 15.0428
Au 32.947 34.3642 29.2149
Pt 14.4073 19.6263 38.5053
Pt 24.5095 15.2649 32.9404
Pt 34.3732 22.0295 33.3802
Au 37.5508 31.5648 21.1227
Au 29.4142 23.5612 37.8569
Au 39.0206 29.2303 42.3788
Au 22.3558 34.5234 23.9241
Au 25.2456 15.0138 21.1318
Pt 8.06217 27.7324 29.0862
Pt 15.5986 6.69662 32.0773
Pt 19.3494 23.6406 41.4425
Pt 13.249 27.5305 43.985
Pt 14.8801 22.3021 39.358
Pt 14.4512 7.66226 34.1848