3871
Atoms. Timestep: 20193
Au 5.78649 7.65096 23.4388
Pt 7.89198 5.87331 23.4793
Pt 7.81886 7.69026 21.5213
Pt 6.21122 5.87572 25.4493
Pt 6.01251 7.68986 27.3304
Pt 7.91726 5.82822 27.404
Au 7.86188 7.73169 25.4146
Pt 7.76431 7.66089 29.3388
Pt 5.94755 11.5825 19.5557
Pt 7.7628 9.59901 19.506
Au 7.48955 11.3197 17.3526
Pt 5.99842 9.63272 21.4884
Au 5.50381 11.462 23.4192
Pt 7.73389 9.63894 23.4508
Pt 7.65194 11.6338 21.5104
Pt 5.8944 9.56212 25.4205
Pt 5.81705 11.5053 27.4202
Au 7.73816 9.6311 27.4586
Pt 7.55079 11.6431 25.3647
Au 5.68305 9.59986 29.3615
Pt 5.97386 11.6108 31.3515
Au 7.51291 9.4114 31.4864
Pt 7.66092 11.5431 29.4302
Au 7.50225 11.4244 33.5548
Pt 5.83327 15.5631 15.6417
Au 7.46937 13.3853 15.3816
Pt 7.58509 15.5608 13.58
Pt 5.9228 13.5426 17.5918
Pt 5.70436 15.4609 19.4643
Pt 7.64882 13.5277 19.5292
Pt 7.6341 15.4858 17.5253
Au 5.4362 13.5189 21.4212
Pt 5.6491 15.5202 23.401
Pt 7.43313 13.527 23.4209
Pt 7.50705 15.4562 21.4407
Au 5.4105 13.5318 25.4077
Pt 5.62986 15.5004 27.3659
Au 7.4561 13.5518 27.4283
Pt 7.44015 15.4907 25.3935
Au 5.47466 13.5 29.4452
Pt 5.71296 15.4452 31.4804
Pt 7.59789 13.5517 31.4239
Pt 7.398 15.5219 29.4131
Au 5.62284 13.5403 33.3896
Pt 5.88225 15.5553 35.3006
Pt 7.63861 13.5624 35.3335
Pt 7.62694 15.475 33.3849
Au 7.45552 15.3712 37.5021
Pt 5.88395 19.5396 11.5819
Au 7.44774 17.3286 11.3758
Pt 7.66124 19.4946 9.59412
Pt 5.85428 17.5612 13.5685
Pt 5.6617 19.4029 15.5038
Au 7.5861 17.4909 15.554
Pt 7.58314 19.4895 13.5252
Pt 5.67345 17.4478 17.5259
Pt 5.58377 19.4499 19.5161
Au 7.48739 17.4829 19.4969
Au 7.44734 19.5014 17.5328
Pt 5.62526 17.4314 21.453
Au 5.23 19.4328 23.4096
Pt 7.41413 17.5274 23.4305
Pt 7.35551 19.4994 21.4967
Pt 5.59213 17.4312 25.3777
Pt 5.52881 19.4274 27.3218
Pt 7.37716 17.4887 27.4005
Pt 7.34463 19.4616 25.3494
Au 5.29294 17.3807 29.368
Au 5.2673 19.4514 31.4458
Pt 7.37455 17.499 31.3397
Au 7.24585 19.4243 29.4111
Pt 5.72179 17.4138 33.4302
Pt 5.71863 19.4181 35.3736
Pt 7.6028 17.4653 35.4283
Au 7.42565 19.4526 33.3233
Au 5.59028 17.4851 37.298
Au 5.62142 19.4831 39.3073
Pt 7.62731 17.5452 39.2243
Pt 7.57851 19.439 37.3323
Au 7.49948 19.3707 41.4227
Au 5.73227 23.4042 7.68608
Pt 7.73829 21.4891 7.70626
Au 7.76177 23.3981 5.67361
Pt 5.91096 21.4858 9.68206
Pt 5.7202 23.3806 11.5103
Pt 7.64943 21.471 11.6357
Pt 7.69955 23.4183 9.61757
Au 5.39051 21.4207 13.4855
Pt 5.56367 23.4505 15.5455
Au 7.39937 21.4557 15.4694
Pt 7.39644 23.4474 13.5784
Pt 5.57944 21.4736 17.5355
Pt 5.48716 23.4482 19.5074
Pt 7.37582 21.4804 19.5104
Au 7.38485 23.45 17.5252
Pt 5.4999 21.4694 21.4403
Pt 5.45751 23.4054 23.3784
Pt 7.30289 21.4218 23.4184
Pt 7.33653 23.4407 21.4527
Pt 5.48199 21.4373 25.3758
Pt 5.44914 23.395 27.3754
Au 7.30119 21.4429 27.3652
Pt 7.2646 23.4617 25.3909
Pt 5.49461 21.4582 29.3502
Pt 5.49756 23.3954 31.3679
Pt 7.31093 21.4174 31.343
Pt 7.27158 23.4387 29.3674
Pt 5.58935 21.4078 33.4179
Au 5.33353 23.3428 35.3961
Pt 7.49187 21.4557 35.3734
Au 7.32166 23.4189 33.3802
Pt 5.71377 21.3707 37.3338
Au 5.45286 23.4098 39.3334
Au 7.55914 21.4265 39.2754
Pt 7.4228 23.4413 37.3224
Pt 5.925 21.5826 41.2718
Pt 5.91977 23.598 43.0451
Pt 7.69477 21.564 43.2279
Pt 7.70766 23.4938 41.159
Au 9.54598 23.5111 46.7927
Au 5.95029 25.4571 5.83064
Pt 5.93464 27.3098 7.73408
Pt 7.77195 25.3454 7.71954
Pt 7.83118 27.3539 5.89197
Pt 5.8165 25.3617 9.5878
Pt 5.70175 27.3521 11.5422
Au 7.50902 25.3817 11.662
Au 7.62077 27.3916 9.67702
Au 5.31977 25.4019 13.5503
Pt 5.53034 27.3846 15.5529
Pt 7.37372 25.439 15.5098
Pt 7.3944 27.3654 13.5993
Pt 5.53363 25.4254 17.4911
Pt 5.44797 27.3666 19.4065
Pt 7.34302 25.4249 19.4793
Pt 7.38184 27.3854 17.4971
Pt 5.46573 25.4033 21.4173
Pt 5.43839 27.3471 23.3531
Pt 7.23013 25.391 23.4345
Pt 7.24409 27.4304 21.3987
Au 5.15441 25.3872 25.3857
Pt 5.42738 27.3868 27.4447
Pt 7.18403 25.4025 27.3937
Pt 7.14606 27.3781 25.4032
Au 5.15179 25.3514 29.3751
Au 5.1891 27.4491 31.4461
Pt 7.19158 25.4478 31.2915
Pt 7.16429 27.3919 29.4546
Pt 5.5628 25.4141 33.3501
Au 5.33766 27.5093 35.3664
Au 7.2795 25.4295 35.4058
Pt 7.29423 27.4428 33.3415
Au 5.37478 25.5094 37.4418
Pt 5.76605 27.4864 39.3432
Pt 7.5471 25.4076 39.1967
Pt 7.49129 27.4235 37.2966
Pt 5.79723 25.4459 41.1659
Pt 5.93005 27.3153 42.9954
Pt 7.73523 25.4395 43.1111
Pt 7.71214 27.4266 41.156
Pt 7.67903 23.5608 44.9652
Pt 7.69366 27.3288 44.9072
Pt 7.69567 29.3259 7.74194
Au 5.63586 29.3519 9.61009
Au 5.6243 31.4385 11.5575
Pt 7.51865 29.3806 11.6114
Pt 7.64191 31.3145 9.67562
Au 5.39865 29.3496 13.537
Pt 5.67192 31.4311 15.4772
Pt 7.41598 29.3468 15.4926
Au 7.51943 31.331 13.507
Pt 5.54862 29.3514 17.4444
Pt 5.52022 31.3766 19.3278
Pt 7.31536 29.3569 19.4562
Au 7.43748 31.3352 17.4627
Au 5.164 29.3536 21.329
Au 5.154 31.4054 23.3632
Pt 7.10115 29.4177 23.3959
Pt 7.2262 31.2839 21.3957
Au 5.13351 29.3339 25.4166
Pt 5.41911 31.3694 27.5073
Au 7.18747 29.3833 27.403
Pt 7.15023 31.2907 25.4171
Pt 5.44967 29.4431 29.4626
Pt 5.51265 31.4091 31.4384
Pt 7.30463 29.3998 31.3688
Pt 7.32092 31.3841 29.4324
Pt 5.55294 29.4501 33.3786
Au 5.35266 31.4061 35.4468
Pt 7.39804 29.4202 35.3549
Au 7.38809 31.378 33.4122
Pt 5.70422 29.4384 37.4032
Pt 5.86681 31.3372 39.2282
Pt 7.65058 29.4055 39.2897
Pt 7.60697 31.3723 37.2821
Au 5.63553 29.4127 41.2449
Pt 7.68172 29.3425 43.1204
Pt 7.62882 31.3254 41.2255
Pt 7.64521 33.3542 11.5539
Pt 5.89066 33.3816 13.577
Pt 5.87951 35.2842 15.5099
Pt 7.63417 33.3455 15.523
Pt 7.66862 35.3507 13.5216
Pt 5.64536 33.3802 17.4094
Pt 5.67201 35.3257 19.3012
Pt 7.44586 33.306 19.4011
Pt 7.60177 35.3202 17.463
Pt 5.53651 33.3291 21.257
Au 5.24302 35.3423 23.4436
Au 7.1866 33.3013 23.4174
Au 7.29939 35.3554 21.4326
Pt 5.45083 33.3336 25.4875
Pt 5.51017 35.3017 27.4135
Au 7.29002 33.3039 27.4214
Au 7.29439 35.3312 25.3931
Pt 5.48842 33.3428 29.4833
Pt 5.61416 35.3279 31.5334
Pt 7.42053 33.3269 31.399
Au 7.31782 35.3356 29.4226
Pt 5.62598 33.3881 33.4278
Pt 5.81185 35.294 35.3184
Pt 7.55237 33.3298 35.3403
Pt 7.58428 35.2995 33.3894
Pt 5.85214 33.3231 37.3194
Pt 7.63456 33.3537 39.2877
Pt 7.62257 35.3282 37.2952
Pt 7.66166 37.3058 15.5208
Au 5.64366 37.3052 17.3779
Au 5.64525 39.3464 19.3525
Pt 7.50648 37.3255 19.4094
Pt 7.65634 39.2968 17.5002
Au 5.37225 37.3587 21.3572
Pt 5.70744 39.3407 23.4526
Pt 7.37715 37.2518 23.4013
Au 7.45906 39.2328 21.412
Pt 5.55841 37.365 25.4039
Au 5.36804 39.3142 27.3677
Pt 7.3343 37.2891 27.4305
Au 7.48045 39.21 25.4623
Au 5.32501 37.2831 29.5117
Pt 5.84457 39.1838 31.4666
Pt 7.5612 37.2564 31.4265
Au 7.42547 39.2141 29.3787
Pt 5.7975 37.2426 33.3896
Pt 7.59025 37.2986 35.3425
Pt 7.58978 39.2616 33.4329
Pt 7.67618 41.2218 19.5424
Au 5.65059 41.3126 21.5026
Pt 5.93109 43.1279 23.5354
Pt 7.67692 41.1805 23.438
Pt 7.7178 43.1476 21.5277
Pt 5.77162 41.26 25.3943
Au 5.89876 45.0144 25.4268
Pt 7.58865 41.1697 27.4598
Pt 7.77262 43.088 25.442
Au 5.61817 41.2459 29.4284
Pt 7.63199 41.174 31.3773
Au 7.46521 43.3092 29.525
Pt 7.80287 44.988 23.5301
Pt 7.78547 44.9684 27.342
Pt 5.91578 43.1081 27.3088
Pt 9.70618 7.65299 19.5309
Pt 11.6795 5.81446 19.5061
Pt 11.6265 7.65119 17.5613
Pt 9.7777 5.83239 21.5009
Au 9.79972 7.65047 23.4806
Pt 11.6491 5.65167 23.4414
Au 11.6897 7.61322 21.4515
Pt 9.69697 5.69837 25.4458
Pt 9.77535 7.62522 27.3999
Au 11.6341 5.34709 27.4307
Pt 11.6999 7.4722 25.5074
Pt 9.78294 5.85217 29.361
Au 9.47524 7.40913 31.565
Pt 11.6606 5.87842 31.37
Pt 11.6488 7.6064 29.3815
Pt 11.5887 7.62876 33.3856
Pt 9.63258 11.5152 15.6351
Au 11.4244 9.38947 15.4157
Au 11.4794 11.3288 13.3963
Pt 9.67095 9.57294 17.5876
Pt 9.52619 11.5647 19.4309
Pt 11.6053 9.59899 19.4566
Pt 11.5733 11.455 17.4521
Au 9.65479 9.64434 21.4468
Pt 9.56108 11.6275 23.4091
Au 11.6817 9.63499 23.489
Pt 11.5475 11.6036 21.3874
Pt 9.66529 9.66424 25.4378
Au 9.57253 11.6085 27.4372
Au 11.628 9.55557 27.4313
Au 11.6354 11.5797 25.443
Pt 9.58708 9.49203 29.5444
Pt 9.40787 11.4751 31.4915
Pt 11.4881 9.41963 31.4118
Au 11.4679 11.5039 29.4812
Pt 9.62526 9.54632 33.3322
Au 9.46362 11.3717 35.5439
Pt 11.6311 9.55403 35.3767
Au 11.4236 11.4827 33.4544
Au 11.436 11.3747 37.5596
Pt 9.58642 15.5741 11.5473
Au 11.4708 13.355 11.3613
Au 11.4018 15.3308 9.38807
Au 9.46671 13.4176 13.3697
Au 9.48582 15.3682 15.4435
Au 11.4817 13.3942 15.4029
Pt 11.5224 15.382 13.4189
Pt 9.42669 13.4053 17.4759
Au 9.56479 15.4577 19.4742
Pt 11.5049 13.4336 19.3973
Au 11.4909 15.3914 17.412
Pt 9.52897 13.5397 21.4857
Pt 9.38542 15.5034 23.4285
Au 11.5452 13.5381 23.4267
Pt 11.5151 15.4063 21.4488
Au 9.48001 13.5767 25.4015
Pt 9.36362 15.5418 27.4062
Au 11.5339 13.5604 27.4566
Au 11.5038 15.5183 25.4394
Pt 9.408 13.5971 29.4147
Au 9.44364 15.5288 31.3939
Au 11.4139 13.4948 31.4199
Au 11.4891 15.5204 29.4058
Pt 9.45394 13.4245 33.4504
Pt 9.46244 15.4842 35.4433
Pt 11.3862 13.395 35.4935
Au 11.4297 15.4441 33.4603
Pt 9.51343 13.5608 37.3479
Pt 9.56747 15.551 39.286
Au 11.3843 13.382 39.5384
Au 11.4736 15.3965 37.4323
Pt 11.6054 15.5619 41.2761
Pt 9.61262 19.5014 7.65612
Au 11.3787 17.3194 7.44103
Pt 11.6128 19.4816 5.8644
Pt 9.58053 17.5557 9.59444
Pt 9.49683 19.3897 11.5313
Au 11.5226 17.3974 11.4484
Pt 11.565 19.367 9.47337
Au 9.48223 17.4437 13.4394
Au 9.53999 19.4539 15.5065
Au 11.5019 17.3982 15.4204
Pt 11.5691 19.3262 13.441
Pt 9.46678 17.4908 17.5363
Pt 9.34054 19.5406 19.5657
Au 11.472 17.4765 19.4713
Au 11.4714 19.4686 17.5244
Au 9.43877 17.4694 21.4746
Au 9.39329 19.4955 23.4299
Au 11.4539 17.4411 23.43
Au 11.408 19.536 21.4217
Au 9.37118 17.4845 25.4304
Pt 9.26715 19.4764 27.3987
Au 11.4299 17.5003 27.4146
Pt 11.3623 19.4317 25.464
Au 9.36245 17.4972 29.3708
Pt 9.31154 19.4829 31.3284
Au 11.4401 17.4703 31.4168
Au 11.3383 19.4926 29.3985
Pt 9.39328 17.4838 33.3747
Au 9.45801 19.4645 35.3611
Au 11.4732 17.4559 35.4098
Au 11.4199 19.4469 33.3591
Pt 9.49655 17.4312 37.3623
Pt 9.47441 19.4341 39.3754
Au 11.4435 17.4956 39.3896
Pt 11.4242 19.4401 37.3766
Au 9.44387 17.3597 41.4253
Pt 9.6455 19.564 43.2454
Pt 11.5864 17.5392 43.2097
Au 11.5181 19.4784 41.3481
Au 11.5354 19.4595 45.2422
Pt 9.71592 21.458 5.86997
Pt 9.64395 23.4088 7.66364
Pt 11.6026 21.4196 7.66588
Pt 11.5224 23.381 5.72724
Au 9.61065 21.395 9.62086
Au 9.58956 23.4517 11.5953
Au 11.5818 21.3694 11.5293
Pt 11.5782 23.4282 9.49552
Au 9.54863 21.4562 13.5641
Pt 9.35345 23.4822 15.5514
Au 11.5608 21.3966 15.4717
Au 11.5465 23.4637 13.5694
Au 9.42642 21.4845 17.5242
Pt 9.3145 23.4529 19.5436
Pt 11.375 21.488 19.4991
Au 11.4373 23.4305 17.479
Pt 9.28805 21.4894 21.482
Au 9.29261 23.4375 23.44
Pt 11.3419 21.4404 23.4291
Au 11.3537 23.425 21.4437
Au 9.34129 21.4423 25.4232
Au 9.28012 23.4576 27.4042
Pt 11.2998 21.3944 27.4335
Au 11.322 23.4704 25.4426
Pt 9.23444 21.4343 29.3447
Au 9.26562 23.4216 31.3305
Pt 11.3469 21.4293 31.349
Au 11.3149 23.3978 29.4084
Au 9.38672 21.4673 33.3289
Pt 9.37031 23.4583 35.4002
Au 11.4345 21.4548 35.3832
Au 11.3925 23.4523 33.3699
Pt 9.47343 21.4565 37.3341
Pt 9.50078 23.4269 39.1879
Pt 11.4521 21.4187 39.2634
Pt 11.4361 23.4173 37.2961
Au 9.54115 21.4269 41.2894
Au 9.67039 23.4681 43.2548
Pt 11.6556 21.4806 43.3491
Au 11.5876 23.3949 41.2568
Pt 9.64585 21.5371 45.0524
Pt 11.6269 23.4789 45.2241
Pt 9.63367 25.4087 5.78134
Pt 9.64161 27.3855 7.73226
Au 11.57 25.4189 7.59293
Pt 11.4825 27.4551 5.72616
Pt 9.5887 25.4259 9.63562
Pt 9.50426 27.3866 11.6102
Au 11.5726 25.4734 11.5271
Pt 11.5849 27.4335 9.54935
Au 9.46609 25.4485 13.6144
Pt 9.37859 27.3947 15.5588
Au 11.4813 25.48 15.5411
Pt 11.5001 27.4154 13.5472
Au 9.38564 25.4321 17.4906
Au 9.35957 27.4294 19.4685
Au 11.4081 25.4508 19.4498
Pt 11.453 27.4598 17.4974
Au 9.28486 25.4801 21.4742
Pt 9.08586 27.4306 23.4102
Au 11.3084 25.5217 23.3937
Pt 11.3679 27.4604 21.3568
Au 9.21992 25.4752 25.4124
Au 9.17333 27.398 27.4391
Pt 11.2721 25.4553 27.4659
Au 11.2745 27.417 25.4767
Au 9.23019 25.4318 29.3856
Au 9.25392 27.4155 31.3671
Au 11.3851 25.435 31.403
Au 11.3169 27.4376 29.3956
Au 9.28328 25.4154 33.363
Au 9.38403 27.3931 35.3314
Pt 11.4314 25.379 35.3537
Au 11.4311 27.3839 33.4027
Pt 9.46419 25.3984 37.2829
Au 9.60377 27.4163 39.2325
Pt 11.4895 25.3751 39.202
Au 11.5038 27.4064 37.2608
Au 9.66074 25.4399 41.1903
Au 9.64525 27.4546 43.2123
Au 11.6673 25.4523 43.346
Pt 11.6237 27.4428 41.3444
Pt 9.62434 25.4962 45.1012
Pt 11.5945 27.4541 45.18
Pt 9.62989 29.3408 5.88898
Pt 9.5468 31.314 7.69921
Pt 11.5505 29.3756 7.68419
Pt 11.4909 31.281 5.86976
Au 9.56219 29.4043 9.66735
Pt 9.5395 31.404 11.5641
Au 11.5634 29.3701 11.5608
Pt 11.518 31.3632 9.5433
Au 9.4683 29.3141 13.5403
Au 9.51652 31.3704 15.5021
Au 11.4961 29.3666 15.4876
Au 11.5153 31.4281 13.4816
Au 9.41874 29.3701 17.484
Pt 9.36543 31.3185 19.4412
Pt 11.4221 29.4178 19.4208
Pt 11.473 31.3884 17.4881
Au 9.27056 29.3789 21.4558
Au 9.1958 31.3504 23.452
Au 11.2706 29.3479 23.4336
Au 11.3649 31.3701 21.4088
Au 9.16166 29.353 25.3917
Pt 9.19458 31.3389 27.4229
Au 11.2479 29.4295 27.4501
Au 11.2589 31.399 25.4601
Pt 9.17561 29.3868 29.3813
Pt 9.29312 31.3445 31.3859
Au 11.3422 29.4278 31.3662
Pt 11.2836 31.3657 29.4024
Au 9.36229 29.3912 33.3792
Pt 9.46074 31.4007 35.3463
Pt 11.4745 29.4474 35.3291
Au 11.4193 31.4043 33.3898
Au 9.5408 29.4359 37.2893
Au 9.55644 31.4577 39.3757
Pt 11.5352 29.4843 39.3557
Pt 11.4803 31.4645 37.3609
Pt 9.60151 29.4027 41.2411
Pt 9.59698 31.2642 43.1597
Au 11.5954 29.3907 43.2879
Au 11.5239 31.5249 41.386
Au 9.55208 29.3877 45.2163
Pt 11.6104 31.3376 44.9882
Pt 11.465 33.258 7.66139
Pt 9.53346 33.2894 9.58559
Pt 9.54716 35.3205 11.5981
Au 11.4859 33.4324 11.4421
Au 11.2937 35.4966 9.44158
Pt 9.48854 33.3794 13.4941
Au 9.53846 35.3454 15.4717
Pt 11.4896 33.3676 15.5017
Au 11.5052 35.3814 13.4702
Pt 9.46416 33.3065 17.53
Au 9.43323 35.3063 19.4966
Pt 11.4327 33.3267 19.4588
Au 11.4759 35.3247 17.5025
Au 9.30298 33.284 21.4197
Au 9.34851 35.3002 23.4119
Au 11.3516 33.3416 23.4333
Pt 11.3944 35.2974 21.4308
Pt 9.21652 33.3006 25.4559
Au 9.3526 35.2992 27.3892
Pt 11.3099 33.3091 27.4337
Au 11.3659 35.2942 25.4281
Au 9.36521 33.3134 29.3924
Au 9.4713 35.2944 31.4049
Au 11.4239 33.3266 31.4078
Pt 11.4391 35.3144 29.4275
Pt 9.43547 33.3196 33.3704
Au 9.50844 35.3619 35.3569
Pt 11.4655 33.4183 35.3707
Pt 11.4468 35.3795 33.4136
Au 9.51791 33.3844 37.3528
Pt 9.57919 35.3303 39.2786
Pt 11.4964 33.4499 39.4073
Au 11.494 35.4059 37.3906
Au 9.41172 33.5293 41.4299
Au 11.459 33.5552 43.3985
Pt 11.584 35.3913 41.2581
Pt 11.4819 37.403 11.6493
Pt 9.56493 37.3569 13.5827
Pt 9.55661 39.3552 15.5606
Au 11.5057 37.4405 15.4743
Pt 11.508 39.4074 13.5861
Au 9.51484 37.3761 17.4791
Pt 9.52586 39.3075 19.4682
Au 11.4801 37.3284 19.5052
Pt 11.4738 39.3947 17.5054
Pt 9.41137 37.2987 21.4056
Pt 9.41684 39.1327 23.399
Pt 11.3917 37.2263 23.3581
Pt 11.4679 39.2669 21.4434
Pt 9.3525 37.2454 25.4001
Pt 9.4334 39.1898 27.4323
Au 11.4433 37.2824 27.45
Au 11.4519 39.1281 25.3837
Au 9.43225 37.2725 29.3942
Pt 9.43846 39.2387 31.4313
Au 11.4522 37.3457 31.4196
Pt 11.3874 39.2672 29.436
Pt 9.46768 37.3195 33.4063
Pt 9.51336 39.2333 35.3405
Pt 11.4361 37.3948 35.4346
Pt 11.3881 39.3319 33.4401
Pt 9.52078 37.2759 37.3253
Pt 11.5358 37.3173 39.3413
Au 11.3104 39.4138 37.5342
Pt 11.5102 41.3139 15.5914
Pt 9.5705 41.27 17.5575
Pt 9.6014 43.1746 19.5497
Pt 11.5086 41.3463 19.442
Au 11.3635 43.3978 17.3988
Au 9.58238 41.2002 21.4577
Au 9.6795 43.1783 23.4961
Au 11.5825 41.211 23.4889
Pt 11.5917 43.179 21.5117
Au 9.58354 41.1273 25.4486
Pt 9.5794 43.1079 27.4288
Au 11.5283 41.191 27.4085
Pt 11.6201 43.3396 25.4855
Pt 9.43201 41.2393 29.4251
Pt 9.54565 43.1532 31.3208
Au 11.4171 41.2229 31.387
Au 11.5402 43.1956 29.3402
Pt 9.48228 41.2051 33.3409
Au 11.2826 41.4149 35.4646
Pt 11.4286 43.1856 33.2758
Pt 11.584 44.9943 19.617
Pt 9.67882 44.9806 21.5562
Pt 11.5525 45.164 23.4553
Pt 9.62505 45.0985 25.4489
Pt 11.4866 45.1571 27.439
Pt 9.60521 44.9616 29.3067
Pt 11.5181 44.9896 31.284
Pt 13.5353 7.64358 15.6159
Pt 15.4846 5.81346 15.6242
Au 15.399 7.46351 13.4584
Pt 13.577 5.80688 17.6049
Pt 13.6155 7.64111 19.4867
Pt 15.5119 5.61926 19.4615
Au 15.5687 7.53595 17.5256
Pt 13.5889 5.64233 21.3963
Au 13.6369 7.44161 23.462
Pt 15.554 5.51754 23.3445
Pt 15.5813 7.45355 21.4194
Pt 13.5959 5.5445 25.3947
Pt 13.5931 7.34028 27.4298
Au 15.497 5.24522 27.4336
Pt 15.5779 7.28835 25.4326
Pt 13.521 5.65434 29.509
Pt 13.592 7.63407 31.4122
Pt 15.5078 5.64943 31.5186
Au 15.5593 7.34864 29.4222
Pt 13.5673 5.86056 33.3479
Pt 13.6054 7.64258 35.3638
Au 15.5511 5.61895 35.4459
Au 15.5716 7.54122 33.4458
Pt 15.5566 7.65195 37.359
Pt 13.6151 11.4836 11.4918
Pt 15.5661 9.59777 11.5368
Pt 15.557 11.5227 9.51584
Pt 13.61 9.55181 13.5856
Pt 13.4599 11.4099 15.4843
Pt 15.5077 9.46979 15.4963
Au 15.5011 11.4384 13.4873
Pt 13.5352 9.53855 17.4728
Au 13.5764 11.5209 19.4202
Pt 15.5859 9.48416 19.4416
Pt 15.51 11.452 17.4139
Au 13.6357 9.58134 21.4546
Pt 13.6139 11.5762 23.3813
Au 15.5971 9.41736 23.4312
Pt 15.5683 11.4886 21.3815
Au 13.6582 9.43084 25.4961
Pt 13.6115 11.4485 27.443
Pt 15.6 9.22836 27.4285
Au 15.5441 11.4367 25.4559
Au 13.6199 9.48167 29.3733
Au 13.4913 11.4518 31.43
Au 15.6219 9.49154 31.4336
Au 15.6111 11.4409 29.4211
Au 13.5086 9.53613 33.4276
Au 13.4367 11.5165 35.5169
Au 15.5104 9.56226 35.4244
Pt 15.5623 11.4533 33.4284
Pt 13.6092 9.58066 37.4106
Pt 13.5813 11.5063 39.4265
Pt 15.5401 9.56038 39.3844
Pt 15.4884 11.4908 37.4802
Au 13.7465 11.6289 43.1004
Pt 13.577 15.502 7.60458
Pt 15.5573 13.5276 7.58752
Pt 15.5262 15.5508 5.82231
Pt 13.6415 13.4822 9.47447
Au 13.4374 15.3875 11.3768
Au 15.4954 13.423 11.4321
Pt 15.5322 15.4718 9.45306
Au 13.4289 13.3668 13.4282
Pt 13.5123 15.3989 15.4211
Pt 15.478 13.397 15.4398
Au 15.4542 15.4069 13.4411
Pt 13.5223 13.3998 17.3962
Au 13.4938 15.406 19.4169
Pt 15.5204 13.4437 19.3559
Au 15.4835 15.3997 17.3722
Au 13.5692 13.491 21.4238
Pt 13.5196 15.4774 23.4035
Pt 15.4974 13.5159 23.4153
Pt 15.493 15.4422 21.4206
Au 13.5809 13.5157 25.4431
Pt 13.4979 15.5583 27.4404
Au 15.5311 13.4762 27.4811
Au 15.4536 15.5159 25.4315
Au 13.5067 13.4832 29.4339
Pt 13.4671 15.504 31.4372
Au 15.5032 13.4462 31.4384
Au 15.4504 15.493 29.4806
Au 13.4586 13.4523 33.4367
Au 13.443 15.4344 35.4709
Au 15.4558 13.4472 35.4904
Au 15.4214 15.4941 33.4347
Pt 13.4026 13.3879 37.5469
Au 13.4832 15.4687 39.394
Pt 15.4885 13.5198 39.3734
Au 15.4631 15.5167 37.441
Pt 13.5799 13.5413 41.2862
Pt 13.5596 15.4698 43.1982
Pt 15.5388 13.5517 43.2306
Pt 15.5128 15.5583 41.3686
Pt 15.4956 15.4985 45.0111
Pt 13.5962 17.5203 5.8439
Pt 13.5498 19.4176 7.62069
Pt 15.5215 17.4823 7.60427
Pt 15.4557 19.379 5.63575
Pt 13.4422 17.3896 9.4289
Au 13.5711 19.363 11.4622
Pt 15.4685 17.3935 11.4275
Pt 15.5367 19.4016 9.43645
Pt 13.5089 17.3599 13.423
Pt 13.5471 19.3288 15.3736
Pt 15.5015 17.3543 15.3846
Pt 15.5167 19.2983 13.4567
Au 13.4879 17.4339 17.3935
Au 13.5009 19.5025 19.4902
Au 15.4947 17.4176 19.4171
Au 15.4852 19.4047 17.3888
Au 13.4964 17.4342 21.4513
Au 13.3918 19.4734 23.4234
Pt 15.4168 17.4439 23.4352
Pt 15.4249 19.4516 21.4772
Pt 13.419 17.4992 25.4066
Pt 13.3546 19.4589 27.4326
Au 15.4179 17.4825 27.4633
Au 15.3806 19.4325 25.4346
Pt 13.4411 17.5188 29.4294
Au 13.4268 19.4355 31.4146
Pt 15.4397 17.422 31.4287
Au 15.4347 19.4243 29.4738
Pt 13.4538 17.4594 33.4306
Pt 13.4337 19.4203 35.4474
Pt 15.4148 17.4778 35.4627
Au 15.4087 19.4006 33.4282
Pt 13.4379 17.4823 37.453
Pt 13.4902 19.4528 39.3845
Pt 15.5001 17.527 39.4495
Au 15.4573 19.4188 37.4447
Au 13.549 17.5299 41.4034
Pt 13.5619 19.561 43.3879
Au 15.5632 17.5716 43.3857
Pt 15.5389 19.512 41.4737
Pt 13.5278 17.4815 44.9583
Au 15.4208 19.4615 45.5315
Pt 13.4674 21.3256 5.69776
Au 13.5892 23.4001 7.41781
Pt 15.5661 21.395 7.35911
Au 15.4342 23.3315 5.29173
Au 13.6157 21.4356 9.48619
Au 13.5917 23.4602 11.4871
Au 15.5594 21.423 11.481
Au 15.6285 23.4501 9.33903
Au 13.5723 21.3912 13.4786
Au 13.5639 23.4842 15.4953
Au 15.5016 21.4404 15.403
Pt 15.6006 23.5249 13.4179
Au 13.5129 21.4228 17.4529
Au 13.4213 23.4269 19.445
Pt 15.4228 21.4798 19.4671
Pt 15.4312 23.4734 17.4931
Pt 13.3933 21.4689 21.4308
Au 13.3274 23.4655 23.4149
Au 15.375 21.4538 23.4244
Au 15.3814 23.4583 21.4371
Au 13.2998 21.4229 25.4495
Au 13.3076 23.4372 27.4395
Au 15.3729 21.424 27.4477
Au 15.3552 23.456 25.439
Au 13.3679 21.4414 29.4395
Pt 13.3755 23.4554 31.4237
Pt 15.387 21.4209 31.4582
Au 15.3661 23.432 29.4921
Au 13.4072 21.4541 33.3844
Pt 13.4033 23.4437 35.3832
Au 15.4393 21.4329 35.4253
Au 15.3972 23.4385 33.4055
Au 13.4365 21.4225 37.3881
Pt 13.4418 23.3933 39.2968
Au 15.5088 21.4294 39.4243
Au 15.4932 23.4137 37.3934
Au 13.5661 21.4556 41.3865
Pt 13.6057 23.4538 43.4514
Pt 15.5486 21.4668 43.6066
Au 15.5341 23.4341 41.5247
Au 13.4938 21.5061 45.5237
Pt 15.4776 23.513 45.3564
Pt 13.3999 25.4934 5.66407
Pt 13.5184 27.456 7.51483
Au 15.5696 25.3997 7.23732
Pt 15.3776 27.5215 5.56841
Au 13.6176 25.4485 9.43854
Au 13.5961 27.4617 11.4709
Au 15.6198 25.5102 11.3795
Pt 15.5932 27.4551 9.28979
Au 13.5889 25.4819 13.4668
Au 13.5279 27.4564 15.4556
Au 15.5307 25.4687 15.4323
Pt 15.5884 27.4861 13.3851
Pt 13.4372 25.504 17.4924
Pt 13.4002 27.4802 19.4107
Au 15.3944 25.4628 19.4359
Au 15.4369 27.4809 17.463
Pt 13.3507 25.4647 21.3571
Au 13.3463 27.4303 23.4135
Au 15.3538 25.4635 23.4297
Au 15.369 27.46 21.4093
Au 13.3183 25.4911 25.4942
Pt 13.342 27.4899 27.4665
Au 15.3642 25.4692 27.4632
Au 15.3745 27.4761 25.5047
Au 13.3406 25.4617 29.4111
Pt 13.3895 27.4444 31.4277
Au 15.3543 25.4693 31.4523
Au 15.3692 27.4927 29.4251
Pt 13.424 25.4132 33.4251
Pt 13.4404 27.393 35.3563
Au 15.4513 25.4356 35.3823
Pt 15.3793 27.4174 33.4319
Au 13.466 25.3906 37.3394
Au 13.4585 27.4465 39.369
Au 15.5099 25.4294 39.4061
Au 15.4793 27.4359 37.3768
Au 13.5472 25.4052 41.3516
Pt 13.5984 27.434 43.4099
Pt 15.5031 25.4818 43.497
Au 15.5095 27.447 41.4281
Pt 13.5575 25.4706 45.3224
Pt 15.4591 27.4517 45.3768
Pt 13.3931 29.4051 5.68467
Pt 13.5048 31.355 7.52573
Pt 15.471 29.4448 7.40917
Au 15.3811 31.3597 5.34741
Pt 13.5627 29.4115 9.44374
Au 13.5405 31.3963 11.4527
Au 15.5639 29.4165 11.3632
Pt 15.505 31.3896 9.34312
Pt 13.5533 29.4332 13.4841
Au 13.4791 31.4121 15.4646
Pt 15.4413 29.4613 15.4605
Au 15.5144 31.4432 13.457
Pt 13.4237 29.4405 17.4601
Pt 13.3892 31.3947 19.4075
Pt 15.333 29.4432 19.4146
Pt 15.3772 31.4082 17.4446
Au 13.3648 29.4232 21.4096
Au 13.3729 31.4166 23.484
Au 15.4031 29.4672 23.48
Au 15.3905 31.4084 21.4437
Au 13.3556 29.4189 25.4828
Au 13.3454 31.4166 27.4188
Pt 15.3861 29.4806 27.4659
Pt 15.4125 31.4041 25.4901
Au 13.3546 29.4548 29.4268
Pt 13.4169 31.4386 31.448
Au 15.3864 29.4422 31.4572
Au 15.4043 31.4273 29.4664
Au 13.4233 29.4108 33.4017
Au 13.4382 31.4707 35.4058
Au 15.4389 29.4503 35.3965
Pt 15.4188 31.4367 33.4331
Au 13.4454 29.456 37.353
Au 13.49 31.4738 39.3695
Au 15.487 29.4402 39.3808
Pt 15.4472 31.4787 37.3886
Pt 13.5508 29.465 41.4192
Au 13.5571 31.4871 43.3332
Pt 15.5016 29.4085 43.4485
Au 15.5191 31.4332 41.3958
Pt 13.5424 29.4221 45.2297
Pt 15.4361 31.406 45.2444
Au 13.342 33.3679 5.64498
Pt 13.3711 35.2779 7.58617
Au 15.4688 33.3403 7.36808
Pt 15.5542 35.5485 6.04827
Au 13.4679 33.4028 9.43327
Au 13.4037 35.4931 11.3551
Au 15.4785 33.4301 11.4051
Au 15.3854 35.5453 9.2554
Pt 13.4886 33.3913 13.4795
Au 13.5049 35.3714 15.4769
Pt 15.4502 33.3751 15.4943
Au 15.439 35.3696 13.4422
Au 13.4593 33.3885 17.4886
Pt 13.4454 35.3488 19.4851
Au 15.4233 33.4024 19.4598
Pt 15.4722 35.3791 17.5012
Pt 13.3903 33.3498 21.387
Au 13.4001 35.2987 23.4127
Au 15.418 33.3518 23.479
Au 15.4543 35.3913 21.4423
Pt 13.3606 33.3542 25.4665
Au 13.4164 35.3435 27.4391
Au 15.4145 33.3888 27.4159
Au 15.47 35.3803 25.443
Au 13.3819 33.3596 29.4315
Au 13.4355 35.3889 31.435
Pt 15.3915 33.4337 31.4928
Au 15.4329 35.4402 29.4482
Pt 13.4367 33.4053 33.427
Au 13.4441 35.4251 35.3951
Au 15.4463 33.4341 35.4074
Au 15.4454 35.4549 33.4039
Pt 13.4652 33.4461 37.412
Au 13.4978 35.4108 39.3676
Pt 15.4816 33.473 39.3969
Pt 15.4249 35.4777 37.4371
Pt 13.5229 33.4721 41.3692
Pt 13.5633 35.3714 43.2164
Pt 15.5272 33.4212 43.328
Pt 15.4867 35.4175 41.3291
Au 13.5822 33.458 45.2835
Pt 15.5252 35.4246 45.0057
Au 15.2761 37.7677 7.49125
Au 13.2908 37.6318 9.4977
Pt 13.4956 39.4797 11.6098
Au 15.3731 37.4991 11.4095
Pt 15.5138 39.5267 9.62724
Au 13.4757 37.4819 13.454
Au 13.4668 39.4963 15.4742
Au 15.472 37.4445 15.5201
Pt 15.3738 39.566 13.4923
Au 13.5162 37.3814 17.5326
Au 13.502 39.3803 19.5088
Pt 15.5517 37.4335 19.489
Au 15.5082 39.4394 17.5377
Au 13.4842 37.3393 21.4524
Au 13.5684 39.3177 23.4493
Au 15.5492 37.4394 23.4428
Pt 15.5702 39.4501 21.4658
Au 13.5076 37.307 25.4059
Au 13.5325 39.255 27.4183
Pt 15.5002 37.4095 27.4308
Pt 15.5867 39.4668 25.4495
Pt 13.4462 37.3463 29.438
Au 13.4652 39.2986 31.4024
Pt 15.4557 37.4002 31.4457
Au 15.5441 39.3519 29.4098
Pt 13.3947 37.3831 33.419
Au 13.323 39.3787 35.4514
Au 15.42 37.4786 35.4342
Au 15.4769 39.3819 33.431
Pt 13.4177 37.4306 37.4246
Pt 13.4771 39.268 39.3435
Pt 15.4414 37.4432 39.4274
Pt 15.4215 39.4127 37.4742
Pt 13.5255 37.3125 41.292
Pt 15.4619 37.3698 43.177
Au 15.2879 39.5043 41.45
Pt 15.5218 41.4296 11.5947
Au 13.3215 41.5472 13.4136
Pt 13.5389 43.2348 15.6314
Pt 15.4461 41.3971 15.5368
Pt 15.4852 43.2644 13.6365
Pt 13.4247 41.3874 17.5242
Pt 13.4764 43.2491 19.4753
Au 15.5332 41.438 19.4978
Pt 15.4267 43.3588 17.5227
Au 13.57 41.3444 21.5176
Pt 13.5344 43.3827 23.524
Pt 15.559 41.5166 23.4923
Pt 15.4689 43.4214 21.5042
Au 13.5786 41.3519 25.4551
Pt 13.5569 43.4354 27.3671
Au 15.5699 41.4412 27.4234
Pt 15.4746 43.473 25.4616
Au 13.5291 41.2838 29.355
Au 13.4926 43.2394 31.3701
Au 15.5466 41.3901 31.4059
Au 15.5117 43.4356 29.39
Au 13.396 41.3164 33.4251
Pt 13.3884 43.2239 35.2279
Au 15.4181 41.4138 35.4258
Pt 15.5071 43.3647 33.3509
Pt 13.4478 41.2155 37.3139
Au 15.2943 41.4356 39.4408
Au 15.2152 43.3622 37.3513
Au 15.4585 45.2904 15.5253
Au 13.4523 45.2699 17.571
Pt 15.3532 45.191 19.5129
Pt 13.4603 45.1625 21.5018
Pt 15.3986 45.2782 23.4909
Au 13.4744 45.5486 25.4698
Pt 15.4834 45.3147 27.4197
Pt 13.4586 45.1843 29.4113
Pt 15.4061 45.2177 31.3993
Pt 13.4072 45.0292 33.2302
Au 15.1827 45.2476 35.2003
Au 17.4857 7.41102 11.4496
Pt 19.7144 5.75903 11.6066
Pt 19.635 7.58314 9.62937
Au 17.6123 5.54217 13.5511
Au 17.537 7.42301 15.5011
Pt 19.6145 5.59273 15.4785
Au 19.5368 7.50407 13.5103
Au 17.5188 5.32298 17.4767
Pt 17.5427 7.38152 19.4358
Pt 19.4868 5.48706 19.4889
Pt 19.5358 7.30078 17.5108
Pt 17.4914 5.5117 21.3871
Pt 17.5132 7.34116 23.3692
Pt 19.3951 5.41076 23.2976
Pt 19.4884 7.32524 21.4247
Pt 17.4729 5.45077 25.2856
Au 17.5507 7.15425 27.4192
Au 19.4002 5.14129 27.4478
Pt 19.5116 7.14554 25.3681
Pt 17.5024 5.52572 29.5909
Pt 17.5566 7.42013 31.473
Pt 19.4642 5.49094 31.5763
Pt 19.5522 7.20396 29.5115
Pt 17.5326 5.64163 33.4875
Pt 17.5181 7.58849 35.3833
Pt 19.459 5.67821 35.4303
Pt 19.5265 7.44112 33.4067
Pt 17.5854 5.9129 37.3643
Pt 17.5324 7.68387 39.3673
Au 19.4486 5.73542 39.3905
Pt 19.5682 7.57727 37.3918
Pt 17.5607 9.59434 41.2469
Pt 17.4993 11.5718 7.62382
Au 19.3177 9.35617 7.48601
Pt 19.549 11.5772 5.93817
Au 17.3827 9.40917 9.45712
Pt 17.507 11.4473 11.3967
Pt 19.3999 9.49757 11.4446
Pt 19.4385 11.4728 9.38773
Au 17.4608 9.41988 13.4461
Pt 17.46 11.4262 15.4684
Au 19.5326 9.42985 15.5253
Pt 19.405 11.4418 13.4621
Au 17.569 9.43864 17.4802
Au 17.523 11.4254 19.4351
Pt 19.5166 9.2646 19.4651
Pt 19.4518 11.4195 17.4658
Pt 17.5599 9.30502 21.4008
Au 17.4975 11.4 23.4027
Au 19.5044 9.25466 23.4502
Au 19.5079 11.3191 21.4436
Au 17.5366 9.24727 25.4517
Au 17.5279 11.3614 27.4441
Au 19.5236 9.16487 27.4311
Au 19.5129 11.3072 25.4298
Au 17.5853 9.30065 29.4298
Pt 17.5886 11.4548 31.4482
Pt 19.5279 9.308 31.4169
Au 19.4879 11.3635 29.4774
Pt 17.5965 9.43635 33.3874
Au 17.5146 11.5139 35.4378
Au 19.5165 9.47267 35.3952
Au 19.5107 11.4539 33.3763
Au 17.5031 9.51685 37.4224
Pt 17.4918 11.5188 39.339
Pt 19.5091 9.56533 39.3271
Pt 19.4969 11.508 37.4038
Pt 15.5824 11.5787 41.2051
Au 15.6731 9.72556 43.0909
Pt 17.5038 11.6259 43.23
Au 19.503 11.5507 41.3114
Pt 19.4502 15.4105 45.2733
Au 17.4565 13.4642 5.62246
Pt 17.4998 15.4786 7.53101
Pt 19.4955 13.613 7.50553
Au 19.3969 15.4522 5.36027
Au 17.5195 13.4785 9.46909
Au 17.5105 15.487 11.4402
Pt 19.4546 13.4845 11.4114
Pt 19.4861 15.5186 9.42664
Au 17.5122 13.4097 13.43
Pt 17.4577 15.3914 15.3919
Au 19.4481 13.4071 15.4537
Pt 19.4321 15.4567 13.4349
Pt 17.452 13.4259 17.3799
Pt 17.4319 15.3911 19.3561
Au 19.4565 13.4473 19.3906
Pt 19.3791 15.4062 17.3664
Au 17.4597 13.4626 21.4183
Au 17.4707 15.4611 23.4364
Au 19.4992 13.3835 23.4472
Au 19.4527 15.4365 21.4061
Au 17.4937 13.452 25.4219
Au 17.4911 15.4513 27.4921
Au 19.4521 13.413 27.4766
Pt 19.4464 15.4421 25.4529
Pt 17.5304 13.4895 29.5361
Pt 17.4637 15.4418 31.472
Pt 19.4664 13.4618 31.4653
Pt 19.4408 15.4175 29.5386
Au 17.4821 13.4703 33.4224
Au 17.4651 15.4736 35.463
Pt 19.4691 13.4686 35.3915
Pt 19.4479 15.425 33.4163
Pt 17.4792 13.4912 37.4446
Au 17.4969 15.588 39.419
Au 19.5258 13.5348 39.3735
Au 19.4842 15.4901 37.4187
Au 17.4822 13.5794 41.3332
Pt 17.5177 15.606 43.3261
Au 19.5138 13.5938 43.295
Au 19.5333 15.6674 41.4633
Pt 17.4837 13.593 45.0438
Au 19.595 17.4036 46.9879
Pt 17.3961 17.4549 5.67676
Pt 17.4962 19.4627 7.39652
Au 19.5274 17.4306 7.31192
Pt 19.4664 19.4462 5.54393
Au 17.5504 17.4875 9.42343
Au 17.4996 19.3777 11.4516
Pt 19.4944 17.4621 11.4217
Pt 19.5198 19.4243 9.28367
Pt 17.487 17.3726 13.4315
Au 17.4779 19.3725 15.3841
Pt 19.4273 17.3702 15.4044
Pt 19.4554 19.3336 13.4177
Pt 17.4521 17.3429 17.3315
Au 17.4035 19.4588 19.4252
Au 19.3866 17.3903 19.3657
Au 19.4228 19.4219 17.3852
Au 17.4186 17.4273 21.437
Au 17.4235 19.4358 23.4219
Pt 19.4232 17.4304 23.4178
Au 19.4273 19.4414 21.4303
Au 17.4667 17.4448 25.415
Au 17.4386 19.4254 27.482
Au 19.4328 17.4025 27.4975
Au 19.4395 19.4409 25.4288
Pt 17.4518 17.3766 29.54
Pt 17.3902 19.3621 31.4498
Pt 19.4269 17.3598 31.4713
Au 19.3922 19.3947 29.522
Au 17.4411 17.4242 33.4244
Au 17.4469 19.4248 35.4743
Au 19.4678 17.4676 35.4639
Au 19.4256 19.4277 33.4289
Pt 17.4647 17.5195 37.4908
Pt 17.4856 19.4579 39.4988
Pt 19.4447 17.5902 39.5022
Pt 19.4319 19.4793 37.5252
Pt 17.4926 17.5987 41.4996
Pt 17.5121 19.5055 43.647
Pt 19.4579 17.5419 43.6606