3871
Atoms. Timestep: 21190
Au 4.57109 12.2647 22.8664
Pt 22.2535 9.16264 19.2743
Pt 30.0371 5.50337 27.2455
Pt 19.9595 15.2866 29.5915
Pt 9.01376 30.6792 28.8859
Pt 13.9988 12.4817 17.1187
Au 19.0645 5.24897 14.6023
Pt 15.5908 15.4907 20.1436
Pt 8.5873 26.7076 22.7061
Pt 21.8971 12.9287 41.0566
Au 6.22413 29.0973 34.2619
Pt 8.68185 25.3134 29.2579
Au 10.2164 37.6981 38.0569
Pt 17.5316 4.02169 25.5003
Pt 15.5378 16.5165 16.8101
Pt 21.48 31.6078 20.7743
Pt 27.1308 8.9937 19.7275
Au 10.2806 9.0493 33.0877
Pt 9.50506 18.7692 30.4262
Au 9.68351 12.8354 35.8705
Pt 13.4101 23.9034 31.4803
Au 12.1659 38.928 33.1913
Pt 23.9831 22.6272 23.8072
Au 4.2595 27.0117 40.0219
Pt 11.7318 19.3421 18.8366
Au 6.26989 14.228 30.1938
Pt 13.9236 33.8905 24.7385
Pt 26.2704 4.1481 28.3057
Pt 10.2269 29.1335 27.1837
Pt 12.7589 8.67466 27.2144
Pt 5.56946 20.9341 28.3189
Au 15.9118 13.3064 22.121
Pt 19.1142 24.9665 40.9746
Pt 11.3777 20.3608 23.9122
Pt 15.1601 32.2637 18.1325
Au 6.04862 17.1926 14.4359
Pt 22.2172 6.811 29.0069
Au 20.6506 23.0183 39.4017
Pt 31.2403 8.69879 18.4334
Au 3.00288 22.5511 34.2747
Pt 13.0644 30.059 38.0024
Pt 13.3108 37.7104 13.0024
Pt 18.2751 22.3325 22.8184
Au 2.57927 27.6142 31.7657
Pt 15.908 10.6636 17.8729
Pt 5.29298 28.472 31.8275
Pt 22.7751 23.4184 35.1382
Au 17.1156 40.3134 13.2277
Pt 18.5996 12.5531 21.5695
Au 1.77367 24.7866 21.0162
Pt 17.1868 23.4386 14.317
Pt 16.8604 24.5863 23.181
Pt 18.2089 18.6352 27.1626
Au 14.34 7.07395 32.1896
Pt 19.1511 15.1735 34.1783
Pt 19.6967 14.6159 39.7044
Pt 22.0566 20.6208 25.0654
Au 13.2517 4.96208 19.0219
Au 33.4124 17.4398 10.061
Pt 11.839 17.5326 13.7574
Au 3.96583 27.3409 34.2179
Pt 15.6363 18.2529 26.4124
Pt 15.0535 22.8339 26.8056
Pt 4.65105 25.761 31.865
Pt 13.3774 26.7393 14.4702
Pt 17.8208 8.75982 36.2548
Pt 24.4716 19.5126 24.0673
Au 10.0968 8.30024 24.2437
Au 4.56096 37.8271 20.0569
Pt 21.2146 13.182 12.2397
Au 41.1108 5.0235 28.2588
Pt 23.5393 24.7822 30.6023
Pt 9.60079 21.7113 12.5584
Pt 12.0146 13.8477 34.7413
Au 9.22911 21.5708 37.5012
Au 27.0312 15.9137 38.6446
Au 9.10717 14.4548 17.6948
Pt 12.6204 16.1212 39.3338
Pt 8.29846 16.6587 19.3024
Au 5.92503 19.0739 35.2261
Au 8.99934 19.1939 38.7907
Pt 18.2448 34.1987 24.2382
Au 24.9664 19.6768 19.1901
Pt 14.3015 15.325 10.5471
Pt 15.0273 20.8043 11.1472
Pt 10.3418 26.3174 39.2815
Pt 29.3847 15.0824 26.5993
Au 12.4139 43.3487 17.044
Pt 26.1491 2.11008 23.872
Au 4.81309 13.0326 17.5237
Pt 21.1523 14.166 36.2559
Pt 15.4469 20.3627 31.5092
Pt 10.9129 21.9591 19.4111
Pt 15.6751 38.72 22.5009
Au 3.37893 20.3691 29.934
Pt 27.8753 35.0014 24.0766
Pt 14.1042 35.8072 15.0751
Pt 6.78958 29.6128 36.9986
Pt 15.5784 33.9361 37.1773
Pt 20.1606 20.4137 16.403
Pt 9.12634 26.81 27.0699
Au 41.6335 8.6577 29.6333
Pt 10.64 25.0136 34.3059
Pt 8.08467 24.3431 26.7011
Pt 23.0537 12.9782 31.9947
Pt 23.1626 10.6486 28.2236
Pt 17.4984 23.8488 33.5168
Pt 23.7804 18.9604 26.6446
Au 2.15876 28.1284 28.4921
Pt 26.0859 14.6964 22.3261
Au 26.3923 21.0802 36.9852
Pt 13.2453 25.2683 42.7364
Au 11.4365 40.0917 28.1866
Au 21.5605 36.5452 42.9781
Pt 14.9813 17.2487 38.2469
Pt 12.2275 37.4839 19.8269
Pt 18.5444 10.726 28.0296
Pt 18.6531 11.7529 32.514
Pt 19.3923 30.0296 40.9449
Au 14.9306 33.7259 44.0001
Au 27.1568 12.8617 5.76615
Pt 14.084 27.1411 26.1659
Pt 13.801 27.245 17.1311
Pt 22.8301 31.852 23.2161
Pt 26.5848 6.32722 35.4042
Pt 17.5446 26.785 21.455
Au 13.9013 19.2958 6.9284
Au 8.7895 34.7544 34.5746
Au 31.181 19.8396 43.8725
Pt 10.6672 38.069 23.3435
Pt 14.0352 31.3701 22.7568
Pt 19.4764 23.125 15.9027
Pt 19.8472 18.6634 29.5806
Pt 7.70484 17.6719 24.2052
Pt 4.35584 21.1362 22.6757
Pt 13.9381 31.3701 25.5331
Pt 9.58589 21.6092 34.3531
Pt 19.2689 42.7219 30.9721
Pt 11.2209 22.6879 22.3752
Pt 13.1563 32.6841 33.5155
Au 8.54141 40.4946 17.4181
Pt 12.7557 33.0602 37.0321
Pt 21.7476 40.8456 20.4036
Pt 13.6728 14.2004 23.4413
Au 5.09384 17.0679 17.0374
Au 26.9991 30.9664 44.64
Pt 21.8154 15.7608 38.3286
Pt 20.6957 38.0161 14.1754
Pt 7.57915 17.0171 31.2534
Au 3.99784 32.4105 29.3784
Au 5.22286 34.3619 16.562
Pt 8.46736 26.4928 35.1856
Au 17.1378 2.71629 29.8596
Pt 19.2665 21.0184 43.5593
Pt 9.24782 28.7833 18.4604
Pt 17.444 20.8207 33.2162
Pt 16.5266 28.6777 10.666
Pt 17.8163 19.6653 41.6693
Pt 16.071 27.2742 24.0956
Pt 16.9749 31.1733 41.7992
Pt 27.7237 35.2628 26.771
Pt 17.2715 13.33 38.783
Pt 7.39292 30.3427 19.5231
Au 6.618 19.5905 13.5634
Au 8.77507 39.5394 36.6175
Pt 16.6213 13.6142 10.793
Pt 15.0397 30.572 20.102
Au 14.2424 6.88722 17.3788
Pt 5.23481 17.0085 25.8727
Pt 8.00145 30.8961 33.1593
Au 7.68178 21.3932 39.9728
Pt 16.1535 20.8296 21.7277
Pt 6.89825 25.9936 15.9578
Pt 17.2503 36.5955 28.4073
Au 3.54588 32.8547 18.8741
Au 3.06653 22.8767 31.5744
Au 19.7148 48.7483 24.4918
Pt 14.7364 16.0326 25.2039
Pt 20.2616 26.8681 33.0975
Au 6.14695 24.8445 40.307
Pt 13.6163 15.2441 30.112
Au 24.052 30.2099 44.1358
Pt 9.25616 33.254 28.0794
Pt 11.6654 29.4877 29.4482
Pt 16.397 16.692 9.7067
Pt 21.1873 20.9481 30.5016
Pt 11.015 38.771 35.644
Pt 23.4558 20.2507 31.9818
Au 15.7296 47.3112 25.3562
Pt 12.6654 26.1977 32.6716
Au 7.96014 28.2737 42.8545
Pt 26.9724 11.5884 29.8161
Pt 22.4348 36.5867 30.7855
Pt 17.9943 42.6376 35.5274
Pt 17.2012 29.2203 29.4132
Au 6.53368 33.9354 26.879
Pt 14.2428 25.0343 39.6174
Pt 18.801 25.4495 14.4343
Pt 12.4895 30.8407 31.6784
Pt 17.8396 31.09 11.0777
Pt 8.54239 13.8869 28.6317
Pt 9.65311 35.3958 16.5044
Pt 11.9901 34.293 15.3955
Pt 21.7198 19.8975 7.4646
Pt 16.022 35.3284 25.7733
Pt 7.49599 27.5854 20.168
Pt 15.3921 23.2721 21.1347
Pt 14.7641 35.3083 22.6831
Au 6.06258 16.0735 35.3155
Au 4.70099 22.5179 36.3675
Au 3.21451 25.6708 27.6736
Pt 17.0301 17.3622 24.2934
Pt 8.96793 35.665 27.0201
Au 8.95398 29.2147 12.4187
Au 1.83981 23.8017 23.5621
Pt 14.6216 27.9685 19.6372
Pt 19.0644 32.8454 40.7809
Pt 16.1425 33.0237 39.7126
Au 22.3422 16.0229 46.4424
Pt 14.3641 28.5765 36.2379
Pt 12.2429 34.1097 28.6126
Pt 18.1166 29.002 22.7926
Pt 6.52817 29.4207 24.9755
Pt 16.4908 24.0092 40.9841
Pt 19.5657 22.3773 32.2122
Pt 17.5975 27.1093 12.7218
Pt 18.4149 26.7571 10.0081
Au 8.95087 26.1568 18.0832
Au 23.8572 49.2238 21.1188
Pt 16.7417 29.6214 13.1255
Pt 15.0899 12.7131 19.5858
Au 11.6443 41.7575 33.3412
Pt 11.3853 15.7953 22.3775
Pt 16.9198 35.546 39.7365
Au 9.32665 40.6094 14.9036
Pt 9.57128 35.7074 24.2547
Au 11.954 21.7719 43.2119
Pt 27.9541 45.9108 22.3159
Au 8.57528 40.457 20.1476
Au 10.1803 29.5691 44.0455
Pt 18.0071 42.5732 22.3255
Pt 9.26955 25.7962 32.0342
Au 20.854 48.9023 27.0899
Pt 17.7257 35.7851 37.1635
Pt 14.363 25.3393 18.9987
Pt 16.6294 32.1583 31.9715
Pt 15.2215 40.9879 19.1098
Au 3.6771 27.3954 37.3243
Pt 13.8791 27.2412 9.56253
Pt 8.97986 19.7991 20.0394
Pt 21.2989 43.9447 29.7427
Pt 10.7427 29.0031 38.9601
Au 18.7045 47.9567 21.905
Pt 18.3773 33.3365 38.2097
Pt 17.9599 42.7245 26.6934
Au 21.467 46.0573 18.0502
Pt 8.30651 22.3656 20.2142
Au 3.25677 22.7985 28.7237
Pt 21.2194 34.2136 41.5259
Pt 38.0549 40.671 27.8989
Pt 22.0876 38.5034 19.022
Pt 9.97581 16.5844 12.2936
Pt 15.5857 17.7942 35.7319
Pt 8.88413 23.9085 22.7162
Pt 26.0728 23.6355 28.5926
Au 15.6318 15.4607 44.8301
Pt 12.9707 16.7779 20.2599
Au 13.9016 10.9697 11.7655
Pt 16.6077 12.3497 15.8757
Pt 35.8816 11.332 32.6572
Au 6.05386 38.4581 24.1937
Pt 13.582 21.4551 19.7523
Pt 15.427 14.2471 27.0423
Au 24.8731 0.890456 25.8296
Pt 17.847 24.9107 36.3346
Pt 26.4517 21.3985 24.0039
Pt 11.4559 14.6393 32.136
Pt 16.0905 30.0814 24.4369
Au 4.99119 16.7208 30.3227
Au 7.99759 22.974 10.5822
Pt 19.1114 3.61316 27.9692
Pt 12.4779 21.5015 38.1726
Pt 12.9113 22.3152 24.735
Pt 19.27 36.2258 15.7714
Au 32.3796 26.7303 20.6627
Pt 12.2698 35.7631 24.051
Au 36.991 23.9524 34.2097
Pt 16.7665 22.4328 35.519
Pt 12.9648 32.0624 16.4517
Au 36.4226 27.0743 38.6735
Au 33.3249 15.01 34.2987
Au 33.5301 19.8287 36.2167
Pt 17.3512 15.6749 22.1186
Pt 12.3162 12.2769 36.9139
Pt 17.1811 6.57047 32.2683
Au 21.3212 3.46622 32.5114
Pt 8.54962 34.8962 20.9461
Au 47.7881 18.5513 30.4984
Pt 15.4379 24.9215 35.1133
Au 23.3982 34.523 43.3823
Au 6.84946 23.0641 38.0135
Pt 16.0419 33.059 23.4406
Au 6.86386 29.3458 14.4846
Au 9.48362 29.874 8.34741
Au 7.10645 11.9567 18.8333
Au 14.5586 43.9122 15.418
Au 3.89159 33.1162 26.5631
Pt 11.1704 14.5095 29.3822
Pt 8.51102 19.5683 35.7602
Au 23.998 27.2288 39.5728
Pt 24.0143 15.1857 18.0926
Au 19.0894 19.0642 6.04785
Pt 19.7849 18.6171 25.0629
Pt 16.8457 20.684 26.2569
Au 17.8689 8.1877 10.8811
Pt 6.47141 24.5501 35.6064
Au 10.3503 21.405 40.0334
Pt 3.87274 29.6897 22.2717
Au 24.8917 30.7472 27.2304
Au 22.8006 17.2303 16.4781
Pt 10.3546 15.1864 26.8822
Au 32.0626 4.83032 35.7536
Au 31.1976 17.7276 17.6364
Au 33.6064 29.4705 33.3329
Pt 13.4164 8.27903 29.8302
Pt 13.0507 13.6144 26.0086
Pt 9.25426 23.1711 30.7092
Au 35.9625 32.2063 44.1587
Pt 10.9588 37.2448 25.9718
Pt 29.6538 11.0884 29.8844
Au 12.1986 13.0356 10.841
Au 17.457 11.2982 42.0372
Pt 15.1333 20.1763 34.5117
Pt 13.2186 19.6272 12.8211
Au 8.26245 36.0714 37.0127
Pt 6.05259 27.1102 36.1311
Pt 9.96731 30.0389 14.8994
Pt 16.1976 29.5576 17.686
Au 2.62329 17.7631 29.286
Pt 6.46057 22.7679 22.1707
Au 3.47974 18.5575 31.8043
Au 31.8514 22.2625 28.962
Au 30.1228 35.9896 8.83496
Pt 15.1367 25.956 21.5933
Pt 23.316 33.7713 16.6346
Pt 11.098 28.1492 22.8698
Au 31.5351 29.2406 9.25314
Au 44.413 29.6467 13.4712
Au 25.3222 30.8374 23.0706
Au 20.6562 25.5434 16.7851
Au 34.7544 22.5374 32.3534
Au 41.9729 25.9971 11.3131
Au 33.7373 24.024 30.1901
Pt 11.8962 27.107 28.2236
Au 18.5381 31.7967 7.27241
Pt 4.34628 19.0527 24.4965
Au 42.5173 18.2643 35.0305
Pt 11.4502 20.1645 21.2581
Au 30.2941 30.8977 22.2734
Au 23.4782 31.2506 7.47029
Pt 17.7719 29.4784 15.5004
Au 38.6725 28.4487 40.0005
Au 34.9476 25.4784 45.6652
Au 23.1302 33.4718 5.51391
Pt 16.6671 18.2111 21.68
Pt 17.6461 19.9188 23.8204
Au 32.9812 41.4838 40.499
Pt 23.6486 11.4056 37.8925
Au 4.65967 30.4701 17.8057
Pt 29.1973 8.98295 25.0449
Pt 12.99 11.6459 24.1994
Au 15.8896 29.4499 46.0812
Au 11.4057 10.7976 34.8301
Pt 20.4739 40.9068 17.6716
Pt 10.0591 20.9093 31.8281
Pt 46.6975 26.1492 21.744
Pt 12.9658 38.8123 26.0524
Au 11.9216 12.414 19.2605
Au 24.9085 4.57635 20.3106
Au 31.363 27.8208 33.5806
Pt 16.191 19.1489 28.9929
Au 31.0288 21.3726 4.72817
Pt 13.1402 38.3622 15.6805
Au 34.5655 39.8577 41.842
Au 2.67201 17.7944 26.4721
Au 34.2135 17.4727 40.3031
Pt 16.4739 28.8588 37.8336
Pt 18.7404 27.5287 30.8963
Au 29.0859 29.3409 17.17
Pt 13.0223 26.4548 35.3406
Au 31.8217 6.28279 40.0485
Pt 11.4705 20.1693 29.2898
Au 24.405 32.3058 31.7859
Au 24.9559 7.06274 10.8842
Au 28.1899 23.5447 10.8686
Pt 8.56728 31.2985 38.0584
Au 30.8617 8.47615 13.948
Pt 13.2484 31.4888 28.9171
Au 17.9975 24.7471 46.1747
Pt 12.0383 10.6357 28.7885
Au 22.7281 26.8689 17.9298
Au 29.7085 19.065 13.4535
Pt 10.9404 12.6315 27.4661
Au 27.0822 37.7616 42.5917
Au 24.6411 4.98756 36.9599
Pt 10.0791 27.0667 20.5122
Pt 19.7855 17.3626 39.0714
Pt 15.1314 20.1744 41.8168
Pt 11.3202 38.2694 30.4625
Au 3.77936 24.986 35.5101
Au 14.3219 10.6839 35.6178
Pt 11.2056 25.353 30.2816
Au 10.7929 14.3313 40.4366
Pt 16.068 11.8554 28.172
Pt 10.3631 18.952 33.9707
Pt 17.2822 24.485 9.01666
Pt 7.75716 23.8168 18.1149
Au 6.89375 22.1629 12.9127
Pt 10.1047 22.6867 25.237
Pt 14.1167 20.4818 26.2303
Pt 12.1249 24.7579 25.1472
Au 12.6953 19.0425 43.1532
Pt 13.59 21.243 22.406
Au 33.5329 14.9823 13.9864
Pt 16.1818 39.0563 29.297
Au 12.1235 6.66172 25.5803
Pt 18.1098 46.6782 24.3785
Au 29.6464 17.1833 30.8738
Au 24.9971 18.9202 15.4058
Au 26.5114 16.3177 33.5999
Pt 15.3723 37.8951 26.9894
Au 21.628 32.8302 14.5416
Pt 20.6576 32.7835 24.4207
Au 45.2202 32.0786 14.6465
Pt 5.59086 23.3036 19.582
Au 30.415 37.4706 38.0949
Au 31.054 24.2608 20.8685
Pt 10.6629 39.3281 18.7022
Au 23.724 23.3525 13.492
Au 25.2984 15.7958 42.6608
Au 42.9191 41.0912 27.6258
Au 28.1347 28.5627 33.9218
Au 29.2592 35.3779 31.2017
Au 27.208 26.2881 32.3546
Au 49.6588 21.2101 26.6601
Pt 26.0003 13.3055 38.2378
Au 27.5237 26.3591 46.0459
Pt 12.969 15.8817 27.5275
Au 22.5392 2.46448 30.2606
Pt 19.8363 23.4658 27.1791
Au 26.3404 38.3156 15.7137
Au 25.1669 30.3995 46.5726
Au 6.60587 15.0599 32.8337
Au 6.51318 31.5347 39.8456
Pt 11.4107 22.7709 35.9167
Pt 12.6101 26.8716 40.6781
Pt 12.8514 33.4564 31.0966
Pt 25.0307 16.4098 20.3972
Pt 9.0449 18.1646 14.3861
Pt 13.4135 26.6395 23.5608
Pt 8.88924 37.0906 30.0132
Au 7.37901 36.0875 15.2895
Pt 13.6106 24.0572 22.883
Au 35.1739 13.7055 11.735
Pt 15.3149 28.7324 22.1156
Au 24.1002 28.1447 23.8071
Au 33.1569 33.8071 21.4824
Au 30.2782 23.2582 26.6458
Au 29.3843 21.2219 9.88392
Au 26.5093 20.1263 3.85245
Pt 16.4436 26.6267 15.1979
Pt 6.681 20.129 23.5129
Pt 11.2178 34.4733 26.2677
Au 18.0395 33.5913 9.73906
Au 8.83895 29.4409 35.2763
Au 34.8333 41.6542 14.6501
Au 14.161 36.3867 7.9198
Au 4.42691 11.7805 25.511
Pt 18.1714 30.459 27.2154
Au 28.846 28.3069 41.7982
Au 28.6198 24.5217 35.9315
Pt 13.9028 34.4476 17.3448
Pt 20.3755 43.5904 22.1552
Au 22.16 35.5788 14.8654
Pt 21.947 25.4816 28.0366
Au 29.5206 31.0822 45.6611
Pt 18.0901 17.7005 34.0139
Pt 14.9415 22.4652 13.1507
Au 37.8156 26.5715 33.1621
Au 28.0167 23.8901 47.2764
Au 17.1948 37.9294 43.7715
Pt 18.9448 28.4891 38.3756
Pt 24.7762 14.9901 31.5971
Pt 17.4032 16.0643 39.1472
Pt 19.3756 16.6379 31.717
Au 24.1178 13.3167 42.5071
Au 14.5952 36.3428 44.7177
Au 28.7658 20.7637 38.7881
Pt 12.4017 33.1697 43.7222
Pt 15.6325 20.0461 13.8634
Pt 6.09994 33.9401 20.6549
Pt 10.6061 19.2231 11.8459
Au 3.94236 15.6714 27.8178
Au 2.07489 28.816 25.7902
Pt 6.39941 20.5977 20.7512
Au 7.22618 11.7185 29.4644
Pt 10.8386 28.3762 10.2902
Au 21.5843 19.0118 4.93436
Pt 17.3752 40.5203 20.792
Au 2.74879 27.3803 20.7079
Pt 17.6808 39.9218 23.8156
Au 25.5183 22.3166 18.2991
Au 15.6887 13.3083 43.2019
Au 21.5071 3.1159 23.1534
Au 4.47882 34.1546 33.7145
Pt 7.16339 34.1877 23.1136
Pt 13.9518 42.792 24.1067
Au 5.631 17.6154 33.044
Pt 4.70556 28.2706 26.9543
Au 27.9528 31.5301 34.8506
Au 2.47113 32.0045 21.3802
Au 10.221 42.4239 21.0635
Au 16.7145 21.9495 43.0047
Pt 6.13419 21.2498 18.1197
Pt 18.3984 31.3195 24.3892
Au 29.8259 1.89703 32.3249
Pt 22.4787 30.0924 28.194
Pt 17.2115 24.2306 27.8484
Au 18.6418 34.2787 46.3407
Pt 17.3931 19.0386 38.6395
Pt 11.5903 34.2577 39.5341
Au 23.7053 20.1129 44.1502
Au 15.2946 25.4491 46.0715
Au 8.61965 10.9551 34.244
Pt 31.7818 41.9365 35.4404
Pt 10.9932 35.8386 21.7196
Pt 19.0816 13.24 16.9166
Pt 14.1854 19.0166 20.7421
Au 12.5697 4.46326 27.2154
Pt 8.21196 31.7933 14.0692
Au 16.2685 32.6487 5.81332
Pt 11.1188 25.3788 22.6
Au 2.38839 21.1976 24.5179
Pt 4.88105 32.4858 22.7219
Pt 7.99375 37.0284 22.6871
Pt 17.1068 36.5465 23.4745
Pt 26.1187 38.9535 21.1387
Pt 8.94046 21.2376 22.558
Pt 11.3984 28.6574 36.2931
Pt 15.7133 44.1023 22.4448
Au 7.70563 33.2417 11.5879
Au 29.835 29.1764 29.3066
Au 9.22289 14.5499 33.8237
Pt 17.0153 24.9194 19.6482
Au 6.49547 28.4201 17.5392
Pt 13.5102 29.1198 24.1811
Pt 14.9619 5.18532 25.8049
Pt 21.6234 43.8803 24.6754
Pt 19.6706 27.4535 40.8029
Pt 20.2109 33.8947 33.9515
Pt 22.9589 34.2671 24.3468
Pt 7.91859 19.2771 32.879
Au 17.5616 46.8487 32.4673
Pt 19.4817 42.0844 19.8533
Pt 9.00256 28.5219 24.7251
Pt 28.6756 16.3986 22.2174
Pt 21.2343 28.0352 26.9982
Au 23.0315 38.7001 10.3255
Au 16.5123 37.2598 6.63171
Au 22.1379 26.103 7.15183
Au 33.1126 17.8131 4.92793
Pt 16.1837 28.6204 26.6384
Au 4.50018 28.7232 15.6846
Pt 9.26893 38.4423 27.8124
Au 13.8584 45.6407 23.9584
Pt 20.7392 38.5493 30.9908
Pt 18.1062 43.14 17.2853
Pt 13.0985 37.5333 22.3023
Au 41.8546 22.0362 42.3083
Au 7.24625 17.6271 37.2374
Pt 14.8319 37.5741 39.9401
Au 8.97738 38.0491 13.8398
Pt 16.4639 15.455 33.8899
Pt 18.6717 28.5912 25.3325
Pt 23.292 45.7619 25.0436
Pt 9.66083 34.1474 13.9547
Pt 15.3571 41.3863 22.2038
Pt 16.4614 33.68 11.9419
Pt 19.4703 39.1569 19.4628
Pt 15.2763 41.6632 35.6539
Pt 13.6002 10.407 19.2038
Pt 25.7364 15.2886 36.1183
Au 6.68963 10.9682 26.7051
Pt 12.6 12.646 30.8693
Pt 10.7899 13.1408 24.772
Pt 17.6547 12.7182 26.2151
Au 7.87035 16.5417 16.3791
Pt 8.22745 32.1826 35.5634
Au 5.68542 31.9752 37.2615
Pt 14.6532 37.3304 24.5064
Pt 24.7133 25.968 28.1042
Pt 11.4305 27.3507 25.4578
Pt 16.8422 31.147 21.9295
Au 31.1179 28.7065 19.0182
Pt 19.2784 9.89553 38.1956
Pt 6.95736 24.3784 31.3669
Pt 14.9673 24.7976 25.0821
Pt 20.6324 16.6703 43.509
Au 15.8085 8.11183 34.3979
Pt 17.7446 21.8025 17.461
Pt 26.3138 6.81404 21.4054
Au 9.89731 33.8502 37.374
Au 22.7493 26.1113 47.118
Pt 16.1776 19.3695 16.5473
Pt 19.3162 23.8614 18.5769
Pt 39.6245 12.7851 17.2194
Pt 23.5214 11.8397 12.5998
Pt 10.4529 12.1938 32.688
Pt 21.805 21.5973 27.8081
Pt 20.1913 20.3677 22.9065
Au 19.566 6.28782 12.0193
Pt 10.9534 20.1325 14.2531
Au 26.6013 24.6323 6.27706
Pt 13.3047 23.8612 14.4362
Pt 17.9586 24.4904 11.8118
Au 15.2737 8.56894 37.261
Pt 12.5468 20.364 10.325
Au 23.0601 17.8299 42.4039
Pt 16.9924 21.748 9.33729
Au 28.8729 24.0062 31.7454
Pt 14.6575 27.9197 39.4557
Pt 21.4281 10.9678 32.628
Au 35.6516 28.0017 32.0446
Au 27.9739 26.2486 43.3325
Au 28.236 14.3059 36.7128
Au 31.2168 23.6644 18.0472
Au 36.2293 33.9011 13.4042
Au 16.1534 22.8362 45.5686
Au 5.85647 24.3943 14.0105
Au 6.95718 25.5964 11.4651
Pt 20.1146 7.88568 20.4225
Pt 21.3068 28.9275 31.6538
Pt 9.34515 27.9058 29.5769
Pt 20.8346 4.70611 30.0672
Pt 6.35059 26.1821 27.8163
Au 2.4199 25.2568 30.2943
Pt 25.3552 13.0664 17.2283
Pt 9.37477 15.4418 24.4151
Pt 11.3773 20.2877 26.5053
Pt 21.3671 18.5277 12.1547
Au 12.6731 26.2313 7.1912
Au 3.79245 20.8999 19.9062
Pt 13.5281 34.7773 35.1592
Au 11.4173 31.6967 7.44554
Pt 23.7377 12.9039 15.1329
Pt 11.2584 31.7346 27.1353
Au 16.4033 34.7184 7.85595
Pt 8.96396 14.5454 31.1365
Au 37.2072 21.7412 5.60139
Pt 25.7005 12.5126 32.0895
Au 20.1468 24.895 8.86781
Au 35.7981 12.3639 39.9496
Pt 16.0068 20.4613 19.1158
Pt 6.6609 12.752 24.4879
Pt 12.2 10.1049 31.5716
Au 41.4402 40.3187 17.047
Pt 8.04967 26.7909 40.5239
Au 28.6158 2.98192 34.787
Au 37.6303 23.5801 13.3963
Au 10.8369 23.7835 38.4168
Pt 21.0281 17.1318 33.6804
Au 21.3387 24.6915 14.2117
Au 36.9858 39.314 15.4051
Au 11.4104 16.5241 41.8579
Au 11.6754 7.26061 31.6011
Au 33.3402 10.2135 36.6913
Au 29.9918 24.7726 45.5813
Pt 19.47 6.23095 27.9383
Au 4.98561 25.1301 37.9364
Pt 16.5991 21.7302 28.7046
Au 24.5343 20.7008 13.2478
Pt 14.0733 22.2291 35.968
Pt 26.576 19.668 26.2077
Pt 16.65 10.2219 26.0954
Pt 18.1249 14.6383 19.7011
Pt 11.4028 13.1248 22.1711
Pt 7.38382 21.7566 32.3884
Pt 15.3295 17.8906 33.1039
Pt 19.114 32.6867 22.0798
Pt 8.7008 15.9732 21.9688
Pt 10.348 34.7994 30.4494
Au 47.1476 32.834 25.1558
Pt 16.9945 32.1097 13.8716
Pt 10.766 24.7106 27.5236
Pt 18.0812 16.4758 17.8476
Pt 6.01654 25.9232 18.4591
Pt 11.1027 30.1116 24.8758
Pt 18.4667 27.5902 27.7838
Au 28.8884 30.1242 7.56489
Au 14.9083 19.1938 23.7689
Au 39.1219 18.3891 8.79339
Au 23.0489 13.7295 10.1673
Au 31.4974 30.0315 11.8927
Au 28.2128 37.2515 33.2945
Pt 31.9485 12.7006 30.2188
Pt 16.8226 8.02363 17.2673
Pt 7.89004 23.2543 15.5372
Pt 14.8648 8.10867 25.5202
Au 31.694 16.7914 32.8738
Au 43.8339 25.8027 16.0384
Pt 23.7845 18.6274 21.3648
Au 43.0104 15.2759 34.6922
Pt 36.0093 19.3335 27.9215
Au 25.2658 28.7222 21.113
Pt 15.1834 10.0973 23.6187
Pt 17.3146 18.3642 31.4923
Pt 9.13224 19.6458 27.7179
Au 32.0688 17.2255 12.8815
Pt 21.2583 10.9134 36.7567
Pt 15.3109 26.2903 37.3525
Pt 15.4513 9.04343 28.1456
Au 36.0447 21.8697 39.2755
Au 15.2332 12.369 40.5886
Pt 13.6729 17.7631 41.0071
Au 33.7117 2.21395 29.2619
Pt 6.65035 15.9242 28.1141
Pt 14.7345 30.5327 33.1303
Au 6.24027 10.1804 23.9196
Pt 23.9784 32.5562 21.0033
Au 6.39135 28.4913 11.833
Pt 6.66062 19.2017 26.2561
Au 9.13693 10.594 27.8017
Au 4.63613 18.6929 21.6024
Au 36.1146 24.272 6.02385
Au 25.7553 8.16177 13.2931
Au 3.75194 15.3244 18.8853
Au 29.8298 13.8156 5.86444
Au 11.17 15.7993 9.79647
Au 37.1176 31.244 5.9214
Pt 11.8217 32.026 14.051
Au 28.3963 37.8101 17.4241
Au 20.3504 27.5906 21.5103
Pt 11.5787 29.7279 12.6701
Pt 17.4485 32.389 19.6766
Pt 12.7132 26.6857 20.9775
Au 34.0101 22.762 12.7069
Au 10.0221 13.8852 12.4877
Au 20.4014 34.9665 10.2155
Au 30.6123 26.2747 40.8284
Au 34.1841 46.3456 15.4896
Au 34.135 38.6296 8.42128
Au 34.5148 20.3436 14.3685
Au 20.2459 26.1737 11.9562
Pt 19.514 21.4111 25.3627
Pt 4.25829 28.0631 24.3736
Au 11.9093 36.8985 40.2483
Au 46.3786 16.2602 31.4692
Pt 18.7562 40.1735 30.736
Au 23.4653 6.49963 39.2598
Au 13.014 45.8216 32.0979
Au 21.761 26.6956 42.636
Pt 18.2452 19.2647 18.2913
Au 32.2236 24.2067 41.498
Au 34.9835 14.9891 38.8951
Au 35.6842 42.4625 37.0692
Pt 5.02037 24.5965 29.5294
Pt 9.13159 32.8116 40.4134
Au 44.6065 13.4964 26.5235
Au 38.0829 41.3652 37.5308
Pt 23.7303 16.0212 27.2609
Pt 15.551 22.0907 24.0248
Pt 17.5825 31.8255 16.9745
Au 2.74483 23.3811 26.1303
Pt 19.6566 34.2659 19.9616
Au 29.5879 39.5287 9.28715
Au 1.89883 21.8305 21.7066
Au 33.142 25.4497 13.2366
Pt 7.30366 18.1868 21.5499
Au 24.3187 29.6625 5.17389
Au 34.8581 27.5048 12.5033
Au 26.1361 24.7414 17.2547
Pt 18.5884 19.9948 20.8704
Pt 21.7689 24.391 32.6187
Pt 6.17674 27.8673 22.611
Au 21.9165 28.2055 5.31636
Au 47.1333 24.0307 35.2197
Pt 13.3572 36.048 26.5657
Au 40.7776 33.8693 12.6393
Au 30.5131 23.409 34.147
Au 27.4391 38.1523 13.1091
Au 30.3823 23.027 39.4782
Pt 17.5755 15.1634 15.6151
Au 26.8086 34.5444 17.8778
Au 17.1468 17.4669 45.8581
Au 37.4907 36.1674 42.563
Pt 18.6625 35.5531 26.5038
Au 21.2058 25.3009 19.7715
Au 33.9168 24.9813 4.25153
Pt 12.6576 41.576 26.0322
Pt 14.2954 33.3809 27.217
Au 41.9162 33.0594 37.609
Pt 15.1508 30.413 39.833
Au 38.256 28.1182 42.7435
Au 12.9509 8.68954 33.9775
Au 37.6491 31.6205 35.8491
Au 6.99065 33.3359 33.2232
Au 33.3591 36.1897 44.6069
Pt 12.8888 13.2766 39.2568
Pt 19.2844 11.9764 39.9745
Au 27.6262 35.4287 41.2348
Pt 33.7311 34.4112 40.3991
Pt 10.8743 30.6864 33.9293
Pt 6.52623 30.4514 22.4365
Pt 19.5248 20.2124 11.2286
Pt 35.3647 13.9305 23.6131
Au 12.3014 34.8137 12.7397
Pt 7.98881 26.8738 13.58
Au 2.69219 16.8835 21.1542
Au 15.0931 35.2276 5.57774
Pt 15.5111 25.153 13.2775
Pt 16.5929 36.2543 16.6378
Au 39.8433 6.62134 30.1888
Pt 21.134 36.8056 33.1225
Au 17.082 27.5748 5.42529
Pt 7.9836 20.8701 29.877
Pt 21.1783 34.8884 27.0413
Pt 6.47191 14.4354 22.5461
Pt 19.0482 44.6343 19.2204
Au 32.3033 25.0328 27.8112
Au 26.3304 21.0676 10.6148
Au 27.894 26.8506 14.7041
Au 28.9045 36.0294 43.6584
Au 20.5792 34.8464 5.03139
Au 33.5928 33.5447 44.9584
Pt 21.348 23.5176 29.9689
Pt 24.2525 40.1681 19.5708
Au 31.5375 39.2345 39.8334
Pt 40.6366 39.6876 28.5029
Au 34.7297 21.7633 10.2239
Au 21.3951 31.2878 11.9919
Au 29.3195 12.4344 41.901
Au 42.3881 10.5304 31.7615
Au 27.6809 23.2628 38.2284
Pt 12.698 27.0706 38.0016
Au 30.0558 29.6378 37.5447
Au 26.2885 23.8989 42.0523
Au 25.86 19.2826 45.6832
Pt 8.27837 23.9122 33.6137
Pt 17.6088 19.7682 35.7332
Au 38.7477 39.8652 10.6581
Pt 23.5204 23.434 28.1475
Au 33.556 15.9259 42.7153
Pt 18.4197 23.9033 43.5135
Pt 7.60419 21.6376 26.8241
Au 3.44313 24.8971 18.8113
Pt 8.53645 37.5828 18.0673
Au 5.6657 14.8079 15.5601
Pt 32.176 40.2974 19.2083
Au 5.32283 31.7098 34.579
Au 13.8288 41.2074 38.1897
Au 30.0195 7.21951 16.3227
Au 10.0434 21.1826 9.75966
Pt 7.90628 25.57 37.9061
Au 29.0487 20.8304 3.06553
Pt 11.8961 28.4636 19.1079
Au 10.8073 41.9211 23.705
Au 10.0737 8.1407 27.01
Pt 6.95052 36.7719 20.0872
Au 27.5946 27.7468 27.3223
Pt 5.20615 28.7461 20.1714
Pt 11.9888 25.2372 16.1079
Au 2.99462 30.5717 27.6396
Au 2.75171 29.9552 19.6999
Au 8.81218 9.83078 19.514
Pt 15.4964 43.1467 17.7441
Au 31.5487 8.67659 38.3953
Au 8.78524 39.9232 22.8974
Au 28.9351 24.617 16.5959
Au 36.4646 29.7398 12.4953
Au 24.4642 21.1271 34.9306
Pt 11.8947 18.8212 38.8695
Au 30.316 36.6457 41.0776
Pt 14.3377 41.1983 32.9978
Au 12.5622 7.605 19.4718
Au 5.84251 26.6708 42.2119
Au 30.9647 39.8667 36.9561
Pt 19.3274 21.9245 34.8767
Au 21.251 44.5606 37.9002
Pt 15.8128 37.6735 14.5197
Pt 25.2059 32.3064 34.4784
Pt 15.849 24.7065 43.55
Pt 15.0688 40.1244 24.8883
Pt 20.9482 12.0722 27.3749
Pt 15.9536 16.0015 31.1861
Au 25.8627 26.659 25.4585
Pt 34.2364 40.7803 35.2889
Au 28.5189 18.2313 3.92018
Au 21.4599 48.5481 22.174
Pt 17.1963 34.5715 21.5173
Au 3.552 25.8615 22.9805
Pt 26.264 36.0362 31.9617
Au 5.29753 26.9885 13.7925
Au 22.6135 48.8308 17.9226
Au 18.7 48.0407 34.5756
Pt 23.1928 47.5774 27.2642
Au 20.2096 48.0994 16.8688
Au 8.35705 40.8975 28.0177
Pt 11.1455 27.7092 16.6857
Au 19.3968 27.2542 7.36688
Au 19.2771 33.1378 12.2374
Au 22.8209 36.9029 12.4766
Au 36.6404 28.0419 14.6311
Pt 20.456 46.166 20.8016
Au 2.58159 33.0486 23.9538
Au 13.2512 39.6245 40.4699
Pt 9.86423 33.5445 22.9102
Pt 12.6379 29.7579 40.6236
Pt 18.8786 44.2821 24.5609
Au 10.4759 39.8969 25.4896
Pt 22.1595 25.9065 34.9817
Au 3.56194 22.3236 17.6575
Pt 16.9059 40.2905 26.735
Au 9.25743 35.5416 39.6054
Au 35.5214 14.3975 43.9229
Au 17.5658 40.5603 37.177
Pt 36.3502 42.4403 21.3494
Pt 6.94335 36.8566 27.8759
Pt 18.6754 16.636 41.423
Pt 22.9634 33.4049 36.6519
Pt 24.3751 16.6544 37.98
Pt 21.8075 35.9924 20.2777
Au 33.3074 43.5963 36.779
Pt 14.872 27.7801 12.5717
Au 15.7199 44.0857 28.7922
Pt 34.055 41.1149 24.8905
Pt 14.9262 33.1502 20.8598
Pt 22.7725 44.8157 22.1982
Pt 17.1712 28.882 20.0457
Pt 13.4435 29.4535 10.8691
Au 28.5907 25.4674 21.7381
Pt 8.18079 32.1989 21.2212
Au 2.06779 26.1179 25.2588
Pt 10.2402 32.9315 32.5514
Pt 8.57181 20.8301 14.9908
Pt 12.6336 33.6196 22.2448
Au 12.144 40.8984 30.8149
Pt 23.4844 32.3088 29.2006
Au 21.3793 42.5025 39.6135
Pt 8.97409 23.8289 36.1773
Au 10.8651 36.1882 35.3085
Au 3.27873 32.3996 32.0819
Au 19.2998 29.4463 5.57508
Au 27.4755 45.3794 33.3994
Au 25.0263 32.7955 44.7705
Pt 15.1254 27.5693 33.7525
Au 21.3756 34.4591 45.2301
Pt 13.6102 32.4377 39.3126
Pt 15.556 23.3766 10.7821
Au 9.92385 16.7242 39.3877
Au 22.5357 18.6042 36.9487
Au 4.65019 29.6643 38.7434
Au 28.3776 43.3054 38.3016
Pt 5.41764 23.5728 26.9389
Pt 14.633 40.0142 14.3107
Pt 21.366 39.4496 28.4899
Au 30.1183 30.5395 5.09534
Pt 21.7799 41.4467 26.0775
Pt 18.5448 43.8887 33.2696
Pt 13.3493 37.9761 28.7157
Pt 32.2072 36.7585 25.3631
Au 19.5317 36.4405 44.7707
Au 15.1263 3.81755 23.3609
Pt 23.3519 8.36459 32.7954
Pt 42.7183 21.0987 28.0446
Au 3.74778 14.7426 22.1899
Au 11.2959 9.60367 17.9843
Pt 6.44446 18.6216 18.9462
Au 4.33107 14.4928 24.9363
Au 25.5051 2.23063 30.2344
Pt 34.3764 7.1015 25.5668
Pt 11.1786 19.9465 36.3583
Pt 24.6833 8.944 21.0985
Pt 37.7342 18.0622 29.7425
Pt 13.0014 18.1934 25.5157
Pt 14.6614 16.5311 22.5
Pt 36.6258 18.7115 21.1612
Pt 26.0018 14.6948 26.5829
Au 14.6465 3.6358 28.7349
Au 4.17733 29.6766 36.0317
Pt 22.6715 15.197 43.6008
Pt 23.0768 7.99392 24.445
Pt 18.9907 14.6018 11.5249
Pt 23.6583 14.5555 12.7404
Pt 36.3669 16.1801 22.0569
Pt 13.5522 11.6097 21.6374
Pt 19.4834 10.9197 25.341
Pt 43.3439 13.96 28.7817
Pt 18.878 17.3589 20.1612
Pt 11.1283 16.4674 18.035
Pt 15.7578 23.6553 37.7455
Au 42.5095 11.7767 16.7025
Pt 34.3117 16.7147 32.0865
Pt 27.0896 13.7105 34.143
Pt 22.7859 5.18811 24.8602
Au 22.0969 4.7323 20.8899
Pt 30.4171 12.3752 16.9722
Au 14.0217 6.58345 23.3767
Pt 27.7215 11.5531 20.5335
Pt 21.5338 12.9955 38.5628
Pt 21.7328 22.1085 15.0013
Au 27.7865 2.81814 18.2782
Pt 13.4782 18.5765 28.1619
Au 46.9537 21.3602 22.0939
Pt 16.3172 17.3953 14.4613
Au 29.6512 12.9255 34.6142
Au 31.4986 32.8259 12.255
Pt 14.205 16.2791 13.4552
Pt 13.1765 21.2922 14.987
Pt 6.3862 27.5936 38.7177
Au 25.9387 29.6972 7.96691
Au 26.1392 28.3184 44.434
Au 37.6023 16.4662 10.8934
Au 40.6175 16.1812 35.8577
Au 4.76953 36.8251 26.2111
Au 2.90025 16.7875 23.9505
Au 27.2895 22.83 3.85303
Au 27.3142 32.7304 25.5534
Pt 19.0861 12.6881 29.6612
Pt 16.8748 21.474 39.8951
Au 20.7047 24.1725 46.6203
Pt 23.6367 14.0224 37.2173
Au 40.7506 28.5558 37.9645
Au 27.3762 4.20908 37.075
Au 27.8269 8.21212 42.4684
Au 20.39 4.36536 34.9644
Pt 16.1535 15.2056 36.7099
Pt 21.9985 18.4966 23.3704
Pt 20.0837 14.1878 42.4471
Pt 20.0106 16.71 27.2384
Au 27.6516 0.4534 25.3114
Pt 17.8867 14.3139 31.7159
Au 18.8934 22.2521 45.8555
Pt 19.8834 7.31154 30.413
Au 25.2612 2.07322 19.2079
Pt 14.8208 24.8339 16.3107
Pt 4.8167 18.4015 28.1084
Au 15.3135 5.44358 34.0536
Au 35.4106 2.77538 24.1306
Au 11.6297 7.35052 22.136
Pt 8.64499 21.2754 17.6532
Pt 19.0007 26.789 19.1204
Au 19.624 11.8581 7.09006
Pt 13.0517 21.3111 31.5347
Au 25.5257 24.8227 10.9403
Pt 23.7349 42.4635 21.1667
Pt 7.91111 14.1001 20.3042
Pt 30.0257 12.426 27.6694
Au 33.7748 28.4294 7.70459
Pt 15.5098 22.1578 15.9049
Au 19.1635 45.5451 16.3573
Au 29.1269 31.2546 12.5714
Au 31.2288 23.1499 36.7586
Au 20.9851 28.6158 16.6467
Au 30.1916 9.64189 42.5856
Au 30.4775 16.4336 4.60171
Au 23.9529 31.7564 12.5432
Pt 16.8307 4.85446 27.8889
Pt 31.1259 4.18755 22.8787
Pt 28.0667 6.86923 37.6717
Pt 25.0935 8.81049 15.7941
Pt 35.255 33.0242 28.067
Au 36.0094 15.3956 41.3391
Au 34.4633 29.3505 10.3073
Pt 21.6664 15.0594 23.4933
Pt 14.7806 13.3917 35.0724
Pt 15.3569 16.5437 28.5159
Au 46.8559 18.7009 33.0482
Au 36.2547 29.2789 20.0164
Au 34.2388 36.7299 10.7894
Au 30.1805 35.3169 33.8481
Pt 29.0371 7.83786 27.3425
Au 14.2071 10.5406 38.7765
Au 31.6686 20.7856 17.3196
Pt 37.2711 17.2549 26.5943
Au 23.6283 41.0595 40.175
Pt 10.2021 35.7794 19.1023
Pt 10.5262 23.7626 11.0761
Au 31.7791 12.6286 7.34419
Pt 25.5993 19.5446 30.4897
Au 33.2856 27.5111 4.9733
Au 30.7508 35.2472 3.53075
Pt 25.6393 13.1155 11.6915
Pt 20.498 30.347 23.1492
Pt 20.2811 23.5188 36.7748
Au 25.1628 14.7525 5.51111
Pt 12.9435 16.0742 15.9045
Pt 8.80206 31.1746 23.7469
Pt 11.1127 21.0414 16.8049
Au 34.8935 18.628 7.69579
Au 26.0229 18.5214 42.974
Au 35.193 8.60239 16.0941
Au 40.8282 29.7197 9.55358
Au 29.9426 28.9302 26.6221
Pt 10.6123 14.7499 20.0231
Au 31.5614 24.8102 15.4464
Au 22.9534 21.6377 19.6585
Au 29.5647 19.3908 19.0159
Au 30.0277 16.0729 7.3508
Au 35.0256 26.5456 29.6988
Pt 8.77748 11.0614 24.7122
Pt 23.5283 6.86203 19.9058
Pt 22.0848 9.00922 30.5487
Au 18.4003 41.4937 9.97924
Au 21.86 32.2359 43.5578
Au 39.8115 17.6645 42.9238
Au 24.6489 25.2721 33.7095
Au 25.8615 31.0132 29.8136
Pt 11.7416 17.1508 29.9819
Pt 19.5253 10.0577 34.6169
Pt 22.0296 17.1094 28.8929
Pt 8.86101 27.9834 37.5107
Pt 19.5712 13.3149 24.1035
Pt 21.8471 14.6201 33.7872
Pt 34.0415 14.0968 29.1543