3871
Atoms. Timestep: 20159
Au 5.83183 7.69816 23.4452
Pt 9.7066 5.73019 25.441
Pt 7.77782 7.70276 21.4926
Pt 7.90284 5.88489 27.3512
Pt 7.74904 7.61515 25.3938
Pt 9.71856 5.83288 29.3015
Au 7.78158 5.68905 23.4409
Pt 7.73034 7.6517 29.3092
Pt 5.90179 11.6021 19.5592
Pt 7.71137 9.62012 19.4976
Au 7.44229 11.348 17.3507
Pt 5.96063 9.64118 21.498
Au 5.49606 11.4526 23.4218
Pt 7.72233 9.63986 23.443
Pt 7.61431 11.6425 21.507
Pt 5.94904 9.55916 25.4104
Pt 7.68386 9.59275 27.4027
Au 5.83799 7.60564 27.3173
Pt 7.4836 11.6304 25.3919
Au 5.75411 9.62465 29.2812
Pt 6.03623 11.5449 31.3789
Au 7.499 9.33612 31.487
Pt 7.63136 11.5046 29.3873
Au 7.52062 11.3547 33.587
Pt 5.79442 15.5885 15.6511
Au 7.42849 13.4111 15.3874
Pt 7.5516 15.5841 13.5916
Pt 5.87796 13.5674 17.598
Pt 5.66765 15.4786 19.4764
Pt 7.60835 13.5438 19.5329
Pt 7.59737 15.5038 17.5341
Au 5.39946 13.5297 21.4334
Pt 5.61747 15.546 23.3933
Pt 7.41505 13.5397 23.406
Pt 7.47762 15.4712 21.4445
Au 5.40055 13.6018 25.3223
Pt 5.62637 15.5289 27.3758
Au 7.23844 13.4032 27.4364
Pt 7.40854 15.5019 25.4004
Au 5.49395 13.5013 29.5672
Pt 5.72571 15.421 31.5129
Pt 7.62003 13.5226 31.4493
Pt 7.37468 15.506 29.422
Au 5.64587 13.449 33.3694
Pt 7.66657 15.4714 37.3088
Pt 7.64568 13.5394 35.3627
Pt 7.60139 15.4182 33.4558
Au 5.64079 17.3855 37.3549
Pt 5.85685 19.5642 11.598
Au 7.41903 17.3518 11.3901
Pt 7.63543 19.5188 9.61129
Pt 5.82204 17.5854 13.5815
Pt 5.63118 19.4221 15.5218
Au 7.5544 17.51 15.5678
Pt 7.55516 19.5095 13.5428
Pt 5.63991 17.4671 17.5408
Pt 5.55508 19.4647 19.5345
Au 7.45868 17.4965 19.5087
Au 7.42003 19.5153 17.5505
Pt 5.59526 17.4525 21.4625
Au 5.20307 19.4414 23.4325
Pt 7.38867 17.5368 23.4471
Pt 7.33218 19.5078 21.5162
Pt 5.56077 17.4381 25.3934
Pt 5.50257 19.4244 27.3541
Pt 7.35188 17.4994 27.4215
Pt 7.3194 19.4621 25.3746
Au 5.27465 17.3644 29.3992
Au 5.25649 19.4028 31.494
Pt 7.37009 17.4729 31.3559
Au 7.22433 19.4139 29.4484
Pt 5.74178 17.3571 33.4742
Pt 5.74648 19.3233 35.4287
Pt 7.60341 17.3662 35.4251
Au 7.44205 19.3958 33.3594
Au 5.62808 15.4132 35.3854
Au 5.71413 19.3339 39.3626
Pt 9.53792 17.3924 37.4347
Pt 7.60177 19.3212 37.4263
Au 7.49428 22.7978 41.5637
Au 5.71519 23.4321 7.70444
Pt 7.71729 21.515 7.7262
Au 7.74792 23.4263 5.69461
Pt 5.88801 21.5119 9.69998
Pt 5.69668 23.4009 11.5332
Pt 7.62522 21.4926 11.6559
Pt 7.68018 23.4411 9.64071
Au 5.36363 21.4403 13.5065
Pt 5.53814 23.4627 15.5737
Au 7.37371 21.4697 15.4919
Pt 7.3717 23.462 13.6045
Pt 5.55207 21.4865 17.5598
Pt 5.4636 23.4536 19.5393
Pt 7.35207 21.4872 19.5352
Au 7.36191 23.4566 17.5539
Pt 5.47497 21.4751 21.4679
Pt 5.43713 23.4037 23.415
Pt 7.28003 21.4211 23.4468
Pt 7.31547 23.4398 21.4848
Pt 5.45974 21.4354 25.41
Pt 5.43161 23.3858 27.4191
Au 7.27825 21.4326 27.4024
Pt 7.24598 23.4526 25.4292
Pt 5.47159 21.4394 29.3952
Pt 5.43632 23.3745 31.3813
Pt 7.27515 21.3941 31.4035
Pt 7.25788 23.4204 29.4063
Pt 5.57845 21.3156 33.5171
Au 3.85848 23.3206 33.54
Pt 7.51788 21.3165 35.509
Au 7.29895 23.3892 33.4006
Pt 5.63936 23.2449 35.5276
Au 3.85255 23.4564 37.5891
Au 5.4237 21.2302 37.4192
Pt 7.55894 23.2308 37.4331
Pt 5.82325 23.3379 39.432
Pt 7.43701 26.6539 43.5323
Pt 9.64624 21.2502 41.3293
Pt 7.68329 25.1822 39.4756
Au 9.4819 25.5711 44.9861
Au 5.94014 25.4862 5.85045
Pt 5.92051 27.3316 7.75949
Pt 7.75764 25.3694 7.74459
Pt 7.82262 27.381 5.92068
Pt 5.79744 25.3823 9.61211
Pt 5.6807 27.3641 11.5736
Au 7.48829 25.3965 11.6901
Au 7.60337 27.4067 9.70699
Au 5.29671 25.4153 13.5806
Pt 5.5086 27.3893 15.5928
Pt 7.35157 25.4455 15.5431
Pt 7.37217 27.3729 13.6354
Pt 5.51088 25.4304 17.5274
Pt 5.42941 27.3655 19.4505
Pt 7.32317 25.4241 19.5156
Pt 7.36289 27.3843 17.5373
Pt 5.44629 25.4019 21.4572
Pt 5.42564 27.341 23.3997
Pt 7.21386 25.3827 23.4735
Pt 7.22909 27.4229 21.4417
Au 5.14088 25.3802 25.4304
Pt 5.42326 27.3826 27.4888
Pt 7.17157 25.3887 27.4368
Pt 7.13782 27.3655 25.4465
Au 5.1356 25.3556 29.4117
Au 5.17019 27.4755 31.4764
Pt 7.16305 25.4278 31.341
Pt 7.15875 27.3801 29.5015
Pt 5.48001 25.4311 33.3898
Au 3.80239 25.2782 35.5422
Au 7.32732 25.4732 35.3949
Pt 7.27486 27.4659 33.367
Au 4.06453 27.3296 37.7332
Pt 5.29306 28.7297 39.736
Pt 5.76088 25.2455 37.4397
Pt 7.1364 27.4477 37.726
Pt 5.28711 26.1721 39.8239
Pt 7.72166 31.483 41.267
Pt 9.71509 27.4742 43.0478
Pt 7.6039 27.4075 40.952
Pt 5.45961 27.7432 42.1407
Pt 11.5479 27.3947 45.0621
Pt 7.68371 29.3432 7.77591
Au 5.61681 29.3635 9.64296
Au 5.59989 31.439 11.6038
Pt 7.4967 29.3855 11.6515
Pt 7.62016 31.3201 9.72051
Au 5.37463 29.3525 13.5802
Pt 5.65068 31.4266 15.5299
Pt 7.39713 29.346 15.5364
Au 7.49588 31.327 13.5552
Pt 5.52991 29.3496 17.4918
Pt 5.50655 31.3702 19.3821
Pt 7.30054 29.35 19.5026
Au 7.42156 31.3277 17.513
Au 5.15165 29.3484 21.3804
Au 5.15126 31.3995 23.4181
Pt 7.09442 29.4067 23.4432
Pt 7.21868 31.2733 21.4461
Au 5.13116 29.3293 25.466
Pt 5.42958 31.3668 27.5524
Au 7.19222 29.3711 27.4466
Pt 7.15682 31.2801 25.464
Pt 5.45493 29.446 29.5014
Pt 5.52155 31.4216 31.4787
Pt 7.31187 29.3998 31.4103
Pt 7.33858 31.3751 29.4734
Pt 5.54065 29.5213 33.4139
Au 5.29376 27.578 35.3215
Pt 7.42014 29.3668 35.4436
Au 7.46502 31.3546 33.4196
Pt 5.5706 29.6365 37.3039
Pt 5.81244 31.4306 39.3017
Pt 7.66009 29.5562 39.3564
Pt 7.63333 31.4105 37.3224
Au 5.39942 30.3776 41.8047
Pt 7.61146 29.2942 42.9317
Pt 7.64073 33.3969 39.2804
Pt 7.61837 33.3517 11.6088
Pt 5.86615 33.3767 13.6321
Pt 5.86218 35.2764 15.5674
Pt 7.61504 33.3361 15.575
Pt 7.64887 35.342 13.5757
Pt 5.62965 33.3729 17.4665
Pt 5.66267 35.3161 19.3622
Pt 7.43505 33.295 19.4557
Pt 7.58753 35.3082 17.5188
Pt 5.53059 33.3205 21.3161
Au 5.24821 35.3373 23.5076
Au 7.18983 33.2904 23.4702
Au 7.29574 35.3448 21.4907
Pt 5.45996 33.3287 25.5425
Pt 5.53078 35.2987 27.4679
Au 7.31029 33.2942 27.4666
Au 7.30973 35.3223 25.4462
Pt 5.50996 33.3441 29.5239
Pt 5.64265 35.3332 31.5698
Pt 7.44894 33.3166 31.4408
Au 7.34892 35.3284 29.4678
Pt 5.64249 33.3774 33.4516
Pt 5.81428 35.2981 35.3322
Pt 7.60355 33.3489 35.3482
Pt 7.61038 35.2975 33.4205
Pt 5.64287 31.4747 35.4002
Pt 5.81839 33.3388 37.314
Pt 7.62749 35.3038 37.2974
Pt 7.64688 37.2934 15.5744
Au 5.63186 37.295 17.4386
Au 5.63853 39.3357 19.4173
Pt 7.49724 37.3133 19.4689
Pt 7.64307 39.2822 17.5572
Au 5.37088 37.3511 21.4237
Pt 5.71694 39.3361 23.5221
Pt 7.38497 37.244 23.4595
Au 7.4574 39.2231 21.4732
Pt 5.57531 37.361 25.4683
Au 5.39536 39.3151 27.4322
Pt 7.36103 37.2836 27.4843
Au 7.50021 39.2054 25.5224
Au 5.35711 37.2872 29.5618
Pt 5.88367 39.194 31.5141
Pt 7.59756 37.2589 31.465
Au 7.46511 39.2171 29.4296
Pt 5.83437 37.2555 33.4234
Pt 7.61722 37.3065 35.3903
Pt 7.63407 39.2685 33.4774
Pt 7.66874 41.2092 19.6017
Au 5.65294 41.3057 21.5723
Pt 5.94465 43.1249 23.6043
Pt 7.6869 41.1741 23.4999
Pt 7.71941 43.1384 21.5872
Pt 5.79328 41.2593 25.464
Au 5.9252 45.0153 25.4952
Pt 7.62219 41.1713 27.5191
Pt 7.79504 43.0868 25.5037
Au 5.65689 41.2512 29.4911
Pt 7.67896 41.1803 31.4338
Au 7.50869 43.3133 29.5904
Pt 7.81645 44.9836 23.5875
Pt 7.81926 44.9698 27.4059
Pt 5.94868 43.1108 27.3783
Pt 9.65834 7.68341 19.5046
Pt 11.6337 5.84945 19.491
Pt 11.566 7.69172 17.5525
Pt 9.72328 5.86277 21.4798
Au 9.66685 7.63147 23.4797
Pt 11.5739 5.67997 23.4364
Au 11.6243 7.6396 21.4567
Pt 11.5038 5.64782 27.4125
Pt 9.67671 7.71739 27.3765
Au 13.4781 3.85383 27.4197
Pt 11.6166 7.58677 25.4708
Pt 13.5133 5.60233 29.4434
Au 9.47022 7.36807 31.5211
Pt 11.6362 5.80875 31.2805
Pt 11.6037 7.61205 29.3576
Pt 11.5861 7.56669 33.3178
Pt 9.59483 11.5432 15.6313
Au 11.3921 9.40847 15.4142
Au 11.4341 11.3605 13.398
Pt 9.6206 9.60802 17.5776
Pt 9.48412 11.5838 19.4298
Pt 11.5656 9.62227 19.4523
Pt 11.5342 11.4777 17.454
Au 9.60868 9.65878 21.4352
Pt 9.49666 11.6241 23.4451
Au 11.6019 9.64188 23.4763
Pt 11.4978 11.62 21.3948
Pt 9.56005 9.6198 25.4301
Au 9.49379 11.568 27.4156
Au 11.5926 9.58449 27.4167
Au 11.5656 11.5755 25.4378
Pt 9.54849 9.47625 29.504
Pt 9.35417 11.4254 31.4645
Pt 11.4623 9.41359 31.3841
Au 11.4136 11.5066 29.4619
Pt 9.62551 9.48916 33.3126
Au 9.46703 11.324 35.5428
Pt 11.6325 9.48246 35.3209
Au 11.4048 11.4449 33.4309
Au 11.4569 11.2653 37.5068
Pt 9.55885 15.596 11.5589
Au 11.4412 13.3773 11.3694
Au 11.371 15.3599 9.40026
Au 9.42834 13.4443 13.3768
Au 9.45466 15.387 15.4546
Au 11.4538 13.4133 15.4104
Pt 11.4928 15.4009 13.4329
Pt 9.38984 13.4255 17.4797
Au 9.53241 15.4675 19.4823
Pt 11.4714 13.447 19.4028
Au 11.463 15.404 17.4219
Pt 9.49363 13.543 21.491
Pt 9.35364 15.5043 23.443
Au 11.4894 13.5391 23.4415
Pt 11.4807 15.4076 21.4604
Au 9.39353 13.5677 25.4351
Pt 9.24548 15.4805 27.4176
Au 11.4732 13.5459 27.4514
Au 11.4487 15.5052 25.455
Pt 9.33882 13.5671 29.3798
Au 9.41031 15.5049 31.4113
Au 11.3634 13.4667 31.4028
Au 11.4394 15.4958 29.4043
Pt 9.45489 13.3777 33.4717
Pt 9.56181 15.4337 35.4215
Pt 11.4127 13.339 35.5055
Au 11.4478 15.4117 33.4307
Pt 9.53444 13.4975 37.3435
Pt 9.58721 15.4647 39.2917
Au 11.3891 13.2621 39.4519
Au 11.5121 15.3396 37.4577
Pt 11.5202 17.353 39.4082
Pt 9.58867 19.5248 7.67419
Au 11.3554 17.346 7.45453
Pt 11.5916 19.5082 5.88195
Pt 9.55303 17.5797 9.60989
Pt 9.46983 19.4105 11.5504
Au 11.4943 17.4198 11.4665
Pt 11.5407 19.3865 9.49292
Au 9.45355 17.4625 13.4552
Au 9.51371 19.4678 15.5241
Au 11.4769 17.4116 15.4356
Pt 11.5444 19.3421 13.4621
Pt 9.43791 17.5024 17.5488
Pt 9.3166 19.5464 19.5836
Au 11.4452 17.4802 19.484
Au 11.4479 19.4752 17.5402
Au 9.41215 17.4746 21.4891
Au 9.37028 19.4927 23.4542
Au 11.4242 17.4363 23.4471
Au 11.3846 19.534 21.4405
Au 9.34191 17.4774 25.4573
Pt 9.24491 19.4713 27.4271
Au 11.3882 17.4722 27.4279
Pt 11.3381 19.419 25.4867
Au 9.33845 17.4735 29.3786
Pt 9.29836 19.4575 31.3522
Au 11.4192 17.4486 31.4213
Au 11.3161 19.4727 29.4171
Pt 9.39467 17.4302 33.3956
Au 9.47301 19.3762 35.4189
Au 11.4973 17.4112 35.4373
Au 11.4064 19.4109 33.3903
Pt 9.52296 19.3198 39.3655
Pt 7.58798 21.2827 39.3037
Au 7.61935 19.4139 41.3648
Pt 11.4789 19.349 37.4632
Au 7.53011 17.255 39.4644
Pt 11.5623 19.3643 41.3281
Pt 9.64416 17.4755 41.2598
Au 9.59686 19.3529 43.3189
Au 11.6219 19.3086 45.1498
Pt 9.69457 21.4821 5.89086
Pt 9.62655 23.4313 7.6886
Pt 11.5802 21.4387 7.68965
Pt 11.5037 23.4002 5.75268
Au 9.58792 21.4156 9.64287
Au 9.57006 23.4701 11.6197
Au 11.5587 21.3842 11.5535
Pt 11.5583 23.4455 9.52444
Au 9.524 21.4732 13.5856
Pt 9.33184 23.4902 15.5783
Au 11.5381 21.4072 15.4917
Au 11.5287 23.4768 13.5923
Au 9.40352 21.4919 17.547
Pt 9.29437 23.4529 19.5726
Pt 11.3548 21.4869 19.5201
Au 11.4205 23.4302 17.5038
Pt 9.26703 21.4883 21.5074
Au 9.27407 23.4282 23.4712
Pt 11.3223 21.4305 23.4547
Au 11.3376 23.4148 21.4709
Au 9.31914 21.4338 25.4528
Au 9.26328 23.4398 27.4422
Pt 11.2779 21.3796 27.4622
Au 11.3055 23.4531 25.4721
Pt 9.20861 21.4173 29.3875
Au 9.25223 23.39 31.378
Pt 11.324 21.3993 31.3869
Au 11.2973 23.3709 29.4478
Au 9.36145 21.4209 33.3856
Pt 9.36657 23.3729 35.4406
Au 11.428 21.3956 35.4465
Au 11.3743 23.4022 33.421
Pt 9.52707 21.3419 37.4456
Pt 9.45274 23.2444 39.4673
Pt 11.4563 21.3204 39.3814
Pt 11.3522 23.3464 37.4331
Au 9.45611 23.1926 43.5229
Au 6.13187 25.0249 41.9869
Pt 11.5347 25.3848 43.2748
Au 11.3749 23.368 41.4508
Pt 11.5583 21.3501 43.3414
Pt 13.4466 23.3766 43.3779
Pt 9.62279 25.4344 5.80863
Pt 9.63241 27.4057 7.76188
Au 11.557 25.4394 7.62271
Pt 11.4791 27.4764 5.75006
Pt 9.57431 25.4461 9.66266
Pt 9.48514 27.3942 11.6438
Au 11.559 25.4911 11.5547
Pt 11.58 27.4526 9.57831
Au 9.44486 25.4569 13.6451
Pt 9.35926 27.3947 15.5957
Au 11.4639 25.4806 15.5709
Pt 11.4835 27.416 13.5829
Au 9.36739 25.4313 17.5237
Au 9.34448 27.4207 19.5077
Au 11.3937 25.4406 19.4812
Pt 11.4388 27.4498 17.5341
Au 9.26904 25.4714 21.5094
Pt 9.0748 27.4152 23.4507
Au 11.2961 25.5041 23.4252
Pt 11.3592 27.4433 21.3911
Au 9.2061 25.4573 25.4497
Au 9.16569 27.3719 27.4822
Pt 11.2575 25.4261 27.5042
Au 11.2673 27.3891 25.5144
Au 9.21224 25.4051 29.4352
Au 9.24263 27.3842 31.4122
Au 11.3726 25.3979 31.4529
Au 11.3082 27.3973 29.4361
Au 9.28987 25.3915 33.4124
Au 9.32498 27.3397 35.5026
Pt 11.3982 25.2971 35.446
Au 11.3999 27.317 33.5014
Pt 9.35966 25.272 37.3848
Au 9.55008 27.3119 39.2551
Pt 11.2958 25.2294 39.4179
Au 11.4794 27.3078 37.3407
Au 11.5531 27.31 41.24
Au 9.43488 29.2066 45.0398
Au 11.559 23.5092 45.3023
Pt 11.5806 29.3535 43.2437
Pt 9.19401 25.1963 41.6629
Pt 13.4909 25.4487 45.2131
Pt 9.62639 29.3668 5.92646
Pt 9.53023 31.3284 7.7472
Pt 11.5379 29.3946 7.72596
Pt 11.4906 31.3235 5.92551
Au 9.54559 29.413 9.70717
Pt 9.51713 31.4 11.6124
Au 11.5527 29.3697 11.5944
Pt 11.5104 31.3618 9.58781
Au 9.45142 29.3131 13.5794
Au 9.49888 31.3613 15.5481
Au 11.4797 29.3578 15.5302
Au 11.4998 31.4175 13.5257
Au 9.40338 29.3622 17.5279
Pt 9.35447 31.3054 19.489
Pt 11.4123 29.4023 19.4609
Pt 11.4604 31.3742 17.5332
Au 9.26111 29.364 21.4992
Au 9.19565 31.332 23.4978
Au 11.2665 29.3222 23.4722
Au 11.3599 31.3489 21.4525
Au 9.16107 29.3318 25.435
Pt 9.20798 31.3182 27.4656
Au 11.2497 29.3947 27.4902
Au 11.2642 31.3686 25.5001
Pt 9.18091 29.3591 29.4218
Pt 9.33154 31.3104 31.4154
Au 11.343 29.3661 31.4186
Pt 11.3024 31.3257 29.4454
Au 9.37864 29.3241 33.453
Pt 9.47668 31.3664 35.3758
Pt 11.4847 29.3899 35.3837
Au 11.4311 31.3509 33.4231
Au 9.51116 29.3767 37.3424
Au 9.62613 31.4528 39.3406
Pt 11.5502 29.4455 39.3484
Pt 11.5117 31.4133 37.353
Pt 9.60653 29.3918 41.2074
Pt 9.66762 33.3347 41.3215
Au 11.4688 31.2009 45.2267
Au 11.6003 31.4156 41.3839
Au 7.82066 35.2006 41.1934
Pt 9.62598 31.2422 43.1624
Pt 11.4392 33.2756 7.74702
Pt 9.50444 33.2938 9.64729
Pt 9.52681 35.3116 11.6499
Au 11.47 33.4181 11.4864
Au 11.2775 35.4994 9.49522
Pt 9.46911 33.3684 13.5439
Au 9.52063 35.331 15.5241
Pt 11.4733 33.3517 15.5512
Au 11.4841 35.3633 13.52
Pt 9.44959 33.293 17.5808
Au 9.42347 35.2913 19.5508
Pt 11.4237 33.3081 19.5073
Au 11.4617 35.3052 17.5544
Au 9.29891 33.268 21.47
Au 9.35427 35.2854 23.4616
Au 11.3547 33.3177 23.4774
Pt 11.3923 35.2776 21.4798
Pt 9.23035 33.2842 25.5002
Au 9.37568 35.2836 27.4356
Pt 11.3244 33.277 27.4746
Au 11.3781 35.2716 25.4712
Au 9.39008 33.2923 29.4349
Au 9.50258 35.2834 31.4415
Au 11.4482 33.2941 31.4425
Pt 11.464 35.2902 29.4638
Pt 9.47199 33.3042 33.3976
Au 9.559 35.3693 35.3711
Pt 11.5091 33.3864 35.3721
Pt 11.4848 35.3651 33.4325
Au 9.5819 33.3777 37.344
Pt 9.68727 35.2824 39.3148
Pt 11.6053 33.3951 39.3974
Au 11.5631 35.389 37.3878
Au 7.73233 37.056 39.256
Au 11.4627 33.4745 43.4437
Pt 11.5682 35.3489 41.3273
Pt 11.4766 37.3771 11.6749
Pt 9.55075 37.3404 13.6267
Pt 9.53852 39.3348 15.6099
Au 11.4847 37.4183 15.5265
Pt 11.4876 39.3757 13.6239
Au 9.49956 37.3592 17.5345
Pt 9.5157 39.2915 19.5235
Au 11.4712 37.3088 19.5565
Pt 11.4561 39.3735 17.5558
Pt 9.40879 37.2853 21.4602
Pt 9.4248 39.1228 23.4528
Pt 11.3976 37.2088 23.4065
Pt 11.4649 39.249 21.4935
Pt 9.36903 37.234 25.45
Pt 9.46339 39.1853 27.4818
Au 11.466 37.2655 27.4906
Au 11.4672 39.1169 25.4297
Au 9.46485 37.2651 29.4369
Pt 9.48103 39.2413 31.4755
Au 11.4841 37.3335 31.4528
Pt 11.4199 39.2621 29.4788
Pt 9.5 37.3209 33.4399
Pt 9.55905 39.2347 35.3844
Pt 11.487 37.3889 35.4513
Pt 11.432 39.3287 33.4766
Pt 9.56959 37.2874 37.3492
Pt 11.5316 37.2873 39.4002
Au 11.354 39.4069 37.5867
Pt 11.487 41.2874 15.6337
Pt 9.5551 41.2511 17.6089
Pt 9.59279 43.1593 19.6014
Pt 11.4963 41.3261 19.4915
Au 11.3436 43.3755 17.4434
Au 9.58061 41.1872 21.5117
Au 9.689 43.1702 23.5481
Au 11.5892 41.1976 23.5348
Pt 11.5896 43.1644 21.5573
Au 9.60338 41.1233 25.5026
Pt 9.61011 43.1098 27.4866
Au 11.5533 41.1894 27.4571
Pt 11.6347 43.3321 25.5328
Pt 9.47424 41.2447 29.4805
Pt 9.59922 43.1581 31.3849
Au 11.4639 41.2267 31.4386
Au 11.5788 43.1992 29.397
Pt 9.53642 41.2083 33.3937
Au 11.3526 41.4186 35.5115
Pt 11.4987 43.1914 33.3399
Pt 11.5741 44.9786 19.6597
Pt 9.68038 44.9704 21.6055
Pt 11.5595 45.1554 23.4997
Pt 9.64492 45.0959 25.501
Pt 11.513 45.1543 27.4879
Pt 9.64792 44.9628 29.3702
Pt 11.5777 44.9898 31.3536
Pt 13.5217 7.6846 15.6417
Pt 15.4219 5.64672 19.4843
Au 15.3221 7.57387 13.4653
Pt 15.494 7.52085 17.4736
Pt 13.5662 7.68052 19.493
Pt 13.5152 5.88481 17.6289
Au 17.341 7.18645 15.3592
Pt 13.5213 5.66185 21.3883
Au 13.5931 7.46781 23.4458
Pt 15.5052 5.49075 23.3117
Pt 15.5296 7.47923 21.4168
Pt 13.4369 5.56006 25.3778
Pt 13.5714 7.36562 27.4083
Au 15.4098 3.81162 25.3949
Pt 15.5414 7.23553 25.4132
Pt 15.5697 5.4813 27.4885
Pt 13.5605 7.5937 31.3434
Pt 15.4984 5.58756 31.4189
Au 15.5503 7.39916 29.4232
Pt 13.5606 5.79696 33.257
Pt 13.6085 7.57023 35.2764
Au 15.5478 5.54228 35.334
Au 15.5646 7.48373 33.3513
Pt 15.5686 7.56359 37.257
Pt 13.5997 11.4803 11.4596
Pt 15.5338 9.62186 11.6026
Pt 15.5366 11.6139 9.52602
Pt 13.5473 9.59981 13.5976
Pt 13.4348 11.4204 15.509
Pt 15.4874 9.47431 15.5059
Au 15.4712 11.469 13.5242
Pt 13.5036 9.55345 17.482
Au 13.5428 11.5342 19.424
Pt 15.5473 9.46344 19.3985
Pt 15.4868 11.4481 17.4205
Au 13.5912 9.60343 21.4563
Pt 13.5682 11.576 23.3861
Au 15.57 9.42959 23.4255
Pt 15.5421 11.4824 21.3673
Au 13.6377 9.45805 25.4749
Pt 13.5793 11.472 27.4238
Pt 15.5866 9.23851 27.3979
Au 15.5234 11.4564 25.4442
Au 13.5876 9.49467 29.3465
Au 13.4635 11.4436 31.4002
Au 15.6016 9.4889 31.4025
Au 15.588 11.4427 29.3924
Au 13.4965 9.4913 33.3676
Au 13.4426 11.4527 35.4666
Au 15.5186 9.49667 35.3392
Pt 15.5487 11.4313 33.3909
Pt 13.625 9.48052 37.3251
Pt 13.6219 11.3843 39.3035
Pt 15.5765 9.46105 39.2619
Pt 15.5032 11.4216 37.3977
Au 13.447 13.2111 41.4182
Pt 13.5515 15.5334 7.61441
Pt 15.5258 13.5531 7.5922
Pt 15.5022 15.581 5.83238
Pt 13.596 13.5201 9.48498
Au 13.4069 15.4148 11.3964
Au 15.4615 13.4664 11.4667
Pt 15.5052 15.4979 9.46797
Au 13.3949 13.3731 13.433
Pt 13.4883 15.409 15.4326
Pt 15.4594 13.411 15.4573
Au 15.4322 15.4252 13.465
Pt 13.4968 13.4142 17.4065
Au 13.4682 15.4085 19.4284
Pt 15.499 13.4433 19.3593
Au 15.4642 15.4065 17.385
Au 13.5336 13.4909 21.4338
Pt 13.4827 15.4718 23.4111
Pt 15.4676 13.5092 23.4092
Pt 15.4671 15.436 21.4239
Au 13.5354 13.5133 25.4384
Pt 13.4621 15.5461 27.439
Au 15.5069 13.4847 27.4665
Au 15.4274 15.5061 25.4245
Au 13.4726 13.4795 29.419
Pt 13.452 15.4851 31.4184
Au 15.4881 13.4331 31.4133
Au 15.4332 15.4843 29.4692
Au 13.4432 13.4172 33.408
Au 13.443 15.3867 35.457
Au 15.4498 13.4053 35.4521
Au 15.4088 15.4675 33.4188
Pt 13.4239 13.336 37.5153
Au 11.3842 15.2811 41.4322
Pt 15.4431 13.3788 39.4016
Au 15.4017 15.4018 37.4891
Pt 13.4101 15.2878 39.4957
Pt 13.6144 15.3886 43.1405
Pt 15.5714 13.4042 43.1466
Pt 15.5042 17.3505 43.3495
Pt 15.4885 15.3942 41.2901
Pt 13.5755 17.551 5.85654
Pt 13.5295 19.4403 7.64097
Pt 15.5004 17.5075 7.62089
Pt 15.4379 19.4068 5.65528
Pt 13.4186 17.4124 9.447
Au 13.5491 19.3758 11.4853
Pt 15.4488 17.409 11.4479
Pt 15.519 19.418 9.45929
Pt 13.4856 17.376 13.4432
Pt 13.5273 19.3403 15.3936
Pt 15.4832 17.3657 15.4045
Pt 15.5003 19.3076 13.4776
Au 13.4655 17.4396 17.4075
Au 13.4785 19.5014 19.5043
Au 15.4731 17.4175 19.4286
Au 15.4693 19.4081 17.4042
Au 13.4688 17.4305 21.4627
Au 13.3701 19.4628 23.4383
Pt 15.395 17.4331 23.4363
Pt 15.4076 19.4415 21.4862
Pt 13.3914 17.4833 25.4129
Pt 13.3263 19.4345 27.4452
Au 15.3935 17.4675 27.462
Au 15.3614 19.4146 25.442
Pt 13.4164 17.5003 29.4353
Au 13.4082 19.4112 31.4344
Pt 15.4256 17.4035 31.4277
Au 15.4141 19.4025 29.4823
Pt 13.4479 17.4344 33.4356
Pt 13.4407 19.3631 35.5106
Pt 15.4029 17.4118 35.5045
Au 15.3928 19.3615 33.4587
Pt 13.4513 17.3683 37.5141
Pt 13.4755 19.3613 39.4287
Pt 15.4678 17.41 39.4293
Au 15.4479 19.3729 37.4837
Au 13.5024 17.341 41.3385
Pt 13.5332 19.3425 43.2981
Au 13.4502 17.2253 45.1397
Pt 15.4625 19.3412 41.4235
Pt 11.5837 17.4131 43.1552
Au 15.3492 19.2394 45.4419
Pt 13.4494 21.3485 5.72047
Au 13.566 23.4084 7.45474
Pt 15.5497 21.4154 7.38588
Au 15.4157 23.3536 5.32039
Au 13.593 21.4459 9.51598
Au 13.574 23.4721 11.5148
Au 15.5426 21.4284 11.5109
Au 15.6111 23.4492 9.38533
Au 13.5525 21.4016 13.5016
Au 13.5497 23.4898 15.5151
Au 15.4897 21.4462 15.4192
Pt 15.5903 23.5329 13.4376
Au 13.496 21.4239 17.468
Au 13.4081 23.4169 19.4675
Pt 15.4092 21.4705 19.4805
Pt 15.4214 23.4669 17.5108
Pt 13.3773 21.4587 21.4499
Au 13.3146 23.4474 23.4388
Au 15.3619 21.4364 23.439
Au 15.3721 23.4407 21.456
Au 13.281 21.4046 25.4711
Au 13.2915 23.4108 27.4681
Au 15.355 21.3971 27.4633
Au 15.3447 23.4292 25.4599
Au 13.3471 21.414 29.4639
Pt 13.3558 23.4112 31.4658
Pt 15.3685 21.3843 31.4864
Au 15.3502 23.3938 29.5201
Au 13.3888 21.4085 33.4324
Pt 13.3578 23.3894 35.4615
Au 15.4173 21.3906 35.4693
Au 15.3684 23.3891 33.4517
Au 13.4201 21.3893 37.4588
Pt 13.336 23.3128 39.4448
Au 15.492 21.3737 39.4923
Au 15.4582 23.3495 37.4631
Au 13.4651 21.3874 41.4081
Pt 15.4004 21.3282 43.4422
Pt 17.2328 21.1739 45.3097
Au 15.5308 23.3716 41.5728
Au 13.4732 21.3772 45.4003
Pt 17.4685 23.3491 46.6057
Pt 13.3844 25.4922 5.6929
Pt 13.5094 27.4759 7.53484
Au 15.5621 25.3756 7.31262
Pt 15.3839 27.3957 5.60131
Au 13.6023 25.466 9.47061
Au 13.5925 27.4807 11.4929
Au 15.6107 25.5234 11.4026
Pt 15.5856 27.4765 9.30311
Au 13.5791 25.4936 13.4892
Au 13.5157 27.448 15.4919
Au 15.5235 25.4671 15.4547
Pt 15.5835 27.4926 13.4094
Pt 13.425 25.4941 17.5219
Pt 13.3922 27.4634 19.4431
Au 15.388 25.446 19.4599
Au 15.4312 27.466 17.4943
Pt 13.342 25.4466 21.3841
Au 13.3415 27.4031 23.444
Au 15.3489 25.4368 23.4534
Au 15.3665 27.4356 21.4371
Au 13.3088 25.463 25.5235
Pt 13.3371 27.4494 27.5019
Au 15.3559 25.4305 27.4914
Au 15.3729 27.438 25.5322
Au 13.3281 25.4215 29.4503
Pt 13.3687 27.3847 31.4842
Au 15.335 25.4167 31.493
Au 15.3627 27.4406 29.4616
Pt 13.3925 25.3514 33.4849
Pt 13.419 27.3093 35.4241
Au 15.4088 25.3553 35.4488
Pt 15.3595 27.337 33.4829
Au 13.3833 25.2821 37.4604
Au 13.4859 27.3628 39.3646
Au 15.507 25.339 39.4408
Au 15.4812 27.3508 37.3975
Au 13.5057 25.3047 41.3782
Pt 13.5334 27.3562 43.3139
Pt 15.5043 25.4017 43.4869
Au 15.515 27.3636 41.4252
Pt 15.3025 23.4154 45.2686
Pt 15.3853 27.3877 45.3206
Pt 13.3607 29.4454 5.70287
Pt 13.5247 31.3785 7.55493
Pt 15.476 29.4662 7.34765
Au 15.3332 29.3382 3.93965
Pt 13.587 29.4371 9.44823
Au 13.534 31.38 11.4963
Au 15.5625 29.4311 11.386
Pt 15.5143 31.4301 9.32451
Pt 13.5367 29.4227 13.53
Au 13.4669 31.3966 15.5105
Pt 15.4346 29.4456 15.4999
Au 15.5068 31.4233 13.5083
Pt 13.4138 29.4254 17.4996
Pt 13.3826 31.3745 19.4492
Pt 15.3296 29.4223 19.4491
Pt 15.3718 31.388 17.486
Au 13.3606 29.3998 21.4452
Au 13.3739 31.3859 23.5213
Au 15.4037 29.4331 23.5098
Au 15.3916 31.3799 21.4788
Au 13.3555 29.3816 25.5168
Au 13.353 31.372 27.4558
Pt 15.3873 29.4317 27.4969
Pt 15.417 31.3619 25.5215
Au 13.3537 29.401 29.4682
Pt 13.4232 31.3806 31.4808
Au 15.3829 29.375 31.4957
Au 15.4092 31.3694 29.4972
Au 13.4175 29.3374 33.4465
Au 13.4632 31.4152 35.4172
Au 15.4458 29.3757 35.4149
Pt 15.4317 31.375 33.45
Au 13.4574 29.3824 37.3609
Au 13.5361 31.4081 39.3631
Au 15.4992 29.3701 39.3907
Pt 15.4695 31.416 37.3893
Pt 13.5449 29.3789 41.4298
Au 13.4888 31.4207 43.4171
Pt 15.4826 29.349 43.4344
Au 15.4861 31.3682 41.4357
Pt 13.4847 29.2999 45.1858
Pt 15.4276 31.3116 45.2364
Au 13.2931 33.4045 5.7642
Pt 13.3963 35.2677 7.72121
Au 15.3894 31.5699 5.39473
Pt 15.4801 33.4511 7.39452
Au 13.4821 33.3671 9.47938
Au 13.3825 35.4619 11.409
Au 15.4762 33.398 11.47
Au 15.3978 35.4678 9.4052
Pt 13.4726 33.3735 13.5323
Au 13.4876 35.3496 15.5285
Pt 15.4422 33.3555 15.5444
Au 15.4258 35.3456 13.5005
Au 13.4491 33.369 17.5362
Pt 13.4398 35.326 19.5316
Au 15.4216 33.3777 19.5001
Pt 15.4653 35.3561 17.5468
Pt 13.3892 33.3251 21.4289
Au 13.4047 35.2717 23.4542
Au 15.4216 33.3178 23.5142
Au 15.4555 35.3641 21.4821
Pt 13.366 33.319 25.5055
Au 13.4295 35.3106 27.473
Au 15.4229 33.3434 27.4444
Au 15.4771 35.3451 25.4745
Au 13.3971 33.3169 29.4635
Au 13.4592 35.3567 31.4558
Pt 15.4062 33.3802 31.5091
Au 15.448 35.3984 29.4676
Pt 13.4602 33.3577 33.4379
Au 13.4867 35.3913 35.4021
Au 15.4717 33.3827 35.4122
Au 15.4706 35.4101 33.4121
Pt 13.5188 33.4053 37.4127
Au 13.5157 35.3767 39.4183
Pt 15.494 33.424 39.4285
Pt 15.4425 35.4345 37.4754
Pt 13.5308 33.409 41.4138
Pt 13.5734 35.3197 43.2407
Pt 15.5474 33.3531 43.3434
Pt 15.5121 35.3581 41.3725
Au 13.638 33.4243 45.2964
Pt 15.5716 35.3655 45.0193
Au 15.3969 37.4653 7.47104
Au 13.3268 37.5781 9.50615
Pt 13.4763 39.4278 11.6311
Au 15.3607 37.459 11.4724
Pt 15.5063 39.392 9.60052
Au 13.4508 37.452 13.5039
Au 13.4407 39.4671 15.5215
Au 15.4551 37.4186 15.5674
Pt 15.3388 39.5289 13.5337
Au 13.5025 37.3573 17.5817
Au 13.4911 39.3575 19.5555
Pt 15.5458 37.4078 19.5325
Au 15.4903 39.4136 17.5821
Au 13.4829 37.3157 21.4973
Au 13.574 39.2976 23.4905
Au 15.5541 37.413 23.4787
Pt 15.5681 39.4258 21.5037
Au 13.518 37.2835 25.4439
Au 13.549 39.2412 27.4533
Pt 15.5096 37.3783 27.4563
Pt 15.5963 39.4439 25.4824
Pt 13.4696 37.3247 29.4675
Au 13.4944 39.2854 31.4345
Pt 15.4757 37.3645 31.4598
Au 15.5608 39.3267 29.4309
Pt 13.4318 37.3611 33.4394
Au 13.3573 39.355 35.493
Au 15.4395 37.4328 35.4616
Au 15.4962 39.34 33.454
Pt 13.4456 37.4001 37.4697
Pt 13.4965 39.2142 39.4062
Pt 15.4627 37.3835 39.4814
Pt 15.4333 39.3457 37.5248
Pt 13.5372 37.265 41.3376
Pt 15.4676 37.3077 43.2091
Au 15.322 39.4437 41.5234
Pt 15.4769 41.3591 11.6047
Au 13.2887 41.5041 13.4424
Pt 13.5059 43.2037 15.6669
Pt 15.4116 41.3653 15.5757
Pt 15.4373 43.2206 13.661
Pt 13.4021 41.3624 17.5682
Pt 13.462 43.2283 19.5169
Au 15.5193 41.4144 19.5374
Pt 15.3959 43.3315 17.5593
Au 13.5663 41.3248 21.5602
Pt 13.5378 43.3692 23.5633
Pt 15.5618 41.4978 23.5259
Pt 15.4621 43.4037 21.539
Au 13.5909 41.3382 25.4932
Pt 13.5758 43.4259 27.409
Au 15.5853 41.4248 27.4548
Pt 15.4824 43.4598 25.494
Au 13.5555 41.2773 29.3962
Au 13.5383 43.2436 31.4267
Au 15.5663 41.3678 31.4334
Au 15.5348 43.4225 29.4251
Au 13.4424 41.3139 33.4761
Pt 13.5006 43.2362 35.2942
Au 15.4353 41.3531 35.4768
Pt 15.5546 43.3597 33.3985
Pt 13.4896 41.185 37.3714
Au 15.2866 41.3664 39.5102
Au 15.2872 43.3825 37.4594
Au 15.4133 45.2602 15.5519
Au 13.4285 45.2483 17.6073
Pt 15.3346 45.1725 19.5459
Pt 13.4554 45.1488 21.54
Pt 15.3991 45.2664 23.5224
Au 13.4866 45.5404 25.5086
Pt 15.4981 45.3057 27.4531
Pt 13.4928 45.1811 29.4565
Pt 15.4477 45.2121 31.436
Pt 13.5004 45.0243 33.316
Au 15.3839 45.2495 35.3615
Au 17.4275 7.6572 11.415
Pt 19.4492 7.4904 13.456
Pt 17.558 9.69097 9.5715
Au 23.4056 3.75435 17.391
Au 17.3061 5.36284 17.5186
Pt 21.4583 5.56623 17.3819
Au 19.5641 5.415 15.3081
Au 19.5388 3.78269 17.4824
Pt 17.451 7.40392 19.4342
Pt 19.3843 5.49035 19.507
Pt 19.3804 7.25635 17.429
Pt 17.4284 5.50755 21.3736
Pt 17.4694 7.3293 23.3775
Pt 19.3541 5.4055 23.2823
Pt 19.4386 7.33759 21.4255
Pt 17.5017 5.423 25.3158
Au 17.5974 7.22389 27.4025
Au 19.3928 5.1142 27.4353
Pt 19.5008 7.16252 25.3568
Pt 17.474 5.48387 29.5027
Pt 17.556 7.38174 31.3945
Pt 19.4721 5.45424 31.4976
Pt 19.5443 7.18439 29.4578
Pt 17.5321 5.58815 33.3895
Pt 17.5185 7.52729 35.2876
Pt 19.4602 5.6173 35.3192
Pt 19.5299 7.40206 33.3274
Pt 17.5839 5.82175 37.2395
Pt 17.5466 7.58898 39.2575
Au 19.4354 5.59764 39.2578
Pt 19.5598 7.51015 37.2998
Pt 17.5364 9.50479 41.1783
Pt 17.4318 11.5761 7.62874
Au 19.3489 9.38529 7.54436
Pt 19.5105 11.5779 6.00875
Au 15.0433 9.14217 9.13109
Pt 17.4816 11.4989 11.478
Pt 19.4047 9.51853 11.455
Pt 19.4682 11.5665 9.37217
Au 17.4521 9.40548 13.4994
Pt 17.4447 11.3967 15.4904
Au 19.4225 9.30955 15.4744
Pt 19.3886 11.4014 13.4774
Au 17.4891 9.34505 17.4122
Au 17.4934 11.3883 19.3997
Pt 19.4479 9.23009 19.414
Pt 19.4127 11.3433 17.4428
Pt 17.515 9.31206 21.3863
Au 17.4751 11.4089 23.3897
Au 19.4705 9.2631 23.4383
Au 19.4756 11.3087 21.4176
Au 17.5082 9.25976 25.4307
Au 17.5165 11.381 27.4245
Au 19.5355 9.21333 27.4076
Au 19.5014 11.3214 25.4097
Au 17.5849 9.32768 29.4066
Pt 17.576 11.4499 31.4137
Pt 19.5307 9.28949 31.3664
Au 19.491 11.3787 29.4539
Pt 17.594 9.3964 33.3178
Au 17.5166 11.4717 35.3784
Au 19.5152 9.42643 35.3184
Au 19.5036 11.4327 33.3247
Au 17.5162 9.44962 37.3321
Pt 17.4728 11.4221 39.2928
Pt 19.5088 9.47968 39.2542
Pt 19.4904 11.4504 37.352
Pt 15.5692 11.4119 41.2172
Au 15.498 15.2519 45.1798
Pt 17.5558 11.432 43.1331
Au 19.509 11.442 41.237
Pt 19.4289 15.3196 45.162
Au 17.4329 13.4882 5.63357
Pt 17.4733 15.5068 7.54425
Pt 19.4647 13.6283 7.52156
Au 19.3633 15.4766 5.37444
Au 17.5013 13.5116 9.48401
Au 17.4945 15.5043 11.459
Pt 19.447 13.495 11.4135
Pt 19.477 15.5315 9.43718
Au 17.5037 13.4312 13.4646
Pt 17.4435 15.4054 15.4096
Au 19.4278 13.394 15.4657
Pt 19.4208 15.467 13.4453
Pt 17.4337 13.4212 17.3838
Pt 17.4152 15.3894 19.3602
Au 19.4306 13.4184 19.3695
Pt 19.3669 15.3994 17.3715
Au 17.4374 13.4493 21.4004
Au 17.4518 15.4504 23.4236
Au 19.4867 13.3819 23.4255
Au 19.4394 15.4208 21.3902
Au 17.4817 13.4587 25.4083
Au 17.4788 15.4501 27.479
Au 19.4513 13.4229 27.4564
Pt 19.4425 15.4378 25.434
Pt 17.5185 13.4884 29.5125
Pt 17.453 15.4296 31.4558
Pt 19.4597 13.4586 31.4382
Pt 19.4338 15.4153 29.5214
Au 17.4746 13.454 33.3949
Au 17.4365 15.4292 35.4743
Pt 19.4552 13.4377 35.3667
Pt 19.4343 15.4079 33.4056
Pt 17.4443 13.4215 37.434
Au 17.4855 15.4673 39.3813
Au 19.5271 13.4522 39.3324
Au 19.4787 15.4342 37.4003
Au 17.4718 13.4237 41.2858
Pt 17.4618 15.4533 43.2679
Au 19.5192 13.46 43.2225
Au 19.5127 15.5336 41.4062
Pt 17.5405 13.412 44.9328
Au 21.4451 17.3778 45.6476
Pt 17.3748 17.4827 5.69097
Pt 17.4781 19.4824 7.41769
Au 19.5057 17.4553 7.33137
Pt 19.4517 19.4656 5.55902
Au 17.5341 17.5038 9.44302
Au 17.489 19.3869 11.4728
Pt 19.4852 17.4719 11.4357
Pt 19.5107 19.4408 9.30124
Pt 17.4725 17.383 13.4497
Au 17.4673 19.3767 15.4004
Pt 19.4183 17.3726 15.4174
Pt 19.4503 19.3373 13.4342
Pt 17.4395 17.3463 17.3468
Au 17.3938 19.4515 19.4331
Au 19.381 17.3824 19.3671
Au 19.4193 19.4175 17.3938
Au 17.4046 17.4181 21.4367
Au 17.412 19.4203 23.4245
Pt 19.4149 17.4144 23.4066
Au 19.4228 19.4275 21.4313
Au 17.452 17.4304 25.4079
Au 17.4252 19.4037 27.4837
Au 19.4298 17.3916 27.4843
Au 19.436 19.42 25.4226
Pt 17.4384 17.3669 29.5339
Pt 17.3743 19.3368 31.4595
Pt 19.4154 17.3448 31.4662
Au 19.3852 19.3735 29.5196
Au 17.4228 17.3917 33.432
Au 17.4249 19.3764 35.4955
Au 19.449 17.4244 35.4617
Au 19.4104 19.3924 33.4344
Pt 17.4388 17.4496 37.4999
Pt 17.4677 19.3832 39.5365
Pt 19.4288 17.5179 39.5007
Pt 19.4098 19.4152 37.5362
Pt 17.4318 17.4253 41.4331
Pt 17.402 19.274 43.4533
Pt 19.4333 17.397 43.4966