3871
Atoms. Timestep: 20162
Au 5.73681 7.69933 23.4331
Pt 7.83897 5.91743 23.4695
Pt 7.76744 7.73589 21.5132
Pt 6.15972 5.92201 25.4414
Pt 5.96971 7.73357 27.3261
Pt 7.86961 5.86702 27.3926
Au 7.81533 7.7735 25.4062
Pt 7.72562 7.69721 29.3309
Pt 5.90033 11.6319 19.5513
Pt 7.71254 9.64601 19.4992
Au 7.44057 11.3686 17.3467
Pt 5.95006 9.68126 21.4835
Au 5.46165 11.5089 23.4176
Pt 7.68793 9.68298 23.4442
Pt 7.60725 11.6789 21.5045
Pt 5.85201 9.60744 25.4177
Pt 5.78335 11.5477 27.4208
Au 7.70021 9.67032 27.453
Pt 7.51265 11.6846 25.3606
Au 5.65008 9.64128 29.3615
Pt 5.95192 11.6475 31.355
Au 7.48486 9.44441 31.482
Pt 7.63255 11.5793 29.4276
Au 7.48735 11.4534 33.5542
Pt 5.79176 15.6146 15.6366
Au 7.42385 13.4354 15.3764
Pt 7.54459 15.611 13.5743
Pt 5.87748 13.593 17.5874
Pt 5.66419 15.5086 19.463
Pt 7.60524 13.5734 19.5238
Pt 7.59211 15.5325 17.5208
Au 5.39503 13.5665 21.4201
Pt 5.61481 15.5642 23.4026
Pt 7.39528 13.5692 23.4177
Pt 7.46956 15.499 21.4381
Au 5.37652 13.5757 25.4095
Pt 5.60474 15.5402 27.3703
Au 7.4271 13.5899 27.4271
Pt 7.41043 15.5294 25.3924
Au 5.4519 13.539 29.4509
Pt 5.70178 15.4772 31.4906
Pt 7.58259 13.5826 31.426
Pt 7.37871 15.5558 29.4155
Au 5.61354 13.5717 33.3992
Pt 5.8836 15.5777 35.3133
Pt 7.63858 13.5856 35.3386
Pt 7.62299 15.5004 33.3916
Au 7.46724 15.3863 37.5108
Pt 5.85278 19.5924 11.5766
Au 7.41262 17.3799 11.3699
Pt 7.63221 19.5458 9.58903
Pt 5.8176 17.6137 13.5629
Pt 5.62776 19.4523 15.5021
Au 7.54788 17.5387 15.5498
Pt 7.55025 19.5377 13.5217
Pt 5.6361 17.4961 17.5243
Pt 5.5522 19.4946 19.5178
Au 7.45137 17.5258 19.4952
Au 7.41451 19.5449 17.5318
Pt 5.59161 17.4758 21.4546
Au 5.20437 19.4736 23.4149
Pt 7.38475 17.5663 23.4302
Pt 7.32763 19.538 21.4971
Pt 5.56622 17.4715 25.3825
Pt 5.51165 19.4619 27.3306
Pt 7.35737 17.5226 27.4026
Pt 7.32411 19.4959 25.3524
Au 5.27721 17.415 29.378
Au 5.26195 19.4776 31.4596
Pt 7.36606 17.5273 31.3465
Au 7.23515 19.4522 29.4172
Pt 5.72021 17.439 33.4443
Pt 5.72533 19.4358 35.3908
Pt 7.6097 17.4821 35.4375
Au 7.42709 19.4741 33.3346
Au 5.60109 17.4989 37.313
Au 5.64163 19.4862 39.3257
Pt 7.64613 17.555 39.2367
Pt 7.59193 19.4494 37.3431
Au 7.53239 19.3704 41.445
Au 5.71175 23.4581 7.6838
Pt 7.71524 21.5409 7.70307
Au 7.74327 23.4508 5.67245
Pt 5.88521 21.5389 9.6779
Pt 5.69689 23.4306 11.5098
Pt 7.6226 21.5191 11.6331
Pt 7.67848 23.4667 9.61724
Au 5.36207 21.4706 13.4841
Pt 5.53936 23.4961 15.5482
Au 7.37082 21.4995 15.4696
Pt 7.37236 23.4914 13.5798
Pt 5.55102 21.5191 17.5378
Pt 5.46518 23.4891 19.5131
Pt 7.34995 21.5192 19.5122
Au 7.36188 23.4895 17.5282
Pt 5.47561 21.5096 21.4452
Pt 5.43979 23.4409 23.3866
Pt 7.28205 21.4563 23.4217
Pt 7.31713 23.4756 21.4573
Pt 5.46446 21.4718 25.3842
Pt 5.43882 23.4235 27.3866
Au 7.28899 21.4716 27.3713
Pt 7.25133 23.4907 25.3972
Pt 5.48582 21.4854 29.3618
Pt 5.49548 23.4159 31.3827
Pt 7.3074 21.4387 31.3531
Pt 7.26618 23.4608 29.3767
Pt 5.59061 21.4266 33.4348
Au 5.34094 23.3549 35.4175
Pt 7.49847 21.4714 35.3882
Au 7.32484 23.4334 33.3927
Pt 5.72615 21.383 37.3566
Au 5.47079 23.4202 39.3661
Au 7.58303 21.4295 39.2843
Pt 7.43273 23.4532 37.3432
Pt 5.95384 21.5571 41.2754
Pt 5.95972 23.531 43.1029
Pt 7.73876 21.5665 43.2551
Pt 7.71986 23.4892 41.1698
Au 7.70157 23.4799 45.2505
Au 5.93452 25.5114 5.83073
Pt 5.92238 27.3609 7.73662
Pt 7.75598 25.3938 7.72079
Pt 7.82073 27.4023 5.89538
Pt 5.79875 25.4121 9.58891
Pt 5.68725 27.399 11.5465
Au 7.49063 25.4261 11.6649
Au 7.60781 27.4362 9.68126
Au 5.30028 25.4489 13.5537
Pt 5.51517 27.4266 15.5606
Pt 7.35471 25.4787 15.5146
Pt 7.37911 27.4062 13.6056
Pt 5.51461 25.467 17.4976
Pt 5.43438 27.4041 19.4167
Pt 7.32591 25.4603 19.4856
Pt 7.36808 27.4209 17.5051
Pt 5.44956 25.4397 21.4263
Pt 5.42842 27.3788 23.3655
Pt 7.21736 25.4208 23.4419
Pt 7.23275 27.4614 21.4082
Au 5.14365 25.4172 25.3977
Pt 5.42259 27.4099 27.4591
Pt 7.17826 25.4257 27.4035
Pt 7.13903 27.4028 25.4142
Au 5.14766 25.3733 29.3899
Au 5.19031 27.4635 31.4618
Pt 7.19238 25.4637 31.3035
Pt 7.16367 27.4084 29.4664
Pt 5.56579 25.4274 33.3666
Au 5.34409 27.5152 35.3868
Au 7.28545 25.4377 35.4215
Pt 7.29886 27.4517 33.3557
Au 5.38588 25.5143 37.4653
Pt 5.78128 27.4794 39.3798
Pt 7.54957 25.4098 39.2324
Pt 7.49791 27.4218 37.321
Pt 5.80061 25.4384 41.2564
Pt 5.90304 27.3722 43.0221
Pt 7.83271 25.4278 43.0784
Pt 7.72479 27.4221 41.193
Pt 5.97982 25.4734 44.7567
Pt 7.71769 27.3666 44.9662
Pt 7.68849 29.3715 7.74781
Au 5.62644 29.3995 9.61538
Au 5.61721 31.4809 11.5672
Pt 7.50859 29.4213 11.619
Pt 7.63613 31.3561 9.6847
Au 5.38689 29.3924 13.5458
Pt 5.6638 31.4689 15.4906
Pt 7.40502 29.3834 15.5026
Au 7.51107 31.3673 13.5186
Pt 5.53777 29.3892 17.456
Pt 5.51425 31.4105 19.3434
Pt 7.30644 29.3887 19.4673
Au 7.43053 31.3676 17.476
Au 5.15591 29.3874 21.3434
Au 5.15184 31.4351 23.3817
Pt 7.09539 29.4449 23.409
Pt 7.222 31.3122 21.4101
Au 5.12956 29.361 25.433
Pt 5.42142 31.391 27.5259
Au 7.18671 29.4022 27.4163
Pt 7.15026 31.3134 25.4332
Pt 5.45082 29.4603 29.4785
Pt 5.51861 31.4221 31.4572
Pt 7.30756 29.4106 31.3833
Pt 7.32456 31.3981 29.4486
Pt 5.55779 29.458 33.3966
Au 5.36295 31.4075 35.4694
Pt 7.40341 29.42 35.3735
Au 7.39392 31.3823 33.4295
Pt 5.71581 29.4352 37.4306
Pt 5.88303 31.3435 39.2456
Pt 7.664 29.4022 39.313
Pt 7.61693 31.3695 37.2993
Au 5.64841 29.4424 41.2493
Pt 7.70526 29.3397 43.1494
Pt 7.65148 31.3257 41.2486
Pt 7.6405 33.3918 11.5672
Pt 5.8853 33.4195 13.5913
Pt 5.87652 35.319 15.5283
Pt 7.62858 33.3784 15.5381
Pt 7.66509 35.3854 13.5387
Pt 5.64092 33.4147 17.4268
Pt 5.67209 35.3574 19.3225
Pt 7.44298 33.3354 19.4174
Pt 7.59939 35.3508 17.4813
Pt 5.5358 33.3597 21.2764
Au 5.24852 35.3724 23.4695
Au 7.18735 33.3269 23.4357
Au 7.30071 35.3832 21.4532
Pt 5.45482 33.3597 25.5091
Pt 5.52137 35.3262 27.4387
Au 7.29495 33.3227 27.4405
Au 7.30143 35.3543 25.4154
Pt 5.49683 33.3613 29.5052
Pt 5.62947 35.3447 31.5585
Pt 7.42907 33.337 31.4182
Au 7.32927 35.3517 29.4455
Pt 5.63745 33.3978 33.4489
Pt 5.83041 35.3037 35.3399
Pt 7.56256 33.3312 35.358
Pt 7.59917 35.3078 33.4097
Pt 5.86692 33.3266 37.3389
Pt 7.65092 33.3501 39.3091
Pt 7.63898 35.3271 37.3169
Pt 7.65991 37.3381 15.5409
Au 5.64395 37.3379 17.4008
Au 5.64953 39.3769 19.3802
Pt 7.50812 37.3545 19.4315
Pt 7.65719 39.3268 17.5236
Au 5.37737 37.3894 21.3846
Pt 5.72006 39.3704 23.4859
Pt 7.38412 37.2776 23.4259
Au 7.46478 39.2603 21.4385
Pt 5.5715 37.3931 25.4342
Au 5.38985 39.3415 27.4032
Pt 7.34948 37.311 27.4579
Au 7.49636 39.2349 25.4922
Au 5.34576 37.3079 29.5427
Pt 5.87371 39.2067 31.5001
Pt 7.58134 37.2717 31.4516
Au 7.45051 39.2364 29.4101
Pt 5.8219 37.2593 33.4162
Pt 7.61414 37.306 35.3675
Pt 7.62045 39.2763 33.4643
Pt 7.6805 41.2501 19.5694
Au 5.66067 41.3423 21.5372
Pt 5.94853 43.1559 23.5739
Pt 7.69068 41.2068 23.4688
Pt 7.7275 43.1745 21.5584
Pt 5.7923 41.2883 25.4324
Au 5.92548 45.0413 25.4695
Pt 7.61407 41.1935 27.4947
Pt 7.79438 43.1136 25.4776
Au 5.64878 41.2716 29.4682
Pt 7.66611 41.1946 31.4159
Au 7.49972 43.3315 29.5679
Pt 7.82003 45.0141 23.5635
Pt 7.81591 44.9921 27.3837
Pt 5.94528 43.1344 27.3514
Pt 9.65314 7.69727 19.5217
Pt 11.624 5.8557 19.4953
Pt 11.5714 7.69402 17.5518
Pt 9.72374 5.875 21.4899
Au 9.75063 7.69125 23.4702
Pt 11.5979 5.68975 23.4273
Au 11.6388 7.65398 21.4404
Pt 9.6471 5.7364 25.4322
Pt 9.73165 7.6601 27.3878
Au 11.5869 5.3781 27.4126
Pt 11.6537 7.50732 25.4939
Pt 9.73898 5.88322 29.3458
Au 9.44241 7.43806 31.553
Pt 11.6221 5.90121 31.3491
Pt 11.6091 7.63325 29.3645
Pt 11.5624 7.64972 33.3686
Pt 9.5829 11.5624 15.6275
Au 11.3689 9.43388 15.4067
Au 11.4252 11.3764 13.3877
Pt 9.61896 9.61862 17.5796
Pt 9.4797 11.6089 19.4238
Pt 11.5553 9.64146 19.4471
Pt 11.5241 11.4988 17.4441
Au 9.60675 9.68713 21.4383
Pt 9.51956 11.6681 23.4009
Au 11.6369 9.67332 23.4775
Pt 11.5041 11.6437 21.3774
Pt 9.62258 9.70293 25.4279
Au 9.53853 11.6445 27.4292
Au 11.5874 9.588 27.4176
Au 11.5972 11.616 25.4308
Pt 9.55349 9.52379 29.5347
Pt 9.38573 11.5034 31.4846
Pt 11.4595 9.44438 31.3973
Au 11.4377 11.5335 29.469
Pt 9.60303 9.57249 33.3226
Au 9.45539 11.3958 35.5376
Pt 11.6139 9.57473 35.3601
Au 11.4076 11.5051 33.4418
Au 11.4355 11.4019 37.5449
Pt 9.54776 15.6242 11.5393
Au 11.4215 13.4056 11.352
Au 11.3619 15.3817 9.3782
Au 9.42013 13.4675 13.3626
Au 9.444 15.4157 15.439
Au 11.4351 13.4399 15.3965
Pt 11.4803 15.4292 13.4138
Pt 9.38208 13.4508 17.4698
Au 9.52507 15.4997 19.4682
Pt 11.4626 13.4754 19.389
Au 11.4515 15.4343 17.4054
Pt 9.48843 13.5811 21.4784
Pt 9.35251 15.5415 23.4229
Au 11.5086 13.5756 23.4157
Pt 11.4801 15.4442 21.4387
Au 9.44663 13.6143 25.3948
Pt 9.33919 15.5753 27.4021
Au 11.5045 13.5933 27.4454
Au 11.476 15.5523 25.4295
Pt 9.38456 13.6295 29.4095
Au 9.43093 15.5572 31.392
Au 11.3954 13.5212 31.4098
Au 11.4701 15.5497 29.3969
Pt 9.44518 13.4495 33.4476
Pt 9.46879 15.5016 35.4469
Pt 11.3882 13.4168 35.4855
Au 11.4247 15.467 33.454
Pt 9.52604 13.5777 37.35
Pt 9.58648 15.5613 39.2914
Au 11.4157 13.4064 39.5356
Au 11.4898 15.4116 37.435
Pt 11.6328 15.5838 41.2838
Pt 9.5868 19.5523 7.65093
Au 11.3484 17.3704 7.43248
Pt 11.5903 19.5336 5.86026
Pt 9.54799 17.6064 9.58742
Pt 9.46582 19.4366 11.5282
Au 11.4875 17.4446 11.4439
Pt 11.5376 19.413 9.46974
Au 9.44593 17.4904 13.4353
Au 9.5072 19.4962 15.5039
Au 11.4678 17.4412 15.4158
Pt 11.5394 19.3685 13.4385
Pt 9.42966 17.5329 17.5324
Pt 9.31152 19.5772 19.563
Au 11.4394 17.5132 19.4641
Au 11.4422 19.505 17.5193
Au 9.40717 17.5074 21.4703
Au 9.36977 19.5293 23.4274
Au 11.4278 17.4748 23.421
Au 11.3838 19.5688 21.4157
Au 9.34732 17.5184 25.4267
Pt 9.25273 19.5053 27.3985
Au 11.4113 17.5302 27.4069
Pt 11.3452 19.4601 25.4565
Au 9.34842 17.5263 29.37
Pt 9.30715 19.5066 31.3321
Au 11.4324 17.4949 31.4122
Au 11.3298 19.5171 29.3956
Pt 9.39299 17.5052 33.3778
Au 9.46616 19.4792 35.3674
Au 11.4803 17.4706 35.4112
Au 11.4236 19.4637 33.3606
Pt 9.50975 17.4429 37.3685
Pt 9.49691 19.4384 39.3828
Au 11.4687 17.5002 39.3899
Pt 11.4408 19.4482 37.3794
Au 9.47327 17.3641 41.4341
Pt 9.69009 19.5586 43.2545
Pt 11.6254 17.5549 43.2219
Au 11.5479 19.4832 41.3451
Au 11.5751 19.4665 45.2524
Pt 9.69529 21.5095 5.86755
Pt 9.62588 23.4557 7.66434
Pt 11.5823 21.466 7.66537
Pt 11.509 23.4262 5.72947
Au 9.58649 21.4414 9.61908
Au 9.5681 23.4941 11.5964
Au 11.5575 21.4104 11.5288
Pt 11.56 23.4691 9.49838
Au 9.52114 21.4986 13.5629
Pt 9.33114 23.5193 15.5529
Au 11.5356 21.4319 15.4689
Au 11.5268 23.4991 13.57
Au 9.4 21.5221 17.524
Pt 9.29418 23.4864 19.5455
Pt 11.3532 21.5193 19.4947
Au 11.4194 23.4601 17.4778
Pt 9.26607 21.5226 21.4812
Au 9.27794 23.4656 23.4413
Pt 11.3255 21.4681 23.4251
Au 11.3395 23.4507 21.4409
Au 9.32597 21.4709 25.4237
Au 9.27312 23.4801 27.4073
Pt 11.2909 21.417 27.4296
Au 11.3133 23.4923 25.44
Pt 9.22723 21.4576 29.3481
Au 9.26607 23.4376 31.3374
Pt 11.3476 21.4472 31.3509
Au 11.3132 23.4138 29.4088
Au 9.39032 21.4844 33.3372
Pt 9.37716 23.4702 35.4125
Au 11.4462 21.4647 35.3865
Au 11.3989 23.4639 33.3752
Pt 9.48882 21.4654 37.3404
Pt 9.51741 23.4304 39.1992
Pt 11.4708 21.4267 39.2666
Pt 11.4494 23.4244 37.2999
Au 9.56424 21.4254 41.2997
Au 9.66998 23.4521 43.2718
Pt 11.7059 21.4781 43.3369
Au 11.6076 23.3928 41.2733
Pt 9.73836 21.5385 45.0353
Pt 11.6098 23.4759 45.2183
Pt 9.62138 25.4549 5.78419
Pt 9.63124 27.4277 7.73703
Au 11.5583 25.4591 7.59736
Pt 11.475 27.4951 5.73211
Pt 9.57304 25.4682 9.63848
Pt 9.49128 27.4242 11.6156
Au 11.5582 25.5086 11.5311
Pt 11.5748 27.4689 9.55566
Au 9.44807 25.4862 13.6184
Pt 9.36466 27.4282 15.5653
Au 11.4659 25.5104 15.5441
Pt 11.4889 27.4459 13.5531
Au 9.36926 25.4645 17.4946
Au 9.34878 27.4578 19.4747
Au 11.3965 25.4757 19.45
Pt 11.4432 27.4853 17.5018
Au 9.27195 25.5087 21.4782
Pt 9.07713 27.4548 23.4175
Au 11.3002 25.5428 23.3927
Pt 11.3622 27.4816 21.358
Au 9.21185 25.4977 25.4165
Au 9.17145 27.4149 27.4464
Pt 11.2702 25.471 27.4669
Au 11.2714 27.4324 25.4788
Au 9.22922 25.4476 29.3921
Au 9.25689 27.4252 31.376
Au 11.3889 25.4449 31.4066
Au 11.3185 27.4477 29.3992
Au 9.28857 25.4253 33.3731
Au 9.3896 27.3958 35.3463
Pt 11.439 25.3859 35.3625
Au 11.4367 27.3884 33.4102
Pt 9.46929 25.404 37.3018
Au 9.61213 27.4179 39.25
Pt 11.5132 25.3776 39.2015
Au 11.5134 27.4081 37.2716
Au 9.70952 25.4388 41.1819
Au 9.67611 27.4526 43.2527
Au 11.6734 25.4419 43.3709
Pt 11.6447 27.4411 41.3662
Pt 9.61102 25.444 45.1118
Pt 11.6174 27.4406 45.1953
Pt 9.62447 29.3836 5.8955
Pt 9.5435 31.3544 7.7083
Pt 11.5442 29.4123 7.69244
Pt 11.489 31.3192 5.87918
Au 9.554 29.4429 9.675
Pt 9.532 31.4387 11.5754
Au 11.5547 29.4012 11.5696
Pt 11.5125 31.3967 9.55444
Au 9.45809 29.3477 13.549
Au 9.50903 31.4007 15.5136
Au 11.4877 29.3933 15.4956
Au 11.5079 31.4564 13.4933
Au 9.40999 29.3995 17.493
Pt 9.36062 31.3449 19.4525
Pt 11.417 29.4405 19.4258
Pt 11.4679 31.413 17.4971
Au 9.26432 29.4033 21.4645
Au 9.19354 31.3715 23.4635
Au 11.2674 29.364 23.4376
Au 11.3622 31.3891 21.4164
Au 9.15917 29.372 25.4011
Pt 9.19608 31.353 27.435
Au 11.2485 29.4405 27.4547
Au 11.2588 31.4118 25.4663
Pt 9.17708 29.3988 29.3919
Pt 9.29811 31.3507 31.3999
Au 11.3466 29.4322 31.3729
Pt 11.2867 31.3716 29.4102
Au 9.36698 29.3937 33.3917
Pt 9.46721 31.3971 35.359
Pt 11.4826 29.4458 35.3388
Au 11.4256 31.4023 33.399
Au 9.54797 29.4329 37.3039
Au 9.56997 31.4477 39.3934
Pt 11.5482 29.4748 39.3702
Pt 11.4907 31.4528 37.373
Pt 9.62005 29.3956 41.265
Pt 9.62523 31.2605 43.1843
Au 11.6236 29.3844 43.3095
Au 11.5435 31.5087 41.4033
Au 9.59939 29.4032 45.2494
Pt 11.6453 31.3224 45.0233
Pt 11.4648 33.2939 7.67262
Pt 9.53036 33.3258 9.59792
Pt 9.54365 35.3542 11.6141
Au 11.4801 33.4626 11.4572
Au 11.29 35.5288 9.45674
Pt 9.4826 33.4113 13.5086
Au 9.53472 35.3753 15.4888
Pt 11.4848 33.3942 15.5148
Au 11.5005 35.4101 13.4871
Pt 9.46004 33.3344 17.544
Au 9.43213 35.3322 19.5134
Pt 11.4302 33.3487 19.4701
Au 11.4736 35.3493 17.5173
Au 9.30156 33.3075 21.4338
Au 9.35135 35.3215 23.4289
Au 11.3518 33.3579 23.4428
Pt 11.3949 35.3176 21.4439
Pt 9.21859 33.3183 25.4711
Au 9.36025 35.3144 27.4078
Pt 11.312 33.318 27.443
Au 11.3689 35.3082 25.4402
Au 9.37087 33.3231 29.4071
Au 9.482 35.3009 31.4219
Au 11.4295 33.3265 31.4175
Pt 11.4464 35.3205 29.4391
Pt 9.44358 33.3207 33.3854
Au 9.52024 35.3572 35.3754
Pt 11.4735 33.408 35.3837
Pt 11.4554 35.3731 33.4272
Au 9.52781 33.3742 37.3691
Pt 9.59263 35.3143 39.3023
Pt 11.5088 33.4298 39.4253
Au 11.504 35.3852 37.4096
Au 9.42847 33.5172 41.4563
Au 11.4781 33.5293 43.4306
Pt 11.5967 35.3571 41.29
Pt 11.4781 37.4332 11.6668
Pt 9.56218 37.3884 13.6012
Pt 9.55549 39.3847 15.5814
Au 11.5033 37.468 15.4925
Pt 11.5053 39.436 13.605
Au 9.51383 37.4041 17.4983
Pt 9.52819 39.3339 19.4896
Au 11.4806 37.3517 19.5212
Pt 11.4741 39.421 17.5241
Pt 9.41421 37.3232 21.4255
Pt 9.42509 39.1555 23.4217
Pt 11.3965 37.2454 23.3734
Pt 11.4722 39.2887 21.4608
Pt 9.36125 37.2652 25.4215
Pt 9.45147 39.2102 27.4592
Au 11.4515 37.2951 27.4654
Au 11.4607 39.1465 25.4023
Au 9.44708 37.2866 29.4161
Pt 9.46336 39.2529 31.4601
Au 11.4646 37.3476 31.4377
Pt 11.4036 39.2804 29.4608
Pt 9.48627 37.3248 33.4291
Pt 9.54618 39.2396 35.3672
Pt 11.4485 37.3803 35.454
Pt 11.4127 39.3345 33.4631
Pt 9.53938 37.2673 37.3495
Pt 11.5438 37.2862 39.3712
Au 11.3258 39.3979 37.563
Pt 11.5101 41.3413 15.6111
Pt 9.5721 41.2979 17.5803
Pt 9.60658 43.2007 19.5742
Pt 11.5127 41.3711 19.4616
Au 11.3664 43.4239 17.4197
Au 9.58886 41.2249 21.4809
Au 9.69239 43.2021 23.5223
Au 11.5904 41.2307 23.5072
Pt 11.5993 43.2019 21.5322
Au 9.60021 41.1508 25.4764
Pt 9.60345 43.1301 27.465
Au 11.5445 41.2105 27.4353
Pt 11.6335 43.3588 25.5095
Pt 9.46015 41.2613 29.461
Pt 9.58601 43.1726 31.3654
Au 11.4469 41.2386 31.4216
Au 11.5675 43.2147 29.3778
Pt 9.52107 41.219 33.3766
Au 11.3343 41.4282 35.4937
Pt 11.4828 43.204 33.3208
Pt 11.5907 45.0186 19.6383
Pt 9.68911 45.0054 21.5824
Pt 11.5649 45.186 23.4786
Pt 9.64446 45.1214 25.4801
Pt 11.5067 45.174 27.4698
Pt 9.63926 44.9806 29.3509
Pt 11.5641 45.0049 31.3347
Pt 13.477 7.68422 15.6062
Pt 15.4237 5.84986 15.6143
Au 15.3311 7.50153 13.4496
Pt 13.5196 5.8465 17.5947
Pt 13.5625 7.68139 19.4755
Pt 15.456 5.65801 19.4503
Au 15.5123 7.57551 17.5141
Pt 13.5353 5.68066 21.3838
Au 13.5881 7.47915 23.4491
Pt 15.5023 5.55259 23.3304
Pt 15.5292 7.49296 21.4078
Pt 13.5475 5.57701 25.3775
Pt 13.5504 7.37002 27.4121
Au 15.4536 5.27045 27.4105
Pt 15.5319 7.32174 25.4177
Pt 13.4798 5.6773 29.4847
Pt 13.5577 7.65283 31.389
Pt 15.4734 5.66303 31.4856
Au 15.5219 7.3699 29.3982
Pt 13.5352 5.87304 33.3173
Pt 13.5865 7.65115 35.3354
Au 15.5229 5.61787 35.4015
Au 15.5441 7.55122 33.4129
Pt 15.551 7.64847 37.3189
Pt 13.5566 11.5316 11.4814
Pt 15.497 9.63865 11.5274
Pt 15.4951 11.5691 9.50289
Pt 13.5495 9.59501 13.5765
Pt 13.407 11.4532 15.4756
Pt 15.4499 9.51107 15.4849
Au 15.4425 11.4807 13.4778
Pt 13.4825 9.58001 17.4625
Au 13.5315 11.5613 19.4088
Pt 15.5366 9.52412 19.4283
Pt 15.4631 11.4917 17.4012
Au 13.5888 9.62068 21.4419
Pt 13.5752 11.6118 23.3672
Au 15.5519 9.45504 23.418
Pt 15.5289 11.5249 21.3661
Au 13.6159 9.46541 25.4827
Pt 13.5745 11.4793 27.4272
Pt 15.5614 9.25881 27.4124
Au 15.5081 11.4692 25.4401
Au 13.5822 9.50653 29.3547
Au 13.4662 11.4736 31.4119
Au 15.5902 9.50713 31.4055
Au 15.5777 11.4627 29.3968
Au 13.4867 9.55291 33.4072
Au 13.4287 11.5331 35.4973
Au 15.4995 9.57013 35.3955
Pt 15.5422 11.4657 33.4015
Pt 13.5924 9.58046 37.3638
Pt 13.5913 11.5317 39.344
Pt 15.5499 9.548 39.2912
Pt 15.4904 11.5016 37.4447
Au 15.3402 11.3606 41.4278
Pt 13.5398 15.5525 7.59357
Pt 15.5087 13.5754 7.57484
Pt 15.4931 15.6009 5.81276
Pt 13.591 13.5328 9.46311
Au 13.3954 15.4332 11.3711
Au 15.4435 13.4658 11.4231
Pt 15.4916 15.5141 9.44649
Au 13.3795 13.4123 13.4206
Pt 13.4744 15.4403 15.4147
Pt 15.4336 13.4362 15.4298
Au 15.416 15.4456 13.4342
Pt 13.4794 13.4412 17.3873
Au 13.4599 15.4429 19.4056
Pt 15.484 13.4802 19.3421
Au 15.4523 15.4348 17.3608
Au 13.5319 13.5279 21.4113
Pt 13.4907 15.5104 23.3893
Pt 15.4663 13.5469 23.3973
Pt 15.465 15.473 21.4041
Au 13.5484 13.5486 25.4269
Pt 13.4754 15.5869 27.425
Au 15.502 13.5038 27.4601
Au 15.4299 15.5432 25.4111
Au 13.4812 13.5099 29.4177
Pt 13.4531 15.527 31.4226
Au 15.4823 13.4649 31.414
Au 15.4313 15.5158 29.4598
Au 13.4458 13.4721 33.4196
Au 13.4488 15.452 35.4599
Au 15.4514 13.4569 35.4622
Au 15.4128 15.5086 33.4142
Pt 13.4219 13.4211 37.521
Au 13.5112 15.4571 39.4136
Pt 15.4818 13.4568 39.4456
Au 15.4676 15.4842 37.4587
Pt 13.5934 13.5608 41.3104
Pt 13.5868 15.5314 43.2117
Pt 15.4712 13.5752 43.242
Pt 15.5379 15.5709 41.3966
Pt 15.544 15.5501 45.0108
Pt 13.5696 17.5727 5.83674
Pt 13.5269 19.4631 7.61963
Pt 15.4933 17.5253 7.6013
Pt 15.4395 19.4226 5.63736
Pt 13.4099 17.4344 9.42421
Au 13.5443 19.4026 11.4601
Pt 15.4376 17.4315 11.423
Pt 15.5152 19.4398 9.43701
Pt 13.4762 17.4011 13.4188
Pt 13.5236 19.3659 15.3689
Pt 15.4759 17.3881 15.3775
Pt 15.4955 19.3305 13.4526
Au 13.4583 17.4709 17.3857
Au 13.4774 19.532 19.4807
Au 15.4713 17.447 19.4039
Au 15.468 19.4321 17.379
Au 13.47 17.466 21.4389
Au 13.3752 19.5002 23.4106
Pt 15.3984 17.47 23.4154
Pt 15.4118 19.473 21.4594
Pt 13.3992 17.5276 25.3923
Pt 13.3428 19.4824 27.4214
Au 15.4019 17.5055 27.4441
Au 15.3692 19.4535 25.4164
Pt 13.4281 17.5436 29.4174
Au 13.4253 19.4536 31.409
Pt 15.4314 17.4397 31.4126
Au 15.4275 19.4425 29.4587
Pt 13.4533 17.4764 33.4245
Pt 13.4465 19.4261 35.4506
Pt 15.4206 17.4713 35.4699
Au 15.411 19.4071 33.4253
Pt 13.454 17.4795 37.4554
Pt 13.5128 19.4595 39.3782
Pt 15.5136 17.5127 39.4408
Au 15.4722 19.4185 37.4426
Au 13.5824 17.5465 41.4003
Pt 13.6023 19.5681 43.3922
Au 15.611 17.5957 43.3995
Pt 15.5658 19.518 41.4619
Pt 13.5739 17.5074 44.9829
Au 15.4736 19.4724 45.5327
Pt 13.4531 21.3699 5.69947
Au 13.5768 23.4387 7.42231
Pt 15.5537 21.4321 7.36461
Au 15.4281 23.3666 5.29882
Au 13.596 21.4749 9.48811
Au 13.5768 23.4932 11.4898
Au 15.5439 21.453 11.4826
Au 15.6185 23.48 9.34502
Au 13.5518 21.4255 13.4773
Au 13.5483 23.5116 15.4942
Au 15.4891 21.4673 15.3967
Pt 15.5906 23.5496 13.4185
Au 13.4946 21.4497 17.4448
Au 13.4098 23.4487 19.4385
Pt 15.4119 21.4975 19.4539
Pt 15.4242 23.4905 17.4859
Pt 13.3793 21.493 21.4218
Au 13.3194 23.4852 23.4065
Au 15.3678 21.4716 23.4084
Au 15.3762 23.4732 21.4246
Au 13.2901 21.4448 25.4393
Au 13.3038 23.4532 27.4334
Au 15.3674 21.4406 27.4331
Au 15.352 23.47 25.4259
Au 13.3652 21.4589 29.4337
Pt 13.3799 23.4666 31.4234
Pt 15.3892 21.4317 31.4511
Au 15.3668 23.4435 29.4835
Au 13.4151 21.4647 33.3845
Pt 13.4152 23.4523 35.3833
Au 15.4506 21.4394 35.4228
Au 15.4056 23.4474 33.4015
Au 13.4526 21.4316 37.3874
Pt 13.4586 23.4003 39.3003
Au 15.5303 21.4394 39.4147
Au 15.5086 23.4243 37.3897
Au 13.599 21.4621 41.3809
Pt 13.6193 23.4611 43.4686
Pt 15.5721 21.4816 43.6066
Au 15.5514 23.4471 41.5275
Au 13.5141 21.5246 45.5256
Pt 15.5111 23.5116 45.3621
Pt 13.3914 25.5312 5.67017
Pt 13.5107 27.4899 7.52275
Au 15.5627 25.4313 7.2444
Pt 15.3719 27.5542 5.57768
Au 13.6074 25.4814 9.44416
Au 13.5873 27.4898 11.478
Au 15.6124 25.536 11.3853
Pt 15.5872 27.4824 9.29779
Au 13.5775 25.5092 13.4706
Au 13.5195 27.4796 15.4605
Au 15.5244 25.4875 15.4333
Pt 15.5822 27.507 13.3926
Pt 13.428 25.5262 17.4916
Pt 13.395 27.4992 19.4105
Au 15.3907 25.4772 19.4292
Au 15.4334 27.498 17.4634
Pt 13.3448 25.4825 21.352
Au 13.344 27.4441 23.4099
Au 15.3524 25.4757 23.419
Au 15.368 27.4726 21.4031
Au 13.3154 25.5056 25.4886
Pt 13.3432 27.4993 27.4645
Au 15.3647 25.4788 27.4544
Au 15.3757 27.4847 25.4967
Au 13.3426 25.4721 29.4093
Pt 13.3943 27.4504 31.4287
Au 15.3601 25.4775 31.4474
Au 15.3736 27.4994 29.4195
Pt 13.4316 25.421 33.4267
Pt 13.4507 27.3977 35.3608
Au 15.4652 25.4442 35.3791
Pt 15.3884 27.4223 33.4297
Au 13.4832 25.3969 37.3392
Au 13.475 27.4445 39.3802
Au 15.5252 25.4362 39.4112
Au 15.496 27.4381 37.3806
Au 13.5599 25.4069 41.3668
Pt 13.6203 27.4204 43.4272
Pt 15.5321 25.4779 43.5048
Au 15.5345 27.4414 41.4407
Pt 13.5838 25.4576 45.3274
Pt 15.494 27.4373 45.3872
Pt 13.3887 29.4398 5.69383
Pt 13.5011 31.387 7.53702
Pt 15.4661 29.4743 7.41989
Au 15.3788 31.3906 5.35834
Pt 13.556 29.4414 9.45361
Au 13.5341 31.4225 11.4655
Au 15.5578 29.4394 11.3741
Pt 15.4997 31.4139 9.3583
Pt 13.5461 29.4579 13.4929
Au 13.4741 31.435 15.4741
Pt 15.4371 29.4806 15.4669
Au 15.5099 31.4644 13.4686
Pt 13.4189 29.4615 17.4649
Pt 13.3867 31.4137 19.4133
Pt 15.3314 29.4593 19.4152
Pt 15.3752 31.427 17.4506
Au 13.3625 29.4392 21.4106
Au 13.3723 31.4285 23.4865
Au 15.4036 29.4762 23.4752
Au 15.3912 31.421 21.4443
Au 13.3556 29.4281 25.4817
Au 13.3475 31.4224 27.4197
Pt 15.3891 29.486 27.4603
Pt 15.4143 31.4101 25.4862
Au 13.358 29.4601 29.4274
Pt 13.4223 31.4379 31.4513
Au 15.3931 29.4448 31.4549
Au 15.4091 31.4288 29.4636
Au 13.4314 29.4116 33.4054
Au 13.4483 31.4624 35.4139
Au 15.4526 29.4484 35.3992
Pt 15.4285 31.4321 33.4351
Au 13.4594 29.45 37.3623
Au 13.5065 31.4555 39.385
Au 15.5087 29.4298 39.392
Pt 15.4633 31.4631 37.3987
Pt 13.5743 29.4514 41.436
Au 13.5837 31.4653 43.3564
Pt 15.5334 29.3922 43.4648
Au 15.5439 31.4101 41.4148
Pt 13.5748 29.4026 45.2504
Pt 15.4758 31.381 45.264
Au 13.3445 33.4045 5.65722
Pt 13.371 35.312 7.60294
Au 15.4655 33.3646 7.38723
Pt 15.5422 35.5632 6.05323
Au 13.4625 33.4316 9.44891
Au 13.3978 35.5201 11.3734
Au 15.4735 33.4528 11.4214
Au 15.3802 35.5662 9.27903
Pt 13.4837 33.4165 13.4934
Au 13.5019 35.3956 15.4913
Pt 15.4476 33.3963 15.5049
Au 15.4354 35.3932 13.4574
Au 13.4564 33.41 17.4988
Pt 13.4448 35.3682 19.4962
Au 15.4233 33.4193 19.4659
Pt 15.4712 35.3991 17.5117
Pt 13.3902 33.3657 21.3942
Au 13.4016 35.3128 23.42
Au 15.4186 33.3619 23.4792
Au 15.4558 35.407 21.4485
Pt 13.3614 33.3641 25.4703
Au 13.4188 35.3488 27.4447
Au 15.4168 33.3912 27.4132
Au 15.4711 35.3871 25.4435
Au 13.3851 33.3602 29.4351
Au 13.4411 35.3825 31.4427
Pt 15.3981 33.428 31.4939
Au 15.435 35.4348 29.4475
Pt 13.4441 33.3964 33.4339
Au 13.4517 35.4035 35.4084
Au 15.4579 33.418 35.4168
Au 15.4531 35.4373 33.41
Pt 13.4768 33.4253 37.4272
Au 13.5073 35.3779 39.3929
Pt 15.4978 33.444 39.4163
Pt 15.433 35.4461 37.4569
Pt 13.5411 33.4433 41.394
Pt 13.5859 35.3293 43.2548
Pt 15.5562 33.3866 43.3552
Pt 15.5047 35.3747 41.3601
Au 13.6106 33.4226 45.319
Pt 15.5571 35.3792 45.0425
Au 15.2633 37.781 7.50615
Au 13.2846 37.6598 9.51547
Pt 13.4909 39.5067 11.6273
Au 15.3677 37.5239 11.4278
Pt 15.5052 39.5477 9.64164
Au 13.472 37.5086 13.4718
Au 13.4659 39.5224 15.4912
Au 15.4705 37.4677 15.534
Pt 15.3713 39.5921 13.5078
Au 13.5158 37.4043 17.5472
Au 13.5044 39.4022 19.5231
Pt 15.5535 37.4531 19.4989
Au 15.5093 39.4621 17.5501
Au 13.4867 37.3577 21.4636
Au 13.5735 39.3343 23.4618
Au 15.5522 37.4531 23.4497
Pt 15.574 39.4683 21.4759
Au 13.5107 37.3187 25.4144
Au 13.5382 39.2653 27.4311
Pt 15.501 37.4103 27.432
Pt 15.5918 39.4772 25.4584
Pt 13.4515 37.3483 29.4488
Au 13.4761 39.2981 31.4199
Pt 15.4573 37.3847 31.4488
Au 15.5466 39.3466 29.4124
Pt 13.4043 37.3694 33.434
Au 13.3292 39.3557 35.4761
Au 15.4221 37.4451 35.4483
Au 15.477 39.3511 33.4392
Pt 13.4212 37.3969 37.447
Pt 13.4749 39.2183 39.3831
Pt 15.4454 37.393 39.4601
Pt 15.4107 39.3527 37.5047
Pt 13.5358 37.2654 41.3315
Pt 15.4808 37.3199 43.2165
Au 15.2842 39.4508 41.4939
Pt 15.5178 41.4542 11.6078
Au 13.3197 41.5743 13.4308
Pt 13.5403 43.2604 15.6482
Pt 15.4468 41.4223 15.5507
Pt 15.4853 43.2888 13.6493
Pt 13.4269 41.4124 17.5409
Pt 13.4817 43.2725 19.4924
Au 15.5369 41.4595 19.5101
Pt 15.4308 43.3826 17.5365
Au 13.5751 41.3645 21.5324
Pt 13.5425 43.4004 23.5412
Pt 15.5647 41.5319 23.504
Pt 15.4754 43.4403 21.5181
Au 13.5861 41.3663 25.4704
Pt 13.5698 43.4478 27.389
Au 15.5762 41.4476 27.4352
Pt 15.4823 43.4858 25.4764
Au 13.5423 41.2934 29.3778
Au 13.5231 43.2561 31.4078
Au 15.5509 41.381 31.4134
Au 15.5237 43.44 29.4058
Au 13.4224 41.3222 33.4583
Pt 13.4829 43.2494 35.2698
Au 15.4113 41.3594 35.4563
Pt 15.5369 43.3724 33.3732
Pt 13.4628 41.1878 37.3498
Au 15.2586 41.3784 39.4831
Au 15.2613 43.3936 37.4301
Au 15.4623 45.3136 15.5386
Au 13.4572 45.2938 17.5885
Pt 15.3598 45.2124 19.5283
Pt 13.4689 45.1837 21.5206
Pt 15.4072 45.2947 23.5075
Au 13.4866 45.565 25.4913
Pt 15.4945 45.3264 27.4369
Pt 13.4812 45.1978 29.4388
Pt 15.4328 45.2285 31.4142
Pt 13.484 45.0399 33.2938
Au 15.367 45.2659 35.3345
Au 17.4033 7.44739 11.4423
Pt 19.6281 5.79293 11.5967
Pt 19.5383 7.62162 9.62014
Au 17.5391 5.57622 13.5448
Au 17.4731 7.46454 15.4893
Pt 19.5403 5.62963 15.473
Au 19.4631 7.54331 13.4975
Au 17.4567 5.36053 17.4672
Pt 17.4859 7.42388 19.4254
Pt 19.4229 5.52506 19.48
Pt 19.4712 7.34521 17.5009
Pt 17.4357 5.54914 21.3754
Pt 17.463 7.37848 23.357
Pt 19.3402 5.44413 23.2849
Pt 19.4333 7.36642 21.414
Pt 17.4237 5.47951 25.2688
Au 17.5103 7.18262 27.3984
Au 19.3598 5.16488 27.4252
Pt 19.4626 7.17801 25.355
Pt 17.4672 5.54332 29.5584
Pt 17.5281 7.43267 31.4395
Pt 19.4379 5.50162 31.5382
Pt 19.5228 7.22136 29.4816
Pt 17.5043 5.64873 33.4459
Pt 17.4947 7.59174 35.3466
Pt 19.4351 5.67347 35.3759
Pt 19.5044 7.44816 33.3704
Pt 17.5609 5.889 37.3053
Pt 17.5557 7.65275 39.3142
Au 19.4527 5.63564 39.3426
Pt 19.5397 7.55832 37.3505
Pt 19.5103 7.69254 41.2278
Pt 17.4377 11.6145 7.60888
Au 19.2183 9.38922 7.46932
Pt 19.4939 11.6121 5.92378
Au 17.3003 9.44689 9.44703
Pt 17.4414 11.4854 11.3883
Pt 19.3281 9.53356 11.4323
Pt 19.3662 11.5018 9.38192
Au 17.3956 9.46077 13.4341
Pt 17.4116 11.4641 15.4525
Au 19.4758 9.47296 15.5058
Pt 19.3568 11.4772 13.4414
Au 17.5157 9.47941 17.4648
Au 17.482 11.4633 19.4171
Pt 19.4639 9.30989 19.4511
Pt 19.4135 11.4529 17.4447
Pt 17.5107 9.34673 21.3887
Au 17.4618 11.4343 23.3849
Au 19.4609 9.29302 23.436
Au 19.4725 11.3571 21.4219
Au 17.4951 9.28187 25.4363
Au 17.4979 11.3894 27.4238
Au 19.4916 9.19101 27.4091
Au 19.4834 11.3372 25.4095
Au 17.5544 9.32128 29.4053
Pt 17.5605 11.4673 31.4126
Pt 19.5062 9.31799 31.3857
Au 19.4657 11.3788 29.4482
Pt 17.57 9.44352 33.3494
Au 17.501 11.522 35.4052
Au 19.485 9.47702 35.3546
Au 19.4842 11.4607 33.3331
Au 17.5004 9.52861 37.3957
Pt 17.3988 11.505 39.4047
Pt 19.4788 9.57367 39.3088
Pt 19.4379 11.5281 37.4141
Pt 17.5477 9.57808 41.2232
Au 17.3555 11.3641 43.4208
Pt 19.5471 9.60005 43.1947
Au 19.4427 11.5279 41.3784
Pt 19.5732 11.5881 44.9808
Au 17.4122 13.5098 5.61114
Pt 17.4632 15.517 7.52676
Pt 19.449 13.6463 7.49924
Au 19.363 15.4904 5.35893
Au 17.4678 13.5166 9.45991
Au 17.4722 15.5201 11.4334
Pt 19.4049 13.5124 11.4026
Pt 19.453 15.5432 9.42449
Au 17.4646 13.4442 13.42
Pt 17.4291 15.4214 15.3796
Au 19.4171 13.4333 15.432
Pt 19.405 15.4768 13.4215
Pt 17.4174 13.4587 17.363
Pt 17.4088 15.4201 19.3381
Au 19.4315 13.4754 19.365
Pt 19.3613 15.4272 17.3447
Au 17.4307 13.4939 21.398
Au 17.4497 15.4854 23.4136
Au 19.4773 13.4099 23.4225
Au 19.4385 15.4562 21.3812
Au 17.4675 13.479 25.3998
Au 17.4714 15.4723 27.4657
Au 19.4329 13.4331 27.4482
Pt 19.4339 15.458 25.4228
Pt 17.5052 13.5072 29.5053
Pt 17.4476 15.4564 31.4432
Pt 19.4443 13.472 31.4276
Pt 19.4224 15.4313 29.5058
Au 17.4655 13.4807 33.3898
Au 17.4499 15.4691 35.4526
Pt 19.4399 13.4763 35.3694
Pt 19.428 15.4324 33.3859
Pt 17.45 13.4755 37.4537
Au 17.4726 15.5201 39.4582
Au 19.4537 13.5024 39.415
Au 19.4498 15.4657 37.4254
Au 17.3929 13.4414 41.4548
Pt 17.5442 15.6114 43.3391
Au 19.5066 13.583 43.3379
Au 19.502 15.603 41.4453
Pt 17.4974 13.5862 44.9749
Au 19.4733 15.4533 45.5152
Pt 17.3754 17.4957 5.67876
Pt 17.4816 19.4953 7.40291
Au 19.5104 17.4532 7.31902
Pt 19.4556 19.473 5.55488
Au 17.5235 17.5192 9.42155
Au 17.4841 19.4036 11.4511
Pt 19.4757 17.4798 11.4168
Pt 19.5108 19.4392 9.29144
Pt 17.4643 17.4003 13.4239
Au 17.4659 19.3942 15.3745
Pt 19.4162 17.3862 15.3878
Pt 19.4521 19.345 13.4107
Pt 17.4353 17.368 17.3181
Au 17.3973 19.4744 19.4053
Au 19.383 17.4038 19.3412
Au 19.4242 19.4301 17.3645
Au 17.4055 17.4475 21.4142
Au 17.4163 19.4516 23.399
Pt 19.4158 17.4431 23.3903
Au 19.4267 19.4497 21.4045
Au 17.4534 17.4637 25.3907
Au 17.4301 19.4408 27.4581
Au 19.4223 17.415 27.4661
Au 19.4359 19.4508 25.3996
Pt 17.4378 17.3945 29.5146
Pt 17.3847 19.3733 31.4332
Pt 19.4119 17.3708 31.4425
Au 19.3834 19.4055 29.494
Au 17.4328 17.4293 33.4093
Au 17.4484 19.4184 35.4712
Au 19.4513 17.4541 35.4516
Au 19.4162 19.429 33.4126
Pt 17.4637 17.4913 37.4996
Pt 17.4993 19.4549 39.4844
Pt 19.4345 17.5547 39.4929
Pt 19.427 19.4646 37.513
Pt 17.4959 17.5893 41.4709