3871
Atoms. Timestep: 20930
Au 35.3065 19.3908 2.33742
Pt 19.5168 19.9483 39.5898
Pt 40.7869 20.1633 35.7644
Pt 26.8227 9.39943 30.3904
Pt 21.2454 15.9785 9.33153
Pt 34.8219 33.07 12.2528
Au 16.691 36.7556 8.67456
Pt 11.3437 31.4357 21.6998
Pt 30.1911 16.0912 27.5167
Pt 30.8217 31.0816 34.9759
Au 26.5797 40.676 43.4598
Pt 9.85353 35.1784 27.86
Au 17.544 42.3015 13.444
Pt 7.13304 22.9346 23.5701
Pt 26.1656 40.47 40.7544
Pt 30.886 42.5361 27.5276
Pt 34.36 39.085 28.0864
Au 44.3632 27.2215 16.2351
Pt 25.2889 33.6392 25.5968
Au 23.5443 42.48 36.8419
Pt 18.5904 16.6692 22.2879
Au 24.1231 45.645 25.21
Pt 32.598 30.1666 15.2719
Au 21.8433 15.4773 44.1874
Pt 19.1131 21.4696 19.9091
Au 15.6915 47.2363 25.2821
Pt 24.0515 32.3563 15.2726
Pt 24.7438 12.1268 27.8605
Pt 22.6258 30.4958 36.9106
Pt 12.3902 8.58479 19.0368
Pt 23.0255 34.2666 13.2181
Au 14.0463 19.5354 45.2827
Pt 23.6917 16.4439 41.9326
Pt 27.376 34.0593 23.8183
Pt 28.2938 20.721 13.8895
Au 35.4424 42.9213 26.5835
Pt 8.61167 28.9819 27.1367
Au 47.7543 20.3167 28.336
Pt 8.35886 13.3539 26.2429
Au 10.6802 18.8041 44.0118
Pt 17.2001 16.1214 38.6658
Pt 16.8672 32.4615 27.8708
Pt 20.0532 29.3571 26.6259
Au 29.6291 23.6331 1.39183
Pt 26.1455 31.434 24.0458
Pt 17.1313 11.7295 16.472
Pt 4.11152 19.0527 29.8693
Au 3.10438 28.7835 28.8364
Pt 15.7349 11.2801 27.9734
Au 22.3175 2.65581 18.8407
Pt 26.7751 40.9595 24.3592
Pt 5.99601 35.041 34.0126
Pt 17.0824 29.8602 43.4938
Au 7.49035 14.2099 38.0018
Pt 35.4013 30.1044 18.2083
Pt 17.5708 28.8096 25.6376
Pt 18.0899 36.6457 24.8982
Au 35.7189 32.5861 22.6717
Au 44.3069 30.5773 38.7657
Pt 36.1818 18.9517 17.4442
Au 32.5683 12.6885 6.44657
Pt 35.4557 36.8156 28.8553
Pt 24.4026 40.2846 25.5641
Pt 14.3478 37.951 21.262
Pt 31.1487 18.3339 41.231
Pt 10.8059 15.2455 34.2798
Pt 20.5271 36.6095 40.2631
Au 6.10367 17.6259 24.0036
Au 38.2796 29.8877 6.1255
Pt 23.938 16.3731 8.51859
Au 3.28755 23.9241 38.2571
Pt 33.2739 41.2045 26.5504
Pt 22.3186 20.3336 35.2332
Pt 36.2643 13.2503 36.5581
Au 21.3456 43.4323 38.3067
Au 13.1944 40.0816 19.4354
Au 16.5669 10.9329 31.3914
Pt 22.1514 10.4256 21.3246
Pt 21.9961 27.9664 37.7562
Au 31.4339 25.7849 16.9466
Au 20.5227 2.11616 21.0137
Pt 11.2869 25.1511 34.1282
Au 4.40517 23.6494 12.9358
Pt 12.9831 26.2131 16.3311
Pt 18.0657 16.47 35.3917
Pt 20.3056 14.7925 14.4757
Pt 37.4456 22.662 19.3845
Au 8.21727 18.5124 39.9337
Pt 22.629 8.2653 33.9359
Au 25.2809 14.1572 41.8349
Pt 25.6989 38.7928 27.4914
Pt 20.5156 26.24 39.0141
Pt 24.2818 16.1079 24.1665
Pt 32.5693 31.6309 11.8005
Au 17.166 6.46345 11.1519
Pt 11.4659 27.6463 9.26027
Pt 14.9077 28.0516 43.7038
Pt 6.24254 27.4002 25.8398
Pt 24.3606 30.6446 18.8841
Pt 21.8872 38.0545 42.3826
Pt 21.2396 19.7878 37.603
Au 35.2829 9.28734 15.7377
Pt 10.8806 18.9081 41.1249
Pt 35.7985 17.8977 19.8888
Pt 26.0666 33.144 13.5106
Pt 13.0305 13.7559 33.3727
Pt 32.6348 38.4935 32.5944
Pt 10.2118 10.1164 33.6374
Au 26.3983 21.9448 48.0395
Pt 14.4201 19.9964 11.9243
Au 46.1512 34.0997 35.615
Pt 24.7592 31.4382 38.1812
Au 40.8864 12.7158 23.6988
Au 26.2191 11.5123 39.0906
Pt 38.0614 20.5105 39.2697
Pt 11.874 36.3059 30.4804
Pt 12.9909 15.5383 10.5732
Pt 21.8709 13.9255 7.78397
Pt 24.2134 38.236 22.9584
Au 12.955 39.0493 16.6901
Au 35.3968 16.4019 44.0611
Pt 17.8733 17.4193 31.7806
Pt 27.4696 10.3152 32.8588
Pt 19.9485 20.5666 12.7183
Pt 14.2239 23.0543 24.7871
Pt 11.0766 33.4571 29.5633
Au 36.9363 22.4413 6.60172
Au 38.6541 35.5319 10.1529
Au 21.9807 35.9288 46.3057
Pt 13.5231 17.8255 20.0282
Pt 24.8165 40.06 13.6238
Pt 31.2995 27.5736 26.2506
Pt 37.4915 21.5401 41.687
Pt 29.8665 42.3692 30.0948
Pt 26.3886 30.0363 26.2552
Pt 11.0393 33.243 35.7382
Pt 10.1175 19.1338 13.6987
Pt 32.7633 32.3271 29.1362
Pt 6.63562 20.7053 29.809
Pt 23.9514 30.031 23.1092
Au 2.77504 28.0619 34.8212
Pt 28.5965 28.3608 27.1048
Pt 26.9045 24.7891 4.39964
Pt 19.7236 11.5451 34.5293
Au 6.08637 23.1151 38.9562
Au 33.9175 18.8997 5.46492
Pt 14.4066 7.01294 18.4891
Pt 25.9491 21.9994 17.476
Pt 6.25301 24.7182 29.6331
Au 16.7786 13.2858 42.5048
Au 42.8316 33.1742 12.9638
Pt 14.3687 27.2479 41.2553
Au 27.637 26.0379 45.8155
Pt 19.2073 29.5201 16.4168
Pt 25.9292 38.582 32.2871
Pt 34.9053 44.7968 24.3128
Pt 26.4455 35.222 32.6377
Pt 15.7545 13.5698 31.6096
Pt 28.9167 31.5338 46.3438
Pt 9.95416 24.0752 12.1369
Pt 18.8069 29.3779 45.4096
Pt 27.4407 16.1417 32.7008
Pt 28.1998 22.5463 4.30331
Au 7.70768 6.45193 24.2114
Au 32.0639 45.7304 33.8424
Pt 12.1987 18.0453 31.6331
Pt 16.1592 29.7047 18.9559
Au 3.3236 26.7551 16.1083
Pt 12.9559 14.3382 28.0486
Pt 23.26 40.0949 20.9385
Au 38.8183 19.0916 25.9324
Pt 22.9395 13.9885 28.1697
Pt 5.58282 32.5314 30.1402
Pt 30.6473 26.4614 21.5125
Au 19.3366 39.2197 43.9913
Au 15.7525 6.55976 21.7042
Au 17.2909 45.4027 29.8712
Pt 16.6966 25.13 18.6724
Pt 34.6708 39.7736 15.6009
Au 44.6891 34.3872 14.6115
Pt 28.9074 11.1295 30.7369
Au 25.3275 5.31811 12.7369
Pt 29.3462 15.5704 38.9967
Pt 13.7202 31.919 22.9832
Pt 17.2428 33.1684 16.2941
Pt 21.3829 24.6488 40.9132
Pt 34.7614 23.475 26.0511
Pt 20.3537 20.0314 7.63712
Au 10.122 9.98856 19.3342
Pt 12.3956 35.5784 20.3643
Au 40.1696 21.5525 40.8871
Pt 13.0098 11.3477 37.3033
Pt 30.5039 30.7989 22.8706
Pt 21.7276 25.822 35.7728
Pt 21.8265 9.12027 17.6246
Au 37.0328 14.4623 17.1073
Pt 25.5335 20.3125 23.6565
Pt 5.83161 17.3253 19.8609
Pt 23.8221 22.5309 15.8798
Pt 22.7399 35.2673 38.9993
Pt 14.0021 9.79754 25.982
Pt 20.7561 22.2755 25.9355
Pt 31.9655 33.7485 15.9011
Pt 8.99817 34.1473 37.5014
Pt 15.0023 38.1682 31.612
Pt 6.17353 18.2264 17.1116
Pt 18.984 22.7198 7.49194
Pt 21.6479 27.9793 15.7313
Au 29.7248 15.4682 19.4548
Au 10.8736 38.9307 25.8272
Au 44.4447 22.14 35.142
Pt 10.7125 32.7396 14.4842
Pt 25.9017 20.5229 3.22679
Au 30.2789 45.5609 21.138
Au 39.5197 13.05 16.8231
Pt 22.2501 24.3166 14.0209
Pt 19.0072 18.1238 41.6931
Pt 11.5696 12.7944 29.7887
Au 19.4912 11.075 39.1808
Pt 34.9425 23.1139 36.8879
Pt 20.832 28.6026 46.9337
Pt 13.1809 7.21413 25.6398
Pt 33.6562 21.6692 33.4425
Pt 29.2474 37.087 38.1646
Pt 30.5924 35.9074 23.4721
Pt 20.3707 21.2253 10.0979
Pt 23.2999 19.5874 41.9932
Au 27.4484 41.1273 8.93922
Au 32.5544 21.4424 44.2146
Pt 36.1712 18.2358 38.9303
Pt 20.2273 34.0429 9.34903
Au 17.367 46.8187 22.9383
Pt 27.4025 10.4326 25.0624
Pt 15.4475 13.7793 28.6043
Au 15.2114 46.3265 17.7342
Pt 29.8361 29.7613 14.9918
Au 1.35236 21.5637 23.8073
Pt 7.6828 24.1817 36.7878
Au 4.42157 26.5158 27.9297
Au 9.14966 9.67304 21.8961
Pt 9.71572 16.7413 14.7846
Pt 29.5765 27.3805 19.0481
Au 42.2215 34.1289 41.3905
Pt 26.5051 33.9869 21.274
Pt 15.3916 17.7844 17.9431
Pt 21.5747 41.9126 28.4605
Pt 24.835 41.8745 15.7837
Au 23.103 12.2585 5.9732
Pt 17.9108 19.0008 34.6791
Pt 18.4371 27.7507 39.3696
Pt 8.99146 37.4693 26.9597
Pt 28.3347 22.4611 20.3565
Au 37.3539 36.673 42.8115
Pt 15.8627 32.4234 24.9461
Pt 34.456 41.6137 35.6593
Au 38.2724 16.8296 20.94
Pt 23.8023 13.5414 15.4261
Au 14.1506 34.0419 11.2729
Pt 17.4553 19.2381 16.2632
Pt 18.9512 25.7628 41.5593
Pt 20.5554 16.1025 6.62469
Pt 22.1636 15.5798 16.4746
Pt 24.9089 18.3372 25.3441
Pt 22.938 29.7424 39.4557
Pt 34.5589 40.673 33.1764
Au 40.6052 14.8824 35.7345
Pt 11.9755 25.8179 30.441
Au 29.0248 47.1685 30.1269
Pt 31.749 26.5819 46.278
Pt 28.2831 21.1577 11.28
Au 23.6512 20.0807 1.3276
Pt 5.88741 27.7212 16.2091
Pt 29.0314 34.7218 9.46149
Au 30.5834 19.5245 3.85723
Pt 19.6309 43.7272 29.3352
Pt 10.606 30.3855 30.9788
Pt 23.8931 32.6593 35.3665
Pt 22.6276 27.088 6.91907
Au 4.79476 31.1815 32.5418
Au 6.12406 8.37235 25.3494
Pt 16.8133 8.06923 19.5206
Pt 14.1764 9.23397 31.9141
Pt 16.336 21.2545 24.4808
Pt 28.6127 25.6276 43.1165
Au 38.0753 32.4919 21.2413
Pt 16.3862 13.1295 34.3542
Au 36.5095 19.2284 27.4575
Pt 12.4743 16.2078 14.8601
Pt 15.9028 33.0395 19.0458
Au 17.2525 45.7025 15.8662
Au 37.025 39.2724 29.1948
Au 40.3942 42.9254 17.7637
Pt 27.3242 21.693 6.80002
Pt 18.385 31.4226 25.8966
Pt 13.1918 14.3188 12.9193
Au 30.6149 37.3377 46.282
Pt 32.1723 22.3723 1.43642
Au 33.6249 16.0867 20.031
Pt 4.59776 28.3312 21.3867
Au 42.5718 33.4463 29.2602
Au 40.7989 30.5917 25.5318
Pt 34.0968 34.6166 29.0775
Au 17.842 4.32904 27.6249
Au 34.5682 36.0374 9.13485
Au 35.4279 46.8635 22.4379
Au 16.5461 11.5356 40.395
Au 4.30198 31.5934 24.9816
Pt 30.8762 24.6754 37.9444
Pt 12.9003 20.5394 36.333
Au 34.0976 10.5099 25.0941
Pt 21.472 18.2441 5.15733
Au 18.0682 5.04748 13.3
Pt 18.06 21.715 43.8084
Pt 18.8835 33.9593 28.8239
Au 6.55699 38.7101 27.4658
Pt 18.2353 27.6477 12.0531
Au 7.99472 15.4141 40.6172
Pt 14.4979 9.10107 14.0753
Au 46.8398 27.0041 17.8556
Au 44.3371 34.291 19.7172
Pt 27.2059 24.0149 18.6261
Au 40.8184 10.8483 15.8186
Au 38.9482 14.3555 19.3074
Au 40.5971 34.0726 21.6526
Pt 24.9927 22.6045 27.2707
Pt 7.62724 30.9174 31.1062
Pt 28.3262 31.1315 27.4619
Au 38.4847 26.3283 39.7187
Pt 16.2154 36.9865 37.6897
Pt 35.1628 16.3921 17.6436
Au 3.71334 17.6345 17.7992
Au 27.3299 14.0397 8.26567
Pt 7.64428 37.3 31.2382
Pt 13.6101 38.341 35.1624
Au 8.05275 25.1471 43.449
Pt 14.598 19.2094 32.1696
Pt 9.46028 37.8813 35.27
Pt 6.71518 21.0034 21.6328
Au 10.9002 8.11473 14.7996
Pt 16.9773 12.9932 20.0517
Au 19.5275 17.5639 1.28055
Au 17.399 42.0471 24.9535
Au 7.54906 30.628 10.4041
Pt 11.7994 36.2981 17.5157
Pt 21.2088 43.569 18.5881
Pt 13.4813 17.3189 12.5655
Au 41.1221 32.3741 11.0451
Au 33.8714 43.5071 33.7808
Au 44.4476 35.6219 30.5749
Au 6.54504 32.121 13.0792
Au 13.3563 3.94723 22.1497
Au 21.4641 48.3063 27.8883
Au 35.908 15.0142 25.4003
Pt 12.743 19.237 38.773
Au 35.71 25.95 40.699
Pt 23.3549 15.1206 6.04852
Au 30.9924 14.944 43.1535
Pt 27.9877 22.1403 27.3775
Au 19.6094 9.26554 7.80155
Au 1.47042 24.1173 24.5931
Pt 8.80532 14.2107 18.4806
Au 33.6436 38.3196 17.7158
Au 33.3049 22.6029 12.4943
Au 31.3543 43.6056 32.1336
Pt 19.9077 13.4116 26.0103
Pt 14.8603 6.8202 15.5633
Au 23.2675 49.4249 21.5811
Pt 13.9565 31.2105 11.8166
Au 4.14826 13.4273 29.4308
Pt 21.8514 10.3174 35.3823
Pt 23.3796 18.9923 27.5912
Au 3.36033 35.336 34.209
Au 23.8653 17.541 44.3612
Pt 21.2575 36.2471 14.3569
Pt 11.9126 33.9629 22.5644
Pt 31.1685 41.5981 24.765
Pt 19.1219 33.0696 11.5334
Au 16.5432 8.90145 16.3818
Au 44.1021 31.8408 10.4416
Au 43.5548 29.8752 22.6099
Pt 8.43747 26.3374 12.4898
Au 29.6522 37.9874 12.8738
Pt 26.4545 23.5713 29.2791
Au 38.1044 30.4809 45.8049
Au 6.15807 23.9788 41.8351
Au 45.1544 30.8966 20.4091
Pt 33.5769 31.8586 17.286
Pt 7.94781 10.093 29.3907
Au 31.6629 17.0883 8.73505
Pt 28.5231 30.1568 35.6814
Au 38.9081 6.71854 30.0993
Pt 35.8648 25.9943 5.03125
Au 20.4287 41.5794 40.6378
Au 46.6115 17.2214 23.7354
Au 10.7023 35.2087 13.4269
Pt 16.1732 22.8799 15.9022
Au 9.4393 5.66527 28.245
Pt 19.7199 38.6128 23.8325
Au 13.9484 41.7316 17.4787
Pt 35.1756 16.7862 27.4312
Au 41.0386 24.6318 30.2147
Au 37.033 7.28066 16.0357
Pt 22.0243 31.0497 27.3327
Au 26.0842 49.7864 26.3456
Au 47.5821 24.0449 14.3364
Pt 19.075 36.9158 42.5406
Pt 11.2818 25.6959 14.2508
Pt 27.7859 19.5413 16.3049
Pt 28.903 18.1233 39.7659
Au 46.0486 11.3828 31.4454
Au 27.7038 15.947 2.77039
Pt 29.9979 24.8517 45.2975
Au 7.51612 22.2731 43.5312
Pt 16.9181 18.5855 25.2847
Pt 28.8906 23.6827 11.3627
Pt 26.1803 11.5324 12.2358
Pt 10.1757 17.847 33.2453
Au 19.7478 30.2746 7.27265
Pt 23.7462 15.4299 21.6501
Pt 32.6336 33.8578 23.0171
Pt 21.4325 29.5202 17.8813
Au 40.7923 9.92884 22.5038
Pt 7.2272 30.8956 34.0567
Au 4.72959 36.5954 32.1804
Pt 35.5644 20.8052 38.1997
Au 39.1283 19.0376 31.5324
Pt 35.1427 42.2089 23.9485
Au 38.7038 23.6056 28.721
Au 26.0005 15.2779 14.9883
Au 8.00517 39.476 25.1116
Pt 19.3279 13.6911 7.19963
Au 22.2511 5.73251 24.3215
Pt 18.7174 40.6284 19.826
Au 38.51 25.1835 31.0593
Pt 11.0147 24.9465 26.2353
Au 44.6829 28.6827 27.8462
Au 43.7206 14.6281 29.4525
Pt 27.8591 36.1888 27.9963
Au 33.8766 19.3066 42.8513
Au 42.9815 11.56 22.2894
Au 8.27784 34.0805 14.0431
Au 43.4567 35.2817 35.9712
Au 28.9757 20.8109 47.6533
Au 46.5309 24.6808 11.9331
Au 41.3297 38.6938 21.254
Pt 29.0114 25.2598 33.9716
Au 20.3667 23.607 5.01228
Pt 11.7391 8.90064 27.0877
Au 27.4335 14.6184 45.391
Pt 22.0933 18.0357 7.77133
Au 23.2433 6.37437 32.1304
Au 36.2612 22.9795 30.4653
Au 12.5771 33.1595 8.98257
Au 11.6377 5.85101 32.6148
Pt 18.3174 8.97384 24.8085
Pt 15.6905 23.7766 38.6484
Pt 18.2983 13.746 22.5334
Pt 24.1193 16.2752 27.07
Pt 23.5886 36.3263 44.0216
Pt 27.2586 37.112 20.4268
Pt 21.058 22.1296 39.9406
Au 31.8987 43.4204 35.7976
Pt 12.6177 18.9724 34.2025
Au 3.32119 26.8606 38.2533
Pt 20.6763 28.7003 11.391
Au 26.387 47.618 16.3664
Au 45.6332 21.7487 32.3366
Au 37.9542 25.4317 19.0097
Au 36.1071 16.8125 6.22818
Au 31.8874 18.3866 16.0496
Pt 35.328 36.307 40.6213
Pt 15.2021 34.5403 13.9456
Pt 35.3368 37.2651 26.1824
Au 33.8442 34.0174 45.5412
Au 29.8545 41.4575 35.6991
Au 27.7504 36.7677 46.1201
Au 32.6227 23.2572 40.9599
Au 12.0693 30.6064 9.7974
Pt 34.4641 25.9271 27.2396
Au 37.4163 18.849 34.0073
Au 31.4204 10.1771 24.438
Pt 33.654 23.3392 31.3031
Pt 17.4018 28.0413 35.0273
Au 41.8953 14.5225 16.403
Pt 12.6208 34.7415 15.4082
Au 16.3695 30.4851 46.3121
Pt 27.0071 24.5189 26.6007
Pt 24.2624 35.6143 21.473
Au 44.6885 33.1129 25.5105
Au 45.5885 24.3303 36.3963
Au 15.7527 33.3083 45.8954
Pt 35.5557 33.5422 40.8561
Pt 29.6733 19.8947 20.5292
Pt 20.736 43.0903 31.6017
Pt 27.1585 27.9119 19.9857
Au 12.6024 14.6428 40.5993
Au 21.3279 32.9104 47.6794
Au 38.3829 8.57032 18.0839
Pt 31.1022 44.4538 23.619
Pt 18.0831 8.00433 21.9566
Pt 7.37485 23.882 16.1899
Pt 24.4979 42.8811 24.8007
Au 12.379 23.9996 45.2148
Au 29.1298 24.1713 29.2023
Pt 11.1133 17.3603 35.9749
Au 4.41253 32.7282 34.8198
Pt 32.0163 20.176 28.938
Au 43.7497 26.5067 8.96946
Pt 22.2059 7.58499 29.4871
Au 21.1134 5.33553 30.7516
Pt 34.22 32.9807 38.639
Au 37.8809 16.5843 26.7433
Au 33.3979 42.4017 12.2791
Au 15.025 8.31199 11.5979
Au 23.9048 10.0808 39.3718
Pt 12.8485 23.0053 20.4457
Pt 13.7055 21.7242 15.4716
Au 34.8231 21.962 42.6519
Pt 9.09514 31.2968 20.133
Au 27.012 4.81699 18.0944
Au 29.4924 41.8028 13.2813
Au 44.8537 21.9998 8.06602
Au 10.2887 14.6145 42.1077
Pt 13.222 28.9439 39.5561
Pt 29.8571 27.0985 39.0656
Au 31.051 38.6038 9.9849
Pt 21.3024 21.2285 21.541
Pt 37.3426 29.586 13.7685
Au 29.4275 26.121 47.8252
Pt 6.91375 24.9252 32.4242
Pt 28.4862 9.60622 17.79
Au 26.8588 7.63817 11.8136
Au 6.1125 13.3423 35.5986
Au 21.6252 6.42924 26.9774
Pt 11.5068 22.199 10.5188
Pt 19.564 36.2125 22.4445
Pt 23.2646 13.3983 18.1325
Pt 23.1361 41.9969 30.6779
Au 15.2101 25.1235 45.4233
Pt 10.0732 36.4757 19.5364
Au 28.7717 32.2665 4.58519
Pt 11.0165 17.9395 25.0395
Au 42.6027 41.5376 35.8487
Pt 19.2191 23.4608 34.2641
Pt 38.3222 17.1461 35.8955
Pt 23.2677 25.246 16.389
Pt 24.3546 40.5983 18.3279
Pt 18.6495 23.5886 29.9736
Pt 27.7106 26.7945 25.2015
Pt 7.93692 29.6797 12.9594
Au 7.16669 39.3797 35.0994
Au 38.8387 42.6285 20.1227
Au 16.956 3.60409 25.0374
Pt 24.8108 7.41831 30.2312
Au 34.9625 14.1875 6.54399
Pt 25.2152 20.068 31.7592
Pt 17.4486 10.516 18.806
Pt 5.54758 19.9358 19.1794
Pt 11.8388 9.06509 21.6777
Pt 36.3348 24.8686 38.3882
Pt 23.9493 20.277 21.2915
Pt 26.4598 17.9703 38.2453
Au 28.4195 39.8219 37.4903
Pt 12.8746 23.8156 8.85237
Pt 19.628 25.1001 32.1903
Pt 12.9404 20.9 31.207
Pt 14.7108 11.4794 33.3307
Au 31.1252 44.9437 16.3116
Au 3.49308 27.0374 18.922
Au 27.0906 28.7483 15.285
Au 40.4866 35.6244 26.9419
Pt 26.0071 36.265 30.2513
Au 38.9974 11.7237 31.3959
Pt 19.9245 28.676 29.2441
Au 32.7814 30.1266 48.0052
Pt 34.1706 27.465 6.59751
Pt 33.569 19.1441 38.1049
Pt 20.8167 39.3543 16.827
Au 41.2468 39.6562 23.9423
Au 10.3801 26.0055 44.4911
Pt 14.3806 17.859 15.5336
Au 12.3539 41.1915 35.01
Pt 32.5569 26.8537 23.9671
Pt 29.3091 24.0756 22.2743
Pt 13.0857 8.54923 16.4546
Pt 13.1188 13.2891 23.2295
Pt 17.1367 13.4899 25.1159
Pt 12.2469 20.2049 20.2108
Pt 11.0282 14.7983 16.7892
Pt 29.0858 39.0703 20.2003
Pt 34.0864 27.9648 13.4515
Pt 22.8791 15.8131 19.2084
Au 28.0603 10.3359 37.1845
Pt 17.5624 16.0768 24.9158
Pt 26.4001 29.3726 22.003
Pt 27.8722 31.435 15.0323
Au 7.19801 28.6048 8.46352
Pt 27.3364 12.3443 21.3725
Au 31.9035 17.5789 23.0873
Pt 9.54907 31.2522 28.7572
Pt 20.2433 12.3999 30.6622
Pt 39.6034 33.2989 39.7672
Pt 6.91628 25.5867 23.9899
Au 46.7242 35.5116 18.6594
Pt 9.81135 25.1641 17.0285
Pt 16.5474 23.6033 6.96257
Pt 24.0102 33.7585 32.4337
Pt 8.11739 18.0045 26.0237
Au 42.999 19.204 22.6447
Pt 7.42509 20.1845 24.1084
Pt 16.1634 30.5012 16.3678
Au 44.3433 13.5588 17.2311
Au 42.2384 28.7996 37.2006
Pt 28.507 14.5835 26.0103
Pt 32.1801 41.4274 20.1289
Pt 34.5449 35.2245 42.8458
Pt 22.2921 7.8764 19.9981
Pt 30.7533 13.1863 38.5789
Pt 20.701 11.7846 28.072
Pt 27.0065 21.0011 42.686
Au 18.0456 43.9302 31.9894
Pt 13.9931 28.8539 9.13726
Au 4.79292 15.6461 16.1719
Pt 29.0295 19.8557 35.1733
Pt 29.1901 39.5384 24.5923
Au 9.61347 9.9076 16.6368
Pt 23.2821 11.7022 8.743
Au 28.7223 44.2248 14.241
Pt 12.8992 31.4921 30.5699
Au 28.1212 16.3781 13.5324
Pt 19.2827 29.5967 23.9108
Pt 34.0857 32.8861 24.9423
Au 42.8381 32.3732 21.1176
Au 32.8281 12.3181 36.8154
Au 9.85047 23.3126 44.4983
Au 29.8765 13.2016 7.70031
Au 11.2901 25.4572 7.10405
Au 4.99308 36.3804 27.3527
Au 4.13737 22.5676 40.5919
Au 31.0901 9.37504 21.9065
Pt 19.7328 12.4076 20.5978
Pt 28.9205 30.7939 32.8028
Pt 28.0684 37.7624 18.0147
Pt 32.8253 43.5285 25.4438
Pt 13.2665 29.1264 27.4438
Au 9.94309 30.5403 42.4377
Pt 24.6863 13.4483 30.2836
Pt 22.7247 21.1219 30.8153
Pt 7.31479 13.3437 33.0566
Pt 8.71254 24.4878 28.2712
Au 11.9659 12.7968 10.1273
Au 23.4258 40.3999 41.3779
Pt 13.2953 34.7553 28.8903
Au 39.4322 37.4635 41.2709
Pt 25.0913 6.4917 19.3441
Pt 25.5181 35.5956 19.1527
Au 41.4482 25.9202 12.9645
Pt 33.3486 35.6429 14.6199
Au 20.805 5.14588 14.0345
Pt 18.7085 22.0147 16.7149
Au 43.3758 15.913 11.7077
Au 11.4867 4.69121 29.9808
Pt 25.5022 20.7106 38.3159
Pt 15.325 13.2145 15.1954
Pt 23.0775 23.6348 25.7643
Au 33.4564 42.0889 31.1905
Pt 24.4643 27.5427 32.6543
Au 37.6475 43.0103 24.9681
Au 40.784 19.7523 38.5872
Au 36.8032 16.7173 15.3935
Pt 26.7264 18.5279 44.7708
Au 8.56103 25.023 7.95198
Au 2.06441 17.7566 31.0331
Au 35.1636 14.208 14.9614
Au 29.1026 44.1715 39.8745
Au 21.128 26.2279 4.92134
Au 40.0264 29.2977 28.069
Pt 19.7012 22.01 37.6513
Au 6.8802 28.431 32.3409
Pt 15.7972 7.99496 25.0841
Au 30.0255 13.9855 17.1165
Pt 21.069 8.37731 25.2823
Pt 8.48559 23.1091 26.0635
Pt 29.8217 18.5991 28.6238
Pt 19.2492 18.6829 11.1449
Pt 25.9131 24.5075 16.4939
Pt 26.2918 16.2907 43.4754
Pt 36.9265 34.1297 43.2129
Pt 8.12565 28.4975 19.983
Pt 38.7727 26.998 13.8406
Pt 28.5717 6.68841 26.1155
Au 28.2048 14.8639 5.688
Pt 24.527 40.612 34.8821
Pt 21.5408 28.5328 8.93176
Pt 26.6557 19.3815 36.0759
Pt 25.9108 27.9233 44.8462
Pt 35.6926 34.7015 14.1961
Pt 23.0417 28.9685 42.0467
Au 44.4752 25.9305 27.5526
Au 29.0412 28.4795 48.9934
Au 16.2045 3.88107 29.8581
Au 41.0731 19.0727 41.2605
Au 33.4708 31.3374 7.36711
Au 23.8584 33.041 6.58884
Pt 22.7073 12.1946 26.1277
Pt 30.2657 20.5067 26.7437
Pt 16.4977 20.3102 27.2948
Pt 13.5226 33.9546 24.6743
Au 2.79002 28.9546 23.5806
Au 32.7978 8.1813 14.6986
Pt 30.5464 36.2455 43.9008
Au 36.5195 19.9948 10.2952
Pt 16.3264 18.6373 29.7786
Au 26.1214 31.6486 4.47926
Pt 29.8624 13.0457 20.8156
Pt 32.5514 24.5936 20.3181
Pt 17.3205 42.5877 20.6975
Au 13.568 45.4183 25.0943
Pt 26.0673 10.127 16.5048
Pt 20.048 42.6275 21.02
Pt 26.3763 8.03065 26.222
Au 44.8654 13.5738 22.4515
Au 25.6872 8.9711 37.6376
Pt 29.5588 30.9195 11.3698
Au 30.5119 5.02805 22.2438
Pt 33.5849 17.9581 40.4268
Pt 10.3835 17.3875 21.5655
Au 4.34497 21.1081 38.2517
Pt 18.873 21.849 32.0266
Au 25.1833 49.7039 19.3987
Pt 15.8854 12.412 22.8791
Au 2.3528 19.2627 24.6422
Au 17.5879 40.561 40.1567
Au 43.766 14.6334 14.2145
Au 36.6248 12.1401 25.8768
Au 32.1547 34.112 43.3288
Au 17.0536 13.6792 10.022
Au 5.29671 29.7762 30.3447
Au 36.0611 22.2191 11.9682
Pt 32.8438 36.562 27.7076
Au 43.7519 24.9217 39.1682
Au 10.274 14.3485 11.4035
Pt 13.5413 17.0081 24.4412
Pt 20.3033 31.5467 45.5598
Pt 28.6854 37.9182 22.7141
Au 19.8336 8.68864 34.3048
Au 25.0467 17.7437 2.12635
Au 43.8825 37.5529 14.4388
Au 47.8514 27.6263 36.8145
Au 49.3816 26.6088 16.8142
Au 38.6341 20.2473 8.43685
Au 42.5895 33.2532 16.0134
Au 9.12968 32.0847 12.2221
Pt 14.4798 33.1526 27.1888
Pt 32.8239 42.7928 22.6184
Au 11.036 15.1778 8.88665
Au 37.2858 8.89645 13.8342
Pt 19.4932 36.0773 30.3442
Au 45.7669 16.7882 30.4839
Au 38.3032 13.7746 24.3505
Au 38.7553 31.5365 15.5165
Pt 31.3215 25.1413 30.8828
Au 0.819272 20.5962 26.5148
Au 29.4517 16.7589 24.7667
Au 29.8127 25.2993 13.7185
Pt 23.0577 26.9247 40.214
Pt 11.5601 8.60114 31.9491
Au 43.7148 32.732 34.589
Au 39.8485 31.54 37.8073
Pt 11.8326 23.5484 23.9287
Pt 11.4444 38.8163 33.8667
Pt 6.90246 27.4766 22.1664
Au 7.35747 35.6276 16.1429
Pt 18.5532 36.369 27.5526
Au 32.6931 19.8244 24.8127
Au 2.4798 16.8061 28.3768
Au 40.719 15.7038 32.9922
Pt 17.3218 21.2206 29.82
Au 38.6184 43.481 35.2713
Au 34.6043 13.817 18.4654
Au 16.6553 39.4062 33.4467
Pt 16.836 16.6493 15.8515
Pt 28.0167 23.288 44.2293
Pt 23.6808 18.4977 30.2287
Au 12.9052 26.7846 45.3598
Au 38.354 40.6333 34.6331
Pt 26.1986 24.1773 6.92243
Au 18.6447 6.42067 32.9992
Au 7.28014 6.40181 26.8412
Au 10.8048 4.86919 21.411
Au 14.3672 19.4687 7.06733
Pt 34.6494 24.891 2.79385
Au 23.7961 37.724 8.74476
Au 42.7659 18.0304 20.0258
Au 34.1115 38.8156 40.3928
Pt 30.9514 32.8109 41.0714
Au 42.7897 13.7459 37.0868
Au 45.731 31.2329 27.1584
Pt 26.4694 23.8381 35.0133
Pt 22.3275 32.4654 38.8646
Au 42.2586 38.9577 30.966
Pt 22.1629 33.025 10.9084
Au 15.303 5.66771 12.8883
Au 28.0541 24.8199 38.9772
Au 3.42058 24.1752 15.4322
Au 32.0122 10.7555 34.6551
Au 41.1497 13.6984 31.0434
Pt 16.8901 19.7481 19.0129
Pt 24.7577 25.2337 27.7712
Au 4.15027 35.1878 29.7143
Pt 23.6726 46.5906 21.3519
Pt 17.4023 21.7039 39.1783
Pt 27.1805 21.1526 45.4837
Pt 19.8096 30.7468 21.6472
Pt 25.0001 21.5871 41.0354
Au 10.4839 16.493 40.1854
Pt 25.4642 18.9737 19.5228
Au 39.1066 20.8421 28.4572
Au 27.8768 41.8751 15.5453
Pt 22.143 29.4104 32.5443
Pt 33.5976 22.3153 23.9191
Au 7.55094 7.23241 29.5579
Pt 32.8849 15.5112 27.2068
Au 8.19759 11.4416 34.9859
Pt 10.8735 19.4345 29.73
Pt 25.7216 36.134 9.91326
Pt 15.505 30.2694 41.4107
Pt 22.1208 37.1171 29.9547
Au 12.116 42.9506 20.332
Au 4.6341 24.052 23.5389
Au 33.9385 8.13103 23.3839
Au 17.0968 37.5054 44.4886
Au 37.0546 40.4733 20.0752
Au 34.4748 31.2082 45.8454
Pt 15.1711 20.2004 38.1735
Pt 4.22533 25.7846 21.554
Au 44.0419 37.5908 37.5334
Pt 15.6436 20.0927 9.48927
Au 40.7326 31.9096 41.9499
Au 48.6003 30.7704 26.9037
Au 22.6871 43.0347 40.7427
Au 36.5438 9.48039 24.3636
Au 42.2599 37.7117 26.0468
Pt 11.897 27.0691 42.6364
Au 11.8704 39.6258 28.5258
Au 18.2592 15.1288 41.1463
Au 27.4511 42.6312 35.3298
Pt 23.3554 36.6959 16.3015
Pt 6.62854 16.2053 36.4546
Au 44.7827 24.0742 21.0464
Pt 31.4438 17.4964 38.5345
Au 50.1089 25.6625 24.6259
Pt 32.553 33.8497 26.9199
Pt 16.177 22.9801 26.6882
Au 49.696 25.349 27.3331
Pt 14.7921 9.72011 18.3186
Au 30.4294 19.796 12.1823
Pt 32.4116 13.3262 41.4287
Au 3.28498 22.3606 17.4617
Au 13.3012 40.6906 22.0971
Au 40.2199 31.917 28.824
Au 17.4651 34.1383 9.17923
Pt 10.0933 34.534 24.6629
Au 18.6219 2.56954 23.0951
Pt 38.6723 39.1868 22.0631
Au 34.9172 13.6119 33.8554
Au 34.019 24.7592 42.7115
Pt 21.1934 39.031 14.2951
Au 39.9091 24.7671 15.0577
Pt 23.7877 37.7605 25.5525
Pt 24.8119 21.6235 10.1574
Au 12.9396 7.02741 30.3407
Au 19.8369 45.1752 16.5759
Au 45.2224 38.5013 30.6118
Pt 25.7827 27.8071 12.9285
Au 32.7532 5.67543 23.8076
Au 16.5362 36.4844 22.5036
Au 21.5987 43.613 12.7419
Au 46.8982 30.6554 31.1845
Au 36.527 10.5757 31.4542
Pt 13.7432 39.9242 33.0203
Au 21.858 38.3629 45.0331
Pt 12.9988 38.3648 23.5736
Au 32.7395 40.8008 10.1741
Au 45.3461 13.1459 33.3606
Au 41.1949 36.902 37.4098
Pt 12.1065 30.4478 37.5824
Au 40.1483 27.439 30.5732
Pt 24.1725 31.2016 32.8926
Pt 30.7834 29.6213 28.4765
Pt 27.3418 34.7785 11.4736
Pt 33.7313 19.1376 27.1649
Pt 25.287 29.7954 11.232
Pt 18.0543 37.3507 35.2134
Au 8.66872 12.797 13.3276
Pt 13.1017 16.4889 33.5974
Au 6.45587 15.8373 26.1602
Au 33.0783 8.87993 17.4571
Pt 22.1907 39.6992 24.0927
Au 39.685 26.8903 20.4301
Pt 35.3154 32.4613 30.0771
Au 8.73116 22.1032 10.1953
Au 27.1486 13.0035 32.4273
Au 6.75763 8.42386 22.4458
Pt 15.1016 21.874 40.6476
Au 45.4982 25.3683 24.9559
Au 7.20929 32.0653 38.7176
Pt 25.3522 13.5659 19.8762
Au 27.5143 39.9114 13.7037
Au 27.6634 4.16371 30.063
Au 43.8692 29.5522 34.8211
Au 47.26 21.3611 13.611
Pt 27.3759 18.4568 23.9664
Au 35.923 28.8486 45.6002
Au 24.7381 11.5382 41.6016
Pt 22.1678 27.6569 30.5764
Pt 16.9412 32.3608 32.7775
Pt 22.2616 9.60347 27.4829
Au 29.8465 48.2098 20.5327
Pt 17.784 32.2488 41.8544
Au 19.5728 4.61179 25.2407
Pt 28.6412 23.4124 24.8051
Au 31.6484 44.2439 38.3659
Au 4.52435 32.7797 19.9736
Au 39.2222 33.0505 26.5877
Pt 14.3845 26.539 38.621
Pt 8.24478 23.0972 30.4598
Pt 6.71253 32.9615 32.6276
Pt 43.658 37.3073 32.6282
Pt 22.726 20.4426 9.00784
Pt 10.9065 21.3519 37.8109
Au 41.9164 15.4761 9.2809
Pt 26.0509 16.1077 6.72933
Au 40.4725 33.2105 31.9666
Pt 28.0703 35.4495 43.4942
Pt 25.6444 17.0762 35.1942
Pt 14.6537 42.4845 20.2193
Pt 21.2655 25.8836 22.6003
Pt 19.9535 26.5181 9.84959
Au 42.9847 17.1882 29.4121
Pt 21.1081 44.3108 27.2395
Au 39.4621 29.969 43.458
Pt 22.5125 14.2475 37.4003
Pt 12.6852 21.9623 13.0712
Pt 23.0081 39.2169 36.8029
Au 29.0324 16.6379 44.2922
Pt 35.8535 16.6585 34.558
Au 29.1312 42.0623 32.9636
Pt 28.9709 42.1793 23.6031
Au 41.8957 29.6329 39.945
Au 26.7319 24.883 48.332
Au 39.2016 37.7481 11.6058
Au 37.8103 34.6655 23.2626
Au 5.06782 34.5625 25.1112
Pt 17.2849 25.2171 34.819
Au 42.4628 26.8768 41.4181
Pt 20.8606 35.1458 11.8029
Pt 32.2044 27.9455 30.7944
Au 33.8772 25.0329 47.1665
Au 47.0634 26.1593 32.3606
Au 14.1563 6.61737 33.0593
Au 45.11 17.6216 35.3496
Pt 8.37306 26.2034 30.6752
Pt 12.4629 28.3608 14.4
Pt 9.94821 25.5474 38.5825
Au 47.3709 33.4069 26.4822
Pt 26.6983 34.3492 39.487
Pt 36.6869 37.4595 31.2597
Pt 9.7381 20.147 26.1059
Pt 15.8473 5.7853 26.4247
Au 31.6001 31.7954 46.1246
Au 14.4986 9.82832 38.9607
Pt 23.2803 34.5294 8.98167
Pt 33.0404 34.4321 40.6834
Au 43.5147 31.8238 18.2882
Au 37.4607 35.0853 20.5591
Pt 20.7689 9.73903 29.9081
Au 40.8116 24.4935 40.4606
Au 47.1183 14.9223 22.629
Pt 18.2217 24.5671 43.9667
Pt 13.224 31.4493 35.0734
Pt 26.7296 39.6985 19.2494
Pt 24.8002 38.0612 41.6227
Pt 9.81226 15.5989 25.9806
Pt 21.886 16.5908 28.4329
Pt 23.481 39.3553 15.8842
Pt 14.583 21.072 19.5303
Au 48.6035 18.7348 22.8542
Au 1.84176 20.4392 31.3149
Pt 24.9457 43.3889 34.7169
Pt 23.4881 21.9326 23.2767
Pt 6.63313 12.44 30.5047
Pt 4.08681 28.9269 25.9938
Pt 17.2912 29.1764 14.3138
Pt 36.1725 24.7597 10.744
Pt 24.5658 38.3612 11.3471
Pt 21.8179 21.5239 14.307
Pt 17.5569 25.3039 10.7421
Pt 14.3783 23.6148 17.8055
Pt 30.3745 35.3027 41.525
Au 16.6043 17.9518 7.69329
Pt 27.9391 31.6012 22.2257
Pt 11.6537 27.5878 37.9467
Pt 24.5813 10.007 26.3189
Au 35.9058 11.478 11.2716
Pt 28.4367 19.0506 30.9089
Au 33.2838 22.2927 46.746
Pt 10.3847 22.5684 19.5967
Pt 23.7113 11.4272 11.3539
Pt 37.7204 35.1046 40.5551
Au 17.0293 38.3226 10.8369
Pt 23.8855 22.4974 12.7775
Au 19.0427 44.5486 13.8819
Pt 24.4943 38.4589 29.8783
Au 41.5299 37.8273 18.5081
Au 42.8401 40.2575 26.7265
Pt 31.3752 18.0431 26.3605
Pt 28.7418 31.9919 24.9133
Pt 13.2914 32.9899 37.2196
Au 40.9096 30.5144 22.6229
Au 36.8513 28.4911 39.55
Au 40.7554 20.4979 11.7926
Au 32.1415 31.3168 43.4448
Au 36.9109 27.3255 21.7163
Au 13.172 16.6638 7.82345
Au 21.5234 41.8432 10.5948
Au 38.2555 27.7127 44.8281
Pt 7.01096 31.1491 28.3014
Pt 42.9556 18.8603 36.8089
Au 37.6101 15.9393 10.699
Pt 27.9949 8.17684 23.932
Au 42.0147 31.0028 30.7009
Au 39.9038 36.0202 35.1725
Au 31.9134 17.1538 4.32522
Au 46.0214 15.8155 33.1731
Pt 30.5966 30.2132 41.2897
Pt 20.5711 17.2493 12.9434
Pt 16.4001 23.3424 22.9743
Pt 6.19119 22.4376 31.8793
Au 30.1355 22.6502 39.5807
Pt 26.3809 17.6478 30.6102
Au 46.4313 34.3526 23.7473
Pt 9.53028 20.9055 40.1019
Au 25.6066 9.71957 9.7635
Pt 7.27675 20.7143 38.4281
Pt 18.2741 24.6882 27.5584
Au 42.5684 12.2589 28.8953
Au 6.11904 9.28641 31.1895
Au 8.59401 18.9669 15.9406
Pt 35.0755 38.638 19.9831
Pt 25.9807 31.0095 16.8293
Au 18.1467 8.05896 30.6382
Pt 13.6108 18.8347 29.4549
Au 42.184 37.0119 23.2736
Pt 21.9009 36.975 23.7654
Pt 8.36144 28.7793 29.8299
Pt 32.1598 27.215 19.3349
Au 20.7541 7.8102 31.8813
Pt 22.6686 41.5374 14.2686
Au 41.3393 34.1019 37.4172
Au 24.3712 4.11219 17.42
Au 43.2455 24.7356 34.6189
Au 21.5516 39.2677 9.58782
Au 37.7175 20.6332 23.9581
Au 44.3299 30.913 15.6795
Au 17.123 20.7076 6.77118
Pt 12.2216 21.4707 28.6409
Pt 20.1698 33.1396 43.1438
Pt 7.89751 26.9517 17.713
Pt 21.4503 5.71591 21.7144
Pt 20.6719 25.5055 15.8666
Au 15.2088 35.6446 44.5217
Au 35.623 39.9959 25.6069
Pt 8.84221 31.4343 36.586
Pt 10.7406 24.9749 9.77222
Pt 8.65689 12.4873 28.6495
Au 26.704 33.5578 16.2445
Au 40.7237 34.9085 12.0183
Au 43.0509 40.7588 22.0145
Au 38.5183 13.9828 27.0756
Pt 23.3014 37.5856 13.5708
Au 37.2006 28.2501 4.22346
Au 35.7034 8.1307 36.2826
Pt 10.263 19.7435 35.5296
Au 37.4731 31.2505 28.5301
Pt 16.1046 44.3387 19.1271
Pt 42.1651 35.4483 14.3763
Au 28.156 15.6803 10.6814
Pt 6.7632 15.9195 22.0405
Au 44.5451 37.1163 19.078
Au 30.7227 47.7998 27.748
Pt 26.8479 10.086 27.779
Pt 26.2456 25.8786 36.7031
Pt 21.7394 28.4823 35.1776
Au 25.0526 42.5717 42.0558
Pt 23.0241 45.3852 19.0872
Pt 14.1512 13.0112 35.7103
Pt 10.2625 10.8214 30.818
Au 45.3216 12.1486 29.0664
Au 39.5161 30.9788 12.7971
Au 34.4313 40.8972 18.4829
Au 18.9867 3.65584 15.6192
Au 45.9947 14.1047 30.884
Pt 25.6113 24.2033 20.9815
Au 5.90554 30.3988 15.087
Au 37.2514 24.4149 21.6273
Au 42.2479 8.73508 32.2957
Au 16.675 8.28012 32.8768
Au 26.9859 46.5992 32.1187
Pt 12.1403 32.3959 16.6497
Pt 8.55482 31.32 14.8742
Pt 13.1014 34.1028 34.3454
Au 42.0035 10.4639 24.9378
Au 4.80287 26.8063 33.2812
Au 38.0145 31.0435 18.6467
Au 33.1036 43.6207 28.7407
Au 36.0333 39.6065 22.6358
Pt 17.0819 37.3067 29.5862
Pt 30.6918 33.3319 30.2887
Pt 9.79095 28.8405 36.7009
Pt 10.2005 20.1961 17.9123
Pt 33.1104 45.45 22.0622
Pt 20.6732 39.9644 21.7546
Pt 29.3501 29.7063 8.65164
Au 7.3575 9.07967 33.8499