3871
Atoms. Timestep: 20118
Au 5.7612 7.6765 23.4326
Pt 7.86404 5.89579 23.4727
Pt 7.79462 7.71279 21.515
Pt 6.18264 5.90073 25.4428
Pt 5.98783 7.71431 27.3255
Pt 7.88911 5.84937 27.3969
Au 7.83653 7.75352 25.4084
Pt 7.74003 7.68168 29.3334
Pt 5.92802 11.6067 19.5504
Pt 7.74171 9.62137 19.5005
Au 7.47101 11.3421 17.3477
Pt 5.97625 9.65741 21.4826
Au 5.48373 11.4868 23.4148
Pt 7.71131 9.66122 23.4451
Pt 7.6321 11.6562 21.5054
Pt 5.87208 9.58668 25.4158
Pt 5.79848 11.5297 27.4176
Au 7.71616 9.6526 27.4538
Pt 7.53063 11.6654 25.3603
Au 5.66325 9.62457 29.3591
Pt 5.96024 11.6345 31.3524
Au 7.4935 9.43196 31.4832
Pt 7.64315 11.5646 29.4272
Au 7.49056 11.4447 33.5548
Pt 5.8181 15.5865 15.6376
Au 7.45312 13.4075 15.3775
Pt 7.57168 15.5822 13.577
Pt 5.90539 13.5663 17.5871
Pt 5.68837 15.4846 19.4604
Pt 7.63124 13.5498 19.5246
Pt 7.61867 15.5075 17.5212
Au 5.41834 13.5433 21.417
Pt 5.63356 15.5444 23.3985
Pt 7.41491 13.5494 23.4169
Pt 7.49062 15.4783 21.4369
Au 5.39349 13.5566 25.4054
Pt 5.61648 15.5245 27.3657
Au 7.43944 13.5741 27.4258
Pt 7.42461 15.5129 25.3909
Au 5.46172 13.5242 29.4465
Pt 5.70592 15.467 31.4854
Pt 7.58715 13.5722 31.4249
Pt 7.38566 15.5434 29.4133
Au 5.61618 13.5625 33.3951
Pt 5.88155 15.5731 35.3084
Pt 7.63645 13.5806 35.3381
Pt 7.62275 15.4933 33.3893
Au 7.45981 15.386 37.509
Pt 5.87419 19.5618 11.5795
Au 7.43687 17.3495 11.3733
Pt 7.653 19.515 9.59266
Pt 5.84189 17.5838 13.5651
Pt 5.65023 19.4258 15.5006
Au 7.57321 17.5123 15.5509
Pt 7.5731 19.51 13.5229
Pt 5.65958 17.4712 17.5223
Pt 5.57152 19.4739 19.5142
Au 7.47265 17.5048 19.4937
Au 7.43467 19.5233 17.5302
Pt 5.61118 17.4554 21.4507
Au 5.21868 19.4572 23.4095
Pt 7.39988 17.5499 23.4283
Pt 7.3429 19.5216 21.4949
Pt 5.57951 17.4552 25.3774
Pt 5.52009 19.4504 27.324
Pt 7.36544 17.5104 27.4002
Pt 7.33367 19.4833 25.3491
Au 5.28425 17.4034 29.3715
Au 5.26377 19.4724 31.4531
Pt 7.36736 17.5195 31.343
Au 7.23781 19.4449 29.4137
Pt 5.72 17.4329 33.4383
Pt 5.72073 19.4356 35.3834
Pt 7.60421 17.4805 35.4343
Au 7.42359 19.471 33.3297
Au 5.59416 17.4991 37.3062
Au 5.63108 19.4916 39.3167
Pt 7.63467 17.5585 39.2331
Pt 7.58297 19.4518 37.3382
Au 7.51677 19.3797 41.4391
Au 5.7272 23.426 7.68502
Pt 7.73226 21.5091 7.70537
Au 7.75752 23.4182 5.67357
Pt 5.90368 21.5076 9.68024
Pt 5.71357 23.4028 11.5088
Pt 7.64135 21.4915 11.6343
Pt 7.69376 23.4384 9.61688
Au 5.38153 21.4436 13.4832
Pt 5.55551 23.4744 15.5451
Au 7.38904 21.4772 15.4677
Pt 7.38825 23.4689 13.5778
Pt 5.56904 21.4977 17.5344
Pt 5.47882 23.4728 19.5081
Pt 7.36486 21.5027 19.5092
Au 7.3757 23.4721 17.5248
Pt 5.48993 21.4937 21.4403
Pt 5.45083 23.4295 23.3806
Pt 7.29297 21.4436 23.4182
Pt 7.32801 23.4631 21.453
Pt 5.47421 21.461 25.3779
Pt 5.44496 23.4182 27.3802
Au 7.2935 21.4639 27.3674
Pt 7.25807 23.4834 25.3932
Pt 5.49018 21.4806 29.3556
Pt 5.49718 23.4166 31.375
Pt 7.30698 21.4363 31.3485
Pt 7.26818 23.459 29.3718
Pt 5.58921 21.4267 33.4273
Au 5.33679 23.3604 35.4082
Pt 7.49238 21.4735 35.3825
Au 7.32064 23.4369 33.3877
Pt 5.71834 21.3877 37.3472
Au 5.46144 23.4317 39.3548
Au 7.57112 21.4369 39.277
Pt 7.42367 23.4607 37.3354
Pt 5.94044 21.5689 41.2652
Pt 5.94439 23.5474 43.0896
Pt 7.72035 21.5799 43.2473
Pt 7.70664 23.5017 41.1601
Au 7.68133 23.4967 45.24
Au 5.94736 25.479 5.83035
Pt 5.93234 27.3321 7.7341
Pt 7.76813 25.3657 7.71967
Pt 7.82943 27.3744 5.89255
Pt 5.81207 25.3838 9.58709
Pt 5.69802 27.3754 11.5427
Au 7.50311 25.4029 11.662
Au 7.61711 27.4127 9.6779
Au 5.31403 25.426 13.5504
Pt 5.52581 27.4094 15.5545
Pt 7.36672 25.4614 15.5103
Pt 7.38937 27.3877 13.6004
Pt 5.52714 25.4501 17.4922
Pt 5.44409 27.392 19.4095
Pt 7.33604 25.4476 19.4803
Pt 7.37662 27.4082 17.4988
Pt 5.46041 25.4282 21.4199
Pt 5.43715 27.3726 23.3581
Pt 7.22465 25.4132 23.4369
Pt 7.24001 27.4536 21.4014
Au 5.15174 25.4118 25.3906
Pt 5.42898 27.4117 27.4521
Pt 7.18102 25.4238 27.3982
Pt 7.14405 27.4009 25.4082
Au 5.15193 25.3746 29.382
Au 5.19343 27.4733 31.4552
Pt 7.19139 25.468 31.2974
Pt 7.16494 27.4144 29.4617
Pt 5.5656 25.4348 33.3582
Au 5.34406 27.5302 35.3781
Au 7.27984 25.4469 35.4151
Pt 7.29727 27.4624 33.3498
Au 5.38004 25.5279 37.4557
Pt 5.77576 27.4976 39.3673
Pt 7.54081 25.4228 39.2222
Pt 7.49351 27.4367 37.312
Pt 5.78997 25.4548 41.2425
Pt 5.8913 27.3916 43.0055
Pt 7.81865 25.444 43.0665
Pt 7.71636 27.4391 41.1813
Pt 5.96329 25.4927 44.7407
Pt 7.70222 27.3853 44.9527
Pt 7.69431 29.3468 7.74296
Au 5.6345 29.3754 9.61105
Au 5.62433 31.4635 11.5599
Pt 7.51551 29.4029 11.6133
Pt 7.6412 31.3363 9.67754
Au 5.39632 29.3744 13.539
Pt 5.67157 31.4575 15.4817
Pt 7.41234 29.37 15.495
Au 7.51739 31.3541 13.5104
Pt 5.54648 29.3769 17.4478
Pt 5.52123 31.4033 19.3335
Pt 7.31272 29.3805 19.4594
Au 7.43625 31.3592 17.4668
Au 5.16408 29.3803 21.3347
Au 5.15929 31.4338 23.3724
Pt 7.10057 29.4422 23.4014
Pt 7.22742 31.308 21.4004
Au 5.13702 29.3614 25.4252
Pt 5.42785 31.4002 27.5203
Au 7.18897 29.4078 27.4108
Pt 7.15399 31.317 25.4261
Pt 5.45591 29.4706 29.4733
Pt 5.52467 31.4379 31.4504
Pt 7.31025 29.4223 31.3778
Pt 7.32928 31.4097 29.443
Pt 5.56115 29.4738 33.3889
Au 5.36688 31.4291 35.4597
Pt 7.40407 29.4371 35.3658
Au 7.39752 31.4 33.4229
Pt 5.71523 29.4551 37.4195
Pt 5.88285 31.3664 39.2318
Pt 7.6605 29.4211 39.3022
Pt 7.61873 31.3903 37.2891
Au 5.64243 29.464 41.2337
Pt 7.69534 29.3587 43.1362
Pt 7.6477 31.3465 41.2364
Pt 7.64606 33.377 11.5576
Pt 5.89312 33.408 13.5822
Pt 5.88427 35.3124 15.5178
Pt 7.63479 33.3702 15.5286
Pt 7.67131 35.3756 13.5277
Pt 5.64802 33.408 17.4162
Pt 5.67959 35.3546 19.3105
Pt 7.4485 33.3307 19.4064
Pt 7.60607 35.3462 17.4703
Pt 5.54281 33.3565 21.2648
Au 5.25491 35.3764 23.4592
Au 7.1908 33.3282 23.4261
Au 7.30544 35.3823 21.4418
Pt 5.4612 33.3649 25.5017
Pt 5.52763 35.3351 27.4309
Au 7.30047 33.3326 27.434
Au 7.30595 35.3593 25.4042
Pt 5.50456 33.3763 29.4988
Pt 5.64043 35.3665 31.5519
Pt 7.43545 33.3541 31.4112
Au 7.33752 35.3676 29.4386
Pt 5.64556 33.4199 33.4406
Pt 5.84054 35.3309 35.3275
Pt 7.56914 33.3539 35.3485
Pt 7.60914 35.3311 33.4
Pt 5.87217 33.3513 37.3263
Pt 7.65322 33.3726 39.2983
Pt 7.64638 35.3512 37.3067
Pt 7.66739 37.3322 15.5292
Au 5.65315 37.3361 17.3899
Au 5.66023 39.3806 19.37
Pt 7.51529 37.3534 19.42
Pt 7.66638 39.3246 17.5117
Au 5.3861 37.3921 21.3721
Pt 5.73143 39.3798 23.475
Pt 7.39052 37.2797 23.4121
Au 7.47324 39.2633 21.4256
Pt 5.57674 37.4012 25.4231
Au 5.40682 39.3521 27.396
Pt 7.357 37.3137 27.4435
Au 7.51122 39.2273 25.4757
Au 5.35481 37.324 29.5379
Pt 5.89417 39.25 31.486
Pt 7.5919 37.2969 31.4407
Au 7.45466 39.2466 29.3771
Pt 5.8396 37.2898 33.4035
Pt 7.62642 37.3318 35.3578
Pt 7.62728 39.3228 33.466
Pt 7.69159 41.2506 19.5584
Au 5.67462 41.3579 21.5388
Pt 6.01711 43.151 23.5615
Pt 7.71421 41.2036 23.4518
Pt 7.74685 43.1755 21.5388
Pt 5.83207 41.2795 25.4186
Au 5.76879 43.2274 27.3648
Pt 7.60163 41.2217 27.4604
Pt 7.74361 43.1694 25.4934
Au 5.66684 41.3125 29.4712
Pt 7.68169 41.2014 31.3722
Au 7.84748 43.1072 33.1516
Pt 7.8543 44.9875 23.5613
Pt 7.8343 44.9334 27.3846
Pt 7.69769 43.1448 29.3926
Pt 9.68366 7.67334 19.5253
Pt 11.6555 5.83266 19.501
Pt 11.6061 7.66951 17.5571
Pt 9.75156 5.85263 21.4945
Au 9.77485 7.6698 23.4743
Pt 11.623 5.66894 23.4343
Au 11.6665 7.63088 21.4461
Pt 9.66901 5.71741 25.4383
Pt 9.74982 7.64339 27.3926
Au 11.6057 5.36228 27.4219
Pt 11.6751 7.48804 25.5001
Pt 9.75497 5.86938 29.3531
Au 9.45184 7.42672 31.5586
Pt 11.633 5.89161 31.3603
Pt 11.6234 7.62061 29.3726
Pt 11.5674 7.64224 33.3784
Pt 9.61547 11.5355 15.6312
Au 11.4064 9.40749 15.4125
Au 11.4639 11.3464 13.394
Pt 9.65132 9.59326 17.5829
Pt 9.50736 11.585 19.4261
Pt 11.5853 9.61712 19.452
Pt 11.5561 11.473 17.4479
Au 9.63324 9.66434 21.4414
Pt 9.54082 11.6475 23.4037
Au 11.6598 9.65173 23.4831
Pt 11.5283 11.6214 21.3822
Pt 9.64202 9.68373 25.4314
Au 9.55212 11.6279 27.4316
Au 11.6041 9.5715 27.4231
Au 11.6141 11.5969 25.4359
Pt 9.56523 9.51003 29.5388
Pt 9.39128 11.4929 31.4876
Pt 11.4674 9.43372 31.4046
Au 11.4474 11.5197 29.4741
Pt 9.60761 9.56361 33.3272
Au 9.45425 11.3913 35.5417
Pt 11.6135 9.57027 35.369
Au 11.409 11.4981 33.4484
Au 11.4298 11.4017 37.553
Pt 9.57441 15.5932 11.5453
Au 11.4583 13.372 11.3602
Au 11.392 15.3472 9.38735
Au 9.4521 13.4371 13.3669
Au 9.47221 15.3881 15.4403
Au 11.4673 13.4121 15.3998
Pt 11.5107 15.3989 13.4165
Pt 9.4102 13.4256 17.4719
Au 9.54908 15.4775 19.4698
Pt 11.4885 13.4516 19.3926
Au 11.4771 15.4092 17.4081
Pt 9.51106 13.5599 21.4808
Pt 9.36892 15.5239 23.4243
Au 11.5266 13.5562 23.4206
Pt 11.4994 15.4243 21.4429
Au 9.46163 13.5968 25.3965
Pt 9.34852 15.562 27.403
Au 11.5147 13.5781 27.4496
Au 11.4871 15.5367 25.4333
Pt 9.39219 13.6166 29.4112
Au 9.43294 15.5481 31.3926
Au 11.3984 13.511 31.4141
Au 11.4738 15.5382 29.4003
Pt 9.44568 13.4424 33.4496
Pt 9.46334 15.4991 35.4481
Pt 11.384 13.4138 35.4911
Au 11.4217 15.4612 33.4577
Pt 9.51915 13.577 37.3528
Pt 9.57512 15.5641 39.2928
Au 11.405 13.4096 39.5416
Au 11.4808 15.4123 37.4392
Pt 11.6179 15.59 41.2879
Pt 9.60595 19.5196 7.65558
Au 11.3716 17.3356 7.44094
Pt 11.6078 19.4978 5.86554
Pt 9.57128 17.5743 9.59326
Pt 9.48839 19.4085 11.5298
Au 11.5135 17.4134 11.4468
Pt 11.5584 19.3829 9.4724
Au 9.47131 17.4628 13.4371
Au 9.52902 19.4727 15.5042
Au 11.4911 17.4154 15.4173
Pt 11.5608 19.3423 13.4387
Pt 9.45276 17.5107 17.5336
Pt 9.32755 19.5607 19.5629
Au 11.4586 17.4937 19.4668
Au 11.4601 19.4856 17.5211
Au 9.42402 17.4895 21.4706
Au 9.38094 19.5153 23.427
Au 11.4396 17.4591 23.4242
Au 11.3955 19.5536 21.417
Au 9.35727 17.5047 25.4272
Pt 9.25685 19.496 27.3981
Au 11.416 17.5188 27.41
Pt 11.3497 19.45 25.4596
Au 9.35143 17.5168 29.37
Pt 9.30545 19.5012 31.3307
Au 11.4306 17.488 31.4146
Au 11.3288 19.5104 29.397
Pt 9.38921 17.5005 33.377
Au 9.4586 19.479 35.3652
Au 11.4725 17.4691 35.413
Au 11.4168 19.4613 33.361
Pt 9.50039 17.4439 37.368
Pt 9.48353 19.4437 39.3803
Au 11.4553 17.5044 39.3919
Pt 11.4293 19.4507 37.3796
Au 9.45718 17.3712 41.4329
Pt 9.67068 19.569 43.2514
Pt 11.6066 17.5641 43.2233
Au 11.5308 19.4903 41.3448
Au 11.5529 19.4782 45.2512
Pt 9.71115 21.4762 5.87039
Pt 9.63914 23.4271 7.66389
Pt 11.5977 21.4358 7.66622
Pt 11.5189 23.3976 5.72868
Au 9.60413 21.4133 9.62008
Au 9.58258 23.4701 11.5949
Au 11.5749 21.3854 11.5284
Pt 11.5729 23.4443 9.49594
Au 9.53969 21.4749 13.5628
Pt 9.34441 23.5018 15.5507
Au 11.5522 21.4122 15.469
Au 11.5391 23.4799 13.5685
Au 9.41551 21.5039 17.5219
Pt 9.3052 23.4731 19.5424
Pt 11.3642 21.5055 19.4955
Au 11.4285 23.4469 17.4763
Pt 9.27718 21.5095 21.4801
Au 9.28402 23.4573 23.4393
Pt 11.3309 21.4581 23.4253
Au 11.3445 23.4424 21.4405
Au 9.33137 21.4618 25.4222
Au 9.27388 23.4763 27.4056
Pt 11.2904 21.4119 27.4316
Au 11.3134 23.4876 25.4405
Pt 9.22739 21.4529 29.3467
Au 9.26212 23.4389 31.3349
Pt 11.3413 21.4454 31.3501
Au 11.309 23.414 29.4091
Au 9.38432 21.4842 33.3342
Pt 9.36888 23.4753 35.4077
Au 11.4362 21.4667 35.3851
Au 11.3903 23.4668 33.3737
Pt 9.47833 21.4699 37.3363
Pt 9.50511 23.4387 39.1926
Pt 11.4566 21.4326 39.2648
Pt 11.4379 23.4303 37.2962
Au 9.54809 21.4345 41.2951
Au 9.65188 23.4648 43.2648
Pt 11.6862 21.4883 43.3343
Au 11.5912 23.4019 41.2691
Pt 9.71681 21.5517 45.0296
Pt 11.5884 23.4883 45.2138
Pt 9.63053 25.4272 5.78224
Pt 9.63863 27.4043 7.73369
Au 11.5661 25.4354 7.59445
Pt 11.48 27.472 5.72812
Pt 9.58371 25.4446 9.63635
Pt 9.4995 27.4061 11.6115
Au 11.567 25.4895 11.5277
Pt 11.5811 27.4498 9.5511
Au 9.45917 25.4676 13.6145
Pt 9.37282 27.4147 15.5594
Au 11.4741 25.4964 15.5404
Pt 11.4946 27.4321 13.5481
Au 9.37813 25.4518 17.4904
Au 9.35411 27.4496 19.4693
Au 11.4008 25.4677 19.4477
Pt 11.4469 27.4768 17.4968
Au 9.27771 25.5005 21.4745
Pt 9.08089 27.4512 23.4129
Au 11.3012 25.539 23.3922
Pt 11.3628 27.4774 21.3556
Au 9.21423 25.4947 25.4141
Au 9.17029 27.4178 27.4427
Pt 11.2661 25.4723 27.4655
Au 11.2693 27.4343 25.4764
Au 9.22728 25.4501 29.389
Au 9.25447 27.4327 31.3724
Au 11.3827 25.4496 31.4056
Au 11.3147 27.4532 29.3971
Au 9.28228 25.4318 33.3689
Au 9.3844 27.4071 35.34
Pt 11.4297 25.3931 35.3586
Au 11.431 27.3974 33.4069
Pt 9.4602 25.4131 37.2948
Au 9.60504 27.4322 39.2416
Pt 11.5009 25.3866 39.1954
Au 11.5058 27.4192 37.2656
Au 9.69726 25.4518 41.1734
Au 9.66314 27.4689 43.243
Au 11.6559 25.454 43.3655
Pt 11.6332 27.4552 41.3603
Pt 9.59195 25.4597 45.1029
Pt 11.5993 27.4555 45.188
Pt 9.62906 29.3599 5.89061
Pt 9.5468 31.3333 7.7012
Pt 11.5485 29.3924 7.68665
Pt 11.4915 31.2983 5.87219
Au 9.5594 29.4237 9.66932
Pt 9.53697 31.4238 11.5672
Au 11.5597 29.3867 11.5631
Pt 11.5163 31.38 9.54644
Au 9.46411 29.3342 13.5423
Au 9.5139 31.3914 15.5052
Au 11.4918 29.3839 15.4888
Au 11.5121 31.4456 13.4846
Au 9.41459 29.3906 17.4856
Pt 9.36441 31.3395 19.444
Pt 11.4183 29.4352 19.4205
Pt 11.4707 31.4067 17.4895
Au 9.26763 29.3993 21.4582
Au 9.1954 31.3723 23.4562
Au 11.2672 29.3652 23.4337
Au 11.3635 31.3877 21.4094
Au 9.15993 29.3743 25.3958
Pt 9.19804 31.3605 27.4298
Au 11.2467 29.4462 27.4515
Au 11.2591 31.4163 25.4612
Pt 9.17781 29.4066 29.3874
Pt 9.3006 31.3639 31.3946
Au 11.3441 29.4418 31.3695
Pt 11.2874 31.3812 29.4063
Au 9.36617 29.4069 33.3866
Pt 9.46967 31.4158 35.3522
Pt 11.4794 29.4595 35.3335
Au 11.4263 31.4171 33.3937
Au 9.54571 29.4491 37.2963
Au 9.56887 31.4674 39.3846
Pt 11.5427 29.491 39.3643
Pt 11.4902 31.4705 37.3676
Pt 9.6129 29.4133 41.2554
Pt 9.61722 31.2797 43.1728
Au 11.6122 29.4011 43.3016
Au 11.5397 31.5277 41.3962
Au 9.58615 29.4225 45.2376
Pt 11.6352 31.3429 45.0114
Pt 11.4671 33.2752 7.66366
Pt 9.53408 33.3084 9.58822
Pt 9.54855 35.3417 11.6029
Au 11.484 33.4498 11.4469
Au 11.2944 35.5135 9.44576
Pt 9.48741 33.4007 13.4988
Au 9.54027 35.3684 15.4777
Pt 11.4887 33.3867 15.5051
Au 11.5052 35.4008 13.4755
Pt 9.465 33.3289 17.5343
Au 9.43707 35.3297 19.503
Pt 11.4333 33.3456 19.4613
Au 11.4782 35.345 17.5069
Au 9.30456 33.306 21.4242
Au 9.35598 35.3223 23.4175
Au 11.3544 33.3589 23.4342
Pt 11.3995 35.3174 21.4341
Pt 9.22114 33.323 25.4629
Au 9.36717 35.3217 27.3997
Pt 11.3153 33.3247 27.437
Au 11.3749 35.3091 25.4306
Au 9.37578 33.3357 29.4019
Au 9.4894 35.3207 31.4134
Au 11.4335 33.3422 31.4122
Pt 11.4541 35.3328 29.4304
Pt 9.44883 33.3398 33.3778
Au 9.52878 35.3796 35.3676
Pt 11.4778 33.4262 35.3781
Pt 11.4634 35.3912 33.4225
Au 9.5319 33.3958 37.3614
Pt 9.59891 35.3373 39.2934
Pt 11.5117 33.4501 39.419
Au 11.5125 35.4053 37.4042
Au 9.42969 33.539 41.4453
Au 11.4782 33.552 43.4193
Pt 11.6033 35.3812 41.2802
Pt 11.4838 37.423 11.6551
Pt 9.56858 37.3802 13.5894
Pt 9.56369 39.3799 15.5693
Au 11.5093 37.4618 15.4803
Pt 11.5125 39.4286 13.5922
Au 9.52061 37.4005 17.4869
Pt 9.5373 39.3328 19.4779
Au 11.4872 37.3497 19.5102
Pt 11.4823 39.4175 17.512
Pt 9.42085 37.3231 21.4137
Pt 9.43727 39.1562 23.4089
Pt 11.4038 37.2462 23.363
Pt 11.4824 39.2885 21.4497
Pt 9.37216 37.2644 25.4086
Pt 9.45567 39.2274 27.4406
Au 11.4606 37.3024 27.4497
Au 11.4611 39.1574 25.3894
Au 9.45923 37.3025 29.4027
Pt 9.48251 39.2651 31.4451
Au 11.4803 37.3565 31.4308
Pt 11.4525 39.2664 29.4432
Pt 9.49392 37.3485 33.422
Pt 9.56475 39.2632 35.3627
Pt 11.4642 37.3975 35.4515
Pt 11.4547 39.3275 33.4569
Pt 9.55054 37.2898 37.3416
Pt 11.5561 37.3093 39.363
Au 11.3437 39.4193 37.5588
Pt 11.5188 41.3363 15.5977
Pt 9.58211 41.2955 17.5682
Pt 9.62 43.2019 19.5611
Pt 11.5238 41.3706 19.4489
Au 11.377 43.421 17.4056
Au 9.60498 41.2265 21.4678
Au 9.6932 43.1962 23.5302
Au 11.5993 41.2348 23.5023
Pt 11.6071 43.2028 21.5263
Au 9.58353 41.1747 25.4662
Pt 9.66395 43.126 27.4188
Au 11.5786 41.2064 27.405
Pt 11.6687 43.3658 25.4877
Pt 9.53485 41.2114 29.4215
Pt 9.63029 43.1992 31.2837
Au 11.4883 41.2464 31.4042
Au 11.6065 43.2341 29.3399
Pt 9.58266 41.2008 33.379
Au 11.3622 41.4574 35.5087
Pt 11.4556 43.2321 33.3158
Pt 11.6003 45.016 19.6277
Pt 9.69667 45.003 21.582
Pt 11.5728 45.1854 23.4677
Pt 9.67425 45.112 25.4802
Pt 11.5211 45.1904 27.4551
Pt 9.63799 45.0024 29.3218
Pt 11.5707 45.0221 31.312
Pt 13.517 7.6596 15.6134
Pt 15.4658 5.82671 15.6249
Au 15.3828 7.47615 13.4602
Pt 13.5552 5.82328 17.602
Pt 13.5944 7.65734 19.483
Pt 15.49 5.63335 19.4581
Au 15.5494 7.55099 17.5241
Pt 13.5648 5.65806 21.3907
Au 13.6139 7.45621 23.4558
Pt 15.5299 5.53017 23.3381
Pt 15.5606 7.46718 21.4148
Pt 13.5697 5.55805 25.3867
Pt 13.5684 7.35275 27.4211
Au 15.4711 5.25478 27.4243
Pt 15.5548 7.2994 25.4259
Pt 13.4933 5.66535 29.4984
Pt 13.5669 7.64398 31.4013
Pt 15.4817 5.65556 31.5045
Au 15.535 7.35653 29.4115
Pt 13.5408 5.86728 33.3334
Pt 13.5868 7.64837 35.3503
Au 15.5237 5.61723 35.424
Au 15.5475 7.54674 33.4309
Pt 15.5473 7.65091 37.3389
Pt 13.6014 11.4976 11.4922
Pt 15.5499 9.60816 11.5418
Pt 15.5441 11.5316 9.51991
Pt 13.5936 9.56685 13.5847
Pt 13.4446 11.426 15.4819
Pt 15.492 9.48408 15.4949
Au 15.4881 11.4515 13.4873
Pt 13.5172 9.55479 17.4697
Au 13.5592 11.5368 19.4157
Pt 15.5681 9.49864 19.4386
Pt 15.4955 11.466 17.4108
Au 13.6154 9.59691 21.4497
Pt 13.5938 11.5916 23.3747
Au 15.5768 9.42996 23.4254
Pt 15.5507 11.5026 21.3765
Au 13.636 9.44453 25.4892
Pt 13.5889 11.4627 27.4339
Pt 15.5779 9.23927 27.4209
Au 15.5237 11.4488 25.448
Au 13.5957 9.49304 29.363
Au 13.4712 11.4634 31.4205
Au 15.5972 9.49827 31.4192
Au 15.5874 11.4503 29.4082
Au 13.4895 9.54673 33.4188
Au 13.4254 11.5306 35.5081
Au 15.4975 9.56881 35.412
Pt 15.5419 11.4605 33.4147
Pt 13.5878 9.58119 37.3776
Pt 13.5824 11.5356 39.3559
Pt 15.5424 9.55346 39.3089
Pt 15.4836 11.5041 37.4593
Au 15.3289 11.3691 41.4425
Pt 13.5693 15.5147 7.60569
Pt 15.5483 13.5368 7.5907
Pt 15.5199 15.5604 5.82561
Pt 13.631 13.4949 9.47515
Au 13.428 15.4017 11.3756
Au 15.4853 13.4343 11.4321
Pt 15.525 15.482 9.4535
Au 13.4167 13.3822 13.4266
Pt 13.5014 15.414 15.4179
Pt 15.4666 13.4103 15.4374
Au 15.4457 15.4189 13.4391
Pt 13.5082 13.4158 17.3924
Au 13.4804 15.4215 19.4115
Pt 15.5067 13.4572 19.3509
Au 15.4732 15.4128 17.368
Au 13.5522 13.5067 21.4178
Pt 13.5037 15.493 23.3961
Pt 15.4804 13.5288 23.4079
Pt 15.4793 15.4551 21.4135
Au 13.5615 13.531 25.4347
Pt 13.4806 15.574 27.4323
Au 15.5107 13.4884 27.4704
Au 15.4365 15.5292 25.4223
Au 13.487 13.4971 29.4247
Pt 13.451 15.5189 31.4292
Au 15.4827 13.4571 31.425
Au 15.4312 15.5066 29.4695
Au 13.4441 13.4661 33.4277
Au 13.4417 15.4504 35.4666
Au 15.4456 13.4563 35.4742
Au 15.4072 15.5051 33.4236
Pt 13.4137 13.4224 37.5301
Au 13.4989 15.4615 39.4207
Pt 15.4712 13.4623 39.4578
Au 15.4575 15.487 37.4684
Pt 13.5801 13.5677 41.3196
Pt 13.5699 15.5408 43.2182
Pt 15.4561 13.5859 43.2534
Pt 15.5235 15.5793 41.406
Pt 15.5256 15.563 45.0193
Pt 13.5908 17.5333 5.84576
Pt 13.545 19.4312 7.62126
Pt 15.5158 17.493 7.60557
Pt 15.4526 19.39 5.63815
Pt 13.4351 17.4034 9.42854
Au 13.5643 19.3766 11.461
Pt 15.4621 17.4048 11.4262
Pt 15.5317 19.4131 9.43671
Pt 13.5004 17.3738 13.4206
Pt 13.5397 19.3431 15.37
Pt 15.494 17.3662 15.3813
Pt 15.5107 19.3098 13.4541
Au 13.4772 17.4489 17.3892
Au 13.4899 19.5171 19.4851
Au 15.4841 17.4304 19.4113
Au 15.4774 19.4169 17.384
Au 13.4833 17.4495 21.4449
Au 13.3795 19.4892 23.4166
Pt 15.4035 17.4573 23.4267
Pt 15.4145 19.4644 21.4698
Pt 13.4042 17.5155 25.3993
Pt 13.3424 19.4753 27.427
Au 15.4017 17.4968 27.4534
Au 15.3676 19.4469 25.4258
Pt 13.4269 17.5354 29.4232
Au 13.4194 19.4502 31.4128
Pt 15.4256 17.435 31.4205
Au 15.4219 19.4383 29.4659
Pt 13.447 17.4728 33.4294
Pt 13.4359 19.4267 35.4532
Pt 15.411 17.4718 35.4772
Au 15.4015 19.4063 33.4314
Pt 13.4427 17.4816 37.4599
Pt 13.4981 19.4644 39.3807
Pt 15.5 17.5185 39.4481
Au 15.4593 19.4218 37.4476
Au 13.5662 17.5538 41.4049
Pt 13.5828 19.5779 43.394
Au 15.5931 17.6065 43.406
Pt 15.5491 19.526 41.4666
Pt 13.5534 17.519 44.9863
Au 15.4525 19.4841 45.5369
Pt 13.4644 21.3397 5.69974
Au 13.5857 23.4146 7.41884
Pt 15.5631 21.4067 7.36082
Au 15.4327 23.3444 5.29474
Au 13.6107 21.4495 9.48614
Au 13.5862 23.4742 11.4868
Au 15.5543 21.435 11.4802
Au 15.6249 23.4625 9.33986
Au 13.5655 21.4052 13.4766
Au 13.5567 23.4977 15.4932
Au 15.4957 21.4526 15.3994
Pt 15.5955 23.5369 13.4165
Au 13.5046 21.4364 17.4485
Au 13.413 23.4411 19.4402
Pt 15.4144 21.4915 19.4612
Pt 15.4252 23.4846 17.4888
Pt 13.3829 21.484 21.425
Au 13.3184 23.4806 23.4098
Au 15.3648 21.4673 23.4165
Au 15.3735 23.4705 21.4304
Au 13.2889 21.4388 25.4439
Au 13.299 23.4523 27.4362
Au 15.3614 21.4384 27.4401
Au 15.3456 23.4695 25.4318
Au 13.3597 21.4564 29.4372
Pt 13.3709 23.468 31.4245
Pt 15.38 21.4312 31.4561
Au 15.358 23.4445 29.4881
Au 13.4052 21.4653 33.3857
Pt 13.4039 23.4562 35.3827
Au 15.4382 21.4414 35.4261
Au 15.3943 23.4497 33.404
Au 13.4394 21.4351 37.3881
Pt 13.4438 23.4065 39.2985
Au 15.5148 21.4448 39.4175
Au 15.4944 23.4283 37.3908
Au 13.5812 21.4696 41.3809
Pt 13.5998 23.4705 43.4671
Pt 15.553 21.4905 43.6091
Au 15.5335 23.4539 41.5286
Au 13.4915 21.5357 45.5252
Pt 15.4893 23.5212 45.3629
Pt 13.3967 25.509 5.66633
Pt 13.5155 27.4707 7.51732
Au 15.5672 25.4129 7.23891
Pt 15.3754 27.5352 5.57135
Au 13.6138 25.4626 9.43967
Au 13.5916 27.4752 11.4726
Au 15.6161 25.5225 11.3804
Pt 15.5911 27.4669 9.29157
Au 13.5831 25.4954 13.4668
Au 13.5224 27.4704 15.4555
Au 15.5256 25.4798 15.431
Pt 15.5843 27.4969 13.3869
Pt 13.4303 25.5182 17.4899
Pt 13.3949 27.4948 19.4081
Au 15.3885 25.4743 19.4308
Au 15.4326 27.4929 17.4607
Pt 13.344 25.4789 21.353
Au 13.3408 27.4446 23.4096
Au 15.3467 25.476 23.4228
Au 15.3643 27.4717 21.4035
Au 13.3109 25.5059 25.4904
Pt 13.3377 27.5035 27.4642
Au 15.357 25.4815 27.4577
Au 15.3693 27.4876 25.4982
Au 13.3356 25.4752 29.4099
Pt 13.3877 27.4571 31.4275
Au 15.3501 25.4808 31.4494
Au 15.3659 27.5042 29.4207
Pt 13.4223 25.4262 33.4262
Pt 13.4425 27.406 35.3578
Au 15.4535 25.449 35.3792
Pt 15.3796 27.4288 33.4292
Au 13.4714 25.4038 37.3365
Au 13.4632 27.4548 39.376
Au 15.5096 25.4418 39.4103
Au 15.4843 27.4453 37.3791
Au 13.543 25.4156 41.3634
Pt 13.6033 27.4316 43.4231
Pt 15.5125 25.486 43.5045
Au 15.5178 27.4485 41.4385
Pt 13.5625 25.4686 45.3246
Pt 15.4728 27.4464 45.3864
Pt 13.3916 29.4198 5.68744
Pt 13.5041 31.3691 7.52913
Pt 15.4696 29.4571 7.41237
Au 15.3812 31.3719 5.35041
Pt 13.56 29.4251 9.44676
Au 13.5379 31.4098 11.4566
Au 15.5611 29.4266 11.3665
Pt 15.5033 31.3991 9.34894
Pt 13.5492 29.4472 13.486
Au 13.4765 31.4274 15.4662
Pt 15.438 29.4733 15.461
Au 15.5125 31.4545 13.46
Pt 13.4199 29.4554 17.4596
Pt 13.3877 31.4101 19.4066
Pt 15.3305 29.4559 19.4115
Pt 15.3759 31.4215 17.4437
Au 13.3613 29.4377 21.4068
Au 13.3722 31.4302 23.4812
Au 15.3999 29.4779 23.4735
Au 15.3901 31.4204 21.439
Au 13.3526 29.4323 25.4798
Au 13.347 31.4288 27.4165
Pt 15.3844 29.491 27.4599
Pt 15.4124 31.414 25.4831
Au 13.3543 29.4675 29.4255
Pt 13.4215 31.4492 31.4479
Au 15.3875 29.4528 31.4536
Au 15.4075 31.4364 29.4611
Au 13.4268 29.4219 33.4026
Au 13.4473 31.4764 35.4106
Au 15.4454 29.4573 35.3976
Pt 15.4266 31.442 33.4334
Au 13.4528 29.4624 37.3586
Au 13.5039 31.4719 39.38
Au 15.4988 29.4397 39.3894
Pt 15.4605 31.4757 37.3959
Pt 13.5647 29.4657 41.431
Au 13.5766 31.4824 43.3492
Pt 15.5173 29.401 43.4622
Au 15.5376 31.4235 41.4103
Pt 13.5574 29.4162 45.245
Pt 15.4595 31.3914 45.2612
Au 13.346 33.3843 5.64822
Pt 13.3738 35.2938 7.5913
Au 15.4687 33.3483 7.37654
Pt 15.5484 35.5489 6.04593
Au 13.4662 33.4165 9.43876
Au 13.4021 35.5083 11.3615
Au 15.4771 33.4409 11.4108
Au 15.3843 35.5529 9.26572
Pt 13.4871 33.4068 13.4832
Au 13.5058 35.3885 15.4801
Pt 15.4501 33.3885 15.4951
Au 15.4392 35.3832 13.4457
Au 13.459 33.4047 17.4897
Pt 13.4486 35.3656 19.4862
Au 15.4247 33.4163 19.4576
Pt 15.4744 35.3936 17.5008
Pt 13.3921 33.3649 21.3863
Au 13.406 35.3142 23.4111
Au 15.4198 33.3636 23.4727
Au 15.4594 35.4061 21.4389
Pt 13.3645 33.3671 25.4639
Au 13.4256 35.3559 27.4365
Au 15.419 33.3975 27.4084
Au 15.4752 35.3922 25.4355
Au 13.3881 33.3701 29.4299
Au 13.4517 35.3921 31.4384
Pt 15.4018 33.4364 31.4913
Au 15.4456 35.4406 29.4435
Pt 13.4479 33.4102 33.4311
Au 13.4622 35.4196 35.4057
Au 15.4615 33.4309 35.4143
Au 15.4645 35.4483 33.4078
Pt 13.4807 33.4426 37.423
Au 13.516 35.3986 39.3862
Pt 15.5002 33.4607 39.4114
Pt 15.4432 35.4649 37.4525
Pt 13.5425 33.4627 41.3868
Pt 13.59 35.3524 43.244
Pt 15.5533 33.4029 43.349
Pt 15.5109 35.3946 41.3523
Au 13.6074 33.4447 45.3084
Pt 15.5589 35.4003 45.0324
Au 15.2703 37.7687 7.49464
Au 13.2903 37.6466 9.50334
Pt 13.4982 39.4964 11.6137
Au 15.3732 37.5121 11.4146
Pt 15.5134 39.5357 9.62835
Au 13.4775 37.4997 13.4591
Au 13.4728 39.516 15.4778
Au 15.4755 37.46 15.5213
Pt 15.3784 39.5825 13.4939
Au 13.5213 37.4 17.5354
Au 13.5122 39.4003 19.511
Pt 15.5585 37.4502 19.4869
Au 15.5158 39.4569 17.5362
Au 13.4933 37.3576 21.4532
Au 13.5815 39.3372 23.4508
Au 15.5589 37.4555 23.439
Pt 15.5817 39.4685 21.4632
Au 13.5151 37.3246 25.4028
Au 13.5617 39.2685 27.4158
Pt 15.5126 37.4148 27.4248
Pt 15.6082 39.4811 25.4443
Pt 13.4733 37.3512 29.4416
Au 13.5034 39.3078 31.4159
Pt 15.4726 37.397 31.4469
Au 15.5644 39.3586 29.4054
Pt 13.4261 37.3774 33.4305
Au 13.3504 39.378 35.4759
Au 15.4382 37.4645 35.4456
Au 15.4911 39.3749 33.4405
Pt 13.4369 37.418 37.4423
Pt 13.494 39.2426 39.3756
Pt 15.4607 37.4153 39.4536
Pt 15.4347 39.3764 37.5012
Pt 13.5475 37.2897 41.3215
Pt 15.4905 37.3428 43.2053
Au 15.3055 39.4751 41.4838
Pt 15.5269 41.4429 11.5925
Au 13.3282 41.5656 13.4159
Pt 13.5496 43.2541 15.6322
Pt 15.4548 41.4149 15.5354
Pt 15.495 43.2791 13.6323
Pt 13.4358 41.4088 17.5271
Pt 13.4908 43.2707 19.4798
Au 15.5448 41.4566 19.4956
Pt 15.4399 43.3774 17.5202
Au 13.5835 41.3655 21.5212
Pt 13.5633 43.4063 23.5218
Pt 15.5823 41.5351 23.4855
Pt 15.489 43.4412 21.4994
Au 13.6142 41.3728 25.4515
Pt 13.5988 43.4641 27.3707
Au 15.5973 41.4585 27.4234
Pt 15.5041 43.4952 25.458
Au 13.5684 41.3042 29.3638
Au 13.5351 43.2751 31.4006
Au 15.565 41.3996 31.4125
Au 15.5433 43.452 29.3991
Au 13.4303 41.3525 33.4584
Pt 13.4991 43.2731 35.2653
Au 15.4321 41.3856 35.4549
Pt 15.5575 43.389 33.3715
Pt 13.4892 41.2101 37.352
Au 15.2909 41.4041 39.4778
Au 15.2933 43.4176 37.425
Au 15.4724 45.3051 15.5201
Au 13.4666 45.2889 17.5728
Pt 15.371 45.2097 19.5094
Pt 13.4805 45.1847 21.5047
Pt 15.4263 45.3007 23.4864
Au 13.5085 45.5757 25.4729
Pt 15.5205 45.3371 27.4221
Pt 13.5107 45.2156 29.4254
Pt 15.4552 45.2378 31.4107
Pt 13.4951 45.0476 33.2855
Au 15.3894 45.2813 35.3253
Au 17.4737 7.41567 11.4594
Pt 19.6998 5.75595 11.625
Pt 19.627 7.57752 9.6466
Au 17.5951 5.54857 13.5611
Au 17.5203 7.43602 15.5037
Pt 19.5968 5.60168 15.4873
Au 19.5222 7.51265 13.5186
Au 17.499 5.33485 17.4775
Pt 17.5242 7.39393 19.4333
Pt 19.4678 5.49714 19.4878
Pt 19.5205 7.31318 17.5127
Pt 17.4696 5.5232 21.3829
Pt 17.492 7.35179 23.3646
Pt 19.3725 5.41907 23.2936
Pt 19.4695 7.33492 21.4224
Pt 17.4487 5.4596 25.279
Au 17.5279 7.1625 27.4113
Au 19.377 5.14773 27.441
Pt 19.4894 7.15304 25.3638
Pt 17.479 5.53178 29.5795
Pt 17.5344 7.42474 31.4596
Pt 19.4433 5.49515 31.566
Pt 19.532 7.20842 29.503
Pt 17.5072 5.64532 33.4707
Pt 17.4935 7.5918 35.3692
Pt 19.4342 5.67496 35.4051
Pt 19.5054 7.44576 33.3957
Pt 17.558 5.89313 37.3318
Pt 17.5495 7.66012 39.3379
Au 19.4476 5.64448 39.3724
Pt 19.5357 7.56366 37.3769
Pt 19.5026 7.70452 41.2538
Pt 17.4848 11.575 7.63124
Au 19.2962 9.34693 7.50464
Pt 19.5345 11.5736 5.95299
Au 17.3665 9.4125 9.46891
Pt 17.4966 11.4548 11.3983
Pt 19.3905 9.5037 11.4486
Pt 19.4308 11.4727 9.38897
Au 17.4485 9.43144 13.4477
Pt 17.4488 11.4378 15.4665
Au 19.5214 9.44155 15.5273
Pt 19.398 11.4498 13.4604
Au 17.5537 9.45168 17.4791
Au 17.5087 11.4375 19.4318
Pt 19.5022 9.27544 19.4637
Pt 19.4412 11.4297 17.464
Pt 17.5423 9.31655 21.397
Au 17.4802 11.4103 23.3962
Au 19.4863 9.2632 23.4467
Au 19.4941 11.3284 21.4394
Au 17.5157 9.25711 25.4455
Au 17.5076 11.3705 27.4351
Au 19.5038 9.17085 27.4241
Au 19.4948 11.3149 25.4234
Au 17.5641 9.3072 29.4199
Pt 17.5627 11.4611 31.4297
Pt 19.509 9.3114 31.4067
Au 19.4681 11.3684 29.4667
Pt 17.571 9.43973 33.3684
Au 17.4965 11.5226 35.4228
Au 19.4818 9.47884 35.3778
Au 19.4817 11.4596 33.354
Au 17.4951 9.53237 37.416
Pt 17.3897 11.512 39.4219
Pt 19.4715 9.5824 39.3317
Pt 19.4311 11.5339 37.4344
Pt 17.5384 9.58838 41.2437
Au 17.343 11.3769 43.4381
Pt 19.5368 9.61475 43.2174
Au 19.4323 11.5396 41.398
Pt 19.56 11.6053 44.9997
Au 17.4486 13.4688 5.62834
Pt 17.4939 15.4851 7.53293
Pt 19.4883 13.6148 7.50906
Au 19.3957 15.4517 5.36559
Au 17.512 13.4844 9.47104
Au 17.5042 15.4944 11.4394
Pt 19.4487 13.4872 11.4109
Pt 19.4796 15.5233 9.42677
Au 17.5037 13.4184 13.4284
Pt 17.4503 15.4008 15.3884
Au 19.4418 13.4144 15.4502
Pt 19.4268 15.4618 13.4323
Pt 17.4416 13.437 17.3762
Pt 17.422 15.402 19.3508
Au 19.4464 13.4563 19.3861
Pt 19.3722 15.414 17.3616
Au 17.4458 13.4737 21.4125
Au 17.4562 15.4717 23.4281
Au 19.4845 13.3921 23.4405
Au 19.4418 15.4453 21.3997
Au 17.4757 13.4619 25.4128
Au 17.4722 15.4624 27.4792
Au 19.4332 13.4204 27.4659
Pt 19.4309 15.4505 25.4427
Pt 17.5071 13.4989 29.5201
Pt 17.4432 15.4523 31.4565
Pt 19.4415 13.4688 31.446
Pt 19.4191 15.4267 29.5224
Au 17.4614 13.4784 33.4051
Au 17.4418 15.4707 35.4653
Pt 19.4333 13.4793 35.3875
Pt 19.4211 15.4329 33.402
Pt 17.4417 13.4798 37.4686
Au 17.4605 15.5273 39.4703
Au 19.4437 13.5112 39.4322
Au 19.4401 15.4719 37.4404
Au 17.3805 13.4512 41.4694
Pt 17.5284 15.6238 43.3501
Au 19.4935 13.5974 43.3541
Au 19.489 15.6141 41.4588
Pt 17.4815 13.6012 44.9882
Au 19.4576 15.4692 45.5284
Pt 17.3925 17.4621 5.68033
Pt 17.4924 19.4718 7.39878
Au 19.524 17.4353 7.31279
Pt 19.4618 19.4551 5.54749
Au 17.545 17.4956 9.42313
Au 17.4948 19.3874 11.4502
Pt 19.4884 17.4687 11.42
Pt 19.5157 19.4308 9.28469
Pt 17.4814 17.3814 13.4287
Au 17.4724 19.382 15.3803
Pt 19.422 17.377 15.4001
Pt 19.4511 19.3414 13.415
Pt 17.4451 17.3527 17.3268
Au 17.3963 19.4688 19.4184
Au 19.3796 17.3987 19.3595
Au 19.4182 19.4295 17.3793
Au 17.4081 17.4379 21.4294
Au 17.4123 19.4474 23.4125
Pt 19.4116 17.4392 23.4088
Au 19.4194 19.4502 21.4223
Au 17.4517 17.4564 25.4042
Au 17.4238 19.4381 27.4697
Au 19.4159 17.4122 27.4836
Au 19.4273 19.4507 25.4169
Pt 17.433 17.3892 29.5264
Pt 17.3758 19.3715 31.4429
Pt 19.4047 17.3694 31.4569
Au 19.3745 19.4051 29.5082
Au 17.4242 17.4288 33.4202
Au 17.4372 19.4209 35.4792
Au 19.4415 17.4579 35.4646
Au 19.4061 19.4308 33.4237
Pt 17.4522 17.4959 37.5094
Pt 17.4851 19.4615 39.4917
Pt 19.4222 17.5629 39.5042
Pt 19.4153 19.4702 37.5228
Pt 17.4811 17.599 41.4802
Pt 17.5155 19.5454 43.6103
Pt 19.438 17.5301 43.5693