3871
Atoms. Timestep: 21346
Au 24.6597 24.5963 3.01264
Pt 7.26842 16.8698 30.822
Pt 13.4648 22.2597 39.351
Pt 14.4552 18.7132 36.3951
Pt 15.1957 13.0518 31.4984
Pt 25.061 36.2389 16.8076
Au 16.4149 33.6879 25.1339
Pt 17.7127 31.723 13.5061
Pt 18.2263 9.51537 17.6218
Pt 18.8974 35.0936 29.6139
Au 16.4739 40.0762 42.2026
Pt 6.82184 28.3429 20.1458
Au 3.56235 36.1914 20.1814
Pt 15.8047 42.4861 34.8275
Pt 25.1664 22.686 18.9618
Pt 30.2727 35.3825 12.0721
Pt 19.7172 38.7783 15.3048
Au 46.4899 37.7261 30.3895
Pt 20.346 38.1408 39.3937
Au 11.8159 44.7795 27.6999
Pt 26.1039 26.4639 7.79448
Au 34.0176 31.5662 45.079
Pt 23.1178 7.31099 33.7521
Au 22.0881 24.2108 47.528
Pt 26.4009 16.7031 28.1913
Au 24.9264 35.9969 44.3436
Pt 25.6755 41.2415 22.4605
Pt 20.3202 13.7206 37.223
Pt 21.0045 20.9228 38.1941
Pt 23.3754 7.86918 24.7943
Pt 15.0669 43.7453 19.7566
Au 27.0898 5.86665 19.9338
Pt 11.6649 23.4863 30.6811
Pt 26.194 20.1408 18.2472
Pt 35.1184 10.0784 33.6704
Au 29.5715 46.4444 14.9271
Pt 22.1791 32.2369 13.393
Au 48.4341 30.1684 32.9659
Pt 12.5417 16.2608 22.3317
Au 10.2143 19.4995 42.3336
Pt 11.1201 31.3619 35.753
Pt 6.96492 28.3035 17.4186
Pt 21.6678 33.8618 26.071
Au 16.9883 28.2734 6.78512
Pt 18.9838 39.3077 17.8454
Pt 26.6152 9.38602 32.4078
Pt 24.3286 18.6249 32.9749
Au 7.38803 6.41867 23.5472
Pt 27.5698 22.0993 13.6534
Au 39.301 21.9803 20.8771
Pt 17.1804 38.0502 19.4409
Pt 11.6305 30.1209 17.412
Pt 13.8721 32.8652 31.0333
Au 4.75361 33.719 30.5082
Pt 30.3388 36.1683 32.9006
Pt 16.8898 22.7823 30.671
Pt 27.8952 38.0002 33.4053
Au 33.1758 41.2943 15.8396
Au 44.9179 32.9664 32.9007
Pt 25.6277 17.24 13.733
Au 5.30259 12.2688 17.8496
Pt 31.0134 26.6533 40.5651
Pt 20.1922 41.3146 33.034
Pt 27.8776 33.1783 18.2553
Pt 22.3118 36.6216 26.3749
Pt 6.80423 32.9746 16.8109
Pt 29.4534 22.8377 20.7302
Au 5.81727 13.2815 23.1317
Au 31.6284 46.4558 17.3332
Pt 6.24546 21.2755 27.1688
Au 9.22958 27.8978 39.2328
Pt 18.0621 30.9115 24.4451
Pt 5.66768 21.3521 33.5898
Pt 31.4934 16.4214 39.8019
Au 10.4934 38.1817 24.3354
Au 9.23822 37.357 36.2438
Au 29.3851 3.72371 30.5482
Pt 13.6556 7.96071 28.579
Pt 12.2935 16.6215 28.6229
Au 42.4351 13.422 20.2917
Au 36.0748 30.8054 13.635
Pt 18.3848 16.0672 25.6857
Au 9.06144 16.3541 15.5302
Pt 12.0757 21.3175 20.2849
Pt 19.602 18.8361 20.8985
Pt 10.1461 19.2767 27.6883
Pt 27.9181 28.8599 20.2001
Au 11.2388 44.653 25.0565
Pt 14.2009 6.88432 23.2245
Au 10.0486 38.2462 13.3637
Pt 18.4797 29.186 12.4218
Pt 8.82524 20.5752 33.3773
Pt 27.6516 19.0101 20.4092
Pt 28.2869 37.966 19.3807
Au 8.62888 8.25133 28.1542
Pt 32.233 22.1756 5.44726
Pt 18.8743 31.8038 21.9634
Pt 13.6078 31.2295 11.2616
Pt 26.1427 27.1909 46.0947
Pt 16.2758 30.974 35.9689
Pt 12.2724 20.9138 41.3308
Au 35.603 36.0131 34.5932
Pt 10.3334 29.6495 28.2082
Pt 30.6366 29.6585 21.0713
Pt 28.5592 14.3622 14.6386
Pt 19.4306 14.126 11.2737
Pt 32.3889 37.545 31.8013
Pt 25.2692 11.6748 32.6499
Au 24.1981 9.66895 41.1559
Pt 16.395 17.2436 16.9573
Au 33.4246 14.4436 43.4908
Pt 17.0231 21.7812 43.7875
Au 51.1124 25.4501 26.6085
Au 26.8418 7.03706 15.1324
Pt 27.1171 26.1108 23.507
Pt 7.92838 33.7824 22.2312
Pt 33.7785 28.4513 33.6145
Pt 30.2958 18.3062 19.2651
Pt 29.5672 33.9326 7.66265
Au 2.78444 27.1512 30.0334
Au 46.651 34.9327 33.6889
Pt 30.6356 22.3304 27.64
Pt 22.7367 12.4729 17.3529
Pt 9.78742 20.3445 21.4344
Pt 26.0796 37.9826 10.7033
Pt 24.6915 33.9574 40.0525
Au 35.5951 30.5637 32.5302
Au 9.78565 39.9438 17.423
Au 38.3938 29.767 45.2487
Pt 18.3486 22.2107 23.212
Pt 15.9263 8.03631 29.911
Pt 35.1058 15.7485 32.0729
Pt 22.0623 42.3311 38.5335
Pt 27.4632 36.6793 39.8923
Pt 18.7215 35.4973 19.1443
Pt 10.6018 25.9315 37.5418
Pt 24.1516 31.5239 16.8866
Pt 13.1749 7.41818 18.9857
Pt 8.18975 12.8697 27.0833
Pt 20.6357 36.1836 41.1313
Au 14.6149 37.2435 38.4417
Pt 31.2854 42.9233 14.6129
Pt 31.5992 31.91 15.1568
Pt 27.8207 22.8213 34.1966
Au 2.51314 14.9064 18.0181
Au 16.2833 35.4334 8.07369
Pt 16.6091 15.3568 20.1987
Pt 10.7275 22.3622 39.4638
Pt 22.9187 11.7252 33.8991
Au 26.9996 16.286 36.5151
Au 35.8806 13.234 17.1895
Pt 21.5675 30.0104 42.211
Au 36.751 4.25634 34.9577
Pt 17.4597 33.6533 20.5485
Pt 20.3739 35.7911 24.587
Pt 21.8826 30.604 27.108
Pt 20.8914 28.4096 31.1246
Pt 29.293 31.2316 32.9954
Pt 10.1833 21.1121 30.8131
Pt 13.6223 21.0603 11.9098
Pt 8.63789 19.0743 30.6356
Pt 22.6929 32.4244 38.8263
Pt 30.0632 32.3913 21.8552
Au 35.7531 9.95145 30.9711
Au 31.3226 46.4931 35.1387
Pt 11.4822 15.4326 24.9911
Pt 16.3678 32.2495 22.8689
Au 5.08168 13.8272 15.5815
Pt 29.2072 12.5392 34.9995
Pt 21.8046 34.1475 11.4138
Au 44.2398 15.4506 32.8402
Pt 20.2443 14.3239 22.5814
Pt 11.4874 27.4883 23.796
Pt 5.68127 20.5699 29.7081
Au 33.1672 23.1999 46.4734
Au 33.4409 11.9854 41.9244
Au 4.7293 28.1897 31.5711
Pt 19.741 6.73224 21.6525
Pt 26.9585 21.2214 5.08697
Au 29.7879 28.0795 6.67588
Pt 42.8299 28.4424 10.8548
Au 34.6471 12.6794 26.9064
Pt 30.0887 30.7695 38.6323
Pt 22.9177 29.7097 12.5262
Pt 9.90354 33.6214 24.4072
Pt 28.3992 26.7574 41.9852
Pt 23.2057 17.73 5.36077
Pt 19.0842 14.1533 14.4425
Au 8.619 5.76993 19.1916
Pt 8.88419 38.8442 19.8804
Au 30.9809 14.8873 10.5978
Pt 7.5887 12.0782 29.652
Pt 17.4128 28.8804 26.3941
Pt 32.9412 35.9416 29.6767
Pt 25.0366 8.36497 19.8531
Au 45.2576 18.3703 22.4668
Pt 25.0943 13.6151 17.2273
Pt 7.49581 26.2024 21.5489
Pt 26.4445 22.2005 9.66681
Pt 12.0619 6.33394 24.9821
Pt 21.953 12.9673 24.2155
Pt 26.6147 23.426 31.2364
Pt 11.4145 29.6716 13.3697
Pt 12.1095 39.1376 29.5064
Pt 27.1182 41.8429 13.4559
Pt 19.5246 36.0723 15.1437
Pt 29.4338 13.6708 30.521
Pt 3.93275 24.6153 22.6568
Au 43.3798 23.1937 15.1573
Au 26.4636 47.266 18.5196
Au 39.162 8.12585 28.282
Pt 18.0887 26.3899 8.55101
Pt 27.3865 29.3222 6.80985
Au 38.4443 39.4587 9.9924
Au 47.2504 23.5982 32.1795
Pt 25.1701 29.7196 11.0235
Pt 16.4218 24.3476 19.6246
Pt 19.3024 37.8028 12.8813
Au 34.0903 4.10122 26.5898
Pt 27.4099 27.2681 37.0992
Pt 16.2753 31.4756 26.7059
Pt 12.0103 29.5386 21.9734
Pt 13.9152 28.3924 29.4369
Pt 29.7153 26.4823 32.4642
Pt 7.40964 30.5548 15.6787
Pt 14.9208 13.2944 9.20909
Pt 5.76877 18.2618 23.0236
Au 23.9002 3.58639 16.9208
Au 37.4088 17.2515 31.9037
Pt 23.1209 9.87194 21.3154
Pt 30.5761 32.8677 18.7798
Au 28.8076 47.7921 17.1306
Pt 27.0287 14.9917 26.1975
Pt 30.9084 41.1976 37.0366
Au 2.8315 24.5477 29.6404
Pt 7.92608 31.655 24.3208
Au 3.81945 15.4261 30.9781
Pt 14.2083 21.3348 37.003
Au 3.19546 21.2366 34.7564
Au 1.62286 25.6754 21.5062
Pt 10.4409 25.463 12.8913
Pt 31.9733 8.24647 25.6753
Au 40.1694 39.9122 22.0656
Pt 24.6943 30.5478 23.1336
Pt 15.1613 9.61574 14.4841
Pt 23.069 32.6758 30.4273
Pt 27.6016 30.2065 9.45839
Au 21.23 19.3776 6.28212
Pt 14.0448 15.7506 15.7457
Pt 27.4058 42.4116 20.7059
Pt 4.95219 23.1827 25.7284
Pt 11.6576 15.8991 11.6546
Au 35.2396 13.1909 39.0799
Pt 7.92316 36.2188 28.5325
Pt 18.8386 41.8286 35.4095
Au 35.4715 10.8319 12.4826
Pt 23.625 32.9869 27.5807
Au 11.0679 44.3818 30.1983
Pt 26.91 39.8207 20.6109
Pt 7.65975 24.9083 35.7273
Pt 21.4558 25.6822 19.4123
Pt 11.8152 11.1477 22.2155
Pt 6.49524 29.573 30.0375
Pt 13.1345 24.9542 35.1232
Pt 29.7579 27.1887 38.1406
Au 42.3815 19.9048 40.3464
Pt 6.63273 36.5217 26.1841
Au 43.4332 29.0931 32.4277
Pt 27.1551 16.9794 43.655
Pt 26.1361 17.3187 18.6721
Au 3.85999 32.155 28.071
Pt 17.9475 21.9979 28.4613
Pt 25.217 33.5895 18.1216
Au 19.0371 20.4578 4.9156
Pt 19.8488 43.3902 26.7808
Pt 16.5446 28.4009 35.5373
Pt 16.3326 26.7896 21.4351
Pt 31.1258 22.4246 10.7117
Au 4.38359 28.5068 25.2621
Au 3.22076 13.7333 22.5288
Pt 18.283 8.88367 29.1179
Pt 26.3147 18.5449 35.1167
Pt 22.9663 16.2756 40.502
Pt 14.5208 44.5486 27.356
Au 40.6453 19.5553 21.2027
Pt 23.8873 17.2734 35.292
Au 28.1995 14.3851 7.13134
Pt 19.3357 24.2581 29.3411
Pt 13.9552 23.0596 19.5002
Au 28.3417 10.2007 43.6306
Au 38.6788 42.3329 28.4714
Au 37.5599 36.9569 33.0479
Pt 17.6271 14.8174 22.8524
Pt 23.7119 45.9176 25.8961
Pt 11.5004 15.8517 16.8934
Au 22.9846 22.6454 42.7779
Pt 27.669 36.2854 21.823
Au 39.362 17.7871 19.2183
Pt 8.37473 14.6464 29.3414
Au 40.9118 18.4797 38.4497
Au 39.3354 20.3572 29.0243
Pt 19.7588 29.0994 28.4654
Au 11.9211 23.5394 37.268
Au 36.6044 41.3221 36.4823
Au 34.9382 33.986 24.5147
Au 9.33758 8.85046 34.0586
Au 0.373949 23.3414 25.5605
Pt 32.5985 43.9546 21.2039
Pt 15.028 16.1796 35.4781
Au 39.7321 7.29023 33.0406
Pt 16.2736 25.286 12.2009
Au 4.75086 17.5154 13.7995
Pt 12.6278 33.2804 39.9949
Pt 17.9872 33.0567 36.8831
Au 8.98923 4.99552 21.892
Pt 5.61206 29.7979 27.2548
Au 37.7315 9.99529 35.0423
Pt 28.1422 13.0012 27.7952
Au 42.8666 36.8807 10.6434
Au 13.6523 47.8664 21.3672
Pt 16.1221 24.8912 9.64475
Au 24.1122 8.03622 16.7492
Au 44.9442 32.0491 11.2965
Au 35.5958 14.3387 22.0168
Pt 20.3758 22.9311 41.7425
Pt 25.2656 31.5988 8.97838
Pt 35.191 22.904 19.2361
Au 26.5234 40.2125 8.68793
Pt 22.5718 37.5701 37.979
Pt 16.8536 21.5288 8.39179
Au 12.9176 24.2139 45.9092
Au 13.7965 5.87483 16.6031
Pt 13.3919 41.6266 21.3438
Pt 12.6722 31.0227 27.1799
Au 4.39808 31.1 30.9584
Pt 35.9524 27.1562 34.666
Pt 12.6053 39.6487 32.3347
Pt 10.6056 7.42279 19.9512
Au 23.8514 7.89254 36.3485
Pt 17.1161 26.1223 17.6599
Au 9.83741 13.6159 16.1511
Au 24.6662 46.4674 13.8646
Au 23.1956 43.307 10.4914
Pt 17.6851 33.5992 11.4348
Pt 24.7096 42.6941 12.6451
Pt 31.7686 24.2039 19.6678
Au 45.3323 28.5596 18.7496
Au 41.394 42.1543 21.0158
Au 45.5173 40.0982 29.7047
Au 26.4322 17.6881 11.2041
Au 22.3429 4.90027 28.924
Au 44.9968 28.6192 30.2447
Au 39.3521 20.6335 43.4164
Pt 17.7962 24.9893 23.988
Au 46.262 15.8703 35.3104
Pt 24.4918 5.70354 20.9016
Au 32.3564 5.08566 35.9533
Pt 25.1491 23.1265 35.5738
Au 8.34896 19.9188 11.8958
Au 40.4557 35.4307 27.4555
Pt 10.1071 25.6606 22.1809
Au 39.6332 32.6932 32.5686
Au 27.3869 3.14656 23.8694
Au 31.2995 30.0882 5.4519
Pt 15.2057 25.3705 33.3245
Pt 29.8766 17.8263 5.86905
Au 28.356 33.867 5.1288
Pt 18.1643 23.5854 13.2637
Au 3.64554 20.329 32.0003
Pt 19.3091 22.9736 31.7679
Pt 33.0036 26.5192 19.9486
Au 28.8354 19.6832 45.897
Au 32.2944 6.02145 33.4156
Pt 34.9758 38.2198 32.8557
Pt 8.80333 25.8119 33.4892
Pt 20.2991 30.4627 44.5845
Pt 26.5967 35.4614 24.3132
Au 5.94844 8.20032 27.6555
Au 25.8329 33.4036 10.8859
Au 42.0312 32.9623 18.8727
Pt 10.7571 12.8131 26.039
Au 21.4061 31.1894 5.1551
Pt 13.9311 16.5166 24.7303
Au 31.2757 16.1362 42.6588
Au 17.0517 19.0385 43.497
Au 42.0878 19.6078 29.6122
Pt 45.8462 28.062 21.4367
Pt 16.6304 35.2029 34.3252
Au 39.2257 21.9393 16.1024
Pt 23.297 30.3757 19.1241
Au 42.4439 13.742 14.1341
Pt 31.9643 20.2363 36.958
Au 35.5129 32.9262 27.3238
Au 27.9211 18.7007 4.19502
Au 41.4085 25.5147 7.62359
Pt 34.3593 26.0616 30.4473
Au 34.0004 8.00663 32.5067
Pt 17.7487 36.0569 25.3913
Au 20.9815 43.149 36.2384
Pt 17.0427 14.1298 12.4795
Au 42.4202 35.1884 14.3349
Au 22.8945 6.03112 12.8673
Pt 31.2475 30.4908 44.2593
Au 12.9195 36.1081 10.2834
Au 42.246 17.8586 22.9656
Pt 16.448 31.4169 31.4507
Pt 12.9879 11.3402 24.4856
Pt 30.4398 36.4839 15.9817
Pt 10.3962 31.2293 25.6737
Au 32.7743 7.82641 35.4915
Au 18.936 5.43345 32.6214
Pt 27.0263 21.2841 41.9703
Au 19.3532 30.829 47.2226
Pt 32.1061 27.664 31.6069
Pt 27.2961 27.4429 15.7941
Pt 20.4821 8.32738 25.0808
Pt 24.6343 35.5432 26.8036
Au 26.5785 22.7201 2.86171
Pt 9.21173 26.628 16.3147
Pt 37.7816 26.2129 33.045
Pt 6.88185 32.8737 34.3162
Au 34.7751 22.588 40.8109
Pt 18.0511 26.3198 45.8545
Au 8.51684 43.6669 24.8303
Pt 31.6744 15.0839 29.3328
Au 43.5769 32.2188 16.5905
Pt 27.4743 45.0576 20.3896
Au 43.3238 26.4009 40.8076
Au 25.5171 15.935 6.45444
Au 10.8959 4.51417 20.094
Pt 24.1952 25.9536 12.7245
Au 35.0673 11.5199 9.87555
Pt 8.64701 27.1652 23.7223
Au 37.787 34.8524 16.6649
Pt 24.8387 12.7739 29.9244
Au 43.4953 33.1224 40.8068
Au 44.8904 30.569 34.3718
Pt 17.3929 34.4703 14.0993
Au 39.736 16.295 39.9063
Au 39.0212 9.6221 21.9572
Au 33.9403 26.2758 8.50342
Au 42.8008 23.8051 41.3914
Au 30.4197 3.37465 20.1541
Au 36.8002 12.1218 29.4439
Au 14.7813 47.6783 23.8575
Pt 23.1674 39.8688 39.4705
Au 27.7329 11.2174 10.9199
Pt 20.9402 20.7553 35.4602
Au 29.561 5.47117 15.134
Pt 18.6783 28.8378 9.19904
Au 17.2215 12.9343 41.8972
Au 36.3879 9.17563 28.3531
Au 20.8074 34.1812 4.87842
Au 25.695 11.0021 43.2987
Pt 16.1282 20.0341 16.9856
Pt 16.2933 25.8082 26.2654
Pt 5.72069 12.1754 25.8499
Pt 33.0842 15.0097 23.2622
Pt 29.9858 11.1076 30.7044
Pt 24.5772 38.3892 8.32354
Pt 23.6311 27.4147 40.5773
Au 27.5699 45.8767 38.2842
Pt 21.0201 30.933 30.2338
Au 16.9192 29.4326 22.3083
Pt 18.801 27.4832 22.8085
Au 30.5134 47.9843 22.0378
Au 43.0922 35.057 17.0479
Au 40.6109 26.9501 24.991
Au 31.9658 14.3821 35.0439
Au 38.939 28.9863 26.3628
Pt 8.67083 19.5245 19.094
Pt 26.3759 46.561 29.5292
Pt 14.5974 39.5194 22.7829
Au 43.7992 38.0165 30.3243
Au 36.3644 45.0832 23.8278
Au 12.5344 39.438 14.2525
Au 28.1685 47.8884 28.2135
Au 32.2859 17.2203 4.43565
Pt 35.5351 25.4538 37.0432
Au 41.9458 28.891 30.1265
Au 38.0067 16.7809 28.9852
Pt 29.854 37.0238 35.3026
Pt 18.3725 7.39978 26.7414
Au 19.2177 8.92965 12.4636
Pt 8.08048 19.6221 25.9501
Au 34.5685 15.9522 39.2317
Pt 20.4299 36.3183 31.4007
Pt 22.9268 25.6918 21.7349
Au 39.6688 34.7156 42.7684
Au 43.6727 31.2497 30.3347
Au 22.383 31.3363 46.2419
Pt 22.3382 38.9783 25.0634
Pt 13.8301 14.6037 20.2343
Pt 27.5233 34.4062 43.8731
Pt 40.4073 12.1199 26.4428
Au 5.08303 23.1984 35.4194
Au 34.2457 34.0589 43.7418
Au 42.2357 16.947 31.2841
Pt 19.1167 27.5038 32.861
Pt 27.4575 42.8765 27.4251
Pt 22.978 24.3632 7.3999
Pt 19.1553 40.4185 23.5059
Au 6.73661 8.95017 32.8152
Au 21.2194 41.6456 9.50276
Pt 8.33175 7.68347 21.258
Au 21.5861 5.12837 33.1311
Pt 19.7537 28.91 25.2596
Au 34.2245 13.0168 7.73512
Pt 6.05149 24.0858 20.9704
Au 13.3263 16.007 42.9228
Pt 29.365 23.7224 32.1574
Au 40.0531 35.4443 32.6968
Au 15.7723 24.0385 7.17622
Au 8.08122 12.0221 18.5124
Au 19.781 18.0472 46.4258
Pt 24.8612 35.9023 22.2974
Pt 16.1652 22.9054 15.2072
Au 37.4184 33.4244 23.0193
Pt 8.16831 36.6084 31.4844
Au 7.17249 9.76567 14.5426
Au 2.55956 21.9693 18.4607
Au 27.2486 26.9955 5.2639
Au 1.78772 17.4153 18.6712
Pt 15.2245 40.1808 25.5919
Pt 18.3237 21.4828 15.1845
Au 35.8859 22.9585 16.3945
Pt 27.8084 29.8124 14.4637
Pt 31.9661 40.5658 13.5264
Au 18.1303 28.5317 40.1055
Pt 15.6537 37.6572 26.3901
Pt 17.628 13.9594 27.1525
Au 20.0915 5.35255 27.06
Au 1.98876 16.3838 26.0839
Au 14.601 4.96327 25.1845
Pt 32.0647 44.8548 25.4372
Pt 20.7194 40.6447 40.2932
Pt 6.27625 14.6416 25.4157
Pt 6.69355 19.1539 34.8276
Au 10.9637 7.80461 29.5592
Pt 18.589 32.2574 29.8617
Au 19.23 39.9982 8.4231
Pt 15.4387 35.3072 16.5149
Au 35.5648 21.5273 43.1741
Pt 19.0465 20.5849 42.3991
Pt 11.3897 19.8635 34.7339
Pt 15.2807 24.1577 40.2686
Pt 27.5996 16.663 15.3154
Pt 17.7596 25.5777 34.4284
Pt 24.8977 33.4107 7.01639
Pt 18.1076 19.1881 9.2806
Au 15.8032 32.0759 9.8698
Au 47.9974 27.23 19.9627
Au 21.6488 21.1484 4.22337
Pt 22.9463 17.9314 25.0998
Au 39.4541 34.1584 19.0234
Pt 20.0927 23.4686 24.7148
Pt 9.87987 29.6307 23.6355
Pt 25.0533 23.4361 14.0374
Pt 14.2304 28.0209 23.0179
Pt 19.2214 34.5508 33.2918
Pt 32.2144 14.0665 25.5573
Pt 14.616 15.5366 27.2334
Au 46.862 23.435 27.3012
Pt 22.5769 22.2238 16.4867
Pt 20.5458 23.1435 14.4888
Pt 10.7937 13.1988 23.5137
Pt 15.7868 11.2737 33.4524
Au 42.3897 23.9926 29.3873
Au 11.7134 40.8981 36.0421
Au 44.3799 18.1913 14.1709
Au 41.9827 13.9701 31.2289
Pt 7.23685 23.8369 18.1994
Au 36.5241 22.9343 37.2544
Pt 32.6306 36.7803 34.2646
Au 17.7588 31.8117 45.3229
Pt 30.3302 26.9442 20.2191
Pt 31.4158 15.7248 19.1616
Pt 31.2378 25.0679 14.298
Au 33.8134 38.738 14.5943
Au 36.2132 30.879 37.4851
Pt 26.8895 25.1029 35.6708
Au 32.9636 40.8256 39.2015
Pt 33.4256 24.3868 35.4411
Pt 18.6164 16.2841 12.9275
Pt 10.6535 22.9338 22.4992
Pt 11.9772 31.2774 41.8337
Pt 7.41741 27.9542 14.8757
Pt 14.3482 37.5978 15.3731
Pt 14.2567 26.0054 27.9918
Pt 34.6775 31.1014 19.9898
Pt 28.7251 43.8841 14.3164
Pt 19.7865 35.423 27.1552
Au 40.132 8.16078 24.123
Pt 23.0893 14.5642 15.2216
Pt 20.153 37.3294 8.46045
Pt 7.74289 38.0992 24.3339
Au 25.3707 17.3584 3.90691
Pt 31.5317 5.41016 26.5576
Au 31.9415 27.6849 13.7352
Pt 30.3717 21.3064 32.7742
Pt 28.316 20.011 29.6142
Pt 16.1323 11.97 37.4462
Pt 9.80449 25.7172 30.8521
Au 40.0365 23.7303 18.6125
Pt 10.1442 14.1379 18.8054
Pt 10.1867 15.1226 27.3915
Pt 12.4493 19.3511 14.0116
Pt 20.7621 8.54957 30.8019
Au 36.8901 31.1045 6.45259
Pt 13.5659 23.8247 15.1932
Pt 17.2979 22.5984 17.5956
Au 43.2376 35.7879 27.0258
Au 41.8842 11.1741 31.6907
Pt 38.5065 20.3255 22.9097
Pt 14.2414 31.015 40.3943
Pt 25.3583 35.661 9.44234
Pt 26.0975 26.595 29.1863
Pt 27.6821 6.82187 32.4012
Pt 34.1227 17.4748 18.7128
Pt 18.2356 33.0862 39.4775
Au 25.2284 47.9315 27.1732
Pt 14.8951 23.2237 12.8236
Au 29.2763 13.8472 19.5799
Pt 16.8859 14.4805 15.8092
Pt 11.7314 21.8908 14.9291
Au 12.2342 5.5288 29.9672
Pt 28.381 15.1448 21.7831
Au 34.8741 36.0347 39.3245
Pt 16.2207 23.107 24.867
Au 36.2842 33.6337 5.15051
Pt 32.9901 21.2512 31.8696
Pt 18.4489 34.6187 41.5657
Au 26.0072 48.0449 31.8197
Au 37.4314 19.7893 41.7336
Au 4.07482 18.7593 34.3013
Au 32.9832 10.5197 11.4755
Au 3.18982 25.7913 32.3033
Au 7.07996 39.6643 18.0256
Au 20.1584 5.94401 30.2226
Au 0.978138 23.5671 19.9767
Pt 36.5859 6.56234 27.8736
Pt 14.6651 18.2349 22.6388
Pt 24.8344 43.7091 32.7365
Pt 25.62 41.0258 27.0235
Pt 21.0663 15.7497 24.9074
Au 12.4481 41.8253 15.9404
Pt 7.27283 20.4679 22.6086
Pt 11.2043 14.6324 30.1601
Pt 26.0497 20.9137 34.0652
Pt 10.6273 33.8342 34.6122
Au 20.335 25.6941 4.75738
Au 2.49399 15.6365 20.6138
Pt 27.1899 32.9431 32.9913
Au 48.4527 28.5662 22.5662
Pt 12.4275 18.7741 21.2445
Pt 12.0116 31.0722 29.7499
Au 32.3565 31.4076 7.97207
Pt 14.4798 20.9932 14.5766
Au 44.9791 20.2712 35.565
Pt 16.0345 30.0008 11.7505
Au 38.4189 13.6016 18.286
Au 7.09625 35.6295 16.0638
Pt 24.7668 25.075 23.7758
Pt 12.3653 25.0025 23.5862
Pt 25.4842 20.4926 14.1232
Au 32.1655 45.5153 14.7723
Pt 26.9914 24.3195 20.1092
Au 15.2919 5.86057 20.6843
Au 39.2609 40.7605 12.4954
Au 45.2625 38.7204 22.6724
Pt 18.9258 21.0672 39.8371
Au 13.0628 29.0853 9.76345
Au 15.0724 26.7143 8.03761
Au 44.35 32.2543 27.6834
Au 23.8737 28.564 46.8671
Au 20.6917 10.5191 17.3581
Au 37.2076 42.6602 13.2512
Pt 16.6157 41.4003 30.5547
Au 3.79624 35.1258 22.6754
Pt 8.31583 18.8688 16.4967
Au 39.7661 22.2584 10.6764
Pt 19.1504 14.5885 40.9059
Pt 18.7138 29.2443 17.6101
Pt 20.642 14.9498 16.7147
Pt 21.1887 19.6351 17.9359
Pt 14.4581 17.1361 20.2274
Pt 33.5283 16.7384 25.2821
Pt 33.1827 27.944 41.254
Pt 23.3192 38.5989 10.5046
Pt 9.76821 11.9898 20.6108
Pt 42.74 34.6889 23.5676
Au 36.9864 10.6905 17.8325
Pt 25.9284 44.8961 24.4945
Pt 18.3903 23.6226 8.376
Pt 9.704 21.9755 35.4261
Pt 25.4332 38.5595 34.8574
Pt 26.8625 42.3247 31.8567
Pt 19.2194 40.805 30.6077
Au 30.8704 12.883 27.8394
Au 8.67147 27.3833 36.289
Au 34.0188 19.8946 34.098
Au 35.018 36.428 42.1382
Au 24.2139 7.83913 11.2247
Au 28.4412 39.3184 6.92454
Pt 15.9846 28.9194 30.9066
Pt 23.2813 17.7352 30.3962
Pt 23.6549 18.1016 17.9718
Pt 12.8421 20.0011 16.7001
Au 4.7511 29.2927 21.8631
Au 41.3784 21.4274 14.1723
Pt 29.3682 39.8294 29.2473
Au 43.0081 17.1161 28.5636
Pt 22.4254 34.4884 6.95437
Au 25.2973 27.3106 3.31571
Pt 18.8086 19.1352 35.1035
Pt 24.7471 11.46 19.9588
Pt 20.6076 29.8707 33.4656
Au 29.056 46.0743 33.5732
Pt 19.51 18.514 13.9637
Pt 20.0883 41.6757 18.3619
Pt 29.8589 9.87734 26.0692
Au 45.7065 26.3286 38.7618
Au 21.3919 20.1232 46.2842
Pt 10.8258 34.9847 16.2895
Au 34.7895 22.0343 4.67948
Pt 28.7652 10.5578 28.3746
Pt 9.18644 23.3804 29.747
Au 4.68144 13.838 33.0182
Pt 28.8413 17.4005 26.953
Au 14.3197 39.8611 11.3062
Pt 11.5296 28.364 30.2582
Au 4.61881 22.1967 13.885
Au 29.0894 40.7169 31.8225
Au 38.5174 8.54326 18.8595
Au 39.1321 13.1512 21.4632
Au 14.316 40.457 40.7008
Au 13.8046 9.68938 12.0049
Au 2.35207 28.6588 20.8842
Au 33.7993 9.93388 23.9979
Pt 30.5299 38.8916 33.4723
Au 30.2692 35.2756 23.069
Au 18.9845 11.818 13.1209
Pt 22.3819 10.1813 23.8723
Pt 8.3208 20.9495 28.7735
Pt 23.6437 27.0304 8.55145
Au 44.5296 12.9466 18.558
Au 13.4414 46.083 29.5255
Au 25.8761 42.8084 10.0026
Au 37.7729 26.4776 24.9321
Au 35.5533 40.0559 38.6492
Au 35.2481 37.8579 7.4717
Au 34.1892 30.465 6.23402
Au 11.1394 5.99511 17.7118
Pt 13.8049 28.8584 12.7534
Pt 28.7075 35.2986 14.1888
Au 30.4903 15.2177 5.58136
Au 33.5216 11.9242 16.7867
Pt 26.6818 41.1728 29.5175
Au 32.284 3.79083 24.3546
Au 34.1642 18.8465 10.8563
Au 45.7511 33.1655 30.2211
Pt 21.1761 14.5299 19.6767
Au 13.0563 33.9685 11.9295
Au 18.7754 14.3915 43.6407
Au 39.8506 38.2804 32.934
Pt 14.1005 11.3126 35.818
Pt 7.21887 21.4988 36.0689
Au 35.6162 32.7955 35.5015
Au 36.6628 19.9587 37.0748
Pt 29.4799 40.5778 19.676
Pt 23.5613 31.7898 41.2795
Pt 16.2951 30.4771 17.2523
Au 7.78294 29.448 11.4601
Pt 5.93232 27.2696 23.4563
Au 22.7944 26.5612 3.64412
Au 3.40882 12.1062 27.3129
Au 38.1279 40.5712 24.0424
Pt 23.6375 36.2141 11.4476
Au 37.7432 28.7206 13.6105
Au 42.757 13.1486 22.9535
Au 29.9588 44.9707 31.0962
Pt 19.8969 22.01 17.307
Pt 31.2377 22.7628 30.435
Pt 29.1108 15.4136 28.5972
Au 16.2274 37.8589 43.7083
Au 35.9356 33.3298 32.6086
Pt 22.5382 6.78589 26.9898
Au 36.826 20.8856 14.8592
Au 26.3532 24.5424 46.5437
Au 5.32717 17.2304 36.2048
Au 34.9783 17.5864 8.29977
Pt 26.8414 18.6823 23.1419
Au 4.85639 29.3696 16.1039
Au 40.1911 13.5295 24.1335
Au 47.2691 29.5002 35.4165
Pt 17.2749 19.0809 40.6932
Au 45.551 13.4305 34.0763
Au 47.3881 22.9752 22.4216
Pt 23.0977 9.22676 32.0696
Pt 15.1851 26.6961 38.8159
Au 45.0407 13.3025 21.4675
Pt 26.2428 34.0039 20.7431
Au 22.1392 9.56301 26.6534
Au 47.0249 36.8389 23.722
Au 14.0066 30.949 8.02383
Au 12.9115 12.015 40.2114
Au 49.3932 20.4565 27.1943
Pt 21.0638 17.669 16.4543
Pt 27.3804 9.20146 26.3385
Au 27.2992 39.7753 42.4925
Pt 38.594 34.2899 12.1942
Pt 21.4768 24.8049 43.5455
Pt 23.4135 26.2671 28.1218
Pt 13.9992 8.51585 16.6011
Pt 19.2036 14.2078 34.891
Au 18.4529 39.5355 43.9383
Pt 21.3239 5.86253 24.4573
Au 25.5238 3.48141 19.379
Au 49.2891 23.1656 17.9688
Pt 24.9913 22.815 38.3932
Pt 25.4564 40.524 11.2819
Au 19.6052 27.7741 6.49714
Pt 10.4861 16.9064 34.3883
Au 10.104 37.2433 38.8268
Pt 20.3688 25.6536 31.5022
Pt 18.5967 40.3513 20.2643
Pt 18.7247 24.6846 43.3915
Pt 26.1059 31.1114 18.8325
Au 27.8579 43.8362 11.6379
Au 20.6619 43.0559 11.7856
Au 29.2069 28.5838 4.05929
Au 8.89073 39.1212 32.6032
Au 12.3215 36.4202 13.8936
Au 46.1162 29.8067 23.6037
Pt 11.8742 41.9629 28.8695
Pt 25.4826 21.0885 7.3956
Au 37.2944 42.9913 25.4376
Pt 29.8468 33.8166 16.2906
Au 37.468 22.25 30.2475
Au 42.262 26.2566 22.5697
Au 35.6252 33.9659 41.0952
Au 32.3974 18.6516 43.5004
Au 34.4916 35.4868 6.24112
Pt 15.4433 25.5564 45.0579
Au 3.5925 15.9755 34.3654
Au 37.2988 27.3682 42.5427
Au 43.9292 10.7017 33.6217
Pt 10.1924 18.2424 13.188
Pt 8.61422 26.2869 26.1638
Au 42.4951 30.9947 11.837
Pt 18.1738 30.6536 38.1773
Au 46.1242 19.5223 17.4351
Pt 16.1896 41.8858 14.8163
Pt 16.1993 27.7784 13.3936
Au 44.5891 35.4952 19.6316
Pt 9.77839 24.282 27.3979
Au 42.3256 16.5212 14.9304
Pt 24.972 27.4608 38.2471
Au 10.5668 41.1443 33.603
Au 11.1244 30.1297 39.5065
Au 34.4642 10.7052 19.1146
Au 14.8024 35.0631 13.8532
Pt 8.92043 28.2941 30.2192
Au 40.1884 15.97 42.5053
Pt 24.4797 41.3559 31.3575
Au 33.7719 8.55044 13.2324
Au 11.5812 36.403 41.4107
Pt 33.2562 32.1485 25.5426
Au 34.012 43.5363 14.1142
Pt 26.7208 42.9637 37.7976
Pt 14.6889 27.1871 10.8341
Au 8.18033 15.4688 20.3783
Au 23.8901 21.878 2.89016
Au 23.9371 20.3334 44.8457
Pt 25.8574 18.7003 16.0588
Au 34.0037 2.61079 31.1974
Au 7.49064 41.1655 27.574
Au 12.9436 36.2576 17.2896
Au 20.5924 15.9527 39.0644
Au 42.2269 17.249 40.9091
Pt 21.7114 24.7996 37.9671
Au 12.6184 38.3796 39.9209
Pt 34.8845 33.1424 7.56884
Au 38.2968 17.3195 12.5362
Au 43.1579 30.5383 41.8057
Au 40.8511 26.3171 29.6049
Pt 24.5652 42.973 39.4072
Au 40.6369 40.8334 32.7391
Pt 24.1907 42.2928 36.8597
Pt 29.716 12.2716 25.0428
Pt 3.76838 18.2323 25.0544
Pt 16.0499 41.3696 20.8816
Pt 6.48772 25.8344 16.2865
Pt 14.0685 27.4291 34.6302
Au 31.4184 13.8012 7.73167
Pt 12.548 25.9381 30.1588
Au 7.17383 12.8048 33.6622
Au 35.7059 15.2293 7.12272
Pt 22.6271 23.2852 19.0494
Au 27.1077 3.81699 26.6247
Pt 22.5544 32.4667 35.9285
Au 17.5005 4.85472 25.981
Au 22.2274 17.9326 44.7427
Au 29.7947 16.7128 3.39883
Pt 26.4445 32.2148 28.3346
Au 27.2489 44.9861 31.5692
Au 24.5438 44.0645 41.9104
Pt 18.8068 6.55125 24.2108
Au 30.6748 19.2383 3.40984
Au 16.0139 5.25592 18.1194
Au 43.162 21.2822 33.8999
Au 43.5743 15.582 19.0358
Pt 24.1056 33.9495 12.8537
Au 35.8608 24.6837 45.2236
Au 16.2255 9.33735 35.5805
Pt 7.45857 29.5049 22.5395
Pt 11.0751 24.7037 15.4279
Pt 9.95511 9.54565 21.864
Au 29.1809 43.5181 38.4459
Pt 18.6738 17.6887 30.1414
Au 11.2576 18.2618 23.7673
Pt 21.6486 20.2645 8.91522
Au 18.4283 44.3942 36.1795
Au 8.78949 11.5661 13.3793
Au 14.941 31.7203 45.3469
Pt 4.52103 15.9581 23.8402
Pt 7.74781 25.7656 28.959
Pt 8.83063 40.4429 25.1829
Pt 20.7922 26.6745 29.0663
Pt 24.7361 22.4819 24.1845
Pt 6.92904 31.9896 31.7968
Au 41.3791 37.453 15.5638
Pt 27.3245 22.539 36.9029
Au 18.8064 41.5201 42.1192
Pt 28.6528 36.8228 28.7484
Pt 20.8414 21.2963 19.7322
Pt 28.7693 31.2524 19.7557
Pt 21.6871 26.2113 35.6406
Pt 20.4841 36.8735 34.067
Au 28.6128 45.1915 28.6594
Pt 27.3568 30.0815 26.9979
Au 37.8799 33.8919 39.2226
Pt 26.3234 38.3519 37.7657
Pt 25.7518 27.058 10.6963
Pt 24.1512 42.8252 24.0947
Au 4.42631 11.218 21.7354
Pt 13.4024 16.4327 37.5237
Au 41.8538 13.1802 28.4454
Pt 22.3614 42.2882 16.4991
Au 30.7827 11.9108 40.5787
Au 5.60874 10.9012 28.3227
Au 35.9726 19.408 22.5919
Au 38.328 15.8619 26.3191
Au 14.5083 40.7445 36.5445
Pt 13.3235 27.5517 32.1856
Au 36.3256 3.10743 32.5018
Pt 17.9084 37.2422 27.8421
Pt 25.4094 28.9593 8.52108
Au 41.6145 30.9659 27.3683
Au 37.3357 39.8151 32.3158
Au 10.8107 16.8308 42.0485
Au 31.3976 39.402 41.2794
Pt 12.9226 21.049 30.013
Pt 9.3559 24.3126 24.5191
Pt 13.8472 31.5235 16.7029
Au 41.9788 8.88546 33.3432
Pt 13.967 27.0829 25.4103
Pt 29.3398 31.2603 41.7784
Pt 20.7973 17.8168 36.5737
Pt 13.3223 33.9102 23.1519
Au 12.3614 18.559 43.7135
Au 7.12343 18.0879 20.7936
Pt 24.93 30.7151 6.39111
Pt 28.2848 16.9151 33.8996
Au 37.0123 19.732 12.343
Au 40.7553 32.9708 13.4844
Pt 8.12844 30.905 27.0139
Au 12.0135 23.7791 41.4907
Au 9.62122 15.0869 10.1336
Pt 15.186 8.48629 20.9266
Pt 7.24284 24.0504 26.7173
Pt 21.4231 25.6251 12.5716
Pt 33.7775 25.122 40.807
Pt 7.44969 21.6642 20.263
Pt 30.9528 16.9478 24.3087
Pt 19.0255 10.9396 19.992
Pt 7.18107 18.4523 28.3583
Au 21.8288 7.44003 15.1689
Au 4.92912 22.8262 31.2641
Pt 23.8971 24.5493 44.9874
Pt 24.8729 5.78605 26.037
Pt 10.3789 12.5849 28.7882
Pt 14.8811 33.0364 20.774
Pt 27.2018 38.7197 30.6179
Pt 20.6755 33.6832 31.0181
Pt 22.9013 20.5734 23.6374
Pt 13.5366 13.8367 25.0716
Pt 30.05 17.5666 15.0251
Pt 15.4809 29.9044 24.5489
Pt 17.8646 36.6385 32.3614
Au 9.17954 27.0343 10.6585
Pt 15.894 8.02581 18.453
Pt 21.8124 13.9897 41.1977
Pt 20.4252 5.77408 19.2313
Au 38.851 37.9328 27.4943
Pt 14.7352 12.4462 18.8643
Au 36.3681 8.81657 14.2008
Pt 20.4801 12.5777 39.5011
Pt 31.7666 18.9813 25.8266
Pt 19.8188 18.3224 40.8703
Au 10.6176 42.0961 23.9787
Pt 29.9517 21.45 25.1718
Au 14.3969 21.6138 7.25811
Pt 25.204 29.5324 39.955
Au 31.1527 40.7868 10.3762
Au 34.229 26.8997 5.67178
Pt 27.0747 10.0823 19.5471
Pt 26.7804 23.7623 25.3015
Pt 23.1893 30.1442 34.4565
Au 28.6195 7.01693 13.0739
Au 18.064 16.7095 42.258
Au 30.3502 38.0944 5.61179
Au 25.6588 22.5795 44.053
Au 39.8265 40.7428 19.3747
Au 22.1973 12.9926 10.5544
Au 38.4417 20.8296 8.73258
Au 25.9985 19.9256 46.8226
Pt 18.7929 24.8386 10.7164
Pt 18.314 27.2017 30.2143
Au 48.6132 33.5193 29.4951
Pt 22.6166 13.6284 21.751
Au 43.8106 29.4702 27.9907
Au 47.398 34.3997 24.875
Au 30.0924 12.2877 13.9169
Au 45.8329 31.5166 36.8465
Pt 13.8174 15.7964 40.211
Pt 16.1313 14.6034 25.0523
Pt 24.9363 26.4611 15.5915
Pt 11.6128 20.4317 25.818
Au 35.8865 28.8867 4.53544
Pt 29.9538 6.37142 30.664
Au 44.5035 26.3871 12.3143
Pt 16.481 27.5609 32.983
Au 10.301 12.5995 10.8446
Pt 6.56908 17.5626 25.4472
Pt 22.3927 38.1866 35.4085
Au 31.5245 19.0203 45.9655
Au 16.6618 10.1786 12.3041
Au 13.2769 24.0923 8.18709
Pt 10.8075 30.6901 19.8676
Pt 36.2653 28.7322 25.7688
Au 22.5893 5.45097 35.6344
Pt 21.9268 34.8743 28.739
Au 29.2936 23.389 3.46006
Pt 19.5803 35.1138 12.5114
Pt 32.1023 7.63967 20.0667
Pt 40.8163 27.518 9.53167
Au 21.3455 10.7044 37.6392
Pt 13.6608 31.6763 35.1948
Au 36.9835 20.709 25.1428
Au 24.3598 11.1106 7.96414
Au 49.4601 32.6078 24.9135
Au 40.7144 35.9222 11.9495
Au 32.5891 12.6999 9.89625
Au 31.251 37.6497 10.4401
Au 38.6512 26.3547 8.47496
Pt 11.3616 9.8971 19.6057
Pt 33.8058 31.9351 40.7836
Pt 9.46131 17.2937 25.7557
Pt 8.93148 20.8936 37.989
Pt 24.7938 22.8054 5.27818
Au 26.044 45.9191 33.9106
Au 17.8046 32.864 5.84249
Pt 15.7855 32.0782 38.3473
Pt 20.4582 25.3391 22.7667
Pt 21.0694 12.5613 15.3373
Au 34.1853 26.4913 22.2997
Au 39.4333 31.643 25.3369
Au 37.6198 33.5965 7.51897
Au 44.3919 36.0615 12.701
Pt 23.4419 33.9013 9.33112
Au 31.6114 13.0345 18.2919
Au 18.4413 10.9883 40.2935
Pt 30.6653 6.09556 24.079
Au 45.1213 24.3289 29.5857
Pt 6.15501 35.5432 20.8183
Pt 9.91442 24.5148 17.84
Au 23.508 13.7153 8.18233
Pt 8.37962 17.9656 33.2131
Au 48.1694 32.4506 17.8052
Au 39.4527 36.9212 30.139
Pt 17.662 11.7393 35.2191
Pt 31.2617 44.1485 18.9989
Pt 19.0647 18.9072 38.1808
Au 36.2497 24.3007 31.7633
Pt 29.9854 44.3374 16.5454
Pt 23.5467 34.8191 24.4304
Pt 22.7611 12.855 36.3096
Au 40.0738 11.401 39.8083
Au 29.2384 9.02231 11.422
Au 40.7594 22.952 8.00882
Au 26.0201 9.78971 15.0709
Au 36.2103 10.7808 25.5902
Pt 14.1157 28.9172 17.7798
Au 35.841 15.8109 16.1257
Au 46.2648 32.3882 15.6096
Au 24.6748 3.82397 27.904
Au 45.0863 33.9751 35.5879
Au 28.5806 47.4507 31.151
Pt 32.4487 26.3236 24.5693
Pt 11.8963 16.3496 19.5613
Pt 31.7888 26.398 34.0464
Au 31.3394 23.4513 44.3305
Au 25.9909 21.7311 29.2054
Au 30.2304 18.7419 38.4934
Au 44.6511 30.5971 21.0181
Au 42.9227 39.6962 16.2373
Pt 23.7232 45.4175 23.1346
Pt 21.8952 18.7215 34.1879
Pt 27.4032 27.4921 31.5996
Pt 9.84003 22.0776 19.2119
Pt 17.1217 36.2443 12.0432
Pt 22.6955 42.0517 41.1418