3871
Atoms. Timestep: 20948
Au 3.85695 16.92 29.7728
Pt 15.8794 19.1003 13.6675
Pt 27.376 19.8437 16.0714
Pt 11.642 24.8775 35.4668
Pt 14.228 35.2348 34.7612
Pt 23.2398 20.0809 15.7139
Au 12.7975 11.7947 12.8134
Pt 14.3234 10.0374 35.4316
Pt 5.91681 19.9206 25.3884
Pt 16.7622 15.5351 38.9908
Au 4.42741 32.5178 31.7724
Pt 10.7677 28.476 29.0526
Au 9.82667 33.7011 37.5363
Pt 12.4354 9.42207 33.7733
Pt 13.4039 20.6523 26.6705
Pt 17.1961 23.7932 16.0814
Pt 21.6944 2.26518 23.8789
Au 16.868 3.79428 36.3894
Pt 13.6167 10.683 31.6132
Au 8.55178 8.02951 28.1393
Pt 13.1751 21.3485 29.4658
Au 16.8255 39.2746 41.6679
Pt 17.5768 13.595 33.6597
Au 10.4497 32.0802 39.8042
Pt 7.03766 23.4427 30.5494
Au 9.29868 18.3839 34.9071
Pt 6.93777 25.1627 24.1357
Pt 20.9071 10.1649 31.0429
Pt 5.8388 27.574 30.9369
Pt 12.7801 14.8806 33.239
Pt 15.4359 29.0077 29.3342
Au 23.5094 3.81818 17.1697
Pt 13.7795 35.9659 30.1552
Pt 10.7504 24.4041 26.6964
Pt 5.59872 27.9665 16.6719
Au 9.40905 5.93234 26.4706
Pt 17.4694 5.3967 28.6946
Au 21.3306 14.7087 39.594
Pt 25.548 16.5935 10.132
Au 5.55326 15.4687 17.2395
Pt 9.5523 30.596 33.0647
Pt 19.0795 34.3417 9.10988
Pt 19.7121 4.69345 19.8007
Au 7.63876 19.6516 13.0551
Pt 10.4036 14.359 32.3872
Pt 15.2532 25.3444 27.6474
Pt 21.651 14.5105 36.8099
Au 17.3563 46.0149 20.087
Pt 19.6069 2.91634 25.3111
Au 8.63347 22.8539 9.17877
Pt 22.1665 13.8603 17.7231
Pt 5.48297 27.3262 28.2824
Pt 12.7732 15.3482 26.4812
Au 19.2186 2.32273 36.3185
Pt 16.938 6.44925 26.1804
Pt 20.3449 30.1882 41.9073
Pt 23.5512 11.3978 21.3459
Au 12.9777 9.16588 13.5727
Au 22.9599 23.3641 8.73799
Pt 16.5184 21.9002 14.2028
Au 2.90933 19.4847 30.4502
Pt 7.05376 16.8772 30.1026
Pt 19.6275 32.6311 24.1997
Pt 11.6933 31.2175 31.4936
Pt 13.1756 26.8646 19.2775
Pt 17.8546 6.43762 36.9899
Pt 21.018 9.79962 28.4095
Au 5.56511 12.4416 27.2982
Au 4.38604 33.0171 20.3849
Pt 20.9287 20.5673 14.6662
Au 22.1625 7.72776 39.9814
Pt 11.8142 16.3438 31.0611
Pt 21.8418 32.4464 17.5802
Pt 19.6881 7.53542 35.3492
Au 12.9477 37.2648 39.604
Au 24.6143 10.8234 43.2216
Au 13.1442 6.86541 37.3395
Pt 7.1836 29.7036 32.0931
Pt 10.2015 14.8879 25.6765
Au 9.66503 15.9956 39.2727
Au 10.9114 36.586 37.6694
Pt 4.90999 26.8624 23.6997
Au 21.8449 24.2017 13.6442
Pt 17.5337 12.3699 18.3884
Pt 8.29118 15.6451 16.6398
Pt 17.1769 31.8628 39.2081
Pt 25.0875 18.4766 17.2417
Au 11.2224 41.9091 28.8176
Pt 9.5936 10.3373 30.0488
Au 10.1889 8.03747 33.3149
Pt 25.4016 13.3033 30.3581
Pt 11.9852 12.8447 26.8491
Pt 11.0042 20.4124 22.8027
Pt 19.8282 43.3355 26.6929
Au 2.53576 22.1566 31.8547
Pt 16.4606 30.2639 25.468
Pt 9.78585 33.2505 15.545
Pt 15.1717 31.1963 37.5058
Pt 24.0277 40.7999 38.2745
Pt 24.177 27.9086 15.1274
Pt 15.4388 25.0022 32.1937
Au 39.4701 11.6382 35.3515
Pt 18.3345 29.5845 27.2792
Pt 8.83393 25.2598 34.593
Pt 18.6409 13.502 39.7228
Pt 20.4746 14.3664 24.4541
Pt 17.0568 20.1494 38.8893
Pt 12.1304 19.1215 28.4349
Au 3.47653 28.3601 33.1826
Pt 13.5263 16.5506 35.4025
Au 29.4739 15.051 42.0565
Pt 18.2335 34.4042 36.3876
Au 9.735 38.3317 31.9759
Au 22.8098 30.3601 46.5546
Pt 9.0783 29.2578 37.2361
Pt 15.1513 21.617 24.9623
Pt 21.247 3.78096 34.063
Pt 21.2556 7.55566 29.9475
Pt 19.6196 32.7598 38.0696
Au 31.1583 40.472 40.1371
Au 5.50374 18.4688 14.0603
Pt 6.54182 19.447 34.0625
Pt 16.7034 31.4659 15.7795
Pt 25.9829 35.8741 22.8139
Pt 23.6099 9.9099 38.8186
Pt 19.423 12.848 22.3598
Au 5.31066 21.2959 13.2622
Au 3.73992 36.0677 24.7205
Au 23.6401 22.4117 43.669
Pt 11.1697 24.6442 19.6202
Pt 16.9019 23.5436 25.8149
Pt 15.0655 26.3528 20.9647
Pt 11.9633 28.4506 37.4438
Pt 13.8781 24.0448 19.1877
Pt 15.8416 19.1934 20.408
Pt 10.7787 33.0724 26.6699
Pt 17.3663 19.4442 36.2967
Pt 19.0535 41.7629 22.4911
Pt 16.9606 17.9179 31.9189
Pt 15.7225 37.0442 31.8705
Au 5.96232 30.8963 21.3253
Pt 11.3419 25.1892 41.5181
Pt 24.8232 39.8111 16.1881
Pt 19.4251 5.95728 33.0961
Au 3.48267 25.211 13.6039
Au 25.7188 27.184 48.8362
Pt 17.5942 23.0899 42.3433
Pt 14.2683 30.3524 16.63
Pt 7.12414 16.7465 33.6403
Au 3.36844 29.2897 28.4716
Au 16.5211 32.9643 43.9145
Pt 17.4066 29.3098 32.7737
Au 20.5955 5.56197 39.5894
Pt 17.2175 26.5549 33.9584
Pt 5.149 28.243 21.4652
Pt 28.0266 12.7854 36.9468
Pt 17.5171 29.4031 17.3493
Pt 18.9817 21.3968 35.7129
Pt 11.4004 23.4186 29.7761
Pt 25.5782 33.3575 37.112
Pt 25.0499 43.2984 27.4639
Pt 23.4349 8.67495 28.5914
Pt 14.6735 27.7601 17.1327
Au 7.65731 22.1418 11.6583
Au 12.0379 39.0622 37.6793
Pt 11.3302 21.3703 15.3513
Pt 16.3171 28.8332 11.3633
Au 13.2319 4.45209 18.6544
Pt 6.86672 26.1858 21.3745
Pt 6.08125 27.7799 33.6836
Au 2.40674 24.9067 31.6802
Pt 14.6419 30.8642 14.031
Pt 12.8747 22.1895 23.377
Pt 19.5219 45.999 25.3207
Au 5.72054 34.8714 31.2485
Au 3.77386 23.1415 26.6293
Au 15.6149 46.4713 22.1717
Pt 18.4786 15.2789 22.8137
Pt 14.9574 37.8429 34.3722
Au 6.06866 34.1941 28.4006
Pt 12.8043 21.6282 36.5847
Au 23.82 30.2729 39.5171
Pt 8.38903 28.1602 27.7303
Pt 13.8594 32.1668 32.9709
Pt 9.95949 23.3109 13.7734
Pt 15.0614 18.8557 28.021
Pt 17.4072 43.9491 26.0691
Pt 20.3386 9.14533 25.9668
Au 9.57602 38.8829 25.2868
Pt 10.3954 20.0238 36.9157
Au 9.26673 27.0521 40.9705
Pt 21.4944 15.3615 26.6667
Pt 23.339 36.0479 21.6996
Pt 28.4941 32.9072 37.9836
Pt 9.3985 26.6874 20.3105
Au 9.26677 30.4815 30.2566
Pt 19.735 27.9144 38.5954
Pt 11.631 24.7565 23.9301
Pt 8.21686 30.337 22.9912
Pt 20.4845 31.8769 19.8301
Pt 6.07793 15.4274 23.7507
Pt 17.5348 25.8922 20.1606
Pt 16.1576 28.9143 15.0644
Pt 11.6563 25.127 11.0835
Pt 22.5706 31.157 21.4204
Pt 5.62531 29.6164 23.9667
Pt 19.9563 21.1676 20.0614
Pt 12.2143 30.0068 23.5763
Au 5.33667 26.5192 37.3102
Au 3.76236 27.9417 25.9671
Au 5.75931 17.5922 19.0092
Pt 6.21811 23.6298 28.0052
Pt 14.4904 35.2394 27.4822
Au 5.76542 35.8557 20.9188
Au 2.52531 19.685 17.7605
Pt 6.44845 32.2933 23.6599
Pt 25.4375 38.7341 39.621
Pt 27.8638 33.2631 35.3535
Au 20.1479 21.2486 46.8007
Pt 16.8855 25.5244 29.9694
Pt 12.1572 34.18 33.2321
Pt 26.192 30.0251 15.6185
Pt 14.3666 33.441 23.5437
Pt 10.5898 24.0163 43.7933
Pt 14.5166 24.8846 39.1563
Pt 14.1626 14.9765 30.7003
Pt 17.727 17.4778 11.6939
Au 3.16157 28.7633 17.8943
Au 25.5738 46.6744 17.2617
Pt 10.3278 25.8128 13.4935
Pt 7.83441 11.8314 28.6824
Au 22.0961 41.1536 43.0992
Pt 14.43 12.2015 15.178
Pt 14.5872 22.3282 32.1727
Au 7.16813 38.0665 21.2215
Pt 8.04928 36.4331 25.4578
Au 18.4401 28.6028 43.3099
Pt 30.0848 36.9731 24.4018
Au 10.6239 41.3873 26.1148
Au 12.2867 33.2774 41.6946
Pt 16.3589 42.042 23.6327
Pt 11.5731 31.9013 34.5376
Au 20.562 48.0895 23.7707
Pt 20.3259 38.2577 37.417
Pt 6.16121 22.6642 25.2601
Pt 17.9198 27.9029 29.2635
Pt 22.4301 45.0607 20.4722
Au 5.09818 30.6698 33.6956
Pt 11.2782 32.4781 13.4109
Pt 12.084 36.5153 17.1757
Pt 25.8662 47.8067 23.5802
Pt 19.9665 36.0791 32.81
Au 16.5795 46.2103 29.8143
Pt 17.3507 30.5091 30.3656
Pt 14.4683 37.9634 17.7337
Au 20.2849 43.071 14.5524
Pt 11.7205 23.0837 17.5081
Au 3.06727 25.9988 28.1623
Pt 20.9902 31.3535 26.6584
Pt 35.1849 41.0335 21.9663
Pt 22.9425 37.9459 16.5577
Pt 10.4101 11.6478 19.836
Pt 11.8263 17.8485 33.5343
Pt 9.58347 19.274 27.8065
Pt 24.4962 11.3294 34.5803
Au 6.73786 16.3204 38.5077
Pt 13.4993 6.21465 22.7945
Au 15.5522 25.3152 6.78366
Pt 19.2033 22.7998 17.972
Pt 31.2221 10.4334 24.2101
Au 5.04974 31.625 29.038
Pt 14.7339 18.881 30.6484
Pt 13.2207 7.26596 29.5691
Au 19.9537 1.34845 33.713
Pt 15.3613 18.6533 34.5884
Pt 12.3857 10.0855 26.622
Pt 10.0353 19.669 32.3807
Pt 13.0235 28.9529 30.4109
Au 4.42118 14.5258 25.8686
Au 7.59325 11.3073 20.3061
Pt 10.8651 11.2021 32.3983
Pt 10.9812 26.1566 33.1723
Pt 9.52443 16.8402 32.5265
Pt 17.3615 30.4739 13.2262
Au 36.0155 21.3778 18.136
Pt 5.88734 23.5683 22.0623
Au 24.4848 19.3242 39.9848
Pt 13.375 26.2238 37.1528
Pt 14.2886 35.1184 17.1669
Au 46.6173 26.4333 32.7611
Au 29.4845 21.57 40.0406
Au 25.6198 21.3059 45.5006
Pt 12.7027 13.9453 35.9362
Pt 10.8843 15.8164 34.9443
Pt 14.7112 7.68258 34.4581
Au 15.3756 3.34664 31.1335
Pt 7.44407 27.222 18.6282
Au 44.1143 13.7303 22.857
Pt 14.308 31.3931 30.0224
Au 27.7499 40.5321 42.8916
Au 3.23162 23.9535 34.1847
Pt 20.5815 28.3473 13.9355
Au 1.58968 23.4469 24.2142
Au 4.42315 23.4139 11.7391
Au 11.7371 10.2238 17.7215
Au 3.81779 31.5863 22.9347
Au 2.36252 25.624 25.5996
Pt 9.49069 24.8616 31.2409
Pt 7.44258 27.1812 35.9035
Au 22.4367 23.7647 26.5961
Pt 16.8675 13.8082 16.2696
Au 22.114 30.455 6.91039
Pt 15.9293 16.7014 29.5101
Pt 14.3262 11.7436 27.1973
Au 15.9205 5.17178 14.2671
Pt 5.0413 23.3515 32.3599
Au 14.1578 25.6675 41.7233
Pt 13.2555 33.7817 21.0441
Au 24.2316 19.4728 26.2194
Au 32.0519 22.1642 26.4331
Pt 11.0487 21.7995 27.4322
Au 17.1565 13.9921 43.4632
Au 31.0243 26.764 14.4829
Au 26.1081 24.4095 20.4061
Pt 15.9273 8.2198 24.1902
Pt 9.80419 10.7781 27.2591
Pt 9.48308 13.6599 27.7678
Au 30.5428 28.7115 36.5483
Pt 18.8548 36.3102 28.2369
Pt 21.5378 7.12433 27.2475
Au 10.7416 13.5954 12.7809
Au 21.8099 1.92828 26.838
Pt 18.4878 16.5191 30.29
Pt 4.14663 22.9554 19.6031
Au 14.4982 34.5731 42.9793
Pt 4.49553 19.0141 23.0909
Pt 3.84363 22.0259 16.9265
Pt 17.3766 21.4785 20.89
Au 3.35356 18.753 20.4213
Pt 5.47529 21.1688 27.6759
Au 6.08124 18.9667 38.6478
Au 29.8298 20.8998 25.394
Au 13.8706 27.7576 7.66053
Pt 17.643 17.7442 18.5899
Pt 16.5508 44.7514 23.888
Pt 17.1305 26.7747 16.2133
Au 33.4461 31.6628 8.87585
Au 32.788 38.6469 10.4224
Au 21.2512 24.8331 17.5699
Au 24.2545 24.8874 4.06527
Au 28.6783 23.7451 21.5965
Au 44.3718 26.7879 11.4457
Au 23.7216 22.2443 28.6073
Pt 5.60546 29.7174 27.0375
Au 24.8425 27.9031 3.86384
Pt 9.64322 12.8938 30.3757
Au 48.7313 28.3069 33.099
Pt 13.0731 18.0069 26.3044
Au 37.8538 26.4306 12.4878
Au 20.2691 22.907 7.98693
Pt 15.9604 23.8566 21.1246
Au 29.9354 27.4755 33.5742
Au 36.0228 23.8445 37.8501
Au 19.0531 23.9924 12.6017
Pt 23.1657 18.281 19.4788
Pt 14.742 12.2195 29.7769
Au 24.7857 35.4376 45.9284
Pt 17.901 21.9008 33.5233
Au 3.8118 34.959 27.1521
Pt 27.946 8.28468 16.6806
Pt 16.4448 15.342 32.0086
Au 17.4935 16.8918 45.9135
Au 11.3163 8.47023 36.0916
Pt 18.037 38.2728 17.4817
Pt 10.0085 20.8169 13.1011
Pt 36.0925 18.433 12.7153
Pt 20.8262 45.5566 27.7607
Au 14.8558 5.25269 20.6109
Au 31.8442 4.99723 21.8813
Au 31.5312 27.7801 25.3052
Pt 16.9665 14.7842 36.3122
Au 20.1459 18.3207 9.3655
Pt 18.8064 33.8823 11.9586
Au 30.4012 40.9207 42.7465
Au 2.67934 17.2333 32.3012
Au 36.9912 13.1426 39.3474
Pt 21.3228 25.8988 40.342
Pt 12.7358 24.405 32.0164
Au 30.6584 29.0984 16.1521
Pt 13.3424 25.932 25.8362
Au 35.1075 30.807 38.6455
Pt 10.5861 22.387 24.7497
Au 32.0595 34.7233 19.022
Au 21.1846 25.5338 7.89835
Au 26.7517 33.0536 2.9875
Pt 7.26272 25.7963 32.2891
Au 31.3239 19.946 2.49358
Pt 11.7695 34.5867 35.8893
Au 19.6083 14.0115 42.1119
Pt 8.73207 16.0727 36.5501
Au 29.1731 24.1794 3.52131
Au 35.3293 27.9297 12.6695
Pt 12.7091 19.7744 38.5489
Au 20.4271 22.0808 42.5794
Au 20.9975 10.0683 39.0178
Pt 6.84776 29.5182 29.4092
Pt 23.5156 22.7241 37.4766
Pt 9.07871 31.579 35.7382
Pt 22.8064 34.26 37.441
Au 2.68977 21.1261 28.2588
Au 20.208 1.43361 20.7763
Pt 17.25 28.9554 35.4706
Au 7.84999 13.863 38.0729
Pt 8.69579 21.1731 34.1874
Pt 5.73767 21.956 34.529
Pt 12.4668 14.0039 14.959
Pt 8.7573 20.7455 21.4284
Au 3.14107 16.5475 26.9374
Pt 12.0157 17.8049 22.4395
Pt 5.7267 16.32 27.8728
Pt 9.82914 29.6945 16.0015
Au 5.13667 14.9881 31.3235
Pt 10.9743 19.8008 25.552
Au 40.6217 31.4164 7.68765
Pt 13.8995 29.5881 19.1912
Au 10.7214 5.29323 22.4153
Pt 22.5808 40.6378 20.4929
Au 27.213 28.3997 32.6332
Au 39.9105 37.6498 11.3608
Au 22.8785 27.7257 29.6334
Pt 18.7907 33.8428 33.7208
Au 19.9909 27.4551 23.2599
Pt 11.428 31.0868 19.0337
Au 38.6573 35.4024 12.4974
Pt 7.59592 27.7294 23.3107
Au 23.9711 22.0296 40.0954
Au 40.0219 22.5472 14.274
Pt 12.2619 34.6353 15.1511
Au 21.8966 27.4563 18.3709
Au 32.7585 17.9735 40.6737
Au 42.0532 41.7154 33.5182
Au 30.9542 32.0124 27.0723
Au 28.7908 21.2101 45.7314
Au 31.7511 29.3736 27.5895
Au 46.6361 32.8798 35.3818
Pt 25.4978 10.1476 29.654
Au 14.9323 27.419 43.9705
Pt 16.2982 13.6228 40.9018
Au 17.6302 11.5805 42.0099
Pt 19.5439 28.4809 33.9365
Au 29.1709 28.8559 21.5891
Au 14.4118 25.7848 46.0867
Au 4.39873 17.0159 36.8185
Au 12.8333 32.8838 38.3819
Pt 4.59549 25.9207 32.6208
Pt 24.9258 33.6121 43.8212
Pt 11.9769 30.8401 28.7514
Pt 14.7501 13.7835 25.2578
Pt 7.87591 15.9552 19.1915
Pt 4.02254 21.5761 24.194
Pt 9.70827 33.8261 34.5748
Au 10.9401 39.3036 27.997
Pt 4.7347 26.8245 19.0044
Au 37.5388 29.4458 13.3308
Pt 9.12108 32.9081 22.6185
Au 32.1247 23.8992 31.2246
Au 23.2759 31.0564 4.50238
Au 34.8579 25.3805 11.5036
Au 34.997 19.7535 10.5392
Au 34.4208 15.8894 7.00273
Pt 12.7036 25.0598 28.264
Pt 10.6868 23.016 21.9098
Pt 14.5952 31.9776 40.3067
Au 24.8063 32.0469 6.66253
Au 11.6582 35.1185 28.4921
Au 26.0664 28.0522 8.64758
Au 13.5473 25.1104 8.673
Au 3.07712 18.9383 25.3023
Pt 20.0138 30.5861 22.2895
Au 27.1878 10.1349 41.8002
Au 31.4531 13.4341 40.9634
Pt 18.346 35.5113 17.4777
Pt 13.9639 39.1872 32.0468
Au 20.3721 26.2889 12.2924
Pt 18.2587 24.4386 32.7022
Au 32.102 25.0525 46.9587
Pt 19.44 23.7271 40.4968
Pt 3.07219 23.2272 22.0252
Au 39.1741 28.02 36.1962
Au 14.3287 29.3242 42.0299
Au 30.1414 29.7303 41.5994
Pt 16.1063 27.4925 31.5843
Pt 20.423 9.81052 34.2818
Pt 20.4951 12.46 38.0635
Pt 14.6975 20.2583 40.3001
Au 26.4539 18.1177 41.5299
Au 25.3744 27.8039 43.8018
Au 27.8228 14.4432 44.1511
Pt 19.0331 34.9548 41.9299
Pt 13.2659 24.0877 21.6548
Pt 17.8303 39.5042 23.4124
Pt 6.22868 24.5964 19.4189
Au 2.73769 16.1819 21.2346
Au 6.79121 38.9149 24.954
Pt 6.26722 19.3478 20.9226
Au 6.34537 16.0398 14.7307
Pt 11.9478 30.0468 14.2468
Au 5.07443 26.1801 11.6593
Pt 17.0703 39.1223 14.9776
Au 5.44533 32.2808 26.2831
Pt 26.5816 39.4672 33.2908
Au 33.2815 30.8205 22.7488
Au 6.78567 24.4367 38.2205
Au 18.5903 4.22359 38.4058
Au 23.4895 38.8865 43.5616
Pt 7.58154 34.8436 23.3046
Pt 17.445 34.8254 31.5541
Au 14.1545 34.6216 40.2285
Pt 10.6291 30.8532 21.6936
Au 23.9094 30.5446 25.8179
Au 3.04758 28.8056 23.1788
Au 9.60858 38.5683 20.2683
Au 8.04665 17.8066 40.5473
Pt 15.2663 32.7503 26.061
Pt 15.0634 23.9669 23.8105
Au 14.8609 7.83949 39.5594
Pt 20.0368 19.8268 28.1401
Pt 19.787 27.2611 26.5262
Au 10.5411 36.3924 33.912
Pt 19.9357 25.9506 34.0867
Pt 16.4027 31.4699 28.1429
Au 9.65234 19.8673 42.1383
Au 17.0828 27.7008 45.6361
Au 6.45185 29.1642 37.7868
Pt 36.6803 35.5774 34.1299
Pt 11.7996 32.9109 23.1233
Pt 18.1685 9.99253 14.0318
Pt 16.7955 19.5571 22.9502
Au 7.36855 8.9738 22.296
Pt 22.4602 36.9113 12.1091
Au 20.2139 26.6931 0.240785
Pt 7.10917 14.318 29.0561
Au 7.40814 37.1542 31.4638
Pt 18.1114 28.1746 21.5298
Pt 10.5681 35.99 19.357
Pt 14.7768 30.7901 23.5335
Pt 23.5253 35.7655 9.79887
Pt 21.1195 40.0871 22.7537
Pt 16.1541 36.1832 36.3623
Pt 13.4973 35.8526 22.8949
Au 12.6811 36.1805 9.80579
Au 28.5006 29.0825 14.3064
Au 7.03546 9.58878 29.9426
Pt 13.3944 27.8467 27.8525
Au 14.0273 44.2683 22.8791
Pt 15.9768 35.1323 24.9604
Pt 10.3565 8.32774 26.0541
Pt 28.9271 43.6874 19.0231
Pt 13.9655 27.4661 39.4981
Pt 22.197 35.3872 31.2721
Pt 20.657 35.2631 23.8162
Pt 8.62804 18.3428 37.9025
Au 18.6358 29.9468 45.8347
Pt 15.8968 40.1848 17.0722
Pt 4.83194 25.0116 30.0615
Pt 28.9913 16.4018 14.4113
Pt 18.2983 32.0633 26.3796
Au 15.9927 27.8847 3.40098
Au 7.85497 36.7441 18.6976
Au 6.34934 31.1878 13.2109
Au 33.7468 23.4813 1.80628
Pt 19.5899 37.5402 22.733
Au 3.39459 30.5674 25.4697
Pt 17.5375 42.1365 30.6863
Au 8.12959 37.6706 34.0506
Pt 31.1788 36.3854 29.3037
Pt 20.2024 42.3398 17.1932
Pt 5.97193 34.6891 25.4186
Au 23.3685 16.7623 37.0524
Au 11.352 34.8384 39.6581
Pt 22.6398 38.392 38.9156
Au 8.29557 39.9787 22.9031
Pt 7.54295 29.6465 34.8958
Pt 19.8441 19.4975 25.3634
Pt 19.0753 39.5076 20.8821
Pt 7.73901 28.8183 20.7835
Pt 18.3074 40.7228 18.3334
Pt 16.8268 24.9575 13.723
Pt 13.534 32.5025 18.494
Pt 19.7785 34.8964 30.3572
Pt 23.2064 4.59197 19.9393
Pt 25.3816 15.0121 27.8292
Au 6.25145 14.9611 36.0288
Pt 10.6219 12.8898 34.5962
Pt 16.5154 7.98325 28.5568
Pt 16.6136 6.65283 22.2967
Au 9.46576 7.33086 20.8336
Pt 5.72472 17.3382 25.5347
Au 2.63104 23.5644 29.3653
Pt 7.61468 30.5343 25.6407
Pt 23.054 10.8567 26.8973
Pt 14.4953 23.7584 29.9295
Pt 15.8741 21.1635 16.8055
Au 18.9367 21.4403 13.1612
Pt 23.3394 10.5961 24.1257
Pt 5.60088 19.4258 30.0678
Pt 18.4221 24.2431 35.7102
Pt 20.8034 17.2698 37.7256
Au 6.04119 10.0144 24.5367
Pt 18.4342 21.0939 15.8804
Pt 19.5862 9.25354 19.0811
Au 12.9977 41.5381 33.3986
Au 21.4709 20.2709 44.4617
Pt 21.0251 22.3115 29.0018
Pt 14.878 11.8737 17.8356
Pt 36.2714 14.7655 11.7904
Pt 27.4618 14.9036 9.52149
Pt 8.54383 12.3817 32.9044
Pt 18.8671 14.1764 31.409
Pt 8.32455 23.0377 23.2028
Au 14.093 7.10894 15.0718
Pt 7.76254 26.7618 12.8999
Au 24.6113 28.9916 6.36698
Pt 14.5268 23.344 16.7143
Pt 12.5082 15.6415 18.4911
Au 7.80535 12.5008 35.6092
Pt 7.87959 20.2068 18.2703
Au 32.0139 17.9589 45.5961
Pt 14.1173 18.8699 15.6271
Au 32.6496 22.4 19.5738
Pt 16.0855 28.016 27.0232
Pt 25.4955 5.21984 18.8195
Au 29.9015 21.4308 34.9234
Au 31.3058 20.239 46.9568
Au 24.7706 22.3152 26.0066
Au 20.1133 23.1172 15.4097
Au 39.5275 31.4213 13.6359
Au 8.52417 24.7882 42.4474
Au 1.71514 24.7943 20.4727
Au 7.38812 7.66571 25.6503
Pt 19.3725 14.1689 19.9289
Pt 21.9036 26.3887 37.821
Pt 11.7506 27.4764 24.2179
Pt 18.7276 8.85563 16.4259
Pt 13.2906 19.6137 24.0446
Au 4.29228 14.318 28.7678
Pt 15.0984 14.6575 14.4316
Pt 14.7296 22.692 27.5662
Pt 16.6587 10.76 16.1875
Pt 14.0092 9.78285 16.1571
Au 4.19514 28.5693 14.2437
Au 4.84962 14.9575 19.8436
Pt 9.49814 28.7903 25.1309
Au 3.32531 30.1585 20.6072
Pt 16.9663 16.4604 14.0526
Pt 9.80906 25.8847 28.7466
Au 4.9279 30.4765 15.981
Pt 7.64283 20.4182 36.5112
Au 38.1862 26.7709 5.64229
Pt 21.5943 17.2818 24.082
Au 20.15 32.4409 7.55549
Au 39.2121 20.0619 40.0427
Pt 11.9238 11.4522 29.1999
Pt 14.2036 17.0342 13.4513
Pt 8.06684 11.5952 22.9778
Au 47.5534 33.8882 19.9425
Pt 10.8653 28.57 31.9251
Au 25.8057 18.6919 33.8924
Au 34.4946 13.3127 7.92804
Au 7.35248 33.7521 36.0085
Pt 20.9427 7.93613 32.4742
Au 18.9676 28.861 11.5168
Au 42.1575 32.3683 12.6346
Au 6.03755 21.775 38.3196
Au 15.8333 3.39541 33.8621
Au 34.4639 28.7005 24.1289
Au 15.0324 23.15 46.565
Pt 25.4218 9.63604 27.0177
Au 10.5504 29.2817 39.5686
Pt 14.3253 26.4853 29.946
Au 24.3497 20.8873 8.34763
Pt 14.089 25.4555 34.4074
Pt 23.7282 19.6044 21.7385
Pt 24.0072 12.0649 16.2934
Pt 15.0353 14.664 34.4538
Pt 11.9046 14.3483 29.0387
Pt 18.4412 19.0263 33.9865
Pt 7.78978 14.765 31.6917
Pt 13.9638 26.2397 23.3033
Pt 9.56009 28.4926 13.6239
Pt 25.3108 29.6452 34.5327
Au 40.4446 38.7708 19.7103
Pt 9.9866 14.3986 18.341
Pt 11.687 26.3591 30.4751
Pt 13.1833 20.8205 17.4557
Pt 8.49034 27.2088 16.0364
Pt 11.5403 36.9807 24.2555
Pt 22.2404 36.6291 19.2591
Au 15.4908 24.3253 3.97491
Au 26.1569 28.7241 37.8554
Au 35.1023 24.1667 9.09932
Au 33.6461 18.329 2.96877
Au 28.0176 32.91 8.36032
Au 33.8395 31.2683 28.2403
Pt 27.9139 8.55681 26.9926
Pt 15.0036 10.3587 22.8821
Pt 7.64471 22.1161 14.4443
Pt 8.56405 14.7101 34.3386
Au 38.1813 24.667 36.2302
Au 47.0965 20.4357 23.954
Pt 10.4988 20.7286 29.8368
Au 28.4284 17.9439 37.1446
Pt 32.1121 19.5474 24.4578
Au 29.7381 27.9597 19.0354
Pt 5.29275 16.8546 21.6916
Pt 17.7805 25.8948 27.3881
Pt 15.7599 21.0965 29.7191
Au 30.5814 22.7088 6.58276
Pt 20.9805 14.0963 33.2297
Pt 20.8423 30.5908 33.3077
Pt 9.55406 15.5013 29.8496
Au 32.8307 30.5911 46.3048
Au 9.94714 13.2745 39.7715
Pt 11.1394 31.1359 37.2873
Au 28.011 3.57729 30.5713
Pt 6.05725 25.0684 34.7486
Pt 16.1467 23.7421 34.4321
Au 1.93824 18.2749 22.7559
Pt 17.5687 30.3827 23.0209
Au 5.79989 28.6931 12.1701
Pt 9.38115 25.5388 22.673
Au 12.6893 19.3143 13.2527
Au 2.25611 26.0347 22.9371
Au 26.5665 27.0939 15.698
Au 19.9303 20.2337 7.37535
Au 19.6122 4.06841 16.8137
Au 29.8851 16.0659 9.35274
Au 32.7609 18.0687 5.95619
Au 48.1299 26.545 20.1907
Pt 9.07194 31.0786 13.839
Au 28.1371 30.3317 9.62494
Au 21.8783 26.3475 15.3658
Pt 12.0846 28.9706 17.324
Pt 18.5006 32.7526 21.6729
Pt 8.0782 21.2054 26.83
Au 32.5597 19.3844 15.6932
Au 13.7045 12.4545 10.2208
Au 16.0816 26.8376 9.14417
Au 17.5942 22.2311 46.7738
Au 40.4332 34.0544 14.0357
Au 27.259 32.8893 5.69436
Au 26.9447 21.3054 12.4197
Au 22.759 26.9293 5.68642
Pt 13.5536 28.4987 21.8739
Pt 7.32424 25.8295 29.5483
Au 12.4721 35.9792 41.9155
Au 36.8149 20.0127 41.7373
Pt 24.0991 33.1459 25.3312
Au 25.6643 20.1508 28.5002
Au 11.9095 42.7262 22.0004
Au 25.4645 16.8008 39.2374
Pt 17.2247 14.6336 25.0939
Au 28.3218 23.3349 49.3405
Au 29.2089 13.766 39.3384
Au 32.735 38.0239 40.0442
Pt 4.28359 24.3079 24.0628
Pt 17.6409 29.5064 37.9157
Au 43.839 29.5248 39.9766
Au 23.4868 44.6736 36.5776
Pt 23.3064 18.0214 34.5954
Pt 13.3817 16.8206 28.8895
Pt 13.6743 33.2036 13.1993
Au 1.76641 21.2388 25.7001
Pt 15.1394 35.0764 14.4887
Au 36.2196 32.0477 8.98593
Au 11.3847 34.2036 11.2162
Au 28.457 23.5926 13.1601
Pt 8.42891 18.5558 25.6636
Au 27.3364 28.4073 11.4144
Au 30.4575 24.0859 14.9314
Au 23.7364 23.659 18.8754
Pt 11.1179 10.0109 24.1838
Pt 22.0727 29.1427 37.7462
Pt 8.57967 34.0388 18.7138
Au 25.0252 12.6255 6.77295
Au 41.1342 33.3162 40.6686
Pt 11.9093 29.5613 26.2498
Au 46.8436 34.9599 22.7103
Au 30.3012 23.5765 24.3194
Au 20.4161 30.9278 12.62
Au 27.926 22.3699 23.9843
Pt 15.1593 16.3727 19.3356
Au 29.5674 38.3061 13.1893
Au 25.6616 28.7829 46.5501
Au 37.3155 29.4171 37.6804
Pt 21.3389 37.6385 34.6318
Au 23.1344 24.2925 21.585
Au 35.4003 39.0903 11.0178
Pt 16.2446 36.4549 18.9041
Pt 20.0392 42.5298 31.5898
Au 30.9955 38.8598 44.501
Pt 18.1206 34.581 39.2392
Au 35.5104 22.4127 45.9032
Au 9.55388 10.3394 34.8136
Au 27.1482 21.2566 30.6822
Au 3.12822 21.3319 34.7176
Au 32.5831 37.0762 45.8134
Pt 14.313 15.7021 40.2784
Pt 7.57509 23.1382 35.9555
Au 22.0633 20.6178 48.7066
Pt 16.629 22.0611 36.867
Pt 14.8166 34.5224 32.2984
Pt 15.8699 32.3967 21.4239
Pt 10.7768 30.2086 11.7982
Pt 33.2203 16.8842 16.963
Au 9.97224 38.3324 17.5303
Pt 13.7768 29.5243 12.0575
Au 3.19724 16.7638 18.5837
Au 8.14804 29.7655 11.4545
Pt 12.8373 25.6235 17.0585
Pt 23.7725 45.7297 26.7474
Au 43.5985 22.9625 38.2931
Pt 26.4423 40.9816 27.0435
Au 15.3521 19.9008 7.09308
Pt 4.46029 20.3856 32.5061
Pt 17.3194 37.4653 21.3358
Pt 10.2935 12.3092 25.0007
Pt 16.7097 43.539 28.5553
Au 31.9104 30.4126 18.2433
Au 21.7922 20.8566 9.56943
Au 16.1238 16.9574 5.67609
Au 28.9904 20.5103 48.3848
Au 25.6296 27.9509 1.1959
Au 32.9537 26.9463 39.9655
Pt 18.8939 19.823 31.5561
Pt 20.2193 29.9736 17.9717
Au 26.2285 24.5887 48.1778
Pt 34.3861 40.4398 28.1179
Au 36.5354 21.102 12.8755
Au 14.7913 35.0777 8.30225
Au 30.2643 20.1099 37.3591
Au 37.6691 17.7396 40.2703
Au 23.9749 25.1884 36.363
Pt 17.8958 33.0746 29.6781
Au 30.5481 24.8607 49.6815
Au 12.0602 27.7368 41.3464
Au 36.3561 15.715 43.2392
Pt 6.91943 18.7676 27.887
Pt 15.9474 17.1991 36.8461
Au 34.825 47.0588 31.05
Pt 19.6803 17.2564 27.9041
Au 41.4771 18.375 36.2871
Pt 24.1103 31.5267 30.3378
Pt 15.0224 28.1773 34.2941
Au 7.25127 34.5573 16.239
Pt 13.2984 35.7871 19.5466
Au 15.1407 20.7887 9.65849
Pt 35.4882 44.5248 27.1912
Au 3.16895 27.3583 30.5468
Au 15.4491 40.8225 37.5965
Au 8.67856 14.9589 13.8215
Au 13.2065 14.6127 12.2812
Pt 7.65908 23.4078 33.2306
Au 6.60445 24.4761 10.1461
Pt 4.06987 24.5943 17.6408
Au 15.29 44.155 30.8588
Au 1.90882 19.7005 32.9549
Pt 10.9379 35.1724 22.1115
Au 34.0422 30.9069 20.0337
Pt 16.3961 37.0614 26.8967
Pt 10.0252 28.3438 22.4148
Au 5.94668 36.9223 23.4741
Au 5.58359 37.0745 26.5317
Au 17.4142 18.9413 9.11437
Pt 17.6637 39.353 26.2983
Au 12.1669 18.9355 43.32
Au 14.5255 40.2316 14.7735
Au 21.6664 28.5967 11.24
Au 45.2676 21.8251 13.6546
Au 32.7416 14.5698 33.6242
Pt 16.6889 20.8211 27.2788
Au 25.4631 19.8903 19.5793
Pt 20.0371 39.1027 25.0708
Au 4.88097 20.1056 36.4532
Au 8.27464 9.78835 32.3447
Au 34.5932 36.6727 41.6903
Pt 21.1039 24.5903 36.2034
Au 25.5533 37.943 45.117
Pt 26.4785 35.9883 14.116
Pt 19.0908 22.6154 38.0327
Pt 14.4427 23.8212 36.5296
Pt 20.9795 41.6578 29.1675
Pt 12.1476 15.0315 38.513
Pt 15.6145 17.9389 39.4623
Au 25.8364 26.587 13.0571
Pt 29.253 43.6469 34.1324
Au 24.3787 21.204 11.1828
Au 19.0875 48.4225 26.326
Pt 22.006 37.5766 24.0167
Au 2.88021 32.3246 27.5207
Pt 23.8379 42.6735 25.2643
Au 6.59589 22.691 17.4392
Au 20.4633 45.4702 16.0005
Au 9.46588 37.1486 29.3214
Pt 16.9279 43.8106 21.5541
Au 12.3616 39.3146 16.4076
Au 14.5223 39.4518 40
Pt 5.60618 29.3927 19.0593
Au 15.7664 23.442 8.86055
Au 16.6532 30.2683 4.4203
Au 11.3625 26.8404 8.99242
Au 44.7344 17.7063 17.4479
Pt 22.491 47.4093 21.7535
Au 3.31007 33.3738 24.9813
Au 14.1668 31.8177 43.1074
Pt 14.1142 40.2436 19.119
Pt 15.0353 29.9097 32.0084
Pt 18.3811 40.8474 32.9614
Au 11.2785 40.6358 31.3392
Pt 24.6718 44.297 31.8393
Au 7.14835 13.4684 15.8633
Pt 14.2604 30.3573 27.177
Au 7.08281 32.2945 30.8785
Au 37.3556 19.4897 37.9388
Au 18.7559 46.1207 34.1336
Pt 28.3458 46.1718 33.5451
Pt 9.78077 33.0772 32.0826
Pt 16.8429 25.0365 40.6173
Pt 18.9765 32.3467 40.9579
Pt 23.7666 24.8923 39.2545
Pt 16.9913 34.2499 27.5097
Au 29.8931 49.812 31.7226
Pt 10.536 26.8476 17.9736
Au 14.867 42.4874 35.4187
Pt 30.1524 47.1183 31.7747
Pt 19.6636 27.6439 16.4706
Pt 15.4629 39.6309 24.754
Pt 19.4298 20.7262 22.8115
Pt 10.5775 20.4026 17.7195
Au 20.3525 30.0177 9.12581
Pt 10.6397 33.29 20.2998
Au 8.08253 41.1067 25.5142
Pt 19.3682 37.1953 19.5565
Pt 8.82233 19.9792 15.6428
Pt 18.7539 23.6749 20.5595
Au 11.9826 38.102 30.3978
Pt 24.3822 33.5589 32.2849
Au 21.379 46.6161 35.0789
Pt 20.6568 33.1351 42.8074
Au 2.54809 31.4556 30.0356
Au 7.47538 32.2102 33.587
Au 15.1318 25.068 11.1512
Au 28.7246 42.2737 36.3519
Au 28.6085 27.2559 38.0169
Pt 17.7609 18.5235 40.9907
Au 16.2946 27.5717 41.5268
Pt 26.3357 35.3468 30.0043
Pt 12.4987 23.9016 14.9768
Au 5.20956 17.7343 32.1
Au 10.5145 17.2247 41.7769
Au 26.0444 38.4337 42.392
Au 32.7276 41.5982 37.7803
Pt 12.8506 31.9036 25.3574
Pt 16.4218 33.0785 13.3497
Pt 21.5332 35.1536 7.93156
Au 27.0532 35.2295 10.1128
Pt 16.5173 32.3022 32.2096
Pt 28.64 35.5699 34.1557
Pt 12.7449 34.6616 25.4369
Pt 28.5495 36.6182 29.6165
Au 29.8609 33.5145 40.9465
Au 16.8448 2.3431 23.8435
Pt 28.2303 7.14708 24.6015
Pt 36.9072 10.9139 31.4457
Au 16.9804 3.50414 16.393
Au 10.5531 7.45036 18.1197
Pt 14.7629 17.8705 22.3773
Au 11.6777 8.23243 15.7381
Au 30.0964 4.45998 17.2218
Pt 26.6325 9.4308 24.6371
Pt 13.8056 32.8111 35.808
Pt 27.3645 5.73136 20.7058
Pt 23.125 11.3749 29.7536
Pt 7.93581 16.139 21.8242
Pt 19.3293 6.79915 17.9637
Pt 29.8772 13.1977 24.8873
Pt 23.9298 2.79036 25.2758
Au 13.2369 4.63067 29.8639
Au 7.70185 32.0011 28.0948
Pt 12.8699 17.9576 40.5709
Pt 22.2912 11.4347 33.0377
Pt 14.9067 8.85478 26.6342
Pt 19.2303 7.56998 13.4094
Pt 35.1325 11.6471 16.1317
Pt 23.8295 14.279 21.164
Pt 19.8582 3.93513 27.8687
Pt 42.7159 15.9337 21.876
Pt 9.65913 18.0928 30.0488
Pt 10.8059 12.4957 22.4689
Pt 14.0992 20.765 42.8619
Au 29.9438 6.54863 12.8479
Pt 20.9634 19.0748 35.6116
Pt 27.3484 15.1111 19.3211
Pt 24.4449 8.75828 20.7337
Au 9.49547 9.56654 16.3983
Pt 23.2436 16.0539 9.0899
Au 9.33774 7.63151 30.7018
Pt 34.2679 16.3712 12.4777
Pt 16.3909 12.9221 38.3301
Pt 15.6136 11.4882 20.4682
Au 30.2894 4.59453 14.5545
Pt 10.6297 29.377 35.0436
Au 43.2784 12.1609 29.1996
Pt 11.7988 26.3412 21.617
Au 22.7505 22.9487 31.8929
Au 33.5405 32.7058 17.8148
Pt 14.3808 14.3465 17.1235
Pt 11.023 17.2104 24.8642
Pt 8.8471 27.7769 33.4988
Au 22.3656 21.3163 6.54817
Au 32.9517 31.8918 37.1445
Au 32.0653 20.2834 7.54887
Au 24.2183 22.4274 48.7362
Au 4.7662 34.2893 22.8597
Au 13.2735 7.28872 17.8449
Au 22.4587 24.0068 5.95281
Au 25.1137 26.0873 22.4127
Pt 11.0166 21.7206 38.9298
Pt 24.1289 14.1884 37.5561
Au 30.8777 25.006 42.9107
Pt 19.8516 7.71467 38.1636
Au 37.2263 26.6905 44.2545
Au 42.9056 19.1315 38.5548
Au 25.712 16.8912 43.9555
Au 29.8566 4.99816 19.9832
Pt 22.0915 5.14476 29.0221
Pt 20.0274 24.5384 27.3558
Pt 19.8658 4.97722 35.9959
Pt 15.1125 12.9575 32.3496
Au 19.8181 0.889158 30.8703
Pt 19.3045 10.0199 36.7827
Au 20.1506 16.1464 46.2092
Pt 28.128 9.53021 32.3883
Au 32.4825 5.40749 15.9552
Pt 13.9777 21.3897 14.8896
Pt 10.5264 15.4653 22.6374
Au 23.0533 0.0726695 25.0505
Au 24.3907 4.0781 14.6796
Au 9.14963 7.28511 23.6645
Pt 8.48264 23.5419 25.8493
Pt 16.5592 33.8067 16.7632
Au 15.1366 17.4501 8.30485
Pt 12.2193 18.9335 31.0288
Au 28.807 30.3577 4.95566
Pt 11.5022 28.6879 20.1871
Pt 8.64099 20.6078 24.2012
Pt 31.7717 7.37736 20.6067
Au 31.3779 29.0828 5.29068
Pt 8.88295 17.4934 14.7504
Au 14.7882 21.7942 3.57166
Au 29.5913 27.0427 4.43879
Au 31.0511 21.9962 29.3559
Au 28.2946 22.949 10.5122
Au 28.4829 5.64991 35.4649
Au 28.6768 21.7056 4.97756
Au 23.2958 38.5643 5.2302
Pt 14.4226 6.15193 25.2553
Pt 27.938 10.6163 21.1551
Pt 27.4451 11.1765 27.978
Pt 31.6307 8.46791 14.2937
Pt 39.3335 28.8899 18.9639
Au 25.4325 14.6639 45.5209
Au 48.8473 24.6684 22.0763
Pt 21.312 7.47894 24.246
Pt 15.7456 12.3146 35.1438
Pt 15.7222 10.1718 33.2341
Au 34.1116 26.2159 37.6292
Au 32.7981 36.1782 6.46472
Au 37.0013 36.9048 10.8191
Au 33.1657 23.9597 28.5445
Pt 23.684 5.83682 24.7265
Au 20.2981 11.4581 41.3251
Au 37.7154 26.968 15.1603
Pt 24.1077 14.6404 15.7267
Au 12.6199 25.9137 44.0086
Pt 13.2774 35.9315 12.7724
Pt 8.9498 24.6493 11.514
Au 12.3964 16.6101 8.30191
Pt 18.4471 16.3335 16.0952
Au 12.5323 17.1152 11.0729
Au 23.4207 23.8463 11.4519
Pt 19.8961 11.9452 13.3363
Pt 17.9683 32.8665 19.0049
Pt 14.9532 28.5251 37.1688
Au 23.1222 26.6936 12.8864
Pt 15.2386 12.7751 12.4093
Pt 17.2107 41.4217 20.6798
Pt 6.3841 25.4677 16.9103
Au 29.9207 13.0705 9.67031
Au 25.6163 23.467 23.1868
Au 34.4995 22.536 11.5348
Au 30.5909 19.8681 5.20392
Au 24.1727 28.8934 21.0746
Pt 13.2643 11.6123 24.5755
Au 30.6001 26.9671 7.11076
Au 30.0025 27.8752 11.995
Au 29.7446 24.7633 8.86569
Au 26.219 18.2935 3.08972
Au 22.7995 20.9652 19.1709
Pt 11.0799 17.3205 37.2064
Pt 26.2455 17.6502 26.5168
Pt 23.4712 13.5746 26.0445
Au 25.5343 39.5843 11.4086
Au 22.6261 37.1775 45.5135
Au 40.2569 26.4204 40.7879
Au 26.8286 28.9298 19.8913
Au 29.2785 21.283 14.4444
Pt 9.26741 22.2071 31.4641
Pt 21.5425 20.4954 30.9585
Pt 19.8731 22.4278 31.5855
Pt 22.0611 31.7644 40.7994
Pt 22.9637 9.07239 34.1131