3871
Atoms. Timestep: 20619
Au 11.4497 5.50503 27.6365
Pt 9.51762 7.68432 27.6139
Pt 9.54132 9.6262 25.6117
Pt 7.64065 9.67273 27.6253
Pt 5.7009 11.5342 27.5752
Pt 7.6213 9.69331 31.5183
Au 19.2285 3.45939 21.8412
Pt 5.79757 11.6612 31.4751
Pt 7.27089 15.4183 21.4721
Pt 9.48798 9.55544 21.7418
Au 6.88179 10.7614 19.2512
Pt 9.51133 7.62905 23.7129
Au 8.84534 7.0031 21.1642
Pt 11.4656 7.55695 25.6812
Pt 7.54493 11.4382 21.7082
Pt 7.58753 9.56418 23.6673
Pt 9.39044 13.617 29.5391
Au 5.61796 9.55598 25.6809
Pt 5.65946 15.3482 23.6243
Au 5.95672 7.60731 27.6436
Pt 5.67809 15.4816 31.5526
Au 3.91339 11.6917 29.5777
Pt 7.56574 11.6055 29.5565
Au 5.58176 13.5836 33.4867
Pt 5.63219 17.5337 17.5729
Au 5.47712 13.2609 21.5046
Pt 9.47691 15.1975 15.6023
Pt 5.55542 17.639 21.3603
Pt 7.46991 17.4569 15.7488
Pt 7.36124 17.4514 23.4134
Pt 7.53062 15.3068 17.5195
Au 5.52218 11.4679 23.6519
Pt 3.9673 17.4452 23.4897
Pt 7.47994 13.4351 23.5286
Pt 4.21007 15.5626 21.6152
Au 3.62892 15.4458 25.4063
Pt 5.53606 15.5291 27.4902
Au 3.79765 13.5206 27.5503
Pt 7.47267 15.4639 25.557
Au 5.21812 17.4865 29.5793
Pt 5.58923 19.4794 31.4939
Pt 5.60815 13.471 25.5392
Pt 7.46377 13.5572 27.5435
Au 5.43571 17.4805 33.4805
Pt 7.55148 17.6046 35.4541
Pt 5.95983 15.6272 35.4191
Pt 9.42739 15.5652 31.5153
Au 7.49029 15.4796 37.6533
Pt 5.56497 19.4543 15.5722
Au 5.60391 19.3551 11.7774
Pt 7.54464 21.2956 11.6604
Pt 7.46809 19.3306 13.6809
Pt 3.89416 25.3321 19.3312
Au 3.7336 21.4822 15.5206
Pt 7.53383 21.3391 15.5171
Pt 5.62331 21.3741 17.4669
Pt 5.54292 19.4733 19.4442
Au 7.44802 17.3837 19.4522
Au 7.52118 21.3946 19.4557
Pt 5.55278 19.5049 23.3344
Au 3.54293 21.3608 23.3668
Pt 5.64713 17.413 25.4634
Pt 7.48146 19.4725 21.4268
Pt 3.89305 19.3965 25.3436
Pt 5.45771 19.4995 27.452
Pt 7.35634 17.5297 27.5135
Pt 7.36154 19.4545 25.4088
Au 3.62045 17.4894 27.2656
Au 5.32692 21.4335 33.3937
Pt 7.42647 17.5124 31.5182
Au 7.33617 19.4292 29.4758
Pt 7.39976 19.4954 33.4676
Pt 7.56052 19.5576 37.4563
Pt 9.56496 19.5084 39.4008
Au 5.47737 19.4968 35.4923
Au 5.67368 17.5458 37.4582
Au 5.71106 19.5301 39.4899
Pt 7.66534 17.6477 39.3879
Pt 7.76999 19.6783 41.3127
Au 7.71363 21.6074 43.3518
Au 7.73315 23.7929 6.98929
Pt 8.51545 21.0799 7.56139
Au 10.3761 21.2607 5.65837
Pt 5.66567 21.402 13.5771
Pt 5.88552 23.4133 11.5156
Pt 9.46983 21.1875 13.5174
Pt 7.84472 22.8156 9.50524
Au 3.86491 23.4061 13.4389
Pt 5.80065 25.2732 13.4945
Au 3.65628 21.4554 19.3492
Pt 7.6607 23.2904 13.5166
Pt 5.67703 25.4286 17.364
Pt 5.58752 25.3542 21.397
Pt 5.64341 23.375 19.4625
Au 3.72323 25.3357 15.4449
Pt 5.49126 21.4214 21.4125
Pt 5.51153 23.3369 23.3839
Pt 7.42522 21.4135 23.4319
Pt 7.45969 23.3715 21.4502
Pt 5.477 21.4581 25.4146
Pt 5.41079 23.3591 27.4401
Au 7.37457 21.4188 27.4174
Pt 7.38297 23.3868 25.4281
Pt 5.50445 21.4276 29.4272
Pt 5.44176 25.2732 29.463
Pt 7.36239 21.4509 31.4293
Pt 7.37319 23.3564 29.4015
Pt 5.50023 23.4278 31.3891
Au 5.49715 21.5086 37.5618
Pt 7.40718 21.4802 35.4775
Au 7.32135 23.3812 33.4508
Pt 7.65676 21.5356 39.3547
Au 5.64483 27.4729 39.3873
Au 5.75735 21.6166 41.3353
Pt 7.55393 23.4639 37.3822
Pt 7.81715 23.495 41.2971
Pt 9.66036 23.5202 43.3307
Pt 11.5881 21.527 43.3753
Pt 11.6098 25.448 43.3081
Au 11.6134 23.4793 45.3632
Au 5.40519 27.5184 8.65436
Pt 7.83479 27.3386 9.6823
Pt 6.51494 25.0407 9.2127
Pt 7.59775 26.4567 7.22976
Pt 5.79097 26.763 11.3066
Pt 5.74105 29.1903 13.4142
Au 7.90293 25.1585 11.4611
Au 4.39052 28.9454 11.1129
Au 3.93358 27.1931 13.2961
Pt 5.63509 27.3132 15.4254
Pt 7.61827 25.3718 15.4181
Pt 7.57642 27.2826 13.3875
Pt 3.93484 23.423 17.4267
Pt 5.58574 27.314 19.3745
Pt 7.48881 25.3734 19.4056
Pt 7.54853 27.3452 17.3945
Pt 3.79173 25.3189 23.3802
Pt 5.5239 27.2937 23.408
Pt 7.37663 25.3381 23.4257
Pt 7.40328 27.3625 21.3902
Au 3.51512 23.4587 21.3459
Pt 5.49207 27.2879 27.3785
Pt 7.32612 25.3245 27.4534
Pt 5.49736 25.3377 25.4443
Au 3.53664 23.3911 25.3746
Au 3.54289 25.3607 27.4956
Pt 7.39061 25.3356 31.3751
Pt 7.26676 27.3437 29.4006
Pt 5.52016 25.401 33.4147
Au 3.83405 25.6815 35.5721
Au 5.75987 31.2687 39.3182
Pt 7.4344 25.3655 35.4164
Au 5.3572 23.4255 35.5228
Pt 5.7796 29.3901 37.3492
Pt 7.74267 25.4956 39.3361
Pt 9.5298 25.3923 37.3293
Pt 5.86544 23.5571 39.4098
Pt 7.67673 29.3714 39.3558
Pt 11.602 27.4248 41.4315
Pt 7.84334 25.4935 43.1815
Pt 5.99247 25.4588 41.232
Pt 11.5811 29.4034 43.3088
Pt 7.7435 29.2443 7.83291
Au 5.59915 30.1567 9.08801
Au 5.54865 31.5043 11.5512
Pt 7.28825 29.296 11.3067
Pt 7.75159 31.4726 9.69708
Au 3.96004 31.268 17.2769
Pt 5.6601 31.1241 15.1654
Pt 7.58292 29.2988 15.4133
Au 7.5951 31.3237 13.3144
Pt 5.60822 29.1869 17.3411
Pt 5.47539 31.1019 19.569
Pt 7.44275 29.3271 19.3749
Au 7.14564 31.5082 17.4302
Au 3.55896 29.1335 23.3683
Au 3.50834 27.1863 21.3452
Pt 5.45684 29.2037 21.4223
Pt 7.29522 31.2378 21.4842
Au 3.45902 27.209 25.3895
Pt 5.39341 29.2532 25.419
Au 3.65782 27.4173 33.4127
Pt 7.34663 27.3401 25.4216
Pt 3.95147 29.3037 31.4696
Pt 5.56548 31.3934 31.4123
Pt 7.36277 29.3578 31.3695
Pt 3.90182 27.3497 29.5023
Pt 5.57648 27.2671 31.4751
Au 3.8027 29.3269 35.4448
Pt 5.72647 27.4469 35.4438
Au 3.7735 31.271 33.4274
Pt 5.73362 25.4923 37.4912
Pt 7.58741 29.4069 35.3743
Pt 7.63119 27.4114 37.3949
Pt 7.47278 27.3421 33.4052
Au 5.66607 33.2401 37.3707
Pt 7.73905 27.4431 41.2941
Pt 7.65199 31.3469 37.3501
Pt 7.72542 33.4541 11.4802
Pt 5.95726 33.4799 13.4454
Pt 6.17594 35.6772 15.2258
Pt 7.64207 33.2944 15.374
Pt 7.82187 35.5024 13.2735
Pt 5.08791 33.4629 15.9828
Pt 5.71613 35.6301 19.6306
Pt 7.43693 33.2555 19.6224
Pt 7.26213 34.9013 17.496
Pt 5.1156 33.398 18.4837
Au 5.2789 33.3281 21.3656
Au 5.213 31.3448 23.4755
Au 7.39761 35.4398 21.6026
Pt 7.27064 29.3459 23.44
Pt 5.67013 33.4033 25.4847
Au 3.65229 29.1383 19.2692
Au 5.5227 37.5169 25.4969
Pt 5.5025 29.4199 29.3701
Pt 7.4968 33.3055 31.3919
Pt 7.4937 31.342 33.3714
Au 5.61502 37.2255 33.3845
Pt 7.59751 35.244 33.3874
Pt 5.7351 35.3012 31.4688
Pt 7.57519 33.3174 35.3742
Pt 9.47616 35.2401 31.4167
Pt 5.67904 29.3383 33.4488
Pt 5.68116 31.3466 35.3904
Pt 7.65345 37.1778 35.2841
Pt 7.8844 37.6787 15.1003
Au 4.34496 35.7487 17.2844
Au 4.62824 37.9868 19.0677
Pt 7.62996 37.4429 19.6332
Pt 6.45806 37.4054 17.304
Au 5.56365 37.7038 21.6401
Pt 9.45765 37.3597 25.5028
Pt 7.51758 37.4829 23.5776
Au 5.4632 35.4712 23.5781
Pt 7.43548 35.4414 25.5102
Au 5.72628 39.1835 31.4111
Pt 7.52893 37.2933 27.494
Au 9.41801 35.277 27.4233
Au 5.42278 35.4188 27.4384
Pt 7.63323 37.2021 31.4688
Pt 7.49372 35.2442 29.4314
Au 5.66825 39.3105 27.6274
Pt 5.66458 33.2907 33.3947
Pt 9.564 39.0665 35.3644
Pt 7.66556 39.0979 33.3653
Pt 6.5462 39.7778 19.3465
Au 5.91588 39.8164 23.6645
Pt 9.25764 43.6403 22.0695
Pt 11.1758 41.6402 23.5814
Pt 11.6619 43.0738 21.3912
Pt 8.1052 41.4743 23.3142
Au 9.30462 43.2446 27.4581
Pt 7.07557 41.896 25.5225
Pt 13.5129 41.2669 21.4703
Au 11.4357 43.4166 29.3572
Pt 7.66341 39.1952 29.5426
Au 7.69824 41.1638 31.467
Pt 9.18209 43.5106 24.647
Pt 9.57469 41.1612 25.6827
Pt 11.4667 41.3123 27.5384
Pt 11.4568 7.51479 21.791
Pt 15.2655 5.54787 19.9098
Pt 10.8378 6.99367 19.2885
Pt 13.4328 7.46242 23.6723
Au 11.3771 5.56045 23.7778
Pt 13.3211 5.71047 29.6031
Au 13.3226 5.39515 21.7767
Pt 13.4291 7.48969 27.6035
Pt 7.68098 7.77189 25.6656
Au 9.41868 5.72439 25.7527
Pt 15.4401 7.42322 25.62
Pt 7.69656 7.80449 29.6175
Au 5.60076 9.56615 29.5988
Pt 11.4657 9.62025 31.5619
Pt 9.54095 7.7683 31.5809
Pt 9.50402 9.6665 33.4867
Pt 7.48879 13.3856 19.632
Au 8.6151 10.6636 17.1486
Au 10.5331 10.4543 15.1717
Pt 8.91097 8.90483 19.2618
Pt 9.46836 11.4696 19.7183
Pt 11.4594 9.51696 19.8198
Pt 11.3534 11.3272 17.7225
Au 11.4774 9.52426 23.6592
Pt 9.46794 11.5388 23.6003
Au 13.5122 9.48159 25.5972
Pt 11.4163 11.5184 21.6504
Pt 7.54439 11.5473 25.5714
Au 9.51473 11.6364 27.5714
Au 11.5273 9.57676 27.5831
Au 11.5466 11.5725 25.5606
Pt 9.55469 9.65962 29.5863
Pt 7.59062 13.5845 31.5473
Pt 9.50157 11.6053 31.5463
Au 11.5135 11.606 29.5645
Pt 7.62245 11.6467 33.4568
Au 7.44661 13.3942 35.5803
Pt 9.54681 11.5723 35.4277
Au 11.4496 11.5871 33.5314
Au 11.3977 11.4181 37.623
Pt 9.0741 17.1124 13.7568
Au 8.49889 12.7077 15.1762
Au 7.19802 19.6989 9.5401
Au 5.69869 17.3216 13.7469
Au 5.46911 15.3695 19.32
Au 6.88027 15.0299 14.8229
Pt 11.3839 17.168 15.4659
Pt 9.40694 13.2686 17.6764
Au 9.40459 15.3232 19.5483
Pt 11.4166 13.3594 19.6128
Au 11.4249 15.2282 17.5259
Pt 9.38085 13.4603 21.5897
Pt 9.30427 15.4582 23.4603
Au 11.4543 13.5328 23.5217
Pt 11.4243 15.348 21.5104
Au 9.4495 13.5681 25.5235
Pt 9.38503 15.5503 27.5057
Au 11.516 13.6003 27.5361
Au 11.4736 15.5287 25.4809
Pt 5.68754 13.6191 29.564
Au 7.43213 15.6231 29.5051
Au 11.4349 13.6139 31.5247
Au 11.4698 15.5546 29.487
Pt 9.43578 13.5719 33.5683
Pt 9.32043 15.4934 35.574
Pt 11.3636 13.495 35.6098
Au 11.3856 15.5269 33.5689
Pt 7.57936 15.5344 33.4671
Pt 9.5898 15.7047 39.4319
Au 9.41179 13.4355 37.6011
Au 11.3903 15.4545 37.5345
Pt 11.4684 17.5425 39.521
Pt 9.17288 17.9418 9.2573
Au 11.4179 17.0176 7.68715
Pt 13.3004 18.8843 7.07652
Pt 9.2114 19.1209 11.7125
Pt 10.0946 16.5044 11.4912
Au 7.3771 17.1657 11.4948
Pt 11.4553 18.4195 10.1926
Au 9.57973 19.2703 15.4278
Au 9.57941 21.3274 17.4297
Au 9.48774 17.3304 17.5169
Pt 11.3935 18.5426 13.1817
Pt 7.54296 19.4454 17.5065
Pt 9.43621 19.4105 19.4861
Au 11.4739 17.3521 19.4823
Au 11.5624 19.3174 17.4102
Au 9.39535 17.3768 21.4671
Au 9.41708 19.4197 23.4271
Au 11.4415 17.3897 23.4273
Au 11.4577 19.424 21.3974
Au 9.35751 17.4718 25.4636
Pt 9.35485 19.4689 27.4199
Au 11.4504 17.4996 27.4439
Pt 11.4224 19.3734 25.4434
Au 9.41838 17.5384 29.4709
Pt 9.32404 19.4961 31.4607
Au 11.4219 17.4879 31.4998
Au 11.3928 19.4839 29.4439
Pt 9.38598 17.54 33.4833
Au 9.44271 19.5343 35.4566
Au 11.4157 17.4872 35.5128
Au 11.4357 19.4627 33.444
Pt 9.45823 17.5442 37.4454
Pt 9.64085 21.5298 41.345
Au 11.4824 19.5075 41.4295
Pt 11.4611 19.4605 37.4829
Au 9.42654 17.5006 41.5399
Pt 13.5887 19.5692 43.3174
Pt 11.658 17.6528 43.3204
Au 11.7339 19.6018 45.3147
Au 15.5027 17.5538 47.0808
Pt 10.8364 19.6418 7.73001
Pt 10.1931 23.0251 7.65594
Pt 12.9312 20.3887 9.33996
Pt 12.6167 21.6475 7.09366
Au 9.77322 20.8545 9.77652
Au 9.71471 23.1328 11.4382
Au 11.6015 20.9382 11.7921
Pt 11.7575 22.7295 9.56896
Au 9.59322 23.2869 15.4296
Pt 5.72962 23.3804 15.4599
Au 11.6467 21.1354 15.206
Au 11.6402 23.3064 13.4089
Au 9.52044 23.3633 19.4212
Pt 7.51257 23.3732 17.4456
Pt 11.5159 21.3375 19.4414
Au 11.6255 23.2826 17.3533
Pt 9.42518 21.4006 21.4487
Au 9.4348 23.3777 23.4071
Pt 11.4307 21.3359 23.3991
Au 11.5016 23.3259 21.3882
Au 9.43565 21.3807 25.4164
Au 9.40659 23.3782 27.4154
Pt 11.389 21.3413 27.4269
Au 11.432 23.3885 25.4029
Pt 9.30872 21.3841 29.4169
Au 9.38036 23.3624 31.3775
Pt 11.3997 21.3904 31.41
Au 11.4123 23.3343 29.4109
Au 9.38041 21.4571 33.4242
Pt 9.42715 23.4236 35.4326
Au 11.4816 21.4575 35.4495
Au 11.4743 23.4035 33.393
Pt 9.51262 21.4929 37.4192
Pt 9.56773 23.478 39.3147
Pt 11.4871 21.466 39.3643
Pt 11.4652 23.4372 37.374
Au 9.6008 19.5787 43.4854
Au 5.92065 23.6505 43.166
Pt 13.5638 23.5011 43.3998
Au 11.5598 23.4651 41.3649
Pt 13.6257 21.5394 45.2285
Pt 13.5235 25.4698 45.245
Pt 10.0551 25.3805 6.46679
Pt 9.80466 27.5516 7.77674
Au 11.8239 23.6171 5.48357
Pt 11.5377 27.6192 5.81393
Pt 9.43005 25.1462 9.14152
Pt 9.68658 27.3108 11.4781
Au 11.5575 25.257 11.1277
Pt 11.6826 27.3623 9.43641
Au 9.69708 25.3612 13.4752
Pt 9.52429 27.3589 15.4321
Au 11.6329 25.4017 15.4388
Pt 11.6414 27.3533 13.4178
Au 9.54499 25.3587 17.3854
Au 9.48349 27.3677 19.3835
Au 11.5557 25.3786 19.3473
Pt 11.5195 27.4356 17.3981
Au 9.43367 25.413 21.4149
Pt 9.24436 27.3777 23.402
Au 11.4333 25.4476 23.3404
Pt 11.4756 27.3943 21.2825
Au 9.36327 25.3945 25.4104
Au 9.29432 27.3723 27.4328
Pt 11.3831 25.396 27.428
Au 11.3828 27.3662 25.4386
Au 9.36078 25.3673 29.3865
Au 9.35354 27.3743 31.3392
Au 11.484 25.3832 31.389
Au 11.4138 27.3899 29.3591
Au 9.40923 25.3397 33.3962
Au 9.48989 27.3489 35.357
Pt 11.4921 25.3478 35.3731
Au 11.5018 27.3362 33.3814
Pt 11.5103 25.4071 39.341
Au 9.65275 27.4484 39.368
Pt 9.67833 25.4731 41.3259
Au 11.5496 27.375 37.2984
Au 11.608 29.4375 39.4111
Au 9.61228 31.3411 43.3152
Au 9.68822 25.5349 45.2002
Pt 13.5739 31.4374 43.3061
Pt 9.65221 27.4733 43.2574
Pt 11.6583 27.4254 45.0682
Pt 9.67833 29.4628 5.99251
Pt 9.55485 31.4057 7.75855
Pt 11.5946 29.5383 7.76695
Pt 11.4548 31.4636 5.91948
Au 9.6088 29.465 9.73145
Pt 9.61792 31.4634 11.5373
Au 11.6858 29.3481 11.4919
Pt 11.5826 31.4794 9.5597
Au 9.48994 29.2774 13.3328
Au 9.49198 31.3365 15.4411
Au 11.5179 29.3154 15.3736
Au 11.5361 31.4093 13.4675
Au 9.44218 29.4063 17.428
Pt 9.3465 31.2996 19.4079
Pt 11.4636 29.3762 19.3514
Pt 11.4646 31.3486 17.4292
Au 9.36938 29.3282 21.399
Au 9.29964 31.3054 23.4184
Au 11.3724 29.2861 23.3725
Au 11.4081 31.336 21.3489
Au 9.29443 29.3406 25.4094
Pt 7.2784 29.3703 27.3885
Au 11.3398 29.4003 27.4286
Au 11.3728 31.3391 25.4005
Pt 9.23516 29.3761 29.3637
Pt 9.34584 31.3207 31.3513
Au 11.4198 29.3794 31.3287
Pt 11.3128 31.3155 29.3971
Au 9.44894 29.361 33.348
Pt 9.49928 31.3834 35.3454
Pt 11.5054 29.4145 35.3151
Au 11.4647 31.3551 33.3539
Au 9.59717 29.4165 37.3293
Au 7.51186 35.3642 37.4783
Pt 9.61658 31.3429 39.3508
Pt 11.5166 31.4221 37.3466
Pt 9.62551 29.4068 41.357
Pt 9.67582 33.2919 41.2251
Au 11.701 31.3647 45.1916
Au 11.5863 31.4265 41.4103
Au 7.66383 31.3458 41.3273
Pt 7.72524 33.2289 39.3057
Pt 11.5495 33.3896 7.66606
Pt 9.64345 33.439 9.55583
Pt 9.69335 35.4017 11.4707
Au 11.5594 33.4748 11.4691
Au 11.4668 35.5847 9.36786
Pt 9.53153 33.4491 13.4652
Au 9.34889 35.4156 15.4955
Pt 11.4158 33.3777 15.5094
Au 11.4956 35.4051 13.5004
Pt 9.38786 33.2255 17.5242
Au 9.32649 35.3091 19.4385
Pt 11.399 33.3072 19.407
Au 11.3589 35.3253 17.4777
Au 9.40042 33.311 21.4381
Au 7.26648 33.3004 23.3955
Au 9.40039 35.3565 23.4971
Pt 11.4064 35.287 21.3507
Pt 7.24801 31.2654 25.4442
Au 3.53939 29.1316 27.4786
Pt 9.23448 31.3289 27.414
Au 11.3923 33.2444 27.4178
Au 5.19435 31.4098 27.3485
Au 7.31467 31.4029 29.3513
Au 11.4465 33.2682 31.3713
Pt 9.37774 33.2765 29.4176
Pt 9.45768 33.2704 33.3547
Au 9.52506 35.275 35.3858
Pt 11.4975 33.337 35.343
Pt 11.4719 35.2561 33.3693
Au 9.54536 33.3346 37.3767
Pt 9.68067 35.2381 39.298
Pt 11.6077 33.3276 39.3513
Au 11.5698 35.3015 37.3624
Au 5.63303 35.2311 35.3407
Au 11.5213 33.4984 43.3578
Pt 11.6421 35.2703 41.2274
Pt 11.6583 37.4442 11.5232
Pt 9.75846 37.483 13.342
Pt 9.79048 39.5389 15.2933
Au 11.4526 37.429 15.449
Pt 11.6974 39.4687 13.4471
Au 9.31675 37.4302 17.4216
Pt 9.31961 39.6267 19.2338
Au 11.3148 37.3878 19.4494
Pt 11.4744 39.3768 17.4228
Pt 7.70027 39.3982 21.6135
Pt 7.62984 39.3138 25.6347
Pt 9.48188 37.3712 21.5441
Pt 9.69318 41.1734 21.2802
Pt 9.58914 39.3186 23.5631
Pt 5.80134 37.2432 29.5131
Au 9.24755 33.2821 25.4371
Au 11.4654 35.2649 25.4477
Au 5.30198 33.4254 29.4844
Pt 9.46132 37.2119 29.4627
Au 11.5343 37.2446 31.4189
Pt 7.34692 33.3586 27.4988
Pt 9.57171 37.2101 33.391
Pt 11.496 39.1946 33.4335
Pt 11.5296 37.2417 35.3673
Pt 9.57345 39.1492 31.4362
Pt 9.60662 37.1774 37.3241
Pt 11.6027 37.2096 39.3232
Au 11.2978 41.1316 35.4996
Pt 11.7221 41.4225 15.453
Pt 7.80736 39.6345 17.0235
Pt 9.6499 43.0607 19.432
Pt 9.80915 41.4447 17.2477
Au 7.45003 42.0059 18.2166
Au 7.1577 42.0984 20.8626
Au 13.4172 39.3871 23.4795
Au 11.5033 39.2936 21.4765
Pt 11.6009 41.2563 19.3619
Au 11.5201 39.3268 25.4916
Pt 13.4056 41.3929 25.4787
Au 13.5014 39.3537 27.4821
Pt 15.365 45.1694 23.4849
Pt 9.54497 39.2256 27.5684
Pt 7.67411 41.1085 27.7986
Au 11.5136 39.2968 29.4871
Au 13.3938 41.4576 29.5305
Pt 9.56456 40.9299 33.4109
Au 15.498 43.3467 37.377
Pt 11.3788 41.2352 31.483
Pt 11.6267 44.8981 19.6046
Pt 11.4044 44.646 23.4563
Pt 13.4963 45.0038 25.3859
Pt 13.5029 43.1401 23.4796
Pt 19.2875 46.9066 25.3864
Pt 11.4985 43.3092 25.7574
Pt 13.5179 43.3139 27.473
Pt 12.6888 6.93645 17.4011
Pt 15.2515 7.27299 17.8534
Au 17.0031 6.90206 15.7762
Pt 15.2251 9.17323 15.902
Pt 13.3856 7.44388 19.866
Pt 17.2571 5.39526 21.7111
Au 19.0217 6.8657 13.785
Pt 15.3285 5.50627 23.7173
Au 15.3647 3.87871 29.6118
Pt 17.3241 5.46131 25.6532
Pt 15.3849 7.39359 21.7652
Pt 15.3359 5.53322 27.5371
Pt 11.5081 7.71154 29.599
Au 17.331 3.88379 31.6378
Pt 13.4158 5.63305 25.6534
Pt 9.61517 6.02051 29.5774
Pt 13.4335 9.54135 33.599
Pt 13.3799 7.59719 31.6577
Au 15.4274 7.31918 29.6508
Pt 11.4374 7.7821 33.4834
Pt 11.4846 9.67822 35.4531
Au 13.2866 7.65439 35.6773
Au 15.2702 7.2986 33.7851
Pt 15.5179 7.75734 37.4913
Pt 11.3693 15.2196 13.5914
Pt 12.6671 8.66419 15.4176
Pt 15.4476 15.1462 9.27298
Pt 10.7286 8.76174 17.3078
Pt 11.3152 13.1438 15.672
Pt 13.2896 11.2192 15.7868
Au 13.1768 13.0394 13.5449
Pt 13.3659 9.41522 17.8879
Au 13.4458 11.4437 19.6667
Pt 15.3992 9.30253 19.7201
Pt 15.3828 11.2568 17.6466
Au 13.4635 9.46542 21.6991
Pt 13.4984 11.5085 23.5086
Au 15.4871 9.42167 23.6152
Pt 15.4693 11.4059 21.537
Au 15.4924 9.39543 27.5973
Pt 13.5326 11.4957 27.5644
Pt 17.4143 7.31323 27.6052
Au 15.4864 11.4879 25.5387
Au 13.5392 9.5029 29.6017
Au 13.5167 11.5005 31.5901
Au 15.4768 9.37641 31.6787
Au 15.5535 11.4739 29.5894
Au 15.1408 5.45944 31.7958
Au 13.4032 11.5656 35.5825
Au 15.4013 9.5354 35.4951
Pt 15.4868 11.4605 33.5357
Pt 13.5439 9.68526 37.5167
Pt 13.5904 11.5879 39.4931
Pt 15.5058 9.6523 39.4673
Pt 15.4573 11.5464 37.5309
Au 11.4408 13.4178 39.6311
Pt 16.7111 13.052 7.90461
Pt 19.0957 12.6399 8.84683
Pt 16.5141 15.4723 6.92347
Pt 12.7555 15.0531 9.10956
Au 8.72649 14.5551 12.8349
Au 14.1975 11.4632 11.3028
Pt 18.1578 15.0291 9.19176
Au 10.4477 12.4082 13.2151
Pt 13.3527 15.0435 15.5425
Pt 15.3808 13.1029 15.5915
Au 11.4437 13.8423 11.1517
Pt 13.4117 13.2305 17.5862
Au 13.4727 15.3116 19.4708
Pt 15.4745 13.3286 19.4662
Au 15.4474 15.2085 17.4063
Au 13.5045 13.4564 21.5525
Pt 13.5018 15.4534 23.4359
Pt 15.4702 13.4738 23.4686
Pt 15.497 15.3605 21.4297
Au 13.5307 13.5194 25.4976
Pt 13.5038 15.5639 27.4713
Au 15.5054 13.4909 27.5442
Au 15.4672 15.4829 25.4355
Au 13.5129 13.5497 29.5228
Pt 13.4658 15.5775 31.5011
Au 15.4842 13.5172 31.5338
Au 15.4667 15.5235 29.5155
Au 13.4426 13.5527 33.5395
Au 13.412 15.5089 35.5699
Au 15.4243 13.5052 35.5559
Au 15.4173 15.5628 33.5061
Pt 13.3839 13.4559 37.6127
Au 11.4326 15.4991 41.5385
Pt 15.4669 13.5478 39.4719
Au 15.4145 15.5352 37.5366
Pt 15.4398 15.6051 41.45
Pt 13.5105 17.4984 41.462
Pt 13.6386 13.5913 41.4194
Pt 15.4988 17.5807 43.3442
Pt 15.5492 15.6529 45.1597
Pt 14.013 16.1799 7.13083
Pt 13.8867 17.5364 9.30724
Pt 16.7755 17.3645 9.27254
Pt 15.8234 17.9841 6.83898
Pt 15.3822 16.9413 11.5564
Au 13.7223 19.0935 11.6328
Pt 14.2542 14.1709 11.3177
Pt 15.3884 19.6808 9.06399
Pt 12.6791 16.3514 11.3955
Pt 13.5234 19.1365 15.1877
Pt 13.5358 17 13.6973
Pt 15.6646 19.0699 13.3863
Au 13.4725 17.2597 17.2981
Au 13.5565 19.3611 19.4001
Au 15.5222 17.2844 19.3434
Au 15.5217 19.2206 17.2481
Au 13.5151 17.3484 21.4319
Au 13.458 19.3799 23.3817
Pt 15.4683 17.3687 23.3944
Pt 15.4924 19.3236 21.3866
Pt 13.4498 17.4613 25.4023
Pt 13.4085 19.4177 27.4232
Au 15.4502 17.4575 27.4557
Au 15.4535 19.3555 25.3868
Pt 13.4475 17.517 29.4567
Au 13.4606 19.4201 31.4496
Pt 15.4704 17.442 31.4581
Au 15.4774 19.3916 29.4661
Pt 13.4369 17.4959 33.4988
Pt 13.4378 19.412 35.5364
Pt 15.4131 17.497 35.5388
Au 15.4349 19.3918 33.4676
Pt 13.4034 17.4893 37.5621
Pt 13.4788 19.4565 39.483
Pt 15.4592 17.5315 39.4981
Au 15.4579 19.427 37.4988
Au 13.3928 15.4945 39.5255
Pt 15.4717 19.593 45.2938
Au 19.2232 17.5616 47.2698
Pt 15.5151 19.5102 41.4402
Pt 13.6287 17.6361 45.1541
Au 17.3675 19.5872 47.2634
Pt 15.163 20.6599 6.68047
Au 14.7044 23.1736 5.88675
Pt 17.4574 21.7395 6.21652
Au 15.1377 27.9347 5.15396
Au 14.5514 22.7207 8.7118
Au 13.6013 23.3664 11.33
Au 15.4654 21.4069 11.1778
Au 15.0772 25.3075 7.84729
Au 13.775 21.3006 13.3703
Au 13.6637 23.3442 15.3476
Au 15.6296 21.2581 15.28
Pt 15.6763 23.4502 13.2073
Au 13.5948 21.2596 17.3005
Au 13.5272 23.2904 19.3491
Pt 15.4957 21.3243 19.347
Pt 15.4979 23.3287 17.3732
Pt 13.4967 21.3283 21.36
Au 13.4328 23.3562 23.3474
Au 15.4692 21.3355 23.3436
Au 15.4723 23.3215 21.3359
Au 13.3877 21.3399 25.4058
Au 13.3975 23.3668 27.3996
Au 15.4471 21.3515 27.4041
Au 15.4458 23.3557 25.3657
Au 13.4395 21.3939 29.4364
Pt 13.4511 23.3995 31.4164
Pt 15.4448 21.3816 31.4505
Au 15.4409 23.3664 29.4506
Au 13.4658 21.4247 33.4237
Pt 13.4543 23.4288 35.4153
Au 15.4712 21.421 35.458
Au 15.4545 23.3977 33.3999
Au 13.4658 21.4465 37.4518
Pt 13.4462 23.4429 39.3718
Au 15.5296 21.4544 39.4319
Au 15.5294 23.4191 37.4032
Au 13.5292 21.5028 41.3907
Pt 15.5577 21.5355 43.4079
Pt 17.4726 19.5482 43.4751
Au 15.5575 23.485 41.45
Au 19.4149 21.515 47.2461
Pt 17.4016 21.5673 45.4156
Pt 13.3342 25.7452 5.77736
Pt 13.6238 29.5043 9.44432
Au 15.9093 25.4254 4.99685
Pt 13.5736 27.63 7.51749
Au 12.2544 24.9891 8.13323
Au 13.6329 27.3166 11.2748
Au 15.5033 25.3396 10.9701
Pt 15.6397 27.5596 9.2278
Au 13.6041 25.3719 13.2781
Au 13.606 27.3749 15.3508
Au 15.5723 25.338 15.2778
Pt 15.6056 27.3286 13.2082
Pt 13.5438 25.426 17.3927
Pt 13.4678 27.4155 19.318
Au 15.4759 25.3386 19.3345
Au 15.4992 27.3772 17.3739
Pt 13.4667 25.3744 21.2708
Au 13.4464 27.3519 23.3363
Au 15.4437 25.3511 23.3349
Au 15.4417 27.3637 21.3098
Au 13.4151 25.4105 25.4295
Pt 13.4383 27.4244 27.4097
Au 15.451 25.3812 27.3969
Au 15.4642 27.3763 25.4236
Au 13.4265 25.3977 29.3693
Pt 13.4678 27.3832 31.3905
Au 15.426 25.4035 31.4135
Au 15.4521 27.4087 29.3652
Pt 13.4917 25.3633 33.4114
Pt 13.4884 27.3466 35.3365
Au 15.501 25.3989 35.3675
Pt 15.4435 27.349 33.3958
Au 13.4977 25.3801 37.3653
Au 13.5261 27.418 39.3946
Au 15.5704 25.446 39.3843
Au 15.5356 27.3995 37.3407
Au 13.5667 25.4375 41.3726
Pt 13.6106 27.4167 43.3391
Pt 15.5463 25.4427 43.4596
Au 15.589 27.4382 41.4232
Pt 15.4872 23.5009 45.3432
Pt 15.4581 27.3618 45.3334
Pt 18.534 25.4991 4.94207
Pt 13.2884 29.6772 5.70226
Pt 15.5226 29.545 7.32558
Au 17.4758 29.5912 5.30012
Pt 13.5676 31.5032 7.55248
Au 13.5948 31.4247 11.4742
Au 15.5786 29.3928 11.346
Pt 15.5914 31.4245 9.32359
Pt 13.6292 29.343 13.4049
Au 13.48 31.3641 15.4327
Pt 15.4714 29.3834 15.4078
Au 15.5484 31.3991 13.4738
Pt 13.4509 29.3774 17.3769
Pt 13.3975 31.346 19.3392
Pt 15.3696 29.3686 19.3265
Pt 15.3898 31.3458 17.4001
Au 13.427 29.3597 21.3292
Au 13.4416 31.3551 23.4075
Au 15.4804 29.3776 23.3991
Au 15.4352 31.334 21.375
Au 13.4529 29.3457 25.4155
Au 13.4568 31.33 27.3721
Pt 15.4805 29.3812 27.3947
Pt 15.5126 31.3072 25.423
Au 13.4383 29.3883 29.3832
Pt 13.4809 31.3509 31.4215
Au 15.46 29.3506 31.4113
Au 15.4911 31.3263 29.4188
Au 13.48 29.3455 33.3741
Au 13.4953 31.3994 35.3645
Au 15.5088 29.379 35.345
Pt 15.4929 31.3401 33.3796
Au 13.5114 29.4089 37.3102
Au 13.5894 31.4052 39.3495
Au 15.5556 29.386 39.3584
Pt 15.5422 31.3986 37.3249
Pt 13.5777 29.4109 41.483
Au 13.6456 33.4572 45.2336
Pt 15.5569 29.3882 43.4801
Au 15.5631 31.3503 41.4038
Pt 13.5289 29.369 45.1766
Pt 15.4553 31.4258 45.2071
Au 13.4251 33.4424 5.61542
Pt 13.5928 35.3249 7.55227
Au 15.5841 35.4558 5.6136
Pt 17.5342 33.5384 5.65607
Au 13.5509 33.4649 9.46414
Au 13.4802 35.4858 11.4175
Au 15.5491 33.3996 11.4545
Au 15.4733 35.5187 9.39239
Pt 13.5002 33.3759 13.528
Au 13.4815 35.3368 15.4856
Pt 15.4671 33.3275 15.5082
Au 15.486 35.3265 13.4885
Au 13.4198 33.3522 17.4501
Pt 13.3899 35.3062 19.4129
Au 15.4278 33.3396 19.4118
Pt 15.4738 35.3105 17.4903
Pt 13.4068 33.3183 21.3114
Au 11.4407 33.3389 23.3919
Au 15.4692 33.2888 23.4159
Au 15.437 35.3404 21.392
Pt 13.5069 33.2753 25.3993
Au 13.5203 35.3109 27.4375
Au 15.4884 33.305 27.3788
Au 15.4898 35.3297 25.4192
Au 13.4808 33.2638 29.4278
Au 13.523 35.3074 31.4295
Pt 15.4854 33.3254 31.4594
Au 15.4857 35.3806 29.4441
Pt 13.4928 33.3104 33.3829
Au 13.5222 35.3042 35.3407
Au 15.5323 33.33 35.3398
Au 15.5214 35.3583 33.3569
Pt 13.5527 33.3552 37.3568
Au 13.5807 35.3084 39.3309
Pt 15.5609 33.3773 39.3676
Pt 15.5141 35.3664 37.3787
Pt 13.5863 33.3774 41.3489
Pt 13.626 35.3164 43.1636
Pt 15.5872 33.3653 43.2732
Pt 15.5708 35.3306 41.2912
Au 17.413 33.3598 45.482
Pt 15.6182 35.3655 44.9502
Au 15.4396 37.5963 7.45387
Au 13.4574 37.6407 9.43961
Pt 13.6302 39.4937 11.5508
Au 15.454 37.4878 11.4634
Pt 15.6158 39.4723 9.60188
Au 13.5218 37.455 13.4694
Au 13.5183 39.4406 15.4547
Au 15.503 37.3667 15.5262
Pt 15.4406 39.5439 13.498
Au 13.4651 37.3063 17.4965
Au 13.4507 35.2644 23.365
Pt 15.5289 37.291 19.441
Au 15.542 39.3281 17.5216
Au 11.4898 37.2519 23.4399
Au 15.4816 39.2523 21.4347
Au 15.4516 37.368 23.4301
Pt 13.4188 37.2296 21.3426
Au 13.5341 37.325 25.4667
Au 11.4749 35.2652 29.4141
Pt 15.5076 37.4081 27.4513
Pt 15.4816 39.3889 25.4933
Pt 13.5334 37.3651 29.4792
Au 13.4619 39.3901 31.5132
Pt 15.503 37.3871 31.4689
Au 15.475 39.3747 29.4745
Pt 13.4807 37.3162 33.4223
Au 13.4279 39.3541 35.4153
Au 15.4889 37.398 35.3715
Au 15.4459 39.4302 33.4411
Pt 13.5232 37.2912 37.3638
Pt 13.5191 39.1326 39.3004
Pt 15.511 37.3403 39.3668
Pt 15.4499 39.3332 37.4112
Pt 13.593 37.2226 41.2386
Pt 15.5472 37.2921 43.1316
Au 15.3529 39.3991 41.4019
Pt 15.624 41.4251 11.5821
Au 13.4689 41.6053 13.3383
Pt 13.6452 43.3008 15.613
Pt 15.496 41.3857 15.5221
Pt 15.5913 43.2965 13.6391
Pt 13.5411 41.319 17.4741
Pt 11.6854 43.2758 17.518
Au 15.5312 41.2938 19.4967
Pt 15.4632 43.3226 17.5533
Au 13.4885 39.2618 19.4485
Pt 15.4571 43.2747 21.5243
Pt 13.5804 43.201 19.4788
Pt 17.3553 45.2826 21.4911
Au 15.504 41.2605 23.4798
Pt 15.4646 43.2348 25.4394
Au 15.4591 41.3422 27.4536
Pt 17.3117 45.2267 25.4427
Au 11.4991 37.2828 27.4705
Au 13.3984 43.4887 31.4755
Au 15.435 41.4657 31.4483
Au 13.7037 45.2615 29.3703
Au 13.2281 41.5489 33.5068
Pt 15.5967 43.3164 33.3403
Au 15.3394 41.4862 35.4202
Pt 17.566 45.1272 33.3651
Pt 11.5118 39.0837 37.3499
Au 15.3936 41.3078 39.408
Au 13.3667 41.1977 37.4819
Au 15.5197 45.3239 15.5538
Au 13.5225 45.3049 17.6171
Pt 15.409 45.1687 19.6041
Pt 13.4524 45.0649 21.5552
Pt 19.4064 45.3372 19.588
Au 17.3141 47.0953 23.4884
Pt 19.277 45.2873 27.4364
Pt 15.4981 45.1577 27.354
Pt 15.6515 45.0541 31.3563
Pt 9.59906 41.2574 29.5297
Au 15.7051 45.1206 35.2649
Au 14.5518 8.49462 13.3921
Pt 17.1416 8.96947 14.0055
Pt 20.9846 8.7635 13.7751
Au 26.1276 4.08619 14.8229
Au 17.129 5.1363 17.9879
Pt 21.1276 5.11123 17.8197
Au 21.8228 6.17513 13.1797
Au 19.105 5.02683 15.9854
Pt 17.3022 7.27981 19.7534
Pt 23.1507 5.12692 19.9626
Pt 19.1383 7.08391 17.7831
Pt 19.1887 5.25983 19.7932
Pt 17.3947 7.29698 23.6414
Pt 19.3118 5.39798 23.6954
Pt 19.3232 7.20415 21.6711
Pt 19.3961 7.24547 25.6277
Au 11.4104 5.76058 31.5846
Au 17.2051 3.57627 23.7482
Pt 19.3689 5.40114 27.6334
Pt 17.4871 5.51708 29.5857
Pt 17.3709 7.30738 31.6379
Pt 19.4119 5.49973 31.6688
Pt 19.4629 7.28326 29.6354
Pt 17.5122 5.6604 33.668
Pt 17.4147 7.60882 35.5167
Pt 19.374 5.71168 35.577
Pt 19.4415 7.46949 33.5328
Pt 17.5257 6.00141 37.5136
Pt 17.4632 7.76791 39.4928
Au 19.3373 5.7465 39.5298
Pt 19.4818 7.64404 37.5226
Pt 17.4643 9.70087 41.3856
Pt 21.2127 11.7168 7.69386
Au 16.6578 10.2633 11.7231
Pt 20.2285 10.1634 9.65022
Au 10.044 15.3052 9.22739
Pt 19.0231 11.8991 11.3809
Pt 21.709 10.4127 11.8207
Pt 21.4114 12.5013 10.185
Au 14.2182 12.7717 8.85706
Pt 15.1982 11.0902 13.8712
Au 12.5128 10.3336 13.2333
Pt 19.1424 10.7772 13.6881
Au 17.264 9.1255 17.6903
Au 17.4076 11.2457 19.5655
Pt 19.3269 9.11875 19.6102
Pt 19.2722 11.0707 17.5441
Pt 17.4177 9.234 21.6145
Au 17.4654 11.3938 23.473
Au 19.4324 9.26138 23.5535
Au 19.4801 11.2444 21.4617
Au 17.4812 9.33352 25.5878
Au 17.5024 11.441 27.5626
Au 19.4425 9.2533 27.5957
Au 19.4922 11.3572 25.4823
Au 17.4651 9.31695 29.6273
Pt 17.4788 11.4473 31.582
Pt 19.3809 9.31157 31.5536
Au 19.4068 11.4118 29.6058
Pt 17.4454 9.36971 33.5071
Au 17.4376 11.5262 35.4962
Au 19.4212 9.49582 35.4781
Au 19.4173 11.4627 33.4558
Au 17.4465 9.58098 37.5094
Pt 17.4161 11.5774 39.4543
Pt 19.4306 9.63903 39.4507
Pt 19.4305 11.5502 37.4778
Pt 15.509 11.6046 41.3903
Au 13.4223 15.4479 43.4997
Pt 17.4834 11.6706 43.3149
Au 19.4434 11.6278 41.4243
Pt 19.3318 15.5667 45.3356
Au 17.7329 16.8441 4.98606
Pt 18.7452 16.9083 7.5082
Pt 18.8264 14.2385 6.62066
Au 20.3082 15.8588 5.06347
Au 17.5583 10.5468 9.16951
Au 15.3319 14.9572 13.6054
Pt 16.5923 12.7686 10.4825
Pt 17.1948 15.0044 11.6116
Au 17.2377 12.8249 13.3251
Pt 17.3824 15.0332 15.4135
Au 19.2951 13.0134 15.4018
Pt 19.2241 14.9731 13.4536
Pt 17.3985 13.1804 17.4571
Pt 17.4522 15.2401 19.3223
Au 19.4498 13.2387 19.3483
Pt 19.3747 15.1358 17.2799
Au 17.4498 13.369 21.4326
Au 17.5047 15.3896 23.3986
Au 19.5326 13.3346 23.4127
Au 19.5051 15.2994 21.3086
Au 17.5032 13.4551 25.4487
Au 17.5046 15.4416 27.5036
Au 19.4594 13.4457 27.5185
Pt 19.5048 15.3881 25.4043
Pt 17.4978 13.5122 29.6089
Pt 17.4722 15.4734 31.5144
Pt 19.4244 13.4817 31.531
Pt 19.4457 15.4192 29.5662
Au 17.4463 13.5104 33.4962
Au 17.4439 15.5104 35.5269
Pt 19.4252 13.5006 35.4521
Pt 19.4425 15.4507 33.4588
Pt 17.4367 13.5235 37.5082
Au 17.4553 15.6018 39.4842
Au 19.4658 13.5727 39.4314
Au 19.4622 15.5194 37.4652
Au 17.4261 13.5927 41.4226
Pt 17.4537 15.6022 43.3517
Au 19.4619 13.6483 43.4639
Au 19.5056 15.6375 41.4974
Pt 15.5494 13.6335 43.3331
Au 23.611 17.4885 47.3101
Pt 17.1268 19.4475 5.15913
Pt 17.7588 19.4989 7.79821
Au 21.3596 17.1732 7.15283
Pt 19.5713 18.8375 5.86738
Au 18.9082 17.1549 11.0871
Au 17.324 19.3553 11.0471
Pt 17.4046 17.0148 13.4219
Pt 20.0476 19.0634 8.91644
Pt 15.5476 17.1156 15.3962
Au 17.5789 19.1569 15.2508
Pt 19.417 17.0595 15.2297
Pt 19.32 19.009 13.0689
Pt 17.5224 17.1275 17.2409
Au 17.4732 19.2853 19.2774
Au 19.4632 17.2054 19.225
Au 19.5176 19.2232 17.1981
Au 17.4767 17.3006 21.3422
Au 17.5041 19.316 23.3323
Pt 19.4868 17.3154 23.3292
Au 19.5031 19.2791 21.2987
Au 17.5259 17.3709 25.3726
Au 17.5042 19.3614 27.4407
Au 19.4909 17.3476 27.4626
Au 19.5214 19.3366 25.3495
Pt 17.4864 17.3769 29.5434
Pt 17.4371 19.3549 31.4457
Pt 19.4571 17.3667 31.4821
Au 19.4571 19.3506 29.4854
Au 17.4649 17.4465 33.4571
Au 17.4665 19.4243 35.5043
Au 19.48 17.4791 35.4837
Au 19.4687 19.4219 33.4262
Pt 17.4608 17.524 37.5318
Pt 17.4939 19.4499 39.5136
Pt 19.4626 17.5806 39.5253
Pt 19.4597 19.4669 37.5286
Pt 17.4793 17.589 41.5072