3871
Atoms. Timestep: 20888
Au 29.0745 16.226 10.0772
Pt 11.7954 24.2669 23.8896
Pt 29.0817 14.6787 14.2132
Pt 21.6307 11.1091 41.7471
Pt 10.2548 32.4023 19.5417
Pt 24.7926 31.3678 15.0322
Au 11.8085 43.3166 17.3896
Pt 15.8365 28.5299 23.7407
Pt 18.3644 5.29232 27.9107
Pt 13.9607 19.2264 33.464
Au 7.43343 35.8237 36.1085
Pt 16.7167 33.1818 16.1301
Au 26.2051 49.057 28.9687
Pt 20.2519 19.2935 41.3597
Pt 14.1709 32.2219 15.8327
Pt 20.2692 21.8659 39.6337
Pt 20.9595 43.408 18.327
Au 32.5192 13.8641 46.2846
Pt 21.8304 21.4305 41.7309
Au 12.5766 9.45604 35.7666
Pt 11.1469 13.8291 24.5842
Au 4.63794 32.9415 33.5003
Pt 42.5981 16.0459 22.6742
Au 10.5732 24.0225 42.8436
Pt 13.7831 31.9996 41.5003
Au 6.59116 19.7645 19.5969
Pt 29.5703 39.6964 36.8251
Pt 18.0523 11.4022 32.3166
Pt 24.7496 18.8429 39.8311
Pt 19.8089 24.4069 36.1128
Pt 27.3014 20.1051 22.0311
Au 3.37767 34.3078 28.9555
Pt 5.60345 24.3534 28.3318
Pt 17.4605 16.9816 25.5619
Pt 21.322 12.6346 21.6929
Au 8.0413 35.8609 11.9158
Pt 15.884 11.5218 14.7388
Au 17.8311 30.2043 46.9237
Pt 20.7527 13.1736 36.6475
Au 8.05418 26.8349 40.3549
Pt 21.1866 24.2751 28.9545
Pt 15.9139 37.7983 16.8458
Pt 6.16263 29.5884 32.2732
Au 5.32516 35.8711 15.4209
Pt 25.6898 22.6583 17.4774
Pt 19.3135 24.2919 26.5381
Pt 26.5631 13.5562 24.4287
Au 16.634 24.5588 4.59522
Pt 17.1309 18.5063 19.5098
Au 9.77975 12.6583 22.3758
Pt 33.6472 22.4222 20.605
Pt 38.9253 29.4933 29.9357
Pt 11.0077 22.239 18.7312
Au 15.1528 10.3795 40.4692
Pt 14.4739 34.5251 17.0958
Pt 34.6368 20.3122 34.7828
Pt 22.1197 15.3775 9.24605
Au 19.0447 29.1001 5.74404
Au 30.3646 19.0297 10.8153
Pt 10.9909 22.4535 16.1335
Au 10.2348 18.6384 37.6726
Pt 23.6259 33.4263 22.4307
Pt 18.3026 27.1235 35.7727
Pt 11.7385 28.3873 21.7206
Pt 12.8159 26.008 25.7338
Pt 16.8935 18.4461 14.24
Pt 27.2435 19.6955 38.1882
Au 8.02789 12.16 35.758
Au 18.1535 48.0759 27.8867
Pt 10.7676 30.2393 33.4009
Au 32.3642 15.7732 41.9849
Pt 15.5482 28.7479 29.0003
Pt 9.75058 29.1546 23.5586
Pt 20.5593 6.84049 26.9005
Au 7.77233 19.8941 37.1271
Au 9.15101 31.5159 39.0361
Au 15.1564 3.7361 20.8042
Pt 14.2525 29.8132 43.055
Pt 29.7666 11.4186 17.5617
Au 24.5606 7.05858 36.6645
Au 6.71619 20.0743 14.4092
Pt 13.2046 18.4446 21.9657
Au 25.8747 22.5472 11.0684
Pt 7.85156 26.528 20.1196
Pt 13.6866 28.3996 27.0361
Pt 15.2256 22.6656 15.8356
Pt 17.3988 20.883 15.7184
Au 10.9115 40.3233 14.0788
Pt 28.7045 14.0667 18.1374
Au 2.68732 22.1389 24.5509
Pt 21.4436 27.9097 25.9343
Pt 7.79599 22.1296 19.3392
Pt 12.3913 14.4709 29.2516
Pt 17.93 38.4342 15.1028
Au 10.0095 8.40194 28.6429
Pt 17.8032 40.4575 12.5803
Pt 31.639 37.8405 21.9052
Pt 10.7927 29.6966 18.9595
Pt 27.8952 38.7516 34.3502
Pt 10.7148 16.2712 18.4769
Pt 11.8406 25.4115 35.341
Au 30.3682 18.5185 44.1721
Pt 17.668 41.0617 37.0839
Pt 12.9729 14.9762 31.8733
Pt 18.4271 22.8042 46.869
Pt 19.7519 16.1025 23.3735
Pt 16.4253 20.58 42.1922
Pt 24.7361 7.03146 28.9928
Au 17.9852 8.91236 40.6305
Pt 21.5553 13.0291 10.2148
Au 4.00366 25.0508 30.575
Pt 40.2555 28.6676 32.0881
Au 29.9914 44.3217 9.49106
Au 27.7682 27.8919 48.9542
Pt 9.50359 22.3055 41.1707
Pt 16.3794 41.5958 22.7778
Pt 28.1612 15.7789 28.3788
Pt 19.9945 18.3184 45.6802
Pt 25.7313 45.1073 16.4582
Au 6.16176 35.0057 19.8257
Au 25.1355 26.4506 6.93851
Pt 14.557 16.315 38.987
Pt 23.9373 14.1462 14.8318
Pt 4.03457 26.7661 28.4974
Pt 17.2272 13.7736 28.939
Pt 21.9841 29.4722 23.6402
Au 30.2487 19.5305 1.87119
Au 23.7469 46.5481 14.639
Au 24.6368 7.52568 41.3327
Pt 12.1336 22.7333 31.6849
Pt 16.3046 31.0496 13.9168
Pt 34.0325 33.3188 21.7693
Pt 34.5435 20.7539 30.3894
Pt 28.7912 19.404 13.7735
Pt 16.7063 19.6534 24.8733
Pt 20.8725 36.4332 36.5441
Pt 25.2473 17.0541 41.7134
Pt 22.136 23.4765 17.4768
Pt 21.8353 9.44657 38.0666
Pt 19.3696 25.1035 21.1589
Au 31.5046 38.166 15.4229
Pt 25.0996 34.8206 27.831
Pt 23.1165 46.8232 23.7435
Pt 16.7419 12.6064 34.3098
Au 4.88441 22.0404 19.2515
Au 14.6119 10.9236 34.9372
Pt 16.5759 28.4788 41.9769
Pt 9.89841 29.1886 16.146
Pt 25.032 12.18 29.8407
Au 24.4956 13.8361 44.7509
Au 8.64223 22.4285 43.8475
Pt 13.4277 31.1527 32.0703
Au 23.6354 3.25478 16.0908
Pt 20.5642 35.803 18.1975
Pt 15.3907 33.5725 13.5893
Pt 13.7953 34.1749 34.8462
Pt 16.95 36.9336 9.9445
Pt 19.1857 35.8423 38.5284
Pt 13.3887 31.8014 13.4449
Pt 24.3285 35.9826 14.1808
Pt 24.5682 14.2917 10.2602
Pt 14.6117 24.2115 40.7774
Pt 17.0492 17.1225 30.6347
Au 25.8482 21.8459 8.0454
Au 19.7246 45.1031 37.6317
Pt 21.192 14.4841 19.4457
Pt 9.29798 27.31 27.8286
Au 6.84951 13.3267 33.5826
Pt 10.9594 16.4269 28.1921
Pt 21.2992 21.9659 19.6611
Au 37.6753 13.2743 35.8825
Pt 29.2766 7.65327 20.375
Pt 24.241 41.8751 24.0073
Pt 23.6042 42.0072 26.6558
Au 34.9432 32.3806 41.749
Au 30.808 3.84933 22.2417
Au 21.0308 48.0351 31.2182
Pt 33.3749 13.4853 28.9178
Pt 33.6487 16.4968 32.4896
Au 8.19761 21.9612 12.2626
Pt 24.5375 9.15672 15.7868
Au 29.6259 25.7396 42.0154
Pt 16.2611 23.4359 33.8632
Pt 19.3294 27.7871 21.169
Pt 11.4194 38.8904 20.8512
Pt 18.0713 22.1457 44.3793
Pt 21.5423 46.1922 19.1162
Pt 19.4609 14.3387 25.2772
Au 6.75509 38.0378 16.6331
Pt 10.2618 25.3452 26.2138
Au 11.9757 12.869 13.7931
Pt 21.9344 30.9184 29.1595
Pt 36.9411 43.4281 25.9222
Pt 24.1871 42.3577 39.2315
Pt 30.4496 17.8469 34.6328
Au 14.948 14.8291 43.7513
Pt 34.6194 21.147 27.3258
Pt 8.86728 31.1944 14.1811
Pt 23.7718 19.2019 19.8964
Pt 7.96511 37.1676 18.953
Pt 17.2595 15.0658 23.6173
Pt 37.9644 16.2876 22.6674
Pt 16.1161 30.57 16.6351
Pt 8.52925 17.1849 29.3021
Pt 8.11726 30.8231 19.4503
Pt 32.676 27.6954 19.5324
Pt 29.6281 21.8141 15.0306
Pt 4.95623 34.5527 24.4604
Au 32.6206 1.97567 25.9946
Au 37.0009 18.5843 43.7141
Au 33.0214 31.7775 7.37442
Pt 8.55826 26.0392 17.6572
Pt 16.8356 42.5941 16.4114
Au 1.81573 29.9179 23.6852
Au 7.21917 15.6303 18.4397
Pt 21.2771 36.2892 13.0318
Pt 8.45736 34.3402 34.1972
Pt 16.7687 38.8604 29.8782
Au 16.8349 43.7414 36.9585
Pt 27.0012 22.5209 38.2349
Pt 26.007 29.1439 14.3535
Pt 30.6076 41.5558 20.8295
Pt 15.9108 31.7582 23.4754
Pt 14.1032 21.5395 40.8973
Pt 14.0259 28.8394 17.5448
Pt 11.2743 17.8753 23.7092
Pt 16.9408 10.8997 36.4795
Au 25.7041 24.6263 8.99492
Au 33.9649 17.2878 43.7129
Pt 21.4819 12.3413 14.4591
Pt 6.83743 18.8549 24.3501
Au 32.1359 47.3032 29.4238
Pt 18.8916 15.828 40.6554
Pt 18.9257 45.0403 22.8322
Au 2.2296 34.9932 25.3223
Pt 15.8323 23.9581 29.6174
Au 21.6316 19.3785 47.9584
Pt 11.8235 41.2255 27.2086
Au 1.69301 30.1262 30.8689
Au 3.87222 22.015 26.9801
Pt 11.7292 28.4112 11.9428
Pt 26.2796 16.9662 38.9061
Au 29.4446 45.6741 35.9768
Pt 17.2389 40.1329 17.303
Pt 16.1281 16.1588 15.4664
Pt 17.3055 34.9303 33.5973
Pt 26.4703 28.8606 22.294
Au 17.307 9.23496 17.507
Pt 11.9125 35.7253 17.3662
Pt 10.0225 33.826 21.8463
Pt 18.6458 40.9111 15.0604
Pt 16.4656 34.6139 23.8687
Au 18.7551 27.6581 45.8355
Pt 11.6434 24.7438 38.0517
Pt 21.7514 31.2315 37.9797
Au 8.45612 10.7849 20.9267
Pt 10.6736 23.841 28.6596
Au 4.96377 26.1754 35.4825
Pt 29.9538 44.167 31.7492
Pt 9.64015 28.3208 13.7729
Pt 35.7756 15.0158 23.4846
Pt 22.3782 18.6053 14.8805
Pt 6.91954 36.4574 27.9035
Pt 27.1231 10.9317 38.3058
Pt 16.7016 23.3538 42.2719
Au 29.9407 14.377 41.0652
Pt 9.42814 30.2061 11.6964
Au 37.8441 16.7792 11.476
Pt 8.95365 18.5814 31.6617
Pt 14.1868 20.9399 21.8231
Au 16.131 38.9607 38.016
Pt 18.6249 33.5581 25.2784
Pt 35.3741 16.7634 21.1341
Au 25.7395 5.64371 13.0018
Pt 9.84227 39.8924 23.1113
Pt 18.6727 11.3286 25.2209
Pt 14.8983 15.7567 25.7336
Pt 28.8046 29.2918 21.0545
Au 3.36843 30.9305 14.5891
Au 4.15304 26.6944 23.5657
Pt 21.5587 23.375 25.1765
Pt 3.73694 33.1608 26.5039
Pt 14.603 27.4885 44.2143
Pt 22.1832 29.23 20.9576
Au 46.3778 19.4482 14.414
Pt 30.3423 16.8031 29.9446
Au 31.4344 18.657 13.6604
Pt 12.9573 24.4961 30.0038
Pt 11.3217 38.2315 15.8688
Au 41.2358 40.716 31.7772
Au 37.3576 9.60682 38.906
Au 37.3323 4.15113 29.1149
Pt 24.6146 23.6524 37.6702
Pt 26.6296 25.2235 16.2587
Pt 22.827 8.33555 27.3582
Au 26.4966 3.02083 23.7133
Pt 24.2195 45.8862 18.5124
Au 32.0685 31.7161 12.8672
Pt 31.4421 29.4661 20.9963
Au 12.6514 36.5376 34.7947
Au 34.2302 14.5618 43.7096
Pt 7.80368 25.8148 31.6882
Au 6.268 27.4211 11.342
Au 26.178 16.8429 10.1049
Au 18.2396 17.5616 11.5789
Au 10.533 23.2255 33.8117
Au 3.60244 21.6756 21.9843
Pt 33.3522 44.7157 27.9258
Pt 26.1241 21.9407 33.9683
Au 37.8767 3.9568 31.7496
Pt 23.4739 16.8405 10.8924
Au 2.63216 26.2456 21.18
Pt 11.158 28.2923 26.0975
Pt 28.8014 35.3383 24.4065
Au 14.8357 8.7455 23.4497
Pt 5.16244 33.5357 21.9428
Au 14.5497 40.6684 34.2451
Pt 14.1447 21.0934 26.4603
Au 29.852 24.9713 6.15228
Au 38.3509 31.5313 17.5745
Pt 15.2459 25.9472 23.0549
Au 21.7029 2.26888 29.4599
Au 29.5933 32.0649 11.334
Au 35.9468 27.888 38.9064
Pt 11.9353 22.9972 40.3693
Pt 21.8085 31.7421 22.0841
Pt 20.1362 24.4103 31.5037
Au 39.7683 23.4539 42.4539
Pt 25.1532 28.9849 19.9269
Pt 16.3558 16.2062 28.049
Au 31.2622 22.7837 7.79085
Au 18.1837 8.37825 36.0763
Pt 23.8578 28.8596 25.2842
Pt 17.1035 29.2502 21.5689
Au 6.25306 28.5179 36.2288
Pt 12.2891 41.0233 29.7891
Pt 13.2015 26.1405 12.0292
Pt 13.2518 12.4058 30.7129
Au 29.8556 14.1769 45.8069
Pt 16.5664 25.1218 10.03
Au 5.21492 21.1777 36.6603
Au 42.6235 31.759 8.14597
Au 29.7391 30.5934 13.9258
Pt 18.6717 36.2209 13.907
Pt 17.2453 43.5474 21.1399
Pt 22.1044 11.0567 12.0343
Au 40.133 29.5647 18.2766
Au 33.8476 30.097 4.78762
Au 24.0545 29.0862 7.55894
Au 12.7444 7.6382 19.5944
Au 43.0399 17.5774 13.4787
Au 40.2945 19.2589 7.05419
Au 26.6278 25.3534 48.0462
Pt 26.3938 31.1842 20.9238
Au 15.0608 41.288 36.9001
Pt 26.5178 15.1664 21.9367
Au 12.8205 11.7673 41.0813
Pt 15.5339 18.6405 29.0659
Au 17.3469 22.7141 8.64633
Au 5.53433 30.6473 34.7519
Pt 9.45613 14.7544 29.663
Au 33.7483 23.0758 40.0281
Au 33.5186 25.3611 45.6371
Au 35.022 32.4708 5.57493
Pt 11.7021 19.9497 15.4044
Pt 30.7605 10.167 12.6109
Au 18.2636 47.4397 15.9962
Pt 26.0708 23.5422 21.0675
Au 5.38987 25.1509 32.8886
Pt 17.8759 21.2262 22.9937
Pt 6.60364 17.5346 31.1501
Au 17.0037 22.6822 49.107
Au 22.8963 9.02161 42.8901
Pt 21.0517 44.2546 29.1653
Pt 10.5515 17.9552 20.9873
Pt 33.1835 28.3317 26.9688
Pt 14.0341 25.8827 9.40501
Au 14.93 8.23397 33.0375
Au 26.479 7.65371 11.3131
Au 29.4962 36.5667 10.8629
Pt 16.2259 19.2468 22.1048
Au 27.6926 45.5212 31.308
Pt 23.7344 34.4771 25.1063
Au 29.8951 17.3423 41.4958
Au 9.8762 7.03824 24.1835
Au 46.3019 27.9978 25.0937
Pt 14.8775 35.4664 32.4361
Pt 13.3937 29.8366 29.7231
Au 37.6197 22.6367 15.509
Pt 12.3699 25.5 41.3952
Au 33.0983 6.89234 25.2803
Pt 24.4304 24.1698 24.9544
Au 38.3699 19.0994 24.5294
Au 17.7964 3.04824 21.412
Au 20.7899 17.8155 10.2208
Pt 19.6074 31.8533 27.4482
Au 46.8593 23.0599 17.8515
Pt 12.4561 30.7837 11.1295
Au 5.54042 15.3383 32.297
Pt 17.2499 23.7514 19.6387
Au 33.5368 38.5233 11.9397
Au 42.8297 17.0576 16.208
Pt 12.0061 21.0191 33.868
Au 39.6395 11.0026 34.7075
Au 35.8424 15.0888 13.1729
Pt 12.3383 30.6705 27.3183
Pt 20.3493 19.5964 28.7094
Pt 22.1065 22.3726 37.4616
Pt 30.3407 43.3165 34.2367
Au 7.3066 24.9346 35.6009
Au 17.1885 4.34837 18.9989
Pt 19.0364 27.0496 31.1423
Au 14.1222 10.4955 19.7168
Pt 20.7216 13.6658 40.9792
Pt 6.34593 22.6532 26.2866
Pt 5.82993 16.5843 27.4023
Pt 9.05662 22.3455 21.8005
Au 4.54147 19.9476 17.5339
Pt 20.7685 29.1245 14.2604
Pt 29.8544 19.5173 16.2326
Pt 25.6533 46.9282 22.7873
Au 34.5261 12.6094 39.3277
Pt 10.5853 39.2394 25.6675
Au 8.85427 10.3616 30.3033
Pt 27.0566 25.7862 25.9951
Au 33.7995 33.9679 13.3056
Pt 27.9608 43.8932 28.5663
Au 35.6294 21.0184 44.2705
Au 33.5943 29.2219 11.2566
Au 44.0794 20.0033 37.4251
Pt 17.9204 29.9984 23.9851
Au 49.1125 24.7485 18.4626
Pt 19.8705 38.7636 13.1591
Au 42.9544 32.161 23.3902
Pt 16.9498 20.9182 33.1117
Au 46.7188 29.5972 32.8678
Au 43.5736 33.5903 36.9422
Pt 19.9616 33.4439 20.9825
Au 36.4012 34.7157 18.3444
Au 39.0546 15.5915 36.75
Au 33.3522 27.9484 6.46077
Au 23.0285 33.2447 39.4892
Au 43.2647 25.9805 29.2859
Au 46.7436 34.9157 25.0738
Au 40.4811 19.4151 27.9597
Pt 21.0325 28.6972 40.3054
Au 40.727 20.1073 30.8603
Pt 12.8251 18.7617 38.7032
Au 44.8104 33.7988 20.2392
Pt 21.9811 24.604 20.0806
Au 23.6293 22.6541 9.54932
Au 19.4124 32.4368 42.954
Au 15.6247 8.43743 20.7624
Au 9.23263 25.2183 44.7831
Pt 27.2737 5.13264 29.8196
Pt 6.36423 21.8279 21.6706
Pt 22.821 19.9486 36.6671
Pt 13.8663 11.1985 28.3744
Pt 33.793 8.54936 19.7312
Pt 28.3918 41.5029 27.58
Pt 9.75209 22.8454 38.5785
Au 16.7089 40.3325 27.5048
Pt 30.4248 37.4853 29.2633
Au 24.0199 4.29547 22.4986
Pt 23.6223 22.4933 21.0356
Au 39.6048 27.2777 9.22222
Au 22.113 34.5009 3.40669
Au 45.9681 25.5145 10.2871
Au 22.6671 19.1106 12.1873
Au 44.0836 15.9087 20.4095
Pt 13.0387 19.3932 28.1877
Pt 28.4934 32.7156 25.0224
Pt 20.4293 37.2347 15.654
Au 42.3522 20.0335 8.76703
Au 24.4398 31.263 42.5126
Au 38.5992 33.5127 19.6156
Au 34.9572 36.0256 11.8092
Au 8.90613 34.49 9.66599
Pt 11.6825 14.6976 34.7669
Au 31.9761 4.60359 30.7749
Au 33.8313 6.45188 31.9926
Pt 32.5718 20.9869 22.633
Pt 25.9802 31.908 18.2011
Au 8.46046 31.4088 9.32125
Pt 12.165 30.4893 16.7289
Au 37.6868 11.246 32.1525
Pt 8.19262 19.6667 22.0973
Pt 10.5154 26.7844 19.7004
Au 33.5706 26.324 42.9559
Au 29.2275 21.2851 47.8912
Au 21.2582 34.7316 46.7882
Pt 22.0929 40.6777 40.0504
Pt 42.4511 27.1027 31.7803
Pt 15.5004 34.3273 41.2581
Pt 19.2496 13.3582 38.8135
Au 33.1851 8.96197 14.684
Au 27.2142 48.2117 26.5415
Au 43.0464 11.7383 31.3236
Pt 28.2258 13.0031 28.4182
Pt 17.1856 28.3049 13.3704
Pt 13.176 35.0603 29.8623
Pt 12.1172 24.7522 14.9886
Au 15.3507 8.44483 35.8969
Au 5.30457 39.4254 24.615
Pt 10.0592 11.5066 25.1982
Au 14.88 22.2334 31.6968
Pt 12.0066 41.254 24.5416
Au 19.9564 6.44133 34.6951
Pt 22.976 41.3994 32.2754
Au 12.919 7.67838 28.7897
Pt 23.0405 26.335 24.3195
Au 36.6817 27.873 11.078
Au 6.37023 21.5995 39.0976
Au 7.90056 25.9951 13.4753
Au 23.2907 4.80572 35.8919
Pt 10.8068 32.2979 12.5762
Pt 40.2042 15.3137 23.6782
Au 29.2808 23.885 37.5463
Pt 17.5862 37.173 23.8111
Au 15.9211 46.9309 23.8135
Au 20.5062 43.1129 9.46688
Au 23.2109 32.8187 1.60849
Au 7.29694 34.6718 31.7132
Pt 22.7813 29.012 18.4484
Pt 33.8465 38.1407 20.3739
Au 16.7547 17.6714 5.92057
Pt 16.3922 28.9194 26.401
Pt 21.5467 26.6062 22.0848
Au 16.7701 45.1526 15.1648
Pt 28.0741 17.4263 36.677
Pt 17.1309 35.5616 30.758
Au 35.4641 14.2665 37.2837
Au 29.7176 32.7665 43.8454
Au 25.7096 13.9097 42.2405
Pt 39.8683 36.914 34.9207
Pt 20.3076 43.164 21.139
Pt 19.0024 9.14882 26.5722
Pt 19.2391 36.3863 11.4139
Au 21.2757 9.60447 25.3773
Pt 11.8774 30.3974 24.468
Au 24.2076 38.7865 10.0895
Pt 7.65872 33.0893 21.1371
Au 13.4667 15.065 41.0598
Pt 28.2361 39.8391 22.1545
Pt 25.8669 14.9282 27.2571
Pt 15.2413 17.379 34.8887
Pt 18.8532 43.9345 25.6313
Pt 4.20691 29.8443 30.2023
Pt 20.6066 26.8085 10.3779
Pt 18.4081 39.7944 23.8196
Au 6.31826 34.3369 13.3189
Au 33.9867 10.669 10.2348
Au 16.1003 15.6285 41.2096
Pt 25.2194 17.2081 17.7201
Au 11.9433 28.7129 6.95874
Pt 30.5335 38.804 25.5923
Pt 13.0613 34.4245 14.8165
Pt 26.843 46.3937 18.6589
Pt 23.9943 36.3315 32.6144
Pt 20.9538 30.5951 16.8601
Pt 25.809 44.2678 24.1909
Pt 19.4497 15.7195 45.4376
Au 36.3576 32.8662 16.2188
Pt 17.8351 29.3672 30.9555
Pt 7.72185 23.3962 33.201
Pt 32.6569 8.79539 27.5625
Pt 12.3458 22.6564 36.1014
Au 29.2686 49.1616 21.0147
Au 30.9993 49.1717 23.3064
Au 11.916 25.74 7.46592
Au 39.5605 20.8903 5.01962
Pt 9.99734 39.2382 18.4824
Au 15.189 12.7981 41.9666
Pt 28.2266 43.4383 25.5334
Au 6.41521 36.8095 25.1348
Pt 34.645 43.3931 30.0715
Pt 37.5021 35.4562 35.5339
Pt 15.1736 18.3381 26.5002
Au 39.1252 32.6355 38.7852
Au 40.6906 7.87179 31.4893
Pt 29.8816 41.4303 32.0976
Au 26.7222 22.4386 47.8799
Pt 20.3411 27.3561 37.8909
Pt 22.9318 18.2207 8.5117
Pt 21.9176 42.4678 15.7999
Pt 29.8378 26.195 29.7419
Pt 29.84 12.4048 20.0059
Pt 28.2528 32.7525 19.9486
Pt 22.5939 40.7374 17.5516
Pt 20.67 40.1798 22.5329
Pt 29.783 16.8214 12.5892
Pt 37.98 24.4408 32.6667
Au 35.9527 11.4313 37.1924
Pt 13.4269 27.0442 30.4025
Pt 16.8726 25.5221 12.736
Pt 28.5171 6.79768 24.865
Au 9.23874 24.3903 11.3159
Pt 39.884 11.8074 20.6147
Au 5.05797 15.3142 23.0538
Pt 9.37921 31.9723 35.0013
Pt 18.2983 38.3899 26.1317
Pt 25.1354 18.5346 37.072
Pt 22.1638 26.6147 14.7413
Au 13.3185 16.019 9.27332
Pt 26.2499 5.12792 18.1659
Pt 24.266 15.3217 23.2186
Pt 13.7035 15.7665 16.1932
Pt 18.7227 19.1561 17.5068
Au 35.563 18.188 4.61636
Pt 10.2765 22.0674 24.1869
Pt 31.6 15.435 14.4882
Au 25.5721 37.1366 46.6043
Au 21.1996 26.318 46.6874
Pt 10.8909 21.2714 12.9859
Pt 18.2932 21.9826 25.5764
Pt 31.6528 8.22082 21.4344
Pt 13.4857 33.3093 9.65255
Pt 15.2722 21.3275 29.1401
Pt 37.5926 28.4354 25.4952
Pt 21.9762 17.2553 43.9703
Au 4.44186 17.6554 24.5159
Pt 13.7314 30.2885 22.5954
Au 6.84578 17.2671 21.2549
Pt 27.2867 4.3857 25.8999
Pt 19.6044 22.5553 12.981
Au 8.32221 10.9066 33.1776
Pt 6.03689 21.2666 28.6576
Au 32.301 3.23842 28.3873
Pt 7.88709 17.9253 26.6017
Au 15.0325 38.0846 8.56557
Pt 27.8279 11.4837 26.078
Pt 36.2122 21.4382 25.1912
Au 29.355 30.0195 43.9089
Au 24.2344 25.9167 43.8616
Au 31.5974 31.2552 38.0069
Au 41.2731 28.4851 11.2141
Au 31.5256 14.5389 9.05878
Au 27.4519 48.9206 18.8762
Au 14.432 10.5066 37.7589
Au 4.44225 38.659 22.2426
Pt 13.7297 16.6576 28.3406
Pt 25.5733 23.3343 40.3567
Pt 34.4921 28.625 31.6408
Pt 37.1824 29.6959 27.8486
Pt 25.5714 21.2453 36.406
Au 0.842245 28.349 25.9369
Pt 9.36448 20.9838 33.0183
Pt 16.4815 25.3716 15.4696
Pt 10.3085 24.8966 21.7686
Pt 16.6786 44.2519 23.878
Au 14.9496 26.5734 4.52112
Au 3.09111 29.52 16.9134
Pt 20.0217 39.1022 32.8721
Au 30.8679 38.9465 9.99091
Pt 16.5123 28.0483 6.17801
Pt 19.0485 32.772 38.4011
Au 23.9027 47.1701 11.7078
Pt 16.9399 9.66294 33.946
Au 31.3509 35.4446 5.50571
Pt 9.86747 11.0224 27.7673
Au 41.8595 21.48 6.52875
Au 29.2334 8.15816 10.8911
Pt 22.7613 20.5503 28.5614
Pt 17.7808 17.0128 21.6646
Pt 31.8192 25.807 17.9712
Au 40.8652 42.7778 26.6275
Pt 11.0677 27.2535 39.8863
Au 15.6845 9.63613 12.8345
Au 42.8353 31.2388 12.2734
Au 33.8209 16.7514 37.3222
Pt 22.6969 13.0938 32.9987
Au 24.2129 33.8777 10.3977
Au 30.769 46.0746 17.1105
Au 18.3284 15.5476 6.92964
Au 10.8287 15.7475 41.6604
Au 31.2073 2.32113 32.2465
Au 18.1696 45.954 35.5186
Pt 24.5733 4.51354 25.2254
Au 5.51534 19.0506 38.3208
Pt 19.3312 22.4767 21.2027
Au 45.1767 22.6126 12.9542
Pt 18.311 17.9906 28.1198
Pt 26.5773 8.57775 24.554
Pt 19.3388 12.1642 30.1019
Pt 30.4502 5.67315 26.3713
Pt 26.758 12.3651 10.1027
Pt 36.8136 11.3969 29.3991
Pt 9.93641 39.2647 30.0212
Pt 11.2177 32.6123 15.154
Pt 6.49471 34.0693 26.5084
Pt 11.3357 28.5618 28.981
Au 45.2363 30.7363 8.56858
Pt 14.145 27.1221 7.02995
Pt 15.7033 27.0879 18.5248
Pt 27.2698 41.2234 40.3356
Pt 24.8578 37.2135 24.2959
Pt 18.8013 38.0494 21.4523
Pt 14.3211 36.7319 18.7956
Au 35.6225 34.9354 6.58431
Au 26.3998 11.841 44.2053
Au 37.2425 23.035 21.2364
Au 44.26 25.6511 19.6787
Au 38.0363 18.5785 5.67598
Au 47.2313 32.8557 19.3117
Pt 32.0723 22.6578 14.638
Pt 16.3573 12.5006 24.31
Pt 28.8582 9.59591 30.3293
Pt 20.3702 21.36 23.7608
Au 30.9985 13.5563 33.0032
Au 46.1116 28.6457 17.8839
Pt 5.05498 33.9449 17.5418
Au 35.0725 2.62454 27.983
Pt 32.9311 35.6246 22.4149
Au 37.0002 26.1245 18.4372
Pt 10.0959 16.7863 33.6798
Pt 11.3725 18.8942 32.4708
Pt 11.7059 22.5383 21.4993
Au 27.4357 20.0409 2.29602
Pt 28.4774 25.6915 34.9661
Pt 26.979 40.8324 35.838
Pt 19.7709 30.2388 21.9956
Au 22.3838 30.4837 45.3854
Au 12.2179 25.6544 44.2754
Pt 21.2959 33.3973 26.0741
Au 7.52435 11.3513 26.3178
Pt 14.6378 38.3428 11.5861
Pt 14.127 29.5734 14.9825
Au 2.66506 31.8676 21.8247
Pt 32.6865 43.2373 20.615
Au 21.0261 29.3511 31.3574
Pt 16.2267 27.5556 8.71993
Au 6.06509 13.7314 27.0241
Au 23.3671 28.0245 46.1158
Au 43.4684 31.2317 20.4973
Au 34.3857 26.4448 11.5102
Au 9.90301 37.173 10.4301
Au 9.96773 9.59129 22.8733
Au 12.9721 7.1486 31.5067
Au 29.3445 35.1715 16.5505
Pt 14.3755 42.1276 21.1479
Au 20.3976 17.5702 13.2798
Au 34.4701 27.3894 3.9582
Pt 6.37084 28.9695 20.4148
Pt 13.2342 29.7258 19.9808
Pt 19.3053 36.1643 32.3696
Au 45.1315 20.0064 20.7266
Au 7.79363 11.1314 23.6471
Au 26.2989 40.5174 11.215
Au 26.9906 7.89247 38.0562
Au 47.4559 29.8368 23.2824
Au 28.3262 28.773 12.4012
Au 37.779 29.4662 8.02978
Au 29.4216 19.9929 4.30501
Pt 14.8756 25.1979 20.3608
Pt 23.5161 38.2937 16.8231
Au 16.929 5.01579 30.1964
Au 19.0882 5.31515 14.3066
Pt 27.8619 37.748 29.9559
Au 24.6995 16.6285 44.401
Au 21.667 29.3726 9.7716
Au 34.362 37.726 41.0703
Pt 19.5149 26.9687 13.0412
Au 17.6277 27.9803 48.3119
Au 28.0165 5.37169 38.4851
Au 29.9041 37.5947 44.4537
Pt 23.4621 21.0781 43.8144
Pt 12.8151 16.8634 33.6634
Au 38.7991 18.1473 37.6306
Au 9.9441 36.6207 35.2163
Pt 34.9715 26.7446 20.2256
Pt 15.1755 22.119 43.9562
Pt 21.5556 38.4385 20.756
Au 3.51228 28.846 21.7484
Pt 8.94809 33.2201 26.0413
Au 19.2517 24.6024 3.84358
Au 5.67247 32.1534 31.1176
Au 42.7076 20.8731 22.1588
Pt 33.4733 17.3274 23.2371
Au 35.3393 32.8078 8.53508
Au 16.0098 16.7605 10.0508
Au 27.9028 26.1102 8.03493
Pt 18.6952 18.6377 23.5691
Pt 31.0599 5.72364 20.5285
Pt 28.2486 28.7736 24.5798
Au 21.5256 46.5981 12.7509
Au 43.3014 39.5162 30.1209
Pt 6.70511 29.9882 29.6319
Au 46.7922 21.4874 34.1259
Au 26.4212 30.3264 48.4514
Au 10.9195 35.8845 14.4568
Au 23.723 6.67508 11.5439
Pt 35.7829 27.4702 27.4633
Au 31.1326 24.094 3.27882
Au 37.2169 22.1501 34.0794
Au 39.9214 19.367 39.8647
Pt 18.7781 38.5048 37.1969
Au 41.4812 25.5762 23.9237
Au 33.9685 31.9035 17.2804
Pt 30.4039 26.8063 20.765
Pt 18.5421 35.8917 19.9507
Au 41.4654 34.0759 38.6311
Pt 33.0046 40.6644 25.5736
Au 24.0721 34.8695 46.8312
Au 37.2824 24.3578 41.2915
Au 37.8087 22.265 10.7465
Au 27.2125 3.58566 33.7474
Au 35.631 6.25902 20.867
Pt 12.7991 17.7161 19.3226
Pt 19.3345 11.1402 40.4276
Au 14.8596 35.528 43.7293
Pt 36.8158 32.4889 36.5172
Pt 23.6241 32.8401 30.1843
Pt 17.5354 32.6829 31.7922
Pt 6.49749 28.2943 22.9447
Pt 31.4169 12.1638 10.8824
Au 28.0968 48.7464 23.5319
Pt 10.0191 16.1887 25.4818
Au 4.01904 26.7044 16.4088
Au 9.60634 27.2262 7.88291
Pt 18.3942 29.7145 15.4586
Pt 18.1013 28.3275 18.0611
Au 3.58021 19.7414 28.6117
Pt 17.6404 32.423 34.542
Au 7.11305 38.9034 29.1233
Pt 15.0589 31.3964 35.281
Pt 39.0917 37.072 26.2676
Pt 8.60522 27.4226 25.2124
Pt 18.412 42.4569 18.9374
Au 27.608 40.2422 16.6302
Au 20.2588 19.6773 8.02838
Au 40.1067 22.0918 17.8695
Au 26.5279 43.8486 13.2056
Au 39.8518 36.6709 16.6327
Au 37.6708 34.3733 8.15578
Pt 6.14723 34.2884 29.2266
Pt 27.68 29.9811 18.6806
Au 32.0683 25.6643 40.6885
Pt 35.9876 29.4219 23.5628
Au 39.8665 34.2344 9.63102
Au 20.4545 19.2761 3.41954
Au 42.1689 23.3741 28.8983
Au 19.9977 31.8854 46.896
Au 24.7044 37.663 42.1527
Pt 12.7479 30.0282 36.5472
Au 27.992 32.6293 48.177
Au 21.1336 23.568 46.7041
Au 32.6135 7.9926 34.1385
Pt 17.0285 20.2535 27.3865
Pt 20.3142 31.4368 40.3586
Au 28.8602 37.9281 8.16162
Pt 19.7816 23.9171 18.6976
Au 36.666 35.7574 30.8103
Pt 17.6746 42.781 27.8044
Pt 7.18441 33.1661 15.5708
Au 18.9266 37.8788 43.0562
Pt 21.654 34.8326 31.9189
Au 19.2951 5.29327 20.7528
Pt 21.3917 32.2191 31.6408
Au 15.2052 18.8273 40.3894
Au 18.2122 48.2397 30.9525
Au 24.4831 22.6306 5.41554
Au 29.2167 26.1158 16.9379
Pt 17.3671 17.5235 44.7432
Au 23.373 4.46269 13.598
Pt 10.4766 21.1409 27.8149
Au 34.4794 47.5038 20.3347
Au 5.34398 26.5677 21.014
Pt 17.9927 46.2898 25.4161
Au 37.2582 30.9688 12.4329
Pt 19.2777 41.168 26.1432
Pt 12.789 26.028 22.014
Au 12.5675 5.95016 24.4495
Au 17.8609 22.1879 4.11386
Au 19.9499 18.1147 38.9258
Pt 10.9504 13.9525 19.9373
Au 45.1865 18.1743 28.2927
Au 9.40095 41.7371 25.3029
Au 30.7389 42.4307 11.3505
Au 14.997 5.98953 19.295
Au 35.5183 10.5858 40.9865
Pt 11.1629 27.3696 37.2095
Au 31.7239 16.1368 44.7906
Pt 4.96116 32.007 28.5546
Au 4.55684 21.4576 15.1572
Au 7.4221 25.1858 26.4235
Au 32.3812 32.8715 42.9912
Pt 29.9111 5.02895 28.9446
Au 34.0228 34.9641 41.7858
Pt 23.6136 37.0245 35.1924
Pt 30.4814 16.9227 19.9808
Pt 15.1991 13.7313 32.4653
Pt 23.2225 35.481 29.8567
Pt 25.8543 22.1973 23.5136
Pt 8.64353 26.7873 22.5507
Au 13.3524 16.9726 11.8197
Pt 34.6567 12.7568 22.031
Au 11.2206 43.9447 24.6745
Au 30.716 34.0799 9.48287
Pt 14.9627 31.9823 11.3076
Au 25.5759 12.9528 46.9658
Pt 19.9559 35.1622 42.9692
Au 4.30247 35.8715 26.849
Au 31.9554 30.5711 44.6202
Au 25.7144 33.7598 13.3331
Pt 11.1673 32.1918 36.9812
Au 25.1805 47.1317 30.927
Au 2.77039 34.5327 22.7112
Pt 6.57144 23.7498 30.6241
Au 26.6333 32.5331 10.5543
Au 10.5817 9.20208 20.1236
Au 45.2112 37.3476 29.77
Au 48.5875 26.6085 25.5577
Pt 37.3817 16.5757 25.2604
Au 14.0684 42.7956 30.9181
Au 17.4475 36.2366 44.651
Pt 15.3993 38.3028 14.1982
Pt 27.0843 25.8152 28.7907
Pt 14.5937 23.8918 11.3065
Au 14.8594 44.8695 21.9478
Pt 38.793 27.7968 19.9019
Au 11.11 7.00247 26.5753
Pt 16.4947 30.3986 33.1508
Au 19.4 31.5203 10.3037
Au 16.9973 11.6815 39.0704
Au 17.2734 32.0391 44.931
Pt 30.8549 14.7298 24.9316
Pt 11.7406 20.1863 25.593
Pt 19.1865 40.4228 39.2789
Pt 43.3636 36.4525 27.8082
Pt 14.496 21.651 34.4657
Pt 9.30591 30.09 28.8959
Au 12.5479 23.3955 47.716
Pt 14.1859 22.5306 19.6204
Au 16.7856 42.0923 34.7654
Pt 26.1664 43.5145 18.7209
Pt 14.4012 29.4429 12.4075
Pt 23.5015 29.5192 13.3421
Pt 15.3065 13.0144 36.7065
Pt 13.1199 43.3672 26.4425
Au 36.5431 39.6154 16.0447
Pt 24.2917 30.5783 22.5164
Au 14.4107 21.6831 48.5734
Pt 18.1267 29.3868 8.92366
Pt 15.4314 7.36397 30.1565
Pt 14.9313 32.9576 43.599
Au 10.4328 9.50511 34.0982
Pt 16.522 41.525 29.9816
Au 30.9531 23.3987 45.6594
Pt 13.466 29.4583 34.0587
Au 6.53197 15.0403 29.7025
Au 7.71193 14.6876 22.5863
Au 43.6081 24.1441 14.6387
Au 26.7622 35.8642 41.5432
Au 32.3164 33.1208 40.1755
Pt 27.112 38.6765 41.1473
Au 31.2527 35.1592 41.7591
Pt 15.4283 32.312 39.4009
Pt 22.8805 16.2593 16.4078
Au 13.5183 19.9519 42.8791
Au 34.8673 32.5933 34.5627
Au 8.57688 23.4535 16.8352
Au 28.1958 47.267 33.5108
Pt 15.7421 26.0017 34.366
Pt 14.3293 24.0516 24.9703
Pt 29.6719 22.2265 26.7118
Au 36.9024 16.2288 8.87811
Pt 21.0874 38.5457 18.0222
Pt 31.5291 33.6403 20.7064
Pt 16.9833 24.425 24.8893
Pt 27.8294 36.9959 18.303
Au 15.5642 19.5702 44.7803
Au 20.5085 5.73201 18.3068
Pt 31.5766 7.32292 30.4172
Pt 26.0885 13.9517 34.8075
Au 8.14071 13.3258 20.0184
Au 22.5583 15.0475 6.26058
Pt 9.3557 19.5554 24.5862
Au 2.68907 24.4438 23.2363
Au 17.531 7.94067 23.138
Pt 25.1359 12.5518 22.5629
Pt 10.7838 30.8741 21.6313
Pt 13.5786 18.4817 16.8575
Pt 12.6163 12.3087 35.9454
Pt 7.53819 32.9015 18.1233
Pt 14.8545 27.057 13.9158
Pt 32.4044 22.6693 30.6459
Pt 22.0087 18.8112 6.00433
Au 14.1759 10.7031 25.4511
Au 5.90876 27.4845 25.7448
Pt 19.9914 20.4948 37.4301
Pt 46.9722 24.5835 20.2252
Pt 28.6585 5.85823 22.2383
Pt 12.7997 32.3113 20.5251
Pt 34.3858 26.85 17.5383
Pt 23.1558 22.4576 30.3229
Pt 31.9219 20.1288 34.3936
Pt 22.1416 6.84232 29.5772
Pt 16.3033 26.7167 30.463
Pt 26.2858 7.94337 14.2517
Pt 23.0282 22.9819 27.5025
Au 20.1081 8.45636 18.5703
Pt 19.1142 23.7276 23.6077
Pt 7.33973 24.3687 21.604
Pt 35.2232 12.9229 30.933
Au 39.9068 25.7027 35.821
Pt 41.6468 12.704 33.7782
Au 43.7443 14.9061 13.3585
Pt 28.0322 6.04347 33.2065
Pt 17.4489 17.9715 41.7772
Pt 17.8481 15.2407 43.264
Au 19.871 34.4527 7.51137
Pt 12.4777 14.9832 26.5244
Au 42.6345 28.3088 39.0986
Pt 19.8797 10.4565 13.2661
Au 37.3766 40.2836 13.6125
Au 27.8997 44.5716 22.5841
Pt 32.2241 12.2968 18.1391
Pt 27.8649 8.73433 32.8027
Pt 20.9611 29.4302 36.017
Au 22.6796 26.657 8.49429
Au 7.71964 17.715 39.0381
Au 40.4732 17.3742 12.2561
Au 28.0777 12.3828 36.0272
Au 29.1699 30.1991 48.6499
Au 3.20605 30.6328 19.4621
Au 27.7745 20.7827 10.0086
Au 32.3927 20.7251 16.4795
Pt 27.8765 12.757 21.8059
Pt 17.978 21.9423 35.5622
Au 33.2293 11.7766 44.7911
Pt 26.1519 9.44838 40.3091
Au 43.4822 24.2311 11.5778
Au 39.7831 20.6946 22.482
Au 38.5089 10.1423 22.4291
Au 38.5274 16.9587 40.6167
Pt 15.8072 28.7404 35.2253
Pt 14.295 14.6916 34.8001
Pt 19.4195 10.8126 37.661
Pt 5.01091 20.8003 24.4082
Au 16.4747 6.34501 16.8505
Pt 26.7341 7.60529 16.8681
Au 42.5697 11.3594 22.5813
Pt 23.5622 28.0045 31.1413
Au 36.411 14.2687 15.8554
Pt 29.5612 26.5854 25.1856
Pt 13.9991 17.65 14.3096
Au 29.9065 6.56899 40.0462
Au 16.2929 11.6815 27.0121
Au 10.6188 16.6185 11.3753
Pt 23.7569 39.1375 19.4169
Pt 14.7527 19.5424 19.3956
Au 44.1369 33.8719 32.4233
Pt 26.9976 21.1145 40.6023
Au 23.237 25.384 4.79099
Pt 19.7784 33.6264 33.4512
Pt 39.4334 33.5674 22.163
Pt 25.4243 11.1465 24.9387
Au 30.067 22.3652 10.3378
Pt 9.08906 34.7386 19.2701
Au 20.752 32.1667 2.94593
Au 47.6995 19.6532 19.1272
Au 32.0027 23.8678 38.0125
Au 26.1269 36.0626 11.9281
Au 38.5587 9.56582 19.6668
Au 20.3017 27.1435 4.09236
Au 28.2544 18.3688 8.65092
Pt 9.32613 24.1977 19.5182
Pt 24.6493 16.5604 20.5629
Pt 21.1574 11.0134 28.1634
Pt 20.6822 18.1526 36.2467
Pt 22.7085 37.9904 14.3251
Au 17.7846 40.1515 41.7054
Au 20.5062 39.1254 7.95396
Pt 21.0479 7.0969 32.1791
Pt 34.077 26.6804 33.6191
Pt 8.69549 17.2556 23.2499
Au 33.5638 48.3993 22.8497
Au 46.8719 35.3784 28.7261
Au 14.5196 23.3862 8.55275
Au 10.6169 29.8298 43.348
Pt 15.8091 26.6692 37.0247
Au 38.9631 11.4176 37.4413
Au 38.3614 23.2204 4.39779
Pt 32.3459 6.10436 28.1549
Au 36.5914 30.2006 45.6507
Pt 8.39358 36.8202 30.3654
Pt 9.06519 20.6464 17.4307
Au 24.2635 8.98485 10.0798
Pt 9.62812 20.3356 20.0716
Au 17.1863 7.22223 14.2006
Au 40.8701 27.9211 13.7828
Pt 32.0998 12.1008 24.3461
Pt 17.8171 27.5857 28.4555
Pt 16.973 15.2843 34.2484
Au 29.1918 22.0792 2.38225
Pt 21.053 15.4379 11.7304
Pt 14.2683 24.609 36.2979
Pt 24.5431 21.1801 38.6812
Au 44.942 23.7279 29.571
Au 34.8807 16.532 15.6199
Au 38.4148 9.16436 16.9503
Au 29.8502 5.14512 15.1512
Au 49.8713 22.4573 23.3817
Pt 13.1048 26.9986 19.3403
Au 35.3951 9.66876 12.5738
Au 47.3373 24.0388 12.1242
Au 41.2296 15.4903 14.0917
Au 45.5943 31.9409 22.3486
Au 19.9036 44.2195 11.9259
Pt 15.1005 17.0772 20.8993
Pt 19.7504 22.4081 15.78
Pt 24.5469 15.8023 37.1394
Au 32.4686 43.3877 9.48639
Au 37.2954 25.4918 38.1635
Au 29.3475 10.7506 34.1489
Au 42.1618 30.2738 14.7539
Au 34.4122 31.4751 14.4556
Pt 14.7458 25.0303 31.8753
Pt 11.0082 18.7613 29.7293
Pt 8.30529 25.1639 29.0639
Pt 8.69086 30.2041 31.6295
Pt 12.769 12.5052 18.2028
Pt 36.2624 26.3946 32.1507