3871
Atoms. Timestep: 21054
Au 19.4709 27.9217 6.9167
Pt 12.6645 13.304 39.175
Pt 31.31 29.771 31.7311
Pt 29.4662 10.2237 40.0152
Pt 25.0303 13.6183 21.2439
Pt 28.2599 40.8875 29.2409
Au 12.8234 27.4071 6.44691
Pt 11.6099 33.6945 17.9815
Pt 31.9401 18.0313 26.5712
Pt 32.2304 38.8897 30.6499
Au 19.1616 47.0124 33.0755
Pt 23.0821 37.2374 13.2337
Au 6.22359 34.5349 18.8369
Pt 9.67507 28.9412 36.7153
Pt 23.5331 44.904 35.3423
Pt 13.0599 42.9736 23.1665
Pt 22.6473 41.3804 15.1446
Au 32.8862 32.4096 20.4013
Pt 18.6631 43.7696 30.6139
Au 26.3388 45.5782 34.4137
Pt 16.1718 11.4537 30.5113
Au 19.0998 47.6805 21.0316
Pt 14.912 22.8219 22.9392
Au 22.0281 20.0201 48.3895
Pt 18.3292 26.2012 27.7331
Au 32.6312 48.1977 16.5192
Pt 16.8039 40.4563 24.3516
Pt 18.0938 6.08433 33.7827
Pt 21.1185 27.9575 40.1795
Pt 11.576 9.20475 23.9611
Pt 15.997 24.8373 11.7023
Au 17.0354 7.48815 38.1602
Pt 35.2302 9.76476 36.6622
Pt 20.3281 21.8091 24.0454
Pt 19.5227 14.7058 24.0973
Au 41.2309 44.3105 18.369
Pt 9.02811 32.2612 21.6526
Au 44.7564 16.0431 16.599
Pt 10.0316 20.881 30.3561
Au 11.2194 20.2929 42.5647
Pt 19.6389 12.1577 41.3178
Pt 6.61418 27.4056 19.984
Pt 14.2072 23.1573 29.6504
Au 30.7917 20.119 12.0732
Pt 21.3826 28.0617 11.6859
Pt 27.1751 14.8492 30.2765
Pt 16.3038 26.8351 29.4812
Au 13.6218 10.6507 29.9527
Pt 31.7544 30.6317 36.494
Au 28.0215 6.36412 29.2588
Pt 28.2788 38.3677 24.4488
Pt 18.2676 24.0499 10.6946
Pt 22.5648 32.6132 29.9062
Au 6.29082 20.9717 33.4488
Pt 29.4329 43.3228 30.4983
Pt 14.3323 22.6794 15.2608
Pt 30.1979 30.315 26.462
Au 37.1233 29.2547 14.5378
Au 40.8784 28.1858 35.7977
Pt 24.5115 13.1089 23.9093
Au 27.3026 12.701 5.06792
Pt 26.5914 28.4614 22.4045
Pt 20.5972 43.3857 26.0493
Pt 26.0193 37.6045 23.1856
Pt 19.6185 19.9338 25.9128
Pt 17.4041 35.8152 26.287
Pt 30.0137 25.7938 42.1437
Au 10.595 30.1036 12.1421
Au 35.5046 37.7617 18.5284
Pt 15.0494 19.3816 11.0468
Au 12.6978 13.4608 34.6512
Pt 26.078 35.3636 21.4032
Pt 22.7335 21.0545 40.1999
Pt 23.495 22.7601 35.4078
Au 21.3566 46.6563 34.6834
Au 7.82137 36.1085 32.2261
Au 21.5146 2.82052 28.4649
Pt 13.3803 8.27105 22.2183
Pt 30.4257 29.8803 29.212
Au 36.8275 21.0528 18.735
Au 29.4456 8.28746 17.546
Pt 11.9648 15.3942 27.8154
Au 4.09848 33.405 20.328
Pt 9.68653 26.6735 23.2457
Pt 26.9657 10.0126 35.6731
Pt 16.901 7.86868 27.8573
Pt 34.287 29.943 15.5937
Au 15.8077 26.285 46.6108
Pt 22.5503 7.66512 23.7425
Au 32.8523 4.09801 36.044
Pt 22.9837 40.0553 25.0157
Pt 21.468 35.166 28.894
Pt 30.9031 20.3288 30.1739
Pt 28.0278 29.9653 10.2463
Au 6.1662 14.0261 25.856
Pt 16.4455 27.0056 13.2171
Pt 9.23358 24.1586 22.1003
Pt 11.7854 31.2142 38.4979
Pt 22.1388 22.8323 16.1677
Pt 19.5027 39.3759 35.7897
Pt 26.8709 25.7722 35.0372
Au 38.7036 17.5465 30.0801
Pt 15.1225 26.1009 33.2145
Pt 26.6017 25.9768 23.8346
Pt 16.9425 17.6793 10.2924
Pt 8.85686 30.4478 19.386
Pt 22.1769 38.0697 36.0439
Pt 16.883 10.4378 34.6664
Au 22.6819 26.3341 46.5126
Pt 7.45415 22.8872 19.9802
Au 38.8173 25.2813 43.3621
Pt 24.9102 39.0605 41.851
Au 45.2224 17.3637 24.5271
Au 25.6118 3.25591 30.0005
Pt 32.9584 17.2485 43.0825
Pt 14.3945 39.2999 25.3077
Pt 21.3415 20.0206 15.4724
Pt 22.8434 7.5252 16.9436
Pt 16.1193 46.2977 24.9397
Au 9.69405 36.3905 12.2147
Au 30.3114 29.0544 42.061
Pt 18.3506 30.8755 29.8463
Pt 21.8962 8.10126 31.8465
Pt 14.7535 17.572 19.5397
Pt 7.28854 32.1006 17.4933
Pt 16.204 25.3109 35.8475
Au 31.1047 17.0359 8.17347
Au 35.7657 41.7006 15.7217
Au 28.0414 30.883 45.9975
Pt 19.0286 14.3259 34.6731
Pt 17.7564 34.7351 18.3168
Pt 24.1479 28.9392 21.2297
Pt 29.6628 39.4048 39.5106
Pt 30.9161 36.9206 28.7339
Pt 19.2595 30.1032 20.9777
Pt 21.88 15.0236 30.2477
Pt 11.137 24.5132 27.4569
Pt 28.3194 29.2917 24.3958
Pt 14.0068 14.98 32.791
Pt 22.6678 32.3933 33.4371
Au 13.7223 32.9625 23.9739
Pt 31.284 35.7208 18.5523
Pt 26.9981 34.628 7.90514
Pt 28.4459 8.10386 32.1031
Au 6.61617 36.6147 29.5098
Au 23.1798 28.1332 2.20971
Pt 11.027 9.69389 21.3226
Pt 23.0864 26.4154 28.296
Pt 16.0754 28.0226 34.6143
Au 10.0667 9.92921 37.1711
Au 36.9545 29.1349 6.61572
Pt 18.4735 16.7045 41.928
Au 24.0816 12.82 44.7087
Pt 29.1017 34.4992 12.9065
Pt 34.7613 38.3057 31.1427
Pt 30.6163 39.7868 24.2656
Pt 26.6777 39.2087 30.4853
Pt 11.9461 24.833 30.0292
Pt 24.707 19.2506 43.5846
Pt 13.1642 12.7597 13.468
Pt 16.652 14.4151 38.1008
Pt 30.0968 18.3671 28.5189
Pt 18.7729 20.6727 14.7591
Au 27.251 3.96291 24.7245
Au 34.1601 40.4606 43.2856
Pt 19.0852 27.6258 13.1766
Pt 13.1617 40.211 22.9691
Au 14.2342 20.46 5.29352
Pt 27.9376 35.0779 34.8508
Pt 29.8379 34.0719 30.5951
Au 38.7072 17.0787 34.9443
Pt 24.9954 8.44781 23.1968
Pt 11.9176 19.8819 25.0885
Pt 34.9619 35.4759 31.8748
Au 17.4479 49.5201 22.7558
Au 22.1022 20.0575 43.3236
Au 16.4398 48.4273 20.4791
Pt 30.1634 27.4417 30.723
Pt 22.3966 23.8709 5.1379
Au 37.3968 26.6042 14.1833
Pt 30.045 13.0116 16.1072
Au 17.8169 6.01845 15.6503
Pt 26.7147 20.0745 39.0958
Pt 22.3093 38.2056 21.1559
Pt 17.8437 40.6904 21.8119
Pt 19.3449 18.6113 40.102
Pt 23.1774 22.3073 24.7132
Pt 7.05838 16.1434 17.9177
Au 7.83135 20.1806 11.7234
Pt 17.9572 31.5443 22.8878
Au 41.8076 21.2197 28.479
Pt 24.9654 11.678 39.243
Pt 20.3928 39.0907 26.085
Pt 28.7394 32.391 33.7299
Pt 24.5279 16.1129 34.3331
Au 37.3206 24.0363 13.146
Pt 26.4434 22.8156 24.1165
Pt 3.93917 20.9505 25.748
Pt 30.2239 25.8274 11.7171
Pt 30.3249 30.1619 34.1431
Pt 22.8887 17.6638 24.2517
Pt 32.9456 19.0629 31.8679
Pt 31.3222 43.9905 26.3633
Pt 15.7912 38.0588 38.0535
Pt 22.7564 45.1404 32.6742
Pt 16.1156 14.1031 26.2147
Pt 22.8594 14.1777 19.9802
Pt 22.3965 33.4194 15.6442
Au 39.4558 25.3887 11.7582
Au 12.412 43.3747 18.7277
Au 42.4504 24.7155 38.7888
Pt 9.35179 24.1966 13.2382
Pt 27.2918 19.9171 16.4351
Au 31.8111 43.2638 23.7898
Au 48.587 21.5214 19.4099
Pt 20.0003 18.0866 7.82946
Pt 27.9848 21.392 33.5933
Pt 16.6699 28.2035 24.5013
Au 45.4493 17.6008 34.3241
Pt 31.9325 31.2855 42.2716
Pt 18.8775 42.2041 39.4073
Pt 10.3134 21.9162 23.7383
Pt 18.8628 33.8915 43.164
Pt 24.2451 27.5568 44.5433
Pt 22.5222 45.2216 18.3135
Pt 22.7143 15.4009 13.2089
Pt 22.1083 23.8351 28.9677
Au 17.1683 35.7024 8.13748
Au 45.0447 25.6743 29.9526
Pt 31.0214 17.5917 30.8625
Pt 20.2278 34.4921 17.1028
Au 34.5242 38.0339 21.0131
Pt 25.1096 11.9069 36.5759
Pt 13.6282 23.3891 27.0599
Au 1.29224 20.4593 25.7558
Pt 16.6442 39.7221 19.6756
Au 7.50769 25.7891 30.3714
Pt 14.3397 21.4271 25.2961
Au 3.93139 23.3609 29.8351
Au 7.48625 13.1672 30.2031
Pt 10.3398 24.4193 24.6723
Pt 28.9521 7.02314 21.8481
Au 35.6162 35.7961 37.299
Pt 32.4383 31.2426 25.0704
Pt 13.5172 24.8193 8.11939
Pt 23.9235 36.1954 36.1439
Pt 29.6124 28.8333 8.25198
Au 27.5028 19.7834 2.26609
Pt 18.6993 11.5691 30.5628
Pt 17.481 26.5425 42.5006
Pt 10.7335 39.079 22.5923
Pt 24.5313 16.3093 20.6506
Au 30.3607 29.2345 46.6857
Pt 6.87835 26.0844 34.5768
Pt 22.6747 40.088 38.0109
Au 35.3213 14.2887 15.8079
Pt 28.9719 16.1248 19.2195
Au 12.7286 41.8551 13.3728
Pt 26.6561 31.3866 14.4086
Pt 14.5952 13.5611 30.4969
Pt 15.8862 17.5527 12.7437
Pt 22.7098 8.99661 19.2766
Pt 24.7798 24.3413 28.6647
Pt 28.5646 26.2473 39.9282
Pt 26.4297 34.9296 39.8834
Au 32.1919 11.0692 40.0169
Pt 20.1408 27.1947 42.8114
Au 24.0227 40.3451 17.4826
Pt 25.1747 39.3016 39.3152
Pt 27.133 18.4166 18.8616
Au 27.1874 14.8025 3.40357
Pt 16.1292 7.35621 32.484
Pt 26.1763 27.7463 19.3482
Au 30.4274 7.42694 11.7013
Pt 29.4705 40.0088 36.8653
Pt 12.6087 36.1002 16.963
Pt 26.9372 40.0898 35.7561
Pt 23.2634 16.1638 5.35862
Au 2.27677 31.9161 21.6837
Au 2.41112 19.9502 23.3616
Pt 7.95194 19.0483 27.2884
Pt 17.5653 6.17182 30.1634
Pt 14.9632 10.2202 32.5837
Pt 20.3452 33.9521 31.0115
Au 34.8724 28.4552 10.2212
Pt 25.5827 6.912 38.7306
Au 42.4771 21.9238 13.5618
Pt 17.1813 28.8587 27.8153
Pt 16.8335 40.1901 14.7548
Au 26.8234 47.0168 20.435
Au 40.5818 36.7234 39.8686
Au 42.298 28.1893 26.1395
Pt 19.9126 10.9505 14.5514
Pt 10.3548 26.979 38.2811
Pt 8.60787 25.4008 19.5314
Au 30.7081 31.971 46.5388
Pt 26.2637 18.4082 14.1643
Au 36.3504 29.193 17.1506
Pt 12.867 17.57 16.9922
Au 34.2799 32.0757 41.1108
Au 49.5281 25.4996 23.7069
Pt 25.9509 28.6505 25.2647
Au 6.88388 11.4933 18.852
Au 22.3526 33.2974 18.3978
Au 37.573 42.5164 20.2794
Au 22.377 14.2098 41.1596
Au 12.8456 33.0156 40.5607
Pt 30.176 25.7729 20.9441
Pt 7.48006 25.0509 24.0782
Au 41.5583 8.64711 27.8613
Pt 9.53861 15.9778 13.903
Au 29.7688 5.10539 23.953
Pt 15.2277 12.6084 39.5849
Pt 26.6823 44.7519 16.2573
Au 6.81013 22.5548 38.6536
Pt 14.5504 22.1053 17.8222
Au 9.95014 26.898 41.1008
Pt 12.4033 17.4504 23.6595
Au 47.7755 17.7175 23.3506
Au 30.3675 41.543 22.0809
Pt 19.1205 20.117 6.0572
Au 44.1664 8.8578 24.3203
Au 37.6002 17.3869 27.5858
Au 35.3939 31.2296 30.2705
Pt 23.9131 30.0284 24.3384
Pt 14.3466 34.068 16.6366
Pt 9.47285 33.9205 31.8108
Au 43.3557 19.3071 33.5217
Pt 32.7248 34.4816 34.0208
Pt 19.3018 32.1357 18.3612
Au 3.61082 18.2434 18.7581
Au 6.89498 10.3843 25.0887
Pt 7.0895 25.7412 14.1925
Pt 7.46118 29.7173 28.4325
Au 26.17 32.9771 45.9167
Pt 24.0727 25.6887 35.1862
Pt 19.7014 34.601 26.9436
Pt 23.0354 31.3374 9.12671
Au 16.9851 5.26339 18.4674
Pt 17.3688 10.451 28.1749
Au 17.1669 9.73303 10.9945
Au 15.2966 44.6279 18.6876
Au 30.8763 33.2852 5.14581
Pt 12.8341 31.9421 16.0969
Pt 14.5114 42.8993 16.8706
Pt 26.6755 10.6847 18.8769
Au 42.2321 13.4912 22.5894
Au 36.3874 40.5405 35.0757
Au 27.0857 35.6398 44.81
Au 35.0445 43.9735 14.3757
Au 29.0775 3.6658 18.8876
Au 35.7361 43.401 22.146
Au 45.9591 11.79 27.3427
Pt 17.1077 15.7572 24.5098
Au 29.5476 23.515 46.8913
Pt 18.6806 8.60855 15.2161
Au 36.0997 7.72056 38.3649
Pt 25.4796 23.0793 26.4625
Au 8.46889 12.375 25.77
Au 9.09585 31.2779 38.0588
Pt 4.28148 25.7759 20.6844
Au 35.608 29.2288 22.8374
Au 17.9073 7.7953 17.8256
Au 36.6754 42.8715 31.6929
Pt 23.6743 7.3552 34.5188
Pt 15.4558 9.67037 20.9378
Au 20.4091 40.4163 8.59143
Pt 19.4222 9.08896 12.6551
Au 2.68367 19.2216 27.811
Pt 5.29888 18.8794 26.695
Pt 29.0251 17.7879 16.9802
Au 4.99094 20.158 36.0091
Au 23.9627 3.93193 27.6439
Pt 19.1149 38.0694 14.6146
Pt 13.7359 36.0918 28.891
Pt 36.6349 34.0439 22.8818
Pt 13.1708 40.658 17.8789
Au 8.87619 10.295 17.3333
Au 42.9949 39.7973 24.0697
Au 38.1307 13.1921 19.125
Pt 15.2729 14.7364 22.9503
Au 41.6731 30.2172 9.01521
Pt 32.1561 18.9001 24.1131
Au 35.7545 13.6 42.6503
Au 19.1585 7.40537 41.3139
Au 45.1998 22.9825 30.816
Pt 27.5245 39.203 11.0472
Pt 8.29507 19.3374 31.9708
Au 16.4189 27.9563 3.53117
Pt 28.3021 23.8453 32.8709
Au 44.7097 28.7826 16.5467
Pt 47.1597 28.6254 25.9559
Au 11.0292 37.7635 37.0805
Au 41.9772 27.5596 12.5165
Au 38.4179 41.1014 16.3314
Pt 22.4794 38.2399 18.573
Au 25.8005 3.07056 15.6794
Pt 20.7347 23.7885 31.2699
Au 8.9179 39.1885 25.4313
Pt 27.574 21.7849 21.9785
Au 43.1809 31.8125 32.0853
Au 34.9271 10.3212 10.3406
Pt 19.2285 35.5427 38.7289
Au 33.8451 46.2251 15.2161
Au 43.4268 35.7739 26.3744
Pt 12.0317 38.8873 32.0832
Pt 25.1955 26.0999 26.2408
Pt 19.929 20.7522 8.50575
Pt 9.30988 17.3727 34.0636
Au 31.7463 14.5539 23.181
Au 21.9507 8.62773 8.40291
Pt 31.1584 24.9845 39.5721
Au 12.8164 21.9603 44.3696
Pt 26.2566 7.20541 36.1454
Pt 40.4237 28.8826 14.5597
Pt 18.3282 17.2518 22.7617
Pt 4.23695 26.8557 27.0309
Au 35.099 37.8194 12.2093
Pt 13.8806 10.0814 24.8747
Pt 26.9541 36.3849 18.9795
Pt 18.7952 27.9773 34.1844
Au 44.6184 17.5078 31.4939
Pt 28.9927 20.9642 40.5769
Au 6.84252 39.77 20.6104
Pt 26.647 10.4378 27.0615
Au 44.3542 26.9877 32.5422
Pt 32.795 27.4779 5.56356
Au 41.129 25.0626 22.872
Au 36.9753 11.8023 9.42795
Au 11.3433 31.3914 22.9455
Pt 13.0653 25.9338 26.1097
Au 33.1415 12.6187 25.0109
Pt 14.7921 38.9197 13.5411
Au 41.1885 22.9043 11.3176
Pt 6.54944 20.6048 18.0667
Au 39.487 30.7421 20.3156
Au 37.2262 31.0748 36.9463
Pt 28.5831 44.2898 26.2301
Au 34.6959 25.8438 45.7025
Au 40.6553 12.2349 35.1227
Au 19.9263 35.9084 7.73475
Au 34.5727 38.7796 36.413
Au 35.0786 15.7074 44.3559
Au 14.3673 22.5495 7.03739
Au 31.5283 41.1098 43.9595
Pt 31.3596 32.3008 32.7569
Au 9.1786 14.6969 11.5381
Pt 19.4231 18.8205 30.0403
Au 37.2671 8.00792 35.9083
Pt 23.2486 13.3625 9.35212
Au 26.8095 5.31672 31.6206
Au 41.9422 16.0242 17.1841
Au 15.6424 26.974 6.3533
Au 27.354 3.70324 35.33
Pt 24.1171 8.60629 25.81
Pt 8.98753 20.215 34.2801
Pt 9.56511 16.7365 27.5826
Pt 31.2808 19.5723 33.8426
Pt 27.4246 24.7612 42.176
Pt 25.2454 32.6575 18.4058
Pt 32.817 29.1364 34.1978
Au 40.2104 32.9192 43.0307
Pt 17.1153 29.9525 33.0867
Au 16.1439 23.3679 34.0476
Pt 12.8598 25.6756 18.8834
Au 28.1955 14.8408 11.5886
Au 34.389 20.0612 42.2101
Au 35.8144 27.8714 37.7458
Au 27.0738 22.45 3.03976
Au 32.6329 11.7467 22.4555
Pt 29.911 29.0952 37.7849
Pt 15.5988 30.8857 23.8014
Pt 32.227 31.6111 27.7735
Au 24.4903 35.0483 45.4595
Au 40.0954 34.5535 35.9997
Au 19.7221 44.0885 41.1957
Au 40.2982 29.7397 38.3658
Au 20.7206 37.8656 9.50527
Pt 25.7139 14.4139 16.302
Au 47.0635 22.1291 32.5906
Au 33.1141 6.27772 20.6211
Pt 23.6598 24.1353 20.4466
Pt 13.7189 20.101 15.8984
Au 45.9437 27.8347 18.8185
Pt 17.7294 30.6664 16.7154
Au 14.5718 17.6905 45.2689
Pt 17.7756 30.5747 25.504
Pt 28.2465 36.1136 22.9205
Au 39.8115 39.5838 31.2315
Au 47.9953 29.6439 30.5948
Au 16.3477 42.2728 38.3737
Pt 18.7059 41.3985 26.1359
Pt 29.993 18.5888 19.3175
Pt 31.8031 39.239 35.535
Pt 24.0976 21.9882 12.0854
Au 4.81805 16.7891 33.2737
Au 14.9594 20.6399 45.7518
Au 35.9446 5.6949 24.1001
Pt 15.6791 44.2051 23.3556
Pt 25.5009 17.8135 38.0561
Pt 15.0536 27.1618 15.6414
Pt 15.3768 45.9758 21.0533
Au 17.9705 35.2282 34.6322
Au 42.6924 24.2924 18.0462
Pt 11.8071 28.7686 31.349
Au 7.33385 20.9418 29.8233
Pt 36.3198 26.5362 17.0339
Au 37.0587 29.7623 11.6557
Pt 21.008 6.98437 34.2298
Au 24.8782 6.80415 41.4723
Pt 23.2206 35.2359 42.8851
Au 31.0499 9.76725 12.9926
Au 21.7404 33.7819 8.49987
Au 4.78439 16.9202 14.7828
Au 30.9887 10.6311 42.5655
Pt 24.9324 21.7536 15.8609
Pt 11.5388 28.0461 13.828
Au 38.4397 28.268 36.8618
Pt 9.60961 26.1432 28.8442
Au 15.6731 3.75982 25.6768
Au 16.4162 42.9226 14.7625
Au 44.9891 29.092 23.1778
Au 10.5207 11.7503 39.1615
Pt 17.3956 31.5717 40.5439
Pt 21.0133 44.2752 35.7714
Au 32.0469 47.592 19.1107
Pt 26.3438 13.2713 25.8695
Pt 11.2699 39.2817 19.7404
Au 20.7097 15.8674 45.4051
Pt 20.5732 21.983 35.6733
Pt 12.843 23.5906 24.4514
Au 20.5184 13.2029 5.54676
Au 10.9592 10.0063 28.7083
Au 42.9477 11.8474 24.819
Pt 15.1523 14.5286 19.8016
Pt 15.5635 35.2854 30.6263
Pt 19.2592 13.0554 19.9624
Pt 31.932 43.9375 28.9493
Au 27.6458 13.9249 47.7207
Pt 18.0188 31.6592 10.9255
Au 35.9284 33.8799 6.90874
Pt 13.7997 30.2578 11.1707
Au 41.4707 34.3412 41.0354
Pt 33.1644 23.5985 38.3609
Pt 23.197 16.8141 31.9609
Pt 25.5091 19.6995 11.7876
Pt 20.4477 36.2942 22.3416
Pt 30.5984 25.0154 32.3651
Pt 16.567 16.2416 21.0878
Pt 14.9319 30.3594 17.5727
Au 15.7345 43.9708 34.3106
Au 36.3779 35.3211 11.7201
Au 12.2423 10.1714 13.5144
Pt 21.3078 5.23681 27.383
Au 43.1375 29.6835 14.3149
Pt 27.6801 15.6642 25.4683
Pt 25.7163 16.9052 4.54675
Pt 9.61125 28.5769 27.4754
Pt 19.4126 7.27019 31.8333
Pt 26.81 31.3583 32.0278
Pt 27.6703 17.1767 28.2602
Pt 30.5033 10.5157 35.1259
Au 35.3983 31.2727 46.0704
Pt 13.4651 38.3734 15.8799
Pt 34.4307 21.9964 23.8358
Pt 25.5204 13.0243 28.3982
Pt 12.7071 17.4189 31.9196
Au 47.466 36.5108 28.0469
Au 2.69338 26.7421 23.0391
Au 34.3864 14.0426 6.71897
Au 23.9838 44.6023 15.9896
Pt 31.6217 40.6638 26.5486
Au 46.318 18.4165 26.8959
Pt 30.4083 33.3384 18.8927
Au 30.4897 41.9015 38.5184
Pt 26.5176 16.9923 11.6609
Pt 26.1998 24.7134 39.6243
Pt 26.1741 40.1049 21.6775
Au 35.9267 31.5643 34.22
Au 23.6364 39.4977 44.2346
Pt 21.957 19.0969 9.44039
Au 9.4088 36.9109 34.6608
Pt 32.7999 34.2259 36.7586
Pt 33.7964 27.9275 17.7026
Pt 24.7886 19.9919 7.08101
Pt 8.62857 25.0078 26.7338
Pt 24.018 11.3836 19.5091
Pt 10.9236 32.6241 13.4378
Pt 20.1359 9.97271 16.9611
Pt 30.9077 38.7715 32.9853
Pt 42.2921 33.6842 16.0849
Pt 29.9156 12.334 22.8686
Au 28.2619 6.28157 26.4294
Pt 18.0416 12.0772 39.2547
Pt 15.4176 37.3106 19.9332
Pt 14.0021 33.2935 13.9233
Au 11.5072 20.3661 5.90158
Pt 14.6209 10.656 14.7719
Au 44.4084 22.689 15.8597
Pt 16.1514 30.1339 9.9812
Pt 4.77501 18.7468 24.0191
Pt 41.9311 25.9351 27.9889
Pt 10.5179 29.8222 25.2953
Au 37.2422 26.3078 26.2663
Pt 22.8787 25.5777 15.6872
Pt 13.1199 13.4308 18.0733
Pt 20.1447 43.7799 19.1617
Pt 12.6659 15.8014 19.1543
Au 32.7771 20.2483 16.5534
Pt 4.18305 28.0001 19.2055
Pt 11.7893 22.644 7.68146
Au 31.4289 26.533 3.17748
Au 29.448 44.4851 38.4292
Pt 32.8709 13.9674 20.6107
Pt 32.3899 45.8055 24.7413
Pt 30.7586 36.558 31.304
Pt 22.9298 9.67763 21.7842
Pt 31.7472 10.5589 32.6949
Pt 33.0722 9.49495 34.9032
Pt 21.1611 7.33966 29.2411
Au 37.3709 38.2845 36.0816
Pt 26.9978 22.6077 17.5325
Au 6.52609 17.9569 22.1259
Pt 20.6372 17.0377 31.6377
Pt 27.6673 43.4912 23.8539
Au 12.8503 12.1759 32.2115
Pt 28.3758 10.4837 24.3825
Au 33.9241 35.9414 10.51
Pt 13.5975 33.8883 26.895
Au 39.9198 13.2868 14.2319
Pt 35.1539 26.1026 19.3284
Pt 33.1085 30.2491 22.2682
Au 39.2716 30.9675 32.5718
Au 28.9632 22.6507 42.9346
Au 18.5784 12.1111 43.8306
Au 31.3647 14.4919 7.05634
Au 10.5223 12.4443 12.4063
Au 3.02018 32.3887 27.479
Au 21.4251 17.3805 47.6027
Au 29.2998 5.70699 16.5438
Pt 13.8347 7.42177 24.6299
Pt 19.1643 6.7216 36.171
Pt 27.6099 42.5681 21.496
Pt 22.3794 42.7763 33.8594
Pt 4.99277 25.8878 29.3635
Au 22.4459 36.8076 45.1018
Pt 23.4302 21.5031 32.8903
Pt 31.0619 19.394 39.295
Pt 16.0704 16.9007 26.7909
Pt 17.1424 27.3436 39.72
Au 12.2265 35.6331 10.0022
Au 22.2838 48.4823 29.5345
Pt 17.8472 35.5245 20.81
Au 41.0529 28.943 28.5843
Pt 10.0839 17.3192 16.1586
Pt 8.03139 25.4599 16.8185
Au 32.2628 32.4567 7.44083
Pt 22.9239 20.6176 17.4708
Au 28.9366 14.9669 23.0682
Pt 20.1332 30.1968 12.5311
Au 49.493 27.1024 21.5455
Au 18.8434 4.30452 31.9901
Pt 38.4516 13.9553 34.7622
Pt 15.5524 20.93 8.97162
Pt 16.0655 23.5364 9.16539
Au 39.0217 33.9894 39.4685
Pt 18.9353 43.3127 37.0444
Au 32.6018 38.0576 18.364
Au 43.5386 12.4892 20.3949
Au 40.4267 22.712 6.76263
Pt 18.2045 16.4192 31.0072
Au 13.179 33.4921 6.97134
Au 1.71131 23.064 25.9727
Au 42.3483 23.1602 8.76417
Au 29.9971 43.048 33.3303
Au 28.9979 44.8117 13.7594
Au 34.2705 33.6631 12.2785
Pt 17.1608 13.9146 31.0614
Au 6.23265 23.5403 34.0634
Pt 23.011 12.9754 37.9527
Au 35.0079 19.2599 6.18112
Pt 16.1951 8.74792 25.4583
Pt 15.707 26.7249 26.6072
Pt 26.4483 19.5169 27.677
Pt 18.9718 28.0215 25.9686
Pt 28.2658 24.7138 16.5261
Pt 29.2247 12.969 39.4444
Pt 31.0531 30.5988 39.7169
Pt 23.5442 20.8894 20.2287
Pt 24.1474 30.7295 14.3259
Pt 30.4686 16.6084 15.2155
Au 16.0257 8.51772 15.6957
Pt 33.8496 39.3422 33.7082
Pt 20.0228 21.2401 17.3833
Pt 29.4104 19.8561 42.8952
Pt 19.7258 24.4769 42.9576
Pt 33.2516 36.759 22.9327
Pt 15.406 33.4324 39.2234
Au 41.8682 28.9036 16.7577
Au 26.4428 26.0237 44.5428
Au 19.6634 4.2855 37.6146
Au 43.4963 18.5205 21.435
Au 25.3007 32.226 7.91484
Au 29.8519 28.6915 2.52126
Pt 26.1499 7.85294 30.797
Pt 29.4611 27.0834 16.3016
Pt 28.3929 12.2602 35.8156
Pt 8.95404 29.6222 23.1302
Au 6.8771 23.7934 12.1853
Au 18.6504 11.7832 9.18511
Pt 24.2762 36.512 40.794
Au 18.1893 25.8092 5.12736
Pt 24.2965 27.4392 23.6389
Au 23.1166 39.2597 8.35717
Pt 28.455 23.7388 20.0485
Pt 38.5509 23.0815 18.5246
Pt 18.5807 47.8461 24.4844
Au 17.585 48.8725 29.1351
Pt 27.0554 6.37032 23.6278
Pt 24.0271 39.2295 22.7739
Pt 17.1314 10.3947 13.6207
Au 42.5652 12.5056 31.3985
Au 14.1791 12.9143 42.1594
Pt 13.5227 25.3476 10.7676
Au 10.5228 8.64738 18.6306
Pt 25.435 21.6438 29.2014
Pt 5.64475 22.9699 24.8557
Au 6.66315 18.5008 34.5075
Pt 32.2426 17.3077 35.1486
Au 26.6523 47.8694 32.8002
Pt 7.44635 23.2734 14.8852
Au 4.38127 19.7008 14.8555
Au 2.15633 24.2922 21.827
Au 47.1174 20.1178 24.7932
Au 45.6952 19.458 22.6183
Au 14.606 40.3224 39.1783
Au 13.3482 7.94573 15.1212
Au 10.7665 27.7171 44.8204
Au 49.7984 28.6556 23.7316
Pt 21.3512 19.3643 19.1097
Au 39.9701 25.5681 31.9762
Au 9.24229 9.30428 32.7669
Pt 19.0025 12.674 17.2801
Pt 23.036 36.9079 33.614
Pt 20.9019 41.9139 13.0775
Au 37.0633 6.45226 33.5306
Au 29.613 21.6183 2.46492
Au 37.5019 37.9833 30.6683
Au 28.9475 11.5952 44.6485
Au 34.3823 39.5409 16.5972
Au 41.8304 34.8425 10.8312
Au 37.0951 31.2149 18.7506
Au 6.28406 18.4995 13.1943
Pt 9.2823 35.6684 29.7114
Pt 29.6644 38.0404 13.2097
Au 23.0661 10.3897 10.0624
Au 38.4962 12.3583 11.7663
Pt 7.95247 26.8432 36.8708
Au 42.4034 17.8323 38.1194
Au 43.753 22.131 33.6551
Au 45.5938 40.2322 24.5091
Pt 33.2339 20.4821 26.0245
Au 4.70817 20.6941 28.9427
Au 32.8139 13.1764 33.0457
Au 26.221 30.328 19.667
Pt 25.095 26.1579 42.0481
Pt 14.9236 31.6177 41.6744
Au 35.0892 17.0756 36.392
Au 30.8781 16.7055 47.0097
Pt 11.3479 22.1695 26.2641
Pt 15.2589 31.1906 34.5174
Pt 10.6416 28.1457 16.3963
Au 19.1662 43.3317 14.9529
Pt 15.76 44.0036 29.6941
Au 22.8386 25.3872 2.6587
Au 4.17444 33.6011 23.108
Au 41.2137 23.4244 26.9226
Pt 19.5784 23.7681 18.1381
Au 38.4409 38.5694 33.4348
Au 41.077 17.2494 21.7757
Au 13.9237 43.9632 14.4831
Pt 15.5643 26.1104 9.08691
Pt 34.4239 16.4252 38.9325
Pt 28.5515 18.9555 34.758
Au 7.8993 27.9631 39.2638
Au 35.1861 40.5378 38.5345
Pt 26.5522 13.7809 7.82993
Au 38.341 11.0256 14.5409
Au 5.66481 19.0267 31.6272
Au 16.2029 13.1823 45.2728
Au 9.80391 11.2718 14.8081
Pt 32.1571 28.2037 9.13937
Au 41.3615 40.2957 16.0219
Au 33.9645 18.3125 12.5794
Au 35.4416 19.9469 32.4228
Pt 26.9559 13.6651 45.1723
Au 33.0098 9.04237 41.7539
Au 49.3471 30.1373 25.9529
Pt 17.5627 9.57304 32.1845
Pt 18.6844 28.8973 41.2795
Au 44.7285 21.7237 36.3663
Pt 21.2881 14.6996 11.0393
Au 29.1471 3.58413 33.1274
Au 18.7668 20.3083 19.6744
Au 7.52306 12.4501 16.3627
Au 23.955 17.9144 48.1326
Au 35.8285 11.615 40.7512
Pt 11.0681 31.9001 19.9166
Pt 16.6652 18.9257 21.2936
Au 10.0964 22.2006 40.6448
Pt 18.1463 42.6736 23.4561
Pt 34.0578 11.9921 35.4665
Pt 19.0253 8.71071 34.2691
Pt 27.699 33.7873 18.7286
Pt 24.2991 9.17098 32.4877
Au 21.2708 12.5046 31.0297
Pt 26.3625 15.7734 18.7599
Au 36.4504 10.7059 12.5788
Au 24.6782 18.4105 2.32771
Pt 18.2769 25.1783 30.4281
Pt 36.6249 23.9843 20.2563
Au 12.9093 8.0376 29.2057
Pt 18.9775 9.61206 39.6664
Au 10.1523 12.325 31.118
Pt 12.2276 16.3386 14.6308
Pt 27.1548 30.0421 7.56541
Pt 19.8652 30.4854 39.5571
Pt 16.7758 41.3946 17.0977
Au 23.4053 49.4522 22.5957
Au 8.83934 24.3765 41.4808
Au 30.1713 19.2462 6.28445
Au 20.6372 49.421 18.8355
Au 26.9173 48.3711 29.981
Au 36.8403 36.784 42.711
Pt 11.9786 22.5735 38.4489
Pt 3.52041 24.9394 25.3164
Au 42.7597 28.5445 37.8329
Pt 17.2276 15.5272 14.0702
Au 37.7166 25.7522 37.8402
Au 35.3684 26.6263 23.855
Au 24.6199 49.6224 24.9815
Au 30.7526 19.025 36.5463
Au 32.2793 39.7357 38.1156
Pt 17.7256 21.2491 42.305
Au 17.0881 47.8525 31.5274
Au 29.8722 8.67752 44.2518
Au 33.8681 41.1939 31.4601
Pt 24.5442 37.4412 9.86968
Pt 17.103 27.4964 37.0092
Au 40.6588 12.5015 20.4232
Pt 32.3387 16.2075 32.6789
Au 43.3501 18.3216 16.6144
Pt 28.0271 40.7821 23.5122
Pt 10.4893 25.6329 17.6699
Au 43.7596 14.7732 24.7336
Pt 12.8705 21.135 22.984
Au 27.826 9.57015 9.14161
Pt 25.8754 20.6205 45.9366
Au 11.172 25.0571 6.64808
Au 5.68504 35.9888 23.9317
Au 42.4074 29.8848 24.0053
Au 23.8513 33.2951 4.34768
Pt 4.54121 30.9553 22.5867
Au 34.7918 7.72847 29.5923
Pt 29.4821 45.0236 16.3607
Au 35.8955 18.6801 29.7973
Au 23.8257 21.9456 44.7918
Pt 26.1772 41.0738 12.5015
Au 35.2402 37.3643 15.0097
Pt 29.645 25.6126 27.4921
Pt 17.5717 19.8884 12.3447
Au 9.90867 7.69617 27.5277
Au 18.1224 41.9559 12.5765
Au 30.9839 40.8788 41.2734
Pt 28.4705 17.4981 7.5124
Au 39.0975 12.8513 27.5282
Au 13.2736 45.8077 22.8249
Au 13.1785 40.1697 11.2206
Au 39.6188 10.9421 25.414
Au 43.0668 16.4401 33.4505
Pt 12.538 25.3561 37.5812
Au 15.534 38.0952 40.8005
Pt 16.7218 43.3465 25.8121
Au 28.6017 33.0277 3.76004
Au 42.1621 26.7435 30.4697
Au 39.9681 37.4325 35.5602
Pt 25.9139 34.5915 36.6549
Au 36.6335 26.2901 28.9904
Pt 28.6209 28.0982 35.1163
Pt 29.7748 13.1321 30.3407
Pt 33.6586 24.7969 21.6889
Pt 31.2889 20.9144 19.3431
Pt 23.0186 17.8443 7.35805
Pt 12.5187 26.8478 39.9114
Au 15.3674 22.7481 4.40698
Pt 7.01244 20.4304 20.891
Au 24.4422 3.58208 17.9918
Au 23.4567 9.57739 6.40394
Pt 21.3788 43.5455 30.7631
Au 35.1046 11.3616 7.42327
Pt 21.4573 40.7777 30.0785
Au 21.4263 34.3803 5.8396
Au 34.5194 9.62394 39.473
Au 14.212 36.1781 7.60463
Pt 8.57957 22.0538 32.3098
Au 38.1033 25.8926 40.5236
Au 13.2016 38.0002 39.0955
Pt 27.7386 26.6226 14.2019
Au 25.2926 36.7635 7.20849
Au 26.3509 4.11284 19.94
Au 27.6684 43.2673 11.7026
Au 34.0841 20.8349 19.1448
Pt 23.7549 28.8694 18.4653
Au 32.0823 28.9488 44.3776
Au 31.82 3.53983 33.6487
Pt 17.8035 27.6743 19.988
Pt 11.3075 34.7673 33.5531
Pt 11.8391 11.985 24.4408
Au 38.7528 44.6865 30.9923
Pt 10.6963 24.668 39.4106
Au 7.23964 17.803 24.8368
Pt 27.3653 19.8018 6.85129
Au 31.8334 46.965 28.2766
Au 14.5155 29.1781 5.12421
Au 35.8608 38.9292 41.4025
Pt 15.4776 12.7511 33.0154
Pt 10.6164 26.8476 25.8119
Pt 7.97363 27.5103 25.3583
Pt 31.2075 22.185 39.4238
Pt 21.6366 10.4379 12.3393
Pt 14.1291 15.358 38.5183
Au 31.5043 23.2057 12.1388
Pt 21.8612 13.2637 24.4014
Au 35.662 18.3603 43.8688
Pt 30.6748 40.9706 31.2239
Pt 22.819 4.92186 34.3403
Pt 28.6585 40.1588 26.4775
Pt 29.3241 31.5874 31.0957
Pt 24.6244 22.1132 22.3418
Au 44.7952 24.7202 24.4286
Pt 18.5817 37.5674 33.2335
Au 31.7146 37.6896 40.0521
Pt 22.2727 11.4124 35.7845
Pt 24.6893 5.71635 16.0361
Pt 28.0075 36.1642 30.2506
Au 26.8606 2.28023 18.048
Pt 25.5117 17.9309 45.9075
Au 23.5908 46.4227 39.7
Pt 23.4307 43.8946 22.5844
Au 40.28 26.873 38.6708
Au 14.7956 31.4081 44.5473
Au 35.4725 31.4737 21.208
Au 44.6893 37.5626 24.5142
Au 7.4035 21.396 36.1895
Pt 21.0731 17.0699 42.9461
Au 26.6575 18.6819 48.1969
Pt 14.0167 23.4453 12.7474
Pt 33.9083 26.9274 28.8332
Au 40.0799 24.4603 37.2749
Au 40.1469 39.1127 23.3023
Au 20.0077 14.4495 42.9417
Au 32.891 21.9828 43.6166
Pt 18.4943 18.1763 37.5268
Pt 28.7818 23.2062 5.06753
Pt 9.70554 34.3808 26.0105
Au 36.4434 41.853 27.1202
Pt 22.6578 20.1814 35.4259
Pt 29.72 42.1952 25.0709
Pt 13.2208 21.0004 12.0322
Pt 4.57764 20.5481 19.8852
Au 19.0065 32.5358 45.4187
Au 7.29021 16.847 32.1686
Pt 23.3903 40.9185 12.5465
Pt 33.5537 20.6197 39.1913
Au 35.6169 29.3678 28.0818
Au 37.711 35.7611 32.5086
Pt 16.4147 11.6256 37.1716
Au 40.7152 10.6742 32.7503
Au 27.2756 12.7555 23.3486
Pt 15.1216 21.699 43.1078
Pt 26.9796 30.0849 37.401
Pt 22.6228 38.8116 11.1537
Pt 15.6309 41.0599 34.0594
Pt 24.3466 23.5296 9.65275
Pt 30.1353 25.1504 24.9669
Pt 21.7442 32.0634 13.4689
Pt 4.84792 32.0431 18.088
Au 41.093 10.8898 22.9044
Au 4.13899 34.1421 25.7337
Pt 21.5558 35.5664 37.4974
Pt 30.5751 20.5197 26.1841
Pt 12.4547 23.8429 16.9027
Pt 15.1758 27.2593 22.1944
Pt 13.9717 27.9907 24.4838
Pt 26.742 37.0451 41.5373
Pt 27.2491 36.7617 12.3705
Pt 20.9744 22.7173 7.03709
Pt 30.8403 30.2022 14.0768
Pt 8.68053 35.5154 20.7026
Pt 32.0818 41.2278 33.5334
Au 24.8029 23.7627 3.78911
Pt 24.4907 19.4894 31.0549
Pt 20.5004 20.3793 38.37
Pt 20.5196 10.5991 21.0578
Au 31.1481 22.1419 9.46098
Pt 36.1781 23.9282 17.6819
Au 23.0517 9.5939 42.58
Pt 16.0455 11.4215 26.033
Pt 14.1684 11.5103 19.4809
Pt 19.8778 39.8096 40.0387
Au 22.6663 36.4575 7.91383
Pt 24.9811 11.5237 16.7664
Au 7.26234 32.4548 14.8401
Pt 23.2812 28.7154 35.3854
Au 43.2024 37.9267 19.5471
Au 25.5357 49.1282 27.4547
Pt 27.4898 11.2368 38.1627
Pt 24.9297 26.6819 30.1537
Pt 17.3806 29.8131 38.5489
Au 43.8797 28.4451 20.6155
Au 37.3507 23.6127 35.9048
Au 33.3357 21.0248 13.0201
Au 40.1196 30.9549 22.9761
Au 48.8437 35.6529 25.7208
Au 15.0578 6.21821 16.8031
Au 19.9331 42.4774 10.4888
Au 29.5097 38.0305 42.1329
Pt 13.2395 32.6842 21.3535
Pt 23.1025 17.3007 44.9329
Au 39.2376 30.783 10.3608
Pt 26.8467 11.1906 7.3397
Au 40.2914 37.7195 20.2824
Au 34.1011 33.7128 46.5283
Au 37.1015 26.9132 11.1092
Au 32.7249 9.25733 23.9134
Pt 33.6113 22.584 40.8916
Pt 31.4085 23.6763 20.025
Pt 6.62481 32.0949 20.1852
Pt 23.3254 14.1186 32.3605
Au 35.1529 18.8042 26.9561
Pt 26.7597 8.35808 25.3013
Au 42.7963 32.1163 10.7203
Pt 21.7107 23.6529 45.1975
Au 35.2255 5.04931 29.4778
Pt 12.7706 15.3932 30.3271
Pt 15.4488 26.2591 19.6084
Au 40.1483 24.082 40.0605
Au 18.9 3.51762 27.7754
Au 5.03688 16.043 20.0931
Pt 28.327 37.8815 28.2041
Pt 18.5034 35.6812 13.0218
Au 17.5252 3.47564 34.405
Pt 20.0803 36.6627 30.4778
Au 34.9839 32.0469 27.6895
Pt 11.4704 35.4148 27.6509
Pt 10.8946 29.5969 21.0699
Pt 25.9691 35.3792 24.6971
Au 14.4554 14.8639 44.0054
Pt 21.991 34.7765 12.9891
Au 39.5807 22.644 31.6781
Au 16.7117 12.5019 18.9971
Au 43.2686 16.0507 36.1443
Au 28.6314 40.3736 7.60943
Au 37.4062 28.765 24.954
Au 41.2968 30.1848 12.1328
Au 8.36979 17.3611 11.6363
Pt 16.7776 18.3458 29.6082
Pt 19.6798 31.122 36.9359
Pt 15.5375 23.6754 19.7829
Pt 19.7003 14.5261 32.1699
Pt 22.0622 24.7901 18.0632
Au 21.8491 47.8733 20.8342
Au 22.5031 46.7579 15.6937
Pt 16.1424 33.5467 22.5135
Pt 22.6528 10.3748 16.9458
Pt 17.4634 16.0472 35.8653
Au 38.9116 31.1343 13.4321
Au 35.9038 40.5548 21.5333
Au 29.1954 40.3608 17.8594
Au 37.2022 10.2683 26.6463
Pt 14.6571 34.8135 12.0161
Au 35.6767 16.6792 7.54249
Au 29.7521 5.77342 31.5711
Pt 12.7407 11.274 26.9884
Au 48.3606 33.9988 28.1238
Pt 17.9778 42.8438 33.2243
Pt 37.5228 35.4989 24.9018
Au 11.2221 9.32037 16.104
Pt 11.2136 30.5371 17.6835
Au 44.7998 30.4967 19.0082
Au 40.6912 36.3196 27.3522
Pt 18.4957 8.63604 29.8372
Pt 32.8984 27.6116 31.6239
Pt 13.5189 25.0028 34.9198
Au 34.7416 37.9335 44.0479
Pt 27.2815 31.5746 17.1377
Pt 10.2072 16.6294 36.5595
Pt 16.4023 10.0187 39.2678
Au 44.8285 29.6597 32.9896
Au 31.4907 29.1605 16.4942
Au 40.333 32.8134 11.8555
Au 23.2156 5.67209 11.9228
Au 40.819 15.3299 34.663
Pt 25.7884 29.5984 16.8161
Au 2.34201 31.8155 18.9033
Au 32.7878 29.1415 26.885
Au 41.1346 15.6427 23.992
Au 17.0694 22.1696 44.9136
Au 21.9067 34.0209 45.1909
Pt 25.731 19.6028 21.0246
Pt 12.5034 35.3288 25.0766
Pt 18.5006 40.28 33.5246
Au 43.6828 14.0724 18.1207
Au 24.3941 34.5513 33.8474
Au 35.3584 41.6778 41.0655
Au 29.5025 47.8735 29.1753
Au 39.0207 44.8913 16.7749
Pt 20.4642 41.062 24.1247
Pt 20.7609 31.5598 31.7811
Pt 26.7165 28.726 44.508
Pt 13.0848 13.5526 20.9876
Pt 22.1425 42.653 17.3583
Pt 23.5298 46.6224 22.6631