3871
Atoms. Timestep: 21197
Au 13.6379 5.79824 21.885
Pt 6.83499 10.5705 28.9364
Pt 8.43772 12.0086 26.9661
Pt 6.77871 11.6895 31.4668
Pt 6.81921 14.0084 29.9922
Pt 8.65739 10.9579 33.2065
Au 18.3858 4.75725 24.4655
Pt 5.14825 13.6422 32.104
Pt 6.8586 14.5478 17.6774
Pt 10.4576 10.8109 22.3352
Au 4.54157 15.8094 19.2674
Pt 5.85243 12.4726 27.5876
Au 9.52924 8.24693 20.8821
Pt 9.28782 9.64707 25.9333
Pt 6.23471 12.2803 22.1946
Pt 6.77015 14.031 20.1778
Pt 9.08274 15.7653 30.7828
Au 4.2634 14.2557 25.878
Pt 5.14659 16.7619 26.9958
Au 7.54812 10.02 21.5786
Pt 4.31557 15.8325 33.2442
Au 4.58474 12.2538 29.9055
Pt 9.07558 14.4022 28.4168
Au 4.61335 13.7575 34.8622
Pt 10.2912 12.102 15.816
Au 2.85675 18.5619 20.5024
Pt 7.90797 16.7437 16.0147
Pt 7.19929 11.6483 19.1805
Pt 6.92632 18.4584 23.0716
Pt 6.80558 16.2142 21.5231
Pt 5.68355 18.426 20.7076
Au 4.2816 13.8197 21.0722
Pt 4.19425 16.6998 24.4144
Pt 6.90506 14.6762 26.8933
Pt 5.30041 14.6389 23.3198
Au 3.02182 16.9272 29.1325
Pt 5.28101 18.4719 29.1945
Au 3.09743 14.7082 30.8377
Pt 7.23282 18.5031 27.0818
Au 3.47696 17.9738 31.7765
Pt 5.44754 19.897 31.6137
Pt 4.66659 14.7036 28.5884
Pt 7.14104 16.4312 28.8444
Au 3.88952 19.7669 33.89
Pt 6.4753 17.471 37.1946
Pt 9.48353 17.7487 37.6651
Pt 9.26792 17.559 32.9541
Au 9.71057 17.7299 41.5797
Pt 6.49335 18.8961 16.4649
Au 6.73833 14.5516 14.908
Pt 9.92349 16.8183 11.6756
Pt 9.98341 15.382 13.9606
Pt 4.49751 18.5242 18.3675
Au 3.90042 18.5842 15.7505
Pt 9.21632 14.4715 16.2528
Pt 4.18714 16.5727 21.8358
Pt 4.47629 21.8556 22.7589
Au 2.14167 20.6968 22.105
Au 2.35929 18.615 24.6347
Pt 3.41888 18.8429 27.1918
Au 2.87358 21.5987 27.6114
Pt 4.30755 19.1949 22.8314
Pt 6.61014 20.7235 21.7486
Pt 5.33971 20.5451 27.176
Pt 5.31096 21.6501 29.5737
Pt 7.46354 19.9813 29.3161
Pt 6.54692 21.0451 24.5386
Au 3.11965 19.9886 29.8397
Au 3.54263 21.9635 31.8807
Pt 5.94115 17.8247 33.3914
Au 7.43385 21.7913 31.4162
Pt 6.03702 19.5126 35.5324
Pt 7.64739 19.8141 37.6821
Pt 7.22245 22.5612 38.0606
Au 4.97173 21.8655 36.4328
Au 4.27314 17.411 35.4858
Au 7.66766 17.8652 39.6642
Pt 9.68112 19.7412 39.6404
Pt 11.7067 19.6987 41.4093
Au 7.90891 23.0388 42.6415
Au 11.412 21.4852 7.07778
Pt 11.5499 23.0068 9.3204
Au 12.8687 23.3709 4.99076
Pt 8.83808 17.781 13.8483
Pt 10.2205 19.6522 12.2966
Pt 7.30974 21.2873 16.2396
Pt 11.8185 20.2896 9.67952
Au 7.87603 18.5782 11.3484
Pt 7.5749 20.1256 13.5273
Au 5.15711 20.5795 14.5202
Pt 6.82599 22.6626 14.0266
Pt 5.57966 23.2012 20.6322
Pt 3.97356 23.223 18.5024
Pt 4.5452 20.8231 20.1297
Au 2.24104 21.0662 19.147
Pt 3.66506 20.9009 25.0849
Pt 2.86423 23.0954 20.9532
Pt 6.79056 23.3202 22.9207
Pt 7.41491 24.9162 19.8855
Pt 4.72289 23.3487 25.017
Pt 5.33161 23.4124 27.5062
Au 7.59995 21.706 27.2726
Pt 7.3875 23.6065 25.51
Pt 3.4681 23.5303 29.3958
Pt 5.15572 25.5611 29.3433
Pt 5.75127 21.74 33.7001
Pt 7.35085 23.6364 29.2845
Pt 5.47826 23.7371 31.298
Au 7.70794 21.3836 40.4102
Pt 7.7019 21.597 35.554
Au 7.62082 23.7856 33.4397
Pt 10.1879 22.1761 41.344
Au 5.43729 29.0062 37.4387
Au 7.16571 26.6244 41.8607
Pt 7.87308 25.1402 37.817
Pt 9.45744 27.9192 42.3025
Pt 9.55693 24.8895 41.5612
Pt 13.6319 21.584 41.3959
Pt 14.0446 25.4427 42.9859
Au 8.72226 25.7414 43.9746
Au 9.07015 23.129 8.29868
Pt 6.92636 26.9286 12.5642
Pt 11.2571 25.5769 9.87818
Pt 13.6329 23.0567 7.50756
Pt 7.16441 24.9721 10.8698
Pt 7.29379 28.8297 14.3274
Au 7.10521 22.3361 11.4125
Au 5.63885 29.1567 11.877
Au 4.07156 25.9422 15.8618
Pt 6.99585 26.339 15.2866
Pt 8.28199 24.7218 13.4208
Pt 9.52335 27.2707 13.7793
Pt 5.75609 25.2647 17.7554
Pt 3.71335 27.1454 18.2515
Pt 4.1803 25.3671 20.0402
Pt 5.86785 28.2118 16.7272
Pt 4.39985 24.5748 22.625
Pt 3.75607 27.6752 21.2935
Pt 6.28017 25.6187 24.367
Pt 6.06572 26.3119 21.7665
Au 4.72005 27.8 14.0949
Pt 3.07223 25.7891 24.3926
Pt 7.13334 25.6974 27.4585
Pt 4.64937 25.8336 26.469
Au 2.55224 24.099 26.5732
Au 2.60164 26.0531 28.5931
Pt 7.32714 25.5486 31.3211
Pt 6.60086 27.6348 29.963
Pt 6.47426 24.0044 35.8368
Au 3.85154 24.5115 36.135
Au 8.34574 30.4392 42.5472
Pt 8.44788 26.3027 35.4705
Au 5.23568 24.4146 38.4429
Pt 7.65695 30.4239 37.9325
Pt 9.10338 26.6896 39.8283
Pt 10.3487 26.1673 37.5466
Pt 7.26466 24.3816 40.3036
Pt 10.158 29.0351 38.3893
Pt 13.8466 27.9571 42.1616
Pt 10.6022 27.3049 44.9645
Pt 7.93657 29.0078 40.1778
Pt 14.7883 28.1054 46.6076
Pt 13.3831 28.39 6.69522
Au 5.4403 24.8866 13.4651
Au 7.32097 27.7731 9.87693
Pt 8.47713 29.162 11.8762
Pt 11.2756 24.3821 7.18651
Au 4.25324 34.9396 16.2383
Pt 5.14959 30.3222 15.0019
Pt 9.20346 28.188 16.1317
Au 6.21389 35.0255 14.2188
Pt 5.54352 30.86 17.6092
Pt 4.46801 29.4304 19.4303
Pt 6.08478 27.3631 19.3394
Au 3.47828 32.1534 16.1328
Au 2.03492 25.6339 21.8834
Au 3.33489 29.3213 16.7547
Pt 4.14853 30.3072 22.9169
Pt 6.09393 29.0637 21.622
Au 2.21773 23.1455 23.751
Pt 4.83709 27.7172 23.7992
Au 2.92415 25.1097 31.46
Pt 6.61836 27.8635 25.9234
Pt 4.51554 24.084 33.6193
Pt 3.66403 27.9566 30.1806
Pt 4.92881 26.6399 32.0427
Pt 4.88888 27.9688 27.8681
Pt 6.20409 26.0271 34.1537
Au 3.43957 26.5227 34.3554
Pt 5.74165 26.5441 36.6291
Au 2.89371 28.7116 32.7297
Pt 6.34324 26.8348 39.2993
Pt 7.45182 28.8513 35.3755
Pt 8.03924 27.812 37.6268
Pt 7.27239 27.9125 32.7647
Au 7.87681 33.1115 37.2418
Pt 10.2857 30.1934 40.8107
Pt 11.9037 35.4137 39.9007
Pt 11.0616 32.1344 9.91678
Pt 6.80267 31.1835 13.1968
Pt 10.2179 34.9464 14.0415
Pt 8.22206 33.0036 14.169
Pt 9.0347 31.9718 11.7985
Pt 6.05292 32.9082 15.8119
Pt 6.43718 35.0381 17.787
Pt 6.93837 30.9603 20.0253
Pt 8.33929 34.5169 16.2013
Pt 4.65236 33.258 18.3729
Au 2.24534 31.0923 24.6957
Au 2.41435 27.5547 26.2933
Au 2.93834 33.9369 24.7379
Pt 7.76801 27.7541 23.5261
Pt 6.45832 29.9857 24.2086
Au 2.22749 28.398 23.5367
Au 5.05767 37.5292 25.7902
Pt 4.15084 29.475 25.6874
Pt 6.93823 34.3138 29.684
Pt 5.27135 29.326 31.7508
Au 3.90738 33.6294 31.8644
Pt 5.82748 31.9589 31.2721
Pt 6.10545 35.2836 31.9914
Pt 10.8691 33.1218 35.952
Pt 7.82606 33.2507 32.0953
Pt 5.10594 28.6443 34.4187
Pt 7.1219 30.7733 33.4172
Pt 9.98558 34.3681 38.3268
Pt 13.0501 42.3189 16.63
Au 6.09076 37.0982 16.1518
Au 5.88161 38.7015 21.0825
Pt 8.61544 37.0163 16.9903
Pt 5.58156 36.0582 21.278
Au 4.41588 36.2976 18.8021
Pt 5.57508 34.893 25.0315
Pt 6.35304 33.7992 20.337
Au 3.90458 36.305 23.4324
Pt 4.83158 33.858 22.6921
Au 8.77285 40.0101 28.2874
Pt 7.77978 36.1075 25.5788
Au 8.63845 34.5009 27.5459
Au 4.48466 35.6305 29.8305
Pt 6.90632 36.9963 30.0185
Pt 6.1843 36.0049 27.6738
Au 13.8568 45.7303 23.9922
Pt 4.41518 31.1134 33.4029
Pt 9.65641 35.3985 35.8079
Pt 8.43224 32.7742 34.6768
Pt 13.376 38.6289 18.4195
Au 9.62961 42.7967 22.4787
Pt 10.8279 40.66 17.365
Pt 8.06129 37.0016 21.501
Pt 8.72959 39.3154 18.2806
Pt 7.00308 37.3297 19.0695
Au 16.552 46.1385 29.6916
Pt 9.21418 37.4965 23.9855
Pt 13.3419 39.4291 21.2271
Au 19.7062 47.4002 28.4256
Pt 13.4163 40.6753 25.917
Au 9.02911 41.5923 26.0043
Pt 11.4556 41.0691 21.7992
Pt 13.5563 43.3159 25.1977
Pt 13.8403 42.5187 27.8023
Pt 9.15532 8.90281 23.4686
Pt 12.1705 10.0621 20.5534
Pt 13.3735 9.77965 18.1422
Pt 11.664 9.50168 26.9696
Au 24.1729 3.49885 25.2883
Pt 15.8928 5.94392 23.7813
Au 10.5681 7.17752 25.0164
Pt 15.1022 7.64661 30.1558
Pt 8.45624 11.5283 23.9519
Au 6.61472 10.3069 25.8812
Pt 13.9248 9.40173 25.4111
Pt 10.5542 8.30581 30.5301
Au 8.12844 9.338 31.0436
Pt 10.4259 10.948 31.0837
Pt 12.9142 8.71632 31.7122
Pt 10.692 9.24323 33.049
Pt 7.72597 12.3567 16.5138
Au 10.9556 8.4743 18.551
Au 9.00447 10.1323 17.1896
Pt 9.67363 10.6305 19.6891
Pt 9.20985 13.1272 18.608
Pt 11.649 9.49436 24.2807
Pt 11.5594 11.7687 18.0582
Au 10.9024 11.9223 25.3261
Pt 7.84121 14.2112 22.9865
Au 10.9789 12.1395 28.2537
Pt 8.69607 12.4662 21.2737
Pt 6.4692 12.8792 24.9456
Au 2.52343 16.3895 26.4676
Au 7.61346 8.40175 27.6184
Au 9.09396 14.094 25.2975
Pt 8.64222 12.1901 29.6899
Pt 7.00921 15.4962 32.4676
Pt 8.80457 13.4109 32.0834
Au 11.072 13.713 30.6786
Pt 6.97468 13.0954 33.8978
Au 6.92479 13.4453 36.5911
Pt 9.14065 12.6324 35.3085
Au 10.9829 12.3192 33.3635
Au 10.6807 10.3673 35.5243
Pt 12.8489 13.7204 10.7872
Au 10.0277 14.051 11.4268
Au 13.8905 11.6727 9.16287
Au 5.16467 16.3389 16.4727
Au 8.6802 12.9316 13.7678
Au 10.3531 10.4271 13.711
Pt 11.458 12.9374 13.4195
Pt 9.064 15.9903 18.4132
Au 6.78603 17.1334 18.6901
Pt 11.2947 14.7008 18.433
Au 11.8218 14.3807 15.7075
Pt 9.22021 15.0084 20.7404
Pt 5.40218 18.7802 25.2185
Au 9.19471 16.5507 22.995
Pt 11.6 15.726 21.3896
Au 6.93525 16.3211 24.7526
Pt 9.3872 17.8938 29.0878
Au 9.12092 16.5129 26.6463
Au 11.3013 16.0792 24.689
Pt 5.26415 16.2277 30.7201
Au 7.36043 17.9757 31.1035
Au 11.1723 15.5912 32.7886
Au 11.3586 15.8999 29.0307
Pt 8.83608 15.1401 34.1903
Pt 8.95334 15.32 36.7451
Pt 11.1354 14.441 35.2153
Au 11.0135 17.3245 35.2857
Pt 6.38019 15.6659 35.1888
Pt 11.7589 21.3576 43.4941
Au 7.07704 15.3509 38.5474
Au 9.62617 15.6314 39.5954
Pt 11.5918 17.6912 39.5855
Pt 12.754 17.876 8.5269
Au 13.5463 15.8501 6.84538
Pt 14.5107 19.0364 10.3021
Pt 13.8432 16.255 10.4003
Pt 12.1273 18.1807 11.2268
Au 11.738 11.363 11.1929
Pt 11.4211 15.8249 9.79193
Au 10.0186 18.3049 9.41534
Au 7.65954 15.6687 12.5816
Au 10.7531 17.0013 16.3163
Pt 11.5786 17.9643 13.9121
Pt 8.94231 18.6136 17.8204
Pt 6.91293 20.0859 18.9694
Au 11.2183 17.5521 19.2494
Au 9.39403 21.1949 18.3333
Au 8.69133 18.2442 20.628
Au 9.11448 20.3852 22.5398
Au 11.2139 18.3286 22.7713
Au 11.0656 20.1124 20.4924
Au 8.94846 18.6928 24.8463
Pt 9.55882 19.8248 27.2684
Au 11.4767 17.8079 27.0386
Pt 11.5258 19.7493 25.1857
Au 9.47088 19.8406 31.2193
Pt 7.6989 19.7699 33.4192
Au 11.3496 17.7321 31.106
Au 11.4594 19.794 29.174
Pt 8.08124 17.6222 35.2537
Au 11.3006 19.5431 33.35
Au 11.576 15.6956 37.6684
Au 13.251 19.4113 35.3444
Pt 9.57026 19.674 35.5864
Pt 10.3336 23.6059 43.704
Au 11.4074 22.5903 45.9134
Pt 11.5129 19.531 37.5316
Au 9.29225 20.1983 42.7401
Pt 13.8229 19.7522 43.3711
Pt 15.851 19.9285 45.2286
Au 13.456 20.8302 45.9196
Au 19.9036 13.9194 46.6246
Pt 13.8768 20.365 8.0155
Pt 15.5224 24.175 9.62248
Pt 17.7943 24.2943 8.04086
Pt 15.5632 22.6796 5.49522
Au 9.20205 21.0299 10.1753
Au 9.41557 19.743 15.4366
Au 13.6305 20.4168 12.4681
Pt 13.8437 22.0377 10.1142
Au 6.11012 17.7145 14.0268
Pt 9.26888 22.1009 13.0925
Au 11.7097 20.9147 14.4623
Au 14.9991 24.1411 15.6536
Au 4.53709 20.9044 17.252
Pt 9.70801 25.4071 15.7627
Pt 6.60909 22.6622 18.3219
Au 9.75016 22.5502 15.6878
Pt 8.18128 22.3695 20.5257
Au 9.40291 23.2446 23.1948
Pt 11.544 21.5252 23.1354
Au 10.7543 22.9112 20.8781
Au 9.38678 21.5059 25.177
Au 9.44064 23.8548 27.2359
Pt 11.4246 21.7692 27.1971
Au 11.3515 23.7111 25.1856
Pt 9.48543 21.8535 29.226
Au 9.4733 23.7446 31.2249
Pt 11.4464 21.7247 31.2063
Au 11.4675 23.7853 29.1986
Au 9.52783 21.7631 33.409
Pt 9.30288 23.7449 35.8692
Au 11.4223 21.7009 35.3895
Au 11.3989 23.7623 33.2646
Pt 9.65438 21.538 37.5475
Pt 9.54869 23.6041 39.1817
Pt 11.6557 21.5787 39.3521
Pt 11.4865 23.613 37.3794
Au 14.0026 17.9336 45.422
Au 13.7822 23.4278 47.0761
Pt 16.3913 24.5008 43.6372
Au 12.297 23.7843 41.856
Pt 12.1173 24.9827 45.0243
Pt 14.9375 25.3946 45.6963
Pt 15.5334 24.8927 6.9181
Pt 8.93178 25.7379 8.83983
Au 17.4803 26.4702 9.78367
Pt 17.6982 26.7892 6.84549
Pt 9.49628 23.7539 10.9395
Pt 9.2847 26.3909 11.4341
Au 13.3658 23.0773 13.7101
Pt 13.4427 25.501 8.60227
Au 11.9214 26.907 12.1121
Pt 7.52846 23.9982 16.2375
Au 10.9777 24.4918 13.2953
Pt 13.1904 24.3806 11.2335
Au 4.8747 23.2656 15.8552
Au 8.40284 26.437 17.9317
Au 11.9914 25.8692 18.0772
Pt 10.5832 28.1324 19.0071
Au 9.62826 23.9018 18.2271
Pt 8.477 25.5009 22.29
Au 11.3221 25.3223 22.9043
Pt 12.6616 26.8512 21.0046
Au 9.10204 25.7354 25.0351
Au 9.31899 27.5418 27.1646
Pt 11.4528 25.7317 27.2068
Au 11.23 27.55 25.1461
Au 9.23577 25.7725 29.2565
Au 9.43979 27.8706 30.9943
Au 11.5171 25.8018 31.1316
Au 11.4698 27.8009 29.0582
Au 9.47548 25.9548 33.093
Au 10.5938 28.2546 35.7771
Pt 11.3667 25.5926 35.2046
Au 11.6828 27.7213 33.1439
Pt 11.5533 25.3628 39.747
Au 11.7467 27.9596 40.4665
Pt 11.512 26.2632 42.6721
Au 12.7238 28.2951 37.8951
Au 14.881 29.0348 39.8909
Au 11.9387 31.5263 45.3631
Au 12.8025 26.3252 47.2087
Pt 15.7876 31.7999 44.5597
Pt 11.642 29.1097 43.1654
Pt 13.1544 27.3491 44.6796
Pt 13.2447 25.8007 5.97919
Pt 10.0928 28.0933 9.63005
Pt 15.3438 27.2928 8.1659
Pt 15.3895 27.2289 5.46647
Au 12.8994 28.1172 9.53544
Pt 11.3035 26.964 7.57078
Au 13.6255 31.4448 10.6031
Pt 14.1558 30.3467 8.21408
Au 11.1107 29.878 11.4013
Au 9.5953 30.5261 14.0638
Au 11.7021 28.9255 14.0611
Au 13.6701 29.0293 12.0986
Au 7.84729 29.2224 18.2615
Pt 8.32376 27.8039 20.6147
Pt 9.70317 30.5265 19.8121
Pt 10.0387 30.4494 17.125
Au 10.2347 25.6859 20.249
Au 9.87401 32.3891 23.0978
Au 10.3296 27.7387 22.4111
Au 8.69087 30.0512 22.2868
Au 8.77872 29.7338 25.503
Pt 6.14559 30.8069 26.7526
Au 11.3885 29.7738 26.9176
Au 11.0431 29.9825 23.8918
Pt 7.49375 29.1702 28.14
Pt 5.17451 30.2671 29.1981
Au 11.8083 31.7926 29.046
Pt 11.327 33.9545 27.4811
Au 9.45969 29.2299 33.455
Pt 9.29731 30.6655 35.929
Pt 10.9909 31.3633 34.0034
Au 9.78195 30.0495 29.25
Au 12.2498 30.6343 36.3946
Au 8.12665 31.8979 40.1485
Pt 12.3642 30.6398 39.3236
Pt 12.4544 32.973 38.0898
Pt 13.9199 29.891 44.4771
Pt 13.2947 30.6042 41.7602
Au 12.1183 29.0604 46.4762
Au 14.6806 30.8473 46.9512
Au 9.76568 29.8663 44.7886
Pt 10.9454 31.674 42.8334
Pt 15.5678 32.3568 7.09746
Pt 9.03664 30.4414 9.48811
Pt 8.0485 34.6768 12.2619
Au 11.4353 29.9617 8.01022
Au 8.40035 33.3208 9.60865
Pt 11.6746 36.4623 10.1601
Au 9.23838 39.3913 15.4997
Pt 10.3528 34.3877 11.2684
Au 11.0266 40.1472 13.2925
Pt 7.69892 30.8303 15.9742
Au 6.75947 32.0255 22.5197
Pt 7.54887 32.5889 18.0555
Au 10.4497 32.8042 15.626
Au 2.73573 31.3691 18.6625
Au 2.48351 32.4929 22.3653
Au 2.28957 29.9825 21.0299
Pt 8.847 32.9173 20.7216
Pt 4.92678 32.155 24.765
Au 2.71195 29.6161 28.1976
Pt 6.07622 33.3867 27.1297
Au 9.47352 31.8771 27.1333
Au 3.77382 34.9014 27.1775
Au 3.47 32.0148 27.0416
Au 9.72689 33.295 29.9473
Pt 7.43971 31.8643 28.9909
Pt 7.62013 29.9598 30.8678
Au 5.77713 33.4031 33.9931
Pt 9.5568 31.374 31.8261
Pt 12.1343 35.138 31.7936
Au 11.3602 34.3911 42.5005
Pt 10.6683 32.8641 40.4371
Pt 12.1136 35.4215 37.0578
Au 10.273 37.099 38.0166
Au 6.0114 31.2593 35.8343
Au 13.9758 33.3386 45.9147
Pt 13.235 33.1622 40.712
Pt 12.0615 38.3 11.7894
Pt 8.30669 36.6945 14.4287
Pt 10.8619 37.6409 14.3171
Au 9.91773 32.1536 7.55356
Pt 12.4928 39.5391 15.6448
Au 10.7837 42.0603 15.1794
Pt 11.1065 37.9296 17.2237
Au 3.40126 34.4028 20.499
Pt 14.752 40.3017 16.8403
Pt 8.4986 39.5997 20.9387
Pt 7.69826 38.8662 25.6845
Pt 4.5209 31.8102 20.7213
Pt 8.55222 35.0239 19.2463
Pt 6.46446 37.2784 23.5693
Pt 9.4438 40.2718 23.5191
Au 7.74327 32.6524 25.0984
Au 9.93692 34.5198 24.8107
Au 3.14987 30.9367 30.8834
Pt 8.58283 37.3084 27.9113
Au 10.6466 35.8258 29.2812
Pt 4.57574 32.9738 29.2526
Pt 10.2728 33.8852 33.1352
Pt 10.2139 36.689 33.1339
Pt 12.0538 35.3213 34.532
Pt 8.85606 35.5665 31.2361
Pt 10.0728 31.6654 38.2096
Pt 13.824 35.2808 42.1084
Au 6.91156 39.8768 23.2756
Pt 15.335 40.0928 14.3156
Pt 9.85419 37.1472 19.5114
Pt 12.3203 36.9571 20.7486
Pt 11.1202 39.3475 19.6555
Au 15.371 42.5937 12.7224
Au 6.28429 38.7194 27.9904
Au 14.3152 38.0545 23.4938
Au 10.0803 35.2785 21.9573
Pt 10.4987 38.3254 21.9565
Au 11.8929 36.6116 23.6764
Pt 15.4991 39.2845 26.8594
Au 13.2452 36.5768 28.325
Pt 13.422 44.0069 18.7628
Pt 11.4295 41.0504 27.6552
Pt 12.0338 39.3932 23.8476
Au 11.1214 38.4632 28.411
Au 18.1353 44.5344 35.0837
Pt 7.9509 35.3194 33.8815
Au 16.9463 43.3371 37.2465
Pt 9.25277 38.1682 30.5005
Pt 9.78048 41.5861 19.7257
Pt 12.3905 43.4883 22.9058
Pt 16.2817 45.8287 22.5202
Pt 15.2589 43.4615 22.9731
Pt 15.696 44.218 20.2529
Pt 11.3169 41.8431 24.6848
Pt 14.5104 41.7794 30.4213
Pt 14.9243 8.72713 13.2821
Pt 13.3617 7.76103 20.0173
Au 15.0354 6.78921 15.309
Pt 15.2036 7.79496 17.9212
Pt 13.9171 9.25563 22.4033
Pt 11.6856 7.85757 22.242
Au 21.9701 6.15154 10.6175
Pt 18.1214 7.15086 22.9383
Au 14.5782 5.66019 28.413
Pt 16.003 8.71714 23.9034
Pt 13.3985 7.17825 24.1016
Pt 14.3563 8.83848 28.0066
Pt 12.5856 7.28855 29.3554
Au 17.94 4.99167 29.3515
Pt 12.66 7.09308 26.6951
Pt 9.54547 9.88735 28.6739
Pt 12.9601 10.4626 33.6915
Pt 15.574 7.613 32.7187
Au 15.8011 5.21683 31.0811
Pt 13.4239 7.83355 34.2186
Pt 13.3025 9.54399 36.2827
Au 12.1605 11.0566 38.1384
Au 15.3029 5.75891 34.633
Pt 15.2436 7.69265 36.5393
Pt 13.9472 13.6664 13.4426
Pt 16.9832 9.06729 14.7963
Pt 16.2308 10.2924 9.82626
Pt 14.409 9.47011 15.8078
Pt 11.6 9.77898 16.1224
Pt 15.3534 11.3951 14.2493
Au 16.9556 6.5722 13.3601
Pt 13.1159 11.9651 15.6989
Au 11.3211 12.8943 20.5407
Pt 15.3905 9.59289 19.9342
Pt 15.3661 11.6103 17.3693
Au 12.9081 11.7371 23.1851
Pt 10.6025 13.6385 23.0426
Au 15.4029 11.5392 21.8433
Pt 13.8225 11.9356 19.5996
Au 13.3475 11.6991 26.8465
Pt 11.3013 14.3624 26.8276
Pt 17.7142 7.06606 25.6765
Au 15.3416 11.6628 24.9148
Au 12.4933 10.0762 29.4184
Au 13.0861 11.8852 31.3048
Au 15.1711 10.0421 31.31
Au 15.1812 11.5723 29.0015
Au 13.3518 6.14139 31.9253
Au 12.6839 12.273 35.6751
Au 15.3688 9.68025 34.5838
Pt 15.2696 11.9529 33.1531
Pt 10.642 13.1606 37.4412
Pt 14.1585 11.8861 39.5886
Pt 14.9922 9.50794 38.5443
Pt 15.0098 11.5495 36.9017
Au 11.7938 13.577 39.8293
Pt 17.2882 14.6747 8.99285
Pt 17.1864 12.5472 10.5962
Pt 17.1243 17.4492 6.54931
Pt 15.453 14.3557 11.1589
Au 13.7792 9.43169 10.9537
Au 12.4792 8.09416 14.2236
Pt 15.4978 16.7814 8.49364
Au 12.7823 7.31905 16.8809
Pt 12.9871 10.6127 13.4452
Pt 15.572 13.7144 15.5423
Au 13.7195 16.0399 15.0639
Pt 13.663 13.7352 17.5365
Au 13.5681 15.7507 19.3467
Pt 15.631 13.8407 19.3238
Au 13.4158 17.6071 17.256
Au 13.6366 13.8773 21.467
Pt 13.5361 16.0118 23.1613
Pt 15.4663 13.952 23.3225
Pt 15.5762 15.8601 21.2348
Au 13.1854 13.896 24.9186
Pt 13.4359 15.895 27.0626
Au 15.3118 13.7332 27.0514
Au 15.4114 15.8588 25.195
Au 13.2614 13.7302 28.9409
Pt 13.326 15.7271 31.0347
Au 15.2589 13.7048 31.0383
Au 15.3189 15.741 29.1314
Au 13.26 13.879 33.243
Au 13.4017 15.8762 35.4085
Au 15.1547 13.747 35.2972
Au 15.2676 15.7631 33.1527
Pt 13.5769 13.7705 37.76
Au 11.7552 18.0236 43.5509
Pt 15.8047 13.9731 39.5054
Au 15.4777 15.778 37.4271
Pt 15.7165 15.921 41.4101
Pt 13.6607 17.761 41.4882
Pt 13.9192 13.9359 41.4865
Pt 15.7156 17.8273 43.3197
Pt 18.162 13.9971 44.6887
Pt 16.286 14.8966 6.62226
Pt 16.4358 19.3268 8.52378
Pt 18.278 17.2908 9.06442
Pt 16.4189 20.1838 5.90224
Pt 14.599 14.222 8.67843
Au 14.1753 17.5604 12.8323
Pt 16.3114 17.1562 11.0229
Pt 15.9523 22.0299 8.08363
Pt 12.2472 15.6042 12.579
Pt 13.8313 19.2112 14.9791
Pt 15.9602 17.5555 15.161
Pt 16.1275 19.3223 12.9191
Au 11.5857 19.7467 17.0919
Au 13.4985 19.7616 19.065
Au 15.5729 17.7484 19.148
Au 15.6123 19.5889 17.023
Au 13.4355 17.8715 21.1126
Au 13.5284 19.772 23.0785
Pt 15.5026 17.8148 23.1527
Pt 15.5084 19.7613 21.1227
Pt 13.4322 17.8583 25.0807
Pt 13.4053 19.7954 27.1889
Au 15.4001 17.8182 27.2048
Au 15.4316 19.7767 25.1713
Pt 13.403 17.8032 29.1457
Au 13.3572 19.6825 31.2632
Pt 15.3199 17.6678 31.1604
Au 15.3844 19.7368 29.2637
Pt 13.2719 17.5933 33.181
Pt 13.4575 17.6717 37.5331
Pt 15.4196 17.6926 35.3573
Au 15.2781 19.5829 33.264
Pt 13.6295 15.7936 39.591
Pt 13.5773 19.63 39.4415
Pt 15.5585 17.7387 39.4112
Au 15.4403 19.608 37.3365
Au 11.7287 15.7613 41.6372
Pt 13.735 23.0437 44.2348
Au 16.0219 15.8632 45.4204
Pt 15.6159 19.7201 41.3079
Pt 15.6985 21.7489 43.1847
Au 15.8299 21.1627 47.6842
Pt 14.5697 18.369 6.55647
Au 13.6638 20.7635 5.41981
Pt 18.1291 22.1179 6.46069
Au 15.2288 24.9432 4.10021
Au 16.1708 21.3315 10.918
Au 15.7839 23.8646 12.5042
Au 18.3329 21.2791 9.02726
Au 20.0154 27.1352 8.41178
Au 11.5669 22.0686 11.808
Au 12.1488 23.8071 16.1883
Au 15.5886 21.527 14.4553
Pt 14.1032 25.8824 13.4642
Au 13.8181 21.5944 16.5607
Au 12.1046 22.255 18.5848
Pt 15.3633 21.6773 19.0536
Pt 14.3257 23.9466 18.1688
Pt 13.42 21.6777 21.0294
Au 13.3673 23.626 23.0014
Au 15.4549 21.7724 23.0831
Au 15.3614 23.7145 21.0156
Au 13.4113 21.762 25.1681
Au 13.425 23.8032 27.1236
Au 15.4129 21.7796 27.1872
Au 15.393 23.8691 25.0453
Au 13.4187 21.7732 29.2174
Pt 13.3755 23.7214 31.2492
Pt 15.3197 21.6927 31.2815
Au 15.372 23.7687 29.2554
Au 13.3149 21.6615 33.2785
Pt 13.3591 23.707 35.2673
Au 15.3338 21.6388 35.2818
Au 15.3156 23.672 33.2546
Au 13.4431 21.5855 37.2953
Pt 13.4386 23.5297 39.3341
Au 19.3852 21.757 39.1883
Au 15.327 23.7351 37.283
Au 15.5068 21.6763 39.2996
Pt 18.3359 22.6955 43.8859
Pt 17.6487 19.9039 43.2125
Au 15.388 23.861 41.2151
Au 16.2707 24.7691 47.9195
Pt 18.2668 20.8144 45.7561
Pt 17.7181 24.451 5.24606
Pt 16.157 29.4818 6.68965
Au 17.6658 21.998 3.828
Pt 20.2568 29.573 7.11802
Au 22.5347 29.5657 8.51087
Au 15.6258 29.0398 10.1532
Au 17.9576 23.6017 10.7808
Pt 17.6364 26.8395 4.19276
Au 14.9193 26.459 10.9675
Au 12.1428 26.3545 15.1241
Au 16.3901 26.3136 14.7347
Pt 16.0015 28.1333 12.8367
Pt 14.3451 26.6559 16.8893
Pt 13.4617 28.2472 19.0483
Au 15.0636 26.0944 19.4932
Au 12.3868 30.9413 15.8101
Pt 12.8549 24.3882 20.3168
Au 13.2876 28.1608 23.3028
Au 15.0974 25.9168 22.8505
Au 15.2389 28.2232 21.2869
Au 13.3536 25.8154 25.0397
Pt 13.4275 27.809 27.0376
Au 15.4182 25.8857 27.0722
Au 15.4768 27.9647 25.1495
Au 13.474 25.8355 29.1088
Pt 13.5354 27.7743 31.0977
Au 15.3307 25.7546 31.2506
Au 15.455 27.9103 29.0643
Pt 13.4295 25.6619 33.2143
Pt 13.259 27.6084 35.2695
Au 15.2609 25.7419 35.248
Pt 15.144 27.8466 33.2815
Au 13.2263 25.6353 37.3248
Au 15.2881 27.5166 37.4802
Au 17.3131 23.8722 39.2253
Au 17.15 27.9435 35.2982
Au 14.2408 26.2107 39.9177
Pt 15.7448 27.3695 44.1519
Pt 18.0271 24.6762 45.6952
Au 16.3875 26.7554 41.5686
Pt 16.1058 22.7601 45.6669
Pt 17.2545 27.0618 46.5761
Pt 19.8876 25.3561 3.73838
Pt 18.459 29.2233 5.2949
Pt 20.0392 27.2664 5.48001
Au 19.6012 28.1982 2.89733
Pt 18.1439 31.2676 7.45109
Au 16.4336 31.5376 9.53774
Au 18.0343 29.1963 11.4919
Pt 17.7324 33.6306 6.26923
Pt 15.9565 31.0003 12.169
Au 11.5707 32.4451 12.7349
Pt 14.2327 28.3856 14.8341
Au 15.2872 34.1967 9.21273
Pt 11.9688 28.4279 16.7855
Pt 12.3107 30.7482 18.5438
Pt 14.4061 29.6437 17.1808
Pt 14.8289 32.0094 16.357
Au 11.9327 29.5142 21.0568
Au 13.1945 31.2562 22.7926
Au 15.6921 30.2415 23.4492
Au 15.5227 32.7052 22.1604
Au 13.6379 30.0577 25.3325
Au 11.6639 32.2758 25.3207
Pt 15.7058 30.0194 27.1974
Pt 16.4573 32.0513 25.7129
Au 13.4907 29.734 28.9893
Pt 11.7127 29.7152 31.2953
Au 15.0067 30.0718 31.4273
Au 13.7121 32.074 27.1228
Au 13.2838 30.0205 33.5858
Au 12.1706 32.3292 31.6885
Au 15.5744 31.8038 33.7952
Pt 14.5626 33.3075 31.7863
Au 15.009 29.6279 35.7152
Au 14.6901 32.2105 36.4202
Au 16.8521 29.9106 37.9864
Pt 13.1335 33.0002 34.2328
Pt 15.4877 32.2322 41.8572
Au 16.538 34.0699 46.4166
Pt 15.8285 29.6372 42.6658
Au 14.8711 31.7107 39.0994
Pt 16.7492 29.5025 45.267
Pt 17.4475 31.5175 46.8176
Au 14.2072 30.7921 5.38157
Pt 21.5174 29.5168 4.89857
Au 18.2857 33.4314 3.54811
Pt 19.6187 35.201 5.22957
Au 16.6359 38.0303 6.06376
Au 6.76864 31.2115 10.5145
Au 18.1288 33.7672 9.03146
Au 16.077 29.2072 3.86317
Pt 12.8176 34.0885 10.2361
Au 12.3763 35.6467 12.6978
Pt 14.2717 33.553 12.2743
Au 10.6427 34.5691 8.50326
Au 13.0579 33.5921 14.7585
Pt 10.6352 35.3032 17.1654
Au 14.8007 32.9297 18.9009
Pt 14.8735 34.6742 16.5224
Pt 10.0851 32.8009 18.3132
Au 12.2553 33.8906 23.0485
Au 16.9155 34.3172 24.3813
Au 11.7387 32.3583 20.6828
Pt 14.3563 32.9021 24.6201
Au 12.9883 34.9903 25.6992
Au 15.1164 34.3314 27.3886
Au 15.3619 36.5606 25.7342
Au 13.2436 34.1571 29.5314
Au 14.4207 36.6684 30.9022
Pt 14.4669 35.4653 33.3108
Au 15.9903 37.1411 28.5105
Pt 14.4751 34.8013 35.9077
Au 14.1692 37.6093 35.7465
Au 16.6473 36.1273 34.7706
Au 12.9555 40.0669 34.3774
Pt 14.1216 34.8752 38.6409
Au 16.1511 38.9115 42.0154
Pt 18.4243 34.6116 39.6256
Pt 16.4393 33.7466 37.875
Pt 13.3673 32.7081 43.391
Pt 15.5932 34.2379 43.7805
Pt 17.8734 31.303 42.7486
Pt 17.7809 33.9454 42.1478
Au 16.7692 29.2702 48.1615
Pt 18.2372 32.8662 44.7256
Au 17.061 35.7445 4.51562
Au 15.5722 39.7552 7.86483
Pt 15.3528 42.7027 15.5305
Au 15.5139 33.2971 4.50123
Pt 15.5333 36.9498 8.46319
Au 13.4242 38.5629 9.40549
Au 14.9644 35.697 13.9573
Au 14.4435 36.4661 11.0513
Pt 17.5601 41.3261 14.8971
Au 12.5889 36.1306 15.6157
Au 14.5894 35.3708 23.2813
Pt 12.562 33.3581 17.5221
Au 13.4509 35.9774 18.3542
Au 7.54722 34.7018 22.9934
Au 13.7966 34.5281 20.7892
Au 17.1121 37.2958 23.5544
Pt 11.2913 34.773 19.6337
Au 13.025 38.0539 26.0787
Au 10.6862 36.5145 26.407
Pt 16.104 39.885 24.3974
Pt 15.9762 39.4373 21.8606
Pt 11.7828 37.6624 30.8888
Au 10.5669 39.3242 32.9858
Pt 13.4111 39.5678 31.6122
Au 13.5928 39.6419 28.8288
Pt 12.7585 37.5475 33.3031
Au 8.85916 37.8537 35.1042
Au 12.9782 39.8976 37.1865
Au 12.6021 41.98 32.3561
Pt 13.0515 37.4771 38.3191
Pt 14.6848 36.9915 40.2869
Pt 17.2703 36.9881 40.0659
Pt 15.3987 38.8685 37.9327
Pt 15.823 34.5008 40.5004
Pt 17.8926 35.5039 44.4096
Au 18.4436 38.4175 43.6798
Pt 13.616 38.0448 13.76
Au 17.6697 43.0289 10.7735
Pt 12.7564 41.2952 18.9963
Pt 17.3325 40.7187 17.5357
Pt 19.3901 44.9503 15.3062
Pt 14.7112 37.6446 16.1357
Pt 13.2243 41.5076 14.0659
Au 16.284 38.0763 18.2734
Pt 15.4736 42.5001 18.2452
Au 14.9713 37.1516 20.6866
Pt 13.9944 41.1479 23.3487
Pt 15.2762 40.2707 19.5129
Pt 13.9586 42.308 20.9668
Au 17.724 37.4924 20.6732
Pt 15.7439 42.1205 25.7789
Au 12.0174 42.8448 29.7094
Pt 16.1212 44.7666 25.1266
Au 10.334 39.2401 25.918
Au 11.0037 40.4156 30.4288
Au 11.4829 43.5904 26.8841
Au 16.7425 46.5947 27.015
Au 14.1603 44.5902 29.6047
Pt 16.6072 43.5479 30.2672
Au 14.7212 43.8054 32.2531
Pt 21.3498 38.4572 43.1468
Pt 11.4813 37.7482 35.6532
Au 20.1119 40.7426 43.8617
Au 15.0853 41.5457 38.3678
Au 21.1447 46.671 14.3277
Au 10.8572 43.3281 17.8351
Pt 18.0261 43.185 19.2024
Pt 11.5176 43.395 20.46
Pt 18.1547 44.1067 21.5708
Au 15.7133 45.0636 17.497
Pt 18.3883 42.2124 28.3853
Pt 18.692 44.9027 28.4596
Pt 19.6586 40.3096 39.0324
Pt 16.188 43.9723 27.7293
Au 7.61675 37.7162 32.6014
Au 15.2327 5.67981 19.5606
Pt 16.8895 10.4185 12.3797
Pt 22.4967 4.90855 15.3404
Au 17.6212 4.85317 15.3788
Au 17.5677 5.20811 21.1463
Pt 22.1539 4.8472 17.9564
Au 23.6334 5.03489 12.6655
Au 17.6561 5.03624 18.2567
Pt 15.7118 7.42803 21.5916
Pt 20.0348 5.15665 19.5119
Pt 17.4028 7.52924 19.5633
Pt 20.0063 5.32706 22.4511
Pt 20.0976 9.12228 22.8244
Pt 20.16 7.07345 24.8635
Pt 19.8224 7.37324 20.8181
Pt 15.1522 7.01628 26.0906
Au 10.1786 7.36419 27.8613
Au 16.6714 4.82488 26.73
Pt 18.4531 9.31041 24.6888
Pt 16.9691 7.20718 28.1972
Pt 17.6431 7.37413 30.9754
Pt 19.6564 5.57817 31.3806
Pt 19.6105 7.26791 29.2207
Pt 17.554 5.70401 33.0748
Pt 17.3258 7.72976 34.8
Pt 19.3179 5.77352 34.9898
Pt 19.4614 7.64134 33.0338
Pt 17.2789 5.93502 36.6824
Pt 17.0792 7.6894 38.6982
Au 19.9141 5.15924 37.5914
Pt 19.1423 7.74228 36.9329
Pt 16.691 9.60869 40.5545
Pt 19.1718 12.6024 8.82418
Au 20.0467 4.44095 14.0546
Pt 21.6983 13.0501 10.0066
Au 16.2445 7.96439 11.1227
Pt 14.7182 11.83 11.685
Pt 18.7339 8.59666 12.6674
Pt 18.9773 10.5281 10.709
Au 18.3967 10.1083 8.05896
Pt 17.51 11.6109 15.6635
Au 19.413 9.39713 15.9594
Pt 19.222 11.0886 13.6172
Au 17.1685 9.64668 17.6461
Au 17.2724 11.6386 19.5668
Pt 19.2786 9.64779 19.4536
Pt 19.3956 11.6284 17.5647
Pt 17.6008 9.41904 21.6184
Au 17.605 11.522 23.4086
Au 21.4269 9.41284 25.3706
Au 19.5382 11.5035 21.4209
Au 16.4654 9.4823 26.5504
Au 17.4078 11.838 27.2861
Au 19.5279 5.43553 27.0602
Au 19.5398 11.6203 25.3873
Au 17.2436 9.63644 29.3665
Pt 17.3383 11.7974 31.1171
Pt 19.5102 9.43203 31.038
Au 19.3683 11.5774 29.2624
Pt 17.4538 9.56628 32.7427
Au 17.2268 11.7635 35.009
Au 19.2022 9.72237 34.942
Au 19.3099 11.6713 32.9834
Au 17.0721 9.65314 36.8185
Pt 16.8784 11.5657 38.8167
Pt 18.878 9.66479 38.839
Pt 19.1076 11.6791 37.0308
Pt 15.9899 12.096 41.3584
Au 13.773 15.8419 43.563
Pt 18.6966 11.3622 40.9283
Au 20.9886 13.2164 41.2322
Pt 19.922 16.2554 45.0583
Au 16.4239 12.2542 7.86678
Pt 18.9904 15.5903 7.08405
Pt 21.2188 13.6285 7.44378
Au 18.5594 13.136 6.18632
Au 20.1028 15.204 9.46935
Au 18.0978 15.2541 11.4589
Pt 19.6195 13.0531 11.705
Pt 19.9755 17.3258 11.343
Au 17.3431 13.1884 13.3422
Pt 15.6089 15.7282 17.2385
Au 19.5724 13.382 15.3345
Pt 17.7302 15.4219 15.3023
Pt 17.5313 13.6757 17.4122
Pt 17.545 15.7324 19.2413
Au 19.4544 13.6355 19.4025
Pt 19.5531 15.5225 17.2881
Au 17.428 13.6914 21.4132
Au 17.5191 15.8092 23.26
Au 19.5234 13.6403 23.3423
Au 19.498 15.7043 21.2815
Au 17.4613 13.74 25.219
Au 17.4119 15.7283 27.2468
Au 19.43 13.7408 27.3243
Pt 19.4366 15.755 25.2971
Pt 17.3599 13.803 29.2619
Pt 17.3086 15.7255 31.1883
Pt 19.3257 13.7319 31.1816
Pt 19.3487 15.7179 29.3242
Au 17.295 13.7752 33.0933
Au 17.2776 15.6644 35.2055
Pt 19.2739 13.655 35.0616
Pt 19.3066 15.6728 33.159
Pt 17.1686 13.6231 37.1314
Au 17.715 15.8367 39.489
Au 19.0649 13.4566 39.1328
Au 19.2456 15.5592 37.148
Au 17.0838 11.5659 43.609
Pt 17.7577 16.0895 43.2702
Au 18.0398 13.8628 41.7408
Au 21.0924 15.5486 39.1827
Pt 15.8755 14.0679 43.3185
Au 22.8831 17.8318 48.7182
Pt 19.6527 20.3084 4.69762
Pt 20.0208 17.5094 5.35367
Au 20.7706 14.7105 5.00466
Pt 21.8712 19.0108 4.05039
Au 20.302 19.1966 9.19125
Au 18.0868 19.2825 11.0258
Pt 17.9638 17.4115 13.28
Pt 18.8114 19.2561 6.9687
Pt 15.9378 15.5617 13.373
Au 17.7244 19.6518 15.1238
Pt 19.6596 17.4887 15.3247
Pt 19.7869 19.4134 13.2374
Pt 17.6726 17.5435 17.1654
Au 17.4858 19.8059 19.0591
Au 19.5317 17.6694 19.1893
Au 19.5466 19.717 17.1609
Au 17.5246 17.7928 21.1836
Au 17.4867 19.7942 23.1557
Pt 19.4606 17.7796 23.2192
Au 19.4739 19.8114 21.1506
Au 17.4814 17.7873 25.2009
Au 17.4246 19.7713 27.2661
Au 19.3864 17.7165 27.3165
Au 19.4318 19.8131 25.2225
Pt 17.3514 17.6681 29.296
Pt 17.2822 19.6243 31.2536
Pt 19.3183 17.6328 31.2549
Au 19.3185 19.7071 29.3454
Au 17.3195 17.6619 33.1967
Au 17.359 19.6421 35.2941
Au 19.3293 17.6442 35.2556
Au 19.3204 19.662 33.2246
Pt 17.4731 17.7022 37.4005
Pt 17.4908 19.7125 39.3139
Pt 19.5152 17.8552 39.3702
Pt 19.3528 19.6872 37.283
Pt 17.644 17.9084 41.3307
Pt 17.696 18.0136 45.1771
Pt 19.6871 18.1166 43.3026
Au 19.6078 19.9569 41.2604
Au 21.5623 12.1757 45.0678