3871
Atoms. Timestep: 21066
Au 36.2351 18.0967 14.625
Pt 10.7635 15.5327 26.0566
Pt 37.1998 12.3798 22.461
Pt 14.2386 22.369 41.3356
Pt 8.57223 32.8562 23.5744
Pt 17.3193 28.0288 10.4814
Au 10.2576 28.778 34.1805
Pt 15.1816 40.6839 25.6744
Pt 21.7688 8.04307 26.1009
Pt 18.9531 15.0337 39.8792
Au 20.5729 36.0562 44.7703
Pt 10.4055 38.5858 30.5409
Au 43.9186 40.5885 20.9288
Pt 6.22409 22.392 30.1619
Pt 12.867 21.7711 20.9024
Pt 27.3719 25.3256 17.9588
Pt 23.3095 38.9828 21.7894
Au 14.2508 12.3685 40.2083
Pt 20.6889 21.5503 27.9605
Au 2.85297 24.5592 36.6069
Pt 9.43461 19.7347 23.3476
Au 10.714 39.4077 37.7781
Pt 32.8822 16.6911 21.7131
Au 27.4001 32.0335 47.0075
Pt 16.6668 17.5428 28.2649
Au 7.33842 39.926 26.7614
Pt 29.9432 43.1625 32.2625
Pt 19.1371 15.9371 32.9868
Pt 25.4597 15.2463 24.0529
Pt 22.8988 31.8104 39.0384
Pt 26.5863 10.1967 31.8458
Au 7.06127 24.7036 11.876
Pt 20.7283 16.2162 15.7677
Pt 14.7667 23.8274 32.4517
Pt 16.6718 14.5339 33.8691
Au 34.8837 38.3717 13.0761
Pt 24.2849 11.1856 17.9549
Au 36.4156 19.525 41.7041
Pt 18.6846 11.3587 35.0884
Au 17.5075 35.6015 41.469
Pt 21.3364 34.1303 38.335
Pt 13.5511 30.7407 21.1884
Pt 3.90024 22.4121 24.2691
Au 7.29451 21.766 11.5168
Pt 19.2165 26.2358 26.3653
Pt 7.88578 24.6753 30.2669
Pt 29.2337 13.4886 36.686
Au 7.02187 27.5082 11.829
Pt 9.31897 25.6745 22.0557
Au 33.9128 36.8949 6.34457
Pt 20.7767 41.0559 17.4465
Pt 37.7704 35.235 35.3486
Pt 6.476 26.9019 31.4346
Au 3.9927 27.0809 15.8008
Pt 32.4204 35.1619 20.0998
Pt 27.0437 12.6575 25.6222
Pt 11.8785 22.0756 12.1212
Au 14.2836 6.78216 15.8209
Au 42.9541 29.1674 15.2621
Pt 26.614 22.6324 13.0748
Au 2.89029 16.7244 28.6624
Pt 16.518 29.1922 36.9893
Pt 13.5907 40.5869 27.9754
Pt 7.54171 21.4178 27.9399
Pt 13.93 31.474 11.9066
Pt 11.7946 25.4343 23.4389
Pt 29.2817 19.6358 34.2313
Au 3.43558 32.9658 22.7412
Au 25.1076 46.0757 36.6455
Pt 20.572 17.8795 31.5172
Au 23.6237 10.6992 42.8857
Pt 25.142 14.6897 31.0075
Pt 13.2892 25.4052 36.7403
Pt 29.4025 20.1227 31.4151
Au 1.67313 23.9347 24.206
Au 14.4466 35.9035 40.7664
Au 4.18148 17.272 36.1399
Pt 12.56 16.4644 30.4184
Pt 17.9945 10.4879 12.0021
Au 16.3615 8.54092 38.9842
Au 24.6114 9.65787 10.0269
Pt 15.1434 29.9357 9.98028
Au 15.4551 18.7382 7.17998
Pt 9.72705 16.8823 24.0635
Pt 14.2093 18.1271 17.9745
Pt 19.2297 19.21 19.1585
Pt 30.4672 33.0167 15.6148
Au 16.7213 41.4762 16.3124
Pt 22.7937 15.2643 17.507
Au 2.801 28.0499 18.1285
Pt 16.8999 9.95454 18.9725
Pt 19.5722 26.5143 29.1478
Pt 16.0662 10.9241 31.1144
Pt 17.1804 34.2772 9.96622
Au 5.66984 13.8922 21.2213
Pt 11.1643 31.8962 20.8704
Pt 14.7856 29.6198 25.4553
Pt 19.7178 32.1406 23.4862
Pt 29.7171 30.5695 35.9208
Pt 5.9415 32.2137 24.3597
Pt 8.03097 20.8205 25.3672
Au 36.4305 18.1372 44.1201
Pt 26.7057 23.3799 37.3373
Pt 21.1229 12.1335 42.5646
Pt 27.9041 21.7475 33.5142
Pt 26.0279 8.99025 27.2461
Pt 23.6209 25.1802 45.0304
Pt 30.0905 22.5541 30.2114
Au 17.5555 14.3947 44.5024
Pt 24.9096 16.7628 26.1227
Au 2.94488 20.858 33.3328
Pt 31.5287 16.9732 28.6187
Au 16.4639 32.7493 7.81829
Au 7.31527 20.8815 41.3552
Pt 17.6017 19.7937 38.7694
Pt 16.0223 33.5748 15.2215
Pt 24.3744 7.97196 24.8716
Pt 13.8629 17.1009 37.3867
Pt 22.5475 33.2191 20.0042
Au 7.18068 10.361 22.0069
Au 28.1812 43.4745 10.8572
Pt 22.0267 16.505 43.2558
Pt 27.0293 12.6599 9.84309
Pt 22.6936 21.9156 31.9802
Pt 19.7883 20.0587 21.9071
Pt 25.8056 37.8514 29.1402
Au 38.0285 27.0227 20.1229
Au 21.3531 47.5287 25.214
Au 36.7561 7.01079 23.3082
Pt 7.06554 20.2512 22.4702
Pt 16.9357 14.6096 12.4992
Pt 21.5275 35.2523 29.3618
Pt 29.9344 28.2752 34.6809
Pt 22.0912 7.13218 23.6957
Pt 11.6063 24.492 13.2201
Pt 18.5719 27.329 36.8743
Pt 30.617 21.8929 33.034
Pt 16.0577 11.8828 25.1232
Pt 17.9069 12.4283 40.3527
Pt 12.7777 14.2508 33.3161
Au 19.3751 26.2339 9.79252
Pt 16.6856 35.0372 33.2402
Pt 24.128 35.0577 29.3114
Pt 20.9862 12.4016 35.8656
Au 4.4381 33.3673 27.71
Au 8.43846 15.8217 32.9934
Pt 8.86804 23.3288 36.7814
Pt 19.0832 29.8477 33.4249
Pt 26.71 14.2765 28.4197
Au 35.6273 22.3651 42.8513
Au 9.46081 20.5166 43.2013
Pt 19.1577 14.1946 35.204
Au 37.5129 5.71689 25.5317
Pt 22.1181 35.7923 8.67484
Pt 14.571 16.0704 16.252
Pt 28.622 35.6845 37.8965
Pt 22.9813 39.599 17.7318
Pt 25.7221 21.4197 41.3948
Pt 24.7371 39.9526 13.8031
Pt 13.0074 20.5343 18.5941
Pt 24.4445 12.1876 13.4088
Pt 13.1576 18.5026 35.0689
Pt 13.0104 25.925 11.5336
Au 39.0654 22.5586 9.03424
Au 24.7488 32.824 43.7856
Pt 18.2433 13.8991 20.0106
Pt 8.82022 27.6797 36.1551
Au 6.42257 23.5294 40.7221
Pt 9.55982 19.8566 31.4408
Pt 20.3881 11.7233 14.2715
Au 27.1243 15.4726 41.5796
Pt 28.1535 11.0451 18.4496
Pt 14.2889 38.1111 18.8323
Pt 20.537 38.2503 21.227
Au 31.6953 21.0163 48.9378
Au 33.494 2.9384 31.009
Au 23.0211 45.0803 29.885
Pt 26.004 11.1543 22.2442
Pt 32.8609 5.19585 25.609
Au 21.2888 11.702 6.80798
Pt 21.6354 19.9737 14.403
Au 25.6995 14.1686 46.8661
Pt 11.7667 35.6116 34.8732
Pt 11.1203 23.3895 25.3551
Pt 16.8737 32.2608 24.2262
Pt 21.1028 14.6417 41.7468
Pt 10.8772 36.6695 15.6195
Pt 18.7436 12.2411 16.2891
Au 5.35042 28.7684 13.8385
Pt 14.245 18.7187 24.8858
Au 19.0162 3.68929 26.1302
Pt 20.8738 26.0685 37.4938
Pt 23.3818 40.2305 34.6387
Pt 25.2917 41.8246 33.4121
Pt 21.571 8.40229 21.3677
Au 23.9619 27.8072 45.0971
Pt 30.238 13.6422 22.1251
Pt 21.2784 37.1879 10.7105
Pt 24.0594 24.1721 33.2717
Pt 19.2783 13.0142 22.5129
Pt 21.0672 13.6111 16.2872
Pt 36.3403 19.8918 26.6961
Pt 19.8486 37.875 12.7813
Pt 19.5185 24.3997 22.0331
Pt 6.81728 32.7422 28.9637
Pt 32.7466 39.2471 18.316
Pt 36.0331 24.9114 21.1162
Pt 5.4208 28.599 20.6966
Au 32.6306 9.7217 20.8224
Au 35.8338 29.2969 36.5336
Au 35.8809 31.3092 6.2317
Pt 24.131 31.3743 26.8861
Pt 29.6961 30.7186 42.0221
Au 17.9186 17.5019 6.90242
Au 33.102 26.3441 11.3358
Pt 24.32 37.1304 8.63894
Pt 8.10792 23.4469 25.8703
Pt 18.6374 38.5948 30.5003
Au 38.7719 33.6486 37.9829
Pt 32.7406 31.9327 27.6323
Pt 13.5108 37.5562 12.5065
Pt 14.1959 35.4927 19.7062
Pt 25.8733 37.9099 42.0494
Pt 12.775 14.8177 36.1875
Pt 13.2659 33.1062 13.9666
Pt 16.2964 26.5122 14.7067
Pt 4.90094 20.5462 28.5668
Au 11.9771 25.9889 6.03408
Au 30.3686 22.8433 40.2282
Pt 19.6796 6.37219 22.8466
Pt 20.5817 31.436 20.4874
Au 36.12 42.2118 15.5805
Pt 20.2903 16.5405 35.9026
Pt 28.804 39.1922 21.9375
Au 4.66218 23.5361 21.8956
Pt 7.01234 27.1438 38.0756
Au 27.32 11.7075 40.643
Pt 16.7896 42.9036 18.7679
Au 4.41257 23.4584 38.5257
Au 2.42921 23.7571 33.7474
Pt 9.49277 26.0305 12.5159
Pt 15.8958 24.6276 42.4304
Au 37.8077 44.1248 27.6401
Pt 19.3999 30.6916 28.7886
Pt 25.1074 20.9808 20.6571
Pt 10.3196 25.6256 35.0552
Pt 18.3289 22.7222 15.2915
Au 13.3023 8.81711 25.1256
Pt 7.33205 26.1367 26.249
Pt 11.4334 35.5495 27.5748
Pt 9.2556 24.9389 27.8769
Pt 13.788 19.9986 16.0402
Au 21.8441 46.152 32.3549
Pt 11.573 21.5569 16.6019
Pt 26.6116 36.9655 33.5201
Au 16.7212 12.9771 7.5731
Pt 19.1873 26.8134 39.6892
Au 12.1405 42.2593 32.1845
Pt 27.0297 37.0857 8.37758
Pt 20.4531 35.2372 12.3867
Pt 28.3548 14.973 20.9049
Pt 20.5191 21.758 16.3218
Pt 6.69998 31.6539 31.503
Pt 14.5564 8.11734 22.753
Pt 11.4007 25.7887 39.3653
Au 34.2746 25.5241 45.2167
Pt 10.5009 29.4037 25.2691
Au 45.4129 38.5428 24.9674
Pt 16.0425 18.8711 34.5789
Pt 19.4432 9.33864 19.6764
Au 9.82418 39.6646 26.0096
Pt 9.86411 33.2356 28.6478
Pt 25.0171 30.2558 10.7606
Au 16.7704 5.51653 16.3453
Pt 8.15692 37.0085 30.4037
Pt 20.6879 14.8306 23.834
Pt 16.8764 12.9681 36.189
Pt 27.389 29.3759 14.5547
Au 2.53875 16.0348 31.3502
Au 2.00362 26.7159 30.5309
Pt 6.04454 14.7315 32.5056
Pt 7.44155 30.0961 12.8024
Pt 13.2447 23.2886 34.951
Pt 10.1828 34.5967 17.1007
Au 38.2015 18.8155 46.0147
Pt 17.7142 8.93945 34.545
Au 26.6059 34.6276 7.33444
Pt 21.1443 23.4828 18.4588
Pt 11.2131 38.1662 22.5109
Au 42.2642 12.9391 34.9375
Au 43.6838 18.6163 36.4923
Au 45.6906 20.5415 36.7877
Pt 34.7448 8.93983 24.2846
Pt 24.1222 26.0231 15.7195
Pt 25.2028 19.2731 16.1384
Au 27.576 4.35965 36.8481
Pt 22.8947 34.202 13.0078
Au 45.7002 38.958 22.2113
Pt 15.7143 22.5606 30.0966
Au 20.0874 39.6952 40.2728
Au 30.1259 25.9564 35.9751
Pt 20.627 28.6916 38.2947
Au 9.019 34.4103 12.2844
Au 37.2984 22.6035 14.4541
Au 28.3992 14.2445 14.1329
Au 2.92876 21.3741 30.5135
Au 2.77521 28.1815 32.6464
Pt 24.7487 44.2175 27.7598
Pt 19.8982 14.5936 30.7801
Au 31.9027 4.13291 28.1526
Pt 35.0316 11.6666 12.0424
Au 21.9811 38.9082 8.78762
Pt 6.97964 24.5601 38.3409
Pt 34.3141 23.6226 24.2956
Au 11.6467 8.81246 22.9082
Pt 15.5604 30.1439 22.9722
Au 20.3755 42.2375 41.1322
Pt 17.9838 21.9091 22.9565
Au 30.3754 30.5736 9.29147
Au 14.7649 42.5235 14.6759
Pt 12.2104 33.8114 18.8242
Au 12.9015 10.3453 36.3768
Au 22.355 29.3303 1.70351
Au 19.5947 23.1736 45.3148
Pt 8.21806 24.4163 14.5202
Pt 26.9973 28.804 11.9509
Pt 22.5444 32.9183 28.423
Au 39.6289 38.3168 20.7691
Pt 12.5817 34.4087 29.7532
Pt 23.3437 14.4025 22.6694
Au 42.4386 11.5426 32.5264
Au 13.6646 11.0609 33.7798
Pt 17.5961 22.6598 38.7025
Pt 6.04867 32.9436 21.8876
Au 8.98391 22.9789 42.0705
Pt 21.7254 40.8058 22.9053
Pt 6.93125 29.2574 29.8487
Pt 7.52324 21.5024 32.2512
Au 31.7691 16.4516 43.2569
Pt 6.44302 20.5389 17.9935
Au 2.94558 13.9669 29.0483
Au 40.3829 35.9099 13.432
Au 30.0574 38.6803 12.5374
Pt 30.388 26.4924 11.9338
Pt 32.621 36.4771 17.7956
Pt 26.6014 27.9365 29.207
Au 40.1681 25.8889 18.4764
Au 34.5516 30.2472 15.1112
Au 26.3678 26.0289 4.14361
Au 30.3713 21.1502 1.77687
Au 42.2484 21.5792 17.6171
Au 44.6609 20.675 30.4505
Au 25.3342 26.4209 43.1218
Pt 20.5833 37.9431 28.702
Au 32.477 47.9429 31.5214
Pt 30.5498 3.75494 25.791
Au 2.78645 18.5249 21.7111
Pt 14.0966 20.2754 29.9897
Au 19.9482 22.6717 2.6006
Au 15.371 45.3766 26.487
Pt 10.862 12.6945 21.1917
Au 33.9874 31.8538 44.3335
Au 39.5344 26.2235 37.4233
Au 33.9669 34.1269 6.38982
Pt 10.9004 40.1766 28.4073
Pt 21.2996 30.1164 13.5605
Au 27.0331 46.3778 21.5407
Pt 11.1924 14.4486 23.1441
Au 3.80852 15.9301 21.6319
Pt 18.5267 32.8347 33.3408
Pt 15.7136 10.4605 35.7923
Au 41.48 24.8717 44.3561
Au 15.1827 15.4733 43.7868
Pt 30.6399 33.3131 20.9302
Pt 7.35017 28.536 18.8477
Pt 22.3302 35.0669 42.9559
Pt 13.0665 33.6386 21.567
Au 5.23693 15.224 18.5636
Au 10.3086 13.0703 12.3602
Au 45.4595 25.3868 18.444
Pt 16.7189 17.9685 25.6057
Au 25.8099 41.4965 7.57653
Pt 15.12 41.302 36.0932
Au 23.2542 12.3776 40.7462
Au 4.56873 11.1682 32.1296
Au 35.4425 21.3361 39.9255
Pt 20.8698 24.1458 41.4121
Pt 5.16879 20.168 31.6161
Au 35.5934 22.8103 19.364
Pt 10.0897 29.6016 37.2706
Au 31.2971 2.05848 29.876
Pt 20.8151 10.9516 21.4673
Au 46.1439 20.4151 21.5588
Au 14.6539 9.89493 11.1022
Au 32.3926 11.6302 8.5711
Pt 20.1532 32.9017 29.9863
Au 39.5681 12.2321 16.4201
Pt 14.3813 21.8364 11.4052
Au 2.86946 29.6531 20.4893
Pt 33.8202 21.274 26.036
Au 31.5849 41.0706 12.2628
Au 36.7081 14.8766 19.0791
Pt 26.5319 3.13152 28.2422
Au 41.5093 33.1369 28.88
Au 23.7626 35.2141 6.40413
Pt 22.4408 29.9101 36.8391
Pt 7.4088 25.3308 35.5972
Pt 28.5479 29.6535 32.9643
Pt 32.4959 38.37 22.7884
Au 8.67548 18.4566 41.5398
Au 10.2949 19.4909 8.40044
Pt 20.6368 22.1454 23.5144
Au 11.7729 21.8762 42.4891
Pt 18.8924 13.4707 42.414
Pt 9.19008 11.688 23.5117
Pt 4.86683 29.7052 18.4552
Pt 7.6312 35.0571 21.501
Au 6.65209 37.3363 22.8893
Pt 24.7914 29.2609 13.384
Pt 35.9312 18.5467 9.22891
Pt 20.8133 40.15 35.631
Au 22.8879 13.8733 46.2989
Pt 18.7436 24.0801 24.5315
Au 21.9721 14.012 10.8193
Pt 24.0842 32.6063 24.5512
Au 40.0105 29.3952 15.5067
Pt 34.7505 37.803 24.3902
Au 26.1557 37.4853 44.8108
Au 36.0098 18.0854 11.9327
Au 42.2167 14.7066 26.6662
Pt 4.4959 25.9115 27.6733
Au 45.5631 21.9711 14.2747
Pt 19.3892 31.445 18.0144
Au 37.446 36.9801 12.5539
Pt 12.8324 27.7373 24.5657
Au 41.7778 10.0852 24.9833
Au 44.4694 27.929 32.5894
Pt 21.0402 41.2461 26.6563
Au 35.7842 20.7938 24.0846
Au 42.8602 16.7288 24.2593
Au 42.8353 32.1487 11.7315
Au 38.1283 34.8001 32.6991
Au 45.1561 24.9263 32.9139
Au 46.4975 21.4765 28.4535
Au 45.543 22.4253 25.9386
Pt 30.0128 40.8109 33.9533
Au 38.9615 28.6093 27.2253
Pt 5.58654 21.5079 34.1098
Au 44.4823 30.1861 30.775
Pt 5.48949 16.8284 25.2587
Au 33.841 13.2495 10.143
Au 24.495 26.8377 47.4976
Au 4.53973 14.5371 23.8843
Au 24.7639 22.7185 45.5271
Pt 20.1495 14.8292 26.5769
Pt 7.47338 18.2962 24.4387
Pt 25.8638 19.5493 39.5027
Pt 22.0298 14.3322 28.9165
Pt 21.996 12.287 23.5705
Pt 27.8207 44.0318 20.0611
Pt 18.1425 20.4698 44.0876
Au 33.5517 48.558 20.0855
Pt 35.6571 34.4147 31.7077
Au 11.0443 10.2789 33.6265
Pt 29.4977 27.157 17.8639
Au 36.6266 36.6811 6.71735
Au 46.007 27.4137 20.1722
Au 40.3888 39.8263 29.1107
Au 21.7981 3.16466 26.4215
Au 34.2037 25.936 4.43798
Pt 18.3117 15.126 8.04868
Pt 13.4096 21.7757 37.1557
Pt 17.6598 36.0127 13.2945
Au 47.4801 21.3068 19.3633
Au 42.5329 15.7861 29.1978
Au 24.4565 46.1594 14.047
Au 35.3665 35.1093 20.2101
Au 19.1392 20.135 2.83414
Pt 5.75572 31.1334 26.9313
Au 39.1887 32.3642 30.2851
Au 46.856 27.0997 33.6266
Pt 19.7682 36.4961 15.0332
Pt 23.1771 32.7883 15.6283
Au 21.2969 25.1775 3.54597
Pt 11.7003 26.2612 20.7198
Au 31.3841 6.75056 39.213
Pt 11.1023 17.0412 21.9237
Pt 6.38713 28.3566 35.7163
Au 32.9062 37.2533 35.9248
Au 31.9635 19.5668 44.4044
Au 11.46 18.821 42.3194
Pt 23.0349 28.0117 42.3922
Pt 28.2965 24.0762 34.99
Pt 27.7088 41.3184 37.9274
Pt 15.4231 8.06052 17.8704
Au 12.7417 6.29048 23.4742
Au 22.7167 34.2294 45.4993
Au 39.2558 24.1794 46.2831
Pt 5.88913 19.103 20.3996
Pt 16.703 27.7856 19.0883
Pt 11.9926 35.7042 13.467
Pt 7.55651 33.2726 18.396
Au 13.77 23.4336 43.8173
Au 8.8349 41.8815 27.9127
Pt 11.2224 23.6505 21.5419
Au 22.6355 19.2653 32.9322
Pt 20.0435 42.6541 24.5475
Au 22.3977 4.67755 36.074
Pt 19.5604 34.4043 24.9053
Au 6.9835 26.1746 20.6001
Pt 33.6216 18.4471 29.4407
Au 31.0192 29.3062 5.04623
Au 4.0898 11.484 29.4344
Au 13.7879 33.0566 7.16851
Au 16.1285 10.4527 40.9731
Pt 15.7578 36.2407 11.4123
Pt 25.6282 21.9293 15.4407
Au 37.3633 16.0778 45.778
Pt 16.6324 42.9248 27.3828
Au 34.0016 41.4407 13.9868
Au 16.7189 25.4167 8.99935
Au 33.8281 37.4315 15.4425
Au 4.88023 30.8522 29.5907
Pt 19.9278 33.8001 27.5898
Pt 24.2629 35.3211 20.0022
Au 14.8357 12.1674 9.45761
Pt 13.9703 19.1012 10.9506
Pt 25.7299 36.2212 27.0091
Au 12.8908 41.0029 34.5366
Pt 17.2284 33.8374 26.3069
Pt 14.1085 29.0721 40.1161
Au 22.6746 4.50991 31.9876
Au 23.874 18.841 47.6686
Au 38.1837 13.428 37.4182
Pt 34.2466 43.9081 34.1561
Pt 26.9241 30.1934 30.5124
Pt 4.09557 23.1095 28.669
Pt 28.9249 37.8419 15.3501
Au 14.7389 8.23389 36.8184
Pt 26.3527 29.5848 40.564
Au 21.9598 26.7346 1.30374
Pt 22.6139 31.0219 6.76436
Au 20.4657 8.95658 35.7896
Pt 7.00525 32.7615 35.7011
Pt 18.1628 14.9807 28.7301
Pt 15.3119 14.4576 24.2817
Pt 26.9467 34.7255 9.99789
Pt 18.4241 21.9068 29.0652
Pt 15.2007 35.1203 22.2705
Pt 26.62 35.7569 15.2649
Au 8.55971 37.9279 15.8431
Au 42.435 31.9102 9.05243
Au 21.1239 9.58291 43.3539
Pt 27.9366 4.10851 30.3337
Au 29.5276 23.8069 2.22128
Pt 20.6146 33.9276 17.525
Pt 15.2507 24.2203 12.2642
Pt 22.0149 39.5676 13.3584
Pt 20.881 40.0638 30.9085
Pt 15.6551 32.6014 21.6955
Pt 8.04906 34.2093 30.6333
Pt 19.8055 12.0011 18.7838
Au 31.9431 33.7634 17.8574
Pt 22.0502 32.423 43.4665
Pt 12.6234 15.316 27.8344
Pt 16.4885 12.611 22.6323
Pt 15.4135 17.8377 30.5232
Au 16.8809 44.9686 37.8002
Au 33.1492 46.0088 35.8744
Au 22.0128 17.91 5.35088
Au 44.2097 13.4788 22.9478
Pt 11.4512 31.7873 16.1143
Au 31.3395 9.41495 45.2466
Pt 36.7803 37.9162 28.1334
Au 3.70805 31.4069 32.2489
Pt 33.5872 34.5454 27.1032
Pt 28.4159 38.5012 41.4262
Pt 19.4121 17.7854 9.95675
Au 41.5428 38.2152 33.7939
Au 24.3415 7.37519 38.9842
Pt 15.1224 39.3707 34.4069
Au 31.2744 32.3551 43.8697
Pt 19.0643 25.9284 45.8405
Pt 18.5964 25.2207 14.1028
Pt 14.9576 34.4762 24.7422
Pt 29.474 30.931 30.8591
Pt 31.3622 15.2976 26.3081
Pt 15.5523 23.6889 36.9918
Pt 19.345 43.0766 27.3272
Pt 19.2197 36.5339 17.5873
Pt 18.5956 15.1178 10.5785
Pt 27.4438 20.3881 24.5159
Au 36.7604 26.0136 46.7287
Pt 10.7466 12.699 25.5334
Pt 13.9999 40.3133 16.3219
Pt 15.626 16.895 23.3894
Au 18.7267 28.0147 7.71374
Pt 34.4526 18.5361 25.4662
Au 11.6785 12.5078 35.3303
Pt 17.4811 25.1632 35.3407
Pt 21.9317 36.6527 16.9447
Pt 17.0776 15.2864 41.7288
Pt 17.9882 27.7483 13.0898
Au 33.5862 30.003 12.5251
Pt 16.7775 19.8155 41.3457
Pt 10.5604 23.0469 34.72
Pt 9.3515 23.3878 12.2383
Pt 16.9771 7.64066 20.5588
Au 27.1605 39.3199 6.72167
Pt 16.0966 18.4333 16.2272
Pt 29.91 9.52824 20.0449
Au 28.9516 29.0292 40.0243
Au 33.348 19.599 47.1366
Pt 43.9313 29.9059 12.7598
Pt 10.0909 20.7722 40.6581
Pt 22.373 28.8576 22.338
Pt 21.8644 23.5687 21.07
Pt 21.1062 14 33.2264
Pt 36.4604 19.5171 21.4233
Pt 35.9395 17.7252 28.206
Au 3.97005 17.4744 19.357
Pt 21.2241 28.4985 28.6443
Au 18.8458 7.32884 13.4192
Pt 25.2167 18.4026 24.0587
Pt 23.1691 20.4181 27.9131
Au 6.11062 10.6021 27.591
Pt 13.882 28.686 37.499
Au 45.1966 35.0397 31.2932
Pt 3.96936 25.4119 23.5983
Au 35.8938 23.2476 8.92188
Pt 28.4293 6.49048 22.9181
Pt 32.7416 37.8338 33.3755
Au 42.1267 42.0878 28.041
Au 29.4163 25.1002 41.4193
Au 35.6355 18.0108 46.8224
Au 28.1936 23.5366 7.61547
Au 23.5799 15.7451 6.53745
Au 19.2079 42.731 11.7001
Au 18.711 9.94619 39.6882
Au 6.50192 10.2046 24.6338
Pt 12.2791 17.9366 15.6556
Pt 28.1428 38.3936 38.456
Pt 28.8279 46.1129 26.4964
Pt 25.8364 29.8835 33.3267
Pt 27.3696 13.5637 34.8017
Au 10.9288 37.3095 25.2141
Pt 15.3786 11.0906 27.6085
Pt 12.3494 30.8392 18.6352
Pt 9.52008 27.2271 19.5575
Pt 12.6176 40.0947 30.4887
Au 21.3353 27.1088 7.76337
Au 5.18778 33.6477 33.5259
Pt 34.3602 41.1976 28.0996
Au 36.7155 29.4672 21.839
Pt 10.4205 22.4126 8.04249
Pt 23.063 32.3857 36.2628
Au 33.0556 43.3494 11.9152
Pt 14.5901 13.2901 34.8548
Au 45.6484 34.4287 14.0789
Pt 12.5119 16.852 10.6317
Au 32.3055 38.4251 7.9651
Au 32.8923 13.1648 5.57813
Pt 24.0124 23.4547 36.8215
Pt 16.7769 12.6198 18.3145
Pt 28.8436 25.9113 28.3217
Au 39.1542 45.6524 17.5601
Pt 15.2061 27.739 16.9194
Au 12.0431 8.67527 15.0706
Au 28.2273 40.9159 8.89009
Au 43.4738 30.4817 33.2924
Pt 20.7976 10.3537 26.8683
Au 30.9189 47.8878 20.0986
Au 21.3137 19.7453 9.74472
Au 34.8794 18.5531 17.042
Au 4.70792 30.7262 39.2617
Au 38.9154 7.24866 27.4106
Au 30.3382 45.971 35.908
Pt 8.29817 28.2572 21.6571
Au 20.2045 18.2425 44.3894
Pt 13.4325 11.4861 25.64
Au 37.0724 20.8698 8.28037
Pt 26.626 15.652 32.9233
Pt 14.9962 18.8813 39.3794
Pt 29.0126 11.2655 30.92
Pt 37.9724 17.0023 30.1674
Pt 21.4226 13.4729 21.0691
Pt 28.0908 2.89479 25.8991
Pt 22.0424 35.6842 40.4031
Pt 20.4799 31.8614 15.5922
Pt 7.97071 11.9222 25.9896
Pt 20.8777 23.0225 14.0408
Au 41.9363 41.2509 16.7263
Pt 7.83622 25.338 18.176
Pt 18.6259 23.0871 12.5147
Pt 23.122 34.9956 35.9784
Pt 20.6271 44.0703 33.8557
Pt 14.828 42.0257 22.6614
Pt 15.6217 43.1415 24.8642
Au 40.3613 25.1315 8.96196
Au 36.5377 18.5367 35.1747
Au 45.2202 17.6321 25.5123
Au 47.7896 28.0213 22.1503
Au 18.3696 24.8617 3.51197
Au 47.2902 31.913 20.6734
Pt 41.3266 23.0098 10.5906
Pt 19.9273 29.6839 22.3339
Pt 34.4621 16.2147 23.9579
Pt 17.4527 26.0503 16.9324
Au 29.3261 10.8503 44.0338
Au 31.0444 33.9952 13.1374
Pt 14.7419 37.041 32.7063
Au 41.3238 17.4431 42.3311
Pt 21.6078 40.4702 20.1072
Au 28.5638 33.2174 11.8277
Pt 14.4849 30.7433 33.6586
Pt 7.43158 18.9805 35.0304
Pt 15.5874 30.3224 17.644
Au 34.3698 29.9778 20.3237
Pt 20.4645 16.5309 29.1481
Pt 33.6073 43.3355 29.5468
Pt 23.7341 17.028 19.1217
Au 31.9548 23.6235 48.4682
Au 17.2701 17.9662 43.5752
Pt 10.8768 18.5303 39.5609
Au 8.86989 8.97452 23.5961
Pt 13.881 25.5104 14.1164
Pt 5.01423 18.183 29.5788
Au 5.22548 26.8038 18.3512
Pt 33.6445 26.6851 27.2563
Au 2.77633 18.7386 31.1839
Pt 25.1489 33.5153 14.032
Au 9.84607 10.1477 21.2088
Au 38.16 36.3338 37.9489
Au 44.1218 25.5117 21.2131
Au 37.5687 10.9105 12.2896
Au 11.7362 38.9852 16.9584
Au 16.602 8.06923 11.7562
Au 8.47868 9.4376 29.0093
Au 40.2392 27.2471 4.64437
Pt 25.2456 32.6252 20.4646
Au 36.442 20.2198 18.7978
Au 35.1318 9.74241 19.1699
Pt 16.0157 14.7094 9.74856
Pt 11.2151 30.2885 11.3791
Pt 31.7276 31.9455 22.9448
Au 42.8462 19.9009 10.9044
Au 12.4979 23.9055 7.73418
Au 29.8096 18.2311 6.75857
Au 23.6624 2.5462 24.3741
Au 30.2542 37.2477 39.5497
Au 23.9525 18.783 2.75363
Au 31.9437 32.9174 8.10672
Au 34.9009 12.4372 14.7578
Pt 16.672 23.3586 17.3207
Pt 16.9579 26.3194 28.2334
Au 5.16682 21.0922 15.3932
Au 20.0661 13.1833 8.91676
Pt 25.807 39.322 31.8051
Au 33.4073 14.6855 41.9054
Au 22.6177 22.0652 9.47302
Au 34.2711 30.5823 46.9923
Pt 14.9405 22.622 19.4141
Au 11.1603 24.644 42.6166
Au 31.1758 12.8523 47.7709
Au 27.7025 45.3324 35.5053
Pt 25.5234 12.7829 33.0152
Pt 27.575 25.9089 36.9801
Au 34.4562 34.4082 42.3177
Au 31.7893 30.1903 45.5681
Pt 32.4904 28.6039 16.2087
Pt 19.112 29.0791 41.5669
Pt 21.8591 33.2958 7.80918
Au 4.27215 24.4418 16.4817
Pt 14.5081 36.5898 28.9755
Au 16.9526 26.6396 5.95316
Au 7.37667 33.3239 26.3841
Au 39.8979 10.9613 21.0635
Pt 18.9601 17.173 27.0446
Au 35.6784 14.7878 8.75776
Au 33.1134 9.69111 10.8708
Au 43.0018 35.6136 26.7442
Pt 18.5154 17.4599 16.9213
Pt 16.3035 9.16101 24.8384
Pt 31.0924 32.8265 36.4519
Au 5.8612 31.2424 14.9803
Au 34.9114 36.914 41.1215
Pt 20.3132 27.1548 21.9122
Au 42.6268 24.5845 30.4949
Au 39.0023 18.5106 37.2201
Au 8.18644 38.1107 32.9159
Au 20.4517 21.7954 7.62129
Pt 34.3214 31.0998 22.9276
Au 41.3691 18.6302 8.8206
Au 40.4236 22.2154 39.8911
Au 47.5138 25.3572 31.3695
Pt 21.7954 22.2326 39.4263
Au 32.6159 25.088 36.2917
Au 28.5052 24.4843 4.87384
Pt 14.6353 27.1773 9.74647
Pt 20.5962 38.477 18.6298
Au 44.0489 26.0786 39.0084
Pt 34.7398 41.0894 30.8184
Au 27.5186 22.8737 44.9574
Au 38.9173 37.3933 32.914
Au 37.1979 16.7358 7.32762
Au 36.3926 6.31939 27.961
Au 33.4052 4.27399 21.2925
Pt 4.90563 17.244 32.1134
Pt 23.0689 7.48278 19.2742
Au 16.6839 35.8911 38.8738
Pt 35.3561 31.0707 27.7998
Pt 12.4171 35.1459 39.0562
Pt 24.9507 30.2638 35.7871
Pt 9.48211 18.5238 26.2765
Pt 10.1077 11.1181 27.6076
Au 35.8523 45.7396 35.0418
Pt 10.8374 19.1681 17.818
Au 12.6358 6.64976 26.648
Au 25.0489 11.5275 8.03993
Pt 8.86077 32.1698 37.6278
Pt 21.1904 42.0646 13.4297
Au 13.0025 7.45446 29.2542
Pt 12.1168 24.3548 32.8499
Au 4.41629 28.3459 37.6934
Pt 24.0657 34.1608 38.4251
Pt 34.2041 41.605 35.8538
Pt 6.60782 24.478 32.6051
Pt 12.5339 29.5505 35.3543
Au 17.8201 35.4324 7.59484
Au 32.973 15.8868 5.26609
Au 43.997 27.1284 7.74343
Au 12.6986 43.3295 35.8578
Au 41.3498 40.0548 11.5045
Au 25.9575 42.1288 10.2131
Pt 4.87838 28.7207 27.5936
Pt 24.6435 32.6706 6.79324
Au 42.7506 33.7991 31.9737
Pt 26.1247 38.2733 15.5047
Au 39.2807 36.293 22.9292
Au 40.1794 20.4326 10.3893
Au 37.026 10.3083 40.9311
Au 29.0586 25.7302 46.0233
Au 26.8182 48.3189 23.8166
Pt 21.2356 35.9931 26.6689
Au 34.0534 12.9741 43.9873
Au 36.6658 28.8541 46.2389
Au 38.1488 34.0506 42.7295
Pt 16.1032 23.8585 14.6619
Pt 14.0422 32.1859 23.8073
Au 24.3446 28.1012 3.67068
Pt 22.9027 17.9993 16.3447
Au 40.9782 23.8606 28.1164
Pt 29.1039 41.7108 20.012
Pt 9.67714 24.3812 19.716
Au 29.8225 27.8079 47.999
Pt 22.054 30.5458 30.1964
Au 29.116 3.80414 23.2753
Pt 26.6957 34.1011 38.9586
Au 17.6467 21.5401 46.6066
Au 21.5604 43.7383 39.1873
Au 26.7781 23.6656 2.73306
Au 28.4735 20.7816 6.57349
Pt 4.51659 22.9283 32.1085
Au 38.758 14.0805 11.3231
Pt 22.4052 37.8129 35.5632
Au 35.296 29.9038 8.77632
Au 10.0839 32.2926 25.9705
Pt 22.8471 42.6062 21.0089
Au 24.9521 32.7434 3.89942
Pt 23.4853 37.0343 25.4339
Pt 13.4376 28.7424 11.7695
Au 8.37615 9.1705 26.2965
Au 17.6533 22.3522 7.78483
Au 16.4002 25.8408 44.7719
Pt 14.491 9.46007 15.7471
Au 42.987 26.7305 18.942
Au 10.0414 41.5847 30.5145
Au 15.6382 31.9123 5.29628
Au 19.3255 6.36234 16.0023
Au 39.0589 29.2632 44.9254
Pt 7.79631 22.8899 34.4483
Au 35.3367 15.4644 43.9786
Pt 11.3475 42.0864 26.6705
Au 31.0681 14.1386 9.78793
Au 6.1883 32.8412 38.3706
Au 35.5903 33.708 34.4955
Pt 25.0855 24.9247 40.7541
Au 47.6892 21.1566 23.88
Pt 24.0187 37.8921 33.268
Pt 20.9297 9.73375 23.91
Pt 26.9176 16.9237 27.9898
Pt 14.5745 26.6653 26.1613
Pt 11.0506 19.6824 20.9785
Pt 4.45907 27.6138 29.9167
Au 24.7215 21.6154 2.09889
Pt 28.319 15.8919 36.234
Au 11.2991 38.9324 13.9158
Au 21.9883 26.5774 17.3507
Pt 13.5671 34.7677 11.5291
Au 29.3941 6.92093 41.1478
Pt 26.7228 27.7773 45.3172
Au 5.41303 26.0706 13.6212
Au 32.4469 8.5502 34.5306
Au 30.4836 22.7303 5.94178
Pt 26.5853 33.9155 41.6034
Au 34.839 44.2002 27.2378
Au 12.2387 34.1558 25.3096
Pt 5.10361 25.9291 36.6255
Au 17.3342 22.2109 3.58277
Au 4.24145 22.046 17.7407
Au 37.2548 31.2333 38.0552
Au 38.713 8.52648 21.9555
Pt 28.9722 27.8144 24.0087
Au 19.4037 40.0232 42.8678
Au 10.8121 29.4603 42.0823
Pt 19.2808 40.3347 12.7465
Pt 12.2699 26.345 8.88664
Pt 15.5207 16.9097 20.5582
Au 22.8904 46.9918 23.1568
Pt 27.2634 30.4356 20.5177
Au 1.90799 25.1872 28.2876
Pt 13.579 37.5438 21.5086
Au 20.1431 30.0715 3.16857
Au 20.5872 21.1739 35.0204
Au 20.5098 37.3703 41.9843
Pt 22.3094 6.53755 16.1754
Pt 9.52457 25.6263 24.8198
Pt 25.989 39.527 34.5672
Pt 28.1925 42.6621 29.957
Pt 13.2995 23.1968 23.4407
Pt 10.7701 20.6767 25.6511
Au 31.6727 25.2492 39.2846
Pt 10.9052 25.7139 17.7785
Au 22.4623 46.2048 37.4534
Pt 29.2211 44.3253 15.3423
Pt 16.7131 34.5851 20.0334
Pt 24.3703 34.3988 8.9662
Pt 18.326 32.4851 35.8127
Pt 13.2423 32.8497 32.0527
Au 36.1563 35.8992 15.1922
Pt 18.7264 36.7669 32.5673
Au 28.9689 31.0804 44.7046
Pt 22.7759 28.7977 11.8413
Pt 16.0875 28.2908 7.9281
Pt 29.7407 43.4778 34.8722
Au 2.33871 27.9051 28.0127
Pt 13.8376 34.5317 36.6531
Au 32.9515 16.9511 47.5068
Pt 6.78514 17.9176 37.3313
Au 23.9008 16.0681 47.7189
Au 8.11836 12.6291 21.0753
Au 33.9481 15.0596 19.7243
Au 22.1521 29.1502 46.8523
Au 17.8965 38.3328 41.2681
Pt 27.4472 44.7235 28.2298
Au 39.8664 14.3177 35.3838
Pt 26.0726 39.2503 37.1717
Pt 20.6118 27.819 24.5468
Au 27.5356 29.3202 47.4015
Au 36.5962 36.2638 22.8075
Au 8.87914 17.3298 16.8822
Au 21.4637 43.9856 36.4527
Pt 16.3315 29.2274 41.4499
Pt 15.5809 25.3607 30.4221
Pt 13.7062 17.8353 28.4505
Au 37.5156 11.0968 15.1671
Pt 15.961 38.6299 16.4498
Pt 31.5111 27.219 23.1622
Pt 11.6229 20.7936 35.5124
Pt 24.686 42.5595 14.4428
Au 37.0986 25.2263 38.0819
Au 12.6752 10.5049 20.9519
Pt 22.3631 7.77991 13.6412
Pt 26.1729 8.06524 30.0182
Au 14.6462 21.7231 3.43543
Au 32.8503 21.6172 15.7541
Pt 10.6393 24.5294 30.4784
Au 5.87798 35.4873 29.3425
Au 21.0141 6.60197 11.7022
Pt 26.4279 5.72826 28.8607
Pt 10.5873 27.7837 23.0587
Pt 25.0879 26.9291 18.0374
Pt 11.6847 28.6656 39.2592
Pt 8.30853 29.8303 15.2088
Pt 23.5672 12.7539 15.8895
Pt 27.8546 13.9846 23.4318
Pt 22.0529 17.4713 13.7367
Au 23.3783 5.30525 25.2809
Au 3.48144 31.7532 25.2669
Pt 23.0304 12.258 33.9884
Pt 25.6696 14.2987 14.8484
Pt 32.0297 3.846 23.4475
Pt 13.7604 39.4258 23.6175
Pt 25.678 37.7282 20.5117
Pt 21.1826 30.3048 24.7615
Pt 23.8966 18.7771 21.7117
Pt 23.5385 9.76009 22.7812
Pt 23.1604 17.1363 35.8443
Pt 15.5786 15.225 36.5888
Pt 16.6192 36.6904 30.8439
Au 26.323 3.08863 23.2625
Pt 23.5657 22.354 18.9588
Pt 10.6997 33.4387 33.7964
Pt 22.1138 7.205 31.8472
Au 37.7561 23.773 35.8387
Pt 32.545 10.0361 28.1143
Au 26.0677 4.75718 15.6627
Pt 30.1812 11.3565 28.425
Pt 25.122 21.4157 32.8514
Pt 22.0879 18.9947 42.4548
Au 16.7047 37.7025 9.26886
Pt 14.4045 10.7137 23.2648
Au 37.1547 44.8135 22.2898
Pt 36.9724 9.92298 23.4889
Au 17.8977 33.5379 5.54396
Au 29.0766 49.2307 18.6946
Pt 36.3639 12.7456 29.5194
Pt 23.4586 20.3508 40.3714
Pt 32.4768 25.5578 25.0744
Au 41.3541 19.4229 15.6959
Au 28.3439 13.6383 47.818
Au 42.3737 26.8051 9.83937
Au 28.8278 17.5669 48.1488
Au 43.9014 28.2509 37.3135
Au 2.06734 24.7107 21.6798
Au 12.5628 11.8987 11.0773
Au 39.3624 7.93845 24.6421
Pt 18.2066 20.0602 16.2198
Pt 16.2358 22.8297 34.391
Au 35.9889 27.3109 41.3971
Pt 27.2069 7.85149 33.3867
Au 42.4047 42.3355 25.35
Au 35.4699 27.1881 31.6959
Au 10.6125 8.26548 27.6458
Au 36.5855 20.0477 37.6874
Pt 16.5892 17.7334 37.2318
Pt 21.7776 16.9042 38.2028
Pt 8.89239 20.9501 16.9003
Pt 22.7243 14.8192 25.2983
Au 19.6076 12.9269 11.9754
Pt 25.6668 23.0006 24.6941
Au 40.131 16.8659 28.3059
Pt 11.6106 21.7511 29.7835
Au 31.1439 15.1628 13.1687
Pt 30.1074 21.3929 23.5727
Pt 21.5629 18.7231 20.4413
Au 18.54 27.9553 44.1805
Au 12.9295 9.24607 31.7977
Au 16.9704 9.91769 9.60263
Pt 12.5261 39.4919 25.8691
Pt 32.5801 27.2451 20.7453
Au 45.2476 32.762 22.3789
Pt 11.5288 15.8395 38.5121
Au 38.632 18.5303 8.85238
Pt 11.2628 21.5483 23.1663
Pt 20.7191 20.2767 25.651
Pt 17.8442 19.1809 32.0242
Au 16.1891 3.96458 25.6082
Pt 15.4951 26.7236 21.2058
Au 21.4663 24.594 6.32796
Au 47.9873 23.7695 29.07
Au 40.3545 41.3016 23.9242
Au 28.9403 14.9843 11.4258
Au 46.0833 16.3061 18.5228
Au 26.2967 19.2021 1.34072
Au 30.0988 35.5734 4.18321
Pt 7.39203 23.6617 21.367
Pt 37.1391 10.4206 20.7896
Pt 19.7909 10.2528 29.3235
Pt 22.8839 28.7294 26.6304
Pt 12.7616 34.577 16.0855
Au 19.2426 31.3256 46.9989
Au 7.44636 35.8904 17.6275
Pt 25.83 22.4787 35.0314
Pt 26.8537 18.8813 30.0151
Pt 9.73294 19.1677 15.1061
Au 42.35 37.7354 14.3103
Au 43.7076 25.8153 16.4498
Au 30.2279 5.00223 16.9528
Au 24.5298 24.1948 47.7955
Pt 19.2311 16.2012 42.9075
Au 39.961 25.5051 23.6259
Au 36.3563 22.9806 11.7603
Pt 28.6214 9.20585 22.4619
Au 46.9983 22.9629 37.1681
Pt 18.3913 26.6964 23.7205
Pt 14.5511 16.3651 26.2549
Au 41.6594 10.9125 27.6125
Pt 9.73372 19.0325 36.5501
Au 30.3325 15.4899 6.70208
Au 38.5859 24.3255 21.5789
Pt 23.986 6.09324 30.2538
Pt 18.5975 36.1405 27.0993
Pt 15.1343 15.5321 29.0521
Au 31.33 6.41165 14.3635
Pt 28.5844 25.5892 20.3216
Pt 14.6066 14.8479 41.1946
Pt 19.4628 19.3163 41.969
Au 42.2083 25.8698 36.7543
Au 28.8585 12.2855 11.967
Au 24.0587 6.94906 11.7507
Au 17.528 6.29858 26.0941
Au 40.772 11.7049 30.0817
Pt 11.6256 35.9881 20.5491
Au 45.3312 28.3764 9.83994
Au 21.5471 5.10091 18.7808
Au 36.3617 12.4895 39.3468
Au 36.3986 22.3139 21.9823
Au 14.2771 42.7248 20.1424
Pt 14.9227 12.2847 14.8715
Pt 12.9535 19.062 8.53224
Pt 25.2964 16.9495 39.6221
Au 41.6024 24.1722 16.3498
Au 32.3999 16.5216 40.1124
Au 31.6149 20.2767 35.8239
Au 37.9748 38.993 22.8595
Au 44.4963 29.3306 26.3925
Pt 17.7394 42.5117 23.2537
Pt 16.9911 14.5797 31.2019
Pt 19.7638 34.691 42.511
Pt 11.352 29.0704 20.727
Pt 5.50824 24.1753 19.1804
Pt 23.3022 28.4067 34.7111
Pt 13.7155 26.233 28.6147