3871
Atoms. Timestep: 21458
Au 5.53889 16.0892 35.0358
Pt 25.1016 11.5952 25.1169
Pt 31.6187 13.3732 14.8291
Pt 15.4434 11.5145 36.2644
Pt 8.87764 31.3737 25.1917
Pt 17.0767 20.1673 15.2372
Au 17.4804 13.3787 8.82135
Pt 12.8463 8.9497 21.3256
Pt 6.2546 23.2848 23.3446
Pt 16.5971 17.4995 38.1899
Au 11.0517 23.2531 44.3323
Pt 8.29081 34.1019 29.4391
Au 5.05029 36.9214 31.0587
Pt 8.34449 10.7968 22.9245
Pt 16.8222 16.7398 21.4913
Pt 19.6666 19.1117 18.4688
Pt 28.9003 7.0852 26.5073
Au 9.65244 8.80439 29.7327
Pt 15.0598 18.7798 25.0152
Au 8.22933 12.5665 35.7673
Pt 10.6141 25.0405 26.4382
Au 7.87736 35.6487 37.4585
Pt 18.9272 15.8328 24.6024
Au 4.33073 31.4784 34.0331
Pt 8.01903 23.1589 33.1128
Au 11.1915 16.8611 42.4124
Pt 8.47295 26.788 24.6914
Pt 16.275 7.42425 25.3298
Pt 10.638 23.2779 31.1904
Pt 9.12479 20.1831 27.6658
Pt 8.433 24.179 24.9407
Au 16.5755 9.02386 10.951
Pt 16.8417 36.041 39.7325
Pt 6.91387 17.0295 30.6553
Pt 10.3193 36.4341 20.9894
Au 16.4414 6.11444 14.701
Pt 17.2504 8.2982 32.1951
Au 20.9698 31.7975 48.1815
Pt 23.0264 9.71406 12.2927
Au 7.33751 13.0956 21.8793
Pt 11.8075 33.5852 38.8733
Pt 14.9315 27.3444 12.3238
Pt 10.0317 11.1377 15.2912
Au 4.71585 16.3349 24.8152
Pt 13.504 11.0798 27.2512
Pt 8.06176 33.4523 26.934
Pt 19.5837 16.5697 37.4101
Au 14.5744 43.824 26.7518
Pt 19.6798 7.93968 18.6297
Au 3.19354 25.9724 19.9848
Pt 16.9972 19.8654 17.9928
Pt 7.94737 25.4312 22.5668
Pt 16.8428 17.7679 28.3518
Au 11.7821 7.00174 25.6689
Pt 21.0288 12.5186 28.531
Pt 17.5075 28.1619 37.5008
Pt 30.6996 17.9097 28.0018
Au 18.5545 10.772 10.1173
Au 26.0105 21.5788 8.60481
Pt 13.4552 18.1858 11.4109
Au 6.00746 23.1052 34.9364
Pt 7.02233 18.2756 28.2236
Pt 6.85912 30.54 34.7035
Pt 5.38898 27.9567 29.6533
Pt 13.6839 22.942 12.4214
Pt 18.9133 18.983 41.3546
Pt 22.5516 18.8092 24.9235
Au 6.08251 10.3034 25.8634
Au 18.5158 37.348 8.48955
Pt 18.7898 21.6264 13.45
Au 27.99 9.36698 40.8228
Pt 18.2876 23.8033 30.8823
Pt 15.0835 23.098 18.8707
Pt 9.51739 14.4398 33.3078
Au 9.80888 19.4271 42.2574
Au 24.9763 6.44716 37.9515
Au 15.2673 6.4018 17.6924
Pt 14.9812 31.2732 40.2395
Pt 8.83894 19.8153 22.6087
Au 7.84203 20.447 40.4792
Au 11.3615 26.1149 44.6177
Pt 13.0051 28.1894 32.725
Au 27.1634 17.2241 10.6405
Pt 12.9303 13.0734 12.2446
Pt 10.7134 17.5311 10.8653
Pt 17.0912 23.7446 35.7774
Pt 26.4936 12.411 29.6254
Au 15.8081 42.0245 24.8807
Pt 14.0289 8.39457 26.4531
Au 5.90763 14.2498 26.5465
Pt 25.8129 15.3542 34.4422
Pt 7.13929 16.7509 26.1302
Pt 6.23371 20.4354 22.9896
Pt 19.4668 38.4563 24.8401
Au 3.34674 23.4492 34.385
Pt 15.2905 26.6837 22.0466
Pt 8.73699 38.3746 21.9017
Pt 10.3632 24.6202 33.5259
Pt 23.1582 33.9423 34.8668
Pt 21.233 18.6867 16.1898
Pt 12.9263 35.1555 29.9773
Au 40.7266 9.56142 32.5525
Pt 24.02 26.4029 33.3254
Pt 7.45237 16.24 33.1716
Pt 23.334 14.5464 38.1176
Pt 22.5277 21.2428 36.5737
Pt 18.7653 23.4522 37.8679
Pt 21.4127 17.2668 31.4142
Au 4.55292 25.7295 28.1307
Pt 17.7049 14.3754 30.9551
Au 34.0964 16.9934 43.698
Pt 15.8401 33.9183 41.2408
Au 8.59227 38.1321 34.0189
Au 18.3964 40.7569 39.9123
Pt 10.4632 28.3071 36.2912
Pt 17.6757 29.8377 18.3678
Pt 29.232 14.741 25.673
Pt 20.9883 14.2581 36.9109
Pt 13.8375 28.7601 40.3976
Au 24.0917 45.046 37.4943
Au 17.3695 27.1597 2.17015
Pt 9.75726 10.9579 28.0478
Pt 7.94926 30.9311 13.6975
Pt 20.562 34.588 22.8013
Pt 23.1108 10.9359 33.2255
Pt 15.8731 17.8791 16.4211
Au 9.97901 18.707 7.67183
Au 8.0728 39.7395 27.0126
Au 34.0514 21.9048 43.491
Pt 17.8368 25.9323 20.9955
Pt 15.6256 24.1298 21.5699
Pt 15.3871 18.2236 19.6582
Pt 17.0359 26.202 31.7757
Pt 7.46761 17.3917 16.7757
Pt 13.3085 23.9973 17.0449
Pt 12.882 23.5688 26.1684
Pt 9.51481 16.6164 31.397
Pt 18.433 38.3386 28.3093
Pt 19.6721 22.6221 35.3209
Pt 15.7086 32.6577 33.13
Au 9.37486 28.57 7.7003
Pt 11.134 29.3227 40.9267
Pt 15.7893 40.4822 20.9755
Pt 11.957 10.1597 29.2441
Au 6.05956 26.6332 11.8189
Au 23.4811 33.1287 47.8276
Pt 16.0655 21.6924 40.9563
Pt 13.3372 30.6158 14.5826
Pt 8.59079 24.4754 38.2454
Au 5.38683 32.4318 36.2477
Au 17.747 38.5065 41.2773
Pt 7.04423 20.9232 36.0566
Au 23.4808 8.1451 34.9439
Pt 23.8779 23.9859 43.0916
Pt 5.67522 25.2027 18.6786
Pt 14.5247 15.2826 38.2777
Pt 15.4243 30.575 9.12478
Pt 10.403 18.5438 36.4658
Pt 12.5844 20.8204 25.4534
Pt 15.0618 24.0931 40.3152
Pt 28.1184 40.5067 30.8641
Pt 17.7522 10.9696 32.2442
Pt 13.1915 26.6038 18.1937
Au 11.8426 13.8845 9.21976
Au 6.8984 33.0545 33.5997
Pt 12.5452 22.7039 10.1659
Pt 6.21891 23.9498 16.2264
Au 16.2555 4.88479 27.0168
Pt 16.4924 14.2029 17.4792
Pt 7.80968 28.2741 36.333
Au 6.77639 33.2787 38.3582
Pt 11.0039 21.5191 23.3774
Pt 10.6098 30.8714 14.325
Pt 9.95104 39.6653 24.5568
Au 2.33791 34.5953 20.0756
Au 3.8001 23.9156 24.6549
Au 25.0199 47.1529 21.0926
Pt 21.4165 12.046 19.2468
Pt 14.7374 37.3065 38.6197
Au 4.70792 32.2068 31.5423
Pt 10.7334 15.9243 36.3969
Au 14.8771 32.5849 43.492
Pt 14.4289 25.9612 27.0735
Pt 15.671 41.8754 30.1283
Pt 11.8992 28.3362 8.72748
Pt 12.1971 16.2474 30.3972
Pt 12.0357 35.618 25.2997
Pt 27.4942 16.6486 25.0277
Au 9.13857 42.3935 27.124
Pt 12.9195 13.4787 31.2486
Au 11.7649 33.1683 43.2741
Pt 26.6129 13.429 32.3114
Pt 18.7177 34.3649 27.0144
Pt 25.7984 41.3056 37.8453
Pt 20.8042 22.6069 21.3051
Au 13.2399 42.529 31.3297
Pt 14.3471 23.7163 35.5494
Pt 10.7652 28.3773 15.9132
Pt 11.2623 29.8842 34.0995
Pt 13.1618 25.5761 13.1399
Pt 8.01275 18.6976 32.5675
Pt 11.4947 23.4239 21.4172
Pt 9.25916 34.896 17.5422
Pt 17.7721 27.2333 4.87646
Pt 19.355 36.9196 16.8777
Pt 12.7866 26.0087 25.0486
Pt 17.1535 14.3462 22.9766
Pt 18.0003 27.8744 25.2628
Au 3.05818 23.7214 21.925
Au 5.78207 20.133 38.3474
Au 5.46097 29.4411 16.0615
Pt 10.8356 15.0971 28.1018
Pt 13.3889 41.2258 26.0308
Au 14.0871 39.513 11.3066
Au 4.81564 27.8962 21.3257
Pt 11.7817 29.7459 21.5947
Pt 16.4012 29.118 39.7617
Pt 11.9861 28.1996 38.4795
Au 26.1452 21.3303 47.8334
Pt 15.2156 26.137 35.9492
Pt 15.4035 29.3068 22.6452
Pt 11.3558 25.7996 16.2751
Pt 9.73805 34.0057 24.8112
Pt 12.2329 18.9288 40.9639
Pt 18.281 26.8596 39.6759
Pt 13.2773 16.5491 20.2075
Pt 11.1404 24.4328 8.69002
Au 10.2669 41.3486 17.1473
Au 21.3187 47.0969 25.3618
Pt 17.7909 25.9932 7.63103
Pt 15.2211 20.9373 29.4944
Au 13.8439 39.7856 38.4011
Pt 7.20115 28.2377 14.1269
Pt 15.0849 36.5853 34.7931
Au 11.5669 40.0018 12.8266
Pt 8.31727 35.6019 22.8782
Au 12.61 27.556 42.5366
Pt 33.8019 39.0356 21.3937
Au 8.08923 39.5665 17.4727
Au 6.63518 28.5545 38.7887
Pt 13.3474 41.8023 28.613
Pt 4.36543 27.4135 32.2643
Au 25.1672 47.1974 24.1028
Pt 18.8545 35.0447 38.0966
Pt 9.55165 29.2132 23.3539
Pt 15.2221 30.2067 25.1909
Pt 18.1329 43.7701 24.1353
Au 6.90523 25.4784 36.2134
Pt 11.5517 23.8628 14.3197
Pt 14.1528 28.9768 7.40153
Pt 33.2893 45.7011 20.262
Pt 15.1937 35.2276 32.026
Au 18.2792 46.5578 24.2252
Pt 12.1069 36.0223 38.0575
Pt 22.5798 43.1386 23.301
Au 18.714 42.962 11.0365
Pt 5.22359 29.0496 26.8965
Au 3.89991 36.2804 26.1464
Pt 20.3117 26.7702 41.3745
Pt 43.0325 40.4338 23.8451
Pt 19.7461 37.2557 14.2791
Pt 17.0437 12.1399 12.27
Pt 17.9921 21.0303 36.7443
Pt 7.03917 29.4013 20.3896
Pt 26.9146 18.3575 32.6802
Au 6.63426 13.7185 33.8865
Pt 14.1729 8.89683 17.7842
Au 15.7899 20.3933 4.92071
Pt 17.9963 11.9177 16.8575
Pt 37.4346 13.051 29.2695
Au 7.13419 39.548 20.0785
Pt 11.8478 16.2911 22.6757
Pt 14.5591 10.6738 19.7494
Au 26.2013 3.81938 30.5459
Pt 21.4167 23.7025 37.0592
Pt 23.8251 24.0121 31.9907
Pt 7.88564 14.3925 31.1868
Pt 13.367 28.545 26.1348
Au 6.56785 14.586 37.2076
Au 10.4115 8.79035 13.9179
Pt 13.3484 11.6175 24.82
Pt 15.3435 19.376 31.5638
Pt 19.492 21.5643 29.743
Pt 19.15 34.7735 8.90717
Au 37.5151 16.0125 8.44957
Pt 12.4034 22.2937 19.1164
Au 33.8678 23.6189 31.1553
Pt 15.3432 27.2279 24.592
Pt 18.2812 34.0594 11.3299
Au 39.3623 21.6333 31.2208
Au 38.0595 17.8951 34.1838
Au 38.6474 22.2894 44.2193
Pt 11.801 12.775 28.7127
Pt 12.0281 15.3449 33.0976
Pt 12.8836 9.10164 24.0263
Au 10.2191 10.7643 35.0851
Pt 13.1271 25.3587 22.6019
Au 47.8693 26.943 21.9446
Pt 11.0284 31.9358 31.7297
Au 27.0451 38.9848 44.7039
Au 7.00819 17.9503 39.8128
Pt 20.7103 38.4307 20.5084
Au 4.6506 27.817 18.4678
Au 5.8957 33.3444 13.4833
Au 5.99421 14.5285 13.8884
Au 6.93872 38.5445 29.3802
Au 3.39848 29.6867 31.2426
Pt 17.6982 20.8198 34.1239
Pt 8.84747 31.3899 28.9302
Au 24.0968 29.3173 37.455
Pt 30.3957 8.20131 20.6318
Au 22.0337 24.1781 6.28388
Pt 11.9574 11.2743 19.8829
Pt 18.178 15.6174 16.1295
Au 19.2641 4.48244 23.2419
Pt 10.6559 29.2704 31.674
Au 10.5699 30.607 43.2491
Pt 13.9279 37.2004 18.0392
Au 30.3488 20.8538 28.821
Au 25.0377 19.8091 6.46771
Pt 9.04568 20.1788 34.5554
Au 21.9867 12.7378 39.6725
Au 36.223 24.335 13.8418
Au 18.7528 20.7179 22.2929
Pt 15.5535 10.1846 25.1208
Pt 14.4713 14.9997 22.4896
Pt 8.69505 19.774 16.3343
Au 36.0261 18.3406 46.2223
Pt 7.93914 35.7929 25.6618
Pt 21.8021 10.0297 27.91
Au 7.95774 13.5245 12.2399
Au 12.5987 8.22225 31.2109
Pt 15.2521 21.7918 33.1332
Pt 8.28342 22.2318 17.0386
Au 9.945 37.3314 36.4535
Pt 6.96276 21.8007 30.8313
Pt 11.6483 32.642 11.7176
Pt 18.8642 24.3776 27.8863
Au 4.05692 18.8364 23.807
Pt 7.56672 29.1422 25.4029
Au 5.92715 17.3092 37.4678
Au 32.3711 22.8707 28.7561
Au 26.8564 32.4827 4.17883
Pt 16.5819 21.4648 20.3431
Pt 19.5688 40.0695 15.4317
Pt 10.2644 19.5557 12.8305
Au 31.9747 32.4362 11.9696
Au 37.5925 21.4038 5.17928
Au 14.2229 17.6772 22.5445
Au 21.2571 22.4021 12.0889
Au 28.6616 23.6098 25.7141
Au 37.8101 32.7438 7.40805
Au 22.5231 27.5108 39.5837
Pt 6.26862 20.7886 28.2095
Au 16.5563 35.7885 9.86444
Pt 13.0778 18.1871 18.0117
Au 43.2068 14.6384 36.7383
Pt 8.20951 24.6995 27.706
Au 27.8449 33.8088 24.1306
Au 20.5091 34.1903 4.19308
Pt 15.4987 25.9353 19.4214
Au 27.362 27.34 30.2847
Au 42.4785 17.3085 36.4504
Au 17.7774 29.3008 13.4671
Pt 20.7651 17.6568 23.1612
Pt 23.2982 20.093 16.7453
Au 31.0864 38.3635 44.9223
Pt 28.7898 26.6419 35.616
Au 3.84171 31.5624 26.8819
Pt 29.0959 8.66234 18.0481
Pt 17.6525 17.8702 25.8504
Au 15.9102 23.3462 45.7371
Au 7.47634 9.56239 27.9653
Pt 22.8445 43.2081 15.4361
Pt 10.417 17.814 17.233
Pt 38.0217 23.3074 17.9826
Pt 11.1325 34.5583 22.6684
Au 17.3213 4.48279 18.6093
Au 19.4834 3.05097 19.3205
Au 24.7507 27.313 25.2432
Pt 13.6681 12.6961 37.8489
Au 27.4633 27.384 4.45843
Pt 12.9397 35.5641 13.6705
Au 36.2161 23.6697 44.9077
Au 5.03891 14.6111 20.1131
Au 25.8494 15.0602 41.909
Pt 24.847 21.2104 35.3546
Pt 13.081 23.4752 32.7601
Au 31.2113 39.169 16.431
Pt 9.25039 21.0612 31.9226
Au 38.671 14.4559 37.9712
Pt 9.07496 24.2888 15.4796
Au 28.6316 33.0072 27.4785
Au 22.4781 20.275 2.54738
Au 29.089 35.1947 5.81626
Pt 8.94619 27.1005 38.4593
Au 28.4904 7.97246 11.0478
Pt 18.6813 32.7875 36.253
Au 23.0521 7.46058 39.5364
Pt 21.4139 15.0173 32.7894
Au 23.6635 22.5306 10.3317
Au 33.5381 22.5386 13.7452
Pt 15.3576 12.6841 21.5644
Au 25.6518 29.3955 49.1954
Au 27.2131 3.41696 28.1039
Pt 13.5648 31.1533 23.3419
Pt 16.6368 23.8525 42.6995
Pt 10.569 26.7327 40.6879
Pt 13.1497 37.6732 36.4164
Au 8.66839 16.9436 41.5975
Au 21.7004 3.51785 27.1244
Pt 12.6786 27.9134 30.1223
Au 11.8468 21.4389 42.4836
Pt 10.315 11.7508 30.6497
Pt 11.8737 14.3554 38.525
Pt 14.6815 20.6235 11.2506
Pt 9.88695 27.0364 18.3848
Au 4.66952 19.6843 14.1601
Pt 7.08055 15.922 21.3232
Pt 12.8233 11.3136 17.3394
Pt 4.94301 30.5637 22.2725
Au 7.42959 23.2168 40.4074
Pt 13.6448 20.2696 23.2258
Au 23.3055 22.9587 1.82856
Pt 6.43152 37.3145 22.3547
Au 17.2305 3.72635 21.5215
Pt 23.704 44.996 19.7535
Au 25.4266 32.6346 40.5961
Au 34.3439 23.5079 8.54465
Au 27.2982 19.8334 42.3413
Pt 10.3434 35.8583 29.9549
Au 24.236 19.3811 19.6589
Pt 11.4274 33.3554 17.3614
Au 40.3022 29.3547 10.0637
Pt 17.4618 23.9918 19.192
Au 28.8523 29.4138 35.0058
Au 38.5231 26.1898 14.0447
Pt 14.4365 38.0918 20.5596
Au 18.8334 24.7195 16.6253
Au 32.4506 18.0797 41.81
Au 34.5047 40.972 34.474
Au 30.7424 28.6986 26.9068
Au 30.2727 33.7656 47.615
Au 21.3001 23.7097 26.9209
Au 45.1732 22.0448 31.5535
Pt 29.5383 17.8505 32.8774
Au 24.0472 27.1936 46.921
Pt 14.4961 19.222 34.0991
Au 23.5984 8.65531 42.2194
Pt 15.8864 28.9135 35.8057
Au 19.5656 33.6584 15.745
Au 20.3008 28.4743 43.7591
Au 7.62966 15.1656 39.7296
Au 11.1509 34.9778 41.07
Pt 7.60825 26.6352 29.3824
Pt 9.87578 32.1025 37.892
Pt 10.1889 34.5545 36.8786
Pt 12.5347 14.008 20.9916
Pt 12.1032 9.27873 15.9022
Pt 10.572 26.5423 22.9186
Pt 8.13062 33.0352 36.0055
Au 3.5918 36.8511 19.237
Pt 5.61633 31.0926 24.8167
Au 33.4742 28.4524 26.5753
Pt 9.38351 29.6854 18.4869
Au 30.2032 23.1889 17.9464
Au 23.8855 34.338 10.5584
Au 32.1278 30.8287 25.4785
Au 21.4348 24.9413 2.62174
Au 34.9086 20.9345 9.56829
Pt 15.2208 21.9881 16.4827
Pt 6.5308 26.8134 26.6552
Pt 12.3766 33.1908 36.2151
Au 19.6627 35.5931 6.39792
Au 10.2918 25.4637 29.3524
Au 31.2858 27.9313 17.87
Au 10.6382 35.1395 12.3083
Au 6.46834 20.722 33.3443
Pt 9.1215 37.1669 16.1724
Au 24.4265 25.885 41.2954
Au 17.1161 12.0432 42.6128
Pt 15.0358 34.0928 14.6715
Pt 15.6612 41.1976 27.5123
Au 19.605 26.5517 14.7281
Pt 14.4119 25.969 31.4955
Au 30.385 34.3899 44.7127
Pt 16.5084 25.3676 38.1059
Pt 18.9033 22.4293 10.7145
Au 37.1059 27.2026 38.3129
Au 28.9886 31.227 48.1231
Au 32.5938 34.1508 39.5511
Pt 19.6197 30.8579 34.358
Pt 24.893 16.435 36.6592
Pt 18.4606 21.7155 42.1573
Pt 16.1621 12.8265 38.5256
Au 22.2902 11.3489 42.0481
Au 25.2625 39.5125 42.6167
Au 26.6012 17.3364 43.3239
Pt 17.6294 26.2966 42.3081
Pt 13.1787 17.0803 15.5592
Pt 6.17595 37.6656 26.6624
Pt 8.97715 22.9418 22.2258
Au 6.2021 12.4299 24.2893
Au 13.0317 44.3939 19.584
Pt 5.30656 25.1412 21.5221
Au 9.70015 8.40213 16.6727
Pt 15.5153 26.9194 6.21703
Au 13.4495 31.7281 7.48297
Pt 19.9526 36.6967 26.9737
Au 4.4515 38.0952 23.9119
Pt 26.9952 38.8158 24.3446
Au 33.0625 24.6943 24.7249
Au 14.9695 11.295 40.8341
Au 14.1537 5.76082 25.309
Au 17.8584 44.0881 33.7869
Pt 13.2343 35.5837 20.2156
Pt 9.10573 33.9488 32.0275
Au 4.8958 27.168 37.0309
Pt 7.20223 28.0986 22.7027
Au 26.4413 31.1685 28.5142
Au 3.32287 34.2123 27.9082
Au 18.3748 45.0045 21.7309
Au 19.4337 18.2676 43.8836
Pt 11.9803 27.3799 11.4597
Pt 13.2636 25.0633 29.2556
Au 32.2539 12.3699 42.7754
Pt 15.4737 23.4675 30.9028
Pt 20.9782 24.1619 32.6707
Au 6.47234 36.3833 33.3934
Pt 13.0967 21.5511 34.7734
Pt 11.9027 30.6354 36.6691
Au 21.7955 4.72662 35.0243
Au 18.193 22.6361 47.3746
Au 13.6125 12.6759 42.6945
Pt 25.1637 32.9493 33.3163
Pt 14.6364 31.1104 20.8679
Pt 20.8241 11.0135 12.0544
Pt 11.5983 20.3635 17.6514
Au 7.21886 15.0943 24.0331
Pt 11.4109 36.0927 18.1674
Au 17.6203 24.3275 5.45376
Pt 13.3112 28.7703 16.4818
Au 4.25526 21.5983 29.8938
Pt 15.103 24.4535 24.7497
Pt 11.9364 38.1362 19.7879
Pt 12.1311 32.9474 24.8972
Pt 20.9656 39.522 13.2469
Pt 7.27634 33.3322 24.1241
Pt 15.4237 31.7265 27.5836
Pt 4.79569 33.1858 23.3873
Au 3.91989 35.9346 21.9685
Au 30.4111 28.0108 37.0955
Au 8.5088 11.9245 32.8639
Pt 9.45878 26.8259 31.6014
Au 12.2452 40.3504 15.5119
Pt 8.24854 36.4841 28.1996
Pt 17.2839 21.4953 31.5791
Pt 27.2209 45.6804 23.2169
Pt 14.2712 35.0926 36.8978
Pt 13.9126 34.2988 34.2222
Pt 19.4588 30.9684 29.932
Pt 16.8868 14.9879 33.4058
Au 11.7945 43.3307 26.8907
Pt 14.3233 38.9799 23.0375
Pt 8.25648 21.6457 24.3321
Pt 25.7949 15.5447 23.1137
Pt 17.5365 32.5772 28.7591
Au 22.1595 32.5014 11.9339
Au 4.56473 25.2321 14.1872
Au 16.1472 17.3414 5.92827
Au 32.3192 21.5325 8.29347
Pt 20.0573 36.6276 29.7347
Au 5.76461 40.0638 25.2866
Pt 17.0751 36.8329 26.4704
Au 9.88259 40.0006 19.8247
Pt 22.1116 30.7834 30.8751
Pt 22.4299 40.3509 21.8917
Pt 8.86457 37.4053 19.0041
Au 29.3082 24.282 42.7811
Au 9.36181 25.0881 42.9352
Pt 29.1599 38.7062 38.897
Au 10.8881 35.7508 9.64427
Pt 10.027 24.0039 40.489
Pt 10.781 20.8613 20.8085
Pt 17.9737 42.5977 26.5154
Pt 7.06568 33.4983 17.7213
Pt 12.2178 37.7063 30.3827
Pt 14.1778 28.1791 9.99276
Pt 15.8467 38.6413 28.177
Pt 24.3315 30.7164 32.3881
Pt 17.3739 7.16492 19.4699
Pt 22.1091 10.5552 30.5086
Au 7.53582 8.32901 24.6839
Pt 19.068 19.1167 32.3208
Pt 15.2217 16.2976 26.8203
Pt 13.9601 13.1757 18.9755
Au 21.3696 2.87811 17.3152
Pt 5.85021 25.9128 24.0899
Au 4.01688 22.774 27.352
Pt 13.241 30.4285 31.3287
Pt 27.3776 17.9151 22.6584
Pt 8.18608 25.9845 33.9008
Pt 23.313 19.104 22.3384
Au 23.2551 21.4106 7.78343
Pt 23.8724 14.0944 32.7836
Pt 5.29317 18.815 26.172
Pt 22.6167 22.3697 39.1194
Pt 18.7208 18.9916 38.3635
Au 10.5613 7.27987 20.9169
Pt 11.4746 15.1301 11.8067
Pt 20.5423 5.78525 28.0933
Au 15.3098 27.3018 29.3086
Au 24.9556 15.2862 47.3991
Pt 17.2417 23.0424 25.9214
Pt 12.2913 18.0894 25.0316
Pt 38.5083 14.6771 13.7377
Pt 29.7999 11.8888 16.0965
Pt 14.6182 17.0608 36.5143
Pt 27.5934 14.7998 30.2187
Pt 16.8077 20.2729 27.2756
Au 13.3709 15.9469 9.9306
Pt 11.9237 20.2111 10.6222
Au 27.0073 33.2552 6.92235
Pt 8.18537 18.2565 12.0151
Pt 11.3693 18.8782 22.6347
Au 6.11097 12.0427 28.5681
Pt 13.8193 20.8902 8.7069
Au 31.6127 25.6978 37.8816
Pt 17.6836 22.305 17.2574
Au 34.8961 21.8568 24.4655
Pt 10.7685 22.0917 33.683
Pt 26.9791 8.08791 30.6021
Au 24.433 26.7491 30.1546
Au 31.5182 17.9814 44.8961
Au 27.0134 23.1287 38.5436
Au 31.5935 30.4798 38.6474
Au 34.2099 24.4255 15.7152
Au 26.7046 20.0805 45.1875
Au 2.26441 31.1101 21.4184
Au 4.63336 16.9676 21.8344
Pt 17.0947 8.87416 23.2359
Pt 23.7414 21.4673 23.8982
Pt 15.0125 21.6252 25.6483
Pt 17.2953 10.2328 20.9904
Pt 8.26766 24.9299 18.0055
Au 3.28524 20.5289 26.0017
Pt 25.0682 16.0302 12.531
Pt 19.0153 17.1929 29.9967
Pt 12.4789 11.7483 14.5448
Pt 19.1507 14.8285 13.2993
Au 7.97476 30.4508 9.35604
Au 4.23247 20.5692 18.5853
Pt 10.8789 27.7553 25.2514
Au 6.013 20.9955 16.1351
Pt 17.0621 19.6327 12.436
Pt 9.14617 27.151 27.1616
Au 24.7774 28.749 6.43245
Pt 8.73901 14.697 26.4296
Au 42.2771 15.9448 12.7046
Pt 19.7118 9.17903 30.8578
Au 23.8024 25.3556 11.3385
Au 42.936 15.3509 34.1354
Pt 11.5109 9.72013 26.3311
Pt 9.49431 15.4079 17.6148
Pt 10.9229 11.0103 23.9158
Au 40.1682 39.9471 12.9077
Pt 9.69291 29.6242 38.5179
Au 24.6757 12.5042 45.7944
Au 31.3801 26.7264 9.66717
Au 5.93868 27.8398 34.5126
Pt 14.7806 16.2984 34.0123
Au 16.778 28.9427 10.8847
Au 31.3532 39.6291 13.4834
Au 12.2727 19.0081 43.7595
Au 11.5572 14.1703 41.5557
Au 34.4569 21.951 40.8283
Au 13.5334 21.5444 44.8379
Pt 28.6021 4.44093 25.9395
Au 9.00793 34.0571 39.5741
Pt 8.34699 15.3878 35.4536
Au 23.3973 20.3125 12.229
Pt 9.70729 25.7598 36.102
Pt 19.2376 19.008 27.7095
Pt 20.6258 11.9002 16.4523
Pt 10.9561 13.3826 18.867
Pt 9.265 17.4705 21.6486
Pt 13.1022 13.9341 26.5038
Pt 19.4265 12.1981 30.5582
Pt 10.8647 33.3145 29.568
Pt 7.31988 27.9677 17.9618
Pt 13.2141 32.9013 41.0784
Au 47.1849 37.1442 22.6714
Pt 13.4722 25.2598 10.4176
Pt 8.87302 31.14 32.953
Pt 26.7457 12.1492 20.452
Pt 15.7504 24.8248 12.2918
Pt 14.0588 21.9318 21.1722
Pt 15.2949 33.8952 20.8482
Au 20.7197 29.8747 2.28999
Au 30.6958 21.9883 35.5545
Au 36.238 19.0925 5.74435
Au 35.7046 13.5783 10.9346
Au 25.1059 28.7512 11.0064
Au 27.4359 32.7442 18.5104
Pt 33.0908 18.4597 31.7475
Pt 17.0331 6.44053 22.0845
Pt 6.15408 22.4587 18.5525
Pt 8.98444 10.3293 25.5159
Au 27.6409 22.2899 35.8432
Au 33.8967 25.3338 12.9876
Pt 13.6404 15.8994 24.819
Au 41.0222 13.0604 37.6926
Pt 30.7092 18.5664 30.5777
Au 20.8809 23.0421 17.721
Pt 13.9171 13.6428 16.4521
Pt 11.3172 23.218 28.379
Pt 5.92374 29.763 32.3166
Au 35.0476 15.7946 9.4149
Pt 18.3522 13.6284 36.0723
Pt 16.644 25.1203 29.1636
Pt 12.9543 16.2362 40.4403
Au 34.957 34.1893 38.0515
Au 18.8952 20.0494 47.5343
Pt 7.37604 30.7854 37.4001
Au 22.5299 1.97106 22.5501
Pt 10.8106 21.1689 36.2791
Pt 15.536 21.3983 35.8023
Au 5.91324 14.7208 29.3192
Pt 21.3145 20.7315 23.1825
Au 13.1567 34.9303 10.9432
Pt 10.9912 15.5271 25.3724
Au 8.89274 8.81514 19.2935
Au 3.75351 26.6131 25.7301
Au 33.0188 29.0408 16.0578
Au 28.9034 13.6813 6.55993
Au 7.64069 12.3135 14.7064
Au 28.5788 11.665 8.73031
Au 22.6331 11.0817 7.7386
Au 46.5756 28.3007 14.0355
Pt 10.2453 26.5514 9.58801
Au 22.0739 27.7695 15.2112
Au 23.0274 24.313 21.6416
Pt 26.4411 27.356 20.27
Pt 19.7154 29.8046 22.421
Pt 6.74382 31.2936 27.131
Au 31.0807 23.633 4.70878
Au 20.5441 17.6156 9.6589
Au 14.5428 34.3985 8.41541
Au 19.3596 25.9592 44.4516
Au 41.2443 31.0656 12.3815
Au 32.2208 38.8881 10.8302
Au 29.1147 25.0887 11.2765
Au 26.0944 21.6139 20.0484
Pt 10.1247 29.6738 26.9746
Pt 7.60237 29.0687 28.1974
Au 17.8287 36.066 42.4601
Au 41.0874 10.7087 35.0594
Pt 21.2144 38.8406 28.6613
Au 29.4562 13.7494 47.4554
Au 12.3614 38.4532 25.1704
Au 19.4333 29.598 48.6897
Pt 19.5067 15.3497 22.1377
Au 30.301 26.9911 49.8916
Au 28.0436 22.5079 44.6711
Au 29.3585 40.5163 44.8577
Pt 9.51192 28.1023 20.8822
Pt 13.7348 24.5959 37.9967
Au 31.5963 14.8821 38.4746
Au 29.8504 47.3267 29.8669
Pt 32.6627 16.7504 29.265
Pt 20.7081 19.3523 29.9041
Pt 16.3195 36.1535 19.8664
Au 5.22918 18.0385 32.9709
Pt 19.2776 35.8367 20.1818
Au 35.3622 30.4919 4.60973
Au 3.28462 27.6377 16.024
Au 34.8027 20.3713 12.4226
Pt 9.55094 15.0399 22.6
Au 26.8673 26.2801 1.87308
Au 21.2063 26.6226 20.9066
Au 25.8502 20.3012 17.5226
Pt 14.4238 19.0141 27.5072
Pt 19.4513 28.0501 35.3314
Pt 6.21491 34.5399 21.6411
Au 26.9788 26.6087 10.2749
Au 40.0058 26.6625 40.2602
Pt 11.9503 27.0557 27.736
Au 44.7946 36.9605 17.9058
Au 26.6963 22.8618 32.0047
Au 25.4812 33.9335 2.35382
Au 27.2211 20.4821 39.4949
Pt 9.07239 17.8188 14.6398
Au 19.8879 30.9124 19.9501
Au 22.9346 17.1691 46.7307
Au 33.8892 27.4741 43.0759
Pt 17.3834 41.7622 32.2396
Au 28.3331 21.086 26.8124
Au 38.4271 25.6694 8.75347
Pt 11.606 30.1973 24.745
Pt 14.4641 36.5998 24.9352
Au 36.5352 31.8998 37.5832
Pt 21.5474 36.6759 37.8682
Au 35.4558 27.4212 47.6395
Au 9.6771 13.1232 40.0258
Au 38.9576 24.6566 31.1935
Au 2.97608 25.0874 32.2646
Au 30.7701 27.9427 39.8756
Pt 15.6554 14.2127 36.0117
Pt 9.23568 14.1917 37.7157
Au 23.7387 16.4624 43.6079
Pt 19.4375 24.3226 42.2312
Pt 7.36015 31.9575 30.9852
Pt 14.7033 32.8231 25.2367
Pt 14.908 18.3608 13.7735
Pt 34.3369 17.877 13.591
Au 7.56675 27.442 9.54519
Pt 15.2992 23.2556 9.89308
Au 6.3797 12.4826 19.1141
Au 4.61453 27.9541 13.7291
Pt 16.6508 22.4182 12.0504
Pt 14.6067 42.2188 22.4617
Au 35.5744 16.1995 38.031
Pt 23.789 36.0975 23.0421
Au 11.9169 33.3148 9.04685
Pt 8.23091 19.3084 37.6975
Pt 19.8408 31.9649 27.4096
Pt 7.7691 22.3051 26.8154
Pt 12.9721 40.4226 20.9455
Au 33.36 35.2309 16.296
Au 22.6421 15.7235 8.83693
Au 22.1427 29.8183 11.3149
Au 22.789 32.9383 41.594
Au 26.014 35.9397 9.475
Au 28.5094 27.197 32.9696
Pt 24.5501 20.0738 25.9945
Pt 17.8242 26.6389 18.3125
Au 30.9886 26.1831 47.4444
Pt 33.3829 41.1515 31.9653
Au 45.9606 19.2265 12.5351
Au 10.7008 37.5518 13.7405
Au 33.0369 15.7538 45.9197
Au 32.7155 12.8157 40.0347
Au 26.054 31.9106 48.2244
Pt 16.0055 34.3231 26.9828
Au 39.0667 33.5923 40.8455
Au 24.3822 23.545 36.9372
Au 33.1319 15.0738 41.8973
Pt 11.15 25.5094 38.4408
Pt 11.6996 23.8288 35.7186
Au 36.3879 44.2267 27.4689
Pt 19.3137 26.0948 30.2333
Au 39.487 10.0483 37.0481
Pt 22.7767 35.7115 42.3994
Pt 10.453 17.8384 29.2325
Au 5.32703 30.5891 13.4031
Pt 4.7481 32.2586 17.9295
Au 10.3686 12.6256 11.0435
Pt 38.5426 36.5976 20.9949
Au 2.91387 26.8873 30.0758
Au 8.1199 41.1549 32.3773
Au 9.04504 10.9571 12.7675
Au 5.91637 13.2259 16.5101
Pt 13.129 22.5646 30.2589
Au 28.6715 31.5213 2.39969
Pt 5.13791 34.663 19.0839
Au 15.0993 44.1736 17.7551
Au 12.0194 13.7275 23.752
Pt 17.5591 39.9989 17.1946
Au 29.2427 30.5951 18.7707
Pt 12.6135 32.7249 21.5023
Pt 8.50901 29.751 15.9824
Au 10.2198 36.9871 23.8789
Au 2.88702 31.3568 24.1287
Au 10.853 16.2513 8.43836
Pt 15.6085 39.3928 18.6842
Au 22.1044 12.0098 44.9441
Au 14.2313 41.0557 13.734
Au 21.9716 27.2844 9.99735
Au 39.5129 28.691 12.7065
Au 36.7047 22.5529 30.9384
Pt 13.2243 21.4323 27.8842
Au 31.477 19.3351 36.1363
Pt 16.2608 33.8186 35.6372
Au 3.9823 19.232 28.5015
Au 5.18874 15.2368 32.0676
Au 31.4314 40.3361 43.0065
Pt 24.519 22.1264 29.9253
Au 23.8423 42.8536 39.2408
Pt 17.5021 35.498 15.4584
Pt 21.5251 30.2176 38.513
Pt 12.5621 23.2813 40.14
Pt 13.1976 39.0433 27.7465
Pt 20.7561 20.5133 40.4796
Pt 12.6483 16.8278 27.4983
Au 25.969 27.4602 17.6954
Pt 33.0682 38.617 38.7502
Au 18.3311 23.1665 8.0561
Au 15.6251 44.6541 24.208
Pt 18.8016 32.3116 17.9939
Au 4.30458 21.5887 36.4216
Pt 21.8294 38.636 26.0244
Au 2.49828 28.7533 20.0059
Au 20.5946 45.0501 23.659
Au 10.9276 40.4438 27.0567
Pt 19.5218 44.9587 26.1406
Au 16.1191 46.4584 22.3773
Au 16.1379 44.2258 31.4288
Pt 6.33622 36.8468 19.8845
Au 16.5807 38.3921 10.6026
Au 24.9248 34.3755 5.16516
Au 27.138 35.355 3.91635
Au 46.5635 29.7038 16.4575
Pt 20.7879 46.6408 29.4012
Au 5.77524 35.6167 28.555
Au 11.9722 28.8979 44.7764
Pt 9.10679 32.3682 18.8369
Pt 9.34851 30.6631 35.6723
Pt 17.4795 32.6168 25.316
Au 9.62385 39.0938 31.5635
Pt 24.576 38.945 36.8044
Au 9.21339 15.0102 10.2398
Pt 11.6932 34.4994 32.5111
Au 4.47258 39.466 30.4761
Au 36.673 22.7202 42.2804
Au 18.6942 45.5719 31.3822
Pt 36.8097 41.7836 28.6497
Pt 5.38839 25.361 30.722
Pt 17.7219 24.1713 40.2322
Pt 22.1878 37.244 40.3781
Pt 16.8333 19.1076 43.1824
Pt 22.4938 36.56 27.7211
Au 29.5744 43.6949 34.5691
Pt 6.74528 32.1857 20.3074
Au 20.1066 45.8071 33.7612
Pt 40.7342 41.4441 22.6577
Pt 16.4344 37.1749 17.2864
Pt 18.0877 40.9742 28.7614
Pt 25.6414 20.4698 28.249
Pt 15.5441 27.8717 17.5598
Au 24.7873 24.8873 17.1853
Pt 6.84081 36.1917 17.3531
Au 3.58668 38.9468 26.3319
Pt 11.586 40.2797 29.7899
Pt 8.64695 26.8613 15.9128
Pt 12.9912 28.1309 23.2802
Au 11.4014 38.6541 38.4073
Pt 19.8728 34.928 32.1227
Au 24.5165 45.6594 34.4248
Pt 14.2252 32.6692 38.1278
Au 4.33395 24.4756 36.7398
Au 6.35995 34.5258 31.28
Au 32.2228 34.0267 2.82521
Au 23.6409 46.2114 29.3292
Au 21.716 30.94 43.2595
Pt 22.8975 28.4938 32.0037
Au 11.9928 24.7545 42.3286
Pt 18.7976 45.1269 28.6329
Pt 16.5779 29.4466 6.09535
Au 13.3357 15.3302 43.2521
Au 19.1214 10.0163 41.9811
Au 16.5941 33.9214 45.7533
Au 26.4944 46.0198 36.4283
Pt 11.8954 26.8392 20.6499
Pt 9.37007 33.1614 13.4599
Pt 26.0584 36.1145 24.3805
Au 38.35 35.8162 12.4106
Pt 17.3488 30.6572 21.0506
Pt 22.5322 35.7974 32.9426
Pt 10.2625 34.9155 27.3215
Pt 21.5624 40.6436 24.3388
Au 27.9833 33.6089 48.9942
Au 16.7749 5.66216 32.4689
Pt 23.8316 5.30636 26.2504
Pt 36.4778 20.3203 22.131
Au 21.341 9.85701 9.73767
Au 18.9574 3.81916 16.4806
Pt 10.3632 22.2283 26.0961
Au 5.20006 15.8156 16.2655
Au 18.5049 4.06135 28.5884
Pt 32.7767 8.98799 24.8131
Pt 13.1547 26.1056 40.192
Pt 19.2439 9.04792 33.6817
Pt 26.3917 18.2637 26.9014
Pt 14.5762 17.2077 29.5675
Pt 21.1445 14.922 19.8669
Pt 43.7074 21.011 20.7588
Pt 17.1875 14.569 25.977
Au 7.84073 10.873 30.347
Au 6.1741 25.6283 38.8624
Pt 14.2005 18.2992 39.2268
Pt 23.8824 17.7967 27.6367
Pt 10.1614 19.6881 25.108
Pt 17.0525 10.7682 14.6801
Pt 37.7648 10.9748 18.2278
Pt 10.7181 15.7794 20.092
Pt 14.6327 10.8938 33.7173
Pt 39.5643 13.9536 16.1759
Pt 17.238 22.4377 28.7601
Pt 8.87747 11.5551 19.8735
Pt 14.5969 27.3484 38.1295
Au 38.4966 6.23661 21.468
Pt 20.8429 17.9232 39.6416
Pt 30.8202 15.1297 21.2183
Pt 26.5533 9.08705 18.2992
Au 16.7655 4.8796 24.329
Pt 22.7434 4.59081 19.1493
Au 5.89721 9.89209 23.129
Pt 29.7752 14.4481 16.7478
Pt 17.2624 16.3271 35.6855
Pt 14.0395 19.669 15.9515
Au 23.9054 5.4941 21.5449
Pt 12.8299 20.7251 32.098
Au 48.8535 24.8565 23.8011
Pt 10.4854 26.2305 13.8238
Au 30.2472 16.8177 36.9198
Au 24.5806 29.8375 26.7078
Pt 21.0608 15.51 11.3886
Pt 7.30345 22.5982 14.2049
Pt 12.2824 30.9566 39.2851
Au 24.1399 26.063 6.38582
Au 31.6343 25.8906 42.6439
Au 35.2168 19.0729 17.179
Au 38.2524 22.8636 46.7213
Au 5.43394 38.6633 18.1454
Au 5.47809 18.373 11.9474
Au 27.2062 30.3844 6.37285
Au 28.5094 20.6204 21.7022
Pt 20.7228 15.1607 39.4366
Pt 16.1442 21.5348 43.8004
Au 24.5599 17.5798 41.1443
Pt 23.3519 10.1304 39.8707
Au 37.6846 25.2788 40.1198
Au 34.7588 8.84232 38.9856
Au 30.6037 14.1152 41.0568
Au 21.2038 4.31251 32.4601
Pt 16.8643 9.72887 34.6845
Pt 22.3089 22.2022 34.0665
Pt 24.2857 8.87948 31.8254
Pt 21.3127 16.9476 28.5559
Au 24.476 3.45754 28.1302
Pt 16.4528 15.1375 28.8813
Au 18.4294 20.6054 44.8626
Pt 26.4429 11.1021 36.473
Au 35.1644 8.50527 14.8352
Pt 19.443 19.2441 14.0749
Pt 6.72149 17.8091 23.5372
Au 12.3708 9.37558 33.9925
Au 43.1713 8.77932 23.3621
Au 12.1637 6.87457 17.2342
Pt 7.37935 19.8743 13.9933
Pt 14.5786 23.9142 14.6558
Au 15.1663 18.5395 9.15247
Pt 12.9821 19.1897 29.8591
Au 27.6993 20.283 13.3113
Pt 13.3468 38.3467 13.7415
Pt 7.22911 26.6932 20.2605
Pt 29.8297 9.1279 15.4916
Au 33.4412 36.3496 9.1289
Pt 8.39251 24.7116 10.1591
Au 21.1537 34.7435 10.6912
Au 24.6305 31.5024 11.1325
Au 21.8714 29.1584 47.4377
Au 24.6996 19.5558 9.78047
Au 20.4133 7.45576 38.7747
Au 32.9923 13.1456 10.3255
Au 31.143 36.1122 4.14807
Pt 15.1733 13.4242 24.607
Pt 23.2763 8.19546 21.4623
Pt 34.8015 7.41013 32.402
Pt 25.2619 9.49723 14.072
Pt 35.7232 22.5223 20.5444
Au 22.7643 22.9543 49.9115
Au 33.3282 30.3637 2.76588
Pt 18.4247 12.7793 21.2698
Pt 14.2577 11.8682 29.5692
Pt 11.619 19.4824 34.1411
Au 47.185 20.4186 32.4722
Au 29.9072 32.6177 14.079
Au 31.7195 24.6735 7.54474
Au 35.3894 26.3579 27.2653
Pt 27.37 5.92553 29.1461
Au 10.2812 9.70797 32.3049
Au 30.5844 28.0865 14.2878
Pt 35.3302 11.443 17.4077
Au 25.7622 29.2028 44.2701
Pt 13.1909 35.0417 16.3759
Pt 9.83953 22.4518 10.1153
Au 17.9905 18.9034 4.56427
Pt 24.8584 12.5273 22.4334
Au 11.1859 26.5102 6.69145
Au 20.5212 27.5471 12.3417
Pt 19.3099 13.1148 11.2361
Pt 17.9266 33.3132 20.3071
Pt 15.4097 28.1355 42.616
Au 19.8606 32.2671 9.9989
Pt 9.45634 19.7711 10.1356
Pt 13.6207 33.1055 31.6207
Pt 9.51268 22.7526 19.3425
Au 20.7974 21.5698 6.66242
Au 24.9762 24.0266 48.1816
Au 40.5314 10.1551 19.0353
Au 30.589 29.4654 2.15697
Au 29.6851 21.4661 24.1609
Pt 10.8099 12.6253 26.235
Au 35.1097 16.8409 6.83477
Au 31.3988 28.8071 11.5326
Au 22.5883 14.8993 4.79146
Au 29.4887 20.5284 8.67348
Au 26.3263 18.5419 15.2331
Pt 18.8916 18.3809 35.4929
Pt 21.7242 21.343 25.765
Pt 19.1162 11.3849 34.964
Au 25.8372 40.4905 11.2378
Au 19.7789 30.332 45.8807
Au 44.332 17.1847 38.2461
Au 27.8304 22.0843 29.5841
Au 28.5342 20.9723 18.65
Pt 10.023 28.2782 29.3403
Pt 25.5095 18.4148 38.7618
Pt 21.9821 21.6824 28.5864
Pt 20.1402 25.1844 34.9623
Pt 14.7942 15.3049 31.5093
Pt 25.3967 18.2512 34.7084
Pt 27.7007 13.5495 35.0087