3871
Atoms. Timestep: 21511
Au 14.0849 3.54944 22.3249
Pt 10.8144 6.43623 28.1251
Pt 12.3871 6.99826 24.4401
Pt 9.58869 8.55936 31.7164
Pt 7.5152 9.64327 30.4918
Pt 11.9994 9.38521 31.3301
Au 14.7794 3.67624 26.0105
Pt 4.82224 16.7246 31.4787
Pt 7.97128 14.0683 23.1384
Pt 11.5478 8.88113 22.627
Au 5.42714 12.4389 22.4999
Pt 10.3078 10.3606 20.8968
Au 12.196 5.50691 21.8685
Pt 10.8136 7.6364 20.4966
Pt 9.45674 12.1784 19.3244
Pt 7.10515 12.2176 18.2063
Pt 9.62801 12.906 28.8329
Au 7.84386 7.50194 24.7456
Pt 8.06701 11.4181 22.7037
Au 12.0879 4.25779 24.2884
Pt 8.44011 10.5532 28.2052
Au 5.31296 10.8804 28.9935
Pt 8.39663 10.1265 25.2747
Au 6.62799 8.47869 28.1911
Pt 9.24986 15.9194 14.4745
Au 3.44996 16.0237 23.4009
Pt 7.31637 16.992 18.7106
Pt 7.35794 13.0596 20.7145
Pt 4.9316 17.1231 20.5182
Pt 8.01104 15.65 20.8979
Pt 5.74399 15.219 22.304
Au 7.53297 10.2935 20.2913
Pt 5.77706 16.5637 25.0172
Pt 7.76901 14.8193 25.5836
Pt 5.00198 14.1353 24.7932
Au 4.32098 11.4967 24.8313
Pt 5.23043 14.0038 29.5206
Au 6.20806 9.74578 23.7514
Pt 6.15709 10.5146 26.5473
Au 4.93597 14.7613 33.2721
Pt 7.52739 17.5129 31.7749
Pt 9.05665 8.14806 27.1261
Pt 6.88485 12.3713 24.903
Au 3.76871 19.0067 33.4116
Pt 7.79204 17.4355 35.7031
Pt 5.843 17.3833 33.8579
Pt 8.95135 13.3097 31.3529
Au 7.80373 15.3821 37.6945
Pt 5.76385 19.1115 18.938
Au 4.86135 23.3353 13.7961
Pt 15.5593 22.8133 8.10918
Pt 10.2397 18.4364 10.0376
Pt 4.40651 21.6702 19.3035
Au 7.54178 23.5286 9.09143
Pt 7.2693 16.1301 16.293
Pt 4.92954 19.9152 21.2145
Pt 5.44697 17.9837 22.9242
Au 2.80644 18.5719 22.3401
Au 5.56356 20.9387 14.8362
Pt 3.61129 18.2591 24.973
Au 3.31165 15.8692 26.3394
Pt 7.84358 16.7751 23.3958
Pt 6.9541 20.3147 22.7587
Pt 5.79293 15.2159 27.3057
Pt 3.93528 16.371 28.99
Pt 6.43058 17.0505 29.3814
Pt 7.77556 17.202 26.8348
Au 3.01737 18.4777 30.7232
Au 1.93964 23.7306 28.7665
Pt 7.76372 15.4344 33.7554
Au 7.47246 19.5592 29.6424
Pt 7.53491 19.4622 33.7722
Pt 5.63594 19.3449 31.6748
Pt 7.77417 19.4179 37.6306
Au 3.56548 25.668 34.6389
Au 5.81989 15.4557 35.7572
Au 5.56535 19.3562 35.7924
Pt 9.73864 17.4069 37.6144
Pt 9.85683 19.4277 39.3976
Au 5.54361 24.778 38.1467
Au 8.62705 20.8219 9.18862
Pt 13.3425 24.726 10.7676
Au 16.8305 24.8306 3.80728
Pt 13.8814 20.6957 8.45313
Pt 9.9342 20.436 11.72
Pt 7.52064 22.9074 13.3892
Pt 11.2698 20.8059 9.33135
Au 2.66775 21.2887 21.6709
Pt 9.16035 22.9375 11.0703
Au 4.1373 22.68 16.6759
Pt 9.48116 25.3772 9.81767
Pt 6.20116 23.5609 18.5238
Pt 3.61976 23.3217 23.4344
Pt 5.48142 22.5868 21.6983
Au 6.50287 21.151 17.3699
Pt 4.44507 20.5883 23.7576
Pt 4.14386 20.248 26.5228
Pt 6.3738 19.2354 25.2097
Pt 6.31475 22.3731 24.3793
Pt 5.19199 17.9292 27.2465
Pt 4.81648 19.7251 29.1683
Au 9.10634 19.5198 27.365
Pt 6.61737 20.7881 27.2816
Pt 4.74801 21.8327 31.125
Pt 4.30608 24.3332 30.2111
Pt 7.38228 21.3823 31.8307
Pt 6.83932 22.398 29.3904
Pt 4.54459 23.7712 32.9735
Au 5.92601 17.4459 37.6702
Pt 7.57085 21.3791 35.7157
Au 7.43915 23.2892 33.8205
Pt 7.86241 21.2997 39.4801
Au 6.06088 30.4765 39.0542
Au 5.91475 27.6128 39.3401
Pt 5.55683 23.6947 35.6404
Pt 11.2965 26.9088 41.9676
Pt 11.7189 21.1373 43.3461
Pt 15.4278 22.5673 45.7131
Pt 13.6035 22.8904 43.5209
Au 12.6134 23.3945 45.9844
Au 6.97176 26.1776 9.78979
Pt 11.8228 25.3562 8.73739
Pt 14.1115 25.3334 7.43905
Pt 14.0264 22.0974 6.11012
Pt 10.9305 24.6992 12.0228
Pt 9.04855 24.4776 14.9764
Au 4.74038 16.7615 17.7378
Au 3.69274 24.9715 18.297
Au 1.81786 23.9374 25.7472
Pt 6.64122 23.502 15.9468
Pt 8.46398 21.5337 15.5483
Pt 8.18904 26.8846 15.9381
Pt 8.61644 24.7837 17.5798
Pt 7.43896 26.2284 19.3999
Pt 5.31959 25.0082 20.4682
Pt 9.81424 28.9145 15.4259
Pt 6.92911 24.7498 22.7254
Pt 4.11112 22.6733 25.8431
Pt 6.44962 23.4115 26.8877
Pt 7.49925 26.9513 24.5425
Au 4.14081 25.242 15.5304
Pt 4.51999 26.8237 29.366
Pt 6.46702 25.0982 28.865
Pt 4.34454 22.2761 28.4532
Au 1.87414 21.4229 27.2757
Au 4.26803 12.8823 27.1776
Pt 6.65108 24.0591 31.3992
Pt 6.63435 26.6049 31.2472
Pt 5.42916 26.593 36.261
Au 2.56947 18.5447 27.894
Au 6.08727 33.463 38.6056
Pt 7.69694 25.2352 35.8442
Au 5.75029 21.5451 37.6542
Pt 8.33475 31.9047 38.4964
Pt 7.7557 23.313 37.6729
Pt 9.70912 25.3065 37.6668
Pt 7.69317 25.1687 39.6261
Pt 8.49452 34.6972 38.8823
Pt 12.577 29.0657 42.7297
Pt 11.8841 25.0665 43.889
Pt 8.31548 29.1708 39.5528
Pt 13.8044 30.9993 43.9116
Pt 11.3577 27.7729 8.07018
Au 11.518 21.2181 6.69396
Au 6.28514 38.6468 20.895
Pt 11.475 27.0418 10.8492
Pt 12.5228 30.0138 8.58371
Au 5.86256 31.825 15.2211
Pt 8.90397 27.5606 11.2452
Pt 6.04731 25.9379 17.1703
Au 7.32004 33.8938 14.1428
Pt 6.57571 25.5162 14.2467
Pt 7.26308 29.651 15.7256
Pt 8.4671 28.5703 20.2496
Au 2.71869 26.653 20.6582
Au 2.93197 23.8326 20.7844
Au 5.37578 27.7955 15.1537
Pt 4.28992 25.7902 22.6823
Pt 7.09128 29.4583 22.5778
Au 2.03295 21.2093 24.5396
Pt 3.21952 26.208 25.2497
Au 2.29761 23.3747 31.5405
Pt 5.47915 26.9744 26.7966
Pt 4.01494 26.3876 32.0973
Pt 4.54507 30.975 35.1543
Pt 7.1528 28.9294 32.4116
Pt 4.03981 24.8161 27.4721
Pt 6.1317 25.7642 33.6716
Au 5.2982 21.3196 33.8784
Pt 4.95389 28.3003 34.0717
Au 3.89326 33.2045 33.6729
Pt 5.74006 29.1015 36.6991
Pt 8.35226 29.5454 36.9711
Pt 9.65265 27.029 39.7206
Pt 7.429 27.7787 34.8147
Au 3.22835 31.7499 31.312
Pt 13.5493 30.4213 40.8368
Pt 8.07581 33.7609 36.3223
Pt 10.4733 29.4324 10.1014
Pt 8.66832 32.0561 15.8724
Pt 11.2248 31.0158 14.7441
Pt 4.93671 27.3769 19.2286
Pt 8.22405 31.2927 20.1661
Pt 7.00156 28.3999 17.9342
Pt 6.68162 31.3998 17.8547
Pt 6.57045 27.1148 21.6921
Pt 8.60602 35.7465 18.1555
Pt 7.98526 28.0668 13.5931
Au 3.1512 29.3963 19.5648
Au 2.43288 27.9511 23.3292
Au 4.37507 31.9122 19.203
Pt 5.48923 24.9608 24.9653
Pt 4.42848 28.5724 21.7282
Au 1.73075 25.2129 23.1307
Au 3.93632 34.8342 30.635
Pt 4.94023 28.6959 31.1049
Pt 5.53987 35.3287 33.0238
Pt 5.20319 30.7922 32.7593
Au 5.5237 39.3436 27.8068
Pt 6.67643 35.4276 30.4553
Pt 7.34477 35.3128 28.0133
Pt 5.38208 34.0861 35.9165
Pt 8.15431 34.443 32.3722
Pt 7.21835 30.391 34.6262
Pt 7.7503 27.1228 37.6734
Pt 7.33725 35.7829 34.7795
Pt 6.29622 35.901 21.4138
Au 4.84019 35.7643 23.6827
Au 12.92 41.2943 14.9209
Pt 8.53562 36.0625 22.8703
Pt 9.9955 41.0692 21.8029
Au 10.133 42.6043 19.5741
Pt 6.18616 31.8861 21.7808
Pt 7.23296 35.8576 25.2465
Au 4.96823 37.407 31.3724
Pt 4.79256 30.2928 23.8339
Au 6.99118 40.9628 29.3751
Pt 7.59755 37.829 27.1377
Au 2.46726 27.1355 27.6865
Au 8.35007 40.1801 34.4555
Pt 14.7392 43.3371 28.9258
Pt 5.70987 33.1453 31.5317
Au 9.0216 43.0159 23.5062
Pt 6.46011 31.7018 36.6846
Pt 9.81111 39.2507 32.3558
Pt 8.65468 40.2865 27.1787
Pt 11.3617 40.342 19.199
Au 6.68321 39.8402 25.3152
Pt 11.8975 39.0978 16.8321
Pt 11.6776 37.2283 25.4998
Pt 15.0762 40.8194 20.3317
Pt 10.1263 37.9916 18.5274
Au 13.702 45.1962 26.8946
Pt 9.08575 37.9505 24.9134
Pt 13.5242 38.7591 19.6075
Au 15.2697 46.3005 28.9944
Pt 13.8168 41.113 24.4279
Au 10.8029 43.7129 31.085
Pt 11.2659 39.1974 23.5433
Pt 16.3833 44.4174 30.6743
Pt 13.9046 40.8037 27.3738
Pt 12.6312 11.4171 22.2924
Pt 14.6387 8.1038 17.7637
Pt 11.478 10.6046 18.118
Pt 13.8671 7.70457 22.3416
Au 23.7549 3.22533 25.6103
Pt 15.1104 6.48278 26.8307
Au 14.5699 4.04052 19.6254
Pt 17.7358 7.23178 27.3616
Pt 8.81941 8.95111 22.6309
Au 10.0668 5.83871 25.6403
Pt 16.9611 6.33708 24.9427
Pt 10.1025 6.67721 23.0575
Au 8.61665 7.20615 29.6517
Pt 13.2574 6.59205 28.9617
Pt 12.756 5.41977 26.5855
Pt 17.725 7.49674 31.3711
Pt 9.22878 11.1855 16.9017
Au 9.34311 9.0003 18.6119
Au 12.957 7.29642 15.4409
Pt 12.8307 9.35065 20.367
Pt 8.39482 13.6207 16.0388
Pt 13.3157 9.85445 16.4669
Pt 11.6422 11.5473 15.3003
Au 12.9898 9.92608 24.6271
Pt 10.4653 11.1685 23.8681
Au 15.7047 9.20626 27.1541
Pt 8.26636 14.5214 18.4735
Pt 10.4335 8.54321 24.9857
Au 10.9472 10.5061 26.7671
Au 12.6663 8.22681 26.8724
Au 12.8709 12.6503 24.8556
Pt 10.7457 8.86928 29.0652
Pt 6.77255 14.9468 31.3225
Pt 9.81983 10.9376 30.6204
Au 11.9906 11.3828 29.1873
Pt 7.01836 12.2006 30.3636
Au 13.6529 5.63644 33.462
Pt 8.58322 10.9813 32.8424
Au 11.3694 11.1028 33.4126
Au 9.78807 13.3443 37.6463
Pt 12.0994 18.6734 8.03763
Au 7.71278 18.7691 10.9739
Au 10.6626 16.2667 8.54783
Au 5.75809 14.0997 16.8984
Au 3.09473 19.0104 19.5185
Au 9.01189 13.6643 12.5586
Pt 11.9737 16.1393 13.7239
Pt 6.26097 18.6122 16.3979
Au 9.91922 16.2951 17.3067
Pt 5.8116 14.8393 19.5054
Au 13.324 13.7128 14.5043
Pt 10.0508 12.9503 21.8107
Pt 10.1788 15.6774 22.349
Au 10.53 14.042 24.4396
Pt 10.603 14.7584 19.785
Au 9.24171 12.5276 26.196
Pt 7.96009 14.9191 29.0161
Au 13.4938 13.6162 29.3656
Au 11.8224 13.3727 27.1772
Pt 6.96078 12.8291 27.6707
Au 2.41593 21.0483 29.9495
Au 11.5469 13.2942 31.4386
Au 11.2808 15.3428 29.4642
Pt 9.66616 13.4085 33.8107
Pt 11.6557 13.3891 35.5507
Pt 11.9089 11.5577 37.4825
Au 11.51 15.4404 33.4563
Pt 6.91847 12.9605 33.0492
Pt 10.0082 17.5265 41.3063
Au 9.54824 8.97051 34.2895
Au 7.83624 17.4694 39.6446
Pt 11.7836 17.4467 39.3793
Pt 14.7271 22.4111 10.7836
Au 13.3437 16.2671 7.32796
Pt 15.994 20.116 4.79097
Pt 10.6528 16.0831 11.388
Pt 9.40184 17.9658 12.9595
Au 6.86955 14.6267 14.0761
Pt 12.5702 20.8901 13.1614
Au 6.86992 21.4971 11.1613
Au 3.96929 19.9059 17.0641
Au 11.6503 17.9086 15.7528
Pt 11.7933 18.405 12.2206
Pt 7.39806 18.2988 21.0585
Pt 7.15179 21.2432 20.0951
Au 8.52557 19.4271 18.4361
Au 13.3726 20.3939 15.8145
Au 9.91375 17.5219 19.9895
Au 8.84116 19.1778 24.1994
Au 12.6777 15.7058 23.8682
Au 8.49385 22.3907 22.6862
Au 10.1454 16.8036 25.0151
Pt 9.82306 15.2228 27.1615
Au 11.2787 17.5263 27.4675
Pt 13.2718 19.643 23.0885
Au 9.24848 17.3945 29.3797
Pt 9.45333 19.4701 31.6463
Au 11.4472 17.5279 31.3984
Au 11.2195 19.5419 29.4167
Pt 9.47377 15.7123 31.5879
Au 9.63852 19.4682 35.6198
Au 9.60079 17.5165 33.6387
Au 11.6412 19.4936 33.5563
Pt 9.7132 15.4231 35.6752
Pt 9.8936 21.3673 41.4086
Au 11.7964 17.461 43.3451
Pt 11.7183 19.4493 37.4177
Au 7.74801 23.0574 41.5027
Pt 11.8012 19.4107 41.3442
Pt 11.9741 15.539 41.3078
Au 14.8824 24.6062 47.4209
Au 13.8478 17.4382 45.2284
Pt 15.4735 17.6733 6.058
Pt 17.5863 29.4932 5.1929
Pt 16.2349 20.297 7.36174
Pt 13.7481 19.4997 6.15375
Au 10.5308 19.9568 14.4912
Au 7.97125 16.0386 11.7626
Au 13.6467 23.2671 16.416
Pt 12.9599 23.0321 8.69162
Au 6.80784 17.4499 13.8955
Pt 10.2689 23.1309 8.53896
Au 11.0862 22.1275 16.2053
Au 13.7905 26.0326 16.0135
Au 11.1594 19.8342 17.76
Pt 9.90294 25.7279 20.079
Pt 10.3008 22.6653 20.4962
Au 7.7066 20.0687 13.4266
Pt 7.94751 23.8492 20.4384
Au 8.75858 21.6134 25.5749
Pt 10.8426 21.38 23.5324
Au 10.104 24.4976 22.7463
Au 11.182 19.5828 25.4984
Au 9.00894 23.4545 27.7515
Pt 11.0835 21.5611 27.4854
Au 10.8997 23.5887 25.4946
Pt 9.32604 21.4952 29.6542
Au 9.2941 23.4841 31.5547
Pt 11.3605 21.5401 31.4648
Au 11.206 23.5868 29.4748
Au 9.55683 21.4432 33.5896
Pt 9.60107 23.3769 35.6351
Au 11.674 21.5031 35.4979
Au 11.3543 23.678 33.4701
Pt 9.73722 21.4163 37.528
Pt 9.574 25.0055 41.5164
Pt 11.7216 21.4236 39.4484
Pt 11.6242 23.4629 37.5566
Au 9.85433 23.2242 43.5793
Au 9.31371 26.2119 43.8273
Pt 14.5913 24.8571 44.6813
Au 11.7408 23.3764 41.5837
Pt 15.7863 19.4237 45.2201
Pt 13.8233 27.1557 43.7686
Pt 16.5431 24.8824 6.70755
Pt 15.3964 26.8576 5.47173
Au 14.264 24.4479 4.8196
Pt 13.8362 27.0682 9.49878
Pt 11.9281 22.4716 11.1373
Pt 8.33925 25.2676 12.3429
Au 10.2386 22.4816 13.5159
Pt 13.488 28.4299 11.7755
Au 12.4386 28.3493 14.6842
Pt 10.2718 26.6872 13.6524
Au 10.9793 26.3756 16.2388
Pt 9.05014 30.1849 17.7322
Au 9.04899 22.1819 18.1852
Au 9.25858 27.1283 22.4929
Au 11.4598 27.9031 20.8914
Pt 9.67592 27.6205 18.1582
Au 8.34003 24.3576 24.99
Pt 6.46851 29.2543 25.867
Au 10.2508 26.7557 25.1832
Pt 8.94086 29.2615 24.5032
Au 8.17539 26.1606 27.0673
Au 7.09841 28.0214 29.0491
Pt 10.9464 25.559 27.5096
Au 8.92886 28.7848 27.2206
Au 9.01381 25.5514 29.6881
Au 9.25141 27.6374 31.4346
Au 11.286 25.6574 31.3968
Au 10.901 27.8043 29.0545
Au 9.05534 25.6509 33.4657
Au 9.77651 27.4608 35.7874
Pt 11.4596 25.4408 35.5771
Au 11.2906 27.4516 33.4941
Pt 9.72932 23.2829 39.5097
Au 13.3075 27.6886 40.0812
Pt 10.9608 29.2549 40.5417
Au 11.4706 27.6651 37.8901
Au 15.8089 29.8468 39.5153
Au 7.80281 27.227 41.5889
Au 12.7052 26.1913 46.3364
Pt 15.2096 33.2868 44.1327
Pt 11.3476 27.7197 44.6352
Pt 13.5024 29.0622 45.6318
Pt 12.032 23.9515 6.43991
Pt 14.034 28.2443 7.18977
Pt 14.8972 29.545 9.55093
Pt 19.2754 26.031 3.61041
Au 9.77283 25.6317 7.07633
Pt 10.7313 29.1686 12.7114
Au 18.6215 29.4209 12.6625
Pt 14.0955 30.9736 6.64331
Au 15.9133 30 12.0101
Au 12.3721 35.2806 13.1638
Au 13.9514 30.6004 13.8892
Au 16.2884 27.4319 10.9149
Au 13.5511 31.6573 16.5494
Pt 8.92844 32.4011 22.5043
Pt 9.78759 29.979 22.0533
Pt 13.0585 31.7168 19.261
Au 9.38082 31.4581 26.148
Au 7.17411 31.4664 24.3913
Au 11.0354 31.5081 24.1025
Au 9.49145 34.0898 24.5791
Au 7.23228 30.9864 27.8703
Pt 8.46075 30.0356 30.2074
Au 10.4261 30.8738 28.6863
Au 12.6263 31.741 26.9462
Pt 7.74827 31.548 32.1895
Pt 9.39338 32.7664 33.8337
Au 11.2072 29.5651 31.2814
Pt 10.1904 32.021 31.3688
Au 9.6609 29.768 33.6063
Pt 9.55055 31.5238 35.958
Pt 11.4598 29.5392 35.7649
Au 11.8482 31.7377 33.8337
Au 10.6665 30.5917 38.3162
Au 8.1833 37.65 38.8818
Pt 10.1325 32.8969 40.04
Pt 10.5843 33.5562 37.2836
Pt 11.3585 31.4734 42.106
Pt 13.7196 32.853 42.0088
Au 9.62649 28.9847 42.907
Au 9.45772 36.1106 40.9036
Au 8.72559 31.0657 41.3006
Pt 11.4275 34.26 41.8053
Pt 18.2758 31.4235 7.24653
Pt 9.35977 34.6816 15.899
Pt 8.55536 30.7629 13.6425
Au 14.8493 29.3138 4.67458
Au 6.05411 24.212 11.4566
Pt 10.6135 35.7209 20.32
Au 7.86727 29.9519 11.1355
Pt 16.5156 31.741 9.67391
Au 5.98631 29.8308 13.244
Pt 12.8414 34.2539 19.735
Au 4.68654 29.6345 17.265
Pt 11.0172 31.9452 17.3816
Au 11.9319 33.6296 15.3441
Au 6.53398 34.0416 16.8475
Au 3.42736 29.0326 25.8855
Au 5.15052 37.4864 25.8372
Pt 10.9782 36.5773 22.966
Pt 5.13332 27.7452 24.1345
Au 2.09327 26.0512 30.27
Pt 7.88709 32.8864 29.8185
Au 9.70779 33.5591 27.8473
Au 3.53389 31.2024 21.6797
Au 2.62906 28.9727 29.8617
Au 10.4719 36.5126 32.0519
Pt 9.89919 34.4665 30.3738
Pt 6.63626 32.9434 34.1176
Au 5.95714 37.9998 33.9575
Pt 9.94995 35.1513 34.4901
Pt 9.40263 37.6652 34.4528
Au 6.39271 35.9962 37.4821
Pt 9.11445 36.1882 36.8637
Pt 11.302 35.1637 39.1837
Au 11.6385 36.1069 36.6906
Au 6.97005 39.6523 31.9551
Au 12.2067 33.1518 44.2575
Pt 15.7652 34.9009 41.9839
Pt 11.2394 32.2778 9.54303
Pt 9.65404 37.57 15.9663
Pt 12.3888 36.6979 18.4958
Au 13.3306 34.6053 7.79464
Pt 11.3138 37.6664 13.463
Au 13.3391 36.3637 21.1206
Pt 6.42702 33.622 19.5763
Au 6.04523 36.2452 18.7595
Pt 14.5163 36.0142 14.8514
Pt 9.16419 40.5108 24.4866
Pt 5.50434 33.4153 28.7727
Pt 8.48623 34.3594 20.8301
Pt 8.90362 38.6912 22.3153
Pt 5.9675 29.8037 20.0084
Pt 15.975 42.6268 23.9904
Au 3.50108 31.5057 28.7018
Au 4.89761 31.5997 26.3816
Au 2.88672 29.2284 32.6828
Pt 5.8315 30.9234 30.1221
Au 11.5383 38.3462 30.1921
Pt 4.85027 29.2511 28.2037
Pt 7.82802 37.1086 32.2346
Pt 11.3865 41.1005 31.1249
Pt 9.77999 38.8958 36.838
Pt 10.2909 38.2469 27.554
Pt 7.41384 38.1252 36.1441
Pt 12.0194 36.8525 41.1714
Au 11.4378 43.6481 21.8528
Pt 11.0105 34.5557 17.8652
Pt 8.74604 33.1067 18.3021
Pt 8.35909 37.1589 20.3065
Pt 13.7611 40.7419 17.8166
Au 7.52763 38.3545 17.7764
Au 7.24385 40.736 22.5907
Au 4.45478 33.9307 21.4077
Au 13.6339 38.5081 22.6565
Pt 18.3754 42.7823 19.4156
Au 4.86955 34.715 26.3706
Pt 11.2461 40.5159 28.393
Au 15.9163 40.0033 22.8717
Pt 17.9353 42.6809 26.0338
Pt 9.92359 42.3648 26.2041
Pt 6.66688 37.8747 23.4881
Au 13.0789 38.2198 27.9459
Au 14.4143 45.7521 31.82
Pt 6.91294 38.0876 29.71
Au 14.782 45.8358 34.5474
Pt 9.14457 39.5731 29.8083
Pt 12.959 42.5946 19.6486
Pt 18.4655 43.3857 29.5714
Pt 18.5688 45.3575 25.8222
Pt 14.1487 42.6643 22.0764
Pt 17.0183 42.3599 21.5967
Pt 16.9524 45.5244 33.022
Pt 13.0478 41.6013 33.6541
Pt 11.9877 8.00445 18.034
Pt 13.4283 6.66016 19.8343
Au 13.6458 5.48244 17.4053
Pt 15.717 6.59075 15.9274
Pt 14.3356 10.6433 18.8872
Pt 15.476 5.8097 21.5569
Au 19.5994 7.10288 11.1363
Pt 14.4849 5.62867 24.1382
Au 21.7982 3.3586 27.5654
Pt 19.6194 7.06764 25.2889
Pt 15.0098 8.22231 24.7502
Pt 17.1315 4.50034 27.0029
Pt 15.8281 5.638 31.3887
Au 17.7837 3.70092 31.5422
Pt 17.735 5.44684 29.4618
Pt 13.8305 7.42585 31.4574
Pt 13.728 9.44787 33.5227
Pt 15.7402 7.48091 33.4533
Au 15.7915 3.96302 33.3945
Pt 15.81 7.35975 29.3528
Pt 11.7868 7.73982 33.3446
Au 13.7771 7.4743 35.5501
Au 15.9287 5.64429 35.5253
Pt 15.9323 7.76671 37.3449
Pt 12.7215 9.61695 13.8714
Pt 21.3613 7.10521 13.2007
Pt 14.5587 13.2488 10.6048
Pt 15.1692 8.84979 14.8527
Pt 11.8168 13.813 12.1307
Pt 17.8155 8.50185 15.5822
Au 8.94183 11.5403 14.3503
Pt 15.1266 9.73765 12.3689
Au 10.8646 13.4376 17.3616
Pt 16.0877 6.10153 18.7719
Pt 16.1123 10.359 16.8301
Au 18.734 12.6091 20.3266
Pt 14.6868 13.6437 23.3943
Au 15.0576 10.2224 22.3649
Pt 12.1439 12.3367 19.8064
Au 17.3135 11.5265 27.191
Pt 13.6717 11.022 27.0408
Pt 21.6802 5.55911 29.3774
Au 15.5594 11.2145 24.9217
Au 13.7631 9.24618 29.2491
Au 13.674 11.4338 31.4614
Au 15.6502 9.43516 31.3963
Au 17.4829 11.5896 31.2347
Au 11.2181 6.54155 30.8734
Au 11.7969 9.39935 35.7054
Au 15.7092 9.55356 35.3382
Pt 13.6089 11.4528 35.398
Pt 13.9184 9.6606 37.4134
Pt 11.9391 13.5359 39.4073
Pt 13.89 11.6207 39.3337
Pt 13.7196 13.5323 37.3777
Au 9.81228 15.3603 39.6414
Pt 18.9818 15.953 6.51349
Pt 12.8472 17.2533 10.093
Pt 22.2014 20.5661 5.32384
Pt 12.5307 14.7273 9.66108
Au 14.8151 10.7215 9.8107
Au 10.6435 9.06105 15.8103
Pt 15.2014 15.7058 9.34935
Au 10.0248 13.8509 10.0339
Pt 13.5511 11.838 12.4903
Pt 14.6746 11.4545 14.8199
Au 12.7094 9.59487 11.1897
Pt 10.6667 13.8081 14.6316
Au 8.78499 18.4347 15.8081
Pt 13.5071 12.5352 17.1461
Au 12.5564 15.4191 16.4616
Au 13.4894 14.652 19.1385
Pt 12.4561 14.0251 21.8316
Pt 14.6356 12.6296 20.7674
Pt 14.696 15.5619 21.588
Au 15.0663 13.3894 27.0533
Pt 13.2267 15.646 27.3043
Au 17.1569 13.5065 25.1341
Au 15.0616 15.5279 25.2927
Au 15.4444 11.5294 29.2255
Pt 13.4138 15.5639 31.3778
Au 15.4665 13.5879 31.3262
Au 15.3143 15.6028 29.2529
Au 9.68861 11.3583 35.6611
Au 13.5204 15.5136 35.3963
Au 13.4605 13.4004 33.4283
Au 15.4074 15.6058 33.2868
Pt 11.6872 15.4363 37.5044
Au 7.67604 13.3707 35.6704
Pt 15.748 13.5954 39.2507
Au 15.6541 15.6175 37.2415
Pt 15.7924 15.6092 41.2054
Pt 13.7938 17.5102 41.2968
Pt 13.929 13.5841 41.2659
Pt 15.7946 17.537 43.2146
Pt 15.9189 15.5566 44.9585
Pt 14.8822 18.2213 8.60008
Pt 16.0436 20.112 10.1377
Pt 17.2611 17.482 10.1236
Pt 17.4982 17.9212 7.57222
Pt 13.3202 19.9137 10.8007
Au 15.2592 20.5525 12.8912
Pt 14.9771 17.9331 11.5514
Pt 19.7726 18.2449 11.3655
Pt 14.8021 15.9731 14.4631
Pt 13.6582 18.4248 13.9057
Pt 18.4154 13.2835 13.1333
Pt 14.3885 17.7213 16.4283
Au 15.2697 14.7434 16.7623
Au 9.47848 20.1402 21.2647
Au 15.3859 16.7121 18.8769
Au 12.0603 19.5272 20.4101
Au 12.3787 16.6812 21.1031
Au 11.0258 18.3191 22.8123
Pt 14.9437 17.48 23.3899
Pt 14.4926 18.2973 20.9446
Pt 13.0958 17.767 25.3627
Pt 13.1902 19.6137 27.4192
Au 15.1647 17.6054 27.253
Au 15.0836 19.6275 25.2008
Pt 13.2944 17.528 29.3649
Au 13.3487 19.5681 31.3283
Pt 15.319 17.5529 31.2601
Au 15.2333 19.5803 29.2944
Pt 13.4306 17.5057 33.3888
Pt 11.5897 17.4557 35.5274
Pt 15.4168 17.621 35.2999
Au 15.2379 19.5751 33.362
Pt 13.599 17.517 37.3563
Pt 13.6759 19.4409 39.3619
Pt 15.6721 17.5886 39.2737
Au 15.4875 19.5405 37.2436
Au 13.7807 15.5327 39.3109
Pt 13.7954 19.3603 43.2462
Au 17.5512 23.1101 47.5757
Pt 15.7344 19.481 41.2946
Pt 13.9234 15.5792 43.1509
Au 17.7081 19.4253 47.2079
Pt 16.5305 22.5887 5.4947
Au 19.8848 19.6886 3.73701
Pt 20.3201 22.2936 5.0907
Au 16.9063 27.6253 3.3264
Au 17.1396 22.6593 12.9013
Au 13.8554 23.2309 13.3782
Au 17.3459 22.5367 10.1668
Au 22.4299 15.5781 3.57371
Au 16.0628 24.6618 14.7338
Au 11.2258 24.1935 18.0337
Au 14.0656 19.6008 18.3841
Pt 11.7339 24.3288 14.7367
Au 12.715 22.0026 18.918
Au 12.1722 24.5539 20.7637
Pt 14.7314 20.8496 20.761
Pt 13.9711 24.4903 18.7498
Pt 12.5156 21.8774 21.6501
Au 12.7939 23.7181 23.5053
Au 14.9583 21.7513 23.2933
Au 14.7165 23.5592 21.2456
Au 13.007 21.5839 25.3304
Au 13.03 23.6683 27.3133
Au 15.0973 21.6598 27.251
Au 15.0253 23.765 25.2739
Au 13.1901 21.6237 29.3638
Pt 13.2297 23.6784 31.3785
Pt 15.2198 21.661 31.2892
Au 15.0749 23.7353 29.2999
Au 13.3838 21.6864 33.3415
Pt 13.4419 23.673 35.4507
Au 15.3823 21.64 35.3262
Au 15.2692 23.7186 33.3121
Au 13.5989 21.5435 37.4339
Pt 11.6412 25.3379 39.6413
Au 15.6751 21.561 39.3233
Au 15.5139 23.7017 37.3504
Au 13.763 21.4074 41.3377
Pt 15.7218 21.335 43.37
Pt 17.7261 19.499 43.2877
Au 15.7167 23.7333 41.6901
Au 19.7191 21.4 47.3583
Pt 17.7095 21.3818 45.3611
Pt 18.0498 26.9424 5.75317
Pt 20.6878 30.6174 8.31293
Au 21.4433 27.0894 2.48841
Pt 16.2831 29.8235 7.36444
Au 13.0324 26.0311 13.1313
Au 15.0148 27.67 13.8306
Au 15.6181 25.0553 12.1497
Pt 18.2672 22.4725 7.59307
Au 16.6679 27.0396 16.0199
Au 14.5271 29.0377 16.4833
Au 17.4724 29.277 17.4826
Pt 20.5881 29.8041 10.8992
Pt 12.2636 26.6814 18.5757
Pt 10.8382 30.1458 19.5805
Au 14.1484 26.4654 20.7501
Au 13.5315 29.0053 19.3959
Pt 12.099 26.2822 22.909
Au 11.5859 28.7302 23.7092
Au 14.8176 25.7198 23.3153
Au 14.0903 28.4305 22.5917
Au 12.8886 25.843 25.4429
Pt 13.1679 27.7067 27.2879
Au 15.1151 25.8053 27.1926
Au 15.0769 27.8686 25.1612
Au 13.0682 25.7778 29.2488
Pt 13.1624 27.6825 31.259
Au 15.0921 25.7613 31.3098
Au 15.0736 27.8375 29.2346
Pt 13.3261 25.6464 33.4437
Pt 13.2544 27.538 35.5343
Au 15.3259 25.7485 35.3875
Pt 15.1295 27.7121 33.3886
Au 13.4478 25.6648 37.5629
Au 13.681 25.4573 41.7586
Au 15.5248 25.9043 39.5749
Au 15.327 27.8025 37.4851
Au 13.7181 23.5796 39.5194
Pt 15.7597 30.8782 42.2382
Pt 16.4156 26.2969 43.5545
Au 15.6384 28.0602 41.5972
Pt 15.221 27.0812 46.141
Pt 15.7588 29.0027 44.1974
Pt 22.7757 22.8325 6.51607
Pt 21.4033 24.9272 5.01399
Pt 18.8342 24.3252 5.59924
Au 14.1487 33.4255 5.54146
Pt 16.4893 27.2744 8.13246
Au 10.9478 34.8098 8.83972
Au 17.8968 29.5685 9.863
Pt 17.4685 33.7498 11.2748
Pt 14.8553 32.5513 11.7137
Au 14.6944 33.3938 14.317
Pt 12.3123 32.6596 12.7656
Au 15.3113 42.3666 13.652
Pt 11.7722 29.2631 17.2234
Pt 14.1323 33.0295 21.6549
Pt 16.8199 32.5183 20.8775
Pt 15.2697 33.4294 18.9851
Au 12.4416 30.8457 21.8259
Au 13.3521 32.9364 24.2753
Au 13.7321 30.2338 24.7634
Au 18.2102 34.046 22.6276
Au 11.4066 29.3506 26.3385
Au 12.0149 33.0353 29.443
Pt 14.9864 29.8016 27.2412
Pt 13.9842 33.9403 27.9462
Au 12.9597 29.7778 29.1252
Pt 13.0607 31.6086 31.4073
Au 15.0047 29.7463 31.2832
Au 14.9351 31.7279 29.1173
Au 13.1307 29.4633 33.4214
Au 12.6213 31.8539 36.5008
Au 14.9376 29.7975 35.4719
Pt 14.9027 31.6633 33.319
Au 13.3215 29.6627 38.0724
Au 12.644 32.414 39.3578
Au 15.2117 31.6598 37.573
Pt 16.3751 34.1481 37.4028
Pt 16.9917 31.3256 44.5964
Au 15.8182 35.9237 44.6005
Pt 18.824 29.816 45.6525
Au 15.5965 32.7674 40.0538
Pt 16.4579 29.4351 46.722
Pt 19.4311 31.009 43.3154
Au 16.2499 31.7686 4.86547
Pt 13.8682 32.1887 9.07639
Au 23.1189 38.7219 7.06235
Pt 20.2582 30.0819 5.62914
Au 8.72459 27.9123 8.53827
Au 11.691 42.3284 17.2067
Au 11.8376 32.3689 6.93484
Au 12.3345 26.5844 5.7497
Pt 10.0952 31.5367 11.6967
Au 10.2315 34.337 11.3599
Pt 16.1945 37.8541 11.1276
Au 8.50751 40.0426 19.8184
Au 15.8052 35.0861 21.4224
Pt 10.6172 32.7326 20.1706
Au 16.3733 34.4952 16.6561
Pt 17.8977 41.3701 13.1809
Pt 11.15 38.3473 20.933
Au 7.21213 33.3184 26.3125
Au 11.4553 33.907 22.4138
Au 15.3642 36.2223 18.8272
Pt 9.57196 35.928 26.633
Au 13.2461 36.4021 31.2542
Au 14.9829 36.276 29.0603
Au 15.8625 38.0349 20.8587
Au 11.8188 35.7811 28.6142
Au 12.2085 37.0165 34.112
Pt 11.7605 34.061 32.2814
Au 12.8648 39.1134 32.4622
Pt 12.2582 34.0933 35.0219
Au 14.197 36.1543 35.7989
Au 14.867 33.2642 35.4125
Au 14.2754 34.7038 33.269
Pt 13.6571 34.3264 37.7726
Au 13.3845 35.5226 43.281
Pt 15.8794 38.5833 39.4886
Pt 16.0918 37.344 37.1218
Pt 13.6559 34.8829 40.3812
Pt 14.5682 37.2493 41.3655
Pt 15.9106 35.8521 39.3484
Pt 13.6201 36.9903 38.5537
Au 19.0916 28.3033 48.0375
Pt 17.6906 33.9056 45.0563
Au 25.2565 47.3733 14.7287
Au 5.99937 27.1264 12.1389
Pt 17.1489 42.0525 15.6782
Au 20.3902 38.2239 7.3029
Pt 25.4674 41.9026 14.2296
Au 10.5762 39.883 14.6443
Au 7.27641 36.4085 15.7198
Au 23.1164 46.3018 13.5242
Pt 13.8373 37.4671 12.3136
Au 13.719 34.5957 17.1158
Au 14.07 38.6283 25.38
Pt 15.3098 35.3084 12.1015
Au 12.552 39.9401 12.4835
Au 4.52216 32.9842 24.0049
Au 13.3556 35.6645 23.7738
Au 17.9691 39.9324 20.726
Pt 6.90798 34.0168 23.2745
Au 11.8153 34.3574 26.082
Au 9.16664 36.7806 29.5004
Pt 15.1017 42.9035 26.3452
Pt 13.6281 42.889 31.268
Pt 16.6899 41.6143 28.1568
Au 15.3045 40.3056 32.9549
Pt 17.3912 41.2262 34.4717
Au 13.8654 40.363 30.0801
Pt 11.279 39.6868 34.6387
Au 12.7786 45.2085 29.6943
Au 15.0557 37.4111 33.3767
Au 12.461 44.3364 33.2026
Pt 14.3763 39.1418 35.3159
Pt 12.3705 38.6219 36.8281
Pt 14.2803 40.0752 37.911
Pt 16.6805 39.8746 36.9644
Pt 12.6384 41.3837 36.3514
Pt 18.3675 38.3202 38.2548
Au 15.1045 40.013 41.7098
Pt 19.5044 40.672 10.9264
Au 9.49359 40.3761 17.1685
Pt 13.4615 38.6078 14.6356
Pt 15.4472 39.8059 12.9686
Pt 16.0222 39.1947 18.2949
Pt 9.85302 33.2114 13.7378
Pt 11.9292 36.3959 15.7849
Au 20.2632 37.9176 20.7147
Pt 18.9315 37.0977 14.334
Au 18.0401 37.5715 18.9463
Pt 13.6147 44.0508 24.1854
Pt 15.3204 40.0783 15.7471
Pt 11.5488 40.0671 25.9197
Au 16.3081 40.335 25.6961
Pt 11.4865 41.9616 23.8835
Au 9.39539 42.4462 28.9517
Pt 20.583 46.5859 26.8345
Au 4.93629 36.5313 28.5441
Au 11.0239 44.5168 24.7892
Au 10.9277 44.5289 27.6368
Au 17.0738 47.2002 30.8864
Au 10.4625 42.1671 33.6182
Pt 21.9734 42.5085 34.8683
Au 19.0067 47.5319 33.1383
Pt 22.4861 35.5951 39.9675
Pt 10.881 37.7615 38.9394
Au 18.2997 36.9615 45.1786
Au 13.6027 41.6873 39.937
Au 13.5843 45.1404 20.9242
Au 18.5186 45.9664 16.1293
Pt 12.5816 40.7069 21.5775
Pt 16.2361 41.801 18.1392
Pt 16.6343 44.4168 17.6609
Au 24.1379 49.3201 26.1521
Pt 18.4726 46.0071 28.8145
Pt 12.4819 42.7362 26.3182
Pt 21.1577 46.1853 29.286
Pt 15.3236 43.223 33.1504
Au 8.72105 41.7218 31.5722
Au 22.4772 6.9841 10.6209
Pt 21.1002 9.24862 11.5127
Pt 22.5313 11.3249 12.2483
Au 23.5306 2.48031 19.9785
Au 20.3993 2.54788 19.0303
Pt 16.3525 3.97217 23.6232
Au 27.8861 3.56463 16.8409
Au 23.4041 2.48208 22.8557
Pt 15.5106 8.33596 20.2744
Pt 19.6801 4.5427 20.7618
Pt 18.0137 6.799 20.4134
Pt 17.0858 3.97499 20.7977
Pt 19.3621 7.82856 22.7613
Pt 21.6768 5.31092 25.622
Pt 18.0746 5.61952 22.7015
Pt 15.1644 4.72233 28.7939
Au 13.3682 4.67992 30.8557
Au 19.6962 3.49365 29.5443
Pt 18.9117 4.49005 25.0612
Pt 19.7288 5.61803 31.4285
Pt 19.7166 7.64047 33.26
Pt 21.6245 5.72688 33.3596
Pt 19.6382 7.43934 29.3867
Pt 17.837 5.70325 33.4277
Pt 17.7672 7.71351 35.2908
Pt 17.9728 6.02368 37.2926
Pt 19.7359 5.85095 35.2927
Pt 17.8939 7.8785 39.2368
Pt 15.9049 9.72268 39.2518
Au 21.6768 5.72093 37.2386
Pt 17.7832 9.69632 37.2433
Pt 17.8936 9.79913 41.1252
Pt 18.9787 13.1262 10.2166
Au 22.7527 2.8691 17.4208
Pt 18.1035 5.98569 16.4707
Au 18.823 5.91511 13.8237
Pt 16.8156 11.7554 11.3518
Pt 23.0898 7.63828 15.1362
Pt 16.7568 16.3215 12.7047
Au 20.0792 4.06776 16.4404
Pt 20.4786 6.99131 15.7049
Au 23.6117 3.28807 14.7675
Pt 15.746 13.4705 13.3043
Au 17.4069 8.43993 18.1569
Au 19.3188 9.26087 19.8928
Pt 20.908 6.94147 20.6431
Pt 19.6911 6.92792 18.2949
Pt 16.7225 7.99047 22.6597
Au 16.8475 10.6239 20.1385
Au 21.2027 9.46722 25.0208
Au 18.5861 10.4178 22.5214
Au 17.6868 9.1455 24.9863
Au 19.399 11.6017 29.1923
Au 21.7311 3.72453 31.4425
Au 19.1993 11.5137 25.0958
Au 17.5529 9.45933 29.2809
Pt 15.6245 11.4762 33.3819
Pt 21.4967 9.46168 29.2226
Au 19.6034 9.5606 31.2187
Pt 17.6613 9.50672 33.2628
Au 15.5744 13.5373 35.2665
Au 17.6846 11.6255 35.2093
Au 19.5879 11.6739 33.1088
Au 15.7336 11.6208 37.2871
Pt 17.7744 11.6788 39.1857
Pt 19.8037 9.81617 39.1293
Pt 19.6968 11.6973 37.1421
Pt 15.879 11.6588 41.1595
Au 8.09149 19.4709 41.4961
Pt 17.8586 11.7446 43.0248
Au 19.8412 11.7664 41.1232
Pt 19.7643 15.5783 45.0584
Au 14.1027 13.5348 7.90577
Pt 19.0858 15.6647 11.4529
Pt 16.8002 14.4496 11.0291
Au 19.1005 13.2783 7.40288
Au 10.8646 11.2941 12.4815
Au 12.2083 12.0014 9.93517
Pt 20.1754 15.0879 13.8925
Pt 20.7347 15.0629 9.25442
Au 17.5911 9.09266 11.1715
Pt 16.9522 12.6223 15.6465
Au 18.6071 11.465 17.7731
Pt 17.0959 10.6411 13.7457
Pt 17.5093 15.1272 14.9444
Pt 17.8498 14.6734 17.7492
Au 16.6949 14.5163 20.2664
Pt 19.4489 13.4718 15.9586
Au 16.0784 12.6656 18.3597
Au 17.0517 15.3751 23.1185
Au 19.2107 13.5346 23.0756
Au 19.2515 15.3919 20.8107
Au 16.7953 12.451 22.4322
Au 17.1674 15.5238 27.184
Au 19.2088 13.6054 27.1743
Pt 19.0765 15.5851 25.1199
Pt 17.3383 13.6779 29.2586
Pt 17.3553 15.6482 31.2289
Pt 19.379 13.7116 31.1427
Pt 19.2198 15.6619 29.2043
Au 17.5326 13.6399 33.1981
Au 17.5284 15.6611 35.1968
Pt 19.572 13.6944 35.1053
Pt 19.3955 15.6966 33.0999
Pt 17.6722 13.6288 37.1897
Au 17.6968 15.6935 39.1622
Au 19.7367 13.7124 39.0824
Au 19.5951 15.7046 37.0933
Au 17.7708 13.6661 41.141
Pt 17.8034 15.6086 43.1108
Au 17.8612 13.5976 45.1069
Au 19.7666 15.7347 41.1399
Pt 15.8941 13.6297 43.1055
Au 23.8346 17.6019 47.0534
Pt 18.0039 15.3349 8.84116
Pt 19.9989 18.5247 6.35878
Au 17.9939 20.4075 14.4091
Pt 17.823 18.0961 4.94155
Au 13.9928 15.4766 11.972
Au 15.6736 21.9605 15.2732
Pt 18.7939 17.3947 14.0671
Pt 19.072 20.8806 11.6265
Pt 17.4174 18.9867 12.1925
Au 12.454 17.323 18.4726
Pt 21.0404 12.5624 14.0514
Pt 16.1954 18.3411 14.4248
Pt 19.7488 16.2312 16.3885
Au 16.6312 19.3013 19.4267
Au 18.8472 17.2839 18.8484
Au 17.08 17.1271 16.7023
Au 17.0509 17.2452 21.1639
Au 16.664 19.6174 22.7281
Pt 18.9395 17.5399 23.0554
Au 18.8532 19.5627 21.0087
Au 17.0627 17.5387 25.0515
Au 17.1098 19.6295 27.189
Au 19.0446 17.604 27.1373
Au 18.8594 19.6296 24.9435
Pt 17.2205 17.5649 29.274
Pt 17.1598 19.5888 31.2478
Pt 19.2413 17.6279 31.152
Au 19.068 19.6631 29.214
Au 17.3396 17.65 33.191
Au 17.4091 19.6561 35.2322
Au 19.452 17.7368 35.1293
Au 19.2833 19.7277 33.1008
Pt 17.5685 17.6891 37.2199
Pt 17.57 19.5711 39.2386
Pt 19.5785 17.7595 39.1642
Pt 19.4279 19.7483 37.1965
Pt 17.6969 17.6114 41.2539
Pt 17.8003 17.4851 45.0927
Pt 19.7162 17.6208 43.2182