3871
Atoms. Timestep: 21179
Au 23.5651 14.9375 7.69405
Pt 11.0175 21.3953 25.1212
Pt 17.8129 20.7657 44.8565
Pt 15.5118 14.8348 42.102
Pt 15.4314 9.00335 16.4315
Pt 24.9789 38.0975 17.6586
Au 15.9511 26.9742 24.7277
Pt 21.1055 33.7999 7.49819
Pt 21.643 5.14554 18.4998
Pt 20.0396 19.5693 34.6504
Au 16.9089 41.8575 37.5517
Pt 11.4995 29.511 20.558
Au 16.6266 44.299 10.5651
Pt 27.5311 41.6843 33.0204
Pt 19.3865 19.1263 37.2656
Pt 32.7239 29.0126 19.2285
Pt 14.0238 28.7806 7.45049
Au 38.9136 34.6708 25.8096
Pt 20.1316 40.8739 32.8037
Au 9.56552 39.4838 20.979
Pt 13.3139 20.4206 23.9235
Au 30.1575 28.275 49.6008
Pt 16.2127 9.89621 30.4023
Au 36.7396 12.2271 40.9679
Pt 26.3932 3.50291 21.6183
Au 21.1159 37.3214 47.4319
Pt 23.577 38.5598 20.2147
Pt 27.8936 19.6819 30.6799
Pt 15.6301 32.4961 26.3775
Pt 19.7892 7.82216 15.1195
Pt 27.2451 36.3961 18.8466
Au 21.9427 4.65078 15.632
Pt 14.4635 16.7183 43.7551
Pt 29.681 29.2521 19.0077
Pt 14.9546 11.0411 18.6742
Au 20.55 41.4377 10.5527
Pt 19.6784 37.172 13.5408
Au 43.1155 37.5348 31.0408
Pt 13.0676 27.3221 23.6761
Au 24.0418 24.7477 48.4078
Pt 16.702 39.3624 38.6028
Pt 11.6378 37.8071 21.3534
Pt 15.5555 36.86 24.988
Au 5.83402 28.9471 11.9874
Pt 33.296 32.4687 21.9895
Pt 18.431 10.1125 31.8023
Pt 11.6426 18.3873 15.5112
Au 8.36135 18.4267 10.8331
Pt 22.4294 20.8937 10.9588
Au 40.7597 38.3986 22.7247
Pt 12.3479 33.5002 12.4169
Pt 15.6452 27.3001 19.5673
Pt 8.20851 22.9635 37.8187
Au 8.99277 39.8084 23.8711
Pt 33.9038 44.6266 28.6566
Pt 25.2828 13.9393 45.4062
Pt 23.1706 32.412 25.7459
Au 39.9141 41.8172 14.0213
Au 38.7147 35.1166 33.6173
Pt 23.4115 9.21034 18.4799
Au 5.51103 16.746 20.0773
Pt 24.7903 27.0597 38.2084
Pt 29.1663 33.3244 37.7305
Pt 17.7026 40.0668 32.1323
Pt 14.3188 38.6474 21.1029
Pt 8.60559 35.4809 12.8333
Pt 31.2142 27.8728 20.9859
Au 8.85088 19.6599 41.486
Au 29.9735 44.7147 12.59
Pt 16.9912 16.6247 20.699
Au 7.94066 35.7025 36.6224
Pt 31.6128 30.585 21.3236
Pt 14.9102 18.9423 35.1345
Pt 24.2975 16.119 40.9393
Au 14.0794 44.3361 28.4601
Au 8.54672 24.2689 42.9043
Au 26.7192 0.850941 21.5673
Pt 8.06456 19.2168 36.1582
Pt 20.7775 12.0905 28.4252
Au 33.4505 7.79404 13.654
Au 35.9821 15.1402 11.4137
Pt 24.8023 13.4909 21.0847
Au 9.4371 12.0723 37.277
Pt 7.95633 29.9489 32.7549
Pt 20.9111 11.6826 12.524
Pt 12.522 22.9965 23.1628
Pt 20.4406 15.0632 20.5268
Au 13.0021 40.7952 17.5489
Pt 14.7103 15.0526 13.0848
Au 14.266 40.9767 14.8437
Pt 12.2326 30.9735 7.75025
Pt 16.0174 14.0086 28.8674
Pt 31.5201 31.8331 23.9186
Pt 16.2029 31.6635 13.8281
Au 15.85 6.21527 37.684
Pt 26.9125 31.5674 15.963
Pt 18.7676 42.887 25.858
Pt 12.9628 32.5568 27.7213
Pt 22.3324 26.6011 38.8344
Pt 11.1721 35.0204 21.9522
Pt 12.4092 29.2927 34.6678
Au 33.9738 33.2056 33.2894
Pt 11.9273 21.6289 38.6516
Pt 35.6626 23.5633 22.567
Pt 28.2685 26.985 17.6474
Pt 27.1721 12.2158 16.3425
Pt 30.4387 28.4609 44.6838
Pt 27.8367 18.4493 25.5746
Au 15.2385 9.74152 42.1059
Pt 26.3863 11.2214 9.19646
Au 33.3536 22.4606 34.2411
Pt 18.7619 20.6259 27.3483
Au 40.1795 25.6355 22.5603
Au 13.0952 8.38524 33.4974
Pt 30.5172 27.2675 25.4061
Pt 12.4298 35.9786 13.4499
Pt 26.8219 23.8745 26.5499
Pt 22.1408 9.77175 10.8319
Pt 24.942 32.5238 17.2317
Au 3.11313 30.0038 24.3652
Au 46.7605 29.2395 37.552
Pt 30.0782 29.0106 38.9477
Pt 19.7628 10.6956 14.7587
Pt 19.8742 16.4345 7.56508
Pt 22.0158 34.7882 26.0349
Pt 25.1494 45.381 31.6272
Au 39.7858 30.1169 42.9667
Au 19.8337 47.5598 26.5154
Au 34.1123 25.6279 48.5372
Pt 21.8277 24.9926 18.7598
Pt 29.9526 19.5485 23.1576
Pt 24.0945 16.1886 33.4785
Pt 27.3037 35.1005 25.8483
Pt 32.629 31.5708 39.1645
Pt 15.2915 30.0247 11.9888
Pt 11.4271 18.9285 38.5935
Pt 24.683 21.5741 22.2367
Pt 13.1084 13.8407 15.3298
Pt 10.4989 18.0307 36.3163
Pt 12.669 28.843 37.3328
Au 4.20044 32.4069 23.4485
Pt 28.0244 34.0973 20.3422
Pt 28.7527 35.7245 14.7654
Pt 18.4843 24.0862 40.0883
Au 6.3054 16.2339 28.9035
Au 5.62069 21.7952 13.4307
Pt 31.0792 8.46766 15.3152
Pt 8.86829 26.6943 39.3094
Pt 24.0404 4.32836 25.6612
Au 31.3675 25.7036 49.2591
Au 33.6572 8.06171 16.4045
Pt 26.4681 36.2561 44.1331
Au 21.7092 2.79313 26.6576
Pt 21.0175 40.8868 22.9927
Pt 10.6728 34.3867 17.1507
Pt 32.4335 35.022 25.9605
Pt 29.0099 41.229 24.1366
Pt 34.3194 22.2918 30.153
Pt 10.8343 29.7763 38.9871
Pt 19.602 23.9119 6.84585
Pt 13.582 17.9179 24.6125
Pt 23.5029 32.1853 37.2718
Pt 28.6801 34.1456 12.596
Au 44.131 17.1434 28.6836
Au 29.034 39.7762 42.9273
Pt 10.1399 16.1197 38.3516
Pt 9.20097 36.635 20.6435
Au 6.49957 14.2903 20.0414
Pt 27.7051 17.8346 35.1306
Pt 24.8081 36.2796 19.9282
Au 39.4767 6.71578 25.3251
Pt 20.9819 8.986 13.0597
Pt 18.835 35.9255 16.1878
Pt 22.634 22.8038 23.587
Au 22.0637 16.1863 45.6107
Au 16.9886 12.5376 31.5795
Au 14.1997 40.1715 39.1695
Pt 24.137 12.7373 9.5629
Pt 27.3823 32.4573 10.638
Au 31.1338 38.2226 10.5301
Pt 35.3599 20.3623 6.00756
Au 35.323 21.1628 37.3507
Pt 23.4256 18.7097 29.3087
Pt 13.2309 24.8566 16.3981
Pt 9.6425 37.0295 17.0423
Pt 30.262 34.7012 35.5024
Pt 17.6369 33.5072 15.3925
Pt 26.6945 24.9181 18.6667
Au 13.846 9.58849 11.7022
Pt 6.68108 29.9343 21.2788
Au 34.9893 14.1087 20.7208
Pt 15.3789 17.7641 37.8675
Pt 22.0005 39.8478 28.1981
Pt 31.6338 34.5735 28.4827
Pt 16.9261 10.4821 21.2116
Au 34.5951 15.7538 25.9065
Pt 23.6597 9.14518 13.0391
Pt 8.33344 34.7622 22.2806
Pt 31.0106 35.0832 16.1038
Pt 19.1942 16.7281 12.7763
Pt 14.8886 13.3607 17.5478
Pt 32.113 16.2266 27.0697
Pt 15.3784 39.6237 18.736
Pt 26.045 41.145 36.9722
Pt 34.631 35.4917 17.8654
Pt 12.2112 29.0629 9.59522
Pt 20.3191 4.74979 28.2027
Pt 13.6047 22.4147 25.6759
Au 48.2957 29.2259 20.6754
Au 29.6265 32.0445 4.17518
Au 45.4417 24.6017 21.8779
Pt 18.3645 27.7994 19.657
Pt 32.7424 33.9656 11.2875
Au 34.9147 27.4042 6.26984
Au 47.7117 33.1677 34.9673
Pt 30.0068 36.3114 8.66444
Pt 15.155 29.4759 23.4537
Pt 17.1713 38.0056 12.0859
Au 30.6398 2.66968 23.71
Pt 34.317 27.4015 29.3988
Pt 14.5141 29.8411 38.9265
Pt 22.0215 30.1064 21.1044
Pt 19.8421 34.3613 44.3838
Pt 22.8881 26.9057 36.2048
Pt 15.3208 32.3261 23.6908
Pt 21.6192 7.67881 19.6854
Pt 5.77355 25.1075 31.8401
Au 25.7624 13.2378 7.2919
Au 31.6008 10.3076 42.0714
Pt 32.3484 11.7492 16.8975
Pt 24.552 32.1435 14.5466
Au 17.9673 26.449 3.66058
Pt 22.5752 8.46274 30.8564
Pt 22.4108 45.0299 32.7862
Au 4.65585 24.5656 34.2657
Pt 15.5293 32.8776 28.9661
Au 10.2773 11.9048 25.051
Pt 15.7871 24.8746 39.8694
Au 11.5123 20.2397 41.0602
Au 8.27544 35.1959 15.5769
Pt 13.4945 22.428 18.6325
Pt 16.4557 5.05153 17.0915
Au 41.8997 45.0936 20.2572
Pt 26.2425 18.9078 37.7797
Pt 24.1473 8.88076 15.5994
Pt 20.2431 27.506 42.9475
Pt 25.6604 39.116 15.0433
Au 43.6897 17.205 13.4972
Pt 16.0515 23.8932 25.6981
Pt 21.4047 42.1779 25.5257
Pt 8.14158 25.7395 32.5888
Pt 13.1459 12.5692 19.8867
Au 40.4268 22.8984 44.5542
Pt 14.0555 23.7435 27.7673
Pt 10.2304 35.9264 35.3577
Au 37.4868 22.1199 12.205
Pt 23.4958 25.2676 31.048
Au 19.267 45.3956 21.8522
Pt 29.27 31.605 20.1439
Pt 18.4914 26.952 33.8651
Pt 27.4896 27.6143 15.021
Pt 10.5039 13.9032 30.0287
Pt 11.3507 38.1726 31.6747
Pt 22.4516 11.0917 25.9035
Pt 22.6751 23.0039 32.7883
Au 42.8378 25.1188 37.4117
Pt 20.005 35.5451 30.8133
Au 41.6978 30.5222 35.8188
Pt 27.0546 28.4861 42.6058
Pt 29.6645 18.6952 13.8107
Au 6.61291 18.828 24.8478
Pt 12.8012 26.5889 20.8046
Pt 29.3845 31.0938 17.1042
Au 27.8811 11.3539 6.89683
Pt 20.5988 44.5692 26.9547
Pt 21.0224 22.9236 43.6926
Pt 24.7649 39.0816 27.5039
Pt 29.0505 15.0734 10.1858
Au 5.30494 18.2191 27.2325
Au 11.8741 9.69573 35.7918
Pt 12.6801 16.2019 22.7837
Pt 22.3752 15.0667 16.5949
Pt 16.4323 19.1088 28.1844
Pt 8.9459 35.1943 25.1032
Au 37.9695 19.8155 19.3732
Pt 29.7272 19.3804 35.5329
Au 29.307 25.8757 8.41638
Pt 13.8231 23.3084 39.0236
Pt 8.31585 27.0276 18.4264
Au 22.3818 15.6663 48.3774
Au 43.0891 32.0928 33.5766
Au 40.2359 38.7087 31.2224
Pt 20.053 7.16926 17.6933
Pt 12.2995 33.2451 23.903
Pt 17.1649 15.3992 14.3998
Au 27.0436 17.047 47.8448
Pt 25.2102 34.5772 22.046
Au 35.0525 5.85544 23.1797
Pt 11.329 19.0473 29.1885
Au 41.1945 26.5944 39.4043
Au 33.8621 14.1892 37.1269
Pt 20.8232 25.3858 44.8482
Au 4.20788 20.6759 30.527
Au 42.1879 27.7012 36.8302
Au 44.6492 30.3766 19.2005
Au 12.9887 25.5059 40.3517
Au 6.74423 26.2223 25.7331
Pt 23.4886 42.3227 16.3574
Pt 18.0576 13.8572 42.1142
Au 30.558 8.77559 30.3982
Pt 20.5269 14.3275 12.9024
Au 7.15999 13.1133 22.5229
Pt 16.4525 28.5234 40.3861
Pt 19.0695 26.9058 31.3831
Au 9.31422 11.2753 17.3154
Pt 12.0374 22.7438 15.1255
Au 29.6182 10.3694 44.0738
Pt 24.5096 15.4529 26.2564
Au 44.1542 29.0063 13.6811
Au 7.41855 30.6021 7.77737
Pt 15.6684 31.5007 21.0086
Au 27.9572 6.46652 12.996
Au 38.3206 38.1207 16.6965
Au 32.1124 11.7396 29.8309
Pt 19.2275 29.6885 33.9561
Pt 14.722 31.6155 6.85554
Pt 31.5336 31.4017 18.7881
Au 16.4019 23.4762 3.53656
Pt 29.8546 45.3963 31.3872
Pt 17.6525 21.6239 11.7044
Au 25.2063 13.9788 42.5331
Au 16.3136 14.3726 5.52936
Pt 34.5457 43.9927 20.8743
Pt 18.6851 33.9696 22.8713
Au 26.9233 23.7963 48.9446
Pt 32.0071 32.3906 35.3144
Pt 14.4562 41.7544 26.7668
Pt 15.5855 10.6699 13.958
Au 18.8051 11.3679 43.6303
Pt 17.9659 16.5028 28.8006
Au 2.6255 27.4711 23.0113
Au 25.5531 45.3842 13.6735
Au 34.4292 29.5128 4.57525
Pt 14.5454 29.0971 14.7543
Pt 24.9089 43.0409 18.7144
Pt 27.1874 29.3569 17.4234
Au 38.5825 31.9818 26.4907
Au 40.4039 47.0816 19.0169
Au 40.4388 28.2495 32.2878
Au 30.7233 17.8019 6.51015
Au 31.5753 3.59744 16.7166
Au 31.3573 42.3069 35.6431
Au 32.6646 10.9348 39.5386
Pt 17.1449 25.9432 17.8112
Au 36.5933 16.5467 43.3206
Pt 19.3417 5.3198 15.8221
Au 31.4149 17.6453 36.6023
Pt 21.2265 24.6712 40.215
Au 6.75802 25.8002 29.3239
Au 29.0741 43.6663 34.7508
Pt 12.0374 24.9568 25.2055
Au 35.3775 32.391 46.2604
Au 46.7855 24.1585 28.0634
Au 24.5581 31.2294 3.56821
Pt 9.92578 28.9175 34.1302
Pt 39.2436 20.6508 23.6351
Au 20.3112 28.1314 3.32757
Pt 12.6062 16.1372 11.4021
Au 5.15706 16.4849 33.8118
Pt 14.0509 26.033 26.5004
Pt 26.0987 27.556 19.4042
Au 35.1378 16.376 38.2288
Au 26.9917 4.47039 14.8461
Pt 22.6089 33.3902 34.8557
Pt 13.8321 38.7168 32.3524
Pt 18.9296 29.4901 41.6612
Pt 17.4933 38.2825 19.8827
Au 11.0969 10.2186 32.3898
Au 35.4602 25.0609 8.06364
Au 39.6449 40.7971 32.7986
Pt 10.3794 18.9288 20.7537
Au 27.2176 20.722 9.96145
Pt 9.58329 20.6734 37.6314
Au 27.1936 4.29993 31.2133
Au 17.4732 6.1282 39.8835
Au 35.0198 25.9649 26.7704
Pt 44.6693 27.8193 18.0284
Pt 9.61161 33.9497 19.9096
Au 36.6192 15.9338 14.1256
Pt 26.37 34.2181 14.9989
Au 37.3932 22.4021 24.4539
Pt 29.8464 26.9202 28.2174
Au 44.1333 34.9967 25.9549
Au 32.7139 19.8558 6.77271
Au 29.0093 22.812 8.38062
Pt 27.5952 39.0774 23.9208
Au 26.1242 18.4349 27.7838
Pt 8.51726 27.6152 12.0077
Au 25.3742 38.6618 45.596
Pt 28.8336 13.5343 14.6796
Au 43.0151 34.9649 35.2319
Au 43.769 14.5693 14.0512
Pt 14.552 30.3844 41.4874
Au 13.0984 35.2307 4.96686
Au 48.1318 26.8527 19.4629
Pt 18.4805 34.2163 36.0491
Pt 19.7053 10.5291 21.1498
Pt 24.9161 30.6428 19.3383
Pt 38.282 32.208 32.2451
Au 24.9618 11.6667 41.1177
Au 18.4663 2.07363 18.9201
Pt 29.5138 21.9918 39.8052
Au 28.2443 21.4069 49.2947
Pt 23.7335 29.4191 36.8877
Pt 27.8897 20.7115 12.6921
Pt 22.0723 5.95313 30.175
Pt 19.6436 34.3341 41.6958
Au 17.0861 25.031 5.80383
Pt 4.66428 27.0644 21.3039
Pt 25.3106 19.3128 25.196
Pt 15.2263 40.6242 31.1891
Au 39.2401 13.9763 37.8361
Pt 22.2336 15.6631 42.4231
Au 12.9514 30.0769 5.24899
Pt 19.624 25.3419 35.7336
Au 36.9181 39.0672 14.4447
Pt 33.0034 44.4624 18.8425
Au 32.5587 25.1682 41.6575
Au 38.1716 18.3429 9.21094
Au 15.3347 6.37414 33.6014
Pt 14.8474 27.2992 16.8976
Au 37.2125 11.2404 16.3675
Pt 12.1202 36.914 16.2496
Au 38.8492 43.788 12.4613
Pt 27.2754 20.5638 23.9058
Au 37.8689 16.4856 37.6331
Au 39.272 20.8166 43.1328
Pt 20.1415 33.1771 11.3063
Au 32.2324 4.227 31.6397
Au 40.2192 20.0094 28.4005
Au 31.5571 21.6782 8.50705
Au 37.947 29.6981 37.4743
Au 38.8833 9.10987 31.8321
Au 41.7636 11.7302 19.911
Au 20.0522 47.681 19.3239
Pt 23.6582 43.287 21.1299
Au 34.7649 22.3356 11.9606
Pt 18.3603 21.0484 39.237
Au 44.3409 14.8739 22.2674
Pt 6.52944 27.7553 31.4743
Au 24.7743 7.18522 42.0032
Au 26.3826 7.43558 32.0627
Au 14.1299 44.1474 21.8729
Au 23.5132 19.6453 49.5465
Pt 17.4467 13.8963 16.9295
Pt 18.1058 22.6378 16.256
Pt 12.2742 15.5156 36.3129
Pt 29.7436 10.4025 22.4854
Pt 29.2665 9.91405 25.2574
Pt 20.503 24.7834 9.32835
Pt 33.8204 27.8763 46.8937
Au 16.8341 45.1822 33.3421
Pt 26.9294 27.9328 22.1689
Au 19.1203 30.5682 36.5053
Pt 9.77527 30.3845 22.6085
Au 32.9201 39.9788 9.10417
Au 44.9839 22.5635 32.6445
Au 47.6971 18.1616 31.707
Au 20.5406 2.90631 17.3187
Au 26.5938 11.5159 29.0338
Pt 13.9008 13.5981 22.6162
Pt 32.6641 45.4414 31.3476
Pt 21.978 44.5636 16.6922
Au 48.9225 33.1873 30.3506
Au 40.058 46.317 21.8425
Au 17.2946 44.2643 17.2187
Au 27.4278 37.2435 5.23356
Au 23.1303 14.0406 13.8967
Pt 27.2259 26.476 26.5856
Au 41.9286 15.0353 35.585
Au 29.0578 6.82225 39.8068
Pt 31.0918 24.6792 27.9706
Pt 14.6982 15.3299 24.5114
Au 24.8083 15.7945 15.4358
Pt 16.9953 24.0683 22.893
Au 27.2535 15.8021 45.3182
Pt 27.2525 24.277 31.2442
Pt 17.9286 33.6947 27.3067
Au 26.369 48.4765 26.0925
Au 34.6234 23.8778 32.2957
Au 8.4217 37.4826 31.2407
Pt 12.9714 38.0512 18.7899
Pt 23.1766 20.235 23.9357
Pt 25.4531 40.4255 34.0619
Pt 33.0797 8.57891 26.5106
Au 17.6385 18.2074 39.3919
Au 26.361 25.5344 47.0006
Au 40.5219 11.5069 31.62
Pt 21.5708 18.8884 25.5701
Pt 18.757 39.4523 17.7982
Pt 28.6835 28.2064 10.342
Pt 18.614 33.9139 18.1217
Au 13.5864 21.02 33.9616
Au 19.3488 46.1139 17.0077
Pt 11.7679 15.4748 31.9994
Au 12.6322 21.3086 28.472
Pt 20.8071 23.655 16.588
Au 42.6662 16.3197 18.5114
Pt 9.23926 27.4116 15.9688
Au 7.57758 17.5931 34.0473
Pt 33.9699 40.2639 36.0451
Au 45.1339 29.6256 30.645
Au 24.0143 22.9898 7.86026
Au 5.25397 16.3891 25.0865
Au 19.5982 6.68126 41.4499
Pt 7.04768 28.038 14.3563
Pt 14.4563 22.4041 16.1354
Au 46.5436 31.9657 37.1567
Pt 20.7346 32.7529 24.2239
Au 11.8313 11.1807 10.7911
Au 3.06753 28.3411 28.5048
Au 20.874 40.2974 6.67362
Au 3.97227 27.067 32.8189
Pt 24.4751 38.5349 12.6267
Pt 22.6499 25.6528 24.1131
Au 24.9206 28.3867 3.53392
Pt 19.6454 21.2369 7.46245
Pt 23.0037 39.0687 16.2424
Au 7.80321 36.5877 33.9728
Pt 19.6561 40.2402 25.2372
Pt 16.6006 25.3453 27.8231
Au 17.49 4.80976 32.7088
Au 10.2252 16.4305 34.0718
Au 25.9901 2.8263 16.9129
Pt 27.2951 44.6003 30.1599
Pt 18.8408 36.9608 36.5814
Pt 7.17523 26.9831 20.8826
Pt 13.2896 37.0303 26.5123
Au 12.8473 5.94768 25.812
Pt 11.492 34.114 34.1288
Au 25.932 38.8901 6.91725
Pt 11.3293 32.1118 15.87
Au 40.0735 27.5973 41.7173
Pt 26.7997 19.5248 42.5073
Pt 24.5389 25.0101 35.4666
Pt 13.2896 16.6173 41.4537
Pt 27.7732 40.2329 21.5128
Pt 18.8426 35.9532 33.9896
Pt 16.7674 29.4025 9.61275
Pt 15.8192 19.4384 10.6938
Au 15.5565 30.5334 4.42456
Au 24.3855 20.3849 8.91805
Au 9.23254 9.5075 14.6587
Pt 20.8628 10.0993 18.7733
Au 36.6595 37.3284 9.11242
Pt 23.7235 17.9371 26.721
Pt 5.45975 24.5194 20.5641
Pt 19.0082 16.9422 19.0112
Pt 9.48619 25.219 25.8149
Pt 11.6608 35.8959 24.5158
Pt 30.0219 16.4842 31.3393
Pt 23.1043 2.02266 24.4187
Au 48.7038 31.7211 21.6325
Pt 24.7141 31.0558 27.4097
Pt 28.976 22.0121 19.8176
Pt 18.2617 12.8957 21.4955
Pt 15.6549 11.8794 33.7665
Au 37.4172 21.4632 21.7704
Au 20.4241 42.5919 34.9506
Au 34.5545 19.8067 12.8013
Au 44.9946 18.2453 31.1799
Pt 8.34031 30.2927 11.2915
Au 31.5867 13.1802 38.3942
Pt 29.9875 34.1918 24.7749
Au 26.3852 40.2013 43.5559
Pt 22.0395 32.1028 9.49133
Pt 37.4896 24.6289 26.3618
Pt 26.1756 36.9591 10.9534
Au 37.7017 40.5022 18.6987
Au 37.1352 29.6931 41.8799
Pt 33.2447 30.6381 26.2797
Au 36.2697 34.5329 32.4714
Pt 28.5717 19.6497 28.1261
Pt 22.5255 13.9014 19.0396
Pt 10.7528 27.218 13.6616
Pt 16.5145 31.2411 37.7495
Pt 9.50219 22.3527 15.9897
Pt 10.5964 36.7936 11.6694
Pt 16.2694 20.4947 16.1478
Pt 25.9465 25.0174 11.6085
Pt 22.7429 31.1907 23.4009
Pt 30.0069 25.8937 15.6321
Au 46.326 20.5254 25.0224
Pt 13.4291 20.4972 14.0466
Pt 19.9701 30.2946 10.5499
Pt 22.2764 40.652 41.473
Au 29.4651 18.166 2.89176
Pt 28.7366 7.11414 15.5796
Au 25.9373 19.9698 5.31629
Pt 29.8411 27.7631 32.8412
Pt 30.9195 23.5925 34.7109
Pt 28.2871 15.4001 23.3756
Pt 8.761 32.4491 17.6573
Au 38.9914 22.509 19.3665
Pt 11.7154 13.0337 17.4851
Pt 18.6721 19.4766 32.0898
Pt 16.006 18.4625 7.86238
Pt 21.1416 11.2845 23.298
Au 41.7909 27.4618 15.558
Pt 22.1542 34.918 28.8401
Pt 23.1595 24.467 10.2099
Au 42.3747 30.1593 31.4836
Au 33.5748 8.66718 40.8626
Pt 33.6784 8.34593 22.5892
Pt 21.1275 28.5379 37.3394
Pt 21.4719 23.6065 21.2163
Pt 17.5172 19.0633 34.84
Pt 13.9313 16.6644 31.1643
Pt 30.7617 11.7388 19.4532
Pt 20.7836 32.9451 36.7698
Au 22.5198 37.3077 27.3397
Pt 15.9695 24.6034 15.8479
Au 34.0076 14.6778 14.591
Pt 11.5606 18.2951 12.7806
Pt 12.2082 29.9838 27.2424
Au 16.7707 3.73005 26.727
Pt 35.0831 23.525 25.3639
Au 31.2643 20.2056 41.1785
Pt 14.8258 30.3952 27.9846
Au 29.8458 21.0487 10.6157
Pt 35.6553 39.8373 17.1905
Pt 28.8712 36.2867 33.6038
Au 35.2666 45.9543 31.7145
Au 30.5999 13.6828 33.6015
Au 8.78063 18.3389 38.9337
Au 37.3565 20.4886 7.78417
Au 10.6699 18.0292 18.0859
Au 4.03618 25.58 24.8011
Au 27.3841 6.85639 41.9292
Au 4.54457 27.0289 14.8569
Pt 24.3567 7.69597 25.6316
Pt 25.7969 16.2925 21.7888
Pt 20.325 37.3025 25.6374
Pt 33.8109 43.183 16.4888
Pt 24.6309 16.975 12.7147
Au 9.447 37.3271 9.27203
Pt 17.4555 19.0575 19.7917
Pt 18.5541 14.0841 30.0526
Pt 13.4445 11.9576 38.9984
Pt 30.2611 44.8141 22.5635
Au 10.9851 24.5422 9.42767
Au 6.76115 33.0426 37.2484
Pt 27.4608 45.4452 27.5332
Au 35.8682 38.1779 28.5718
Pt 12.85 16.4052 14.2711
Pt 18.1621 32.2797 43.1384
Au 11.4874 32.4332 5.33904
Pt 7.22382 21.2633 16.9187
Au 36.4137 16.3734 34.9174
Pt 18.5651 22.9849 9.37417
Au 31.5099 24.7888 3.89103
Au 9.93301 16.2724 11.5151
Pt 25.0479 23.9923 32.9113
Pt 8.4209 21.231 23.8786
Pt 17.4856 17.0414 9.91551
Au 35.0442 45.59 17.4373
Pt 22.0167 24.9751 34.4765
Au 18.0781 2.98302 16.1608
Au 37.3786 35.1874 12.3155
Au 35.8501 37.7322 37.8532
Pt 20.2623 12.1667 41.476
Au 26.8585 32.8324 3.48643
Au 13.5573 19.4742 8.60739
Au 42.4715 34.4981 14.4477
Au 21.3829 24.7289 49.1507
Au 35.9672 11.2486 10.1249
Au 37.4188 41.9121 31.5689
Pt 18.6235 33.761 32.2638
Au 4.01673 29.7077 21.8848
Pt 14.273 19.8097 26.5815
Au 30.5275 20.2091 5.05399
Pt 30.5402 10.6677 37.7138
Pt 9.01825 28.7322 20.5859
Pt 28.7389 13.5535 19.2872
Pt 23.9455 12.0178 28.2351
Pt 17.9663 14.418 19.461
Pt 25.5894 5.95749 27.0702
Pt 24.4249 31.2411 34.983
Pt 12.7306 38.1609 11.6888
Pt 26.0747 11.8813 11.8727
Pt 36.352 42.0358 20.9158
Au 37.6017 25.1445 23.755
Pt 33.0393 40.5368 16.7623
Pt 16.2164 22.3096 20.7108
Pt 14.2246 35.4765 37.8116
Pt 31.6712 28.0173 36.8891
Pt 22.2017 42.7427 18.7331
Pt 14.0778 41.1921 22.1826
Au 37.8988 11.3754 30.2496
Au 16.1204 12.3366 43.2765
Au 43.6366 20.6626 30.7858
Au 32.97 32.6264 47.3938
Au 22.5385 7.05796 11.4646
Au 32.4761 28.8104 6.41742
Pt 23.0612 23.3253 26.1351
Pt 33.781 25.0859 21.4085
Pt 31.4996 13.7335 15.3176
Pt 9.78301 23.4893 21.3031
Au 7.67799 14.0779 30.6498
Au 31.5561 24.2429 7.73363
Pt 28.9573 33.4059 33.1391
Au 45.2097 22.6698 29.7447
Pt 12.8651 30.0172 16.9018
Au 19.0206 23.719 4.10011
Pt 18.8257 20.0178 24.8047
Pt 32.5387 9.71128 18.5927
Pt 32.9548 34.8923 35.2518
Au 20.6354 42.6252 8.22374
Pt 15.6671 13.186 14.8608
Pt 29.112 42.4209 21.605
Pt 29.9739 4.99466 22.0619
Au 36.9681 14.3612 39.3159
Au 25.6132 11.6008 43.9702
Pt 15.9971 35.4075 11.0555
Au 33.2944 14.8401 11.988
Pt 17.4308 11.0761 25.7963
Pt 14.0314 19.0294 29.4399
Au 15.3184 26.0866 44.3774
Pt 32.5936 29.5343 29.0324
Au 8.00383 25.6188 9.95643
Pt 10.6026 24.0508 31.9664
Au 8.51813 21.0085 21.1753
Au 13.5148 41.5775 33.2105
Au 40.2355 13.3812 33.6564
Au 33.8774 20.7041 18.7198
Au 21.902 47.1787 17.3843
Au 24.5803 5.21904 16.695
Au 4.45823 25.3376 39.1593
Au 35.7455 21.3063 32.6217
Pt 27.9064 32.5417 25.0213
Au 45.4048 39.9882 19.8268
Au 41.9577 15.4101 15.8137
Pt 16.8292 11.3477 16.4552
Pt 7.13181 24.5246 35.6848
Pt 14.7987 25.4811 9.33517
Au 34.3834 18.6745 25.8273
Au 3.13828 30.6308 19.3699
Au 26.3743 35.6236 3.37482
Au 31.9125 3.45883 28.8536
Au 35.1463 30.6098 38.5844
Au 43.4545 36.209 18.8605
Au 39.0636 41.4697 10.9532
Au 10.4771 13.5497 10.774
Pt 16.8135 25.0135 13.2899
Pt 25.9696 34.2711 12.0741
Au 20.4265 11.8936 6.19278
Au 33.852 21.9238 21.2324
Pt 33.512 41.9341 28.867
Au 37.9912 21.5077 45.3634
Au 20.3823 18.8347 6.21215
Au 44.6201 33.5089 23.7708
Pt 12.3251 12.4197 36.4624
Au 15.3161 5.35615 12.9305
Au 24.1039 13.9706 37.7227
Au 33.3455 47.7247 32.4086
Pt 18.5789 13.0857 39.5176
Pt 15.1563 34.9811 40.3271
Au 34.3532 30.324 48.1977
Au 36.5852 14.149 36.5627
Pt 23.7291 33.81 7.71282
Pt 31.0938 26.5565 39.5621
Pt 12.2032 26.5405 10.9117
Au 4.76594 22.3745 16.0187
Pt 13.4976 35.9804 20.8563
Au 28.2831 18.5821 5.2657
Au 7.33422 16.0053 38.8152
Au 39.7733 28.5431 35.2729
Pt 28.3511 35.3393 6.97228
Au 39.4483 29.5632 19.476
Au 39.6634 15.7979 25.9117
Au 16.6937 42.8947 14.8996
Pt 24.5671 25.6528 26.7069
Pt 23.0865 6.55961 23.699
Pt 29.8249 15.0562 25.8225
Au 30.8241 38.1978 39.1645
Au 36.6241 34.5667 42.5884
Pt 15.6057 9.52796 23.6463
Au 29.4419 27.804 13.0322
Au 25.3893 21.4918 48.808
Au 11.0587 19.3527 43.5399
Au 24.0087 24.9991 5.32807
Pt 23.5226 20.6164 26.8806
Au 11.7493 21.5936 9.54681
Au 39.5312 9.53865 25.1568
Au 41.5581 35.4076 27.1354
Pt 21.4694 14.1715 36.4242
Au 25.7055 9.49861 37.7235
Au 43.4816 32.6375 30.8473
Pt 25.2641 6.137 29.8393
Pt 12.0616 12.7405 31.8887
Au 40.774 24.9619 19.8261
Pt 15.8621 38.539 14.5143
Au 27.2412 20.141 18.2267
Au 39.6803 44.4519 27.0176
Au 7.62661 35.4723 10.3549
Au 18.7751 1.86482 21.7519
Au 42.4313 30.3234 43.395
Pt 9.29915 16.7975 24.3943
Pt 16.056 9.29959 33.1114
Au 26.2636 31.3997 49.2847
Pt 21.2258 40.8669 16.9313
Pt 18.6364 26.7289 40.8005
Pt 31.2979 29.5723 31.6476
Pt 18.4229 19.0987 16.9567
Pt 22.57 9.81146 28.4052
Au 26.163 47.2457 33.5561
Pt 25.2537 10.6802 17.2774
Au 18.0122 4.15089 13.6515
Au 24.5184 14.5864 5.1526
Pt 20.6689 17.7802 32.6559
Pt 22.2428 37.745 13.7085
Au 13.863 11.2741 16.1834
Pt 16.4527 22.5228 40.7551
Au 22.6723 39.1886 45.9806
Pt 33.3648 26.5349 19.1159
Pt 18.4892 37.925 9.79146
Pt 15.8411 20.1256 39.7155
Pt 28.6732 30.1222 14.6032
Au 24.4502 43.7681 11.6454
Au 35.0691 40.0227 12.6004
Au 36.2615 32.3148 14.4567
Au 6.48953 36.1652 26.6367
Au 18.4295 35.3076 3.77034
Au 31.5727 31.2915 8.4652
Pt 13.0169 31.6255 37.6517
Pt 16.5642 29.6773 6.81362
Au 35.5144 33.0384 30.1877
Pt 24.5813 28.4634 8.17358
Au 41.7993 34.5699 29.8582
Au 45.0521 24.1982 38.8909
Au 16.6604 24.9264 46.7369
Au 32.662 6.43916 39.1282
Au 45.6504 40.0191 25.1143
Pt 21.8128 9.97189 37.84
Au 19.9459 27.7932 45.7451
Au 32.8802 28.0687 49.3057
Au 33.4455 21.0902 43.8811
Pt 8.38756 18.6919 22.6639
Pt 14.4287 28.1185 30.8911
Au 36.2762 31.2309 5.2176
Pt 5.44576 29.465 33.2647
Au 48.0441 32.5364 24.2404
Pt 26.6838 41.1921 19.1108
Pt 6.71039 33.724 13.8633
Au 42.5236 21.1698 33.5805
Pt 13.4583 32.5727 17.4991
Au 42.8365 21.8332 13.4404
Pt 24.0309 29.7966 45.407
Au 12.966 33.1113 42.1634
Au 16.095 17.7568 41.6647
Au 28.6739 3.10379 16.7674
Au 21.7281 19.4618 8.55291
Pt 8.53302 21.9439 35.3967
Au 46.2101 17.6984 33.885
Pt 30.2092 35.5945 38.5689
Au 30.7692 11.9067 26.1754
Au 15.3251 45.1896 30.9442
Pt 35.3118 38.1081 31.2624
Au 27.0232 39.0499 12.4678
Pt 34.0223 37.4126 35.4406
Pt 11.7679 14.4754 21.0275
Au 8.10886 12.7385 28.2632
Au 11.1715 28.4414 6.95315
Au 27.0239 16.5933 42.4809
Pt 30.1821 19.9971 18.3245
Au 40.0591 16.5157 22.1972
Au 6.77009 37.3223 16.8588
Au 4.44668 31.5556 12.4161
Au 29.0655 8.71274 35.5739
Au 35.3082 7.52856 39.1863
Pt 26.7272 20.8061 40.0231
Au 17.2998 39.0634 41.2796
Pt 32.5608 38.9633 12.7688
Au 32.6682 22.5623 2.88442
Au 30.3337 32.3353 47.5408
Au 42.3196 31.9952 23.0191
Pt 22.2938 42.5904 28.0201
Au 28.9479 48.1174 26.7443
Pt 25.6733 36.4498 37.066
Pt 37.4739 8.23421 26.4207
Pt 18.33 11.2799 29.4004
Pt 29.7459 44.522 15.4835
Pt 6.28257 31.3051 18.6694
Pt 9.44807 24.2227 34.4129
Au 38.2171 17.0124 19.4478
Pt 22.7247 16.132 28.2803
Au 5.91428 30.2236 37.9499
Au 24.6538 25.6312 8.0186
Pt 17.7016 31.1016 27.7239
Au 41.9049 18.3309 29.9605
Pt 24.7959 30.2877 32.2226
Au 11.2311 18.2977 9.86888
Au 21.7001 5.21008 35.0053
Au 36.0067 16.6852 9.11377
Pt 27.6752 34.4495 35.5964
Au 35.5957 43.3747 30.2058
Au 31.2261 34.8165 47.5576
Pt 20.0167 12.1383 25.6666
Au 8.51041 28.1106 7.31213
Au 6.91174 17.389 15.1314
Au 38.8437 22.0991 36.3315
Au 39.1968 28.6522 12.7473
Pt 19.4961 39.3836 11.912
Au 22.2291 31.8672 45.7679
Au 17.5225 11.0376 41.1761
Pt 24.4073 36.2147 29.1937
Pt 25.1233 31.1729 12.0672
Pt 18.5128 18.3684 43.3535
Au 35.3019 32.1027 43.4406
Pt 13.8223 18.9593 32.1901
Au 9.5239 13.6472 32.7228
Pt 20.1299 35.7754 6.13391
Au 11.2035 38.6807 25.0222
Au 3.58718 27.6457 17.4839
Au 20.2861 44.947 36.7142
Pt 11.7437 16.1249 25.2764
Pt 9.60326 29.6108 26.8079
Pt 17.4108 44.2447 23.9182
Pt 12.0754 24.5934 34.779
Pt 31.9302 22.521 31.6225
Pt 10.5331 32.4489 38.5195
Au 37.1729 34.3558 9.33439
Pt 14.5171 29.2785 33.2573
Au 18.5908 43.1396 39.8914
Pt 38.0815 40.9495 15.9499
Pt 20.2209 30.2183 23.4684
Pt 28.5691 25.7519 11.0456
Pt 20.406 21.6701 32.536
Pt 22.6085 36.313 31.2322
Au 29.8602 42.0584 38.0113
Pt 31.0134 31.7661 32.9679
Au 32.298 35.5709 45.2666
Pt 33.2529 36.779 29.7243
Pt 18.4543 20.5791 14.5111
Pt 30.7064 45.8632 19.9691
Au 24.2151 6.58103 35.262
Pt 21.4167 18.1101 43.1722
Au 33.8298 16.6987 35.5509
Pt 33.6191 33.9163 15.7716
Au 32.6732 21.2484 46.7121
Au 10.2868 11.7445 34.61
Au 42.1884 29.0531 26.6943
Au 34.0336 10.5022 24.7869
Au 13.3341 37.8476 23.5152
Pt 21.1416 33.7796 39.2337
Au 25.8576 2.24659 32.7884
Pt 18.2147 37.3769 29.4992
Pt 25.5566 25.4117 14.4316
Au 37.1451 27.5963 35.6583
Au 38.2478 32.2847 42.4628
Au 19.8648 17.2024 47.6369
Au 25.082 41.6399 41.6111
Pt 14.5735 25.238 31.7852
Pt 21.4188 37.148 33.6278
Pt 14.7806 34.3582 13.3996
Au 33.1268 3.8949 23.7158
Pt 8.81978 34.0892 33.6525
Pt 21.8182 24.5333 37.1845
Pt 33.4746 7.74306 35.3528
Pt 12.1354 34.0883 36.7096
Au 24.0319 3.81738 35.8906
Au 7.46877 16.4356 12.7024
Pt 16.0261 19.8105 13.3619
Pt 15.9335 23.6705 30.0472
Au 36.1207 24.5997 11.7502
Au 43.7164 22.1484 16.1245
Pt 9.51096 25.3637 37.0469
Au 11.7673 16.8157 43.6059
Au 10.1934 8.58405 17.0936
Pt 7.67286 16.9525 26.5557
Pt 20.353 32.4849 26.7848
Pt 19.4388 27.4777 10.196
Pt 29.1442 24.6322 38.8264
Pt 7.73509 28.3756 23.0881
Pt 30.0764 9.32115 19.9638
Pt 27.125 20.6777 21.2866
Pt 11.099 34.339 26.519
Au 29.8222 5.42891 17.4693
Au 6.59722 16.5334 31.5644
Pt 28.3808 26.8501 44.3139
Pt 31.6943 9.46538 24.163
Pt 16.3673 14.6952 22.4515
Pt 13.1797 35.5285 10.8026
Pt 32.7718 45.6744 26.4854
Pt 22.9967 20.7991 46.754
Pt 20.6748 24.1176 25.1323
Pt 11.5217 14.3425 13.1936
Pt 33.2142 27.8938 25.1016
Pt 11.0061 21.5391 19.8483
Pt 31.489 34.3271 33.0627
Au 27.409 13.8342 5.26042
Pt 18.8093 25.1594 15.5022
Pt 25.0414 22.8419 40.0228
Pt 26.0024 6.98177 15.027
Au 42.9013 30.7158 28.8256
Pt 25.6879 4.30074 19.1571
Au 44.1199 14.4517 17.2158
Pt 17.2164 10.3944 35.4274
Pt 25.0097 8.95903 29.9988
Pt 18.7775 15.7998 22.4113
Au 6.00294 30.9563 10.1555
Pt 32.3978 5.84319 22.1297
Au 12.9797 16.9562 7.6556
Pt 20.5541 18.7676 45.5446
Au 17.844 44.3868 12.8657
Au 17.9985 29.319 4.26236
Pt 27.0517 15.8796 14.0087
Pt 24.4327 14.7348 23.5366
Pt 24.7226 35.0184 45.6391
Au 37.0194 10.5825 12.4397
Au 36.3018 21.3321 42.9639
Au 34.2424 24.86 3.27583
Au 28.9718 31.0779 49.5654
Au 31.3637 43.7663 33.1719
Au 18.6125 18.593 3.97773
Au 40.6177 13.827 11.1548
Au 19.5797 16.1689 44.7888
Pt 22.1414 20.9817 21.2439
Pt 16.9999 24.9711 42.2863
Au 37.466 46.4735 21.0132
Pt 29.5764 20.5194 25.6027
Au 41.0942 37.2345 17.0578
Au 33.314 48.4017 25.4486
Au 37.2707 9.7258 18.904
Au 34.167 10.284 34.3295
Pt 29.8335 24.8415 41.3624
Pt 18.4579 11.0338 23.4758
Pt 15.5584 19.927 21.7217
Pt 18.2934 13.0983 27.4548
Au 33.2999 28.5853 11.9138
Pt 15.9161 8.10758 21.4214
Au 46.9756 37.7098 24.4796
Pt 12.9706 28.3826 40.6695
Au 16.2627 1.97537 20.5434
Pt 28.7301 16.4498 20.8278
Pt 27.4409 34.3019 23.1856
Au 38.2443 23.4274 43.183
Au 20.0804 6.09136 13.0818
Au 14.6301 21.0948 4.13186
Pt 16.3854 35.1636 17.3548
Pt 28.0025 35.1018 10.1397
Au 28.0452 2.42492 28.5461
Pt 29.1466 40.9328 26.8732
Au 41.0852 32.2882 12.9131
Pt 22.2772 39.6333 11.7351
Pt 34.0598 13.9484 17.2156
Pt 31.2695 34.4551 13.6044
Au 27.5629 7.14369 37.2037
Pt 8.76108 31.4213 20.2371
Au 48.3683 31.7768 28.0911
Au 10.6012 8.42081 26.1689
Au 37.4935 46.0023 26.6577
Au 39.903 35.1526 18.6683
Au 34.3443 17.2298 13.4196
Au 34.2689 37.9576 7.84624
Au 39.2955 9.58242 16.9866
Pt 10.0551 26.1922 20.4283
Pt 30.7104 26.4437 34.9569
Pt 14.2414 10.8258 21.6249
Pt 13.9924 9.94308 28.8692
Pt 29.4086 31.0554 6.8605
Au 12.2437 39.6661 37.2352
Au 28.5761 38.6077 14.8669
Pt 16.3936 18.2315 30.7482
Pt 22.6522 21.6268 29.3096
Pt 27.2184 14.9499 16.6534
Au 44.4846 26.7149 15.6032
Au 31.3237 39.9905 37.0857
Au 36.31 28.3409 11.5713
Au 31.714 48.3602 16.1486
Pt 30.9787 39.9392 14.8668
Au 39.5344 32.7759 23.7637
Au 26.6627 4.76761 36.027
Pt 33.0496 10.224 14.9307
Au 34.0551 16.3265 44.4006
Pt 16.9339 37.8436 33.5775
Pt 8.05045 20.9837 14.1255
Au 29.6981 4.73185 14.7043
Pt 9.47212 27.5919 24.8123
Au 40.4993 29.8827 16.8824
Au 38.3145 28.1036 43.9628
Pt 14.4146 15.4228 20.7425
Pt 32.5911 27.747 33.4902
Pt 22.412 18.1622 47.4994
Au 36.5001 18.6192 36.6634
Pt 29.7122 39.4328 12.5396
Pt 6.95298 33.1651 24.7418
Pt 23.1559 4.59767 28.2447
Au 43.8694 16.2352 33.9155
Au 42.2568 26.284 27.4025
Au 44.3953 19.6222 12.3535
Au 17.5421 11.8736 6.03715
Au 29.4259 11.6151 29.2888
Pt 21.7681 32.8215 13.9837
Au 33.5018 23.7745 9.7254
Au 37.7062 26.4179 13.1091
Au 34.9763 7.68293 30.2936
Au 46.186 28.2402 35.1432
Au 31.373 38.8868 41.8061
Pt 32.0877 29.7683 16.7944
Pt 24.5414 15.2709 18.2613
Pt 31.2507 29.6919 34.6208
Au 46.0617 21.8671 37.5867
Au 24.7221 21.1447 42.1131
Au 34.7243 25.6697 45.7909
Au 35.7844 28.0064 38.1618
Au 43.1161 33.7009 12.0026
Pt 30.0689 45.6355 26.8357
Pt 17.8235 15.67 40.2295
Pt 29.9863 17.7301 26.889
Pt 13.0612 19.94 11.267
Pt 14.4536 30.7939 9.42427