3871
Atoms. Timestep: 21236
Au 4.61632 15.1022 27.5036
Pt 27.1711 10.0537 21.9103
Pt 22.8997 14.859 10.4676
Pt 28.2873 9.85245 39.572
Pt 11.4788 33.7908 29.7413
Pt 24.395 14.4805 12.7215
Au 17.9849 13.3675 6.62437
Pt 18.3422 11.3229 29.3396
Pt 12.0183 17.6152 31.1773
Pt 15.6442 16.0887 34.1528
Au 2.53137 24.2866 27.9075
Pt 11.5597 32.0438 36.9738
Au 6.01504 30.4644 39.0261
Pt 20.3725 18.8098 33.1679
Pt 14.2423 19.3806 19.8048
Pt 17.4285 24.5454 17.641
Pt 28.9923 8.14262 36.3509
Au 9.27392 7.69032 27.45
Pt 13.5505 15.5891 31.9905
Au 9.7092 12.1683 37.0505
Pt 5.66515 25.3911 24.5142
Au 12.7412 33.0236 43.6764
Pt 13.3338 21.7107 21.0277
Au 11.7214 12.4246 39.0305
Pt 18.05 22.7692 26.8156
Au 6.71575 16.474 36.9586
Pt 7.37918 29.4442 26.7072
Pt 11.4814 10.3599 20.083
Pt 13.2254 20.4598 24.1353
Pt 8.48718 15.7021 32.9653
Pt 6.672 20.8126 34.543
Au 27.0917 6.90895 9.02102
Pt 4.63158 22.9706 31.8093
Pt 7.08305 14.2985 23.7499
Pt 8.3342 35.8219 19.3789
Au 11.8165 10.6579 31.1035
Pt 12.2847 11.6823 23.866
Au 24.9317 10.0071 42.6476
Pt 22.7086 7.23895 13.9727
Au 7.1996 13.5673 31.9955
Pt 8.61842 26.6212 31.1474
Pt 17.7673 30.0338 7.50089
Pt 15.6079 14.4146 22.0282
Au 4.35311 20.618 22.1144
Pt 13.277 14.9622 34.521
Pt 10.4308 29.703 37.5075
Pt 15.5321 19.4527 24.85
Au 11.4334 43.5095 20.2475
Pt 20.4591 5.46682 26.1084
Au 9.94687 29.3496 19.9514
Pt 18.1048 16.8221 11.6554
Pt 7.3559 25.5039 29.0332
Pt 16.6373 18.3016 20.6604
Au 17.5276 4.35227 31.6517
Pt 15.0929 13.6344 32.8165
Pt 12.4965 24.3647 40.7329
Pt 15.1843 23.7149 19.1635
Au 9.1017 20.86 10.793
Au 28.9408 31.1703 11.7078
Pt 18.6352 15.4783 8.98897
Au 4.1735 19.8066 34.3107
Pt 8.47965 12.2175 24.6571
Pt 6.94587 32.158 27.0208
Pt 11.5533 28.9554 24.3154
Pt 6.88419 21.5482 22.4459
Pt 22.2363 13.1086 35.616
Pt 17.9651 22.2665 22.4343
Au 9.81605 9.21875 29.6654
Au 7.16921 29.9192 19.6613
Pt 13.9127 19.3939 13.0843
Au 21.4886 14.0911 43.7822
Pt 21.7807 17.2527 27.9437
Pt 13.861 20.8662 15.3346
Pt 28.9309 13.4349 37.8718
Au 7.59173 20.0208 41.0942
Au 16.4354 12.4691 39.3687
Au 13.6784 11.5191 26.1897
Pt 11.8845 17.8926 38.1565
Pt 14.596 15.8091 25.0355
Au 13.1326 21.2063 43.996
Au 3.24283 22.3949 34.0333
Pt 9.81796 30.8097 11.5336
Au 25.1618 20.9091 13.0062
Pt 13.5461 25.9393 11.3973
Pt 10.8176 15.9124 15.4797
Pt 9.98198 31.7338 39.4079
Pt 22.8723 17.7875 15.6024
Au 7.52989 39.2167 25.8673
Pt 10.7252 7.61002 25.1771
Au 9.84688 12.6225 32.123
Pt 22.0931 14.1676 24.9654
Pt 14.7296 14.0407 30.1276
Pt 12.7667 9.30728 24.8721
Pt 15.8711 32.7305 30.3699
Au 9.21866 13.254 39.696
Pt 14.9584 31.7334 16.2592
Pt 16.1794 39.6734 16.0653
Pt 11.1075 21.6527 34.7789
Pt 21.9463 42.2486 37.3261
Pt 15.3949 27.9074 21.1763
Pt 11.7746 32.3174 33.2908
Au 39.028 10.2162 31.5757
Pt 6.92802 27.6044 35.3155
Pt 8.40437 17.9431 34.7193
Pt 16.1003 18.8904 31.5429
Pt 13.3293 20.7187 26.9464
Pt 14.5557 17.4354 30.0009
Pt 11.4235 9.64817 27.1769
Au 3.33843 29.8727 24.5382
Pt 15.0268 20.006 29.0164
Au 31.8235 20.3204 30.9647
Pt 13.277 23.8737 43.3576
Au 17.4141 45.2907 35.3113
Au 17.2634 28.5202 47.7844
Pt 19.1818 26.5399 36.4826
Pt 17.8586 31.3961 29.296
Pt 14.5454 11.5121 31.1752
Pt 22.4227 5.60196 33.1087
Pt 12.2089 22.3815 39.11
Au 31.9849 32.7759 46.0801
Au 8.10775 19.2738 12.8321
Pt 10.3336 20.0271 27.6855
Pt 6.98143 27.6628 15.0571
Pt 17.2348 35.7792 23.0408
Pt 24.1488 18.1341 26.4339
Pt 15.575 24.0062 21.8195
Au 5.90839 32.1982 13.7538
Au 5.11382 35.0706 31.544
Au 10.4181 19.6057 42.3211
Pt 8.57227 33.9294 25.558
Pt 16.3363 34.4563 20.7663
Pt 16.7026 25.7295 20.1731
Pt 5.8943 18.9119 30.07
Pt 5.91895 27.568 19.5522
Pt 5.64525 28.8266 17.2086
Pt 4.72792 27.7726 25.8531
Pt 19.0461 23.4221 31.8816
Pt 17.0001 41.9131 28.534
Pt 13.2917 30.8506 23.3554
Pt 10.6548 25.2618 42.4511
Au 6.12486 34.8412 14.1571
Pt 5.67629 20.6169 32.1249
Pt 18.5436 39.462 14.3145
Pt 13.7514 12.1083 35.1685
Au 4.45363 13.8619 23.8754
Au 26.0059 25.2082 46.6207
Pt 18.3437 18.5198 42.428
Pt 14.1378 42.966 24.6231
Pt 9.89999 24.0474 40.1378
Au 4.33228 34.8386 24.0581
Au 16.7559 37.1886 44.173
Pt 17.9266 19.9706 33.0806
Au 25.1008 14.3423 41.9321
Pt 9.26138 30.3353 41.7204
Pt 12.6264 25.881 33.8963
Pt 9.93488 21.4713 40.2489
Pt 17.4499 24.4621 14.7286
Pt 16.7985 17.1371 36.4383
Pt 15.405 30.2491 25.269
Pt 16.7828 26.203 41.2364
Pt 25.6021 46.6252 26.5301
Pt 26.3116 9.17856 32.6773
Pt 16.7801 35.0381 14.7561
Au 10.2076 22.9538 9.3009
Au 6.15754 35.353 34.0385
Pt 18.8645 20.0175 14.8171
Pt 13.6935 29.1278 8.31197
Au 15.1203 4.46823 30.1451
Pt 9.14339 15.6765 22.6693
Pt 7.39775 31.0375 22.3608
Au 3.89437 29.1728 29.7868
Pt 10.2284 27.5069 22.4212
Pt 9.39314 25.9702 17.1328
Pt 24.7266 46.7529 23.3256
Au 3.54348 24.7923 22.7479
Au 6.14809 11.806 23.1819
Au 8.91337 41.0379 24.2808
Pt 23.6403 7.01079 16.4776
Pt 12.6356 40.5094 33.9825
Au 4.16513 31.8721 30.705
Pt 22.3331 17.4706 40.5251
Au 14.7208 32.2198 45.5306
Pt 9.05307 25.6904 36.1561
Pt 7.18048 22.4387 36.7529
Pt 13.7047 24.9499 8.85171
Pt 15.4843 24.8318 29.8371
Pt 14.7615 34.3511 34.503
Pt 20.4021 19.0812 29.2128
Au 8.64632 35.262 37.0164
Pt 10.5856 19.7082 30.2789
Au 10.4687 21.099 44.6522
Pt 29.0247 10.8142 37.0684
Pt 18.2098 33.9711 28.2564
Pt 22.7842 27.7948 41.996
Pt 7.71979 29.577 37.0607
Au 13.6183 45.2406 28.8692
Pt 8.94795 20.4163 35.9356
Pt 16.3471 26.0702 37.4698
Pt 10.9425 28.0931 17.3762
Pt 17.0757 31.7022 9.80054
Pt 13.2595 13.5966 27.8566
Pt 11.179 36.1376 18.9488
Pt 21.5679 19.5282 17.2645
Pt 22.3562 22.1218 13.5637
Pt 15.7739 38.4372 26.5287
Pt 8.8558 28.6495 24.5157
Pt 10.6832 23.7349 24.7001
Pt 14.7444 36.6048 28.1075
Au 3.83305 16.1467 25.044
Au 3.07211 25.5076 25.4392
Au 6.46449 11.3144 28.1316
Pt 13.3578 17.6963 23.7637
Pt 16.3952 34.5463 32.4176
Au 4.43021 33.8229 18.6634
Au 9.41627 22.367 29.1446
Pt 5.91998 27.8781 28.1864
Pt 19.375 24.7234 40.7562
Pt 23.156 34.683 41.8228
Au 33.883 33.0225 43.17
Pt 22.2878 35.2961 36.1878
Pt 16.0115 35.174 39.6181
Pt 19.4429 37.5249 26.5435
Pt 14.8339 39.1389 13.4337
Pt 17.5474 23.8027 42.3744
Pt 18.8593 26.1687 43.0564
Pt 17.416 19.6589 22.8543
Pt 13.2775 21.9449 13.0234
Au 4.29003 31.8923 22.8285
Au 22.2743 48.5096 24.4252
Pt 17.8852 17.8503 8.36624
Pt 14.1037 10.7496 19.7093
Au 13.5666 39.1494 41.2106
Pt 11.612 13.4315 16.6048
Pt 14.2025 28.2628 23.749
Au 4.53202 19.8901 19.2919
Pt 13.0777 35.4054 26.4845
Au 17.7431 24.6575 45.0179
Pt 24.9311 38.9565 19.2768
Au 6.81841 39.1633 23.1921
Au 7.76485 34.7799 31.7042
Pt 10.8854 36.8736 25.9098
Pt 6.21236 17.4085 27.9473
Au 23.6519 44.0854 23.2628
Pt 12.6703 38.9713 36.5994
Pt 12.7134 28.9782 30.657
Pt 15.3913 30.1116 35.5046
Pt 13.9208 30.2324 13.9012
Au 2.40433 22.8415 25.6147
Pt 9.74988 27.9999 10.833
Pt 18.8249 37.1473 18.3922
Pt 28.3193 44.558 23.676
Pt 17.6109 28.7617 37.2056
Au 12.0743 43.7622 26.6552
Pt 13.1293 26.382 42.4005
Pt 16.229 42.815 22.8353
Au 20.0888 48.5692 22.7608
Pt 8.71611 29.1461 13.3174
Au 3.93177 15.806 22.0195
Pt 12.9527 30.4173 26.2586
Pt 30.0617 35.3942 21.2749
Pt 16.0806 41.8254 17.8613
Pt 8.97485 16.4601 17.376
Pt 12.3819 18.4825 28.6215
Pt 6.04677 16.6763 23.4095
Pt 18.9312 15.2171 31.3105
Au 14.9988 5.2249 32.813
Pt 17.8875 13.0725 20.3986
Au 15.6916 9.56843 11.3555
Pt 20.8017 22.9116 27.1988
Pt 29.7118 5.75531 30.7438
Au 4.39548 30.1059 27.1277
Pt 11.0659 14.0924 21.0698
Pt 16.9437 17.4853 28.7643
Au 20.7516 6.6147 36.7745
Pt 21.4112 14.3908 31.8289
Pt 17.3621 17.2819 16.8555
Pt 11.0906 16.3124 24.4962
Pt 6.9234 22.7439 30.1426
Au 12.8509 10.8429 11.0602
Au 6.54563 10.5297 25.5459
Pt 12.5623 16.2899 26.8047
Pt 10.2006 21.8192 31.8064
Pt 9.51851 20.2976 21.2573
Pt 13.0525 32.2749 12.3149
Au 37.4272 21.0694 8.52458
Pt 6.45393 19.2384 23.2862
Au 23.2853 21.7299 26.7538
Pt 15.4948 23.7767 36.4158
Pt 15.9441 26.1832 12.4765
Au 39.0483 20.6862 30.0198
Au 29.978 13.9465 35.1153
Au 41.7405 22.1341 39.0571
Pt 15.7941 13.6925 35.3934
Pt 21.6695 9.15549 37.3205
Pt 20.9456 10.2154 39.5951
Au 18.3568 3.9006 27.2873
Pt 11.3866 27.8976 28.5359
Au 41.9171 9.57694 27.5782
Pt 10.4843 34.3599 32.1167
Au 36.0829 37.0328 42.3562
Au 5.38864 29.896 32.039
Pt 7.86142 23.712 17.5949
Au 2.65796 29.8304 21.8505
Au 11.5642 37.456 10.3167
Au 11.6388 5.99282 21.5205
Au 4.01338 26.5208 17.778
Au 3.42666 17.6364 27.2924
Pt 15.9695 11.2957 33.8044
Pt 7.62192 25.2539 33.8313
Au 22.1916 27.4802 36.6612
Pt 18.4917 26.9439 13.5963
Au 26.5218 32.6859 16.502
Pt 8.37539 13.0255 27.4566
Pt 10.5469 13.6483 23.6082
Au 13.3145 4.25169 22.8874
Pt 7.41313 23.4666 24.7531
Au 20.7018 29.4358 46.337
Pt 11.1931 30.9642 13.7963
Au 17.6065 29.0994 20.0002
Au 28.0125 20.5676 27.4348
Pt 14.4826 18.2173 26.9968
Au 35.801 8.92373 37.5539
Au 29.7539 24.1066 16.0931
Au 17.164 30.5727 17.6516
Pt 13.2916 9.91248 22.1074
Pt 16.232 23.8744 32.3677
Pt 8.71623 20.553 24.0624
Au 34.4901 30.4153 32.0137
Pt 10.813 34.1736 38.2165
Pt 20.0715 9.75672 28.041
Au 14.8529 22.0527 6.39971
Au 22.0169 9.09483 41.9325
Pt 11.6236 16.1957 36.2042
Pt 11.9289 31.1425 20.9631
Au 2.95541 20.6823 31.8615
Pt 4.62026 22.5829 27.0569
Pt 12.0359 29.3296 11.9013
Pt 18.4301 24.8001 22.4572
Au 8.65794 5.84478 25.3754
Pt 12.1588 18.509 14.8629
Au 11.4323 8.90917 34.5997
Au 27.8167 23.4758 17.9718
Au 30.4341 27.9307 7.39872
Pt 17.0798 21.8224 18.3108
Pt 11.7421 38.8294 19.5752
Pt 9.67882 33.9382 18.033
Au 24.9758 31.1505 7.81707
Au 33.7182 30.4989 13.9065
Au 22.0798 31.0696 20.1729
Au 29.6692 21.3411 3.91649
Au 32.8697 21.5095 21.6941
Au 45.3469 25.9236 14.9701
Au 21.8709 25.2282 32.2856
Pt 8.52831 31.2323 24.9987
Au 29.0508 22.3975 7.54197
Pt 13.1067 23.6268 22.9811
Au 29.5944 24.8514 33.7464
Pt 17.8063 19.8931 29.4557
Au 33.2041 36.8863 14.637
Au 26.5619 32.5306 11.3588
Pt 16.7497 31.8821 26.8607
Au 25.8551 30.9465 30.2798
Au 40.2747 25.233 35.9864
Au 19.3437 23.9134 9.39839
Pt 16.815 27.6229 35.0717
Pt 19.3273 23.559 24.7276
Au 18.7409 32.9726 47.144
Pt 20.8741 21.3763 24.8253
Au 8.09367 37.4911 35.2703
Pt 31.2399 5.23477 15.9037
Pt 21.926 14.8433 29.1302
Au 18.5303 14.3161 39.8213
Au 16.3215 7.06126 31.2244
Pt 22.4405 39.2404 22.7625
Pt 10.9362 25.1515 10.9054
Pt 43.6486 27.9966 16.6773
Pt 17.9037 40.9071 21.2277
Au 12.3613 8.86438 13.1113
Au 23.9763 1.96989 18.4592
Au 25.9736 33.5671 19.2124
Pt 9.39291 17.9008 31.8282
Au 17.297 23.0562 7.57007
Pt 17.2482 33.4565 12.415
Au 38.3964 30.2435 43.9256
Au 3.51546 20.2976 25.2942
Au 29.2835 28.6056 42.6888
Pt 11.1644 29.3782 39.9646
Pt 13.2551 31.7455 30.7664
Au 23.7766 23.1464 20.6681
Pt 15.7618 27.6134 25.7898
Au 36.6264 28.4484 33.2476
Pt 9.07689 15.2905 19.853
Au 19.8433 30.5885 13.6343
Au 26.7088 23.9406 6.42619
Au 27.7839 29.1573 6.55939
Pt 9.89625 26.3496 33.6518
Au 31.6608 24.6248 6.02337
Pt 12.5006 27.7535 38.206
Au 27.0671 17.2622 35.1469
Pt 14.2299 8.78682 31.3061
Au 34.6152 18.9604 12.3953
Au 23.1541 24.6823 22.8593
Pt 10.4825 16.3845 39.9075
Au 27.287 30.4444 43.6311
Au 30.9881 4.06401 35.3064
Pt 9.94154 30.3175 33.1999
Pt 18.0991 20.141 35.6564
Pt 13.6387 32.0512 35.0486
Pt 15.8989 32.7318 42.8406
Au 6.43207 19.2388 36.6573
Au 21.5592 4.79443 23.6803
Pt 12.6571 32.0143 39.4332
Au 15.6884 22.6091 43.9825
Pt 12.9822 22.4502 36.6627
Pt 11.398 26.7174 40.3113
Pt 19.2338 20.095 12.1697
Pt 6.23572 24.01 22.1856
Au 6.45568 15.6726 17.0319
Pt 9.49953 21.5242 18.5368
Pt 12.9084 6.91474 23.8705
Pt 5.73228 32.0279 20.4808
Au 3.134 19.0403 29.6369
Pt 7.94203 22.6983 20.2452
Au 28.6802 32.6453 9.46944
Pt 10.6649 37.3627 21.6279
Au 11.0166 8.66313 22.4242
Pt 14.1244 40.8699 22.9138
Au 24.8568 23.2311 24.7428
Au 29.2351 28.1281 2.03864
Au 28.216 26.9288 30.121
Pt 12.4836 37.8395 33.7461
Au 24.2811 30.314 27.8984
Pt 11.1233 35.2954 15.5953
Au 32.6947 32.9692 14.6675
Pt 11.0262 31.3001 18.2054
Au 30.9065 29.3293 40.613
Au 36.7947 24.9104 15.525
Pt 20.1593 37.5941 15.5957
Au 27.6232 30.946 23.7198
Au 28.0892 19.6513 41.729
Au 48.4128 26.0336 32.9551
Au 27.5207 37.1896 10.3443
Au 27.3257 20.4565 34.4286
Au 22.7603 31.8031 33.6117
Au 48.362 28.6896 34.724
Pt 23.1235 12.5285 33.1715
Au 30.1343 34.9063 45.7436
Pt 22.5829 20.207 40.8879
Au 15.9384 11.1066 36.9444
Pt 15.584 21.3157 35.8363
Au 16.7496 33.8089 24.904
Au 18.9629 13.7591 42.7715
Au 8.55171 17.5017 41.636
Au 10.3771 31.0389 44.0916
Pt 4.89459 19.8243 27.5981
Pt 15.7336 30.2029 43.853
Pt 14.4582 32.6163 37.4869
Pt 9.12831 14.8234 25.5177
Pt 9.17237 13.8119 17.3635
Pt 16.4332 35.2251 29.6402
Pt 7.2151 27.0234 37.96
Au 4.38244 32.7319 28.1332
Pt 6.54839 32.9312 24.0257
Au 34.0618 28.9825 26.6549
Pt 12.2243 37.5303 14.5368
Au 29.0089 24.9225 25.865
Au 12.6446 31.5271 6.93567
Au 26.6723 28.8893 28.6752
Au 32.5804 16.108 10.2165
Au 31.6108 12.7461 11.3857
Pt 16.3829 24.6865 26.9706
Pt 6.15519 30.61 29.0949
Pt 4.65816 21.3856 29.6456
Au 25.3965 29.691 5.36708
Au 7.25651 33.3156 35.3944
Au 21.9106 30.3301 23.0373
Au 24.3405 19.4621 10.5327
Au 5.5918 15.7831 32.3236
Pt 9.98358 30.3444 22.6162
Au 39.6733 21.2728 40.6279
Au 34.5946 24.3399 45.4632
Pt 19.3074 35.102 16.4848
Pt 16.6675 39.2539 32.7913
Au 16.6875 24.8803 9.7466
Pt 13.871 34.3898 29.3843
Au 28.2068 30.2536 46.2801
Pt 23.3195 37.4893 35.1449
Pt 12.0924 25.4187 17.8756
Au 36.5803 34.007 38.7048
Au 12.0699 23.0823 45.707
Au 16.6295 31.3043 47.398
Pt 13.7162 33.9864 31.9979
Pt 20.6375 12.779 39.822
Pt 22.6095 20.375 34.0282
Pt 18.9268 19.0874 38.0541
Au 19.4637 19.1451 44.8995
Au 14.1442 36.9924 43.1916
Au 31.2174 16.9884 45.4254
Pt 13.2893 30.1871 37.3996
Pt 13.8169 16.6514 13.9102
Pt 12.5688 34.708 11.0982
Pt 9.97611 28.9253 30.7472
Au 6.36419 13.9376 29.3096
Au 3.00678 32.1618 20.3796
Pt 7.85778 28.3373 21.7871
Au 9.09446 11.7552 15.3208
Pt 15.3456 35.4405 12.4693
Au 15.1628 17.9125 7.78696
Pt 15.0695 29.2089 18.6089
Au 12.2289 35.8997 8.33351
Pt 22.7998 37.8151 27.8682
Au 31.2903 29.3645 17.4324
Au 8.66118 34.1946 39.8326
Au 12.7153 7.04125 36.0125
Au 9.61664 37.9797 37.4918
Pt 5.97156 30.3491 24.6746
Pt 5.75958 23.3498 34.3532
Au 11.004 28.3336 44.5356
Pt 7.06568 28.5357 30.4509
Au 29.4531 28.3406 28.201
Au 3.36316 27.4939 20.5485
Au 5.73085 36.0243 19.7503
Au 8.02822 24.5034 42.3145
Pt 12.2942 35.1756 33.8216
Pt 20.0482 30.2564 30.3647
Au 30.5448 15.1532 41.1165
Pt 20.4317 38.3 29.1307
Pt 15.6019 31.9513 33.0301
Au 10.1055 41.2652 30.0334
Pt 12.7394 21.9723 32.4668
Pt 20.1848 31.9551 41.5051
Au 22.3624 19.3267 45.0482
Au 15.6314 17.4937 41.7113
Au 7.0932 27.1154 42.3845
Pt 30.1171 35.4739 35.4324
Pt 15.3005 31.1959 7.74531
Pt 16.8692 11.1613 13.362
Pt 17.5179 37.7404 24.6118
Au 16.2839 4.4984 16.2746
Pt 19.238 29.3698 9.59639
Au 19.3639 20.944 9.44703
Pt 10.2112 27.0394 26.2036
Au 9.53013 40.3812 32.7851
Pt 5.69859 26.5147 21.927
Pt 13.0723 34.9538 13.7734
Pt 18.3984 33.6937 30.9059
Pt 26.4075 41.6473 19.8675
Pt 15.4065 35.0761 37.0863
Pt 7.83484 31.036 31.3304
Pt 9.00951 36.3716 16.9233
Au 10.8188 40.0902 15.1216
Au 27.2963 32.2375 21.3094
Au 8.42537 12.9239 34.6038
Pt 11.041 21.0615 25.3761
Au 11.655 42.6451 15.3876
Pt 9.85095 32.2837 27.2397
Pt 11.1371 16.92 33.7269
Pt 24.4579 43.4509 20.6428
Pt 15.7353 19.9536 42.9111
Pt 17.4623 36.8846 31.6105
Pt 14.5824 26.2697 27.6369
Pt 6.41762 24.8753 31.6146
Au 15.0247 44.1553 36.1543
Pt 10.1943 34.8701 27.5654
Pt 9.93297 17.2903 26.8794
Pt 21.0987 14.8848 8.58169
Pt 17.0085 39.4517 18.9164
Au 11.4997 29.1095 6.5456
Au 10.6941 36.1287 12.659
Au 6.53616 25.6713 10.6798
Au 37.9731 26.1777 12.0546
Pt 14.6656 34.4599 16.262
Au 5.28278 18.003 21.0357
Pt 10.5701 31.5748 31.0097
Au 3.06105 31.6734 17.6693
Pt 28.562 36.5131 23.297
Pt 25.091 42.851 17.8518
Pt 9.65593 36.0314 30.1526
Au 34.1059 28.9415 34.3496
Au 9.17345 17.7233 37.3693
Pt 21.4837 37.5932 37.3229
Au 5.23726 36.9105 22.2734
Pt 11.1204 18.8247 35.5633
Pt 12.548 28.6484 21.7399
Pt 18.9987 43.4171 33.8622
Pt 18.2291 33.9994 9.96572
Pt 11.7548 41.4167 24.9209
Pt 19.0572 34.5152 7.56828
Pt 17.1703 36.0546 26.8335
Pt 25.7008 34.6945 29.8098
Pt 20.767 8.98924 14.7723
Pt 18.8889 16.5759 24.5191
Au 9.15869 14.9474 41.786
Pt 10.1245 10.1247 24.6012
Pt 16.3023 7.3845 16.475
Pt 13.4309 8.95088 15.5709
Au 27.7036 1.08318 21.0508
Pt 10.1707 16.6468 29.4838
Au 6.00212 13.1447 26.0954
Pt 17.9109 21.1232 24.863
Pt 20.9721 16.4405 20.5078
Pt 14.4918 31.5644 28.3117
Pt 25.7161 13.7076 15.2998
Au 25.5463 13.8074 10.1721
Pt 27.2618 7.90827 23.5323
Pt 10.7021 14.5393 27.7715
Pt 19.9515 28.9906 35.6084
Pt 13.2399 19.1434 42.3242
Au 8.09244 11.5052 30.2273
Pt 20.9029 21.7414 15.8675
Pt 20.0444 7.06429 19.2281
Au 3.43725 27.8015 32.2078
Au 16.4193 13.6101 41.8065
Pt 14.3452 25.4009 24.9431
Pt 13.5701 11.345 17.0753
Pt 32.2751 13.7772 18.4611
Pt 23.6247 18.7953 13.1523
Pt 6.85217 15.5049 21.2616
Pt 17.4357 10.0276 27.2688
Pt 11.2934 15.3386 18.4072
Au 13.7911 20.2093 8.29799
Pt 19.5698 11.0149 21.3209
Au 20.5514 25.5785 12.0842
Pt 15.2396 9.27852 18.0379
Pt 16.2683 19.266 18.2259
Au 24.442 2.16714 31.0317
Pt 22.234 17.6566 10.8117
Au 36.5241 26.0014 46.5741
Pt 10.8813 24.9127 22.0799
Au 24.3824 26.733 17.7278
Pt 8.05009 20.376 30.8697
Pt 25.0425 12.0115 22.8682
Au 31.5183 29.769 34.8475
Au 30.1852 5.19363 38.1426
Au 26.3972 16.3548 30.6387
Au 30.7506 25.827 21.0548
Au 41.0211 13.4918 14.6777
Au 11.6344 14.2807 41.1216
Au 6.78177 11.3992 20.4798
Au 10.7973 12.2331 26.2106
Pt 16.8899 14.6221 24.4154
Pt 19.3892 26.1421 31.7043
Pt 11.4388 27.2319 35.8765
Pt 24.0767 7.06713 28.2911
Pt 4.79207 24.1588 29.407
Au 12.2366 10.6311 36.9513
Pt 16.2024 14.9613 13.1783
Pt 13.8836 27.2557 13.8928
Pt 15.5165 12.8666 11.7015
Pt 17.6825 11.5212 10.7186
Au 6.33471 24.073 12.9992
Au 8.03893 8.40148 25.0881
Pt 16.1618 26.325 23.1791
Au 14.7239 35.9479 7.0596
Pt 19.7918 18.2905 10.2406
Pt 9.09576 14.1176 29.9853
Au 8.87157 25.4951 9.30788
Pt 13.8521 17.9501 33.1454
Au 41.8672 13.0356 22.1032
Pt 25.0898 12.8888 20.3716
Au 26.1788 25.8327 8.30667
Au 35.5766 14.9219 36.6227
Pt 12.5726 12.9069 32.7992
Pt 19.0578 17.8079 21.9671
Pt 12.8023 7.26959 26.8822
Au 44.2144 36.7581 16.9941
Pt 5.07294 26.6873 30.2987
Au 29.8956 27.2643 35.5357
Au 29.9246 31.1907 18.7926
Au 6.13639 25.2376 40.3234
Pt 24.7785 7.03708 33.1277
Au 20.9657 25.9281 21.448
Au 24.1107 33.3497 15.0279
Au 9.65353 9.99177 32.5829
Au 17.6171 9.57512 35.46
Au 25.1056 21.5488 32.9866
Au 29.553 28.4005 48.1406
Pt 19.4235 13.9293 24.6416
Au 7.432 32.0028 40.6547
Pt 11.7703 23.6515 30.2531
Au 27.881 25.3423 10.6992
Pt 9.10069 24.1845 31.2036
Pt 25.9247 16.0802 25.1345
Pt 26.8898 18.1541 17.5953
Pt 19.3902 20.5848 27.2053
Pt 10.518 18.7739 23.4921
Pt 18.2667 23.4103 20.0797
Pt 15.3234 21.1953 33.0766
Pt 11.3351 24.3224 35.619
Pt 12.1947 27.296 9.65114
Pt 12.0279 36.5825 37.8597
Au 47.4796 28.8599 19.0614
Pt 11.0492 22.023 14.5426
Pt 11.6168 28.3302 33.093
Pt 21.0029 23.6013 19.9972
Pt 11.2896 16.7435 21.6267
Pt 8.32735 25.5559 21.662
Pt 15.4132 37.5959 17.5365
Au 15.0921 33.2421 5.86346
Au 32.2077 30.2426 21.9314
Au 39.6822 32.8526 8.91537
Au 38.6412 23.5568 8.49218
Au 26.2768 34.2502 13.6589
Au 34.8854 18.4761 30.3494
Pt 27.3519 4.70806 29.7926
Pt 20.082 9.29481 23.3733
Pt 8.24042 17.9622 21.8128
Pt 7.97614 19.146 26.4373
Au 26.8845 27.4302 42.0509
Au 46.0893 23.2633 14.4644
Pt 13.5916 30.1755 32.9549
Au 28.6384 16.1031 39.4162
Pt 30.132 18.7045 14.0414
Au 21.8343 26.2925 16.5032
Pt 15.0446 8.95287 23.6212
Pt 12.1211 25.2623 26.8718
Pt 13.6139 26.1424 22.1386
Au 30.5561 15.6059 30.9665
Pt 21.77 22.4763 31.8292
Pt 16.0356 30.6588 38.247
Pt 11.4911 19.5596 32.9681
Au 34.9681 22.8366 40.6023
Au 13.5108 8.39877 38.0191
Pt 17.0278 27.9254 43.8399
Au 25.5625 2.40929 33.7615
Pt 9.76502 18.8539 39.7036
Pt 9.90225 22.8743 37.4513
Au 13.2322 4.75339 25.6223
Pt 16.6434 23.8914 24.4378
Au 7.01944 28.3418 11.2614
Pt 15.7278 17.5181 12.4267
Au 11.5821 6.98238 16.0908
Au 2.47639 21.2153 27.9041
Au 26.2478 28.8087 17.0765
Au 40.297 24.7778 6.76834
Au 17.8028 8.97059 9.67739
Au 20.0464 8.54535 8.16888
Au 21.1725 28.806 4.56614
Au 38.4099 28.9342 12.9176
Pt 19.0042 35.9587 13.9023
Au 30.266 40.7056 14.8345
Au 17.8389 27.2773 10.9686
Pt 15.84 28.3089 6.85443
Pt 18.2234 32.906 33.7017
Pt 8.74163 27.8026 28.4369
Au 25.9977 13.1166 7.13907
Au 24.6535 18.9563 7.717
Au 24.8757 24.8222 10.4486
Au 26.1396 16.762 38.1407
Au 35.6712 39.723 11.3035
Au 34.4994 25.4651 5.89631
Au 24.6918 31.5546 20.7153
Au 29.978 30.6695 7.51795
Pt 11.8561 29.9874 35.1404
Pt 10.2047 25.4492 28.967
Au 13.8775 27.6963 44.6255
Au 45.3513 26.7174 37.6722
Pt 19.58 41.0644 28.9553
Au 24.8784 18.7693 31.3616
Au 5.98354 32.7181 32.7834
Au 36.034 25.807 40.7605
Pt 18.6738 17.9687 31.0861
Au 35.7726 30.1599 45.032
Au 28.4868 16.7978 45.3106
Au 36.5433 39.7435 37.4031
Pt 11.2939 22.8426 27.384
Pt 9.82408 27.2527 38.1267
Au 39.3811 18.1392 35.0688
Au 32.5553 42.4121 38.9272
Pt 18.0129 24.8302 29.7671
Pt 13.5474 19.0128 17.2779
Pt 7.42619 33.0073 16.0565
Au 8.82953 9.77611 20.1284
Pt 14.0798 41.654 16.0552
Au 29.0075 29.3443 13.9232
Au 5.86908 18.4302 17.378
Au 33.3495 23.2446 7.64187
Pt 21.7242 18.3643 22.4066
Au 19.8779 28.4236 23.6652
Au 26.5736 18.3014 12.4703
Au 17.0061 31.7027 20.5704
Pt 18.7836 19.6376 17.5024
Pt 16.6725 26.462 31.8321
Pt 8.62223 31.8266 13.8414
Au 30.0413 43.9189 11.1156
Au 37.6078 21.2934 32.233
Pt 10.8164 36.494 35.5427
Au 38.6745 26.2463 8.94938
Au 28.9559 23.0391 38.2289
Au 21.303 33.7054 9.78989
Au 28.2316 17.9393 28.8402
Pt 10.0817 14.8604 37.8417
Au 23.089 33.6811 19.3976
Au 28.8282 23.2337 43.1941
Au 24.5322 18.7303 39.2814
Pt 20.5951 33.1135 29.5325
Au 23.4267 23.5832 28.9745
Au 26.6282 28.2769 1.06253
Pt 12.7163 30.2797 16.4781
Pt 16.304 37.4526 36.3057
Au 25.4116 30.7949 35.3944
Pt 17.0738 38.0298 38.858
Au 36.7642 28.1586 42.8095
Au 4.14329 18.1491 32.1123
Au 36.0805 22.6425 43.2838
Au 9.02747 26.4131 44.275
Au 30.3073 30.801 44.3305
Pt 20.9541 22.4955 41.0157
Pt 22.7764 17.0684 37.7816
Au 29.9358 21.4335 45.1324
Pt 21.066 18.1477 42.7178
Pt 18.5066 22.1699 40.2742
Pt 8.78888 25.7961 24.1868
Pt 14.7266 24.6655 14.3739
Pt 32.5476 9.43661 15.3794
Au 25.8033 45.3246 13.294
Pt 12.4751 24.3943 13.1908
Au 8.39472 14.8044 14.8368
Au 22.149 26.8873 13.8595
Pt 10.408 23.6629 16.5501
Pt 18.206 38.2285 22.0268
Au 38.7054 20.7996 34.8319
Pt 15.3523 41.3869 20.4588
Au 8.39434 29.8659 9.30632
Pt 10.7186 14.2817 34.2087
Pt 10.2278 32.6547 15.8181
Pt 15.2442 18.2751 15.3766
Pt 19.9355 36.2028 35.5215
Au 32.4436 24.1055 16.7307
Au 23.7632 22.3369 11.1006
Au 30.329 18.7535 3.81579
Au 23.8069 26.0936 25.1601
Au 22.952 27.1489 11.1588
Au 28.6118 32.7929 44.9135
Pt 17.8853 28.5405 30.3984
Pt 14.8077 38.3921 23.9711
Au 32.6469 24.0098 47.3294
Pt 27.0761 37.5652 25.1764
Au 34.1263 32.1186 4.7268
Au 6.32118 35.3017 17.0079
Au 33.5011 21.9119 35.7675
Au 43.6374 21.914 35.0918
Au 25.0808 26.479 36.8331
Pt 20.8462 44.9435 28.5615
Au 29.0142 31.1803 41.6579
Au 25.7012 34.9463 46.2975
Au 40.8463 26.969 40.3845
Pt 13.8825 28.9406 28.2576
Pt 17.0046 14.5544 37.6101
Au 31.5566 49.0676 28.9569
Pt 11.8472 26.1814 24.1981
Au 35.6081 11.7306 37.1237
Pt 25.0011 39.3444 34.1991
Pt 11.292 26.3395 31.3728
Au 7.68086 17.4569 15.2068
Pt 17.1866 39.8846 12.0051
Au 19.8268 22.4726 6.87908
Pt 34.5805 43.4246 16.7943
Au 7.22485 37.3959 32.6864
Au 3.83429 36.0671 26.5069
Au 12.1161 18.0029 8.91971
Au 5.03324 25.2782 15.3473
Pt 7.16782 20.8376 28.3336
Au 9.90828 27.7153 8.0929
Pt 8.27739 28.5517 17.3706
Au 4.50187 34.291 21.444
Au 4.63456 21.557 36.3754
Pt 13.4932 39.1386 16.0415
Au 28.5026 32.5144 26.084
Pt 14.3894 28.53 11.4199
Pt 6.97885 23.437 27.4979
Au 4.23891 32.4253 25.5079
Au 8.42019 40.1322 28.2281
Au 12.2787 20.3889 10.6895
Pt 9.21915 38.2774 19.1553
Au 16.7172 23.0521 46.8335
Au 5.57561 37.3444 24.9137
Au 25.9972 27.5938 19.761
Au 41.1771 28.8022 13.051
Au 29.3162 26.7204 40.3306
Pt 17.8416 17.2261 33.4593
Au 31.9879 18.8016 21.6048
Pt 17.9007 39.3947 27.7608
Au 4.53527 16.4921 29.8577
Au 19.1249 22.1707 45.3153
Au 34.3131 40.2496 39.2986
Pt 16.8484 24.0953 39.255
Au 22.5452 42.6678 42.1211
Pt 26.2753 44.9669 22.0634
Pt 13.5496 21.8075 41.3711
Pt 16.1088 21.8411 41.1092
Pt 18.5638 42.2323 24.0495
Pt 15.2955 15.2061 39.7227
Pt 22.3711 10.5785 31.0068
Au 26.9581 25.527 32.3584
Pt 29.1235 41.2363 39.3955
Au 13.1872 26.953 6.92174
Au 15.4126 45.7894 30.8616
Pt 13.0121 38.5109 21.9187
Au 4.10846 24.9417 20.105
Pt 18.7504 45.0196 26.778
Au 6.46281 21.2964 17.8048
Au 27.646 48.518 26.8019
Au 6.89227 36.8368 30.0671
Pt 18.0943 44.8148 23.7191
Au 7.17656 41.3836 21.3834
Au 6.35686 33.1791 29.932
Pt 11.2512 26.9065 12.7672
Au 22.4974 18.5502 6.044
Au 16.3586 38.3681 7.43664
Au 15.0832 22.646 9.04873
Au 43.8754 21.8345 13.8488
Pt 14.2687 39.8463 18.5375
Au 2.71889 25.5098 30.5734
Au 5.26521 29.3328 22.0188
Pt 8.00727 36.916 21.7487
Pt 6.39249 25.0738 36.2371
Pt 17.8001 40.7123 37.849
Au 9.34872 32.9716 42.3256
Pt 14.3749 37.5177 38.5369
Au 7.12415 19.9425 20.1036
Pt 15.3647 34.0169 27.2803
Au 9.92661 37.2966 32.8228
Au 21.7232 33.4913 26.9031
Au 17.2745 44.3068 37.9504
Pt 28.7767 36.5539 33.4195
Pt 9.36513 28.5722 35.2335
Pt 20.9841 26.0276 38.6983
Pt 15.4797 36.8663 33.6378
Pt 20.6211 29.5155 40.9534
Pt 17.4049 26.9641 28.0154
Au 21.7281 46.8414 32.2097
Pt 9.83962 24.5817 19.3672
Au 15.4716 44.3303 33.4416
Pt 30.473 38.4333 18.8758
Pt 19.2957 32.1181 11.4424
Pt 9.99271 41.9047 26.8144
Pt 8.65266 27.0299 19.4932
Pt 9.92689 34.7664 21.1592
Au 30.3364 29.38 10.0365
Pt 15.1259 33.0515 13.8664
Au 8.76994 34.7833 14.5838
Pt 21.4002 38.1952 17.8672
Pt 7.13501 30.3431 15.5094
Pt 12.5865 29.079 19.1255
Au 10.0498 36.4265 39.7047
Pt 17.2326 40.0076 35.3425
Au 16.3994 44.5731 28.2779
Pt 15.4894 37.2709 40.9662
Au 7.14099 30.5645 34.2531
Au 5.7349 27.9068 39.9894
Au 15.0717 45.896 14.4646
Au 20.4913 47.2453 29.8047
Au 16.0838 26.7247 46.1406
Pt 22.0578 25.0618 41.2117
Au 25.7529 32.4988 44.9603
Pt 24.2654 36.0447 31.687
Pt 15.1117 23.7508 11.7463
Au 14.2453 10.6254 39.115
Au 7.34445 22.6507 40.2328
Au 15.1003 34.7434 44.507
Au 15.7792 47.0857 28.3672
Pt 8.95587 33.1817 29.7076
Pt 18.8966 42.0213 13.2467
Pt 18.0336 35.7985 37.608
Au 28.3894 34.7233 11.7923
Pt 17.8646 30.8802 31.9135
Pt 30.2466 38.3293 36.1443
Pt 12.1422 38.7754 24.4145
Pt 23.106 46.0087 25.2262
Au 17.3105 42.5454 40.0757
Au 13.8607 4.49816 17.402
Pt 26.0155 6.9616 30.6162
Pt 33.6884 7.52786 23.3271
Au 23.3833 4.46093 17.5707
Au 16.976 6.03134 14.1907
Pt 12.2259 19.2299 21.6316
Au 14.1432 6.07268 15.1224
Au 26.7253 2.4612 18.924
Pt 36.7819 14.9665 34.0416
Pt 8.11859 15.6338 27.9752
Pt 28.3146 7.66984 29.2426
Pt 21.5787 17.2572 25.2265
Pt 8.43414 18.4857 29.0259
Pt 15.6229 11.4603 21.9563
Pt 25.3239 16.411 33.2578
Pt 19.3945 6.68021 23.3611
Au 17.3697 6.08166 33.6501
Au 4.96201 15.778 19.36
Pt 19.897 13.5829 37.2984
Pt 14.6273 13.0434 23.9683
Pt 7.29088 17.2606 19.28
Pt 13.0958 13.0202 12.6975
Pt 28.7005 5.69165 22.7602
Pt 22.9341 21.7976 23.0257
Pt 27.7026 9.91902 34.7887
Pt 35.919 5.17651 26.2916
Pt 21.534 21.5525 29.2809
Pt 12.5176 14.0796 25.3501
Pt 10.9689 20.4659 37.6471
Au 16.1285 3.64018 18.855
Pt 23.5417 14.5679 37.3215
Pt 23.151 11.6595 24.681
Pt 23.2532 9.6014 15.6918
Au 9.12407 6.94266 22.934
Pt 17.5868 13.3413 15.1325
Au 6.49996 14.8245 34.7157
Pt 17.9984 5.58618 18.0298
Pt 25.1232 8.67262 35.3697
Pt 16.9081 14.5515 17.8015
Au 23.1576 2.44456 22.8061
Pt 12.0972 13.2885 30.2662
Au 45.4091 12.7691 27.7485
Pt 17.6612 17.3846 14.285
Au 33.3285 24.3573 21.7474
Au 26.8547 27.734 14.7055
Pt 15.3155 21.8964 23.3944
Pt 10.6686 11.1635 17.4586
Pt 14.0827 27.2685 32.1334
Au 30.7473 23.2668 21.8204
Au 23.7187 26.1476 20.6587
Au 41.4365 23.0854 14.5638
Au 30.5673 24.145 45.4194
Au 8.74093 32.5678 9.67012
Au 6.92805 13.7235 19.013
Au 18.8526 28.103 2.95229
Au 22.0451 28.5573 28.5411
Pt 17.6577 21.7782 37.7846
Pt 11.9713 13.5313 36.4767
Au 35.2599 15.6349 39.4518
Pt 16.2644 19.4359 37.6172
Au 32.3308 26.1021 44.6375
Au 43.4424 11.3625 26.1619
Au 22.0848 22.4301 45.2616
Au 30.8093 1.43143 24.4003
Pt 27.5104 12.4258 35.6596
Pt 15.0436 28.2696 42.0621
Pt 26.7233 14.2917 39.5965
Pt 22.2991 11.8756 37.946
Au 16.1345 8.32746 37.5089
Pt 19.7238 22.3634 36.1222
Au 5.28301 23.453 38.3851
Pt 28.2603 14.9986 29.0915
Au 18.5967 3.40899 20.1849
Pt 21.6067 14.2046 17.5003
Pt 9.87567 18.0233 19.67
Au 14.4169 6.51046 21.7833
Au 32.904 6.99588 13.6885
Au 19.5696 6.43829 31.2179
Pt 12.1586 22.7581 18.4471
Pt 8.48907 31.2895 17.7897
Au 15.2754 19.5766 5.75237
Pt 14.6306 30.3474 21.0583
Au 23.13 37.711 8.17662
Pt 11.0419 38.1848 17.0513
Pt 8.41543 17.4738 24.5557
Pt 28.6595 2.7253 23.1264
Au 42.2688 34.8904 12.5633
Pt 16.7047 15.6833 20.1262
Au 26.0186 25.691 12.8536
Au 26.571 23.1437 12.0069
Au 24.9938 28.3029 40.2429
Au 23.4133 26.5095 8.39134
Au 31.9413 14.9783 33.3101
Au 33.1156 25.2791 12.3191
Au 22.8653 31.3237 5.26202
Pt 12.7019 8.58903 29.2147
Pt 24.5949 10.2889 20.8999
Pt 21.4572 8.15049 32.4564
Pt 29.3908 8.19784 12.62
Pt 36.0269 8.90068 23.0915
Au 38.9696 23.3646 43.4919
Au 36.8114 27.6358 16.603
Pt 13.3526 10.2885 33.2849
Pt 6.61749 15.8201 25.8441
Pt 18.568 11.1875 33.3669
Au 42.1626 18.0179 35.5371
Au 25.1325 34.9161 3.90049
Au 36.3056 31.39 20.2124
Au 41.335 20.4135 34.3452
Pt 29.3111 5.36631 28.0777
Au 26.2686 12.4708 43.7247
Au 27.8101 21.1952 1.93344
Pt 22.785 9.58673 22.9759
Au 24.5759 28.2152 49.3725
Pt 17.6273 36.0302 11.3688
Pt 14.7338 25.3096 17.0798
Au 24.6554 16.5329 6.02158
Pt 18.5765 17.3389 19.1645
Au 19.0055 23.4921 4.41726
Au 27.8611 28.1069 23.7318
Pt 22.6541 21.8592 18.0742
Pt 11.6909 30.7154 28.7491
Pt 8.1075 28.467 32.8948
Au 18.3741 27.276 21.753
Pt 11.65 20.1214 19.2326
Pt 10.2213 40.9666 19.7487
Pt 8.74041 21.7 16.0414
Au 19.8212 35.2723 5.04919
Au 29.4239 20.3034 32.5756
Au 30.3856 26.5596 9.83201
Au 33.7944 18.0016 8.44643
Au 21.7372 32.5627 12.6903
Pt 10.6444 13.46 14.0636
Au 31.2407 25.772 14.4687
Au 29.7196 21.5263 17.4437
Au 31.7213 18.0506 11.8915
Au 30.0568 15.0677 10.6929
Au 20.4375 27.4747 26.3806
Pt 20.1535 8.85355 35.009
Pt 24.8101 13.727 24.9252
Pt 23.6813 15.6054 31.3408
Au 18.8702 48.0985 15.9721
Au 14.493 19.2816 45.3489
Au 40.3506 23.9755 40.9249
Au 22.7599 32.8764 22.3137
Au 20.3902 24.2794 14.4957
Pt 7.42846 16.4023 30.4676
Pt 25.3961 11.3363 34.3003
Pt 13.6902 24.592 31.873
Pt 9.82969 27.8641 42.0545
Pt 22.302 21.9586 36.503
Pt 26.0955 4.93304 34.5478