3871
Atoms. Timestep: 21171
Au 23.0144 8.27957 8.09891
Pt 22.0841 8.38915 28.5591
Pt 30.5273 18.5686 17.3894
Pt 29.111 17.3435 30.4337
Pt 9.17812 30.4778 31.706
Pt 29.3471 33.3242 23.342
Au 14.1491 44.4952 25.1128
Pt 36.6113 19.8197 18.8863
Pt 18.1589 14.4321 40.1539
Pt 15.2305 23.3581 37.1163
Au 11.6721 38.0646 39.7369
Pt 19.6159 40.2066 15.7142
Au 37.5541 38.6762 15.8696
Pt 12.2323 22.9506 32.722
Pt 10.4143 31.6603 20.0733
Pt 24.4017 21.3002 26.4961
Pt 26.6746 38.0116 18.0642
Au 31.5335 8.68736 42.0336
Pt 11.3362 28.8663 34.627
Au 8.793 24.5243 43.1703
Pt 7.89022 30.8547 20.6989
Au 9.19207 42.4821 26.4634
Pt 32.5779 13.4515 18.0145
Au 15.9293 30.4848 46.3342
Pt 23.9183 21.7838 23.0036
Au 5.05299 28.5384 15.3001
Pt 28.0692 41.1783 22.0882
Pt 17.0552 9.85973 31.99
Pt 22.2638 23.7863 29.8244
Pt 17.5182 25.6676 36.8889
Pt 37.2096 10.7819 27.76
Au 10.7977 32.8272 8.43113
Pt 7.76439 19.5344 22.9328
Pt 11.3161 13.6694 25.0246
Pt 25.5055 6.60111 24.5301
Au 29.459 23.3839 -0.515019
Pt 28.7289 6.64517 15.8215
Au 36.0343 31.6912 43.136
Pt 23.7803 9.56633 30.2843
Au 11.4198 32.4723 43.1207
Pt 22.8813 30.7766 39.701
Pt 27.3336 44.2421 22.5045
Pt 6.83851 23.4942 30.8234
Au 4.12026 16.9995 27.4128
Pt 19.5566 26.1392 9.23688
Pt 17.1786 20.0028 35.5749
Pt 26.8204 14.2957 27.5774
Au 8.16997 23.0165 9.82011
Pt 13.9316 23.7077 28.135
Au 27.851 18.4189 2.01383
Pt 23.5543 38.1352 24.0959
Pt 31.1159 38.5821 38.0268
Pt 16.7518 28.9883 33.4511
Au 4.44135 26.2645 13.9089
Pt 26.6405 28.2952 15.1766
Pt 36.5297 17.897 21.2527
Pt 30.8683 21.3038 26.4702
Au 23.5807 14.6475 9.72591
Au 29.4538 12.4125 3.92742
Pt 12.9167 15.2644 16.8417
Au 4.55775 22.7614 29.5306
Pt 24.3038 29.7566 41.8925
Pt 11.1699 34.2358 37.7528
Pt 19.7693 23.7089 20.0078
Pt 16.8574 30.2804 20.2932
Pt 7.06309 21.0396 16.5272
Pt 27.7182 24.7199 28.6641
Au 4.79036 18.4683 33.4966
Au 18.4296 42.4868 41.2329
Pt 5.80621 26.5803 23.7806
Au 35.6958 12.0691 43.3724
Pt 30.66 23.3546 28.332
Pt 6.96723 26.1798 26.1831
Pt 29.8698 11.8272 27.8206
Au 4.3478 22.1577 25.0883
Au 3.13505 27.5166 30.6831
Au 9.57069 13.3972 29.837
Pt 16.6768 27.9379 26.8401
Pt 26.2719 14.0284 21.1037
Au 21.598 17.4909 41.4765
Au 11.3469 30.3825 9.53795
Pt 13.5029 22.1967 18.1532
Au 20.9791 18.5394 18.9893
Pt 10.8856 19.2623 27.0538
Pt 11.6317 33.4245 13.0408
Pt 14.8791 14.5601 22.2074
Pt 25.8677 35.652 17.157
Au 23.4503 38.66 8.64255
Pt 20.9737 7.05533 19.5698
Au 7.24191 32.922 14.9953
Pt 24.8791 17.6779 36.7029
Pt 16.8726 20.7341 30.7965
Pt 10.2693 15.4663 23.3988
Pt 12.4022 28.0399 9.89414
Au 13.2742 8.10333 23.3677
Pt 17.4559 37.8591 18.4769
Pt 19.3706 33.5937 23.4197
Pt 13.0543 29.8935 23.9257
Pt 19.7616 37.3518 37.412
Pt 17.2898 17.7251 21.7358
Pt 11.3272 26.9694 32.8107
Au 39.4255 22.5899 37.584
Pt 12.5148 28.9993 38.9236
Pt 22.5479 26.6985 42.7834
Pt 31.9374 17.7485 32.6805
Pt 24.5522 18.6731 34.195
Pt 27.2395 25.7303 35.7244
Pt 39.1607 12.7843 27.1924
Au 27.7656 15.4985 44.5681
Pt 16.6456 8.67126 18.9939
Au 11.4041 25.1665 44.3401
Pt 32.525 20.2464 18.2715
Au 30.9189 25.0892 11.5984
Au 20.9415 29.3916 48.5868
Pt 14.044 15.7681 37.124
Pt 15.3742 33.5846 17.359
Pt 32.2912 11.9846 34.0409
Pt 34.0869 13.5252 29.6346
Pt 18.2043 42.2956 19.9932
Au 5.07773 36.3518 29.4388
Au 23.2499 33.8211 10.6247
Pt 26.7944 24.2443 37.9457
Pt 21.8418 19.3661 10.3862
Pt 18.5251 26.789 28.683
Pt 11.9129 20.049 17.1047
Pt 28.797 29.799 29.3036
Au 25.9361 23.7115 6.45729
Au 9.76731 39.5942 37.6248
Au 31.6729 7.09717 39.9255
Pt 14.179 16.9536 21.3691
Pt 26.2539 13.9996 14.5937
Pt 27.1075 29.1655 27.0818
Pt 37.3131 40.9436 30.9943
Pt 26.0453 4.48987 28.7766
Pt 13.7966 19.8097 19.3551
Pt 20.2193 27.5993 46.5983
Pt 33.7148 17.2523 21.5818
Pt 19.2875 12.1401 29.0081
Pt 11.6322 14.9733 36.3534
Pt 14.4076 24.75 30.6764
Au 27.8089 47.0608 16.2527
Pt 12.9148 36.2613 38.0924
Pt 14.5263 39.0881 30.6255
Pt 18.4957 9.69202 29.4841
Au 11.2363 38.326 14.9379
Au 12.2901 12.3293 40.229
Pt 8.13964 16.2557 33.8358
Pt 23.4157 29.7749 21.5754
Pt 19.3095 12.7781 36.0284
Au 25.3655 16.9223 44.1348
Au 9.74689 27.0537 43.0664
Pt 11.7907 20.2715 31.5151
Au 26.5643 1.46116 20.1562
Pt 21.2215 25.0762 18.2678
Pt 9.02221 24.0343 24.8148
Pt 13.7898 33.2603 41.8295
Pt 25.5503 36.6609 9.88028
Pt 17.3796 17.7134 33.9795
Pt 14.0351 30.74 9.24316
Pt 19.4569 22.5896 22.5341
Pt 25.0724 12.8844 16.8165
Pt 17.5729 25.4211 41.6206
Pt 17.0115 31.5285 13.4493
Au 24.4993 21.3636 3.86696
Au 23.0226 45.2407 40.4549
Pt 17.7429 12.9439 25.0783
Pt 9.62696 33.107 35.8189
Au 8.31541 16.1357 30.8294
Pt 16.7588 30.4201 30.7439
Pt 24.4424 16.4148 14.6576
Au 38.0464 5.61367 32.4062
Pt 23.9569 7.85478 20.6082
Pt 15.1135 41.0454 26.0164
Pt 20.0794 41.2335 26.0844
Au 32.0871 28.4084 45.8072
Au 37.2149 10.2721 13.8595
Au 11.2289 40.7054 39.6349
Pt 22.8911 12.299 25.67
Pt 27.6434 7.92557 17.9001
Au 10.0669 11.5043 13.4025
Pt 12.3274 14.4702 21.4325
Au 31.9677 20.4197 44.9161
Pt 8.46874 34.88 37.6544
Pt 12.8277 17.0596 28.0563
Pt 10.7705 36.179 16.5967
Pt 24.1278 23.9267 37.6916
Pt 12.7591 33.4889 26.6212
Pt 19.0898 9.04975 19.7667
Au 16.3304 43.7215 14.8576
Pt 6.69207 27.0464 30.4267
Au 20.8534 10.7445 12.1918
Pt 14.5175 19.5185 30.9638
Pt 34.7281 36.3262 28.6576
Pt 26.9983 39.1535 40.3427
Pt 22.1701 17.5039 16.1785
Au 18.6583 23.0423 46.231
Pt 36.0015 22.5032 27.4889
Pt 14.3961 32.1934 12.7897
Pt 24.5652 22.7672 13.7422
Pt 13.102 32.1408 19.8076
Pt 13.4596 12.626 23.6151
Pt 34.521 12.2272 25.0881
Pt 25.4062 32.0507 17.502
Pt 8.46401 22.7151 29.0031
Pt 21.5576 22.6589 24.1514
Pt 35.1726 33.1631 16.5428
Pt 30.5344 14.1818 16.2888
Pt 6.54843 30.5134 23.1043
Au 31.7825 5.85801 13.6236
Au 28.2522 23.9954 40.1775
Au 33.0008 19.8935 1.47248
Pt 7.33754 25.7566 18.5609
Pt 30.9784 31.4622 24.8805
Au 9.19966 25.6232 9.37859
Au 11.3868 25.7907 11.1969
Pt 19.4219 41.7642 13.5575
Pt 6.4194 31.1668 28.3544
Pt 26.3351 42.1151 33.4167
Au 28.6457 25.9964 49.4519
Pt 34.0441 33.6431 25.499
Pt 27.3629 33.5423 16.1483
Pt 17.6172 41.1866 24.5129
Pt 17.3098 21.76 37.7039
Pt 21.4719 22.3021 41.4621
Pt 14.8082 29.4086 13.7942
Pt 14.3937 13.4505 15.2468
Pt 18.315 11.1095 34.0851
Au 20.3609 27.8166 3.74848
Au 38.9658 26.7692 35.5996
Pt 12.7144 18.4472 14.7765
Pt 9.14331 32.2442 17.2486
Au 27.2675 49.5145 26.4366
Pt 22.3528 17.9183 35.9355
Pt 21.4469 35.0247 37.6252
Au 12.7583 43.1728 20.4729
Pt 5.00946 27.3434 32.6389
Au 26.9346 7.04055 39.626
Pt 17.6756 30.0683 17.6246
Au 3.15026 27.3127 23.2009
Au 4.16809 20.8863 34.551
Pt 14.815 22.1625 11.3699
Pt 18.5418 19.3533 38.0276
Au 19.5793 46.529 28.6724
Pt 13.3779 41.2515 31.6378
Pt 15.258 15.9298 17.8697
Pt 9.90452 34.1091 33.3621
Pt 24.6072 25.6893 14.4008
Au 20.6526 6.51873 15.0055
Pt 10.4965 31.1628 12.0106
Pt 17.1059 38.1457 31.1702
Pt 24.2362 42.4364 13.8737
Pt 17.8891 24.9846 14.8527
Au 12.9961 33.2331 45.4269
Pt 15.4621 22.2495 34.6066
Pt 25.1577 36.6607 34.1247
Au 8.00779 14.9969 28.2455
Pt 13.1314 27.2312 31.0021
Au 20.612 37.715 46.7579
Pt 37.5022 39.551 33.2832
Pt 14.9618 28.6567 10.7059
Pt 32.0381 10.9263 18.6561
Pt 23.8435 15.7175 12.3052
Pt 8.7799 31.9815 29.082
Pt 20.4159 8.24433 30.8206
Pt 14.7178 28.9281 40.918
Au 38.8612 17.903 36.5106
Pt 13.8795 27.1759 15.3379
Au 38.2894 36.6863 23.089
Pt 21.0676 19.4029 37.7169
Pt 7.41189 16.7049 19.4511
Au 5.80717 38.9253 34.1883
Pt 15.5702 31.5608 32.7564
Pt 23.5757 20.4287 12.4365
Au 12.0721 10.1137 17.4485
Pt 7.57709 32.8374 22.5921
Pt 25.8871 9.54492 28.357
Pt 21.8726 12.5271 33.1699
Pt 30.7327 21.4678 12.0706
Au 7.29123 12.2767 28.6053
Au 3.99823 30.3032 27.3468
Pt 10.249 23.3652 34.8711
Pt 14.8889 27.6532 24.5917
Pt 19.6304 30.7325 30.8493
Pt 21.3547 27.7595 21.251
Au 45.5042 18.8313 23.8245
Pt 21.7147 21.4305 31.02
Au 33.718 22.2398 11.4164
Pt 18.8283 24.3313 33.0163
Pt 19.0498 34.1365 14.503
Au 41.0191 35.7226 24.4131
Au 37.0589 12.0774 34.0295
Au 46.4558 28.2257 33.6317
Pt 20.847 6.56518 32.8457
Pt 25.6682 38.1436 15.0986
Pt 21.9916 8.25303 34.3685
Au 34.4212 9.22936 37.0931
Pt 28.2664 33.8512 12.2935
Au 42.3326 30.7885 18.328
Pt 17.8714 21.4234 28.2893
Au 15.4032 40.8155 37.0514
Au 25.6015 22.9499 44.546
Pt 20.8195 25.2238 22.0521
Au 4.72579 32.4687 22.5055
Au 25.9506 13.8794 2.51373
Au 21.1762 19.8072 14.8048
Au 8.0849 22.8624 32.9979
Au 22.4935 30.4862 14.3924
Pt 24.5104 43.0613 25.9296
Pt 25.8319 11.7592 26.3604
Au 41.3509 13.6625 23.6524
Pt 25.2657 16.997 20.9101
Au 12.3924 34.8778 9.52458
Pt 22.6504 30.8972 27.5833
Pt 26.8704 32.6886 37.2499
Au 9.57773 10.2422 19.0298
Pt 25.3132 37.2357 12.5016
Au 15.3037 41.9774 34.5858
Pt 11.5758 23.1781 24.873
Au 33.3926 14.6914 9.38752
Au 39.1516 29.4333 3.57648
Pt 16.0703 25.5365 28.5778
Au 17.3219 4.39958 24.3674
Au 26.4395 24.1459 9.37931
Au 28.8179 38.6255 44.2828
Pt 7.15639 25.3571 13.5193
Pt 15.9031 26.4228 12.049
Pt 25.3466 26.619 37.5043
Au 35.9189 32.4952 23.9611
Pt 10.8979 42.0664 30.7012
Pt 28.465 9.30115 29.2598
Au 47.7112 23.9866 16.575
Au 19.3579 8.77374 33.2628
Pt 25.8403 34.8858 35.9955
Pt 20.7704 37.282 12.0671
Au 19.3179 36.0524 45.0059
Pt 13.1549 37.1698 35.4642
Pt 24.6048 33.5523 15.4015
Pt 9.14187 15.0575 25.7869
Au 31.3298 10.5748 43.9613
Pt 25.9835 20.4029 13.8324
Au 5.90242 16.2795 29.4049
Au 37.0311 27.2721 7.84205
Au 23.8313 31.7699 1.74657
Pt 25.4774 24.9788 12.0076
Pt 29.3569 40.3753 19.6912
Pt 19.8157 18.4003 21.537
Au 43.7789 27.684 24.8808
Au 35.5782 23.6709 16.9414
Au 33.3084 33.3201 1.40895
Au 11.9476 19.0226 8.41415
Au 32.9821 18.7659 4.01117
Au 45.7707 33.1098 35.4471
Au 13.1055 19.203 43.0771
Pt 17.653 42.4468 33.1878
Au 25.6093 35.592 47.3693
Pt 32.9281 9.77852 20.9644
Au 4.97827 23.236 32.8154
Pt 15.6078 13.5347 39.9627
Au 40.2989 31.93 11.8365
Au 9.59961 41.4111 35.2281
Pt 7.02189 21.5754 24.5393
Au 42.8812 19.9301 39.5725
Au 31.3327 19.7479 35.7553
Au 29 35.6799 4.67107
Pt 7.09853 28.3141 19.7167
Pt 33.2297 22.9369 18.3693
Au 21.5252 48.0308 32.9556
Pt 15.8856 9.23334 16.5511
Au 4.75345 26.6171 28.4944
Pt 20.3619 25.6173 27.0559
Pt 7.47884 18.3088 32.3366
Au 42.9343 15.5608 27.705
Au 24.6355 8.14236 40.5776
Pt 35.353 25.0234 32.094
Pt 11.2607 19.3652 19.8129
Pt 26.2809 36.6391 40.1682
Pt 15.1741 31.0388 18.1991
Au 14.0062 11.6878 30.0368
Au 13.0301 6.75929 21.0561
Au 34.5737 25.2535 1.09536
Pt 8.20044 18.7335 29.7605
Au 31.3875 43.2075 14.3732
Pt 13.9128 37.5677 28.6213
Au 38.8478 17.5159 39.4637
Au 12.1677 9.41391 36.4185
Au 41.0563 29.5246 27.5783
Pt 12.8674 28.0838 42.7535
Pt 9.27846 14.0566 32.447
Au 38.1325 13.6209 17.4961
Pt 13.2533 37.5587 41.948
Au 23.0541 2.11015 31.0695
Pt 24.2791 2.95048 26.8048
Au 45.2658 21.8665 22.6641
Au 19.5678 4.07083 28.2898
Au 19.0015 20.859 1.33661
Pt 17.8287 32.2137 28.7956
Au 37.7667 19.6995 6.47565
Pt 14.2113 26.2262 9.89145
Au 13.0625 8.0584 30.6797
Pt 32.2048 23.8259 26.1807
Au 25.5195 31.2682 8.48963
Au 27.8544 15.9375 3.21031
Pt 31.2722 11.4038 41.231
Au 35.0985 40.2857 40.6707
Au 39.1367 18.7298 8.77569
Pt 7.92264 24.6649 38.9457
Pt 21.754 16.6675 31.277
Pt 26.8176 17.13 34.3072
Pt 28.8009 42.6595 34.5133
Au 6.82838 17.3381 37.4425
Au 9.50559 21.3287 11.5949
Pt 20.3489 40.4079 41.6576
Au 20.2903 10.8849 38.062
Pt 25.5984 23.0928 40.0682
Pt 6.15107 18.6673 28.0481
Pt 11.0671 33.5859 15.8017
Pt 12.9307 18.1954 23.628
Au 2.91084 20.9365 18.2705
Pt 24.0273 32.4397 12.9098
Pt 30.9514 8.09488 25.3867
Pt 21.9374 45.1238 28.3183
Au 43.6481 13.802 35.7796
Pt 9.44862 26.9744 34.8699
Au 4.72627 19.4495 16.4888
Pt 33.2111 24.5908 23.5954
Au 48.4527 24.9384 24.087
Pt 23.2967 36.0961 39.734
Au 41.1897 18.0954 37.8943
Au 26.5146 29.4543 10.4732
Au 40.4206 33.2899 37.4739
Pt 14.9323 26.8861 20.9587
Au 40.7022 23.6883 32.6808
Pt 19.0398 32.7119 12.2625
Au 35.832 43.5116 17.4231
Pt 14.8961 25.5859 26.27
Au 42.4976 20.5782 30.587
Au 38.1071 38.3478 41.9022
Pt 23.5876 34.2029 17.8924
Au 34.4185 27.1776 9.02213
Au 43.5916 31.8407 34.4476
Au 40.7887 36.3382 11.883
Au 35.478 30.9582 40.4418
Au 43.8567 17.1386 25.6368
Au 31.4744 42.1768 19.4291
Au 44.0443 29.286 27.1287
Pt 21.812 22.2152 37.2846
Au 39.8098 38.0484 39.9392
Pt 16.4861 27.15 40.0136
Au 36.2792 34.7909 26.8437
Pt 6.48432 20.6538 33.0589
Au 32.0586 16.3355 7.37933
Au 17.5121 18.7627 43.7887
Au 8.66351 12.7813 15.4261
Au 13.7706 28.6574 46.4259
Pt 27.4018 9.71454 40.0395
Pt 7.23785 23.129 26.6695
Pt 21.1842 24.1366 39.3453
Pt 13.3186 13.1781 37.9629
Pt 22.3784 14.6424 26.7567
Pt 32.8992 42.9173 30.8268
Pt 13.3613 30.652 42.4672
Au 15.6417 45.8298 27.2507
Pt 22.2895 37.8786 38.0408
Au 26.3718 4.81217 33.7369
Pt 14.578 22.1942 20.6467
Au 36.694 34.1153 5.092
Au 35.8761 28.452 15.5142
Au 39.0077 20.062 17.6216
Au 23.9605 7.03621 15.1567
Au 32.1533 20.0159 10.2344
Pt 11.8715 12.5623 28.5325
Pt 16.3568 24.1341 24.3637
Pt 16.6498 23.7169 12.7338
Au 46.4611 24.0359 19.0453
Au 29.1035 33.4091 44.3783
Au 36.527 25.7948 10.202
Au 30.5342 28.9852 7.3878
Au 16.8924 27.8006 6.90474
Pt 10.014 33.5997 23.1864
Au 36.9551 17.49 32.163
Au 41.3633 22.6085 35.124
Pt 34.653 28.2185 18.2478
Pt 20.889 25.9886 11.8405
Au 22.2927 35.6397 8.44581
Pt 19.8506 27.2893 23.4549
Au 40.994 9.68922 35.7696
Pt 9.45019 11.9071 24.6628
Pt 7.18782 26.4548 36.9749
Au 29.6673 36.0384 45.1898
Au 46.1353 23.0936 33.6967
Au 5.36653 25.1508 39.6272
Pt 19.7105 35.7979 35.2601
Pt 38.2328 10.2585 25.4663
Pt 17.8187 34.9544 40.4189
Pt 11.511 17.0986 21.5537
Au 20.933 4.68966 17.9669
Au 16.1096 42.5438 39.6819
Au 41.0688 18.6235 43.5423
Pt 23.9676 32.6955 25.9694
Pt 28.2555 30.0957 19.1814
Pt 16.2138 33.9168 14.7623
Pt 23.0468 19.6756 17.6991
Au 20.8857 22.7493 44.2866
Au 7.29057 38.7353 31.7992
Pt 9.0584 24.0937 20.0754
Au 25.3211 14.2289 30.5386
Pt 22.0409 42.0521 30.1067
Au 17.6767 7.46202 30.8335
Pt 12.3665 32.4285 35.8123
Au 4.62484 25.1861 30.819
Pt 31.6848 18.1091 30.0521
Au 35.3851 25.6662 14.4501
Au 8.52646 15.4423 38.8598
Au 14.9824 22.9673 3.17615
Au 19.1389 9.15659 36.148
Pt 13.289 37.6727 16.583
Pt 35.0398 19.6966 22.8522
Au 38.6077 17.136 29.907
Pt 20.2752 41.7454 17.9843
Au 19.1954 45.8155 23.9544
Au 19.0696 28.7598 8.48911
Au 26.3913 27.4923 12.698
Au 10.4671 38.3311 20.5564
Pt 27.2242 31.6622 23.1232
Pt 26.8337 42.5045 16.8172
Au 31.6187 27.0433 9.55391
Pt 17.7163 25.4594 26.3616
Pt 24.6249 15.7635 27.8026
Au 9.79483 39.4038 23.0942
Pt 31.259 26.1577 17.2358
Pt 20.1594 44.3168 30.1427
Au 45.5519 23.1085 36.2968
Au 28.8257 24.1903 42.8565
Au 31.0102 16.7999 41.4861
Pt 30.3173 35.1335 42.2687
Pt 24.3212 33.968 33.9563
Pt 10.7717 15.2266 27.9697
Pt 29.2794 25.6256 21.5806
Au 11.1184 7.65915 24.992
Pt 25.0971 31.3474 33.1211
Au 34.6404 27.0617 11.8831
Pt 19.8452 36.8677 19.4058
Au 11.104 14.7419 40.9714
Pt 19.3329 39.0091 24.7957
Pt 23.074 14.6788 32.3527
Pt 20.8115 18.444 25.8304
Pt 20.8329 27.7365 18.0793
Pt 10.2091 30.6015 36.4047
Pt 20.8104 28.3291 27.9543
Pt 30.485 33.5439 16.1696
Au 14.9529 35.198 8.0759
Au 45.8492 20.8286 32.3926
Au 24.262 12.382 44.1594
Pt 15.0719 18.4596 28.2931
Au 23.1729 32.1339 5.29692
Pt 27.1825 36.204 19.9824
Pt 9.17584 24.3337 11.9465
Pt 19.8314 39.9499 11.5978
Pt 6.69646 36.5127 34.842
Pt 22.1484 34.1582 22.7901
Pt 14.8467 34.773 25.3796
Pt 23.9427 12.8995 41.5043
Au 39.9718 33.3813 8.52269
Pt 10.8574 41.1574 28.2015
Pt 8.39466 27.25 28.2989
Pt 25.5077 2.9609 22.3204
Pt 10.7822 16.1726 33.6092
Au 27.7706 47.6984 19.0597
Au 24.0736 47.1656 32.154
Au 23.4122 12.5021 7.8207
Au 28.0776 6.72437 11.2981
Pt 16.9193 34.6564 28.5395
Au 20.2 18.4304 43.6634
Pt 30.7751 34.3075 28.7912
Au 16.7241 39.2621 43.935
Pt 32.8577 40.4187 31.4705
Pt 28.7974 29.299 41.0743
Pt 6.06923 18.7494 20.8096
Au 34.0037 29.0675 35.7618
Au 38.3629 8.09198 27.4134
Pt 31.5596 33.6445 37.4815
Au 16.541 36.0329 45.9512
Pt 26.6643 23.7135 30.9543
Pt 27.8975 16.2077 21.2718
Pt 21.6507 28.6971 12.5128
Pt 22.2502 40.2782 34.9262
Pt 31.1766 17.0808 21.5041
Pt 17.3208 41.4988 27.424
Pt 18.8048 42.8252 16.0822
Pt 26.5204 44.7219 24.8879
Pt 26.2358 21.5254 8.67354
Pt 35.1392 17.0319 23.6451
Au 36.6152 23.0745 44.3055
Pt 10.2222 20.713 29.2802
Pt 19.4067 31.1249 23.987
Pt 24.3808 4.04169 24.4076
Au 24.7791 26.2136 7.43831
Pt 26.4281 8.6443 20.2759
Au 2.49015 27.9866 33.396
Pt 16.1135 39.1948 28.4378
Pt 24.6064 33.147 31.2364
Pt 8.86548 20.8903 38.7168
Pt 15.2583 14.3631 25.0367
Au 35.9326 25.8883 3.40758
Pt 22.8425 7.09103 30.9968
Pt 24.5225 19.6454 31.6245
Pt 12.3534 14.7792 14.2586
Pt 22.4696 9.21715 18.685
Au 28.77 22.7436 10.4011
Pt 6.7968 24.9358 28.6588
Pt 23.8348 19.1261 14.8352
Au 33.9729 23.9331 42.5422
Au 27.3499 31.5698 46.2955
Pt 27.4979 29.9262 3.72696
Pt 6.5332 18.9739 25.429
Pt 30.8249 23.5449 17.3556
Pt 16.446 33.9538 12.197
Pt 19.6679 17.5348 29.9142
Pt 30.5331 14.1648 24.6909
Pt 24.0897 22.2532 42.123
Au 4.30932 22.1221 16.2694
Pt 15.7651 28.7191 16.5334
Au 11.9531 25.656 8.32985
Pt 31.6932 12.4222 21.1337
Pt 27.2962 18.8842 20.7618
Au 11.4011 10.3545 31.1212
Pt 9.18429 24.8171 27.2748
Au 34.5938 17.1893 33.7106
Pt 9.66144 15.0065 20.919
Au 24.5673 25.0808 1.48243
Pt 26.0474 6.10585 19.4557
Pt 42.6671 33.6754 32.5115
Au 36.0544 22.7418 47.032
Au 18.4943 23.835 43.5838
Au 31.6561 15.4711 46.1963
Au 37.4621 31.407 4.61872
Au 32.4638 16.0685 4.51779
Au 17.1874 43.6508 22.6261
Au 10.8077 10.9309 38.2756
Au 4.44736 25.5178 21.4516
Pt 12.9813 15.5053 23.834
Pt 10.5932 31.4495 33.8356
Pt 26.2717 40.2325 31.4039
Pt 30.8172 41.2463 38.3472
Pt 29.749 12.041 30.4161
Au 6.04231 35.0951 22.2412
Pt 10.9195 12.6355 22.4736
Pt 15.7104 30.3464 28.2413
Pt 13.2667 35.0938 16.9145
Pt 15.8594 39.9789 19.6091
Au 18.6335 31.563 7.86045
Au 8.02678 40.438 24.9677
Pt 26.8674 33.202 42.7055
Au 38.0397 35.1891 7.48042
Pt 13.4243 25.0549 16.8896
Pt 19.8556 33.4858 30.3498
Au 38.5475 42.2462 20.1693
Pt 22.9422 15.4167 36.981
Au 28.3805 28.3727 5.84399
Pt 13.6711 22.7748 13.7872
Au 34.0185 42.8633 15.3562
Au 27.7253 9.46769 13.3318
Pt 25.5419 6.18598 31.5041
Pt 26.336 15.5567 16.5791
Pt 25.269 26.6192 19.0041
Au 31.03 46.7005 25.3583
Pt 10.5921 31.4963 27.1841
Au 9.28019 10.5219 21.8846
Au 30.7206 44.8334 19.7202
Au 40.7306 22.2282 28.1189
Pt 22.1257 9.40125 36.638
Au 29.9738 46.4665 17.6248
Au 26.6254 30.7573 6.11741
Au 31.8046 9.42804 11.6219
Au 7.24299 14.5586 36.4263
Au 36.7079 9.45852 16.5721
Au 19.725 46.4757 34.2912
Pt 24.105 17.5395 29.6704
Au 6.36513 27.9263 39.2668
Pt 23.5186 10.5459 27.7089
Au 36.0942 21.9283 10.031
Pt 22.0448 12.3284 36.5567
Pt 25.1628 26.8541 42.4422
Pt 28.6278 7.6985 31.6524
Pt 34.4983 11.5453 27.6123
Pt 16.7237 9.52856 13.961
Pt 27.3805 4.36447 20.9065
Pt 19.1656 33.1529 35.9823
Pt 15.9462 31.1426 11.034
Pt 10.3041 36.3843 26.4881
Pt 12.888 17.0496 19.1406
Au 41.5868 32.5045 20.6073
Pt 12.0793 22.7272 20.5259
Pt 14.1462 16.9678 25.7437
Pt 27.622 35.3223 37.9016
Pt 15.2516 43.2294 32.2262
Pt 15.6373 33.0078 20.4029
Pt 17.3548 36.3054 14.575
Au 36.8301 28.4446 4.64116
Au 38.7279 14.776 40.3194
Au 47.4847 23.3129 31.3154
Au 42.2678 38.1101 31.3941
Au 32.6066 24.952 8.03243
Au 38.1992 32.2716 25.6271
Pt 26.0802 26.7951 10.0105
Pt 17.0822 16.7372 13.9928
Pt 23.679 10.6981 34.5761
Pt 22.0919 19.0668 30.147
Au 38.9266 19.6254 44.8453
Au 35.2847 45.9184 18.8152
Pt 12.8995 36.5427 21.2375
Au 37.9216 14.5269 43.0675
Pt 23.0305 37.7406 13.6717
Au 35.3637 19.3372 2.68927
Pt 11.742 34.9471 35.2511
Pt 9.00143 20.4824 31.8998
Pt 12.564 25.1604 21.5389
Au 43.8485 34.451 20.4228
Pt 30.336 10.5356 35.543
Pt 21.2078 44.1115 35.1721
Pt 17.4309 13.7567 27.819
Au 14.0347 26.4267 44.8616
Au 14.9761 34.5267 44.1132
Pt 21.9116 22.8865 21.3516
Au 5.67107 16.3684 35.0706
Pt 9.6626 31.9979 14.4069
Pt 13.7781 27.8249 34.0684
Au 7.83504 32.0632 33.5693
Pt 33.0829 31.6107 23.0103
Au 15.7371 27.9378 29.6424
Pt 17.7699 36.9938 21.0203
Au 11.7182 7.53227 27.5742
Au 31.2064 29.8043 48.1804
Au 41.1344 25.7032 22.577
Au 25.8801 18.9707 3.86861
Au 13.737 25.2187 3.83141
Au 7.11737 10.9939 23.6792
Au 11.7626 8.88482 19.8534
Au 44.98 26.2718 13.451
Pt 27.8067 30.0917 31.8012
Au 21.8058 20.7835 2.97767
Au 26.3509 9.03803 6.90289
Pt 8.60982 17.0575 16.8345
Pt 16.5218 29.7511 8.74757
Pt 21.6384 37.7744 35.4466
Au 26.2583 16.4373 5.46133
Au 4.71436 26.1477 18.6772
Au 22.1343 25.8696 7.76564
Au 31.8268 5.54229 24.9163
Au 19.8074 45.8027 37.0351
Au 21.1576 25.3161 4.46871
Au 33.6333 29.3953 10.8015
Au 26.4033 8.93691 10.873
Pt 17.8488 21.9606 24.6509
Pt 19.7887 34.8408 32.8308
Au 4.82687 18.9412 36.3733
Au 20.2038 1.51157 28.0949
Pt 29.9707 45.8967 28.1705
Au 19.8748 19.0407 47.7395
Au 26.7374 21.2475 5.61552
Au 18.3003 29.2801 47.6564
Pt 28.5042 22.9965 22.1031
Au 34.534 20.1473 41.3932
Au 30.1916 3.66031 29.8918
Au 35.1348 42.6157 36.1638
Pt 19.729 19.0983 40.4865
Pt 22.0337 25.761 34.1178
Au 36.6398 22.4856 38.6252
Au 15.0251 38.4164 45.9479
Pt 30.4934 21.2396 22.5817
Pt 13.6529 20.5836 33.6318
Pt 17.7222 33.1493 9.95771
Au 7.9946 32.3579 12.3566
Pt 11.5096 32.0568 24.729
Au 24.2376 15.228 0.779881
Au 4.55034 26.7417 37.5634
Au 44.064 16.0951 14.7328
Pt 36.9622 20.5562 21.3572
Au 19.0493 25.5595 2.35986
Au 19.6084 16.4223 2.28099
Au 36.156 23.1923 2.32872
Pt 19.0392 28.9192 19.4594
Pt 16.4534 11.7606 15.5967
Pt 30.439 44.6324 34.2172
Au 16.4191 42.9135 17.6156
Au 37.7453 37.3208 38.1253
Pt 12.1983 29.7682 21.4236
Au 36.0096 38.294 23.9088
Au 37.2856 16.757 41.7418
Au 11.236 35.9179 11.8094
Au 5.71647 20.9483 14.1661
Pt 27.2596 40.629 35.6277
Au 34.0385 21.4979 3.60495
Au 30.1436 22.4521 38.6661
Au 35.5919 29.9127 37.9343
Pt 21.7372 29.095 41.6194
Au 47.9598 22.9052 28.6414
Au 35.6528 30.9946 8.73297
Pt 16.5501 27.2628 14.4721
Pt 23.3808 43.9051 20.5304
Au 40.8848 23.3661 42.2144
Pt 18.7488 34.9948 37.9736
Au 32.6515 31.8409 46.9671
Au 30.5201 42.1147 41.0473
Au 21.5572 10.4106 7.39904
Au 29.0619 7.4486 41.2737
Au 35.3515 10.2939 9.40263
Pt 6.20265 17.3671 23.0523
Pt 27.4972 6.7376 22.118
Au 25.1643 30.8703 35.9626
Pt 25.7497 38.8988 28.98
Pt 6.78297 34.4146 32.8681
Pt 19.2945 24.66 24.3708
Pt 11.8848 13.0116 31.2651
Pt 30.5056 6.49216 18.2318
Au 34.452 45.713 28.5913
Pt 8.37118 25.7304 15.8854
Au 3.95448 19.5408 26.249
Au 19.8092 17.7823 11.1002
Pt 23.1809 16.8643 18.8718
Pt 20.9438 29.9227 10.1558
Au 5.57131 13.0927 23.2248
Pt 25.0999 35.0485 26.7431
Au 12.2659 45.8402 29.9583
Pt 11.0617 21.2669 40.2389
Pt 30.4177 30.5196 22.4657
Pt 13.655 26.851 39.8781
Pt 22.5901 35.9011 27.2105
Au 32.2806 40.2204 10.1812
Au 16.0527 17.203 6.36086
Au 32.3931 35.5164 8.03639
Au 29.238 44.0758 12.8788
Au 34.0172 45.2591 16.5316
Au 33.9855 36.9151 6.32977
Pt 17.417 25.4231 30.9193
Pt 12.5157 38.8097 22.3487
Au 39.546 29.1453 45.4172
Pt 22.9599 40.3668 26.2001
Au 46.6531 33.3654 20.5168
Au 22.2544 16.3283 2.38315
Au 32.9046 10.1408 39.5482
Au 35.9482 14.9038 40.0937
Au 23.4092 48.9706 30.2774
Pt 20.8702 41.6053 39.1221
Au 23.0046 14.8405 45.0212
Au 23.187 24.2701 43.7765
Au 25.1622 23.0304 49.5584
Pt 14.9921 23.1113 16.0542
Pt 13.5012 25.1546 33.1182
Au 38.5391 22.2213 12.7702
Pt 14.8127 14.7508 12.9418
Au 37.0932 42.0916 34.053
Pt 30.3597 44.9773 22.6049
Pt 12.8858 32.2114 17.1443
Au 29.3052 29.4506 46.1567
Pt 24.4138 43.529 23.1043
Au 25.0411 4.79451 14.0373
Pt 17.456 37.3652 39.193
Au 19.5352 18.5656 32.5937
Au 6.68309 41.0301 30.436
Au 29.6196 16.3236 0.914646
Au 32.9851 19.0422 7.74141
Pt 11.9524 13.8739 33.7591
Au 18.2237 18.6581 2.87888
Pt 8.90987 27.1469 38.9956
Au 31.7457 34.9372 2.97906
Au 7.62915 36.5126 27.1892
Pt 26.4066 42.0073 23.9803
Au 38.7993 29.5522 11.6337
Pt 27.2472 32.7042 31.8839
Pt 14.1073 18.295 17.0862
Au 13.5449 6.51796 25.5583
Au 17.7481 34.5508 7.57053
Au 10.9129 27.9748 40.8383
Pt 15.8963 18.1145 19.2583
Au 47.6008 20.7717 30.2741
Au 17.039 43.6713 25.5443
Au 38.1938 36.0191 12.6287
Au 22.3366 11.1104 9.91684
Au 27.3778 19.395 47.4587
Pt 12.5589 19.9695 35.955
Au 33.629 10.4009 42.4437
Pt 13.8181 36.8278 23.6973
Au 20.8041 15.0252 4.47539
Au 9.06373 31.716 41.3337
Au 34.0353 33.1505 41.7594
Pt 29.3751 31.3452 33.6084
Au 28.1035 40.6031 42.3537
Pt 24.996 44.3573 32.5178
Pt 22.9264 19.772 24.6364
Pt 14.8463 18.3578 35.4559
Pt 12.0098 32.2218 22.2421
Pt 16.0732 25.7232 16.8607
Pt 11.2733 19.4193 38.3182
Au 23.4038 14.1244 3.40708
Pt 36.6728 29.9927 25.2672
Au 18.0625 46.3603 26.4129
Au 20.4937 20.6688 17.2232
Pt 22.4467 39.2197 11.2228
Au 40.4965 9.93355 38.4188
Pt 21.229 28.4128 44.2604
Au 2.47579 29.0924 25.3227
Au 34.1392 16.5004 46.3516
Au 27.1564 22.6506 -1.75348
Pt 19.6955 41.8657 31.4071
Au 21.76 46.814 30.5338
Au 15.0382 42.3838 23.6515
Pt 8.59676 29.8056 27.1749
Au 24.1805 29.7985 3.63616
Au 3.79494 23.4597 18.8516
Au 41.9952 38.909 28.7601
Au 42.8934 34.9782 12.9003
Pt 33.9647 27.1867 23.2067
Au 13.9181 43.2164 36.5538
Au 18.4006 28.79 44.8985
Pt 14.8924 33.4336 10.1015
Pt 21.7966 22.1972 13.7075
Pt 9.2008 29.709 18.2269
Au 12.9852 39.175 19.4449
Pt 31.199 31.8895 35.4712
Au 6.58966 20.8665 30.1481
Pt 14.2135 32.3889 24.4775
Au 23.0635 36.6172 10.8641
Au 20.8912 14.8777 40.8756
Au 23.0875 36.6902 47.6276
Pt 29.0779 23.1709 30.4029
Pt 8.41785 26.2299 23.6589
Pt 25.3614 41.3041 40.2357
Pt 30.1683 42.3229 26.5157
Pt 23.8555 25.9691 26.2775
Pt 8.68165 31.7894 24.952
Au 29.9438 32.0844 46.8699
Pt 17.9768 19.3937 10.019
Au 17.1227 46.1324 29.9538
Pt 22.136 42.4727 24.6322
Pt 18.3021 27.4823 16.781
Pt 14.328 20.6 9.06257
Pt 29.0944 19.9737 37.5961
Pt 18.0119 30.3401 26.5151
Au 30.9126 42.1566 11.704
Pt 21.6797 33.3943 27.4612
Au 12.5997 30.5336 44.9948
Pt 30.3376 30.409 12.7611
Pt 16.7765 10.6224 21.0617
Pt 20.3409 33.6691 39.9976
Au 4.651 14.7383 25.267
Pt 24.1564 42.4682 16.4794
Au 34.0782 14.057 45.2267
Pt 10.9266 26.2733 28.5465
Au 6.60269 21.1064 41.3497
Au 5.41668 14.1918 27.7959
Au 45.1833 16.3999 19.2336
Au 33.5855 37.8484 41.9808
Au 17.4137 24.074 48.4714
Pt 33.5214 30.6854 42.7075
Au 31.4894 12.864 45.4631
Pt 8.11748 37.4868 36.9677
Pt 13.7032 20.1535 12.9236
Au 28.4884 16.9825 42.3663
Au 39.19 38.9323 27.6553
Au 14.9103 25.6382 7.41168
Au 27.4397 44.5296 38.6867
Pt 6.93211 27.589 34.5218
Pt 13.328 29.3796 29.44
Pt 28.8208 23.5836 19.5093
Au 37.1365 11.1969 11.2615
Pt 23.9523 37.9252 17.2995
Pt 31.7327 35.1667 14.1436
Pt 17.0121 24.0255 39.0773
Pt 28.5865 39.2194 14.5666
Au 25.0738 20.1803 43.5405
Au 20.1466 12.5996 6.85139
Pt 30.6934 16.0145 12.7591
Pt 31.4221 13.8809 29.0508
Au 16.0138 8.63854 11.5808
Au 11.7969 10.0529 11.946
Pt 11.0763 25.7475 23.9352
Au 9.40859 36.1811 19.1018
Au 4.7464 16.2538 20.0457
Pt 23.636 6.22729 33.4587
Pt 12.6969 33.3029 33.288
Pt 18.516 22.0779 18.4068
Pt 7.08375 33.9013 35.4824
Pt 12.0172 34.8841 24.3919
Pt 16.1337 24.3933 10.0394
Pt 27.7939 15.255 25.1835
Pt 19.7652 21.3896 9.84741
Au 12.5357 9.84914 28.6163
Au 3.67724 24.7266 24.1036
Pt 28.3196 12.631 25.6612
Pt 34.0315 14.7194 24.495
Pt 30.8613 19.1963 24.8758
Pt 18.0823 25.053 22.0744
Pt 32.7293 29.1682 21.3398
Pt 23.1526 23.1176 35.1484
Pt 29.5535 16.4707 23.4364
Pt 24.1623 8.68923 32.7872
Pt 13.4953 15.3148 32.0168
Pt 17.3464 13.7794 13.6698
Pt 24.0106 41.0008 33.0855
Au 23.082 11.0406 14.0079
Pt 32.483 29.4759 17.3409
Pt 8.66782 27.5591 32.2583
Pt 29.1632 7.40234 27.3703
Au 40.806 40.907 21.0182
Pt 35.012 8.36489 30.6279
Au 30.4738 4.68375 15.8361
Pt 28.0399 9.94472 26.7664
Pt 24.5504 25.1229 30.3445
Pt 14.1281 13.6114 35.2393
Au 21.7514 29.8055 2.07496
Pt 19.0973 15.9281 31.983
Au 32.9779 43.2433 37.9462
Pt 28.2137 14.8626 18.8896
Au 26.8324 41.1834 19.2334
Au 37.1865 42.8739 24.6917
Pt 27.9743 16.7519 27.5922
Pt 26.8486 18.2705 31.6391
Pt 29.1333 33.7588 36.0448
Au 21.0302 13.5051 9.24665
Au 11.4592 12.2773 36.0865
Au 34.7914 16.6846 3.14602
Au 14.6816 11.3059 41.1728
Au 34.674 27.6796 46.2938
Au 4.70565 24.2363 26.9213
Au 19.0037 15.3821 9.7071
Au 22.3981 12.4347 5.29851
Pt 24.202 12.6077 19.98
Pt 28.5206 23.0284 26.5676
Au 35.7139 25.6397 44.691
Pt 32.4278 12.9468 39.0813
Au 42.8191 30.4361 11.7746
Au 40.6344 25.0465 37.115
Au 20.3781 2.72941 30.6289
Au 42.7191 14.6019 30.9568
Pt 14.0462 31.2353 39.8356
Pt 22.2558 18.8423 32.9838
Pt 9.09848 19.7635 25.2983
Pt 13.035 14.6633 26.622
Au 13.4811 8.13266 15.8478
Pt 26.2102 8.70169 31.0224
Au 41.9954 14.115 33.6374
Pt 22.183 21.9776 10.9008
Au 24.0639 4.50492 17.5212
Pt 32.3718 32.7244 30.1818
Pt 15.9229 20.4411 17.1711
Au 25.6639 14.3406 43.045
Au 6.14971 14.2178 18.7352
Au 4.98862 23.6872 14.1107
Pt 15.4419 30.1531 25.4166
Pt 16.7834 25.3482 19.694
Au 40.6897 35.9542 33.4896
Pt 25.6321 15.1943 35.9252
Au 24.5287 22.1085 -1.36506
Pt 12.3006 27.6349 25.4002
Pt 24.039 28.3196 14.7175
Pt 20.8964 13.351 24.2414
Au 19.0154 15.0042 6.92107
Pt 6.1906 28.5689 27.2098
Au 30.6724 31.8518 8.20929
Au 43.6487 16.021 12.0825
Au 38.3409 29.6208 20.4318
Au 24.57 16.373 7.7473
Au 33.0029 14.3421 12.1219
Au 26.0322 32.1415 11.0496
Au 15.5557 18.1527 9.04562
Pt 13.6969 25.1717 24.0295
Pt 29.8957 5.33829 20.6423
Pt 21.195 14.4001 35.114
Pt 22.7971 14.8973 29.5486
Pt 25.4347 40.2032 17.1635
Au 20.334 32.176 48.0277
Au 13.9299 41.7248 18.4645
Pt 25.8926 22.2421 33.093
Pt 23.2359 20.808 20.2625
Pt 8.43436 21.0486 14.0203
Au 38.7809 40.4614 17.5704
Au 35.0182 43.2217 22.7963
Au 16.9507 11.351 10.8707
Au 15.0816 22.081 39.6319
Pt 12.647 23.7199 40.0203
Au 35.77 14.6646 33.3334
Au 38.1994 14.5682 7.09917
Pt 35.308 13.9617 18.7124
Au 38.9418 22.5002 40.3736
Pt 22.2085 25.9488 31.4175
Pt 14.2728 27.2039 18.2636
Au 36.4491 23.6947 4.99738
Pt 10.4717 11.7517 33.2872
Au 22.9098 18.7295 7.69516
Au 37.3729 36.1749 9.92579
Pt 22.7866 6.04594 24.5736
Pt 11.6542 38.5393 27.5516
Pt 6.27337 22.5229 35.1084
Au 40.2875 23.6111 8.15125
Pt 18.0285 20.4097 21.7667
Pt 15.897 15.7853 35.2074
Pt 17.609 28.0743 37.9166
Au 42.4013 25.6557 31.953
Au 33.649 21.6673 8.41983
Au 21.886 9.03475 15.9483
Au 16.087 6.54686 17.3493
Au 41.724 20.3298 26.3849
Pt 10.5252 35.4703 31.1247
Au 34.9633 19.9981 5.74229
Au 25.053 6.49367 11.6903
Au 43.304 12.3855 22.1931
Au 45.4837 17.5651 16.7117
Au 26.5856 49.2752 23.7545
Pt 7.20921 15.194 23.9586
Pt 10.7767 28.4445 11.8485
Pt 24.0782 18.4013 41.9233
Au 37.1877 27.0504 19.9301
Au 33.0466 18.0631 39.9506
Au 40.3845 28.709 34.3389
Au 37.2222 29.2915 17.8994
Au 38.0374 26.5191 15.1066
Pt 26.2187 21.6457 20.4881
Pt 12.1261 25.1138 26.4752
Pt 13.1749 21.768 41.8989
Pt 11.4518 24.8267 18.8216
Pt 11.7425 29.513 32.0264
Pt 30.5243 10.6333 32.7786
Pt 19.3951 22.9845 26.3795