3871
Atoms. Timestep: 20109
Au 5.68424 7.73033 23.2957
Pt 7.80688 5.9355 23.4045
Pt 7.76987 7.75046 21.4517
Pt 6.0282 5.97473 25.2918
Pt 5.82316 7.7912 27.1586
Pt 7.72282 5.90962 27.2379
Au 7.72812 7.8087 25.2973
Pt 7.54516 7.75369 29.1594
Pt 5.91641 11.6486 19.4831
Pt 7.73875 9.65394 19.4485
Au 7.48005 11.3698 17.3008
Pt 5.93933 9.70617 21.391
Au 5.4305 11.5581 23.3076
Pt 7.65984 9.71257 23.3611
Pt 7.61679 11.6954 21.4431
Pt 5.7637 9.65902 25.2731
Pt 5.66975 11.6265 27.2778
Au 7.5738 9.73183 27.3266
Pt 7.46968 11.7161 25.2787
Au 5.45331 9.7093 29.1632
Pt 5.70685 11.7428 31.1454
Au 7.24512 9.52344 31.2811
Pt 7.4863 11.6314 29.3111
Au 7.20452 11.5219 33.3224
Pt 5.82851 15.6135 15.601
Au 7.46697 13.4303 15.34
Pt 7.59113 15.5997 13.5493
Pt 5.90723 13.5994 17.5369
Pt 5.69161 15.5259 19.4054
Pt 7.63527 13.5821 19.4753
Pt 7.63433 15.5324 17.4832
Au 5.39931 13.5981 21.3402
Pt 5.61637 15.5948 23.3333
Pt 7.39415 13.5927 23.3524
Pt 7.49306 15.5126 21.3891
Au 5.33482 13.6292 25.3086
Pt 5.56881 15.5873 27.2838
Au 7.38304 13.6217 27.3485
Pt 7.40816 15.5507 25.3341
Au 5.31832 13.6431 29.2929
Pt 5.58231 15.5619 31.3569
Pt 7.42663 13.6239 31.3171
Pt 7.33863 15.5818 29.347
Au 5.38719 13.6686 33.2296
Pt 5.68278 15.66 35.1636
Pt 7.39208 13.6337 35.1644
Pt 7.48474 15.5442 33.2852
Au 7.22107 15.4101 37.3573
Pt 5.89364 19.5747 11.5591
Au 7.45767 17.3616 11.352
Pt 7.67646 19.5235 9.57513
Pt 5.85732 17.6012 13.5395
Pt 5.66808 19.4467 15.473
Au 7.59441 17.5319 15.5226
Pt 7.5958 19.5229 13.5015
Pt 5.6726 17.5026 17.484
Pt 5.58562 19.5009 19.4808
Au 7.49161 17.5317 19.4577
Au 7.45846 19.5441 17.5031
Pt 5.6148 17.4955 21.4026
Au 5.22303 19.491 23.3697
Pt 7.40634 17.5787 23.389
Pt 7.36242 19.5446 21.4651
Pt 5.56728 17.5014 25.3217
Pt 5.51429 19.4845 27.282
Pt 7.35918 17.5372 27.3555
Pt 7.34667 19.503 25.3201
Au 5.23752 17.4685 29.2912
Au 5.23079 19.5226 31.3834
Pt 7.33494 17.5431 31.2901
Au 7.2436 19.4616 29.3748
Pt 5.61224 17.5169 33.3314
Pt 5.64923 19.4861 35.3098
Pt 7.49425 17.4978 35.3571
Au 7.40353 19.4799 33.29
Au 5.43702 17.5684 37.2017
Au 5.53061 19.521 39.2543
Pt 7.47564 17.5531 39.1211
Pt 7.5139 19.4501 37.2777
Au 7.4159 19.3505 41.373
Au 5.75213 23.4318 7.66532
Pt 7.75753 21.5144 7.688
Au 7.78473 23.4216 5.65585
Pt 5.92621 21.5163 9.6608
Pt 5.73534 23.4115 11.4901
Pt 7.66457 21.5014 11.6163
Pt 7.71811 23.4444 9.59979
Au 5.40104 21.4578 13.4626
Pt 5.57555 23.4858 15.5278
Au 7.41339 21.492 15.4467
Pt 7.4108 23.4794 13.5608
Pt 5.58745 21.5151 17.5112
Pt 5.49762 23.4858 19.4896
Pt 7.38809 21.5189 19.4881
Au 7.39962 23.483 17.5084
Pt 5.50482 21.5132 21.4144
Pt 5.46599 23.4415 23.3627
Pt 7.31156 21.4586 23.3963
Pt 7.3499 23.4728 21.4386
Pt 5.48461 21.4805 25.3513
Pt 5.45787 23.4283 27.361
Au 7.31194 21.4753 27.345
Pt 7.27752 23.4904 25.3787
Pt 5.49046 21.4984 29.3217
Pt 5.50096 23.4207 31.3553
Pt 7.31541 21.4409 31.3201
Pt 7.28482 23.459 29.3593
Pt 5.57188 21.4497 33.3795
Au 5.32881 23.3681 35.376
Pt 7.47985 21.4668 35.3524
Au 7.33756 23.4272 33.3711
Pt 5.68058 21.4073 37.3063
Au 5.44944 23.4184 39.3379
Au 7.53602 21.4017 39.252
Pt 7.42476 23.4366 37.3233
Pt 5.89468 21.5587 41.2419
Pt 5.95734 23.4964 43.1022
Pt 7.70976 21.506 43.2106
Pt 7.70832 23.4421 41.1537
Au 7.72332 23.3797 45.233
Au 5.97477 25.4831 5.81028
Pt 5.95666 27.3349 7.71592
Pt 7.79305 25.3695 7.70265
Pt 7.85558 27.3782 5.87596
Pt 5.83497 25.3884 9.56924
Pt 5.71863 27.3787 11.5274
Au 7.5262 25.4092 11.6461
Au 7.63929 27.4157 9.66262
Au 5.33453 25.4337 13.5345
Pt 5.54509 27.4124 15.5442
Pt 7.3892 25.4684 15.498
Pt 7.40945 27.3919 13.5885
Pt 5.54665 25.4567 17.48
Pt 5.46223 27.3934 19.403
Pt 7.35856 25.4535 19.4707
Pt 7.39726 27.4106 17.4917
Pt 5.47784 25.4339 21.4089
Pt 5.45293 27.3719 23.353
Pt 7.24646 25.4173 23.4276
Pt 7.26004 27.4538 21.398
Au 5.16666 25.4157 25.379
Pt 5.44441 27.4045 27.4491
Pt 7.20284 25.4222 27.3917
Pt 7.16287 27.3969 25.4051
Au 5.16426 25.3732 29.3715
Au 5.20582 27.4563 31.4537
Pt 7.20874 25.4559 31.2941
Pt 7.18447 27.4008 29.4614
Pt 5.57417 25.4215 33.3517
Au 5.3544 27.5024 35.3814
Au 7.29656 25.4238 35.4109
Pt 7.31378 27.438 33.3545
Au 5.38786 25.5057 37.4476
Pt 5.7909 27.4478 39.3813
Pt 7.55311 25.3762 39.2284
Pt 7.51095 27.3954 37.3248
Pt 5.80439 25.4031 41.2521
Pt 5.92169 27.3133 43.04
Pt 7.84449 25.3692 43.0707
Pt 7.73435 27.3763 41.1982
Pt 6.03091 25.4105 44.7881
Pt 7.7411 27.3166 44.9741
Pt 7.71722 29.3494 7.72847
Au 5.65556 29.3763 9.5953
Au 5.64164 31.4593 11.5494
Pt 7.53533 29.4031 11.6017
Pt 7.6604 31.3359 9.66684
Au 5.41355 29.3736 13.5289
Pt 5.6859 31.4504 15.4788
Pt 7.43132 29.3696 15.4895
Au 7.53253 31.3488 13.5045
Pt 5.56305 29.3747 17.4433
Pt 5.53501 31.3961 19.3354
Pt 7.33111 29.3785 19.4578
Au 7.45146 31.3538 17.4672
Au 5.17996 29.3763 21.3339
Au 5.1736 31.4234 23.3783
Pt 7.11876 29.4369 23.4036
Pt 7.24309 31.3015 21.404
Au 5.15245 29.353 25.4274
Pt 5.44129 31.3806 27.5275
Au 7.20885 29.394 27.4159
Pt 7.17103 31.3051 25.4341
Pt 5.46997 29.4513 29.4771
Pt 5.53643 31.4088 31.4624
Pt 7.32515 29.3979 31.3857
Pt 7.34295 31.3875 29.4539
Pt 5.57334 29.4439 33.3976
Au 5.37857 31.3854 35.4789
Pt 7.41797 29.3992 35.3809
Au 7.41025 31.3651 33.439
Pt 5.72974 29.4088 37.4376
Pt 5.89656 31.3087 39.2602
Pt 7.67581 29.3666 39.3244
Pt 7.63037 31.3426 37.3138
Au 5.66276 29.3953 41.2642
Pt 7.71584 29.2913 43.1587
Pt 7.65982 31.2875 41.2626
Pt 7.66087 33.3719 11.5527
Pt 5.90556 33.3988 13.5776
Pt 5.89274 35.2983 15.5175
Pt 7.64617 33.3604 15.5278
Pt 7.68142 35.366 13.5273
Pt 5.65896 33.397 17.4183
Pt 5.68829 35.3392 19.3176
Pt 7.46052 33.3214 19.412
Pt 7.61387 35.333 17.4733
Pt 5.55504 33.3454 21.2727
Au 5.26532 35.3633 23.4758
Au 7.20311 33.318 23.4369
Au 7.31378 35.372 21.4539
Pt 5.47356 33.3489 25.5134
Pt 5.53798 35.3162 27.4457
Au 7.31168 33.3132 27.4472
Au 7.3154 35.3456 25.4224
Pt 5.51429 33.3487 29.5122
Pt 5.64543 35.329 31.5709
Pt 7.44496 33.3234 31.4288
Au 7.34254 35.3412 29.4559
Pt 5.65332 33.3793 33.4603
Pt 5.84375 35.2796 35.3573
Pt 7.57597 33.3088 35.3738
Pt 7.61311 35.2889 33.4267
Pt 5.88058 33.2986 37.3548
Pt 7.66067 33.3211 39.3262
Pt 7.64967 35.3032 37.3359
Pt 7.67262 37.3185 15.5319
Au 5.65681 37.3161 17.3927
Au 5.65951 39.3547 19.3739
Pt 7.52009 37.3365 19.4261
Pt 7.66658 39.3068 17.5165
Au 5.38974 37.3729 21.3843
Pt 5.73306 39.3544 23.4878
Pt 7.39633 37.2679 23.4326
Au 7.47452 39.2414 21.4344
Pt 5.58721 37.3869 25.4431
Au 5.40956 39.3303 27.4156
Pt 7.36175 37.3052 27.4679
Au 7.50261 39.2383 25.506
Au 5.36137 37.2983 29.5527
Pt 5.88501 39.1837 31.5234
Pt 7.59502 37.256 31.4686
Au 7.46573 39.2256 29.4257
Pt 5.83479 37.2363 33.4362
Pt 7.62537 37.2843 35.3891
Pt 7.63186 39.2548 33.4901
Pt 7.68848 41.2298 19.5628
Au 5.6679 41.3197 21.5301
Pt 5.96219 43.1527 23.5503
Pt 7.70056 41.1916 23.4576
Pt 7.73458 43.1598 21.5489
Pt 5.79715 41.2849 25.4152
Au 5.67224 43.1805 27.3807
Pt 7.56564 41.2328 27.521
Pt 7.80723 43.0483 25.4997
Au 5.65124 41.2143 29.5394
Pt 7.68467 41.168 31.4593
Au 7.50064 43.2769 29.5653
Pt 7.84927 45.0187 23.5145
Pt 6.15631 44.9179 25.4319
Pt 7.79574 44.9291 27.4209
Pt 9.68104 7.69447 19.495
Pt 11.6514 5.84844 19.4967
Pt 11.6147 7.67922 17.5466
Pt 9.72881 5.88114 21.4677
Au 9.73461 7.70459 23.438
Pt 11.5913 5.70127 23.4219
Au 11.6518 7.65292 21.435
Pt 9.61038 5.7671 25.3878
Pt 9.61926 7.72378 27.2799
Au 11.5554 5.40392 27.3956
Pt 11.6346 7.51784 25.4826
Pt 9.55064 5.90627 29.1528
Au 9.16656 7.4556 31.3516
Pt 11.3282 5.86909 31.0976
Pt 11.4788 7.66757 29.2624
Pt 11.2512 7.595 33.0956
Pt 9.63424 11.548 15.6031
Au 11.4238 9.4122 15.3982
Au 11.485 11.3495 13.3805
Pt 9.66107 9.61032 17.5538
Pt 9.51291 11.6093 19.39
Pt 11.5876 9.63247 19.4355
Pt 11.5698 11.4843 17.4301
Au 9.62239 9.69155 21.4043
Pt 9.51701 11.6803 23.3559
Au 11.637 9.6713 23.4719
Pt 11.5253 11.6373 21.3647
Pt 9.56833 9.73593 25.3659
Au 9.48285 11.6572 27.3863
Au 11.5383 9.61049 27.3764
Au 11.5809 11.6199 25.4163
Pt 9.40614 9.57358 29.4269
Pt 9.25084 11.5658 31.3631
Pt 11.3105 9.48586 31.2951
Au 11.3889 11.5381 29.4383
Pt 9.3275 9.59129 33.0892
Au 9.08577 11.3857 35.2766
Pt 11.159 9.42026 35.0762
Au 11.2599 11.4795 33.4027
Au 10.8963 11.1825 37.247
Pt 9.59622 15.6011 11.5285
Au 11.4819 13.3736 11.3477
Au 11.4155 15.3492 9.37625
Au 9.47317 13.4451 13.3452
Au 9.49443 15.4031 15.4128
Au 11.488 13.4214 15.3829
Pt 11.533 15.4049 13.4013
Pt 9.4268 13.4462 17.4366
Au 9.56378 15.4985 19.439
Pt 11.4988 13.4647 19.373
Au 11.4976 15.4197 17.3905
Pt 9.51107 13.5862 21.4418
Pt 9.3701 15.5439 23.3891
Au 11.5222 13.5687 23.4029
Pt 11.5107 15.434 21.4261
Au 9.43596 13.6196 25.356
Pt 9.33151 15.5721 27.3703
Au 11.4881 13.5771 27.4443
Au 11.4866 15.5314 25.428
Pt 9.32013 13.6293 29.3695
Au 9.38255 15.5312 31.3645
Au 11.3557 13.4876 31.4153
Au 11.4556 15.5079 29.4112
Pt 9.29209 13.4644 33.3506
Pt 9.33021 15.4994 35.3633
Pt 11.1978 13.3692 35.4493
Au 11.3806 15.398 33.4694
Pt 9.2216 13.5512 37.1532
Pt 9.30494 15.4996 39.1212
Au 10.8621 13.1199 39.2456
Au 11.385 15.2975 37.4962
Pt 11.2354 15.3042 40.943
Pt 9.63118 19.5232 7.64097
Au 11.3962 17.3366 7.42949
Pt 11.6344 19.4975 5.85315
Pt 9.59489 17.58 9.57899
Pt 9.5139 19.4184 11.5115
Au 11.5383 17.4185 11.433
Pt 11.5837 19.3864 9.45876
Au 9.49609 17.4755 13.4166
Au 9.5554 19.4859 15.4848
Au 11.5151 17.424 15.4021
Pt 11.586 19.3495 13.4256
Pt 9.47817 17.527 17.5058
Pt 9.3532 19.5756 19.5419
Au 11.4805 17.5027 19.4536
Au 11.4856 19.4935 17.5087
Au 9.44072 17.5072 21.4452
Au 9.40054 19.5249 23.4109
Au 11.4517 17.4571 23.4174
Au 11.4176 19.5565 21.411
Au 9.36648 17.5128 25.4039
Pt 9.27228 19.494 27.382
Au 11.4207 17.4968 27.4166
Pt 11.3683 19.436 25.4625
Au 9.34582 17.5094 29.352
Pt 9.30508 19.4879 31.3168
Au 11.4185 17.4361 31.4335
Au 11.3382 19.4779 29.41
Pt 9.34998 17.4756 33.3491
Au 9.43398 19.4344 35.3466
Au 11.4364 17.3714 35.4432
Au 11.4133 19.3957 33.3867
Pt 9.40638 17.4058 37.3034
Pt 9.41795 19.3772 39.34
Au 11.3745 17.4336 39.3984
Pt 11.3925 19.3691 37.3834
Au 9.22577 17.2606 41.2829
Pt 9.5989 19.4537 43.1451
Pt 11.3574 17.2964 42.9172
Au 11.5409 19.4108 41.3382
Au 11.541 19.2091 45.0195
Pt 9.73829 21.4785 5.85512
Pt 9.66473 23.4307 7.64781
Pt 11.6236 21.4375 7.65201
Pt 11.5458 23.3995 5.71445
Au 9.62949 21.4195 9.60382
Au 9.60689 23.4765 11.58
Au 11.6002 21.3904 11.5151
Pt 11.5974 23.4466 9.48255
Au 9.5649 21.4846 13.5465
Pt 9.37058 23.5118 15.5373
Au 11.578 21.4202 15.4591
Au 11.5635 23.4846 13.5573
Au 9.44241 21.5159 17.5059
Pt 9.33145 23.4819 19.5311
Pt 11.3897 21.5095 19.4888
Au 11.4546 23.4516 17.4717
Pt 9.30114 21.5191 21.4653
Au 9.3082 23.4573 23.434
Pt 11.3556 21.4537 23.425
Au 11.3693 23.4395 21.4413
Au 9.35648 21.4615 25.414
Au 9.2989 23.4708 27.4026
Pt 11.3126 21.3894 27.4411
Au 11.3381 23.475 25.4479
Pt 9.24691 21.4444 29.3351
Au 9.2838 23.4186 31.3347
Pt 11.3525 21.4074 31.366
Au 11.3305 23.3858 29.4218
Au 9.3954 21.454 33.3315
Pt 9.381 23.4403 35.4084
Au 11.435 21.4045 35.4033
Au 11.4037 23.4247 33.3925
Pt 9.45727 21.421 37.3224
Pt 9.50511 23.3777 39.1881
Pt 11.4397 21.3489 39.2519
Pt 11.4425 23.3685 37.3063
Au 9.53895 21.3566 41.2589
Au 9.66786 23.3664 43.2506
Pt 11.7132 21.3676 43.3127
Au 11.6107 23.3017 41.2718
Pt 9.74158 21.4001 44.9603
Pt 11.5908 23.3852 45.1888
Pt 9.65677 25.4303 5.76661
Pt 9.66223 27.4069 7.71971
Au 11.5904 25.4373 7.58123
Pt 11.5043 27.4747 5.71542
Pt 9.60774 25.4482 9.6217
Pt 9.52169 27.4087 11.5991
Au 11.5901 25.4918 11.5171
Pt 11.603 27.4507 9.54012
Au 9.48169 25.4733 13.6019
Pt 9.39416 27.417 15.5519
Au 11.4963 25.4977 15.5335
Pt 11.5158 27.4319 13.5419
Au 9.40237 25.457 17.4829
Au 9.3746 27.4488 19.4686
Au 11.4228 25.466 19.4495
Pt 11.466 27.473 17.4977
Au 9.30159 25.5002 21.4719
Pt 9.10313 27.4483 23.4119
Au 11.3232 25.5296 23.3985
Pt 11.3804 27.471 21.3626
Au 9.23719 25.4901 25.4125
Au 9.19365 27.4041 27.4482
Pt 11.2914 25.4538 27.4776
Au 11.2922 27.4209 25.4868
Au 9.25099 25.4342 29.3934
Au 9.27358 27.4098 31.3808
Au 11.4031 25.4178 31.4224
Au 11.3341 27.4306 29.4123
Au 9.30569 25.4066 33.3756
Au 9.40316 27.3721 35.3551
Pt 11.4453 25.3484 35.3776
Au 11.4485 27.3632 33.4253
Pt 9.47548 25.368 37.3051
Au 9.62253 27.3754 39.2612
Pt 11.5143 25.3166 39.2083
Au 11.5199 27.3705 37.2869
Au 9.71844 25.3756 41.1795
Au 9.68319 27.3984 43.2515
Au 11.6668 25.3728 43.3655
Pt 11.646 27.3951 41.3725
Pt 9.6069 25.3681 45.0993
Pt 11.6125 27.3813 45.1905
Pt 9.65346 29.3636 5.87752
Pt 9.56826 31.3351 7.69073
Pt 11.5704 29.394 7.67626
Pt 11.5145 31.3013 5.86251
Au 9.58032 29.4248 9.65766
Pt 9.55324 31.4202 11.561
Au 11.5786 29.385 11.5558
Pt 11.5347 31.3788 9.53963
Au 9.48346 29.3329 13.5349
Au 9.52883 31.3854 15.5038
Au 11.5089 29.3792 15.4884
Au 11.5268 31.4398 13.4835
Au 9.43337 29.3881 17.4855
Pt 9.38006 31.3348 19.4487
Pt 11.4342 29.4293 19.4272
Pt 11.4841 31.3993 17.494
Au 9.28628 29.3961 21.4613
Au 9.21095 31.3636 23.4652
Au 11.2847 29.3556 23.4433
Au 11.3772 31.3811 21.4199
Au 9.17967 29.3627 25.4029
Pt 9.21444 31.3452 27.4417
Au 11.2635 29.4286 27.4657
Au 11.2719 31.4029 25.475
Pt 9.19569 29.3877 29.3977
Pt 9.31313 31.3372 31.4102
Au 11.3587 29.4159 31.3871
Pt 11.2997 31.3609 29.4233
Au 9.38128 29.3749 33.4019
Pt 9.47975 31.3754 35.3751
Pt 11.4906 29.4211 35.3553
Au 11.4356 31.3854 33.4155
Au 9.5598 29.4034 37.3191
Au 9.57814 31.4187 39.4087
Pt 11.554 29.4431 39.3843
Pt 11.4979 31.4305 37.3907
Pt 9.62686 29.3566 41.2746
Pt 9.62847 31.2217 43.1941
Au 11.6242 29.3433 43.3147
Au 11.5482 31.48 41.4169
Au 9.61008 29.3573 45.2541
Pt 11.6478 31.2869 45.0258
Pt 11.4874 33.2757 7.65648
Pt 9.55149 33.3059 9.5825
Pt 9.56031 35.3353 11.6019
Au 11.497 33.4438 11.446
Au 11.3067 35.5088 9.44335
Pt 9.49955 33.393 13.4974
Au 9.5489 35.3576 15.4801
Pt 11.5002 33.3782 15.5082
Au 11.514 35.3915 13.4781
Pt 9.47643 33.3199 17.5371
Au 9.44428 35.3177 19.5099
Pt 11.4435 33.3366 19.4691
Au 11.4855 35.3339 17.5129
Au 9.31552 33.2986 21.4348
Au 9.36254 35.3143 23.4346
Au 11.3625 33.3504 23.45
Pt 11.4051 35.3056 21.445
Pt 9.23331 33.3114 25.4762
Au 9.37119 35.3069 27.4173
Pt 11.3228 33.3105 27.4528
Au 11.3764 35.3046 25.4489
Au 9.38522 33.314 29.418
Au 9.49436 35.2884 31.4371
Au 11.4399 33.3144 31.4339
Pt 11.4556 35.3128 29.453
Pt 9.45636 33.3042 33.4015
Au 9.53165 35.3385 35.3954
Pt 11.4832 33.391 35.4024
Pt 11.466 35.3595 33.4461
Au 9.53788 33.3523 37.3876
Pt 9.60145 35.2932 39.3204
Pt 11.5159 33.4088 39.4427
Au 11.5132 35.3689 37.4292
Au 9.4367 33.4881 41.4703
Au 11.4862 33.5033 43.4404
Pt 11.6052 35.3403 41.3039
Pt 11.4906 37.414 11.6559
Pt 9.57476 37.3693 13.5909
Pt 9.56437 39.3649 15.5729
Au 11.5135 37.4498 15.4849
Pt 11.5137 39.4163 13.5954
Au 9.5249 37.3863 17.4918
Pt 9.53727 39.3162 19.4843
Au 11.4897 37.3365 19.5184
Pt 11.4824 39.403 17.5172
Pt 9.42453 37.3083 21.4246
Pt 9.43289 39.1409 23.4218
Pt 11.4049 37.2344 23.3761
Pt 11.4793 39.274 21.4593
Pt 9.36539 37.2632 25.4327
Pt 9.43916 39.2199 27.4781
Au 11.4519 37.2935 27.4776
Au 11.4676 39.1316 25.4107
Au 9.45664 37.277 29.4289
Pt 9.47679 39.2348 31.4823
Au 11.4749 37.336 31.4552
Pt 11.4094 39.2697 29.4754
Pt 9.4985 37.3074 33.4507
Pt 9.55749 39.2223 35.3904
Pt 11.46 37.3662 35.4757
Pt 11.4252 39.3201 33.4855
Pt 9.54908 37.2489 37.3701
Pt 11.5534 37.272 39.3884
Au 11.3369 39.3848 37.5834
Pt 11.5162 41.3219 15.6018
Pt 9.57915 41.2777 17.5719
Pt 9.61387 43.181 19.5634
Pt 11.5195 41.3533 19.4548
Au 11.3716 43.4049 17.4095
Au 9.59741 41.209 21.475
Au 9.69101 43.1837 23.5277
Au 11.5915 41.2155 23.5105
Pt 11.6037 43.1825 21.5305
Au 9.61101 41.1244 25.4882
Pt 9.61931 43.1101 27.4745
Au 11.5519 41.1955 27.4478
Pt 11.628 43.3495 25.5149
Pt 9.46504 41.2388 29.4764
Pt 9.58605 43.1521 31.3797
Au 11.4527 41.2251 31.441
Au 11.5709 43.1963 29.3942
Pt 9.53571 41.2023 33.4047
Au 11.3464 41.4161 35.5177
Pt 11.4887 43.19 33.3392
Pt 11.5988 44.9995 19.6283
Pt 9.70754 44.9871 21.5672
Pt 11.5573 45.1679 23.4876
Pt 9.60295 45.1021 25.4915
Pt 11.4992 45.1553 27.4784
Pt 9.64378 44.9557 29.371
Pt 11.5658 44.9858 31.3516
Pt 13.5323 7.66098 15.6152
Pt 15.4782 5.82586 15.6412
Au 15.3996 7.47083 13.4708
Pt 13.5616 5.82981 17.6106
Pt 13.5932 7.66951 19.4863
Pt 15.4874 5.64433 19.4789
Au 15.5564 7.5553 17.5371
Pt 13.5512 5.67736 21.3996
Au 13.5919 7.47802 23.4585
Pt 15.5103 5.55287 23.3634
Pt 15.5507 7.48112 21.4324
Pt 13.5353 5.58888 25.3905
Pt 13.5239 7.37466 27.4286
Au 15.4176 5.30056 27.4627
Pt 15.5229 7.32519 25.4487
Pt 13.427 5.71968 29.5486
Pt 13.4062 7.71589 31.3928
Pt 15.4984 5.71056 31.6651
Au 15.4768 7.36552 29.4983
Pt 13.195 5.66715 32.8569
Pt 13.0408 7.2405 34.9368
Au 14.9749 5.04561 34.6784
Au 15.4077 7.54469 33.6432
Pt 15.0545 7.13431 36.5478
Pt 13.6231 11.4946 11.4888
Pt 15.5695 9.60218 11.5476
Pt 15.5655 11.5255 9.52224
Pt 13.6135 9.56545 13.583
Pt 13.4623 11.4305 15.4744
Pt 15.5062 9.4854 15.501
Au 15.5071 11.451 13.4884
Pt 13.5274 9.56201 17.4662
Au 13.5657 11.5451 19.4123
Pt 15.5698 9.50569 19.4483
Pt 15.5069 11.4695 17.4148
Au 13.6082 9.61024 21.4515
Pt 13.586 11.5957 23.3802
Au 15.5634 9.44196 23.4439
Pt 15.5519 11.5053 21.3878
Au 13.6118 9.45858 25.497
Pt 13.5648 11.4584 27.4433
Pt 15.5432 9.23502 27.4675
Au 15.5145 11.4437 25.4757
Au 13.5257 9.49157 29.3557
Au 13.4012 11.3949 31.4731
Au 15.5155 9.45059 31.5405
Au 15.5415 11.4066 29.484
Au 13.3631 9.53391 33.5594
Au 13.2285 11.5061 35.7329
Au 15.3981 9.63841 35.6333
Pt 15.5109 11.4029 33.5057
Pt 13.0461 9.08797 36.8317
Pt 13.069 11.0147 38.7
Pt 15.0337 9.01611 38.5077
Pt 15.4902 11.5296 37.7612
Au 14.8313 10.833 40.6287
Pt 13.5934 15.5113 7.59938
Pt 15.5715 13.5304 7.5897
Pt 15.5454 15.5529 5.82221
Pt 13.6538 13.492 9.47095
Au 13.4511 15.4039 11.3664
Au 15.5064 13.4326 11.4304
Pt 15.5475 15.4788 9.44926
Au 13.4386 13.3851 13.4175
Pt 13.5217 15.418 15.4101
Pt 15.4847 13.4117 15.437
Au 15.4663 15.4196 13.4361
Pt 13.5239 13.4211 17.3855
Au 13.4957 15.424 19.4077
Pt 15.5165 13.4587 19.3572
Au 15.4892 15.4132 17.3693
Au 13.5581 13.5096 21.4181
Pt 13.5091 15.4885 23.4032
Pt 15.4787 13.5224 23.4248
Pt 15.4874 15.4507 21.4264
Au 13.5545 13.5225 25.4464
Pt 13.474 15.5424 27.4579
Au 15.492 13.4573 27.5164
Au 15.4331 15.5088 25.4504
Au 13.4608 13.4537 29.4615
Pt 13.4296 15.4459 31.4888
Au 15.4281 13.3907 31.5088
Au 15.4071 15.4532 29.5272
Au 13.3845 13.3474 33.5226
Au 13.3733 15.314 35.5645
Au 15.3645 13.3318 35.6412
Au 15.3506 15.4015 33.5263
Pt 13.3716 13.4283 37.8222
Au 13.5265 15.5047 39.6343
Pt 15.4995 13.4978 39.6911
Au 15.4279 15.4272 37.5886
Pt 13.0708 13.031 40.6344
Pt 13.2102 15.0135 42.5625
Pt 15.0353 13.0139 42.3691
Pt 15.6427 15.6219 41.5866
Pt 15.2378 14.9652 44.2059
Pt 13.6169 17.5288 5.83788
Pt 13.5701 19.4301 7.60989
Pt 15.5401 17.4886 7.59917
Pt 15.4784 19.3853 5.63008
Pt 13.4593 17.4041 9.41812
Au 13.5886 19.3787 11.4514
Pt 15.4845 17.4043 11.4206
Pt 15.5542 19.4108 9.42928
Pt 13.5235 17.3772 13.4114
Pt 13.5614 19.3465 15.3643
Pt 15.5131 17.3669 15.3798
Pt 15.5323 19.3097 13.4507
Au 13.4978 17.4519 17.3836
Au 13.5118 19.5162 19.4853
Au 15.4995 17.4265 19.418
Au 15.4964 19.4148 17.3876
Au 13.4988 17.4462 21.4477
Au 13.395 19.476 23.4272
Pt 15.4098 17.4429 23.4481
Pt 15.4293 19.4541 21.484
Pt 13.4093 17.4956 25.4163
Pt 13.351 19.4417 27.4526
Au 15.3962 17.4582 27.4932
Au 15.3733 19.4192 25.4546
Pt 13.424 17.4834 29.4627
Au 13.4144 19.3881 31.4527
Pt 15.3998 17.3599 31.4948
Au 15.4181 19.3829 29.5146
Pt 13.421 17.3805 33.4905
Pt 13.4113 19.3366 35.4953
Pt 15.3634 17.3668 35.5447
Au 15.3759 19.3304 33.4898
Pt 13.3921 17.38 37.5056
Pt 13.5003 19.3508 39.4191
Pt 15.5495 17.4995 39.533
Au 15.4426 19.3316 37.4857
Au 13.6353 17.5165 41.5725
Pt 13.688 19.4968 43.4705
Au 15.8167 17.5643 43.6822
Pt 15.6387 19.4569 41.5768
Pt 13.428 17.0232 44.3693
Au 15.5775 19.5365 45.5742
Pt 13.4912 21.3385 5.68791
Au 13.6102 23.4146 7.40711
Pt 15.5862 21.4034 7.35285
Au 15.4583 23.3419 5.28533
Au 13.6347 21.4497 9.47519
Au 13.6093 23.4752 11.4779
Au 15.5764 21.4341 11.4739
Au 15.6464 23.4613 9.33285
Au 13.5895 21.4075 13.4687
Au 13.579 23.4978 15.4895
Au 15.5147 21.4497 15.4001
Pt 15.6148 23.5343 13.415
Au 13.5273 21.4378 17.4483
Au 13.4351 23.4373 19.4456
Pt 15.4341 21.4864 19.47
Pt 15.443 23.4812 17.4941
Pt 13.4055 21.477 21.4314
Au 13.3386 23.4673 23.4219
Au 15.3783 21.4495 23.4369
Au 15.3902 23.4597 21.4456
Au 13.3061 21.4167 25.4608
Au 13.3168 23.4231 27.4572
Au 15.3672 21.4006 27.4746
Au 15.3581 23.4446 25.457
Au 13.3711 21.4131 29.468
Pt 13.3812 23.4238 31.4515
Pt 15.3773 21.3736 31.4964
Au 15.3638 23.4048 29.52
Au 13.4023 21.4061 33.416
Pt 13.4084 23.3939 35.4104
Au 15.426 21.3709 35.4636
Au 15.3933 23.3965 33.436
Au 13.4339 21.3437 37.4197
Pt 13.4498 23.3199 39.3138
Au 15.5245 21.3493 39.4532
Au 15.4919 23.3566 37.4212
Au 13.6158 21.3559 41.407
Pt 13.6131 23.3885 43.4663
Pt 15.6081 21.4627 43.6202
Au 15.5421 23.392 41.5307
Au 13.485 21.445 45.5025
Pt 15.4998 23.4664 45.3685
Pt 13.4212 25.5106 5.65453
Pt 13.537 27.4711 7.50804
Au 15.589 25.4115 7.23064
Pt 15.3972 27.5353 5.56324
Au 13.6358 25.4624 9.43009
Au 13.6112 27.4739 11.4666
Au 15.6349 25.5202 11.3766
Pt 15.6094 27.4651 9.28669
Au 13.6047 25.4953 13.4623
Au 13.541 27.4667 15.4569
Au 15.5437 25.4769 15.4335
Pt 15.6011 27.4935 13.3874
Pt 13.4492 25.5142 17.4929
Pt 13.4117 27.4888 19.4153
Au 15.405 25.4674 19.4416
Au 15.4476 27.4862 17.4683
Pt 13.3623 25.4714 21.3624
Au 13.3586 27.4328 23.4235
Au 15.3617 25.4601 23.4421
Au 15.3775 27.4611 21.4183
Au 13.3306 25.4869 25.507
Pt 13.3541 27.483 27.4825
Au 15.3684 25.4553 27.4822
Au 15.3811 27.4691 25.5192
Au 13.3515 25.4457 29.431
Pt 13.4015 27.426 31.4493
Au 15.3552 25.4414 31.4782
Au 15.3746 27.4775 29.4448
Pt 13.4327 25.3814 33.453
Pt 13.4522 27.3633 35.3813
Au 15.456 25.3983 35.4062
Pt 15.3841 27.3922 33.4545
Au 13.4803 25.3443 37.359
Au 13.4722 27.4029 39.3914
Au 15.5139 25.3876 39.4221
Au 15.4889 27.404 37.3963
Au 13.5478 25.3459 41.3677
Pt 13.6101 27.3693 43.4265
Pt 15.5207 25.4276 43.5061
Au 15.5234 27.3974 41.4475
Pt 13.568 25.3952 45.3191
Pt 15.4782 27.3893 45.3862
Pt 13.4144 29.4217 5.67839
Pt 13.5239 31.3694 7.52252
Pt 15.4889 29.4561 7.4069
Au 15.4017 31.3739 5.34429
Pt 13.579 29.424 9.44059
Au 13.5529 31.4051 11.4557
Au 15.5771 29.4233 11.3663
Pt 15.5189 31.3953 9.34808
Pt 13.5648 29.4422 13.4861
Au 13.4894 31.4204 15.4702
Pt 15.4518 29.4674 15.4668
Au 15.5248 31.4476 13.4643
Pt 13.4346 29.4493 17.4653
Pt 13.3993 31.4018 19.416
Pt 15.3426 29.4475 19.4226
Pt 15.3868 31.4134 17.4525
Au 13.3751 29.4286 21.4184
Au 13.3817 31.4198 23.4967
Au 15.4101 29.4658 23.4911
Au 15.3983 31.4104 21.4541
Au 13.3671 29.4182 25.4962
Au 13.3552 31.4127 27.4349
Pt 15.3923 29.4719 27.4815
Pt 15.4188 31.4011 25.503
Au 13.3661 29.4453 29.4445
Pt 13.429 31.4243 31.4689
Au 15.3936 29.427 31.4757
Au 15.4113 31.4174 29.4822
Au 13.4361 29.3901 33.4248
Au 13.4532 31.4438 35.4325
Au 15.4497 29.425 35.418
Pt 15.4301 31.4169 33.4543
Au 13.4601 29.4228 37.3786
Au 13.5095 31.4333 39.399
Au 15.5035 29.4002 39.4047
Pt 15.4637 31.4451 37.4143
Pt 13.5735 29.4176 41.4446
Au 13.5854 31.4348 43.3637
Pt 15.523 29.3517 43.4699
Au 15.5426 31.3857 41.4244
Pt 13.5663 29.3565 45.2519
Pt 15.4674 31.3426 45.2705
Au 13.3685 33.3888 5.64194
Pt 13.3908 35.2949 7.59027
Au 15.4845 33.3457 7.37805
Pt 15.5551 35.5374 6.03288
Au 13.4801 33.4131 9.43779
Au 13.4105 35.5009 11.3649
Au 15.4883 33.4337 11.4149
Au 15.3939 35.5445 9.27383
Pt 13.4982 33.3992 13.4865
Au 13.5129 35.3785 15.486
Pt 15.459 33.3803 15.5026
Au 15.4461 35.375 13.4516
Au 13.4685 33.3956 17.4973
Pt 13.4543 35.3556 19.496
Au 15.4312 33.4061 19.4696
Pt 15.479 35.3838 17.5108
Pt 13.3996 33.3561 21.3987
Au 13.4088 35.3038 23.4274
Au 15.4239 33.3524 23.4899
Au 15.4609 35.3946 21.453
Pt 13.3675 33.3564 25.4826
Au 13.4218 35.3442 27.458
Au 15.4189 33.3842 27.4292
Au 15.4743 35.3776 25.4554
Au 13.3915 33.3521 29.4503
Au 13.4487 35.373 31.4602
Pt 15.4008 33.4177 31.5117
Au 15.4382 35.4288 29.4632
Pt 13.451 33.3833 33.453
Au 13.4605 35.3926 35.4277
Au 15.4613 33.406 35.4342
Au 15.459 35.4295 33.4283
Pt 13.4831 33.4096 37.4445
Au 13.5157 35.3638 39.409
Pt 15.5021 33.4288 39.4297
Pt 15.4412 35.4366 37.4731
Pt 13.5463 33.4232 41.4066
Pt 13.5928 35.3121 43.2643
Pt 15.5585 33.3639 43.364
Pt 15.5116 35.361 41.3717
Au 13.6173 33.3975 45.324
Pt 15.5642 35.3609 45.0484
Au 15.2734 37.7525 7.49315
Au 13.2962 37.6391 9.50389
Pt 13.4982 39.4859 11.6167
Au 15.377 37.504 11.4202
Pt 15.5117 39.5233 9.62957
Au 13.4817 37.4898 13.4642
Au 13.4729 39.5045 15.4834
Au 15.4779 37.4506 15.5289
Pt 15.3769 39.5737 13.499
Au 13.5237 37.3883 17.5426
Au 13.51 39.3865 19.5196
Pt 15.5573 37.4382 19.4986
Au 15.5137 39.446 17.5453
Au 13.4928 37.345 21.4652
Au 13.5756 39.3215 23.4663
Au 15.5543 37.4415 23.4551
Pt 15.5744 39.4538 21.4771
Au 13.518 37.3098 25.4249
Au 13.5448 39.2557 27.4435
Pt 15.5047 37.4027 27.4458
Pt 15.5914 39.4686 25.4646
Pt 13.457 37.3414 29.4642
Au 13.4838 39.2898 31.4387
Pt 15.4625 37.3791 31.4666
Au 15.552 39.3407 29.4279
Pt 13.4138 37.3597 33.4535
Au 13.341 39.3468 35.4979
Au 15.4324 37.4396 35.4672
Au 15.4868 39.3469 33.4595
Pt 13.4323 37.3862 37.4665
Pt 13.4872 39.2094 39.3996
Pt 15.4568 37.3847 39.4753
Pt 15.4256 39.3482 37.524
Pt 13.5454 37.2537 41.3447
Pt 15.4902 37.3075 43.2254
Au 15.3003 39.4423 41.5061
Pt 15.522 41.4325 11.5959
Au 13.3242 41.5544 13.4199
Pt 13.5439 43.2415 15.6381
Pt 15.451 41.4046 15.5424
Pt 15.4872 43.2688 13.6378
Pt 13.4321 41.3951 17.5332
Pt 13.4852 43.2539 19.4877
Au 15.5382 41.4438 19.507
Pt 15.4318 43.366 17.5293
Au 13.5771 41.3479 21.5326
Pt 13.5382 43.386 23.5453
Pt 15.5617 41.5204 23.5073
Pt 15.4713 43.4264 21.5181
Au 13.584 41.3554 25.4768
Pt 13.5658 43.4345 27.3981
Au 15.5753 41.4393 27.4443
Pt 15.4768 43.474 25.4821
Au 13.5479 41.282 29.3941
Au 13.5287 43.2435 31.4256
Au 15.5586 41.3749 31.4325
Au 15.5242 43.4298 29.4184
Au 13.4316 41.3132 33.4794
Pt 13.4924 43.2382 35.2914
Au 15.4257 41.3551 35.4788
Pt 15.5473 43.3637 33.3952
Pt 13.4765 41.1795 37.3708
Au 15.2798 41.3728 39.5002
Au 15.2817 43.3868 37.4512
Au 15.4627 45.2954 15.5265
Au 13.4603 45.2758 17.578
Pt 15.3547 45.1965 19.5247
Pt 13.4638 45.1671 21.5228
Pt 15.4003 45.2806 23.5101
Au 13.4814 45.5493 25.4991
Pt 15.4897 45.3125 27.4455
Pt 13.4785 45.1812 29.4509
Pt 15.4364 45.2146 31.4309
Pt 13.49 45.0247 33.3127
Au 15.3765 45.2544 35.3545
Au 17.4892 7.40807 11.475
Pt 19.7122 5.74821 11.6503
Pt 19.6419 7.56687 9.66628
Au 17.6074 5.544 13.5837
Au 17.5307 7.4363 15.5229
Pt 19.6024 5.60152 15.5179
Au 19.5332 7.50842 13.5411
Au 17.5026 5.33975 17.5062
Pt 17.5214 7.40257 19.4598
Pt 19.4629 5.50708 19.5272
Pt 19.5219 7.31566 17.5432
Pt 17.4593 5.53824 21.4171
Pt 17.4735 7.36969 23.3961
Pt 19.3521 5.44226 23.3431
Pt 19.4582 7.34776 21.4605
Pt 17.4174 5.49313 25.3237
Au 17.4799 7.17799 27.4808
Au 19.3433 5.19674 27.5251
Pt 19.46 7.17421 25.4197
Pt 17.4559 5.59711 29.6924
Pt 17.4885 7.4661 31.6087
Pt 19.4152 5.556 31.6851
Pt 19.4976 7.25769 29.6119
Pt 17.5001 5.7097 33.6523
Pt 17.5131 7.71519 35.5601
Pt 19.5071 5.70711 35.5384
Pt 19.5086 7.49383 33.5126
Pt 17.0272 5.3396 36.3155
Pt 16.9922 7.07095 38.3275
Au 18.8758 5.013 38.2531
Pt 19.5795 7.53684 37.5285
Pt 18.8869 7.0997 40.1309
Pt 17.5058 11.5656 7.63654
Au 19.3154 9.33464 7.51789
Pt 19.556 11.5593 5.96125
Au 17.3855 9.4035 9.479
Pt 17.5145 11.4505 11.4049
Pt 19.4051 9.49715 11.4635
Pt 19.4483 11.4639 9.39844
Au 17.4632 9.42792 13.4594
Pt 17.4626 11.4371 15.4755
Au 19.5311 9.4405 15.5471
Pt 19.4116 11.4462 13.4729
Au 17.5612 9.45424 17.4956
Au 17.5142 11.4403 19.4465
Pt 19.4999 9.28043 19.4931
Pt 19.4507 11.4296 17.4822
Pt 17.534 9.3279 21.4216
Au 17.4725 11.4126 23.4255
Au 19.4689 9.27337 23.4891
Au 19.4898 11.3312 21.4696
Au 17.4924 9.25971 25.4919
Au 17.472 11.3508 27.5024
Au 19.4629 9.17436 27.4999
Au 19.4684 11.3115 25.4792
Au 17.5092 9.29676 29.5179
Pt 17.5177 11.4197 31.523
Pt 19.473 9.33607 31.5094
Au 19.4281 11.3555 29.5409
Pt 17.5304 9.43767 33.4919
Au 17.4735 11.5047 35.5633
Au 19.5093 9.50858 35.5129
Au 19.4492 11.4484 33.4626
Au 17.5329 9.60185 37.6184
Pt 17.4283 11.5396 39.6817
Pt 19.5416 9.64047 39.5078
Pt 19.4851 11.5665 37.5421
Pt 16.9843 9.00645 40.2831
Au 16.8344 10.7826 42.4686
Pt 19.0173 11.0177 44.0771
Au 19.5643 11.5567 41.5279
Pt 17.2959 14.8716 45.8158
Au 17.473 13.4575 5.63047
Pt 17.5169 15.4782 7.53171
Pt 19.5087 13.6042 7.5138
Au 19.419 15.4417 5.36825
Au 17.5326 13.4786 9.47303
Au 17.5239 15.4911 11.4404
Pt 19.4657 13.4826 11.4176
Pt 19.4986 15.5169 9.42968
Au 17.5215 13.4169 13.4332
Pt 17.4664 15.3999 15.3936
Au 19.4545 13.4121 15.4625
Pt 19.4425 15.4584 13.44
Pt 17.4539 13.4363 17.3851
Pt 17.4312 15.3986 19.3626
Au 19.4521 13.4558 19.4059
Pt 19.3825 15.4115 17.3748
Au 17.449 13.471 21.4314
Au 17.4555 15.4586 23.4562
Au 19.4772 13.3846 23.4786
Au 19.444 15.4381 21.4265
Au 17.4639 13.4495 25.4552
Au 17.4522 15.4288 27.5349
Au 19.4045 13.3996 27.5287
Pt 19.421 15.4302 25.485
Pt 17.4642 13.4536 29.6
Pt 17.397 15.3906 31.5404
Pt 19.3983 13.4331 31.5322
Pt 19.382 15.3832 29.5963
Au 17.4071 13.4249 33.512
Au 17.3949 15.3892 35.5675
Pt 19.4281 13.4599 35.4728
Pt 19.3892 15.3852 33.4803
Pt 17.4621 13.4662 37.6108
Au 17.511 15.5316 39.5597
Au 19.5288 13.5062 39.5244
Au 19.464 15.439 37.511
Au 17.5512 13.539 41.5887
Pt 17.7565 15.6436 43.4701
Au 19.6627 13.6697 43.5159
Au 19.6265 15.6424 41.5251
Pt 17.0724 12.9203 44.1533
Au 19.8189 15.6423 45.7915
Pt 17.4172 17.4551 5.6768
Pt 17.514 19.4668 7.39509
Au 19.5443 17.4292 7.31377
Pt 19.4836 19.4481 5.54588
Au 17.5659 17.4906 9.42147
Au 17.5146 19.3844 11.4482
Pt 19.5058 17.4637 11.424
Pt 19.5331 19.4265 9.28636
Pt 17.5002 17.3793 13.4305
Au 17.4896 19.3792 15.3847
Pt 19.4366 17.3742 15.4092
Pt 19.4661 19.3377 13.4197
Pt 17.4596 17.3507 17.3341
Au 17.4086 19.4618 19.4328
Au 19.3865 17.3917 19.379
Au 19.4288 19.424 17.3939
Au 17.4147 17.4271 21.4498
Au 17.4174 19.4273 23.4417
Pt 19.4094 17.4236 23.4435
Au 19.4231 19.4365 21.4491
Au 17.449 17.4301 25.4426
Au 17.4172 19.3992 27.5139
Au 19.3974 17.3757 27.5388
Au 19.4226 19.4245 25.4585
Pt 17.4074 17.3347 29.5939
Pt 17.3524 19.3048 31.5064
Pt 19.372 17.3154 31.5286
Au 19.3531 19.3558 29.5661
Au 17.3825 17.3477 33.5002
Au 17.4175 19.3503 35.5264
Au 19.4267 17.3965 35.5199
Au 19.3846 19.3705 33.4736
Pt 17.457 17.44 37.5645
Pt 17.5256 19.424 39.5409
Pt 19.4743 17.5467 39.5458
Pt 19.4294 19.4271 37.5517
Pt 17.5828 17.6111 41.5786
Pt 17.644 19.5843 43.6626
Pt 19.5915 17.5929 43.654