3871
Atoms. Timestep: 20134
Au 5.75919 7.6787 23.4079
Pt 7.86381 5.89721 23.4514
Pt 7.79736 7.71559 21.4966
Pt 6.1752 5.90306 25.4155
Pt 5.9799 7.71551 27.2979
Pt 7.88224 5.85039 27.3678
Au 7.83211 7.7552 25.3847
Pt 7.73237 7.68329 29.3033
Pt 5.93123 11.6104 19.5363
Pt 7.74648 9.62471 19.4859
Au 7.47656 11.3456 17.3354
Pt 5.9773 9.66092 21.4642
Au 5.48318 11.4911 23.3964
Pt 7.7116 9.6641 23.4265
Pt 7.6355 11.659 21.4914
Pt 5.86679 9.58934 25.3916
Pt 5.79019 11.5342 27.3942
Au 7.70809 9.65602 27.4291
Pt 7.52974 11.6672 25.3435
Au 5.65009 9.62506 29.3287
Pt 5.93927 11.6382 31.319
Au 7.48077 9.43613 31.4486
Pt 7.63208 11.5668 29.4036
Au 7.46789 11.4482 33.5146
Pt 5.8222 15.5895 15.6304
Au 7.45819 13.4107 15.3682
Pt 7.57703 15.5846 13.5707
Pt 5.90922 13.5695 17.5767
Pt 5.69269 15.4875 19.4508
Pt 7.63633 13.5526 19.5136
Pt 7.62441 15.5097 17.5131
Au 5.42078 13.5469 21.4037
Pt 5.63609 15.5468 23.3877
Pt 7.4175 13.5515 23.4041
Pt 7.49546 15.48 21.4276
Au 5.39199 13.5603 25.3894
Pt 5.61579 15.5265 27.3531
Au 7.43823 13.5752 27.4102
Pt 7.42764 15.5138 25.3803
Au 5.4501 13.5316 29.4217
Pt 5.69389 15.4729 31.464
Pt 7.57214 13.5741 31.4027
Pt 7.38567 15.5434 29.4009
Au 5.5964 13.5674 33.3683
Pt 5.86503 15.5756 35.2876
Pt 7.61597 13.5815 35.3084
Pt 7.60918 15.4954 33.3692
Au 7.44249 15.3824 37.4867
Pt 5.8779 19.5632 11.5773
Au 7.44126 17.3514 11.369
Pt 7.6567 19.5166 9.58985
Pt 5.84597 17.5855 13.561
Pt 5.65515 19.427 15.4973
Au 7.57921 17.5141 15.5455
Pt 7.5783 19.5111 13.5197
Pt 5.6646 17.4736 17.5162
Pt 5.57707 19.4745 19.5103
Au 7.47913 17.5058 19.4875
Au 7.44134 19.524 17.5265
Pt 5.61579 17.4573 21.4433
Au 5.22383 19.457 23.405
Pt 7.40543 17.5497 23.4218
Pt 7.35004 19.5209 21.4909
Pt 5.58263 17.4561 25.3692
Pt 5.52454 19.4489 27.319
Pt 7.37006 17.5087 27.3925
Pt 7.34082 19.4805 25.3454
Au 5.28336 17.4056 29.3596
Au 5.26517 19.4714 31.4443
Pt 7.36881 17.5161 31.3344
Au 7.24473 19.4405 29.4083
Pt 5.70983 17.4367 33.4225
Pt 5.71725 19.4336 35.3747
Pt 7.59557 17.4769 35.4201
Au 7.42718 19.4643 33.3243
Au 5.58424 17.4976 37.2936
Au 5.62805 19.4834 39.3113
Pt 7.62627 17.5489 39.2211
Pt 7.58134 19.4425 37.3305
Au 7.51498 19.3654 41.4341
Au 5.72915 23.4267 7.68434
Pt 7.73493 21.5104 7.70332
Au 7.75888 23.4195 5.67198
Pt 5.90668 21.5086 9.67888
Pt 5.71695 23.4028 11.5088
Pt 7.64553 21.4925 11.6325
Pt 7.69679 23.439 9.61585
Au 5.38573 21.4441 13.4823
Pt 5.56031 23.4736 15.5462
Au 7.39491 21.4775 15.466
Pt 7.39256 23.4689 13.5777
Pt 5.57453 21.4973 17.5334
Pt 5.48505 23.4706 19.5092
Pt 7.37203 21.5014 19.508
Au 7.38207 23.4705 17.5253
Pt 5.49617 21.4919 21.439
Pt 5.45788 23.4253 23.3819
Pt 7.30069 21.4404 23.4169
Pt 7.33569 23.4594 21.4542
Pt 5.48096 21.4575 25.3766
Pt 5.45302 23.412 27.3813
Au 7.30249 21.4586 27.3663
Pt 7.26694 23.4773 25.3946
Pt 5.4962 21.4753 29.3533
Pt 5.505 23.4074 31.3764
Pt 7.3158 21.4282 31.3462
Pt 7.2782 23.4497 29.3737
Pt 5.5938 21.4209 33.4229
Au 5.34432 23.3505 35.4071
Pt 7.49892 21.4624 35.3804
Au 7.33314 23.4242 33.3882
Pt 5.72132 21.3797 37.3448
Au 5.46906 23.4166 39.3561
Au 7.57568 21.4206 39.2763
Pt 7.43461 23.4445 37.337
Pt 5.94394 21.5543 41.2656
Pt 5.95587 23.526 43.095
Pt 7.73014 21.5566 43.246
Pt 7.71753 23.4795 41.1627
Au 7.69639 23.4675 45.243
Au 5.94826 25.4797 5.82994
Pt 5.93339 27.3315 7.73491
Pt 7.76972 25.366 7.719
Pt 7.82986 27.3751 5.89252
Pt 5.81424 25.3832 9.58778
Pt 5.70041 27.3737 11.5449
Au 7.5064 25.4024 11.6625
Au 7.61882 27.4116 9.6786
Au 5.31782 25.4249 13.5525
Pt 5.52995 27.4064 15.5592
Pt 7.3717 25.4597 15.5126
Pt 7.39245 27.3858 13.6031
Pt 5.53249 25.4474 17.4956
Pt 5.45005 27.3874 19.4154
Pt 7.34294 25.4439 19.4835
Pt 7.38201 27.4046 17.5034
Pt 5.46719 25.4235 21.4237
Pt 5.44458 27.3656 23.3639
Pt 7.23341 25.4072 23.4402
Pt 7.24742 27.4478 21.407
Au 5.15973 25.4048 25.3942
Pt 5.43814 27.401 27.4577
Pt 7.19188 25.4145 27.4021
Pt 7.15331 27.3919 25.4134
Au 5.16103 25.3645 29.3857
Au 5.20348 27.4578 31.4602
Pt 7.20334 25.4544 31.3017
Pt 7.17659 27.4008 29.4668
Pt 5.57556 25.4203 33.3624
Au 5.35476 27.5108 35.3831
Au 7.29392 25.4298 35.4182
Pt 7.30981 27.4448 33.3551
Au 5.39114 25.5103 37.458
Pt 5.78736 27.4746 39.3735
Pt 7.55361 25.4015 39.2268
Pt 7.50675 27.4154 37.3183
Pt 5.80167 25.4328 41.2476
Pt 5.90385 27.3655 43.0145
Pt 7.83143 25.4198 43.0711
Pt 7.7284 27.4154 41.188
Pt 5.98083 25.4667 44.7513
Pt 7.71539 27.3614 44.9605
Pt 7.69489 29.3462 7.7442
Au 5.63543 29.373 9.61326
Au 5.62485 31.4583 11.5643
Pt 7.51747 29.4 11.6158
Pt 7.64151 31.3336 9.68041
Au 5.3985 29.3705 13.5439
Pt 5.67381 31.4508 15.4893
Pt 7.41617 29.3661 15.5005
Au 7.51858 31.3485 13.5152
Pt 5.55087 29.372 17.455
Pt 5.52604 31.397 19.3435
Pt 7.31866 29.3754 19.4664
Au 7.43991 31.3535 17.4747
Au 5.17075 29.374 21.3431
Au 5.16724 31.4261 23.3826
Pt 7.10871 29.4344 23.409
Pt 7.23407 31.3016 21.4097
Au 5.14549 29.3519 25.4329
Pt 5.43654 31.3865 27.5281
Au 7.19971 29.3955 27.4175
Pt 7.16299 31.3076 25.4349
Pt 5.46554 29.4553 29.4796
Pt 5.53356 31.4191 31.4583
Pt 7.3211 29.4053 31.3843
Pt 7.33854 31.3945 29.4506
Pt 5.57139 29.4543 33.3957
Au 5.37588 31.4055 35.4685
Pt 7.41559 29.4159 35.3733
Au 7.40762 31.3795 33.4311
Pt 5.72595 29.4316 37.4272
Pt 5.89149 31.3404 39.2421
Pt 7.67185 29.3976 39.3106
Pt 7.62869 31.3666 37.2995
Au 5.65288 29.4379 41.2428
Pt 7.70576 29.3346 43.1446
Pt 7.65655 31.3225 41.2462
Pt 7.64554 33.3717 11.5625
Pt 5.89277 33.4002 13.5883
Pt 5.88361 35.3021 15.5249
Pt 7.63574 33.3624 15.5351
Pt 7.6702 35.3677 13.5337
Pt 5.65023 33.3999 17.4257
Pt 5.68262 35.345 19.3217
Pt 7.4525 33.3239 19.4164
Pt 7.60691 35.337 17.4776
Pt 5.54907 33.3494 21.2771
Au 5.26217 35.3721 23.4755
Au 7.19767 33.3225 23.4381
Au 7.30896 35.3776 21.4554
Pt 5.46917 33.3559 25.5127
Pt 5.53661 35.3272 27.4417
Au 7.30779 33.3206 27.4435
Au 7.31265 35.354 25.419
Pt 5.51203 33.3594 29.5076
Pt 5.64557 35.345 31.5612
Pt 7.44328 33.3355 31.4204
Au 7.34258 35.3527 29.4483
Pt 5.65233 33.3965 33.4502
Pt 5.84411 35.3011 35.3434
Pt 7.57679 33.3294 35.3603
Pt 7.61468 35.3064 33.4141
Pt 5.87877 33.3246 37.3388
Pt 7.66069 33.3483 39.31
Pt 7.65202 35.3258 37.3209
Pt 7.66569 37.3223 15.5354
Au 5.6515 37.3228 17.397
Au 5.65798 39.3647 19.374
Pt 7.51623 37.3431 19.4274
Pt 7.66413 39.3131 17.5167
Au 5.38803 37.3828 21.3846
Pt 5.73367 39.3669 23.4844
Pt 7.39529 37.2777 23.4299
Au 7.47452 39.2515 21.4319
Pt 5.58716 37.3989 25.4392
Au 5.41168 39.3453 27.4091
Pt 7.36233 37.3168 27.4615
Au 7.50405 39.2503 25.5007
Au 5.36303 37.3137 29.5445
Pt 5.88836 39.2019 31.5124
Pt 7.59746 37.2721 31.457
Au 7.46959 39.241 29.4158
Pt 5.83699 37.2556 33.4235
Pt 7.62917 37.3035 35.3753
Pt 7.63697 39.2724 33.4773
Pt 7.68967 41.2388 19.5597
Au 5.66974 41.3322 21.5266
Pt 5.96661 43.1671 23.5444
Pt 7.70294 41.2035 23.4525
Pt 7.73877 43.1708 21.5433
Pt 5.80077 41.2995 25.4096
Au 5.6785 43.1976 27.373
Pt 7.57073 41.2476 27.5128
Pt 7.81249 43.0625 25.4922
Au 5.65634 41.232 29.5301
Pt 7.69097 41.1845 31.4481
Au 7.50844 43.2932 29.5559
Pt 7.85587 45.0313 23.5068
Pt 6.16318 44.934 25.424
Pt 7.80396 44.9447 27.4118
Pt 9.68937 7.67565 19.5109
Pt 11.6616 5.8342 19.4881
Pt 11.6133 7.6716 17.5453
Pt 9.75528 5.8543 21.4781
Au 9.77636 7.67139 23.4571
Pt 11.6273 5.67033 23.4174
Au 11.6715 7.63251 21.4328
Pt 9.66966 5.71908 25.4164
Pt 9.74522 7.64704 27.3658
Au 11.6073 5.36205 27.397
Pt 11.6783 7.48971 25.4811
Pt 9.74717 5.86783 29.3184
Au 9.44173 7.42623 31.5213
Pt 11.6223 5.88449 31.3161
Pt 11.6206 7.61982 29.34
Pt 11.5565 7.63561 33.3315
Pt 9.62209 11.5384 15.6207
Au 11.4137 9.40963 15.4019
Au 11.4709 11.3486 13.3849
Pt 9.65784 9.59609 17.5708
Pt 9.51338 11.5876 19.4146
Pt 11.5918 9.61905 19.4406
Pt 11.5633 11.475 17.4379
Au 9.6377 9.66655 21.4273
Pt 9.5439 11.6495 23.3903
Au 11.6628 9.65304 23.4702
Pt 11.534 11.6227 21.3721
Pt 9.64058 9.6864 25.4131
Au 9.55062 11.6284 27.4159
Au 11.6049 9.57412 27.4026
Au 11.6162 11.5993 25.4233
Pt 9.55856 9.51386 29.5102
Pt 9.38337 11.4993 31.4585
Pt 11.4636 9.43561 31.3694
Au 11.449 11.5225 29.455
Pt 9.59515 9.56358 33.2844
Au 9.42319 11.3905 35.49
Pt 11.5874 9.56431 35.3132
Au 11.4007 11.5021 33.4155
Au 11.3784 11.3917 37.4855
Pt 9.5796 15.5953 11.5395
Au 11.4645 13.374 11.3528
Au 11.3972 15.3496 9.38137
Au 9.45811 13.439 13.3591
Au 9.47893 15.39 15.4329
Au 11.4747 13.4142 15.3915
Pt 11.5171 15.4005 13.4097
Pt 9.41681 13.4282 17.462
Au 9.55566 15.4789 19.4618
Pt 11.4953 13.4527 19.3837
Au 11.4844 15.4104 17.4011
Pt 9.51642 13.5617 21.4703
Pt 9.3743 15.5242 23.4155
Au 11.5324 13.5572 23.4113
Pt 11.5067 15.4245 21.4353
Au 9.46424 13.5976 25.3847
Pt 9.35196 15.56 27.3942
Au 11.5174 13.5781 27.4405
Au 11.4938 15.5349 25.4272
Pt 9.38921 13.6148 29.3982
Au 9.43287 15.5435 31.3825
Au 11.4018 13.5127 31.3981
Au 11.4794 15.5352 29.394
Pt 9.43239 13.4457 33.423
Pt 9.45236 15.4965 35.4273
Pt 11.3709 13.4159 35.462
Au 11.4265 15.4551 33.4495
Pt 9.49642 13.5716 37.3184
Pt 9.55579 15.5563 39.2728
Au 11.3432 13.3938 39.4877
Au 11.4715 15.4044 37.4244
Pt 11.5825 15.5734 41.261
Pt 9.60937 19.5214 7.65208
Au 11.3758 17.3381 7.43591
Pt 11.6109 19.5005 5.86124
Pt 9.57566 17.5763 9.58901
Pt 9.49341 19.4102 11.5259
Au 11.5191 17.4152 11.4415
Pt 11.5628 19.3848 9.46796
Au 9.47743 17.4646 13.4319
Au 9.53569 19.4735 15.5005
Au 11.498 17.4165 15.4119
Pt 11.5667 19.3436 13.4346
Pt 9.46 17.5117 17.5278
Pt 9.3355 19.5599 19.5595
Au 11.4665 17.4936 19.4621
Au 11.4677 19.4854 17.5176
Au 9.43116 17.4892 21.4648
Au 9.38899 19.5126 23.4241
Au 11.4477 17.4566 23.4196
Au 11.4042 19.5511 21.4151
Au 9.36462 17.5021 25.4216
Pt 9.26594 19.4905 27.395
Au 11.4246 17.5142 27.4073
Pt 11.36 19.4442 25.4578
Au 9.3575 17.5124 29.3644
Pt 9.31314 19.4926 31.3286
Au 11.4398 17.4778 31.4134
Au 11.3409 19.4999 29.3997
Pt 9.39165 17.4919 33.3696
Au 9.46364 19.4658 35.3612
Au 11.4796 17.4548 35.4109
Au 11.4291 19.4447 33.364
Pt 9.4936 17.4343 37.3543
Pt 9.48471 19.4266 39.3738
Au 11.4542 17.488 39.3794
Pt 11.4372 19.4306 37.3772
Au 9.44624 17.3584 41.422
Pt 9.67746 19.5446 43.2464
Pt 11.6015 17.5353 43.2133
Au 11.5403 19.4614 41.3394
Au 11.5674 19.4425 45.2432
Pt 9.71333 21.4782 5.86743
Pt 9.64152 23.4283 7.66171
Pt 11.6008 21.4378 7.66254
Pt 11.5209 23.3997 5.72567
Au 9.60791 21.4147 9.61726
Au 9.58647 23.4707 11.5937
Au 11.5795 21.3866 11.5253
Pt 11.5759 23.4452 9.49364
Au 9.54495 21.4757 13.5606
Pt 9.35036 23.5013 15.5507
Au 11.5585 21.4124 15.4669
Au 11.5438 23.48 13.5673
Au 9.42268 21.5032 17.5204
Pt 9.313 23.4705 19.5431
Pt 11.3723 21.5032 19.4946
Au 11.4355 23.445 17.4769
Pt 9.28558 21.5066 21.4791
Au 9.29352 23.4511 23.4415
Pt 11.3411 21.4526 23.4264
Au 11.3534 23.4369 21.4428
Au 9.34136 21.4558 25.4225
Au 9.28595 23.4668 27.4087
Pt 11.3031 21.4009 27.4342
Au 11.3251 23.4779 25.4452
Pt 9.23858 21.4433 29.3465
Au 9.27618 23.4243 31.3379
Pt 11.3569 21.4292 31.3564
Au 11.3236 23.3976 29.4151
Au 9.39621 21.4699 33.3357
Pt 9.38375 23.4561 35.4114
Au 11.4519 21.4435 35.3913
Au 11.4074 23.4447 33.3815
Pt 9.48626 21.4517 37.3363
Pt 9.51769 23.415 39.1959
Pt 11.4701 21.4045 39.266
Pt 11.4535 23.4041 37.3025
Au 9.55852 21.4102 41.2929
Au 9.66403 23.4386 43.265
Pt 11.6982 21.4581 43.3309
Au 11.6055 23.3739 41.271
Pt 9.73056 21.5221 45.027
Pt 11.5956 23.4647 45.2132
Pt 9.63161 25.4285 5.78075
Pt 9.63982 27.4043 7.73322
Au 11.5681 25.4363 7.59245
Pt 11.4806 27.4732 5.72684
Pt 9.58636 25.4446 9.63537
Pt 9.50216 27.4046 11.6122
Au 11.5702 25.4893 11.5271
Pt 11.583 27.4493 9.55048
Au 9.46301 25.4669 13.6153
Pt 9.37718 27.4121 15.5627
Au 11.4787 25.4946 15.5417
Pt 11.498 27.43 13.5498
Au 9.38436 25.4493 17.4929
Au 9.36031 27.4447 19.4747
Au 11.4075 25.4631 19.4514
Pt 11.4514 27.4726 17.5016
Au 9.28604 25.4946 21.4783
Pt 9.08993 27.4436 23.4179
Au 11.3104 25.5302 23.3974
Pt 11.3692 27.4705 21.3621
Au 9.22465 25.4857 25.4183
Au 9.18229 27.4051 27.4491
Pt 11.2798 25.4586 27.4726
Au 11.2802 27.4227 25.4837
Au 9.24069 25.4363 29.3943
Au 9.2676 27.4159 31.3787
Au 11.3984 25.4296 31.4138
Au 11.3275 27.4367 29.4054
Au 9.29852 25.4137 33.3743
Au 9.3986 27.3869 35.3469
Pt 11.4459 25.3697 35.3665
Au 11.4451 27.3769 33.4147
Pt 9.47504 25.3912 37.3004
Au 9.61827 27.4094 39.2487
Pt 11.5149 25.3609 39.2008
Au 11.5187 27.3969 37.2728
Au 9.7107 25.4273 41.1777
Au 9.67413 27.446 43.249
Au 11.6656 25.4317 43.3678
Pt 11.6436 27.435 41.3662
Pt 9.60252 25.4342 45.1066
Pt 11.61 27.4316 45.1933
Pt 9.6291 29.3605 5.89095
Pt 9.54692 31.3325 7.7029
Pt 11.5492 29.3922 7.68653
Pt 11.4912 31.2987 5.87285
Au 9.56069 29.4221 9.67022
Pt 9.53764 31.4197 11.5704
Au 11.5613 29.3842 11.5644
Pt 11.5168 31.3778 9.54798
Au 9.46683 29.3307 13.5453
Au 9.51616 31.3857 15.5106
Au 11.4946 29.3795 15.4932
Au 11.5134 31.4408 13.4885
Au 9.4192 29.3863 17.492
Pt 9.36902 31.3346 19.453
Pt 11.4225 29.4299 19.4283
Pt 11.4732 31.4009 17.4964
Au 9.27449 29.3933 21.4656
Au 9.20227 31.365 23.4656
Au 11.2746 29.3565 23.4418
Au 11.3677 31.3824 21.4195
Au 9.16939 29.3636 25.4031
Pt 9.20718 31.349 27.4376
Au 11.2561 29.4327 27.4601
Au 11.2652 31.4063 25.4708
Pt 9.18871 29.3922 29.3945
Pt 9.31021 31.347 31.4024
Au 11.3551 29.4251 31.3773
Pt 11.2958 31.3681 29.4143
Au 9.37807 29.3878 33.394
Pt 9.47965 31.3946 35.3619
Pt 11.4903 29.4395 35.3416
Au 11.4354 31.3993 33.4024
Au 9.55773 29.4273 37.3049
Au 9.57843 31.4457 39.3947
Pt 11.553 29.4712 39.3724
Pt 11.4994 31.4514 37.3769
Pt 9.62321 29.3914 41.2636
Pt 9.62614 31.2573 43.1821
Au 11.6221 29.3799 43.3093
Au 11.5486 31.5079 41.4058
Au 9.5974 29.399 45.2456
Pt 11.6447 31.3213 45.0197
Pt 11.4668 33.2741 7.66566
Pt 9.53369 33.3054 9.59188
Pt 9.54721 35.3357 11.6077
Au 11.4838 33.4449 11.4505
Au 11.2924 35.5096 9.44923
Pt 9.48759 33.3942 13.5037
Au 9.54034 35.3602 15.4834
Pt 11.4898 33.3801 15.5107
Au 11.5046 35.3936 13.4801
Pt 9.46706 33.3218 17.5414
Au 9.43838 35.3219 19.5114
Pt 11.4354 33.3389 19.4697
Au 11.4786 35.337 17.5134
Au 9.3083 33.3016 21.436
Au 9.35906 35.3206 23.4325
Au 11.3568 33.3544 23.4471
Pt 11.4005 35.31 21.4435
Pt 9.22842 33.3162 25.4733
Au 9.36991 35.3154 27.4107
Pt 11.3199 33.3167 27.4455
Au 11.3745 35.3111 25.4432
Au 9.38283 33.3223 29.4102
Au 9.49565 35.3017 31.4254
Au 11.4402 33.3262 31.4217
Pt 11.4564 35.3229 29.4422
Pt 9.45689 33.3195 33.3886
Au 9.53536 35.3569 35.3812
Pt 11.4858 33.4079 35.3883
Pt 11.4696 35.3741 33.4328
Au 9.54013 33.3739 37.373
Pt 9.6048 35.3159 39.3055
Pt 11.5192 33.4312 39.4295
Au 11.518 35.3876 37.4152
Au 9.43714 33.5171 41.4564
Au 11.4862 33.5318 43.4294
Pt 11.6089 35.3626 41.291
Pt 11.4813 37.4155 11.6585
Pt 9.56646 37.3716 13.5941
Pt 9.5609 39.3692 15.573
Au 11.5082 37.4529 15.4847
Pt 11.5095 39.4194 13.5955
Au 9.52028 37.3908 17.4925
Pt 9.53636 39.3228 19.4825
Au 11.4866 37.3411 19.5169
Pt 11.4809 39.4072 17.5154
Pt 9.42193 37.3151 21.4228
Pt 9.43334 39.1503 23.4176
Pt 11.4034 37.2411 23.3719
Pt 11.4795 39.2805 21.4558
Pt 9.3652 37.2722 25.4276
Pt 9.44268 39.2318 27.4693
Au 11.4539 37.3028 27.4688
Au 11.4697 39.1411 25.4033
Au 9.45877 37.2894 29.4187
Pt 9.48223 39.2498 31.4702
Au 11.479 37.3485 31.4428
Pt 11.4145 39.2816 29.4645
Pt 9.50284 37.3236 33.4373
Pt 9.56361 39.2395 35.3768
Pt 11.466 37.3827 35.462
Pt 11.4319 39.3346 33.4725
Pt 9.55427 37.2686 37.3555
Pt 11.5592 37.2917 39.3744
Au 11.3441 39.4028 37.5696
Pt 11.5158 41.3258 15.5999
Pt 9.57959 41.2838 17.5695
Pt 9.61761 43.1889 19.5584
Pt 11.5215 41.3592 19.4509
Au 11.3746 43.4104 17.4051
Au 9.6 41.2179 21.4707
Au 9.69637 43.1945 23.521
Au 11.5958 41.2248 23.5045
Pt 11.6088 43.1905 21.5244
Au 9.61453 41.1361 25.4809
Pt 9.62641 43.124 27.4652
Au 11.5575 41.2072 27.4384
Pt 11.6353 43.3603 25.5068
Pt 9.47185 41.2532 29.4661
Pt 9.59492 43.1672 31.3688
Au 11.4605 41.2388 31.4292
Au 11.5796 43.2096 29.3835
Pt 9.54315 41.2181 33.3924
Au 11.3546 41.4317 35.5048
Pt 11.4985 43.2043 33.3274
Pt 11.6043 45.0066 19.622
Pt 9.7136 44.9969 21.5601
Pt 11.5652 45.1773 23.4793
Pt 9.61125 45.1147 25.4825
Pt 11.509 45.1679 27.4682
Pt 9.65333 44.9703 29.3606
Pt 11.5765 44.9996 31.3401
Pt 13.5248 7.66159 15.6029
Pt 15.4738 5.82837 15.615
Au 15.3907 7.47798 13.4507
Pt 13.5626 5.82496 17.591
Pt 13.6012 7.65889 19.4721
Pt 15.4976 5.63441 19.447
Au 15.5569 7.55271 17.5143
Pt 13.5711 5.65923 21.3777
Au 13.6201 7.45766 23.4416
Pt 15.5369 5.53043 23.3248
Pt 15.5682 7.46796 21.4034
Pt 13.5751 5.55814 25.3692
Pt 13.574 7.35401 27.399
Au 15.4796 5.25369 27.4046
Pt 15.5624 7.29978 25.4106
Pt 13.497 5.66294 29.4685
Pt 13.563 7.64185 31.3657
Pt 15.4884 5.64778 31.4695
Au 15.5416 7.35621 29.3888
Pt 13.528 5.84771 33.2726
Pt 13.5595 7.62881 35.282
Au 15.4853 5.56875 35.3239
Au 15.5417 7.54072 33.3902
Pt 15.5048 7.59939 37.231
Pt 13.6084 11.4996 11.4839
Pt 15.5573 9.6102 11.5332
Pt 15.5508 11.5341 9.51203
Pt 13.6012 9.56885 13.5752
Pt 13.4522 11.4278 15.4727
Pt 15.4997 9.48595 15.4857
Au 15.4956 11.4536 13.4789
Pt 13.5245 9.55663 17.4598
Au 13.5661 11.5381 19.407
Pt 15.5752 9.49991 19.4294
Pt 15.5029 11.4673 17.4026
Au 13.6216 9.59807 21.4397
Pt 13.5998 11.5913 23.367
Au 15.5845 9.43064 23.4145
Pt 15.5577 11.5029 21.3689
Au 13.6409 9.44744 25.474
Pt 13.5935 11.4653 27.4206
Pt 15.5847 9.24107 27.4033
Au 15.532 11.4494 25.4391
Au 13.5991 9.49421 29.3399
Au 13.4753 11.4663 31.3986
Au 15.6012 9.49756 31.3973
Au 15.5965 11.4505 29.3965
Au 13.4829 9.54905 33.3829
Au 13.4137 11.5319 35.4799
Au 15.4884 9.56608 35.3753
Pt 15.5485 11.4573 33.3975
Pt 13.5399 9.55154 37.2941
Pt 13.4933 11.5073 39.2545
Pt 15.4529 9.48941 39.1965
Pt 15.469 11.4953 37.4464
Au 15.1525 11.2817 41.3188
Pt 13.5744 15.5174 7.59948
Pt 15.5541 13.5399 7.58347
Pt 15.5247 15.564 5.81911
Pt 13.6371 13.4972 9.46805
Au 13.4342 15.4039 11.3688
Au 15.4921 13.4367 11.4245
Pt 15.5307 15.4846 9.44676
Au 13.4239 13.3841 13.4186
Pt 13.5086 15.4152 15.4113
Pt 15.4741 13.4118 15.4298
Au 15.4524 15.4207 13.4324
Pt 13.5157 13.4169 17.3844
Au 13.4882 15.4213 19.4053
Pt 15.5141 13.4574 19.3441
Au 15.4805 15.4132 17.3618
Au 13.5595 13.5065 21.411
Pt 13.5118 15.4916 23.3916
Pt 15.488 13.5276 23.4027
Pt 15.4873 15.4539 21.4091
Au 13.5682 13.5305 25.4283
Pt 13.4893 15.5709 27.4285
Au 15.5213 13.4875 27.4643
Au 15.4463 15.5262 25.4197
Au 13.4956 13.4979 29.4142
Pt 13.4642 15.5103 31.4278
Au 15.4958 13.4512 31.421
Au 15.4457 15.4999 29.4701
Au 13.4508 13.4627 33.4162
Au 13.453 15.4374 35.4678
Au 15.4556 13.4414 35.4769
Au 15.4233 15.487 33.4328
Pt 13.407 13.4278 37.5062
Au 13.5007 15.4426 39.4195
Pt 15.4629 13.4222 39.5036
Au 15.4792 15.4445 37.4993
Pt 13.468 13.5286 41.2576
Pt 13.5223 15.4966 43.1953
Pt 15.2725 13.4535 43.1778
Pt 15.5399 15.5088 41.4594
Pt 15.5321 15.4538 44.9409
Pt 13.5947 17.5364 5.84033
Pt 13.5488 19.4338 7.61623
Pt 15.5204 17.496 7.59952
Pt 15.4562 19.3934 5.63275
Pt 13.4402 17.4058 9.42273
Au 13.5695 19.3782 11.4564
Pt 15.4678 17.4069 11.4202
Pt 15.5361 19.4155 9.43146
Pt 13.5067 17.3752 13.4149
Pt 13.5462 19.3435 15.3659
Pt 15.5007 17.3671 15.3759
Pt 15.5165 19.3111 13.4495
Au 13.4845 17.449 17.3844
Au 13.498 19.5154 19.4828
Au 15.492 17.4292 19.4073
Au 15.4844 19.4162 17.3808
Au 13.4919 17.4476 21.4412
Au 13.3895 19.4841 23.4162
Pt 15.4127 17.4539 23.4251
Pt 15.4234 19.461 21.4689
Pt 13.4137 17.5108 25.3978
Pt 13.3538 19.4656 27.4294
Au 15.4141 17.4891 27.4561
Au 15.379 19.4386 25.4284
Pt 13.44 17.5256 29.426
Au 13.4367 19.4313 31.4225
Pt 15.4435 17.417 31.4322
Au 15.4392 19.4209 29.4772
Pt 13.4615 17.4534 33.4365
Pt 13.4558 19.3986 35.4634
Pt 15.4328 17.4331 35.5008
Au 15.422 19.375 33.4501
Pt 13.4568 17.4545 37.465
Pt 13.5186 19.4256 39.3892
Pt 15.528 17.4554 39.4802
Au 15.4838 19.371 37.4736
Au 13.5745 17.5106 41.4048
Pt 13.5912 19.5392 43.3863
Au 15.6043 17.5565 43.4035
Pt 15.5676 19.4794 41.4737
Pt 13.5629 17.466 44.9646
Au 15.431 19.4696 45.5274
Pt 13.4672 21.3424 5.69538
Au 13.5882 23.4163 7.41566
Pt 15.5663 21.4093 7.35637
Au 15.4348 23.3472 5.29074
Au 13.6143 21.4511 9.48236
Au 13.5899 23.4748 11.4847
Au 15.5587 21.4364 11.4764
Au 15.6278 23.464 9.33685
Au 13.5708 21.4059 13.4736
Au 13.5619 23.4968 15.4927
Au 15.5012 21.4523 15.3971
Pt 15.5995 23.5367 13.4149
Au 13.5117 21.4352 17.4472
Au 13.4204 23.4372 19.4421
Pt 15.4221 21.489 19.461
Pt 15.4308 23.4829 17.4894
Pt 13.3923 21.4793 21.426
Au 13.3283 23.4725 23.4139
Au 15.375 21.4603 23.4194
Au 15.3814 23.465 21.4336
Au 13.301 21.4295 25.4472
Au 13.3124 23.4369 27.4438
Au 15.3746 21.4229 27.4488
Au 15.3568 23.4571 25.4393
Au 13.3756 21.4389 29.4465
Pt 13.3883 23.4455 31.4365
Pt 15.399 21.4062 31.4722
Au 15.3726 23.4236 29.5005
Au 13.425 21.4395 33.3988
Pt 13.4209 23.4279 35.3941
Au 15.4594 21.4034 35.4462
Au 15.4111 23.4217 33.4202
Au 13.4588 21.3997 37.3985
Pt 13.4593 23.3768 39.3035
Au 15.5329 21.4074 39.4268
Au 15.5087 23.3986 37.4007
Au 13.5967 21.4358 41.3819
Pt 13.6066 23.4479 43.4653
Pt 15.5548 21.467 43.6038
Au 15.54 23.4322 41.5281
Au 13.4909 21.5162 45.5224
Pt 15.4973 23.4964 45.3604
Pt 13.3981 25.5107 5.66362
Pt 13.5167 27.4711 7.51585
Au 15.569 25.4143 7.23631
Pt 15.3763 27.5366 5.56917
Au 13.6161 25.4631 9.43792
Au 13.5939 27.4743 11.4726
Au 15.6188 25.5225 11.3792
Pt 15.5926 27.4668 9.29036
Au 13.587 25.4946 13.4668
Au 13.5259 27.4673 15.4586
Au 15.5295 25.4783 15.4319
Pt 15.5867 27.4954 13.3879
Pt 13.4352 25.5148 17.4929
Pt 13.3998 27.4898 19.4136
Au 15.3942 25.4702 19.4346
Au 15.4361 27.4891 17.4647
Pt 13.3511 25.4726 21.3576
Au 13.3487 27.4353 23.4172
Au 15.3551 25.4666 23.4298
Au 15.3694 27.4649 21.4103
Au 13.322 25.4934 25.4979
Pt 13.3483 27.4888 27.4732
Au 15.368 25.4655 27.4675
Au 15.3769 27.4754 25.5076
Au 13.3493 25.4564 29.4196
Pt 13.4005 27.4377 31.4368
Au 15.3627 25.4581 31.4619
Au 15.3751 27.487 29.4309
Pt 13.4374 25.4022 33.437
Pt 13.4545 27.3848 35.3658
Au 15.4657 25.4261 35.3892
Pt 15.3895 27.4101 33.4381
Au 13.4853 25.3792 37.3443
Au 13.4732 27.4353 39.3816
Au 15.5192 25.4218 39.4145
Au 15.4934 27.4278 37.3853
Au 13.5518 25.3945 41.3653
Pt 13.6127 27.4107 43.4274
Pt 15.5207 25.4646 43.5055
Au 15.5263 27.4301 41.4431
Pt 13.5723 25.4446 45.3261
Pt 15.4824 27.4243 45.3894
Pt 13.3919 29.4207 5.68661
Pt 13.5041 31.3687 7.5294
Pt 15.4702 29.4573 7.41138
Au 15.3807 31.3729 5.34975
Pt 13.5612 29.4241 9.44672
Au 13.5385 31.4064 11.459
Au 15.5624 29.425 11.3675
Pt 15.5034 31.3975 9.34983
Pt 13.5508 29.4438 13.4889
Au 13.4781 31.4223 15.4712
Pt 15.4401 29.4696 15.4649
Au 15.5131 31.4505 13.4635
Pt 13.4227 29.4507 17.4653
Pt 13.3902 31.4041 19.4145
Pt 15.3334 29.4503 19.4182
Pt 15.3775 31.4159 17.4498
Au 13.3658 29.431 21.415
Au 13.3754 31.4231 23.4917
Au 15.4041 29.4696 23.4826
Au 15.3921 31.4135 21.448
Au 13.36 29.4214 25.489
Au 13.3518 31.4181 27.4258
Pt 15.3903 29.4783 27.4697
Pt 15.4152 31.4056 25.4932
Au 13.3632 29.4524 29.4339
Pt 13.4288 31.4347 31.4559
Au 15.395 29.4376 31.4615
Au 15.4113 31.425 29.4695
Au 13.4363 29.4042 33.4106
Au 13.4551 31.46 35.4185
Au 15.4528 29.4417 35.4046
Pt 15.4321 31.4289 33.4405
Au 13.4619 29.4445 37.3659
Au 13.5118 31.4549 39.3882
Au 15.5064 29.4237 39.3958
Pt 15.4666 31.4618 37.4028
Pt 13.5738 29.4474 41.438
Au 13.5855 31.4633 43.3577
Pt 15.526 29.3821 43.4681
Au 15.545 31.4075 41.4178
Pt 13.5674 29.3945 45.2513
Pt 15.4687 31.3721 45.2681
Au 13.3454 33.3852 5.64939
Pt 13.3728 35.293 7.59442
Au 15.4678 33.3469 7.37831
Pt 15.5444 35.5452 6.0442
Au 13.4654 33.4137 9.44107
Au 13.4009 35.5028 11.3652
Au 15.4766 33.4367 11.4138
Au 15.3827 35.5486 9.26973
Pt 13.4874 33.4013 13.4874
Au 13.5056 35.3812 15.4854
Pt 15.4505 33.3829 15.5006
Au 15.4384 35.3774 13.4502
Au 13.4601 33.3982 17.4964
Pt 13.4488 35.3584 19.4939
Au 15.4252 33.4094 19.4655
Pt 15.474 35.3867 17.5074
Pt 13.3935 33.3586 21.3959
Au 13.4058 35.3084 23.4219
Au 15.4202 33.3564 23.4827
Au 15.4583 35.3987 21.4476
Pt 13.364 33.3615 25.4753
Au 13.4226 35.3518 27.4485
Au 15.4185 33.3901 27.4181
Au 15.4745 35.3837 25.4463
Au 13.3915 33.3603 29.4388
Au 13.4517 35.3838 31.4476
Pt 15.4033 33.4275 31.4988
Au 15.441 35.4367 29.4516
Pt 13.4535 33.3963 33.4393
Au 13.4653 35.4071 35.4146
Au 15.465 33.4192 35.4214
Au 15.4633 35.4406 33.4157
Pt 13.4869 33.4271 37.4318
Au 13.5206 35.3825 39.3967
Pt 15.5057 33.4461 39.4198
Pt 15.4463 35.4514 37.4616
Pt 13.5494 33.4454 41.3965
Pt 13.596 35.3349 43.2538
Pt 15.5606 33.3863 43.3573
Pt 15.5158 35.3796 41.3616
Au 13.6163 33.4254 45.3171
Pt 15.5659 35.3835 45.0408
Au 15.2663 37.7629 7.49647
Au 13.2873 37.6412 9.50618
Pt 13.4943 39.4891 11.617
Au 15.3709 37.5064 11.4183
Pt 15.5086 39.5295 9.63118
Au 13.4758 37.4921 13.463
Au 13.4709 39.5071 15.4812
Au 15.4739 37.4529 15.5262
Pt 15.3751 39.5755 13.4971
Au 13.5202 37.3915 17.5408
Au 13.5101 39.3911 19.5163
Pt 15.5564 37.4421 19.494
Au 15.5135 39.4488 17.5417
Au 13.4915 37.3501 21.4612
Au 13.5785 39.3289 23.4601
Au 15.5557 37.4473 23.4482
Pt 15.5774 39.4591 21.4713
Au 13.5186 37.3169 25.4168
Au 13.5488 39.2651 27.4338
Pt 15.5079 37.4106 27.4357
Pt 15.5961 39.4755 25.4569
Pt 13.4612 37.3514 29.4531
Au 13.4899 39.3013 31.427
Pt 15.4676 37.3888 31.4545
Au 15.5577 39.3498 29.4174
Pt 13.4192 37.3722 33.4404
Au 13.3488 39.3613 35.4848
Au 15.4388 37.4522 35.4551
Au 15.4939 39.3582 33.4475
Pt 13.4389 37.4027 37.4535
Pt 13.4948 39.2272 39.386
Pt 15.4631 37.4012 39.4635
Pt 15.4341 39.363 37.5114
Pt 13.551 37.2734 41.3321
Pt 15.495 37.3272 43.2149
Au 15.3077 39.4601 41.4938
Pt 15.5217 41.4366 11.5961
Au 13.324 41.5577 13.419
Pt 13.5466 43.2455 15.635
Pt 15.4519 41.4069 15.5393
Pt 15.4899 43.2724 13.6362
Pt 13.4335 41.3988 17.5296
Pt 13.4896 43.2593 19.4821
Au 15.5416 41.4477 19.5019
Pt 15.4361 43.3691 17.5248
Au 13.5811 41.3546 21.5271
Pt 13.5456 43.3944 23.5379
Pt 15.5679 41.5267 23.5002
Pt 15.4781 43.4316 21.5114
Au 13.5904 41.3646 25.469
Pt 13.5749 43.4451 27.3887
Au 15.5832 41.4477 27.4354
Pt 15.486 43.4816 25.4736
Au 13.5551 41.2932 29.3833
Au 13.5385 43.2559 31.4141
Au 15.567 41.3854 31.4216
Au 15.5346 43.4394 29.4084
Au 13.4403 41.3263 33.4673
Pt 13.5026 43.2517 35.2794
Au 15.4357 41.368 35.4664
Pt 15.558 43.3749 33.3841
Pt 13.4856 41.1955 37.3569
Au 15.2894 41.3887 39.4871
Au 15.2937 43.401 37.4384
Au 15.4679 45.2991 15.5236
Au 13.4655 45.2808 17.5731
Pt 15.3622 45.2007 19.5183
Pt 13.4714 45.1738 21.515
Pt 15.4101 45.2871 23.5015
Au 13.4915 45.5587 25.4895
Pt 15.5013 45.3211 27.4356
Pt 13.4899 45.1927 29.44
Pt 15.4489 45.2249 31.4198
Pt 13.5016 45.0375 33.3006
Au 15.389 45.2667 35.3415
Au 17.4815 7.41788 11.4504
Pt 19.7077 5.75842 11.6159
Pt 19.6345 7.58045 9.63775
Au 17.6033 5.55044 13.5519
Au 17.5284 7.43775 15.4947
Pt 19.6051 5.60329 15.4782
Au 19.5301 7.51477 13.5099
Au 17.5073 5.33604 17.4675
Pt 17.5323 7.39487 19.4231
Pt 19.4763 5.49786 19.4778
Pt 19.5289 7.31456 17.5035
Pt 17.4777 5.52363 21.3717
Pt 17.5002 7.35204 23.3531
Pt 19.3812 5.41902 23.2822
Pt 19.478 7.33549 21.4122
Pt 17.457 5.4587 25.2654
Au 17.5373 7.16357 27.3952
Au 19.3884 5.14806 27.4271
Pt 19.4979 7.15301 25.3525
Pt 17.4911 5.53074 29.5572
Pt 17.5433 7.42182 31.4368
Pt 19.46 5.49296 31.5455
Pt 19.5449 7.20853 29.4882
Pt 17.5162 5.63321 33.4347
Pt 17.4877 7.58091 35.3208
Pt 19.4584 5.65384 35.3632
Pt 19.5146 7.44249 33.376
Pt 17.514 5.80781 37.1882
Pt 17.4463 7.54134 39.186
Au 19.3682 5.46428 39.1606
Pt 19.5112 7.52473 37.3475
Pt 19.356 7.46209 41.0116
Pt 17.4912 11.5784 7.62324
Au 19.3031 9.35048 7.49606
Pt 19.5407 11.5777 5.94494
Au 17.3737 9.41523 9.4604
Pt 17.5036 11.4573 11.3902
Pt 19.3977 9.50634 11.44
Pt 19.4374 11.4759 9.38077
Au 17.4562 9.43341 13.439
Pt 17.4564 11.4394 15.4584
Au 19.5292 9.44333 15.519
Pt 19.4051 11.452 13.4524
Au 17.5613 9.45319 17.4705
Au 17.5161 11.4383 19.4243
Pt 19.5104 9.27653 19.4548
Pt 19.4488 11.431 17.4565
Pt 17.5504 9.31708 21.3875
Au 17.4887 11.4105 23.3885
Au 19.4953 9.26348 23.4371
Au 19.5021 11.3289 21.4316
Au 17.525 9.25822 25.4337
Au 17.518 11.3703 27.4261
Au 19.5142 9.17078 27.4133
Au 19.505 11.3145 25.4159
Au 17.5727 9.30689 29.4052
Pt 17.5754 11.4558 31.4261
Pt 19.5181 9.31088 31.3952
Au 19.4788 11.366 29.4612
Pt 17.5769 9.43458 33.3494
Au 17.5009 11.5097 35.4301
Au 19.4821 9.46466 35.3839
Au 19.4905 11.448 33.3665
Au 17.4733 9.51752 37.3969
Pt 17.3559 11.4771 39.4642
Pt 19.413 9.53737 39.3525
Pt 19.4211 11.4992 37.4848
Pt 17.3636 9.43856 41.0824
Au 16.9392 11.0706 43.321
Pt 19.197 11.1818 44.6305
Au 19.4115 11.4177 41.6534
Pt 19.4488 13.1538 46.2304
Au 17.4542 13.4727 5.62093
Pt 17.4991 15.4886 7.52597
Pt 19.4941 13.6185 7.50143
Au 19.4008 15.4562 5.35857
Au 17.5182 13.4873 9.46349
Au 17.5103 15.4969 11.4327
Pt 19.4552 13.49 11.4034
Pt 19.4851 15.5266 9.4198
Au 17.5108 13.4205 13.421
Pt 17.4572 15.402 15.3821
Au 19.4489 13.4159 15.4431
Pt 19.4331 15.4638 13.4258
Pt 17.449 13.4377 17.3691
Pt 17.4293 15.4016 19.3451
Au 19.4538 13.4567 19.3798
Pt 19.3791 15.4146 17.3556
Au 17.4533 13.4735 21.4065
Au 17.4649 15.4697 23.4249
Au 19.4933 13.3913 23.4348
Au 19.4496 15.4443 21.3954
Au 17.4862 13.4606 25.4081
Au 17.4854 15.4565 27.4819
Au 19.4449 13.4176 27.4643
Pt 19.4415 15.4465 25.442
Pt 17.5225 13.4925 29.5219
Pt 17.4596 15.4369 31.4676
Pt 19.4554 13.456 31.458
Pt 19.4341 15.4156 29.5339
Au 17.4753 13.4634 33.4149
Au 17.4615 15.429 35.501
Pt 19.4406 13.4467 35.4292
Pt 19.4364 15.4052 33.4297
Pt 17.4475 13.4357 37.5216
Au 17.4789 15.432 39.5486
Au 19.4371 13.3901 39.569
Au 19.4475 15.3868 37.5196
Au 17.398 13.3417 41.6361
Pt 17.5954 15.5845 43.4097
Au 19.6559 13.6062 43.5559
Au 19.5226 15.527 41.5222
Pt 17.3406 13.3798 44.7861
Au 19.515 15.6813 45.6237
Pt 17.3969 17.466 5.67407
Pt 17.4963 19.475 7.39334
Au 19.5286 17.4392 7.3065
Pt 19.4655 19.4593 5.54178
Au 17.5499 17.4983 9.41702
Au 17.4997 19.3894 11.4451
Pt 19.4938 17.4713 11.4141
Pt 19.5198 19.4339 9.27946
Pt 17.4874 17.3831 13.423
Au 17.4783 19.3826 15.3763
Pt 19.4283 17.3784 15.3948
Pt 19.4561 19.3433 13.4101
Pt 17.4521 17.3528 17.3218
Au 17.4034 19.4672 19.4163
Au 19.3865 17.3979 19.3556
Au 19.424 19.4296 17.3763
Au 17.4161 17.4356 21.4266
Au 17.422 19.4414 23.4143
Pt 19.4202 17.4355 23.4084
Au 19.4265 19.4468 21.4218
Au 17.463 17.45 25.4063
Au 17.4378 19.4252 27.4785
Au 19.4287 17.402 27.491
Au 19.4374 19.4422 25.4225
Pt 17.4504 17.375 29.5385
Pt 17.3942 19.3458 31.4631
Pt 19.4206 17.3474 31.4799
Au 19.3889 19.3854 29.524
Au 17.4439 17.3958 33.4467
Au 17.4577 19.3719 35.5122
Au 19.4549 17.3987 35.5143
Au 19.4204 19.3917 33.4576
Pt 17.4773 17.4273 37.5575
Pt 17.5053 19.4114 39.5166
Pt 19.4369 17.4937 39.5448
Pt 19.4288 19.4164 37.5565
Pt 17.5067 17.5385 41.5026