3871
Atoms. Timestep: 20113
Au 5.7624 7.67522 23.4365
Pt 7.86561 5.89475 23.4761
Pt 7.79552 7.71235 21.5191
Pt 6.18449 5.89918 25.4464
Pt 5.99 7.71257 27.329
Pt 7.89167 5.84786 27.3998
Au 7.8382 7.75231 25.4117
Pt 7.74318 7.68005 29.3361
Pt 5.92778 11.6065 19.5553
Pt 7.74202 9.62157 19.5051
Au 7.47083 11.343 17.3529
Pt 5.9767 9.65668 21.487
Au 5.48423 11.4858 23.419
Pt 7.71228 9.66057 23.449
Pt 7.63245 11.6559 21.5098
Pt 5.8734 9.58531 25.4196
Pt 5.79993 11.5279 27.4211
Au 7.71825 9.65125 27.4568
Pt 7.53186 11.6645 25.3638
Au 5.66551 9.62239 29.3622
Pt 5.96239 11.6319 31.3545
Au 7.49713 9.43003 31.4853
Pt 7.64561 11.5629 29.4297
Au 7.49427 11.442 33.5559
Pt 5.81677 15.5876 15.6438
Au 7.4523 13.409 15.3836
Pt 7.57053 15.5842 13.5835
Pt 5.90439 13.5667 17.5927
Pt 5.68758 15.4848 19.4657
Pt 7.63093 13.55 19.5296
Pt 7.61766 15.5083 17.527
Au 5.41816 13.5428 21.4218
Pt 5.63331 15.5437 23.4028
Pt 7.41541 13.549 23.4209
Pt 7.4905 15.4784 21.4416
Au 5.394 13.5553 25.4092
Pt 5.61707 15.5228 27.369
Au 7.4408 13.5727 27.4286
Pt 7.42524 15.5122 25.3943
Au 5.46305 13.5219 29.4491
Pt 5.70745 15.464 31.4874
Pt 7.58965 13.5697 31.4263
Pt 7.38725 15.5416 29.4154
Au 5.61862 13.559 33.3966
Pt 5.88388 15.5688 35.3094
Pt 7.64009 13.5773 35.3386
Pt 7.62523 15.4903 33.3902
Au 7.4637 15.3814 37.509
Pt 5.87227 19.5639 11.5871
Au 7.4353 17.3519 11.3806
Pt 7.65131 19.5174 9.60051
Pt 5.84013 17.5855 13.5721
Pt 5.64838 19.4275 15.5073
Au 7.57168 17.5139 15.5575
Pt 7.57137 19.512 13.5303
Pt 5.65808 17.4722 17.5284
Pt 5.56993 19.4746 19.5198
Au 7.47176 17.5056 19.4991
Au 7.43322 19.5247 17.5364
Pt 5.61024 17.4553 21.4556
Au 5.21761 19.4567 23.4139
Pt 7.39973 17.5495 23.4323
Pt 7.34186 19.5221 21.4997
Pt 5.57923 17.454 25.3812
Pt 5.51956 19.4488 27.3274
Pt 7.36594 17.5091 27.4031
Pt 7.3332 19.4827 25.3526
Au 5.28468 17.401 29.3743
Au 5.26397 19.469 31.455
Pt 7.36886 17.5169 31.3445
Au 7.23829 19.4429 29.416
Pt 5.72131 17.4292 33.4397
Pt 5.72199 19.4306 35.3846
Pt 7.60673 17.4762 35.4346
Au 7.42475 19.4676 33.3308
Au 5.59666 17.4935 37.3069
Au 5.63336 19.4849 39.3173
Pt 7.63829 17.553 39.2329
Pt 7.58531 19.4466 37.3383
Au 7.52033 19.3717 41.4389
Au 5.72531 23.4279 7.69267
Pt 7.73056 21.5113 7.71327
Au 7.75577 23.42 5.68114
Pt 5.90178 21.5098 9.68804
Pt 5.71157 23.4052 11.5165
Pt 7.63944 21.4938 11.6422
Pt 7.69196 23.4406 9.62476
Au 5.37945 21.4458 13.4906
Pt 5.55345 23.4767 15.5522
Au 7.3872 21.4793 15.4746
Pt 7.38634 23.4714 13.5853
Pt 5.56716 21.4992 17.5407
Pt 5.4769 23.4742 19.5141
Pt 7.36338 21.5039 19.5149
Au 7.37382 23.4741 17.5314
Pt 5.48834 21.4942 21.4455
Pt 5.44903 23.4298 23.3854
Pt 7.29186 21.4438 23.4227
Pt 7.32633 23.464 21.4584
Pt 5.47286 21.46 25.3818
Pt 5.44345 23.4166 27.3834
Au 7.29293 21.4626 27.3703
Pt 7.25666 23.483 25.397
Pt 5.48944 21.4781 29.3581
Pt 5.49621 23.4136 31.3771
Pt 7.307 21.4338 31.3502
Pt 7.26713 23.4571 29.3741
Pt 5.58927 21.4225 33.4289
Au 5.33683 23.355 35.4099
Pt 7.49335 21.4688 35.3831
Au 7.32048 23.433 33.3889
Pt 5.71963 21.3816 37.3483
Au 5.46249 23.4235 39.3563
Au 7.57344 21.4301 39.2774
Pt 7.42475 23.4546 37.3363
Pt 5.94265 21.5599 41.266
Pt 5.94652 23.5366 43.0917
Pt 7.72368 21.57 43.2477
Pt 7.70837 23.4928 41.1613
Au 7.68444 23.4851 45.2416
Au 5.94541 25.4804 5.83755
Pt 5.93052 27.3335 7.741
Pt 7.76635 25.3673 7.72708
Pt 7.82777 27.3754 5.89948
Pt 5.81014 25.3857 9.59458
Pt 5.69609 27.3774 11.5499
Au 7.50125 25.4051 11.6697
Au 7.61535 27.4142 9.68492
Au 5.31201 25.4285 13.558
Pt 5.52387 27.412 15.5622
Pt 7.36474 25.4639 15.5178
Pt 7.38738 27.3901 13.6079
Pt 5.52515 25.4525 17.4993
Pt 5.44235 27.3947 19.4166
Pt 7.3342 25.4495 19.4867
Pt 7.37473 27.4108 17.5063
Pt 5.45851 25.4296 21.4257
Pt 5.43534 27.374 23.3635
Pt 7.22291 25.414 23.4419
Pt 7.23846 27.4555 21.4078
Au 5.14977 25.4117 25.3948
Pt 5.42697 27.4113 27.4553
Pt 7.17927 25.423 27.4014
Pt 7.14255 27.4013 25.4125
Au 5.15017 25.3727 29.3846
Au 5.19161 27.4699 31.4572
Pt 7.19034 25.4654 31.2992
Pt 7.16328 27.4126 29.464
Pt 5.56462 25.4307 33.3601
Au 5.34284 27.5237 35.3801
Au 7.27981 25.4414 35.4163
Pt 7.29617 27.4581 33.3513
Au 5.38001 25.5203 37.4574
Pt 5.77553 27.488 39.3705
Pt 7.54133 25.4146 39.2241
Pt 7.49303 27.429 37.3142
Pt 5.79092 25.4448 41.2454
Pt 5.8925 27.38 43.01
Pt 7.82028 25.4332 43.0691
Pt 7.71671 27.4287 41.1844
Pt 5.96533 25.4804 44.7442
Pt 7.70428 27.3729 44.9564
Pt 7.69283 29.3479 7.74943
Au 5.6326 29.3766 9.61742
Au 5.62219 31.4641 11.566
Pt 7.51374 29.4043 11.62
Pt 7.63951 31.337 9.68354
Au 5.39426 29.3764 13.5463
Pt 5.66969 31.4594 15.4891
Pt 7.41053 29.3724 15.5027
Au 7.51524 31.3551 13.5169
Pt 5.54482 29.3799 17.4556
Pt 5.52023 31.4073 19.3418
Pt 7.31108 29.3836 19.467
Au 7.43454 31.362 17.4746
Au 5.16298 29.3836 21.3419
Au 5.15954 31.4388 23.3788
Pt 7.09913 29.4443 23.4073
Pt 7.22671 31.3121 21.408
Au 5.1355 29.3632 25.4293
Pt 5.42654 31.4012 27.5235
Au 7.18717 29.4079 27.4138
Pt 7.1527 31.3202 25.4309
Pt 5.45402 29.469 29.4756
Pt 5.52264 31.4344 31.4532
Pt 7.30846 29.4193 31.38
Pt 7.32746 31.4085 29.4459
Pt 5.55921 29.4687 33.3913
Au 5.36502 31.4209 35.4638
Pt 7.40263 29.43 35.3684
Au 7.39587 31.3939 33.4259
Pt 5.7141 29.4462 37.4231
Pt 5.88175 31.3551 39.2378
Pt 7.66007 29.4109 39.306
Pt 7.61769 31.3803 37.2941
Au 5.64248 29.4525 41.2389
Pt 7.69639 29.3469 43.1406
Pt 7.64777 31.3349 41.2416
Pt 7.6439 33.3774 11.5631
Pt 5.89067 33.4084 13.5878
Pt 5.88213 35.3126 15.5226
Pt 7.63277 33.3711 15.5346
Pt 7.66919 35.3756 13.5322
Pt 5.64661 33.4106 17.4236
Pt 5.6797 35.3577 19.3178
Pt 7.44761 33.3345 19.4142
Pt 7.60458 35.3476 17.4752
Pt 5.54376 33.362 21.2734
Au 5.2574 35.3878 23.4704
Au 7.19058 33.3354 23.4344
Au 7.30459 35.3903 21.4517
Pt 5.46146 33.3709 25.5076
Pt 5.53031 35.3435 27.436
Au 7.29885 33.3348 27.4385
Au 7.30664 35.3683 25.414
Pt 5.50318 33.3752 29.5022
Pt 5.63862 35.3614 31.5557
Pt 7.43376 33.3499 31.415
Au 7.33562 35.3673 29.4429
Pt 5.64309 33.4126 33.4449
Pt 5.83726 35.3169 35.338
Pt 7.56752 33.3434 35.3548
Pt 7.60756 35.3205 33.4084
Pt 5.87003 33.3397 37.3338
Pt 7.65255 33.3611 39.3046
Pt 7.64542 35.339 37.3153
Pt 7.66566 37.3323 15.5323
Au 5.65121 37.3356 17.3929
Au 5.65906 39.3796 19.3684
Pt 7.51476 37.3555 19.4235
Pt 7.66561 39.325 17.5123
Au 5.38639 37.3983 21.3792
Pt 5.73319 39.3832 23.4786
Pt 7.39236 37.292 23.4249
Au 7.4745 39.2655 21.4269
Pt 5.58385 37.4155 25.4335
Au 5.41011 39.3624 27.4033
Pt 7.35807 37.3315 27.4562
Au 7.50267 39.265 25.4954
Au 5.3587 37.3307 29.5388
Pt 5.88612 39.2183 31.5067
Pt 7.59273 37.2864 31.4514
Au 7.46746 39.2557 29.4102
Pt 5.83232 37.2718 33.418
Pt 7.62462 37.3173 35.3696
Pt 7.63469 39.2865 33.4717
Pt 7.69254 41.2522 19.5545
Au 5.67223 41.3484 21.5206
Pt 5.9705 43.1833 23.5384
Pt 7.7045 41.2178 23.4471
Pt 7.74322 43.1848 21.5378
Pt 5.80197 41.3162 25.4037
Au 5.68158 43.2144 27.3671
Pt 7.57145 41.2623 27.5073
Pt 7.81579 43.0769 25.4867
Au 5.65676 41.249 29.5244
Pt 7.69109 41.1989 31.4425
Au 7.5114 43.3079 29.5502
Pt 7.86188 45.0454 23.5013
Pt 6.16852 44.95 25.4181
Pt 7.80912 44.959 27.4061
Pt 9.68416 7.67352 19.5297
Pt 11.6559 5.83254 19.5052
Pt 11.6061 7.67017 17.5619
Pt 9.75263 5.85215 21.4983
Au 9.77628 7.66925 23.4779
Pt 11.6247 5.6683 23.4375
Au 11.6675 7.63092 21.4501
Pt 9.67127 5.71633 25.4412
Pt 9.75236 7.64223 27.3951
Au 11.6088 5.36103 27.4241
Pt 11.6775 7.4873 25.503
Pt 9.75834 5.86787 29.3553
Au 9.45623 7.42514 31.5605
Pt 11.6374 5.89003 31.3615
Pt 11.627 7.61916 29.374
Pt 11.5727 7.64085 33.3792
Pt 9.61517 11.5368 15.6367
Au 11.4059 9.40865 15.4179
Au 11.4626 11.3485 13.4004
Pt 9.65138 9.59405 17.5879
Pt 9.50762 11.5857 19.431
Pt 11.5858 9.6178 19.4568
Pt 11.556 11.4743 17.4535
Au 9.63401 9.66437 21.4457
Pt 9.54191 11.6474 23.4075
Au 11.6612 9.65164 23.4867
Pt 11.5291 11.6219 21.3866
Pt 9.64373 9.68303 25.4345
Au 9.55434 11.6269 27.4341
Au 11.6068 9.57074 27.4252
Au 11.6162 11.5969 25.4388
Pt 9.56863 9.50859 29.5406
Pt 9.39518 11.4912 31.4887
Pt 11.4719 9.43244 31.4054
Au 11.4509 11.5189 29.4754
Pt 9.61226 9.56196 33.3282
Au 9.45909 11.3888 35.5417
Pt 11.6192 9.56883 35.3689
Au 11.4139 11.4966 33.4482
Au 11.4359 11.3992 37.552
Pt 9.57322 15.5956 11.5526
Au 11.4565 13.3747 11.3673
Au 11.3899 15.3502 9.39488
Au 9.45087 13.4391 13.3736
Au 9.47138 15.3901 15.4468
Au 11.4666 13.4142 15.4063
Pt 11.5096 15.4015 13.424
Pt 9.41012 13.4269 17.4773
Au 9.5487 15.4785 19.475
Pt 11.4888 13.4529 19.3979
Au 11.477 15.4112 17.4142
Pt 9.51142 13.5602 21.4852
Pt 9.36968 15.524 23.428
Au 11.5279 13.5567 23.4242
Pt 11.5 15.4253 21.4472
Au 9.46296 13.5965 25.3997
Pt 9.34991 15.5613 27.4054
Au 11.5171 13.5779 27.4516
Au 11.4888 15.5371 25.436
Pt 9.39465 13.6153 29.4127
Au 9.43562 15.5461 31.3935
Au 11.4022 13.5101 31.4144
Au 11.4767 15.5377 29.4014
Pt 9.44937 13.4401 33.45
Pt 9.46719 15.4959 35.4477
Pt 11.389 13.4115 35.4903
Au 11.4257 15.4594 33.4574
Pt 9.5242 13.5736 37.3522
Pt 9.58015 15.5597 39.2917
Au 11.4113 13.4063 39.5402
Au 11.4858 15.4092 37.4377
Pt 11.6245 15.5856 41.2861
Pt 9.60426 19.5222 7.66356
Au 11.3694 17.3386 7.44863
Pt 11.6059 19.5007 5.87307
Pt 9.56977 17.577 9.60114
Pt 9.48691 19.4111 11.5376
Au 11.5122 17.4164 11.4548
Pt 11.5567 19.3858 9.48068
Au 9.47007 17.4652 13.4445
Au 9.5277 19.4747 15.5113
Au 11.4905 17.4179 15.4245
Pt 11.5597 19.345 13.4468
Pt 9.45198 17.5121 17.5395
Pt 9.32676 19.562 19.5682
Au 11.4587 17.4951 19.4722
Au 11.4597 19.4876 17.5276
Au 9.42397 17.4902 21.4751
Au 9.38069 19.5157 23.4309
Au 11.4405 17.4601 23.4278
Au 11.3956 19.555 21.4215
Au 9.35803 17.5045 25.4303
Pt 9.25738 19.4952 27.4005
Au 11.4181 17.5188 27.4118
Pt 11.351 19.4502 25.4623
Au 9.35309 17.5156 29.3717
Pt 9.30672 19.4993 31.3319
Au 11.4335 17.4866 31.415
Au 11.3306 19.5095 29.3984
Pt 9.39179 17.4978 33.3773
Au 9.46085 19.4753 35.365
Au 11.4762 17.4665 35.412
Au 11.4193 19.4592 33.3607
Pt 9.50403 17.4398 37.3673
Pt 9.4872 19.4379 39.3795
Au 11.4603 17.5 39.3901
Pt 11.4328 19.4468 37.3782
Au 9.46247 17.3649 41.432
Pt 9.67546 19.5606 43.2505
Pt 11.6132 17.5579 43.2218
Au 11.5355 19.4844 41.3433
Au 11.5585 19.4703 45.2502
Pt 9.70944 21.4785 5.87809
Pt 9.63758 23.4292 7.67177
Pt 11.5959 21.4384 7.67437
Pt 11.5175 23.3997 5.73638
Au 9.60246 21.4158 9.62829
Au 9.5808 23.4726 11.6031
Au 11.5735 21.3882 11.5369
Pt 11.5712 23.4466 9.50444
Au 9.53806 21.4773 13.5706
Pt 9.34267 23.5042 15.5581
Au 11.551 21.4147 15.4766
Au 11.5376 23.4826 13.5769
Au 9.41421 21.5059 17.5283
Pt 9.30374 23.4746 19.5483
Pt 11.3638 21.5074 19.501
Au 11.4274 23.4494 17.4833
Pt 9.27632 21.5104 21.485
Au 9.283 23.4577 23.4438
Pt 11.3311 21.4588 23.4294
Au 11.344 23.4436 21.4457
Au 9.33112 21.4614 25.4256
Au 9.27326 23.4752 27.4082
Pt 11.2914 21.4113 27.4338
Au 11.3135 23.4874 25.4437
Pt 9.22776 21.4513 29.3486
Au 9.26215 23.4365 31.336
Pt 11.343 21.4438 31.3511
Au 11.3096 23.4127 29.4104
Au 9.38535 21.4812 33.3347
Pt 9.36978 23.4707 35.4079
Au 11.4384 21.4633 35.3844
Au 11.3914 23.4639 33.3734
Pt 9.48044 21.4649 37.336
Pt 9.50702 23.4322 39.1931
Pt 11.4597 21.4272 39.2636
Pt 11.4398 23.4254 37.2957
Au 9.55121 21.4269 41.2948
Au 9.65476 23.4551 43.2655
Pt 11.6904 21.4803 43.3335
Au 11.5939 23.3943 41.2688
Pt 9.72091 21.5419 45.0297
Pt 11.5925 23.4781 45.2141
Pt 9.62914 25.4286 5.7897
Pt 9.63721 27.4055 7.74074
Au 11.5649 25.4371 7.60227
Pt 11.4791 27.4728 5.73524
Pt 9.58213 25.4464 9.64402
Pt 9.4978 27.4078 11.6188
Au 11.5654 25.4917 11.536
Pt 11.5797 27.4514 9.55864
Au 9.45738 25.4702 13.6225
Pt 9.37096 27.4173 15.5673
Au 11.4726 25.4993 15.5484
Pt 11.4931 27.4343 13.556
Au 9.37638 25.4542 17.4976
Au 9.35232 27.4519 19.4765
Au 11.3997 25.4699 19.4544
Pt 11.4452 27.4796 17.5047
Au 9.27625 25.5016 21.4801
Pt 9.07987 27.4523 23.4181
Au 11.3006 25.5395 23.3968
Pt 11.3613 27.4795 21.3622
Au 9.21309 25.4945 25.4179
Au 9.16877 27.4173 27.4456
Pt 11.2656 25.4715 27.4678
Au 11.268 27.4346 25.48
Au 9.22637 25.4484 29.3908
Au 9.25353 27.4301 31.3737
Au 11.3827 25.4473 31.4061
Au 11.314 27.4518 29.3987
Au 9.28212 25.4281 33.3696
Au 9.38409 27.4015 35.3414
Pt 11.4305 25.3886 35.3586
Au 11.4308 27.3937 33.4075
Pt 9.46099 25.407 37.2958
Au 9.60513 27.4234 39.2436
Pt 11.5026 25.3799 39.1961
Au 11.5062 27.4125 37.2666
Au 9.69841 25.4426 41.1748
Au 9.66461 27.4575 43.2456
Au 11.6586 25.4437 43.366
Pt 11.6343 27.4448 41.3612
Pt 9.59497 25.4481 45.1049
Pt 11.6017 27.4432 45.1903
Pt 9.62792 29.3604 5.89716
Pt 9.54568 31.3339 7.70727
Pt 11.5475 29.3931 7.69339
Pt 11.4908 31.2984 5.8784
Au 9.55795 29.4247 9.6759
Pt 9.53521 31.4246 11.5735
Au 11.5581 29.3881 11.5702
Pt 11.5151 31.3806 9.55273
Au 9.46231 29.3358 13.5495
Au 9.51191 31.3929 15.5121
Au 11.4899 29.386 15.4964
Au 11.5105 31.4467 13.4914
Au 9.41271 29.3935 17.4937
Pt 9.36259 31.3435 19.4524
Pt 11.416 29.4384 19.4287
Pt 11.4686 31.4089 17.4969
Au 9.2659 29.4021 21.4652
Au 9.19348 31.3764 23.4628
Au 11.2656 29.3678 23.4395
Au 11.3608 31.3924 21.4178
Au 9.15821 29.3756 25.3999
Pt 9.19609 31.3617 27.4328
Au 11.2449 29.4462 27.4544
Au 11.2565 31.419 25.4665
Pt 9.17603 29.4054 29.3896
Pt 9.29903 31.3606 31.3969
Au 11.3431 29.4396 31.3706
Pt 11.2856 31.3811 29.4081
Au 9.36524 29.4022 33.3885
Pt 9.46879 31.4075 35.3559
Pt 11.4793 29.4532 35.3351
Au 11.4257 31.4118 33.3962
Au 9.54522 29.4407 37.299
Au 9.56863 31.4565 39.3889
Pt 11.5429 29.4811 39.3661
Pt 11.4904 31.4613 37.3704
Pt 9.61341 29.4021 41.2587
Pt 9.6181 31.2676 43.1773
Au 11.6133 29.389 43.3043
Au 11.5395 31.516 41.3993
Au 9.58783 29.4096 45.2417
Pt 11.636 31.3293 45.0161
Pt 11.4662 33.2754 7.66946
Pt 9.53258 33.3089 9.59393
Pt 9.54679 35.3413 11.6075
Au 11.4827 33.4498 11.4526
Au 11.2932 35.5133 9.45066
Pt 9.48548 33.401 13.5044
Au 9.53862 35.3687 15.4821
Pt 11.4871 33.3874 15.5111
Au 11.5039 35.4002 13.4801
Pt 9.46314 33.3307 17.5407
Au 9.43502 35.3325 19.5089
Pt 11.4309 33.3483 19.4683
Au 11.4764 35.3458 17.512
Au 9.30226 33.3126 21.4334
Au 9.35403 35.333 23.4286
Au 11.3506 33.3659 23.4435
Pt 11.3969 35.3205 21.4405
Pt 9.2203 33.3288 25.4692
Au 9.36343 35.3284 27.4057
Pt 11.3122 33.3293 27.4408
Au 11.3694 35.3229 25.4391
Au 9.37369 33.3353 29.4048
Au 9.48876 35.3142 31.4198
Au 11.4322 33.3381 31.4156
Pt 11.4503 35.3343 29.4369
Pt 9.44783 33.3322 33.3827
Au 9.52858 35.3684 35.3752
Pt 11.4778 33.4182 35.3821
Pt 11.4635 35.3844 33.4269
Au 9.53163 33.3849 37.367
Pt 9.59823 35.3262 39.2996
Pt 11.511 33.4393 39.4229
Au 11.5115 35.3962 37.4089
Au 9.42902 33.5272 41.4508
Au 11.4769 33.5387 43.4243
Pt 11.6014 35.3695 41.2853
Pt 11.4829 37.4214 11.6583
Pt 9.56711 37.3793 13.5923
Pt 9.56304 39.3788 15.5698
Au 11.5085 37.4609 15.483
Pt 11.5125 39.427 13.5937
Au 9.51959 37.4009 17.4896
Pt 9.53703 39.3342 19.4785
Au 11.4855 37.351 19.5141
Pt 11.4825 39.4162 17.5125
Pt 9.41973 37.3269 21.4189
Pt 9.43252 39.1627 23.413
Pt 11.4007 37.252 23.3679
Pt 11.4798 39.291 21.4521
Pt 9.36161 37.285 25.423
Pt 9.44099 39.2445 27.4642
Au 11.4505 37.314 27.4641
Au 11.4688 39.1519 25.3987
Au 9.45439 37.3021 29.4134
Pt 9.48005 39.2621 31.4647
Au 11.4752 37.3589 31.4373
Pt 11.4128 39.2922 29.4594
Pt 9.49833 37.3356 33.4315
Pt 9.56118 39.251 35.3711
Pt 11.4614 37.3919 35.456
Pt 11.4297 39.3445 33.4669
Pt 9.54962 37.2795 37.3497
Pt 11.5538 37.2995 39.3687
Au 11.3412 39.4116 37.5639
Pt 11.5201 41.3345 15.5968
Pt 9.58308 41.2947 17.5653
Pt 9.62261 43.2006 19.5536
Pt 11.5246 41.3691 19.4471
Au 11.3805 43.4199 17.4011
Au 9.6023 41.23 21.4661
Au 9.70042 43.2067 23.5161
Au 11.5981 41.2354 23.5004
Pt 11.6135 43.2007 21.5202
Au 9.61562 41.1485 25.4759
Pt 9.62967 43.1363 27.4598
Au 11.5588 41.2176 27.4334
Pt 11.6397 43.3708 25.5021
Pt 9.47236 41.2657 29.4608
Pt 9.59754 43.1794 31.3633
Au 11.461 41.2489 31.4238
Au 11.5828 43.2198 29.3783
Pt 9.54316 41.2301 33.3868
Au 11.3544 41.4412 35.4992
Pt 11.5008 43.2141 33.3221
Pt 11.6112 45.0164 19.6177
Pt 9.72001 45.0089 21.5552
Pt 11.5716 45.1876 23.4746
Pt 9.61714 45.127 25.4773
Pt 11.5148 45.1783 27.4634
Pt 9.65835 44.9826 29.3552
Pt 11.5813 45.0096 31.335
Pt 13.5165 7.66051 15.6185
Pt 15.4645 5.82627 15.63
Au 15.3801 7.47681 13.466
Pt 13.5549 5.82334 17.6065
Pt 13.5948 7.65764 19.4875
Pt 15.4901 5.63296 19.4622
Au 15.5489 7.55147 17.529
Pt 13.5656 5.65765 21.3945
Au 13.6157 7.45613 23.4591
Pt 15.5313 5.52943 23.3414
Pt 15.5616 7.46701 21.4186
Pt 13.5721 5.55714 25.3893
Pt 13.5717 7.35208 27.423
Au 15.4747 5.2536 27.4259
Pt 15.5574 7.29905 25.4285
Pt 13.4975 5.66399 29.4995
Pt 13.5716 7.64262 31.4018
Pt 15.4867 5.65405 31.5045
Au 15.5392 7.35581 29.4123
Pt 13.5463 5.86582 33.3337
Pt 13.593 7.64714 35.3499
Au 15.53 5.61585 35.4232
Au 15.5532 7.5455 33.4303
Pt 15.5543 7.6497 37.3375
Pt 13.5989 11.5001 11.4992
Pt 15.5465 9.60972 11.5485
Pt 15.5403 11.5341 9.52704
Pt 13.5921 9.56869 13.5906
Pt 13.4439 11.428 15.4879
Pt 15.4909 9.48581 15.5005
Au 15.4865 11.4539 13.4937
Pt 13.517 9.55596 17.4748
Au 13.5598 11.538 19.4207
Pt 15.5684 9.4995 19.4434
Pt 15.4954 11.4679 17.4164
Au 13.6166 9.5974 21.4539
Pt 13.5955 11.5923 23.3783
Au 15.5788 9.43029 23.4285
Pt 15.5518 11.5039 21.3808
Au 13.6385 9.4447 25.4919
Pt 13.5917 11.4629 27.4359
Pt 15.5813 9.23939 27.4225
Au 15.5264 11.4496 25.4504
Au 13.5994 9.4923 29.3641
Au 13.4759 11.4629 31.4206
Au 15.602 9.49763 31.4191
Au 15.5913 11.4503 29.4086
Au 13.4949 9.5456 33.4185
Au 13.4314 11.5292 35.5067
Au 15.504 9.56776 35.4105
Pt 15.5475 11.4601 33.4137
Pt 13.5945 9.57975 37.3764
Pt 13.5895 11.5338 39.3542
Pt 15.5498 9.55228 39.3069
Pt 15.4905 11.5028 37.457
Au 15.3368 11.3671 41.4403
Pt 13.5665 15.518 7.61328
Pt 15.5444 13.5397 7.59794
Pt 15.5164 15.5634 5.83264
Pt 13.6279 13.498 9.4828
Au 13.4264 15.4049 11.3833
Au 15.4831 13.4371 11.4393
Pt 15.5224 15.4849 9.46113
Au 13.4155 13.3849 13.4336
Pt 13.5012 15.4167 15.4249
Pt 15.4663 13.4128 15.4437
Au 15.4449 15.4219 13.4463
Pt 13.5082 13.4178 17.3984
Au 13.4813 15.4236 19.4168
Pt 15.5075 13.4591 19.3563
Au 15.4738 15.4153 17.3742
Au 13.5535 13.5081 21.4222
Pt 13.5054 15.4943 23.3995
Pt 15.4826 13.5304 23.4114
Pt 15.4812 15.4573 21.4178
Au 13.5639 13.5318 25.4374
Pt 13.4838 15.5746 27.4336
Au 15.5145 13.4892 27.4717
Au 15.4398 15.5306 25.4244
Au 13.4908 13.4974 29.4255
Pt 13.4555 15.5187 31.429
Au 15.4878 13.4572 31.4244
Au 15.4357 15.5073 29.4696
Au 13.4491 13.4653 33.4268
Au 13.4469 15.4489 35.465
Au 15.4517 13.4555 35.4721
Au 15.4128 15.505 33.4222
Pt 13.4199 13.4203 37.5282
Au 13.5051 15.4586 39.4182
Pt 15.4783 13.4606 39.455
Au 15.4637 15.4857 37.4657
Pt 13.5875 13.5647 41.3174
Pt 13.5777 15.5366 43.216
Pt 15.4647 13.5831 43.2507
Pt 15.5307 15.5765 41.4026
Pt 15.5341 15.5595 45.0168
Pt 13.5883 17.5365 5.85314
Pt 13.5428 19.4343 7.62926
Pt 15.5132 17.496 7.61325
Pt 15.4498 19.3934 5.64572
Pt 13.4332 17.4065 9.43649
Au 13.5631 19.3796 11.4695
Pt 15.4609 17.408 11.434
Pt 15.5298 19.4162 9.44498
Pt 13.4998 17.3769 13.4284
Pt 13.5395 19.3462 15.3778
Pt 15.4943 17.3695 15.3885
Pt 15.5104 19.3132 13.4623
Au 13.4778 17.4516 17.3957
Au 13.4906 19.5193 19.4907
Au 15.4858 17.4333 19.4168
Au 15.4785 19.4204 17.3908
Au 13.4845 17.4513 21.4493
Au 13.3811 19.4906 23.4199
Pt 15.4063 17.4592 23.4298
Pt 15.4168 19.4666 21.4739
Pt 13.4068 17.5163 25.4014
Pt 13.3449 19.4755 27.4285
Au 15.4056 17.4981 27.4545
Au 15.3706 19.4486 25.4279
Pt 13.4305 17.5353 29.4237
Au 13.4224 19.4493 31.4126
Pt 15.4303 17.4354 31.4198
Au 15.4257 19.4392 29.4661
Pt 13.4513 17.4717 33.4285
Pt 13.4397 19.4245 35.4514
Pt 15.4165 17.4709 35.4746
Au 15.4061 19.4059 33.4297
Pt 13.4478 17.4791 37.4577
Pt 13.5029 19.4605 39.3783
Pt 15.5062 17.5161 39.4449
Au 15.4644 19.4198 37.4446
Au 13.5724 17.5496 41.4022
Pt 13.5885 19.5718 43.392
Au 15.5999 17.6025 43.4028
Pt 15.5548 19.5221 41.4633
Pt 13.5608 17.5135 44.9848
Au 15.4598 19.4782 45.5347
Pt 13.4623 21.3426 5.70737
Au 13.5839 23.4168 7.4278
Pt 15.5606 21.4099 7.36916
Au 15.4297 23.3478 5.30232
Au 13.6091 21.4521 9.49504
Au 13.585 23.4768 11.4959
Au 15.5535 21.4381 11.4894
Au 15.6232 23.4652 9.34958
Au 13.5647 21.4082 13.4852
Au 13.5561 23.5007 15.5013
Au 15.4963 21.4564 15.4072
Pt 15.5953 23.5403 13.4255
Au 13.5047 21.4392 17.4552
Au 13.4132 23.4437 19.4463
Pt 15.4157 21.4944 19.467
Pt 15.4261 23.4879 17.4961
Pt 13.3837 21.4859 21.4299
Au 13.3192 23.4818 23.4138
Au 15.3672 21.4693 23.4199
Au 15.375 23.4731 21.4354
Au 13.2906 21.4395 25.4466
Au 13.3003 23.4523 27.438
Au 15.3645 21.4395 27.4414
Au 15.3479 23.4711 25.4343
Au 13.3617 21.456 29.4379
Pt 13.3727 23.4668 31.4242
Pt 15.3835 21.4309 31.4553
Au 15.3606 23.4446 29.4883
Au 13.4079 21.4636 33.3849
Pt 13.4059 23.4529 35.3812
Au 15.4424 21.4396 35.4236
Au 15.3973 23.4482 33.4023
Au 13.4429 21.4315 37.3861
Pt 13.4466 23.4013 39.2972
Au 15.5193 21.4411 39.4144
Au 15.4978 23.4248 37.3881
Au 13.5854 21.4636 41.3788
Pt 13.604 23.4617 43.4661
Pt 15.5587 21.4836 43.6061
Au 15.5377 23.4474 41.526
Au 13.4972 21.5272 45.5241
Pt 15.4946 23.512 45.3617
Pt 13.396 25.5099 5.674
Pt 13.5146 27.4718 7.52496
Au 15.5653 25.415 7.24872
Pt 15.3751 27.5352 5.57878
Au 13.6122 25.4648 9.44873
Au 13.5903 27.4774 11.481
Au 15.6152 25.5252 11.3899
Pt 15.5897 27.4688 9.30084
Au 13.582 25.498 13.4755
Au 13.5211 27.4731 15.4637
Au 15.5254 25.4831 15.4395
Pt 15.5836 27.4994 13.3959
Pt 13.4298 25.5212 17.4974
Pt 13.3936 27.4977 19.4155
Au 15.3889 25.4775 19.4376
Au 15.4321 27.4962 17.4687
Pt 13.3438 25.481 21.3588
Au 13.3398 27.4463 23.4146
Au 15.3476 25.4784 23.4272
Au 15.3639 27.475 21.4096
Au 13.311 25.5065 25.4935
Pt 13.3372 27.5035 27.4663
Au 15.3585 25.4821 27.4593
Au 15.3693 27.4893 25.5015
Au 13.3362 25.4744 29.4108
Pt 13.3878 27.455 31.4278
Au 15.3521 25.48 31.4489
Au 15.3664 27.5041 29.4213
Pt 13.4234 25.4234 33.4255
Pt 13.4432 27.4014 35.3577
Au 15.4558 25.4457 35.3772
Pt 15.3809 27.4261 33.4284
Au 13.4731 25.3986 37.3355
Au 13.4648 27.4468 39.376
Au 15.5126 25.4358 39.408
Au 15.4862 27.4397 37.3774
Au 13.5459 25.4072 41.3628
Pt 13.6054 27.4206 43.4238
Pt 15.516 25.4766 43.5036
Au 15.5197 27.4395 41.4377
Pt 13.5661 25.4576 45.325
Pt 15.4757 27.4347 45.3872
Pt 13.3911 29.42 5.69433
Pt 13.5033 31.3694 7.53552
Pt 15.4689 29.4577 7.41972
Au 15.3805 31.3718 5.35677
Pt 13.559 29.4262 9.45409
Au 13.5367 31.4106 11.4637
Au 15.5601 29.4285 11.3751
Pt 15.5023 31.3998 9.35617
Pt 13.5479 29.4491 13.4938
Au 13.4752 31.4289 15.4734
Pt 15.4373 29.4755 15.469
Au 15.5118 31.4559 13.4677
Pt 13.4181 29.4579 17.4675
Pt 13.3853 31.4129 19.4142
Pt 15.3291 29.459 19.419
Pt 15.3747 31.4233 17.4512
Au 13.3592 29.4411 21.4139
Au 13.369 31.4348 23.4882
Au 15.398 29.481 23.4789
Au 15.388 31.4233 21.4458
Au 13.3509 29.4339 25.4839
Au 13.344 31.4309 27.4199
Pt 15.3832 29.4926 27.4623
Pt 15.4093 31.4175 25.4877
Au 13.3533 29.4669 29.427
Pt 13.4207 31.4469 31.4495
Au 15.3877 29.4511 31.454
Au 15.4053 31.437 29.4632
Au 13.4266 29.4179 33.403
Au 13.4473 31.4701 35.4117
Au 15.4462 29.4526 35.3967
Pt 15.426 31.4391 33.4335
Au 13.4536 29.455 37.3591
Au 13.5036 31.462 39.3818
Au 15.4997 29.4314 39.3889
Pt 15.46 31.4686 37.396
Pt 13.565 29.4549 41.4322
Au 13.5763 31.4697 43.3522
Pt 15.5181 29.3896 43.4633
Au 15.5369 31.4124 41.4119
Pt 13.5587 29.4031 45.2478
Pt 15.459 31.3776 45.2647
Au 13.3455 33.3844 5.65421
Pt 13.3734 35.294 7.59722
Au 15.4681 33.348 7.38289
Pt 15.5473 35.5474 6.05019
Au 13.4652 33.4165 9.44468
Au 13.4016 35.5074 11.3666
Au 15.4764 33.441 11.4172
Au 15.3841 35.5519 9.27174
Pt 13.4862 33.4071 13.4893
Au 13.5048 35.3882 15.4853
Pt 15.4497 33.3893 15.5022
Au 15.4393 35.3825 13.4519
Au 13.4573 33.4062 17.4962
Pt 13.4466 35.3672 19.492
Au 15.4228 33.418 19.4642
Pt 15.4738 35.3939 17.5065
Pt 13.3893 33.3683 21.3936
Au 13.4023 35.3187 23.4182
Au 15.4165 33.3667 23.4789
Au 15.4567 35.4077 21.445
Pt 13.3584 33.3736 25.4708
Au 13.4186 35.3625 27.4439
Au 15.4141 33.4007 27.413
Au 15.4721 35.3935 25.4421
Au 13.3851 33.3715 29.4333
Au 13.447 35.3933 31.4419
Pt 15.3988 33.4369 31.4929
Au 15.4381 35.4455 29.4465
Pt 13.447 33.4063 33.433
Au 13.4598 35.4148 35.4085
Au 15.4595 33.4263 35.4152
Au 15.4594 35.4479 33.4099
Pt 13.4797 33.4344 37.4254
Au 13.5137 35.3882 39.3907
Pt 15.4983 33.4506 39.4136
Pt 15.4405 35.4562 37.4558
Pt 13.5409 33.4509 41.3904
Pt 13.5873 35.3389 43.249
Pt 15.5514 33.3895 43.3528
Pt 15.5077 35.3825 41.3565
Au 13.6057 33.4299 45.3135
Pt 15.5553 35.385 45.0384
Au 15.2703 37.7669 7.49934
Au 13.2901 37.6453 9.5075
Pt 13.4986 39.4948 11.6168
Au 15.3735 37.5105 11.4195
Pt 15.5137 39.534 9.63279
Au 13.4772 37.4981 13.4626
Au 13.4736 39.5141 15.4795
Au 15.4756 37.4587 15.5257
Pt 15.3792 39.5804 13.497
Au 13.5205 37.3994 17.5391
Au 13.5117 39.3997 19.5135
Pt 15.5573 37.4498 19.4919
Au 15.5163 39.4553 17.5399
Au 13.4906 37.3595 21.4582
Au 13.5793 39.3384 23.4564
Au 15.5556 37.4561 23.4449
Pt 15.5798 39.467 21.4683
Au 13.5165 37.3266 25.4124
Au 13.5486 39.2739 27.4292
Pt 15.5074 37.4191 27.4308
Pt 15.5977 39.4835 25.4531
Pt 13.4585 37.3606 29.4482
Au 13.4887 39.3096 31.4216
Pt 15.4659 37.3962 31.4494
Au 15.5579 39.3569 29.4127
Pt 13.4157 37.3804 33.4348
Au 13.3463 39.3683 35.4792
Au 15.4352 37.4576 35.4496
Au 15.4928 39.364 33.4423
Pt 13.4339 37.4091 37.4476
Pt 13.4903 39.2327 39.381
Pt 15.4568 37.4045 39.4584
Pt 15.4301 39.367 37.5065
Pt 13.5443 37.278 41.327
Pt 15.4861 37.3289 43.2116
Au 15.3005 39.4628 41.4903
Pt 15.5279 41.4416 11.5963
Au 13.3297 41.5645 13.4174
Pt 13.5532 43.253 15.6324
Pt 15.4569 41.4127 15.5379
Pt 15.4976 43.2782 13.6351
Pt 13.4375 41.4066 17.5268
Pt 13.4951 43.2674 19.4786
Au 15.546 41.4545 19.4992
Pt 15.4428 43.3753 17.5224
Au 13.5844 41.3634 21.5236
Pt 13.5507 43.4032 23.5339
Pt 15.5718 41.5341 23.4966
Pt 15.4841 43.4384 21.5079
Au 13.593 41.3735 25.4648
Pt 13.5793 43.4538 27.3841
Au 15.586 41.4548 27.4312
Pt 15.4914 43.4886 25.4696
Au 13.5567 41.3017 29.3783
Au 13.5416 43.2638 31.4092
Au 15.5685 41.3915 31.4169
Au 15.5388 43.4459 29.4041
Au 13.4405 41.3339 33.462
Pt 13.5043 43.2591 35.2742
Au 15.4349 41.3729 35.4615
Pt 15.5606 43.3804 33.3795
Pt 13.4839 41.2019 37.3517
Au 15.285 41.3922 39.4833
Au 15.2929 43.4055 37.4343
Au 15.4769 45.3052 15.5218
Au 13.4734 45.2887 17.5698
Pt 15.3702 45.2071 19.515
Pt 13.4785 45.1821 21.5109
Pt 15.4175 45.2939 23.4976
Au 13.4984 45.5673 25.485
Pt 15.5079 45.3277 27.4315
Pt 13.4955 45.2009 29.4355
Pt 15.4541 45.231 31.4157
Pt 13.506 45.0453 33.2957
Au 15.3926 45.272 35.3376
Au 17.4687 7.4161 11.4657
Pt 19.6934 5.75488 11.6308
Pt 19.62 7.57738 9.65262
Au 17.5909 5.54783 13.5671
Au 17.5183 7.43652 15.5091
Pt 19.5935 5.60042 15.4924
Au 19.5182 7.51224 13.5242
Au 17.4978 5.33386 17.482
Pt 17.5243 7.39363 19.4374
Pt 19.4673 5.4959 19.4915
Pt 19.5193 7.31278 17.5171
Pt 17.4702 5.52237 21.3866
Pt 17.4937 7.35128 23.3678
Pt 19.374 5.41791 23.2964
Pt 19.4704 7.33424 21.4257
Pt 17.451 5.45839 25.2816
Au 17.5315 7.16231 27.4126
Au 19.3804 5.14647 27.4419
Pt 19.4918 7.15232 25.366
Pt 17.4833 5.53048 29.5795
Pt 17.5396 7.4238 31.459
Pt 19.4486 5.49382 31.565
Pt 19.5364 7.20759 29.5026
Pt 17.513 5.644 33.4697
Pt 17.5 7.59072 35.3676
Pt 19.4408 5.67362 35.4032
Pt 19.5113 7.44474 33.3942
Pt 17.5651 5.89185 37.3302
Pt 17.5572 7.65921 39.3357
Au 19.4552 5.64355 39.3701
Pt 19.5427 7.56273 37.3744
Pt 19.5108 7.70391 41.251
Pt 17.4795 11.577 7.6378
Au 19.2892 9.34773 7.51044
Pt 19.5276 11.5745 5.95822
Au 17.3612 9.41379 9.47539
Pt 17.4933 11.4566 11.405
Pt 19.3859 9.50427 11.4546
Pt 19.4257 11.4735 9.39525
Au 17.4458 9.43265 13.4537
Pt 17.4479 11.4397 15.4724
Au 19.5195 9.44204 15.5325
Pt 19.3954 11.4512 13.4663
Au 17.553 9.45267 17.4843
Au 17.5093 11.4389 19.4367
Pt 19.5023 9.27561 19.4678
Pt 19.4407 11.431 17.469
Pt 17.5436 9.31662 21.4008
Au 17.4825 11.4112 23.3991
Au 19.4883 9.26308 23.4494
Au 19.4957 11.3292 21.443
Au 17.5185 9.25755 25.4477
Au 17.5116 11.3714 27.4362
Au 19.5076 9.17113 27.4249
Au 19.4982 11.3158 25.4248
Au 17.5684 9.30731 29.4202
Pt 17.5677 11.4612 31.4288
Pt 19.5144 9.31085 31.4057
Au 19.473 11.3689 29.4665
Pt 17.5768 9.43909 33.3671
Au 17.503 11.5222 35.4205
Au 19.4884 9.47825 35.3754
Au 19.4878 11.4596 33.3518
Au 17.5022 9.53147 37.4137
Pt 17.3973 11.5109 39.4189
Pt 19.4792 9.58166 39.3286
Pt 19.4383 11.5334 37.4311
Pt 17.5464 9.58757 41.2411
Au 17.3516 11.3755 43.4353
Pt 19.5455 9.61435 43.2142
Au 19.4404 11.5388 41.3942
Pt 19.569 11.6049 44.9965
Au 17.4434 13.4711 5.63472
Pt 17.4902 15.4877 7.54002
Pt 19.483 13.6158 7.51518
Au 19.39 15.4543 5.372
Au 17.5086 13.4866 9.478
Au 17.5023 15.497 11.4468
Pt 19.4461 13.4892 11.4173
Pt 19.4763 15.5254 9.43356
Au 17.5023 13.4209 13.435
Pt 17.4504 15.4038 15.3949
Au 19.441 13.4166 15.4561
Pt 19.4259 15.4644 13.439
Pt 17.4418 13.4394 17.382
Pt 17.4235 15.4048 19.3564
Au 19.4475 13.4582 19.3908
Pt 19.373 15.4168 17.3674
Au 17.4478 13.4755 21.4166
Au 17.4595 15.474 23.4312
Au 19.4875 13.3939 23.4431
Au 19.4447 15.448 21.4036
Au 17.4792 13.4632 25.4146
Au 17.4768 15.4641 27.4798
Au 19.4377 13.4219 27.4663
Pt 19.4351 15.4532 25.4444
Pt 17.5121 13.4998 29.5197
Pt 17.4489 15.4532 31.4553
Pt 19.4473 13.4697 31.4445
Pt 19.4246 15.4285 29.5216
Au 17.4675 13.4786 33.4033
Au 17.4482 15.4706 35.4625
Pt 19.4401 13.4795 35.3845
Pt 19.4276 15.4341 33.3998
Pt 17.4486 13.4792 37.4655
Au 17.4675 15.526 39.4664
Au 19.4512 13.5107 39.428
Au 19.4472 15.4721 37.4364
Au 17.3884 13.4496 41.4658
Pt 17.5363 15.6214 43.3463
Au 19.5019 13.5964 43.3499
Au 19.4965 15.6127 41.4538
Pt 17.4907 13.5995 44.9854
Au 19.467 15.4674 45.5245
Pt 17.3887 17.4653 5.68731
Pt 17.4891 19.4749 7.40691
Au 19.5194 17.4384 7.32025
Pt 19.4568 19.4582 5.5543
Au 17.5423 17.4982 9.43117
Au 17.4939 19.3909 11.4584
Pt 19.4867 17.4713 11.4277
Pt 19.5123 19.4339 9.29335
Pt 17.4811 17.3848 13.4359
Au 17.4733 19.3857 15.3878
Pt 19.4225 17.3803 15.4068
Pt 19.4512 19.3452 13.4226
Pt 17.4462 17.3559 17.3334
Au 17.3989 19.4724 19.4241
Au 19.3822 17.4023 19.3647
Au 19.4204 19.4338 17.386
Au 17.4113 17.4409 21.4337
Au 17.4161 19.4507 23.4157
Pt 19.4159 17.4427 23.4116
Au 19.4237 19.455 21.4266
Au 17.4558 17.4591 25.406
Au 17.4283 19.4404 27.4705
Au 19.4211 17.4152 27.484
Au 19.4326 19.4546 25.4188
Pt 17.4381 17.3908 29.5259
Pt 17.381 19.3726 31.4414
Pt 19.4108 17.3713 31.4553
Au 19.3806 19.4079 29.5075
Au 17.4301 17.4295 33.418
Au 17.443 19.4209 35.476
Au 19.4481 17.4588 35.4607
Au 19.4128 19.4326 33.4204
Pt 17.4585 17.495 37.5055
Pt 17.4913 19.4595 39.4875
Pt 19.4294 17.5618 39.4989
Pt 19.4222 19.4699 37.5181
Pt 17.4881 17.5965 41.476
Pt 17.5226 19.5407 43.606