3871
Atoms. Timestep: 20185
Au 5.56802 9.58687 25.419
Pt 7.88648 5.86933 23.5019
Pt 7.80914 7.69521 21.491
Pt 6.03543 7.73858 23.4795
Pt 6.00386 7.69966 27.314
Pt 7.88465 5.86442 27.349
Au 6.01831 5.81042 25.4043
Pt 7.74761 7.68198 29.3297
Pt 5.92879 11.6016 19.5588
Pt 7.74019 9.61652 19.5089
Au 7.47458 11.3415 17.355
Pt 5.99265 9.62334 21.5078
Au 5.48783 11.5204 23.3656
Pt 7.71966 9.7016 23.4862
Pt 7.63871 11.6528 21.4974
Pt 7.82427 7.7712 25.4266
Pt 5.80739 11.5447 27.452
Au 7.68552 9.65335 27.4114
Pt 7.48969 11.6393 25.3606
Au 5.68363 9.61054 29.3616
Pt 5.96142 11.6317 31.3507
Au 7.50192 9.43113 31.4848
Pt 7.65483 11.5624 29.4385
Au 7.49235 11.4452 33.5536
Pt 5.82406 15.5842 15.6352
Au 7.45921 13.4049 15.3794
Pt 7.57905 15.5789 13.5757
Pt 5.90863 13.5637 17.5878
Pt 5.69274 15.491 19.4509
Pt 7.63422 13.5483 19.5229
Pt 7.62388 15.5058 17.5184
Au 5.41975 13.5621 21.4002
Pt 5.63661 15.5459 23.3946
Pt 7.42575 13.5586 23.4095
Pt 7.49581 15.4825 21.4319
Au 5.40421 13.5684 25.401
Pt 5.61699 15.526 27.365
Au 7.44246 13.5784 27.4266
Pt 7.4267 15.5165 25.3898
Au 5.46375 13.5293 29.4524
Pt 5.70655 15.4692 31.4873
Pt 7.58807 13.572 31.4259
Pt 7.38608 15.5463 29.4136
Au 5.6169 13.5617 33.3942
Pt 5.88051 15.5735 35.3079
Pt 7.63614 13.5816 35.338
Pt 7.62245 15.4944 33.3899
Au 7.45819 15.3874 37.5089
Pt 5.88143 19.5572 11.5756
Au 7.4452 17.3455 11.3709
Pt 7.66133 19.5102 9.58958
Pt 5.84883 17.5803 13.5616
Pt 5.65552 19.4242 15.4953
Au 7.57942 17.5106 15.5478
Pt 7.5796 19.5073 13.5196
Pt 5.6645 17.4729 17.5161
Pt 5.57457 19.4738 19.5095
Au 7.47809 17.5075 19.4893
Au 7.43981 19.5237 17.526
Pt 5.61434 17.4568 21.4462
Au 5.21952 19.4571 23.406
Pt 7.40173 17.5514 23.426
Pt 7.34514 19.5226 21.4918
Pt 5.58003 17.4559 25.3749
Pt 5.5189 19.4509 27.3219
Pt 7.36499 17.5122 27.3992
Pt 7.33308 19.4847 25.3471
Au 5.28344 17.4044 29.3708
Au 5.26156 19.473 31.452
Pt 7.36631 17.5221 31.343
Au 7.23604 19.4462 29.4126
Pt 5.71877 17.4342 33.4385
Pt 5.71788 19.4366 35.3831
Pt 7.60217 17.482 35.4344
Au 7.4212 19.473 33.3296
Au 5.5918 17.4997 37.3057
Au 5.62763 19.4924 39.3163
Pt 7.63191 17.5602 39.233
Pt 7.57971 19.4535 37.3382
Au 7.51316 19.3814 41.4391
Au 5.73442 23.4191 7.67936
Pt 7.74054 21.5034 7.7015
Au 7.76576 23.4114 5.66877
Pt 5.91091 21.5019 9.67553
Pt 5.71891 23.3979 11.5032
Pt 7.64779 21.4878 11.6305
Pt 7.70021 23.4335 9.61231
Au 5.38676 21.44 13.4779
Pt 5.5586 23.4713 15.54
Au 7.3938 21.4758 15.4634
Pt 7.39256 23.4661 13.5733
Pt 5.57213 21.4959 17.5295
Pt 5.47978 23.4708 19.5034
Pt 7.36721 21.5024 19.5058
Au 7.37808 23.4706 17.5208
Pt 5.49075 21.4927 21.4362
Pt 5.44954 23.4283 23.3766
Pt 7.29272 21.444 23.4155
Pt 7.32801 23.4625 21.4497
Pt 5.47285 21.4606 25.3748
Pt 5.44196 23.4175 27.3772
Au 7.29144 21.4647 27.3655
Pt 7.25593 23.4833 25.3905
Pt 5.48745 21.4807 29.3535
Pt 5.49305 23.4163 31.3729
Pt 7.30382 21.4374 31.3474
Pt 7.26464 23.4594 29.3698
Pt 5.58556 21.4272 33.4262
Au 5.33202 23.3605 35.4071
Pt 7.4885 21.4751 35.382
Au 7.31631 23.4376 33.3864
Pt 5.71427 21.3885 37.3468
Au 5.45619 23.4321 39.3543
Au 7.56677 21.4385 39.2769
Pt 7.41873 23.4619 37.3349
Pt 5.93594 21.5698 41.2651
Pt 5.939 23.5484 43.0897
Pt 7.71579 21.5816 43.2474
Pt 7.70129 23.5032 41.1601
Au 7.67602 23.4984 45.2401
Au 5.95447 25.4712 5.82373
Pt 5.93765 27.3248 7.72681
Pt 7.77445 25.3595 7.71416
Pt 7.83573 27.3672 5.88617
Pt 5.81734 25.3775 9.58081
Pt 5.70121 27.3696 11.5359
Au 7.50747 25.3986 11.6568
Au 7.62139 27.4068 9.67165
Au 5.3172 25.4215 13.5444
Pt 5.52682 27.4051 15.549
Pt 7.36898 25.4586 15.506
Pt 7.39129 27.3837 13.5952
Pt 5.52816 25.447 17.4873
Pt 5.44314 27.389 19.4047
Pt 7.33618 25.4459 19.4765
Pt 7.3768 27.4054 17.4946
Pt 5.45927 25.4261 21.4154
Pt 5.43414 27.3703 23.3535
Pt 7.22268 25.4123 23.4335
Pt 7.23815 27.4518 21.3977
Au 5.14867 25.4101 25.3866
Pt 5.42418 27.4098 27.448
Pt 7.17749 25.4234 27.3954
Pt 7.14027 27.3996 25.4046
Au 5.14739 25.3733 29.3788
Au 5.18727 27.4713 31.4515
Pt 7.18657 25.4679 31.2952
Pt 7.15985 27.4132 29.4583
Pt 5.56011 25.4342 33.356
Au 5.337 27.5288 35.3757
Au 7.2742 25.4473 35.4136
Pt 7.29111 27.4618 33.3474
Au 5.37405 25.5275 37.4543
Pt 5.76841 27.4971 39.3662
Pt 7.53467 25.4237 39.2218
Pt 7.48659 27.4367 37.3107
Pt 5.78362 25.4552 41.2421
Pt 5.88398 27.3921 43.0051
Pt 7.81231 25.4457 43.0663
Pt 7.70897 27.4401 41.1806
Pt 5.95728 25.4937 44.7409
Pt 7.69499 27.3875 44.9521
Pt 7.6989 29.34 7.73583
Au 5.63771 29.3681 9.60294
Au 5.62511 31.4557 11.5518
Pt 7.51768 29.3971 11.6068
Pt 7.64341 31.3293 9.67004
Au 5.39707 29.3685 13.5323
Pt 5.67012 31.4514 15.4756
Pt 7.41242 29.3659 15.4902
Au 7.51681 31.3478 13.5042
Pt 5.54544 29.3727 17.4425
Pt 5.5184 31.3994 19.3287
Pt 7.31095 29.3779 19.4553
Au 7.43411 31.3552 17.4622
Au 5.16136 29.3774 21.3299
Au 5.15532 31.4315 23.3674
Pt 7.09706 29.4403 23.3974
Pt 7.22416 31.3057 21.3963
Au 5.13239 29.359 25.4202
Pt 5.42161 31.3971 27.5144
Au 7.18392 29.4061 27.4066
Pt 7.14909 31.3152 25.4215
Pt 5.44951 29.4679 29.4683
Pt 5.51632 31.4342 31.4455
Pt 7.30324 29.4205 31.3742
Pt 7.32228 31.4072 29.4384
Pt 5.55333 29.4712 33.3854
Au 5.35746 31.4257 35.4564
Pt 7.3961 29.4358 35.3635
Au 7.389 31.3973 33.4193
Pt 5.70692 29.4534 37.4175
Pt 5.8731 31.3647 39.2299
Pt 7.65223 29.4211 39.3008
Pt 7.60956 31.3888 37.2872
Au 5.63391 29.4635 41.2325
Pt 7.68693 29.3603 43.1349
Pt 7.63816 31.3472 41.2344
Pt 7.64553 33.3696 11.5502
Pt 5.89128 33.4003 13.5744
Pt 5.88028 35.3046 15.51
Pt 7.63188 33.3641 15.5225
Pt 7.66819 35.3682 13.5201
Pt 5.6446 33.4024 17.4104
Pt 5.67501 35.3493 19.305
Pt 7.44471 33.3271 19.4019
Pt 7.6012 35.3406 17.464
Pt 5.53902 33.3533 21.2603
Au 5.25037 35.3748 23.4556
Au 7.18639 33.3271 23.4224
Au 7.3 35.3806 21.4381
Pt 5.45597 33.3633 25.4964
Pt 5.52213 35.3342 27.4245
Au 7.29409 33.33 27.4289
Au 7.30157 35.3589 25.4016
Pt 5.49618 33.3719 29.4924
Pt 5.62909 35.3599 31.5446
Pt 7.42643 33.3502 31.4066
Au 7.32879 35.3631 29.4327
Pt 5.63483 33.4147 33.4358
Pt 5.82723 35.3234 35.3249
Pt 7.55865 33.35 35.3457
Pt 7.59755 35.3251 33.3969
Pt 5.86093 33.3477 37.3238
Pt 7.64254 33.3721 39.2954
Pt 7.63435 35.3486 37.3031
Pt 7.66182 37.3252 15.5212
Au 5.64703 37.3278 17.3815
Au 5.65212 39.3717 19.3599
Pt 7.50879 37.3488 19.4138
Pt 7.65841 39.3184 17.5031
Au 5.3795 37.3881 21.3671
Pt 5.72287 39.3735 23.4688
Pt 7.38498 37.2796 23.4096
Au 7.46563 39.2592 21.4199
Pt 5.57373 37.3992 25.4188
Au 5.39249 39.3508 27.3863
Pt 7.35042 37.3195 27.4434
Au 7.49885 39.2409 25.4758
Au 5.34704 37.3206 29.5272
Pt 5.87458 39.2222 31.483
Pt 7.58188 37.2871 31.4376
Au 7.45268 39.2485 29.3942
Pt 5.82097 37.2771 33.4004
Pt 7.61192 37.3258 35.353
Pt 7.6203 39.2942 33.4484
Pt 7.68186 41.2461 19.5485
Au 5.66378 41.3423 21.5175
Pt 5.95255 43.1591 23.5528
Pt 7.69348 41.2093 23.4499
Pt 7.73028 43.174 21.5366
Pt 5.79579 41.2946 25.4138
Au 5.9304 45.0474 25.4463
Pt 7.61754 41.2027 27.477
Pt 7.7982 43.1192 25.4574
Au 5.65138 41.2839 29.4494
Pt 7.66808 41.2096 31.3987
Au 7.50326 43.3434 29.5483
Pt 7.82443 45.0167 23.54
Pt 7.82035 45.0004 27.3618
Pt 5.94918 43.1433 27.331
Pt 9.6966 7.67294 19.5216
Pt 11.6604 5.83636 19.5138
Pt 11.6133 7.67114 17.5617
Pt 9.74201 5.86271 21.5229
Au 9.74006 7.69596 23.4941
Pt 11.6068 5.6958 23.4547
Au 11.662 7.6373 21.4591
Pt 9.67977 5.74678 25.4412
Pt 9.74913 7.65989 27.3873
Au 11.6107 5.37378 27.4166
Pt 11.676 7.51431 25.5027
Pt 9.74431 5.87689 29.3234
Au 9.45745 7.42901 31.5452
Pt 11.6316 5.89207 31.349
Pt 11.6234 7.62433 29.3691
Pt 11.5673 7.64511 33.3693
Pt 9.61994 11.5351 15.6341
Au 11.4127 9.40882 15.4162
Au 11.4723 11.3461 13.3961
Pt 9.65485 9.59396 17.5858
Pt 9.51261 11.5834 19.426
Pt 11.5882 9.62035 19.4582
Pt 11.5612 11.4736 17.4504
Au 9.62825 9.66615 21.4503
Pt 9.55012 11.652 23.4091
Au 11.6595 9.65525 23.4881
Pt 11.5302 11.6243 21.3847
Pt 9.64086 9.67464 25.4408
Au 9.53961 11.6233 27.4279
Au 11.6109 9.58315 27.4258
Au 11.613 11.602 25.4397
Pt 9.5567 9.51481 29.5074
Pt 9.39761 11.4907 31.4892
Pt 11.46 9.43938 31.3939
Au 11.4434 11.5273 29.4725
Pt 9.61079 9.56219 33.3277
Au 9.45427 11.3927 35.5414
Pt 11.6136 9.57175 35.3673
Au 11.4096 11.5003 33.4489
Au 11.429 11.4041 37.5526
Pt 9.58327 15.5903 11.5443
Au 11.468 13.3704 11.3608
Au 11.4026 15.3444 9.38699
Au 9.45956 13.4351 13.3674
Au 9.47871 15.3865 15.4394
Au 11.4735 13.4113 15.4009
Pt 11.5183 15.3978 13.4166
Pt 9.41593 13.4253 17.473
Au 9.55267 15.4784 19.4682
Pt 11.4922 13.4533 19.3941
Au 11.4822 15.41 17.4082
Pt 9.51418 13.5609 21.4796
Pt 9.37223 15.5256 23.4258
Au 11.5272 13.5612 23.424
Pt 11.5004 15.427 21.4442
Au 9.44544 13.5854 25.3965
Pt 9.34832 15.5637 27.401
Au 11.5073 13.5792 27.4497
Au 11.48 15.5353 25.4352
Pt 9.39289 13.6193 29.4119
Au 9.43172 15.5509 31.3931
Au 11.3982 13.5157 31.4154
Au 11.4725 15.5418 29.4002
Pt 9.44594 13.4437 33.4499
Pt 9.46202 15.5012 35.4487
Pt 11.3832 13.4165 35.4916
Au 11.4202 15.4651 33.4588
Pt 9.5182 13.5791 37.3531
Pt 9.57315 15.5666 39.293
Au 11.4036 13.4126 39.5417
Au 11.4789 15.4156 37.4397
Pt 11.6157 15.5934 41.2882
Pt 9.61528 19.5149 7.65327
Au 11.3822 17.332 7.44
Pt 11.6179 19.4936 5.86389
Pt 9.58052 17.5706 9.59159
Pt 9.49591 19.4055 11.5275
Au 11.5218 17.4114 11.446
Pt 11.5669 19.38 9.47094
Au 9.47837 17.4605 13.4353
Au 9.53469 19.4721 15.5015
Au 11.4969 17.4154 15.4165
Pt 11.567 19.3415 13.4372
Pt 9.45829 17.5105 17.5307
Pt 9.33153 19.5622 19.5608
Au 11.4616 17.4957 19.4665
Au 11.4643 19.4869 17.52
Au 9.42734 17.4916 21.4697
Au 9.38176 19.5177 23.4256
Au 11.4404 17.4614 23.426
Au 11.3977 19.5559 21.4171
Au 9.35728 17.5087 25.4268
Pt 9.25579 19.4985 27.3976
Au 11.415 17.5217 27.4097
Pt 11.3499 19.4531 25.4597
Au 9.35056 17.5192 29.3694
Pt 9.30341 19.5037 31.3302
Au 11.4287 17.4915 31.4151
Au 11.3272 19.5135 29.397
Pt 9.38727 17.5032 33.3774
Au 9.45556 19.4816 35.3654
Au 11.4702 17.4728 35.4138
Au 11.4141 19.4647 33.3615
Pt 9.4979 17.4464 37.3683
Pt 9.48 19.4462 39.3805
Au 11.4526 17.5078 39.3924
Pt 11.426 19.4541 37.3802
Au 9.45437 17.3738 41.4331
Pt 9.66695 19.5717 43.2517
Pt 11.6037 17.5676 43.2237
Au 11.5272 19.4938 41.3453
Au 11.5492 19.4819 45.2516
Pt 9.72026 21.4707 5.86725
Pt 9.64661 23.4222 7.66009
Pt 11.6061 21.4322 7.66404
Pt 11.5274 23.3929 5.72552
Au 9.61164 21.4094 9.61717
Au 9.58816 23.4673 11.5914
Au 11.5816 21.3837 11.5263
Pt 11.5796 23.4412 9.49323
Au 9.54537 21.4733 13.5598
Pt 9.34815 23.5008 15.5475
Au 11.5569 21.4126 15.4673
Au 11.5438 23.4791 13.5661
Au 9.41949 21.5043 17.5193
Pt 9.30666 23.4732 19.5399
Pt 11.367 21.5072 19.4947
Au 11.4316 23.4476 17.4747
Pt 9.2785 21.5107 21.4781
Au 9.28323 23.458 23.4374
Pt 11.3314 21.4607 23.425
Au 11.3452 23.4439 21.4396
Au 9.33037 21.4634 25.421
Au 9.27134 23.4775 27.404
Pt 11.2889 21.4148 27.4314
Au 11.312 23.4898 25.4398
Pt 9.22484 21.4549 29.3459
Au 9.25836 23.4405 31.3339
Pt 11.3386 21.4483 31.3501
Au 11.3061 23.4164 29.4087
Au 9.38105 21.4865 33.3339
Pt 9.36433 23.4773 35.4074
Au 11.4326 21.47 35.3855
Au 11.3864 23.4696 33.3735
Pt 9.47424 21.4724 37.3364
Pt 9.50001 23.441 39.1927
Pt 11.4523 21.436 39.2652
Pt 11.4332 23.4334 37.2964
Au 9.54364 21.4371 41.2953
Au 9.64647 23.4675 43.265
Pt 11.6817 21.492 43.3346
Au 11.586 23.4054 41.2695
Pt 9.71224 21.5546 45.0298
Pt 11.5829 23.4922 45.214
Pt 9.63795 25.4211 5.77753
Pt 9.64425 27.3985 7.72826
Au 11.573 25.4309 7.59069
Pt 11.4869 27.4662 5.72348
Pt 9.58933 25.4401 9.63182
Pt 9.50288 27.4018 11.6066
Au 11.5718 25.4871 11.5245
Pt 11.5861 27.4455 9.54685
Au 9.46247 25.4652 13.6108
Pt 9.37399 27.4122 15.5559
Au 11.4766 25.4958 15.5381
Pt 11.4973 27.4297 13.545
Au 9.37967 25.4507 17.4875
Au 9.35341 27.4484 19.4666
Au 11.4015 25.4681 19.4463
Pt 11.4473 27.4759 17.4949
Au 9.27706 25.5002 21.472
Pt 9.07834 27.4507 23.41
Au 11.2999 25.5403 23.3908
Pt 11.3616 27.4778 21.3538
Au 9.21161 25.495 25.4118
Au 9.16638 27.4176 27.44
Pt 11.2632 25.4739 27.4645
Au 11.2664 27.4351 25.4746
Au 9.22336 25.4508 29.3872
Au 9.24909 27.4331 31.3703
Au 11.3784 25.4517 31.4048
Au 11.3102 27.4546 29.3957
Au 9.27737 25.433 33.3678
Au 9.37809 27.408 35.3389
Pt 11.4245 25.3956 35.3584
Au 11.4253 27.3993 33.406
Pt 9.45449 25.4149 37.2944
Au 9.59802 27.4338 39.241
Pt 11.4951 25.3896 39.1955
Au 11.4993 27.4216 37.2652
Au 9.69105 25.4542 41.1733
Au 9.65578 27.4716 43.2424
Au 11.6495 25.4578 43.3654
Pt 11.626 27.4586 41.3598
Pt 9.58547 25.4627 45.1027
Pt 11.5918 27.4599 45.1873
Pt 9.63489 29.3531 5.88443
Pt 9.55085 31.3266 7.69439
Pt 11.5537 29.3867 7.68154
Pt 11.4969 31.2916 5.86629
Au 9.56293 29.418 9.66333
Pt 9.53762 31.4177 11.5615
Au 11.5621 29.3823 11.5588
Pt 11.519 31.374 9.54105
Au 9.46528 29.3298 13.5376
Au 9.5125 31.3871 15.5006
Au 11.4919 29.3813 15.4859
Au 11.5119 31.441 13.4805
Au 9.41388 29.3882 17.4823
Pt 9.3617 31.3377 19.4408
Pt 11.4167 29.4348 19.4186
Pt 11.4686 31.4046 17.4865
Au 9.26516 29.3982 21.4553
Au 9.1913 31.3716 23.4531
Au 11.264 29.3657 23.4316
Au 11.3598 31.388 21.4075
Au 9.15587 29.3735 25.3926
Pt 9.19243 31.3593 27.4259
Au 11.2421 29.4467 27.4493
Au 11.2541 31.4169 25.4591
Pt 9.17207 29.4058 29.3843
Pt 9.29299 31.3624 31.3911
Au 11.3382 29.443 31.3677
Pt 11.2811 31.3816 29.4033
Au 9.35926 29.4067 33.3844
Pt 9.4611 31.4148 35.3503
Pt 11.4724 29.4609 35.3325
Au 11.4188 31.4174 33.3921
Au 9.53796 29.4497 37.2951
Au 9.55962 31.4685 39.3827
Pt 11.5347 29.4937 39.3632
Pt 11.4816 31.4723 37.3657
Pt 9.6046 29.4153 41.2542
Pt 9.60756 31.2826 43.1707
Au 11.6037 29.4051 43.3004
Au 11.5299 31.5313 41.3941
Au 9.57765 29.4261 45.2362
Pt 11.6253 31.3478 45.0092
Pt 11.4707 33.2686 7.65703
Pt 9.53536 33.3013 9.58128
Pt 9.54667 35.3344 11.5957
Au 11.4834 33.4431 11.4417
Au 11.2938 35.5057 9.43854
Pt 9.4854 33.3945 13.493
Au 9.53593 35.3626 15.4716
Pt 11.4861 33.3824 15.5007
Au 11.5017 35.3944 13.4699
Pt 9.46142 33.325 17.5297
Au 9.43125 35.3267 19.4984
Pt 11.429 33.3441 19.4581
Au 11.4729 35.3411 17.5021
Au 9.29979 33.3052 21.4213
Au 9.34999 35.3232 23.4152
Au 11.3486 33.3604 23.4328
Pt 11.3929 35.3166 21.4307
Pt 9.21633 33.323 25.4597
Au 9.35925 35.3231 27.3962
Pt 11.3084 33.3266 27.4341
Au 11.3669 35.3144 25.429
Au 9.36833 33.3341 29.3975
Au 9.48069 35.3156 31.411
Au 11.4256 33.3408 31.4098
Pt 11.4451 35.3336 29.4301
Pt 9.43967 33.3369 33.3753
Au 9.51757 35.3773 35.364
Pt 11.4685 33.4273 35.3754
Pt 11.4537 35.3914 33.4183
Au 9.52182 33.3955 37.3586
Pt 9.58673 35.3388 39.289
Pt 11.5008 33.4532 39.4156
Au 11.5 35.4084 37.3992
Au 9.41866 33.5412 41.442
Au 11.4667 33.5564 43.4161
Pt 11.5902 35.3855 41.2758
Pt 11.4801 37.415 11.6472
Pt 9.56383 37.3729 13.5814
Pt 9.55608 39.373 15.5607
Au 11.5031 37.4559 15.474
Pt 11.5058 39.4209 13.5838
Au 9.5137 37.3952 17.4802
Pt 9.52781 39.3289 19.4705
Au 11.4794 37.3467 19.5045
Pt 11.4734 39.4123 17.5043
Pt 9.41356 37.3214 21.4091
Pt 9.42575 39.1574 23.4043
Pt 11.3952 37.2474 23.359
Pt 11.4715 39.2867 21.4427
Pt 9.36103 37.2702 25.4067
Pt 9.45337 39.2192 27.4445
Au 11.4514 37.3047 27.4537
Au 11.4609 39.1518 25.3873
Au 9.44776 37.2987 29.4036
Pt 9.46511 39.2684 31.4463
Au 11.4648 37.3637 31.4275
Pt 11.4058 39.2932 29.4487
Pt 9.48593 37.343 33.4169
Pt 9.54502 39.26 35.3529
Pt 11.448 37.4023 35.4433
Pt 11.4145 39.3532 33.4517
Pt 9.53638 37.2903 37.3358
Pt 11.5413 37.3132 39.357
Au 11.3265 39.4225 37.5484
Pt 11.5099 41.3296 15.5884
Pt 9.57239 41.2898 17.5584
Pt 9.60775 43.1962 19.5511
Pt 11.5122 41.3653 19.4402
Au 11.3665 43.415 17.3953
Au 9.58971 41.2234 21.4607
Au 9.69524 43.2038 23.5012
Au 11.5914 41.232 23.4884
Pt 11.6003 43.1995 21.5097
Au 9.60304 41.1565 25.4591
Pt 9.60713 43.1385 27.4466
Au 11.5468 41.2193 27.4204
Pt 11.6362 43.3634 25.4905
Pt 9.46338 41.2736 29.4453
Pt 9.58929 43.1869 31.3484
Au 11.4501 41.2538 31.4088
Au 11.5713 43.2257 29.362
Pt 9.5222 41.2363 33.3611
Au 11.336 41.4485 35.4796
Pt 11.4867 43.2202 33.3061
Pt 11.592 45.0132 19.6125
Pt 9.69222 45.004 21.558
Pt 11.5675 45.1867 23.4554
Pt 9.64848 45.1259 25.4578
Pt 11.5108 45.1807 27.4498
Pt 9.64344 44.9909 29.331
Pt 11.5694 45.0169 31.3175
Pt 13.5231 7.66142 15.62
Pt 15.4712 5.8301 15.633
Au 15.3888 7.47868 13.4665
Pt 13.5598 5.82592 17.6114
Pt 13.5961 7.6614 19.4924
Pt 15.4921 5.6371 19.4679
Au 15.5533 7.55391 17.5329
Pt 13.5653 5.66643 21.4028
Au 13.6206 7.4649 23.4601
Pt 15.5347 5.536 23.3444
Pt 15.5655 7.47225 21.4207
Pt 13.5734 5.57026 25.3901
Pt 13.5744 7.3639 27.4232
Au 15.4754 5.2611 27.4262
Pt 15.5609 7.30785 25.4303
Pt 13.4978 5.67085 29.4954
Pt 13.5647 7.64827 31.3985
Pt 15.4822 5.66006 31.5038
Au 15.5383 7.36358 29.4138
Pt 13.5389 5.871 33.3286
Pt 13.585 7.65202 35.3469
Au 15.5218 5.62196 35.4227
Au 15.5461 7.55076 33.4297
Pt 15.5452 7.65554 37.338
Pt 13.6122 11.498 11.4934
Pt 15.5624 9.61092 11.5427
Pt 15.5581 11.5329 9.52003
Pt 13.6021 9.5683 13.5884
Pt 13.4511 11.4269 15.4858
Pt 15.4972 9.48611 15.5021
Au 15.4954 11.4531 13.4914
Pt 13.522 9.55714 17.4762
Au 13.5628 11.5401 19.4202
Pt 15.5717 9.50256 19.4454
Pt 15.5 11.4691 17.4168
Au 13.6174 9.60127 21.4555
Pt 13.5949 11.5965 23.3791
Au 15.5833 9.43772 23.4281
Pt 15.5532 11.5082 21.3814
Au 13.6454 9.45736 25.4907
Pt 13.593 11.4723 27.4368
Pt 15.5835 9.24892 27.4255
Au 15.5295 11.4592 25.4507
Au 13.5975 9.50011 29.3657
Au 13.4688 11.469 31.42
Au 15.5971 9.50382 31.4208
Au 15.589 11.4576 29.4113
Au 13.4868 9.55039 33.415
Au 13.4246 11.5337 35.5079
Au 15.4954 9.57281 35.4105
Pt 15.5404 11.466 33.4155
Pt 13.5869 9.58474 37.3773
Pt 13.5809 11.5397 39.356
Pt 15.5407 9.55813 39.309
Pt 15.4821 11.5084 37.4592
Au 15.3271 11.3741 41.4428
Pt 13.5811 15.5123 7.60567
Pt 15.5622 13.5355 7.59093
Pt 15.5325 15.5586 5.82619
Pt 13.6431 13.4936 9.47526
Au 13.437 15.4006 11.3761
Au 15.4949 13.4351 11.4343
Pt 15.5355 15.4816 9.45426
Au 13.4245 13.3821 13.4285
Pt 13.5071 15.415 15.4193
Pt 15.472 13.4125 15.4415
Au 15.4525 15.4202 13.4414
Pt 13.5128 13.4176 17.3952
Au 13.4832 15.4245 19.4139
Pt 15.5097 13.4616 19.3556
Au 15.4768 15.4161 17.3714
Au 13.5537 13.5108 21.4216
Pt 13.5039 15.4973 23.3993
Pt 15.4819 13.5348 23.412
Pt 15.4809 15.46 21.4173
Au 13.5612 13.5364 25.4381
Pt 13.478 15.577 27.4331
Au 15.5129 13.4963 27.4734
Au 15.4375 15.5344 25.4251
Au 13.4853 13.5032 29.4247
Pt 13.4497 15.5238 31.4305
Au 15.4814 13.4631 31.4267
Au 15.4304 15.5126 29.4716
Au 13.4431 13.4707 33.4289
Au 13.4401 15.4549 35.4676
Au 15.4442 13.4613 35.4753
Au 15.406 15.5106 33.4253
Pt 13.4121 13.4261 37.5301
Au 13.4968 15.4657 39.4211
Pt 15.4692 13.467 39.458
Au 15.4557 15.4921 37.4695
Pt 13.5783 13.5721 41.3201
Pt 13.5676 15.5452 43.2187
Pt 15.4543 13.5911 43.254
Pt 15.5213 15.5845 41.4066
Pt 15.5233 15.5684 45.0198
Pt 13.602 17.5305 5.8454
Pt 13.5543 19.4289 7.62049
Pt 15.5263 17.4918 7.60594
Pt 15.4624 19.3885 5.63778
Pt 13.4446 17.4015 9.42827
Au 13.5717 19.376 11.4603
Pt 15.4697 17.4052 11.4271
Pt 15.5402 19.4127 9.43661
Pt 13.5071 17.374 13.4208
Pt 13.5444 19.3443 15.3699
Pt 15.4986 17.3688 15.3832
Pt 15.5163 19.3115 13.4549
Au 13.4812 17.4511 17.3902
Au 13.4924 19.5201 19.4859
Au 15.4864 17.4346 19.4143
Au 15.4807 19.4203 17.3858
Au 13.4844 17.4529 21.4467
Au 13.3801 19.4922 23.4183
Pt 15.404 17.4621 23.4296
Pt 15.4157 19.4685 21.4721
Pt 13.4022 17.5165 25.4009
Pt 13.3412 19.4788 27.4276
Au 15.4004 17.5012 27.4555
Au 15.3667 19.4505 25.4281
Pt 13.4253 17.5395 29.4241
Au 13.4172 19.4543 31.4137
Pt 15.4242 17.4404 31.4226
Au 15.4204 19.443 29.4676
Pt 13.445 17.4774 33.4305
Pt 13.433 19.431 35.4542
Pt 15.4091 17.4771 35.4785
Au 15.3991 19.4116 33.4329
Pt 13.4403 17.486 37.4608
Pt 13.4948 19.4688 39.3815
Pt 15.4976 17.5237 39.4491
Au 15.4564 19.4271 37.4488
Au 13.5633 17.5581 41.4054
Pt 13.5791 19.5825 43.3945
Au 15.5902 17.6119 43.4066
Pt 15.5456 19.5313 41.4674
Pt 13.5504 17.5235 44.9868
Au 15.4486 19.4896 45.5374
Pt 13.4736 21.3364 5.69807
Au 13.5936 23.4116 7.41675
Pt 15.572 21.4055 7.35985
Au 15.4422 23.341 5.29315
Au 13.6184 21.4478 9.48483
Au 13.5921 23.4733 11.4853
Au 15.561 21.4356 11.4799
Au 15.6322 23.4615 9.33852
Au 13.5711 21.4055 13.4757
Au 13.5605 23.499 15.4923
Au 15.4998 21.4552 15.4001
Pt 15.6006 23.5381 13.416
Au 13.508 21.4387 17.4485
Au 13.4149 23.4433 19.4404
Pt 15.4166 21.4953 19.4628
Pt 15.4279 23.4878 17.4896
Pt 13.3845 21.4868 21.426
Au 13.3183 23.4837 23.41
Au 15.3652 21.4713 23.4186
Au 15.3745 23.4743 21.4319
Au 13.2885 21.4425 25.4447
Au 13.2971 23.4557 27.4366
Au 15.3603 21.4428 27.4417
Au 15.345 23.4738 25.4332
Au 13.3576 21.4601 29.4377
Pt 13.3677 23.4716 31.4248
Pt 15.3776 21.4359 31.4575
Au 15.3556 23.4489 29.4892
Au 13.402 21.4693 33.3865
Pt 13.3996 23.4601 35.3832
Au 15.4349 21.4465 35.4273
Au 15.3906 23.4544 33.405
Au 13.4356 21.4393 37.3888
Pt 13.4389 23.4107 39.2991
Au 15.5109 21.45 39.4185
Au 15.49 23.4333 37.3917
Au 13.5769 21.474 41.3815
Pt 13.5943 23.4752 43.4674
Pt 15.5484 21.4961 43.6097
Au 15.5283 23.4594 41.5292
Au 13.4869 21.5405 45.5256
Pt 15.4837 23.527 45.3632
Pt 13.4048 25.5043 5.6633
Pt 13.522 27.4661 7.51381
Au 15.5755 25.4094 7.23651
Pt 15.3832 27.5307 5.56865
Au 13.6201 25.4599 9.43713
Au 13.596 27.4731 11.4698
Au 15.6216 25.5219 11.379
Pt 15.5975 27.4636 9.2888
Au 13.5873 25.495 13.465
Au 13.5242 27.4699 15.4541
Au 15.5288 25.4816 15.4307
Pt 15.5879 27.4968 13.3858
Pt 13.4322 25.5192 17.4894
Pt 13.3949 27.4959 19.4072
Au 15.3898 25.4774 19.4316
Au 15.4338 27.4946 17.4605
Pt 13.3441 25.4811 21.3527
Au 13.339 27.4467 23.409
Au 15.3463 25.4799 23.4238
Au 15.3637 27.475 21.404
Au 13.3092 25.5086 25.4902
Pt 13.3342 27.5059 27.4635
Au 15.3546 25.4857 27.4585
Au 15.3669 27.4914 25.4987
Au 13.3323 25.4782 29.4099
Pt 13.3828 27.46 31.427
Au 15.3463 25.4852 31.4501
Au 15.3619 27.5082 29.4209
Pt 13.4177 25.4296 33.4263
Pt 13.4365 27.4093 35.3577
Au 15.4486 25.4537 35.3798
Pt 15.3743 27.433 33.4295
Au 13.466 25.4077 37.3368
Au 13.4565 27.4589 39.3758
Au 15.5039 25.447 39.4108
Au 15.478 27.4503 37.3792
Au 13.537 25.42 41.3635
Pt 13.5958 27.4366 43.4226
Pt 15.5059 25.4919 43.5047
Au 15.5106 27.4542 41.4384
Pt 13.5559 25.4738 45.3245
Pt 15.4649 27.4529 45.386
Pt 13.3982 29.414 5.68314
Pt 13.5087 31.3633 7.52442
Pt 15.4758 29.4527 7.40915
Au 15.3875 31.366 5.34622
Pt 13.5647 29.4205 9.4429
Au 13.5395 31.4047 11.4532
Au 15.5654 29.4239 11.3643
Pt 15.5073 31.394 9.3463
Pt 13.5508 29.4448 13.4836
Au 13.4758 31.425 15.4634
Pt 15.4392 29.4731 15.4599
Au 15.5137 31.4518 13.458
Pt 13.4193 29.455 17.4581
Pt 13.3848 31.4101 19.4049
Pt 15.3294 29.4577 19.4111
Pt 15.3745 31.4212 17.4424
Au 13.359 29.4392 21.4058
Au 13.3675 31.4323 23.4801
Au 15.397 29.4814 23.4736
Au 15.3867 31.4225 21.4383
Au 13.3488 29.4344 25.4787
Au 13.3408 31.4313 27.4151
Pt 15.3798 29.4949 27.4598
Pt 15.407 31.4178 25.4828
Au 13.349 29.4699 29.4243
Pt 13.415 31.4512 31.4467
Au 15.3818 29.4565 31.4534
Au 15.4007 31.4401 29.4606
Au 13.4204 29.4244 33.4018
Au 13.4391 31.4795 35.4088
Au 15.4384 29.462 35.3971
Pt 15.4187 31.4468 33.4321
Au 13.4454 29.466 37.3577
Au 13.4944 31.4763 39.378
Au 15.4907 29.4452 39.3887
Pt 15.4511 31.4813 37.3942
Pt 13.5562 29.4704 41.43
Au 13.5665 31.4879 43.3471
Pt 15.5084 29.4072 43.4613
Au 15.5277 31.4297 41.4088
Pt 13.5485 29.422 45.2437
Pt 15.449 31.3986 45.2593
Au 13.3517 33.3782 5.6426
Pt 13.3768 35.2877 7.58578
Au 15.4726 33.3408 7.37397
Pt 15.5488 35.5361 6.03599
Au 13.4673 33.4099 9.43424
Au 13.3998 35.501 11.3568
Au 15.4777 33.4352 11.4078
Au 15.3844 35.5437 9.26349
Pt 13.4858 33.4021 13.4792
Au 13.5018 35.384 15.4757
Pt 15.4485 33.3862 15.4928
Au 15.4367 35.3782 13.4422
Au 13.4557 33.4028 17.4867
Pt 13.4429 35.3643 19.4826
Au 15.4207 33.4164 19.4557
Pt 15.4701 35.3918 17.4977
Pt 13.387 33.3657 21.3843
Au 13.3985 35.3159 23.4092
Au 15.414 33.3659 23.4717
Au 15.4527 35.4063 21.4367
Pt 13.357 33.3702 25.4627
Au 13.4162 35.3588 27.4361
Au 15.4111 33.4011 27.4081
Au 15.4676 35.3935 25.4348
Au 13.3802 33.3726 29.4287
Au 13.4389 35.3982 31.4356
Pt 15.3918 33.4426 31.4895
Au 15.4316 35.4484 29.4412
Pt 13.4388 33.4136 33.4283
Au 13.4492 35.4253 35.4009
Au 15.4504 33.437 35.4116
Au 15.4501 35.4564 33.4044
Pt 13.4698 33.4469 37.4198
Au 13.5027 35.4034 39.3821
Pt 15.4887 33.4664 39.4089
Pt 15.4304 35.4699 37.449
Pt 13.5308 33.468 41.3838
Pt 13.5766 35.3585 43.2399
Pt 15.5415 33.4099 43.3461
Pt 15.4974 35.4012 41.3485
Au 13.5957 33.4512 45.3053
Pt 15.5453 35.4083 45.0283
Au 15.2669 37.7548 7.48647
Au 13.2872 37.6373 9.49564
Pt 13.4916 39.4876 11.6057
Au 15.3689 37.5043 11.4098
Pt 15.5062 39.5243 9.61994
Au 13.4723 37.493 13.4535
Au 13.465 39.5102 15.4708
Au 15.4698 37.4558 15.5166
Pt 15.3707 39.5761 13.4872
Au 13.5145 37.3961 17.5299
Au 13.5031 39.3968 19.5043
Pt 15.551 37.4479 19.4832
Au 15.5077 39.4532 17.5308
Au 13.4846 37.3565 21.4488
Au 13.5726 39.3359 23.446
Au 15.5498 37.4549 23.4365
Pt 15.5719 39.4656 21.4588
Au 13.5098 37.3252 25.4031
Au 13.5389 39.275 27.4193
Pt 15.4994 37.4205 27.4233
Pt 15.5903 39.4824 25.4444
Pt 13.4513 37.3624 29.44
Au 13.4785 39.3146 31.4112
Pt 15.4568 37.4019 31.442
Au 15.5479 39.3605 29.4035
Pt 13.4043 37.3885 33.4253
Au 13.3325 39.3783 35.4658
Au 15.424 37.4688 35.4413
Au 15.4814 39.3724 33.4325
Pt 13.4215 37.4218 37.4367
Pt 13.4767 39.2473 39.3677
Pt 15.4454 37.4211 39.4485
Pt 15.4173 39.3811 37.4948
Pt 13.5324 37.2954 41.3161
Pt 15.4751 37.3503 43.2003
Au 15.2883 39.4817 41.477
Pt 15.5175 41.4343 11.5837
Au 13.3193 41.5582 13.4069
Pt 13.5396 43.248 15.6229
Pt 15.4457 41.4096 15.5279
Pt 15.4841 43.2726 13.6232
Pt 13.4259 41.4033 17.5188
Pt 13.4813 43.2661 19.4686
Au 15.5355 41.4533 19.4891
Pt 15.4294 43.3729 17.5117
Au 13.5747 41.3618 21.5124
Pt 13.5432 43.4007 23.5204
Pt 15.5637 41.5326 23.4859
Pt 15.4746 43.4372 21.4958
Au 13.5867 41.3709 25.4542
Pt 13.5725 43.4544 27.3727
Au 15.5776 41.4561 27.4216
Pt 15.4823 43.4893 25.4576
Au 13.5453 41.3054 29.3657
Au 13.5285 43.2698 31.3947
Au 15.5563 41.3977 31.4055
Au 15.5285 43.4501 29.3926
Au 13.4275 41.3414 33.4486
Pt 13.4885 43.2677 35.2596
Au 15.4214 41.3839 35.4491
Pt 15.546 43.389 33.3662
Pt 13.468 41.2138 37.3359
Au 15.2707 41.4083 39.4682
Au 15.2774 43.4187 37.4192
Au 15.4612 45.3006 15.5099
Au 13.4572 45.2846 17.561
Pt 15.3586 45.2057 19.502
Pt 13.4694 45.1806 21.4959
Pt 15.4072 45.2944 23.4843
Au 13.4893 45.5679 25.47
Pt 15.4973 45.3315 27.4182
Pt 13.4866 45.2065 29.4218
Pt 15.4407 45.2385 31.402
Pt 13.4906 45.0529 33.2801
Au 15.3756 45.283 35.3218
Au 17.4763 7.42317 11.4647
Pt 19.6996 5.76629 11.6355
Pt 19.6276 7.58672 9.65273
Au 17.5994 5.5553 13.5678
Au 17.5262 7.43929 15.5127
Pt 19.6023 5.604 15.4931
Au 19.5302 7.5191 13.5286
Au 17.5029 5.33753 17.4858
Pt 17.5286 7.39668 19.4402
Pt 19.4716 5.49918 19.4958
Pt 19.5251 7.31476 17.5203
Pt 17.4736 5.52677 21.3903
Pt 17.4969 7.35704 23.3705
Pt 19.3765 5.42285 23.3009
Pt 19.4738 7.33837 21.4293
Pt 17.4527 5.4646 25.285
Au 17.5321 7.16959 27.4154
Au 19.3801 5.15223 27.4452
Pt 19.4935 7.15832 25.3697
Pt 17.4808 5.53643 29.581
Pt 17.5354 7.42986 31.4612
Pt 19.444 5.49974 31.5679
Pt 19.5337 7.2139 29.5057
Pt 17.5068 5.64992 33.4713
Pt 17.4919 7.5965 35.3692
Pt 19.4328 5.67949 35.4063
Pt 19.5054 7.45056 33.3975
Pt 17.5557 5.89807 37.3319
Pt 17.5471 7.66527 39.3381
Au 19.4446 5.64955 39.3733
Pt 19.5335 7.56857 37.3777
Pt 19.4995 7.7101 41.2547
Pt 17.5044 11.5764 7.63111
Au 19.3257 9.35702 7.50031
Pt 19.5557 11.5719 5.94706
Au 17.3832 9.41772 9.46635
Pt 17.5054 11.4582 11.4037
Pt 19.3961 9.5074 11.4598
Pt 19.4412 11.477 9.39816
Au 17.4537 9.43405 13.4567
Pt 17.4534 11.4409 15.474
Au 19.5286 9.44576 15.5356
Pt 19.4028 11.4527 13.4711
Au 17.5586 9.45501 17.4864
Au 17.5126 11.4423 19.4378
Pt 19.5063 9.27899 19.4705
Pt 19.4459 11.4345 17.4708
Pt 17.5476 9.32122 21.4021
Au 17.4849 11.4181 23.4
Au 19.4903 9.26889 23.4523
Au 19.498 11.3345 21.4451
Au 17.5202 9.26519 25.4498
Au 17.511 11.3791 27.4396
Au 19.5068 9.17836 27.4286
Au 19.4982 11.3227 25.428
Au 17.5669 9.31473 29.4239
Pt 17.5629 11.4674 31.4324
Pt 19.5105 9.31699 31.4099
Au 19.4704 11.3757 29.4712
Pt 17.5704 9.44476 33.3696
Au 17.4949 11.5276 35.4236
Au 19.4807 9.48395 35.379
Au 19.4814 11.4656 33.3565
Au 17.493 9.53714 37.4159
Pt 17.3878 11.5171 39.4221
Pt 19.469 9.58764 39.3322
Pt 19.4294 11.5394 37.4354
Pt 17.5361 9.59401 41.2443
Au 17.3405 11.3829 43.4388
Pt 19.5338 9.62115 43.2183
Au 19.43 11.5456 41.3985
Pt 19.5572 11.6123 45.0006
Au 17.4638 13.4671 5.6286
Pt 17.5056 15.4848 7.53406
Pt 19.4999 13.6133 7.51029
Au 19.4046 15.4553 5.36729
Au 17.5229 13.486 9.47357
Au 17.5121 15.4968 11.4423
Pt 19.4564 13.4919 11.4176
Pt 19.4889 15.5252 9.42921
Au 17.5102 13.4216 13.4339
Pt 17.4548 15.4047 15.3932
Au 19.4454 13.4193 15.4584
Pt 19.432 15.467 13.438
Pt 17.4452 13.4415 17.3823
Pt 17.4246 15.4076 19.3557
Au 19.4501 13.4624 19.3916
Pt 19.3754 15.42 17.3679
Au 17.4487 13.48 21.4169
Au 17.4582 15.4784 23.4318
Au 19.4879 13.4 23.4452
Au 19.4447 15.4525 21.4045
Au 17.4797 13.4704 25.4167
Au 17.4737 15.4699 27.4831
Au 19.4357 13.4286 27.4708
Pt 19.4333 15.459 25.4475
Pt 17.5081 13.5059 29.5235
Pt 17.4426 15.4587 31.4593
Pt 19.442 13.4758 31.4497
Pt 19.42 15.4343 29.5267
Au 17.4605 13.4844 33.407
Au 17.4404 15.4765 35.4671
Pt 19.4321 13.4852 35.3896
Pt 19.4204 15.4397 33.4053
Pt 17.4402 13.4852 37.4695
Au 17.4585 15.5331 39.4713
Au 19.4421 13.5174 39.4332
Au 19.4387 15.4785 37.4422
Au 17.3784 13.4569 41.4697
Pt 17.5262 15.6299 43.3507
Au 19.4912 13.6042 43.3544
Au 19.487 15.621 41.4596
Pt 17.4796 13.6074 44.989
Au 19.455 15.4763 45.529
Pt 17.4027 17.4623 5.68088
Pt 17.502 19.472 7.39881
Au 19.5333 17.4378 7.3151
Pt 19.4743 19.4543 5.54849
Au 17.554 17.4966 9.42465
Au 17.5016 19.3892 11.4515
Pt 19.4954 17.4721 11.423
Pt 19.5242 19.4334 9.28572
Pt 17.4868 17.3845 13.4317
Au 17.4762 19.386 15.3829
Pt 19.4253 17.3826 15.4056
Pt 19.4555 19.346 13.4183
Pt 17.4479 17.3576 17.3309
Au 17.3983 19.474 19.4218
Au 19.3822 17.4055 19.3644
Au 19.4209 19.4358 17.3837
Au 17.4099 17.4437 21.4332
Au 17.4132 19.453 23.416
Pt 19.4135 17.4466 23.4134
Au 19.4212 19.4572 21.4268
Au 17.4525 17.4627 25.4077
Au 17.4231 19.4436 27.4729
Au 19.417 17.4201 27.4882
Au 19.428 19.4579 25.4215
Pt 17.4326 17.3957 29.5296
Pt 17.3742 19.3776 31.4454
Pt 19.4042 17.3766 31.4608
Au 19.3741 19.4123 29.5123
Au 17.4228 17.4351 33.4226
Au 17.4348 19.4271 35.481
Au 19.44 17.4649 35.467
Au 19.4046 19.4379 33.4266
Pt 17.4501 17.5019 37.5108
Pt 17.4822 19.4677 39.4929
Pt 19.42 17.5698 39.5055
Pt 19.413 19.4772 37.5247
Pt 17.4785 17.6051 41.4811
Pt 17.5118 19.5517 43.611
Pt 19.4351 17.5372 43.5701
Au 19.4532 19.5111 41.5963