3871
Atoms. Timestep: 21394
Au 14.268 5.96448 19.7576
Pt 13.6084 8.51189 30.2821
Pt 13.2558 11.1884 29.4789
Pt 11.2457 9.31501 30.1378
Pt 12.6112 9.23604 27.5956
Pt 15.631 5.76 32.5545
Au 25.0599 1.64642 21.8587
Pt 7.04984 13.7251 31.2993
Pt 8.64306 15.2164 18.4046
Pt 15.2722 9.61703 28.5346
Au 6.66516 12.0749 21.3028
Pt 11.0645 15.6756 26.8724
Au 6.99505 10.7313 24.81
Pt 18.8543 6.3207 28.9466
Pt 15.0968 13.4777 22.3783
Pt 12.5869 11.9368 16.8897
Pt 8.82036 15.1993 28.1702
Au 4.10207 16.8316 26.284
Pt 9.30866 11.9668 24.7116
Au 8.62817 10.5668 22.4133
Pt 12.458 13.3332 27.1658
Au 4.86053 15.769 32.0872
Pt 9.81419 13.2367 26.9357
Au 5.18076 12.6862 24.2887
Pt 13.9513 15.1384 14.8349
Au 8.10824 12.3871 17.2367
Pt 11.6551 13.8547 15.0934
Pt 15.9806 6.10668 17.6544
Pt 6.41596 16.1659 19.9895
Pt 13.0254 14.5409 17.4851
Pt 12.5357 14.8519 22.6862
Au 12.0854 9.05208 16.9657
Pt 10.8129 10.4583 20.7076
Pt 11.6392 11.0659 25.9187
Pt 5.86066 19.9111 19.341
Au 5.29965 14.4025 21.8914
Pt 7.66224 13.4872 23.3538
Au 6.4076 13.6245 18.9986
Pt 6.73366 13.6483 28.4632
Au 6.08958 15.8113 35.1583
Pt 5.29457 18.2292 30.8485
Pt 6.58729 15.9631 27.1112
Pt 8.12855 14.3907 20.9543
Au 4.64176 22.2209 34.9119
Pt 8.17933 17.8743 35.454
Pt 4.49308 20.7325 30.7576
Pt 9.67597 13.9295 32.5278
Au 7.86803 14.0206 37.1524
Pt 9.74071 18.6116 14.1362
Au 12.8163 18.1235 8.04696
Pt 11.6908 26.062 8.82302
Pt 13.3693 16.4902 12.6231
Pt 16.2056 12.4979 13.1667
Au 2.43663 19.1496 22.3971
Pt 8.80898 16.9249 16.0782
Pt 4.83404 20.1139 21.8921
Pt 6.40715 20.1486 24.0318
Au 8.92172 14.3186 15.445
Au 15.3714 15.5332 18.3881
Pt 7.08203 16.1968 22.7049
Au 4.53926 14.0838 26.9127
Pt 11.2184 16.8794 24.4955
Pt 6.87995 18.4567 21.4898
Pt 8.99624 17.7334 23.4375
Pt 6.54903 15.9757 29.9664
Pt 7.44367 15.8223 32.7576
Pt 9.17636 17.5014 26.4782
Au 6.91453 13.4241 34.0107
Au 4.19 19.8849 33.3435
Pt 9.83053 16.8954 33.1704
Au 10.7455 18.725 31.339
Pt 8.81197 15.2819 34.9626
Pt 5.44848 22.2876 25.9275
Pt 5.54653 23.1095 32.5124
Au 2.22869 21.4372 29.4244
Au 8.68713 10.0226 29.9596
Au 6.60562 16.8348 37.6395
Pt 9.19459 21.0153 31.3888
Pt 6.52851 20.3145 34.8124
Au 5.90081 24.1377 39.2172
Au 6.45047 21.2591 12.1788
Pt 11.1174 20.1743 12.1872
Au 7.70936 22.8947 10.1193
Pt 9.78101 24.404 11.5196
Pt 8.91113 19.4788 16.7087
Pt 6.70459 25.0803 14.7221
Pt 15.3537 10.0246 13.9883
Au 3.97755 19.6957 16.9043
Pt 9.00162 16.9344 20.6131
Au 8.89791 16.09 13.3476
Pt 5.48181 23.7515 16.7975
Pt 6.41614 20.9091 16.8348
Pt 11.2744 18.5868 16.3345
Pt 9.48118 19.4434 21.4434
Au 2.5282 21.9703 22.2139
Pt 8.53455 20.5148 19.1251
Pt 4.90807 19.4945 26.1622
Pt 4.81301 17.9411 23.6156
Pt 4.51887 25.0906 26.217
Pt 6.89059 17.7378 25.1376
Pt 7.14423 20.0462 29.5614
Au 10.1029 28.4473 31.4402
Pt 7.23624 13.3426 25.9654
Pt 8.23263 17.6884 28.8846
Pt 8.2243 25.0387 28.6676
Pt 7.99953 18.1321 31.4104
Pt 5.79798 18.2213 28.1694
Pt 3.67889 25.5281 28.7031
Au 9.6415 19.6763 41.4326
Pt 11.2021 23.0279 31.9108
Au 10.7845 21.9587 24.881
Pt 10.3346 24.9949 40.4032
Au 5.04316 32.9572 33.5226
Au 1.3194 26.9348 28.3151
Pt 6.82817 22.3447 36.6335
Pt 11.556 19.8896 39.4387
Pt 11.9605 21.0231 42.226
Pt 12.8968 22.1828 39.7916
Pt 10.3739 22.3111 40.6241
Au 17.0975 22.2762 47.724
Au 9.33711 24.7305 8.87527
Pt 5.7868 26.3394 16.8179
Pt 8.2613 28.5178 12.5198
Pt 12.3008 25.9002 11.7644
Pt 7.62377 25.2582 19.3642
Pt 7.2226 23.945 12.41
Au 5.23018 20.0648 14.3814
Au 3.39264 26.9377 17.8038
Au 3.31398 18.9908 28.7147
Pt 4.31407 21.9747 18.2224
Pt 8.29578 27.9008 20.3693
Pt 11.3373 25.0097 14.1318
Pt 6.47005 18.3932 16.2384
Pt 7.96306 24.4555 16.9694
Pt 6.8991 29.9472 26.6221
Pt 3.90105 27.1031 20.7809
Pt 3.78072 20.8559 24.2317
Pt 5.69651 15.2905 24.6363
Pt 5.74622 25.2379 30.4304
Pt 5.04771 22.4201 20.7214
Au 2.81181 24.2036 17.4251
Pt 3.27691 27.8605 29.7761
Pt 6.05067 26.7369 28.2445
Pt 7.9177 22.2822 27.8254
Au 2.48472 20.7491 26.6639
Au 2.52753 18.5904 25.0247
Pt 9.15849 30.9233 30.5596
Pt 7.54008 31.9346 32.5566
Pt 10.6643 21.7723 34.2141
Au 4.94701 30.5969 32.1669
Au 6.84777 32.7164 36.7613
Pt 4.06372 23.249 30.1161
Au 4.85853 24.568 36.4992
Pt 9.14725 38.2986 33.3041
Pt 9.93337 25.6277 37.7922
Pt 12.3259 23.8494 42.0295
Pt 12.3472 26.005 38.8284
Pt 14.3803 32.4337 42.1165
Pt 6.66103 30.9197 34.7106
Pt 12.6702 26.2377 44.015
Pt 11.5694 24.1034 35.8098
Pt 14.6965 22.6947 41.6326
Pt 8.25351 29.749 18.3082
Au 8.58051 19.2446 11.6473
Au 4.53833 36.7753 18.8921
Pt 10.8762 17.4787 12.0453
Pt 10.2062 32.3863 12.3285
Au 1.9243 28.6638 24.9391
Pt 12.5743 31.2243 13.6954
Pt 4.85814 24.8417 19.2389
Au 3.25367 33.6886 23.8285
Pt 9.33084 26.1568 15.5171
Pt 3.9747 24.5824 21.898
Pt 6.19987 29.7741 23.9706
Au 4.85074 17.5757 18.3187
Au 7.05271 18.039 13.6735
Au 1.80658 28.3615 19.5357
Pt 5.06522 21.1703 28.2649
Pt 2.7013 23.1297 19.9181
Au 4.26627 17.501 21.0206
Pt 7.84171 26.8015 30.6301
Au 8.6331 34.8731 36.7532
Pt 3.53278 27.4228 26.8262
Pt 7.59389 29.3293 31.987
Pt 8.10117 35.9674 32.4999
Pt 11.6195 31.444 31.3201
Pt 9.35261 26.1963 35.4172
Pt 6.79106 22.5191 30.2795
Au 1.52307 24.17 29.3188
Pt 3.27901 23.0911 27.439
Au 3.39392 30.6401 29.9516
Pt 6.22847 18.0114 33.4114
Pt 9.74356 24.2853 33.7344
Pt 6.95542 24.2808 34.5742
Pt 5.65463 26.0224 32.8641
Au 4.22012 33.1706 30.6531
Pt 7.43794 24.9907 37.1696
Pt 15.981 23.8372 45.8559
Pt 15.238 30.7649 12.4509
Pt 5.67257 34.2435 22.9561
Pt 7.13777 25.0846 26.1277
Pt 7.34801 21.029 21.5796
Pt 6.02952 31.6057 17.7317
Pt 12.0754 28.4012 9.89979
Pt 4.32057 29.7581 25.8848
Pt 3.29601 30.7509 23.7511
Pt 7.22166 36.6156 18.4932
Pt 4.89943 34.2292 18.2852
Au 3.39952 34.2505 28.1355
Au 2.26939 29.6813 27.6601
Au 2.00151 30.9714 19.0963
Pt 5.97872 27.5733 25.6226
Pt 4.25644 28.0649 23.4344
Au 3.10602 20.1508 19.8139
Au 10.4799 42.5796 30.0037
Pt 5.90377 28.4972 33.684
Pt 7.4736 35.53 27.1782
Pt 14.1031 33.1915 37.2609
Au 7.85821 31.6681 39.3465
Pt 8.35562 28.8364 34.821
Pt 13.7374 40.965 35.1254
Pt 12.0985 31.7108 38.0894
Pt 7.27035 38.0903 26.4921
Pt 9.50652 33.5696 31.8224
Pt 8.2563 30.3827 36.9442
Pt 8.52216 33.125 29.2909
Pt 8.36499 31.844 16.5392
Au 4.93101 36.646 27.5358
Au 17.2295 47.3603 17.4357
Pt 8.13377 39.7635 21.39
Pt 6.42295 33.425 20.2851
Au 8.73701 42.7083 21.889
Pt 7.85489 35.8072 22.8325
Pt 10.3852 38.1685 23.0179
Au 1.70603 27.5116 22.2806
Pt 7.57158 34.0937 24.8428
Au 4.01618 27.1857 35.2503
Pt 6.81415 37.6488 29.1104
Au 5.06696 36.0419 30.402
Au 11.532 38.2098 38.3842
Pt 14.7314 41.9563 30.5574
Pt 7.30426 34.1532 34.2895
Au 14.787 45.9392 17.4877
Pt 10.3189 28.4915 36.7535
Pt 11.458 37.223 34.0452
Pt 8.95986 38.1211 30.6432
Pt 15.9931 46.7367 25.1718
Au 12.9046 44.1147 30.501
Pt 13.577 37.0881 15.2216
Pt 7.25894 32.5418 27.0358
Pt 18.4072 46.5099 23.782
Pt 12.2646 39.9622 22.0337
Au 21.3039 49.6065 27.811
Pt 13.4649 38.9848 33.2894
Pt 11.1529 36.2564 15.9055
Au 18.0576 45.6864 37.7676
Pt 22.5416 47.0176 21.7249
Au 5.49662 35.7957 33.1405
Pt 12.5353 42.4403 20.1379
Pt 18.6328 43.7504 27.3982
Pt 7.96456 38.4002 23.9429
Pt 17.4416 8.22832 24.9024
Pt 14.2001 7.09859 28.0303
Pt 10.4619 10.8228 18.1209
Pt 19.7294 7.62132 31.3639
Au 19.7698 2.74371 27.0919
Pt 15.9947 7.5917 30.1635
Au 15.7335 3.63628 30.6558
Pt 18.042 4.89209 26.8102
Pt 13.4092 12.9546 24.5456
Au 9.91901 8.74919 27.69
Pt 21.8619 6.10088 30.206
Pt 9.09824 12.428 19.7181
Au 5.60264 11.5277 27.113
Pt 14.5039 8.22337 32.716
Pt 17.6873 3.69324 32.534
Pt 16.1322 5.36512 28.6072
Pt 11.8671 12.6453 19.4974
Au 18.3715 8.25573 11.1638
Au 10.4885 8.32818 22.4456
Pt 10.8371 14.9931 20.1083
Pt 10.4892 13.5555 17.5125
Pt 14.2442 11.344 26.7571
Pt 17.4118 14.1284 14.8307
Au 17.8317 12.9831 26.8488
Pt 8.29983 11.145 27.3476
Au 18.5048 10.8419 31.6913
Pt 12.8576 12.1891 21.8668
Pt 11.0088 13.935 24.6708
Au 23.3428 14.5116 25.2807
Au 16.1155 12.3029 24.6718
Au 17.8455 15.6406 26.1502
Pt 13.2767 15.4615 25.4992
Pt 13.1488 10.6171 32.0401
Pt 11.2253 14.0994 29.4298
Au 8.33762 11.512 32.4325
Pt 10.78 11.7602 30.9735
Au 12.0452 7.41224 32.2713
Pt 9.26368 12.7098 35.0816
Au 16.3114 12.052 29.0216
Au 11.7728 9.32148 36.9961
Pt 17.016 19.6168 9.86866
Au 11.1137 14.7392 12.3566
Au 14.911 17.3272 6.25181
Au 10.2502 11.5144 15.4881
Au 6.47507 15.7041 16.9941
Au 13.8827 11.1398 11.8838
Pt 13.6752 13.8423 12.36
Pt 17.1362 11.3228 15.5334
Au 15.947 20.8031 14.7476
Pt 16.4192 8.55975 16.4384
Au 20.0481 13.9294 18.8493
Pt 11.2974 10.7965 23.4248
Pt 17.302 12.388 17.8816
Au 9.55712 9.26625 25.0244
Pt 19.5781 13.1137 16.2256
Au 19.5529 17.6607 25.4621
Pt 9.14198 15.6739 30.708
Au 18.1903 17.57 28.1617
Au 15.3466 16.0688 21.3581
Pt 10.2713 12.8788 22.0842
Au 4.06008 16.2619 29.0282
Au 18.511 19.9168 26.4368
Au 16.6564 17.8661 24.7321
Pt 11.7666 11.9672 36.0683
Pt 10.0486 18.7999 37.3939
Pt 13.5407 13.8392 36.5919
Au 15.3581 12.9847 31.7446
Pt 10.6409 14.2967 36.7331
Pt 13.8651 21.5886 43.9287
Au 4.64507 13.8051 30.0234
Au 5.12451 18.3233 35.8539
Pt 9.15515 16.3766 37.6141
Pt 14.6136 15.6132 10.3767
Au 10.0623 21.6863 9.62654
Pt 16.0153 21.8981 7.08271
Pt 15.8931 17.6931 11.5255
Pt 10.9553 16.1887 17.4861
Au 10.7886 18.9825 9.7085
Pt 15.9165 15.2058 12.8616
Au 14.2093 7.78873 15.3385
Au 18.2724 19.1664 15.3572
Au 10.5936 24.0453 16.7859
Pt 11.3476 16.3785 14.6988
Pt 7.72391 17.9715 18.5519
Pt 8.77477 22.0401 16.6085
Au 19.4083 15.9309 15.4485
Au 23.0288 11.7548 25.2486
Au 16.2942 20.6657 19.5791
Au 13.6987 19.3637 21.3722
Au 16.7623 13.786 20.1897
Au 13.9938 22.1627 20.1944
Au 9.67481 22.3017 22.3177
Pt 5.84401 23.8448 28.1313
Au 15.6752 18.0358 19.4719
Pt 15.3657 13.4103 16.3682
Au 14.9094 15.6566 30.6669
Pt 10.8084 17.0296 29.1392
Au 13.8831 17.2106 23.345
Au 12.542 18.9666 28.4177
Pt 10.8288 11.3016 28.3678
Au 15.0486 19.9107 31.919
Au 14.5635 20.6337 29.2418
Au 11.8369 21.0927 30.1354
Pt 8.8814 12.8408 29.6491
Pt 8.93514 20.6728 35.8835
Au 9.27999 27.4945 41.966
Pt 9.22306 23.2443 36.28
Au 5.77189 29.1444 36.6357
Pt 13.4573 17.7881 39.4939
Pt 7.13436 19.5061 37.3221
Au 13.8918 19.8278 46.1732
Au 12.885 16.1174 43.3982
Pt 14.068 27.4805 8.19072
Pt 10.7228 27.6357 13.6501
Pt 11.6006 22.8786 12.6338
Pt 15.9745 24.5638 8.12293
Au 11.9851 16.1015 9.99121
Au 15.311 13.2075 7.81341
Au 12.7087 22.8569 15.6848
Pt 12.4819 18.7015 13.8688
Au 13.5156 21.237 13.3887
Pt 9.09784 21.8512 12.2862
Au 12.8651 21.9057 23.0435
Au 12.5901 28.7474 20.977
Au 8.00514 22.3482 25.113
Pt 3.3029 23.4735 24.4932
Pt 7.43753 23.5776 21.3021
Au 12.9986 16.9392 19.3214
Pt 9.84028 15.3505 22.7146
Au 9.17126 30.6278 27.8593
Pt 5.06276 29.1977 28.4036
Au 10.9838 28.8094 26.7554
Au 7.70104 19.8789 26.6871
Au 11.4682 20.9366 20.4963
Pt 7.61419 28.9379 29.1668
Au 10.018 27.3153 28.9064
Pt 12.4497 20.3754 32.7741
Au 9.77069 19.8728 28.7941
Pt 13.9841 13.5919 29.2886
Au 13.227 23.045 28.5783
Au 10.7432 22.1481 27.6084
Pt 9.46267 23.0921 29.9385
Au 13.7184 23.0983 37.1922
Au 15.6845 22.5066 27.4969
Pt 11.17 23.4131 38.3443
Pt 8.47021 23.4461 39.0493
Pt 6.62548 20.4564 32.1663
Pt 9.12665 20.9681 38.6331
Au 8.07266 24.3824 41.7432
Au 3.42617 28.0623 32.6127
Pt 14.1942 24.5096 39.6917
Au 11.7159 23.8176 44.9167
Pt 15.5595 19.7753 43.334
Pt 23.3431 21.3463 44.7187
Pt 8.02641 20.4855 14.3741
Pt 10.447 29.956 11.2166
Au 7.60633 26.2149 10.5186
Pt 6.58848 22.5103 14.7175
Pt 10.7003 21.1058 14.7811
Pt 8.62606 26.0498 13.0834
Au 11.8104 26.5614 16.5818
Pt 7.45412 30.2996 14.6549
Au 13.5902 17.2471 16.538
Pt 6.11497 29.0044 16.9211
Au 13.7045 15.4387 7.87558
Pt 4.4608 29.5006 19.0202
Au 9.61308 23.0224 19.4147
Au 5.71603 22.7834 23.3085
Au 15.6697 19.1649 16.9597
Pt 5.99651 27.4413 19.1443
Au 10.1815 33.5522 24.0945
Pt 2.87342 26.1363 24.3179
Au 16.5093 29.1674 26.5636
Pt 8.89193 29.0896 24.8335
Au 11.6789 29.621 29.3692
Au 9.39167 36.31 25.134
Pt 16.9386 33.3036 32.9493
Au 9.68101 33.9552 26.8001
Au 14.4858 29.2901 28.8331
Au 12.9946 25.0761 30.6459
Au 11.0953 24.7653 28.5712
Au 14.1632 29.5218 23.2865
Au 10.3145 25.598 31.2351
Au 12.0994 25.7726 33.4634
Pt 10.1538 27.645 39.4698
Au 16.082 24.5148 37.5868
Pt 10.3463 25.2829 43.0359
Au 2.98299 22.3607 32.4075
Pt 8.06772 22.1673 33.6116
Au 12.4228 28.8051 38.3925
Au 18.623 17.7201 47.7923
Au 7.63803 28.9428 39.7695
Au 9.84866 22.587 43.2174
Pt 16.5468 27.6367 42.0393
Pt 12.1126 26.5642 41.4546
Pt 22.0827 25.6396 45.7513
Pt 11.8002 23.7275 10.0587
Pt 13.0194 30.9461 11.1122
Pt 8.49476 35.5935 16.0464
Pt 13.8541 22.8744 8.52544
Au 4.72076 23.5556 13.1428
Pt 8.10256 32.9084 14.1964
Au 9.43054 28.8589 15.9684
Pt 15.4052 31.1532 9.81682
Au 11.8901 32.5911 19.0691
Au 13.0464 32.0561 16.4609
Au 12.1922 29.2386 15.5637
Au 19.8779 30.5418 11.0199
Au 13.3745 20.2276 15.9523
Pt 5.47372 25.5299 23.8909
Pt 6.91173 22.6293 18.8271
Pt 5.86726 28.8097 21.4737
Au 6.4066 31.3561 29.9103
Au 1.69458 25.0222 26.4628
Au 13.0532 30.8406 27.0773
Au 10.6218 30.7321 23.165
Au 2.37095 32.2313 21.6493
Pt 5.18557 34.2252 26.1703
Au 15.1564 33.173 27.4405
Au 10.5452 32.9933 21.4333
Pt 12.2095 34.0605 31.2696
Pt 6.6661 33.9955 31.4016
Au 14.6637 29.8889 31.4625
Pt 9.75055 30.5201 33.2387
Au 13.7607 31.9653 29.6527
Pt 6.60525 26.721 35.4044
Pt 8.34547 26.739 33.1357
Au 12.7402 27.8156 31.4128
Au 4.03536 30.0604 34.6953
Au 14.8187 34.3829 44.1119
Pt 8.00976 27.679 37.4709
Pt 7.90221 26.1271 39.6879
Pt 10.1216 30.2182 38.9304
Pt 17.0399 25.0572 43.4905
Au 13.7748 25.4365 46.3771
Au 19.7943 25.2076 47.3078
Au 12.6401 34.5252 42.3168
Pt 15.3718 26.6529 44.5734
Pt 16.7183 26.8711 6.92152
Pt 10.095 27.1271 11.0235
Pt 7.14058 27.6914 14.8222
Au 13.8789 30.0122 5.96917
Au 3.81558 22.1995 15.4542
Pt 11.8737 38.7955 14.2619
Au 5.75692 33.4347 15.6006
Pt 12.507 34.3122 14.828
Au 7.10623 35.5044 13.8096
Pt 3.3273 29.7384 21.3811
Au 5.75741 26.5153 12.6641
Pt 6.24791 25.9979 21.4535
Au 5.77533 36.0862 16.3465
Au 3.01569 29.5337 16.8281
Au 1.46911 24.6131 22.5433
Au 9.39113 40.6427 31.8118
Pt 8.98308 39.1473 18.8149
Pt 5.54461 28.0836 30.8891
Au 3.09888 25.5095 31.4345
Pt 6.00902 34.1097 28.8097
Au 8.17028 39.9234 28.3404
Au 4.13425 36.5112 22.8146
Au 6.57515 38.0298 31.8434
Au 10.6405 39.902 29.3635
Pt 4.78879 31.8062 27.7648
Pt 13.4067 35.6172 36.4843
Au 11.7496 31.6362 42.2752
Pt 11.3172 32.6294 33.589
Pt 15.428 34.8013 41.5093
Au 5.53562 26.7646 38.1141
Pt 10.8489 28.126 34.0427
Pt 17.2987 34.1081 39.7165
Au 16.5286 28.2437 46.6489
Au 7.79276 36.8208 35.0444
Au 15.8571 39.3155 42.163
Pt 22.4346 31.8844 45.7452
Pt 8.69093 34.8583 20.1298
Pt 4.99111 30.7594 15.362
Pt 14.3691 40.6375 18.6122
Au 9.51768 27.5472 8.41492
Pt 11.6695 32.4886 9.77339
Au 14.9199 37.2225 17.6788
Pt 12.3234 37.3784 18.1304
Au 2.80021 32.1935 26.1071
Pt 11.6102 36.2564 12.9288
Pt 14.7936 44.1494 24.8793
Pt 10.3013 40.9201 20.609
Pt 5.27897 31.6947 22.2104
Pt 13.5107 43.976 22.4607
Pt 8.16027 31.5605 24.6491
Pt 16.0778 42.5281 34.7959
Au 6.66259 40.8385 23.2436
Au 10.6895 31.4379 25.8268
Au 3.69799 24.65 34.0013
Pt 8.15936 35.6245 29.9219
Au 5.32152 38.8744 24.758
Pt 5.44439 32.0939 24.8678
Pt 9.64499 32.6035 37.5948
Pt 16.2127 39.0757 37.8578
Pt 14.1103 37.5405 38.1306
Pt 6.12971 36.3716 24.774
Pt 14.1396 27.8488 40.2073
Pt 13.869 28.248 42.7302
Au 16.48 47.7726 27.7154
Pt 9.41556 37.4178 14.3433
Pt 4.28498 32.0176 19.7523
Pt 7.43028 34.0184 17.7672
Pt 12.1969 42.2332 17.5045
Au 7.87008 41.5587 19.4297
Au 19.1864 47.4821 15.0614
Au 3.77816 34.5013 20.8588
Au 12.8644 37.0064 22.0755
Pt 18.6613 42.7549 17.032
Au 6.29346 38.9074 19.5522
Pt 11.1967 40.1083 34.096
Au 7.80905 40.7107 25.6742
Pt 19.6574 46.5817 30.6103
Pt 15.2083 40.7523 32.9053
Pt 11.4207 42.3831 22.6687
Au 10.4409 35.641 22.2702
Au 14.4645 44.7801 34.9255
Pt 14.3598 36.7603 34.3506
Au 14.0104 36.9535 42.6121
Pt 8.99708 32.4031 34.989
Pt 9.52933 40.55 23.3823
Pt 20.9644 45.9674 23.5607
Pt 29.6824 45.1749 26.314
Pt 14.0537 41.7925 23.8242
Pt 16.5127 41.4487 17.5091
Pt 18.3532 43.0371 36.9798
Pt 14.28 43.2143 32.8168
Pt 13.1902 10.3635 19.2488
Pt 17.058 7.86728 19.2022
Au 13.337 5.7258 24.5947
Pt 14.849 7.70603 23.5216
Pt 14.7508 8.73072 25.9329
Pt 20.616 7.1662 24.1624
Au 24.5586 4.31269 14.1601
Pt 21.5907 5.37028 20.4453
Au 20.1494 3.02257 22.9107
Pt 20.8971 5.33952 27.5599
Pt 19.4418 5.70356 22.2786
Pt 21.1434 3.41312 29.2887
Pt 23.7227 4.23844 29.8289
Au 15.5301 6.46792 37.0271
Pt 22.0148 3.32286 31.7475
Pt 20.1643 3.70084 33.642
Pt 11.144 11.8473 33.5056
Pt 19.9784 7.66498 34.4672
Au 18.0686 2.86915 24.9198
Pt 19.795 4.76058 31.112
Pt 15.6349 14.0831 35.0874
Au 9.80662 10.1275 35.2826
Au 17.0329 7.82828 38.9474
Pt 12.426 9.64866 34.316
Pt 22.0046 10.4548 20.0043
Pt 22.8129 7.33566 16.8777
Pt 22.2309 9.25122 15.1697
Pt 12.3252 8.49684 24.5918
Pt 15.9245 10.2593 18.7762
Pt 12.9996 9.40962 21.8893
Au 18.9858 6.26762 13.1616
Pt 13.9042 12.3493 14.5223
Au 15.1564 5.25699 22.3179
Pt 17.0839 7.2058 22.0371
Pt 18.5755 6.95359 17.2378
Au 11.6555 6.83698 29.2689
Pt 17.0119 7.77693 27.5504
Au 13.8819 4.60916 27.1206
Pt 19.0444 8.68989 22.7483
Au 20.5412 10.0272 33.3282
Pt 16.816 10.4053 26.5157
Pt 27.3167 2.5896 32.3598
Au 11.8352 6.79846 26.5811
Au 19.5 14.9821 28.7402
Au 15.7837 10.2971 31.23
Au 18.0607 13.4958 30.8214
Au 13.2792 16.1075 28.4508
Au 10.1807 9.41541 32.6026
Au 13.7751 6.10331 34.3733
Au 12.412 10.8049 39.1318
Pt 14.0289 8.30138 35.7882
Pt 11.6795 14.5025 34.2555
Pt 16.4255 16.2176 40.267
Pt 18.4556 14.8915 39.1417
Pt 12.0726 13.3746 38.7473
Au 13.2907 12.8382 41.1054
Pt 22.5638 13.4713 9.88846
Pt 19.8506 14.9327 9.80235
Pt 24.5416 21.8634 9.01481
Pt 15.7274 13.224 10.6054
Au 13.1509 13.3121 9.75748
Au 18.1716 4.39685 17.8826
Pt 19.6263 10.5719 11.3228
Au 11.5406 12.1125 13.0285
Pt 22.2166 10.7694 10.6062
Pt 17.9877 10.0693 13.3508
Au 15.1086 18.2562 14.0586
Pt 20.5699 11.2649 17.9519
Au 16.2137 16.3953 15.7829
Pt 14.3341 8.15744 18.1394
Au 23.3569 16.6491 15.2162
Au 24.5704 9.69089 20.2814
Pt 13.5639 14.432 20.2786
Pt 13.9769 10.52 24.0593
Pt 14.9986 8.35 20.7884
Au 15.1492 13.9339 26.7828
Pt 16.3212 9.86269 23.2533
Au 22.4924 8.33488 31.934
Au 16.2067 3.05601 27.221
Au 15.6775 15.1929 24.3278
Pt 8.63135 15.375 25.1227
Au 16.7014 14.9202 28.7127
Au 20.608 15.0272 26.0505
Au 6.40982 11.4451 29.8547
Au 9.85919 14.6142 39.4762
Au 17.3747 14.9057 33.1165
Au 16.5842 22.0233 30.9263
Pt 13.6255 16.2217 35.5823
Au 6.36142 21.3914 39.0544
Pt 12.3691 17.3941 33.4253
Au 14.4473 18.5863 34.4438
Pt 15.0773 16.7959 37.7225
Pt 11.1523 19.2699 34.861
Pt 17.7357 17.419 38.2211
Pt 12.7288 18.4664 36.9115
Pt 14.6461 17.5606 41.8943
Pt 13.2636 18.4678 10.8527
Pt 12.6597 21.1296 10.3578
Pt 17.3294 15.544 10.5687
Pt 21.0261 20.185 5.20507
Pt 17.8649 13.5143 8.67776
Au 17.7153 26.7919 12.1968
Pt 18.1607 12.8212 11.2282
Pt 14.1318 23.2065 11.2542
Pt 19.7314 9.16674 19.8983
Pt 19.6509 19.6015 10.2366
Pt 18.3998 21.1811 8.3014
Pt 9.15271 23.5082 14.3417
Au 11.195 21.2121 17.6698
Au 17.7653 17.1248 13.5217
Au 17.8994 14.9687 17.5484
Au 22.9413 19.9082 16.7626
Au 16.3386 18.7437 22.0579
Au 11.5527 17.3762 21.6338
Pt 15.1422 11.1524 21.1457
Pt 9.18429 25.6406 21.6729
Pt 14.6196 12.5758 18.7648
Pt 8.96101 20.1494 24.0246
Au 17.062 24.9592 27.1424
Au 10.7741 19.5158 26.1573
Pt 17.3205 23.113 23.4485
Au 13.3751 17.9962 30.9056
Pt 15.4696 21.398 22.2763
Au 15.9713 19.1047 36.6972
Pt 12.6574 13.38 31.7598
Pt 11.7552 15.8003 31.4506
Pt 10.5949 17.377 39.6032
Au 13.9047 22.5156 31.3081
Pt 11.9821 18.2344 41.6101
Pt 18.0649 27.6744 44.2384
Pt 12.3239 15.5825 40.7263
Au 16.0038 17.3696 32.6024
Au 9.81116 11.9182 37.8442
Pt 14.0958 20.071 41.0585
Au 11.5051 21.0994 44.9719
Pt 15.982 18.8421 39.5768
Pt 10.9297 16.7873 35.6806
Au 8.08919 18.4449 39.5233
Pt 15.0173 20.3662 11.4278
Au 14.2678 19.9446 6.03179
Pt 16.1985 22.2079 9.69977
Au 11.8549 28.2652 6.98604
Au 13.6111 22.6185 5.86806
Au 14.0944 24.139 13.822
Au 27.778 24.5483 7.53597
Au 19.1776 18.8749 3.67033
Au 17.4826 19.7305 12.5003
Au 10.3694 25.6907 19.1706
Au 19.6179 24.7055 11.3129
Pt 12.4927 33.4992 12.3033
Au 18.0879 24.4398 13.6226
Au 10.6015 18.5506 18.9963
Pt 8.26279 27.167 17.6772
Pt 9.9461 28.162 22.3232
Pt 9.59635 24.3049 26.2427
Au 13.2846 26.0686 24.1975
Au 16.7428 23.2196 20.6721
Au 17.5385 21.2594 17.0782
Au 12.8576 23.6032 25.6144
Au 14.2127 25.3029 27.2031
Au 14.535 26.9162 21.9164
Au 15.5326 24.7012 24.8322
Au 13.1934 20.9847 26.4423
Pt 16.8777 28.8301 32.8183
Pt 15.1399 22.1367 24.8586
Au 15.5673 24.4694 29.658
Au 18.2605 25.9891 29.5992
Pt 7.89581 24.3235 31.8345
Au 15.5413 22.0794 33.6052
Au 14.3468 27.7028 33.6144
Au 19.3763 21.7735 40.6466
Pt 11.3962 21.1961 36.9601
Au 14.7341 24.8898 32.771
Au 15.5568 26.9803 31.1166
Au 15.7147 22.0736 39.1083
Pt 14.7023 25.6819 41.9621
Pt 20.2648 16.7419 38.9164
Au 16.3854 26.2919 39.6909
Au 24.5227 28.6146 48.5868
Pt 18.4184 20.8181 43.5336
Pt 14.5856 20.2 8.70769
Pt 19.5247 18.1272 6.33632
Au 21.9076 19.855 2.54328
Pt 18.4068 28.3394 8.41823
Au 16.1871 26.1221 14.7885
Au 13.4464 26.8444 14.3528
Au 19.9743 28.4075 15.3121
Pt 18.3484 20.8334 5.6556
Au 15.0529 24.9914 19.6321
Au 11.8315 26.3075 21.7773
Au 10.7356 30.8237 17.4227
Pt 14.0426 25.3683 9.70633
Pt 8.34133 27.4138 26.8694
Pt 9.53801 26.551 24.5734
Au 11.7743 23.7249 21.0824
Au 10.2517 30.2339 20.4143
Pt 7.42074 27.4212 23.2696
Au 12.8552 27.0984 28.7068
Au 20.6926 28.9268 19.7938
Au 13.384 19.702 18.6444
Au 10.9607 24.4519 23.6953
Pt 14.0042 32.5075 32.459
Au 20.2418 22.0286 27.8339
Au 15.8181 27.4461 24.4292
Au 11.5787 26.1937 26.3053
Pt 13.0833 36.7086 31.843
Au 17.2214 24.6087 31.9569
Au 16.5164 31.1161 28.7904
Pt 10.912 30.7851 35.7523
Pt 12.053 26.6001 36.2134
Au 19.4048 21.3265 30.6753
Pt 14.9401 35.0006 32.2517
Au 18.3148 22.1885 33.1202
Au 13.7191 22.5692 46.4425
Au 13.048 23.0815 33.9253
Au 18.6115 28.1818 40.1687
Au 18.9796 25.4206 39.2181
Pt 26.0151 25.1369 46.064
Pt 17.5319 25.8265 46.112
Au 20.7249 30.5977 41.5673
Pt 20.0677 18.1046 45.6707
Pt 22.7269 35.0169 42.7744
Pt 18.1297 23.4977 7.09532
Pt 20.9387 27.5514 7.77493
Pt 16.3719 26.8753 9.63949
Au 17.0055 32.3128 4.80498
Pt 12.7823 28.7439 12.5403
Au 8.13408 29.2776 9.95899
Au 17.4757 32.0179 11.5313
Pt 15.9412 29.2061 7.99156
Pt 15.8428 38.7003 11.6923
Au 20.9455 41.2264 17.488
Pt 10.6118 32.435 15.0999
Au 10.4413 38.9547 12.153
Pt 7.99171 24.557 23.7004
Pt 6.13108 38.1564 22.2062
Pt 8.52401 37.35 20.8393
Pt 6.74042 30.7784 20.1264
Au 11.4838 35.2648 19.7781
Au 17.2945 32.9738 24.0531
Au 12.7776 32.1398 24.1287
Au 11.8197 28.4051 24.1836
Au 12.5039 33.6414 26.6569
Au 12.3021 35.332 24.3738
Pt 17.8668 33.4222 28.2294
Pt 17.0094 34.6984 26.0452
Au 16.466 39.7482 30.6864
Pt 9.91761 35 34.2053
Au 16.1894 37.9954 32.8345
Au 10.7135 35.0142 29.1429
Au 17.3199 26.9155 36.9629
Au 15.7023 32.0343 39.3048
Au 14.3514 25.2868 35.4509
Pt 20.5741 39.1623 33.3567
Au 18.3045 29.6632 37.1029
Au 20.4986 31.4848 36.2131
Au 21.6087 25.0815 38.2316
Pt 11.5875 34.6318 38.4023
Pt 14.264 24.1185 43.9709
Au 20.8904 29.9307 47.2662
Pt 22.1746 27.9523 44.6113
Au 16.2696 29.0504 38.9988
Pt 18.8349 32.3543 43.884
Pt 13.6621 30.5672 43.8267
Au 12.0733 20.8179 7.67937
Pt 17.2068 29.2111 10.7605
Au 15.5089 40.3479 9.52033
Pt 19.7039 27.5794 10.5787
Au 10.5 30.242 8.43009
Au 5.6567 29.3626 12.852
Au 7.77634 38.325 16.4161
Au 9.00501 32.1453 9.79682
Pt 14.9183 33.3324 11.2893
Au 5.74124 32.1635 13.1354
Pt 13.1529 39.4412 16.5174
Au 10.0982 43.2397 19.1896
Au 10.7991 28.3072 18.5772
Pt 10.5258 38.7998 16.5954
Au 13.0102 26.6722 19.134
Pt 16.8746 37.9243 9.2038
Pt 7.96235 32.901 22.3165
Au 11.1676 32.3559 28.7735
Au 14.8324 39.679 25.5752
Au 13.1979 34.134 21.9801
Pt 6.10849 35.9627 20.8171
Au 12.2291 41.5048 31.9108
Au 11.8501 43.9672 27.8297
Au 17.4501 35.5776 23.2208
Au 11.6817 36.4918 26.8035
Au 13.6799 35.0377 29.2088
Pt 12.6059 30.0732 33.2625
Au 11.7704 40.8144 24.8367
Pt 11.3231 38.7806 31.7458
Au 10.4492 32.7865 40.1998
Au 19.8746 32.3498 46.4122
Au 20.5602 41.6587 35.0109
Pt 17.4165 36.5701 38.6172
Au 17.2004 43.4346 39.4848
Pt 21.8761 34.5111 45.2666
Pt 13.2318 33.3499 39.9678
Pt 19.5709 34.9541 38.7391
Pt 16.0994 31.8208 44.0195
Pt 11.6543 29.1294 41.134
Pt 21.1141 37.2717 42.1568
Au 23.3609 36.0896 46.8579
Pt 21.3488 32.6484 43.4631
Au 21.8167 48.4434 15.108
Au 4.38633 27.9973 14.9453
Pt 20.4156 41.2577 10.909
Au 13.4354 25.2117 6.82537
Pt 22.2448 36.3763 9.6438
Au 9.21497 40.0289 14.5814
Au 1.90253 25.6024 19.9323
Au 18.1002 48.7196 25.3746
Pt 14.5902 43.2236 18.2152
Au 8.89018 32.2992 19.2805
Au 9.53596 42.7853 24.7032
Pt 14.079 37.8693 9.90985
Au 12.1008 32.2585 7.01229
Au 9.95825 39.0084 25.9143
Au 16.9194 38.8809 18.6083
Au 9.41835 37.3622 28.0806
Pt 8.11526 30.1659 22.2328
Au 12.0455 37.4316 29.3812
Au 14.3675 45.8915 32.1223
Pt 12.6852 41.6273 28.9676
Pt 13.3728 31.793 35.1732
Pt 12.8076 38.4559 35.9407
Au 17.0112 46.91 31.4259
Pt 18.9976 45.7818 33.3046
Au 13.3359 44.1695 15.8638
Pt 20.7968 34.253 36.5839
Au 11.4228 40.8422 36.6851
Au 19.0359 40.4659 30.1759
Au 13.4019 42.9087 36.8637
Pt 15.7173 39.3382 35.2528
Pt 12.9786 36.2044 40.144
Pt 17.0449 32.5354 41.7905
Pt 19.8165 42.6747 39.6631
Pt 15.6077 37.2031 40.4341
Pt 18.9319 38.5087 37.5215
Au 20.8322 39.7606 43.3602
Pt 14.4908 39.749 13.9018
Au 3.46129 32.25 17.0856
Pt 20.8651 43.9577 18.2315
Pt 10.5087 34.636 10.9513
Pt 18.7279 40.9695 19.122
Pt 10.0423 30.2116 13.791
Pt 9.77463 36.6833 18.2137
Au 12.8271 31.3612 21.3817
Pt 22.9837 43.9773 13.9524
Au 16.7409 39.9695 21.0895
Pt 16.5734 44.6978 32.9995
Pt 17.441 39.5088 13.6885
Pt 16.335 43.376 22.459
Au 14.7464 46.2915 29.2784
Pt 15.9392 44.3363 30.5161
Au 12.0294 43.9319 24.959
Pt 21.9438 47.5137 29.2944
Au 3.44546 36.0178 25.3705
Au 12.0789 42.8249 34.4015
Au 24.5799 48.7523 29.2091
Au 20.2634 49.2331 30.4913
Au 13.5449 38.9627 40.4221
Pt 22.6432 43.4283 35.1554
Au 28.4248 43.5638 39.741
Pt 27.5671 37.4521 38.0933
Pt 10.8742 36.3091 36.4334
Au 11.3524 28.6545 43.7257
Au 22.5021 44.0297 40.0779
Au 21.932 49.9497 25.1899
Au 9.59148 41.2897 17.2182
Pt 11.7561 39.9855 18.7431
Pt 22.3731 45.6613 26.0293
Pt 14.938 44.5275 20.3711
Au 27.1356 49.9189 23.096
Pt 25.7436 46.9849 27.3821
Pt 19.2574 47.9102 28.3055
Pt 24.2073 45.5185 35.3421
Pt 21.8689 44.9477 30.5245
Au 9.82829 38.6856 35.9739
Au 27.8347 1.50344 22.561
Pt 24.9846 8.59766 15.8599
Pt 24.2477 10.8115 14.3423
Au 29.6713 2.40849 20.3518
Au 16.4772 7.73157 13.2369
Pt 23.3592 9.97196 17.6511
Au 21.621 3.22941 18.298
Au 11.9733 8.00057 19.7075
Pt 20.7785 5.74943 17.8504
Pt 15.6864 6.22468 25.8735
Pt 19.3151 6.64347 19.8856
Pt 22.148 7.84185 19.3014
Pt 20.1087 4.73171 25.0002
Pt 21.3955 8.05174 21.7769
Pt 20.175 11.01 22.0893
Pt 23.4037 5.18568 18.6038
Au 13.8734 5.69998 30.484
Au 16.3924 4.74348 34.9652
Pt 19.332 7.10761 26.35
Pt 18.4204 5.94068 33.523
Pt 18.1102 7.07129 36.2694
Pt 17.5148 5.76976 30.9576
Pt 23.2533 6.51622 27.9458
Pt 15.3391 10.2043 34.1687
Pt 26.1401 2.10191 29.9024
Pt 18.0744 9.53405 34.6206
Pt 21.5239 5.19382 35.3212
Pt 20.6387 7.13658 37.0502
Pt 14.6382 12.2355 38.4873
Au 23.4054 1.68396 29.4591
Pt 21.0983 9.62671 35.9985
Pt 16.8635 16.0047 43.0674
Pt 23.3431 19.0945 9.04895
Au 25.692 1.63348 24.7188
Pt 27.0658 9.20606 11.031
Au 15.5308 3.85869 24.6859
Pt 16.519 10.5139 11.3592
Pt 20.8434 6.90383 15.1238
Pt 20.3483 8.66365 13.1222
Au 21.3178 8.11854 10.5516
Pt 22.2207 11.883 15.8837
Au 19.438 3.7409 20.2181
Pt 14.6268 10.5071 16.5129
Au 21.4429 14.055 14.274
Au 25.3178 12.1768 18.621
Pt 19.8195 10.5218 15.4255
Pt 23.581 6.89279 14.2946
Pt 16.9885 5.35477 20.1603
Au 22.0123 12.9388 21.032
Au 19.3994 9.69895 26.8751
Au 22.989 10.4452 22.5211
Au 18.2104 9.21985 29.4895
Au 16.665 16.6772 35.3862
Au 27.772 1.21395 27.6897
Au 21.226 13.2274 23.6322
Au 24.0947 13.225 34.1747
Pt 16.8195 10.5872 38.9523
Pt 17.3743 8.27742 32.3159
Au 19.7869 12.9233 33.2629
Pt 16.3999 9.22157 36.6371
Au 23.49 14.1012 36.6649
Au 25.6888 13.1681 38.515
Au 24.4097 11.4476 36.5341
Au 17.973 13.7735 44.4065
Pt 14.7723 14.9147 41.8353
Pt 14.0421 10.8653 36.4239
Pt 19.3702 10.6208 39.9341
Pt 14.3278 14.7978 39.2214
Au 7.82903 21.7303 41.2405
Pt 22.4372 19.0116 46.0824
Au 19.8842 15.511 46.604
Pt 24.2881 18.6374 44.4098
Au 29.0309 19.7598 2.74217
Pt 16.5018 15.64 7.9132
Pt 21.5042 11.0813 13.3482
Au 23.0941 9.25646 8.29096
Au 21.7577 6.24636 12.5387
Au 22.6814 15.4378 3.74033
Pt 16.8888 19.1478 7.1742
Pt 21.2114 13.9943 7.6462
Au 14.8938 11.0467 9.31958
Pt 20.83 13.1975 11.7738
Au 24.4201 8.30271 10.4126
Pt 18.2307 17.5051 8.80578
Pt 18.2976 9.89107 17.6678
Pt 19.0974 12.4174 13.6878
Au 21.7292 14.9815 16.8401
Pt 23.3091 12.8142 12.5818
Au 22.745 12.7964 18.3963
Au 22.1589 15.3904 19.7505
Au 24.3678 18.073 23.2845
Au 18.1464 16.2513 20.0857
Au 20.3276 12.2396 26.0442
Au 18.5489 13.7762 24.2126
Au 19.2914 11.7749 28.7962
Pt 18.544 10.8413 24.4029
Pt 21.5418 19.7564 31.1196
Pt 20.0528 15.3447 31.8922
Pt 24.1817 19.7841 31.1298
Pt 22.9143 18.0602 29.5373
Au 21.568 17.5597 41.2392
Au 23.3208 16.0422 34.5108
Pt 22.7288 14.5938 32.2323
Pt 20.8426 15.1878 34.3935
Pt 16.3973 14.4594 37.5999
Au 14.1642 15.2367 33.1729
Au 23.5027 18.6607 36.0996
Au 15.7712 18.1218 29.4929
Au 17.1487 12.1231 33.7476
Pt 17.6182 18.4382 44.611
Au 15.7863 12.71 42.8669
Au 18.0139 20.2877 38.3107
Pt 15.1165 17.495 44.6198
Au 28.6541 27.4353 49.5695
Pt 15.3511 17.6964 8.94943
Pt 21.9427 21.2216 9.73119
Au 23.9517 17.853 2.80904
Pt 23.9522 13.537 7.67416
Au 15.6357 28.3593 13.2673
Au 20.8272 23.5678 13.7173
Pt 16.976 24.4878 10.6863
Pt 25.2313 17.5966 7.8113
Pt 18.6414 25.643 8.73752
Au 14.3522 25.0407 16.7076
Pt 21.1901 16.5725 13.3315
Pt 19.9345 18.8962 13.2126
Pt 19.3958 17.1998 11.2049
Au 22.0011 18.5173 11.2885
Au 20.3197 16.0088 23.4213
Au 24.1918 20.281 11.5123
Au 17.8495 17.7497 17.6644
Au 19.8411 19.7946 17.7122
Pt 17.5184 12.1597 22.262
Au 19.2805 23.1967 16.1428
Au 15.468 16.8481 26.9885
Au 14.4361 24.0678 22.3486
Au 23.7496 18.6707 26.9629
Au 11.6566 19.4696 23.4617
Pt 14.4546 19.7124 24.1074
Pt 20.1008 17.5938 30.5142
Pt 21.1718 17.979 34.8448
Au 18.0164 22.5932 26.0217
Au 22.679 20.6955 28.6767
Au 16.2465 21.7557 36.3821
Au 17.384 20.4318 28.8248
Au 18.8151 19.1607 35.8893
Pt 13.9637 20.2884 38.2255
Pt 16.8949 20.8822 41.1953
Pt 12.2158 16.0036 37.9693
Pt 17.27 18.3766 41.9566
Pt 16.5065 11.8752 36.4481
Pt 19.3138 16.1977 44.0157