3871
Atoms. Timestep: 21317
Au 2.50588 21.8981 25.3259
Pt 26.6412 14.9123 13.0359
Pt 22.6384 14.148 15.4028
Pt 15.8989 14.1887 35.761
Pt 5.2727 29.7471 17.9545
Pt 21.7314 8.94544 15.2093
Au 23.2554 11.254 5.0075
Pt 13.2456 9.48069 26.5535
Pt 6.66249 24.262 28.5164
Pt 19.3166 18.4204 41.2118
Au 1.80363 23.7302 27.2839
Pt 9.7044 34.5746 25.5469
Au 3.53977 29.5088 34.1048
Pt 13.3078 14.0231 24.7384
Pt 9.67784 25.5673 23.1545
Pt 18.8655 20.1459 20.0928
Pt 25.1606 14.6613 40.197
Au 8.48594 9.65319 27.7716
Pt 12.2313 17.545 28.2689
Au 9.54697 19.0943 40.9838
Pt 7.55891 21.3384 17.2375
Au 7.097 36.8962 34.0668
Pt 13.6421 16.1964 23.2947
Au 5.91298 27.0439 40.988
Pt 10.2028 16.8412 26.4663
Au 5.94582 18.6113 32.5856
Pt 7.0026 23.271 19.9229
Pt 16.4495 9.14919 15.8675
Pt 10.6292 28.8035 18.602
Pt 7.45254 21.7192 29.1483
Pt 9.76199 31.6131 30.8518
Au 19.5711 9.08692 6.7588
Pt 9.98414 26.5744 33.8042
Pt 12.7369 19.876 22.1149
Pt 6.49422 27.5998 16.2663
Au 10.5941 8.16497 26.6112
Pt 16.6884 12.5748 28.6045
Au 18.4165 9.45916 39.1938
Pt 14.4056 13.0868 22.4682
Au 2.68865 21.2196 28.121
Pt 9.67258 22.366 32.7579
Pt 24.1331 39.474 19.5404
Pt 12.3778 18.2022 18.6788
Au 6.91849 23.1031 12.9493
Pt 6.74628 16.0549 32.6806
Pt 11.1561 26.0164 36.1646
Pt 17.363 17.4336 23.5879
Au 1.5163 28.4084 24.5685
Pt 16.6321 15.1461 19.8854
Au 5.59158 37.0501 16.0255
Pt 19.2252 15.3296 9.19041
Pt 9.93412 17.1514 18.6227
Pt 13.822 9.84578 15.8854
Au 15.162 6.34567 29.8502
Pt 12.0861 12.0069 30.2139
Pt 11.1097 22.7109 41.8564
Pt 16.7422 15.1256 33.3328
Au 7.07419 23.5029 15.6098
Au 22.9588 35.9636 13.7303
Pt 22.5118 19.3549 14.8789
Au 3.54785 19.0449 26.4708
Pt 7.50733 20.7645 24.1576
Pt 6.75549 33.0306 23.1761
Pt 4.30239 27.4072 21.5888
Pt 16.293 28.9375 22.6554
Pt 18.7515 9.93072 34.5277
Pt 18.1561 20.6633 26.5703
Au 6.58649 11.8076 30.4634
Au 12.0287 16.66 11.8853
Pt 13.9906 21.377 14.6902
Au 25.9052 20.1181 43.2161
Pt 16.4448 13.1433 31.4979
Pt 9.03902 23.6808 27.4842
Pt 23.2707 17.5461 39.0857
Au 10.7654 18.1964 43.162
Au 17.2192 16.0363 44.5293
Au 14.8575 9.22063 36.9428
Pt 10.2869 19.1129 38.272
Pt 14.1047 14.7723 32.4714
Au 10.0484 14.3471 38.9951
Au 2.06792 23.4991 29.9904
Pt 6.70442 38.0218 21.0988
Au 19.9881 20.1061 2.86643
Pt 14.1552 29.472 7.38464
Pt 13.8239 18.8203 26.307
Pt 10.4782 30.5696 37.824
Pt 18.5497 10.3365 14.4417
Au 2.49741 36.7735 20.6831
Pt 21.272 7.91736 26.1408
Au 6.66154 13.4776 22.3367
Pt 25.5485 8.58358 26.754
Pt 13.3544 8.99597 23.6644
Pt 10.9893 11.2425 20.2677
Pt 5.91272 26.9885 28.2745
Au 5.48845 15.6987 23.4764
Pt 7.29031 20.8692 31.8203
Pt 5.07603 36.1608 20.056
Pt 10.034 23.8869 37.2793
Pt 23.874 44.8509 34.4705
Pt 17.2451 20.3111 24.1912
Pt 9.03113 29.6057 20.524
Au 38.5888 21.6964 35.495
Pt 8.08742 30.0027 34.5293
Pt 15.3227 23.9605 36.8157
Pt 18.8007 13.5274 30.2765
Pt 18.3817 20.4251 29.1581
Pt 12.501 12.2482 26.7271
Pt 9.35671 12.2957 34.0702
Au 3.78281 27.6516 16.6253
Pt 11.7651 14.6777 30.9292
Au 32.282 18.2364 41.3793
Pt 8.27839 19.8246 36.4885
Au 13.698 45.6113 32.4714
Au 8.3306 34.1866 40.5134
Pt 14.5425 28.2304 33.7677
Pt 12.5875 35.135 29.9719
Pt 9.94735 12.8895 31.6038
Pt 15.2439 8.64645 31.4371
Pt 21.263 31.3084 38.0351
Au 37.2316 33.988 39.6867
Au 11.2942 18.763 10.359
Pt 14.943 16.6076 27.671
Pt 13.6923 37.6816 13.9583
Pt 15.9652 32.3711 27.1767
Pt 24.614 16.8482 32.7197
Pt 12.4882 17.353 21.2388
Au 10.958 23.9658 11.6338
Au 7.89079 33.8838 13.045
Au 12.6114 16.3388 42.7799
Pt 16.0696 33.7579 12.5689
Pt 10.0167 34.3157 20.0077
Pt 13.8769 23.3886 25.4305
Pt 8.27657 23.9154 24.8279
Pt 22.5927 31.7348 7.24775
Pt 13.5453 33.176 14.0019
Pt 5.41919 31.1632 21.7774
Pt 18.2638 21.4207 36.286
Pt 16.0047 34.9672 26.8652
Pt 8.07127 27.4089 31.9769
Pt 8.73965 26.2016 37.1224
Au 6.52646 31.7005 14.0758
Pt 19.1734 18.3074 27.5637
Pt 13.7388 38.4473 25.8673
Pt 11.4865 12.4038 35.7388
Au 5.57821 18.134 18.7779
Au 23.4981 25.8257 47.4529
Pt 17.1497 22.7124 42.6136
Pt 18.3887 45.2605 24.3428
Pt 11.4691 20.9282 39.8134
Au 1.41262 30.3797 32.3407
Au 11.5606 38.565 36.9844
Pt 12.3401 27.4656 29.4936
Au 26.7616 17.5084 44.533
Pt 7.82716 30.283 37.2083
Pt 6.26113 25.4712 33.3712
Pt 12.3127 20.1235 42.1296
Pt 13.1935 26.5332 21.0246
Pt 11.7781 23.5105 39.2189
Pt 14.778 27.1808 31.3099
Pt 20.9516 33.9593 39.3417
Pt 10.1584 41.4658 26.4617
Pt 24.2584 12.7598 38.4327
Pt 20.8244 41.0282 21.8159
Au 13.9795 19.797 10.0623
Au 7.87893 35.0212 32.1487
Pt 15.6592 18.4342 13.4742
Pt 14.2999 26.8005 8.02952
Au 5.84485 15.6345 35.3663
Pt 7.09287 18.1234 23.2402
Pt 6.7735 25.4568 18.0265
Au 2.43253 27.4746 19.0734
Pt 8.57248 32.3131 21.2602
Pt 11.2108 27.0743 16.698
Pt 22.5389 45.6523 32.1236
Au 8.95165 21.2108 13.5483
Au 4.35815 18.2105 23.8787
Au 4.03097 36.095 29.4477
Pt 24.8905 5.5577 13.6785
Pt 15.0509 34.083 29.1674
Au 1.53041 27.8708 33.1301
Pt 9.45946 17.2784 36.5133
Au 6.28991 29.2558 39.4339
Pt 3.99673 27.2557 24.4642
Pt 13.7833 23.5892 34.1042
Pt 18.0006 21.9339 14.9483
Pt 15.0622 25.742 25.4584
Pt 5.2503 31.2515 30.088
Pt 21.3818 20.7316 20.8743
Au 6.8739 35.055 36.0727
Pt 14.398 21.3821 30.1571
Au 6.7741 24.2241 40.9428
Pt 19.8467 13.8703 32.9874
Pt 22.5304 39.3358 38.5604
Pt 24.0509 30.6233 38.6953
Pt 6.02139 28.5364 33.0871
Au 8.71007 39.5495 33.2907
Pt 4.87451 21.7403 32.4778
Pt 18.0985 24.2869 35.9656
Pt 12.3274 31.7445 23.9679
Pt 15.962 31.4052 10.6067
Pt 15.5946 16.0077 25.1723
Pt 11.8223 36.4888 26.1192
Pt 16.1938 31.2522 13.3324
Pt 24.8999 7.32348 11.7276
Pt 16.4159 36.6827 29.0834
Pt 5.34165 25.1978 20.402
Pt 11.7467 24.4752 21.693
Pt 13.2673 32.691 30.7473
Au 4.6998 22.9911 37.2998
Au 6.24437 20.7626 19.5562
Au 7.79012 14.6036 19.9678
Pt 16.7304 22.7133 29.2723
Pt 14.0651 36.7107 27.8516
Au 9.6319 35.2907 14.7549
Au 8.79608 9.44684 25.0407
Pt 6.00077 28.5184 23.2816
Pt 19.8977 40.5985 37.7221
Pt 29.8659 36.1244 40.4208
Au 40.0135 27.4236 41.5902
Pt 26.8621 30.9246 37.0308
Pt 7.76659 35.0902 27.3708
Pt 15.8769 29.7859 27.5889
Pt 5.69859 37.5306 25.0598
Pt 19.8311 27.1053 43.1375
Pt 20.0835 25.2301 45.1922
Pt 25.6058 12.8247 19.3677
Pt 16.1553 28.656 14.6293
Au 2.65421 30.0179 17.557
Au 24.4306 47.2737 33.4179
Pt 11.9978 25.3414 18.9378
Pt 11.9857 14.1773 22.0747
Au 11.5762 36.9683 42.1329
Pt 13.7917 27.3871 13.8152
Pt 4.38288 32.3718 26.327
Au 5.8607 34.2722 15.0678
Pt 8.98032 37.1885 26.0343
Au 21.1704 24.5571 47.529
Pt 16.1236 33.6173 23.9318
Au 1.48298 28.6267 27.3814
Au 13.7091 43.3922 36.9573
Pt 15.7243 31.4566 22.3205
Pt 12.7476 27.7206 25.577
Au 14.3095 44.9141 20.597
Pt 13.9318 38.9196 38.6664
Pt 6.40841 20.4644 34.5498
Pt 3.94369 29.3149 28.6609
Pt 14.0078 30.1118 14.0627
Au 1.88861 25.7658 23.3768
Pt 16.0483 25.3965 6.56311
Pt 11.2099 37.9461 20.2082
Pt 21.1317 44.4525 23.4579
Pt 11.2635 34.664 40.6994
Au 12.6156 40.3428 31.0675
Pt 15.5661 26.7156 40.0551
Pt 14.5798 42.8832 18.9355
Au 19.93 48.1974 29.4508
Pt 9.22378 30.8863 14.5857
Au 5.38572 18.8999 21.4095
Pt 14.3901 35.7363 25.0265
Pt 28.2216 39.3631 28.1505
Pt 19.0076 42.8682 22.7233
Pt 10.2464 15.8568 20.9459
Pt 12.009 18.3446 24.2056
Pt 9.58358 21.5386 25.6787
Pt 23.8855 15.1915 28.1784
Au 10.1561 7.70318 32.2182
Pt 14.9712 8.96945 18.1008
Au 11.3875 7.69646 18.5543
Pt 19.8633 14.4821 26.5608
Pt 20.5077 7.24363 21.2096
Au 2.68248 25.2031 20.8465
Pt 12.7219 20.7839 19.3118
Pt 12.7867 8.71448 32.6008
Au 21.0681 1.78746 28.1995
Pt 21.3055 14.7421 35.2999
Pt 21.6339 18.3764 22.9787
Pt 16.5928 10.3128 24.2966
Pt 5.94097 21.8238 22.1432
Au 13.67 6.91806 17.1538
Au 7.84134 11.7476 24.0416
Pt 12.8734 16.3567 25.8932
Pt 12.3968 25.3861 24.192
Pt 11.0832 12.6637 24.0971
Pt 12.0064 35.8689 18.7346
Au 32.3091 18.5592 12.6155
Pt 7.00885 22.2382 26.4538
Au 23.8562 21.5676 25.9743
Pt 18.1228 18.2801 32.1879
Pt 13.7425 31.7978 11.8656
Au 35.8606 14.4548 39.695
Au 26.1278 27.1662 41.215
Au 37.9569 20.9221 38.2242
Pt 10.1144 17.2097 33.9009
Pt 18.1154 15.8543 31.2455
Pt 14.216 11.1738 31.5947
Au 22.49 4.54564 14.2119
Pt 3.3696 24.6302 25.2837
Au 45.8914 16.1012 32.5154
Pt 8.58574 27.9397 22.5399
Au 30.6533 31.3624 43.1203
Au 4.9285 20.4069 17.1467
Pt 14.0907 27.2402 10.674
Au 2.61856 31.8846 21.2761
Au 7.34591 36.4089 14.0024
Au 14.9785 10.2697 13.3619
Au 4.86173 20.8014 24.7677
Au 3.68724 20.1048 19.6106
Pt 15.7479 17.0299 31.4115
Pt 12.8599 25.4899 27.0943
Au 26.4795 25.6928 27.6653
Pt 24.3706 15.5537 17.1318
Au 23.0776 30.3227 22.9236
Pt 9.97683 15.8653 29.0683
Pt 11.3462 10.9204 15.6471
Au 9.7078 10.3221 22.5131
Pt 16.5147 18.4527 26.1937
Au 28.7112 26.4576 41.5668
Pt 14.6052 32.7953 18.2204
Au 25.11 25.6631 23.4852
Au 36.0281 25.1789 21.6433
Pt 4.04961 24.8463 28.5966
Au 27.2492 10.6792 41.5512
Au 19.6073 18.9542 24.9751
Au 22.9691 37.3542 18.2431
Pt 17.0506 12.4436 22.5643
Pt 8.16816 19.8935 27.2416
Pt 8.48928 26.2403 29.4682
Au 39.4357 28.9494 36.1052
Pt 5.96695 30.5153 27.4108
Pt 18.1686 8.50381 22.4031
Au 13.2294 19.6027 12.6288
Au 16.0836 8.25579 34.2647
Pt 13.4825 19.1478 34.7777
Pt 16.9571 26.5011 23.8268
Au 1.62409 28.621 30.2172
Pt 7.75665 30.1348 31.7937
Pt 17.2943 36.4506 13.1621
Pt 10.4695 27.5601 27.5194
Au 7.48411 16.3064 17.8478
Pt 8.91948 14.1178 24.5421
Au 5.50106 14.3784 30.7266
Au 20.2361 27.8377 25.9379
Au 25.0076 23.7475 16.1257
Pt 20.9478 18.3364 32.5059
Pt 14.102 33.0446 25.4376
Pt 15.685 30.2088 17.1196
Au 20.7798 28.4061 23.2829
Au 27.0593 20.5212 12.8029
Au 21.811 27.4172 17.3178
Au 22.5855 20.5702 3.45505
Au 33.1509 21.443 19.1998
Au 37.7036 23.3413 18.4822
Au 25.4378 20.3592 35.8589
Pt 11.4564 32.3794 26.3775
Au 23.9508 22.4529 11.771
Pt 14.6956 16.9467 18.6483
Au 38.6771 26.3321 26.2293
Pt 23.4689 18.9426 21.1644
Au 28.035 27.4293 29.4415
Au 20.1861 29.3625 15.5856
Pt 14.1774 27.2446 23.299
Au 23.4632 22.8508 30.0846
Au 31.5772 12.9264 42.3683
Au 18.422 27.2598 13.7534
Pt 22.5834 17.4296 30.6476
Pt 10.6635 10.3005 31.6419
Au 17.7747 39.8412 41.1071
Pt 18.529 27.2587 35.8814
Au 5.36524 36.3869 31.9555
Pt 26.6457 6.61847 19.292
Pt 14.214 13.6223 30.0518
Au 22.4947 11.1249 42.5426
Au 14.5501 6.43833 32.7388
Pt 20.297 38.1655 17.9744
Pt 13.4023 25.2245 12.3498
Pt 45.5324 26.419 20.7008
Pt 16.7588 42.5136 24.0286
Au 19.9008 2.09495 20.0638
Au 19.9777 3.84281 15.0483
Au 24.746 36.5744 15.9996
Pt 7.77427 17.2015 27.6198
Au 26.6372 28.3147 8.59027
Pt 19.0256 37.8059 15.2878
Au 33.193 25.5026 43.6587
Au 5.32565 23.0391 17.7317
Au 31 22.5155 40.7947
Pt 19.7776 30.0408 42.0516
Pt 5.66286 25.2627 26.1754
Au 22.7891 28.928 25.2233
Pt 10.9669 29.7791 25.3785
Au 32.6712 28.1166 40.0615
Pt 10.1454 21.3178 28.3612
Au 21.8326 26.449 8.5793
Au 16.3807 22.6488 3.46588
Au 22.2453 31.5607 15.5703
Pt 9.28805 23.31 30.13
Au 32.1912 18.3956 15.4328
Pt 13.5696 34.2591 35.8499
Au 26.7697 26.1132 46.5599
Pt 12.3512 12.5034 32.9545
Au 28.9999 29.3663 12.1541
Au 21.6031 23.1814 19.6964
Pt 11.0209 14.6533 33.6067
Au 33.1082 22.1503 30.206
Au 24.7824 7.77943 38.3638
Pt 9.15104 27.8571 25.1219
Pt 17.9984 18.8293 37.2863
Pt 15.4353 25.3935 33.2158
Pt 16.5778 32.9613 40.5713
Au 4.14573 16.5279 33.4182
Au 20.2259 2.50302 22.7146
Pt 11.0562 30.5934 35.0564
Au 7.53525 19.52 39.1488
Pt 16.5525 22.7665 31.9393
Pt 11.1544 17.4649 30.951
Pt 14.1562 15.1134 20.787
Pt 11.569 25.7089 14.2477
Au 3.56943 35.1839 16.1947
Pt 8.63253 25.7753 16.0279
Pt 14.4884 11.6534 17.8555
Pt 7.62725 35.5116 19.6848
Au 1.21269 26.1243 26.0264
Pt 12.0743 27.8973 9.1191
Au 26.0822 23.0564 13.5729
Pt 11.2602 36.8541 16.3395
Au 16.9637 4.62125 26.6346
Pt 16.7931 35.5142 33.2695
Au 22.3509 20.1834 30.9757
Au 25.0781 26.9543 4.05939
Au 21.165 20.7175 33.9372
Pt 6.67466 23.4058 31.1149
Au 24.3344 27.6773 31.4688
Pt 6.01464 32.2754 16.9885
Au 28.1254 40.839 16.2229
Pt 11.6912 31.0527 13.6625
Au 29.5327 31.4389 36.7457
Au 31.9387 28.0064 23.1472
Pt 19.848 40.8618 18.7238
Au 29.8308 27.026 21.7969
Au 27.8294 25.2608 44.2109
Au 42.9421 39.014 33.6146
Au 27.2148 38.0885 16.1232
Au 22.9074 21.4078 36.0575
Au 26.7901 29.2415 31.317
Au 42.541 15.3099 36.1394
Pt 27.3047 18.0591 31.5187
Au 27.731 27.9269 43.7795
Pt 22.187 18.7369 41.1941
Au 14.9928 13.0837 40.87
Pt 11.5935 16.5799 38.2937
Au 20.5503 34.206 21.4547
Au 6.87495 13.0163 35.1538
Au 5.38394 25.5263 38.7991
Au 3.11376 30.0946 36.7982
Pt 8.92106 19.9525 33.7914
Pt 15.4197 28.573 41.8801
Pt 11.7122 31.3688 32.5814
Pt 15.2199 10.4872 22.1341
Pt 8.99948 19.476 15.732
Pt 11.9863 29.0292 20.914
Pt 3.82029 27.0644 29.9916
Au 4.19669 32.1698 35.3858
Pt 10.5012 33.2186 12.9144
Au 32.0586 25.1659 22.3899
Pt 25.2042 41.7781 20.7217
Au 31.6039 16.3449 10.9589
Au 14.2678 22.9854 5.1987
Au 26.32 18.3923 34.1143
Au 29.2001 18.6246 15.3038
Au 37.3649 11.9363 9.29319
Pt 13.6036 29.6026 35.8559
Pt 8.22564 30.3413 25.796
Pt 6.22124 28.2048 25.9207
Au 29.6567 24.0764 10.4856
Au 8.46618 35.6635 38.2159
Au 18.5835 27.4909 21.7501
Au 27.9665 12.5589 9.08007
Au 5.20751 17.7115 28.3405
Pt 8.0152 28.6179 27.9111
Au 34.7135 24.5916 37.3257
Au 31.0224 14.7152 44.5882
Pt 21.6805 29.679 33.5302
Pt 19.0416 44.4191 35.6681
Au 27.0406 33.2118 6.34951
Pt 10.8952 25.1691 28.8558
Au 29.821 33.0247 39.1088
Pt 18.272 27.5604 40.7702
Pt 15.9527 25.2258 27.9399
Au 45.3901 35.2525 36.3512
Au 7.49499 17.7556 34.6921
Au 14.6052 30.4234 46.4773
Pt 14.8418 27.6941 37.4029
Pt 23.2075 18.6917 36.6098
Pt 17.1482 20.7183 44.41
Pt 21.4376 17.6545 34.984
Au 15.0985 33.4108 43.1486
Au 10.6256 25.2847 43.0541
Au 23.4511 22.9297 47.5367
Pt 17.113 31.5043 42.8455
Pt 17.989 28.1426 16.5381
Pt 15.4703 33.5158 20.7459
Pt 7.86074 30.4303 23.0428
Au 1.531 26.1349 28.7401
Au 0.771638 30.2911 22.6485
Pt 10.216 15.1287 16.9211
Au 14.2866 18.5705 6.55774
Pt 18.1064 36.7297 17.6327
Au 14.4505 23.8607 8.03174
Pt 7.80315 31.0259 29.194
Au 8.49122 37.9592 15.9563
Pt 18.3853 35.0752 28.1032
Au 30.9863 23.7996 31.4274
Au 8.16392 28.8028 41.3921
Au 19.8637 5.42556 32.192
Au 9.33372 36.7534 40.6635
Pt 10.5122 30.287 22.6773
Pt 8.67416 24.8272 32.1919
Au 13.3966 27.97 45.838
Pt 7.72796 35.5223 16.789
Au 29.4018 29.0844 27.2351
Au 3.71897 29.6178 20.205
Au 11.8452 43.3861 19.2363
Au 12.6688 25.2635 41.0154
Pt 10.6544 34.7491 36.6628
Pt 16.7208 29.3217 31.399
Au 27.3488 23.1924 46.1796
Pt 16.59 27.5363 29.3772
Pt 9.35271 39.6911 24.5875
Au 2.22134 31.2536 27.6297
Pt 9.20611 28.5216 38.7834
Pt 26.9061 36.7114 40.4461
Au 14.9457 20.3495 45.8233
Au 15.0962 15.3411 42.762
Au 10.6389 23.1378 44.7953
Pt 27.6941 34.0427 28.3009
Pt 15.9523 26.5669 21.2951
Pt 16.0826 20.1809 15.4779
Pt 13.7554 30.4335 25.8078
Au 8.12449 13.4838 17.4087
Pt 13.5161 30.1159 9.82079
Au 24.5276 26.7225 9.27578
Pt 14.4882 18.7763 29.1756
Au 3.37736 32.2451 32.7532
Pt 11.1359 31.2223 11.0167
Pt 9.47527 36.8625 18.4339
Pt 11.9591 30.4053 30.0379
Pt 20.6287 38.5575 25.9843
Pt 15.5543 40.1142 30.994
Pt 9.29237 31.0736 17.7707
Pt 5.57382 34.6748 17.9512
Au 2.12398 35.5914 23.1513
Au 25.2735 29.7334 20.9788
Au 6.82204 11.1965 33.0831
Pt 11.5998 23.1193 26.7661
Au 12 42.3232 29.0548
Pt 9.18434 34.6049 22.8935
Pt 14.0617 10.2393 34.3051
Pt 25.383 39.0718 27.0098
Pt 18.9829 20.8231 42.5211
Pt 18.2389 42.0441 34.2917
Pt 18.1021 32.5682 28.7309
Pt 7.58762 13.5875 32.4065
Au 9.24055 44.1392 26.5635
Pt 10.3747 35.2652 28.0209
Pt 4.7708 25.2898 22.9857
Pt 32.5939 14.4148 16.2619
Pt 11.786 32.5954 17.9726
Au 16.4074 34.8956 7.5579
Au 10.3554 44.4412 24.1255
Au 19.1952 27.7189 8.73978
Au 29.2197 22.4292 12.8166
Pt 10.1865 34.5227 17.3088
Au 8.67796 22.4012 10.9969
Pt 11.3314 33.349 34.5014
Au 7.76409 40.17 29.6767
Pt 30.0321 36.8776 22.2228
Pt 25.4486 43.6183 22.7463
Pt 6.89267 32.9809 25.7744
Au 38.3114 21.8675 31.542
Au 5.55938 20.2646 37.2104
Pt 24.336 43.8845 37.2222
Au 4.69691 30.0391 15.3779
Pt 14.2809 19.9529 40.1087
Pt 8.08696 33.2511 18.4892
Pt 18.6868 37.7379 27.6684
Pt 27.7393 45.3561 18.397
Pt 17.9891 39.9477 32.5646
Pt 18.9825 34.4217 18.3599
Pt 19.777 35.9623 25.9219
Pt 25.2031 44.9174 31.9419
Pt 30.8393 6.79867 15.9735
Pt 23.4469 17.3074 19.0147
Au 10.7263 7.95899 35.0019
Pt 15.4925 11.0492 26.571
Pt 13.0137 12.8158 19.9918
Pt 18.7239 12.6745 10.3917
Au 18.03 4.05923 19.2919
Pt 6.44288 28.896 20.7587
Au 10.3967 18.5574 13.1818
Pt 16.4245 19.9529 30.8705
Pt 27.423 16.0949 29.3981
Pt 12.0769 22.7976 29.4572
Pt 30.5882 14.03 14.2616
Au 27.1899 7.47285 10.1174
Pt 25.0005 3.60211 27.7905
Pt 18.4628 14.1755 24.1998
Pt 15.0943 31.5681 36.485
Pt 22.3013 20.0859 38.656
Au 2.49837 25.3789 34.1258
Pt 18.8301 22.925 19.7093
Pt 24.4442 10.7584 24.8366
Au 4.08834 24.3325 31.6945
Au 24.9776 9.99578 42.8657
Pt 17.0552 17.8869 29.0967
Pt 17.8971 21.9582 22.0592
Pt 34.2199 16.8957 11.5475
Pt 23.4128 9.75289 11.0708
Pt 13.9095 11.384 24.5485
Pt 26.5794 14.3242 21.3959
Pt 14.8148 18.7279 23.7743
Au 7.51793 10.651 17.7811
Pt 20.8284 14.1162 11.0314
Au 23.0848 28.9252 15.2234
Pt 25.2791 13.4132 14.7703
Pt 17.9186 18.3384 15.4539
Au 17.9569 4.06745 22.0429
Pt 21.4257 17.7964 9.3879
Au 34.7032 21.3933 38.7676
Pt 8.18225 19.0968 18.4015
Au 18.2788 31.9267 23.3846
Pt 10.4373 25.4347 25.8576
Pt 20.6664 8.1278 32.9666
Au 27.4612 26.4763 38.833
Au 31.6078 17.1876 46.2543
Au 23.5034 19.1348 33.8738
Au 18.0621 32.7486 20.3921
Au 20.4131 30.7887 24.7782
Au 7.84634 15.161 37.2213
Au 5.76146 16.2024 20.8508
Au 2.83352 18.7542 29.1799
Pt 19.4288 16.3083 19.3858
Pt 17.1634 14.5289 26.9135
Pt 17.3237 34.3941 30.6742
Pt 18.3324 8.4756 25.384
Pt 9.47135 32.2401 24.309
Au 8.79408 9.54046 33.7244
Pt 15.9892 26.6072 12.4826
Pt 18.9162 34.5251 12.33
Pt 17.1752 16.3979 10.5722
Pt 11.0695 17.8228 16.3095
Au 11.4474 30.3533 7.99156
Au 8.52684 16.7836 15.3473
Pt 11.0803 32.9769 22.118
Au 10.3492 42.0096 17.308
Pt 20.535 13.1067 8.45059
Pt 4.68698 22.445 29.6389
Au 15.2155 15.4901 8.86984
Pt 15.8979 13.2387 24.8337
Au 36.1024 25.5247 18.9211
Pt 21.1693 14.2042 22.8398
Au 24.2986 26.5145 16.912
Au 37.6764 12.5861 33.2767
Pt 9.31083 15.5714 31.7324
Pt 14.9003 21.3103 17.6925
Pt 17.8365 6.28832 23.8067
Au 36.1246 29.2666 9.08291
Pt 7.13495 22.8709 33.7056
Au 32.9077 22.2602 33.2485
Au 28.4696 20.7696 20.7793
Au 3.85167 21.1104 35.1035
Pt 16.4257 10.6272 32.9369
Au 13.6829 23.1062 20.2415
Au 30.2755 22.9153 15.753
Au 9.91984 20.8412 43.327
Au 12.2708 9.81338 36.6944
Au 37.9573 29.7477 30.7795
Au 29.5581 24.0603 42.5173
Pt 23.5377 9.83183 33.3932
Au 2.29856 27.6883 35.7706
Pt 12.5894 14.8916 28.2724
Au 25.7349 18.7213 19.4367
Pt 9.05983 21.6838 38.333
Pt 23.1268 14.5419 30.8844
Pt 27.0157 8.85509 17.5964
Pt 14.6647 13.7699 27.192
Pt 8.16326 13.949 29.7849
Pt 27.9862 13.0443 14.6051
Pt 7.2901 16.4672 30.0931
Pt 11.3973 24.2147 31.5475
Pt 18.3539 29.8177 13.0817
Pt 10.9264 29.9258 40.4084
Au 41.1751 29.6837 11.6071
Pt 13.11 22.4331 23.0116
Pt 14.3907 29.248 29.7094
Pt 15.8359 20.5371 27.8707
Pt 10.2863 13.6947 19.3752
Pt 10.4396 26.8833 20.8235
Pt 21.5239 38.9246 20.2292
Au 26.499 14.7615 4.50196
Au 33.5545 26.3881 27.537
Au 33.5098 38.3718 12.817
Au 39.9932 19.9949 8.65181
Au 18.1029 24.5608 14.4906
Au 34.0023 31.0062 26.7912
Pt 24.7901 5.61158 23.9387
Pt 17.786 10.6061 20.7924
Pt 9.01322 21.4992 19.588
Pt 5.45686 20.4428 27.8139
Au 33.586 31.5472 29.6737
Au 38.5469 25.4125 20.2913
Pt 7.26689 19.1058 29.7032
Au 29.9841 20.1327 36.6697
Pt 38.4454 19.1058 18.0349
Au 22.4148 26.8925 33.6042
Pt 11.228 10.4467 28.0921
Pt 13.6096 31.8332 34.317
Pt 19.77 18.0228 30.1167
Au 25.6418 19.2533 26.2688
Pt 19.4014 10.1068 29.7493
Pt 23.4066 33.1181 39.1948
Pt 13.6165 16.4132 30.2618
Au 35.0982 32.1974 39.2584
Au 8.085 9.4946 31.0909
Pt 21.8447 30.972 40.5414
Au 22.5117 4.55621 32.6984
Pt 11.4704 21.4661 37.2013
Pt 6.73364 27.6974 37.3627
Au 5.98643 14.8988 28.0922
Pt 13.7219 25.3054 29.635
Au 14.9035 27.6961 5.23697
Pt 12.9741 15.8249 16.437
Au 14.2397 7.73293 14.372
Au 4.10791 22.7392 20.2795
Au 24.857 36.7141 25.483
Au 33.8024 15.3908 6.69362
Au 20.543 5.6581 10.0616
Au 16.4013 9.18447 10.9792
Au 22.1782 27.6567 3.45991
Au 36.2883 31.0492 16.8511
Pt 17.7443 30.6942 15.6775
Au 30.3088 29.8111 4.99123
Au 22.9602 31.0881 20.2758
Pt 17.2061 32.612 17.6761
Pt 9.66442 28.4934 36.0392
Pt 5.72491 30.7901 24.6088
Au 25.8299 19.5101 7.52547
Au 18.2027 35.0259 15.3422
Au 27.4346 20.9116 5.5405
Au 23.7982 23.0986 42.8397
Au 34.9296 36.2232 11.1242
Au 32.5238 30.2977 13.6505
Au 29.7262 29.497 30.0222
Au 25.3945 23.9277 21.1465
Pt 8.9455 34.5441 34.535
Pt 6.11577 25.9694 30.7591
Au 5.34773 31.2706 37.8085
Au 43.8388 26.9176 34.7772
Pt 20.012 33.9247 30.3572
Au 28.3374 20.5819 30.8903
Au 4.69785 33.861 30.9169
Au 38.9641 26.3017 36.9985
Pt 19.2933 17.8511 21.6538
Au 30.7227 26.9253 48.489
Au 27.2745 19.4854 40.4131
Au 30.8621 40.0509 43.1304
Pt 13.571 31.7542 28.185
Pt 11.3406 19.3839 32.8763
Au 44.2491 14.5489 34.0809
Au 20.2008 44.0322 40.715
Pt 10.5789 26.6919 31.2217
Pt 12.2832 20.9856 25.0116
Pt 20.3281 36.6789 13.4481
Au 7.60673 18.677 13.5093
Pt 21.7303 45.493 20.6298
Au 30.7424 41.4328 20.8897
Au 8.39284 25.0905 11.5278
Au 29.3987 16.8806 7.63438
Pt 8.02972 17.543 20.5057
Au 19.1187 22.6136 24.6546
Au 28.6833 19.5317 7.79386
Au 16.2147 23.7226 20.8715
Pt 17.1962 16.3495 17.5115
Pt 17.8842 35.9553 38.0236
Pt 6.18878 33.4543 20.4918
Au 25.6963 31.5328 3.05051
Au 33.7589 18.7098 39.1673
Pt 10.7351 33.9563 31.9477
Au 26.4191 29.7623 12.9927
Au 24.7681 21.7772 45.2421
Au 24.3918 27.759 12.7899
Au 36.349 18.9747 27.7137
Pt 9.73784 18.5091 28.9641
Au 24.703 33.6664 25.2062
Au 28.8789 19.8009 34.0051
Au 33.8842 26.314 30.4368
Pt 18.2343 34.7292 35.4117
Au 19.0866 22.8155 33.5201
Au 22.59 25.8204 11.8026
Pt 13.7181 33.744 22.7112
Pt 16.1345 30.7422 33.7522
Au 25.6515 35.7829 46.759
Pt 9.40442 32.3754 36.2028
Au 31.8705 20.8493 45.489
Au 4.85096 19.8654 30.4502
Au 32.6725 30.5894 44.8669
Au 4.77307 18.3936 35.2753
Au 30.1294 24.2931 45.4328
Pt 21.1709 28.065 40.8019
Pt 17.175 16.9305 41.9309
Au 27.128 18.0114 47.085
Pt 17.0242 15.9349 37.5727
Pt 11.1436 24.1109 34.2289
Pt 7.29329 30.2022 16.2955
Pt 13.8468 23.7529 17.5679
Pt 39.1122 19.1997 15.2141
Au 16.6852 46.0718 19.8438
Pt 13.5937 19.2023 16.5989
Au 9.00497 16.3406 12.5925
Au 18.1988 30.2554 9.28457
Pt 15.6088 27.4773 17.2742
Pt 17.7966 39.3191 17.2285
Au 36.4254 22.8048 24.5944
Pt 16.9236 41.6906 29.1475
Au 19.3067 35.1558 7.08752
Pt 18.8397 15.7695 28.6357
Pt 13.2342 30.3789 18.6463
Pt 15.9182 23.1688 15.7898
Pt 18.2135 40.3107 26.7479
Au 40.8971 30.5244 24.3362
Au 23.0234 27.4267 22.0603
Au 39.5699 9.7967 15.6985
Au 20.5225 25.1557 32.4908
Au 34.5414 22.7894 8.36053
Au 32.5529 31.376 47.5228
Pt 21.5906 24.8673 42.8504
Pt 12.7796 40.8718 26.1345
Au 38.3701 31.5228 42.8306
Pt 15.6586 39.3934 28.2522
Au 31.9977 24.3845 7.99089
Au 3.04055 34.5862 18.8379
Au 26.303 22.2323 38.0388
Au 37.8404 9.39611 35.6814
Au 28.0237 32.4633 34.6301
Pt 27.6024 45.5897 30.993
Au 31.7662 33.9407 47.2214
Au 30.3752 33.8363 41.7894
Au 31.2457 30.799 40.4498
Pt 9.04079 32.1661 33.3692
Pt 14.1708 15.7126 37.2184
Au 29.0382 47.353 33.712
Pt 13.1011 20.9728 27.5987
Au 37.8926 10.4605 31.3775
Pt 25.1664 40.1275 34.4432
Pt 15.5976 32.9728 32.1109
Au 9.24163 24.1209 13.9631
Pt 14.7537 36.1552 11.9488
Au 23.3955 27.4229 6.30169
Pt 36.1244 32.9207 18.9786
Au 1.59568 32.294 18.6949
Au 4.97629 35.2584 26.9162
Au 13.6817 14.5077 11.1138
Au 12.2855 28.0096 6.34536
Pt 8.62419 18.1463 31.8227
Au 17.6039 26.9053 4.57363
Pt 15.2348 24.7479 10.4794
Au 3.97412 37.9729 27.5149
Au 2.44114 22.6667 33.1059
Pt 13.1847 34.4279 16.5006
Au 27.0593 35.13 25.9229
Pt 12.9228 38.4987 18.321
Pt 11.1534 22.8766 18.7437
Au 6.71523 35.7439 29.7003
Au 3.07671 36.8326 25.2763
Au 20.5461 10.4524 4.66991
Pt 3.98217 34.2668 21.6434
Au 21.1136 34.6224 46.695
Au 1.06406 33.0774 23.2499
Au 18.6291 30.4131 18.3157
Au 34.7054 18.0014 14.0859
Au 31.3404 18.2222 27.4341
Pt 12.9664 19.3384 37.6128
Au 26.4743 21.0135 33.2522
Pt 11.8448 43.3545 26.435
Au 4.18445 27.911 37.9069
Au 12.7337 29.2658 42.4231
Au 33.7946 29.982 38.2721
Pt 18.5399 18.491 43.8147
Au 16.2354 44.8011 37.1201
Pt 19.1699 42.9182 25.3634
Pt 15.2561 29.454 39.327
Pt 7.65312 24.0601 38.3676
Pt 25.4607 39.4585 29.6597
Pt 15.8305 15.6115 40.053
Pt 17.0551 7.12813 27.2812
Au 11.8126 36.3288 34.8862
Pt 38.8893 38.5188 36.0782
Au 25.9692 28.8327 2.09049
Au 10.3341 38.7475 31.2125
Pt 15.6703 39.027 21.2148
Au 11.074 26.7955 11.6543
Pt 16.5772 37.6767 31.6361
Au 12.1573 19.7938 7.92039
Au 13.3622 44.7969 29.9157
Au 3.38579 33.5808 28.5015
Pt 18.3068 43.9928 29.9046
Au 6.66177 40.2251 24.921
Au 6.88912 32.3698 35.4127
Pt 12.5723 32.6709 9.48588
Au 20.5459 27.3681 6.19423
Au 23.1235 38.298 7.45296
Au 23.3717 28.3772 19.3718
Au 33.9986 37.1393 15.3085
Pt 12.9828 44.8548 24.516
Au 1.72043 31.2853 34.815
Au 1.24803 34.3496 20.8232
Pt 4.35928 32.1338 19.1626
Pt 4.8641 27.1226 35.1841
Pt 7.07363 32.6505 31.4234
Au 9.70065 36.8438 33.2166
Pt 14.8343 40.7972 36.8871
Au 8.78695 19.6329 11.2105
Pt 17.7744 31.7537 35.6753
Au 9.94946 32.37 41.6771
Au 26.3239 31.8392 32.3769
Au 15.0646 46.937 30.2605
Pt 29.0871 43.8283 34.8823
Pt 12.5146 29.3187 27.6865
Pt 19.2129 31.9697 44.3011
Pt 22.2274 37.9001 41.2446
Pt 17.8053 28.9076 43.2013
Pt 14.5291 27.4536 27.6508
Au 26.7706 45.4354 38.2939
Pt 16.9718 35.2135 10.4891
Au 7.44122 42.0931 26.8854
Pt 24.4244 41.4824 23.9619
Pt 14.7857 33.9644 10.1275
Pt 13.7528 37.1222 20.6681
Pt 10.8699 31.3958 20.0112
Pt 9.43851 24.2967 20.4832
Au 25.1989 31.9812 8.71193
Pt 20.1068 40.0619 16.0285
Au 1.02848 29.8441 19.8479
Pt 14.4242 42.6878 25.3896
Pt 17.7407 28.1574 11.1147
Pt 13.5472 28.802 16.2469
Au 12.1116 41.2389 36.1822
Pt 20.4895 31.9418 32.5694
Au 21.7181 47.986 27.4101
Pt 14.6344 31.2062 41.1793
Au 3.5178 25.3924 36.7241
Au 13.5614 36.669 37.1795
Au 14.713 41.2379 12.1118
Au 18.4782 45.0461 38.4901
Au 14.7992 30.5541 43.869
Pt 22.9945 30.4889 36.1541
Au 16.4823 32.7526 45.3989
Pt 22.4075 39.9247 35.6143
Pt 18.3119 32.1174 11.3804
Au 3.3991 19.4054 32.9639
Au 6.30084 21.9775 39.283
Au 25.4404 37.8737 45.0077
Au 15.899 44.3457 28.7318
Pt 3.97244 29.4331 31.4907
Pt 25.656 41.8946 15.9783
Pt 19.5943 36.5804 20.288
Au 23.1894 34.2291 15.807
Pt 10.0379 29.2281 32.8752
Pt 22.858 36.3848 37.4648
Pt 16.1453 31.0055 24.8525
Pt 23.5864 37.6554 34.7207
Au 12.4687 43.6787 34.5411
Au 9.44217 13.1577 21.9922
Pt 21.8329 10.2492 24.5457
Pt 35.2599 16.8078 18.9599
Au 26.6624 1.98357 16.0696
Au 17.0757 10.9994 9.10217
Pt 7.82082 28.4571 18.4113
Au 23.9388 7.1216 7.45793
Au 21.9591 1.11833 18.445
Pt 33.4661 15.0902 20.019
Pt 5.70186 29.5967 35.7046
Pt 26.9955 8.9966 37.1755
Pt 15.0553 8.78467 28.4536
Pt 9.85101 17.948 22.534
Pt 19.8402 8.07118 13.3744
Pt 28.4896 10.6067 39.0554
Pt 22.6697 12.1745 26.6042
Au 14.6665 5.9646 27.1801
Au 11.0895 21.1191 11.7307
Pt 14.0744 12.0385 36.3428
Pt 12.2237 10.101 18.0241
Pt 12.1554 15.5372 19.034
Pt 13.1381 17.6337 14.3686
Pt 28.3806 8.51076 26.4139
Pt 28.8517 8.45246 19.7331
Pt 21.7885 12.8138 37.3856
Pt 28.2531 5.58477 25.9
Pt 22.7878 16.0302 23.5651
Pt 15.3863 17.2627 21.5707
Pt 15.0754 24.1412 39.5102
Au 32.9901 6.13212 12.7923
Pt 22.6686 11.1773 35.5006
Pt 22.8257 9.16088 22.4516
Pt 28.4511 8.25238 12.4308
Au 9.46206 11.8936 26.354
Pt 23.897 13.7267 21.7215
Au 6.37492 13.854 25.4134
Pt 17.4513 7.81672 18.0026
Pt 11.4039 10.3474 34.12
Pt 24.7173 10.2475 18.6836
Au 33.969 3.53818 17.554
Pt 7.68788 16.351 25.1693
Au 39.2377 11.9664 35.7524
Pt 11.0966 21.9148 21.2585
Au 26.0998 21.4751 19.6451
Au 28.8549 26.4803 26.687
Pt 20.4719 7.90568 23.7392
Pt 12.4516 11.1692 22.3554
Pt 5.23012 27.3748 18.942
Au 20.2709 25.2671 18.5537
Au 37.2279 30.6021 35.2321
Au 33.7222 17.9958 5.65964
Au 29.9005 26.1876 37.033
Au 3.69536 37.2031 18.0212
Au 15.6199 5.65952 21.612
Au 18.7703 22.4817 2.18384
Au 18.9031 23.4862 30.7248
Pt 10.5845 14.8881 36.2921
Pt 15.71 18.6174 33.3807
Au 35.531 17.8795 32.717
Pt 14.1991 17.4863 39.0623
Au 30.3013 24.76 33.954
Au 48.7137 18.3685 28.2994
Au 28.074 27.5968 48.6026
Au 25.125 0.971892 24.8582
Pt 17.7033 12.6913 34.055
Pt 16.4084 25.1192 30.6872
Pt 28.9836 13.3782 38.0243
Pt 17.82 12.7083 36.9696
Au 27.2713 14.3067 44.7719
Pt 14.7696 20.6018 42.8521
Au 8.59784 23.442 42.9602
Pt 31.6287 19.7594 34.0623
Au 12.1464 13.1116 17.4216
Pt 21.0877 18.4341 19.7329
Pt 11.1764 24.3623 16.4659
Au 22.7241 4.95221 8.66274
Au 33.3712 11.5197 7.90667
Au 10.8072 7.94185 23.762
Pt 17.8033 25.6557 19.6122
Pt 11.2781 30.2165 16.3846
Au 12.718 12.2257 12.5608
Pt 10.1458 30.4276 27.9409
Au 20.2739 29.8862 10.9653
Pt 10.4247 39.2475 17.6706
Pt 11.5772 20.0582 14.937
Pt 28.6923 6.17167 21.1965
Au 34.0625 27.9982 10.2591
Pt 15.1963 21.1577 22.3378
Au 15.8149 18.2111 8.69322
Au 20.6251 22.9473 14.5737
Au 34.9797 30.4242 46.2674
Au 22.2251 24.4206 16.7717
Au 28.8826 26.9688 34.7015
Au 20.0209 24.6221 9.54017
Au 28.0106 28.3444 3.77004
Pt 22.6913 3.78446 22.607
Pt 21.624 7.87941 17.5878
Pt 18.6743 16.2755 39.693
Pt 35.7686 12.1734 13.8632
Pt 40.5737 9.42178 26.5567
Au 29.7771 17.0991 40.9751
Au 31.6379 28.896 11.3531
Pt 22.3401 14.6629 25.9533
Pt 11.3401 10.3013 24.9701
Pt 24.9468 19.7694 38.631
Au 38.9045 21.9365 42.9144
Au 22.7457 19.1018 25.6868
Au 36.9698 28.0088 24.6164
Au 33.5968 24.4738 20.1704
Pt 20.0299 12.3381 35.4317
Au 22.9151 13.8905 41.9011
Au 36.9524 28.6418 11.9417
Pt 25.6642 14.1329 30.4563
Au 20.7973 36.6701 44.6425
Pt 21.0468 42.4038 16.172
Pt 17.8665 21.0567 17.543
Au 16.3434 13.8329 10.7474
Pt 21.6688 18.5293 17.1958
Au 21.6719 30.2368 2.81899
Au 29.6401 30.9859 17.4891
Pt 23.54 11.3901 15.0503
Pt 8.33656 33.0422 15.776
Pt 5.71303 23.2782 24.3262
Au 20.0216 20.298 15.6697
Pt 10.61 20.116 17.772
Pt 7.0028 31.0473 19.3752
Pt 13.6928 24.0648 14.7895
Au 19.3566 23.288 16.9794
Au 34.9606 24.2775 28.8239
Au 29.471 19.3532 12.3453
Au 26.8233 27.482 11.1837
Au 27.0401 33.073 24.0502
Pt 11.2345 13.4849 14.9753
Au 25.1724 25.0543 11.5079
Au 22.3794 18.2746 12.067
Au 30.3623 18.3507 17.8224
Au 24.0779 18.4359 9.45317
Au 25.1348 28.9152 36.8644
Pt 20.6618 15.4873 30.858
Pt 23.8311 17.859 28.1069
Pt 31.1675 18.1929 38.3269
Au 28.1459 38.5692 11.5647
Au 22.8739 26.2528 44.7156
Au 43.4418 25.8426 37.8543
Au 21.1369 30.0137 27.4109
Au 25.4459 25.7516 14.2705
Pt 4.53268 22.8393 26.9059
Pt 20.4346 18.2032 38.8343
Pt 17.9668 25.2475 33.4315
Pt 13.8936 34.0935 40.9717
Pt 12.6302 23.7108 36.5104
Pt 24.8118 6.04056 31.7299
Pt 20.5841 12.5775 24.8803