3871
Atoms. Timestep: 21451
Au 26.7219 18.6798 5.89373
Pt 12.3094 14.2719 33.0675
Pt 17.2938 15.1149 38.5454
Pt 20.903 19.0178 43.2103
Pt 6.95232 13.7294 20.9652
Pt 20.2333 33.9269 16.2843
Au 16.2176 30.0061 27.9058
Pt 26.6452 30.2978 9.18754
Pt 15.5149 9.82139 22.6845
Pt 12.5717 15.514 40.036
Au 13.1638 45.4611 27.9059
Pt 9.85436 22.5336 13.8369
Au 15.9555 47.4214 22.0915
Pt 15.4411 32.4712 26.5135
Pt 19.5419 19.9565 28.5195
Pt 29.8407 29.2829 18.83
Pt 16.8102 33.1765 8.21257
Au 47.533 19.4378 31.5055
Pt 19.204 29.5243 36.7624
Au 7.1086 40.0855 31.0871
Pt 20.9515 19.5447 26.3173
Au 27.9254 39.0416 43.4481
Pt 24.4975 6.16715 20.4937
Au 20.4804 26.3674 46.5369
Pt 8.97038 10.9173 22.3744
Au 18.0491 46.6336 36.5754
Pt 25.8171 42.7272 19.5538
Pt 30.7912 15.5791 31.2295
Pt 24.3912 23.6793 32.7036
Pt 19.9137 7.69078 13.3237
Pt 32.4165 44.9128 21.6303
Au 15.4773 9.36856 18.055
Pt 19.6365 25.9144 22.5672
Pt 30.7252 35.8356 12.6352
Pt 32.3758 4.01351 19.8158
Au 16.1698 37.3388 6.4363
Pt 16.3956 23.8444 11.5145
Au 45.9935 23.5866 32.987
Pt 9.93794 14.4967 28.37
Au 35.6412 22.0375 46.2833
Pt 16.1993 31.4088 40.3635
Pt 7.08958 33.9293 22.8896
Pt 13.8177 37.3144 31.4433
Au 13.2227 23.2504 5.60507
Pt 23.6539 33.8985 34.8123
Pt 27.8434 10.4689 25.0871
Pt 13.8173 26.484 22.6938
Au 16.7735 18.4022 7.86363
Pt 23.2196 13.843 13.3343
Au 47.2285 38.7697 26.1615
Pt 24.7333 19.9582 17.5812
Pt 25.4167 27.9441 23.1113
Pt 10.5819 31.6294 30.0735
Au 8.99761 36.2822 16.6991
Pt 30.1749 45.4966 28.2519
Pt 23.2729 15.495 27.0325
Pt 23.3272 27.9737 12.9214
Au 41.0705 29.6665 21.5047
Au 45.6592 33.5092 15.5472
Pt 18.6348 14.1754 22.1067
Au 5.8007 12.1018 24.985
Pt 25.8614 25.7567 41.2587
Pt 23.0057 32.0231 36.7464
Pt 8.36223 33.0264 25.2354
Pt 15.24 24.4468 23.7313
Pt 21.4438 31.5261 7.71796
Pt 24.6535 28.3979 16.6912
Au 2.3837 16.5766 24.9567
Au 31.8908 49.2206 25.6203
Pt 20.1309 20.0603 21.3749
Au 13.609 36.2451 40.1875
Pt 27.3959 35.0671 37.8068
Pt 19.1552 23.5191 40.2213
Pt 30.4871 10.3133 36.1933
Au 5.41773 41.6839 23.1166
Au 11.7907 22.0875 43.4855
Au 18.3267 4.38018 26.01
Pt 21.242 5.91524 33.4228
Pt 15.6859 20.0695 30.0262
Au 33.0514 10.9095 12.564
Au 31.9457 16.7168 12.6638
Pt 17.7087 10.854 23.867
Au 0.870209 20.6351 21.5125
Pt 12.3675 27.6309 33.0356
Pt 19.8835 6.45746 25.2308
Pt 8.89234 27.1101 16.7445
Pt 39.1363 16.2217 22.7857
Au 12.5289 33.5442 17.0436
Pt 34.0851 5.17153 21.6101
Au 12.5527 35.9695 11.8248
Pt 7.29704 34.7089 27.1105
Pt 17.3256 14.0804 28.1097
Pt 20.2168 35.9786 27.8604
Pt 25.0035 26.1924 11.6141
Au 4.32019 13.1125 20.3728
Pt 24.7359 35.1812 10.1361
Pt 22.1104 44.9725 27.5978
Pt 11.5587 29.6413 31.3986
Pt 20.3748 27.6195 44.1775
Pt 15.236 39.8741 26.0167
Pt 12.7325 26.9596 39.2897
Au 47.0941 30.903 31.5349
Pt 12.4826 14.2353 26.9075
Pt 23.9483 16.6224 13.306
Pt 27.9114 28.6902 23.7074
Pt 19.6532 13.8519 18.9491
Pt 34.8745 30.8086 38.4766
Pt 29.8619 20.9883 26.7405
Au 5.81536 13.5338 30.4388
Pt 20.3674 5.24701 15.2033
Au 27.1605 20.2103 45.7669
Pt 14.5439 26.484 32.0551
Au 31.8115 30.2772 8.2878
Au 28.6336 -0.791184 26.2935
Pt 23.4625 26.6134 28.643
Pt 13.6418 30.7052 29.9506
Pt 18.9323 17.8452 26.6662
Pt 20.1664 4.57845 20.6342
Pt 22.5266 35.8504 8.80949
Au 10.6071 39.1486 34.3935
Au 41.12 38.6155 41.7044
Pt 27.6755 25.2566 35.8092
Pt 32.1984 13.0746 23.4948
Pt 24.6992 17.5382 26.2716
Pt 15.8552 33.14 23.4946
Pt 26.3067 49.0956 29.6799
Au 40.0983 44.7172 23.6248
Au 28.429 50.6433 28.1317
Au 25.6178 12.3797 38.3558
Pt 19.8947 19.9015 13.8521
Pt 19.0175 9.71802 35.7742
Pt 24.7279 21.7952 27.5138
Pt 27.2559 42.9837 23.2497
Pt 33.4635 26.399 33.3669
Pt 16.4333 29.6358 12.5635
Pt 15.4707 32.8105 36.3679
Pt 27.9276 26.3394 22.6026
Pt 22.9845 16.5097 20.6951
Pt 17.0779 8.98912 20.3815
Pt 12.5991 41.2699 30.9756
Au 8.38965 39.3365 16.4589
Pt 27.5408 32.9703 21.246
Pt 32.588 20.9803 26.2407
Pt 16.2012 25.763 33.9786
Au 2.30981 18.8196 26.6182
Au 6.67774 28.8189 15.5892
Pt 22.3292 13.6158 19.5313
Pt 18.6485 30.6853 26.3818
Pt 18.5822 10.2231 38.6763
Au 22.9849 25.5956 47.2692
Au 45.5193 19.3331 36.6944
Pt 20.1852 25.6725 39.0124
Au 20.6103 5.21423 11.9793
Pt 29.6054 27.2939 14.6282
Pt 10.6811 37.5424 21.0485
Pt 30.8731 26.1228 37.3716
Pt 26.0989 41.4432 15.4992
Pt 28.7171 38.8007 37.705
Pt 24.0872 25.0135 39.4203
Pt 11.4684 27.227 23.9244
Pt 28.4037 24.8353 24.8361
Pt 17.6922 31.4387 37.8187
Pt 31.3275 27.2231 17.2459
Au 32.2313 14.4979 36.888
Au 34.7551 42.2564 33.4463
Pt 10.145 13.9619 25.5625
Pt 13.8929 33.5494 12.4543
Au 13.352 5.63663 21.2624
Pt 29.3176 20.3656 40.0688
Pt 20.8226 41.2432 11.7881
Au 44.9615 18.8322 39.4168
Pt 26.4961 15.0714 18.3969
Pt 18.2776 41.4376 10.8852
Pt 34.2668 26.3587 16.123
Au 23.8695 6.51621 34.2331
Au 20.4589 7.26873 40.2544
Au 10.1647 31.8586 33.1629
Pt 18.4031 11.2556 21.1619
Pt 29.8637 21.7103 13.8838
Au 29.2744 36.8204 7.4826
Pt 31.2826 22.9819 21.7396
Au 21.8381 11.8226 41.2973
Pt 27.7025 20.5166 42.3388
Pt 5.65202 24.8413 19.4856
Pt 9.81368 33.9411 23.2235
Pt 29.0516 21.5359 32.2584
Pt 24.2599 33.526 16.4989
Pt 16.2552 15.1279 10.0544
Au 7.9255 7.25522 23.3579
Pt 7.71351 29.1468 21.3655
Au 43.3631 12.5565 26.2396
Pt 20.3273 20.8104 36.4918
Pt 14.057 31.3623 14.178
Pt 35.7103 44.9146 32.4128
Pt 20.1618 6.50731 22.5661
Au 47.2757 23.278 38.022
Pt 25.3812 11.0654 23.7824
Pt 11.6491 24.4119 13.8859
Pt 23.7568 30.7953 17.9174
Pt 19.6917 18.9839 24.0991
Pt 22.3843 11.7552 23.3389
Pt 23.9133 27.1706 37.6636
Pt 8.01463 31.3351 20.0866
Pt 25.6934 39.1253 16.9277
Pt 30.5979 42.8028 18.0137
Pt 26.9799 27.6468 10.148
Pt 30.3552 2.66233 21.3285
Pt 8.88371 27.1009 19.4093
Au 33.0261 24.1424 11.2277
Au 40.4617 42.2358 19.7646
Au 47.733 18.439 24.8574
Pt 14.399 29.1082 25.6614
Pt 25.8681 32.6041 18.4618
Au 34.1711 25.5706 13.4455
Au 44.1733 26.0855 41.1115
Pt 18.7279 35.0761 8.84248
Pt 20.1491 38.766 21.4675
Pt 14.2941 35.3346 22.3184
Au 33.9947 9.43271 25.878
Pt 31.6359 35.5382 39.6789
Pt 17.1655 35.9015 34.3952
Pt 13.271 39.8729 28.215
Pt 14.4167 37.3159 36.7321
Pt 22.3601 21.1067 41.4854
Pt 17.4143 28.9371 9.94653
Pt 33.0686 4.69059 24.0518
Pt 11.9395 27.7793 21.1737
Au 16.6047 8.31971 9.91435
Au 43.5647 19.1004 41.7862
Pt 21.0632 20.8713 11.2717
Pt 22.5052 36.0919 11.7797
Au 28.4006 31.8963 5.10819
Pt 26.032 7.94066 21.8137
Pt 15.3852 43.8221 28.2344
Au 9.91789 9.98451 36.3308
Pt 6.90187 39.6077 23.0061
Au 2.94221 16.0994 27.6152
Pt 23.6152 15.904 34.9859
Au 10.1507 14.7275 40.805
Au 12.3205 36.953 34.918
Pt 12.2338 17.4525 10.1642
Pt 19.2839 13.9339 29.9182
Au 37.5949 36.9415 28.6156
Pt 23.1185 27.2841 21.8842
Pt 28.1581 19.5975 13.09
Pt 29.7256 19.727 44.1158
Pt 23.9569 42.9746 15.4052
Au 29.0446 13.3379 9.72052
Pt 4.04599 25.9892 21.3107
Pt 15.5002 40.8452 21.6011
Pt 11.2119 37.1319 32.4693
Pt 6.05503 22.3777 18.0153
Au 39.049 39.2328 35.1168
Pt 8.41976 24.9353 32.5768
Pt 18.4353 41.4971 18.0822
Au 41.329 19.651 14.7161
Pt 28.785 26.1549 32.6499
Au 10.0795 39.6969 12.9988
Pt 30.0375 27.6798 29.2346
Pt 10.718 26.0405 31.6976
Pt 33.5941 27.8026 21.1081
Pt 4.92203 17.1162 26.133
Pt 8.1102 23.0762 23.2999
Pt 18.8841 20.7348 34.013
Pt 25.6282 21.7668 43.8228
Au 41.6687 15.7324 37.8542
Pt 18.3739 36.1986 31.9279
Au 37.0701 39.6178 37.1319
Pt 20.3604 26.1774 41.7568
Pt 33.852 16.3714 16.9527
Au 3.35679 36.9904 28.2089
Pt 16.6883 22.3401 33.8233
Pt 31.5617 29.6747 21.0497
Au 8.82059 6.96413 20.6782
Pt 18.673 46.2174 24.891
Pt 19.1753 14.9319 26.3651
Pt 22.4152 40.7263 28.6224
Pt 16.2624 23.6345 8.8729
Au 3.01582 26.9102 25.9882
Au 8.42901 8.35221 31.3443
Pt 22.1677 5.3795 24.705
Pt 15.0279 19.8856 23.4774
Pt 23.0255 22.8116 43.5632
Pt 7.44295 37.4748 30.474
Au 40.5962 12.8348 26.5543
Pt 27.6853 9.11529 31.775
Au 38.0565 28.9908 17.8762
Pt 13.578 26.1875 35.2737
Pt 10.4681 29.6923 22.9284
Au 17.4348 39.1239 40.6559
Au 38.6976 43.1064 40.8389
Au 44.6937 33.9206 20.1434
Pt 20.851 3.57398 26.4338
Pt 21.0502 39.786 13.9769
Pt 19.7329 8.54786 20.8266
Au 14.8501 8.96161 40.668
Pt 33.8191 23.5836 22.7115
Au 47.6801 21.4516 33.3854
Pt 15.0407 20.6954 35.3208
Au 37.105 41.017 41.7911
Au 23.3933 20.0337 43.9762
Pt 28.6934 23.645 33.8984
Au 1.82056 21.7517 26.3603
Au 44.2468 41.8473 32.1507
Au 45.1873 34.9216 22.866
Au 10.9015 15.2144 30.9454
Au 4.36093 25.5065 33.6654
Pt 21.5465 42.3147 14.4143
Pt 16.7431 18.8327 27.8564
Au 40.0357 7.11154 19.0981
Pt 20.6801 14.2938 9.76806
Au 5.04413 30.5689 27.5717
Pt 22.0337 13.7802 36.2501
Pt 25.0981 24.5034 43.5013
Au 6.34887 15.3117 13.7782
Pt 14.3875 18.4983 16.9208
Au 30.2237 16.044 41.4946
Pt 31.3493 20.1136 28.7246
Au 50.4765 32.8078 24.0743
Au 17.9269 41.0774 15.2855
Pt 11.1628 26.2388 18.0757
Au 23.6879 8.28069 12.3057
Au 43.6434 25.5419 19.9115
Au 21.3373 11.5049 34.2478
Pt 16.9449 27.7325 32.1998
Pt 18.9154 20.5054 6.70181
Pt 30.5311 36.1508 27.5023
Au 15.7102 28.0067 7.93241
Pt 27.0779 33.1192 32.5487
Pt 15.8656 23.3216 6.19565
Au 12.7351 7.45089 39.443
Au 12.0321 8.91056 13.4702
Pt 23.6094 43.8988 18.2224
Pt 20.9673 34.6188 23.2918
Au 17.7229 8.07144 40.0584
Pt 31.3166 28.8091 41.9311
Pt 18.3443 34.2967 22.9136
Pt 23.6861 11.3255 15.8726
Au 24.9079 4.18661 35.2537
Pt 9.80656 24.5364 15.9798
Au 4.65325 38.9825 24.2232
Au 27.6031 39.2293 12.8078
Au 39.1027 36.555 15.834
Pt 9.40485 23.9204 11.2068
Pt 22.0326 36.9677 22.2636
Pt 25.3948 29.7241 13.7401
Au 38.3403 45.0685 30.4743
Au 38.8122 33.5783 12.6082
Au 31.5884 31.2577 28.2861
Au 35.2212 15.0031 19.0999
Au 30.4218 10.1061 13.3592
Au 40.7612 40.8548 24.429
Au 34.0799 9.45546 29.5437
Pt 25.3647 16.7191 10.8611
Au 40.2938 42.5541 38.7149
Pt 18.986 16.9246 17.9074
Au 26.1246 9.06217 34.3202
Pt 20.8379 23.5332 42.3277
Au 13.0873 8.13364 22.8108
Au 36.5548 39.0307 26.8875
Pt 22.9135 21.3376 25.5512
Au 33.0252 35.5117 33.6237
Au 29.2545 1.75625 18.9315
Au 34.4792 38.5186 11.9501
Pt 11.7284 23.9477 27.4069
Pt 41.0268 23.821 15.6589
Au 23.4268 29.5438 3.00071
Pt 13.8994 20.1087 14.409
Au 12.506 10.3377 40.6622
Pt 15.6982 26.729 39.2767
Pt 34.937 17.3009 25.9456
Au 28.4642 17.6968 42.7668
Au 24.2555 2.53362 15.569
Pt 24.8043 33.9789 37.424
Pt 19.0601 25.6874 27.2498
Pt 28.9098 14.2223 34.1992
Pt 17.5401 30.5299 7.73359
Au 7.13686 9.04692 21.4278
Au 30.7109 27.7932 8.08812
Au 35.2079 48.1008 29.2861
Pt 9.93342 21.5134 16.3141
Au 32.3586 31.2955 10.9408
Pt 16.3975 7.57737 31.8026
Au 24.5557 20.9071 46.2977
Au 13.9003 22.2155 45.1083
Au 42.9567 20.0972 30.8173
Pt 43.1893 22.7758 30.1843
Pt 8.23707 25.6931 30.0387
Au 24.41 14.312 5.69839
Pt 14.9692 28.2822 34.3985
Au 49.4386 28.0747 36.1576
Pt 31.0625 19.7008 38.0887
Au 40.8866 34.2175 14.437
Au 44.6605 24.2209 27.926
Au 24.3377 16.7608 3.6237
Pt 28.0826 37.0259 35.7035
Au 35.6535 11.062 27.4088
Pt 13.9917 22.8313 10.3685
Au 24.5865 42.6343 38.9797
Pt 21.048 9.98851 12.406
Au 45.0585 29.3791 17.6332
Au 40.9421 7.85722 14.2651
Pt 13.5258 22.3074 36.9548
Au 20.0115 35.803 4.66092
Au 33.6766 40.1107 9.54292
Pt 12.235 27.1962 26.5179
Pt 21.5984 21.7002 27.8334
Pt 20.9831 29.4371 25.7484
Pt 26.3038 34.6962 35.3248
Au 14.9943 5.97092 34.2984
Au 11.3999 21.7268 7.20213
Pt 35.3783 34.1486 41.7772
Au 25.0561 29.5147 44.8539
Pt 27.9367 32.5239 29.9803
Pt 24.2681 28.5248 19.6263
Pt 30.714 3.22852 24.2896
Pt 14.0532 28.3236 28.0865
Au 24.6177 34.4349 4.33517
Pt 15.031 21.6628 12.5517
Pt 31.2785 35.2517 31.1842
Pt 23.593 40.8138 31.0691
Au 31.4349 12.056 38.4073
Pt 15.3414 13.7508 37.3975
Au 9.44925 31.349 11.2183
Pt 18.2718 20.402 30.9505
Au 32.5856 38.4397 7.6193
Pt 17.6734 38.6714 17.1284
Au 33.6929 18.9645 37.4838
Au 33.04 13.7417 11.9191
Au 31.1046 3.05777 17.4415
Pt 11.007 38.5184 16.2441
Au 19.184 12.0659 12.398
Pt 6.46042 23.6119 28.7014
Au 37.3661 34.7562 20.537
Pt 24.6547 20.1493 29.7237
Au 46.018 25.5924 39.1303
Au 36.7583 18.8059 33.8314
Pt 19.114 38.2551 15.0302
Au 38.0977 8.51086 23.3393
Au 45.0567 17.6089 25.1038
Au 31.1633 22.009 11.6439
Au 39.6264 40.5983 40.753
Au 42.0899 20.8898 28.4004
Au 45.0345 14.8338 18.9475
Au 16.7399 43.6304 11.2503
Pt 14.3852 43.408 20.6701
Au 33.8895 15.0153 24.546
Pt 23.9447 25.5541 26.1139
Au 48.3497 23.8319 20.0653
Pt 8.81492 24.9554 13.5721
Au 12.2343 5.5865 29.9293
Au 27.3862 6.8734 33.5084
Au 4.62342 39.2422 27.0027
Au 13.6213 6.21415 36.9787
Pt 14.1385 15.5049 13.9784
Pt 20.3 14.9095 38.207
Pt 21.7006 12.1966 29.7715
Pt 26.8234 3.07501 23.703
Pt 41.9076 14.561 24.9114
Pt 25.5054 32.7957 8.88749
Pt 29.9978 26.8901 44.9618
Au 13.4413 42.2893 26.6787
Pt 23.3073 41.7951 20.181
Au 21.2789 10.4443 38.9564
Pt 12.3868 20.0558 23.8545
Au 32.674 42.6011 13.0437
Au 46.8604 36.9256 21.9562
Au 42.1855 23.1348 44.0997
Au 19.8205 2.11251 19.1885
Au 39.874 19.6515 29.4002
Pt 15.4967 15.4141 19.0926
Pt 28.1793 36.2158 28.8828
Pt 26.8638 44.5353 21.1332
Au 41.2732 38.1183 25.7083
Au 35.8917 36.236 26.5362
Au 22.2839 48.7008 23.4843
Au 34.6693 33.6672 25.5091
Au 31.6631 12.3806 14.4346
Pt 19.5473 27.1188 25.1393
Au 35.4654 23.0174 30.1865
Au 33.5513 6.7475 30.6188
Pt 29.5682 27.1533 35.0952
Pt 16.9547 18.6279 24.8743
Au 33.7426 20.5796 5.66991
Pt 16.6389 19.6363 32.9499
Au 35.0125 15.6394 43.9021
Pt 32.8584 15.9553 27.0931
Pt 24.0791 38.8613 36.1984
Au 20.4937 47.4528 35.7077
Au 49.0124 20.4599 26.3338
Au 17.5645 40.8958 35.9722
Pt 36.1467 42.4618 23.3055
Pt 25.8645 17.5465 17.5738
Pt 28.0003 41.2776 37.549
Pt 36.4197 19.1415 24.5343
Au 17.515 25.1495 45.5178
Au 36.0819 43.3306 40.4821
Au 37.2373 12.4023 38.5711
Pt 6.01861 24.467 22.1487
Pt 19.1486 32.5321 18.5838
Pt 23.6163 27.1985 9.66869
Pt 24.2299 22.8825 14.1243
Au 10.0783 8.54022 34.1466
Au 15.2784 45.2114 18.2521
Pt 9.79715 15.7224 33.4315
Au 5.71908 9.73069 26.7998
Pt 21.81 23.8541 26.1805
Au 36.2699 12.9064 20.7953
Pt 8.78115 18.6631 12.6585
Au 6.44445 10.4961 29.4793
Pt 35.5677 30.7235 41.1916
Au 39.7951 24.8276 27.0113
Au 23.5797 14.6839 10.3317
Au 3.22776 20.0744 19.6409
Au 6.56744 10.6465 16.928
Pt 14.7563 30.8973 19.5122
Pt 17.9367 15.8051 14.432
Au 47.4566 34.6716 20.5388
Pt 9.13987 39.2521 29.4109
Au 11.0028 28.0721 7.38015
Au 9.86754 29.8315 39.2706
Au 33.5758 35.8598 11.9387
Au 7.66834 28.4421 38.2794
Pt 19.7656 40.5775 29.2973
Pt 14.9997 33.3067 10.0658
Au 35.024 23.0214 12.9048
Pt 23.5412 24.5393 9.69651
Pt 26.3797 34.3625 11.8889
Au 22.8746 40.8044 37.759
Pt 17.134 44.426 30.1151
Pt 6.04597 27.4609 20.1573
Au 15.7868 2.96133 26.9976
Au 9.37132 12.5971 36.6932
Au 14.0263 6.67098 18.5753
Pt 23.5003 40.4499 25.7845
Pt 25.1604 40.9029 28.8374
Pt 5.51451 25.9737 29.27
Pt 8.89067 35.7897 32.1847
Au 11.3903 7.7642 37.0254
Pt 14.0175 22.4381 39.4644
Au 38.4365 36.0426 22.831
Pt 5.72674 36.0049 28.8443
Au 32.5122 19.613 45.0281
Pt 28.275 7.61525 28.8226
Pt 31.7838 9.39988 28.1149
Pt 14.6342 18.2367 34.2509
Pt 23.3316 33.5361 11.8155
Pt 19.7297 35.237 34.0862
Pt 19.2082 29.9053 11.6637
Pt 22.0488 24.1961 15.6207
Au 3.92182 33.607 31.6074
Au 34.1715 24.1621 8.65956
Au 5.37851 10.5873 19.5436
Pt 12.3019 11.9531 31.8247
Au 23.6856 37.1174 4.18397
Pt 29.4814 38.2026 22.8169
Pt 16.3611 32.3073 12.8939
Pt 31.2395 27.2168 19.8281
Pt 3.62899 23.4696 22.7165
Pt 20.4078 37.7923 33.13
Pt 28.7661 24.8921 38.386
Pt 16.6204 5.46549 27.8714
Au 48.2049 31.5281 24.2139
Pt 17.8067 32.9882 25.2587
Pt 28.5021 19.7886 20.4037
Pt 15.4226 16.4672 24.2917
Pt 11.6877 17.8501 30.9508
Au 43.7798 24.5633 22.5547
Au 15.6246 42.8199 35.2109
Au 46.4758 22.1674 18.1719
Au 49.142 23.0736 25.4387
Pt 26.4499 21.4948 13.7369
Au 30.9422 18.8933 41.484
Pt 34.0741 45.3371 25.9443
Au 24.5916 44.1025 36.4781
Pt 28.6419 27.2659 17.2846
Pt 37.2275 21.5705 23.5812
Pt 22.1825 27.123 15.1989
Au 42.7131 26.7011 24.3542
Au 47.6559 23.6477 35.2383
Pt 28.3184 29.7224 38.6356
Au 46.0771 36.8109 33.8396
Pt 30.001 20.9902 35.8412
Pt 21.0744 16.7998 9.47237
Pt 18.2784 29.3585 30.0187
Pt 19.9651 31.8893 42.6283
Pt 18.3827 23.0982 7.15973
Pt 11.4073 36.0573 18.3858
Pt 14.1234 30.4716 35.8878
Pt 25.867 25.4946 8.74594
Pt 26.321 32.4043 26.0425
Pt 27.0369 13.1428 16.7432
Au 41.3005 14.467 22.3189
Pt 15.3617 11.8567 25.0262
Pt 25.0759 36.7603 12.7578
Pt 11.1998 38.2312 27.8817
Au 40.1609 23.9821 11.0229
Pt 29.8926 3.74787 27.2308
Au 31.0865 19.3816 12.759
Pt 32.5676 26.9764 24.9381
Pt 20.5237 18.9375 40.5743
Pt 25.4606 13.2152 31.6505
Pt 11.09 31.9681 24.299
Au 39.4591 32.8336 10.0126
Pt 15.8273 17.9541 19.2977
Pt 11.1109 19.4546 28.8128
Pt 22.767 15.0879 7.78637
Pt 15.9663 10.0173 38.504
Au 41.5694 18.5927 10.5912
Pt 24.861 29.0683 29.2835
Pt 28.6533 25.843 8.68345
Au 39.3426 26.5414 17.1853
Au 34.4359 9.31076 32.3198
Pt 46.9646 23.1214 28.9388
Pt 24.5829 17.8719 36.6743
Pt 14.3656 37.7281 10.4204
Pt 22.6697 25.0159 30.7601
Pt 15.7987 5.1781 25.3443
Pt 36.5929 15.5204 21.8422
Pt 21.5224 29.9838 43.708
Au 24.6028 40.6376 33.8844
Pt 20.7614 18.0962 19.6949
Au 42.8601 18.82 17.1513
Pt 22.8296 14.2065 22.2807
Pt 10.5914 23.504 18.2379
Au 5.00714 13.8504 23.0376
Pt 31.6142 22.8379 19.0302
Au 40.1317 32.0605 35.7074
Pt 21.063 24.516 28.6105
Au 37.8932 10.4899 17.1246
Pt 32.7905 31.6787 25.0724
Pt 32.6579 41.8277 29.1082
Au 27.4056 45.7321 16.3339
Au 33.0716 14.2301 39.6955
Au 17.1855 17.7015 45.0192
Au 39.9536 12.5447 17.6627
Au 4.76949 28.8051 29.9925
Au 6.13835 32.2029 32.2479
Au 14.0369 7.14914 13.7819
Au 4.25931 22.5713 20.1946
Pt 27.8698 7.53674 26.0165
Pt 11.7033 9.95701 26.6826
Pt 16.4273 35.5294 36.9725
Pt 29.822 32.9569 16.1067
Pt 32.4852 21.2428 23.2445
Au 10.0701 35.218 13.6978
Pt 25.1369 13.5745 27.378
Pt 21.2849 14.7701 28.5076
Pt 8.32911 16.0177 26.8058
Pt 27.6899 45.7245 27.4072
Au 18.523 33.4756 4.14236
Au 9.35483 33.1819 35.8197
Pt 19.3784 28.9896 42.0486
Au 35.4225 25.3586 28.3502
Pt 16.4093 11.6457 11.4117
Pt 33.8509 32.6926 40.0164
Au 8.64938 27.8832 8.85149
Pt 19.7593 19.6472 17.6548
Au 40.7007 24.9095 37.9718
Pt 26.2329 17.9699 8.3986
Au 46.3681 24.9187 18.5867
Au 9.18589 20.5672 9.07935
Pt 31.9965 23.4843 42.0619
Pt 6.64899 20.898 24.7105
Pt 31.6644 25.7501 9.4374
Au 38.0733 44.5302 27.6919
Pt 29.3171 38.568 28.2931
Au 23.5391 -0.395945 26.4102
Au 36.0063 28.303 20.115
Au 34.4001 41.1721 41.8698
Pt 10.3152 18.4671 33.3101
Au 11.0644 33.7133 11.6214
Au 17.5663 17.8572 10.3728
Au 49.849 28.4194 20.8502
Au 27.7405 33.2926 46.3586
Au 30.2492 11.0798 9.1786
Au 34.6713 41.4023 11.6937
Pt 15.2404 32.8741 29.2534
Au 9.51302 17.0844 39.6108
Pt 3.83559 21.4451 24.6911
Au 21.5923 38.1844 5.41885
Pt 32.4526 12.095 35.5771
Pt 21.8899 20.4705 23.1875
Pt 24.6938 12.8769 18.0705
Pt 28.8133 1.56757 23.0684
Pt 14.6657 13.7215 11.5683
Pt 20.0122 12.5187 27.7035
Pt 19.4848 38.6192 35.6382
Pt 17.0282 24.1564 19.3114
Pt 8.14893 20.504 14.278
Pt 31.2923 42.1682 25.0892
Au 50.0933 32.1883 26.8826
Pt 13.1574 33.9973 19.6405
Pt 16.8568 26.3209 9.97934
Pt 14.779 32.91 31.8821
Pt 25.1034 35.8815 39.3886
Pt 16.031 39.3083 14.6633
Pt 13.0096 38.5666 25.5123
Au 32.6981 21.3752 36.3961
Au 14.7242 11.587 41.6497
Au 36.9704 23.1691 35.1701
Au 29.5663 15.6104 44.6527
Au 27.0066 11.5137 9.54296
Au 34.9544 36.2067 19.0762
Pt 21.2917 17.4532 28.1004
Pt 25.811 34.3955 30.4495
Pt 25.0733 3.20017 28.5376
Pt 9.91505 17.0602 28.9131
Au 5.50257 12.2505 27.6676
Au 37.1219 27.3781 15.7083
Pt 27.9014 43.9511 30.0746
Au 50.7682 30.2158 25.1594
Pt 12.526 24.5162 16.3718
Au 35.0228 33.52 7.10638
Pt 12.4952 12.3127 25.147
Pt 9.55741 19.1152 17.5129
Pt 26.8864 44.0783 25.5599
Au 19.3811 43.3109 16.037
Pt 30.591 15.0489 24.1935
Pt 32.0733 37.7841 32.3957
Pt 26.8144 3.91236 30.3725
Au 46.9173 19.0757 34.3929
Au 12.0288 10.5813 29.3333
Pt 8.83021 24.2347 35.1552
Au 21.7746 12.6398 11.5457
Pt 12.0372 19.8255 16.6901
Pt 11.6846 22.1222 29.1967
Au 8.38962 30.8315 37.0285
Pt 32.7336 24.6789 35.5362
Au 7.67889 31.875 15.6278
Pt 13.3081 26.1465 19.7315
Au 2.71628 15.3523 22.5685
Au 9.64287 35.199 37.6415
Au 39.3677 14.2789 38.2256
Au 39.1453 28.2158 14.0603
Au 27.5424 43.4289 11.7243
Au 13.3678 14.9674 9.18206
Au 4.01474 14.3916 25.6234
Au 41.5284 16.3239 33.5253
Pt 34.6023 31.7254 33.2982
Au 28.3747 40.9574 7.85566
Au 42.8146 12.4253 14.3846
Pt 22.2239 3.08551 20.0021
Pt 5.45544 36.7335 26.179
Pt 29.46 26.951 10.9644
Au 36.8743 10.1901 29.8486
Au 4.97722 33.2745 27.1147
Au 21.2011 44.4615 12.8296
Au 34.8803 8.82978 23.1844
Au 31.4648 23.7696 47.381
Au 42.0162 40.3183 18.3466
Au 41.5453 37.3038 14.7458
Au 9.51139 6.08129 25.2379
Pt 13.5552 20.1584 10.645
Pt 28.5091 42.785 16.272
Au 9.49423 17.8064 10.0265
Au 36.095 14.6135 11.0633
Pt 24.77 45.1533 26.6971
Au 43.7693 13.3867 31.0396
Au 17.6451 21.8286 4.69433
Au 40.8458 37.8388 39.1533
Pt 12.807 20.0731 38.1979
Au 2.88637 19.7654 15.9792
Au 17.5617 4.90474 34.0463
Au 26.9507 47.1681 21.072
Pt 10.1118 12.5372 30.3285
Pt 12.0516 42.1593 24.4091
Au 36.5059 32.8867 43.92
Au 23.3409 9.54464 33.6255
Pt 39.0796 29.27 28.557
Pt 16.0151 35.1388 40.6742
Pt 10.2859 28.7086 11.2461
Au 4.65288 26.9921 15.6212
Pt 7.36478 38.4461 25.3928
Au 27.3254 27.4148 12.8887
Au 8.15394 17.2766 37.1658
Au 43.1487 39.4275 31.3346
Pt 24.0499 32.3683 14.162
Au 43.3602 20.2065 12.0486
Au 38.8602 8.4008 29.8693
Au 19.4754 45.6159 14.6886
Pt 19.1655 31.2269 16.2708
Pt 26.0647 3.41302 26.1121
Pt 27.0893 11.0825 29.9589
Au 36.2878 46.5082 27.1765
Au 30.3363 39.2459 42.196
Pt 21.769 7.89273 31.6361
Au 45.63 36.4629 19.5433
Au 31.9681 24.8126 44.6887
Au 10.599 19.6699 42.9508
Au 25.2408 25.354 4.40104
Pt 34.1581 27.5244 27.0938
Au 13.6763 27.9974 6.09131
Au 43.605 21.9852 32.6977
Au 48.7119 32.7306 35.3054
Pt 24.5722 11.7823 29.392
Au 26.236 22.3754 47.736
Au 47.9129 34.4053 23.2867
Pt 19.1561 9.0042 25.0917
Pt 11.62 29.3889 28.5332
Au 43.1764 30.9535 12.1281
Pt 26.1098 43.5674 17.0846
Au 38.5807 16.4255 20.179
Au 37.0915 43.2799 16.0171
Au 14.9834 18.041 5.85777
Au 24.3735 1.1886 19.5282
Au 33.9482 18.0701 42.8557
Pt 8.36582 14.3709 31.1877
Pt 29.1773 5.07049 29.5149
Au 23.0451 33.8593 45.5567
Pt 24.3647 36.5495 20.9824
Pt 14.1235 34.8469 37.887
Pt 17.916 24.2022 29.1007
Pt 23.3559 2.52624 26.5619
Pt 23.7389 9.55271 27.8987
Au 20.7437 48.9945 33.1849
Pt 17.6263 5.70424 23.5118
Au 21.1686 0.835693 26.4604
Au 37.4776 12.6442 9.66294
Pt 34.7908 21.7508 24.4781
Pt 32.0138 34.1101 20.5908
Au 6.48877 15.1881 16.4688
Pt 13.0685 20.1312 30.4338
Au 21.0603 35.7865 45.0856
Pt 19.4923 33.351 38.4754
Pt 12.1442 33.5069 14.3506
Pt 10.1416 36.9246 30.073
Pt 24.5736 33.4664 20.957
Au 13.7371 37.3148 7.76113
Au 37.9739 40.453 24.7267
Au 37.7541 23.7445 19.3511
Au 11.8241 34.5384 36.2021
Au 18.7177 27.7318 7.65895
Au 34.1819 31.2085 17.2207
Pt 14.3718 41.6529 32.9692
Pt 24.7873 34.9909 7.36551
Au 38.9684 37.8173 30.8486
Pt 28.1504 22.7954 12.132
Au 42.8538 31.131 36.0209
Au 50.3988 27.7862 26.2264
Au 16.6883 12.514 39.6435
Au 37.5654 20.2454 45.4652
Au 39.1899 32.2043 28.3231
Pt 17.4274 31.0248 35.2049
Au 19.9054 40.3339 40.0083
Au 40.3259 23.5575 41.8661
Au 34.5953 14.0643 35.6889
Pt 7.30159 20.4101 16.608
Pt 9.11985 23.9524 28.1608
Au 39.88 16.1218 17.602
Pt 12.7517 27.4627 30.2405
Au 49.1781 34.1783 28.4225
Pt 31.4284 47.2984 29.7439
Pt 9.53886 27.3539 22.0084
Au 42.8693 28.4238 28.9784
Pt 7.0893 26.7829 22.6961
Au 44.1921 14.4016 16.1247
Pt 27.7004 26.222 46.3593
Au 17.6718 32.7595 44.3695
Au 16.2511 29.2301 44.2816
Au 40.0435 9.98569 15.5214
Au 21.9538 13.1717 6.20988
Pt 15.707 35.4551 32.2211
Au 42.8254 16.1174 17.8264
Pt 18.553 37.8509 29.735
Au 13.3286 8.28013 11.1656
Au 6.63308 30.7945 29.9345
Pt 29.0323 34.4942 35.5001
Au 19.8224 46.3491 17.2977
Pt 27.5139 37.1247 39.3217
Pt 12.1922 22.1082 15.1256
Au 2.36419 16.0258 19.9547
Au 12.822 19.718 6.11751
Au 32.414 15.1055 44.8146
Pt 24.3625 20.3457 14.8999
Au 49.2902 25.9868 21.9495
Au 13.1969 41.6845 35.4604
Au 14.3159 43.1505 12.6929
Au 47.1623 17.3019 29.309
Au 38.1371 22.9237 45.9566
Pt 14.1347 25.0228 37.7261
Au 22.9132 31.0308 45.7417
Pt 27.392 34.8608 9.35288
Au 28.3964 22.1654 6.17073
Au 31.9344 32.941 44.5066
Au 43.0459 33.2432 16.0035
Pt 31.6801 46.5162 26.1625
Au 30.299 48.8889 32.1111
Pt 18.9268 36.2255 36.4143
Pt 34.8542 5.25972 19.0769
Pt 11.6037 10.1146 23.991
Pt 28.4205 41.9602 13.797
Pt 16.8472 26.7441 21.4465
Pt 3.32845 20.6753 22.26
Au 42.9886 8.08447 22.9313
Pt 22.2877 29.05 28.099
Au 7.81346 20 38.1382
Au 20.9096 28.6515 3.51796
Pt 10.1918 41.9354 22.4473
Au 36.4217 10.6527 24.5552
Pt 28.0239 39.3518 40.5826
Au 14.898 9.66604 14.8932
Au 31.3164 5.07106 31.3827
Au 42.1727 11.2382 16.7069
Pt 26.2215 30.7007 33.3316
Au 29.1354 49.8616 25.4863
Au 25.7617 38.0737 41.2266
Pt 19.1942 15.8568 31.6934
Au 12.7745 30.122 7.65382
Au 4.9186 29.0404 17.7635
Au 47.2127 38.0847 31.7155
Au 37.1847 37.0771 13.8889
Pt 21.3743 31.614 10.6914
Au 11.772 28.8688 40.9457
Au 38.6203 19.1523 43.188
Pt 8.50528 32.9928 31.0735
Pt 31.396 24.9541 23.4576
Pt 25.9995 26.1411 28.0454
Au 33.3009 41.8598 36.6312
Pt 22.1303 22.1535 21.0076
Au 4.07497 18.2767 28.7401
Pt 24.3204 30.8652 7.18421
Au 11.3319 44.0973 21.122
Au 5.05596 24.6392 14.0866
Au 16.7041 45.4233 34.658
Pt 16.0244 13.113 34.8865
Pt 9.91783 22.7397 20.8953
Pt 25.6352 41.5624 21.8535
Pt 24.3676 30.9215 27.1699
Pt 26.3635 24.2095 23.0736
Pt 24.1722 35.9087 26.3195
Au 45.6745 32.745 24.4958
Pt 14.2192 22.524 30.036
Au 34.3047 44.2133 38.2904
Pt 23.7288 29.9469 22.3143
Pt 20.903 27.093 29.6257
Pt 23.8107 17.7582 15.7149
Pt 17.2453 22.0401 41.7854
Pt 23.9433 26.1751 33.0045
Au 31.9348 42.4961 38.9475
Pt 30.185 32.1152 20.0907
Au 31.1672 32.9112 40.097
Pt 29.9122 40.5606 19.5193
Pt 27.5207 24.5884 17.6291
Pt 32.1091 44.5588 24.3702
Au 4.09902 22.6617 30.059
Pt 18.8639 19.3907 38.1124
Au 26.6443 16.2716 44.55
Pt 29.9996 25.0099 18.655
Au 20.6706 8.58031 33.9739
Au 13.2519 24.7789 43.363
Au 48.3201 28.7056 24.1372
Au 38.3287 38.6299 42.3546
Au 15.6592 46.4964 27.6119
Pt 17.961 42.44 28.5222
Au 27.9649 8.80753 39.2367
Pt 16.9226 39.7222 19.5494
Pt 23.8115 37.6203 18.2723
Au 42.3981 18.0246 28.9718
Au 37.9463 31.3965 42.1487
Au 22.4691 4.08704 28.9994
Au 31.6497 41.6126 41.6835
Pt 14.9099 30.9975 38.2984
Pt 14.2939 40.4495 19.2893
Pt 7.37327 20.6428 34.3807
Au 39.2344 16.4986 36.5577
Pt 12.8368 21.9919 34.419
Pt 31.0963 24.9035 39.8032
Pt 24.3115 4.003 23.9854
Pt 9.08826 38.3981 23.0269
Au 32.2008 2.40491 27.2298
Au 5.88586 33.0583 20.163
Pt 25.1595 26.9776 14.583
Pt 17.9121 30.0872 32.7752
Au 38.6305 37.237 25.9502
Au 38.4998 23.9499 16.6617
Pt 9.30607 18.6587 26.8196
Au 7.42298 25.6956 38.9175
Au 4.15537 15.0778 18.1533
Pt 7.89848 12.7948 28.9335
Pt 21.7407 25.7577 24.2745
Pt 27.1228 33.1459 16.0762
Pt 25.9166 28.7448 38.1809
Pt 18.4765 29.5394 14.2376
Pt 29.2381 22.4568 20.1327
Pt 29.6311 17.7584 11.2607
Pt 12.4955 32.9555 28.9244
Au 30.9354 5.64893 13.706
Au 10.1312 21.837 39.0145
Pt 29.7481 29.8439 34.5594
Pt 30.0621 11.2573 23.4343
Pt 11.608 17.1991 17.2973
Pt 22.3187 28.2133 17.8828
Pt 30.7778 32.2364 30.7523
Pt 22.3847 33.807 38.635
Pt 32.142 16.1123 22.4251
Pt 20.551 15.5434 20.8218
Pt 29.344 19.0432 33.7974
Pt 7.19651 22.8036 13.2742
Pt 22.3155 25.1162 37.4751
Au 19.214 8.66591 9.31268
Pt 11.1467 20.9875 19.2311
Pt 28.2687 27.4039 37.3718
Pt 23.8299 9.34045 22.663
Au 36.6545 26.7364 22.619
Pt 13.9353 9.66326 25.1678
Au 33.8478 18.3641 8.80404
Pt 10.5833 16.9639 35.7777
Pt 28.0768 13.6549 38.586
Pt 24.0234 5.07542 26.8721
Au 13.2086 35.0889 9.26083
Pt 23.9366 11.9016 20.959
Au 21.478 27.3643 5.78894
Pt 14.0632 11.2753 33.7734
Au 22.8012 46.235 22.386
Au 17.6152 16.3487 6.16543
Pt 31.7757 14.346 20.3771
Pt 20.2993 14.0312 34.148
Pt 23.7559 34.1375 40.9314
Au 22.3766 12.3833 8.78712
Au 15.8725 4.8645 31.654
Au 22.6319 24.3295 4.94452
Au 34.8673 26.3656 45.1954
Au 20.0002 46.1341 20.1705
Au 10.8298 17.0629 12.5959
Au 30.7025 18.0675 19.6702
Au 20.0512 3.66156 33.9509
Pt 15.6749 20.0919 20.7443
Pt 16.3903 28.4964 41.6382
Au 40.1563 40.3097 21.6478
Pt 27.597 3.05923 20.7897
Au 41.1866 36.6592 22.4134
Au 34.0506 36.0769 24.383
Au 15.7621 5.11123 14.5179
Au 43.0877 26.9195 38.7231
Pt 21.8486 18.6737 32.4889
Pt 18.7031 16.8747 37.0308
Pt 19.7339 28.5652 18.5417
Pt 4.55115 17.6366 19.0508
Au 30.9392 34.5414 18.0076
Pt 27.8151 12.0364 32.5596
Au 35.8486 30.0289 31.4332
Pt 26.8883 21.4416 39.8923
Au 9.95733 7.7062 17.9398
Pt 25.3222 31.9091 29.7162
Pt 15.0645 24.6659 20.9672
Au 46.1584 17.2955 32.3421
Au 2.29115 17.7912 17.72
Au 24.5435 19.632 4.50279
Pt 10.7291 36.4368 23.7897
Pt 28.2783 43.9087 18.7888
Au 39.2132 18.6576 24.1705
Pt 12.6013 30.3662 21.085
Au 38.3579 24.5381 22.0563
Pt 21.0075 26.5317 19.8632
Pt 24.117 8.90144 19.9763
Pt 28.8728 23.561 22.646
Au 12.5913 7.71827 28.1968
Pt 15.4748 35.7865 19.7241
Au 36.4348 30.4091 7.81854
Au 18.0465 6.21333 20.8289
Au 38.1354 30.4163 26.1914
Au 42.6806 30.7238 16.8815
Au 42.8696 13.3203 18.2475
Au 39.1097 34.5618 17.879
Au 7.97252 13.1837 13.0676
Pt 8.91167 16.3441 17.4939
Pt 24.5453 19.6596 34.1259
Pt 18.9672 17.5221 21.9103
Pt 23.5285 7.46163 25.8065
Pt 20.3506 36.6734 7.30958
Au 28.5227 36.8893 41.8481
Au 15.6395 41.5409 9.87243
Pt 21.3779 16.3004 33.3398
Pt 21.6889 23.2282 32.6445
Pt 19.5323 10.1514 14.604
Au 41.035 34.7082 29.3119
Au 35.7579 45.2162 29.5654
Au 31.0246 32.0339 6.22548
Au 36.7118 41.8264 26.7593
Pt 34.1876 27.4733 11.5514
Au 40.7744 14.4745 19.6374
Au 33.1039 9.76478 36.8749
Pt 27.8755 15.0546 23.7279
Au 45.3411 29.9214 36.7842
Pt 10.7503 31.6198 27.1058
Pt 19.3003 23.9374 15.2525
Au 11.0734 5.99993 22.8946
Pt 11.8951 24.0831 38.6001
Au 36.4229 30.2203 15.4825
Au 45.1592 37.13 27.1671
Pt 26.336 4.62111 18.9758
Pt 27.964 40.3013 23.0023
Pt 23.2668 13.5139 33.9211
Au 30.3494 19.7582 46.7489
Pt 15.7458 40.488 17.124
Pt 5.6755 34.4934 24.8827
Pt 14.8089 8.74642 33.5216
Au 41.7559 20.9975 42.4917
Au 38.1519 33.9355 15.3352
Au 40.029 12.5399 14.6276
Au 15.5892 9.14037 12.2555
Au 38.0378 19.1834 36.6212
Pt 21.0297 33.298 5.14938
Au 38.5264 19.9039 13.8709
Au 42.634 22.1082 13.9256
Au 41.2709 12.1883 31.2491
Au 45.7366 27.4515 19.5157
Au 17.8081 43.7117 36.8248
Pt 31.6114 22.7616 27.8553
Pt 22.3446 18.9293 13.6477
Pt 32.5156 39.8135 39.9466
Au 37.3551 25.1306 30.9727
Au 26.3507 13.8145 40.7176
Au 34.0653 18.8283 33.4768
Au 33.7524 29.5931 28.7989
Au 40.1521 35.0433 20.4108
Pt 18.5489 42.3916 31.353
Pt 14.2563 22.4903 42.0993
Pt 23.7748 24.0076 28.3047
Pt 20.5766 21.7887 8.28699
Pt 13.0149 21.371 21.3699
Pt 24.2057 29.8956 42.2897