3871
Atoms. Timestep: 20187
Au 5.7813 7.65946 23.4388
Pt 7.8924 5.88391 23.4722
Pt 7.81265 7.70365 21.5232
Pt 6.21133 5.88024 25.4434
Pt 6.00719 7.69629 27.3257
Pt 7.90894 5.83349 27.4021
Au 7.85723 7.74047 25.4108
Pt 7.7551 7.66623 29.3376
Pt 5.93835 11.5963 19.5593
Pt 7.75377 9.61631 19.5093
Au 7.48585 11.3308 17.3576
Pt 5.98959 9.64548 21.4919
Au 5.49633 11.474 23.4227
Pt 7.72743 9.65072 23.452
Pt 7.64444 11.6465 21.5136
Pt 5.88847 9.57135 25.4202
Pt 5.8122 11.5134 27.4212
Au 7.73301 9.63824 27.4567
Pt 7.54543 11.6528 25.3662
Au 5.67829 9.60591 29.36
Pt 5.97183 11.6146 31.3528
Au 7.50652 9.4139 31.4872
Pt 7.65713 11.5487 29.4298
Au 7.50021 11.4243 33.5577
Pt 5.82326 15.5747 15.6496
Au 7.46175 13.3971 15.3892
Pt 7.57366 15.5745 13.5879
Pt 5.91486 13.5535 17.5974
Pt 5.69746 15.4721 19.47
Pt 7.6431 13.5389 19.533
Pt 7.62631 15.4974 17.5307
Au 5.42899 13.5311 21.4259
Pt 5.64374 15.531 23.4059
Pt 7.4275 13.5381 23.4245
Pt 7.50207 15.467 21.4449
Au 5.40492 13.542 25.4113
Pt 5.62677 15.5089 27.3697
Au 7.45204 13.5598 27.4298
Pt 7.4372 15.4997 25.3965
Au 5.47215 13.506 29.4479
Pt 5.71352 15.4479 31.4849
Pt 7.59723 13.5544 31.4257
Pt 7.39626 15.5274 29.4158
Au 5.62239 13.5399 33.3915
Pt 5.87957 15.5501 35.3015
Pt 7.63932 13.5595 35.3379
Pt 7.62888 15.4739 33.3902
Au 7.45234 15.3615 37.5042
Pt 5.87262 19.5505 11.5936
Au 7.4368 17.3396 11.3856
Pt 7.65003 19.5048 9.60559
Pt 5.842 17.5733 13.5784
Pt 5.65334 19.4144 15.5136
Au 7.57776 17.502 15.5612
Pt 7.5756 19.4977 13.5343
Pt 5.66559 17.4596 17.5335
Pt 5.57875 19.4603 19.5238
Au 7.48209 17.4931 19.5027
Au 7.44259 19.5111 17.5399
Pt 5.6202 17.442 21.459
Au 5.22796 19.4418 23.4165
Pt 7.41203 17.5359 23.4347
Pt 7.35366 19.5077 21.5023
Pt 5.58973 17.4404 25.3829
Pt 5.52898 19.434 27.3285
Pt 7.37669 17.4952 27.4045
Pt 7.34503 19.4682 25.3548
Au 5.29239 17.3866 29.3735
Au 5.26846 19.4537 31.4517
Pt 7.37551 17.5016 31.3444
Au 7.24768 19.4282 29.4171
Pt 5.72275 17.413 33.4345
Pt 5.71609 19.4154 35.3745
Pt 7.60348 17.4581 35.4326
Au 7.42767 19.4519 33.3294
Au 5.58277 17.4766 37.293
Au 5.61463 19.4737 39.3012
Pt 7.61394 17.536 39.2204
Pt 7.57323 19.4313 37.3296
Au 7.49564 19.3588 41.4251
Au 5.72008 23.4162 7.70101
Pt 7.72602 21.5001 7.7189
Au 7.74858 23.4108 5.68796
Pt 5.89973 21.4967 9.69518
Pt 5.71049 23.3912 11.5242
Pt 7.6399 21.4803 11.6475
Pt 7.68848 23.4289 9.63103
Au 5.38174 21.4312 13.4978
Pt 5.55768 23.4601 15.558
Au 7.39417 21.4645 15.4783
Pt 7.38899 23.4573 13.5901
Pt 5.57423 21.4834 17.5453
Pt 5.48476 23.4568 19.5179
Pt 7.37386 21.4885 19.5178
Au 7.38175 23.4582 17.5347
Pt 5.49813 21.4779 21.4487
Pt 5.45797 23.4124 23.3878
Pt 7.3034 21.4286 23.4251
Pt 7.33647 23.4477 21.4609
Pt 5.48263 21.4438 25.3836
Pt 5.45138 23.3995 27.384
Au 7.30359 21.4475 27.372
Pt 7.26688 23.4667 25.399
Pt 5.49652 21.4618 29.3574
Pt 5.49944 23.3973 31.3749
Pt 7.31373 21.419 31.3502
Pt 7.27491 23.4412 29.3754
Pt 5.5898 21.4087 33.4225
Au 5.33195 23.3446 35.3995
Pt 7.48969 21.4546 35.3774
Au 7.32333 23.4198 33.3868
Pt 5.70818 21.3704 37.3346
Au 5.44877 23.415 39.3452
Au 7.55589 21.4192 39.2657
Pt 7.41583 23.4436 37.3292
Pt 5.92495 21.5513 41.2544
Pt 5.92895 23.5276 43.0842
Pt 7.69974 21.5584 43.241
Pt 7.69005 23.4846 41.1532
Au 7.66711 23.4688 45.2358
Au 5.93706 25.4703 5.84703
Pt 5.92146 27.3226 7.75166
Pt 7.75926 25.3579 7.73492
Pt 7.81667 27.3681 5.90853
Pt 5.80516 25.3732 9.60368
Pt 5.69144 27.3638 11.5596
Au 7.49931 25.3927 11.676
Au 7.60842 27.4044 9.69348
Au 5.31176 25.4126 13.5656
Pt 5.52459 27.3952 15.5688
Pt 7.36814 25.4488 15.5221
Pt 7.38668 27.3766 13.614
Pt 5.52988 25.4345 17.5044
Pt 5.44638 27.3754 19.421
Pt 7.34175 25.4327 19.4898
Pt 7.37838 27.3946 17.5103
Pt 5.46543 25.4108 21.4288
Pt 5.44022 27.3538 23.3658
Pt 7.23192 25.3967 23.4439
Pt 7.24478 27.4372 21.4107
Au 5.15659 25.3926 25.3962
Pt 5.43114 27.3913 27.4552
Pt 7.18741 25.4059 27.4028
Pt 7.14939 27.3827 25.4139
Au 5.1548 25.3547 29.3838
Au 5.19235 27.4512 31.4543
Pt 7.19501 25.4489 31.3
Pt 7.16842 27.3945 29.4643
Pt 5.5633 25.415 33.3565
Au 5.3372 27.5091 35.375
Au 7.27812 25.4308 35.4132
Pt 7.29681 27.4422 33.351
Au 5.37204 25.5104 37.4493
Pt 5.76562 27.4762 39.3651
Pt 7.53177 25.4053 39.2185
Pt 7.4883 27.4177 37.312
Pt 5.77745 25.4353 41.238
Pt 5.88209 27.3668 43.0051
Pt 7.80918 25.4184 43.0634
Pt 7.70812 27.4148 41.1803
Pt 5.95494 25.4685 44.7403
Pt 7.69414 27.3598 44.9515
Pt 7.68071 29.34 7.75971
Au 5.62339 29.365 9.62956
Au 5.61347 31.4526 11.5784
Pt 7.50744 29.3938 11.6289
Pt 7.62812 31.3292 9.6946
Au 5.39047 29.3617 13.5557
Pt 5.66594 31.4437 15.4975
Pt 7.40977 29.3581 15.5084
Au 7.51043 31.3445 13.5254
Pt 5.54515 29.3618 17.4617
Pt 5.51923 31.3872 19.347
Pt 7.31398 29.3658 19.4707
Au 7.43379 31.3462 17.4801
Au 5.16501 29.3623 21.3454
Au 5.15844 31.4152 23.3808
Pt 7.10356 29.4244 23.4094
Pt 7.22789 31.2927 21.4115
Au 5.1377 29.3409 25.4303
Pt 5.42607 31.3771 27.5219
Au 7.1919 29.3876 27.4144
Pt 7.1552 31.2982 25.4314
Pt 5.45485 29.4474 29.4738
Pt 5.51927 31.4127 31.4502
Pt 7.30946 29.401 31.3797
Pt 7.32757 31.3878 29.4453
Pt 5.5562 29.4502 33.3878
Au 5.35597 31.4019 35.457
Pt 7.39906 29.4146 35.3669
Au 7.39273 31.3762 33.4245
Pt 5.70531 29.4311 37.4177
Pt 5.86972 31.3402 39.231
Pt 7.65117 29.3976 39.3027
Pt 7.60776 31.3662 37.2892
Au 5.6312 29.4386 41.2339
Pt 7.68435 29.334 43.1359
Pt 7.63342 31.3229 41.2362
Pt 7.63375 33.3693 11.5741
Pt 5.88263 33.396 13.5994
Pt 5.87425 35.2987 15.534
Pt 7.62805 33.3588 15.543
Pt 7.65994 35.3658 13.5434
Pt 5.64233 33.393 17.4315
Pt 5.6728 35.3387 19.3251
Pt 7.44521 33.3169 19.4198
Pt 7.59887 35.3334 17.4844
Pt 5.53951 33.3399 21.2779
Au 5.25064 35.3576 23.469
Au 7.19109 33.3116 23.4356
Au 7.30154 35.3679 21.4544
Pt 5.45846 33.3448 25.5068
Pt 5.52288 35.3143 27.4348
Au 7.29835 33.3115 27.4378
Au 7.30356 35.3424 25.4135
Pt 5.49832 33.3508 29.499
Pt 5.62759 35.3374 31.5494
Pt 7.42918 33.3297 31.413
Au 7.3309 35.3433 29.4412
Pt 5.63424 33.3912 33.439
Pt 5.82208 35.3003 35.3261
Pt 7.55745 33.3284 35.3492
Pt 7.59581 35.304 33.4013
Pt 5.85544 33.3235 37.3236
Pt 7.63538 33.35 39.2942
Pt 7.62798 35.327 37.3032
Pt 7.65626 37.3206 15.544
Au 5.64214 37.3202 17.4044
Au 5.64812 39.3623 19.3808
Pt 7.5071 37.3394 19.4331
Pt 7.65493 39.3116 17.5247
Au 5.3779 37.3748 21.3848
Pt 5.71958 39.3584 23.4843
Pt 7.38512 37.266 23.4247
Au 7.4642 39.248 21.4378
Pt 5.57245 37.3813 25.4317
Au 5.3888 39.332 27.3987
Pt 7.35017 37.3015 27.4546
Au 7.49628 39.2254 25.4902
Au 5.3449 37.2992 29.5352
Pt 5.86894 39.2019 31.4892
Pt 7.57957 37.2674 31.4441
Au 7.45017 39.2305 29.4039
Pt 5.81583 37.2551 33.4037
Pt 7.60603 37.3048 35.3551
Pt 7.61457 39.2743 33.4529
Pt 7.67888 41.2371 19.5686
Au 5.65933 41.33 21.5355
Pt 5.94661 43.1456 23.5703
Pt 7.68947 41.1963 23.4668
Pt 7.72599 43.1632 21.5559
Pt 5.79107 41.2785 25.429
Au 5.92233 45.033 25.4635
Pt 7.61347 41.1871 27.4904
Pt 7.79256 43.1054 25.4736
Au 5.64594 41.2655 29.4606
Pt 7.66261 41.1913 31.407
Au 7.49734 43.3271 29.5614
Pt 7.81803 45.0046 23.5592
Pt 7.81276 44.9859 27.3773
Pt 5.94254 43.1271 27.3458
Pt 9.68816 7.68184 19.539
Pt 11.6841 5.88539 19.5122
Pt 11.6531 7.69076 17.5896
Pt 9.78624 5.85106 21.4874
Au 9.79783 7.66325 23.4769
Pt 11.6391 5.66314 23.4403
Au 11.693 7.63801 21.4491
Pt 9.6877 5.70577 25.4436
Pt 9.76472 7.63113 27.4006
Au 11.6221 5.35093 27.4314
Pt 11.688 7.4807 25.5122
Pt 9.77126 5.85516 29.3602
Au 9.46763 7.41167 31.5639
Pt 11.6512 5.87805 31.3654
Pt 11.6389 7.60859 29.3804
Pt 11.5832 7.62866 33.3817
Pt 9.63007 11.5211 15.6441
Au 11.4288 9.38985 15.4374
Au 11.4436 11.3538 13.411
Pt 9.6752 9.57853 17.5959
Pt 9.52309 11.5765 19.4347
Pt 11.6118 9.61408 19.4685
Pt 11.5642 11.4727 17.4629
Au 9.64882 9.66168 21.4514
Pt 9.5555 11.64 23.4123
Au 11.6837 9.64931 23.4836
Pt 11.5434 11.6198 21.3925
Pt 9.66208 9.67239 25.4351
Au 9.56734 11.6167 27.4348
Au 11.6149 9.56416 27.4355
Au 11.6329 11.5884 25.4398
Pt 9.57896 9.49647 29.5449
Pt 9.40255 11.4771 31.4928
Pt 11.4817 9.42233 31.4098
Au 11.4593 11.5109 29.4823
Pt 9.62127 9.54735 33.3323
Au 9.46406 11.3709 35.5468
Pt 11.6278 9.55531 35.3756
Au 11.4197 11.4844 33.4541
Au 11.4364 11.3828 37.566
Pt 9.57599 15.5841 11.5544
Au 11.4605 13.3654 11.3688
Au 11.393 15.3384 9.3953
Au 9.45 13.4352 13.3758
Au 9.4792 15.3814 15.4497
Au 11.4753 13.4081 15.4096
Pt 11.5186 15.3877 13.4229
Pt 9.42005 13.4184 17.4798
Au 9.55974 15.4691 19.4771
Pt 11.5004 13.4498 19.4029
Au 11.4894 15.4022 17.415
Pt 9.52371 13.5516 21.4885
Pt 9.38379 15.5125 23.4305
Au 11.5447 13.5474 23.4268
Pt 11.5145 15.4163 21.4498
Au 9.477 13.5866 25.4025
Pt 9.36191 15.5486 27.4079
Au 11.5314 13.5675 27.4543
Au 11.5037 15.5261 25.4389
Pt 9.40533 13.6024 29.4144
Au 9.44198 15.532 31.3958
Au 11.4093 13.4986 31.421
Au 11.4871 15.5254 29.4057
Pt 9.4529 13.4245 33.4541
Pt 9.46665 15.4782 35.4528
Pt 11.3877 13.3964 35.4991
Au 11.4277 15.4444 33.4632
Pt 9.51645 13.5529 37.3544
Pt 9.55898 15.5326 39.2906
Au 11.4107 13.379 39.5722
Au 11.4806 15.3831 37.4546
Pt 11.5975 15.535 41.3719
Pt 9.59994 19.5108 7.66687
Au 11.3664 17.3276 7.44964
Pt 11.599 19.4907 5.87453
Pt 9.56954 17.5644 9.6039
Pt 9.4892 19.398 11.54
Au 11.5163 17.402 11.4544
Pt 11.5552 19.3734 9.48148
Au 9.47667 17.4522 13.4467
Au 9.53652 19.46 15.513
Au 11.5022 17.4038 15.4228
Pt 11.566 19.3307 13.4461
Pt 9.46175 17.5005 17.5419
Pt 9.33912 19.548 19.5701
Au 11.4731 17.4826 19.4725
Au 11.4722 19.473 17.5265
Au 9.43745 17.4781 21.4772
Au 9.39384 19.502 23.4331
Au 11.4552 17.4484 23.4301
Au 11.4098 19.5415 21.4225
Au 9.37113 17.4915 25.4328
Pt 9.26877 19.4813 27.4032
Au 11.4302 17.5059 27.4158
Pt 11.3637 19.437 25.4658
Au 9.36273 17.5017 29.3741
Pt 9.31409 19.4841 31.335
Au 11.44 17.4722 31.4196
Au 11.34 19.4957 29.4028
Pt 9.39556 17.4815 33.381
Au 9.45957 19.4568 35.3673
Au 11.4748 17.4456 35.4229
Au 11.4227 19.4421 33.3676
Pt 9.49578 17.419 37.3704
Pt 9.46481 19.42 39.3694
Au 11.4364 17.4603 39.4154
Pt 11.423 19.4217 37.3873
Au 9.41282 17.3266 41.4256
Pt 9.64216 19.5518 43.2396
Pt 11.5615 17.6281 43.1722
Au 11.5096 19.5091 41.3003
Au 11.5336 19.4405 45.2686
Pt 9.70274 21.4692 5.88236
Pt 9.63116 23.42 7.67683
Pt 11.5898 21.4279 7.67701
Pt 11.5073 23.3937 5.7401
Au 9.59979 21.4041 9.63195
Au 9.5799 23.4604 11.6071
Au 11.5736 21.3754 11.5379
Pt 11.566 23.4367 9.50762
Au 9.54227 21.4631 13.5731
Pt 9.34852 23.4904 15.5601
Au 11.5589 21.4004 15.4761
Au 11.5396 23.47 13.5781
Au 9.42443 21.491 17.5298
Pt 9.31375 23.4594 19.5499
Pt 11.3757 21.4929 19.5008
Au 11.436 23.4355 17.4827
Pt 9.28853 21.4957 21.4868
Au 9.29465 23.4422 23.4458
Pt 11.3441 21.4446 23.4315
Au 11.3553 23.4288 21.4464
Au 9.34328 21.447 25.4282
Au 9.28368 23.4603 27.4113
Pt 11.3026 21.3974 27.438
Au 11.3249 23.4727 25.4472
Pt 9.23735 21.4369 29.3516
Au 9.26934 23.4221 31.3393
Pt 11.3494 21.4291 31.3568
Au 11.3183 23.3987 29.416
Au 9.38893 21.4659 33.3373
Pt 9.36683 23.4602 35.407
Au 11.4348 21.4476 35.3891
Au 11.3938 23.4518 33.3796
Pt 9.46941 21.4512 37.3301
Pt 9.49232 23.4243 39.1864
Pt 11.4384 21.4296 39.2436
Pt 11.4332 23.42 37.2924
Au 9.52216 21.4209 41.2837
Au 9.6407 23.433 43.2618
Pt 11.6794 21.4431 43.3421
Au 11.5864 23.3636 41.2736
Pt 9.69853 21.5207 45.0267
Pt 11.5725 23.4473 45.2131
Pt 9.61902 25.4225 5.79611
Pt 9.627 27.3996 7.74819
Au 11.555 25.432 7.60753
Pt 11.4655 27.4706 5.74142
Pt 9.57646 25.4374 9.64998
Pt 9.49373 27.399 11.6245
Au 11.5616 25.4826 11.5395
Pt 11.5706 27.4471 9.56439
Au 9.45864 25.4581 13.6258
Pt 9.37306 27.4045 15.5705
Au 11.4767 25.4873 15.5488
Pt 11.4915 27.4259 13.5585
Au 9.38282 25.4396 17.4994
Au 9.35855 27.4363 19.4783
Au 11.4079 25.4557 19.4543
Pt 11.4498 27.4673 17.5051
Au 9.28587 25.4856 21.4818
Pt 9.08806 27.4352 23.4197
Au 11.3107 25.5241 23.3986
Pt 11.3691 27.4643 21.3629
Au 9.22288 25.4782 25.4201
Au 9.17684 27.4 27.448
Pt 11.2753 25.4565 27.4726
Au 11.277 27.4184 25.4831
Au 9.2342 25.433 29.3943
Au 9.25781 27.4159 31.3766
Au 11.3887 25.4353 31.4128
Au 11.3203 27.4375 29.4042
Au 9.28571 25.4165 33.3721
Au 9.38517 27.3916 35.3447
Pt 11.4308 25.3823 35.3625
Au 11.4343 27.3849 33.4143
Pt 9.4567 25.3987 37.2949
Au 9.6017 27.4118 39.2462
Pt 11.4979 25.3643 39.2014
Au 11.5068 27.404 37.2764
Au 9.69251 25.4249 41.1738
Au 9.65371 27.4444 43.2413
Au 11.642 25.421 43.364
Pt 11.6262 27.4373 41.3647
Pt 9.57902 25.429 45.1
Pt 11.5801 27.4261 45.1875
Pt 9.6132 29.3565 5.90564
Pt 9.53012 31.3298 7.71668
Pt 11.5338 29.3916 7.7
Pt 11.4728 31.298 5.88624
Au 9.54821 29.4189 9.68387
Pt 9.52756 31.4187 11.5811
Au 11.5516 29.3842 11.5752
Pt 11.5026 31.3796 9.55921
Au 9.45934 29.3266 13.5551
Au 9.50982 31.3825 15.5178
Au 11.49 29.3769 15.4989
Au 11.5055 31.4419 13.4963
Au 9.41477 29.3795 17.4967
Pt 9.36407 31.3274 19.4553
Pt 11.4206 29.4244 19.4297
Pt 11.469 31.3979 17.5003
Au 9.27122 29.385 21.467
Au 9.19811 31.3568 23.4644
Au 11.2724 29.3508 23.4412
Au 11.3652 31.376 21.419
Au 9.16477 29.3569 25.4019
Pt 9.19939 31.3422 27.4345
Au 11.2509 29.4296 27.4581
Au 11.2614 31.401 25.469
Pt 9.18018 29.3881 29.3916
Pt 9.29861 31.3435 31.3985
Au 11.3466 29.4263 31.377
Pt 11.2878 31.3641 29.4126
Au 9.36615 29.3887 33.3916
Pt 9.46507 31.3944 35.3584
Pt 11.4809 29.444 35.3456
Au 11.425 31.3987 33.4035
Au 9.543 29.4302 37.3028
Au 9.5545 31.4469 39.3845
Pt 11.5409 29.478 39.375
Pt 11.4881 31.4552 37.38
Pt 9.60286 29.3923 41.2569
Pt 9.60008 31.2593 43.1729
Au 11.5997 29.3843 43.3049
Au 11.5198 31.5145 41.394
Au 9.57447 29.4008 45.2368
Pt 11.6166 31.3331 45.0092
Pt 11.4472 33.2751 7.67844
Pt 9.51866 33.3056 9.60391
Pt 9.53544 35.3368 11.6179
Au 11.473 33.4487 11.4587
Au 11.2792 35.5142 9.46035
Pt 9.4791 33.3938 13.5122
Au 9.53207 35.3592 15.4911
Pt 11.4828 33.3801 15.5171
Au 11.4958 35.3964 13.4879
Pt 9.46066 33.3181 17.547
Au 9.43225 35.3179 19.5152
Pt 11.4313 33.3354 19.4721
Au 11.4724 35.336 17.5185
Au 9.30411 33.2933 21.4352
Au 9.35318 35.3102 23.4289
Au 11.3537 33.3471 23.4447
Pt 11.3959 35.3064 21.4452
Pt 9.22199 33.3074 25.4702
Au 9.36225 35.306 27.4068
Pt 11.3137 33.31 27.4444
Au 11.3706 35.2998 25.4412
Au 9.37311 33.3155 29.4065
Au 9.4827 35.2965 31.4198
Au 11.4298 33.322 31.4207
Pt 11.4478 35.3158 29.441
Pt 9.44217 33.3167 33.3827
Au 9.51535 35.3572 35.3677
Pt 11.4708 33.4081 35.3845
Pt 11.4558 35.3733 33.428
Au 9.51944 33.3742 37.3612
Pt 9.57565 35.3221 39.2845
Pt 11.4946 33.4358 39.4158
Au 11.4959 35.391 37.4007
Au 9.40396 33.5221 41.4377
Au 11.4394 33.5454 43.4071
Pt 11.5653 35.3802 41.2606
Pt 11.471 37.4203 11.6699
Pt 9.55657 37.3726 13.6042
Pt 9.55211 39.3701 15.5826
Au 11.5002 37.4543 15.4927
Pt 11.5014 39.4233 13.6069
Au 9.5119 37.3894 17.4995
Pt 9.52669 39.3208 19.4898
Au 11.4799 37.3392 19.5217
Pt 11.4719 39.4076 17.5242
Pt 9.41418 37.3111 21.4258
Pt 9.425 39.1455 23.421
Pt 11.3969 37.2358 23.3742
Pt 11.4713 39.2775 21.4609
Pt 9.36209 37.2558 25.4203
Pt 9.45202 39.2033 27.4568
Au 11.4527 37.2888 27.4659
Au 11.4609 39.1389 25.4024
Au 9.44806 37.2809 29.4137
Pt 9.46264 39.2509 31.4541
Au 11.465 37.3461 31.437
Pt 11.4046 39.2772 29.4595
Pt 9.48348 37.324 33.4222
Pt 9.53777 39.2432 35.355
Pt 11.4445 37.3866 35.4465
Pt 11.4111 39.3377 33.4577
Pt 9.52792 37.2741 37.3341
Pt 11.5243 37.3083 39.3428
Au 11.3156 39.4164 37.5414
Pt 11.5073 41.3282 15.612
Pt 9.56974 41.2844 17.5802
Pt 9.6047 43.1886 19.5729
Pt 11.5106 41.3586 19.4612
Au 11.3636 43.4116 17.4194
Au 9.58783 41.2136 21.4801
Au 9.6912 43.1925 23.5201
Au 11.5902 41.2216 23.507
Pt 11.5978 43.1912 21.531
Au 9.59961 41.1428 25.4744
Pt 9.60241 43.125 27.4606
Au 11.5443 41.2056 27.434
Pt 11.6329 43.3516 25.508
Pt 9.46028 41.2578 29.4564
Pt 9.58426 43.1719 31.3582
Au 11.447 41.2396 31.4175
Au 11.5675 43.2131 29.3732
Pt 9.51612 41.22 33.3666
Au 11.3278 41.4388 35.4796
Pt 11.4825 43.209 33.3127
Pt 11.588 45.0078 19.6372
Pt 9.68723 44.9951 21.5798
Pt 11.5633 45.1771 23.4763
Pt 9.64289 45.114 25.4757
Pt 11.5066 45.1699 27.465
Pt 9.63689 44.9776 29.3436
Pt 11.5629 45.0063 31.3259
Pt 13.5718 7.71624 15.6793
Pt 17.4856 5.62788 17.6251
Au 15.3003 7.62922 13.4075
Pt 15.4438 7.45068 17.4943
Pt 13.6227 7.58971 19.424
Pt 15.5021 5.66991 19.4804
Au 17.2185 7.21785 15.3842
Pt 13.5779 5.67422 21.4188
Au 13.6208 7.45962 23.4798
Pt 15.5376 5.53075 23.3554
Pt 15.5539 7.48184 21.4356
Pt 13.5834 5.55065 25.3998
Pt 13.5831 7.34605 27.4327
Au 15.4909 5.249 27.4332
Pt 15.5667 7.29821 25.443
Pt 13.5134 5.65533 29.5052
Pt 13.5844 7.63373 31.4064
Pt 15.5041 5.64594 31.5086
Au 15.5541 7.35023 29.4195
Pt 13.5604 5.8559 33.336
Pt 13.6 7.63758 35.351
Au 15.5421 5.60958 35.422
Au 15.5667 7.5375 33.4314
Pt 15.5538 7.64389 37.3376
Pt 13.6017 11.4979 11.4898
Pt 15.5605 9.62493 11.5024
Pt 15.5532 11.5326 9.50632
Pt 13.5505 9.60696 13.6054
Pt 13.4585 11.4213 15.5064
Pt 15.4956 9.49109 15.5037
Au 15.5028 11.4313 13.4803
Pt 13.5368 9.57768 17.4989
Au 13.5757 11.542 19.4275
Pt 15.5695 9.44425 19.3903
Pt 15.5168 11.4465 17.4182
Au 13.6423 9.57053 21.4225
Pt 13.6188 11.5765 23.3659
Au 15.577 9.43678 23.4471
Pt 15.5723 11.4777 21.3597
Au 13.6456 9.44376 25.5094
Pt 13.5997 11.4596 27.4486
Pt 15.5935 9.23714 27.4348
Au 15.536 11.4482 25.4636
Au 13.6105 9.48542 29.3725
Au 13.4856 11.455 31.4268
Au 15.6161 9.49151 31.4261
Au 15.6038 11.4454 29.4188
Au 13.5021 9.53701 33.4212
Au 13.4324 11.5176 35.5146
Au 15.5067 9.55739 35.4077
Pt 15.5578 11.4535 33.4185
Pt 13.6043 9.57148 37.3963
Pt 13.6014 11.4945 39.3901
Pt 15.5562 9.55641 39.3376
Pt 15.4938 11.4826 37.456
Au 13.5834 13.6629 44.8455
Pt 13.5662 15.5086 7.60955
Pt 15.5444 13.5354 7.58977
Pt 15.5135 15.5566 5.82423
Pt 13.6335 13.4895 9.47803
Au 13.4339 15.3904 11.3823
Au 15.4932 13.4219 11.4334
Pt 15.5262 15.4778 9.45646
Au 13.4262 13.3654 13.4352
Pt 13.5159 15.4021 15.4191
Pt 15.487 13.3922 15.4354
Au 15.4557 15.4049 13.4381
Pt 13.5249 13.4131 17.3982
Au 13.4985 15.413 19.4157
Pt 15.5282 13.4471 19.351
Au 15.4902 15.4002 17.3655
Au 13.5722 13.5024 21.4249
Pt 13.5218 15.4851 23.4018
Pt 15.5017 13.5139 23.4043
Pt 15.4992 15.4449 21.4153
Au 13.58 13.5209 25.4353
Pt 13.497 15.5633 27.4377
Au 15.5252 13.4848 27.481
Au 15.4543 15.5186 25.425
Au 13.5013 13.4902 29.4348
Pt 13.4645 15.5073 31.4377
Au 15.4995 13.4497 31.4346
Au 15.4478 15.4986 29.4794
Au 13.455 13.4532 33.4344
Au 13.4407 15.428 35.4762
Au 15.4545 13.4451 35.4824
Au 15.4188 15.4933 33.4343
Pt 13.4099 13.3897 37.5539
Au 13.4742 15.4112 39.4672
Pt 15.4811 13.4525 39.4031
Au 15.4454 15.4851 37.4688
Pt 13.6043 13.4337 41.3725
Pt 13.741 15.5346 43.0368
Pt 15.597 13.4787 43.1802
Pt 15.6012 15.5258 41.2787
Pt 15.5517 15.4758 45.0628
Pt 13.5823 17.5269 5.85067
Pt 13.5383 19.4235 7.62808
Pt 15.5116 17.486 7.60744
Pt 15.4378 19.3878 5.64004
Pt 13.4344 17.3949 9.4347
Au 13.5651 19.3661 11.4671
Pt 15.4681 17.3961 11.4274
Pt 15.5289 19.4024 9.44187
Pt 13.5092 17.3625 13.4234
Pt 13.5501 19.3321 15.3722
Pt 15.5044 17.3558 15.3793
Pt 15.5186 19.301 13.4525
Au 13.4919 17.4372 17.3914
Au 13.5041 19.5057 19.4887
Au 15.5 17.4196 19.4116
Au 15.489 19.4073 17.3841
Au 13.5005 17.4389 21.4492
Au 13.3949 19.4775 23.4222
Pt 15.4213 17.4468 23.4311
Pt 15.4287 19.4544 21.4741
Pt 13.4205 17.5053 25.4059
Pt 13.3564 19.4627 27.4342
Au 15.4181 17.4855 27.4599
Au 15.3838 19.4353 25.4323
Pt 13.4407 17.5223 29.4297
Au 13.428 19.4351 31.4197
Pt 15.4382 17.4233 31.4306
Au 15.435 19.4255 29.4748
Pt 13.4517 17.4557 33.4368
Pt 13.4333 19.4043 35.4627
Pt 15.409 17.4592 35.4773
Au 15.4062 19.3935 33.4374
Pt 13.4335 17.4486 37.4805
Pt 13.4857 19.4622 39.3517
Pt 15.5165 17.5227 39.4224
Au 15.4586 19.4123 37.4351
Au 13.5723 17.5834 41.3523
Pt 13.5781 19.517 43.4277
Au 15.6053 17.5666 43.4247
Pt 15.5605 19.4997 41.4787
Pt 13.469 17.33 44.954
Au 15.424 19.3952 45.5375
Pt 13.4507 21.337 5.70762
Au 13.5719 23.411 7.43246
Pt 15.5473 21.4046 7.36743
Au 15.4051 23.355 5.30198
Au 13.605 21.4398 9.49535
Au 13.5826 23.4657 11.4961
Au 15.5545 21.4244 11.4845
Au 15.6131 23.4573 9.3529
Au 13.5686 21.3954 13.482
Au 13.5617 23.4885 15.4983
Au 15.5037 21.4443 15.3991
Pt 15.5965 23.5301 13.4199
Au 13.5152 21.4258 17.452
Au 13.4223 23.4305 19.4446
Pt 15.4247 21.4831 19.4644
Pt 15.432 23.4774 17.4911
Pt 13.3957 21.4724 21.4298
Au 13.3298 23.4675 23.4161
Au 15.3781 21.4564 23.4224
Au 15.3832 23.4609 21.4353
Au 13.3027 21.4255 25.4508
Au 13.31 23.4383 27.4442
Au 15.3746 21.4255 27.4492
Au 15.3571 23.4571 25.4402
Au 13.3703 21.4425 29.445
Pt 13.3774 23.4546 31.4328
Pt 15.3875 21.4192 31.4642
Au 15.3672 23.4322 29.498
Au 13.4085 21.45 33.3928
Pt 13.4041 23.4464 35.3851
Au 15.44 21.4313 35.4259
Au 15.3983 23.4397 33.4114
Au 13.4352 21.4263 37.3802
Pt 13.4406 23.3802 39.3069
Au 15.5106 21.4168 39.4204
Au 15.4925 23.4103 37.3987
Au 13.5826 21.4248 41.3967
Pt 13.5831 23.4273 43.4695
Pt 15.5374 21.4416 43.6229
Au 15.5184 23.4159 41.5324
Au 13.482 21.4906 45.5311
Pt 15.467 23.4817 45.3678
Pt 13.3826 25.5083 5.67761
Pt 13.5008 27.4718 7.52996
Au 15.5452 25.418 7.26007
Pt 15.3584 27.536 5.58217
Au 13.6017 25.4602 9.45414
Au 13.5834 27.4735 11.4842
Au 15.609 25.5197 11.3904
Pt 15.5743 27.4721 9.30836
Au 13.5812 25.4889 13.4748
Au 13.5226 27.4647 15.4623
Au 15.5279 25.4745 15.4341
Pt 15.5808 27.4956 13.3927
Pt 13.4355 25.5098 17.4952
Pt 13.3995 27.4852 19.4145
Au 15.3949 25.4663 19.4347
Au 15.4352 27.4869 17.4648
Pt 13.3522 25.4672 21.3587
Au 13.348 27.4317 23.4168
Au 15.3553 25.4645 23.43
Au 15.3694 27.462 21.4098
Au 13.3206 25.4919 25.498
Pt 13.3444 27.4892 27.4726
Au 15.3656 25.469 27.4675
Au 15.3757 27.4753 25.5073
Au 13.3431 25.4613 29.4187
Pt 13.3924 27.4444 31.4373
Au 15.356 25.47 31.4599
Au 15.3712 27.4918 29.4316
Pt 13.4264 25.4159 33.4344
Pt 13.4444 27.3933 35.3715
Au 15.4547 25.4377 35.393
Pt 15.3826 27.4174 33.4439
Au 13.4712 25.3877 37.3478
Au 13.4608 27.442 39.3886
Au 15.5024 25.4209 39.4214
Au 15.4828 27.4365 37.3994
Au 13.5299 25.3876 41.3653
Pt 13.5825 27.4057 43.4244
Pt 15.4824 25.4436 43.5034
Au 15.5008 27.4317 41.4498
Pt 13.5337 25.4264 45.3265
Pt 15.4292 27.393 45.3976
Pt 13.3748 29.422 5.69975
Pt 13.4872 31.3723 7.54105
Pt 15.452 29.4616 7.42382
Au 15.3618 31.3781 5.36233
Pt 13.5459 29.4278 9.45904
Au 13.5268 31.4131 11.4667
Au 15.5486 29.4329 11.3773
Pt 15.4878 31.4079 9.35693
Pt 13.5442 29.4452 13.4949
Au 13.4724 31.4232 15.476
Pt 15.4359 29.4707 15.4666
Au 15.5041 31.4574 13.4683
Pt 13.4205 29.448 17.4674
Pt 13.388 31.4013 19.4154
Pt 15.3324 29.4481 19.4179
Pt 15.3747 31.416 17.4507
Au 13.365 29.4269 21.4146
Au 13.3736 31.4185 23.4903
Au 15.4035 29.4673 23.4821
Au 15.3907 31.4113 21.4476
Au 13.3573 29.4185 25.4879
Au 13.3475 31.4145 27.4253
Pt 15.3872 29.4781 27.4702
Pt 15.4132 31.4023 25.4933
Au 13.3572 29.453 29.4345
Pt 13.4216 31.4337 31.4594
Au 15.3887 29.4396 31.4667
Au 15.4064 31.4226 29.4728
Au 13.4287 29.408 33.4157
Au 13.445 31.4637 35.4242
Au 15.4438 29.4477 35.4161
Pt 15.4238 31.4307 33.4486
Au 13.4536 29.4531 37.3768
Au 13.5071 31.4655 39.402
Au 15.4963 29.4397 39.4165
Pt 15.4559 31.4723 37.4163
Pt 13.5608 29.4588 41.4454
Au 13.5448 31.4864 43.3403
Pt 15.4944 29.3852 43.497
Au 15.5488 31.4292 41.4584
Pt 13.5285 29.3869 45.2592
Pt 15.3516 31.4053 45.2966
Au 13.3222 33.3857 5.66147
Pt 13.3533 35.2958 7.60275
Au 15.4509 33.3603 7.38158
Pt 15.538 35.5738 6.06938
Au 13.4522 33.4208 9.44817
Au 13.3913 35.5101 11.3719
Au 15.4644 33.4479 11.418
Au 15.3692 35.5658 9.27072
Pt 13.479 33.4059 13.4938
Au 13.4993 35.3835 15.491
Pt 15.4459 33.386 15.5037
Au 15.4322 35.3829 13.4554
Au 13.4558 33.3981 17.4997
Pt 13.4447 35.357 19.4967
Au 15.4228 33.4086 19.4665
Pt 15.4703 35.3876 17.5103
Pt 13.3909 33.3552 21.3961
Au 13.402 35.3037 23.4225
Au 15.4182 33.3531 23.4833
Au 15.4551 35.3964 21.45
Pt 13.3621 33.3552 25.4741
Au 13.4189 35.3424 27.4483
Au 15.4153 33.3843 27.4202
Au 15.4703 35.379 25.4482
Au 13.3844 33.3546 29.4402
Au 13.4405 35.3802 31.4468
Pt 15.395 33.4248 31.5024
Au 15.4333 35.4309 29.4535
Pt 13.4429 33.3958 33.4413
Au 13.4519 35.4088 35.4128
Au 15.454 33.4233 35.4294
Au 15.4506 35.4394 33.4163
Pt 13.4734 33.432 37.4338
Au 13.4948 35.3961 39.3831
Pt 15.4919 33.4663 39.4307
Pt 15.4357 35.4612 37.4684
Pt 13.5177 33.4646 41.3806
Pt 13.5285 35.3729 43.2091
Pt 15.5209 33.4292 43.3535
Pt 15.4837 35.4159 41.3542
Au 13.5561 33.4896 45.2881
Pt 15.4818 35.4878 44.9824
Au 15.2601 37.7927 7.51304
Au 13.2771 37.6515 9.51867
Pt 13.4877 39.4973 11.6306
Au 15.3638 37.5154 11.4272
Pt 15.5036 39.5479 9.64918
Au 13.4682 37.4965 13.4714
Au 13.4635 39.5095 15.4914
Au 15.4691 37.4551 15.5322
Pt 15.3699 39.5805 13.5094
Au 13.5142 37.3918 17.5466
Au 13.5026 39.39 19.5231
Pt 15.5517 37.4408 19.499
Au 15.5071 39.4493 17.55
Au 13.4862 37.3471 21.4647
Au 13.5731 39.325 23.463
Au 15.5512 37.4432 23.4521
Pt 15.5719 39.4565 21.4767
Au 13.5112 37.3115 25.4172
Au 13.5384 39.261 27.4329
Pt 15.4996 37.405 27.4369
Pt 15.5909 39.4695 25.461
Pt 13.4521 37.3458 29.4515
Au 13.4763 39.2996 31.4207
Pt 15.4558 37.3856 31.4529
Au 15.5467 39.3458 29.4157
Pt 13.4041 37.372 33.4344
Au 13.3301 39.3653 35.4684
Au 15.4234 37.4551 35.4505
Au 15.4784 39.3593 33.4398
Pt 13.4172 37.411 37.4369
Pt 13.4636 39.2549 39.3504
Pt 15.4357 37.426 39.4506
Pt 15.4151 39.3784 37.4932
Pt 13.4967 37.3107 41.2884
Pt 15.4133 37.3939 43.157
Au 15.2731 39.513 41.4618
Pt 15.5166 41.4482 11.6147
Au 13.3175 41.5634 13.4339
Pt 13.5375 43.2495 15.65
Pt 15.4443 41.411 15.5525
Pt 15.4831 43.2815 13.6544
Pt 13.4245 41.3999 17.5411
Pt 13.4791 43.261 19.4923
Au 15.5343 41.4472 19.5106
Pt 15.4276 43.3715 17.5383
Au 13.5736 41.3535 21.5324
Pt 13.5414 43.3917 23.5406
Pt 15.5632 41.5225 23.5049
Pt 15.4728 43.4299 21.5182
Au 13.5864 41.3595 25.4712
Pt 13.5708 43.4436 27.3875
Au 15.5778 41.4436 27.4369
Pt 15.4824 43.4789 25.4756
Au 13.5433 41.2926 29.3773
Au 13.525 43.2593 31.4032
Au 15.5537 41.3861 31.4142
Au 15.5275 43.4395 29.4048
Au 13.4237 41.3294 33.4548
Pt 13.4842 43.263 35.2597
Au 15.4202 41.3788 35.4491
Pt 15.5421 43.3818 33.3704
Pt 13.4593 41.2156 37.3224
Au 15.2568 41.4217 39.4467
Au 15.2773 43.4265 37.4095
Au 15.4584 45.3056 15.5431
Au 13.4534 45.2835 17.5894
Pt 15.3565 45.2027 19.5288
Pt 13.4665 45.174 21.5194
Pt 15.4056 45.2866 23.5058
Au 13.4863 45.5586 25.4885
Pt 15.4962 45.3223 27.434
Pt 13.4833 45.1968 29.4337
Pt 15.4386 45.2313 31.4092
Pt 13.485 45.0479 33.2825
Au 15.3731 45.2852 35.3155
Au 17.5142 7.46915 11.3877
Pt 19.8055 5.81201 11.4367
Pt 19.6685 7.64698 9.54315
Au 21.5557 3.8401 15.4606
Au 19.3612 5.40461 15.3882
Pt 21.4784 5.52229 17.5639
Au 19.4113 7.3718 13.4588
Au 19.5125 3.79132 17.5364
Pt 17.5003 7.45958 19.4863
Pt 19.4514 5.50214 19.5374
Pt 19.4673 7.31669 17.4673
Pt 17.4473 5.52325 21.3693
Pt 17.4934 7.3582 23.3766
Pt 19.3741 5.4318 23.2923
Pt 19.4623 7.36169 21.4382
Pt 17.4641 5.46131 25.2878
Au 17.5468 7.16162 27.4193
Au 19.3981 5.14729 27.4397
Pt 19.5037 7.15697 25.3674
Pt 17.5004 5.52594 29.5819
Pt 17.5562 7.41744 31.4632
Pt 19.4668 5.48806 31.5645
Pt 19.5529 7.20414 29.5034
Pt 17.5329 5.63656 33.4731
Pt 17.516 7.58364 35.3628
Pt 19.4625 5.67246 35.4148
Pt 19.5303 7.43547 33.395
Pt 17.5716 5.90208 37.3298
Pt 17.5385 7.67523 39.3421
Au 19.4246 5.67183 39.3537
Pt 19.5653 7.56512 37.3805
Pt 17.5332 9.59923 41.2543
Pt 17.5019 11.5826 7.61846
Au 19.3962 9.42569 7.44764
Pt 19.567 11.6183 5.92215
Au 17.4046 9.43016 9.41418
Pt 17.5142 11.441 11.3882
Pt 19.4122 9.49776 11.4239
Pt 19.4577 11.4886 9.37727
Au 17.4497 9.39553 13.4333
Pt 17.4576 11.3826 15.4728
Au 19.4347 9.28744 15.4796
Pt 19.387 11.4108 13.4698
Au 17.4752 9.30669 17.4031
Au 17.5093 11.3861 19.3893
Pt 19.4647 9.27727 19.4174
Pt 19.4154 11.328 17.4306
Pt 17.5241 9.34772 21.414
Au 17.4889 11.4145 23.4093
Au 19.4913 9.27444 23.4571
Au 19.4915 11.3249 21.426
Au 17.5272 9.25906 25.4578
Au 17.5243 11.3704 27.447
Au 19.5223 9.1714 27.4291
Au 19.5083 11.3187 25.4335
Au 17.5836 9.30388 29.4276
Pt 17.5844 11.4554 31.439
Pt 19.5312 9.30451 31.4089
Au 19.4887 11.3656 29.474
Pt 17.595 9.43291 33.3727
Au 17.5152 11.5086 35.418
Au 19.5174 9.46338 35.3769
Au 19.5101 11.45 33.3607
Au 17.5084 9.51014 37.3977
Pt 17.4644 11.4962 39.3534
Pt 19.4875 9.56799 39.3226
Pt 19.4864 11.499 37.3917
Pt 15.5454 11.4939 41.2831
Au 11.505 15.3018 44.2931
Pt 17.5353 11.5513 43.1974
Au 19.5302 11.5208 41.3097
Pt 19.4399 15.4081 45.2232
Au 17.4304 13.4524 5.62157
Pt 17.49 15.48 7.53131
Pt 19.4924 13.6032 7.5132
Au 19.3534 15.4186 5.35791
Au 17.5125 13.4811 9.47037
Au 17.5119 15.4854 11.4359
Pt 19.4647 13.4795 11.396
Pt 19.4939 15.5054 9.4183
Au 17.5166 13.3988 13.4235
Pt 17.4597 15.3901 15.3811
Au 19.4355 13.389 15.45
Pt 19.4325 15.4537 13.4241
Pt 17.4562 13.4149 17.368
Pt 17.4371 15.3893 19.3463
Au 19.4452 13.416 19.361
Pt 19.3785 15.3994 17.3554
Au 17.4601 13.4492 21.3972
Au 17.473 15.457 23.4245
Au 19.4965 13.3848 23.4376
Au 19.451 15.4236 21.3863
Au 17.4917 13.4603 25.4222
Au 17.4895 15.4565 27.4892
Au 19.4519 13.4192 27.4754
Pt 19.4473 15.4424 25.445
Pt 17.5262 13.4934 29.5314
Pt 17.4615 15.4438 31.4681
Pt 19.464 13.4629 31.4571
Pt 19.4387 15.4213 29.5344
Au 17.4804 13.4711 33.4145
Au 17.4565 15.4638 35.4714
Pt 19.4665 13.4629 35.3808
Pt 19.4442 15.4242 33.413
Pt 17.4704 13.4688 37.4468
Au 17.5262 15.5564 39.3779
Au 19.5371 13.5039 39.3552
Au 19.4993 15.4714 37.3994
Au 17.4985 13.5021 41.3007
Pt 17.503 15.5546 43.2961
Au 19.5045 13.5615 43.2819
Au 19.5186 15.6237 41.4267
Pt 17.5023 13.5377 45.0243
Au 21.4662 17.4359 45.6825
Pt 17.381 17.4606 5.67306
Pt 17.4727 19.4686 7.40135
Au 19.5221 17.4295 7.29405
Pt 19.4098 19.4541 5.50808
Au 17.5552 17.4874 9.41692
Au 17.5041 19.3781 11.4416
Pt 19.497 17.4568 11.4089
Pt 19.5245 19.4295 9.25286
Pt 17.4877 17.3729 13.4238
Au 17.4802 19.3742 15.3767
Pt 19.4272 17.3687 15.3946
Pt 19.4556 19.3314 13.4065
Pt 17.456 17.3421 17.3226
Au 17.4062 19.4615 19.4196
Au 19.3874 17.3887 19.3561
Au 19.4229 19.4239 17.3773
Au 17.4233 17.4275 21.43
Au 17.4265 19.437 23.4168
Pt 19.4234 17.4261 23.4065
Au 19.4287 19.4423 21.4227
Au 17.4688 17.4438 25.4074
Au 17.439 19.4264 27.4789
Au 19.4325 17.4045 27.4923
Au 19.44 19.4401 25.4224
Pt 17.4499 17.3805 29.5385
Pt 17.388 19.3615 31.4531
Pt 19.4241 17.361 31.4698
Au 19.3903 19.396 29.5207
Au 17.4376 17.4186 33.428
Au 17.4467 19.4188 35.4702
Au 19.4689 17.4592 35.4563
Au 19.4242 19.4253 33.427
Pt 17.4703 17.5084 37.476
Pt 17.4955 19.4492 39.4926
Pt 19.4501 17.5795 39.492
Pt 19.4338 19.4721 37.5173
Pt 17.5062 17.5863 41.4875
Pt 17.5023 19.504 43.6212
Pt 19.4568 17.5095 43.5654
Au 19.4709 19.4903 41.6115
Au 17.5183 17.4003 45.5561