3871
Atoms. Timestep: 21983
Au 6.97156 19.135 10.0421
Pt 8.26986 17.0663 32.1989
Pt 24.3276 18.1639 14.9613
Pt 8.24452 17.7744 27.6886
Pt 7.44967 16.3835 18.992
Pt 23.3345 32.8452 23.7465
Au 14.8945 29.6546 14.2041
Pt 17.3768 21.825 15.547
Pt 26.4836 8.66435 26.2758
Pt 10.9128 12.4012 31.8666
Au 18.8509 38.5305 42.5496
Pt 24.983 38.6113 18.8883
Au 35.3963 48.2834 24.778
Pt 20.754 11.0685 32.1866
Pt 15.9679 28.6571 21.4457
Pt 33.3769 13.458 30.9479
Pt 25.5394 20.3899 22.7169
Au 18.4016 6.434 23.617
Pt 23.1121 21.8647 33.4922
Au 8.68813 8.15184 29.1173
Pt 9.84956 26.8997 33.8553
Au 9.03961 39.9523 24.9065
Pt 36.9702 11.5945 20.6352
Au 9.58749 24.881 43.7218
Pt 15.8503 19.1655 44.9419
Au 3.2195 22.1744 16.9855
Pt 14.5272 32.5732 17.904
Pt 25.7777 12.3631 34.5734
Pt 6.4077 16.8816 25.596
Pt 15.6997 22.5699 39.6382
Pt 21.6974 22.1272 10.4871
Au 5.60856 10.817 23.0464
Pt 7.55041 23.5124 34.4728
Pt 7.10253 14.7172 28.4516
Pt 28.0555 7.01762 24.9196
Au 11.2351 27.3383 13.106
Pt 24.4879 11.0739 15.5336
Au 17.0552 24.8576 45.259
Pt 18.5236 21.9812 38.8383
Au 9.06531 12.5507 37.3372
Pt 3.30444 20.4317 23.6361
Pt 8.92629 28.1657 12.2184
Pt 5.31392 24.0215 29.649
Au 5.55289 30.8997 22.8941
Pt 9.42599 18.3162 11.0569
Pt 12.9376 24.326 35.4904
Pt 29.0918 16.1187 29.8719
Au 20.76 20.9601 6.56487
Pt 20.8726 19.5419 11.7813
Au 18.6598 9.50001 10.3615
Pt 25.0503 24.6718 27.6676
Pt 26.4841 31.289 29.8192
Pt 16.7125 19.8001 23.0138
Au 15.6639 7.18103 27.9107
Pt 14.6407 32.2137 15.1798
Pt 24.8698 7.85065 33.6933
Pt 24.9123 24.0439 19.4985
Au 13.123 20.0258 7.12895
Au 26.4692 41.9802 6.07654
Pt 18.6053 24.1327 18.7331
Au 6.49118 9.2978 30.4214
Pt 11.0338 23.8403 37.7449
Pt 10.1622 30.9932 39.4047
Pt 14.1507 12.3009 24.9284
Pt 22.0154 28.6132 15.2703
Pt 7.01057 13.1959 23.0753
Pt 15.9307 17.425 23.5217
Au 30.6667 8.33256 39.4616
Au 6.44872 32.5465 35.8539
Pt 12.9764 36.9591 29.7425
Au 20.8643 11.6415 44.3697
Pt 30.0373 24.5858 29.2694
Pt 7.39425 11.2942 25.4521
Pt 21.9294 13.334 31.1041
Au 8.05198 8.46036 26.393
Au 17.403 14.9055 44.7461
Au 21.0042 7.79045 11.2787
Pt 25.2334 22.717 37.6969
Pt 16.2919 26.9247 23.5107
Au 19.9567 5.83277 35.5788
Au 15.9078 5.35895 23.7143
Pt 13.4762 23.1753 20.7047
Au 36.6087 25.9833 18.6881
Pt 16.1057 22.1441 31.4778
Pt 14.183 23.9048 27.1039
Pt 8.61213 27.4807 22.4909
Pt 22.8312 10.2937 17.5479
Au 15.7067 39.4293 13.7129
Pt 23.5844 8.255 22.6472
Au 3.96783 30.8359 32.2909
Pt 25.7724 23.4855 32.5912
Pt 8.90908 12.539 16.7768
Pt 4.93897 12.4386 24.9828
Pt 24.2473 42.8572 16.321
Au 18.5951 8.01309 12.6456
Pt 13.5372 39.2638 15.254
Pt 38.6338 38.6188 17.1452
Pt 12.2201 23.074 31.3105
Pt 29.4291 34.8194 26.8376
Pt 14.3264 25.4909 18.0362
Pt 10.7492 32.0198 29.5796
Au 29.0122 10.693 44.5092
Pt 16.1694 29.0415 36.2256
Pt 4.73313 19.5411 21.3987
Pt 14.8639 18.3293 39.4959
Pt 18.8518 13.3513 26.2103
Pt 10.5535 19.5424 36.2066
Pt 24.1073 15.6161 16.3785
Au 19.3725 13.1151 40.8715
Pt 18.9067 19.1237 19.1354
Au 13.4008 12.9322 38.3023
Pt 37.8182 16.5525 29.888
Au 31.9185 44.2804 10.4509
Au 0.873486 23.2859 26.4268
Pt 16.8582 16.8256 34.0536
Pt 7.38932 36.068 18.9358
Pt 12.9089 18.9706 26.7034
Pt 20.3733 27.0689 38.2702
Pt 20.6209 32.9841 18.3093
Au 10.2828 22.2123 44.2006
Au 18.2117 24.76 8.88053
Pt 12.3985 10.3254 31.6479
Pt 19.7601 26.3652 18.1004
Pt 13.7864 34.8876 31.1899
Pt 9.69352 16.6642 17.2363
Pt 19.202 31.7019 23.2419
Au 23.1387 34.273 4.54374
Au 15.4526 45.9036 26.0916
Au 33.9482 33.049 44.032
Pt 16.9376 14.6999 19.5821
Pt 21.6717 31.1885 16.5319
Pt 26.8204 42.4759 16.6809
Pt 41.8326 16.703 27.1089
Pt 27.8656 17.4687 16.4893
Pt 6.32311 17.4609 21.0985
Pt 16.7519 39.3722 26.792
Pt 25.7292 20.7681 26.6605
Pt 24.5033 34.504 20.1995
Pt 14.9503 9.64927 31.8741
Pt 18.3417 37.8195 31.9066
Au 18.1568 35.6193 6.54647
Pt 19.3725 29.2831 39.6929
Pt 20.8264 38.9394 21.4771
Pt 13.7202 21.6126 29.7141
Au 7.25517 38.3344 22.3096
Au 11.5145 10.8446 38.1812
Pt 26.5906 31.4902 34.5823
Pt 9.9578 35.3106 18.896
Pt 17.6027 9.01308 26.975
Au 25.9034 9.21562 40.8237
Au 6.20056 23.1318 40.4987
Pt 4.24459 15.9512 30.5994
Au 34.2301 6.29032 30.6033
Pt 17.7822 31.1312 38.2005
Pt 13.7102 35.8245 21.7459
Pt 11.6912 23.5309 42.3918
Pt 11.0718 26.82 21.0655
Pt 16.0144 38.8952 32.5691
Pt 15.5946 24.5302 24.9227
Pt 16.4465 34.6725 18.2557
Pt 20.2588 22.0034 15.7522
Pt 13.1262 25.8208 31.1334
Pt 17.5607 29.4199 23.5523
Au 13.094 29.4683 9.15525
Au 16.8145 46.0215 23.5688
Pt 16.6401 15.0105 11.71
Pt 13.1338 29.6034 36.2604
Au 10.6273 7.68928 27.1934
Pt 6.9532 12.1925 29.9896
Pt 30.7538 30.9937 23.7076
Au 22.108 12.5499 46.9225
Pt 32.6617 11.9006 23.3737
Pt 17.0856 32.0137 18.5434
Pt 19.2875 39.3426 27.6107
Au 29.4975 49.0886 29.9238
Au 29.886 9.7062 42.0343
Au 14.2007 45.1524 23.7263
Pt 34.5903 14.2043 23.1025
Pt 20.5218 26.1072 25.3311
Au 8.90021 18.1837 8.22493
Pt 24.5726 8.44828 16.3075
Au 24.4193 37.1365 37.5742
Pt 11.5022 38.8652 24.0756
Pt 11.5513 15.5352 29.6015
Pt 13.536 39.784 18.0043
Pt 17.3621 30.798 40.9006
Pt 30.3414 38.1085 24.1006
Pt 20.8957 14.2849 10.6473
Au 6.96276 35.5425 23.4967
Pt 8.72587 17.0208 14.6069
Au 6.94122 21.9803 9.8188
Pt 13.2147 15.1162 36.3023
Pt 37.312 36.167 37.9425
Pt 33.323 30.0135 40.7787
Pt 28.1889 13.7022 23.5717
Au 2.78313 11.9002 29.0524
Pt 19.8701 24.0238 11.1751
Pt 21.4531 29.9895 4.26923
Pt 24.2238 21.8151 24.5733
Pt 10.5804 35.7804 27.6586
Pt 6.19569 19.3568 18.9152
Pt 29.843 26.9194 25.8044
Pt 19.5736 29.8868 15.0665
Pt 8.39966 28.3065 17.0236
Pt 7.64167 23.5363 23.8421
Pt 18.9871 28.2511 25.7746
Pt 25.5772 12.9392 27.2593
Pt 16.1171 31.9887 32.1151
Au 22.7714 14.7439 37.8142
Au 35.7648 17.3369 45.4523
Au 33.3333 31.1592 1.52059
Pt 8.44315 26.5427 24.9946
Pt 21.5319 41.2244 28.67
Au 4.68038 18.8845 16.7276
Au 4.08042 26.9287 23.4696
Pt 21.8507 35.4494 11.1669
Pt 18.4347 24.8636 33.9408
Pt 29.8656 32.5775 33.0264
Au 19.6192 21.2684 41.5553
Pt 25.6511 30.3179 32.2347
Pt 36.0934 37.7048 18.135
Pt 20.9707 33.7628 22.7422
Pt 12.297 34.3476 29.1036
Pt 17.4827 15.6297 24.9555
Pt 16.5882 24.0531 16.9852
Pt 8.10033 14.7809 36.3164
Pt 9.74618 12.8584 34.4192
Au 9.35448 35.3705 11.2563
Au 13.6565 29.0783 45.0659
Pt 21.1166 15.3951 13.0647
Pt 5.68726 21.6542 17.5375
Au 9.54722 39.7789 27.8021
Pt 5.77963 16.3469 32.7318
Pt 12.5248 40.2026 22.0237
Au 5.93738 29.0851 31.7723
Pt 14.3158 26.2333 28.5153
Au 21.5634 37.6147 37.7821
Pt 23.3178 38.744 22.4518
Au 0.765818 23.6968 29.5306
Au 13.5967 8.28686 17.6705
Pt 16.848 33.2893 16.0658
Pt 12.8487 13.9164 31.2779
Au 38.531 46.2499 28.4414
Pt 18.8163 41.621 29.1972
Pt 14.8493 22.2023 16.7184
Pt 19.7907 36.7605 28.5528
Pt 29.4811 22.7303 22.0277
Au 20.8372 5.37597 24.6315
Pt 28.2183 28.3308 18.7881
Pt 15.6676 33.1077 20.4382
Pt 21.322 43.4458 22.66
Pt 20.7896 27.6675 27.7119
Au 11.2491 37.495 36.7215
Pt 11.9033 19.5152 40.3086
Pt 25.0719 45.6412 24.5873
Au 2.91019 13.4612 31.4456
Pt 3.28641 22.9917 31.349
Au 5.74535 18.8844 36.8635
Pt 35.3648 35.6495 25.0933
Pt 19.9532 17.7012 9.86943
Pt 29.5767 23.6476 16.7516
Pt 12.9853 18.1214 11.3051
Pt 13.8977 37.1654 32.5497
Pt 9.16429 10.7461 30.3561
Pt 23.3952 20.5016 45.1815
Au 29.3115 29.453 46.5746
Pt 8.26621 34.763 21.1314
Au 29.5104 24.4408 2.54956
Pt 6.42138 19.0365 31.8589
Pt 27.1502 31.3387 21.0362
Au 12.2675 41.6166 31.2545
Pt 3.00599 23.3216 28.292
Pt 18.0943 17.4947 16.1548
Au 24.498 3.50879 30.603
Pt 9.98627 31.9369 22.3958
Pt 21.2012 8.88766 30.8048
Pt 18.2118 18.8299 11.943
Pt 23.508 31.8577 12.2738
Au 3.50802 16.1897 21.5072
Au 16.6507 9.84068 37.3491
Pt 13.2233 14.5073 26.2563
Pt 9.19601 37.4034 20.6151
Pt 8.30302 21.8698 39.5558
Pt 28.877 20.8903 26.9639
Au 32.1763 33.6285 13.6559
Pt 26.7221 22.7626 23.5602
Au 24.6814 29.3669 11.306
Pt 9.21908 21.9547 25.89
Pt 14.5179 33.0746 27.9497
Au 46.7605 30.5448 31.0142
Au 32.5476 9.95984 41.459
Au 31.1522 14.5 42.357
Pt 12.145 21.7353 36.5963
Pt 23.5609 20.1052 21.0722
Pt 20.016 9.25339 28.2309
Au 39.7134 10.1528 28.4961
Pt 22.9848 27.8946 17.9383
Au 42.3819 18.2646 7.2025
Pt 27.076 33.8921 20.3234
Au 8.19156 25.3842 41.3573
Au 32.0651 28.9462 45.9742
Pt 33.2136 22.4635 33.9327
Au 5.01254 31.3879 20.2155
Au 21.0793 25.5111 6.05508
Au 11.6731 24.4142 8.31085
Au 3.39434 15.2281 33.3577
Au 5.68441 13.7512 15.6771
Pt 31.0118 28.5948 27.9871
Pt 22.9498 27.1945 37.594
Au 35.9961 6.11184 28.2604
Pt 15.3731 13.5739 9.80915
Au 9.78039 32.0102 14.5332
Pt 5.43369 23.9965 21.5534
Pt 32.8282 35.0624 31.1121
Au 21.2584 9.95876 9.50326
Pt 8.34911 28.955 33.0839
Au 7.32538 30.0012 39.6743
Pt 21.9561 16.8796 27.0308
Au 41.6753 32.5224 6.74916
Au 29.3782 40.9061 8.61546
Pt 9.42646 12.852 25.1073
Au 21.9981 18.1392 45.064
Au 24.1299 40.7946 5.18442
Au 25.0981 27.1429 46.8021
Pt 14.1127 33.9578 38.2546
Pt 22.2344 35.039 24.9278
Pt 22.3637 21.0279 40.8742
Au 37.93 30.2351 44.0329
Pt 25.2284 35.9301 13.8473
Pt 28.2291 17.2637 21.0918
Au 35.1205 18.8564 25.2474
Au 12.6752 11.469 40.6623
Pt 14.8689 25.7896 38.9351
Pt 22.003 36.3559 14.9748
Au 3.62897 17.8504 32.639
Pt 18.0375 27.3691 32.2633
Pt 14.1798 20.0477 12.7334
Pt 4.89256 15.743 27.6854
Au 17.2756 10.6848 41.0054
Pt 19.6443 27.1187 15.5204
Au 5.49696 13.3308 32.6544
Au 30.1369 34.7216 9.35691
Au 25.1469 36.2591 3.85071
Pt 21.0342 33.1882 12.3368
Pt 19.4471 35.8464 14.6549
Pt 12.0034 31.5636 18.6178
Au 44.432 23.8962 21.116
Au 28.1105 19.8972 9.48019
Au 12.1263 35.5668 12.1071
Au 18.3356 6.8557 15.3093
Au 37.4823 18.0025 4.94938
Au 40.0332 31.8446 11.4262
Au 19.7815 42.2545 36.6802
Pt 24.8425 29.2105 25.2879
Au 12.8563 42.1337 33.864
Pt 23.6122 13.7734 35.4288
Au 37.5767 8.23903 37.4073
Pt 4.86485 22.3746 33.8464
Au 27.6028 39.7988 12.8958
Au 3.76416 31.9889 26.8321
Pt 20.8017 10.9941 34.9425
Au 37.0545 23.6046 44.0407
Au 25.3076 16.3982 49.3737
Au 23.0854 32.4026 0.516449
Pt 9.26531 19.6768 14.0472
Pt 23.7748 32.2295 15.2236
Au 37.3456 41.3018 13.9424
Pt 23.232 9.96071 40.4084
Au 1.39076 25.9842 24.2076
Pt 19.2258 15.2163 20.9774
Pt 7.80163 27.1921 38.4281
Au 35.6047 19.7537 44.1031
Au 19.7315 10.59 42.0993
Pt 26.6226 39.6836 30.3835
Pt 3.38528 17.4759 25.9188
Pt 40.7507 27.4514 34.3621
Pt 16.8862 31.9913 27.3078
Au 24.8733 4.99472 37.6232
Au 39.4678 14.7381 14.4863
Au 29.4137 34.8935 1.47251
Pt 15.6898 10.2329 24.1965
Au 16.1544 37.652 10.0373
Pt 21.0037 23.698 17.6501
Au 42.2448 27.6552 41.8287
Au 17.9596 7.38497 36.8538
Au 45.9479 36.0536 30.132
Pt 25.6492 28.7795 34.3435
Pt 15.5597 38.9429 35.7597
Au 28.7006 14.9097 11.3744
Pt 13.293 32.5004 40.5614
Au 36.3304 8.31649 34.9625
Pt 16.4535 22.3115 26.0919
Au 42.3874 27.698 9.50794
Au 20.912 8.34489 40.6756
Au 22.6688 36.4626 5.94709
Pt 18.4516 35.6552 33.6922
Au 33.2263 13.6872 14.3746
Pt 13.7269 40.5902 24.4822
Au 1.90783 22.9648 23.8604
Pt 19.609 32.4 27.5291
Au 31.4843 40.6884 6.66037
Au 23.4197 14.3612 9.1037
Pt 17.5481 20.0114 27.4718
Au 28.7015 24.5513 47.0242
Au 39.4262 20.0643 13.5437
Pt 15.2419 27.5756 31.8299
Pt 4.27925 18.7638 30.1452
Pt 19.2662 21.3396 34.3201
Pt 39.5562 41.3661 33.393
Au 8.6341 8.43951 31.8454
Au 39.945 8.46332 26.2577
Pt 19.3998 24.7655 38.4245
Au 22.4159 6.08681 36.7941
Pt 18.0022 18.3279 24.9959
Pt 8.07944 20.8586 23.6489
Pt 20.8115 20.0301 9.18019
Pt 7.24329 10.2968 28.1017
Au 5.76465 20.5545 12.3187
Pt 12.0113 24.7977 13.635
Pt 22.4053 17.9345 8.44719
Pt 16.0903 36.7876 34.3774
Au 32.4518 8.91404 36.8245
Pt 10.0943 37.6271 25.8388
Au 5.0797 23.9323 16.0157
Pt 27.364 39.4458 33.0198
Au 30.598 13.15 9.86322
Pt 26.0147 32.5999 27.4534
Au 47.7759 24.4036 25.5643
Au 22.6694 28.8535 6.78304
Au 46.3617 29.5467 36.3392
Pt 17.8392 33.6687 22.3734
Au 47.3602 28.7131 11.3306
Pt 14.522 34.7657 16.3033
Au 41.8956 39.5291 25.9
Pt 12.2145 27.019 35.2706
Au 46.7763 17.7195 32.102
Au 42.0302 40.3837 32.6739
Pt 22.9492 40.0189 20.0385
Au 43.2382 35.1908 10.1372
Au 31.9793 17.4429 47.5942
Au 40.0813 32.8569 14.2729
Au 23.3574 30.3823 45.316
Au 44.7654 24.2962 13.0987
Au 40.6092 30.4046 15.5045
Au 35.8471 15.2851 35.6109
Pt 25.9055 34.8714 36.6616
Au 32.5972 24.8506 38.258
Pt 10.1435 23.6685 40.2815
Au 40.9139 16.1589 11.346
Pt 13.3984 18.6566 43.8927
Au 30.3973 21.6381 9.80759
Au 24.8404 15.1915 45.6586
Au 20.744 10.0035 12.7328
Au 2.66814 19.3972 34.6876
Pt 24.9905 15.4967 33.9425
Pt 6.64428 18.6752 23.5158
Pt 15.756 18.703 42.1615
Pt 9.13361 19.3437 40.3273
Pt 32.2049 18.9912 21.8895
Pt 23.8265 38.857 26.8313
Pt 20.0993 19.3654 30.4282
Au 20.7836 47.1411 25.298
Pt 22.4106 33.3871 30.2095
Au 28.0687 6.39684 22.1946
Pt 15.0809 27.0229 26.0352
Au 41.3084 27.6824 6.59346
Au 17.1956 37.1469 12.7501
Au 41.9085 20.6062 8.52157
Au 21.0808 24.3062 8.67967
Au 34.4953 21.7403 8.61262
Pt 6.68765 19.8619 29.1416
Pt 17.7959 25.9311 25.5749
Pt 25.3983 37.1261 21.4655
Au 35.1736 35.1504 10.3325
Au 36.8742 23.7792 46.8512
Au 35.0273 22.6349 21.8433
Au 13.6386 33.4234 10.6991
Au 15.9664 24.6698 4.94192
Pt 5.66369 12.2539 27.5224
Au 31.2993 11.7581 43.2979
Au 35.0901 25.0036 42.2651
Pt 32.5652 28.6502 20.0015
Pt 26.3442 28.7364 13.5398
Au 15.1876 44.6883 18.5508
Pt 13.2815 28.5678 21.9791
Au 33.5012 13.6197 36.1337
Pt 27.776 9.47353 30.393
Pt 10.9247 18.3078 28.8185
Au 29.4245 45.8104 35.1054
Au 34.5087 28.1999 44.8493
Au 16.2558 16.9459 46.3684
Pt 23.0934 26.3446 31.7419
Pt 36.1918 13.0169 31.7422
Pt 11.8475 17.294 36.1085
Pt 7.95951 14.8816 33.7071
Au 37.7999 19.8926 39.6225
Au 21.9866 48.052 29.8128
Au 39.0582 17.5166 33.0426
Pt 29.4923 20.9048 35.1554
Pt 12.7548 27.6149 17.1949
Pt 13.1871 28.313 30.2176
Pt 9.8227 33.2527 27.4561
Au 2.28166 18.7246 21.4332
Au 13.2133 31.0858 43.2013
Pt 11.409 23.2136 26.8662
Au 21.6603 13.971 26.9765
Pt 10.6388 27.1317 15.6815
Au 27.2693 3.63505 26.9417
Pt 31.8572 39.6179 31.3242
Au 5.53296 14.8587 20.3517
Pt 16.4106 30.5312 16.4258
Au 28.1751 17.4729 5.58414
Au 12.6884 6.84866 28.8035
Au 7.21621 17.806 16.8072
Au 23.3551 10.5569 45.212
Pt 14.2072 35.573 19.1948
Pt 35.4441 31.2823 25.1549
Au 21.1415 26.1573 47.2942
Pt 13.9789 38.1779 23.0233
Au 39.5994 26.9539 11.7005
Au 19.991 39.5121 8.35311
Au 22.2697 42.4931 11.804
Au 9.64299 39.8051 22.0987
Pt 29.9094 41.5955 16.5606
Pt 34.7965 38.3988 25.9706
Au 13.8176 12.1251 8.20243
Pt 25.5721 18.9529 30.8787
Pt 24.854 19.091 24.864
Au 6.86731 38.5573 19.5388
Pt 23.6466 10.9958 35.4066
Pt 8.89797 30.1237 30.7202
Au 14.5447 17.7011 48.3332
Au 25.3752 42.5155 36.5006
Au 28.3639 10.3046 39.8615
Pt 40.032 28.5835 31.7721
Pt 23.5415 46.5039 26.5784
Pt 9.09605 16.1589 29.6302
Pt 15.2379 33.8278 22.9234
Au 29.2463 4.16145 29.2368
Pt 11.2248 33.1201 34.6691
Au 33.2222 32.3221 15.9087
Pt 20.6429 40.974 13.6665
Au 5.39213 9.67272 25.897
Pt 28.5749 42.5486 23.6311
Pt 17.5987 18.2056 29.5463
Pt 13.144 18.9488 29.9857
Pt 24.3896 37.487 15.9502
Pt 3.86183 25.8875 28.2628
Pt 12.3786 34.2091 17.8638
Pt 28.3675 30.1311 14.4257
Au 5.44707 24.2778 10.9664
Au 28.2517 32.7013 10.6629
Au 14.8698 5.94111 30.2299
Pt 21.4381 21.8226 13.1549
Au 19.1878 43.8126 16.0827
Pt 27.9418 36.8939 22.0853
Pt 30.8934 16.7701 20.6703
Pt 14.196 39.3239 30.6229
Pt 18.2472 31.8831 29.8463
Pt 16.6233 39.8985 29.7061
Pt 25.9559 41.5759 14.2149
Pt 23.2665 23.1338 35.8976
Au 31.1624 41.7495 10.6653
Pt 26.1172 41.9174 28.1699
Pt 4.97215 19.6884 25.3944
Pt 19.1953 8.44608 21.7751
Pt 15.7659 24.8532 41.3649
Au 39.0837 45.462 25.739
Au 37.2433 40.3824 21.0339
Au 8.12274 30.8945 12.3067
Au 28.4028 7.53473 15.2423
Pt 17.8571 31.016 35.4982
Au 2.07939 14.611 29.1658
Pt 16.1204 41.0453 34.2943
Au 8.57277 32.6583 31.6101
Pt 33.9492 40.3932 29.538
Pt 28.9116 31.3472 30.7216
Pt 14.2116 12.1458 32.8147
Au 28.8724 34.4316 45.5252
Au 34.7526 7.21459 37.0526
Pt 28.233 39.7159 28.2784
Au 12.8803 36.3852 38.9089
Pt 32.9211 18.5637 29.7551
Pt 14.4151 16.015 10.7491
Pt 21.6029 37.1313 26.5262
Pt 7.30857 30.6403 25.0221
Pt 21.3302 25.7616 29.7167
Pt 19.1222 30.4561 19.0436
Pt 23.6866 40.2233 24.5907
Pt 27.2256 23.6643 21.0918
Pt 22.9076 24.8498 21.5581
Pt 24.6738 20.9172 35.6073
Au 35.347 30.9326 45.0677
Pt 3.63668 20.4767 32.2676
Pt 7.25757 24.5067 14.4266
Pt 34.087 11.0557 32.2672
Au 7.2537 8.92614 23.8995
Pt 24.366 17.662 22.4749
Au 1.68886 16.5454 31.1849
Pt 18.3219 33.5529 25.1732
Pt 22.8805 30.7975 31.3561
Pt 17.8748 23.4106 21.0726
Pt 23.3881 26.0279 24.0179
Au 18.3186 25.8875 6.09986
Pt 21.8412 8.74647 26.2387
Pt 18.1582 11.7582 38.6877
Pt 9.32418 24.9727 22.3451
Pt 14.8183 22.25 14.1175
Au 38.045 14.2413 20.2183
Pt 7.95086 22.8244 21.3823
Pt 14.6918 15.8143 18.5043
Au 18.4116 27.8689 44.1631
Au 24.9178 28.7297 48.9882
Pt 21.6241 26.4911 13.6895
Pt 14.2184 30.6503 26.2811
Pt 25.9811 8.10006 21.3909
Pt 12.405 22.7199 15.3947
Pt 18.0411 24.8245 23.2202
Pt 24.1427 22.172 11.5288
Pt 26.3133 16.2185 31.3844
Au 14.2183 9.56629 15.3761
Pt 8.89777 27.5961 28.8766
Au 14.4511 22.2056 5.77144
Pt 32.2714 18.8585 19.2207
Pt 16.9083 21.4022 12.7571
Au 5.25675 15.8253 17.4997
Pt 9.20244 19.6805 32.6512
Au 32.6166 12.702 40.8793
Pt 16.3828 19.6506 17.2547
Au 11.1884 30.8807 7.86875
Pt 23.6837 12.1641 25.3738
Pt 36.9347 10.4394 27.9473
Au 28.0413 43.1762 37.1825
Au 29.4471 21.9114 47.1227
Au 24.0368 18.8725 49.6853
Au 29.7848 13.4257 7.13452
Au 32.9746 31.5005 7.89782
Au 36.348 46.3493 23.0511
Au 9.87042 10.4326 27.6335
Au 13.9064 44.0298 16.1286
Pt 24.1421 6.68562 20.3593
Pt 15.5687 14.0469 42.93
Pt 24.6313 26.8699 39.4759
Pt 35.6054 9.3064 20.8068
Pt 33.4895 19.0091 37.9446
Au 0.824325 18.2903 26.8414
Pt 9.9906 22.9791 10.7647
Pt 8.85969 18.0392 22.0496
Pt 14.4269 24.683 15.4578
Pt 9.47761 25.1239 12.6217
Au 8.20187 16.1559 10.0967
Au 3.11143 28.39 31.1499
Pt 23.0009 37.8426 32.8074
Au 29.7357 29.661 8.08258
Pt 7.40892 21.7673 14.4074
Pt 30.4094 43.1519 28.4803
Au 31.5135 39.1552 9.00196
Pt 22.7637 7.61056 18.2595
Au 34.6229 29.3688 3.28329
Pt 14.6027 11.0395 17.5451
Au 24.9765 22.5371 3.9757
Au 31.2494 3.63535 27.6533
Pt 13.4695 16.6382 22.8488
Pt 28.7962 12.2068 15.7
Pt 21.8895 14.6325 20.2209
Au 46.3364 32.7322 33.0842
Pt 21.1277 25.8349 33.7602
Au 12.6335 10.3457 19.3545
Au 42.7987 38.6268 20.7624
Au 39.1382 25.3754 44.2658
Pt 28.8605 13.2953 43.688
Au 41.0534 39.7534 16.9084
Au 28.9273 37.4031 9.26009
Au 27.1161 10.0042 8.92746
Au 3.03385 21.8898 21.3715
Au 35.1321 20.9942 38.8062
Au 11.6707 34.7386 40.7393
Pt 9.97097 22.4171 13.3562
Au 24.9312 12.5064 46.4953
Pt 15.29 9.50512 19.6964
Au 38.2806 15.4719 12.0804
Pt 18.5955 20.9385 25.1822
Pt 37.4895 9.46698 25.6305
Pt 18.3431 9.41862 35.2121
Pt 28.2727 11.1425 22.7353
Pt 14.5212 18.2099 8.96506
Pt 11.6397 18.6088 21.8189
Pt 18.2658 33.6088 31.9389
Pt 12.9574 23.7052 24.5961
Pt 13.7749 32.9306 25.019
Pt 11.529 26.719 28.8759
Au 48.7621 25.4479 14.0244
Pt 15.8823 34.1489 25.8743
Pt 40.4378 23.6696 27.2041
Pt 38.8212 37.7474 36.2669
Pt 26.5775 44.0344 32.4188
Pt 23.7666 37.2115 24.555
Pt 19.7826 29.752 30.8674
Au 30.5722 31.4725 6.16214
Au 32.5883 6.33312 35.4606
Au 40.6747 9.32586 14.5286
Au 27.9936 22.6828 8.42421
Au 29.397 15.6307 8.76118
Au 34.5016 26.4553 13.0178
Pt 38.9389 25.791 35.2681
Pt 10.212 22.5451 23.2446
Pt 12.2423 11.6277 16.382
Pt 11.4489 18.5728 18.8546
Au 27.6001 28.3226 48.4055
Au 43.4037 21.7416 17.052
Pt 11.3209 30.1304 26.4122
Au 47.4876 19.327 16.7196
Pt 28.612 39.5594 22.5765
Au 35.136 28.4377 10.8845
Pt 23.4126 12.7155 28.807
Pt 13.2107 28.2699 42.5922
Pt 15.296 24.2267 22.385
Au 28.8026 27.3889 12.6532
Pt 24.6021 29.0817 30.1035
Pt 17.908 40.782 31.8937
Pt 16.8538 26.0265 21.008
Au 39.5174 36.1227 39.6602
Au 7.02156 27.8032 41.1084
Pt 12.7204 30.8441 38.5936
Au 26.4913 6.93236 31.3356
Pt 19.024 27.2188 23.0911
Pt 13.8384 30.0533 17.245
Au 3.17761 31.2318 24.1876
Pt 37.2454 35.2297 32.6132
Au 6.88158 25.9654 28.3161
Pt 14.5233 24.5751 12.7173
Au 14.9237 5.1444 26.2685
Au 10.8046 18.2393 42.5142
Au 43.9308 29.7823 24.2225
Au 29.763 17.7039 10.4742
Au 13.4778 41.0794 13.2276
Au 25.3367 7.79132 11.1791
Au 7.49261 12.2026 14.4455
Au 33.9754 42.6046 10.9962
Pt 7.50134 32.9381 26.3029
Au 12.8207 16.1321 8.27823
Au 24.6201 35.678 10.9255
Pt 10.9291 26.7613 23.7738
Pt 34.0805 39.2725 19.228
Pt 11.9266 36.2579 24.0321
Au 39.834 24.4011 23.2713
Au 16.4911 8.63949 14.2622
Au 35.0834 27.1967 8.22838
Au 26.2839 3.82807 35.2672
Au 46.218 34.1173 27.9012
Au 31.3633 26.1275 13.2352
Au 42.3411 25.489 7.69695
Au 40.071 24.1099 8.27089
Pt 22.2544 22.4647 22.746
Pt 27.3532 33.7204 25.3311
Au 15.817 10.6141 34.6264
Au 30.4916 7.1376 17.112
Pt 33.7106 30.7185 23.1986
Au 24.7739 22.9076 44.9364
Au 20.7551 18.9398 4.54892
Au 30.6637 48.1903 23.2989
Pt 24.6723 30.8183 22.2287
Au 11.5646 12.8263 36.3797
Au 19.9337 5.27926 32.8463
Au 26.1143 38.0234 41.9925
Pt 15.8738 24.4126 35.4135
Pt 5.38895 19.5085 34.2265
Au 40.8491 25.1962 41.962
Au 2.05276 22.077 33.9132
Pt 38.5052 22.2483 33.2653
Pt 16.6297 26.4013 30.0042
Pt 21.4169 33.6983 15.4318
Au 5.06143 25.7493 13.5107
Pt 28.7418 41.6256 26.6377
Au 23.3682 31.4156 5.80322
Au 9.68962 40.1466 30.596
Au 43.4385 17.5134 14.7857
Pt 19.7065 17.7293 13.9798
Au 20.1115 37.5793 6.16884
Au 15.3938 31.9142 12.1304
Au 21.2956 32.0031 7.67638
Pt 9.71085 30.5294 19.7245
Pt 23.7229 15.2372 31.4802
Pt 30.158 45.7003 28.193
Au 20.0194 45.7627 17.869
Au 46.8831 35.3618 25.6158
Pt 16.5721 35.1648 38.8504
Au 41.8865 17.1324 32.5023
Au 28.2184 24.3673 40.6353
Au 4.44316 28.9475 19.1206
Au 38.8089 8.06176 23.7027
Pt 19.297 11.1372 23.1595
Au 32.8406 27.9706 14.8111
Au 27.7783 12.5159 46.1649
Au 39.1844 32.0742 42.2485
Pt 14.4748 21.9253 35.1819
Au 47.894 29.697 22.0674
Au 33.2849 35.8917 12.2581
Pt 29.9103 34.2139 15.476
Pt 22.3364 33.582 27.4509
Au 46.7878 27.4209 34.4541
Pt 32.8528 37.4119 24.3764
Au 26.2199 29.579 46.3052
Au 39.3841 23.298 39.9921
Au 40.9613 16.0628 7.44548
Au 32.1736 6.41113 32.6852
Au 38.122 16.8739 40.0323
Pt 7.06741 26.463 33.8378
Pt 33.5727 20.9237 26.1242
Au 19.2103 22.867 44.4784
Pt 32.5446 32.429 32.1602
Pt 17.3594 37.5503 28.6613
Pt 27.8562 26.1911 30.8309
Pt 15.8946 14.2042 26.6427
Pt 28.454 8.91268 20.9024
Au 25.2476 46.8879 18.3757
Pt 5.34886 24.8614 35.1448
Au 3.11912 11.0808 26.4368
Au 3.93065 30.3262 29.1917
Pt 12.3821 25.8338 26.3074
Pt 22.3292 27.9918 25.3625
Au 10.0394 10.4672 35.797
Pt 12.7464 24.6683 40.0501
Au 2.20432 28.1237 28.5747
Pt 12.5015 26.0366 37.7023
Pt 31.3478 44.1906 21.6046
Pt 14.2843 23.4802 32.9819
Pt 17.0376 35.8978 23.7269
Au 36.9975 30.3994 4.34804
Au 20.7748 34.5816 6.82116
Au 37.1438 33.0966 4.99969
Au 39.507 40.6281 19.1436
Au 39.0515 26.7544 16.8516
Au 33.0519 28.4014 1.32076
Pt 6.7465 14.1083 25.7658
Pt 9.75932 34.4172 23.3781
Au 20.0342 34.9644 41.1345
Pt 33.1749 31.2424 18.6992
Au 48.9847 27.1427 16.2872
Au 24.2934 16.3564 7.0169
Au 40.2715 14.9914 33.3385
Au 31.4336 23.9884 47.1962
Au 28.2964 46.6691 29.9968
Pt 19.3111 23.6706 25.3591
Au 21.3506 40.6434 38.4348
Au 33.5642 19.0131 45.9318
Au 37.8658 24.909 41.7903
Pt 8.87096 17.7118 24.7493
Pt 13.4464 25.6759 42.5187
Au 35.4103 8.74019 14.1896
Pt 23.8093 15.89 13.6929
Au 32.9903 30.1097 43.4975
Pt 14.7833 34.4857 35.1888
Pt 8.3273 20.6812 11.9309
Au 23.2667 48.0208 24.3699
Pt 16.3361 33.0989 36.9546
Au 26.182 10.3703 11.4245
Pt 21.9624 28.4385 30.1116
Au 22.9069 19.7174 31.4655
Au 10.4918 42.1849 29.0684
Au 41.5158 19.8421 11.4455
Au 5.87213 32.008 17.5333
Pt 15.2764 14.7663 38.5062
Au 37.8916 10.8796 10.0144
Pt 10.2353 26.0527 39.1927
Au 30.793 36.4604 3.05329
Au 17.2747 5.43997 31.5184
Pt 26.8327 43.0667 25.5572
Au 44.7654 37.5657 19.2061
Pt 20.1483 37.4888 16.7385
Pt 13.5286 32.3979 30.6254
Au 14.3994 5.72828 21.5667
Au 18.4212 33.582 4.85138
Au 25.8264 22.4348 29.0069
Pt 20.417 17.9481 17.2135
Au 38.8934 8.21763 16.2257
Au 18.3298 38.6417 14.9287
Au 32.575 41.5779 13.0782
Au 36.9317 17.4842 7.583
Au 40.7639 8.47921 32.8321
Pt 2.88775 17.1953 28.5445
Au 25.5335 24.3703 39.8196
Pt 16.135 36.7202 26.3295
Au 10.2535 11.637 14.2824
Au 0.870689 20.6858 22.674
Au 41.5468 31.2101 41.1214
Pt 20.1069 13.3685 33.4643
Au 15.4138 45.8155 32.8056
Pt 18.5586 33.8453 19.7742
Pt 13.7014 16.3476 30.8538
Pt 12.0791 11.1679 34.1959
Pt 14.1206 23.5225 37.6435
Pt 10.1846 22.7755 29.3785
Pt 13.6378 20.934 32.3402
Au 21.7745 16.6957 5.87196
Pt 43.581 28.6486 28.0906
Au 11.3195 34.3374 9.62732
Au 20.2288 29.6228 8.02486
Pt 19.4221 29.5127 21.5273
Au 8.88271 14.2594 41.1449
Pt 24.7705 32.8334 31.4479
Au 1.69207 26.7152 32.9332
Au 34.9412 45.3897 34.7849
Au 27.1164 39.5566 7.27279
Pt 12.6035 22.1211 39.5486
Au 23.2689 44.0243 13.9625
Au 9.12136 32.7121 10.3223
Pt 16.7738 28.7987 39.0505
Au 6.76102 28.964 10.9763
Au 4.57872 9.9379 28.5358
Au 46.1636 34.7998 14.7701
Au 43.5579 24.787 18.6279
Pt 23.7914 26.6917 29.1377
Au 20.72 39.7348 35.7774
Au 32.8125 21.6584 46.8772
Pt 5.28632 23.9465 26.9815
Pt 34.4508 35.579 33.6904
Pt 13.5117 20.4286 10.0499
Au 12.5507 44.0184 29.6949
Pt 30.3364 26.121 34.4903
Au 26.5481 6.47948 16.8589
Pt 14.6526 26.6629 36.3057
Au 11.1979 37.1305 10.2009
Au 27.5087 8.72669 43.1917
Au 9.31807 33.4645 39.9315
Pt 32.0522 35.4901 20.5523
Pt 16.7128 26.9355 34.489
Pt 25.9446 30.1882 36.774
Pt 31.1385 39.5468 38.0218
Pt 8.78504 17.3636 36.7723
Pt 9.96553 31.1023 33.2638
Au 23.0302 40.2412 34.2728
Pt 12.721 22.911 18.1676
Au 10.9501 42.0292 20.7875
Pt 40.7492 36.6176 17.0408
Pt 24.0625 27.2718 13.0855
Pt 20.7711 41.5577 20.9005
Pt 13.8212 14.1679 28.8105
Pt 11.2424 36.1004 31.6196
Au 39.3668 39.6164 14.6535
Pt 25.9899 30.7472 15.7094
Au 9.49321 33.8185 36.7766
Pt 15.3314 27.9508 16.6257
Pt 14.4999 19.8869 15.3816
Pt 22.7126 37.7174 35.4302
Au 13.4796 16.8102 46.0562
Pt 22.645 40.941 17.4689
Au 21.6739 21.7645 43.4205
Pt 12.7044 18.9253 37.9222
Au 6.11045 16.2382 37.3822
Au 1.08184 24.6696 34.7934
Au 36.0469 20.336 4.45352
Au 27.4374 26.4898 38.9139
Au 26.6251 32.6145 41.5563
Pt 30.1595 40.7893 33.7413
Au 23.3639 23.5377 41.4518
Pt 15.9044 32.6419 39.7195
Pt 14.9049 15.4644 13.9138
Au 9.93486 15.532 43.3145
Au 37.9909 21.5359 45.582
Au 0.9437 26.3806 30.2909
Au 26.8011 49.0128 29.2419
Pt 13.8327 18.3294 32.4955
Pt 10.1747 19.031 16.4199
Pt 31.8372 33.2819 22.8517
Au 38.8787 16.2072 9.24281
Pt 11.9377 36.9464 19.0805
Pt 30.7426 24.6667 23.6104
Pt 23.9474 31.1974 34.0383
Pt 32.4685 34.9707 16.0014
Au 13.6896 19.5881 46.4629
Au 31.7113 4.73232 30.3483
Pt 32.3436 18.8941 24.6298
Pt 37.4561 10.5799 35.966
Au 17.5689 5.70035 26.1895
Au 10.0466 15.8166 7.90297
Pt 3.3029 25.4866 30.9006
Au 7.55561 23.2532 12.1209
Au 20.822 7.1845 14.0393
Pt 23.3235 11.0301 30.8974
Pt 15.6757 31.1912 29.5272
Pt 10.0207 21.6868 15.8476
Pt 11.1643 16.577 26.9684
Pt 14.362 30.6599 19.8838
Pt 9.3814 20.5484 9.56855
Pt 20.7451 27.9112 32.432
Pt 22.2061 17.9125 13.1031
Au 39.3088 8.32248 35.3751
Au 8.31134 15.7426 39.0087
Pt 17.8496 14.8235 32.7137
Pt 40.9133 18.1152 9.47689
Pt 26.3734 13.1043 19.4053
Pt 7.12139 29.9953 19.1763
Pt 34.0309 26.805 30.4637
Pt 16.9076 13.4636 14.1194
Pt 27.268 19.3272 35.4028
Pt 33.3533 7.57629 28.1262
Pt 28.3347 23.4646 31.3481
Pt 22.2685 16.5954 10.8367
Pt 28.2607 27.4886 33.1386
Au 39.5451 8.02662 30.3902
Pt 17.2828 21.783 18.5377
Pt 3.52101 22.0488 25.8519
Pt 26.6096 18.5818 13.6715
Au 42.8423 14.3327 28.2672
Pt 28.9916 8.73691 27.8138
Au 29.3942 4.94332 31.9454
Pt 14.4271 20.7722 37.9367
Pt 10.3615 21.3724 41.3888
Pt 14.9595 9.53278 26.7206
Au 11.148 28.3432 10.5573
Pt 26.5519 7.49755 28.6417
Au 39.6454 46.2232 33.1261
Pt 18.1446 19.6901 9.23622
Au 31.1469 23.5395 14.3018
Au 27.955 42.1282 11.5565
Pt 19.3877 22.2258 8.78136
Pt 16.6635 13.1628 28.9391
Pt 16.532 21.8659 36.8691
Au 28.9705 40.8731 5.58063
Au 13.3255 7.32196 26.1443
Au 37.9727 21.884 11.7457
Au 33.9769 11.5638 42.9989
Au 23.1888 47.2593 32.2605
Au 0.283529 16.5714 28.8168
Au 21.0323 26.4587 11.0107
Au 30.6136 31.6127 14.8469
Pt 23.8675 11.6093 13.0401
Pt 24.1186 17.5774 32.7294
Au 5.6661 23.6317 37.6629
Pt 25.7349 5.92782 26.4964
Au 45.5398 26.9949 36.9822
Au 47.7343 21.8628 21.3445
Au 31.4771 13.7663 38.2796
Au 33.9962 16.2533 37.5141
Pt 4.64086 26.8244 32.9703
Pt 14.1676 12.8659 35.3357
Pt 6.98456 17.0858 34.879
Pt 8.69281 11.161 23.0945
Au 13.88 11.2002 10.9298
Pt 18.1415 10.7917 12.98
Au 28.7273 15.9771 42.685
Pt 25.1334 24.3643 25.0191
Au 39.6416 18.4372 16.3941
Pt 31.1576 22.544 27.8749
Pt 14.8254 22.353 11.2981
Au 17.9247 6.72834 34.0179
Au 22.8831 5.45077 22.5006
Au 7.49027 9.89994 21.093
Pt 19.4847 25.326 31.5334
Pt 12.5677 23.9196 10.7756
Au 42.8515 22.1033 19.8054
Pt 25.6103 19.8328 37.7446
Au 30.4366 29.2402 10.692
Pt 26.132 37.3808 25.8215
Pt 11.4218 38.8455 16.8279
Pt 29.7198 9.7895 16.5428
Au 27.2166 23.1195 2.65453
Pt 9.85646 24.4124 15.2004
Au 16.1168 42.625 20.2416
Au 40.0319 22.6502 4.65931
Au 31.1678 20.8403 49.0281
Au 23.7943 26.1259 10.5795
Au 35.7415 16.8785 12.5838
Au 7.15444 14.8589 13.3846
Au 16.9201 31.357 4.42472
Pt 10.2872 27.8478 31.2203
Pt 23.5528 12.9254 17.1825
Pt 24.5916 10.5126 27.3035
Pt 25.2507 9.45106 29.6791
Pt 31.9836 40.4435 17.8869
Au 11.1883 19.8194 44.929
Au 36.6988 30.5991 18.5188
Pt 22.7293 16.5987 35.7661
Pt 35.0103 22.2764 42.7721
Pt 9.54948 10.5575 33.1041
Au 43.4396 38.1455 34.0146
Au 46.0596 31.0599 10.8714
Au 16.5888 23.256 7.2178
Au 25.6114 18.6911 42.2266
Pt 21.9954 21.3526 29.3329
Au 24.6147 7.54266 38.9373
Au 28.0094 25.0577 6.86366
Pt 33.3926 29.5707 32.8573
Au 40.4821 29.6493 43.0013
Pt 11.8333 38.7653 31.4513
Pt 13.7738 37.25 17.1294
Au 19.1778 13.9775 6.76498
Pt 10.9888 14.8925 24.9199
Au 31.1569 11.7509 14.7402
Au 48.4305 26.2784 18.8281
Pt 34.7759 11.53 22.0986
Pt 16.2517 38.0237 21.6591
Pt 9.16168 20.5283 28.2802
Au 18.4727 31.1609 9.6688
Pt 10.3629 21.0483 18.4098
Pt 14.4076 17.2691 34.81
Pt 15.6267 19.6044 25.5543
Au 36.6292 10.6245 33.1344
Au 47.6519 31.655 20.2722
Au 42.1817 9.43415 27.5849
Au 32.1991 5.36139 25.7237
Au 28.23 27.8803 9.73799
Pt 13.6871 26.2558 23.725
Au 32.4959 22.9329 6.90572
Au 43.6915 26.8208 23.8634
Au 34.2502 17.8763 17.6789
Au 38.3103 22.1059 17.4996
Au 22.3838 40.8045 9.53686
Pt 19.973 8.64327 33.2555
Pt 8.82779 28.0891 19.9743
Pt 20.5557 19.1582 33.2309
Au 35.0092 32.5108 9.70859
Au 40.1027 20.3909 43.8756
Au 32.9594 13.7494 44.3934
Au 35.8565 12.5307 11.2861
Au 39.9741 29.3502 10.1712
Pt 11.6415 25.0215 33.1687
Pt 30.238 7.36912 36.9072
Pt 18.5565 33.4577 39.3174
Pt 9.64611 25.0378 27.9434
Pt 11.9887 24.5772 22.3458