3871
Atoms. Timestep: 22075
Au 7.31259 19.6622 16.8874
Pt 30.1517 12.4593 22.132
Pt 18.0859 9.00518 35.0983
Pt 20.7952 16.8683 41.8983
Pt 12.4265 15.2394 20.8981
Pt 19.7574 7.34376 30.4948
Au 26.3927 1.54909 24.044
Pt 13.4497 14.0213 32.8478
Pt 17.4587 7.80635 29.015
Pt 22.1301 14.3966 45.8631
Au 2.42633 29.0284 26.1876
Pt 14.228 22.9125 27.3791
Au 4.27005 16.1245 25.5272
Pt 17.3281 16.2329 32.0491
Pt 15.1783 12.7433 24.8752
Pt 19.1883 11.5814 27.0876
Pt 18.6863 12.2778 38.2527
Au 4.16444 24.3827 39.3034
Pt 12.3653 9.36174 20.2346
Au 4.52869 16.049 31.5641
Pt 11.2237 17.9321 22.9638
Au 2.62528 23.8704 34.0291
Pt 18.6798 14.2709 16.1181
Au 4.84506 13.5201 32.6011
Pt 12.2177 21.2805 24.6008
Au 3.89763 15.8754 28.6709
Pt 6.84763 21.4648 22.1476
Pt 19.1187 5.61339 22.4862
Pt 8.14686 24.1608 16.3197
Pt 20.1345 11.6933 15.6063
Pt 7.19228 22.0293 29.9879
Au 31.693 5.57755 13.4059
Pt 4.99664 23.8838 30.0063
Pt 13.4854 12.8977 16.4162
Pt 5.04451 27.0508 18.3959
Au 3.4611 20.7322 35.9202
Pt 17.8183 13.8756 27.9032
Au 11.9271 10.4383 36.5184
Pt 9.46623 14.9119 24.4636
Au 8.81151 9.19635 28.3223
Pt 13.445 21.1732 31.7657
Pt 16.1495 32.9947 13.9623
Pt 13.3475 21.9878 12.9664
Au 3.1762 31.6304 25.2157
Pt 25.5626 10.4006 43.2892
Pt 6.76183 25.9649 30.7037
Pt 13.0963 15.7084 34.9976
Au 4.7995 33.4015 21.68
Pt 10.0607 15.5639 19.1914
Au 3.47663 18.3437 27.4068
Pt 16.7173 16.9383 7.74871
Pt 12.2479 13.5639 18.8095
Pt 17.3756 18.0638 14.6162
Au 2.00005 23.7192 26.4645
Pt 10.7112 17.7407 30.3467
Pt 13.0587 37.2786 31.4753
Pt 15.041 18.0784 38.1067
Au 8.44733 32.0763 10.199
Au 19.6922 32.4968 3.84187
Pt 12.5057 24.5887 12.8856
Au 6.69569 11.9129 28.5374
Pt 5.02391 20.8714 29.0219
Pt 7.60492 26.2602 22.0096
Pt 8.07619 18.4661 26.3424
Pt 13.8683 20.9314 17.4589
Pt 10.7495 22.195 31.4913
Pt 12.0371 15.7651 24.1664
Au 12.4021 5.63667 21.8898
Au 3.85632 29.6679 30.7751
Pt 12.2207 23.1088 33.5671
Au 19.4424 22.0773 36.2424
Pt 8.22293 20.9664 35.1984
Pt 11.1953 23.0943 21.6976
Pt 13.6244 16.8587 41.9937
Au 2.84773 21.1133 33.3117
Au 12.3533 7.67414 36.8921
Au 12.6743 6.31589 26.6299
Pt 12.8847 19.6117 37.2932
Pt 8.27881 22.4315 37.3663
Au 11.8642 14.986 43.0357
Au 4.91269 13.5902 29.9317
Pt 17.0334 30.7662 6.55194
Au 8.66836 21.4197 12.4389
Pt 17.3664 23.2098 4.51555
Pt 15.8991 32.9216 16.7641
Pt 5.68226 19.7899 26.5456
Pt 30.5623 11.7625 19.1707
Au 5.29016 36.5878 23.2563
Pt 16.113 15.673 13.8837
Au 6.01094 13.2227 21.7822
Pt 14.9359 6.98663 27.8701
Pt 11.3975 10.8597 26.5335
Pt 17.7649 13.7095 13.6709
Pt 9.3948 31.4103 31.3347
Au 8.52595 15.8416 40.1393
Pt 12.1811 20.809 27.2764
Pt 7.80879 31.8898 26.1176
Pt 7.20724 19.2114 28.842
Pt 8.75137 27.4834 38.3299
Pt 10.9107 25.741 39.5232
Pt 7.06529 26.0143 33.4812
Au 30.0531 22.6672 31.1523
Pt 11.3853 26.6033 27.6092
Pt 12.6525 13.4827 25.5679
Pt 6.85896 30.3421 31.68
Pt 9.33401 21.2088 39.4471
Pt 14.3347 20.627 29.0204
Pt 11.4913 26.6862 33.5965
Au 3.32963 28.6284 36.3218
Pt 8.3373 17.095 37.5714
Au 26.3395 16.9952 29.2721
Pt 9.20179 30.264 40.0448
Au 6.45291 38.8199 24.5716
Au 14.1709 18.8901 44.1825
Pt 8.46367 25.5897 40.4502
Pt 11.0362 26.9771 36.9125
Pt 16.0657 11.3793 38.799
Pt 9.57087 12.834 32.1755
Pt 16.7829 29.8401 37.8786
Au 25.568 36.3525 45.8466
Au 5.65988 13.7814 24.5469
Pt 9.62362 23.9969 33.2886
Pt 12.7265 31.062 12.121
Pt 13.7547 33.7043 15.3801
Pt 13.1541 9.30303 22.6503
Pt 11.7333 21.6186 19.4784
Au 3.64215 29.312 18.0374
Au 6.3763 31.7863 14.587
Au 7.87282 21.2946 41.766
Pt 4.63077 28.9702 27.8246
Pt 14.9913 31.9421 19.1809
Pt 6.46159 24.962 25.999
Pt 9.97867 12.0642 24.6805
Pt 5.29452 26.4113 20.8542
Pt 7.09819 36.1163 27.6791
Pt 6.40964 26.8552 27.7428
Pt 5.91359 23.7205 37.2197
Pt 6.5131 31.0867 21.7603
Pt 8.23387 30.9635 28.9166
Pt 6.83984 32.4106 33.5838
Au 4.26217 31.3468 19.8491
Pt 10.1837 23.2327 35.7077
Pt 5.33935 31.6183 26.8293
Pt 10.5781 20.8462 36.8762
Au 5.48705 24.4806 15.4274
Au 6.40323 20.5542 39.5891
Pt 16.0534 16.5961 43.2708
Pt 11.0503 34.4638 23.2906
Pt 7.86144 15.8999 35.0209
Au 4.12182 34.1954 24.2604
Au 6.87501 35.9544 35.2575
Pt 12.7411 16.9694 37.2029
Au 16.1277 17.6261 45.8051
Pt 7.32056 29.9705 38.3143
Pt 12.1144 27.6198 42.0739
Pt 12.0177 18.2696 34.8778
Pt 13.0625 30.294 31.23
Pt 14.4958 23.4827 42.5567
Pt 8.8875 28.752 30.5779
Pt 9.82066 29.6863 37.3727
Pt 7.15385 32.9152 30.8556
Pt 24.669 13.2748 37.6327
Pt 17.2479 39.3542 12.3342
Au 8.67069 23.2665 10.4127
Au 13.1115 44.3934 31.6572
Pt 16.3576 17.9056 12.1334
Pt 6.34993 24.7525 18.2774
Au 4.93716 19.0481 37.6392
Pt 11.1196 17.8087 20.3207
Pt 7.80342 22.7317 24.9726
Au 7.41762 37.9897 22.1594
Pt 15.511 26.7923 20.5794
Pt 9.1401 31.3976 20.772
Pt 8.82268 38.1074 26.744
Au 6.19607 11.4354 31.5884
Au 2.8689 20.4568 30.4784
Au 3.6406 33.8576 26.9287
Pt 16.665 6.53324 23.2269
Pt 4.93581 21.7831 31.7305
Au 4.9721 20.2227 17.8904
Pt 6.02967 21.1862 36.5314
Au 15.4239 38.4528 43.5692
Pt 4.85967 26.1804 23.4718
Pt 18.9057 15.3846 42.776
Pt 11.1143 25.7853 25.0976
Pt 21.8569 36.3883 29.2192
Pt 5.38332 27.619 34.8854
Pt 16.0281 9.72682 33.5306
Au 4.75645 18.2241 29.8342
Pt 8.7269 26.4502 29.017
Au 2.60044 23.168 31.4498
Pt 10.6962 15.9965 38.5842
Pt 13.293 27.4761 31.6302
Pt 11.1344 33.8959 28.9047
Pt 6.47429 25.7603 38.7911
Au 5.3525 28.4682 41.9635
Pt 18.9916 26.8586 43.0756
Pt 17.7704 20.3732 41.0529
Pt 11.0081 27.7359 15.6524
Pt 6.89143 31.4699 19.0529
Pt 10.5569 23.4547 24.3201
Pt 9.72447 35.7363 34.5455
Pt 11.0786 28.4171 18.2985
Pt 16.978 27.8644 12.5279
Pt 11.7003 34.1678 26.1132
Pt 13.3817 29.718 19.1439
Pt 8.73221 28.385 16.6083
Pt 6.76799 34.3594 23.3612
Au 2.85179 22.7198 28.8074
Au 3.54056 25.3926 17.0137
Au 8.02681 19.4819 14.1325
Pt 9.63296 18.5371 35.7102
Pt 7.52118 36.4153 25.0138
Au 13.0655 37.9552 10.5438
Au 4.22287 25.3816 32.2016
Pt 12.5391 24.9777 41.4709
Pt 7.32106 35.555 30.2823
Pt 14.2918 34.6217 40.522
Au 26.57 29.3606 47.1731
Pt 11.6143 31.3173 33.3571
Pt 15.7017 36.8102 21.7697
Pt 11.7864 33.9904 34.8597
Pt 13.4054 33.8118 18.1451
Pt 13.8284 25.4545 33.4872
Pt 20.95 28.5002 43.7525
Pt 15.0962 13.572 34.7321
Pt 9.55538 20.543 18.4222
Au 7.97925 39.1439 31.5807
Au 18.3819 42.8779 16.8553
Pt 8.32617 33.6335 28.3672
Pt 16.4092 15.0692 29.741
Au 4.99282 30.6676 36.7554
Pt 6.92877 26.5644 16.4887
Pt 8.66699 32.4642 23.2289
Au 9.59475 41.4374 23.7824
Pt 11.685 27.8321 22.6719
Au 19.1619 27.5012 45.7744
Pt 17.0334 30.6322 12.9938
Au 5.50677 31.2156 29.3826
Au 16.2531 36.4196 41.6025
Pt 7.50313 29.9899 24.0924
Pt 16.3626 36.2143 34.4513
Au 10.6699 41.8188 21.1007
Pt 12.9064 35.1889 38.1728
Pt 10.912 33.6518 39.4122
Pt 18.254 40.4851 21.1075
Pt 13.1203 35.8388 13.4622
Au 3.01233 28.2881 23.5894
Pt 17.9809 27.8079 9.40576
Pt 7.16177 29.3754 27.002
Pt 29.616 42.7381 27.271
Pt 13.3352 38.5182 28.5391
Au 11.5442 42.2601 32.4751
Pt 15.0611 33.4642 38.2262
Pt 18.4571 33.3852 15.3689
Au 28.1952 49.4715 31.5022
Pt 13.4736 35.3492 10.8436
Au 3.81473 24.4662 19.6211
Pt 16.6649 36.9009 19.1202
Pt 25.5562 46.9133 22.903
Pt 18.068 36.6395 23.7496
Pt 18.0867 5.32706 30.154
Pt 16.7718 9.22981 17.1983
Pt 8.84337 21.64 15.8981
Pt 14.7476 15.4536 24.9988
Au 12.9703 5.80927 29.4271
Pt 17.9714 10.4379 29.2122
Au 19.3725 2.94598 23.9209
Pt 23.2666 5.20833 25.8974
Pt 9.26509 11.7292 27.7113
Au 3.14484 21.0308 26.7465
Pt 16.0103 19.6927 16.0978
Pt 13.2537 8.85083 25.3801
Au 17.2512 3.55562 22.3694
Pt 20.983 12.2911 31.5907
Pt 28.3431 12.6663 20.1426
Pt 7.52999 13.4847 30.6282
Pt 12.2608 16.3226 18.0483
Au 16.4913 9.76105 11.8971
Au 10.8148 7.87198 21.8127
Pt 19.3135 5.49163 19.8733
Pt 11.3195 24.8817 19.7661
Pt 8.23575 14.3726 28.215
Pt 11.7793 31.4865 14.5916
Au 20.2733 23.1178 38.7119
Pt 13.863 16.0617 29.0029
Au 28.0026 16.8419 24.0023
Pt 14.6639 18.2965 35.5332
Pt 11.1475 24.4718 10.1598
Au 31.5278 22.4437 22.6869
Au 23.5887 19.1698 32.3473
Au 21.5528 19.3008 27.3346
Pt 12.2953 15.0221 40.4035
Pt 10.2213 13.1794 29.6452
Pt 13.23 9.74284 32.4081
Au 12.7357 4.62534 24.4327
Pt 5.3105 22.7078 27.1575
Au 28.5886 2.38007 29.0664
Pt 14.6183 18.3797 27.6339
Au 17.2136 20.3041 28.9149
Au 9.17972 13.1296 18.0151
Pt 14.988 37.5685 12.6123
Au 8.40346 10.6063 33.2088
Au 8.89395 35.251 13.4802
Au 20.0728 6.47993 12.2157
Au 6.32929 26.4061 13.7599
Au 8.10984 11.5967 20.5815
Pt 17.7896 4.95672 24.8593
Pt 8.94573 26.188 14.735
Au 13.2517 25.2856 22.1099
Pt 25.9735 13.1047 21.6214
Au 23.6737 24.2076 11.1703
Pt 8.6023 13.2616 22.6836
Pt 15.8144 8.87273 22.4194
Au 14.8192 4.55484 22.7189
Pt 12.7046 11.9108 21.1731
Au 16.725 13.6512 22.723
Pt 8.92115 27.1491 26.4284
Au 16.3376 17.8371 29.8456
Au 18.6424 22.0687 24.8384
Pt 9.89916 21.6407 26.1461
Au 24.0128 12.8011 46.9796
Au 22.762 24.6928 30.5609
Au 18.4017 21.729 31.1397
Pt 13.8217 17.3639 19.8518
Pt 10.9871 15.6704 28.5747
Pt 11.6552 24.8531 31.6526
Au 20.304 30.3133 39.4061
Pt 9.80008 33.2184 33.2818
Pt 23.2631 11.2316 39.0864
Au 7.80453 16.9679 12.9789
Au 6.55565 14.67 38.7223
Pt 14.6469 15.8566 39.5577
Pt 15.1988 21.9191 15.0088
Au 2.32384 25.3595 29.7288
Pt 5.89712 29.117 19.9955
Pt 12.1288 35.6281 16.2155
Pt 9.92841 19.1406 16.1602
Au 8.58633 10.8968 30.3853
Pt 9.5592 21.2819 23.2208
Au 4.14536 20.4791 22.3954
Au 18.6826 18.5207 31.5329
Au 12.8734 30.2514 23.8911
Pt 7.89277 14.4932 20.3714
Pt 4.19082 24.0682 25.0935
Pt 12.9679 23.2532 15.2448
Au 11.7201 20.3334 21.9686
Au 13.8554 17.1065 22.671
Au 24.5998 18.1351 21.2441
Au 19.5854 26.8235 16.0122
Au 19.2014 16.1961 14.2117
Au 22.9713 23.6472 17.2896
Au 15.402 27.6407 28.9808
Pt 4.26012 25.0542 27.7367
Au 13.8697 28.4297 26.7487
Pt 7.61981 21.4533 27.3546
Au 26.4488 30.8153 31.9018
Pt 10.4721 11.0174 22.0465
Au 26.1975 31.1927 29.1804
Au 21.1627 22.4697 21.0108
Pt 8.68604 16.9555 28.4162
Au 20.5446 13.8273 28.1151
Au 21.4986 32.0199 31.9487
Au 25.4749 25.4152 21.1928
Pt 11.9314 20.8313 39.5031
Pt 9.23081 13.293 35.0374
Au 17.0215 34.8289 45.7008
Pt 15.7578 29.2386 40.1963
Au 4.77953 29.8085 39.4275
Pt 25.3733 3.56852 25.7682
Pt 21.1031 14.7972 37.5174
Au 13.9805 10.4686 40.73
Au 7.71154 12.8836 25.9087
Pt 15.7335 36.7941 10.2009
Pt 8.57899 23.6399 22.3396
Pt 19.1284 29.0367 6.87986
Pt 13.2108 31.45 16.9702
Au 11.1472 8.93572 17.8926
Au 21.8598 4.21109 27.8348
Au 28.4486 30.0161 16.7194
Pt 12.0393 18.1472 28.0309
Au 21.18 27.1928 13.6646
Pt 22.6135 32.5167 9.69103
Au 28.0041 19.1668 28.9316
Au 3.89155 30.8131 22.641
Au 25.1886 37.4596 26.1174
Pt 10.5026 31.731 35.7745
Pt 4.47084 26.9064 29.7148
Au 23.7772 23.0734 25.2802
Pt 11.1161 30.9042 29.4308
Au 38.2653 30.6185 28.5295
Pt 5.02264 24.9859 34.8429
Au 13.5073 27.1285 35.6085
Au 22.2899 28.1166 11.281
Au 15.6463 26.016 31.2889
Pt 8.11156 28.3438 33.1927
Au 21.609 26.8145 36.2653
Pt 9.67087 27.8275 41.0545
Au 19.4734 29.7984 31.9142
Pt 15.167 15.3257 36.9114
Au 24.0016 31.5297 30.7153
Au 18.1798 26.4972 29.4631
Pt 8.75519 14.6195 37.3519
Au 25.7972 20.6588 27.8143
Au 30.4508 25.5432 27.1925
Pt 11.9991 14.9457 30.8113
Pt 12.1325 24.835 35.6892
Pt 8.75684 24.0187 30.763
Pt 21.9857 26.0781 43.2252
Au 12.22 26.552 44.5306
Au 9.96801 13.4377 39.7556
Pt 12.3396 29.6203 36.6151
Au 5.46438 22.7494 41.0528
Pt 17.2021 16.6813 39.034
Pt 19.7986 22.7648 45.555
Pt 12.4979 26.2703 17.6228
Pt 14.2583 35.7189 19.7218
Au 7.58028 23.7749 13.6197
Pt 12.7289 27.2955 20.1439
Pt 14.8349 24.5328 16.8315
Pt 9.09733 32.6264 14.9821
Au 7.67048 30.508 12.4451
Pt 7.14594 19.9747 19.7616
Au 23.4836 14.3212 20.9371
Pt 12.006 37.1182 20.3636
Au 6.24913 17.6185 18.4243
Pt 19.1068 38.5555 18.9899
Au 17.7878 19.7501 36.1234
Au 23.3266 29.6559 9.1443
Au 18.8572 27.8627 27.1714
Pt 4.30637 27.0036 25.9367
Au 24.245 34.1063 39.3114
Pt 12.5905 28.6419 29.1241
Au 25.5236 33.9954 30.5841
Pt 13.9009 11.3605 26.8762
Au 28.6083 28.896 37.676
Au 21.1741 30.2962 34.0457
Pt 24.654 41.4261 21.0599
Au 16.0176 29.2876 19.7013
Au 31.5416 23.6835 33.3451
Au 34.7566 24.5072 37.3462
Au 16.6497 29.6924 26.9719
Au 25.4333 19.8392 30.4161
Au 17.9612 27.5211 32.1922
Au 26.201 18.8453 34.4763
Pt 10.9064 23.2761 38.3572
Au 30.6662 16.9086 35.738
Pt 30.1053 20.9471 46.7651
Au 7.83292 12.1995 37.7331
Pt 15.5354 18.3081 40.8712
Au 21.4058 32.9898 34.7794
Au 4.25013 18.2182 35.0555
Au 6.3423 17.4622 39.3144
Au 10.0467 28.1629 43.7924
Pt 16.0096 22.4922 40.535
Pt 22.0106 31.8972 45.5465
Pt 12.8254 19.3528 41.7512
Pt 19.3845 10.6297 10.9456
Pt 8.66497 24.7305 19.8497
Pt 10.7382 24.5904 29.1697
Pt 13.4857 27.6601 8.31158
Au 4.47477 36.098 28.6016
Pt 6.31128 29.1624 17.4232
Au 17.0422 37.7628 31.2147
Pt 21.1095 30.9563 8.08237
Au 16.5553 16.4694 27.2998
Au 18.5588 20.6968 4.04941
Au 22.5599 19.1307 23.49
Au 14.8114 21.0433 10.6514
Au 28.8786 22.6197 5.48285
Pt 11.8503 32.7263 31.1802
Pt 8.46096 25.3295 24.4044
Pt 11.4119 28.3438 25.4227
Au 23.4184 38.1252 17.0912
Au 4.62053 32.2113 31.865
Au 19.7755 28.4764 22.6643
Au 17.6787 20.3784 11.0927
Au 3.9486 26.0642 37.0866
Pt 5.80622 33.7908 28.6271
Au 31.9759 26.4411 31.2245
Au 17.5069 30.141 34.0638
Pt 13.062 35.6018 27.928
Pt 20.8339 41.6187 30.6653
Au 20.8664 33.6305 23.0297
Pt 9.72351 35.66 27.557
Au 21.1094 24.2115 35.7855
Pt 16.773 34.592 36.4453
Pt 11.5106 35.2186 32.3891
Au 36.7313 12.8985 38.5382
Au 8.22891 33.3364 40.2833
Au 22.725 38.9356 44.3554
Pt 7.58217 31.2569 36.0683
Pt 16.6519 27.4672 41.9581
Pt 17.2754 19.2298 38.7368
Pt 15.3691 20.7042 37.0332
Au 23.8584 33.9354 46.5889
Au 7.71182 23.9281 42.4613
Au 16.1114 20.533 45.6817
Pt 24.0296 24.2735 42.3978
Pt 11.2059 26.3253 8.25288
Pt 12.6953 28.9909 13.9989
Pt 11.8839 19.1148 18.1471
Au 7.5629 25.6697 11.2993
Au 3.80434 23.526 22.2769
Pt 7.57714 27.1631 19.1896
Au 10.5057 33.3499 8.63057
Pt 15.3819 30.0765 17.1534
Au 3.38845 28.7104 20.8304
Pt 11.2286 36.5082 29.7178
Au 15.2736 34.2436 9.11171
Pt 10.2537 36.3752 25.0338
Au 22.2045 27.9746 23.7774
Au 3.40546 33.2191 29.5875
Au 8.5278 9.96223 25.6379
Au 16.0051 43.6827 35.7381
Pt 11.7066 39.9106 23.3132
Pt 13.9512 25.0459 19.4614
Au 7.65592 26.7673 42.8287
Pt 12.6606 22.7723 29.5153
Au 29.5256 34.1826 14.3398
Au 2.24409 28.3305 28.9683
Au 10.0493 41.799 27.7427
Au 12.9282 34.5019 42.9108
Pt 9.27577 26.3468 32.0367
Pt 15.1606 38.2098 33.0945
Au 7.51415 34.7207 37.8175
Pt 14.2731 34.3004 35.7229
Pt 21.5257 46.2747 24.0129
Au 8.38946 38.1055 34.2467
Pt 15.2638 23.2081 38.0714
Pt 18.5633 39.5159 37.9137
Au 10.1663 25.4814 42.7563
Au 17.9393 22.0736 47.3143
Au 14.6103 27.6818 45.2457
Pt 28.3344 42.4318 34.9894
Pt 10.8528 20.3353 13.8226
Pt 14.3013 26.8075 12.7943
Pt 5.67474 28.5616 22.5987
Au 12.6319 9.16857 15.6724
Pt 20.6915 17.6705 10.0954
Au 16.6638 26.1977 15.6255
Pt 5.82422 32.0503 24.1823
Au 16.4705 33.491 33.6885
Pt 11.2221 33.1446 16.7026
Pt 23.7489 43.6795 19.4716
Pt 12.763 39.7321 32.7229
Pt 11.5428 31.858 19.2159
Pt 6.32595 34.1085 26.0387
Pt 13.1397 38.7816 25.366
Pt 15.8685 44.0715 28.43
Au 6.39924 35.811 20.8592
Au 18.9263 30.3685 36.4594
Au 8.55265 9.37753 22.7369
Pt 12.0937 30.4525 26.948
Au 8.08521 40.5715 25.9956
Pt 9.53084 34.2416 30.8305
Pt 14.8872 11.7665 32.1657
Pt 26.6557 46.4305 28.6979
Pt 20.9736 31.6966 42.8229
Pt 10.5951 39.3149 28.5598
Pt 7.88985 28.5412 35.8467
Pt 9.03714 24.9677 37.5951
Au 17.071 47.1675 32.3751
Pt 9.19288 27.7337 23.7501
Pt 7.17907 24.2142 28.485
Pt 19.3057 17.089 7.6044
Pt 15.4787 28.5216 14.8184
Au 11.4595 35.7986 9.22503
Au 10.9637 36.5206 11.8749
Au 10.6324 37.0861 14.5648
Au 22.4657 25.8854 15.7184
Pt 11.0126 35.1172 18.6578
Au 11.0925 43.6766 22.9297
Pt 10.4315 28.79 34.8774
Au 13.2567 42.1515 22.2328
Pt 27.992 40.4312 23.6533
Pt 20.2042 46.0237 21.5087
Pt 9.15149 32.7528 18.3043
Au 15.5769 29.1377 31.2519
Au 5.73994 33.4261 36.0974
Pt 13.3553 34.7431 30.4136
Au 9.59857 41.1968 30.6058
Pt 17.0686 22.0342 43.1388
Pt 8.99331 34.0862 25.3177
Pt 18.0218 42.842 30.022
Pt 25.8113 45.7928 26.3321
Pt 18.6877 41.6578 23.4355
Pt 15.7311 34.7887 11.9922
Pt 12.0071 36.48 36.0094
Pt 23.8346 47.0945 25.0432
Pt 21.62 4.88066 21.8589
Pt 16.811 5.74504 32.5954
Au 7.07341 11.3988 23.6518
Pt 9.38752 15.4043 30.8857
Pt 17.326 5.84203 18.0979
Pt 20.7805 7.48342 20.735
Au 37.3319 7.13589 13.8079
Pt 11.2053 10.6404 29.2463
Au 25.9448 8.08901 9.21701
Pt 16.0563 7.55732 25.6109
Pt 24.1872 7.53057 26.8936
Pt 7.20514 15.4576 32.3978
Pt 29.1414 12.1021 24.6764
Au 32.0241 4.40203 16.0107
Pt 22.6215 6.68171 23.5654
Pt 13.6331 8.30528 30.1977
Pt 8.09725 21.8223 32.6097
Pt 15.3836 16.1312 33.9992
Au 14.0571 8.64907 18.0145
Pt 26.6199 10.7469 20.2894
Pt 17.6383 11.3235 31.8117
Au 5.08549 15.5881 34.2982
Au 10.7107 17.2206 41.2557
Pt 12.2931 16.8355 32.5738
Pt 17.0805 14.6368 18.3261
Pt 33.8177 16.0014 17.6969
Pt 27.6501 6.19039 16.0098
Pt 7.26455 13.1966 33.4629
Pt 31.5266 7.71026 26.8503
Pt 16.7336 5.71275 20.7576
Au 11.5916 16.461 11.0193
Pt 17.0606 9.29968 14.4699
Au 16.1143 18.3802 21.3107
Pt 27.6141 4.52629 20.6201
Pt 19.9239 5.80305 17.2343
Au 22.5055 2.79397 20.083
Pt 22.4672 5.96584 16.3336
Au 34.7456 16.3262 22.6252
Pt 10.7256 11.2686 19.218
Au 11.601 28.3178 39.1881
Pt 6.46164 19.7669 31.3327
Pt 31.2254 9.52542 17.9327
Au 20.7239 25.7196 28.3848
Au 27.2567 22.4245 37.6923
Au 16.223 22.7727 32.778
Au 22.5565 15.1661 32.8681
Au 19.0025 16.2034 29.5737
Au 11.0835 11.3167 33.8499
Au 6.97102 15.6312 22.969
Au 6.80396 11.3554 35.2687
Pt 17.9471 9.64418 37.8373
Pt 10.5345 15.8791 35.838
Pt 7.04795 26.0232 36.2536
Pt 20.9832 10.6391 44.0947
Pt 13.5302 18.4048 30.3587
Au 9.89688 10.7104 38.6787
Pt 15.6359 16.2563 10.1727
Pt 13.2025 32.7375 9.87692
Pt 13.4479 19.9246 8.67919
Pt 13.1227 26.0056 10.4333
Au 3.63534 19.1765 24.7896
Au 14.6211 6.09423 17.7268
Pt 13.2203 28.7697 16.5878
Au 5.51637 33.7744 18.9421
Pt 17.3477 12.2989 11.1319
Pt 21.101 11.2785 13.0261
Au 24.7852 13.9104 4.98574
Pt 19.6855 9.84978 31.2291
Au 30.7174 27.349 20.0894
Pt 15.4916 10.0756 24.8955
Au 29.0407 38.3857 21.8485
Au 26.8182 17.8295 19.4587
Pt 14.296 13.2073 39.8631
Pt 9.00415 18.0335 18.5538
Pt 14.8563 10.6181 15.9181
Au 27.257 22.0189 15.5408
Pt 5.00119 29.5487 25.1186
Au 26.4709 27.0834 35.7575
Au 19.4517 17.8307 22.5234
Au 4.26402 21.767 38.5421
Pt 16.5046 11.7909 27.0163
Au 27.2191 19.279 14.8205
Au 14.6034 22.5096 19.5489
Au 12.0063 7.07059 31.9523
Au 5.63947 16.4357 36.8551
Au 22.1316 29.2013 31.3635
Au 20.5853 26.4974 31.1476
Pt 13.8261 11.242 34.5783
Au 17.2394 28.8994 44.3734
Pt 6.94227 18.4771 35.6083
Au 14.4921 23.3036 35.0182
Pt 17.6374 21.7462 38.5185
Pt 15.9418 8.03924 37.1669
Pt 21.9295 8.87027 30.067
Pt 17.5573 15.228 45.0921
Pt 8.03001 17.6806 30.9934
Pt 16.5887 17.2383 18.878
Pt 8.99085 22.0145 20.4091
Pt 14.0695 6.99217 23.7258
Pt 10.4854 29.4538 12.1487
Pt 9.2244 24.387 26.8431
Au 32.2414 22.447 9.75307
Pt 14.4906 31.0418 14.5984
Pt 17.7982 11.67 24.6169
Pt 22.7541 12.3639 14.9365
Pt 21.7227 9.49201 14.9484
Pt 15.9394 13.7844 15.8908
Pt 9.81497 24.87 12.4374
Au 27.0561 22.5266 7.95463
Au 20.2494 28.6969 18.0243
Au 24.7963 34.6734 25.9686
Au 29.3276 33.7504 6.52286
Au 23.7906 30.7203 15.3327
Au 16.8619 22.4746 27.1008
Pt 12.7891 11.4119 24.087
Pt 6.30132 17.7158 33.1548
Pt 14.758 13.0296 20.207
Pt 10.3092 16.8558 26.1269
Au 18.6814 32.772 35.3517
Au 26.12 18.1518 26.683
Pt 5.94989 17.1973 27.4534
Au 21.9659 27.524 33.5344
Pt 19.3775 15.651 26.5953
Au 16.248 26.9224 26.4365
Pt 18.2168 10.6186 40.3549
Pt 7.49549 15.773 25.855
Pt 14.0639 23.7423 31.5447
Au 20.8103 15.3803 21.1555
Pt 20.443 21.0016 40.4404
Pt 19.7045 21.8802 42.8371
Pt 4.98611 22.5319 34.4036
Au 22.3177 24.676 33.3149
Au 3.90453 18.7735 32.3834
Pt 26.2437 21.1644 44.0587
Au 14.0092 7.2371 39.0235
Pt 21.3206 14.2882 41.6494
Pt 10.522 21.086 34.085
Au 16.2075 3.57012 31.1733
Pt 10.4208 25.5515 22.3976
Au 12.3788 31.3024 7.63193
Pt 11.8289 15.5493 14.0832
Au 12.1489 13.7215 11.9422
Au 5.26111 21.6101 24.5673
Au 13.5299 26.8855 24.4189
Au 38.581 17.0923 6.21177
Au 12.7457 11.4327 14.0885
Au 17.4393 6.93354 13.2557
Au 35.1414 23.4537 4.37082
Au 26.1723 29.2382 9.43456
Pt 7.24511 22.2391 18.2569
Au 34.4387 27.3416 26.7356
Au 16.8766 32.6081 26.0132
Pt 8.82597 35.7267 22.6731
Pt 6.53407 28.6204 29.6689
Pt 9.8417 22.1517 28.8144
Au 31.4749 16.9495 5.28377
Au 18.2815 24.8062 23.8163
Au 29.5724 20.3661 13.407
Au 22.5113 19.1347 37.9577
Au 23.5783 31.6662 6.8143
Au 21.5336 21.5308 7.76992
Au 15.4049 29.078 24.5363
Au 13.7565 19.9239 20.294
Pt 14.4635 34.2194 26.028
Pt 9.19689 19.415 21.3869
Au 5.69402 25.5621 41.3912
Au 24.2104 26.6417 32.1753
Pt 11.7174 23.5271 26.9067
Au 18.9594 18.2154 27.6944
Au 4.15383 31.8888 34.4675
Au 16.6952 26.9967 38.6036
Pt 6.46136 23.7842 32.3853
Au 26.2664 20.9667 39.7833
Au 15.0636 29.5648 35.6541
Au 25.7374 26.1178 41.0413
Pt 17.9744 17.5659 41.5805
Pt 9.80326 19.5134 27.9804
Au 33.9896 25.6939 33.0136
Au 30.3401 44.5532 37.6712
Pt 20.338 16.0768 44.9513
Pt 21.903 17.4282 7.62556
Pt 19.1939 24.7778 5.61937
Au 9.70847 15.1659 12.4563
Pt 21.9988 28.5815 7.0674
Au 19.706 31.204 22.3159
Au 18.2962 14.5585 6.74241
Au 18.1793 22.0977 19.3336
Pt 14.3386 18.0985 17.3484
Au 27.9773 38.1121 26.8741
Au 24.249 21.3707 8.93335
Au 18.7046 23.5923 29.0329
Pt 11.2942 26.8773 13.2153
Pt 17.231 39.3215 23.6989
Pt 14.5429 40.5096 23.9503
Au 27.9245 22.4737 12.7476
Au 15.9233 22.6394 29.9203
Pt 11.5168 31.0435 39.0114
Au 21.6579 33.8758 18.4633
Au 15.5871 25.4718 36.5245
Au 29.4214 26.4816 14.5455
Au 19.6126 17.5258 37.2674
Pt 19.3187 28.0501 37.6744
Au 29.6573 36.779 24.1764
Au 23.3892 19.9044 35.0839
Au 29.6319 26.8963 29.5652
Pt 16.41 38.9251 28.6254
Au 29.0811 24.2082 34.3303
Au 18.3583 24.9762 26.697
Pt 14.7368 36.738 36.7038
Pt 18.5147 23.0955 40.8713
Au 26.0063 27.4367 49.1337
Pt 12.4946 32.5448 41.0372
Au 28.0752 29.4701 35.0772
Au 13.8201 16.1041 44.6767
Au 26.3583 23.5934 34.9655
Au 3.28984 23.4144 36.5976
Au 28.0948 31.7174 36.9306
Pt 14.2479 30.9383 38.0858
Pt 23.7842 22.0322 44.2315
Au 40.8525 24.5881 36.2668
Pt 21.7228 16.6838 39.2123
Pt 14.5035 26.14 42.8848
Pt 9.97986 16.5219 16.6619
Pt 19.9492 23.0615 3.733
Pt 17.02 20.9276 8.26925
Au 31.4078 38.8455 8.74286
Pt 10.9997 31.2898 10.2308
Au 7.5034 33.2226 12.565
Au 12.1747 23.5935 5.77109
Pt 9.92845 27.201 20.4194
Pt 15.4129 32.1304 11.3164
Au 18.8733 16.9962 16.8543
Pt 8.82235 29.6163 18.951
Au 14.6826 32.2323 6.10501
Pt 9.14232 20.151 30.642
Pt 11.2212 29.63 20.752
Pt 10.9973 32.0361 24.7891
Pt 9.90577 34.1137 20.8084
Au 24.7939 17.5055 13.9759
Au 18.8161 23.2115 33.819
Au 23.4878 29.7568 4.87117
Au 14.2783 28.1765 37.986
Au 25.0412 25.4509 6.58799
Au 30.8263 29.161 34.5934
Pt 25.123 26.2958 43.872
Pt 21.9569 43.7145 25.4635
Au 25.0923 39.2631 23.1274
Pt 25.6727 35.5846 33.1378
Au 35.6956 31.4344 16.0697
Au 11.801 39.1774 15.965
Au 24.174 17.0393 34.2363
Au 35.5671 19.9645 24.5306
Au 21.3518 34.8662 32.8994
Pt 19.269 42.8173 25.8128
Au 26.6708 26.9851 38.4727
Au 19.5276 28.2119 34.7074
Au 28.533 17.4437 31.1594
Pt 11.2492 37.6674 33.6025
Pt 22.2236 23.0976 40.7496
Au 32.3839 46.2307 36.8166
Pt 13.3808 31.7204 35.2217
Au 11.6746 17.7153 43.75
Pt 24.5223 40.3913 40.1049
Pt 14.1776 37.1137 39.3707
Au 6.74876 29.0335 14.6969
Pt 18.9421 33.2935 17.9364
Au 23.2119 19.664 6.49593
Pt 19.6726 41.0937 11.7917
Au 13.5319 40.0996 17.846
Au 14.8647 46.4357 30.9323
Au 4.5491 27.6566 15.7758
Au 9.5982 30.7399 7.93966
Pt 6.20689 24.0186 23.3465
Au 25.2528 32.1191 4.46936
Pt 11.2202 34.1173 14.0781
Au 2.72393 26.093 21.7123
Au 4.85577 21.7532 20.0904
Pt 19.0307 35.8204 19.1455
Au 24.9743 36.214 23.5576
Pt 7.4435 33.4209 20.8649
Pt 11.0847 24.9818 15.7714
Au 10.3182 34.169 41.9886
Au 12.2732 42.0545 24.953
Au 28.674 20.3694 7.09756
Pt 15.1348 33.737 21.4088
Au 30.0463 39.9479 44.5033
Au 5.04691 34.5009 33.7048
Au 20.2704 36.4048 21.7774
Au 12.7618 18.4507 25.3325
Au 18.7779 25.6448 36.219
Pt 8.03371 19.6859 37.6993
Au 17.9866 24.6452 31.4928
Pt 9.49183 29.9205 25.8341
Au 12.4066 29.4791 44.3365
Au 21.797 29.5795 48.9711
Au 17.116 27.8113 35.8987
Pt 20.0135 39.1023 40.5077
Au 12.0873 41.0648 35.0353
Pt 29.2309 45.035 28.8975
Pt 15.4122 25.0425 40.2004
Pt 19.5514 33.0088 39.9366
Pt 24.5637 46.7901 32.9319
Pt 16.194 12.0698 41.4087
Pt 10.4852 18.6573 38.4953
Au 19.5893 46.9611 31.0776
Pt 22.8862 27.3128 45.5218
Au 21.2447 25.5192 3.64926
Au 14.687 40.3978 12.6783
Pt 17.1983 40.827 14.6936
Au 15.2367 12.447 9.25745
Pt 16.0546 41.3216 17.0596
Au 5.06559 31.5735 17.0718
Au 4.88932 34.9858 31.0931
Au 12.0959 43.6026 27.2674
Pt 22.3646 41.4623 19.7804
Au 7.905 40.0117 28.7551
Au 4.2644 27.1868 39.6982
Pt 9.95363 32.0661 12.6049
Au 11.2379 28.9381 9.14407
Au 19.5634 31.7456 13.4975
Au 18.0364 26.5545 21.6142
Au 30.7459 30.3164 12.7927
Pt 14.6067 39.2984 30.6913
Au 2.90938 31.0537 28.0302
Au 6.10609 38.579 27.2159
Pt 18.6032 43.3554 21.2969
Pt 7.08068 28.0612 40.2072
Pt 13.3567 33.2191 23.757
Au 21.9122 47.6341 34.3425
Pt 27.1883 40.4562 21.1936
Au 9.04346 34.7091 10.7231
Pt 16.4964 41.0159 36.7918
Au 6.67942 30.9879 40.9192
Au 28.1142 35.5438 31.5719
Au 24.0368 48.6039 19.5641
Pt 13.3391 35.6362 22.3448
Pt 8.90643 30.6996 33.8246
Pt 9.37274 26.0897 35.0271
Pt 26.9327 44.5838 30.5926
Pt 10.8416 29.0205 32.1851
Pt 18.243 25.8351 40.5762
Au 21.9974 40.9048 41.6584
Pt 13.9211 37.4686 15.2821
Au 9.97432 40.1752 33.355
Pt 20.6321 41.5416 21.7271
Pt 15.3244 27.5294 10.3623
Pt 15.5313 38.402 17.2005
Pt 10.2518 19.3445 25.0479
Pt 8.16862 28.91 21.5132
Au 20.8475 20.3016 19.1829
Pt 20.8233 37.7649 9.14912
Au 6.10381 37.9444 29.8893
Pt 19.061 44.4636 19.055
Pt 17.0955 35.9648 7.95593
Pt 15.42 37.4953 24.3694
Au 10.6365 38.9347 35.9504
Pt 20.8847 37.0729 13.6195
Au 12.2848 40.7267 30.1444
Pt 15.8609 41.341 29.6834
Au 2.5761 22.0503 24.2678
Au 13.2065 39.3226 37.5463
Au 15.2044 42.5722 14.1747
Au 15.3229 45.257 33.3947
Au 24.6642 25.0285 49.4346
Pt 11.0709 30.133 41.9076
Au 3.52342 29.3134 33.5785
Pt 25.4227 42.7734 38.8653
Pt 9.23894 36.6928 31.9725
Au 15.199 13.7809 44.8999
Au 14.0182 21.8905 44.6458
Au 6.21858 32.3965 38.5962
Au 12.4432 43.9995 20.4754
Pt 13.014 36.1755 24.8661
Pt 34.6443 38.8713 12.8866
Pt 18.8818 40.1946 25.6662
Au 14.3068 43.729 18.4512
Pt 14.8967 40.7324 34.4096
Pt 25.0587 42.9157 26.2498
Pt 17.4131 37.982 26.1003
Pt 23.8583 37.8688 33.1197
Au 15.8238 32.5361 46.9687
Au 17.5796 3.3825 19.5495
Pt 17.9134 8.94695 24.0039
Pt 34.67 11.9059 21.135
Au 38.8177 6.54219 18.4794
Au 14.1268 11.6417 11.6127
Pt 13.2295 20.0584 15.0333
Au 15.1394 7.63948 15.4965
Au 11.4678 8.61785 34.3184
Pt 20.3471 12.7964 19.9533
Pt 12.49 13.1929 28.3084
Pt 19.8672 16.0056 32.3211
Pt 17.7312 10.2568 19.4249
Pt 8.05327 17.1111 20.7523
Pt 14.7403 7.55878 32.6126
Pt 17.2738 5.56677 27.4771
Pt 23.3311 6.92686 21.022
Au 15.2042 4.2547 28.6136
Au 4.55563 22.855 17.4814
Pt 14.1954 13.6628 30.2639
Pt 19.0109 8.01746 18.6104
Pt 10.3131 13.3732 20.6266
Pt 22.8643 12.1206 19.3014
Pt 31.6527 12.9828 24.3611
Pt 21.4851 7.19778 26.2795
Pt 34.5248 10.6186 34.8263
Pt 23.0428 8.91501 24.8782
Pt 26.066 6.38028 21.7157
Pt 15.9031 9.44989 30.798
Pt 23.0768 14.0722 39.7149
Au 23.7607 3.9851 17.8265
Pt 17.6307 14.9901 34.6581
Pt 21.1845 6.80046 40.9748
Pt 17.8453 15.6084 11.8113
Au 11.3305 6.87784 24.2437
Pt 32.7796 7.11327 15.6246
Au 4.66149 18.8333 20.2531
Pt 22.7081 10.7712 17.0175
Pt 19.4131 13.0252 35.7731
Pt 30.8562 14.0712 10.14
Au 15.6918 3.67671 17.7389
Pt 16.3319 7.91941 19.4603
Au 36.5056 5.19487 23.4299
Pt 6.07372 17.8026 24.6388
Au 18.9368 21.7579 16.3576
Au 24.2137 25.7799 18.4794
Pt 19.1417 21.8318 6.40968
Pt 21.2655 13.138 17.4096
Pt 13.2586 11.1279 18.3587
Au 22.7334 31.0174 17.7721
Au 25.3306 17.9617 24.0238
Au 25.5616 27.8348 19.9548
Au 31.0188 16.9189 44.4363
Au 20.4327 20.9185 2.03655
Au 18.2836 3.62373 16.7497
Au 26.8595 17.154 11.1655
Au 17.7661 29.2999 29.6291
Pt 11.3503 19.3646 32.3679
Pt 10.8984 14.6349 33.4083
Au 37.5903 23.8568 26.1646
Pt 12.0951 12.144 31.4083
Au 22.1583 17.1805 36.1987
Au 34.589 16.1223 31.7577
Au 31.6445 19.2181 40.5245
Au 21.5352 4.63191 38.981
Pt 24.3532 19.3746 44.8505
Pt 10.3693 20.1227 41.6443
Pt 19.1208 13.5696 33.0183
Pt 18.7315 13.2092 41.0021
Au 12.2665 22.0563 42.0328
Pt 13.2806 29.8689 40.598
Au 18.9191 9.03089 44.4279
Pt 25.0074 9.48837 40.8342
Au 16.9863 10.2168 9.35695
Pt 14.9672 14.0323 27.4205
Pt 15.617 25.3122 8.88992
Au 28.9854 2.10849 23.9383
Au 21.9241 5.04099 13.6544
Au 15.1076 4.47476 34.3311
Pt 17.4505 11.5913 15.8004
Pt 12.5694 23.4758 17.7982
Au 8.57048 29.2372 10.137
Pt 6.51647 15.8564 29.7253
Au 22.5059 18.4158 12.0375
Pt 11.4157 21.3967 16.4576
Pt 12.1765 17.753 15.7543
Pt 19.8225 5.99741 28.1019
Au 28.7922 31.0672 28.2049
Pt 14.8685 22.4929 8.2774
Au 25.8058 23.1002 18.049
Au 21.142 15.9278 12.2711
Au 33.7544 13.141 39.6627
Au 19.2869 18.3623 12.4889
Au 28.8222 17.6973 26.6293
Au 18.7729 13.4287 30.358
Au 33.1954 35.8628 18.1566
Pt 8.54346 19.287 33.2252
Pt 25.9825 15.3898 36.2691
Pt 14.2282 12.432 37.0876
Pt 22.9904 21.9058 23.0276
Pt 36.5767 30.3506 8.53804
Au 16.0553 20.1575 31.4987
Au 19.838 19.3109 15.1824
Pt 10.8614 9.51846 24.1894
Pt 14.5689 20.459 39.5273
Pt 14.1155 8.71867 35.1872
Au 24.8676 21.1234 37.1709
Au 21.635 21.2357 25.3133
Au 22.8401 38.3796 24.7521
Au 27.6935 19.5927 24.8087
Pt 20.6169 11.2429 29.1808
Au 18.4676 24.9166 46.753
Au 31.7441 18.5152 16.703
Pt 24.2432 10.8257 21.3192
Au 17.6951 39.3426 42.3454
Pt 13.8173 30.0035 9.67931
Pt 19.123 22.1111 9.29284
Au 8.426 27.8286 12.6937
Pt 18.5168 11.2669 13.3896
Au 10.3615 23.4335 7.85498
Au 16.5929 24.529 19.3567
Pt 19.7656 13.3943 11.7224
Pt 11.6983 20.2903 29.8273
Pt 6.75902 27.4842 24.9022
Au 15.8937 21.9761 24.1947
Pt 6.616 18.7466 22.2009
Pt 9.64092 26.0802 17.7362
Pt 16.5837 29.8894 10.4285
Au 30.9761 20.3513 8.63466
Au 22.2321 15.9547 18.8481
Au 16.092 19.9538 18.8935
Au 37.4934 24.448 5.29243
Au 25.673 24.9748 25.7092
Pt 9.93185 23.249 17.9911
Au 17.5699 23.4291 14.7347
Au 23.1175 20.4037 20.8899
Au 26.1284 20.0192 17.4023
Au 26.1272 29.2928 12.1443
Au 22.0762 35.9462 23.8152
Pt 11.0252 27.0727 30.2908
Pt 29.148 13.1322 29.3071
Pt 22.2211 11.9974 27.0069
Au 32.7469 35.6176 20.8121
Au 37.5405 17.6503 42.6361
Au 34.1261 27.3161 38.5887
Au 27.4999 35.4935 22.5481
Au 27.3662 24.5913 14.4644
Pt 15.7895 20.7256 34.425
Pt 21.2504 11.6089 41.5143
Pt 12.9375 22.3645 37.0667
Pt 18.3813 28.4736 40.0849
Pt 21.4555 20.6403 44.79
Pt 16.0236 10.5512 36.1205