3871
Atoms. Timestep: 20103
Au 5.7601 7.67688 23.4365
Pt 7.86282 5.8959 23.476
Pt 7.79323 7.71314 21.5187
Pt 6.18167 5.90089 25.4464
Pt 5.98758 7.71427 27.3292
Pt 7.88871 5.8491 27.4
Au 7.83586 7.75345 25.4118
Pt 7.74035 7.68122 29.3366
Pt 5.92654 11.6075 19.555
Pt 7.7401 9.62196 19.5046
Au 7.46908 11.343 17.3521
Pt 5.97496 9.658 21.4869
Au 5.48301 11.4873 23.4192
Pt 7.71046 9.66145 23.4489
Pt 7.63106 11.6567 21.5096
Pt 5.8716 9.58692 25.4199
Pt 5.79868 11.5298 27.4218
Au 7.71614 9.65241 27.4574
Pt 7.53035 11.6656 25.3642
Au 5.66366 9.62439 29.3631
Pt 5.96135 11.6341 31.3563
Au 7.49449 9.43133 31.4866
Pt 7.64387 11.5643 29.4309
Au 7.49223 11.4438 33.5582
Pt 5.81606 15.5879 15.6432
Au 7.45082 13.4086 15.3824
Pt 7.56919 15.5835 13.5823
Pt 5.90362 13.5673 17.5922
Pt 5.68726 15.4857 19.4655
Pt 7.62996 13.5506 19.5292
Pt 7.61716 15.5085 17.5262
Au 5.41742 13.5441 21.4219
Pt 5.63329 15.5452 23.4034
Pt 7.41444 13.5498 23.4212
Pt 7.48997 15.479 21.4415
Au 5.39343 13.5571 25.41
Pt 5.61708 15.5249 27.3704
Au 7.43982 13.5741 27.4298
Pt 7.4248 15.5132 25.3953
Au 5.46258 13.5242 29.4509
Pt 5.70752 15.4669 31.4898
Pt 7.58851 13.5717 31.4285
Pt 7.38678 15.5433 29.4173
Au 5.61799 13.562 33.3992
Pt 5.88406 15.5723 35.3125
Pt 7.63875 13.5796 35.3416
Pt 7.62485 15.4926 33.3931
Au 7.46289 15.3846 37.5126
Pt 5.87163 19.5634 11.5861
Au 7.43398 17.3508 11.3791
Pt 7.64996 19.5161 9.59879
Pt 5.83956 17.5853 13.5713
Pt 5.64871 19.4275 15.5066
Au 7.57149 17.5135 15.5564
Pt 7.5712 19.5114 13.5288
Pt 5.65823 17.4727 17.5279
Pt 5.57088 19.4755 19.5199
Au 7.47179 17.5059 19.4987
Au 7.43361 19.5247 17.5357
Pt 5.61071 17.4565 21.4559
Au 5.21888 19.4583 23.4148
Pt 7.39988 17.5505 23.433
Pt 7.34266 19.5227 21.4999
Pt 5.57989 17.4558 25.3824
Pt 5.52115 19.451 27.3291
Pt 7.36628 17.5106 27.4047
Pt 7.33426 19.4839 25.3538
Au 5.28556 17.4037 29.3762
Au 5.26588 19.4724 31.458
Pt 7.36919 17.5192 31.3472
Au 7.23938 19.445 29.4182
Pt 5.72236 17.4326 33.4428
Pt 5.72391 19.4349 35.3881
Pt 7.60711 17.4794 35.4382
Au 7.42621 19.4704 33.334
Au 5.59747 17.498 37.3106
Au 5.63522 19.4901 39.3214
Pt 7.63849 17.5567 39.2369
Pt 7.58665 19.4504 37.3424
Au 7.52147 19.3771 41.4434
Au 5.72402 23.4269 7.69151
Pt 7.72893 21.5098 7.71142
Au 7.75375 23.4183 5.67925
Pt 5.90087 21.509 9.68692
Pt 5.71166 23.4045 11.5154
Pt 7.63917 21.4928 11.6405
Pt 7.69133 23.4394 9.62286
Au 5.37978 21.4455 13.4898
Pt 5.55463 23.4767 15.5518
Au 7.38775 21.4789 15.4736
Pt 7.38681 23.4707 13.584
Pt 5.56828 21.4996 17.5405
Pt 5.47886 23.475 19.5143
Pt 7.36452 21.5042 19.5147
Au 7.37521 23.474 17.5308
Pt 5.49001 21.4953 21.446
Pt 5.4517 23.4311 23.3863
Pt 7.29346 21.4446 23.4233
Pt 7.3284 23.4645 21.4585
Pt 5.4751 21.462 25.3832
Pt 5.44661 23.419 27.3854
Au 7.29482 21.4643 27.3721
Pt 7.25929 23.4843 25.3983
Pt 5.49204 21.4811 29.3606
Pt 5.49989 23.4169 31.38
Pt 7.30932 21.4362 31.3531
Pt 7.27029 23.4593 29.3765
Pt 5.59215 21.4264 33.4322
Au 5.34061 23.3596 35.4136
Pt 7.49585 21.4725 35.387
Au 7.32383 23.4363 33.3923
Pt 5.72237 21.3866 37.3523
Au 5.4663 23.4297 39.3605
Au 7.57563 21.4349 39.2817
Pt 7.42807 23.4591 37.3404
Pt 5.94549 21.5665 41.2706
Pt 5.95036 23.5441 43.096
Pt 7.72601 21.5764 43.2524
Pt 7.71203 23.4987 41.1657
Au 7.68807 23.4921 45.246
Au 5.94387 25.4792 5.8362
Pt 5.9298 27.3324 7.73974
Pt 7.76531 25.366 7.72512
Pt 7.82634 27.3741 5.89749
Pt 5.80984 25.3848 9.59344
Pt 5.69673 27.3767 11.549
Au 7.50152 25.4042 11.668
Au 7.61521 27.4131 9.68315
Au 5.31305 25.4282 13.5573
Pt 5.52571 27.4119 15.5617
Pt 7.36613 25.4635 15.5168
Pt 7.38851 27.3894 13.6066
Pt 5.52714 25.4527 17.4991
Pt 5.44516 27.3951 19.4167
Pt 7.33643 25.4496 19.4864
Pt 7.37694 27.4106 17.5055
Pt 5.46138 25.4305 21.4262
Pt 5.43909 27.3751 23.3643
Pt 7.22588 25.4148 23.4425
Pt 7.24148 27.4559 21.4077
Au 5.15341 25.4134 25.3962
Pt 5.43147 27.4134 27.4572
Pt 7.18286 25.4247 27.4031
Pt 7.14623 27.4025 25.4136
Au 5.15434 25.3754 29.387
Au 5.19662 27.4734 31.4601
Pt 7.19428 25.4681 31.302
Pt 7.1677 27.4149 29.4663
Pt 5.56917 25.4347 33.3634
Au 5.34825 27.5286 35.3837
Au 7.28399 25.4456 35.42
Pt 7.30112 27.4616 33.3546
Au 5.38477 25.5261 37.4614
Pt 5.78107 27.4944 39.3741
Pt 7.54594 25.4201 39.2281
Pt 7.49849 27.434 37.3179
Pt 5.79561 25.4517 41.2492
Pt 5.89773 27.3874 43.0134
Pt 7.82485 25.4402 43.0729
Pt 7.72215 27.4353 41.1881
Pt 5.97049 25.4884 44.7484
Pt 7.70938 27.381 44.9599
Pt 7.69219 29.3467 7.74762
Au 5.63278 29.3757 9.61641
Au 5.62333 31.4634 11.5652
Pt 7.51456 29.4033 11.6184
Pt 7.63984 31.336 9.68192
Au 5.39584 29.3759 13.5456
Pt 5.6721 31.4589 15.4885
Pt 7.41261 29.3718 15.5016
Au 7.51696 31.3543 13.5155
Pt 5.54747 29.3799 17.4553
Pt 5.52356 31.4073 19.3416
Pt 7.31413 29.3836 19.4664
Au 7.43737 31.3617 17.4737
Au 5.16655 29.3842 21.3422
Au 5.16381 31.4395 23.3796
Pt 7.10296 29.4451 23.4077
Pt 7.23042 31.3121 21.4077
Au 5.14002 29.3646 25.4307
Pt 5.43153 31.403 27.5253
Au 7.19172 29.4096 27.4154
Pt 7.15719 31.3211 25.4319
Pt 5.45913 29.4716 29.4779
Pt 5.52837 31.4374 31.4556
Pt 7.31363 29.422 31.3824
Pt 7.33273 31.4106 29.4477
Pt 5.56492 29.4725 33.3943
Au 5.37125 31.4256 35.4666
Pt 7.40846 29.4345 35.3717
Au 7.40183 31.3975 33.4284
Pt 5.72014 29.4517 37.4265
Pt 5.88796 31.3614 39.2404
Pt 7.66618 29.417 39.3093
Pt 7.62418 31.3855 37.2971
Au 5.64828 29.4596 41.2419
Pt 7.70192 29.3545 43.1436
Pt 7.65388 31.3419 41.2442
Pt 7.64522 33.3764 11.5617
Pt 5.89269 33.4077 13.587
Pt 5.88475 35.3118 15.5218
Pt 7.63529 33.3704 15.5334
Pt 7.6713 35.3747 13.5309
Pt 5.64962 33.4102 17.4231
Pt 5.68324 35.3572 19.3174
Pt 7.45108 33.3342 19.4135
Pt 7.60767 35.3469 17.4741
Pt 5.5477 33.362 21.2734
Au 5.26174 35.3878 23.4709
Au 7.1947 33.3357 23.4346
Au 7.30851 35.3901 21.4513
Pt 5.46625 33.3718 25.5088
Pt 5.53537 35.3445 27.437
Au 7.30394 33.3361 27.4397
Au 7.31138 35.3688 25.4144
Pt 5.50864 33.3773 29.504
Pt 5.64452 35.3639 31.5573
Pt 7.43954 33.3525 31.4168
Au 7.34107 35.3691 29.4439
Pt 5.64923 33.4161 33.4471
Pt 5.84355 35.3209 35.3398
Pt 7.57398 33.3475 35.3571
Pt 7.61377 35.3238 33.4101
Pt 5.8765 33.345 37.3361
Pt 7.65918 33.3672 39.3069
Pt 7.65203 35.3441 37.317
Pt 7.66831 37.3313 15.5311
Au 5.65424 37.3347 17.3922
Au 5.66232 39.3785 19.3679
Pt 7.51824 37.3548 19.4227
Pt 7.6685 39.324 17.5113
Au 5.39013 37.3976 21.3791
Pt 5.73727 39.3827 23.4785
Pt 7.39654 37.2917 23.4247
Au 7.47815 39.2647 21.4262
Pt 5.58843 37.4156 25.4339
Au 5.4149 39.3629 27.4034
Pt 7.3631 37.3324 27.4565
Au 7.5072 39.2651 25.4951
Au 5.364 37.3322 29.5397
Pt 5.89154 39.2203 31.5071
Pt 7.59857 37.2887 31.4523
Au 7.47267 39.2569 29.4104
Pt 5.83827 37.2747 33.4191
Pt 7.63088 37.3213 35.3706
Pt 7.64048 39.2895 33.4719
Pt 7.69563 41.2511 19.5536
Au 5.67568 41.3474 21.52
Pt 5.97408 43.1826 23.5375
Pt 7.70838 41.2173 23.4463
Pt 7.74648 43.1839 21.5366
Pt 5.80614 41.316 25.4033
Au 5.68574 43.2145 27.3664
Pt 7.576 41.2628 27.5068
Pt 7.81973 43.0767 25.4857
Au 5.66156 41.2499 29.5242
Pt 7.6963 41.2008 31.4421
Au 7.51588 43.309 29.5492
Pt 7.86522 45.0449 23.4998
Pt 6.17207 44.9496 25.4168
Pt 7.813 44.9594 27.4046
Pt 9.68199 7.67365 19.5288
Pt 11.6537 5.83273 19.5039
Pt 11.6041 7.66978 17.5603
Pt 9.75005 5.85274 21.4977
Au 9.77391 7.66971 23.4775
Pt 11.622 5.66867 23.4368
Au 11.6653 7.63079 21.4491
Pt 9.66835 5.71715 25.4411
Pt 9.74969 7.64295 27.3954
Au 11.6056 5.36155 27.4241
Pt 11.6747 7.48753 25.5027
Pt 9.75512 5.86865 29.3555
Au 9.45275 7.42575 31.5612
Pt 11.6337 5.89035 31.3621
Pt 11.6239 7.61959 29.3746
Pt 11.5689 7.64069 33.3803
Pt 9.61325 11.5362 15.6353
Au 11.4041 9.40791 15.4161
Au 11.4613 11.347 13.398
Pt 9.64939 9.59377 17.5867
Pt 9.50592 11.5855 19.4301
Pt 11.5838 9.61726 19.4554
Pt 11.5544 11.4734 17.4516
Au 9.63209 9.66452 21.445
Pt 9.54022 11.6476 23.4074
Au 11.6591 9.65144 23.4861
Pt 11.5273 11.6214 21.3856
Pt 9.64159 9.68355 25.4346
Au 9.55235 11.6276 27.4349
Au 11.6043 9.57087 27.4257
Au 11.614 11.5966 25.4389
Pt 9.56583 9.50934 29.5417
Pt 9.39253 11.4921 31.4906
Pt 11.4686 9.43249 31.4068
Au 11.4482 11.5189 29.4768
Pt 9.60916 9.56241 33.3298
Au 9.45645 11.3899 35.5443
Pt 11.6156 9.56846 35.371
Au 11.4108 11.4967 33.4507
Au 11.4325 11.3995 37.5551
Pt 9.57147 15.5941 11.5504
Au 11.4553 13.3725 11.3646
Au 11.3886 15.3479 9.39216
Au 9.44942 13.4379 13.3716
Au 9.47028 15.3889 15.445
Au 11.4653 13.4126 15.4038
Pt 11.5084 15.3995 13.421
Pt 9.40851 13.4263 17.4762
Au 9.54804 15.4781 19.4742
Pt 11.4873 13.4518 19.3964
Au 11.4756 15.4096 17.4122
Pt 9.51024 13.5603 21.4848
Pt 9.36874 15.5242 23.4283
Au 11.5263 13.5562 23.424
Pt 11.4988 15.4245 21.4467
Au 9.4616 13.5969 25.4002
Pt 9.34915 15.5619 27.4068
Au 11.5151 13.5776 27.4527
Au 11.4874 15.5366 25.4367
Pt 9.3931 13.6162 29.4145
Au 9.43459 15.5474 31.396
Au 11.3998 13.51 31.4168
Au 11.475 15.5376 29.4034
Pt 9.4476 13.4413 33.4527
Pt 9.466 15.4978 35.4513
Pt 11.3865 13.4121 35.4936
Au 11.4239 15.4599 33.4606
Pt 9.52199 13.5753 37.3557
Pt 9.57869 15.562 39.2958
Au 11.4084 13.4071 39.5439
Au 11.4839 15.4103 37.4418
Pt 11.622 15.5871 41.2904
Pt 9.60246 19.5201 7.66115
Au 11.3679 17.3361 7.44594
Pt 11.6039 19.4981 5.87037
Pt 9.56808 17.5752 9.5988
Pt 9.486 19.4095 11.5353
Au 11.5109 17.414 11.4517
Pt 11.5555 19.3834 9.47738
Au 9.46912 17.4638 13.4423
Au 9.52759 19.4738 15.5094
Au 11.4894 17.4161 15.4219
Pt 11.5588 19.3431 13.4436
Pt 9.45155 17.5116 17.5384
Pt 9.32695 19.5617 19.5677
Au 11.4579 17.4942 19.471
Au 11.4592 19.4864 17.5258
Au 9.42363 17.4901 21.4749
Au 9.38118 19.5158 23.4314
Au 11.4396 17.4593 23.428
Au 11.3954 19.5541 21.4211
Au 9.35772 17.5049 25.4313
Pt 9.25796 19.4961 27.4022
Au 11.417 17.5185 27.4134
Pt 11.3505 19.45 25.4635
Au 9.35281 17.5165 29.3738
Pt 9.30755 19.5007 31.3346
Au 11.4325 17.4872 31.4179
Au 11.3305 19.5099 29.4006
Pt 9.39158 17.4996 33.3806
Au 9.46175 19.4778 35.3689
Au 11.4754 17.4676 35.416
Au 11.4194 19.4602 33.3643
Pt 9.50379 17.4422 37.3714
Pt 9.48776 19.4414 39.3841
Au 11.4592 17.5019 39.3949
Pt 11.433 19.4487 37.3829
Au 9.4616 17.3684 41.4363
Pt 9.67597 19.5655 43.2554
Pt 11.6116 17.5605 43.2264
Au 11.5356 19.4872 41.3482
Au 11.5586 19.4739 45.2549
Pt 9.70729 21.4764 5.87568
Pt 9.63616 23.4274 7.66907
Pt 11.5944 21.436 7.67105
Pt 11.5155 23.3973 5.73316
Au 9.60144 21.4141 9.62562
Au 9.58062 23.4712 11.6006
Au 11.5727 21.3862 11.5335
Pt 11.5703 23.4446 9.50086
Au 9.53799 21.4762 13.5685
Pt 9.34339 23.5034 15.5565
Au 11.5509 21.4132 15.4741
Au 11.5375 23.481 13.5739
Au 9.41473 21.5052 17.5271
Pt 9.30517 23.4743 19.5477
Pt 11.3639 21.5064 19.5001
Au 11.4279 23.4482 17.4815
Pt 9.27727 21.5104 21.485
Au 9.28481 23.4581 23.4442
Pt 11.3314 21.4584 23.4296
Au 11.3448 23.4431 21.4452
Au 9.3323 21.4621 25.4267
Au 9.27548 23.4765 27.41
Pt 11.2918 21.4117 27.4356
Au 11.3147 23.4877 25.4448
Pt 9.22923 21.4527 29.3509
Au 9.26469 23.4386 31.3391
Pt 11.3436 21.4447 31.3537
Au 11.3111 23.4137 29.4129
Au 9.38722 21.4834 33.3382
Pt 9.37268 23.474 35.412
Au 11.4397 21.4653 35.3887
Au 11.3935 23.4658 33.3774
Pt 9.48232 21.4682 37.3404
Pt 9.50993 23.4363 39.1974
Pt 11.461 21.4301 39.2685
Pt 11.4422 23.4282 37.3002
Au 9.55315 21.4315 41.2995
Au 9.65789 23.461 43.27
Pt 11.6918 21.4844 43.3383
Au 11.5966 23.3985 41.2735
Pt 9.72294 21.5475 45.0343
Pt 11.5948 23.4839 45.2186
Pt 9.62726 25.4268 5.78701
Pt 9.63625 27.404 7.73812
Au 11.5635 25.4351 7.59876
Pt 11.4772 27.471 5.73191
Pt 9.58161 25.4449 9.64139
Pt 9.49814 27.4066 11.6165
Au 11.5652 25.4901 11.5326
Pt 11.5793 27.4496 9.55521
Au 9.45792 25.4691 13.6203
Pt 9.37248 27.4164 15.5656
Au 11.4732 25.4979 15.5459
Pt 11.4937 27.4328 13.5531
Au 9.37785 25.4536 17.4964
Au 9.35459 27.4517 19.4756
Au 11.4008 25.4691 19.4532
Pt 11.4465 27.4786 17.5028
Au 9.27837 25.5018 21.48
Pt 9.08274 27.4528 23.4183
Au 11.3023 25.5396 23.397
Pt 11.3633 27.4791 21.3616
Au 9.21577 25.4954 25.419
Au 9.17234 27.4186 27.4472
Pt 11.2678 25.4725 27.4695
Au 11.2708 27.4353 25.4808
Au 9.22968 25.4502 29.3932
Au 9.25774 27.4325 31.3766
Au 11.3856 25.449 31.4094
Au 11.3172 27.4533 29.401
Au 9.28574 25.431 33.3732
Au 9.38885 27.4053 35.345
Pt 11.4337 25.3915 35.3627
Au 11.4348 27.3962 33.4109
Pt 9.46485 25.411 37.2997
Au 9.61056 27.4288 39.2476
Pt 11.5061 25.3836 39.2002
Au 11.5108 27.4165 37.2706
Au 9.70299 25.4484 41.1791
Au 9.66966 27.4648 43.2494
Au 11.6621 25.4499 43.3706
Pt 11.6393 27.4515 41.3659
Pt 9.59869 25.4551 45.1089
Pt 11.6062 27.4511 45.1938
Pt 9.62649 29.359 5.8946
Pt 9.54512 31.3326 7.70489
Pt 11.5466 29.3915 7.69011
Pt 11.4894 31.2969 5.87524
Au 9.55794 29.4234 9.67346
Pt 9.53618 31.4233 11.5713
Au 11.5586 29.3864 11.5671
Pt 11.5152 31.379 9.54964
Au 9.46358 29.3347 13.5474
Au 9.5141 31.392 15.5103
Au 11.4914 29.3847 15.494
Au 11.5119 31.4452 13.4886
Au 9.41502 29.3929 17.4923
Pt 9.36568 31.3431 19.4514
Pt 11.4182 29.4377 19.4274
Pt 11.4708 31.4079 17.4951
Au 9.26905 29.4022 21.4648
Au 9.19725 31.3767 23.4628
Au 11.2685 29.3679 23.4394
Au 11.3639 31.3922 21.4169
Au 9.16188 29.3764 25.4007
Pt 9.20076 31.3629 27.4341
Au 11.2485 29.4471 27.4557
Au 11.2603 31.4194 25.467
Pt 9.18065 29.4071 29.3915
Pt 9.30427 31.363 31.3989
Au 11.3475 29.4417 31.3733
Pt 11.2901 31.3824 29.4096
Au 9.37044 29.4054 33.3914
Pt 9.47487 31.4117 35.3588
Pt 11.4844 29.4568 35.3386
Au 11.4311 31.4149 33.3989
Au 9.5512 29.4456 37.3026
Au 9.57527 31.4628 39.3921
Pt 11.5487 29.4872 39.3704
Pt 11.4964 31.4665 37.3738
Pt 9.6192 29.409 41.2622
Pt 9.62388 31.2755 43.1798
Au 11.6188 29.397 43.3078
Au 11.5462 31.5238 41.4028
Au 9.59342 29.4183 45.2444
Pt 11.6423 31.3389 45.0176
Pt 11.4658 33.2739 7.66646
Pt 9.53306 33.3076 9.59172
Pt 9.54825 35.3402 11.6055
Au 11.4838 33.4484 11.4497
Au 11.2938 35.5119 9.44787
Pt 9.48734 33.3999 13.5024
Au 9.54123 35.3677 15.4804
Pt 11.4892 33.3863 15.5088
Au 11.5058 35.399 13.4775
Pt 9.46603 33.3301 17.5393
Au 9.43844 35.3319 19.5078
Pt 11.4339 33.3476 19.4669
Au 11.4792 35.3449 17.5101
Au 9.30587 33.3124 21.4328
Au 9.35816 35.3329 23.4283
Au 11.3543 33.3658 23.4432
Pt 11.4004 35.3201 21.4394
Pt 9.22463 33.3294 25.4696
Au 9.36844 35.3294 27.4062
Pt 11.3167 33.3301 27.4414
Au 11.3737 35.3231 25.4389
Au 9.37901 33.3372 29.4062
Au 9.49453 35.3166 31.4211
Au 11.4375 33.3402 31.4173
Pt 11.4556 35.3359 29.4378
Pt 9.45382 33.3354 33.3848
Au 9.5351 35.3727 35.3769
Pt 11.484 33.4225 35.3846
Pt 11.4694 35.3876 33.4283
Au 9.5383 33.3903 37.3695
Pt 9.60524 35.3326 39.3012
Pt 11.5181 33.4463 39.4256
Au 11.5184 35.4019 37.4108
Au 9.43616 33.5348 41.4529
Au 11.485 33.5483 43.4258
Pt 11.6094 35.3781 41.2865
Pt 11.4843 37.4202 11.6557
Pt 9.56923 37.3782 13.5905
Pt 9.56549 39.3777 15.5682
Au 11.511 37.4598 15.4808
Pt 11.5144 39.4258 13.5914
Au 9.52261 37.4 17.4882
Pt 9.54026 39.3333 19.4772
Au 11.4888 37.3502 19.5125
Pt 11.4853 39.4152 17.5106
Pt 9.42352 37.3264 21.4181
Pt 9.43658 39.1624 23.4122
Pt 11.4047 37.2517 23.367
Pt 11.4833 39.2904 21.4507
Pt 9.36613 37.2852 25.4227
Pt 9.44577 39.2453 27.4639
Au 11.4552 37.3148 27.4641
Au 11.473 39.152 25.3979
Au 9.45978 37.3036 29.4139
Pt 9.48566 39.2643 31.4648
Au 11.4807 37.3612 31.4379
Pt 11.418 39.2937 29.4592
Pt 9.50442 37.3388 33.4324
Pt 9.56733 39.2551 35.3713
Pt 11.468 37.3964 35.4569
Pt 11.4357 39.3478 33.4669
Pt 9.55632 37.2848 37.3507
Pt 11.5614 37.3066 39.3693
Au 11.3481 39.4173 37.5638
Pt 11.5223 41.3333 15.5948
Pt 9.58576 41.2935 17.5638
Pt 9.62549 43.1996 19.5521
Pt 11.5275 41.3682 19.4453
Au 11.3829 43.4188 17.3992
Au 9.60569 41.2293 21.4648
Au 9.70395 43.2063 23.5146
Au 11.6017 41.235 23.499
Pt 11.6166 43.2 21.5185
Au 9.61983 41.1486 25.475
Pt 9.6338 43.137 27.4586
Au 11.5631 41.2184 27.4325
Pt 11.6433 43.3709 25.5006
Pt 9.47725 41.267 29.4601
Pt 9.60235 43.1815 31.3621
Au 11.4661 41.2513 31.4232
Au 11.5872 43.2213 29.3769
Pt 9.54868 41.2331 33.3863
Au 11.3604 41.4455 35.4985
Pt 11.506 43.2173 33.3207
Pt 11.6139 45.0156 19.6157
Pt 9.72309 45.0081 21.5534
Pt 11.5748 45.1873 23.4726
Pt 9.62073 45.1272 25.4755
Pt 11.5186 45.1791 27.4613
Pt 9.66249 44.9839 29.3534
Pt 11.5857 45.0119 31.3329
Pt 13.5148 7.65983 15.6163
Pt 15.4635 5.82674 15.6273
Au 15.3801 7.47631 13.4629
Pt 13.5532 5.82335 17.6046
Pt 13.5929 7.65725 19.4858
Pt 15.4885 5.63305 19.4602
Au 15.5476 7.55092 17.5266
Pt 13.5636 5.65779 21.393
Au 13.6133 7.45574 23.4581
Pt 15.5293 5.52953 23.3398
Pt 15.5597 7.46671 21.4168
Pt 13.5693 5.55734 25.3887
Pt 13.5687 7.35185 27.423
Au 15.4714 5.25361 27.4255
Pt 15.5548 7.29851 25.4277
Pt 13.4938 5.66411 29.4999
Pt 13.568 7.64247 31.4028
Pt 15.4828 5.65379 31.5053
Au 15.5358 7.35517 29.4127
Pt 13.5422 5.86546 33.3346
Pt 13.5888 7.64628 35.3515
Au 15.5256 5.61484 35.4243
Au 15.5492 7.54474 33.4318
Pt 15.5497 7.64823 37.3395
Pt 13.5984 11.4979 11.4959
Pt 15.5469 9.60832 11.5449
Pt 15.5408 11.5318 9.52332
Pt 13.591 9.56718 13.5879
Pt 13.4425 11.4262 15.4853
Pt 15.4899 9.48415 15.4977
Au 15.4857 11.4517 13.4904
Pt 13.5153 9.5549 17.4727
Au 13.5579 11.5368 19.4188
Pt 15.5668 9.49843 19.4411
Pt 15.4939 11.466 17.4137
Au 13.6145 9.59665 21.4525
Pt 13.5933 11.5912 23.3776
Au 15.5764 9.42932 23.4275
Pt 15.5498 11.5022 21.3791
Au 13.6359 9.44393 25.4916
Pt 13.5893 11.462 27.4363
Pt 15.5784 9.23831 27.4225
Au 15.5238 11.4481 25.4501
Au 13.5965 9.49189 29.3649
Au 13.4726 11.4621 31.4225
Au 15.5985 9.49663 31.4204
Au 15.5884 11.449 29.4098
Au 13.4912 9.54501 33.4204
Au 13.4277 11.5285 35.5098
Au 15.4997 9.56652 35.413
Pt 15.5438 11.4586 33.416
Pt 13.5903 9.57875 37.3789
Pt 13.5856 11.5328 39.3574
Pt 15.5454 9.55045 39.3096
Pt 15.4864 11.5014 37.4604
Au 15.3325 11.3656 41.4436
Pt 13.5656 15.515 7.61
Pt 15.5445 13.537 7.59435
Pt 15.5158 15.5606 5.82937
Pt 13.6276 13.4952 9.4792
Au 13.4253 15.4021 11.3797
Au 15.4826 13.4346 11.4356
Pt 15.5218 15.4822 9.45724
Au 13.4143 13.3825 13.4304
Pt 13.4996 15.4143 15.4218
Pt 15.4647 13.4104 15.4407
Au 15.4435 15.4191 13.4426
Pt 13.5067 13.416 17.3959
Au 13.4795 15.4216 19.415
Pt 15.5056 13.4571 19.3539
Au 15.4719 15.4128 17.3713
Au 13.5515 13.5065 21.421
Pt 13.5036 15.4928 23.3992
Pt 15.4802 13.5283 23.4106
Pt 15.4788 15.4549 21.4165
Au 13.5617 13.5305 25.4376
Pt 13.4814 15.5733 27.4351
Au 15.5114 13.4875 27.4725
Au 15.437 15.5286 25.4248
Au 13.488 13.4962 29.4271
Pt 13.4528 15.5177 31.4317
Au 15.4843 13.4555 31.4268
Au 15.4325 15.5055 29.4717
Au 13.4461 13.4645 33.4298
Au 13.4444 15.4485 35.4688
Au 15.4481 13.4541 35.4757
Au 15.4095 15.5034 33.4255
Pt 13.4167 13.42 37.532
Au 13.5025 15.4587 39.4228
Pt 15.4746 13.4593 39.4591
Au 15.4607 15.4845 37.4701
Pt 13.5839 13.5644 41.3214
Pt 13.5745 15.5371 43.2204
Pt 15.4604 13.582 43.2548
Pt 15.5276 15.5757 41.4076
Pt 15.5305 15.5586 45.0211
Pt 13.5867 17.5336 5.85009
Pt 13.5415 19.4315 7.62562
Pt 15.5123 17.4931 7.60939
Pt 15.4487 19.3899 5.64191
Pt 13.432 17.4038 9.4329
Au 13.5619 19.3771 11.4655
Pt 15.4595 17.4051 11.43
Pt 15.5288 19.4133 9.44063
Pt 13.4983 17.3743 13.4248
Pt 13.5382 19.3436 15.3743
Pt 15.4924 17.3665 15.3849
Pt 15.5087 19.3102 13.4581
Au 13.476 17.4493 17.3932
Au 13.4894 19.5175 19.4891
Au 15.4834 17.4305 19.4146
Au 15.4763 19.4173 17.3877
Au 13.483 17.4496 21.4485
Au 13.3798 19.4892 23.4201
Pt 15.4037 17.457 23.4297
Pt 15.4144 19.4644 21.4732
Pt 13.4048 17.5151 25.4025
Pt 13.3437 19.4748 27.4303
Au 15.4028 17.496 27.456
Au 15.3684 19.4464 25.4288
Pt 13.4284 17.5345 29.4261
Au 13.4215 19.4491 31.4157
Pt 15.4276 17.4337 31.4228
Au 15.4237 19.4373 29.4685
Pt 13.4495 17.4713 33.432
Pt 13.4391 19.4249 35.456
Pt 15.414 17.4698 35.4792
Au 15.4042 19.4048 33.4337
Pt 13.4461 17.4794 37.4623
Pt 13.5023 19.4616 39.3835
Pt 15.5039 17.5155 39.4501
Au 15.4629 19.4194 37.4499
Au 13.5706 17.5504 41.4073
Pt 13.588 19.574 43.3971
Au 15.5979 17.6024 43.4081
Pt 15.5537 19.5224 41.469
Pt 13.5587 17.5147 44.9891
Au 15.4581 19.4795 45.5396
Pt 13.4607 21.3395 5.70388
Au 13.5827 23.4142 7.42315
Pt 15.5598 21.4065 7.36461
Au 15.429 23.3438 5.29813
Au 13.6079 21.4496 9.49069
Au 13.5841 23.4745 11.4915
Au 15.5521 21.4352 11.4844
Au 15.6223 23.4622 9.34389
Au 13.5636 21.4059 13.4813
Au 13.5555 23.4987 15.4981
Au 15.4943 21.4532 15.4035
Pt 15.5939 23.5373 13.4208
Au 13.5038 21.4372 17.453
Au 13.4128 23.4421 19.4448
Pt 15.414 21.492 19.4651
Pt 15.4245 23.4855 17.4932
Pt 13.383 21.4844 21.429
Au 13.3192 23.4808 23.4139
Au 15.3653 21.4672 23.4199
Au 15.3738 23.471 21.4343
Au 13.2899 21.4386 25.4476
Au 13.3006 23.4521 27.4398
Au 15.3629 21.4379 27.4431
Au 15.3468 23.4695 25.4351
Au 13.3616 21.4558 29.4405
Pt 13.3735 23.4672 31.4278
Pt 15.3824 21.4301 31.4588
Au 15.36 23.4438 29.491
Au 13.4081 21.464 33.3888
Pt 13.4075 23.4545 35.386
Au 15.4416 21.4394 35.4286
Au 15.3973 23.4483 33.4067
Au 13.4434 21.4328 37.3912
Pt 13.4485 23.4036 39.3021
Au 15.5192 21.4418 39.4202
Au 15.4986 23.4258 37.3937
Au 13.5863 21.4661 41.3843
Pt 13.6056 23.4664 43.4711
Pt 15.5583 21.4864 43.6121
Au 15.5386 23.4503 41.5318
Au 13.4976 21.5312 45.529
Pt 15.4954 23.5166 45.3666
Pt 13.3938 25.5078 5.66998
Pt 13.5133 27.4696 7.52073
Au 15.5645 25.412 7.24261
Pt 15.373 27.5333 5.57411
Au 13.6116 25.4624 9.44391
Au 13.5902 27.4752 11.4766
Au 15.6143 25.5223 11.3844
Pt 15.5892 27.466 9.29493
Au 13.5818 25.496 13.4715
Au 13.5216 27.4712 15.4605
Au 15.5245 25.4806 15.4354
Pt 15.5832 27.4969 13.3908
Pt 13.4296 25.5196 17.4952
Pt 13.3946 27.4965 19.4137
Au 15.3882 25.4755 19.4355
Au 15.4319 27.4939 17.4656
Pt 13.3443 25.48 21.3579
Au 13.3415 27.446 23.4145
Au 15.3473 25.4767 23.4268
Au 15.3642 27.4733 21.4084
Au 13.3121 25.5063 25.4944
Pt 13.3394 27.504 27.4679
Au 15.3586 25.4816 27.4609
Au 15.3702 27.4886 25.5022
Au 13.3377 25.4749 29.4133
Pt 13.3907 27.4565 31.4309
Au 15.3528 25.48 31.4523
Au 15.3679 27.5041 29.4237
Pt 13.4257 25.4249 33.4297
Pt 13.4467 27.404 35.3617
Au 15.4574 25.4471 35.3822
Pt 15.3832 27.4275 33.4323
Au 13.476 25.4014 37.3403
Au 13.4687 27.4515 39.3807
Au 15.5146 25.4388 39.4137
Au 15.489 27.4429 37.3826
Au 13.5486 25.412 41.3677
Pt 13.6096 27.4276 43.428
Pt 15.5183 25.4819 43.5084
Au 15.5233 27.445 41.4426
Pt 13.569 25.4642 45.3293
Pt 15.4793 27.4419 45.3909
Pt 13.3894 29.4182 5.69033
Pt 13.5026 31.3676 7.53161
Pt 15.4678 29.4555 7.41485
Au 15.3791 31.3697 5.35233
Pt 13.5587 29.4241 9.44991
Au 13.5373 31.4087 11.4598
Au 15.5601 29.4259 11.3697
Pt 15.5022 31.3976 9.35119
Pt 13.5484 29.4471 13.4902
Au 13.4765 31.4273 15.4705
Pt 15.4375 29.4735 15.4653
Au 15.5122 31.4537 13.4634
Pt 13.4193 29.4565 17.4651
Pt 13.3876 31.4119 19.4124
Pt 15.3302 29.4572 19.4167
Pt 15.3758 31.4217 17.4483
Au 13.3612 29.4403 21.4129
Au 13.3719 31.4345 23.4878
Au 15.3997 29.4803 23.4785
Au 15.3899 31.4224 21.4444
Au 13.3536 29.4342 25.4845
Au 13.3476 31.4315 27.4208
Pt 15.3853 29.4925 27.4637
Pt 15.412 31.4173 25.488
Au 13.3565 29.4681 29.4289
Pt 13.4252 31.4489 31.4519
Au 15.3904 29.4523 31.4566
Au 15.4086 31.4377 29.4649
Au 13.4308 29.4203 33.4064
Au 13.4525 31.4739 35.4151
Au 15.4497 29.4554 35.4011
Pt 15.4301 31.4415 33.4367
Au 13.4582 29.4595 37.3633
Au 13.5098 31.4686 39.3853
Au 15.5041 29.4368 39.3935
Pt 15.4652 31.4737 37.3997
Pt 13.5707 29.4622 41.4363
Au 13.5833 31.4787 43.355
Pt 15.5233 29.3971 43.4669
Au 15.5434 31.4203 41.4151
Pt 13.5642 29.412 45.2505
Pt 15.4661 31.3874 45.2664
Au 13.3443 33.3825 5.65045
Pt 13.373 35.2921 7.59337
Au 15.4676 33.3461 7.37812
Pt 15.5471 35.5462 6.04665
Au 13.4655 33.4147 9.4409
Au 13.4027 35.506 11.363
Au 15.4769 33.4391 11.4129
Au 15.3843 35.5504 9.26697
Pt 13.4874 33.4055 13.486
Au 13.5068 35.3871 15.4825
Pt 15.4505 33.3876 15.4986
Au 15.4402 35.3811 13.4478
Au 13.4595 33.405 17.4939
Pt 13.4494 35.3664 19.4902
Au 15.4248 33.4169 19.4621
Pt 15.4756 35.3928 17.5039
Pt 13.3923 33.3677 21.3924
Au 13.4059 35.3184 23.4174
Au 15.4194 33.3662 23.4781
Au 15.4595 35.4069 21.4434
Pt 13.3622 33.3736 25.4707
Au 13.4228 35.363 27.4441
Au 15.4177 33.401 27.4136
Au 15.4757 35.3933 25.4418
Au 13.3894 33.3727 29.4345
Au 13.4522 35.3954 31.4432
Pt 15.4031 33.4387 31.4947
Au 15.4423 35.4466 29.4472
Pt 13.4524 33.4093 33.4354
Au 13.466 35.4193 35.4102
Au 15.465 33.4304 35.4178
Au 15.4648 35.451 33.4115
Pt 13.4862 33.44 37.4281
Au 13.5214 35.3956 39.3921
Pt 15.5054 33.4578 39.4162
Pt 15.4476 35.4624 37.4574
Pt 13.5486 33.4594 41.3927
Pt 13.5962 35.3493 43.2495
Pt 15.5595 33.3996 43.354
Pt 15.5163 35.3918 41.3573
Au 13.6145 33.4412 45.314
Pt 15.5654 35.3972 45.0373
Au 15.2702 37.7661 7.49529
Au 13.2907 37.644 9.50409
Pt 13.4997 39.4937 11.6136
Au 15.3744 37.5093 11.4153
Pt 15.5143 39.533 9.62881
Au 13.479 37.497 13.4595
Au 13.4758 39.513 15.4769
Au 15.4773 37.4579 15.5227
Pt 15.3806 39.5795 13.4935
Au 13.523 37.3985 17.5369
Au 13.5147 39.3989 19.5116
Pt 15.5598 37.4491 19.4898
Au 15.5186 39.4546 17.5374
Au 13.494 37.3589 21.4567
Au 13.5828 39.3379 23.4552
Au 15.559 37.4556 23.4438
Pt 15.5827 39.4664 21.4667
Au 13.5206 37.3267 25.412
Au 13.5529 39.2747 27.4287
Pt 15.5112 37.4195 27.4309
Pt 15.6012 39.4835 25.4521
Pt 13.4633 37.3621 29.4484
Au 13.4939 39.312 31.4216
Pt 15.4707 37.3983 31.4499
Au 15.5623 39.3583 29.4124
Pt 13.4215 37.3837 33.4354
Au 13.3529 39.3731 35.479
Au 15.4417 37.4625 35.4502
Au 15.4984 39.3677 33.4421
Pt 13.4412 37.4152 37.4483
Pt 13.4984 39.2404 39.3801
Pt 15.4653 37.4127 39.4584
Pt 15.438 39.3739 37.5057
Pt 13.5529 37.2871 41.3269
Pt 15.4961 37.3401 43.2101
Au 15.3106 39.4726 41.4882
Pt 15.5289 41.4406 11.5926
Au 13.3311 41.5633 13.4146
Pt 13.555 43.2518 15.6298
Pt 15.4587 41.4117 15.5349
Pt 15.4987 43.277 13.6318
Pt 13.44 41.4056 17.5245
Pt 13.4977 43.2665 19.4765
Au 15.5486 41.4538 19.4971
Pt 15.4448 43.3744 17.5197
Au 13.5875 41.3628 21.5219
Pt 13.5539 43.4029 23.5321
Pt 15.575 41.5338 23.4951
Pt 15.4868 43.438 21.5059
Au 13.5967 41.3736 25.4635
Pt 13.5831 43.4545 27.3824
Au 15.5899 41.4556 27.4301
Pt 15.4947 43.4889 25.4678
Au 13.5611 41.3032 29.3774
Au 13.5463 43.2664 31.4076
Au 15.5734 41.3942 31.4159
Au 15.5429 43.4476 29.4023
Au 13.4461 41.3375 33.4612
Pt 13.5101 43.2636 35.2725
Au 15.4416 41.3782 35.4602
Pt 15.5658 43.3843 33.3775
Pt 13.4911 41.2081 37.3503
Au 15.2943 41.4006 39.4807
Au 15.3008 43.4122 37.4314
Au 15.4783 45.3041 15.5186
Au 13.4755 45.2877 17.5673
Pt 15.3723 45.2064 19.5125
Pt 13.4813 45.1816 21.5088
Pt 15.4204 45.2939 23.4955
Au 13.5017 45.5676 25.4829
Pt 15.5115 45.3287 27.4292
Pt 13.4996 45.2027 29.4331
Pt 15.4586 45.2338 31.4129
Pt 13.5108 45.0488 33.2933
Au 15.3982 45.2772 35.3341
Au 17.4708 7.41569 11.4618
Pt 19.697 5.75582 11.6269
Pt 19.6238 7.5775 9.64871
Au 17.5926 5.54849 13.5632
Au 17.5182 7.43585 15.5059
Pt 19.5948 5.60138 15.4889
Au 19.5198 7.51248 13.5206
Au 17.4972 5.33455 17.4793
Pt 17.523 7.39346 19.4351
Pt 19.4666 5.49656 19.489
Pt 19.519 7.31282 17.5142
Pt 17.4687 5.52258 21.3844
Pt 17.4916 7.35097 23.3661
Pt 19.3722 5.41814 23.2946
Pt 19.4688 7.33419 21.4236
Pt 17.4487 5.45855 25.2802
Au 17.5284 7.16134 27.4123
Au 19.3775 5.14634 27.4414
Pt 19.4896 7.15189 25.3648
Pt 17.4798 5.53015 29.58
Pt 17.5357 7.42288 31.4601
Pt 19.4447 5.49309 31.5658
Pt 19.533 7.20671 29.5032
Pt 17.5088 5.64311 33.4708
Pt 17.4957 7.58931 35.3694
Pt 19.4363 5.67224 35.4046
Pt 19.5073 7.44342 33.3957
Pt 17.5604 5.89022 37.3316
Pt 17.5525 7.65689 39.3379
Au 19.4505 5.64106 39.3716
Pt 19.5382 7.56063 37.3765
Pt 19.506 7.70075 41.2534
Pt 17.4811 11.5752 7.63425
Au 19.2925 9.347 7.50704
Pt 19.5305 11.5738 5.95557
Au 17.3632 9.41263 9.47168
Pt 17.4938 11.4549 11.4011
Pt 19.3876 9.50365 11.4508
Pt 19.4276 11.4727 9.39145
Au 17.446 9.43142 13.4502
Pt 17.4469 11.4377 15.4691
Au 19.5195 9.44131 15.5293
Pt 19.3957 11.4497 13.4627
Au 17.5521 9.45145 17.4813
Au 17.5076 11.4372 19.4342
Pt 19.5012 9.27492 19.4653
Pt 19.4397 11.4294 17.4661
Pt 17.5417 9.31592 21.3989
Au 17.4801 11.4096 23.3981
Au 19.4862 9.26227 23.448
Au 19.4937 11.3277 21.4411
Au 17.5159 9.25619 25.447
Au 17.5083 11.3694 27.4366
Au 19.5046 9.16957 27.4249
Au 19.4953 11.3139 25.4246
Au 17.5651 9.30577 29.4209
Pt 17.5642 11.4594 31.4307
Pt 19.5106 9.30939 31.4071
Au 19.4694 11.3668 29.4675
Pt 17.5728 9.4376 33.369
Au 17.4989 11.5202 35.4236
Au 19.4842 9.47622 35.3778
Au 19.4838 11.4574 33.3544
Au 17.4978 9.52952 37.4164
Pt 17.393 11.5088 39.4226
Pt 19.4746 9.57901 39.3316
Pt 19.434 11.5309 37.4346
Pt 17.5418 9.58478 41.244
Au 17.347 11.3728 43.4387
Pt 19.5407 9.61059 43.2172
Au 19.4359 11.5357 41.3982
Pt 19.5644 11.6008 45
Au 17.4444 13.4689 5.63151
Pt 17.4902 15.4852 7.53621
Pt 19.4847 13.6148 7.51176
Au 19.3916 15.4517 5.36833
Au 17.5088 13.4844 9.47418
Au 17.5015 15.4945 11.4426
Pt 19.4461 13.4872 11.4136
Pt 19.4765 15.5233 9.42962
Au 17.5014 13.4185 13.4314
Pt 17.4486 15.4008 15.3914
Au 19.44 13.4143 15.4526
Pt 19.4247 15.4617 13.435
Pt 17.4402 13.4369 17.3789
Pt 17.4212 15.4018 19.3536
Au 19.4455 13.4559 19.3882
Pt 19.371 15.4138 17.3641
Au 17.4453 13.4732 21.4148
Au 17.4563 15.4712 23.4305
Au 19.4846 13.3913 23.4422
Au 19.4415 15.4448 21.4019
Au 17.4761 13.461 25.4147
Au 17.4732 15.4613 27.4811
Au 19.4342 13.4192 27.4671
Pt 19.4315 15.4496 25.4444
Pt 17.5084 13.4975 29.5215
Pt 17.4451 15.4507 31.4581
Pt 19.4433 13.4669 31.4469
Pt 19.4206 15.4252 29.5237
Au 17.4636 13.4764 33.4062
Au 17.4445 15.4683 35.4666
Pt 19.4359 13.4767 35.3881
Pt 19.4234 15.4308 33.4031
Pt 17.4447 13.477 37.4696
Au 17.4641 15.524 39.4715
Au 19.4471 13.5078 39.4326
Au 19.4432 15.469 37.4412
Au 17.3844 13.4475 41.4703
Pt 17.5329 15.6196 43.3514
Au 19.4977 13.5932 43.3546
Au 19.493 15.6102 41.4595
Pt 17.4861 13.5968 44.9892
Au 19.4624 15.4644 45.5294
Pt 17.3886 17.462 5.68363
Pt 17.489 19.4716 7.40217
Au 19.5205 17.435 7.31572
Pt 19.458 19.4545 5.55026
Au 17.5419 17.4956 9.42653
Au 17.4924 19.3875 11.4537
Pt 19.486 17.4687 11.4229
Pt 19.5128 19.4305 9.28771
Pt 17.4793 17.3816 13.432
Au 17.4709 19.3822 15.3837
Pt 19.4204 17.377 15.4029
Pt 19.4492 19.3415 13.418
Pt 17.4439 17.3527 17.3299
Au 17.3957 19.4689 19.4216
Au 19.379 17.3985 19.362
Au 19.4171 19.4296 17.3823
Au 17.4079 17.4376 21.4322
Au 17.4127 19.4471 23.4153
Pt 19.412 17.4387 23.4109
Au 19.4194 19.4501 21.4248
Au 17.4524 17.4557 25.4065
Au 17.4251 19.4372 27.472
Au 19.4171 17.4112 27.4853
Au 19.4282 19.4501 25.4191
Pt 17.4346 17.388 29.5283
Pt 17.378 19.37 31.4449
Pt 19.4067 17.3678 31.4583
Au 19.3763 19.4038 29.5099
Au 17.4267 17.4269 33.4218
Au 17.4403 19.4188 35.481
Au 19.4443 17.4555 35.4657
Au 19.4087 19.4289 33.4252
Pt 17.4555 17.4931 37.5108
Pt 17.4892 19.4583 39.4935
Pt 19.4259 17.5595 39.5052
Pt 19.4188 19.4674 37.5241
Pt 17.4854 17.5952 41.4817