3871
Atoms. Timestep: 21254
Au 32.7583 19.8561 10.7977
Pt 17.2296 8.93227 28.5836
Pt 29.6724 12.5368 20.971
Pt 20.2752 23.2399 38.3079
Pt 12.8971 38.3156 12.9299
Pt 21.4391 34.0638 9.59062
Au 9.25058 28.1392 38.5881
Pt 14.3679 37.9628 28.5317
Pt 26.5602 7.78928 28.5029
Pt 19.9377 11.0467 33.8827
Au 24.5468 31.65 44.5745
Pt 15.3622 37.2542 26.0631
Au 26.2645 38.2907 8.34024
Pt 7.54407 22.9265 31.4457
Pt 5.94031 34.692 19.2096
Pt 30.9367 28.1104 16.0426
Pt 30.1008 40.6703 13.5087
Au 18.2795 8.99375 40.6331
Pt 23.0236 16.6298 34.8681
Au 9.87954 39.7859 33.8805
Pt 4.20682 28.8935 25.4413
Au 14.8471 40.1744 37.475
Pt 30.7134 16.6065 21.5171
Au 27.5142 30.8344 40.6297
Pt 22.7366 13.2783 19.5419
Au 9.011 38.9282 23.5516
Pt 26.6665 27.0727 24.0581
Pt 8.84997 17.9543 23.506
Pt 25.2222 21.5785 28.3217
Pt 24.0084 28.7345 29.1658
Pt 26.3435 6.55457 36.4076
Au 9.68463 11.4181 19.8002
Pt 11.5879 20.3693 25.6955
Pt 9.13317 15.9329 30.2355
Pt 15.9316 7.05665 30.4791
Au 27.4804 29.093 10.3162
Pt 25.2844 17.1494 14.4034
Au 20.1104 17.3937 42.3804
Pt 14.2757 10.646 37.2407
Au 17.1927 22.7385 46.9138
Pt 9.03808 26.8261 35.0593
Pt 13.7187 39.6083 26.3639
Pt 8.87443 35.7598 33.1133
Au 6.87225 14.5135 17.1309
Pt 19.1881 31.8743 19.1905
Pt 11.1454 21.0487 32.2
Pt 22.6979 13.3523 31.0643
Au 5.35925 23.6921 13.1141
Pt 11.1764 19.8312 14.9239
Au 33.2058 18.8312 3.42886
Pt 23.0135 38.8483 13.9471
Pt 33.0102 30.6679 33.9698
Pt 9.70904 26.447 28.2725
Au 4.22036 20.4264 14.7484
Pt 38.1329 35.1536 18.9053
Pt 30.9512 14.4651 19.3287
Pt 10.7209 24.8639 25.9963
Au 29.336 14.9088 14.3389
Au 36.2197 14.3128 17.2688
Pt 27.6336 17.2875 18.1251
Au 1.3053 18.7465 23.6407
Pt 19.2604 38.2214 36.6129
Pt 20.552 28.3107 34.077
Pt 12.8924 32.7482 27.2845
Pt 13.253 28.1897 14.9102
Pt 7.90101 23.8215 18.8919
Pt 38.0938 13.2924 36.9898
Au 2.76719 34.8076 21.3228
Au 35.9525 38.6632 38.6148
Pt 17.914 14.4598 36.0751
Au 22.7415 5.57528 41.1145
Pt 31.5824 28.2601 30.0757
Pt 16.16 28.0056 34.1889
Pt 36.3948 15.0403 33.4063
Au 0.277787 25.9409 25.6044
Au 9.2968 30.0384 32.3256
Au 21.7708 3.42706 31.142
Pt 25.7713 21.9616 38.1304
Pt 17.1946 22.539 19.6539
Au 11.9305 11.248 39.6525
Au 16.0337 26.0438 5.16091
Pt 10.9219 30.1776 21.4803
Au 1.54267 21.8188 19.1374
Pt 13.0788 31.1318 35.8687
Pt 10.8421 15.9427 22.8412
Pt 4.99689 21.6684 24.5339
Pt 22.2131 29.1645 9.99591
Au 14.5697 42.5604 12.0786
Pt 32.8581 10.3389 18.8205
Au 6.99338 16.0796 14.7883
Pt 31.3889 12.365 17.725
Pt 10.6025 33.8215 24.0765
Pt 25.2921 17.5976 30.2787
Pt 17.5038 25.9926 17.1561
Au 11.9611 9.76085 15.4352
Pt 13.3937 30.5815 22.6122
Pt 23.1008 35.3594 27.5741
Pt 26.2898 34.0398 21.8453
Pt 27.4126 26.24 32.6554
Pt 19.5919 25.135 28.6168
Pt 19.0535 18.4048 34.2937
Au 36.4834 18.6326 46.3015
Pt 13.4491 24.593 25.3629
Pt 17.0971 11.0997 36.5456
Pt 26.855 15.7577 37.2544
Pt 21.7074 7.33327 28.501
Pt 22.0035 25.3606 37.9586
Pt 22.4731 21.5706 34.905
Au 18.9669 16.0328 44.6565
Pt 23.6983 13.6909 22.5101
Au 5.75531 18.827 36.8575
Pt 32.1537 15.3448 29.4369
Au 9.15286 35.0381 10.6767
Au 36.6256 15.182 38.9215
Pt 15.8007 26.3495 36.2695
Pt 10.5174 36.9219 19.5232
Pt 20.1956 10.0041 24.2981
Pt 20.828 10.9299 31.3288
Pt 17.6709 43.0452 29.1639
Au 6.4022 21.1519 13.195
Au 35.1951 33.6541 14.2894
Pt 21.222 25.3985 42.368
Pt 25.0106 14.4172 14.732
Pt 23.7998 26.6758 30.9529
Pt 6.14222 21.2058 17.9113
Pt 22.5217 32.8959 33.8281
Au 39.6384 25.066 13.5731
Au 21.4432 40.8586 42.9397
Au 47.4749 23.3715 31.5039
Pt 10.6663 15.5961 28.0761
Pt 25.5407 25.129 18.5062
Pt 18.7475 24.0949 21.3768
Pt 36.2484 33.4352 30.7894
Pt 20.9655 8.75905 15.855
Pt 16.8595 41.5485 12.893
Pt 14.3256 19.476 38.5858
Pt 42.8064 20.0304 39.5615
Pt 13.9108 9.35337 17.3923
Pt 17.9901 13.5701 29.5276
Pt 7.26355 20.0918 30.9617
Au 15.303 28.6123 6.07025
Pt 20.384 31.1143 34.5441
Pt 18.1573 26.396 19.9791
Pt 9.25334 22.3403 34.0105
Au 0.132968 24.2555 23.5644
Au 14.975 6.37536 34.9913
Pt 14.1616 19.8631 35.9794
Pt 12.3411 31.9552 24.7079
Pt 30.5613 5.52893 33.7367
Au 37.6809 21.3507 45.959
Au 20.6325 38.4509 44.0715
Pt 17.6186 8.21049 37.5918
Au 37.4647 5.8804 30.5564
Pt 22.4793 35.9075 19.563
Pt 16.4393 18.167 18.6766
Pt 32.0303 32.9012 38.1715
Pt 17.4273 31.6962 14.8449
Pt 16.5278 21.3175 40.0043
Pt 21.9568 32.0684 22.0547
Pt 10.6539 13.1783 23.6725
Pt 24.7474 28.1697 19.1205
Pt 16.4343 22.6415 31.9632
Pt 8.34499 30.8436 19.3391
Au 27.2632 25.2733 12.9707
Au 21.844 34.5645 46.1703
Pt 16.514 7.20641 23.5684
Pt 11.5331 31.618 38.3909
Au 11.1405 31.6706 41.0936
Pt 16.0844 30.2846 39.507
Pt 18.8578 28.3466 12.0862
Au 41.0744 18.1898 41.0151
Pt 32.7797 6.48361 19.8993
Pt 19.2703 37.8367 11.4985
Pt 21.4473 33.998 24.2174
Au 20.9943 19.9911 46.6411
Au 34.4565 3.18947 28.4706
Au 11.9318 41.6771 33.8942
Pt 28.9421 14.6323 22.3101
Pt 34.5966 15.2475 25.6086
Au 10.0729 10.0795 17.3327
Pt 8.79295 20.8152 14.5293
Au 35.2493 21.0084 47.1019
Pt 17.5123 26.4993 38.3273
Pt 9.69248 31.2219 24.0678
Pt 19.9593 42.7462 23.3167
Pt 25.1949 12.73 29.8066
Pt 33.6122 40.7823 23.1721
Pt 25.3135 21.0631 16.5983
Au 1.91874 29.5831 16.4743
Pt 6.10498 35.1292 25.0176
Au 39.1232 13.8949 12.6577
Pt 21.3387 23.3172 32.9465
Pt 28.7065 38.6587 35.6417
Pt 26.2692 31.8405 32.8303
Pt 27.8732 7.96628 23.4922
Au 25.0255 35.9043 46.6408
Pt 22.9776 12.6972 25.133
Pt 14.3896 33.5537 11.3394
Pt 30.0394 24.7064 13.0942
Pt 15.439 20.1005 15.4761
Pt 20.5478 14.7841 14.5343
Pt 23.8337 20.4401 25.9022
Pt 23.7728 38.2318 9.71252
Pt 11.1262 17.7083 26.2808
Pt 6.9634 31.0732 23.5975
Pt 36.5373 37.0655 20.3523
Pt 26.8286 7.35958 31.1179
Pt 11.3086 31.9897 31.5835
Au 25.7684 11.2893 11.4376
Au 33.9023 23.4853 47.7899
Au 22.9532 24.5945 0.724404
Pt 25.7537 40.1765 14.4614
Pt 26.6937 31.0143 35.3054
Au 14.988 23.8956 6.56105
Au 39.7258 24.9802 10.5173
Pt 23.0958 36.253 14.6213
Pt 6.87601 36.0844 27.3197
Pt 21.6322 37.5298 33.1184
Au 29.8602 24.1092 40.7205
Pt 36.747 38.4005 14.882
Pt 31.4072 42.8686 18.4624
Pt 11.3035 39.5414 17.4308
Pt 23.032 35.5913 34.4509
Pt 17.9481 16.1282 33.8639
Pt 7.55936 27.1156 21.7598
Pt 20.2907 22.6322 23.2197
Pt 3.00539 26.5041 25.1988
Au 35.4616 23.405 7.92385
Au 34.2016 16.443 30.7924
Pt 20.4235 16.9366 19.6507
Pt 14.0641 38.8524 17.1072
Au 27.7017 31.3736 4.13179
Pt 17.2075 16.718 39.4253
Pt 38.1849 35.4134 21.7065
Au 6.56876 35.0309 29.6379
Pt 14.0892 26.329 40.1595
Au 9.63659 9.62401 29.6899
Pt 10.7901 34.5423 17.9002
Au 17.9153 38.4964 40.6632
Au 6.03049 36.0205 33.8085
Pt 11.9655 31.7216 10.935
Pt 16.0694 9.7136 38.904
Au 47.907 32.3226 20.1782
Pt 15.6869 34.5569 37.086
Pt 17.2639 23.2598 16.7772
Pt 21.1937 40.2249 36.6301
Pt 28.3844 33.8176 10.6654
Au 24.1487 4.30442 17.7429
Pt 9.47925 30.3245 15.4922
Pt 16.7218 30.2916 25.7587
Pt 13.2743 37.5555 24.4748
Pt 5.14795 31.4664 25.7259
Au 24.125 41.079 43.6903
Pt 15.6031 14.7333 25.769
Pt 30.3876 32.8212 27.8861
Au 18.8772 19.1908 13.7056
Pt 15.1574 18.5941 40.8663
Au 22.4625 42.9222 37.1
Pt 16.2944 35.2131 12.4373
Pt 12.7407 29.1453 10.1677
Pt 34.8716 17.6231 22.0466
Pt 8.29989 30.1289 12.9671
Pt 12.9583 36.3736 33.0132
Pt 18.1472 5.68935 29.8639
Pt 13.2283 20.1046 33.6324
Au 42.3603 19.4633 27.59
Pt 14.2652 36.0635 30.4744
Au 44.8493 28.8794 36.1446
Pt 28.3973 24.7793 34.7999
Pt 15.9105 7.24401 16.8499
Au 7.9264 38.0333 33.9871
Pt 17.3504 43.0493 24.5296
Pt 21.4761 36.6929 10.3049
Au 16.48 8.01411 14.0839
Pt 15.6432 39.4892 30.3831
Pt 27.5712 9.99912 27.3119
Pt 17.0152 15.9502 30.1132
Pt 14.7626 22.2458 17.379
Au 1.48111 24.8898 29.3555
Au 4.31518 37.3576 21.8492
Pt 6.54684 21.1363 33.1842
Pt 12.7866 13.659 15.5383
Pt 16.7161 25.3963 33.9067
Pt 14.147 42.8578 20.4551
Au 44.6681 19.1074 29.0734
Pt 21.0134 11.3291 26.5976
Au 31.9561 27.9958 4.57892
Pt 18.1078 16.2073 17.9915
Pt 15.2466 34.5364 18.0801
Au 36.3605 8.51573 41.0171
Au 43.755 24.4515 35.4897
Au 42.9852 29.2189 34.0622
Pt 26.2748 7.38218 33.747
Pt 16.0714 40.8472 16.955
Pt 21.5818 19.32 27.2641
Au 28.5337 4.80636 36.7401
Pt 17.9062 36.159 16.6193
Au 40.7901 30.5988 18.1736
Pt 16.1453 22.9015 25.2598
Au 15.2133 31.1634 42.0491
Au 32.5739 20.1668 41.1171
Pt 23.5106 38.3874 40.0031
Au 0.664569 25.3295 20.9305
Au 36.3135 24.382 3.1436
Au 36.2648 21.0365 15.0191
Au 3.31301 17.5529 30.4425
Au 9.95282 43.2775 23.3108
Pt 18.6416 35.0535 29.8689
Pt 30.0044 12.7584 24.0884
Au 43.6142 12.6753 33.9073
Pt 24.8066 17.9017 18.9543
Au 17.7707 40.0622 8.02635
Pt 15.3089 16.9288 27.7083
Pt 31.8962 34.9321 36.1952
Au 7.00329 11.8494 19.6831
Pt 12.3896 35.4 22.9538
Au 14.9598 24.3904 46.4276
Pt 26.87 25.5594 39.2969
Au 22.3854 24.5509 3.47221
Au 18.8024 35.5056 5.82858
Pt 13.0562 33.8013 19.4679
Au 24.4342 3.12798 30.7029
Au 27.2118 26.3433 9.87893
Au 13.1959 8.67706 35.4964
Pt 19.5137 24.5119 15.7163
Pt 19.1313 27.003 15.0391
Pt 26.1586 29.7889 24.346
Au 30.6194 45.8836 15.2247
Pt 17.9666 44.6243 27.017
Pt 17.4613 13.7865 21.3823
Au 40.9295 8.1055 26.6259
Au 17.38 3.52083 19.251
Pt 13.2496 24.1529 29.858
Pt 17.2615 34.3449 22.6257
Au 12.6306 14.8427 42.4926
Pt 22.3308 46.946 24.0242
Pt 8.25169 22.1996 16.7239
Pt 14.6643 23.2541 27.4605
Au 31.0615 18.8708 45.8442
Pt 12.6047 21.7 19.0613
Au 0.118799 22.8323 25.8809
Au 45.0682 33.0123 15.2763
Au 25.3192 30.938 2.87674
Pt 13.2093 21.5375 15.1002
Pt 36.2514 36.9291 17.6521
Pt 19.064 30.9683 16.814
Au 37.282 25.633 19.9429
Au 49.3835 29.4339 20.7586
Au 31.4991 25.0057 10.8741
Au 18.1978 16.4487 6.34961
Au 45.4803 22.0193 14.0981
Au 41.5605 11.5172 23.3737
Au 22.0746 30.5036 43.6597
Pt 22.6795 43.209 22.2806
Au 36.3551 43.4034 37.0617
Pt 21.9849 8.47745 23.0482
Au 1.63739 19.746 31.0677
Pt 12.7362 12.6767 37.3746
Au 14.6533 19.4042 7.69679
Au 12.8686 43.1411 31.7012
Pt 15.211 11.3458 25.0701
Au 42.6773 31.1809 40.2979
Au 32.7237 23.5685 29.4012
Au 29.3289 27.2561 3.25411
Pt 19.6743 38.17 24.5526
Pt 28.5101 36.2291 17.2543
Au 24.7091 47.16 19.9894
Pt 11.0506 15.6283 15.5851
Au 2.28268 19.2433 18.9832
Pt 13.8411 28.8692 33.2373
Pt 15.9687 12.4463 38.6713
Au 45.0671 19.3081 33.0546
Au 23.1215 3.69259 28.3165
Pt 28.6901 29.8593 33.1627
Pt 4.66698 29.507 16.49
Pt 25.5287 39.8874 38.6054
Pt 12.023 41.7578 25.1845
Au 11.8348 6.92629 25.9023
Au 12.39 11.6771 17.6426
Au 41.4379 32.7221 30.3587
Pt 8.56618 14.9693 23.7548
Au 21.072 34.1148 4.59907
Pt 15.1176 36.2056 35.09
Au 43.0446 13.5916 36.4449
Au 7.15354 20.3062 38.5478
Au 41.0938 18.0384 29.7395
Pt 25.8627 34.4841 40.331
Pt 6.49354 19.3227 24.4859
Au 39.1009 34.2613 10.2636
Pt 15.5878 21.5168 34.4838
Au 30.9984 6.56085 36.2678
Pt 25.487 10.2919 28.9
Au 43.4218 34.8122 30.3557
Au 16.8064 18.0399 11.5799
Au 16.9211 14.9216 8.16556
Pt 26.164 27.736 30.8372
Au 33.6506 9.9798 14.2713
Pt 13.9863 34.8828 13.7952
Au 4.86809 27.854 32.6138
Pt 28.0669 19.6215 24.3721
Au 31.2113 39.0693 6.20393
Au 41.6127 14.5486 19.2798
Pt 32.5314 8.80734 21.1671
Au 25.1619 44.3022 33.0596
Au 32.9561 17.2723 11.9727
Pt 20.0155 33.6612 34.8646
Pt 7.80026 23.1078 28.6956
Pt 23.1403 28.2747 34.3451
Pt 34.4508 38.2122 21.7459
Au 8.61824 24.1746 35.9297
Au 2.43763 23.9376 17.4812
Pt 21.2354 14.4575 26.7551
Au 11.8111 18.1156 36.7849
Pt 24.476 15.7626 38.5733
Pt 20.7954 13.0194 21.5447
Pt 3.35044 28.0276 23.0245
Pt 5.90342 26.5835 25.4939
Au 21.8847 37.3648 22.9354
Pt 21.6447 28.2146 6.25683
Pt 23.6431 6.84125 24.7276
Pt 17.3528 37.0824 33.7802
Au 23.5394 12.584 44.3575
Pt 13.796 21.9875 39.0985
Au 15.1287 19.6427 10.3712
Pt 23.7397 26.0564 20.4148
Au 37.2772 24.7197 5.63096
Pt 38.6285 36.836 16.5789
Au 36.165 27.0939 38.0534
Au 41.2485 38.3065 11.8206
Au 37.0512 24.1842 34.3388
Pt 12.3807 32.1606 17.3923
Au 42.4471 33.2504 25.2812
Pt 21.1672 39.7763 18.217
Au 48.8042 31.409 27.5423
Pt 19.4971 33.5397 21.3086
Au 47.7192 18.5515 33.2213
Au 41.5816 26.7398 33.6663
Pt 23.1239 43.5315 19.4001
Au 42.8053 28.589 26.571
Au 42.7492 21.3326 43.8075
Au 42.3175 24.0674 9.78998
Au 26.249 19.8654 36.2397
Au 47.12 21.4249 33.5554
Au 47.7865 24.6277 34.0149
Au 44.3376 38.4936 26.2487
Pt 35.4222 36.7159 30.729
Au 40.2037 29.4886 27.0428
Pt 2.06042 24.3468 26.74
Au 43.9926 32.3083 29.4853
Pt 3.05189 26.5752 20.8389
Au 23.4774 9.4979 12.0679
Au 29.1738 25.0137 48.3675
Au 1.73635 26.9951 27.6253
Au 15.7702 19.2849 43.504
Pt 16.5411 12.6093 27.185
Pt 11.0798 16.4888 19.3084
Pt 18.683 24.905 42.6109
Pt 25.9095 6.09806 23.6818
Pt 26.0581 7.64917 21.272
Pt 26.6529 45.7908 22.9276
Pt 17.1349 18.1043 31.652
Au 37.0314 42.4829 29.4954
Pt 25.0661 45.059 28.1514
Au 9.02542 13.4325 29.0312
Pt 16.0056 24.8111 18.8978
Au 37.4169 23.1694 9.86089
Au 34.4804 29.8675 17.1221
Au 40.261 41.5597 28.0125
Au 37.3712 7.93702 32.5476
Au 43.967 19.9461 18.1465
Pt 28.5581 21.591 18.9469
Pt 19.6785 36.1871 20.521
Pt 14.8678 32.2741 25.5434
Au 44.0678 18.825 37.5276
Au 33.0589 24.5261 43.1951
Au 22.4365 34.8568 7.16168
Au 23.3359 32.6271 3.45994
Au 13.2016 11.3862 22.9934
Pt 15.5115 33.2348 27.9262
Au 39.4482 19.8176 27.7744
Au 40.9633 24.4735 40.8922
Pt 29.8885 43.23 16.1018
Pt 10.446 38.1465 14.3086
Au 14.9218 31.7042 6.45155
Pt 15.8726 30.1857 16.5583
Au 19.3066 3.19341 29.9668
Pt 14.8343 9.26083 23.2726
Pt 11.2321 23.4628 36.8582
Au 34.2077 46.0482 30.0945
Au 38.584 19.2098 44.6852
Au 16.4304 14.797 44.2413
Pt 34.0552 34.6237 29.8075
Pt 36.6301 12.419 29.1891
Pt 24.376 33.2923 42.315
Pt 21.026 16.631 8.9996
Au 29.0446 2.80218 23.4973
Au 24.3299 36.3022 41.6651
Au 23.7126 9.69293 37.757
Pt 10.2556 27.5268 22.0332
Pt 14.0503 29.7762 25.1029
Pt 15.2268 37.31 13.6795
Pt 22.5889 31.8125 10.6929
Au 14.802 28.552 43.3664
Au 15.8839 46.204 27.9195
Pt 4.1314 24.2417 25.0878
Au 15.9051 19.595 27.0567
Pt 24.2852 29.3415 31.8137
Au 14.4575 16.8175 43.4067
Pt 23.1174 39.1299 31.7492
Au 0.98576 22.1858 28.4085
Pt 35.6833 24.4894 21.9262
Au 42.8476 26.6008 19.9738
Au 5.55292 13.631 32.5855
Au 27.2314 23.8077 8.70905
Au 10.8044 8.90953 34.2624
Pt 16.4418 34.48 15.1184
Pt 22.8818 15.9068 15.7581
Au 33.8111 18.7369 45.9156
Pt 14.9342 42.2097 29.9375
Au 23.0441 44.8029 10.1442
Au 3.66624 25.7501 13.4945
Au 23.2871 29.9304 4.75671
Au 18.7515 45.6721 34.1194
Pt 15.0087 37.2653 19.4288
Pt 13.0656 34.5418 16.2528
Au 32.359 17.1162 14.9019
Pt 21.393 29.519 23.2127
Pt 21.588 28.1352 31.3377
Au 17.9056 37.7763 44.1378
Pt 28.4472 35.8346 22.3861
Pt 10.7229 27.2706 32.8214
Au 17.9059 3.97092 27.7198
Au 27.4793 19.8568 43.2416
Au 40.295 4.31114 23.8352
Pt 33.7462 41.4342 32.8517
Pt 30.0692 42.8536 37.9592
Pt 4.55256 24.9213 15.8965
Pt 22.4944 34.5515 30.4166
Au 5.7475 14.4633 35.3341
Pt 23.1743 23.5706 42.9884
Au 37.9542 26.9547 17.5966
Pt 15.9111 32.5309 13.0649
Au 7.56267 31.3223 35.5411
Pt 18.3393 33.9539 37.5383
Pt 24.1704 5.98334 34.6884
Pt 9.86238 18.8658 30.5588
Pt 25.6528 37.7495 13.5853
Pt 19.9994 27.2049 37.841
Pt 18.9629 38.3542 22.0558
Pt 18.0462 40.0563 10.6968
Au 7.30467 40.2175 19.8607
Au 43.1092 29.1151 18.8202
Au 13.7316 16.0581 24.1497
Pt 25.9155 7.91847 25.9094
Au 36.6429 17.7366 6.28297
Pt 19.5866 30.5785 29.143
Pt 15.413 32.7219 8.90753
Pt 20.9097 30.2529 12.1293
Pt 16.7304 36.1058 39.3251
Pt 10.6314 34.6791 20.8468
Pt 17.2859 31.2274 28.0937
Pt 28.569 7.8817 26.1029
Au 28.7366 33.9534 7.86352
Pt 18.4703 34.4213 40.2365
Pt 10.8841 20.9543 21.061
Pt 18.5914 15.711 10.0772
Pt 24.8108 12.2233 32.3517
Au 29.3355 42.1053 40.7167
Au 36.7495 40.9668 39.7546
Au 23.7499 20.3393 8.51265
Au 41.683 6.60178 23.1105
Pt 12.1621 39.9222 14.9836
Au 22.0405 10.7056 35.7258
Pt 39.9044 40.1158 19.7599
Au 13.207 25.942 44.515
Pt 32.5932 36.9163 20.2484
Pt 28.6151 39.9613 31.718
Pt 14.747 30.3041 14.1488
Au 45.9534 34.7611 29.1174
Au 17.7191 6.93128 42.041
Pt 28.0036 43.207 36.2352
Au 28.8 12.2395 43.6317
Pt 16.6618 23.2918 42.2837
Pt 9.94649 25.298 13.5422
Pt 16.247 28.3661 27.6339
Pt 26.6316 39.6989 34.0209
Pt 19.1728 17.4524 24.0511
Pt 21.4316 28.8139 28.5369
Pt 12.5921 38.6451 19.482
Pt 25.1088 45.1364 18.1498
Pt 19.0156 19.005 18.8302
Pt 37.8683 26.9171 22.5283
Au 38.4028 20.0154 37.0229
Pt 4.40851 18.6187 20.4179
Pt 14.2511 38.3517 21.758
Pt 16.3793 8.58535 26.0319
Au 19.3132 38.1845 6.66548
Pt 29.1978 13.1882 33.2569
Au 20.43 11.707 11.3161
Pt 11.1864 29.3599 37.0117
Pt 27.4715 28.4527 20.4109
Pt 21.6996 18.8701 35.4473
Pt 20.1322 38.914 9.20308
Au 35.7805 25.3803 16.7519
Pt 8.15876 14.2713 32.1063
Pt 14.5699 26.4968 29.3167
Pt 19.2293 12.3644 14.026
Pt 35.732 15.1539 21.7222
Au 33.3852 17.3231 8.94805
Pt 18.311 19.1469 25.7717
Pt 37.0623 7.0125 23.0505
Au 31.5064 25.7127 34.5654
Au 26.9699 23.1086 40.4676
Pt 42.7277 18.8339 20.2538
Pt 10.2718 23.4203 31.5015
Pt 28.8653 33.2803 21.2079
Pt 21.8527 26.3776 15.5987
Pt 15.6254 15.6322 35.2053
Pt 34.7944 10.7567 30.6633
Pt 43.3959 22.9088 31.1897
Au 23.4097 9.69412 15.2033
Pt 19.8592 40.7342 25.2989
Au 34.9454 17.0001 4.2814
Pt 25.7425 12.2071 18.4475
Pt 10.5206 18.2919 21.3835
Au 10.976 6.64457 22.9382
Pt 23.2299 24.283 34.7632
Au 41.0585 31.5005 22.0682
Pt 4.71667 23.1128 22.323
Au 48.8656 26.6319 35.804
Pt 32.7085 7.97408 17.7473
Pt 33.1246 40.1746 25.859
Au 31.7435 26.2752 41.4815
Au 36.3885 17.7627 37.8698
Au 24.0648 17.0239 45.6352
Au 32.3466 25.3583 5.76845
Au 22.4825 32.2057 6.06542
Au 25.8432 44.9966 10.2462
Au 13.4435 8.9633 39.286
Au 4.61938 18.8324 17.5649
Pt 12.6575 20.7696 23.1698
Pt 18.4148 27.213 35.5152
Pt 28.1335 44.6551 17.7455
Pt 36.0716 31.8054 16.1259
Pt 22.5584 21.7296 28.0543
Au 10.6212 38.518 29.4056
Pt 17.1806 5.80015 25.7068
Pt 20.9562 33.6468 26.7691
Pt 13.0768 14.6921 19.6215
Pt 19.4854 29.9557 31.7648
Au 20.4898 26.1919 4.28448
Au 5.05694 37.1992 29.2063
Pt 31.1081 38.0975 26.9093
Au 45.1778 33.1266 20.4209
Pt 19.5079 27.4732 24.5059
Pt 24.0865 22.4814 40.2487
Au 32.6375 36.6348 5.98849
Pt 10.7875 13.7875 31.2258
Au 35.0662 29.8453 20.2596
Pt 14.056 21.2868 25.4608
Au 35.0613 34.7922 9.55454
Au 39.776 9.05398 19.3948
Pt 31.1259 25.6781 23.7068
Pt 24.2137 13.9843 17.3158
Pt 29.0678 26.3638 16.7602
Au 42.6265 41.453 23.6546
Pt 7.92893 23.5177 14.3776
Au 27.0839 12.6675 13.6395
Au 24.3068 46.598 11.9879
Au 39.0982 36.8567 33.228
Pt 17.4608 9.90218 33.9115
Au 35.9152 45.0973 19.8962
Au 28.4872 21.7158 7.35431
Au 38.2996 18.785 18.8281
Au 8.90116 30.7615 37.9498
Au 36.7778 15.4978 36.0048
Au 33.9104 46.1314 21.3469
Pt 14.1914 40.3001 34.7915
Au 13.8364 35.681 42.0958
Pt 19.7904 5.27472 25.8453
Au 36.2482 13.7297 24.0691
Pt 15.7549 15.0849 38.0485
Pt 15.5939 16.0302 32.5376
Pt 21.8571 8.35698 31.2284
Pt 35.951 18.9034 27.3361
Pt 27.1104 13.2897 20.6766
Pt 23.4035 10.7448 30.5779
Pt 22.0266 35.9306 43.1154
Pt 11.0388 33.0222 15.2575
Pt 11.5237 15.904 34.9172
Pt 26.5919 32.7349 19.3641
Au 48.9413 20.2841 26.2489
Pt 7.16303 30.8058 16.7262
Pt 22.4973 21.331 16.9437
Pt 31.9953 35.5253 38.772
Pt 19.4237 39.9247 38.6809
Pt 20.6784 45.8172 26.4638
Pt 29.2455 34.1892 29.9551
Au 44.7918 21.193 23.6413
Au 22.4131 15.0382 44.8387
Au 37.0394 19.9182 39.4886
Au 40.8397 35.3755 25.3325
Au 32.0149 15.2293 10.2844
Au 41.7471 35.9449 39.4312
Pt 35.1848 21.2099 9.90142
Pt 20.303 21.9723 15.564
Pt 37.1143 5.93747 25.8073
Pt 15.7644 22.6504 14.5769
Au 14.9554 15.8636 40.8382
Au 29.5858 26.3906 5.80429
Pt 19.1481 37.747 29.4829
Au 37.5816 25.0761 39.7729
Pt 22.5889 45.2728 29.1295
Au 19.0094 45.4429 12.3985
Pt 8.81333 32.5333 30.6983
Pt 11.9725 20.7915 37.2678
Pt 14.9409 24.7522 16.3755
Au 41.9991 38.921 14.2481
Pt 31.8033 20.59 29.2046
Pt 30.6009 31.3299 19.2263
Pt 25.3848 8.69123 16.6824
Au 21.1798 28.8841 45.8616
Au 7.57733 26.17 37.4425
Pt 11.0781 25.0387 34.7126
Au 15.5393 4.63119 23.8611
Pt 3.60313 18.4764 27.51
Pt 6.92147 29.2726 33.8347
Au 4.37128 29.832 30.1899
Pt 32.8318 27.3914 24.8631
Au 10.6558 42.7006 20.7513
Pt 10.695 32.3305 19.5226
Au 22.5302 5.66727 19.4135
Au 24.761 26.0646 48.218
Au 40.3085 27.9705 29.4965
Au 44.0079 19.6863 15.2654
Au 19.8645 38.9443 27.2647
Au 15.9026 9.14941 11.7035
Au 4.58588 13.8385 27.878
Au 44.1704 20.2252 12.5935
Pt 37.6667 22.956 20.5617
Au 34.0915 12.2434 16.9766
Au 35.1004 21.6843 2.87281
Pt 13.4037 18.4897 14.7618
Pt 18.5562 31.454 12.1237
Pt 27.2996 26.3276 26.7169
Au 40.1043 16.0764 21.0458
Au 3.26241 30.9202 14.5231
Au 12.7318 23.6553 9.3857
Au 31.6666 3.21643 33.2513
Au 34.0437 39.7268 36.5019
Au 29.7074 25.8539 8.59096
Au 31.5827 28.3169 1.88548
Au 34.2711 12.2356 12.9469
Pt 12.8942 26.5117 17.6209
Pt 23.3698 32.7699 28.8198
Au 5.73042 12.3813 21.9484
Au 23.0898 17.7291 7.48282
Pt 32.1871 35.6401 28.0101
Au 33.4379 29.5848 44.7079
Au 11.1303 14.4671 13.2285
Au 29.8734 32.0304 42.2838
Pt 10.6082 10.8193 22.3382
Au 9.30372 24.3721 38.7944
Au 36.5631 22.8684 43.8176
Au 37.4989 29.0991 33.3024
Pt 11.0603 15.2932 25.2933
Pt 21.5309 27.4424 40.0758
Au 25.1795 30.0681 42.3059
Au 24.9649 23.3624 48.5198
Pt 28.8177 24.26 10.8691
Pt 18.4585 22.0403 36.4189
Pt 21.327 31.23 8.41209
Au 3.46556 16.4513 19.1498
Pt 10.3908 39.9263 20.293
Au 27.6446 17.3832 4.1998
Au 3.87555 36.3367 19.3281
Au 45.9509 21.1754 16.5728
Pt 20.3009 36.2614 15.4138
Au 30.7939 7.84621 13.8761
Au 31.7786 11.3788 22.3648
Au 47.034 19.5673 24.3988
Pt 14.3783 18.5383 23.4809
Pt 23.0301 11.3881 17.492
Pt 32.969 33.0587 27.8145
Au 6.49704 39.1669 17.4399
Au 35.3169 35.9259 44.9821
Pt 18.1364 24.2555 24.078
Au 43.39 30.9662 31.8763
Au 31.5522 16.9524 43.9386
Au 8.66574 39.2747 31.4613
Au 20.7218 20.8789 4.01397
Pt 38.4108 27.2958 25.063
Au 35.3758 29.7618 34.8793
Au 42.7822 20.2682 30.6308
Au 25.8708 13.3133 38.8516
Pt 13.0569 19.4571 42.4561
Au 30.3092 19.0751 42.5728
Au 34.3215 26.1639 3.86156
Pt 13.5254 29.3287 17.6322
Pt 15.4146 43.7228 22.6405
Au 38.4259 36.1846 35.7739
Pt 38.2266 35.3101 24.378
Au 31.5714 22.9278 45.0954
Au 40.5094 42.392 25.2457
Au 14.3719 22.4382 11.5827
Au 36.0666 3.17229 26.0762
Au 26.6184 4.06191 18.6239
Pt 8.22468 17.5555 32.1771
Pt 18.664 10.0101 14.9979
Au 26.4661 29.4029 45.3535
Pt 30.4038 35.2623 15.0146
Pt 11.7507 35.937 29.578
Pt 20.1868 22.6789 43.0604
Pt 16.1945 6.45921 28.0106
Pt 28.2207 5.73381 22.1675
Au 36.0695 44.3209 34.2426
Pt 15.1853 15.4211 21.4897
Au 14.1607 17.2751 12.1992
Au 29.2052 19.1003 5.68913
Pt 24.0185 23.9078 29.1426
Pt 28.323 36.5834 11.8687
Au 2.38344 16.0584 28.3144
Pt 19.9514 15.3915 29.0868
Au 17.1158 32.2145 44.019
Pt 18.7545 22.8486 40.7056
Pt 35.7982 39.7656 29.4061
Pt 7.22538 29.9605 30.6276
Pt 16.9801 25.1955 40.5115
Au 16.6089 33.9075 5.89556
Au 33.9549 26.4493 11.376
Au 25.7815 34.1106 6.72605
Au 9.20596 40.8277 29.1105
Au 19.5409 47.5747 19.4211
Au 28.3506 31.376 6.71921
Pt 3.13932 20.6549 28.9812
Pt 17.0919 30.8625 9.93013
Au 37.7485 29.5113 44.4225
Pt 24.2846 30.9282 22.9807
Au 44.7536 23.9376 24.4589
Au 32.9168 33.0509 5.41881
Au 28.3324 20.4449 38.0989
Au 30.0351 14.6727 43.7674
Au 34.3084 34.3818 37.4873
Pt 24.3516 37.5639 26.3535
Au 19.8269 12.6885 40.633
Au 37.1119 31.4366 39.7878
Au 29.7547 21.0748 47.1161
Pt 8.22649 24.4416 26.5108
Pt 9.40675 32.6348 33.3837
Au 23.7337 23.1352 12.4064
Pt 19.2079 21.325 20.8646
Au 37.4726 28.6211 30.5577
Pt 31.0998 35.7362 17.616
Pt 9.17287 16.0899 17.3976
Au 34.3339 27.0299 42.7587
Pt 21.4653 30.4765 18.6937
Au 35.641 8.1596 14.3769
Pt 27.1424 36.8369 40.6764
Au 14.971 5.46232 32.3838
Au 15.0477 38.2398 32.9051
Au 31.2588 18.1805 7.30665
Au 7.62638 24.6746 9.32702
Pt 12.4139 24.4669 39.1001
Au 36.5488 13.9633 13.712
Pt 12.5825 24.894 41.9585
Au 19.6497 27.5013 7.98828
Au 9.27951 41.4268 25.2008
Pt 26.8271 30.7686 26.8441
Au 26.4646 29.4969 7.6652
Pt 24.2539 37.9187 29.6064
Pt 7.55308 15.4529 28.1324
Au 10.5817 14.0235 20.7795
Au 10.8379 13.9379 17.8716
Au 17.262 16.5918 42.3583
Pt 8.63329 16.5704 25.8228
Au 48.0192 17.6049 26.1703
Au 16.683 46.0057 22.5577
Au 11.3401 36.1412 9.29437
Au 30.2521 11.0707 10.2427
Au 35.463 25.2612 44.551
Pt 4.67987 19.7868 34.373
Au 37.094 6.42025 36.9025
Pt 19.8221 42.2766 30.6317
Au 26.6786 24.9813 15.9487
Au 14.7961 37.7982 40.3754
Au 46.122 23.0516 35.6052
Pt 36.6064 29.0375 26.3901
Au 42.4606 40.6461 26.2444
Pt 16.5849 40.5386 33.7311
Pt 32.4876 9.9721 29.1298
Pt 25.5017 13.5377 27.3403
Pt 18.2115 33.6837 27.628
Pt 7.90692 28.6818 28.3643
Pt 11.0439 33.9273 37.3033
Au 30.9815 20.2892 3.90246
Pt 30.9338 23.7703 25.6954
Au 10.1578 41.1531 13.6794
Au 10.2607 20.8029 10.3032
Pt 15.7607 35.4241 9.6216
Au 39.832 19.9151 39.4228
Pt 26.1112 38.3223 36.3057
Au 2.06895 17.6006 21.2637
Au 18.9098 4.03138 38.0398
Au 20.7463 8.81275 11.6148
Pt 22.8892 29.6318 40.8762
Au 21.4649 47.9851 21.5986
Au 15.7633 42.3919 35.7881
Pt 4.78698 22.9449 32.0956
Au 27.4626 29.0756 2.59687
Au 5.25928 14.0745 19.6685
Au 39.218 34.0359 43.0107
Au 36.8311 27.7507 7.34202
Pt 33.2925 25.2902 18.8554
Au 27.1336 43.7658 40.7731
Au 19.8913 35.9521 44.7922
Pt 17.5259 39.0517 13.1369
Pt 22.3087 41.306 13.288
Pt 6.84341 29.3748 25.843
Au 9.81969 35.6705 38.8098
Pt 26.8544 30.1065 18.2717
Au 3.47582 27.2346 29.7317
Pt 17.8325 28.5584 16.8182
Au 14.3474 34.4952 7.02996
Au 21.3701 3.3513 37.2526
Au 23.5807 40.8187 41.1395
Pt 25.885 5.08589 21.0737
Pt 8.35952 19.9548 21.5087
Pt 21.8589 40.1247 34.1077
Pt 25.5944 35.1591 26.4079
Pt 14.2815 26.5857 20.1022
Pt 12.8301 40.642 21.1879
Au 36.4061 23.6978 46.66
Pt 14.44 23.0292 23.2075
Au 19.4243 47.2135 31.88
Pt 28.1405 38.9074 13.6732
Pt 26.0572 39.7717 22.2045
Pt 20.28 38.5598 13.9224
Pt 15.2932 27.8646 38.394
Pt 18.4763 34.2666 42.829
Au 38.8224 31.4377 12.4287
Pt 20.0842 32.0628 39.953
Au 26.8664 32.3224 42.9106
Pt 30.4661 32.5677 14.9688
Pt 17.192 13.5522 18.6186
Pt 29.4046 35.2012 32.4108
Au 4.92973 33.3545 33.2524
Pt 5.44946 34.9577 21.7619
Au 50.186 25.7565 28.2635
Pt 20.7168 23.4751 35.5601
Au 21.7106 3.17758 34.2355
Au 8.93214 11.2053 24.5844
Au 35.6723 7.08892 17.1216
Au 30.9009 32.5741 45.1487
Au 14.943 33.9744 44.168
Pt 26.1221 45.898 25.598
Au 33.3538 13.2046 39.6315
Pt 26.9401 43.2062 21.6998
Pt 14.6079 26.2017 14.0539
Au 26.4718 10.7223 39.6868
Au 44.3917 35.1961 34.6839
Au 6.36277 31.6429 11.8316
Au 17.8333 42.9741 34.0681
Pt 21.9815 21.0911 39.3178
Pt 5.34451 20.4877 27.0156
Pt 15.0966 20.6221 22.081
Au 43.5667 17.1781 18.1216
Pt 22.2355 37.9313 27.7514
Pt 26.0791 22.5472 18.5713
Pt 17.701 24.9712 31.5265
Pt 24.0943 39.2925 7.18682
Au 38.7783 23.767 45.196
Au 21.9807 9.9181 9.52595
Pt 28.7156 15.5742 19.9221
Pt 20.1068 13.777 31.349
Au 24.4944 27.4073 6.5676
Au 46.6267 30.9627 16.2224
Pt 5.59154 24.9738 20.4464
Au 6.3337 39.2849 22.2379
Au 19.2451 7.74997 13.7085
Pt 33.1385 10.9921 38.046
Pt 11.1976 39.151 25.1028
Pt 26.1859 32.0554 16.5287
Pt 16.2838 33.0685 39.1484
Pt 17.1527 33.3888 10.8144
Pt 21.9849 13.6287 12.6176
Pt 29.5569 11.9075 30.7993
Pt 17.4449 18.569 16.2825
Au 13.0687 4.90475 22.2034
Au 6.85302 21.2893 35.8433
Pt 37.9972 14.9006 41.2286
Pt 30.2226 19.1522 22.4912
Pt 24.1668 6.31753 27.48
Pt 14.8632 27.4303 9.68782
Pt 40.5844 35.7204 18.2917
Pt 21.6496 31.2559 27.5035
Pt 29.849 9.07504 35.4925
Pt 19.3211 8.04634 22.4723
Pt 21.9162 18.5649 38.2132
Pt 14.639 6.63843 25.9195
Pt 29.5962 30.3195 27.3635
Au 31.2739 10.4312 12.9572
Pt 7.76995 20.225 28.2464
Pt 14.6509 33.2885 34.9209
Pt 27.2122 13.5671 31.2682
Au 31.8473 28.2071 39.4446
Pt 29.7667 13.325 35.9449
Au 25.203 6.71843 18.8364
Pt 34.0165 11.6357 35.7061
Pt 19.3261 15.5059 40.5079
Pt 23.6564 15.0919 26.1752
Au 10.2562 39.3769 11.6853
Pt 17.8913 6.12973 15.6199
Au 24.3219 48.2369 25.4326
Pt 24.6223 14.6412 36.1873
Au 20.1875 44.6069 10.0379
Au 27.1095 45.4394 20.0962
Pt 27.6815 8.29244 18.1277
Pt 15.8244 8.95211 35.7553
Pt 30.8982 33.9504 40.5512
Au 31.0032 5.58985 17.6564
Au 24.4732 21.7688 45.0651
Au 12.9312 18.0005 9.31093
Au 34.3547 15.738 37.489
Au 40.9495 28.9932 40.5207
Au 18.2593 10.9749 17.5556
Au 36.1156 11.1788 14.6023
Au 39.982 10.7719 25.877
Pt 28.3047 24.0396 17.9471
Pt 26.4436 21.43 26.0011
Au 36.1016 34.8378 35.3183
Pt 26.4229 4.59841 34.724
Au 38.0666 42.7775 26.5927
Au 40.6078 25.3858 24.1545
Au 23.659 8.93535 27.2773
Au 42.2839 24.1535 33.2326
Pt 20.216 29.7775 41.2705
Pt 31.2145 11.1629 36.1031
Pt 7.38225 21.7908 23.1349
Pt 26.48 13.4405 33.9553
Au 35.2515 9.80912 11.9917
Pt 21.7995 5.52136 35.6582
Au 45.8913 16.9703 24.6793
Pt 18.2195 23.0734 33.9718
Au 42.3413 13.7274 21.8467
Pt 42.2448 29.2089 15.8961
Pt 17.1034 22.2993 22.5409
Au 23.3397 13.8094 40.141
Au 8.58487 12.3705 17.3634
Au 30.0748 7.82039 16.4763
Pt 16.7844 41.662 19.592
Pt 23.9667 17.8242 25.9334
Au 47.6939 32.8506 29.7027
Pt 15.1622 13.611 33.5449
Au 27.4171 24.1962 5.92215
Pt 17.7945 41.6467 26.8267
Pt 19.9853 22.6476 27.7996
Pt 19.1244 20.1397 27.9361
Au 33.0588 4.82956 35.0974
Pt 15.7941 25.3724 24.2063
Au 14.2243 11.4051 15.5458
Au 45.6474 17.0948 27.5163
Au 43.3523 31.2249 27.0062
Au 37.7233 18.6766 10.9928
Au 45.4846 18.0838 19.9777
Au 37.3477 29.7808 17.636
Au 42.321 25.249 12.5882
Pt 7.21064 26.5148 18.8631
Pt 30.6511 18.9449 25.0925
Pt 12.667 8.6093 21.6431
Pt 17.6128 18.0604 28.6575
Pt 14.8145 31.8467 18.3761
Au 21.6525 31.7699 46.0944
Au 4.53351 28.225 14.0694
Pt 18.8626 21.2337 45.2084
Pt 26.5996 19.6746 29.4163
Pt 4.31588 26.0121 18.4233
Au 32.0773 41.1954 7.79942
Au 44.801 27.8033 21.5435
Au 38.2634 11.373 19.5271
Au 30.5175 25.8956 46.1892
Pt 25.1807 24.9486 41.4589
Au 39.5413 8.01922 36.8072
Au 43.2143 16.2673 20.811
Pt 28.3998 8.56394 20.7634
Au 29.2452 20.1471 34.2562
Pt 8.44655 27.1963 26.1761
Pt 9.13567 19.5307 16.9869
Au 39.2397 6.10557 27.877
Pt 8.5764 25.8976 23.9702
Au 27.5346 7.77574 15.3413
Au 40.1508 33.053 32.7298
Pt 34.3333 10.6539 21.3818
Pt 24.283 30.835 34.1664
Pt 11.91 28.0908 29.0686
Au 41.4001 19.6068 37.1577
Pt 24.9763 19.3655 21.2334
Pt 10.7643 20.1012 35.0069
Pt 10.6257 13.7046 36.1323
Au 44.5231 26.1014 42.5597
Au 23.5607 15.4654 10.3693
Au 24.6862 9.82377 9.48742
Au 27.3139 10.6469 16.6743
Au 47.9471 16.5794 28.8407
Pt 16.029 38.7079 23.5885
Au 37.0395 22.098 4.63316
Au 23.1061 12.1394 10.5938
Au 46.9988 14.9801 26.5989
Au 40.624 23.0252 17.6829
Au 23.46 47.721 28.5548
Pt 11.5035 17.2798 13.5975
Pt 5.13327 23.5162 18.2106
Pt 31.633 16.6786 31.9853
Au 38.919 34.3089 27.1354
Au 28.6099 17.154 43.7047
Au 43.6629 35.8627 37.3312
Au 33.7668 33.2645 34.938
Au 41.2873 33.2409 17.6534
Pt 16.73 38.5802 18.0689
Pt 23.877 16.081 23.8189
Pt 9.80557 19.815 38.9393
Pt 3.22996 29.7287 20.9431
Pt 2.68544 24.9415 22.9116
Pt 34.4558 32.0212 38.9183
Pt 9.51716 36.7159 27.6332
Au 21.3619 5.95437 38.4386