3871
Atoms. Timestep: 20691
Au 9.58509 7.80214 19.5905
Pt 8.83123 7.36 26.0407
Pt 9.51831 9.88213 25.3777
Pt 8.71075 9.27936 27.9279
Pt 6.66392 9.26637 29.7293
Pt 8.33101 9.21392 31.8095
Au 17.0502 3.71844 23.2619
Pt 6.52711 11.1821 31.6597
Pt 7.72672 13.6956 19.5142
Pt 9.58798 9.8067 21.4919
Au 5.79039 13.7117 17.6057
Pt 9.53639 7.93503 23.4838
Au 7.6602 9.82903 19.5464
Pt 13.4783 5.9107 21.5395
Pt 7.64583 11.7807 21.4144
Pt 7.64897 9.89327 23.3861
Pt 9.25743 13.8133 29.3539
Au 4.92589 11.1139 25.8688
Pt 7.59209 13.77 23.3506
Au 11.9514 7.25307 34.0749
Pt 6.43048 15.0942 31.7421
Au 4.63273 15.0793 29.7887
Pt 8.51842 11.199 29.8817
Au 6.15432 13.1081 33.5853
Pt 6.02448 15.683 15.6895
Au 7.6413 13.4912 15.5197
Pt 7.79204 15.6197 13.6466
Pt 7.8097 11.7937 17.6833
Pt 5.84084 13.7791 21.3668
Pt 7.65242 17.6686 19.4642
Pt 7.7772 15.6245 17.5742
Au 5.5997 11.7637 23.2554
Pt 5.68665 17.663 21.3249
Pt 7.66824 15.7345 21.3934
Pt 5.69632 15.7254 23.1826
Au 3.82941 15.7348 24.9619
Pt 7.30884 13.827 27.2652
Au 4.74496 11.1477 29.6519
Pt 7.36388 15.7965 25.3223
Au 4.6598 13.1314 27.7453
Pt 5.47578 17.7511 29.1695
Pt 5.61528 13.7548 25.1723
Pt 6.73189 11.1587 27.8465
Au 5.98125 17.0477 33.6215
Pt 7.9513 17.2135 35.5622
Pt 6.19462 17.437 37.3642
Pt 9.14266 15.7201 31.3512
Au 7.6915 15.2921 37.8784
Pt 7.69083 19.4337 13.4692
Au 7.69213 17.3382 11.4522
Pt 7.93001 19.3913 9.55792
Pt 5.84187 19.469 15.5046
Pt 7.65447 19.592 17.5027
Au 5.79391 17.4962 13.6167
Pt 7.63646 21.4258 15.407
Pt 5.83155 17.6218 17.4886
Pt 5.69066 19.5766 19.3717
Au 9.70173 17.625 17.5427
Au 9.63685 21.5186 17.4892
Pt 5.82333 15.7101 19.4423
Au 5.25703 19.6846 23.2646
Pt 7.45571 17.7683 23.3573
Pt 7.46757 19.6723 21.4109
Pt 5.54394 17.7741 25.2246
Pt 5.48625 19.7448 27.2348
Pt 7.34888 17.7582 27.2559
Pt 7.39323 19.7221 25.2918
Au 5.22475 15.8519 27.2102
Au 5.13301 19.7604 31.1024
Pt 7.16256 17.7146 31.2401
Au 7.28746 19.7141 29.3169
Pt 7.17193 19.6364 33.1605
Pt 6.16231 19.2856 35.5263
Pt 7.7428 19.4793 37.6077
Au 4.41651 19.1845 33.5912
Au 6.04634 15.2148 35.6641
Au 5.64849 21.3154 37.474
Pt 7.77523 17.5595 39.4938
Pt 9.62446 19.5074 39.5295
Au 7.60029 19.4167 41.462
Au 6.09106 23.1949 7.49008
Pt 8.04949 21.2979 7.60505
Au 8.09805 23.1909 5.56058
Pt 6.18919 21.4015 9.53402
Pt 5.97426 23.3046 11.4016
Pt 7.84814 21.3515 11.5359
Pt 7.94078 23.3245 9.49328
Au 5.8625 19.4478 11.4256
Pt 5.74736 23.3644 15.3296
Au 5.61429 21.3883 13.4106
Pt 5.82225 25.2856 13.2601
Pt 5.72725 21.4717 17.3746
Pt 5.60201 23.4788 19.2867
Pt 7.52028 21.5647 19.3984
Au 7.57926 23.4458 17.363
Pt 5.58352 21.5939 21.2742
Pt 5.4703 23.5196 23.2175
Pt 7.37736 21.6108 23.3284
Pt 7.44722 23.5393 21.3176
Pt 5.47413 21.6613 25.2817
Pt 5.47563 23.6322 27.2105
Au 7.36549 21.6926 27.305
Pt 7.36877 23.6399 25.2655
Pt 5.41302 21.7188 29.2051
Pt 3.8828 23.8815 29.2895
Pt 7.21514 21.6237 31.3227
Pt 7.21424 23.699 29.3338
Pt 5.42274 23.5458 31.4018
Au 5.42213 23.657 35.746
Pt 7.40908 21.6107 35.4487
Au 7.28626 23.589 33.5049
Pt 7.57097 21.31 39.4384
Au 4.26271 29.6241 36.3324
Au 5.49162 26.0092 40.571
Pt 7.56356 23.3577 37.4822
Pt 8.44396 24.0607 41.9619
Pt 10.763 23.9617 44.0652
Pt 11.5292 21.5087 43.4282
Pt 12.2285 26.0201 43.8513
Au 12.85 24.3738 46.0017
Au 6.04741 27.0983 7.35338
Pt 7.84046 27.1671 9.37653
Pt 7.95858 25.1653 7.50925
Pt 8.15191 27.0763 5.69539
Pt 7.80169 25.2919 11.3878
Pt 5.90344 27.2087 11.284
Au 5.77793 25.1901 9.41213
Au 3.9692 27.2746 13.2013
Au 3.90294 25.3162 15.1784
Pt 5.75291 27.3209 15.2325
Pt 7.58928 25.3729 15.3327
Pt 7.66838 27.2767 13.3191
Pt 5.64192 25.3657 17.2819
Pt 5.52934 27.3709 19.1591
Pt 7.48444 25.4582 19.3036
Pt 7.51132 27.3747 17.2764
Pt 5.49325 25.4328 21.1709
Pt 5.39736 27.4609 23.0965
Pt 7.3355 25.5225 23.201
Pt 7.35857 27.4526 21.1925
Au 3.72741 27.3269 17.1056
Pt 3.70304 25.6065 27.1475
Pt 7.27381 25.6797 27.2322
Pt 5.45479 25.5683 25.1268
Au 3.53524 25.4129 23.0913
Au 3.57257 23.5937 25.2581
Pt 7.11377 25.6486 31.434
Pt 7.23437 27.7656 29.4138
Pt 5.63044 25.6391 33.7584
Au 2.61838 26.3475 29.5242
Au 6.79145 34.3527 38.0234
Pt 7.54453 25.4745 35.6431
Au 5.29198 21.7163 33.521
Pt 8.03944 31.9889 37.6686
Pt 8.14816 25.7967 39.7959
Pt 9.42169 25.4536 37.5179
Pt 6.60883 23.6909 39.9124
Pt 8.46536 30.2677 39.7896
Pt 11.7726 27.8501 41.6702
Pt 7.56172 26.605 42.2433
Pt 6.31555 30.0544 38.22
Pt 11.2228 30.0543 42.9476
Pt 7.94848 29.0852 7.45899
Au 5.87426 29.1278 9.29386
Au 5.77892 31.2218 11.1926
Pt 7.7731 29.2056 11.2773
Pt 7.84825 31.114 9.34288
Au 3.89352 29.3173 15.1095
Pt 5.82669 29.2576 13.16
Pt 7.61191 29.3052 15.2254
Au 7.72694 31.2256 13.1647
Pt 5.64715 29.3543 17.1507
Pt 5.569 31.3462 19.0142
Pt 7.46229 29.3745 19.1972
Au 7.5648 31.3285 17.1512
Au 3.55014 27.369 20.9967
Au 3.61817 29.4094 18.9837
Pt 5.45854 29.3921 21.0582
Pt 7.28011 31.4595 21.0681
Au 3.34049 27.4376 25.0268
Pt 5.26919 29.4839 24.986
Au 2.80671 28.3614 31.6077
Pt 7.26239 27.5503 25.1278
Pt 5.7007 27.8841 31.9405
Pt 4.72896 30.3553 31.5284
Pt 7.46239 29.8722 31.9393
Pt 5.49458 25.8151 29.2106
Pt 4.18736 25.8491 31.5385
Au 3.83194 27.602 34.058
Pt 5.81642 27.4832 35.9247
Au 3.06902 30.2383 33.7389
Pt 6.14081 25.523 37.9032
Pt 7.61757 29.6784 35.8919
Pt 7.74656 27.7101 37.7796
Pt 7.49804 27.647 33.8327
Au 8.85009 36.7942 38.0566
Pt 6.93098 28.2322 40.2455
Pt 9.60145 34.1981 37.5416
Pt 7.80475 33.1548 11.1719
Pt 5.98615 33.1854 13.1519
Pt 5.94055 35.1346 15.0105
Pt 7.75213 33.234 15.1125
Pt 7.78452 35.1687 13.0673
Pt 5.74999 31.3119 15.0969
Pt 5.67075 35.3203 18.7739
Pt 7.40213 33.3399 19.0861
Pt 7.6614 35.2396 16.996
Pt 5.70883 33.3042 16.9352
Au 3.82542 33.3008 18.7772
Au 3.55007 31.436 20.9276
Au 4.45955 36.0594 25.5064
Pt 7.28235 29.4466 23.0849
Pt 5.36876 31.4017 22.9996
Au 3.35621 29.4092 22.9336
Au 6.43313 40.0807 23.3882
Pt 4.58465 28.3578 29.5691
Pt 6.44196 32.4105 31.3872
Pt 7.51858 31.8284 33.9354
Au 4.31847 34.3107 31.5103
Pt 6.49575 34.285 33.2345
Pt 6.27064 36.2319 31.3673
Pt 7.78367 34.0034 35.5953
Pt 8.30133 34.3997 31.2506
Pt 5.71763 29.7034 34.0546
Pt 5.92881 31.7432 36.0491
Pt 7.98643 36.3566 33.4844
Pt 7.7343 37.1523 14.9744
Au 5.69315 37.1629 16.8001
Au 6.77851 41.8935 21.2862
Pt 7.49494 37.3481 18.8469
Pt 9.2787 37.4031 20.9084
Au 6.44212 38.1286 21.3405
Pt 6.45765 34.1874 25.6405
Pt 4.68409 33.9746 23.7442
Au 2.68944 30.2043 25.6144
Pt 4.55174 32.1797 25.6848
Au 12.1207 45.9754 27.2892
Pt 6.42514 32.2977 27.6048
Au 9.15479 31.5295 27.1971
Au 6.0451 38.1649 29.3651
Pt 4.50575 34.1798 27.4882
Pt 6.18335 34.3996 29.4895
Au 6.22042 40.0374 27.1562
Pt 4.82495 32.2727 33.5296
Pt 9.82696 38.2715 33.4997
Pt 6.26005 36.2543 27.4792
Pt 9.59191 41.1164 16.9946
Au 8.08536 42.1215 27.1573
Pt 8.85283 41.8646 19.4988
Pt 10.4139 40.0552 23.551
Pt 12.3879 45.6166 23.488
Pt 8.48954 41.9619 23.4048
Au 10.0668 44.1139 27.199
Pt 8.30138 40.1053 25.3672
Pt 11.286 39.3033 20.9966
Au 15.5866 44.0076 33.7687
Pt 8.13054 36.3676 29.4603
Au 14.1538 46.1504 25.4365
Pt 10.429 43.8581 23.4656
Pt 12.2232 43.9703 25.502
Pt 12.0202 42.1793 27.5502
Pt 11.5192 7.83497 21.5383
Pt 13.6381 6.01013 17.7966
Pt 11.6877 7.8695 17.7279
Pt 13.4361 7.75278 23.5115
Au 21.5252 3.71034 19.937
Pt 13.2571 5.82197 25.3966
Au 11.6135 5.88585 19.6086
Pt 13.2336 7.64778 27.4501
Pt 6.94637 9.29056 25.9108
Au 11.359 5.84195 23.4244
Pt 15.3357 7.54821 25.4856
Pt 11.3552 9.71974 27.4285
Au 6.77503 7.38972 27.8057
Pt 12.0895 9.07293 32.0137
Pt 8.55371 7.39854 29.8087
Pt 10.1117 9.25156 33.8489
Pt 9.76429 11.6746 15.7601
Au 11.5553 9.52001 15.5843
Au 11.6623 11.4026 13.5626
Pt 9.7363 9.80752 17.7095
Pt 9.68271 11.7477 19.5733
Pt 11.6209 9.7765 19.6249
Pt 11.6994 11.6208 17.605
Au 11.5133 9.79941 23.5033
Pt 9.5343 11.8088 23.4074
Au 13.4802 9.69292 25.5778
Pt 11.573 11.7436 21.5512
Pt 7.53723 11.8463 25.2932
Au 9.3976 11.8713 27.3773
Au 13.2311 9.53782 29.4938
Au 11.5376 11.7718 25.5356
Pt 10.4287 9.19524 29.9885
Pt 8.32422 13.1581 31.8342
Pt 10.1901 11.1496 31.9065
Au 11.364 11.7378 29.4618
Pt 8.1942 11.1799 33.7383
Au 7.82967 13.0442 35.8088
Pt 9.973 11.2161 35.7694
Au 11.866 11.3309 33.8914
Au 11.6171 11.3293 37.968
Pt 9.81445 15.5717 11.6555
Au 11.689 13.3505 11.5262
Au 11.6591 15.2477 9.51083
Au 9.6344 13.475 13.5052
Au 9.67617 15.4868 15.5174
Au 11.68 13.5042 15.5277
Pt 11.7364 15.4211 13.5363
Pt 9.70142 13.6413 17.573
Au 9.71501 15.6406 19.5346
Pt 11.6484 13.597 19.5666
Au 11.7366 15.5347 17.5298
Pt 9.59122 13.7239 21.4975
Pt 9.43739 15.7541 23.4498
Au 11.5609 13.7327 23.5377
Pt 11.6159 15.5937 21.5781
Au 9.44707 13.8442 25.4179
Pt 9.31021 15.7902 27.3571
Au 11.4721 13.7869 27.5314
Au 11.5329 15.7329 25.5275
Pt 6.56235 13.1367 29.8064
Au 7.2637 15.7541 29.2286
Au 11.2349 13.7105 31.5083
Au 11.3562 15.7177 29.5071
Pt 9.91539 13.2173 33.9241
Pt 9.65772 15.199 35.9194
Pt 11.6078 13.3291 35.9763
Au 11.1303 15.6668 33.5188
Pt 8.07522 15.1296 33.8014
Pt 9.7379 15.6689 39.6456
Au 9.62007 13.2651 37.9331
Au 11.5733 15.4567 37.7652
Pt 11.6009 17.5936 39.6191
Pt 9.90716 19.3343 7.6525
Au 11.6651 17.1617 7.50874
Pt 11.9196 19.2783 5.87702
Pt 9.84736 17.4566 9.64481
Pt 9.7467 19.3387 11.5368
Au 11.7738 17.3647 11.5278
Pt 11.8322 19.2649 9.50321
Au 9.70658 17.4872 13.512
Au 9.71764 19.5183 15.4899
Au 11.7602 17.4786 15.4803
Pt 11.8136 19.334 13.4707
Pt 7.77894 17.6009 15.5606
Pt 9.5086 19.6744 19.5367
Au 11.6796 17.6363 19.5902
Au 11.7187 19.5851 17.5663
Au 9.57665 17.704 21.4864
Au 9.48006 19.72 23.4356
Au 11.5497 17.6553 23.519
Au 11.56 19.7268 21.5014
Au 9.41669 17.7283 25.4126
Pt 9.30133 19.7098 27.3915
Au 11.4106 17.7099 27.5013
Pt 11.4247 19.6556 25.5486
Au 9.27977 17.709 29.3826
Pt 9.20214 19.695 31.3347
Au 11.2531 17.6478 31.4987
Au 11.2656 19.7185 29.4798
Pt 9.07233 17.6873 33.2559
Au 9.24453 19.5743 35.3781
Au 11.2743 17.5845 35.4989
Au 11.2619 19.601 33.4555
Pt 9.60935 17.479 37.6254
Pt 9.49795 21.4902 41.402
Au 11.5609 19.6318 41.4977
Pt 11.426 19.5293 37.5379
Au 6.80873 21.9847 42.0116
Pt 13.5667 19.609 43.4686
Pt 9.69904 17.6607 41.4821
Au 15.4259 21.7287 47.1684
Au 15.6981 13.7696 43.6078
Pt 10.0225 21.2507 5.81135
Pt 9.915 23.2478 7.57912
Pt 11.886 21.2591 7.64214
Pt 11.8288 23.1481 5.65174
Au 9.86527 21.2854 9.57305
Au 9.81698 23.3525 11.4885
Au 11.847 21.3078 11.4995
Pt 11.8389 23.3034 9.4314
Au 9.76414 21.361 13.4737
Pt 7.69495 23.3441 13.4282
Au 11.8162 21.4089 15.4557
Au 11.8077 23.4197 13.4716
Au 11.6629 23.4916 17.4784
Pt 9.4695 23.5162 19.4471
Pt 11.5672 21.6159 19.5397
Au 9.66609 23.4136 15.412
Pt 9.41323 21.6303 21.4287
Au 9.40614 23.614 23.3845
Pt 11.4445 21.6487 23.4911
Au 11.4917 23.5695 21.4558
Au 9.43088 21.6757 25.4258
Au 9.30532 23.7395 27.4366
Pt 11.2929 21.6569 27.5277
Au 11.3644 23.7291 25.5143
Pt 9.21561 21.7038 29.3908
Au 9.16932 23.6518 31.4068
Pt 11.2225 21.6474 31.452
Au 11.2476 23.6873 29.526
Au 9.23739 21.5927 33.3796
Pt 9.41896 23.527 35.5226
Au 11.3634 21.5533 35.4939
Au 11.3108 23.6331 33.4736
Pt 9.50591 21.4972 37.4825
Pt 9.37913 23.4099 39.4655
Pt 11.4416 21.5422 39.4579
Pt 11.3516 23.5352 37.5041
Au 9.57713 19.577 43.4631
Au 8.79035 22.2351 43.9284
Pt 13.4277 23.6269 43.4054
Au 11.3231 23.5315 41.4936
Pt 13.5391 21.6692 45.2082
Pt 15.1776 25.5875 46.6692
Pt 9.96263 25.1638 5.64929
Pt 9.91529 27.1613 7.53607
Au 11.8735 25.2238 7.47008
Pt 11.7676 27.1993 5.53359
Pt 9.83356 25.277 9.45379
Pt 9.71804 27.2546 11.3664
Au 11.8095 25.3761 11.3977
Pt 11.8374 27.2697 9.36435
Au 9.69716 25.3916 13.4252
Pt 9.56102 27.3562 15.3633
Au 11.7033 25.4969 15.4465
Pt 11.7157 27.3522 13.3761
Au 9.57561 25.4597 17.3694
Au 9.49772 27.4737 19.3094
Au 11.5659 25.5439 19.4052
Pt 11.6216 27.4961 17.4012
Au 9.44414 25.556 21.3392
Pt 9.25355 27.5444 23.2216
Au 11.4076 25.7186 23.399
Pt 11.4553 27.6027 21.297
Au 9.3213 25.719 25.3588
Au 9.19955 27.7398 27.439
Pt 11.243 25.7705 27.5792
Au 11.3349 27.6916 25.5206
Au 9.15248 25.7343 29.4596
Au 9.12141 27.7081 31.5427
Au 11.2904 25.7219 31.5211
Au 11.2005 27.7749 29.5325
Au 9.29132 25.5958 33.5094
Au 9.47476 27.5858 35.6524
Pt 11.3745 25.5513 35.5283
Au 11.356 27.6488 33.5629
Pt 11.2424 25.468 39.5217
Au 9.87213 27.8226 39.5812
Pt 10.1281 25.9684 41.9832
Au 11.5142 27.5877 37.4374
Au 13.5571 29.9538 41.4668
Au 6.9292 30.2963 42.0465
Au 8.78313 25.6149 44.367
Pt 13.2663 31.4119 43.9477
Pt 9.12001 28.7081 41.9589
Pt 10.4147 27.7884 44.1725
Pt 9.90763 29.0676 5.63405
Pt 9.77963 31.0716 7.39939
Pt 11.8003 29.1539 7.45458
Pt 11.7511 31.0318 5.59685
Au 9.78526 29.1961 9.39011
Pt 9.73592 31.2219 11.2494
Au 11.7846 29.2324 11.3221
Pt 11.7467 31.1644 9.25775
Au 9.68869 29.2223 13.2921
Au 9.6764 31.3061 15.235
Au 11.6592 29.3145 15.3209
Au 11.6934 31.3072 13.2313
Au 9.56819 29.3628 17.2799
Pt 9.44957 31.3794 19.1905
Pt 11.5278 29.4906 19.2975
Pt 11.5751 31.3847 17.2946
Au 9.37769 29.4944 21.235
Au 9.28568 31.5048 23.166
Au 11.3597 29.5589 23.35
Au 11.4277 31.508 21.2334
Au 9.26227 29.5215 25.1987
Pt 5.35072 27.632 27.0715
Au 11.2325 29.7646 27.5517
Au 11.3273 31.73 25.3984
Pt 9.1507 29.794 29.576
Pt 9.28597 31.8425 31.8679
Au 11.2028 29.7574 31.5665
Pt 11.1162 31.7392 29.6788
Au 9.43509 29.7407 33.7815
Pt 9.61286 31.936 35.5971
Pt 11.5344 29.8163 35.4861
Au 11.4099 31.8939 33.5313
Au 9.82466 29.839 37.5471
Au 7.07254 32.5313 40.2185
Pt 9.81418 32.5597 39.6902
Pt 11.4247 32.0889 37.6053
Pt 11.1731 30.2185 40.0813
Pt 10.7241 34.5083 41.8049
Au 8.8356 30.0687 44.2466
Au 10.6333 32.3115 44.2895
Au 4.87269 27.8211 38.4815
Pt 9.27894 31.6731 42.0211
Pt 11.6974 33.0323 7.34351
Pt 9.74009 33.0815 9.23884
Pt 9.70871 35.1246 11.1792
Au 11.6669 33.2413 11.1254
Au 11.5036 35.2748 9.05086
Pt 9.6591 33.2435 13.133
Au 9.63621 35.2344 15.0639
Pt 11.6027 33.2849 15.2283
Au 11.6342 35.2297 13.1056
Pt 9.52475 33.2896 17.2335
Au 9.33325 33.4138 21.0833
Pt 11.4607 33.3987 19.2098
Au 11.5077 35.3085 17.1617
Au 5.24506 33.6374 21.0519
Au 2.83188 32.0793 23.5918
Au 7.25529 33.545 23.0068
Pt 11.3412 35.4105 21.0642
Pt 4.54741 30.2959 27.5965
Au 2.63498 30.3236 29.5689
Pt 7.17141 29.5661 27.0348
Au 11.0203 33.643 27.7083
Au 2.64282 28.2635 27.6036
Au 6.49963 30.3961 29.4958
Au 11.2097 33.9027 31.4237
Pt 8.38782 32.4989 29.5068
Pt 9.47647 33.9997 33.5979
Au 9.09255 38.68 36.0608
Pt 11.4684 33.9643 35.502
Pt 11.4995 36.0055 33.5539
Au 8.6624 34.9531 40.1071
Pt 10.9171 36.6463 39.9585
Pt 11.7616 34.1791 39.4263
Au 11.5928 36.0571 37.4227
Au 5.16402 34.2042 35.5414
Au 12.4195 34.3438 43.8757
Pt 12.7098 36.5582 41.8985
Pt 11.6153 37.2139 11.2104
Pt 9.67439 37.1786 13.0892
Pt 9.64697 39.2189 15.0284
Au 11.5727 37.3192 15.0426
Pt 11.5879 39.2523 13.0978
Au 9.50594 37.3486 16.9891
Pt 11.419 37.3216 19.089
Au 9.42702 35.3492 19.0768
Pt 11.538 39.2914 17.0379
Pt 8.37012 38.1128 23.4211
Pt 6.41876 38.0621 25.3672
Pt 7.33533 35.4566 20.8646
Pt 8.64207 39.975 21.5226
Pt 9.18131 35.512 22.8871
Pt 10.0417 40.242 27.4977
Au 7.18555 31.5161 25.0474
Au 9.2058 33.5544 25.159
Au 2.75314 32.0991 31.6779
Pt 8.22247 34.3402 27.6784
Au 13.7501 38.202 29.7031
Pt 4.45037 32.3484 29.4971
Pt 9.65037 36.0626 35.4953
Pt 11.7311 38.3405 31.5717
Pt 11.6838 38.0189 35.4631
Pt 9.86346 36.4004 31.5647
Pt 11.0693 38.6148 38.0514
Pt 12.9419 38.5602 40.0312
Au 7.87926 40.2682 29.3949
Pt 11.5583 41.2063 15.0663
Pt 7.03866 39.9045 19.4413
Pt 9.51239 39.2677 18.9227
Pt 11.4281 41.1902 19.0107
Au 7.49616 39.3374 16.8008
Au 6.22157 36.2019 23.3335
Au 13.1595 39.366 23.1001
Au 11.1854 37.3534 23.0176
Pt 10.5659 41.8992 21.5806
Au 10.2408 38.1761 25.5244
Pt 12.1898 40.1979 25.6461
Au 12.0224 38.2698 27.6693
Pt 17.0269 45.2448 21.2377
Pt 8.15936 38.2458 27.4584
Pt 10.2472 42.064 25.4383
Au 10.0688 36.2665 27.5407
Au 17.4875 44.2631 31.7775
Pt 7.98384 38.2665 31.4257
Au 17.3996 44.1445 38.7195
Pt 9.92108 38.4065 29.5671
Pt 10.7714 43.7312 19.6208
Pt 14.4136 45.7487 21.7567
Pt 16.2659 45.9415 23.6913
Pt 14.1697 42.0786 25.68
Pt 18.9261 45.151 23.2248
Pt 14.3534 43.9149 23.6938
Pt 13.8086 42.2594 29.6024
Pt 13.7058 7.75934 15.8297
Pt 15.6322 7.72711 17.7566
Au 15.5979 5.67683 15.8976
Pt 17.6489 7.61852 15.9022
Pt 13.5875 7.84153 19.6719
Pt 17.5515 5.73409 17.8543
Au 21.869 7.62082 8.09034
Pt 15.4575 5.80876 19.6568
Au 10.6771 5.33768 26.1483
Pt 15.2495 5.70415 23.4861
Pt 15.5068 7.68248 21.6278
Pt 15.1222 5.56195 27.2616
Pt 10.5453 7.19798 28.0822
Au 15.5558 4.75328 31.5737
Pt 17.0954 5.3895 25.3796
Pt 11.4206 7.83233 25.4399
Pt 14.1173 7.05992 32.415
Pt 12.1857 7.10205 30.2201
Au 12.5579 5.23365 28.2228
Pt 14.2928 7.37869 35.2975
Pt 12.1219 9.40174 35.7839
Au 15.3 7.58134 38.0618
Au 17.3577 5.62352 38.0274
Pt 16.9968 7.30991 35.996
Pt 13.8368 11.4907 11.7078
Pt 15.7377 7.66695 13.979
Pt 15.85 11.4527 9.75428
Pt 13.7907 9.59735 13.8525
Pt 13.6292 11.5186 15.687
Pt 15.6827 9.61882 15.8034
Au 15.6982 11.4441 13.6954
Pt 13.6417 9.69661 17.6733
Au 13.6551 11.686 19.6291
Pt 15.6102 9.64612 19.6861
Pt 15.6459 11.6013 17.687
Au 13.5848 9.74748 21.6286
Pt 13.5837 11.6973 23.5838
Au 15.5397 9.62733 23.6552
Pt 15.6086 11.6382 21.6635
Au 15.3575 9.38244 27.6678
Pt 13.4782 11.6111 27.6161
Pt 17.1931 7.18985 27.4506
Au 15.5473 11.5841 25.7691
Au 15.4566 11.4949 29.6996
Au 13.4077 11.5068 31.5982
Au 14.8258 6.94315 29.617
Au 17.6153 11.3776 27.918
Au 17.8958 4.16164 33.4878
Au 13.6683 11.611 35.8555
Au 15.5053 9.64131 35.924
Pt 13.901 9.54557 33.7554
Pt 13.7328 9.74864 37.9261
Pt 13.738 11.7048 39.8339
Pt 15.6743 9.80135 39.7817
Pt 15.5815 11.7202 37.8458
Au 11.578 13.4506 39.9293
Pt 13.8606 15.3563 7.75282
Pt 15.8371 13.3897 7.82387
Pt 15.8338 15.3506 5.99509
Pt 13.895 13.4095 9.66697
Au 13.6875 15.3581 11.5236
Au 15.746 13.3949 11.6406
Pt 15.7995 15.3835 9.63248
Au 13.6575 13.4098 13.6011
Pt 13.7419 15.4732 15.568
Pt 15.6741 13.4683 15.6535
Au 15.6938 15.4258 13.6204
Pt 13.6893 13.534 17.5853
Au 13.6595 15.5539 19.622
Pt 15.6403 13.5922 19.6337
Au 15.6584 15.5042 17.5958
Au 13.6557 13.6498 21.6506
Pt 13.5915 15.6474 23.5945
Pt 15.5459 13.641 23.7043
Pt 15.6034 15.5944 21.7013
Au 13.5713 13.6623 25.6263
Pt 13.4616 15.747 27.6072
Au 15.47 13.6015 27.7386
Au 15.4613 15.6709 25.6815
Au 13.4012 13.6654 29.6142
Pt 13.3025 15.7345 31.5764
Au 15.3554 13.6273 31.6095
Au 15.3056 15.7481 29.6737
Au 13.2814 13.6647 33.5732
Au 13.2823 15.6317 35.5762
Au 15.3619 13.6871 35.6274
Au 15.2618 15.7357 33.5644
Pt 13.5208 13.5061 37.8978
Au 11.5339 15.5788 41.7761
Pt 15.6061 13.7019 39.7289
Au 15.3598 15.6553 37.622
Pt 15.5865 15.7436 41.5927
Pt 13.5856 17.6475 41.5397
Pt 13.7673 13.7582 41.6705
Pt 15.5375 17.6923 43.5166
Pt 17.5491 15.7764 43.4972
Pt 13.8984 17.3124 5.93649
Pt 13.8287 19.2557 7.6666
Pt 15.8087 17.326 7.72714
Pt 15.7567 19.1516 5.70151
Pt 13.7101 17.2932 9.52749
Au 13.8351 19.3157 11.5235
Pt 15.7289 17.354 11.5615
Pt 15.8019 19.2903 9.51688
Pt 13.7606 17.3761 13.5259
Pt 13.8028 19.3884 15.4492
Pt 15.7176 17.4152 15.5517
Pt 15.7657 19.3099 13.5651
Au 13.7117 17.5514 17.5351
Au 13.6952 19.6544 19.6288
Au 15.6608 17.5526 19.643
Au 15.6875 19.5078 17.5596
Au 13.64 17.6073 21.6327
Au 13.4841 19.686 23.5794
Pt 15.4857 17.6281 23.6866
Pt 15.5452 19.6361 21.6982
Pt 13.4523 17.7065 25.5686
Pt 13.3257 19.7043 27.5832
Au 15.364 17.7233 27.6608
Au 15.3982 19.6817 25.6475
Pt 13.3189 17.751 29.5764
Au 13.2847 19.6692 31.5508
Pt 15.2969 17.6985 31.5942
Au 15.3365 19.6981 29.6519
Pt 13.3042 17.677 33.5511
Pt 13.3427 19.5649 35.5973
Pt 15.3189 17.6654 35.5948
Au 15.2834 19.6532 33.5905
Pt 13.3916 17.6056 37.5864
Pt 13.4771 19.5957 39.5372
Pt 15.4667 17.6468 39.5689
Au 15.3849 19.6122 37.5701
Au 13.5037 15.5892 39.7358
Pt 15.5104 19.6969 45.2917
Au 19.544 17.8665 47.2001
Pt 15.482 19.614 41.5208
Pt 11.7082 17.7691 43.3433
Au 17.4251 19.7017 47.2439
Pt 13.7748 21.1122 5.68904
Au 13.8906 23.2147 7.37896
Pt 15.8359 21.2061 7.3879
Au 15.6219 27.2121 5.15569
Au 13.8903 21.3223 9.49398
Au 13.86 23.3993 11.447
Au 15.8198 21.3714 11.5288
Au 15.8973 23.3461 9.33713
Au 13.8332 21.3884 13.4989
Au 13.7734 23.5175 15.4977
Au 15.7148 21.4902 15.5017
Pt 15.8238 23.5092 13.4464
Au 13.7296 21.5253 17.5346
Au 13.5886 23.5595 19.5191
Pt 15.5834 21.6445 19.6355
Pt 15.5966 23.581 17.584
Pt 13.5404 21.65 21.5553
Au 13.3995 23.6869 23.523
Au 15.4462 21.6893 23.6234
Au 15.483 23.6652 21.5944
Au 13.3255 21.6772 25.5928
Au 13.267 23.7249 27.5882
Au 15.3381 21.7065 27.6429
Au 15.3627 23.7264 25.6261
Au 13.2807 21.7095 29.5872
Pt 13.277 23.7249 31.5551
Pt 15.2824 21.6885 31.6198
Au 15.2904 23.7264 29.6654
Au 13.3012 21.6701 33.5186
Pt 13.2988 23.655 35.5416
Au 15.3448 21.6887 35.5745
Au 15.281 23.7148 33.5523
Au 13.3675 21.6149 37.5202
Pt 13.3037 23.5915 39.5013
Au 15.4296 21.6811 39.5194
Au 15.3885 23.6987 37.5487
Au 13.4889 21.6441 41.4916
Pt 15.5108 21.6078 43.3848
Pt 17.487 19.687 43.442
Au 15.4456 23.8126 41.5905
Au 17.3515 23.7907 47.2706
Pt 17.4291 21.6662 45.3453
Pt 13.6942 25.2074 5.5381
Pt 13.8377 29.2347 9.19774
Au 15.8253 25.2622 7.17684
Pt 13.8032 27.2523 7.30844
Au 13.8867 25.3304 9.34616
Au 13.8366 27.3625 11.3201
Au 15.8739 25.4515 11.3056
Pt 15.9008 27.3034 9.06861
Au 13.8188 25.4523 13.3948
Au 13.7117 27.4479 15.3812
Au 15.7126 25.4963 15.4418
Pt 15.7814 27.4457 13.3134
Pt 13.6182 25.5706 17.4953
Pt 13.5152 27.5854 19.3922
Au 15.5192 25.6081 19.5276
Au 15.5723 27.5453 17.4675
Pt 13.4366 25.644 21.4079
Au 13.3964 27.6624 23.4744
Au 15.3908 25.7021 23.58
Au 15.4278 27.642 21.4915
Au 13.3259 25.7615 25.6216
Pt 13.2738 27.823 27.6019
Au 15.3136 25.7751 27.637
Au 15.3338 27.7757 25.6581
Au 13.2514 25.7826 29.546
Pt 13.2697 27.7774 31.5487
Au 15.2413 25.7848 31.5983
Au 15.2612 27.8364 29.5631
Pt 13.3153 25.6721 33.5619
Pt 13.3635 27.675 35.466
Au 15.3075 25.7254 35.5281
Pt 15.2613 27.7502 33.5497
Au 13.3435 25.5851 37.5682
Au 13.3176 27.7688 39.5133
Au 15.4238 25.804 39.5545
Au 15.3125 27.7784 37.4889
Au 13.3309 25.6189 41.4244
Pt 13.3858 28.4362 43.7329
Pt 14.9522 25.9504 43.8878
Au 15.2862 27.7234 41.6934
Pt 15.4417 23.5661 45.1885
Pt 15.7687 27.875 45.6295
Pt 17.8019 24.9773 5.49224
Pt 13.6463 29.1906 5.47621
Pt 15.7525 29.2108 7.1184
Au 17.6379 29.358 5.10163
Pt 13.754 31.1561 7.26984
Au 13.7465 31.2222 11.2132
Au 15.7832 29.2808 11.1897
Pt 15.7373 31.2001 9.071
Pt 13.73 29.345 13.3416
Au 13.6082 31.3593 15.2927
Pt 15.5888 29.4466 15.3858
Au 15.6668 31.3336 13.299
Pt 13.5495 29.4752 17.3654
Pt 13.4548 31.4774 19.2827
Pt 15.404 29.5511 19.3991
Pt 15.4663 31.4362 17.3476
Au 13.4291 29.5789 21.3702
Au 13.3701 31.6642 23.426
Au 15.397 29.7245 23.5668
Au 15.4007 31.5886 21.4354
Au 13.3336 29.7438 25.5591
Au 13.2176 31.8072 27.5241
Pt 15.2766 29.8306 27.5972
Pt 15.3669 31.6961 25.5816
Au 13.2161 29.8279 29.5662
Pt 13.2777 31.8361 31.5503
Au 15.2679 29.8112 31.5536
Au 15.2748 31.8075 29.5592
Au 13.3266 29.7681 33.4967
Au 13.3605 31.8945 35.5614
Au 15.2565 29.8067 35.5541
Pt 15.2935 31.8053 33.5242
Au 13.1993 29.8854 37.6476
Au 13.4882 32.0022 39.447
Au 15.4208 29.7874 39.4444
Pt 15.4115 31.8942 37.4346
Pt 11.9646 32.2933 41.7092
Au 11.5454 29.7622 45.6156
Pt 15.5615 29.949 43.5726
Au 15.4055 31.9125 41.5428
Pt 13.1766 27.2345 45.9412
Pt 14.179 29.866 45.8321
Au 13.5738 33.1213 5.3215
Pt 13.6612 35.0358 7.23378
Au 15.6634 35.1863 5.30909
Pt 17.6366 33.2842 5.37595
Au 13.6684 33.1951 9.15412
Au 13.5424 35.3088 11.045
Au 15.6403 33.2482 11.1806
Au 15.537 35.3112 9.06011
Pt 13.6304 33.2553 13.2267
Au 13.5822 35.2699 15.1761
Pt 15.5473 33.3164 15.3157
Au 15.5435 35.2387 13.1739
Au 13.5252 33.3812 17.2809
Pt 13.4378 35.4017 19.2022
Au 15.4474 33.4825 19.3465
Pt 15.4993 35.3633 17.2912
Pt 13.3806 33.5235 21.2086
Au 11.3158 33.5712 23.1697
Au 15.389 33.5995 23.459
Au 15.3853 35.5462 21.2997
Pt 13.3936 33.6128 25.4006
Au 13.2136 35.6429 27.3386
Au 15.2886 33.7567 27.4757
Au 15.3177 35.7085 25.4128
Au 13.2778 33.7632 29.5658
Au 13.4556 35.9586 31.6516
Pt 15.3042 33.7838 31.587
Au 15.255 35.8373 29.4857
Pt 13.3276 33.8485 33.4811
Au 13.5186 35.9506 35.4057
Au 15.4162 33.8406 35.4023
Au 15.4791 35.8929 33.4638
Pt 13.5303 33.9799 37.4157
Au 13.6762 36.034 39.4354
Pt 15.5396 33.952 39.4042
Pt 15.5093 35.9432 37.3799
Pt 13.7605 34.1798 41.4539
Pt 14.579 35.9732 43.617
Pt 14.965 33.3405 43.7379
Pt 15.8483 35.925 41.3882
Au 18.7183 28.0852 46.0992
Pt 17.0487 35.0152 43.7861
Au 15.4746 37.3574 7.10821
Au 13.451 37.4067 9.09454
Pt 13.5818 39.2994 11.1595
Au 15.4777 37.3369 11.0814
Pt 15.6256 39.267 9.18742
Au 13.5655 37.3416 13.0756
Au 13.5148 39.3938 15.0371
Au 15.5087 37.3435 15.1975
Pt 15.4119 39.453 13.0911
Au 13.5141 37.3131 17.1717
Au 13.3379 35.5046 23.2256
Pt 15.4676 37.3946 19.2205
Au 15.4995 39.3495 17.1934
Au 11.2636 35.4323 25.1959
Au 15.371 39.4029 21.1343
Au 15.3464 37.6158 23.2858
Pt 13.2995 37.3633 21.0908
Au 13.1976 37.5571 25.2398
Au 11.6765 36.0889 29.6359
Pt 15.1659 37.7924 27.362
Pt 15.1166 39.5742 25.3238
Pt 11.8322 40.3393 29.6272
Au 13.8214 44.2185 31.5655
Pt 13.5476 38.1399 33.5254
Au 15.5704 38.1149 31.671
Pt 13.6597 40.3324 31.6433
Au 12.9458 40.6903 38.2565
Au 15.5131 38.0184 35.431
Au 15.5288 40.1865 33.6049
Pt 13.6088 38.0138 37.4617
Pt 15.5438 39.9362 37.5041
Pt 15.5933 37.9134 39.4086
Pt 13.6118 40.0486 35.5973
Pt 14.8121 38.2886 41.9483
Pt 14.971 40.3802 40.1723
Au 16.6682 40.2552 42.4478
Pt 15.5694 41.2491 11.1234
Au 13.3545 41.4136 12.9178
Pt 13.5039 43.118 15.1508
Pt 15.4425 41.336 15.1324
Pt 15.4935 43.1187 13.1341
Pt 13.4715 41.2753 17.0843
Pt 11.4497 43.0189 17.0649
Au 15.4091 41.414 19.0909
Pt 15.3775 43.4367 17.0752
Au 13.4242 39.3015 19.1238
Pt 12.3885 42.0269 23.5959
Pt 13.3063 43.1872 19.0305
Pt 13.2308 41.3036 21.0608
Au 15.177 41.295 23.1645
Pt 15.6846 40.2419 29.7281
Au 9.85348 42.2649 29.386
Pt 13.9525 40.2502 27.7311
Au 8.25731 36.172 25.4108
Au 11.8587 44.2197 29.4417
Au 13.9246 46.017 29.4155
Au 15.9567 46.2157 27.5664
Au 9.72798 40.3687 31.6143
Pt 15.6263 42.1924 31.6706
Au 13.5033 42.2224 33.783
Pt 21.565 43.8425 35.5397
Pt 11.7195 40.1412 33.5813
Au 19.0692 41.9862 42.6681
Au 15.1432 42.4975 38.4086
Au 15.3534 45.19 14.9234
Au 13.1775 45.0916 17.0795
Pt 15.079 45.1263 19.2415
Pt 12.4774 43.8951 21.5699
Pt 15.1522 43.2342 21.1462
Au 17.1941 46.9242 19.1465
Pt 19.6471 44.201 29.739
Pt 16.0988 44.0906 25.7184
Pt 19.5218 43.9373 33.7011
Pt 14.0301 44.0901 27.5182
Au 11.0517 40.6165 36.1777
Au 17.6978 5.64222 14.0029
Pt 19.6823 7.58273 13.9425
Pt 21.7382 7.52816 11.969
Au 23.6833 5.51503 12.117
Au 19.5475 3.85769 17.9003
Pt 21.5787 5.66837 17.9667
Au 19.8185 5.62458 12.1146
Au 21.6198 3.83038 16.0042
Pt 17.5384 7.63688 19.7408
Pt 19.5108 5.61801 19.9301
Pt 19.589 7.50941 17.9142
Pt 17.3102 5.66005 21.4932
Pt 17.371 7.449 23.598
Pt 19.1916 5.44962 23.3158
Pt 19.472 7.54256 21.7628
Pt 19.2444 6.98617 25.5525
Au 10.1032 7.13009 31.9928
Au 19.0739 3.38419 25.0639
Pt 21.2505 5.01697 24.9083
Pt 16.9295 5.30885 29.339
Pt 16.9723 6.97317 31.4418
Pt 19.0548 6.89995 29.342
Pt 21.1954 6.35584 27.1789
Pt 18.8867 5.09074 31.2637
Pt 16.0371 5.86708 33.9503
Pt 20.3588 7.19614 31.709
Pt 18.2634 9.20236 32.1889
Pt 18.5694 6.88308 33.6032
Pt 17.5688 7.8389 39.7076
Au 19.4502 5.79819 39.763
Pt 19.2297 7.54717 37.5687
Pt 17.6612 9.80083 41.5543
Pt 17.8636 11.4487 7.9318
Au 17.6933 7.42658 11.8546
Pt 19.9009 9.51182 8.09697
Au 15.5991 9.38121 11.7003
Pt 17.699 11.3379 11.6965
Pt 19.6742 9.41063 11.8017
Pt 19.734 11.4364 9.85273
Au 17.6712 9.47776 13.7493
Pt 17.6379 11.5064 15.7639
Au 19.65 9.52461 15.8791
Pt 19.625 11.4362 13.7902
Au 17.6504 9.61142 17.8063
Au 17.6081 11.5884 19.773
Pt 19.5592 9.4694 19.8269
Pt 19.5784 11.5483 17.8191
Pt 17.547 9.50782 21.7428
Au 17.5381 11.556 23.7762
Au 19.484 9.36627 23.8865
Au 19.549 11.4859 21.8519
Au 17.4448 9.3822 25.7407
Au 19.5557 11.4017 25.907
Au 19.4566 8.94268 27.6071
Au 21.5076 9.20947 25.9535
Au 17.2739 9.00993 29.5566
Pt 15.2235 9.1672 31.2902
Pt 19.9516 9.43231 30.1874
Au 16.093 11.1903 32.9956
Pt 16.3083 8.43771 33.6703
Au 17.3298 11.7117 35.6246
Au 18.7588 9.28203 35.2075
Au 19.0095 11.6182 33.3976
Au 17.4744 9.63106 37.7275
Pt 17.5405 11.7435 39.6689
Pt 19.4853 9.78325 39.5479
Pt 19.3225 11.7008 37.5638
Pt 15.7027 11.7739 41.6377
Au 13.6581 15.767 43.6166
Pt 21.6943 11.5935 43.3039
Au 17.6278 11.6387 43.5525
Pt 21.4975 17.7273 45.3262
Au 17.7529 13.2788 5.89267
Pt 17.789 15.3291 7.74071
Pt 19.8003 13.3873 7.77436
Au 19.7126 15.2254 5.60868
Au 17.7892 13.3946 9.73238
Au 17.7594 15.451 11.66
Pt 19.6746 13.4399 11.735
Pt 19.7458 15.4025 9.6502
Au 17.721 13.4139 13.689
Pt 17.6435 15.4527 15.6401
Au 19.6149 13.4861 15.7682
Pt 19.6301 15.48 13.7202
Pt 17.6039 13.542 17.6754
Pt 17.5559 15.5214 19.6514
Au 19.5589 13.5954 19.7545
Pt 19.5194 15.5153 17.6773
Au 17.5392 13.6095 21.7635
Au 17.5251 15.6098 23.7825
Au 19.5379 13.5384 23.8745
Au 19.5253 15.5983 21.7786
Au 17.5286 13.565 25.8185
Au 17.4349 15.7024 27.727
Au 19.3843 13.551 27.9535
Pt 19.4434 15.6366 25.8347
Pt 17.3303 13.8717 29.7256
Pt 17.3039 15.7846 31.6649
Pt 19.2441 13.8378 31.6226
Pt 19.3649 15.7728 29.7805
Au 17.297 13.7469 33.5613
Au 17.3416 15.7049 35.62
Pt 19.294 13.7007 35.5373
Pt 19.2954 15.7359 33.6155
Pt 17.4241 13.7134 37.6544
Au 17.4798 15.7237 39.5906
Au 19.4892 13.7004 39.5197
Au 19.4242 15.6831 37.537
Au 19.5593 15.7393 45.4522
Pt 21.4792 15.6874 43.4658
Au 19.5657 13.578 43.6728
Au 19.5062 15.6938 41.591
Pt 17.588 13.704 41.6256
Au 21.5772 19.8104 47.3569
Pt 17.7072 17.2394 5.82048
Pt 17.7725 19.2865 7.50362
Au 19.8057 17.2695 7.49744
Pt 19.7589 19.2173 5.65835
Au 17.8194 17.3843 9.589
Au 17.7494 19.3264 11.5856
Pt 19.7235 17.4096 11.6397
Pt 19.7739 19.3176 9.44294
Pt 17.7089 17.3859 13.6315
Au 17.675 19.4345 15.5669
Pt 19.6017 17.4383 15.6662
Pt 19.6486 19.3422 13.6087
Pt 17.6171 17.4424 17.5664
Au 17.5316 19.6135 19.6854
Au 19.4848 17.531 19.6878
Au 19.5499 19.5364 17.6576
Au 17.5125 17.5902 21.7466
Au 17.4823 19.6611 23.6933
Pt 19.4676 17.6313 23.7703
Au 19.5072 19.6295 21.7486
Au 17.4709 17.6781 25.6867
Au 17.4065 19.7069 27.7263
Au 19.4114 17.6988 27.7849
Au 19.4605 19.7103 25.7349
Pt 17.3489 17.6745 29.7389
Pt 17.2912 19.6468 31.644
Pt 19.3484 17.6746 31.7109
Au 19.3638 19.6936 29.7902
Au 17.314 17.7123 33.6104
Au 17.3638 19.6927 35.6303
Au 19.3804 17.7308 35.6228
Au 19.3633 19.7278 33.6211
Pt 17.3944 17.6909 37.6005
Pt 17.4167 19.6233 39.5613
Pt 19.4186 17.7034 39.5575
Pt 19.3835 19.7126 37.6463
Pt 17.476 17.7132 41.5668
Pt 17.5311 17.7791 45.3152