3871
Atoms. Timestep: 20910
Au 14.1449 12.5991 6.85366
Pt 25.0651 10.4337 15.7029
Pt 25.0411 9.23235 13.294
Pt 17.6963 14.0796 35.1578
Pt 16.8458 10.2669 34.3504
Pt 14.2329 14.9986 28.1721
Au 7.11465 11.2333 25.3949
Pt 14.7549 8.86417 11.9904
Pt 16.8656 24.6181 27.8606
Pt 20.7277 12.6161 28.2518
Au 16.5159 27.6668 45.1896
Pt 16.1407 16.3951 35.0061
Au 19.6015 42.6488 34.5927
Pt 19.4269 5.30881 16.1928
Pt 25.3273 20.9097 16.0364
Pt 27.5283 20.671 35.7126
Pt 30.8932 25.4945 23.2578
Au 10.2244 8.5835 33.57
Pt 14.5714 28.5623 24.8117
Au 6.7771 12.6634 27.6743
Pt 15.8966 23.9297 42.3377
Au 9.9317 33.3793 15.5455
Pt 28.7586 18.5405 28.1321
Au 8.96432 32.416 41.0156
Pt 11.682 19.3129 23.2166
Au 5.82524 15.2919 27.5491
Pt 18.5109 24.1613 18.7614
Pt 15.5263 8.27119 28.0969
Pt 16.4664 14.4405 26.014
Pt 23.6328 8.02631 34.978
Pt 13.3946 8.31747 23.6835
Au 20.3434 20.8454 5.08926
Pt 14.0033 31.5088 42.8811
Pt 15.1043 13.766 19.6914
Pt 22.3056 29.0879 16.6501
Au 12.7755 15.0693 6.80535
Pt 27.5085 15.2622 36.44
Au 19.6184 31.9216 47.0724
Pt 26.8073 21.7897 38.0639
Au 8.32883 13.6953 22.978
Pt 23.0172 24.0654 26.048
Pt 23.9187 38.8859 19.6211
Pt 9.58402 27.0858 24.3526
Au 4.0476 17.1567 21.9212
Pt 20.3652 13.6127 15.5316
Pt 13.8311 27.9472 44.4224
Pt 27.3638 20.1272 46.4596
Au 22.3353 48.7685 20.8008
Pt 10.4075 14.7398 24.6073
Au 5.40729 17.5667 17.1713
Pt 11.7782 22.5584 16.8479
Pt 23.5622 28.0359 36.5304
Pt 11.0226 10.6836 29.5028
Au 32.2749 5.64025 18.5361
Pt 15.2491 22.0398 5.77251
Pt 21.212 13.4845 38.2581
Pt 21.4032 24.0603 18.014
Au 14.0965 24.6573 6.03472
Au 26.1034 31.4427 11.6139
Pt 18.6743 19.4478 19.7646
Au 6.38374 13.9309 25.1004
Pt 9.83014 17.3483 35.7355
Pt 17.9996 28.7826 31.9342
Pt 8.28318 16.1046 24.1655
Pt 11.5308 29.6061 9.52611
Pt 16.7844 14.9895 32.7301
Pt 24.5959 20.2814 27.3412
Au 21.512 7.04004 40.0584
Au 2.04827 24.9873 27.3745
Pt 12.7402 24.9248 15.6558
Au 23.926 17.8881 44.2084
Pt 25.8219 33.6708 29.9503
Pt 8.82045 31.2608 24.8483
Pt 14.9045 16.8293 37.3439
Au 9.02627 13.5753 36.3831
Au 24.6342 9.49601 42.6328
Au 25.3265 4.97278 29.218
Pt 17.8545 30.8253 33.7033
Pt 11.6734 23.6719 26.4712
Au 11.1833 8.21203 31.0648
Au 11.2123 12.9962 38.2915
Pt 10.5294 22.0279 30.0649
Au 27.0028 33.9889 19.5073
Pt 13.9246 6.31874 15.4604
Pt 9.11729 25.1719 14.0863
Pt 4.83965 25.2457 27.3135
Pt 19.6842 10.8888 24.1426
Au 8.99281 40.8804 18.816
Pt 11.6295 8.37361 19.326
Au 13.0572 10.8111 10.2173
Pt 9.47898 12.5866 28.0087
Pt 13.1097 12.5825 18.2848
Pt 10.179 18.2645 15.6151
Pt 23.2755 36.529 33.7132
Au 14.225 5.16727 21.7685
Pt 21.448 35.6215 30.6186
Pt 15.7366 38.6051 16.3355
Pt 12.7707 23.6766 38.6568
Pt 14.8033 42.1367 25.4906
Pt 28.4312 19.8805 24.978
Pt 12.339 19.4131 29.7924
Au 40.4312 12.7342 37.8068
Pt 25.2461 32.4632 34.0951
Pt 12.2472 14.9222 26.5273
Pt 22.566 8.96871 29.7723
Pt 13.6965 12.6421 36.6454
Pt 21.0077 20.4977 38.7277
Pt 20.911 20.6646 21.1056
Au 7.01727 16.0518 32.2357
Pt 17.5492 17.3883 21.4587
Au 14.069 14.132 42.1149
Pt 12.0122 31.1851 37.8231
Au 31.6986 49.7198 19.0414
Au 3.95501 31.6518 32.0037
Pt 9.44464 24.1641 33.3177
Pt 18.8014 39.6826 20.1929
Pt 20.1299 8.74026 25.7746
Pt 23.4973 19.3822 32.8923
Pt 15.7514 36.2688 24.1522
Au 11.7635 18.3619 42.8076
Au 21.4922 27.9245 3.97637
Pt 12.7604 12.3906 34.1704
Pt 18.6408 26.3848 12.9196
Pt 17.1429 31.9034 25.3361
Pt 17.7368 8.08809 32.8953
Pt 17.2681 22.7702 32.0612
Au 16.583 19.2196 2.67776
Au 13.5276 41.323 30.2503
Au 38.5847 30.5538 38.0022
Pt 18.4161 29.7194 16.4062
Pt 16.9462 29.8046 29.2502
Pt 23.6525 28.9208 27.69
Pt 23.63 23.986 29.9936
Pt 12.2718 16.1601 16.2307
Pt 10.6891 20.8028 11.1575
Pt 8.81921 29.8878 30.4019
Pt 10.2234 21.563 33.1279
Pt 10.3628 36.0286 27.2029
Pt 14.2388 16.1652 18.4572
Pt 16.7876 42.147 30.1556
Au 25.9718 47.814 17.2301
Pt 15.9707 34.6614 39.2866
Pt 27.0013 42.2702 24.4298
Pt 8.5763 20.3946 29.2936
Au 4.58157 27.8985 15.0655
Au 16.4166 19.2625 42.0892
Pt 13.0911 33.4727 41.3309
Pt 9.77741 31.0599 17.1613
Pt 18.754 19.0758 32.2532
Au 5.57621 14.9654 22.6986
Au 1.78791 23.0526 25.436
Pt 17.5603 21.0453 36.522
Au 18.4185 13.5288 45.6846
Pt 11.0033 24.8351 40.4917
Pt 12.5937 35.1765 17.9919
Pt 20.3924 34.4653 40.0888
Pt 20.1561 16.2934 5.40432
Pt 18.2779 15.3177 43.6417
Pt 23.1094 21.5899 25.3289
Pt 20.2389 27.9569 33.3303
Pt 29.7304 38.6122 32.285
Pt 20.027 15.8071 38.4529
Pt 8.1555 29.5241 18.7086
Au 10.5923 19.1117 6.63294
Au 4.5704 31.9641 26.6807
Pt 11.5617 22.7032 9.506
Pt 7.65318 17.4269 18.7295
Au 13.4813 9.5581 30.6133
Pt 13.0382 21.7677 23.7265
Pt 18.4332 24.236 41.3784
Au 16.4098 9.01654 36.9501
Pt 20.529 23.3168 27.3365
Pt 21.5022 32.8026 22.2617
Pt 27.1647 45.3376 35.9752
Au 3.57431 36.2638 25.8315
Au 14.1874 7.85046 35.8953
Au 9.3806 37.4076 15.2921
Pt 20.049 11.6345 19.8587
Pt 13.984 24.0144 24.6495
Au 7.12983 17.6035 34.5779
Pt 20.2978 20.2889 36.0343
Au 31.9059 31.3295 26.3084
Pt 6.93558 28.0314 30.4577
Pt 13.2871 30.8663 31.057
Pt 14.9119 23.5075 15.4076
Pt 18.7917 17.821 42.5319
Pt 23.4473 40.2097 29.1046
Pt 33.4276 21.0721 22.8046
Au 16.3778 39.8893 13.9386
Pt 21.0287 17.5594 24.3689
Au 7.86247 15.9665 36.7819
Pt 23.694 15.206 38.7183
Pt 34.7733 27.9091 29.5367
Pt 24.7207 34.4618 32.2364
Pt 14.1783 23.938 27.5723
Au 3.87257 34.5585 28.1114
Pt 25.2389 21.725 29.5156
Pt 7.75968 33.6376 24.1722
Pt 28.6218 31.9026 37.1599
Pt 7.49479 26.4642 26.275
Pt 19.4454 26.9213 30.8237
Pt 14.4638 22.6794 32.3645
Pt 18.1039 28.9459 18.9372
Pt 9.62946 26.0159 11.5289
Pt 6.99106 22.6414 19.8941
Pt 13.4357 26.2628 26.4825
Pt 22.5261 21.8897 19.4538
Pt 13.1276 32.7967 33.1137
Au 23.8101 13.3022 41.1237
Au 13.5196 16.8581 41.5424
Au 18.8621 30.1998 13.5614
Pt 13.142 21.7298 14.547
Pt 23.166 37.7142 15.1804
Au 2.92881 27.1099 29.1504
Au 2.88155 27.4562 26.4903
Pt 12.7089 28.304 20.1791
Pt 7.61013 23.5198 38.481
Pt 12.59 37.5505 35.6474
Au 29.1733 34.4123 47.1087
Pt 17.6355 30.2655 37.1129
Pt 20.9902 42.9924 31.9139
Pt 18.1061 26.5731 26.4319
Pt 4.34953 22.6588 26.1428
Pt 9.18702 19.7706 35.0708
Pt 26.0412 24.2822 33.3612
Pt 6.74484 24.5481 17.9143
Pt 14.284 17.7787 12.4984
Au 5.58355 34.3019 22.5932
Au 26.2867 47.0851 33.6484
Pt 15.1803 25.8034 17.116
Pt 13.1678 20.1322 12.2158
Au 9.05419 35.9561 32.7547
Pt 14.1707 12.5701 29.8266
Pt 21.5413 34.8213 35.312
Au 6.53136 31.6849 18.9022
Pt 9.46893 24.4541 30.5902
Au 13.3181 40.1913 38.174
Pt 20.8644 44.8559 29.7911
Au 5.21865 29.3733 19.6255
Au 4.22587 20.262 28.3817
Pt 17.4355 40.1259 17.9598
Pt 11.5506 19.2057 33.6437
Au 32.1128 44.2779 17.1211
Pt 17.1071 35.1162 36.79
Pt 16.3802 30.79 15.1985
Pt 7.96507 34.9592 26.433
Pt 19.5317 27.3537 22.1713
Au 3.2856 24.4681 29.7152
Pt 19.0163 20.08 16.9065
Pt 8.99951 24.4616 19.3619
Pt 30.4025 48.4154 22.5663
Pt 13.8205 36.7968 33.0645
Au 10.7368 42.1746 20.3757
Pt 24.0319 30.2535 38.8105
Pt 24.6316 31.5502 28.61
Au 9.07302 38.3002 17.9593
Pt 11.6142 25.4929 24.5853
Au 10.3174 15.5996 38.0782
Pt 30.7905 37.2596 27.8756
Pt 23.72 39.856 22.1119
Pt 26.3446 43.3686 20.7001
Pt 18.4879 18.0643 11.9706
Pt 18.7939 28.7863 27.5551
Pt 10.1027 19.6703 31.3295
Pt 25.9757 20.1187 31.6404
Au 12.0995 20.9838 43.3452
Pt 15.6752 22.7995 8.18501
Au 26.7456 7.45636 11.7773
Pt 9.96092 17.1713 20.0459
Pt 28.6756 17.1142 25.7951
Au 4.53619 32.0623 29.4306
Pt 6.66431 30.4366 34.4837
Pt 18.4771 10.7254 12.7403
Au 20.6077 3.68227 26.1169
Pt 16.1859 19.9465 25.9634
Pt 22.8716 7.53657 12.6805
Pt 18.2232 6.41808 23.03
Pt 20.5661 24.8341 22.9584
Au 15.0985 10.4924 8.45426
Au 7.4487 14.3711 29.7886
Pt 17.7614 8.89342 24.0323
Pt 6.37316 30.3233 31.7881
Pt 12.4004 22.8585 34.1206
Pt 15.4342 30.5529 23.3388
Au 33.5269 21.5616 15.4262
Pt 22.9917 33.3219 30.2
Au 26.0769 18.4948 16.9821
Pt 16.3213 13.2778 28.4193
Pt 11.5774 35.6986 15.3301
Au 41.4424 23.9735 35.8238
Au 29.5497 11.8345 44.4432
Au 46.3694 30.4753 35.4283
Pt 20.3674 21.2409 29.0526
Pt 22.4891 15.1016 21.9467
Pt 12.7327 13.5051 20.7394
Au 18.9917 15.6416 47.2979
Pt 10.1982 37.3088 30.7764
Au 42.6077 28.2273 34.2933
Pt 20.655 25.4206 34.0581
Au 10.6197 34.3681 41.9789
Au 22.8376 38.3549 41.1502
Pt 5.18977 22.887 28.5841
Au 7.93715 21.9734 11.0386
Au 17.8117 32.7676 13.2319
Au 28.9969 20.1364 7.6786
Au 4.98699 34.0979 19.5345
Au 3.21455 21.5597 23.6318
Pt 11.3734 33.3998 36.6447
Pt 13.7235 26.4401 37.0229
Au 29.0825 24.515 39.3549
Pt 34.7254 12.8885 15.9655
Au 27.2168 40.7411 9.012
Pt 7.34701 26.0785 23.4519
Pt 17.0852 29.3101 25.5785
Au 11.4661 7.18436 14.62
Pt 7.75732 22.9064 29.2485
Au 4.15286 29.6536 33.8227
Pt 8.89874 27.5735 21.7556
Au 28.2599 26.7938 10.4201
Au 32.2392 26.8736 20.256
Pt 16.8658 18.6031 37.5196
Au 21.737 15.0432 40.5647
Au 28.2673 33.2065 17.135
Au 32.9869 31.41 34.6828
Pt 14.15 11.5056 12.6326
Pt 12.1054 25.0422 10.8109
Pt 16.8599 14.1311 41.4944
Au 42.7104 34.3134 38.591
Pt 28.1597 48.2403 21.4155
Pt 23.1453 25.0531 23.5614
Au 21.9657 5.18347 11.2059
Au 23.679 12.2101 38.591
Pt 15.4395 15.1659 30.469
Pt 9.26778 28.4511 10.7732
Au 13.0648 38.1659 40.3238
Pt 12.6033 14.7441 23.1471
Pt 19.7808 25.4496 16.4099
Pt 8.10883 22.2694 31.7314
Au 5.86936 23.7088 31.0498
Pt 16.6817 18.8723 28.4045
Au 8.7177 34.6175 39.4365
Au 23.795 18.2221 11.4296
Au 22.1564 30.2247 5.42697
Pt 19.2178 23.9675 14.0546
Pt 12.7179 33.4028 15.97
Pt 13.4724 27.4821 15.54
Au 36.3363 26.9294 4.0483
Au 39.1974 31.5305 11.2039
Au 18.6472 34.1693 10.8184
Au 16.2166 19.5764 5.32292
Au 25.9161 20.8591 24.9027
Au 32.0339 22.1071 18.5316
Au 35.2625 17.6385 46.47
Pt 10.8075 26.802 26.9394
Au 9.78244 18.1547 8.97486
Pt 14.496 7.79957 20.5509
Au 41.2726 13.2634 35.2161
Pt 14.171 19.6999 27.858
Au 26.8687 31.3994 14.5661
Au 16.9798 35.2375 8.69678
Pt 12.0097 17.8017 18.2313
Au 39.6728 31.6555 41.1824
Au 23.8504 20.5792 43.2244
Au 19.6273 48.5428 21.1744
Pt 28.0828 16.1187 16.8804
Pt 11.7102 23.6902 31.7569
Au 48.6075 31.3776 25.6511
Pt 22.122 17.6082 38.0051
Au 2.45071 22.373 28.1086
Pt 27.8895 11.1238 15.5646
Pt 19.5965 22.5767 37.3491
Au 24.2047 41.9794 40.6362
Au 10.6999 7.66744 23.8608
Pt 9.42918 40.6994 26.843
Pt 12.4004 18.3174 14.2459
Pt 43.1904 31.4043 19.4791
Pt 14.3369 33.0565 27.1607
Au 13.6602 8.22323 9.75178
Au 23.1521 1.48358 19.4222
Au 30.0172 27.2713 8.12162
Pt 16.1607 22.8089 25.8091
Au 20.8078 9.5594 8.11413
Pt 13.7607 35.1333 13.6965
Au 24.3892 33.8489 43.2559
Au 5.59976 18.5163 32.252
Au 43.801 14.199 21.0625
Pt 17.2467 15.7011 39.0709
Pt 19.8975 30.7676 38.3714
Au 28.432 29.7838 12.8332
Pt 12.5032 25.9389 42.9277
Au 41.9056 17.7302 39.9512
Pt 8.44827 14.6345 26.6095
Au 24.8116 30.2222 16.2287
Au 28.2127 12.3726 3.41159
Au 12.082 17.2796 5.18142
Pt 21.1478 30.0917 27.7186
Au 37.2103 24.57 8.28639
Pt 11.0344 34.1824 23.0564
Au 2.50203 25.4936 34.7419
Pt 18.5012 18.2456 24.0474
Au 22.979 20.7197 7.29264
Au 31.2681 18.9595 9.50146
Pt 20.1339 14.3447 35.8714
Au 42.1987 30.6783 41.2773
Au 23.9502 2.64186 22.9145
Pt 7.10911 23.7737 26.8241
Pt 22.6977 11.4011 42.9863
Pt 14.8334 25.4876 44.3905
Pt 23.5809 32.4486 37.274
Au 8.29781 20.1507 39.5025
Au 33.2313 12.0842 41.876
Pt 24.9325 25.0165 27.9301
Au 21.0142 5.58401 37.675
Pt 6.57611 18.8356 28.3116
Pt 11.566 27.9307 36.1461
Pt 20.4707 10.9478 10.9469
Pt 11.0718 20.9118 25.4592
Au 11.326 24.3776 7.30918
Pt 14.655 17.6656 29.8826
Pt 20.9804 20.207 23.7277
Pt 5.86294 36.2318 27.1434
Au 20.787 13.548 42.7724
Pt 13.4909 35.2968 23.1275
Au 30.7141 12.595 7.17032
Pt 8.77751 25.75 39.0669
Au 21.8215 3.52348 20.9863
Pt 16.0345 42.5274 18.7468
Au 22.6752 23.4431 7.119
Au 23.0279 16.0304 5.81127
Au 26.3546 34.1469 46.9764
Pt 7.4824 33.7494 20.467
Au 32.7196 24.6197 2.67382
Pt 26.0413 33.8176 22.2138
Au 43.394 40.336 18.5729
Pt 20.7393 29.902 22.9595
Au 28.8232 28.4738 43.4343
Au 41.2823 21.1273 9.51572
Pt 20.4866 43.0367 17.5858
Au 21.7931 25.7066 5.68493
Au 19.9472 18.0563 48.2704
Au 46.1952 36.3294 26.1773
Au 26.3545 26.1767 40.2499
Au 28.8894 29.1799 19.4402
Au 33.4335 31.6067 11.895
Au 43.9617 19.8895 33.9229
Pt 38.8127 19.8143 33.6152
Au 37.0034 32.5314 41.1529
Pt 8.56842 26.119 16.8689
Au 25.257 5.1985 23.1219
Pt 8.32237 21.4299 37.0588
Au 28.7862 42.2871 10.7744
Au 29.5483 47.9472 29.9374
Au 8.2618 10.2475 27.7572
Au 12.6013 33.5873 43.9597
Pt 15.7398 29.8765 43.8593
Pt 13.1535 20.8817 39.0226
Pt 9.11978 26.9938 36.7459
Pt 26.7982 10.248 28.1245
Pt 21.8638 13.0906 11.2182
Pt 10.24 34.2801 20.3037
Pt 15.33 41.0678 32.3954
Au 3.7093 29.7638 25.2543
Pt 6.96055 36.3744 24.2559
Au 30.3171 14.1318 3.63946
Pt 6.29197 32.7869 32.8578
Au 21.7761 27.6401 9.22415
Au 19.9934 30.9943 7.12851
Au 34.1929 16.521 10.0019
Au 24.5155 16.1159 8.12254
Au 30.5095 21.7241 9.44157
Pt 10.5172 28.089 18.1491
Pt 13.8294 21.6986 26.1542
Pt 14.9913 37.4706 28.5345
Au 30.2994 28.6256 10.9587
Au 18.8118 32.1265 44.5142
Au 42.0217 35.7985 15.6372
Au 27.8574 39.3988 13.4458
Au 8.71074 13.9355 16.2214
Pt 5.09324 19.7637 22.8675
Au 21.9264 32.9433 42.1843
Au 37.1509 21.5867 35.0197
Pt 18.7859 37.7073 18.4851
Pt 21.2047 41.8243 15.4179
Au 21.0377 37.4336 6.86461
Pt 22.8765 22.2692 28.0737
Au 31.2232 37.804 42.664
Pt 14.2734 19.4992 37.0694
Pt 7.38662 20.075 19.1264
Au 28.8169 36.887 41.3994
Au 37.6185 33.4137 36.3179
Au 10.6616 40.4499 33.515
Pt 17.7446 30.9817 42.2227
Pt 30.6663 12.2875 36.3477
Pt 13.4263 23.4853 43.3266
Pt 26.1916 18.9455 29.1136
Au 19.7602 20.4591 49.4997
Au 5.55797 38.3801 25.5703
Au 37.6217 28.1913 43.0865
Pt 30.6498 40.6259 36.0286
Pt 16.6852 24.1133 13.3095
Pt 13.7587 30.2215 33.6628
Pt 11.6072 31.9126 21.0841
Au 6.5235 13.532 20.5971
Au 6.79647 25.0258 20.9613
Pt 14.2473 29.6586 14.1953
Au 28.0267 3.9354 32.7143
Pt 10.7959 26.9307 15.68
Au 10.1372 9.14393 21.5341
Pt 15.591 33.8677 34.8003
Au 3.56629 32.1064 23.728
Pt 16.9481 32.4897 22.3764
Au 35.8692 26.6435 6.77375
Au 18.2344 12.4558 43.1448
Au 18.0606 6.07747 10.2325
Au 21.7672 25.0495 47.1211
Pt 16.8387 41.3106 20.9546
Pt 28.3393 43.4114 22.5177
Au 13.6885 21.2662 45.5114
Pt 15.82 30.995 35.2735
Au 29.2693 30.0044 38.9604
Au 13.6203 42.5136 17.273
Au 8.80681 40.7496 22.2477
Au 7.60142 18.7106 37.173
Pt 11.0856 33.0799 18.1422
Pt 15.3184 43.4827 21.2073
Au 23.1657 5.40543 36.0115
Pt 22.9126 17.2716 41.8105
Pt 20.7426 20.5909 26.4134
Au 12.8833 42.0708 32.9001
Pt 12.812 18.1886 39.0842
Pt 22.0798 41.4195 33.841
Au 25.9938 19.4125 48.7113
Au 23.2464 24.2072 34.8966
Au 13.505 10.1532 37.6206
Pt 27.2314 31.3141 29.9413
Pt 10.9155 35.0962 29.631
Pt 25.7017 23.2832 35.9489
Pt 11.5046 37.0286 19.3459
Au 23.591 5.66174 38.748
Pt 10.7503 29.1633 28.3724
Au 18.2373 38.0884 8.63631
Pt 14.4202 28.8846 29.4012
Au 2.5099 24.1889 22.8978
Pt 11.0292 38.4878 23.6104
Pt 15.6867 27.8009 27.1447
Pt 19.9159 33.6538 31.6227
Pt 30.2118 40.3346 18.5978
Pt 5.84632 24.4092 24.6991
Pt 15.6382 29.8102 31.5589
Pt 10.7163 31.6329 29.7544
Au 11.4522 33.7672 13.1961
Au 25.9923 25.1471 22.4411
Au 6.85179 14.6849 34.6769
Pt 22.2713 29.4027 25.3567
Au 6.82465 40.5106 26.5247
Pt 15.1272 34.9658 18.9223
Pt 18.0066 26.4191 33.2913
Pt 19.7447 33.1913 26.3419
Pt 15.1177 36.5961 35.4637
Pt 16.3063 38.084 19.3805
Pt 23.9815 39.4488 32.9445
Pt 14.8418 27.2107 42.1192
Au 18.6346 35.4552 13.457
Pt 14.2867 37.7229 25.9619
Pt 6.33757 18.3522 20.8855
Pt 24.6104 18.9354 14.2336
Pt 13.4929 35.507 39.6798
Au 27.9199 42.5747 13.4782
Au 11.8375 41.7587 15.1399
Au 14.3208 42.5483 14.4745
Au 35.7209 14.8361 11.6876
Pt 11.5927 27.2914 22.3929
Au 4.8604 29.269 22.8517
Pt 16.7764 44.2773 28.6616
Au 2.68129 33.6476 25.8898
Pt 24.5187 34.0267 27.5437
Pt 22.128 29.6091 34.3754
Pt 9.71333 25.1005 22.2858
Au 43.9952 12.0365 32.0168
Au 17.751 10.582 41.1262
Pt 19.1272 35.5244 16.3341
Au 5.42309 36.3659 29.8104
Pt 13.7684 19.7224 41.3018
Pt 22.7807 14.6649 16.2928
Pt 26.7909 44.0653 27.1968
Pt 16.0619 32.6107 19.9315
Pt 22.804 37.4238 21.6021
Pt 13.6442 28.9844 17.7748
Pt 13.0934 28.8805 27.0818
Pt 11.0199 38.6396 26.3441
Pt 20.2334 18.2694 21.8274
Pt 24.2382 13.8341 24.9227
Au 12.8059 5.82671 24.1144
Pt 16.1758 26.1725 35.305
Pt 12.5693 11.4611 14.7692
Pt 27.4621 17.9698 36.3739
Au 8.4951 14.7516 19.1246
Pt 11.4443 10.3106 23.9165
Au 10.128 18.4313 38.2502
Pt 17.0491 26.3748 37.9043
Pt 22.2483 19.5844 28.3621
Pt 15.8135 10.5493 29.6896
Pt 9.80954 19.2152 18.0609
Au 23.0779 27.9669 14.2977
Pt 16.749 11.3767 24.6513
Pt 11.7042 18.8515 26.9649
Pt 9.57815 20.7645 23.1226
Pt 27.3458 20.9995 17.8489
Au 32.3931 4.52769 30.116
Pt 12.0385 20.1423 8.79566
Pt 13.5465 8.89695 14.3888
Au 12.826 36.0259 42.2572
Au 34.6971 30.9858 40.2461
Pt 16.7296 19.2183 9.06271
Pt 20.0778 27.8883 17.4535
Pt 28.2781 6.1225 18.5792
Pt 28.6489 16.357 13.9458
Pt 10.026 16.7175 26.6647
Pt 23.3577 26.7565 25.7765
Pt 16.3366 11.7177 36.7762
Au 15.9699 4.47262 27.0075
Pt 6.95223 24.0829 15.1814
Au 23.7578 29.6109 18.8656
Pt 25.3824 22.7707 26.7081
Pt 14.5003 21.1961 16.8728
Au 11.8296 8.98542 35.6586
Pt 7.75454 23.3574 23.0511
Au 44.1527 22.6262 36.4023
Pt 20.5537 30.5184 18.2563
Au 29.2959 24.3859 14.1205
Pt 26.1719 19.3432 44.311
Pt 34.6737 12.1431 30.7543
Au 27.0229 24.883 42.6669
Au 39.2553 31.4845 35.431
Au 31.558 20.5644 37.2361
Au 18.7667 18.6293 4.8098
Au 37.0574 32.0357 5.98956
Au 39.4543 38.5989 34.7037
Au 3.52224 27.8141 35.7006
Au 6.45564 29.692 26.2844
Pt 21.4574 16.5382 17.7809
Pt 19.5346 29.3094 40.6278
Pt 8.8646 34.1802 36.6742
Pt 26.9447 11.5591 30.4973
Pt 15.2517 22.0664 37.5165
Au 12.093 14.7401 40.2748
Pt 20.237 16.1685 12.7377
Pt 17.9186 14.6147 21.4744
Pt 14.8713 20.4499 30.3518
Pt 12.1494 31.4023 14.1557
Au 15.0588 33.2346 7.80551
Au 11.5783 36.694 12.8196
Pt 11.4321 30.731 35.1956
Au 12.9877 19.9801 5.6089
Pt 15.2976 21.9674 12.8414
Pt 12.6603 43.2981 21.9249
Au 37.3482 35.6 12.7727
Pt 17.9115 5.32651 18.4072
Au 34.5022 25.0194 8.87648
Pt 29.0438 7.57246 24.9745
Au 21.9272 15.7792 3.32678
Au 40.3221 13.5589 40.6215
Pt 7.14282 26.8114 14.8201
Pt 14.2448 17.3405 26.9232
Pt 15.5303 10.9288 20.56
Au 47.4281 32.9328 21.314
Pt 18.3824 20.6014 38.9385
Au 12.6065 7.25838 33.7051
Au 41.6963 30.4868 17.4788
Au 22.8296 23.2481 44.0488
Pt 22.3207 21.9818 36.7252
Au 40.3223 28.1419 7.46939
Au 37.2335 47.6603 26.9435
Au 17.9102 3.94549 24.8666
Au 6.2444 12.1319 22.9441
Au 28.012 20.442 40.2612
Au 22.3546 31.652 47.5009
Pt 20.5322 9.07914 13.0021
Au 8.65465 10.7124 23.1998
Pt 13.5341 10.2869 27.9762
Au 33.6339 21.1704 10.5206
Pt 16.3948 12.8996 39.2422
Pt 35.7211 23.8431 33.4488
Pt 24.5932 10.0169 31.0206
Pt 22.7245 8.95824 17.2253
Pt 18.2776 32.4116 15.9478
Pt 21.7427 23.5402 38.8004
Pt 12.092 19.9509 16.3873
Pt 9.55011 27.0091 29.8423
Pt 10.6822 33.285 34.0734
Pt 16.5519 25.8301 40.4337
Au 34.2589 38.287 23.7833
Pt 8.19944 36.1437 28.8892
Pt 19.688 29.4426 29.993
Pt 22.4195 31.5172 32.2693
Pt 8.13755 28.2056 28.0833
Pt 6.37813 33.9518 28.5922
Pt 21.6588 31.9043 24.8176
Au 11.28 39.1163 14.239
Au 29.0207 20.7136 44.4028
Au 45.4401 19.6362 17.2112
Au 27.4815 14.9784 3.31554
Au 27.4661 25.0608 1.11127
Au 27.0502 32.844 27.6648
Pt 40.4241 15.2282 16.9487
Pt 19.7079 15.8503 22.8196
Pt 17.454 8.10856 12.0577
Pt 12.5979 14.8418 30.4078
Au 27.699 36.3332 45.8949
Au 44.7627 36.4715 15.7648
Pt 16.1991 20.3893 32.5732
Au 40.706 10.4888 32.6786
Pt 41.2359 31.8841 30.6408
Au 34.8016 39.0901 20.7036
Pt 23.6295 17.2849 16.1115
Pt 21.7432 25.9931 31.3884
Pt 6.23282 17.5102 23.4873
Au 31.7326 20.0881 6.98245
Pt 27.2533 14.1588 19.0762
Pt 21.0311 23.7502 29.8956
Pt 12.8771 9.5858 21.5735
Au 26.4744 16.5436 43.7731
Au 13.7832 23.927 46.6229
Pt 13.6268 29.6296 36.3085
Au 22.8976 4.44491 30.6406
Pt 18.0895 14.6742 30.1006
Pt 17.5964 20.659 30.2154
Au 4.66988 16.2317 25.1508
Pt 35.8405 34.1066 26.693
Au 7.59188 30.1403 21.4532
Pt 6.59306 21.1617 14.9993
Au 20.5446 4.82815 28.9933
Au 4.95554 26.3291 30.8716
Au 35.947 25.3722 13.2723
Au 26.5921 22.9209 3.14233
Au 11.1605 15.43 9.4943
Au 26.308 15.3625 6.08565
Au 23.2533 6.744 9.14136
Au 37.7105 38.3721 13.8868
Pt 11.114 31.1227 32.5046
Au 17.8199 36.7875 11.1025
Au 23.5481 24.3972 12.4127
Pt 16.8627 14.8097 9.86394
Pt 16.9452 42.0016 23.5443
Pt 11.3249 36.5436 21.902
Au 34.3748 34.0385 19.8871
Au 10.3216 14.209 11.9369
Au 35.123 33.7214 12.7121
Au 40.9472 19.8632 38.5582
Au 28.6842 15.7646 11.1946
Au 39.5815 25.4075 7.15063
Au 27.5848 20.8684 10.0351
Au 24.6984 26.8089 20.1952
Pt 19.2685 30.9547 20.9742
Pt 15.236 33.484 24.4306
Au 6.20983 20.2172 35.3231
Au 32.5892 5.77166 27.5877
Pt 29.1354 35.2055 27.8886
Au 32.698 16.1559 42.7606
Au 16.9957 42.9359 14.2497
Au 18.1067 38.77 40.1553
Pt 25.4924 24.9894 25.1656
Au 25.6525 15.0618 47.6746
Au 38.2951 22.9908 37.1449
Au 25.8269 45.7815 38.4308
Pt 7.4706 19.628 24.4864
Pt 22.7316 30.3124 29.8955
Au 45.5933 12.9574 30.0733
Au 17.3863 40.1498 37.2377
Pt 29.2878 16.4963 34.6525
Pt 28.0367 22.9545 34.3405
Pt 14.4873 35.4879 16.2298
Au 3.94794 23.2146 34.8225
Pt 20.667 45.5365 17.9402
Au 25.1556 23.0818 8.31581
Au 4.51334 22.9858 18.6002
Au 39.0063 19.3044 19.0467
Pt 12.194 12.7698 25
Au 27.6331 33.1718 9.81647
Au 26.7065 33.8704 5.41822
Au 28.5024 27.5489 17.0833
Pt 23.2639 21.6335 34.2856
Pt 21.2958 19.1403 31.0327
Pt 10.3371 29.3892 20.5456
Au 11.5468 28.9854 6.93522
Au 39.408 20.8335 45.5587
Pt 22.51 28.625 31.8445
Au 40.5771 31.6581 13.5322
Au 26.2028 27.3713 37.2549
Au 13.6959 40.1363 13.3204
Au 30.1832 19.5959 46.7068
Pt 16.2154 12.7701 22.2365
Au 26.7392 25.9824 18.4486
Au 28.6169 31.0547 44.3275
Au 41.7487 26.9976 39.2769
Pt 21.0266 27.5537 26.8525
Au 36.3215 30.9732 12.2131
Au 34.4379 29.8085 13.9397
Pt 15.9012 39.1363 24.0734
Pt 27.2545 38.4623 37.0284
Au 40.1184 29.2773 42.664
Pt 31.261 31.4453 37.0776
Au 22.0191 25.8626 44.3571
Au 13.7166 12.4977 39.4699
Au 24.3368 22.7357 38.4322
Au 18.7565 6.05234 36.1371
Au 32.2135 34.1686 43.7436
Pt 26.3925 13.4608 34.065
Pt 21.1391 17.7176 26.9067
Au 27.9571 13.7686 43.6706
Pt 37.3819 35.4173 33.3783
Pt 12.969 25.3643 33.6222
Pt 15.6192 23.5531 30.1099
Pt 8.53448 22.3268 13.7023
Pt 27.5643 10.2366 12.881
Au 6.8719 35.6998 18.3903
Pt 15.952 28.391 16.4403
Au 4.68227 22.8553 15.869
Au 9.35891 20.9904 8.82962
Pt 9.67077 16.3681 17.2983
Pt 23.3467 43.8504 33.4825
Au 32.5899 6.73703 37.351
Pt 15.6504 32.1056 32.6186
Au 6.41525 28.0705 17.1657
Pt 23.1195 14.7794 19.0219
Pt 9.26578 38.5538 28.6322
Pt 13.7521 19.2718 24.9371
Pt 10.0463 33.5508 25.6499
Au 27.2054 32.7898 32.4043
Au 9.14835 32.8571 11.9529
Au 30.8999 39.1437 8.4957
Au 40.9716 33.9762 40.6939
Au 35.4357 36.4967 6.29875
Au 27.5631 27.2217 31.7387
Pt 21.2447 24.8457 36.5757
Pt 15.6199 32.9219 17.0287
Au 35.0676 31.5298 45.2233
Pt 27.9459 43.0709 29.6025
Au 46.8512 31.371 16.9063
Au 14.2272 39.7692 10.4125
Au 27.882 4.45314 35.3049
Au 40.6913 5.30974 31.3871
Au 29.4561 42.3011 42.2897
Pt 17.1715 33.89 30.4978
Au 30.9444 29.5075 44.9124
Au 24.3772 36.5732 42.5524
Au 31.0679 24.6394 41.36
Pt 17.3687 25.2571 30.7625
Pt 15.728 23.0552 45.0245
Au 32.1638 24.8928 13.5376
Pt 21.3514 21.3805 17.1141
Au 39.1684 23.9726 42.2051
Pt 15.2463 29.6538 41.1298
Pt 8.04717 16.6126 28.5349
Au 8.67662 37.8137 22.441
Pt 10.4522 30.3023 12.0744
Au 9.92674 12.6177 14.185
Pt 24.8959 42.2359 22.6094
Au 3.63374 29.7465 28.0658
Au 26.5052 47.5926 30.6954
Au 39.8613 16.6686 14.5921
Au 20.5683 6.66822 9.13271
Pt 13.779 20.6342 34.4037
Au 31.1261 25.2145 4.81749
Pt 14.4202 24.1455 35.6953
Au 16.2344 39.8656 8.53636
Au 9.11895 11.0705 16.3405
Pt 15.5344 35.3867 26.5834
Au 34.8505 21.0449 6.16321
Pt 18.2759 25.6801 23.9316
Pt 9.21991 28.0112 13.4669
Au 4.98754 20.8096 20.3149
Au 9.38205 30.8623 14.3889
Au 15.1715 4.18269 14.4965
Pt 19.9877 35.4509 18.9809
Au 12.9378 7.5577 28.7185
Au 16.035 46.0288 22.1912
Au 26.3319 28.5846 11.3037
Au 38.4847 21.8944 14.2012
Au 16.9879 30.8451 46.2596
Pt 8.96921 29.015 34.8954
Au 31.4846 35.3074 46.1501
Pt 11.2646 33.5501 39.4077
Au 17.8556 2.92784 19.6418
Au 5.43225 21.604 33.0096
Au 25.7792 38.1953 44.5232
Pt 20.6916 17.6801 40.3259
Au 14.8652 34.6963 44.8046
Pt 15.2516 39.3894 21.3999
Pt 20.5693 22.8116 34.77
Pt 18.429 13.5835 37.7235
Pt 14.4766 41.3441 22.8969
Pt 24.1438 17.6164 27.6063
Pt 18.1078 16.3088 36.6643
Au 31.4582 23.3864 15.752
Pt 32.11 33.6081 33.1744
Au 17.7904 21.9314 4.77146
Au 23.7687 48.5675 18.6021
Pt 28.6546 42.0476 20.156
Au 3.66399 24.8195 20.4737
Pt 26.3178 41.331 38.4776
Au 5.26762 26.4596 19.0944
Au 18.9983 47.6282 26.5952
Au 10.2374 39.1542 20.574
Pt 10.4238 35.7961 35.2297
Au 23.1781 46.7425 16.7686
Au 3.02797 34.802 23.5481
Pt 11.6127 29.5742 16.1052
Au 16.0515 34.9043 12.3136
Au 5.76697 33.4442 16.9457
Au 34.6691 31.2885 4.77578
Au 48.4646 28.4894 20.9294
Pt 15.8581 41.2825 16.1959
Au 2.70822 20.4265 26.1039
Au 4.74117 30.2764 36.639
Pt 9.63805 36.2013 24.5882
Pt 27.139 23.4977 28.625
Pt 18.0698 27.2171 15.3818
Au 4.23138 29.0912 30.7313
Pt 19.9275 27.7819 42.9392
Au 18.0739 10.5399 8.4327
Pt 17.4947 35.7594 19.9959
Au 9.85151 42.8235 28.437
Au 22.0137 8.5915 42.3639
Au 23.4816 46.7457 34.2121
Pt 34.9355 31.3214 27.3151
Pt 12.6832 29.1435 42.3139
Pt 17.4431 25.0683 45.3837
Pt 33.4439 32.6148 38.1964
Pt 25.9666 13.6513 38.5005
Pt 17.8873 28.7157 11.437
Au 33.8053 38.6436 41.7172
Pt 15.8744 25.4931 22.4082
Au 9.19899 39.9517 31.1916
Pt 37.9844 43.4243 27.3362
Pt 23.2775 30.5107 23.0914
Pt 23.7113 41.6186 20.0184
Pt 20.639 31.9046 29.934
Pt 17.7303 34.0611 18.0626
Au 23.1876 27.9115 6.61335
Pt 21.1778 38.3109 19.5476
Au 5.60899 16.8399 29.9136
Pt 21.4777 46.821 22.5888
Pt 16.0901 19.7729 11.6299
Pt 10.4523 26.2867 34.3802
Au 4.77578 34.1622 31.1485
Pt 18.7905 42.2564 19.4209
Au 21.4057 45.3591 40.3139
Pt 13.8516 25.0052 40.824
Au 6.53481 35.0386 37.5426
Au 16.7848 17.7701 44.3807
Au 24.6975 15.2215 3.754
Au 28.0738 43.855 37.9566
Au 14.7075 29.4351 46.5222
Pt 23.1551 36.7698 36.4061
Au 15.5486 39.6095 39.403
Pt 11.0642 40.4116 28.9432
Pt 16.7765 24.3239 6.13335
Au 9.8413 10.6868 31.9988
Au 12.1666 22.4346 41.0944
Au 14.1976 18.9038 43.9224
Au 19.2547 42.6148 37.3039
Pt 7.76402 19.9024 32.8261
Pt 29.3533 33.3293 5.67759
Pt 24.7602 38.5556 37.4631
Au 31.3039 22.3417 2.71499
Pt 27.6719 44.3065 18.5858
Pt 34.8997 33.0142 35.8274
Pt 6.6754 25.6828 36.9808
Pt 31.5959 46.2253 22.158
Au 11.1561 37.7286 33.3584
Au 11.9979 6.89307 21.6165
Pt 25.0121 8.64789 26.2557
Pt 44.457 15.6776 25.6702
Au 7.47805 12.3561 18.2356
Au 7.03247 17.3831 12.6929
Pt 13.5045 11.8845 22.5867
Au 5.53329 15.9561 19.749
Au 15.3401 4.0436 19.5128
Pt 40.1856 10.8634 27.9175
Pt 7.95547 22.1145 34.4716
Pt 14.9935 17.4798 20.6954
Pt 20.9917 27.6919 36.1233
Pt 16.5629 28.5229 13.6195
Pt 15.1033 24.0051 10.9565
Pt 36.4972 13.7935 18.0111
Pt 27.9264 22.7782 25.664
Au 10.416 8.51434 28.0608
Au 7.91634 13.4299 32.3817
Pt 14.3253 10.4171 35.105
Pt 21.1124 19.1503 18.784
Pt 16.5593 10.426 10.9061
Pt 13.1745 22.1821 7.4444
Pt 39.1404 12.9098 17.1117
Pt 26.8365 16.9077 19.1099
Pt 31.5058 10.1872 29.8184
Pt 37.3054 20.3195 23.6487
Pt 27.2931 22.5369 31.3518
Pt 17.7378 15.3473 12.3045
Pt 9.85603 29.5353 37.4721
Au 42.3281 15.3145 15.01
Pt 14.072 16.2803 32.5214
Pt 14.7811 22.4982 40.4573
Pt 25.1586 12.4882 28.8771
Au 26.5359 4.55404 12.7001
Pt 35.4574 10.6622 13.9376
Au 15.2438 4.62649 24.3189
Pt 28.3122 14.8083 38.9623
Pt 17.6444 6.46422 28.2492
Pt 18.7943 20.0885 10.2975
Au 23.622 9.07392 7.87597
Pt 18.8043 16.3818 33.8463
Au 43.5064 27.8311 31.7436
Pt 9.51831 12.3298 25.2982
Au 27.672 22.3527 15.2597
Au 29.5544 44.1646 15.3174
Pt 16.6386 17.3578 13.8812
Pt 14.1716 18.2335 16.5512
Pt 22.5598 21.3915 30.7098
Au 31.2204 28.1253 5.6572
Au 29.6018 22.3111 46.6849
Au 43.1285 20.433 16.0487
Au 42.2067 15.2845 41.3261
Au 7.68607 36.4467 35.2937
Au 3.04596 30.4004 21.2526
Au 13.9341 31.4349 9.55706
Au 24.5061 49.5052 22.2318
Pt 19.3339 16.9231 19.5981
Pt 24.6057 17.736 36.6955
Au 16.9372 42.9202 35.607
Pt 15.3653 8.70574 25.4737
Au 37.4151 19.321 41.693
Au 32.0851 7.44276 34.7339
Au 25.2534 12.3187 43.2434
Au 28.4897 12.0361 39.7253
Pt 11.182 26.3585 31.7802
Pt 22.4643 15.2902 36.4324
Pt 11.5685 14.4201 32.7575
Pt 9.38598 17.7242 33.0081
Au 31.9435 7.20161 29.9934
Pt 21.0535 18.01 33.4902
Au 30.3839 20.6508 42.0111
Pt 33.0681 16.907 40.0987
Au 40.0373 13.7509 14.6236
Pt 13.9402 27.2903 12.7762
Pt 10.844 20.4913 13.7257
Au 18.766 8.71909 35.4844
Au 25.2529 2.4624 17.689
Au 11.3775 11.5685 12.2165
Pt 13.6582 24.397 8.77031
Pt 14.2079 19.3513 18.9522
Au 33.2831 27.542 7.37771
Pt 8.60378 31.2469 32.8918
Au 27.162 17.8649 7.11042
Pt 12.1673 36.444 25.0897
Pt 12.7606 29.8178 22.6231
Pt 30.3083 12.3776 15.203
Au 40.9629 23.2858 11.2278
Pt 10.088 23.4172 11.858
Au 19.6607 43.3198 13.818
Au 31.4167 7.00895 11.167
Au 26.0902 30.2004 43.0698
Au 24.8468 13.3494 9.49991
Au 34.5742 5.31781 33.4893
Au 23.4223 25.3262 9.36565
Au 24.8008 31.9405 6.20933
Pt 11.273 10.9243 26.7371
Pt 22.1045 14.3563 13.6361
Pt 34.5085 16.7574 36.454
Pt 21.9931 4.81848 16.4077
Pt 34.1004 37.8235 35.4935
Au 25.0707 24.7434 44.8714
Au 44.039 29.2845 12.7285
Pt 31.4803 17.5395 33.0541
Pt 23.135 12.8958 27.1681
Pt 15.549 12.8325 34.469
Au 47.0427 21.3202 24.1697
Au 26.0301 41.0111 14.7591
Au 27.606 31.2699 4.65259
Au 27.9456 25.9213 49.4546
Pt 20.7985 6.92191 17.9293
Au 21.1567 7.31863 35.5447
Au 32.3842 19.4105 14.1871
Pt 29.4925 6.31031 33.6596
Au 32.7438 39.5033 44.0681
Pt 11.4159 31.7503 23.8826
Pt 16.2992 25.263 8.92187
Au 31.6456 19.6094 17.0787
Pt 21.6123 10.9677 26.2361
Au 25.6578 25.7736 10.9375
Au 38.5645 26.0339 17.8372
Pt 29.4635 9.2573 27.3787
Pt 15.8909 25.6649 25.3109
Pt 28.4034 18.0607 45.1665
Au 22.59 22.8551 9.9845
Pt 12.8934 13.6592 11.2331
Pt 21.8015 27.3761 23.66
Pt 11.7583 16.5993 34.0844
Au 36.1056 8.4166 18.0075
Au 31.0544 32.8798 23.844
Au 20.7326 3.16221 14.6792
Au 33.2048 15.7984 12.5572
Au 32.0215 35.207 21.1066
Pt 21.3952 18.8748 16.1304
Au 35.8594 17.0809 7.91512
Au 39.9491 15.9706 9.87208
Au 23.8357 24.096 20.8102
Au 36.73 19.76 7.74804
Au 25.2807 33.1371 16.1792
Pt 17.9993 8.46147 14.6392
Pt 16.7118 19.0929 16.1176
Pt 26.2777 16.3954 34.4766
Au 32.7651 40.8849 13.0782
Au 27.8288 12.9969 46.4225
Au 40.7417 10.6143 35.791
Au 35.2206 15.3647 14.6338
Au 31.3833 32.432 21.0218
Pt 10.0847 18.1139 29.1148
Pt 29.5901 19.0691 34.8508
Pt 14.6324 27.4252 39.3274
Pt 21.0734 20.5702 33.4002
Pt 22.3328 12.7923 20.744
Pt 28.354 17.7535 39.2027
Pt 29.0309 14.665 30.3254