3871
Atoms. Timestep: 21118
Au 16.18 8.37179 12.3602
Pt 11.6093 18.4072 31.6768
Pt 19.9395 7.3478 36.361
Pt 18.7438 7.91822 32.3099
Pt 14.9392 28.8985 15.9887
Pt 13.3931 28.9624 18.3274
Au 12.7709 32.4878 45.644
Pt 13.646 35.4419 17.1057
Pt 35.1307 14.0268 24.0612
Pt 16.5294 12.2792 27.5169
Au 25.5812 42.7131 41.2148
Pt 16.765 39.1868 15.5458
Au 12.7406 44.9415 26.9402
Pt 11.8293 30.48 32.6883
Pt 23.0751 19.0317 25.3708
Pt 32.1806 22.2388 23.0588
Pt 24.2106 35.6896 19.6354
Au 39.5951 18.9758 40.0371
Pt 29.6985 21.9755 38.324
Au 9.26863 39.9919 31.4201
Pt 11.3919 10.5835 22.8411
Au 12.0219 43.555 31.255
Pt 26.7015 13.2225 24.5496
Au 26.7169 21.9566 47.5514
Pt 16.5511 18.4587 20.4225
Au 11.2542 42.6764 25.5744
Pt 27.3846 35.7051 37.7874
Pt 26.1781 6.60224 34.2477
Pt 18.6545 29.1413 39.2319
Pt 25.4988 30.6326 22.4303
Pt 19.6422 40.9181 11.5099
Au 23.1005 3.39446 18.2815
Pt 16.9337 14.8897 22.9831
Pt 29.7819 9.62271 27.4584
Pt 15.5596 12.6072 22.9574
Au 20.0857 34.8564 4.36535
Pt 10.1374 35.4052 11
Au 32.1673 26.2824 46.2292
Pt 13.6273 20.9755 27.2344
Au 17.781 28.3934 48.7075
Pt 23.8193 23.3004 41.5943
Pt 18.4886 34.3162 10.7209
Pt 9.76291 27.4933 30.0219
Au 12.217 9.80491 16.1202
Pt 23.3899 27.9149 25.6913
Pt 24.42 4.12392 29.2768
Pt 15.9402 17.0097 32.9346
Au 11.1966 20.118 9.8364
Pt 21.8351 12.4621 11.8302
Au 40.2291 22.1225 23.8672
Pt 8.40814 35.3079 17.7976
Pt 25.277 36.5441 24.87
Pt 7.19907 26.9267 24.9598
Au 6.68686 37.0032 16.6329
Pt 32.0188 43.6493 30.4471
Pt 19.9015 19.7438 17.1373
Pt 30.7102 22.5098 25.4282
Au 28.6181 36.9404 16.0142
Au 43.6584 25.2536 22.3148
Pt 20.7517 7.84153 23.9906
Au 10.9062 15.1683 16.2595
Pt 22.4407 37.2016 39.0979
Pt 15.1563 32.9541 38.6522
Pt 18.8421 30.2215 24.7045
Pt 15.7094 40.7215 22.7246
Pt 7.59432 29.3849 13.0199
Pt 25.5944 27.3886 32.969
Au 6.48552 21.228 30.3028
Au 29.9807 43.841 14.249
Pt 25.1633 20.6966 30.016
Au 17.3945 16.4318 43.4156
Pt 25.8514 45.9921 30.6174
Pt 9.8777 28.8688 40.8548
Pt 24.5519 10.7069 28.9324
Au 7.88409 39.3437 26.8577
Au 12.5641 16.1801 41.7314
Au 32.3982 3.63439 24.319
Pt 17.4474 10.2518 32.3301
Pt 28.7117 11.8895 23.4221
Au 36.9544 7.80828 38.9198
Au 33.6209 27.9052 14.017
Pt 15.0746 27.1858 29.7146
Au 9.31078 28.4464 8.05037
Pt 10.7622 25.8429 27.4805
Pt 12.6379 14.553 19.8277
Pt 15.3504 15.6364 13.0532
Pt 30.3912 18.11 18.7322
Au 17.0097 38.0519 5.41747
Pt 23.2787 10.286 17.88
Au 6.61377 27.7085 8.77642
Pt 19.8728 29.7483 21.8171
Pt 13.1589 21.7583 33.6794
Pt 20.4674 22.0314 32.6714
Pt 21.6731 25.5808 19.2338
Au 10.5133 26.5336 6.43474
Pt 21.4879 26.2473 14.3352
Pt 11.0167 38.0909 30.537
Pt 5.77701 24.3048 25.8625
Pt 32.2781 26.5367 38.692
Pt 15.9394 27.2796 27.0043
Pt 15.3486 17.5467 35.5004
Au 40.3505 19.8744 17.8392
Pt 10.1026 31.309 39.4303
Pt 21.1467 28.4803 26.8166
Pt 30.7973 22.4259 35.5368
Pt 18.3515 21.1837 15.6105
Pt 29.782 25.4798 31.8571
Pt 25.9469 24.731 35.5862
Au 17.6278 3.78888 35.6564
Pt 18.8221 11.5701 19.03
Au 38.6321 14.5676 35.3749
Pt 24.0339 25.9914 37.655
Au 30.6039 39.106 9.21365
Au 36.2258 7.61248 28.4792
Pt 22.382 8.1357 37.2707
Pt 13.9459 39.4845 15.1952
Pt 19.5464 21.8108 35.1436
Pt 17.1417 13.0412 11.9248
Pt 28.4857 23.113 17.5431
Au 12.2003 28.38 7.72494
Au 42.6411 31.9541 29.6134
Pt 35.8927 12.6906 37.2941
Pt 26.1221 11.5989 22.0735
Pt 27.4913 10.3632 12.6262
Pt 17.351 26.0604 25.0219
Pt 17.7346 38.9047 32.1546
Au 48.979 17.3753 23.7798
Au 11.3892 43.1042 28.5016
Au 39.7146 20.9493 38.0126
Pt 23.3902 22.5202 16.3875
Pt 21.7641 23.0542 18.5372
Pt 30.2953 18.5263 34.3682
Pt 26.3599 37.0551 17.7049
Pt 35.6028 35.9319 20.4675
Pt 21.6717 28.9752 14.3388
Pt 13.0329 17.2608 34.1834
Pt 26.5438 21.4211 26.4334
Pt 14.1918 16.9365 19.9749
Pt 8.53331 15.1841 23.6999
Pt 14.9062 33.6587 35.9753
Au 20.1972 29.4123 3.44494
Pt 20.3087 30.7586 33.2299
Pt 29.8448 19.0637 21.207
Pt 23.7446 16.8805 42.2747
Au 8.90933 40.463 13.2931
Au 4.85711 23.3956 14.7191
Pt 19.408 7.10812 19.6797
Pt 5.0569 24.6912 29.4023
Pt 25.1176 9.28601 26.5322
Au 42.3237 10.9256 35.4324
Au 29.6189 3.48809 35.6124
Pt 31.2113 28.3704 42.1097
Au 40.744 8.74821 34.3868
Pt 26.0731 28.094 26.5591
Pt 19.513 34.9204 20.1631
Pt 21.5064 26.4318 45.1427
Pt 26.7396 41.9698 19.8548
Pt 28.3155 45.5552 31.2499
Pt 23.4278 32.1415 21.5378
Pt 10.4986 22.3778 11.3621
Pt 28.7037 24.1389 39.8361
Pt 17.0439 31.5983 42.3996
Pt 17.65 19.9451 18.383
Au 48.509 26.6267 23.1908
Au 24.408 42.0725 32.2832
Pt 11.2859 16.5695 29.8485
Pt 20.0985 34.3667 22.6448
Au 11.6842 7.31622 28.1724
Pt 18.4084 29.5993 46.13
Pt 33.3328 22.3266 25.6324
Au 39.1512 9.78048 32.0675
Pt 14.5528 13.1908 13.6149
Pt 16.4535 35.447 17.5936
Pt 33.7985 21.725 20.9048
Au 22.0454 0.821585 34.2382
Au 22.2702 9.51284 43.642
Au 10.8361 33.4007 43.881
Pt 35.6117 15.9436 11.3274
Pt 27.7449 25.9638 26.3669
Au 22.9194 42.0226 12.4705
Pt 32.3623 21.3122 15.5784
Au 30.0005 15.7135 39.161
Pt 30.2603 21.0237 42.7465
Pt 14.992 26.4128 14.72
Pt 20.0734 30.3944 19.0155
Pt 32.5467 24.4992 43.9386
Pt 17.714 42.5952 11.8256
Pt 15.2113 23.7618 19.2778
Au 8.64648 13.6695 16.9808
Pt 8.9616 37.4619 12.6998
Au 38.4497 25.6297 7.29346
Pt 23.2014 31.3662 34.0595
Pt 17.0074 37.4203 13.4862
Pt 33.8179 42.6744 32.6117
Pt 34.0281 11.6798 24.8736
Au 31.443 16.1355 34.4634
Pt 11.1036 13.9619 21.8983
Pt 10.1029 29.968 21.5722
Pt 17.776 19.4602 5.05124
Pt 19.088 10.663 15.6187
Pt 14.6534 7.52106 27.934
Pt 20.7686 17.8005 36.204
Pt 13.1966 38.3186 13.0333
Pt 18.214 37.3595 25.0758
Pt 19.0299 27.5857 8.16616
Pt 17.1045 26.4556 13.152
Pt 20.2516 2.72806 30.72
Pt 12.2916 20.3926 16.334
Au 21.8339 14.1106 9.76929
Au 40.3847 41.1868 20.3681
Au 43.1873 24.7769 34.3503
Pt 9.74281 29.7427 14.4536
Pt 28.4822 34.606 17.6688
Au 19.7152 37.6633 4.8902
Au 35.5159 16.9231 25.6094
Pt 23.4626 26.809 21.2874
Pt 14.8945 30.3651 32.802
Pt 10.4358 38.3817 14.6802
Au 38.6448 11.7855 40.9235
Pt 33.293 36.9516 35.0311
Pt 11.0413 35.8143 36.8834
Pt 7.50218 29.9508 21.7467
Pt 9.505 30.4009 37.1338
Pt 17.4856 11.0532 36.8738
Pt 10.9393 32.3776 20.6974
Pt 34.7213 19.6784 25.8399
Pt 14.5739 25.0375 21.5817
Au 10.7507 16.1257 13.5372
Au 32.024 15.3479 37.1868
Pt 24.1175 15.7774 13.71
Pt 26.4853 16.387 15.4141
Au 34.0767 24.2361 8.78833
Pt 17.9838 4.82283 27.6498
Pt 26.949 43.675 24.6301
Au 12.6056 35.2066 45.0647
Pt 13.621 39.0004 22.7573
Au 7.36341 12.2446 23.8913
Pt 16.1519 31.3178 24.5839
Au 7.66556 32.0799 38.1169
Au 14.5439 42.9342 26.6629
Pt 9.18957 17.7693 19.8159
Pt 26.1911 27.3263 36.3944
Au 42.5988 37.2145 31.5072
Pt 32.3618 39.0839 33.5887
Pt 28.0987 17.6696 25.5225
Pt 25.9591 33.0054 44.2727
Pt 30.9057 39.5471 14.6449
Au 25.7188 26.0689 8.54059
Pt 12.3594 23.3167 27.7712
Pt 7.57263 28.6984 15.6338
Pt 19.7567 26.1082 31.3536
Pt 15.7716 17.5821 17.9689
Au 22.7979 45.5877 37.154
Pt 11.1945 26.2127 36.7951
Pt 13.7932 41.177 24.756
Au 21.2732 23.366 3.34235
Pt 29.9516 18.4716 43.3245
Au 16.733 47.6456 26.3729
Pt 37.7005 27.2763 30.1833
Pt 13.1446 23.0984 38.245
Pt 26.2518 26.9558 15.165
Pt 19.1397 15.3424 12.2186
Pt 20.7627 28.5643 37.6821
Pt 24.338 31.3839 36.4285
Pt 9.5071 33.6279 36.3491
Au 35.4979 25.3823 34.7421
Pt 17.4674 25.9649 29.8383
Au 39.0711 36.0144 29.1316
Pt 19.4948 18.3226 43.5282
Pt 28.2484 9.11708 17.7692
Au 6.10125 34.0191 31.4621
Pt 11.709 30.5744 26.0687
Pt 18.6714 33.0708 13.1553
Au 12.8105 14.9715 12.0483
Pt 16.4345 31.5006 34.6824
Pt 23.4 19.4929 41.1019
Pt 32.4143 24.8555 26.9566
Pt 21.578 28.6813 7.82769
Au 4.38594 32.8868 19.3628
Au 12.8436 17.186 39.2549
Pt 14.1773 12.9797 18.2617
Pt 22.4605 23.6784 14.0008
Pt 21.3193 29.3523 45.6868
Pt 14.039 29.4311 25.252
Au 28.6176 6.33622 21.3533
Pt 29.3989 9.55329 24.8147
Au 23.5528 21.5453 11.3719
Pt 9.79227 30.1207 31.075
Pt 17.6439 36.8718 10.7318
Au 38.8737 21.7857 30.3058
Au 32.6462 36.3464 43.8048
Au 44.6729 40.4075 27.6913
Pt 17.0624 5.82195 31.81
Pt 16.628 32.576 11.4579
Pt 21.6503 13.5752 15.0309
Au 41.5412 14.9755 38.1839
Pt 30.1017 29.5916 28.1261
Au 50.6829 23.1423 25.1961
Pt 23.3372 18.3839 30.063
Au 29.7998 41.0386 42.2314
Au 33.7061 23.2148 41.6821
Pt 24.8824 23.1743 45.9033
Au 5.77775 20.7102 27.6381
Au 45.4724 12.1527 27.9656
Au 45.4704 32.054 29.9885
Au 7.14751 18.4904 28.5887
Au 6.19664 30.9437 31.2712
Pt 21.6024 41.5791 20.3874
Pt 16.1651 7.93824 33.3312
Au 42.687 14.1451 23.584
Pt 17.0522 20.3664 11.2965
Au 8.28289 34.4105 20.5294
Pt 17.6312 24.4696 38.5707
Pt 21.1553 41.1952 38.7462
Au 11.0708 18.6676 14.444
Pt 10.9592 39.163 12.125
Au 19.4575 15.8318 45.4027
Pt 20.8853 23.1052 37.1767
Au 33.6156 25.3454 3.71322
Au 15.8539 26.4367 4.75113
Pt 15.8584 43.4688 16.1206
Au 5.96605 17.0382 23.5792
Au 35.6324 38.3042 22.1076
Au 16.3447 12.1605 41.1127
Pt 7.0819 21.9085 16.1176
Pt 15.4811 19.8486 6.21749
Pt 26.0635 41.6765 28.1348
Au 20.8104 34.0203 9.59741
Pt 22.1029 26.3863 29.9864
Pt 10.2122 24.0014 13.9328
Au 15.7873 3.42907 24.2381
Au 9.81486 14.6843 19.579
Pt 32.495 24.3409 11.9869
Pt 8.89985 27.5006 20.1969
Au 17.2424 9.44636 41.3706
Pt 31.2712 32.7582 37.1827
Pt 21.3644 23.7984 24.2791
Pt 17.916 3.86471 30.2922
Au 23.1239 -0.333189 29.7831
Pt 8.77713 22.2094 23.1285
Au 17.7887 30.5754 4.40043
Au 27.5741 35.3659 9.92433
Au 40.3547 34.2976 14.5464
Pt 27.9801 27.5536 8.19466
Pt 23.8176 33.0359 12.888
Pt 26.7498 25.3887 17.403
Au 41.7659 22.4507 34.0166
Au 31.2037 46.007 13.4825
Au 38.8898 25.9612 27.8878
Au 39.5329 27.2849 9.34853
Au 46.9239 21.8355 30.5195
Au 35.4788 25.7741 40.8549
Au 35.5087 9.30325 34.5398
Pt 33.6406 20.5329 28.0284
Au 23.3584 38.5581 43.281
Pt 23.2835 11.8334 22.1071
Au 9.06429 14.6213 30.481
Pt 20.34 12.1129 35.8449
Au 6.53299 16.1663 16.4154
Au 27.6008 48.1514 31.1893
Pt 18.0684 20.5449 21.0757
Au 40.4454 42.122 25.9402
Au 47.1426 14.7815 28.2877
Au 35.6347 30.5704 5.2433
Pt 24.5072 22.2249 27.945
Pt 32.7178 27.2539 21.596
Au 18.8259 40.1174 5.7748
Pt 26.2263 21.2793 12.0682
Au 14.1792 10.7605 37.0049
Pt 10.9245 24.5087 29.9349
Pt 21.0121 13.4131 29.3495
Au 38.7549 9.88403 39.0361
Au 10.5914 8.97378 30.1268
Pt 32.3436 29.1635 33.9977
Pt 8.98312 27.9413 22.9475
Pt 31.5031 19.7366 29.2503
Pt 20.1488 43.2688 13.0269
Au 11.8148 12.0218 37.918
Au 17.6521 19.9538 2.52295
Au 31.3957 47.9322 20.1849
Pt 10.8738 25.4747 16.5035
Au 28.9481 32.5809 9.45016
Pt 10.8267 14.3805 28.2642
Au 32.8853 12.0956 31.4173
Au 15.9871 10.293 39.0909
Au 40.042 12.7031 28.4939
Pt 43.6832 33.8417 31.4046
Pt 12.6642 32.503 39.0934
Au 36.2801 15.963 13.9807
Pt 28.9521 28.1509 22.3811
Au 47.0352 26.9988 18.2943
Pt 29.1981 15.3893 30.1207
Au 31.8938 41.3024 37.7028
Au 40.8456 17.7342 22.8455
Au 26.3365 29.8505 8.663
Pt 24.8616 30.4507 39.32
Au 43.1564 17.2474 38.9283
Pt 14.9809 23.9912 13.1812
Au 20.8437 40.4442 41.8521
Pt 28.3988 17.3397 17.1109
Au 43.4625 30.8984 16.8995
Au 38.6959 17.7996 13.9747
Pt 26.4182 10.6449 37.396
Au 18.8694 47.2143 34.8479
Au 44.2706 33.3574 15.869
Pt 20.2719 21.9559 29.8563
Pt 9.85273 26.3982 39.4477
Pt 23.0738 21.6329 37.2127
Pt 30.5648 42.7769 27.2733
Au 10.9041 14.4326 37.0968
Au 10.2406 14.6799 11.2162
Pt 32.8068 40.8764 26.4454
Au 33.0958 5.80061 40.7139
Pt 17.0483 24.8694 44.3141
Pt 24.2126 21.1961 32.8648
Pt 25.6806 12.0239 26.7321
Pt 8.29316 32.1421 29.9186
Au 31.0885 31.7934 7.81722
Pt 12.0449 34.4781 14.7578
Pt 26.5273 23.9412 27.4439
Pt 13.5609 31.3285 28.1689
Au 34.0052 3.86989 34.1231
Pt 17.7593 17.5273 37.2216
Au 19.4918 30.0603 6.57425
Pt 16.7002 29.2352 43.544
Au 33.6798 41.2125 18.3936
Pt 28.5016 44.2609 19.2603
Au 35.0936 26.8138 38.3081
Au 31.3265 19.2199 13.9045
Au 30.524 4.18611 31.9979
Pt 10.0624 33.3484 18.5084
Au 45.2829 13.9473 18.7821
Pt 17.8455 39.4716 23.6338
Au 44.8651 34.0584 24.8485
Pt 24.0655 26.473 34.8487
Au 37.7349 26.6594 42.0835
Au 39.3752 24.6546 40.765
Pt 19.7454 43.2258 21.4275
Au 40.4463 28.6981 23.6746
Au 46.5285 20.4108 20.9554
Au 35.191 27.5816 4.4774
Au 37.5438 28.8979 32.3688
Au 46.9529 16.4192 30.5235
Au 37.5158 27.5058 19.5925
Au 28.6733 43.253 9.73766
Pt 19.2486 31.9489 35.3915
Au 38.7593 16.8227 30.2074
Pt 8.96681 23.8057 16.3093
Au 41.1725 35.4963 12.2741
Pt 20.1766 28.8633 12.1324
Au 18.0419 11.2354 21.6589
Au 15.9295 10.1628 34.78
Au 6.75989 36.488 30.4386
Au 25.7187 7.05137 40.0569
Pt 15.9404 22.7181 10.8853
Pt 6.33436 24.4122 16.9517
Pt 25.7176 20.8097 45.2159
Pt 19.661 16.785 27.7
Pt 25.4443 7.35316 24.813
Pt 21.9764 43.5974 17.1232
Pt 28.6984 36.1813 41.7074
Au 12.8056 43.2004 34.2548
Pt 20.2876 44.9791 15.3809
Au 26.9474 8.25213 42.3567
Pt 19.1908 26.2113 21.2264
Au 27.9983 36.7087 5.4217
Au 40.0703 35.6297 17.0636
Au 41.5431 22.0879 26.4671
Au 18.9906 1.13084 32.9471
Au 34.8581 19.7407 30.3211
Pt 19.7478 8.7369 13.8553
Pt 17.9838 42.8682 26.5519
Pt 17.4217 31.5049 28.8196
Au 42.9183 18.1538 24.693
Au 29.428 37.4647 11.368
Au 25.5032 29.8882 3.60499
Au 37.4497 41.0354 26.4968
Au 27.4891 7.19464 13.6553
Pt 12.7143 27.0832 34.3729
Au 30.3688 26.0278 43.8984
Au 42.8204 15.9441 33.6359
Pt 34.2653 18.8745 21.4918
Pt 13.6176 23.2047 23.1887
Au 28.4124 29.8753 3.57621
Pt 18.4329 28.1784 26.3256
Au 15.6487 6.24489 35.5673
Pt 18.2651 8.40916 25.2295
Pt 21.6271 31.193 43.0346
Au 22.2149 32.0434 47.6964
Au 39.4842 24.6461 23.1679
Au 18.9928 21.1485 42.0727
Pt 30.579 30.1959 10.1081
Pt 27.3626 5.56854 25.9985
Pt 26.1572 40.7859 37.2445
Pt 27.7535 18.2751 19.7235
Au 11.0464 19.8936 42.2055
Au 37.6341 37.6558 40.8561
Au 30.0698 13.9006 35.4132
Pt 7.75922 28.4978 31.7428
Pt 24.1052 37.4231 12.6277
Pt 22.8581 21.6866 8.43091
Pt 14.9203 26.5431 17.6379
Au 16.4568 13.74 43.378
Au 9.66642 42.5099 30.5882
Pt 10.0201 18.7635 28.363
Au 7.43315 16.0707 21.3094
Pt 30.9714 36.1538 24.3565
Au 36.1992 23.5095 20.9739
Pt 19.0683 32.3558 15.8059
Au 8.58295 18.6403 38.8049
Pt 34.1894 28.9492 31.6574
Au 46.5072 23.1082 16.0455
Au 12.7164 12.3933 11.3689
Au 8.51451 36.6711 22.1751
Au 8.32553 13.4354 21.5713
Pt 10.1074 31.0796 17.0497
Pt 11.7722 22.7135 8.73425
Au 38.3538 35.5739 26.3677
Pt 8.67479 34.4952 31.3382
Au 14.9653 13.9184 10.6772
Au 10.297 40.5195 18.704
Au 38.5991 40.6898 16.0453
Au 5.03817 35.2643 28.7159
Pt 16.2804 33.8251 40.8649
Pt 15.1905 40.9626 16.7947
Au 26.6489 19.2261 6.00211
Pt 17.1302 23.7767 5.52007
Pt 22.9382 41.8309 15.3179
Au 36.9457 24.3885 45.226
Pt 13.0439 39.1945 31.9297
Pt 12.6244 22.8151 13.0784
Au 18.3356 1.15983 23.5371
Au 19.9034 22.8808 47.1917
Au 30.2859 10.0684 15.9
Pt 26.5013 40.6066 17.7092
Pt 26.1523 39.556 32.8339
Pt 12.6537 37.103 15.4388
Pt 21.2833 42.8438 33.6818
Au 9.88093 11.8785 29.5732
Pt 20.4035 35.6077 40.0912
Au 46.6989 32.1068 23.0814
Pt 16.614 43.07 18.782
Au 24.9605 23.8076 48.6679
Pt 18.1177 15.1749 38.6061
Pt 22.9331 8.3777 27.9552
Pt 21.1399 17.7466 31.6763
Pt 21.7884 29.0439 29.3521
Pt 15.8251 29.3873 46.0153
Pt 32.9338 28.9616 5.00116
Pt 16.6009 28.9983 13.8367
Au 14.8962 30.6033 12.0308
Au 32.6312 36.7572 9.13242
Au 4.47717 18.7636 20.104
Pt 20.9978 14.4882 31.8332
Au 41.3634 17.1533 13.4717
Pt 28.2653 27.891 31.9656
Pt 17.9177 24.0473 12.0949
Pt 30.3403 27.3425 20.2337
Pt 10.9263 32.6021 31.2557
Pt 15.5441 37.5752 28.9449
Pt 22.3927 30.7387 38.2215
Pt 11.2676 15.5012 24.2031
Au 41.5269 31.7667 9.67419
Pt 10.7048 21.0145 26.9288
Pt 34.5954 22.4789 36.8321
Pt 19.1076 21.2242 27.5569
Pt 16.8212 12.56 17.4353
Au 40.369 29.8021 8.29315
Au 18.3879 44.7821 38.8292
Au 40.9533 14.7983 11.9849
Au 48.2471 23.7221 34.6486
Pt 24.1636 29.6052 6.17332
Au 33.5496 11.9863 39.0541
Pt 26.2058 46.0873 25.6862
Au 15.0394 34.1398 45.861
Pt 35.2694 33.2927 19.4198
Pt 19.8989 34.5454 34.543
Pt 28.7291 28.3769 5.79079
Au 36.6373 37.7458 18.5551
Au 28.3299 6.40765 40.9467
Pt 29.5081 43.5622 37.6775
Au 46.3182 31.136 32.7734
Pt 23.1745 31.6999 45.1217
Pt 14.7705 18.0941 7.88634
Pt 9.4027 35.5959 26.9722
Pt 15.906 26.786 37.1047
Pt 27.8003 25.8204 6.1976
Pt 20.7986 28.4379 31.9505
Pt 14.9631 34.9471 21.711
Pt 29.758 25.1898 16.2352
Pt 17.4743 30.9578 19.0866
Pt 35.0664 27.2258 29.5847
Au 40.1582 15.1565 24.0675
Pt 8.41477 26.371 17.3703
Pt 20.1639 29.9431 16.2534
Pt 19.1382 21.0354 12.642
Au 34.4025 29.7346 2.95858
Pt 23.6317 2.95068 33.2418
Au 27.8485 12.6656 6.69194
Pt 26.9965 21.978 39.3951
Pt 32.1353 31.407 28.0611
Pt 28.3263 8.12869 29.2221
Pt 14.0861 27.7899 22.8753
Au 39.8206 23.0801 6.23512
Pt 16.1271 28.7905 18.3676
Pt 11.9876 21.156 36.5513
Pt 26.5347 7.43904 16.3856
Pt 21.6874 15.0282 27.1681
Au 44.9441 36.0846 30.4798
Pt 17.5093 39.2301 29.4861
Pt 25.8078 18.9438 24.9784
Au 45.6753 25.7829 20.3396
Au 33.2522 18.3376 34.4848
Pt 44.9393 25.1896 17.7164
Pt 12.3146 27.039 29.5382
Pt 30.9708 17.2997 16.1058
Pt 33.7154 41.0824 30.3268
Pt 16.6306 19.0646 31.307
Pt 32.2652 9.14055 24.5747
Pt 28.107 21.3662 44.4991
Au 10.3999 18.6451 17.2955
Pt 9.25231 26.5282 14.6465
Au 39.1571 22.4411 18.2524
Pt 20.9963 12.3775 26.8341
Pt 11.3384 36.3367 13.1192
Au 11.2348 21.134 44.5792
Pt 23.5695 28.6229 36.6428
Au 32.0877 27.1961 31.7117
Pt 8.67971 31.2697 19.6357
Au 34.1286 13.3995 21.38
Pt 37.2016 9.409 22.305
Pt 29.8803 42.0352 35.0218
Au 32.2084 44.7262 15.9054
Au 28.6199 12.7188 45.1947
Au 29.6737 8.81316 42.3437
Au 36.4997 23.913 13.5711
Au 15.748 35.599 5.68636
Au 6.37256 33.8015 12.7715
Au 9.7553 21.7393 34.885
Au 18.4864 22.7026 2.82183
Pt 11.919 11.0612 25.3677
Pt 24.3544 12.2844 38.4027
Pt 24.5433 43.7276 29.7764
Pt 25.7208 41.7453 15.4236
Pt 26.0501 15.867 24.4445
Au 13.2886 40.1502 18.7918
Pt 15.4846 10.7682 18.9228
Pt 24.0173 27.7754 28.4945
Pt 7.69095 23.8708 21.2183
Pt 18.3565 42.7197 29.3729
Au 19.634 33.0262 6.91739
Au 6.69031 33.8904 36.1413
Pt 28.5468 33.2719 30.5146
Au 39.7253 22.7697 42.86
Pt 22.8842 15.806 16.1374
Pt 23.5567 29.2755 44.123
Au 20.3109 20.5838 2.99792
Pt 17.6517 16.979 13.9806
Au 43.2089 19.9114 34.4213
Pt 20.3733 19.346 25.9745
Au 41.7838 26.1359 10.4442
Au 23.0423 2.19887 20.8704
Pt 26.1326 28.3304 43.926
Pt 5.08545 24.3001 21.3239
Pt 20.249 21.1291 7.84752
Au 28.8793 49.0507 21.9612
Pt 19.2521 18.0469 21.1092
Au 18.3032 2.85499 18.0979
Au 23.0824 8.45988 10.8812
Au 37.5081 39.0504 28.9364
Pt 14.6669 17.2368 27.814
Au 16.4893 45.9855 18.1371
Au 20.1324 31.9979 4.38334
Au 41.9141 19.5157 11.9735
Au 11.7785 35.6187 42.5105
Au 28.8341 2.30485 33.313
Au 21.2796 45.943 12.6594
Pt 19.9545 38.7504 39.7923
Au 9.41773 26.2202 44.8361
Pt 7.36233 21.3586 20.9862
Au 22.3138 36.9274 5.05945
Pt 20.6453 14.9028 39.411
Pt 17.1303 15.9955 27.515
Pt 16.8222 14.5082 33.9257
Pt 30.5907 10.0593 22.4027
Pt 25.0484 15.3302 17.9532
Pt 23.6146 9.24602 30.7125
Pt 14.298 30.327 39.1665
Pt 11.333 27.5491 21.371
Pt 12.5488 18.8539 28.7654
Pt 37.4175 31.9325 22.5414
Au 39.3355 22.2848 35.4537
Pt 23.2869 27.5239 18.6927
Pt 33.6875 26.892 8.65467
Pt 24.8425 43.0191 36.7882
Pt 28.0693 27.9203 28.2989
Pt 20.5901 42.7996 26.9068
Pt 5.63846 28.3651 23.0315
Au 41.5835 6.8911 23.2802
Au 38.649 12.5644 38.0419
Au 45.7474 11.1865 25.2286
Au 42.3324 30.9712 41.3331
Au 33.759 23.6887 6.04571
Au 42.5522 27.1654 12.9903
Pt 23.7847 13.1292 13.4997
Pt 30.042 22.3468 30.0168
Pt 34.9032 9.75833 20.9109
Pt 14.3019 12.6866 30.4552
Au 8.5686 17.9303 23.5469
Au 46.2492 21.3885 13.7266
Pt 16.4952 39.9514 18.7523
Au 41.1372 18.2551 33.3836
Pt 20.89 41.574 23.3037
Au 24.7516 32.7535 3.43326
Pt 10.7387 21.3533 14.2437
Pt 20.3234 19.2227 28.8503
Pt 34.5461 35.308 33.3558
Au 30.0965 34.6566 10.848
Pt 22.3076 4.76125 30.9468
Pt 27.3501 32.1842 16.6419
Pt 22.9237 2.16683 30.7125
Au 40.8045 26.4307 42.191
Au 20.7511 8.92563 39.4179
Pt 9.3305 36.4388 29.4289
Au 38.9804 22.5109 21.1072
Pt 10.0416 22.4029 20.7443
Pt 10.9073 33.1432 24.6548
Au 6.91929 22.2542 35.3127
Pt 37.5895 30.7261 28.0249
Au 11.0444 35.5873 8.52338
Pt 18.3145 32.56 23.6366
Au 2.04884 28.8914 25.3912
Au 18.5247 40.3564 38.1098
Au 41.5216 26.7188 29.3647
Au 36.6913 14.2338 20.8156
Au 15.6053 46.186 30.8351
Au 30.9152 7.80002 18.1199
Au 5.22539 23.8069 33.7722
Au 48.2793 25.0045 20.7906
Pt 31.369 43.6785 33.2626
Au 39.0679 38.2789 17.2012
Au 35.0403 12.8494 8.24743
Pt 12.6945 8.32261 23.8081
Pt 19.4994 29.5895 9.60374
Pt 30.9916 21.7756 20.7382
Au 45.2927 16.0484 14.6184
Au 15.111 29.2148 48.4956
Au 36.0349 40.2088 17.0803
Au 38.2654 12.0126 30.5203
Au 44.7273 19.4179 39.606
Au 38.1986 27.5812 16.7197
Au 35.7245 32.2946 16.7532
Au 20.6597 -0.148006 24.2237
Pt 22.8886 26.0832 9.23012
Pt 21.3005 37.1071 21.6668
Au 8.34176 19.8417 14.6928
Au 37.1622 10.9625 13.6303
Pt 36.7777 32.058 30.2226
Au 37.1469 21.7091 37.3652
Au 29.1 34.4515 4.47164
Au 23.8793 34.3818 45.5209
Pt 12.5701 25.2407 14.3574
Au 7.48879 23.6718 9.3579
Au 20.0013 4.00466 37.3814
Au 26.1779 48.879 21.5403
Pt 17.3043 17.3684 39.7373
Pt 19.7983 35.2517 29.3508
Au 26.3947 34.8383 46.5402
Au 30.8482 10.6189 40.506
Pt 33.6425 37.7613 23.8937
Pt 16.3135 24.4869 41.0999
Pt 14.7262 30.4012 6.89981
Au 4.75065 18.4351 17.3662
Pt 15.0902 29.8668 29.9757
Au 38.0314 15.1698 7.70181
Au 11.9053 25.524 45.8885
Au 36.7911 25.3256 23.0159
Pt 25.6187 30.9632 13.0611
Au 32.0587 9.52413 11.6538
Au 38.3714 7.47972 30.1255
Au 28.7547 37.5873 21.6413
Pt 24.3168 27.4774 4.32956
Pt 17.7629 17.3905 23.1575
Pt 27.6023 19.7017 42.3376
Au 9.80618 41.2867 21.3106
Au 32.205 37.3881 39.7206
Pt 23.662 7.47656 34.8373
Au 28.6688 18.0348 14.4033
Au 31.5798 10.3685 29.707
Au 4.59993 35.3974 25.977
Au 24.1366 19.3047 7.71419
Pt 34.7293 24.7945 25.5693
Au 27.7643 21.2606 7.43747
Au 40.5839 13.1374 22.1469
Au 44.3407 28.963 36.7579
Pt 20.3156 35.7646 43.3597
Au 25.8229 16.5341 44.1569
Au 39.0166 23.8167 37.9756
Pt 22.2584 17.9409 27.6207
Pt 18.0386 32.2912 26.2424
Au 44.0694 39.3985 22.6423
Pt 24.5377 44.2111 15.7079
Au 43.4768 21.6656 40.5461
Au 43.2909 39.2891 29.838
Au 13.075 26.3492 5.42014
Au 31.0226 2.52106 26.4199
Au 34.1396 15.6587 35.011
Pt 8.40732 21.0103 28.2982
Pt 21.0884 6.82477 17.3129
Au 30.4817 20.4418 45.5039
Pt 26.6048 41.4489 10.674
Pt 12.2947 27.4368 40.9697
Pt 18.6677 23.5907 31.3135
Pt 14.4294 12.0539 25.8392
Pt 28.0288 14.9164 26.1995
Au 21.9675 48.1714 25.8512
Pt 21.693 14.9864 12.5942
Au 20.5406 1.19434 21.8499
Au 15.2795 10.9357 12.5122
Pt 23.6067 21.5542 43.602
Pt 19.6975 38.7135 10.0262
Au 6.8273 16.3652 13.6322
Pt 17.5623 20.3562 25.4803
Au 17.1073 26.8791 46.3566
Pt 11.9045 35.9105 28.1602
Pt 26.0967 44.5867 20.2693
Pt 15.8261 28.008 32.4919
Pt 22.5678 33.9972 23.5857
Au 17.9304 42.3425 7.3287
Au 30.7695 36.9334 14.1754
Au 42.6029 24.072 17.155
Au 15.4997 40.4708 38.502
Au 25.3025 27.6325 1.87943
Au 34.5944 31.64 10.8736
Pt 13.7369 37.9534 34.7071
Pt 27.0818 27.4294 3.96956
Au 34.3153 48.5873 22.6376
Pt 30.3156 24.6793 13.6149
Au 43.5154 25.9233 37.0492
Au 37.5351 22.9953 16.1069
Au 18.2767 11.6507 42.8602
Au 42.1553 19.9137 38.7073
Au 38.0969 43.8161 34.4018
Pt 23.4192 44.0203 34.8558
Au 21.4277 7.47153 41.8722
Au 36.5206 28.4716 40.1736
Au 30.9092 37.8221 42.1645
Pt 26.2394 18.1814 29.5367
Pt 10.0917 36.3145 19.8235
Au 25.0697 21.6177 6.37945
Pt 14.1005 17.6693 30.6501
Au 47.2243 30.6736 28.1224
Pt 14.5704 36.0769 19.4213
Pt 9.46241 33.5716 15.9471
Au 43.941 18.1026 32.2928
Pt 16.1156 32.4244 21.8669
Au 30.262 11 18.5489
Pt 29.6949 32.685 41.1246
Au 10.2407 12.4525 35.3515
Au 7.68106 30.4702 40.6179
Au 42.5353 23.5239 10.2843
Au 16.0324 15.575 8.46125
Pt 23.3842 18.4488 33.0805
Au 37.809 18.5519 17.6161
Pt 20.037 32.4857 30.8029
Au 38.6995 11.371 20.9895
Au 13.8216 41.9143 29.1555
Pt 28.5464 27.8743 42.7373
Au 31.9573 32.5932 10.458
Pt 15.4033 32.8082 29.6454
Pt 12.9184 10.6629 18.5414
Au 9.56761 19.7462 21.7167
Au 12.3941 31.4128 8.10347
Au 25.0204 9.61581 43.9203
Pt 20.9197 21.8931 15.8988
Au 40.4159 9.26991 16.9315
Au 13.5089 38.8637 39.7246
Au 9.88478 42.777 14.5972
Au 43.839 20.9048 20.4206
Au 34.0193 10.5102 36.561
Pt 14.3591 14.932 34.3925
Au 18.8685 20.3928 46.6071
Pt 29.595 29.5769 18.7716
Au 31.5139 26.9176 12.4632
Au 21.6436 37.36 47.6966
Au 37.8075 33.4943 38.5061
Pt 29.9499 46.6303 22.2801
Au 42.4506 37.72 34.2439
Pt 19.5303 36.8489 37.9848
Pt 34.3566 5.92466 26.6038
Pt 10.1158 16.4226 21.8151
Pt 20.3622 45.5465 18.1648
Pt 5.77055 28.8579 29.4191
Pt 18.3827 25.7401 27.3195
Au 43.9206 32.9851 18.6872
Pt 20.0583 28.4778 34.7304
Au 9.22069 37.5737 25.1744
Au 28.6158 34.6378 7.36056
Pt 12.2499 34.5561 19.4887
Au 39.7545 9.88459 29.4295
Pt 23.6768 33.1908 42.8204
Au 8.61104 18.8929 9.81982
Au 15.4858 8.31664 37.3136
Au 43.1173 28.646 24.5842
Pt 19.4196 31.5003 41.0743
Au 18.7694 47.8145 21.92
Au 16.8878 44.1516 32.9955
Pt 15.7917 22.4224 37.9663
Au 30.4491 21.5299 8.35121
Au 4.98293 29.5546 16.4488
Au 36.929 19.9995 39.6733
Au 26.5866 32.5536 7.9872
Pt 19.1246 27.9112 14.5108
Au 17.365 31.0242 48.2235
Au 35.0826 5.83457 38.7198
Pt 19.9342 43.8205 24.371
Pt 17.4877 34.7268 15.1848
Pt 7.03774 31.8417 27.466
Au 30.782 45.9741 31.9704
Pt 19.667 23.8571 20.012
Au 9.46239 21.7012 37.8967
Pt 23.197 31.1327 23.9785
Au 9.63435 40.8068 28.4708
Au 2.64683 25.0113 22.383
Au 19.4303 47.1717 24.4832
Pt 17.2214 7.27112 27.3274
Pt 9.4558 24.9173 19.3412
Pt 15.3317 36.4096 36.3206
Pt 22.0584 35.1275 37.652
Pt 16.7937 32.8055 17.0784
Pt 13.1941 37.5503 37.3052
Au 37.2414 38.3791 11.7606
Pt 11.8711 24.7413 20.7004
Au 29.1131 34.54 46.0634
Pt 30.6365 41.5895 12.8749
Pt 31.992 22.5516 28.0463
Pt 19.2308 23.6194 7.53744
Pt 20.0838 26.0131 42.9636
Pt 19.2101 40.6202 27.9785
Au 26.1975 46.42 15.549
Pt 21.6102 33.1983 33.1152
Au 25.9854 28.18 46.8692
Pt 26.8694 46.15 18.1325
Pt 18.0604 19.2522 7.6502
Pt 35.7766 43.6138 22.5728
Au 2.45956 31.4061 26.1544
Pt 29.2583 20.9341 33.9323
Au 38.6085 6.68994 34.5514
Pt 21.8507 21.4608 26.5284
Au 22.3272 3.04829 35.9185
Au 8.99623 14.9581 35.0333
Au 39.2764 17.7455 7.86459
Au 32.7726 25.8556 41.5014
Au 19.5349 32.8663 48.0988
Pt 26.1952 44.7107 34.6532
Au 28.8745 7.11804 35.4764
Pt 18.8189 37.0961 22.4484
Pt 12.8087 27.2485 16.2304
Au 35.1136 7.86837 36.7895
Au 46.4397 29.0858 34.8367
Au 4.17169 22.9298 27.6332
Au 33.5845 44.793 34.4944
Pt 25.9835 23.0494 43.4353
Pt 31.9518 20.7011 33.6866
Pt 16.7223 21.8338 35.2942
Au 37.6899 20.0706 34.9128
Pt 8.33913 25.2618 29.2411
Pt 31.4021 33.4202 25.4087
Pt 29.3097 6.37639 30.8577
Pt 25.1635 30.2225 25.3247
Au 26.3625 3.56198 33.8757
Au 27.782 5.13074 15.7379
Pt 28.9223 23.1399 20.1177
Pt 13.1038 22.4249 20.4837
Au 35.7489 23.7644 4.08071
Au 32.7212 16.5159 18.2598
Pt 9.38196 32.9493 26.811
Au 4.16572 25.4373 31.8773
Au 4.72984 21.2833 21.0188
Pt 16.4207 16.726 29.9613
Pt 10.1455 17.456 25.7925
Pt 20.8267 36.5686 11.0307
Pt 29.9323 23.267 44.4133
Pt 13.5516 32.7384 21.0997
Pt 21.5346 23.1888 6.31171
Pt 16.8986 17.2237 6.42267
Pt 18.8149 27.8396 23.4753
Au 24.1754 1.5782 28.086
Au 4.88841 28.3918 32.0897
Pt 26.7335 25.5372 38.3062
Pt 29.8832 13.9077 22.2363
Pt 11.538 16.684 18.692
Pt 11.3837 33.4014 12.4022
Pt 34.4596 37.9688 26.663
Pt 19.1866 32.8671 43.4524
Pt 38.1866 9.42121 34.708
Pt 23.5817 4.79995 20.9666
Pt 20.4681 19.0882 41.0434
Pt 13.8598 26.2165 12.2966
Pt 32.3645 17.148 39.4157
Au 23.0413 21.1187 3.03582
Pt 4.59052 27.3041 25.4895
Pt 26.0717 32.2405 26.8443
Pt 23.4269 12.1913 35.6629
Au 34.7274 38.3679 29.6291
Pt 21.4 10.3655 28.9369
Au 39.4735 5.30443 22.6418
Pt 15.6253 12.723 35.6602
Pt 25.5902 21.1724 41.7533
Pt 22.0551 14.3225 34.939
Au 7.01163 18.891 12.37
Pt 15.3358 17.1139 15.3567
Au 13.3195 33.947 8.75684
Pt 7.53867 29.1834 36.1044
Au 25.3622 37.1331 4.9822
Au 12.5336 18.8686 6.01216
Pt 28.454 11.8982 26.0919
Pt 20.926 16.7862 25.3384
Pt 17.6025 18.7709 41.8231
Au 22.4707 17.7325 6.06684
Au 27.9933 1.28112 30.9772
Au 25.8153 21.2784 3.54617
Au 24.3506 31.5319 49.2858
Au 36.6806 44.7175 25.0913
Au 14.4263 6.09286 17.7763
Au 18.3959 15.3443 4.41967
Au 13.8181 8.32443 35.105
Pt 21.5722 24.6306 16.4499
Pt 25.7972 25.5656 46.7117
Au 39.8487 39.5255 25.5953
Pt 31.963 9.47944 20.1957
Au 28.4401 45.6683 36.0618
Au 31.3865 45.9291 24.8234
Au 31.8404 7.47661 15.5186
Au 42.9247 11.6321 32.9594
Pt 18.3985 22.0884 37.5141
Pt 22.8384 7.40533 32.2823
Pt 21.6197 21.2288 13.3337
Pt 18.6476 11.3017 26.153
Au 32.9333 26.47 6.16836
Pt 21.1971 11.9216 33.4751
Au 48.3307 18.7945 26.056
Pt 15.0555 36.6002 39.1864
Au 22.96 5.04951 15.8919
Pt 23.5842 19.6329 20.1284
Pt 16.9453 15.9279 10.9879
Au 37.6224 14.0329 42.0074
Au 15.8269 6.91307 15.2858
Au 31.1243 25.4796 2.40303
Pt 13.0866 38.8304 29.0155
Pt 35.2966 31.9297 27.4591
Au 33.6977 3.23883 26.7852
Pt 17.3972 22.1942 40.167
Au 33.4004 35.6348 6.62026
Pt 24.9267 29.182 11.2691
Pt 20.9673 5.25098 23.9932
Pt 25.5938 19.4935 34.6802
Au 41.7813 14.5084 26.3083
Pt 7.40805 29.577 24.5306
Au 38.5071 27.358 22.2985
Au 16.7066 10.6676 24.3486
Au 32.9143 33.5844 18.1137
Au 44.5272 30.3911 27.3407
Au 27.0243 14.9779 7.90771
Au 39.6821 30.1618 11.0879
Au 25.1838 16.8774 6.87926
Pt 8.50986 24.3595 11.7913
Pt 21.6812 14.4699 41.8239
Pt 16.8919 11.9838 14.7131
Pt 19.9555 17.4944 38.769
Pt 17.2608 34.0154 8.01634
Au 12.7631 30.0636 47.0593
Au 16.5605 45.0439 12.5638
Pt 25.8366 30.4765 45.2638
Pt 14.5166 31.8759 41.2705
Pt 15.3801 20.8204 19.2801
Au 37.3532 17.1309 9.64361
Au 40.9825 39.2284 32.5023
Au 39.7754 15.6762 9.69567
Au 36.4954 36.4103 28.4044
Pt 22.0226 25.9635 27.3067
Au 41.941 21.9146 18.723
Au 46.1328 17.3222 28.0621
Pt 18.4292 6.92509 29.7358
Au 37.5782 34.9896 40.7363
Pt 5.72599 31.2814 23.2866
Pt 16.516 26.7777 8.77339
Au 29.3774 14.0861 8.94422
Pt 10.9174 24.6011 40.9692
Au 29.6769 22.3928 15.288
Au 40.2231 39.5565 35.152
Pt 25.5259 14.5623 26.981
Pt 20.8793 36.6459 35.7854
Pt 17.3702 26.5921 42.4262
Au 41.0551 23.0834 31.4151
Pt 13.6112 42.3084 15.1233
Pt 10.661 24.0034 38.423
Pt 14.1105 19.1939 32.8844
Au 33.1451 31.7867 45.1387
Au 47.3679 24.2608 18.3198
Au 41.4524 15.5107 20.9569
Au 25.2761 5.91032 14.5468
Au 35.0897 3.88575 36.6825
Pt 24.3046 35.2531 14.2157
Au 40.1426 26.9778 18.7268
Au 33.0917 22.5925 3.59171
Au 43.9738 11.6104 30.4309
Au 34.4447 24.1576 18.7844
Au 27.649 39.8505 35.2347
Pt 17.8209 21.3777 32.8333
Pt 16.5508 26.3021 19.7597
Pt 30.7115 31.6742 30.2449
Au 35.0927 30.6524 41.1881
Au 25.4421 14.6363 41.8599
Au 34.9545 17.027 44.1484
Au 39.7437 35.3954 38.6204
Au 39.7073 33.753 22.7236
Pt 27.1334 36.5639 26.865
Pt 21.144 25.7142 38.4828
Pt 16.859 26.883 39.6973
Pt 21.9795 28.5131 5.13578
Pt 13.6598 26.9324 20.0832
Pt 29.6599 30.1869 34.5802
Pt 21.3337 29.165 24.2224