3871
Atoms. Timestep: 21128
Au 16.646 3.27819 23.7926
Pt 24.6819 7.12167 25.057
Pt 17.9947 12.3678 31.0365
Pt 18.6227 19.0683 38.8707
Pt 7.46989 14.3838 26.2429
Pt 18.7532 7.83726 35.2515
Au 32.3383 2.81843 16.4197
Pt 10.1513 19.0482 31.1405
Pt 13.9247 16.5652 26.7133
Pt 14.3112 16.0287 35.6986
Au 5.91007 16.3403 15.3606
Pt 11.5314 9.9889 30.3863
Au 15.0284 5.29725 22.7606
Pt 17.3171 15.0155 31.1456
Pt 10.4779 10.7737 24.1394
Pt 19.1942 10.3514 19.9968
Pt 9.91952 13.2006 26.5117
Au 4.82172 14.5566 25.8314
Pt 14.9933 7.42072 24.8487
Au 8.90479 11.0435 31.5764
Pt 12.508 12.9921 34.6859
Au 6.7431 12.7283 30.7132
Pt 16.1195 13.4008 18.0879
Au 10.0572 9.73506 21.2001
Pt 8.98365 20.5374 17.5317
Au 8.01523 10.9659 22.7109
Pt 14.6125 9.85664 14.8984
Pt 17.9249 5.15466 22.1249
Pt 8.41492 16.9693 14.1792
Pt 15.7503 12.4064 14.1365
Pt 14.7525 20.4223 33.1608
Au 29.0352 1.50337 23.1173
Pt 6.10291 28.8142 26.8313
Pt 18.7258 8.01305 15.8479
Pt 12.6409 17.4679 17.8246
Au 4.32721 16.7468 27.3713
Pt 14.9087 13.2441 20.4328
Au 11.8961 7.40054 21.0577
Pt 10.7065 10.1128 26.5856
Au 4.69197 21.4671 27.6082
Pt 8.76993 19.3251 36.0908
Pt 9.28404 22.7887 22.1476
Pt 10.3992 23.9276 24.4807
Au 4.44794 26.5058 24.2831
Pt 10.227 15.1352 22.5943
Pt 11.3498 17.7126 26.614
Pt 10.3027 20.2169 26.8996
Au 3.81123 29.5046 25.564
Pt 13.4874 15.6957 19.9271
Au 7.60156 10.5581 20.0405
Pt 19.3946 20.1775 5.17768
Pt 17.6053 10.0802 22.0691
Pt 15.2017 14.3606 15.8395
Au 4.43871 24.2255 28.246
Pt 7.43526 14.9895 23.3333
Pt 11.7252 21.719 30.5307
Pt 6.62404 16.6446 25.2737
Au 4.98597 19.1318 15.0819
Au 19.3413 36.8106 6.24065
Pt 7.4531 18.3985 16.3735
Au 5.87801 15.2498 17.8536
Pt 9.5246 13.2213 17.0395
Pt 8.1354 30.4024 23.4089
Pt 10.9044 16.6764 19.8352
Pt 9.65707 14.4184 14.6705
Pt 8.09139 21.2665 20.2318
Pt 8.95616 13.0679 24.0905
Au 12.6232 6.31553 23.781
Au 4.35011 26.3251 32.7418
Pt 12.0629 20.2686 22.5417
Au 15.464 26.7353 28.222
Pt 10.5122 14.3816 33.4954
Pt 6.72706 23.3372 26.94
Pt 6.82395 26.181 36.7163
Au 7.30842 17.2631 18.9388
Au 6.28598 12.5253 24.4172
Au 10.6396 9.32983 32.9017
Pt 7.6267 20.347 31.4901
Pt 15.762 15.753 33.4011
Au 5.78376 19.9216 33.8806
Au 4.08101 22.3775 22.6467
Pt 15.4559 28.6183 6.53257
Au 12.1664 9.23601 13.8787
Pt 17.1108 26.7837 5.48997
Pt 9.51229 21.5129 14.7263
Pt 11.8879 15.007 26.5274
Pt 23.093 5.22996 17.8907
Au 4.92864 17.9381 17.5125
Pt 13.2478 11.7161 13.4566
Au 12.1681 10.1857 35.0947
Pt 6.91764 21.6406 22.7174
Pt 8.62202 18.1984 26.1506
Pt 12.6823 17.4261 13.1144
Pt 6.44897 30.1015 34.6672
Au 5.79917 17.1031 22.5742
Pt 10.3006 24.024 14.8264
Pt 6.75143 19.4694 29.0034
Pt 8.78343 25.387 26.4734
Pt 8.14073 31.0453 36.4641
Pt 9.89064 21.416 32.3534
Pt 11.757 19.3842 29.0595
Au 21.8607 20.2442 32.6253
Pt 8.80902 14.9413 19.0287
Pt 13.6265 17.9389 33.9045
Pt 7.64625 24.7972 28.9885
Pt 10.8252 31.066 27.2325
Pt 10.3129 26.6514 24.6084
Pt 9.89955 37.3317 33.7408
Au 7.26887 21.0697 39.2182
Pt 13.1005 15.3312 33.4237
Au 20.8399 27.4101 25.5961
Pt 11.9424 20.8975 40.0157
Au 8.19494 38.7068 31.8261
Au 13.2997 37.9653 44.1958
Pt 10.4087 32.249 38.4082
Pt 16.7044 27.7118 45.7519
Pt 17.7817 22.1121 35.7072
Pt 14.1356 18.4169 36.4564
Pt 17.5292 33.2363 45.4711
Au 25.8293 31.8286 49.3428
Au 6.52443 25.1243 10.2209
Pt 9.39436 20.0868 22.3108
Pt 14.8808 25.8572 7.15502
Pt 10.3484 26.0244 12.9273
Pt 8.48559 16.5072 21.1691
Pt 5.41264 21.0661 20.5935
Au 4.46156 21.9402 15.0778
Au 4.11871 27.5428 20.4483
Au 5.21183 16.9868 30.1322
Pt 7.3414 26.1377 24.3381
Pt 10.3824 32.5232 25.0898
Pt 10.5821 22.6206 17.1753
Pt 11.6409 11.8584 17.8661
Pt 6.67422 19.7767 18.6152
Pt 9.86368 28.0277 18.1191
Pt 13.2052 31.7864 28.6281
Pt 8.21192 23.0889 31.2215
Pt 5.99429 31.1028 24.9762
Pt 13.2197 32.5525 38.6758
Pt 8.65486 32.6759 28.2704
Au 4.03432 23.601 17.3562
Pt 10.7794 32.1002 29.7851
Pt 7.96899 31.1036 30.356
Pt 5.96543 22.1786 32.2558
Au 3.86619 30.892 21.1666
Au 3.6333 19.7381 25.6609
Pt 11.3486 18.4621 35.301
Pt 6.74078 29.3888 32.1751
Pt 12.0445 19.8174 32.8168
Au 3.775 27.1573 27.0437
Au 11.1756 42.1072 32.0299
Pt 11.0868 27.4136 31.1291
Au 7.48042 18.3942 38.3015
Pt 13.7673 36.9931 41.3487
Pt 9.16667 26.963 37.7572
Pt 9.73873 19.8936 38.7069
Pt 14.7944 25.6641 35.6773
Pt 21.2431 36.9748 41.6666
Pt 9.07188 30.3551 33.9193
Pt 18.8597 30.0587 41.3735
Pt 15.2433 32.7481 40.4957
Pt 14.0642 20.8886 37.7947
Pt 17.6127 29.8967 7.90204
Au 10.693 20.5232 4.64959
Au 3.81788 25.1672 21.8281
Pt 16.4093 12.3567 22.5748
Pt 11.3313 22.0109 8.24809
Au 4.82433 14.6041 23.1431
Pt 11.4984 20.0135 13.1149
Pt 5.84612 24.2475 23.2291
Au 4.308 28.8662 33.6023
Pt 7.8418 23.5165 24.5749
Pt 6.06918 29.2438 21.5907
Pt 6.11163 31.8799 22.3336
Au 4.65927 19.6517 22.9513
Au 3.78556 23.0016 19.9835
Au 4.50157 31.5307 33.3571
Pt 6.99958 16.8713 28.0076
Pt 9.43499 22.7984 26.8762
Au 8.57359 11.9505 14.4301
Pt 7.88439 21.5055 34.1857
Au 17.4343 37.6679 46.7672
Pt 8.9366 27.8724 33.0999
Pt 19.4469 18.5781 33.5561
Pt 11.2187 36.7511 36.1476
Pt 10.3127 34.7702 33.4429
Pt 8.19052 28.4882 35.7958
Pt 12.9784 24.7162 33.9369
Au 5.52487 21.6434 25.0017
Pt 12.0915 19.1298 37.9167
Au 10.1426 24.3811 7.68321
Pt 14.9126 22.7634 34.5315
Pt 6.6888 26.8734 31.3572
Pt 10.9923 26.2834 33.5133
Pt 15.7664 20.3953 35.6937
Au 7.12451 37.1714 33.8488
Pt 16.7765 30.7119 39.5371
Pt 14.3651 35.1015 39.5553
Pt 7.0745 22.3654 13.9273
Pt 6.88031 34.4461 21.9995
Pt 7.06968 31.9539 32.7587
Pt 10.1446 26.1315 29.0349
Pt 7.80819 27.3016 16.5924
Pt 12.2498 25.6913 6.43673
Pt 11.0696 33.7114 27.6858
Pt 10.5959 27.8826 27.1016
Pt 7.88436 37.0029 22.2043
Pt 6.11499 25.9518 26.5803
Au 5.00692 19.717 31.1459
Au 4.34285 24.0504 25.5073
Au 5.1197 26.9282 11.7715
Pt 6.65172 22.1407 29.354
Pt 6.25905 22.5451 18.4293
Au 5.75961 34.6367 17.4252
Au 3.88936 23.7188 32.7092
Pt 8.66346 21.8481 36.9398
Pt 8.76846 28.293 30.4065
Pt 8.94049 35.4612 35.549
Au 16.9672 35.1109 47.3965
Pt 12.9895 34.8938 37.2409
Pt 7.86704 36.9308 26.6539
Pt 15.5384 35.8993 37.3419
Pt 10.358 36.3025 27.8485
Pt 9.62936 29.605 38.1509
Pt 18.2644 24.0172 43.5291
Pt 11.3548 21.6727 37.4097
Pt 8.74742 23.3588 18.9818
Au 10.9957 39.4498 19.1417
Au 11.4321 43.3731 21.0791
Pt 6.77951 33.3167 26.4395
Pt 8.91171 25.2948 22.3939
Au 5.09177 28.1616 36.1702
Pt 8.77565 32.2511 21.4638
Pt 8.37119 31.0622 25.9979
Au 4.11094 33.7484 21.9205
Pt 5.77086 24.2519 15.4761
Au 8.69347 33.699 39.9538
Pt 9.41756 34.8824 21.1667
Au 3.33488 25.523 30.3807
Au 12.5142 41.5224 37.2818
Pt 13.0317 36.919 26.7209
Pt 10.6084 37.25 30.7089
Au 20.651 48.9535 26.858
Pt 12.1574 36.8531 38.9831
Pt 17.249 34.841 39.253
Pt 13.3568 40.3787 32.6959
Pt 16.2527 37.2138 14.0874
Au 5.19032 33.6466 28.9732
Pt 16.1576 38.1884 11.6391
Pt 10.8665 28.3196 35.91
Pt 16.9089 42.256 25.0871
Pt 7.04798 35.6278 24.537
Au 19.3176 40.5049 39.8026
Pt 13.3031 32.4635 36.0766
Pt 20.5213 35.6489 11.1731
Au 25.355 46.9172 37.5542
Pt 13.3995 39.8537 17.9075
Au 6.13186 36.1808 30.7765
Pt 9.51974 35.6928 23.8052
Pt 20.8712 44.7027 27.5274
Pt 16.5663 40.9426 35.9928
Pt 30.1721 6.94032 19.0376
Pt 21.5677 7.83975 22.3957
Pt 21.9023 11.7115 16.0791
Pt 15.1246 9.61624 26.4023
Au 28.2432 1.8997 20.399
Pt 16.7908 20.2255 31.1078
Au 19.9711 3.18662 28.1495
Pt 21.6903 4.58262 29.6894
Pt 17.0407 18.1338 29.5512
Au 6.04614 12.5615 21.6168
Pt 24.4708 10.1623 19.9365
Pt 8.4595 13.5539 21.2748
Au 8.40734 9.14313 24.732
Pt 20.7038 12.7263 27.3766
Pt 20.9595 10.1731 38.0777
Pt 13.2717 9.73968 32.4209
Pt 12.5472 9.86228 22.5768
Au 29.4962 3.46822 16.1295
Au 16.7796 3.55115 26.5216
Pt 16.9399 7.63868 22.8445
Pt 11.6912 13.7999 13.0764
Pt 13.0105 9.95552 27.9673
Pt 19.895 19.6203 7.78665
Au 24.996 13.0444 20.5097
Pt 12.098 16.4225 24.2311
Au 19.2111 13.0926 22.9408
Pt 9.69132 11.9822 19.5196
Pt 13.7777 16.641 15.4227
Au 19.8327 23.7775 30.2418
Au 24.0463 16.0564 31.5464
Au 21.6123 28.0666 28.1435
Pt 14.3652 17.8949 29.1343
Pt 14.5267 15.544 31.0198
Pt 16.7367 6.51449 27.3826
Au 14.761 4.57699 28.0973
Pt 7.91411 27.2657 28.136
Au 24.1919 1.70325 24.453
Pt 7.72234 17.8243 30.8281
Au 23.6867 22.0843 33.8355
Au 12.1744 5.69425 26.5919
Pt 13.739 29.1071 11.3894
Au 6.02146 17.6397 12.9492
Au 4.2871 20.7703 17.7791
Au 18.6194 3.05943 20.1751
Au 6.98799 12.9278 18.8811
Au 19.8905 6.7833 11.6172
Pt 16.3332 11.264 16.475
Pt 9.45962 18.9831 19.8503
Au 21.8145 19.1914 17.5
Pt 22.932 3.70776 22.8351
Au 21.9216 20.8647 15.2042
Pt 14.3508 7.86837 22.1893
Pt 15.7149 10.7106 12.1356
Au 17.9214 5.30985 15.6433
Pt 12.5279 9.70238 16.717
Au 17.2317 17.9899 18.0794
Pt 8.1918 13.2582 28.5219
Au 17.2871 22.6996 29.8084
Au 23.581 24.4325 26.2939
Pt 8.56028 17.5602 23.5135
Au 7.88539 13.2083 33.2576
Au 17.9969 17.6308 24.4674
Au 16.4909 17.6378 21.9959
Pt 17.5847 17.5219 32.0881
Pt 9.14232 21.2669 24.5976
Pt 10.8287 14.0343 28.9039
Au 24.2674 19.9405 35.3434
Pt 9.35711 23.8361 33.492
Pt 13.0417 23.384 36.3088
Au 7.80479 23.4472 8.61435
Au 12.5521 5.66871 29.3495
Pt 17.0482 15.5329 36.042
Pt 9.51002 18.5481 12.3008
Au 14.2472 22.4007 12.9454
Pt 11.5984 17.7521 10.7756
Pt 18.1931 23.4777 9.42426
Pt 8.40097 15.8372 16.604
Au 6.13628 15.132 20.6198
Pt 12.7965 15.2894 11.0881
Au 7.98536 16.3794 11.4333
Au 14.7791 19.6866 21.9259
Au 13.8055 21.9501 20.7537
Pt 12.7128 14.4939 22.1631
Pt 7.64425 20.8021 26.855
Pt 15.3805 19.636 8.96776
Au 23.6899 17.3492 18.5016
Au 21.8773 14.0914 25.0237
Au 19.3898 19.9637 18.4871
Au 8.29075 28.7076 20.3322
Au 22.3387 14.7673 19.0466
Au 20.6433 14.1441 16.9388
Au 13.4931 18.9166 24.5017
Pt 6.32746 31.2477 27.9992
Au 20.1699 24.6143 19.8784
Pt 16.9587 8.61914 19.9589
Au 16.6772 24.0229 27.3922
Pt 12.0456 16.5557 28.8321
Au 12.5717 24.4127 29.4235
Au 23.6968 20.0297 19.4679
Pt 12.335 12.4329 27.1215
Au 22.4475 26.1957 35.1404
Au 14.8261 35.2374 32.6945
Au 14.926 18.0694 19.6277
Pt 12.6061 17.6216 31.1926
Pt 14.2867 26.9826 42.3118
Au 11.6642 35.8915 42.8977
Pt 11.9258 31.7398 40.7439
Au 7.22413 23.6616 40.1103
Pt 13.5257 25.1035 40.5431
Pt 13.2838 22.9648 39.0855
Au 10.9247 31.0026 43.199
Au 11.1375 12.394 36.8546
Pt 16.0186 30.9788 5.61523
Pt 9.71911 25.2652 17.4024
Pt 25.2097 23.5633 5.39593
Pt 17.9885 28.7713 10.5365
Au 17.7776 9.07458 11.2559
Au 19.1442 3.53181 17.347
Au 18.0208 28.9942 13.9796
Pt 11.81 12.7617 10.7513
Au 22.9312 21.6802 11.2074
Pt 16.2393 22.6799 7.5459
Au 22.5788 24.1259 37.0385
Au 11.9082 21.5766 25.0631
Au 20.1564 36.1434 27.4433
Pt 12.2799 30.0505 38.0448
Pt 8.7794 29.741 28.1851
Au 19.4858 31.5713 25.778
Pt 6.57918 27.2358 34.1011
Au 34.3048 23.2618 32.5813
Pt 11.377 29.4467 29.2825
Au 12.8014 27.1602 28.6739
Au 19.8276 26.679 22.855
Au 13.3733 30.0813 35.0799
Pt 7.51586 23.8273 35.435
Au 19.0642 25.7228 38.7654
Pt 9.29956 18.3553 28.6824
Au 14.2793 29.3707 24.6598
Pt 15.3029 6.15535 30.1215
Au 16.9742 20.1975 19.8615
Au 13.2386 24.2323 24.615
Pt 10.9123 17.0858 33.0656
Au 24.3654 18.9975 30.7652
Au 24.5298 21.8734 31.2595
Pt 9.52488 13.5557 31.0981
Pt 13.4665 27.9487 36.8728
Pt 10.3934 20.9575 34.9516
Pt 17.7671 28.8932 43.4122
Au 10.4491 33.5349 42.2083
Au 4.0229 19.1013 28.6453
Pt 24.191 26.9688 45.7892
Au 5.90784 14.9171 32.0294
Pt 9.04244 26.0041 35.1951
Pt 20.7328 19.4933 45.6386
Pt 15.8664 24.902 9.31991
Pt 11.2679 30.3643 11.5553
Au 4.82575 18.393 20.222
Pt 9.90826 17.8393 17.5491
Pt 16.5784 16.8867 15.5743
Pt 8.08219 25.2946 14.819
Au 13.0124 22.3363 3.70042
Pt 9.94489 23.0198 10.2692
Au 19.6078 15.1701 19.6087
Pt 9.61227 29.5984 15.9242
Au 7.17432 14.6644 13.5192
Pt 10.7761 35.8053 18.3846
Au 19.3121 21.7633 20.9181
Au 24.7431 32.6776 12.8206
Au 14.8981 18.8464 16.5905
Pt 8.64845 27.9082 22.8544
Au 11.6086 29.0613 33.3776
Pt 10.1876 35.1705 38.0287
Au 18.8458 32.3369 23.0115
Pt 10.853 17.7803 22.1297
Au 18.3663 28.3403 39.1457
Au 26.2539 33.4352 35.3378
Pt 17.7866 40.8354 31.8309
Au 15.0302 31.9521 23.9001
Au 21.7047 31.6801 34.4026
Au 21.7305 25.5001 39.1684
Au 15.8291 28.1367 38.2723
Au 17.3802 29.7651 31.2312
Au 15.2227 31.3841 26.7051
Au 25.0639 34.6399 32.4089
Pt 17.2827 30.3757 45.6405
Au 27.6511 17.011 37.3637
Pt 13.6799 27.778 39.8245
Au 6.07637 23.3041 37.5995
Pt 12.8039 29.0882 42.3616
Au 15.5091 25.041 32.9687
Au 14.3322 13.3421 39.6505
Au 6.95129 26.2097 39.4131
Au 14.8627 36.9035 46.2216
Pt 15.6821 33.1431 37.772
Pt 17.0555 22.0762 44.9253
Pt 14.8202 23.2454 44.3483
Pt 14.3576 24.6814 11.4393
Pt 11.3193 26.4816 8.74095
Pt 11.5523 27.7002 10.9513
Pt 17.8445 18.225 8.45454
Au 5.11334 31.3008 30.6259
Pt 11.7973 24.8845 10.9723
Au 18.8417 20.6314 28.9851
Pt 15.3513 36.2194 9.90552
Au 13.5748 24.8155 19.9574
Au 13.916 40.7796 11.0394
Au 17.6334 21.4282 26.4245
Au 18.9184 24.3032 14.156
Au 21.2861 25.7705 9.21977
Pt 5.43759 26.6391 29.0597
Pt 7.04384 19.4803 24.2707
Pt 13.8622 29.2052 14.1049
Au 17.2888 30.3719 24.4527
Au 4.91323 25.167 35.188
Au 15.8926 27.3818 31.1846
Au 16.9818 20.8448 17.0503
Au 9.75023 36.0583 40.6857
Pt 12.8958 29.533 26.9447
Au 16.7861 36.6088 20.8491
Au 14.077 24.605 27.1456
Pt 9.48667 32.8096 32.0055
Pt 13.4997 34.2505 27.6614
Au 12.9908 27.0276 25.7403
Pt 12.3214 40.6167 29.9126
Au 23.1245 29.1916 35.2742
Pt 16.157 35.1701 41.7079
Pt 16.6583 37.2286 40.1835
Au 32.0011 33.3129 26.5816
Au 5.47073 30.7889 37.0532
Au 21.5392 34.4657 48.9928
Pt 11.2436 29.1809 40.3137
Pt 11.5123 27.1244 38.6123
Pt 16.097 26.0992 40.1971
Pt 18.2356 21.6202 40.1806
Au 14.8614 31.497 45.352
Au 8.14653 26.1634 42.0444
Au 6.90642 28.7526 38.2245
Pt 23.3317 33.7649 44.9571
Pt 16.5773 32.4129 7.7047
Pt 17.089 13.1124 11.973
Pt 9.31353 25.676 10.3974
Au 7.06569 27.9081 10.0223
Au 5.64529 24.3614 12.7855
Pt 6.35655 27.5163 18.8929
Au 12.0103 35.1959 7.34638
Pt 21.3884 33.9891 9.37729
Au 4.79463 29.7502 18.893
Pt 11.2455 24.1516 31.7463
Au 14.4892 17.1968 4.48061
Pt 12.0947 34.793 20.5519
Au 13.5053 19.6042 27.0875
Au 3.74317 28.7917 22.8978
Au 5.54304 14.5325 28.6393
Au 16.4055 46.7343 32.6723
Pt 6.88493 23.6907 20.9278
Pt 7.71071 15.2919 30.0447
Au 6.31125 20.5433 36.6222
Pt 8.61474 24.3906 37.7638
Au 14.8369 35.0605 19.0474
Au 5.49213 37.6845 25.2787
Au 5.04558 35.3095 26.6372
Au 5.07745 33.816 31.935
Pt 7.42168 33.6972 30.6065
Pt 15.7119 41.9544 33.3908
Au 6.03929 32.8311 35.3167
Pt 8.58335 35.9343 31.7693
Pt 15.2495 34.273 35.2543
Au 15.5096 44.9358 34.5183
Pt 18.5561 26.8877 41.4175
Pt 24.225 40.0176 31.6965
Au 9.79817 37.95 38.6413
Au 7.36599 10.7254 28.9667
Au 15.7538 39.2573 45.0304
Pt 26.0888 40.3726 44.1472
Pt 8.6732 23.8743 12.4718
Pt 11.0325 35.0634 11.8289
Pt 8.0967 23.071 16.3552
Au 14.0738 13.1757 6.79446
Pt 17.3928 31.2793 10.1375
Au 16.1775 29.0306 20.2094
Pt 9.65481 30.7244 19.2738
Au 8.37529 37.9302 36.2242
Pt 12.3617 29.887 9.22256
Pt 13.0938 35.4492 16.9074
Pt 10.1564 30.2016 31.5546
Pt 9.79582 28.6455 9.09542
Pt 9.28216 39.0404 27.2451
Pt 9.98578 34.6839 29.9555
Pt 10.642 37.4185 25.4777
Au 5.10137 36.3672 22.73
Au 14.3376 26.5282 23.2892
Au 9.13958 8.85095 30.0041
Pt 12.6327 36.0313 29.4708
Au 14.8042 34.1248 46.0119
Pt 14.305 34.1256 30.1843
Pt 20.4035 28.0845 42.8573
Pt 16.5082 39.3692 33.7458
Pt 19.2752 37.6937 39.9466
Pt 9.07834 34.5939 26.1743
Pt 8.69683 18.8289 33.4312
Pt 16.5393 25.5075 37.7103
Au 14.368 46.4939 30.4277
Pt 6.98629 25.0717 17.6288
Pt 5.88036 18.8663 26.574
Pt 14.7128 31.6052 10.1144
Pt 11.7574 33.1187 13.3097
Au 11.9057 32.4395 7.4678
Au 5.27129 35.4755 20.0006
Au 9.04293 36.9008 13.0748
Au 22.876 40.6502 21.3444
Pt 7.98388 36.3227 19.5987
Au 5.99061 37.9933 20.3473
Pt 14.8071 30.5642 37.5652
Au 8.14395 38.5738 24.6434
Pt 19.3864 42.0663 24.0994
Pt 15.8593 44.6135 26.0239
Pt 13.7596 30.7062 16.7124
Au 13.8115 27.4218 33.8579
Au 12.3393 45.3915 28.5674
Pt 8.08992 33.54 37.2262
Au 11.3157 38.1342 41.3483
Pt 13.3879 34.0107 41.8417
Pt 7.42104 33.6814 19.4894
Pt 20.1586 41.9288 28.646
Pt 27.2517 46.1495 21.2963
Pt 14.119 36.3085 24.2328
Pt 14.2185 30.9313 7.6247
Pt 19.7885 42.9835 39.1339
Pt 15.2697 36.0611 27.9922
Pt 10.6876 12.3512 22.1068
Pt 27.9798 10.8841 22.8136
Au 13.7119 5.48723 20.2554
Pt 16.5854 9.16338 34.2055
Pt 17.8784 9.6741 17.64
Pt 23.8279 4.7913 27.9826
Au 36.0854 3.60968 26.4876
Pt 16.2517 6.23812 20.4106
Au 27.7925 4.03501 21.9718
Pt 20.4255 10.4571 22.3227
Pt 18.6351 16.1926 29.0973
Pt 15.5095 13.1472 30.2153
Pt 22.6461 9.84987 30.3931
Au 34.9396 2.69847 17.1997
Pt 22.569 10.2495 35.1339
Pt 13.3824 8.13384 30.0131
Pt 12.1007 22.3894 33.6351
Pt 14.8553 11.9946 27.8141
Au 14.7862 9.21083 36.4647
Pt 19.3534 8.85095 23.9498
Pt 18.4406 13.2727 35.3716
Au 6.8288 15.2969 34.7112
Au 15.2082 14.2148 42.2917
Pt 10.0652 16.3863 30.5065
Pt 20.6711 5.01505 21.8916
Pt 20.7906 9.98451 11.1356
Pt 33.2483 15.2727 11.1607
Pt 12.5926 8.42418 25.5041
Pt 26.5226 9.42777 18.3217
Pt 14.0691 7.23351 27.4822
Au 12.2113 7.35324 18.1274
Pt 21.5129 5.29189 27.0252
Au 25.1443 22.4909 24.3034
Pt 20.9841 4.17209 19.1993
Pt 20.3412 5.94267 17.0648
Au 30.9745 2.40574 21.195
Pt 8.23439 11.3524 26.227
Au 24.9343 14.4886 25.1871
Pt 17.9404 11.0738 24.4335
Au 23.0089 18.7761 27.3613
Pt 15.9776 18.0935 26.7985
Pt 36.9789 6.8202 28.1786
Au 15.3665 16.8151 24.4289
Au 27.8234 29.2978 32.0699
Au 16.7843 22.6368 32.5445
Au 22.163 25.3829 29.8293
Au 13.979 20.2281 30.5382
Au 15.7998 6.07939 33.1841
Au 4.12172 17.2596 24.6878
Au 15.9163 10.861 38.7401
Pt 12.5915 12.3636 29.8796
Pt 16.5 17.9895 34.5663
Pt 8.46906 15.8895 32.5906
Pt 21.1204 19.1104 37.6655
Pt 10.0738 11.3824 28.7669
Au 10.0678 16.9927 39.9932
Pt 14.0829 14.8237 13.4331
Pt 22.5638 16.0634 4.24047
Pt 25.0062 15.2284 9.32513
Pt 20.1206 13.1514 14.4524
Au 6.77025 22.3813 11.0121
Au 23.603 3.72514 14.4004
Pt 7.56818 19.6351 13.926
Au 5.36258 20.629 12.7547
Pt 16.8157 15.0157 13.7777
Pt 13.3732 13.8431 18.133
Au 16.278 20.4519 11.9498
Pt 23.2255 5.02051 20.5128
Au 25.2427 16.383 16.2179
Pt 12.3091 9.6662 19.61
Au 11.7125 20.187 17.7077
Au 25.2099 14.9692 18.558
Pt 17.3291 11.136 26.9358
Pt 14.0056 14.4597 24.6755
Pt 15.2393 8.91888 17.3823
Au 21.6888 25.2252 24.4647
Pt 10.0095 23.516 29.3337
Au 16.275 19.889 24.5161
Au 17.8283 13.3514 20.5429
Au 14.5522 22.4574 29.0095
Pt 15.3383 9.88609 23.7118
Au 27.1669 22.6103 22.5218
Au 21.4745 21.9565 18.0528
Au 9.12604 13.982 35.778
Au 8.41114 19.0252 40.7976
Au 19.6451 26.1068 34.6586
Au 19.362 21.3868 31.7025
Pt 15.6603 8.35796 31.684
Au 7.91897 15.9041 37.3187
Pt 9.60712 15.7037 25.1193
Au 23.8497 19.3793 37.8367
Pt 11.5552 26.6606 41.402
Pt 10.1455 17.4312 37.4223
Pt 15.6363 14.2878 26.6995
Pt 11.2797 24.4289 38.2805
Pt 13.6598 14.4448 28.5915
Pt 11.1964 12.0282 15.1928
Pt 8.92475 21.1773 12.0962
Pt 13.0418 10.9414 25.1138
Pt 18.5836 16.5812 10.2843
Pt 22.8832 14.3452 11.3959
Au 20.2094 29.9594 3.9319
Pt 11.1717 22.6257 12.667
Pt 22.2484 7.80416 10.7291
Pt 25.5601 11.0266 8.03802
Pt 18.7114 17.7189 5.89103
Pt 24.1409 15.1354 14.0669
Pt 15.1081 21.4832 5.46992
Au 24.2981 25.4263 7.22985
Au 12.5768 19.3754 8.52489
Au 18.3263 19.679 22.4056
Au 27.1159 31.4887 13.9756
Au 12.2982 21.815 15.159
Au 17.1201 25.7754 22.9465
Pt 17.2606 6.93925 17.8293
Pt 9.19138 21.0032 29.3145
Pt 11.1747 14.1087 19.982
Pt 17.6651 15.9195 26.5647
Au 19.231 29.0876 26.994
Au 17.8785 25.2935 31.4215
Pt 10.6603 19.0072 24.4817
Au 18.8469 17.8908 20.3451
Pt 26.5386 22.4305 29.5247
Au 14.3338 32.5369 33.2033
Pt 9.39309 15.8468 27.7384
Pt 14.2765 11.1533 18.4917
Pt 10.4443 23.6572 35.7733
Au 14.7753 22.338 16.1075
Pt 12.8523 24.8171 43.1588
Pt 22.319 26.3846 43.8163
Pt 12.4638 18.2446 40.4099
Au 27.3346 22.2366 32.1458
Au 5.89843 12.2843 27.1763
Pt 21.145 19.6844 42.9529
Au 14.7405 25.457 47.3905
Pt 14.6887 20.8094 40.4359
Pt 11.563 15.6626 35.6742
Au 15.1021 16.2931 44.0412
Pt 10.6364 26.7112 15.501
Au 15.6477 28.9044 3.74886
Pt 23.2026 11.3512 11.8196
Au 10.1725 15.2622 10.0411
Au 9.22879 18.1024 9.55187
Au 25.9354 28.3553 18.8433
Au 29.1253 10.3344 5.88451
Au 24.1605 5.97379 10.7721
Au 19.2675 15.8742 15.0889
Au 25.103 30.6848 10.9691
Au 25.2405 29.2766 13.471
Pt 15.9965 27.0451 11.0212
Au 24.1441 32.2544 30.9389
Au 15.8476 26.179 25.5409
Pt 12.927 32.3763 25.8648
Pt 7.4439 35.0749 28.3983
Pt 6.79423 24.7335 33.1165
Au 18.5092 29.444 21.8472
Au 18.4472 26.948 20.5343
Au 27.7164 24.6654 14.623
Au 10.618 29.6049 24.8901
Au 20.3262 24.2223 7.19688
Au 22.7344 23.4968 8.7514
Au 18.4973 32.6473 38.2795
Au 11.8272 25.6019 22.5439
Pt 17.1677 36.8529 32.4236
Pt 15.3562 15.0119 22.2658
Au 4.03617 22.2645 30.2693
Au 21.0925 33.0883 39.6283
Pt 5.73522 24.418 30.7229
Au 22.4015 25.1769 21.6199
Au 6.60769 17.8679 35.6346
Au 11.3953 24.9332 26.8464
Pt 13.0572 20.6022 35.3606
Au 28.1329 28.4857 40.621
Au 23.5738 31.7584 39.4359
Au 25.0371 29.3156 37.3747
Pt 15.0703 28.9332 43.9932
Pt 12.7602 16.6018 38.1545
Au 26.0479 27.1894 39.0725
Au 22.277 39.5672 47.574
Pt 20.3913 23.2021 39.6005
Pt 15.5947 22.4518 10.286
Pt 15.7458 15.4052 11.3118
Au 9.19515 13.5497 12.0018
Pt 21.2237 25.0115 4.21567
Au 17.8759 25.2277 18.3738
Au 19.405 25.9622 2.39009
Au 20.7924 34.7838 16.7629
Pt 11.0099 16.6407 15.2066
Au 19.8939 29.5114 29.8415
Au 19.1742 20.1589 13.6165
Au 18.5078 22.0175 11.7182
Pt 17.6689 20.8524 9.252
Pt 10.8686 33.6338 36.0878
Pt 6.37016 29.054 29.5265
Au 24.586 33.6997 9.66502
Au 12.5258 24.5672 16.3757
Pt 8.98227 25.6249 31.4455
Au 17.0406 36.4776 23.9341
Au 22.8521 34.2806 37.8372
Au 19.4069 21.8082 15.8316
Au 27.609 26.3355 36.6507
Pt 15.7785 33.2104 43.3966
Au 15.7308 28.6566 35.5466
Au 23.496 18.1407 33.4871
Au 25.6105 28.1142 41.6406
Pt 21.997 41.4944 35.4474
Au 23.7842 24.6828 32.4376
Au 17.0333 27.0844 33.7403
Pt 15.8194 37.8138 42.8291
Pt 9.65121 22.5162 39.4573
Au 37.2734 23.3417 44.647
Pt 20.2062 32.5591 42.0571
Au 20.7138 25.2178 41.7983
Au 17.2318 24.5785 48.3009
Au 17.2903 24.6539 35.1936
Au 9.31352 31.0299 40.8969
Au 31.4748 19.35 39.8329
Pt 21.6168 35.4636 46.0119
Pt 25.4015 22.3081 41.9548
Au 36.5593 24.9309 32.8216
Pt 21.4483 19.1761 35.102
Pt 22.9797 31.0905 44.8866
Pt 18.5379 15.6087 7.50944
Pt 13.6851 23.5739 6.15333
Pt 21.7571 26.334 6.38373
Au 19.218 40.9634 9.89084
Pt 14.508 19.1009 6.5413
Au 9.9629 31.3881 9.04199
Au 18.5369 14.0357 5.22504
Pt 9.81952 19.0396 15.1628
Pt 13.8141 37.2554 15.1181
Au 17.4723 26.3584 15.7076
Pt 13.1302 24.2851 8.70176
Au 8.17206 26.3245 8.13092
Pt 7.17348 19.0194 21.4008
Pt 6.94915 31.128 19.8433
Pt 5.29153 33.7376 24.3006
Pt 16.2185 32.6477 12.3128
Au 24.0643 30.177 18.0976
Au 18.9891 31.7662 20.1914
Au 20.6605 30.6375 14.7886
Au 8.38844 25.962 19.821
Au 16.5674 31.4328 21.6042
Au 15.9983 31.6113 35.3077
Pt 8.82343 32.8421 34.6771
Pt 14.8756 38.7284 20.3023
Au 20.0515 26.9881 14.9001
Pt 19.457 36.6483 35.3997
Au 21.5246 35.7311 21.1623
Au 8.52433 38.7026 15.3108
Au 24.4033 32.2232 33.6841
Au 23.6378 34.5993 35.1438
Au 28.3356 37.6342 34.5019
Pt 17.1017 45.3791 30.5707
Au 18.0307 29.588 34.177
Au 20.8239 34.369 35.2067
Au 23.4337 26.3793 41.1219
Pt 12.1005 34.0254 31.5602
Pt 20.2946 33.0579 44.8611
Au 29.9447 33.9444 48.0524
Pt 21.7462 38.9884 39.9962
Au 15.4481 20.1433 46.1311
Pt 24.479 30.6717 41.9605
Pt 18.2746 31.5936 43.597
Au 7.16275 19.3108 11.0803
Pt 14.4683 26.6028 4.73455
Au 14.1162 33.8892 8.47626
Pt 15.3172 29.172 9.29899
Au 5.73721 31.726 17.1575
Au 10.5838 40.2902 16.4622
Au 8.00147 30.5474 10.6636
Au 19.1436 18.5472 3.08218
Pt 9.17052 28.2734 11.6265
Au 7.12063 30.529 15.0157
Pt 11.2513 28.4536 13.6002
Au 11.5746 37.6824 8.44207
Au 6.59192 29.1199 12.612
Pt 8.47017 27.949 14.216
Au 17.238 33.0123 25.4046
Pt 12.1477 32.633 10.2522
Pt 6.37495 26.5192 21.7841
Au 14.6975 42.9577 36.2449
Au 5.76679 37.4116 28.283
Au 24.6892 23.4959 21.565
Pt 8.38148 28.2787 25.6549
Au 20.4338 47.1883 36.8511
Au 6.7035 39.674 26.7856
Au 12.8455 31.2982 31.3271
Au 16.5833 15.7439 19.9081
Au 14.2761 21.7438 23.6421
Pt 14.149 30.2968 40.241
Au 18.0848 27.6514 24.7728
Pt 9.75608 39.8419 29.8229
Au 15.4095 29.7845 47.4874
Au 16.4034 27.3882 48.4066
Au 21.2451 29.95 21.6523
Pt 24.0318 37.6332 38.4653
Au 18.5668 42.388 41.7465
Pt 28.5345 32.8063 41.2017
Pt 13.7295 31.4791 42.7604
Pt 18.3524 34.2845 43.1277
Pt 26.0987 30.2719 39.7636
Pt 16.7745 26.514 43.2877
Pt 16.8039 24.9055 45.5906
Au 23.2749 36.1623 43.3611
Pt 26.6402 37.7393 37.2372
Au 10.1972 34.3217 9.28449
Au 4.79884 32.7983 19.4655
Pt 15.7454 35.527 16.1484
Au 21.3846 13.6996 3.67393
Pt 9.79357 32.5653 11.6155
Au 9.51283 39.4158 12.5411
Au 4.16941 32.2847 26.5943
Au 10.4534 43.566 26.8327
Pt 11.9017 35.6289 14.2848
Au 8.34728 40.6732 22.9975
Au 5.22692 22.4752 34.893
Pt 13.8033 26.8324 9.64305
Au 12.1027 18.2391 5.73588
Au 12.9826 22.7883 18.288
Au 16.2796 28.7909 26.5558
Au 22.0689 30.3241 8.41678
Pt 15.0079 34.3895 25.6051
Au 8.35588 41.6275 28.2973
Au 7.00967 39.5864 29.4779
Pt 15.4232 37.9199 25.7953
Pt 11.7109 34.3491 39.9214
Pt 11.8209 34.9284 25.3359
Au 21.2266 45.5587 35.0024
Pt 12.5904 38.6683 21.6814
Au 14.2039 41.9225 13.5262
Pt 17.4914 43.2693 35.3516
Au 13.9084 41.8009 40.5965
Au 22.3453 33.9951 32.6791
Au 17.6921 44.4646 39.6781
Pt 16.5585 42.6728 30.5333
Pt 14.884 40.6734 38.1457
Pt 18.1871 38.3237 44.33
Pt 14.5431 37.9382 33.1125
Pt 14.3457 35.5717 43.6732
Pt 20.4153 28.608 47.7114
Au 22.8482 45.818 40.7527
Pt 13.027 33.011 15.645
Au 4.15758 28.3873 30.8705
Pt 13.61 31.5251 12.5282
Pt 14.0014 21.7524 8.24951
Pt 11.6755 37.6632 12.1212
Pt 6.65252 20.9485 16.1875
Pt 10.7444 34.0035 16.3795
Au 29.8206 26.801 16.4602
Pt 23.4197 39.4606 10.8466
Au 8.7056 28.21 40.3444
Pt 17.7361 40.6514 29.0966
Pt 14.0086 34.006 11.4084
Pt 10.1719 38.4507 22.8881
Au 8.63253 41.4827 25.6649
Pt 14.6959 40.4733 24.5812
Au 16.6287 47.8511 29.6846
Pt 28.419 46.1475 30.6952
Au 3.99577 29.7531 28.3383
Au 13.2825 43.1715 33.7035
Au 14.7132 46.6848 27.669
Au 27.3681 45.9965 39.4008
Au 10.0284 28.3677 42.7945
Pt 18.2722 38.9288 35.7721
Au 9.13766 39.824 34.2504
Pt 26.1153 41.8285 39.0004
Pt 14.5612 37.8262 38.7625
Au 15.3047 22.8294 46.9672
Au 23.9646 40.4523 45.7211
Au 10.5133 40.8292 21.4283
Au 12.4593 42.4508 16.0982
Pt 10.1216 33.3495 19.0669
Pt 29.9588 43.8073 15.0699
Pt 10.4241 37.2358 20.5765
Au 22.3397 49.5186 29.1864
Pt 21.7417 47.063 28.4552
Pt 30.0334 38.7781 28.2003
Pt 13.115 40.8782 20.3536
Pt 23.6253 46.0808 30.5069
Au 21.0837 40.1949 44.9909
Au 19.145 2.82761 22.9035
Pt 18.8183 5.65363 19.573
Pt 32.5146 6.67283 25.4562
Au 32.8875 2.31315 19.0568
Au 16.0241 3.58095 20.9126
Pt 19.1787 10.788 15.565
Au 23.191 2.55094 19.2465
Au 13.8447 11.6521 37.0458
Pt 25.5793 4.42834 18.7174
Pt 11.6458 13.3123 24.4582
Pt 28.7947 9.12217 20.1002
Pt 20.9324 4.20051 24.5791
Pt 15.7469 8.57458 28.8908
Pt 24.3723 5.08001 30.6898
Pt 19.6234 8.01873 18.579
Pt 30.6045 6.46198 23.419
Au 17.6528 4.46503 28.984
Au 10.0102 9.42181 18.3211
Pt 19.7681 10.1927 26.4465
Pt 20.1743 15.239 27.2726
Pt 13.7946 12.2627 22.9414
Pt 24.4746 9.64317 25.7648
Pt 27.9793 4.49004 24.7443
Pt 16.8058 10.8196 29.3913
Pt 25.0793 9.63465 33.5329
Pt 20.6196 6.79153 33.6561
Pt 22.0596 6.61358 24.5854
Pt 17.4074 8.50363 25.6044
Pt 14.3616 10.5772 30.2155
Au 23.6004 2.42686 29.1336
Pt 18.5918 13.2598 25.9044
Pt 15.0704 13.5829 35.1805
Pt 16.764 13.5252 7.51844
Au 21.5 1.64874 23.9248
Pt 24.1341 7.96801 15.6978
Au 16.7048 4.31865 18.3394
Pt 19.5466 8.85899 13.3429
Pt 21.3531 6.70548 19.9664
Pt 21.3102 8.82421 15.6531
Au 14.9669 8.2117 12.8293
Pt 20.6989 12.8568 11.9429
Au 33.6602 2.14055 21.7881
Pt 17.1087 9.63329 14.2181
Au 19.1237 19.308 10.876
Au 22.9042 23.4877 16.248
Pt 17.836 13.2664 15.5728
Pt 20.7227 10.3052 17.8343
Pt 26.4137 8.63821 21.307
Au 24.2744 20.8909 28.6717
Au 19.668 15.4665 24.5241
Au 21.5078 17.1389 20.1986
Au 33.7543 16.8828 29.5465
Au 27.7012 23.9265 17.3148
Au 29.9648 2.45425 25.8746
Au 24.7945 25.409 14.8026
Au 16.0435 20.3034 28.3579
Pt 16.947 14.4622 24.2757
Pt 18.4909 18.5464 27.2359
Au 25.6792 20.0424 32.9812
Pt 15.1689 18.0782 31.7919
Au 25.3304 24.9466 37.6787
Au 30.9699 18.5997 33.1794
Au 29.0395 22.1912 38.8539
Au 9.93773 21.0059 41.7858
Pt 15.7817 23.324 39.7971
Pt 11.8565 25.9183 36.0919
Pt 16.6939 13.309 33.2215
Pt 18.5281 15.8436 33.9271
Au 12.4994 35.7068 45.5492
Pt 18.5448 20.3187 42.8988
Au 16.3363 11.9367 41.1839
Pt 25.5172 10.6632 38.7912
Au 13.8232 16.067 7.0036
Pt 12.6278 12.0136 20.5007
Pt 10.9029 20.3705 10.4651
Au 33.0913 4.44849 13.2323
Au 18.264 11.5228 6.52164
Au 10.1299 7.28941 25.9127
Pt 18.6181 11.3557 12.8974
Pt 27.769 12.2267 11.8318
Au 18.523 21.1838 2.62366
Pt 7.58707 26.2997 12.3678
Au 24.31 20.3812 13.5132
Pt 15.2741 17.3269 13.2028
Pt 25.0146 5.41901 16.0411
Pt 19.1568 7.74062 21.3287
Au 23.0402 21.6527 25.9953
Pt 22.2337 8.0721 13.3382
Au 25.6513 21.8554 10.7536
Au 25.7803 17.8412 13.7977
Au 26.5774 14.8066 32.7952
Au 20.9948 18.0878 14.6639
Au 29.076 19.2695 38.4158
Au 22.0031 15.4361 29.5327
Au 22.4166 26.2577 16.2539
Pt 5.26799 25.1483 19.5465
Pt 29.0518 21.704 29.6993
Pt 12.0304 14.6852 31.1645
Pt 20.6818 17.3609 39.5117
Pt 25.3324 27.6936 22.9128
Au 26.3341 24.6047 31.3206
Au 12.3893 19.0915 20.1439
Pt 22.6719 23.0255 23.4891
Pt 14.4927 16.1244 40.5595
Pt 9.14097 16.7234 35.0406
Au 20.7464 17.8532 28.6041
Au 14.5079 20.5778 18.5355
Au 20.9163 31.3362 28.1439
Au 25.1957 19.9955 25.9965
Pt 25.4969 11.7074 41.4624
Au 13.9024 27.9108 46.4581
Au 20.5904 11.3533 31.4573
Pt 17.9387 23.3232 38.1772
Au 19.579 36.0805 48.0913
Pt 12.646 24.5757 13.6888
Pt 24.5706 18.2671 8.53328
Au 17.2209 16.5457 3.93055
Pt 26.1729 8.43199 13.8757
Au 20.4114 23.4258 2.12516
Au 20.4845 21.8747 9.65593
Pt 19.7628 13.2515 7.96115
Pt 20.5513 14.843 10.0413
Pt 17.0822 20.0574 6.70286
Au 22.555 24.7609 18.7341
Pt 22.4256 5.99327 15.3946
Pt 15.0073 16.0974 17.7388
Pt 21.5098 15.241 13.6087
Au 25.8155 21.5083 3.58775
Au 13.9792 17.1848 9.57006
Au 25.4999 16.3435 23.1378
Au 25.0994 25.3968 17.6226
Au 14.9212 24.1217 22.1754
Pt 12.4382 14.3471 15.5637
Au 18.4923 26.6733 12.5549
Au 22.7816 11.5041 21.7817
Au 22.0933 34.3255 23.5911
Au 21.4606 32.0614 30.7174
Au 20.1105 23.865 22.5866
Pt 32.6687 21.4988 26.8664
Pt 28.8319 20.9714 36.3183
Pt 32.395 23.9463 25.7219
Au 15.8931 23.0376 19.0074
Au 38.1186 19.6618 24.0401
Au 18.8421 32.1333 35.2562
Au 14.0362 30.1012 21.767
Au 25.4233 12.0931 17.8151
Pt 13.8719 25.5167 38.0793
Pt 15.0558 20.6734 43.3901
Pt 13.225 14.1819 37.2761
Pt 20.7262 30.5052 43.7559
Pt 13.6372 22.5869 41.9465