3871
Atoms. Timestep: 21340
Au 12.7825 5.28075 21.2356
Pt 22.4755 10.2192 31.6007
Pt 22.8185 9.42275 29.1739
Pt 16.3743 14.6405 39.8083
Pt 9.57163 16.6125 18.1935
Pt 22.9439 10.3033 35.6049
Au 22.6753 4.89445 21.8086
Pt 9.89533 19.2131 32.703
Pt 13.8624 14.2729 28.1672
Pt 15.7654 14.5439 32.4862
Au 2.44316 24.2703 18.9601
Pt 8.34787 15.22 26.2528
Au 9.62548 8.51291 19.9187
Pt 17.4894 9.1357 29.7018
Pt 15.3786 9.56861 25.5522
Pt 14.3427 12.693 23.2481
Pt 15.8696 12.2572 25.5409
Au 8.36298 14.1328 32.9088
Pt 15.955 6.28565 20.4613
Au 11.1601 7.7778 28.5871
Pt 7.81143 12.5005 25.4143
Au 2.4623 24.4567 29.5697
Pt 17.151 9.89757 32.2402
Au 3.74952 16.4085 21.8308
Pt 11.5837 20.3082 15.6482
Au 5.89853 23.6694 13.3457
Pt 13.5836 11.5652 18.0561
Pt 16.1175 8.02942 23.4961
Pt 11.4355 18.3953 9.93545
Pt 15.1261 11.4288 15.9484
Pt 10.2126 16.9814 25.5232
Au 26.4597 1.09756 22.0331
Pt 10.566 24.7276 32.003
Pt 16.2287 10.6719 18.6645
Pt 8.82412 15.3886 15.7369
Au 2.25425 19.6191 28.32
Pt 13.2286 10.9671 25.3138
Au 12.397 5.5484 24.0625
Pt 10.5443 11.3386 29.5304
Au 3.39446 15.0188 27.4036
Pt 4.83548 25.9825 29.2888
Pt 4.2424 25.6798 22.3909
Pt 9.18128 14.102 23.8812
Au 2.04921 26.2028 20.8402
Pt 11.7914 17.5848 27.5341
Pt 9.38459 18.7635 27.8433
Pt 5.60095 17.3864 24.2619
Au 1.61955 25.7193 23.8329
Pt 11.9316 12.2255 20.1344
Au 5.06874 12.2835 24.5
Pt 22.9186 21.9432 2.84667
Pt 13.8292 9.30191 16.8123
Pt 18.7923 17.562 14.798
Au 2.46516 20.2663 25.6316
Pt 10.5421 16.2255 13.9822
Pt 8.9357 25.7958 21.4846
Pt 6.34066 14.7074 24.5832
Au 3.06782 19.5208 18.193
Au 15.2142 39.7488 10.3839
Pt 9.23204 18.912 13.9799
Au 5.55705 13.4208 26.9494
Pt 12.4791 16.8223 17.9825
Pt 9.52511 28.7612 28.2487
Pt 8.16242 15.0645 20.0922
Pt 15.3438 14.336 21.3324
Pt 5.047 19.2734 26.1925
Pt 6.38768 15.6942 22.0822
Au 16.5866 3.74418 18.5066
Au 4.20123 25.8388 34.019
Pt 10.9228 14.7029 19.4048
Au 14.7541 28.1272 33.5905
Pt 12.6449 11.0519 33.5412
Pt 6.28866 28.1583 26.2685
Pt 8.00868 21.083 32.3152
Au 2.51296 21.0064 22.8756
Au 3.18503 19.0061 30.8805
Au 9.50893 9.08914 30.4742
Pt 6.5679 23.5851 24.9763
Pt 15.9562 17.5553 33.7662
Au 7.52817 21.8596 39.0394
Au 3.73262 15.4418 24.6723
Pt 14.8816 24.7724 5.48796
Au 10.3715 13.1285 14.751
Pt 16.6101 30.5375 7.61595
Pt 4.57334 26.4657 19.7386
Pt 9.56463 13.0208 21.2103
Pt 24.686 7.2912 17.6652
Au 4.21383 20.0548 15.7768
Pt 10.8894 10.1941 21.4402
Au 15.3471 5.0636 30.3341
Pt 9.40487 25.9522 28.773
Pt 9.58863 19.7609 25.3427
Pt 19.0164 13.6948 15.2003
Pt 11.3226 29.3648 31.6558
Au 6.95116 12.0035 29.0032
Pt 9.83577 20.8329 22.8573
Pt 11.0662 21.8673 20.0075
Pt 7.51869 20.1143 21.0134
Pt 7.84605 34.9555 32.4828
Pt 10.088 20.7987 29.861
Pt 9.29195 23.8571 19.3137
Au 22.5024 28.4653 33.7467
Pt 7.00724 22.6224 20.3317
Pt 11.623 20.231 27.5286
Pt 9.13283 28.4109 32.902
Pt 9.05973 25.9301 33.7548
Pt 6.92569 19.9924 28.1025
Pt 8.83374 30.9823 37.2727
Au 8.25709 19.1006 39.5134
Pt 14.1992 13.9497 37.8795
Au 18.6324 30.6603 18.7143
Pt 10.1872 21.0056 39.417
Au 3.54204 33.936 28.2827
Au 9.72161 20.4297 43.9695
Pt 9.95444 30.3969 34.6102
Pt 11.2545 29.9065 36.809
Pt 12.5917 12.4156 39.6028
Pt 9.84856 19.449 37.3221
Pt 14.9388 29.772 45.0157
Au 19.4914 33.6383 46.674
Au 5.15939 17.4966 14.8082
Pt 7.02528 15.7647 17.6567
Pt 17.1814 29.1272 12.5455
Pt 7.38418 27.8018 19.0575
Pt 11.1836 17.3061 20.3397
Pt 9.45272 23.9181 15.7596
Au 2.64786 21.9875 17.2349
Au 2.0521 30.686 21.6347
Au 5.21629 27.7914 35.8148
Pt 8.72229 26.9798 26.3247
Pt 8.09103 33.6093 22.1059
Pt 8.82421 24.1466 26.9798
Pt 14.5703 18.6064 13.4137
Pt 5.46793 19.5321 19.3989
Pt 13.0996 23.651 18.4721
Pt 4.07471 26.7742 26.798
Pt 5.8284 22.6193 32.4415
Pt 5.7238 32.9549 23.5147
Pt 7.06775 32.5334 32.0443
Pt 10.5733 31.058 29.6805
Au 3.52804 27.6469 24.1508
Pt 6.64505 27.1836 33.4805
Pt 9.22607 31.0223 32.0913
Pt 9.00696 23.4436 34.5007
Au 1.44618 28.2165 22.4804
Au 2.10994 22.3618 27.5662
Pt 11.3225 22.4659 35.0865
Pt 8.12326 23.8135 31.9554
Pt 5.62509 16.313 26.7417
Au 2.74616 21.6899 30.3188
Au 12.0122 40.9635 36.2266
Pt 8.87568 20.8425 34.853
Au 9.68325 12.1382 37.159
Pt 11.3598 30.2514 41.754
Pt 9.37655 22.2861 37.0458
Pt 7.30402 18.3936 32.9735
Pt 12.2754 18.5779 37.3892
Pt 12.5445 35.4869 37.6052
Pt 9.88074 33.1227 33.6529
Pt 18.4766 28.4302 39.2392
Pt 9.67607 28.2021 41.4902
Pt 20.8263 11.7875 40.699
Pt 22.8369 22.388 5.75732
Au 7.19094 28.8245 12.0276
Au 2.30759 29.898 28.2802
Pt 17.0788 11.5738 13.723
Pt 10.7854 24.8194 10.7462
Au 2.99043 17.5401 26.4492
Pt 8.86743 13.6821 17.8336
Pt 6.90244 25.2034 19.6426
Au 2.50921 31.9945 26.5461
Pt 7.63034 19.178 23.5069
Pt 8.36295 27.6484 23.5455
Pt 7.54667 30.7873 23.041
Au 5.31532 11.463 21.637
Au 2.18568 23.6786 21.9909
Au 6.39141 36.4751 34.3747
Pt 14.0355 19.195 26.6186
Pt 4.56767 22.9453 23.1878
Au 9.62974 10.8679 16.2354
Pt 7.23093 17.3346 28.5535
Au 15.5639 37.5101 41.806
Pt 4.75962 31.3841 27.9086
Pt 17.8341 21.6544 40.7206
Pt 16.231 29.4963 35.4886
Pt 12.4172 34.3399 27.5894
Pt 5.72029 25.2422 31.7289
Pt 14.5052 15.3323 23.6416
Au 1.96909 22.9635 24.7953
Pt 7.49701 21.9141 29.8966
Au 4.93799 14.5584 19.7399
Pt 14.855 18.7548 38.198
Pt 8.09657 31.8989 29.6605
Pt 12.3599 29.4563 34.0898
Pt 7.97146 16.2617 30.8771
Au 8.42101 37.7722 36.1392
Pt 19.0441 28.4903 44.5986
Pt 17.1742 28.6569 46.4842
Pt 4.60316 23.8238 20.541
Pt 6.8861 35.1687 24.3182
Pt 4.77899 28.6836 28.572
Pt 6.72978 29.8088 32.7234
Pt 14.0901 30.757 19.3186
Pt 15.4468 28.1404 8.12079
Pt 11.9606 31.7636 32.2737
Pt 12.308 33.1231 29.9122
Pt 9.29582 35.7315 19.2428
Pt 10.2265 29.491 23.294
Au 3.92775 24.816 24.9906
Au 2.52504 21.6798 20.036
Au 7.61979 21.7181 12.3994
Pt 4.50462 21.1329 28.3067
Pt 8.53778 21.1459 18.8069
Au 7.9294 37.1695 16.9551
Au 6.42537 32.4594 36.9786
Pt 10.4148 21.9688 32.5751
Pt 11.6833 27.0702 33.1626
Pt 9.91989 31.8444 39.8537
Au 15.7195 30.728 47.5296
Pt 13.5795 33.0279 36.9269
Pt 11.2268 35.6832 30.1018
Pt 20.5936 34.1168 37.8006
Pt 14.374 32.8392 23.5434
Pt 16.0286 28.2717 40.7192
Pt 19.0775 21.3203 43.2704
Pt 5.49082 20.45 30.8316
Pt 7.24512 23.25 17.5573
Au 4.82527 35.7773 29.9165
Au 9.24459 40.2647 25.2244
Pt 8.32214 29.6665 25.3801
Pt 6.14946 26.2373 24.3244
Au 4.73793 20.7475 36.1523
Pt 9.53847 34.9093 23.9039
Pt 10.804 27.007 24.5749
Au 1.8601 30.155 24.367
Pt 5.96787 28.7964 23.6783
Au 8.60276 22.8628 43.6733
Pt 10.3183 33.1978 20.209
Au 3.28036 29.2702 30.8191
Au 14.8157 39.6123 39.8438
Pt 13.0758 34.7865 24.9318
Pt 12.3566 36.9009 28.084
Au 19.2095 48.2344 22.5412
Pt 13.8178 36.3285 39.9523
Pt 16.681 33.025 38.7675
Pt 14.8668 38.0917 28.1772
Pt 15.413 32.9165 21.1389
Au 1.80963 25.1384 26.8121
Pt 14.9466 34.7843 9.78065
Pt 13.8392 30.2582 36.269
Pt 20.5786 42.6153 27.5707
Pt 8.46678 34.8607 26.4606
Au 16.2906 46.0123 33.1459
Pt 18.2782 33.3345 36.6642
Pt 16.5808 33.4272 11.7982
Au 27.2209 47.7182 33.615
Pt 16.3752 40.2442 17.7926
Au 6.1944 33.7638 34.5696
Pt 20.8563 37.4063 16.4323
Pt 27.0948 45.7278 21.9626
Pt 12.1872 40.4248 33.5306
Pt 23.1648 7.72474 25.3216
Pt 21.5654 8.83679 21.1412
Pt 17.6099 11.7416 16.3198
Pt 15.3898 9.00247 28.154
Au 20.1997 3.61264 21.1994
Pt 13.7548 16.1091 33.6153
Au 16.5214 4.56321 27.4837
Pt 26.761 5.40439 27.1982
Pt 12.0031 12.7105 35.66
Au 6.68766 10.3104 23.6717
Pt 18.3329 5.58877 19.4996
Pt 11.1731 9.85018 24.0899
Au 6.37255 13.7694 31.0532
Pt 18.8783 8.3156 27.4285
Pt 20.3992 9.74918 36.1696
Pt 16.7626 7.44107 26.3623
Pt 12.1351 7.46671 19.7229
Au 23.5098 1.07634 19.1931
Au 15.1016 3.73106 20.7817
Pt 17.7483 5.11788 22.1381
Pt 13.4747 14.2076 18.8835
Pt 11.64 14.8472 24.0907
Pt 19.0175 25.6359 6.58957
Au 21.878 12.7914 26.7616
Pt 7.26506 14.6919 28.5529
Au 18.5212 12.9661 18.5141
Pt 14.4406 17.4864 31.3815
Pt 14.8846 15.7083 13.5146
Au 30.2547 23.2072 24.7046
Au 20.5359 18.7008 32.0052
Au 23.9892 32.7682 26.2905
Pt 10.4672 15.4305 31.1833
Pt 11.2931 14.7057 33.634
Pt 13.1512 12.1667 30.3445
Au 24.2787 4.53218 35.4906
Pt 7.19203 24.6172 29.4384
Au 21.03 4.73694 31.0754
Pt 11.4846 21.6407 25.1393
Au 19.1395 22.9102 28.7138
Au 8.56083 10.0673 28.1262
Pt 11.33 27.911 17.0823
Au 7.84112 10.4046 21.0175
Au 2.66983 24.4329 16.245
Au 13.9752 5.36949 18.7262
Au 3.49541 17.0039 19.1387
Au 14.7302 7.33844 12.8592
Pt 14.0075 7.71417 21.5867
Pt 9.24602 23.171 21.8907
Au 14.2653 21.5474 29.0807
Pt 22.7497 6.81003 19.7637
Au 18.5077 20.5713 18.2275
Pt 13.2076 9.79267 19.9344
Pt 18.3063 9.41418 15.0708
Au 22.2445 5.60847 13.1529
Pt 13.4912 13.5118 16.0834
Au 22.9854 11.6559 17.3107
Pt 7.58323 18.0582 25.9921
Au 14.9115 20.1888 31.361
Au 26.012 28.4132 28.7604
Pt 7.73953 17.7838 15.9592
Au 10.1163 9.87991 33.0247
Au 16.7861 18.1989 26.3723
Au 12.2307 22.5325 30.5845
Pt 11.8461 17.2977 32.2973
Pt 12.0616 18.9073 24.8762
Pt 11.413 13.9557 29.2836
Au 22.8944 25.9227 35.2388
Pt 8.63442 25.1371 24.2822
Pt 16.5036 18.9726 36.0822
Au 6.61113 26.0049 12.3073
Au 11.3219 7.34086 31.4298
Pt 18.2501 19.1906 41.1953
Pt 14.9291 16.0111 8.11889
Au 4.39058 15.6337 16.9912
Pt 10.2783 19.9799 11.8173
Pt 11.4279 24.2006 13.4103
Pt 11.8826 18.6612 13.6705
Au 6.99258 12.6995 19.8147
Pt 9.8617 17.33 11.7537
Au 7.42004 11.0956 17.7178
Au 17.0244 16.5081 24.2674
Au 20.047 32.5982 29.5714
Pt 10.6505 17.7809 16.0503
Pt 4.48237 22.0497 25.7634
Pt 17.7279 24.2036 10.2353
Au 15.5196 20.5169 18.7112
Au 19.6357 13.4105 20.9371
Au 23.2844 12.4578 20.0788
Au 13.1818 26.4834 18.9713
Au 12.32 19.7071 22.1264
Au 20.5044 16.2111 16.6106
Au 16.1611 22.831 25.0853
Pt 5.62823 33.1429 29.8263
Au 21.4036 29.5009 28.3582
Pt 20.4527 15.4923 13.873
Au 17.2662 24.0957 30.5359
Pt 10.1783 18.1593 23.0474
Au 13.0203 27.5316 35.9027
Au 29.5955 15.6407 19.7828
Pt 11.2135 14.7728 26.7509
Au 29.3467 21.9135 43.2149
Au 15.0655 33.4389 28.7634
Au 17.9421 28.769 22.7319
Pt 11.3866 19.8505 34.9589
Pt 14.5189 26.1522 41.0973
Au 12.5599 33.776 44.0421
Pt 14.2667 28.3694 42.695
Au 8.82842 16.5161 40.1088
Pt 18.4824 18.1738 34.0145
Pt 17.0875 20.6136 38.2526
Au 18.5802 21.8589 48.3191
Au 12.6053 5.5894 29.7185
Pt 13.5878 31.5771 13.5439
Pt 8.42791 25.6922 17.5411
Pt 27.572 25.757 5.35281
Pt 11.2985 26.811 12.384
Au 13.6255 9.7264 12.2442
Au 21.1389 4.59557 15.687
Au 22.8681 27.7705 16.5823
Pt 15.8168 13.2055 18.0096
Au 25.2213 26.5151 17.0572
Pt 15.1788 23.7723 9.64801
Au 27.0898 25.4571 34.7729
Au 14.9644 22.6076 16.7852
Au 15.9424 28.838 29.6205
Pt 11.5171 25.0355 34.7402
Pt 6.72534 24.4254 22.327
Au 24.1626 30.198 27.377
Pt 7.09667 20.9002 25.5359
Au 38.8448 27.793 29.6712
Pt 12.0669 28.8875 29.1499
Au 13.9983 27.0769 28.4697
Au 22.1771 21.6287 21.5601
Au 18.4746 28.023 28.0895
Pt 8.74677 28.3322 37.4868
Au 13.4504 27.024 31.1259
Pt 6.57821 22.7131 27.5427
Au 14.0317 29.7507 31.489
Pt 16.955 5.32008 24.7156
Au 20.7669 25.0857 20.1127
Au 13.6239 24.586 27.3751
Pt 9.32061 16.6382 33.2345
Au 16.209 20.7776 27.1275
Au 21.1871 24.1904 36.8004
Pt 10.6444 12.3495 25.3744
Pt 7.68406 29.0236 35.1954
Pt 5.7462 27.9032 31.0178
Pt 10.7689 24.4334 43.6807
Au 9.50932 29.769 44.1008
Au 4.40699 13.8642 22.436
Pt 16.5404 27.8696 43.8926
Au 4.95466 15.6442 29.5798
Pt 11.3247 20.2979 41.7151
Pt 22.6661 24.1576 44.7898
Pt 14.8586 21.5203 12.4201
Pt 7.21789 25.2689 15.2031
Au 1.65903 27.8689 26.1826
Pt 17.495 21.8508 11.8124
Pt 7.96303 18.5857 18.5869
Pt 4.95989 28.8409 18.595
Au 9.86875 29.1241 11.773
Pt 12.8505 19.9963 7.97563
Au 26.4446 19.6413 17.132
Pt 6.77289 31.0185 18.7058
Au 11.3181 17.5425 7.49435
Pt 8.71099 31.1752 20.6503
Au 19.8847 14.1517 23.7399
Au 22.3573 32.4145 14.8308
Au 18.7437 24.2925 24.3625
Pt 9.27824 31.4123 27.1489
Au 15.8346 25.8847 32.1221
Pt 8.81252 33.3857 36.0426
Au 24.2049 34.6335 28.3379
Pt 8.18908 16.5587 23.7936
Au 23.5083 27.5458 28.257
Au 22.0777 33.6737 35.0273
Pt 19.8127 37.9051 32.4678
Au 15.5809 27.7735 23.8028
Au 25.1953 29.4236 34.5779
Au 19.3351 33.6008 34.2007
Au 18.374 30.8565 34.6835
Au 20.9415 26.7117 27.6117
Au 14.0342 30.6696 22.0098
Au 24.9918 26.8266 33.5546
Pt 12.2208 27.8121 40.7335
Au 31.3872 19.0994 36.7535
Pt 12.8665 16.4041 41.7025
Au 5.90054 15.9364 32.7073
Pt 13.5266 31.2142 43.2508
Au 14.0704 20.3216 35.9474
Au 12.0919 8.26546 33.9703
Au 5.93105 18.1878 35.5076
Au 10.3029 32.3385 43.1996
Pt 14.0253 27.2639 45.2478
Pt 12.5923 26.3803 42.9955
Pt 13.5638 18.8452 41.7598
Pt 14.7135 28.3426 11.3397
Pt 8.78953 26.994 13.5226
Pt 6.53325 27.0277 21.6072
Pt 19.3813 17.2745 12.2308
Au 8.4293 38.0389 33.3485
Pt 12.2155 21.4871 13.174
Au 14.5429 24.3521 30.0015
Pt 16.1572 37.1399 10.6078
Au 14.6915 24.6977 20.7109
Au 16.5761 38.3136 8.19859
Au 24.8885 17.9527 29.2473
Au 19.7114 28.1666 9.30613
Au 24.3915 27.1171 14.3063
Pt 10.9613 24.8122 23.1326
Pt 6.10568 16.9502 19.7608
Pt 9.37929 29.4128 18.5091
Au 17.5438 29.7483 25.3017
Au 7.1968 26.3914 41.0335
Au 25.0604 30.3052 21.7918
Au 14.7314 18.1519 24.1562
Au 7.49742 28.2659 42.9706
Pt 5.98555 31.0377 25.4866
Au 22.1611 37.9376 23.7136
Au 19.8992 34.9337 31.6469
Pt 15.2806 35.1293 32.4519
Pt 13.8818 35.4595 30.0589
Au 16.132 30.7779 27.5315
Pt 10.7401 33.2519 25.6268
Au 23.0764 22.7429 40.2192
Pt 13.8957 30.0449 40.7507
Pt 13.855 33.7467 39.4509
Au 35.0616 24.1821 39.3594
Au 7.90542 23.7984 41.0439
Au 14.5011 25.3543 48.4506
Pt 9.94906 23.8248 39.0899
Pt 17.1716 25.9822 41.6777
Pt 10.3817 29.34 39.2672
Pt 11.176 15.1666 40.0842
Au 8.05744 25.5126 43.535
Au 7.21644 20.0274 37.0112
Au 9.28069 18.4671 42.0237
Pt 20.7073 21.603 41.2522
Pt 16.1286 32.2943 9.52331
Pt 13.9896 18.0895 9.49356
Pt 5.56593 18.4544 21.871
Au 11.2286 13.2313 9.76306
Au 5.74152 34.9634 21.2871
Pt 11.4025 30.9773 21.2822
Au 9.07004 34.4563 12.4696
Pt 13.7709 28.7511 17.5096
Au 3.10494 26.7942 17.5156
Pt 8.09249 26.4622 31.2307
Au 4.21868 28.7631 15.9442
Pt 11.7814 36.476 23.5042
Au 12.8812 28.7017 23.6609
Au 4.98006 33.4138 18.8002
Au 3.02122 19.0461 20.966
Au 9.97494 39.691 34.9362
Pt 9.18932 32.0452 18.0589
Pt 5.03747 20.2572 23.795
Au 4.26268 28.6372 33.3011
Pt 6.65761 24.5455 34.1802
Au 20.3261 35.7802 23.2221
Au 4.133 35.1746 23.4316
Au 4.7131 33.6319 25.8552
Au 9.81727 41.3146 29.8209
Pt 7.14747 27.3627 28.753
Pt 14.4721 41.4702 34.4622
Au 11.6988 35.5173 41.8468
Pt 11.5863 34.5896 35.1962
Pt 15.6658 37.2789 33.9096
Au 11.1827 38.294 37.0769
Pt 13.9181 26.4916 38.3965
Pt 22.3757 38.0746 33.9777
Au 8.45304 30.7826 41.8203
Au 5.2926 25.0132 36.4968
Au 20.9996 38.0056 43.7666
Pt 26.4838 40.6218 39.8823
Pt 5.44672 18.0529 17.334
Pt 12.1256 23.0103 15.763
Pt 9.83266 21.7075 14.208
Au 12.828 15.4434 6.62238
Pt 16.3454 29.0668 5.43606
Au 14.9024 31.5129 16.0279
Pt 8.0526 36.2992 21.8693
Au 9.36284 33.9915 41.3642
Pt 8.33262 29.8788 14.2507
Pt 18.4832 41.1614 15.9619
Pt 5.78583 30.5218 30.3241
Pt 10.8537 26.0119 15.1595
Pt 9.93447 33.7484 28.4155
Pt 6.97837 32.8229 27.4395
Pt 14.4018 40.8542 27.1801
Au 2.8091 32.7582 23.9893
Au 21.497 31.4109 26.4161
Au 12.2786 5.73426 26.8819
Pt 8.03135 32.6799 24.9929
Au 11.5852 31.2658 45.3199
Pt 16.3694 35.8837 28.9259
Pt 18.1401 25.7855 44.2305
Pt 13.8749 36.0555 35.4165
Pt 19.1625 40.2552 36.4038
Pt 11.878 31.6408 27.414
Pt 10.4713 18.0327 30.1464
Pt 15.8216 28.7932 38.1572
Au 13.8879 44.6873 32.4387
Pt 6.46934 25.4638 26.9334
Pt 6.50026 20.5587 17.0427
Pt 18.5007 28.4883 6.96234
Pt 13.5856 32.9946 17.8108
Au 6.00104 34.1291 16.3597
Au 6.10589 37.5166 23.4569
Au 4.31108 30.7125 23.0317
Au 22.3425 34.4913 12.7975
Pt 12.0604 35.3269 19.3261
Au 9.24846 40.5379 20.0285
Pt 12.3251 31.4536 39.0221
Au 6.31955 37.1217 31.7162
Pt 24.9847 45.8885 20.4224
Pt 20.7634 45.0199 26.4965
Pt 10.695 36.5715 17.1504
Au 13.8563 30.9594 29.1177
Au 9.69516 40.8739 32.5085
Pt 10.9268 32.7952 37.2829
Au 8.42303 33.8701 38.7457
Pt 10.2459 27.1082 43.8003
Pt 8.55195 34.4741 16.9631
Pt 22.789 41.6666 26.1693
Pt 26.8163 45.2659 16.556
Pt 14.5866 39.7537 24.7085
Pt 12.2032 28.6032 10.3693
Pt 17.7029 44.9059 31.2015
Pt 20.1067 38.3756 29.8197
Pt 15.9294 9.45957 21.0107
Pt 23.2935 12.7155 31.3145
Au 12.4384 7.05234 17.1184
Pt 18.2756 6.24093 33.7596
Pt 13.5177 10.2756 22.5253
Pt 24.5674 8.22049 30.9151
Au 27.8641 2.54764 17.7111
Pt 20.2934 6.28507 21.2133
Au 30.9795 2.71712 24.5122
Pt 20.0055 6.44548 29.2992
Pt 19.2957 14.4 36.2488
Pt 12.8598 9.95499 28.7406
Pt 29.4245 15.4268 29.6539
Au 29.106 0.985815 23.0057
Pt 23.9024 8.70922 33.5161
Pt 16.7775 13.4792 27.9565
Pt 9.09653 21.5189 27.3798
Pt 10.9391 10.0351 26.8619
Au 21.5119 4.58707 35.6761
Pt 21.5966 7.68695 27.5722
Pt 12.1761 9.87284 31.2589
Au 6.32286 10.7263 26.5425
Au 11.2064 10.3717 38.6395
Pt 9.67037 16.005 28.544
Pt 18.5542 12.488 25.6673
Pt 23.681 9.23341 15.9893
Pt 31.0246 9.73312 21.602
Pt 7.14605 13.114 22.5398
Pt 28.2766 6.87861 25.3064
Pt 12.5711 16.988 22.7917
Au 15.6828 8.64302 10.4891
Pt 24.1058 11.6741 22.7795
Au 13.1982 19.1358 19.5921
Pt 23.5939 5.34006 24.2391
Pt 20.1098 8.0366 19.2008
Au 31.6046 1.55717 22.0763
Pt 9.131 11.3999 23.2681
Au 28.988 12.9712 24.2861
Pt 13.344 8.20626 24.0908
Au 18.7077 20.0996 27.9434
Pt 12.8299 15.2273 36.0118
Pt 27.4868 9.35381 24.5432
Au 19.413 15.6637 19.1819
Au 23.34 27.6339 39.1238
Au 13.9943 22.9738 35.2519
Au 27.6817 21.555 40.5532
Au 15.9262 17.0753 21.8039
Au 25.378 4.05318 33.009
Au 8.3976 11.4444 31.5736
Au 13.6555 6.30284 32.3873
Pt 16.7991 10.5207 34.8556
Pt 11.4713 14.0266 37.8572
Pt 6.24555 20.5781 34.1056
Pt 15.7646 16.2093 37.7636
Pt 14.6143 16.9213 27.8364
Au 10.2415 15.9429 42.4526
Pt 13.0901 19.6393 11.4777
Pt 15.525 19.7231 7.96923
Pt 24.0369 16.2844 5.68945
Pt 22.5028 11.2066 14.5161
Au 7.51569 16.8648 13.3504
Au 17.5411 12.5989 7.22003
Pt 7.16063 21.8364 22.9877
Au 7.62139 19.0646 11.6826
Pt 16.0968 13.657 12.2304
Pt 13.4325 14.0289 11.4018
Au 22.7081 17.9346 17.1517
Pt 28.1851 12.5585 17.862
Au 26.591 14.503 16.0739
Pt 9.62814 11.3083 19.1643
Au 24.5171 19.8879 22.2638
Au 32.4552 14.8345 20.4217
Pt 18.1552 11.641 29.786
Pt 20.8862 6.37055 33.3563
Pt 18.8747 9.98018 17.7959
Au 26.3163 19.5541 19.9808
Pt 4.24104 24.0303 27.5557
Au 23.625 22.3196 26.8625
Au 26.7555 21.5941 21.926
Au 11.3254 17.2078 35.0799
Pt 15.0396 5.60679 22.8984
Au 16.101 17.4027 15.35
Au 27.6809 17.3709 18.0043
Au 9.69515 12.2337 34.3217
Au 2.59965 16.9691 29.1441
Au 20.7057 23.6513 31.3562
Au 16.8632 24.5386 34.4798
Pt 14.2904 9.72763 35.2979
Au 4.5446 18.4667 33.219
Pt 12.6094 16.3564 29.6547
Au 21.7313 21.7734 38.194
Pt 10.4522 22.875 41.5447
Pt 17.7033 16.5579 41.1639
Pt 15.2448 11.6727 32.8808
Pt 10.5082 16.6447 37.7366
Pt 9.3024 12.8679 27.6168
Pt 16.4497 8.83517 16.7072
Pt 12.848 21.154 17.8203
Pt 13.119 8.40144 26.6899
Pt 14.6354 22.4917 7.18677
Pt 16.7124 17.5046 12.3353
Au 21.7965 31.1009 12.5068
Pt 15.8225 24.0779 12.214
Pt 17.1728 8.98509 12.6634
Pt 19.3937 16.5962 6.89912
Pt 24.3305 22.6681 9.31556
Pt 15.0175 16.0713 10.9054
Pt 13.7431 25.8238 12.6649
Au 26.9346 22.1772 9.04276
Au 18.405 25.6709 16.1648
Au 21.3873 13.862 18.4079
Au 20.2348 35.1386 8.4828
Au 17.9201 18.0543 20.086
Au 17.0305 21.4177 29.8648
Pt 18.0542 7.73053 21.6211
Pt 5.76044 17.8481 30.8671
Pt 18.6211 10.1963 20.5653
Pt 18.659 11.705 22.9749
Au 17.7285 33.3043 28.1724
Au 22.2203 30.8511 23.8677
Pt 8.30594 17.5022 21.1856
Au 22.343 16.2896 19.4216
Pt 24.0224 20.0625 38.0526
Au 19.694 28.7547 32.8084
Pt 11.0187 12.6367 31.9196
Pt 14.5507 11.9866 20.5412
Pt 14.5294 24.0291 39.5809
Au 13.818 16.4904 20.3213
Pt 11.9738 22.0072 43.5897
Pt 13.0285 23.9988 42.0302
Pt 6.89344 22.5721 35.9845
Au 23.3222 22.3574 31.4305
Au 3.07889 18.2908 23.7429
Pt 22.7898 20.1383 42.2799
Au 13.7955 11.447 41.7914
Pt 11.2012 18.0247 40.0596
Pt 13.6463 13.4792 33.7699
Au 14.0194 6.82696 35.1192
Pt 6.35291 29.5426 20.9256
Au 15.9872 22.2935 4.51874
Pt 19.8275 11.3784 14.0373
Au 13.263 13.2637 8.15237
Au 10.6384 14.6864 11.812
Au 21.0946 29.3233 18.623
Au 29.8083 19.514 3.07146
Au 26.8657 6.54265 11.53
Au 22.4482 16.4963 12.1914
Au 30.5267 28.8879 12.9669
Au 27.4167 28.2654 17.658
Pt 13.9689 23.5217 14.0681
Au 30.4711 28.2188 32.6795
Au 16.8799 31.3924 22.9239
Pt 10.0676 38.0705 21.623
Pt 11.9026 25.1716 29.5964
Pt 7.10861 30.0267 27.9712
Au 23.1763 30.4866 17.1781
Au 16.6672 22.284 14.4123
Au 29.6511 14.8758 13.9319
Au 16.5342 26.1407 28.8905
Au 17.6803 23.1095 17.0957
Au 23.3417 28.1826 8.28096
Au 16.8566 29.8152 32.4865
Au 12.2816 31.2928 24.462
Pt 14.5452 39.4322 32.5831
Pt 12.2042 12.2368 27.5248
Au 4.39674 23.0316 34.7428
Au 12.4298 24.2587 37.3068
Pt 4.98819 23.2126 29.9898
Au 21.8184 13.8888 15.5984
Au 3.3245 23.7938 32.1868
Au 18.1789 18.6525 22.7186
Pt 9.76937 25.0479 36.687
Au 26.7009 19.7103 38.1622
Au 31.4811 19.6735 34.0279
Au 29.8782 24.7897 44.9593
Pt 20.8547 27.7402 40.2796
Pt 4.73411 18.4101 28.5783
Au 33.8703 33.5152 36.3938
Au 23.1624 30.731 49.3705
Pt 19.7983 23.2496 39.3578
Pt 22.6164 20.072 6.86187
Pt 17.4022 15.2045 8.24934
Au 6.21722 15.0067 15.0464
Pt 20.2972 29.2315 4.79023
Au 18.0953 26.9708 24.8947
Au 19.7794 33.9793 6.06883
Au 17.5449 29.4207 15.2498
Pt 8.94032 20.1421 16.307
Au 20.5228 28.9007 15.728
Au 18.2335 24.5002 13.3991
Au 20.7655 23.7893 22.4459
Pt 16.9493 21.7136 9.25096
Pt 7.69864 31.603 34.5025
Pt 14.5559 31.0461 33.7937
Au 23.9302 39.4002 13.6624
Au 11.2868 27.3114 21.8005
Pt 10.2399 27.7029 35.3715
Au 16.7257 31.4945 30.1982
Au 18.3731 24.9215 36.9648
Au 18.2196 26.7851 11.3342
Au 19.0844 22.1185 37.0403
Pt 18.7923 30.8001 42.9187
Au 23.3642 27.8626 31.1603
Au 21.0535 18.9911 34.6485
Au 18.2848 27.7512 36.6913
Pt 18.4823 42.8157 37.194
Au 20.6898 27.7667 30.3574
Au 20.8266 23.7946 26.5978
Pt 12.5687 34.3228 32.3773
Pt 12.3248 22.6172 39.6734
Au 30.0984 26.4241 47.2672
Pt 16.4337 42.1489 35.9266
Au 15.395 24.3742 37.0375
Au 10.4826 22.6865 45.7988
Au 27.7171 32.7273 34.2794
Au 11.5967 19.9338 45.8272
Au 32.2896 24.4728 43.6206
Pt 16.914 35.2578 42.9013
Pt 25.444 22.9923 44.7163
Au 41.6578 29.3165 41.9735
Pt 14.0095 21.5497 41.5267
Pt 22.1884 35.8554 36.8338
Pt 12.6589 16.7693 11.9901
Pt 17.5846 26.4666 8.70437
Pt 17.2723 24.8716 4.51848
Au 13.3291 40.5589 12.0573
Pt 12.6234 23.7096 8.77356
Au 4.58557 25.7223 14.9685
Au 16.1036 19.3111 5.01807
Pt 14.2118 21.4169 9.7255
Pt 12.2104 40.5053 25.7009
Au 13.8087 21.9184 20.438
Pt 13.0368 26.0544 10.1388
Au 5.75431 30.6006 14.3347
Pt 4.90013 21.1772 21.2985
Pt 4.92395 24.5649 17.8026
Pt 9.8537 32.0572 23.2605
Pt 12.1359 32.6658 15.474
Au 20.4247 18.2074 18.8749
Au 24.0023 28.734 19.2012
Au 22.2905 30.2484 21.157
Au 11.219 24.5051 25.7502
Au 18.3471 36.2844 16.3722
Au 15.9937 28.063 26.7518
Pt 12.1587 28.9399 44.06
Pt 20.5711 44.7369 19.7243
Au 18.9739 27.9778 20.1449
Pt 22.006 37.1049 31.2953
Au 22.0558 39.0323 18.4035
Au 11.547 41.5552 18.6318
Au 29.0801 22.4528 28.6593
Au 28.9915 26.6051 40.1081
Au 26.4051 38.4477 30.4942
Pt 22.1208 45.3576 28.7634
Au 18.7642 25.3241 32.547
Au 20.8319 35.9485 34.1216
Au 26.2532 23.3515 41.9645
Pt 9.81747 33.524 31.0781
Pt 22.5319 34.9291 39.5623
Au 31.776 31.854 46.7963
Pt 20.4127 40.0272 33.834
Au 14.4531 22.1835 48.2809
Pt 21.3725 31.4006 47.423
Pt 15.7907 32.7502 43.7112
Au 15.314 16.161 5.19028
Pt 13.8656 33.378 11.6484
Au 17.0588 34.45 5.44901
Pt 17.3362 35.1218 8.97361
Au 5.92036 37.6398 20.7451
Au 17.4171 45.3539 16.2467
Au 6.59627 19.797 14.2774
Au 25.1907 20.3259 2.20202
Pt 10.1688 22.5752 11.6757
Au 12.5028 37.467 15.0905
Pt 10.0186 30.4818 16.1577
Au 4.77406 31.3494 16.8857
Au 4.90382 22.7805 15.7653
Pt 10.0736 26.8622 19.3065
Au 21.933 33.6731 24.5768
Pt 12.2454 31.2242 11.1316
Pt 4.06376 28.3898 21.546
Au 8.10652 39.3523 30.8276
Au 2.3574 28.6148 19.5555
Au 20.0157 28.8299 25.8872
Pt 10.5344 27.1944 30.6851
Au 16.1636 44.4305 37.4897
Au 5.10183 34.4818 32.2113
Au 19.0098 31.8428 32.0052
Au 18.5285 21.7548 23.0472
Au 13.5373 29.3821 26.7963
Pt 12.0089 25.3174 39.9005
Au 18.9621 30.936 27.4482
Pt 8.23649 29.1787 30.468
Au 20.0707 38.8748 40.8454
Au 17.6661 29.1542 49.072
Au 21.4281 26.1922 32.5504
Pt 23.5374 38.2235 37.1116
Au 22.5067 39.4739 41.8906
Pt 26.1882 37.4415 36.4571
Pt 15.2961 25.427 43.6703
Pt 18.0618 35.3936 38.4652
Pt 25.2309 35.9798 44.5049
Pt 18.8109 23.7974 41.8206
Pt 12.8829 20.0093 39.5089
Au 25.467 37.9871 46.1592
Pt 26.3318 29.9538 42.7823
Au 11.5539 39.3832 13.5823
Au 11.7576 39.6774 16.593
Pt 14.7729 33.7264 14.375
Au 17.7286 17.2323 4.23661
Pt 8.77325 27.7721 16.145
Au 6.29201 27.8432 14.4056
Au 3.8685 29.5752 26.0317
Au 14.9053 44.471 35.0196
Pt 13.668 41.8205 20.6547
Au 5.98452 32.1423 21.0488
Au 6.39505 26.9876 38.324
Pt 5.96297 26.8285 17.061
Au 18.1896 23.0981 2.61746
Au 19.921 34.7834 20.5104
Au 23.6295 32.6336 22.3309
Au 21.8482 27.8867 13.337
Pt 18.1317 37.6138 27.9725
Au 3.22553 31.9033 30.0958
Au 2.34663 27.1899 28.875
Pt 18.2416 42.4948 23.7067
Pt 12.0739 31.9778 34.9519
Pt 16.552 41.2101 31.4725
Au 22.4606 46.1153 35.7592
Pt 24.865 39.2666 22.4227
Au 14.9466 46.428 22.9026
Pt 19.5424 44.9386 29.0038
Au 13.4716 36.7321 43.529
Au 27.5471 35.6825 34.5897
Au 22.9658 44.2971 37.819
Pt 19.046 40.5482 28.5838
Pt 19.0228 35.9079 36.1429
Pt 11.2085 34.2533 39.4761
Pt 17.0574 39.206 29.7367
Pt 7.64149 26.3737 35.9581
Pt 20.1364 32.8521 41.9924
Au 32.013 46.2422 35.4378
Pt 16.5899 31.6493 13.7456
Au 7.5539 28.915 39.9619
Pt 13.2449 27.4247 14.7469
Pt 12.8264 27.7748 8.02787
Pt 7.42674 31.8733 16.1712
Pt 9.1278 22.6022 24.7372
Pt 9.4335 32.8486 14.8538
Au 31.826 30.1818 26.1151
Pt 17.6103 40.3937 13.5359
Au 7.06933 35.3305 36.778
Pt 25.1589 39.7522 25.3617
Pt 10.8598 31.0015 13.556
Pt 7.69931 34.7281 29.7095
Au 8.50352 39.5597 27.9457
Pt 22.2874 39.5833 21.389
Au 13.0722 44.71 29.8341
Pt 24.5799 42.8831 33.2213
Au 4.54108 31.594 32.5417
Au 9.87568 35.753 37.3638
Au 19.0953 46.9823 20.0952
Au 30.3241 49.9105 26.8961
Au 8.23478 27.4619 45.4343
Pt 13.1501 36.9106 32.8837
Au 5.27768 30.5888 35.0614
Pt 23.2478 40.6624 33.5622
Pt 13.1111 28.9664 38.4892
Au 12.8282 17.4207 46.2024
Au 24.9751 46.9531 35.2926
Au 4.82011 36.5175 25.5928
Au 11.1644 42.7918 21.1844
Pt 11.0064 33.8126 17.4985
Pt 34.1962 43.3085 17.8022
Pt 11.6652 38.998 23.6668
Au 29.5722 47.155 22.1847
Pt 25.4204 42.4363 26.2609
Pt 29.8887 45.0431 20.4422
Pt 18.2524 46.2653 26.7632
Pt 24.5797 46.2118 28.3759
Au 12.8518 38.3078 41.3457
Au 16.2933 3.00191 23.2108
Pt 25.1103 9.94467 18.2694
Pt 31.6862 5.23121 19.1373
Au 33.3026 6.51832 15.0902
Au 11.3001 7.50802 22.3221
Pt 18.8097 10.7698 11.5381
Au 19.4743 6.11391 12.5765
Au 13.9623 3.94181 28.0464
Pt 24.8556 5.24083 19.599
Pt 8.9609 13.5778 30.1983
Pt 20.7545 11.3101 24.7233
Pt 20.5731 8.6166 25.3918
Pt 11.7097 12.3414 22.9675
Pt 31.7946 9.4309 31.525
Pt 16.2111 10.8158 23.2032
Pt 25.4356 5.1213 22.1906
Au 17.6864 2.96771 25.6515
Au 10.7669 7.54976 25.374
Pt 21.742 8.09666 37.6479
Pt 19.4796 13.1903 28.1188
Pt 13.4449 13.6056 25.5842
Pt 22.0156 14.8501 32.1126
Pt 28.0483 5.40424 22.9085
Pt 18.9579 7.69152 31.5388
Pt 22.7918 13.1981 39.4415
Pt 26.4882 6.23665 31.8976
Pt 19.6188 4.92537 24.0101
Pt 17.3259 10.7647 27.4248
Pt 15.658 12.8615 30.3344
Au 20.278 3.21282 26.2398
Pt 15.6582 15.0596 26.1483
Pt 16.8869 13.5378 37.477
Pt 16.7052 17.602 9.54794
Au 18.9891 2.44574 23.325
Pt 26.8934 5.20389 17.9826
Au 16.3937 6.15236 17.4563
Pt 17.416 8.15742 19.1202
Pt 21.8252 7.29468 17.0457
Pt 25.0544 10.3823 13.9451
Au 11.6615 12.0878 12.4389
Pt 22.503 8.47522 13.6976
Au 36.1038 8.03061 20.3641
Pt 15.3141 9.45857 14.3644
Au 8.60465 21.0946 9.87361
Au 25.9808 21.247 24.7987
Pt 17.6989 15.3353 10.9321
Pt 25.1864 7.75173 13.5369
Pt 22.5623 9.23897 18.5376
Au 30.4559 14.3523 22.2506
Au 18.2462 15.6062 21.8317
Au 26.7492 15.1997 28.6712
Au 36.2276 21.0646 32.354
Au 24.4542 22.6956 22.9613
Au 28.6764 1.65368 25.6597
Au 20.4936 25.7052 12.3129
Au 11.4881 22.8764 27.917
Pt 17.856 14.4768 30.2983
Pt 14.2155 17.4819 35.9163
Au 23.258 19.5583 31.6008
Pt 8.78048 18.286 35.226
Au 27.6182 22.7007 34.456
Au 32.6642 17.2646 34.5789
Au 28.9249 24.1945 41.7884
Au 9.69069 14.8017 35.7623
Pt 15.1706 17.0827 40.3002
Pt 14.6474 21.7238 38.31
Pt 21.0416 12.3782 36.0631
Pt 13.3351 18.9299 29.2886
Au 16.6908 33.2152 46.4148
Pt 19.7599 29.1071 47.1494
Au 11.1152 10.1516 35.7701
Pt 24.7765 14.772 35.8623
Au 13.8923 18.0121 6.47601
Pt 12.6297 14.3735 21.5774
Pt 10.3869 22.1882 17.4247
Au 23.6734 3.68533 15.1789
Au 22.4216 16.6727 3.31953
Au 14.7081 3.75026 25.4172
Pt 15.7907 19.6424 10.9148
Pt 21.6994 15.4353 6.82911
Au 10.1912 20.1726 7.81869
Pt 7.4788 22.2976 15.0966
Au 26.7206 19.2252 14.3104
Pt 15.4871 13.7734 9.59102
Pt 24.0399 9.35224 11.6202
Pt 14.7476 7.98294 18.8207
Au 16.6629 15.404 19.3646
Pt 16.0637 13.8158 15.0951
Au 24.9447 22.2309 16.597
Au 24.203 26.3918 11.5476
Au 34.1438 23.4415 31.2162
Au 24.6396 23.4483 11.985
Au 35.9522 17.0454 35.6713
Au 17.328 16.3295 28.3385
Au 34.3382 32.0946 20.2378
Pt 9.98721 19.5409 20.5652
Pt 21.3305 21.4328 35.5851
Pt 13.1791 14.556 31.4285
Pt 23.5387 21.3171 33.9279
Pt 26.0085 28.0088 23.1642
Au 21.9497 22.7548 28.9976
Au 19.7488 16.9782 24.2624
Pt 13.1548 16.4202 25.6652
Pt 19.0316 19.1972 36.6636
Pt 12.1004 19.8526 31.3918
Au 15.9644 20.4561 33.829
Au 24.896 17.4539 18.8446
Au 27.656 24.7844 29.3563
Au 19.063 18.1581 29.7736
Pt 17.9408 8.78144 36.6144
Au 12.2684 23.9559 47.6323
Au 22.1734 14.1779 29.2085
Pt 20.39 16.3427 34.4868
Au 22.1686 34.1873 46.8506
Pt 8.74764 24.3325 13.1867
Pt 23.1793 20.2035 9.33093
Au 13.7652 20.6071 5.48003
Pt 20.6115 12.4184 10.4193
Au 22.1649 28.7325 2.53659
Au 14.28 28.1037 21.0984
Pt 16.8803 17.5493 6.909
Pt 14.1457 20.8432 14.9231
Pt 16.7942 24.0483 7.40694
Au 19.8988 23.1229 11.448
Pt 20.9027 9.44837 15.8776
Pt 11.3214 15.0435 16.5267
Pt 18.2766 19.4686 8.33479
Au 25.5846 23.1715 1.94097
Au 23.0031 16.3674 14.9253
Au 26.9816 22.0773 18.7256
Au 21.8282 30.2341 9.83701
Au 14.233 25.5526 34.4681
Pt 12.5515 14.453 13.8421
Au 22.4443 23.1638 18.8371
Au 27.8065 21.6098 15.8624
Au 33.0354 29.2922 17.5372
Au 20.4276 29.0015 35.594
Au 16.0929 25.0342 23.3887
Pt 24.0567 15.4203 25.2495
Pt 22.5168 17.4453 41.4946
Pt 25.3649 19.4295 33.5578
Au 26.0097 30.5007 18.2896
Au 35.3727 25.0949 29.2403
Au 28.2228 30.7236 36.0948
Au 16.8706 32.5689 25.4954
Au 20.8438 11.1679 19.3551
Pt 11.2618 27.0626 37.8658
Pt 15.5277 15.5454 42.6406
Pt 13.3565 11.2505 37.3581
Pt 22.8272 29.7075 40.9268
Pt 13.144 16.3424 38.7047
Pt 17.3458 13.1548 34.7691
Pt 18.5913 15.468 38.6313