3871
Atoms. Timestep: 21228
Au 12.0391 11.2265 17.6532
Pt 23.0546 9.84352 26.2936
Pt 24.2509 10.6857 34.6153
Pt 22.8785 8.22079 34.6247
Pt 10.1626 23.3793 23.1766
Pt 18.0125 9.02325 29.9503
Au 37.0838 2.66663 24.9603
Pt 9.67644 21.6297 31.3489
Pt 13.3138 16.3777 25.4722
Pt 13.4717 14.8807 36.3413
Au 4.66702 28.7277 17.4747
Pt 9.22519 17.4328 29.0934
Au 6.16361 14.5967 16.5792
Pt 17.8061 6.69369 28.2752
Pt 5.73003 15.7806 26.5286
Pt 18.2739 10.4626 27.7616
Pt 11.584 12.757 30.1332
Au 12.4931 12.2099 41.8189
Pt 11.64 12.0114 25.6992
Au 7.98368 17.2466 39.7149
Pt 12.5483 12.3394 32.8116
Au 7.43846 22.0997 38.2965
Pt 14.1036 8.88306 21.6755
Au 3.84973 18.1878 23.4745
Pt 13.8548 20.1859 17.7711
Au 4.69895 24.4474 15.7321
Pt 13.0027 11.6429 20.7737
Pt 17.7031 6.31169 19.1011
Pt 9.14571 22.5115 16.4767
Pt 11.4317 15.9032 18.1502
Pt 7.64933 24.6419 23.2416
Au 26.4192 4.25254 14.4768
Pt 4.83352 23.5589 31.822
Pt 16.3085 12.4044 14.9176
Pt 7.23182 20.7004 17.8272
Au 4.49491 15.5541 36.1195
Pt 8.14822 14.7382 27.4668
Au 7.53139 9.52982 28.92
Pt 13.0348 21.0897 25.3784
Au 3.98218 19.7005 21.1395
Pt 11.295 25.3986 29.5172
Pt 5.50512 35.8948 26.269
Pt 7.16971 24.3203 25.9493
Au 2.41884 24.9933 25.6808
Pt 9.44384 20.1059 29.3682
Pt 7.89012 15.6921 24.6682
Pt 11.9572 17.4153 28.0894
Au 3.31719 22.4797 20.8724
Pt 11.4835 9.75748 21.9277
Au 2.58695 19.3537 25.7583
Pt 20.0319 22.835 6.32625
Pt 11.4112 14.008 20.9854
Pt 12.5322 21.1289 13.7928
Au 2.73388 24.7095 33.3513
Pt 10.6772 19.456 20.7662
Pt 8.89687 26.6656 29.6986
Pt 5.49567 21.3961 33.5496
Au 3.76902 20.9043 18.6231
Au 24.3792 40.6135 9.04056
Pt 10.2098 22.0764 20.8952
Au 3.73374 17.2955 34.137
Pt 5.743 19.1618 19.3068
Pt 9.10202 30.0827 23.2306
Pt 8.69559 13.0579 20.6712
Pt 11.3219 16.6974 21.0654
Pt 7.52285 19.9841 25.5529
Pt 10.5232 11.2747 19.968
Au 6.3258 10.6783 23.7861
Au 5.76213 23.8372 36.9984
Pt 7.00607 15.8248 22.0651
Au 15.8171 25.0865 32.4688
Pt 11.053 14.785 37.6574
Pt 8.84893 27.0703 22.6464
Pt 9.21005 16.0662 31.354
Au 4.70485 16.8827 20.8888
Au 5.48609 13.5956 28.2116
Au 5.07254 14.2373 30.7754
Pt 13.4719 21.8713 31.3154
Pt 12.572 13.8329 39.6178
Au 9.20418 12.8395 36.5426
Au 3.91946 16.0291 28.6153
Pt 10.9014 27.9369 10.1245
Au 12.2907 25.9851 5.97677
Pt 18.3686 25.0924 6.295
Pt 7.17521 29.3837 19.0634
Pt 9.02442 18.1057 24.5158
Pt 17.1679 11.1489 17.4012
Au 2.76312 26.6782 23.3794
Pt 15.2436 7.69605 23.8282
Au 3.21312 16.7126 25.9146
Pt 10.3512 15.0252 29.2073
Pt 5.7523 20.771 30.9749
Pt 14.3953 12.3174 12.9101
Pt 5.96558 32.5297 30.5222
Au 3.34056 19.2785 32.0603
Pt 5.97516 20.9808 22.729
Pt 6.99682 24.5452 28.5653
Pt 9.62567 24.431 27.6931
Pt 6.25246 30.9662 34.9654
Pt 7.34443 22.7754 32.1189
Pt 9.0778 24.1016 30.4225
Au 33.0733 33.0302 31.0777
Pt 5.33468 23.6982 22.1553
Pt 8.74468 20.2335 22.8091
Pt 5.85824 29.9786 29.7217
Pt 15.3277 34.3792 31.7892
Pt 4.58577 24.0301 26.9832
Pt 11.4645 31.0602 31.3321
Au 11.0426 26.6793 42.9553
Pt 14.0773 8.51203 35.0337
Au 18.5191 24.2095 22.2183
Pt 11.2484 16.874 35.953
Au 2.91766 27.6707 26.1509
Au 15.0586 28.1423 46.7952
Pt 11.4262 31.0033 34.0569
Pt 18.8077 24.0787 40.9121
Pt 12.8673 8.42332 30.6679
Pt 13.4424 17.5877 37.3479
Pt 22.3088 24.3326 47.3029
Au 17.1667 30.4542 48.232
Au 7.45917 12.6399 18.2264
Pt 8.08343 20.0441 20.2793
Pt 11.7175 31.3508 14.3309
Pt 12.2081 32.3729 11.929
Pt 12.8626 23.5465 23.709
Pt 6.48969 24.6647 20.0273
Au 6.09823 34.9218 18.79
Au 2.73428 28.2003 19.6761
Au 7.68986 11.4878 34.798
Pt 4.97545 34.2842 23.2906
Pt 8.5547 33.8737 22.3495
Pt 6.81062 28.9362 22.0755
Pt 12.9115 13.5304 18.997
Pt 8.56805 25.306 18.177
Pt 7.32438 34.4882 24.4913
Pt 5.3556 27.8564 31.1007
Pt 10.4262 26.8889 39.1338
Pt 5.95814 33.2391 21.1035
Pt 5.41706 28.77 33.5083
Pt 13.3371 32.6764 32.9492
Au 2.4372 30.4706 21.2542
Pt 8.48723 24.8387 33.1825
Pt 5.36819 31.8291 27.8946
Pt 8.11383 24.8792 35.8267
Au 2.84803 30.6353 18.4934
Au 11.0539 19.9429 41.9974
Pt 16.1174 26.7575 44.5915
Pt 7.76883 27.5029 32.3099
Pt 4.93224 18.611 29.7737
Au 3.80871 22.8867 35.181
Au 7.95237 40.1226 34.0996
Pt 11.6817 20.8625 32.9148
Au 9.60524 9.44419 34.2193
Pt 16.4109 34.0319 41.594
Pt 8.68302 18.0409 36.4031
Pt 15.4915 20.0047 31.2925
Pt 6.70304 26.75 34.7703
Pt 18.7929 26.7228 40.7913
Pt 12.3857 33.8846 36.9414
Pt 20.5902 27.9517 42.4112
Pt 14.1479 32.5105 38.2251
Pt 25.6107 13.0138 38.5269
Pt 19.2277 23.8642 8.58007
Au 8.75534 24.1679 9.4721
Au 2.68912 29.5899 23.9813
Pt 13.122 16.8473 13.2717
Pt 10.8556 29.9592 12.1666
Au 6.6454 16.4567 37.5048
Pt 13.4693 19.1276 15.1993
Pt 10.8155 26.985 20.8751
Au 4.36606 31.5527 32.4069
Pt 11.9174 21.2497 22.7447
Pt 6.58371 27.5119 28.9156
Pt 9.81246 35.2663 28.0987
Au 3.19756 21.0425 23.2954
Au 3.63163 19.9924 34.7356
Au 5.19356 40.2317 30.2156
Pt 15.7573 15.8779 21.4381
Pt 5.3031 22.7479 24.6105
Au 9.29573 8.42331 20.9923
Pt 6.47824 16.6985 34.7962
Au 26.3116 42.9939 42.9198
Pt 11.3096 23.5819 31.8237
Pt 11.6408 21.6377 35.498
Pt 14.2201 29.7593 41.5947
Pt 8.76017 34.9709 34.4752
Pt 4.95358 26.0795 32.8639
Pt 15.4706 9.11068 30.7646
Au 3.64583 25.5486 20.8122
Pt 6.85167 19.5098 35.1646
Au 2.47544 25.7849 28.283
Pt 14.3992 20.5489 33.7935
Pt 11.0181 35.2278 30.5832
Pt 10.491 29.0086 35.6769
Pt 12.427 26.5822 35.3017
Au 11.5959 35.3661 41.2453
Pt 25.9811 22.8904 42.1534
Pt 20.4313 25.1843 38.9902
Pt 5.37266 27.4977 19.7709
Pt 6.13081 38.4843 26.1603
Pt 9.58079 29.4761 32.5983
Pt 6.66781 33.0751 33.1251
Pt 8.15587 26.5899 27.07
Pt 13.2775 24.3371 8.02838
Pt 13.8433 35.9465 30.1538
Pt 4.95662 28.1138 24.4159
Pt 9.35111 37.9638 27.9308
Pt 5.00113 30.7827 25.0991
Au 2.48906 23.9332 30.6471
Au 2.85901 23.8588 23.2242
Au 5.35819 22.4749 13.6933
Pt 11.1689 22.5934 29.255
Pt 5.59203 29.1731 27.0673
Au 10.2455 38.5783 12.493
Au 6.13251 26.4989 37.5121
Pt 14.6536 25.7567 40.4591
Pt 16.3756 35.7704 29.4448
Pt 22.3448 38.7352 42.5266
Au 21.9422 25.0551 49.8802
Pt 16.2612 31.722 36.6713
Pt 9.82633 32.6298 27.0737
Pt 11.4914 35.4541 34.835
Pt 7.55471 34.1105 27.0336
Pt 13.1199 29.2464 35.2396
Pt 24.633 28.9338 43.0933
Pt 12.049 19.013 39.6108
Pt 11.3805 33.8561 20.3529
Au 5.75528 40.9245 27.2494
Au 8.72986 42.8554 19.3959
Pt 4.79768 31.0247 22.4991
Pt 9.60467 25.283 25.0788
Au 8.18334 24.8651 38.5767
Pt 9.27466 25.3117 13.6721
Pt 7.05204 36.517 28.4052
Au 3.58185 37.6984 25.7121
Pt 7.16172 26.7641 24.684
Au 12.8962 27.5132 44.9232
Pt 10.5106 33.7042 17.943
Au 3.66601 28.2239 28.8889
Au 18.2544 40.7552 41.8159
Pt 8.33823 29.2562 27.3309
Pt 7.62519 33.2965 35.9922
Au 11.3005 45.1761 24.0498
Pt 17.9497 35.9827 36.0896
Pt 15.7647 34.2819 36.672
Pt 15.5442 37.5945 25.4777
Pt 20.4334 37.2696 13.8063
Au 2.8704 21.9421 32.7506
Pt 13.0444 31.1239 7.55803
Pt 14.3931 29.9949 37.3409
Pt 23.0186 43.8357 25.5935
Pt 5.37078 34.4676 28.6319
Au 16.9475 41.1276 39.5231
Pt 13.8805 36.1335 37.0241
Pt 14.2336 38.1599 10.1518
Au 26.5599 47.5585 31.8685
Pt 13.7688 43.0311 16.4071
Au 2.75728 26.6096 31.1951
Pt 14.4528 39.6638 21.9159
Pt 22.1206 41.1865 27.1129
Pt 16.7511 38.3692 23.1851
Pt 20.2617 5.59246 20.4691
Pt 14.7301 12.294 17.4382
Pt 14.4137 9.61156 17.176
Pt 10.0011 16.3896 26.5758
Au 16.1798 4.23138 19.6819
Pt 11.9638 12.5167 36.6657
Au 15.1805 4.35157 22.2478
Pt 25.045 6.35134 20.5464
Pt 13.9278 18.8764 27.0553
Au 4.65076 12.7085 23.8486
Pt 9.47648 14.8512 22.5857
Pt 7.37575 13.2873 23.0661
Au 6.83914 13.1832 32.6805
Pt 14.8994 7.12143 29.0048
Pt 22.5597 7.29016 27.2028
Pt 11.8705 9.33608 26.5564
Pt 15.2442 7.94151 19.2466
Au 25.2548 1.98633 16.2874
Au 11.9736 6.48183 25.5529
Pt 18.8988 6.61889 16.7302
Pt 7.35843 17.2546 19.7074
Pt 10.2038 12.8023 27.772
Pt 18.3166 24.9509 10.8408
Au 27.2672 12.477 29.7453
Pt 11.3387 18.7111 23.0933
Au 24.7504 13.2878 19.1871
Pt 7.48392 18.4521 30.8192
Pt 16.5438 23.904 14.8658
Au 29.8686 22.4803 36.2382
Au 28.2018 14.699 31.0465
Au 19.8849 28.3228 27.3142
Pt 9.55739 19.1192 27.0447
Pt 9.54351 13.1737 31.7669
Pt 6.68556 16.0503 32.0334
Au 20.997 4.11737 30.1282
Pt 7.23788 29.3569 24.8179
Au 23.6521 3.18132 30.3476
Pt 9.04646 21.8702 27.2033
Au 14.6181 27.4445 33.7073
Au 5.2447 11.4117 26.3422
Pt 18.1445 27.632 11.1443
Au 4.89887 15.5162 23.9142
Au 6.02471 29.6044 14.71
Au 17.5376 4.30641 17.1552
Au 5.29436 19.5808 14.0886
Au 8.21112 12.9689 15.638
Pt 17.6522 9.16801 19.2821
Pt 12.6354 18.2893 19.3828
Au 15.9203 22.7728 30.398
Pt 18.2604 8.274 14.3843
Au 14.0172 22.9596 18.3137
Pt 14.0061 13.8151 21.8569
Pt 14.1783 17.2269 10.931
Au 10.4455 8.82152 18.4558
Pt 16.5745 14.077 16.9491
Au 22.8444 19.641 21.4493
Pt 7.88324 20.2838 32.8197
Au 19.6049 18.2094 33.1392
Au 24.3861 26.2109 26.3892
Pt 7.7758 22.5504 21.7294
Au 6.9503 19.2851 38.1095
Au 18.9059 17.3874 19.0624
Au 19.1107 22.3624 27.0651
Pt 13.047 15.1211 29.2773
Pt 11.6501 18.4641 25.6856
Pt 8.08444 22.308 24.5393
Au 22.7201 24.9068 35.9586
Pt 9.91913 19.5319 34.5054
Pt 18.2339 12.8444 32.9367
Au 9.47553 18.919 11.9977
Au 15.5566 4.61579 29.8323
Pt 16.9242 14.1746 41.7263
Pt 15.914 19.6534 16.0591
Au 4.90012 19.1535 16.7348
Pt 9.62707 20.9983 13.8968
Pt 11.8734 30.3202 9.76111
Pt 6.65109 23.2672 17.2258
Au 2.34397 23.032 28.1415
Pt 12.2619 14.1227 13.7871
Au 6.44652 14.6903 19.539
Au 17.8137 24.3378 28.8053
Au 20.144 26.3019 29.2997
Pt 6.26772 17.7983 24.5402
Pt 4.96323 22.799 29.3217
Pt 11.9434 25.8082 13.9134
Au 14.4551 29.9085 18.9488
Au 17.6273 22.0101 24.1739
Au 22.2559 24.6529 27.4035
Au 19.8682 26.0829 23.8079
Au 13.4228 16.6516 22.6454
Au 28.9016 13.3202 17.9047
Au 11.0919 23.003 25.8162
Pt 7.48349 31.5855 26.1674
Au 18.2391 26.0761 31.2559
Pt 14.3601 21.8508 15.7763
Au 18.4545 24.8963 33.8079
Pt 13.6795 15.9148 19.8817
Au 19.2156 22.4291 36.4446
Au 25.8463 16.4366 19.1931
Pt 15.7463 12.343 24.4139
Au 23.9635 15.839 33.6361
Au 16.1702 31.5994 24.8464
Au 21.9796 30.2917 20.2366
Pt 16.9113 23.5903 35.6883
Pt 14.0493 26.9132 42.6725
Au 10.4831 30.9506 40.8211
Pt 15.9658 30.6596 39.3839
Au 12.5788 24.7151 43.9958
Pt 18.1952 16.5971 42.0856
Pt 14.4506 12.7728 37.8342
Au 18.5434 7.77979 42.0998
Au 6.40443 11.7389 30.1733
Pt 14.2659 36.7636 14.4357
Pt 9.43337 31.2415 18.7803
Pt 24.5813 23.9891 7.58371
Pt 17.5478 32.7638 12.242
Au 13.8756 5.68633 19.9494
Au 8.03611 10.3018 19.4977
Au 33.5263 28.4785 17.757
Pt 9.00048 17.5969 21.887
Au 17.622 16.178 23.7567
Pt 18.8462 22.5807 15.3166
Au 34.3359 21.3375 34.6572
Au 4.98412 31.2864 16.7548
Au 33.8442 24.2028 23.4141
Pt 8.75682 30.9531 36.5241
Pt 5.97868 26.4152 22.1671
Au 30.0009 24.7647 30.6812
Pt 8.43692 29.2714 30.1724
Au 38.1269 27.1911 18.4424
Pt 11.683 31.0772 37.0907
Au 13.9666 30.128 32.7712
Au 17.3885 24.1341 25.8705
Au 18.2573 28.3943 29.7642
Pt 9.75233 23.1571 36.754
Au 17.2852 27.4098 33.485
Pt 9.01064 20.6735 36.7283
Au 20.0432 35.3049 31.1113
Pt 14.138 7.87652 26.3046
Au 22.4312 29.7372 27.6348
Au 15.0232 21.1551 23.2605
Pt 11.1412 19.2637 37.1381
Au 25.8375 15.9425 30.3251
Au 25.0815 26.9036 31.8839
Pt 11.9354 14.651 26.8903
Pt 16.8922 30.584 41.7838
Pt 6.03348 24.117 34.1739
Pt 14.6286 18.0062 39.863
Au 6.81631 29.3765 37.5929
Au 2.96855 21.0882 30.1355
Pt 22.4992 29.3678 41.2132
Au 9.19157 22.5932 40.2899
Pt 15.7681 19.5253 38.0538
Pt 19.6114 20.0925 43.9433
Pt 11.6664 28.7115 14.4729
Pt 6.64543 32.0409 18.7036
Au 3.14905 29.2521 31.7836
Pt 11.7135 21.3903 16.4242
Pt 12.5415 19.2034 11.7286
Pt 7.81353 30.6157 16.6999
Au 7.44486 31.4142 9.53527
Pt 7.45028 18.0905 17.1062
Au 21.5923 16.6055 17.9056
Pt 6.89878 32.0122 23.5695
Au 6.89535 23.391 11.4899
Pt 9.93483 38.3358 19.5238
Au 19.1269 15.1121 26.3296
Au 31.8284 31.8691 14.0716
Au 19.1476 28.6649 24.5786
Pt 6.82842 25.3425 31.1174
Au 17.0522 28.943 37.2868
Pt 12.9773 33.3113 30.4677
Au 29.9718 26.9705 32.3682
Pt 5.01199 20.1841 25.1621
Au 26.8142 22.4364 26.5311
Au 24.0742 22.6582 31.5074
Pt 17.5285 36.053 31.813
Au 12.126 30.341 20.6896
Au 28.9782 30.9014 29.0482
Au 34.4307 19.0334 36.1714
Au 17.9338 33.5637 29.8883
Au 21.5989 19.3618 31.2748
Au 11.8567 28.2069 33.0632
Au 29.8685 29.8616 31.7902
Pt 19.4729 17.1463 39.5712
Au 27.9556 21.741 40.164
Pt 15.8405 17.5311 32.8125
Au 14.5628 13.6784 43.279
Pt 17.5008 28.7584 46.0098
Au 18.6549 22.0168 33.8689
Au 10.2331 12.4445 39.0823
Au 10.1046 14.9002 40.4271
Au 16.7637 25.8186 47.1524
Pt 12.7517 30.4461 39.5092
Pt 16.8633 25.5645 42.1937
Pt 19.9908 19.8222 39.1708
Pt 20.8837 23.7829 10.8988
Pt 14.6927 25.895 14.9816
Pt 18.6348 25.5934 14.9302
Pt 14.1723 23.5503 10.3381
Au 4.1914 25.6887 35.5878
Pt 12.875 24.2132 16.2614
Au 22.0504 30.0773 32.1202
Pt 14.0881 33.7975 8.05528
Au 13.8637 22.7109 21.3015
Au 19.6642 37.9149 6.66805
Au 16.248 19.1918 28.5562
Au 13.6574 19.5155 21.4766
Au 29.4533 17.8966 14.8021
Pt 6.92692 30.378 32.2179
Pt 9.17551 24.7745 20.9157
Pt 9.41181 28.209 18.2513
Au 18.2221 33.5337 20.1169
Au 4.54962 32.935 35.0464
Au 19.8787 25.12 36.2342
Au 18.4945 23.2468 31.3665
Au 9.81653 29.4915 38.5821
Pt 8.81265 31.9549 31.2957
Au 25.2677 37.4534 18.2049
Au 13.7475 27.7592 30.9628
Pt 15.1486 37.1508 32.2856
Pt 10.3479 36.5938 32.7407
Au 15.212 30.8877 27.4702
Pt 11.4023 36.6442 26.5262
Au 22.5924 23.5984 38.3807
Pt 21.6124 25.8571 41.2831
Pt 19.5338 30.2992 42.1476
Au 39.5725 17.026 40.161
Au 11.9427 29.3337 42.9448
Au 19.7595 29.9546 49.2869
Pt 7.93769 29.0845 34.7044
Pt 18.7946 26.5698 45.5749
Pt 14.549 22.4358 35.7003
Pt 15.8263 17.6341 42.2004
Au 13.2423 29.9305 45.8562
Au 10.4241 23.7419 42.6382
Au 12.3801 21.9856 43.5311
Pt 24.1364 31.3357 47.8798
Pt 21.7791 35.1175 12.5378
Pt 8.92166 29.8254 14.2727
Pt 4.90774 25.3301 24.4166
Au 7.79308 26.1454 11.4048
Au 7.98978 34.5817 14.2096
Pt 10.0808 31.9188 21.4336
Au 9.51085 29.6631 8.32683
Pt 16.1417 30.4557 11.049
Au 6.58618 37.6511 19.0242
Pt 13.2358 22.9067 27.6054
Au 8.8816 33.868 8.9705
Pt 7.71547 38.8519 23.9038
Au 19.7209 28.3913 32.3642
Au 4.57606 38.132 28.3533
Au 2.64356 18.4801 28.4049
Au 14.775 46.0717 33.824
Pt 8.04218 38.2085 21.3103
Pt 13.1681 23.1043 33.6688
Au 5.23318 21.072 36.7483
Pt 9.60227 26.9381 34.3755
Au 20.612 32.5253 19.1611
Au 3.00045 33.0649 27.3284
Au 3.82849 36.272 30.3862
Au 6.50324 38.0292 35.086
Pt 13.6783 31.9008 35.4984
Pt 7.63686 37.1409 32.8542
Au 9.47815 33.4951 40.6684
Pt 15.9702 36.5964 41.0988
Pt 22.5951 39.4974 20.643
Au 14.1734 40.4879 39.0734
Pt 12.9281 26.0302 38.3584
Pt 21.0226 42.6377 36.9264
Au 7.96187 31.3595 39.3165
Au 15.6794 23.3277 46.2349
Au 13.9919 34.5178 42.7915
Pt 29.3768 43.1655 38.8152
Pt 11.6657 18.6909 17.0524
Pt 10.4639 30.0666 16.5385
Pt 9.73897 27.4165 15.703
Au 16.5159 23.8615 4.6404
Pt 21.0493 25.3315 6.35283
Au 13.4652 27.883 20.6075
Pt 6.1374 36.7524 23.7301
Au 13.9397 37.76 39.2067
Pt 9.68149 32.4443 15.6268
Pt 23.2575 37.1789 13.8383
Pt 5.24636 33.3189 25.7558
Pt 9.90708 27.6414 12.7496
Pt 10.3948 30.3761 28.6517
Pt 7.98984 39.4027 31.2601
Pt 16.4586 41.8439 27.2732
Au 3.15067 35.7825 27.7952
Au 17.9562 33.2979 32.5337
Au 9.55838 7.78614 25.8128
Pt 9.44461 29.2732 20.7233
Au 9.7433 28.3816 41.3098
Pt 9.40227 40.8383 23.8426
Pt 15.8267 15.8572 34.9805
Pt 23.5541 36.0453 38.6671
Pt 18.0639 33.3296 35.3795
Pt 7.18655 39.2087 28.7022
Pt 10.5302 25.7777 36.797
Pt 19.0047 27.1108 37.9462
Au 8.06922 42.6285 26.9287
Pt 4.96695 30.326 20.001
Pt 6.37045 21.9888 27.0099
Pt 26.1499 27.9705 10.9962
Pt 17.2404 37.1219 13.291
Au 11.622 38.5656 10.1436
Au 3.18292 33.0708 21.6108
Au 2.97642 32.3606 24.3195
Au 27.9758 30.5674 18.3858
Pt 12.5393 36.0362 16.4681
Au 10.398 40.6557 18.4201
Pt 14.711 27.3666 36.6319
Au 5.31304 38.0646 21.431
Pt 21.2763 41.3332 19.3225
Pt 16.0352 43.596 22.4334
Pt 12.3728 38.7926 18.1353
Au 17.2857 30.8994 29.4397
Au 6.06624 35.3234 34.558
Pt 16.2996 36.1635 38.4511
Au 9.54791 38.016 37.8322
Pt 12.4055 27.8484 40.6234
Pt 8.74856 36.0561 18.6236
Pt 20.1111 42.9094 15.5329
Pt 19.3246 46.0133 18.8703
Pt 16.8845 39.7287 20.3371
Pt 9.78443 31.6612 10.3923
Pt 22.5838 43.9171 32.1557
Pt 21.0082 40.1261 33.3934
Pt 18.3958 13.5119 18.7983
Pt 16.8726 6.76582 30.7811
Au 7.2232 9.4917 26.1498
Pt 16.2825 6.47166 26.1167
Pt 16.5544 9.76566 24.7851
Pt 24.1952 3.81904 21.8784
Au 28.0897 2.50709 16.0521
Pt 17.6665 6.76402 23.7562
Au 22.7917 1.681 21.2005
Pt 14.0987 10.5665 25.7277
Pt 16.5165 13.0808 34.83
Pt 16.2036 14.7472 32.6226
Pt 30.0376 8.80868 26.2596
Au 24.0238 1.58548 18.7262
Pt 13.7994 9.81783 32.8291
Pt 9.18999 11.4284 29.823
Pt 12.5476 23.9323 36.612
Pt 8.41401 17.6306 33.512
Au 10.628 7.36446 23.1978
Pt 22.601 4.28409 19.7963
Pt 16.2182 11.3669 29.712
Au 6.7379 14.0131 35.5035
Au 14.8312 7.82892 39.4432
Pt 5.75502 18.5585 32.8646
Pt 15.9345 9.76848 15.0668
Pt 22.9894 13.0523 15.6178
Pt 26.5747 6.73551 16.1492
Pt 10.288 20.6859 24.8995
Pt 30.523 5.07792 24.2443
Pt 15.1438 14.9955 24.0277
Au 10.8509 11.7892 15.0023
Pt 19.55 10.0151 21.1264
Au 15.9974 26.9332 19.5053
Pt 25.3001 6.34213 23.129
Pt 24.2963 8.29607 16.1764
Au 27.2297 2.24591 23.4907
Pt 11.0796 10.4645 31.8859
Au 28.8345 12.0705 31.9921
Pt 8.57051 11.6726 24.9892
Au 21.1356 16.5225 27.6003
Pt 13.2363 18.6978 32.2635
Pt 28.8649 8.76168 19.5127
Au 25.6137 10.5448 28.666
Au 28.8987 27.2797 35.0005
Au 18.0562 21.1621 29.3729
Au 25.0663 24.086 27.9174
Au 21.8796 13.9908 22.649
Au 14.1758 6.2614 31.7704
Au 4.0777 20.7488 27.7218
Au 11.5586 8.01128 35.9587
Pt 8.93685 15.5467 36.0416
Pt 7.7989 14.0589 29.9919
Pt 11.4044 21.6598 38.2599
Pt 16.598 11.4137 36.9624
Pt 14.29 15.1798 17.3625
Au 12.8793 5.1538 29.7069
Pt 9.75528 17.1389 15.989
Pt 16.2526 23.3835 12.0835
Pt 17.4045 22.5504 6.97991
Pt 18.8859 12.8997 13.2782
Au 5.76354 17.0227 15.3008
Au 15.9676 7.96024 12.9114
Pt 7.27553 27.9812 16.7146
Au 5.07893 27.0695 15.2461
Pt 15.3756 17.0408 8.63502
Pt 11.1024 18.7408 14.2136
Au 18.6139 19.9953 15.6963
Pt 21.8281 9.00416 17.1357
Au 28.2539 14.694 15.2085
Pt 6.5555 16.3718 29.2515
Au 20.0157 20.7472 24.9125
Au 23.0698 24.9704 20.1236
Pt 16.2611 8.91989 27.6084
Pt 13.8027 18.8704 24.2484
Pt 14.6964 14.5108 14.67
Au 17.9429 26.9537 17.2534
Pt 4.70538 25.5036 29.5969
Au 19.7029 25.4475 26.6661
Au 20.2609 13.7391 31.4647
Au 16.153 22.2352 27.7195
Pt 14.7612 16.257 27.6399
Au 18.3953 18.0725 21.5941
Au 16.744 22.1763 17.1927
Au 9.68467 7.85499 28.4917
Au 8.31451 14.6019 38.4911
Au 23.3644 27.9676 34.0451
Au 19.5096 19.7873 35.5322
Pt 10.1641 12.171 34.1038
Au 10.2397 17.4898 41.2292
Pt 5.05258 18.2896 27.0847
Au 22.5851 20.9921 39.1345
Pt 10.8655 24.2323 39.0116
Pt 12.6374 11.2648 39.1268
Pt 13.1035 12.1896 28.0587
Pt 17.0428 13.3523 39.2243
Pt 7.62034 12.0454 27.6346
Pt 9.26035 15.4775 19.9696
Pt 7.12834 20.9274 15.3065
Pt 10.4322 9.95946 24.3499
Pt 7.88673 23.1756 14.205
Pt 8.3922 22.8055 19.1234
Au 26.5248 29.5833 5.43354
Pt 9.36125 19.7366 16.2003
Pt 15.1767 17.0585 15.1817
Pt 19.5046 10.3321 12.5419
Pt 23.0319 21.8777 10.9049
Pt 18.838 13.0219 16.1103
Pt 12.9379 26.0475 10.0568
Au 25.8746 22.7145 9.82321
Au 23.5435 21.1133 14.0315
Au 18.9778 15.5549 29.4112
Au 29.7309 33.7206 12.6264
Au 20.8387 32.5054 16.3873
Au 12.549 31.9679 27.8793
Pt 15.2654 10.626 19.4919
Pt 10.2141 17.1418 38.445
Pt 16.4895 15.9154 18.8016
Pt 10.5634 12.3448 22.9453
Au 16.2066 35.2009 26.78
Au 22.6078 27.1758 28.4923
Pt 6.94806 19.7265 28.3849
Au 20.8641 20.8109 28.8439
Pt 23.7649 20.2005 32.6944
Au 21.6351 27.4188 36.6333
Pt 8.7528 14.8512 33.6418
Pt 9.79659 13.9559 25.2114
Pt 17.0653 26.2307 36.1265
Au 17.3602 17.5122 16.7196
Pt 13.5868 20.3815 36.9006
Pt 21.9102 21.4076 44.0053
Pt 15.2177 18.5955 35.4068
Au 24.2116 20.143 30.0948
Au 2.80128 22.2154 25.643
Pt 20.0895 22.5007 38.9542
Au 15.0371 11.0795 42.9092
Pt 16.9317 16.0633 39.7628
Pt 11.0022 16.9433 33.3502
Au 16.9042 4.1814 24.486
Pt 10.0745 36.0623 21.1439
Au 11.2457 30.1223 5.90799
Pt 12.4669 16.4029 15.7209
Au 17.258 12.5162 8.29641
Au 14.9981 19.3873 7.24869
Au 21.1316 25.8056 17.9136
Au 29.4709 8.27493 10.4135
Au 12.0145 9.16952 15.8564
Au 25.0178 16.8249 15.9027
Au 31.9908 19.5142 18.8731
Au 31.8086 35.284 14.0639
Pt 12.4568 26.9487 16.3108
Au 31.9547 24.1907 25.5816
Au 13.6308 30.3689 25.2263
Pt 11.1543 34.1102 23.0107
Pt 6.21256 35.1845 31.2436
Pt 7.62181 22.0863 29.5093
Au 23.1457 30.9002 9.63019
Au 20.4359 27.5488 15.9159
Au 27.9234 19.8559 13.2031
Au 23.137 22.3722 28.8825
Au 22.4742 24.9008 12.93
Au 29.1954 21.0619 19.8613
Au 19.0405 31.485 25.0821
Au 14.4995 25.6668 24.6755
Pt 15.5137 39.6036 34.3175
Pt 7.57405 17.4845 26.963
Au 4.83738 18.2745 36.5077
Au 23.334 25.0374 32.9672
Pt 9.49154 22.2948 33.9597
Au 24.4252 10.8377 20.4205
Au 7.80459 27.5718 39.5187
Au 19.6574 18.388 29.1027
Pt 10.3426 26.2142 31.9264
Au 32.6834 20.357 39.5259
Au 26.107 21.9829 29.3997
Au 29.8744 20.4428 38.5001
Pt 13.9021 14.292 33.7009
Pt 7.32736 22.1841 35.3645
Au 30.878 28.9543 34.2287
Au 24.3344 46.2239 36.8109
Pt 22.5061 14.6633 40.0601
Pt 23.0586 26.2603 8.0767
Pt 14.8664 22.1479 8.02021
Au 11.2846 16.9848 10.913
Pt 14.9229 29.3129 7.2553
Au 14.1055 28.0007 23.2475
Au 14.8777 26.1428 4.98164
Au 21.2695 22.4307 13.2736
Pt 10.2887 24.9243 16.1821
Au 20.4194 36.9499 26.416
Au 22.9724 16.9857 22.7122
Au 11.0934 26.0061 18.5034
Pt 18.9777 20.8468 13.1498
Pt 11.7133 37.6164 36.2753
Pt 8.00306 34.1046 29.5854
Au 22.024 27.8162 13.4289
Au 15.9449 24.1936 20.1451
Pt 10.8998 24.47 34.4213
Au 20.093 33.8891 26.3482
Au 18.5247 30.6024 35.3697
Au 16.6277 26.4272 22.2211
Au 19.124 20.4874 31.68
Pt 22.2799 30.057 43.701
Au 20.4536 23.5496 29.1782
Au 23.7624 17.2884 36.2667
Au 25.364 31.3647 37.9204
Pt 15.4139 43.8531 32.7683
Au 21.0238 23.5377 34.0963
Au 14.4944 33.2342 26.2607
Pt 13.7392 37.1701 34.4552
Pt 14.2326 23.1449 41.7474
Au 29.4679 29.6146 46.274
Pt 18.5736 44.7847 30.6963
Au 24.4213 27.3913 36.5748
Au 17.645 18.0373 44.644
Au 32.2778 23.7067 34.903
Au 12.8454 17.734 42.1502
Au 27.06 19.0955 39.206
Pt 24.5012 34.1495 42.8048
Pt 24.5206 30.451 45.4135
Au 43.9443 26.1075 34.9042
Pt 21.6369 16.4231 38.1054
Pt 21.4695 32.1117 41.7867
Pt 15.6346 12.7372 10.4589
Pt 16.4669 28.4955 9.207
Pt 21.7616 28.6327 8.4996
Au 26.5978 38.6827 10.478
Pt 14.0744 23.4653 13.8516
Au 8.59108 27.0696 8.94019
Au 10.3339 21.5875 8.11972
Pt 12.7952 21.1715 9.47781
Pt 15.5287 35.8376 9.32194
Au 14.8969 23.0034 25.4116
Pt 12.2084 23.7378 12.1394
Au 15.2119 33.5774 5.40892
Pt 5.89369 21.8815 19.9615
Pt 8.53916 33.6847 19.8111
Pt 5.3205 26.4957 26.8476
Pt 12.1167 31.6592 18.2589
Au 21.2082 13.6937 17.5519
Au 21.633 30.9858 12.1292
Au 24.8203 23.5242 12.7767
Au 15.2018 24.9587 27.4195
Au 19.6517 31.621 4.39917
Au 27.8323 26.371 30.2167
Pt 24.1049 27.1334 41.0229
Pt 20.5859 39.6252 25.4247
Au 11.4067 28.6968 22.9029
Pt 11.7631 37.2147 29.1237
Au 27.5121 39.1142 18.1115
Au 11.5766 41.0004 13.2668
Au 29.1408 21.4139 27.7859
Au 35.3933 16.8998 34.3967
Au 22.3123 31.5107 29.7319
Pt 18.8178 43.7203 22.9817
Au 27.1794 26.2273 36.8498
Au 20.4938 32.3705 36.4519
Au 26.2151 27.6309 34.424
Pt 12.8756 35.3475 32.539
Pt 24.9831 29.7287 40.3457
Au 30.894 41.0075 42.645
Pt 20.8406 33.0808 39.0943
Au 16.6785 15.4895 44.1746
Pt 27.2369 34.301 42.3041
Pt 21.3091 26.1579 45.4378
Au 15.4754 21.3705 5.42481
Pt 13.3458 34.4554 13.5184
Au 22.0309 36.3835 6.20954
Pt 17.2482 35.1889 11.2546
Au 9.44703 40.7599 21.096
Au 8.13679 42.8207 22.2113
Au 6.04288 25.2491 13.3491
Au 13.8504 23.5552 5.5493
Pt 7.52847 25.328 15.7064
Au 12.8252 36.3132 8.77186
Pt 12.0737 36.2538 11.6025
Au 4.35362 35.4969 20.838
Au 3.43751 26.2667 17.9041
Pt 12.3329 33.3236 15.9707
Au 21.5223 35.0927 15.1686
Pt 15.6181 28.0481 12.0552
Pt 4.16496 28.437 21.9187
Au 11.781 39.6318 38.1413
Au 6.79844 41.4594 24.6106
Au 21.4305 24.0903 22.3499
Pt 12.5679 34.6773 28.0169
Au 16.2238 46.1851 31.3706
Au 3.36114 33.592 30.1089
Au 17.9556 35.4755 22.2592
Au 21.793 27.1917 25.7125
Au 12.2752 25.2676 26.4672
Pt 13.5165 23.5138 39.1597
Au 21.0264 26.4501 33.9668
Pt 10.5041 32.917 29.5725
Au 20.5225 22.8203 48.6238
Au 13.9971 20.162 42.0614
Au 20.2462 32.0698 33.6397
Pt 25.7276 37.4019 39.1452
Au 15.4691 39.2839 41.1168
Pt 26.1096 41.9092 35.9794
Pt 14.6564 25.0251 34.9749
Pt 18.4628 32.8531 42.8939
Pt 27.0857 41.7911 38.7342
Pt 16.0722 21.1891 40.5664
Pt 12.2193 25.1264 41.1149
Au 25.8488 46.2316 39.2195
Pt 23.9372 38.6203 37.5083
Au 14.624 35.9603 6.60679
Au 8.06665 38.8629 17.017
Pt 13.1618 30.1353 16.3441
Au 17.9393 15.2724 7.82292
Pt 13.6632 30.2237 12.3977
Au 6.91294 32.2018 14.706
Au 3.06557 34.98 25.1752
Au 9.41033 41.6484 31.4832
Pt 13.8509 42.027 22.9804
Au 4.95244 39.3149 23.8753
Au 5.86836 31.9115 37.4911
Pt 14.2964 25.6123 12.3376
Au 11.2119 23.53 6.59938
Au 14.5455 30.757 22.5294
Au 13.7926 32.5959 20.5833
Au 27.0592 32.9255 13.238
Pt 17.3548 42.4751 24.8504
Au 3.34061 30.9632 29.5819
Au 4.1067 34.2879 32.6587
Pt 16.644 39.5549 17.3823
Pt 15.7392 31.8642 31.4436
Pt 9.43809 32.39 24.3974
Au 18.2259 42.1692 37.3278
Pt 18.327 37.5983 20.8874
Au 13.469 43.1488 13.1176
Pt 10.467 39.1579 30.2914
Au 10.2853 39.9696 35.8149
Au 25.2411 39.3205 27.1754
Au 20.8219 41.7084 42.5302
Pt 13.281 39.5414 29.4351
Pt 18.6317 34.1531 37.8884
Pt 20.4266 31.8274 44.2877
Pt 17.1747 39.1067 31.5226
Pt 12.0286 33.1895 39.5839
Pt 17.9736 32.7533 45.7702
Au 19.8412 39.2371 43.5324
Pt 16.1144 34.7215 13.6903
Au 7.44922 36.2944 36.9449
Pt 7.11547 35.7625 21.2345
Pt 11.8502 33.0296 9.20517
Pt 10.4083 37.742 16.7817
Pt 7.92438 27.0068 20.1387
Pt 7.97086 33.6268 17.1085
Au 36.1268 31.8121 18.6456
Pt 24.2292 38.9168 11.8631
Au 2.9678 27.5666 33.964
Pt 19.0027 40.773 23.4863
Pt 19.4409 36.4845 11.4212
Pt 10.4381 38.6409 22.4259
Au 11.043 41.8971 33.9304
Pt 17.9466 41.5537 16.0885
Au 12.7548 44.1504 33.7556
Pt 18.947 44.3501 25.7082
Au 3.02189 30.3465 26.8494
Au 11.3001 37.9285 40.1905
Au 11.5052 45.367 19.4566
Au 21.082 46.2875 32.0283
Au 17.6035 21.6008 45.0826
Pt 16.4197 38.8321 38.2414
Au 3.50435 30.3009 34.6192
Pt 19.1576 39.7815 38.3562
Pt 18.4365 31.4299 38.0982
Au 17.9243 10.1447 43.3367
Au 16.251 35.7218 46.4292
Au 4.70943 36.9472 32.9232
Au 14.0102 44.9944 23.8408
Pt 9.57633 28.0007 25.0815
Pt 31.4111 39.6806 14.8845
Pt 8.15405 36.8165 25.8963
Au 19.9121 48.7273 24.5767
Pt 8.29996 39.9482 26.3306
Pt 25.1781 42.7513 23.9787
Pt 16.7814 45.31 24.227
Pt 19.2799 46.2463 23.6925
Au 17.1846 38.5891 43.1492
Au 18.8308 3.43006 19.4314
Pt 26.5687 9.17636 17.3583
Pt 35.3695 7.61262 19.5249
Au 40.3485 8.4199 19.4475
Au 22.4001 1.73824 16.3632
Pt 13.6177 11.4596 15.2161
Au 18.387 6.19971 12.6589
Au 11.7008 7.92795 33.1127
Pt 23.3653 3.93582 17.2991
Pt 10.028 18.919 31.7692
Pt 19.2551 8.94584 23.6174
Pt 12.8477 8.76956 24.0625
Pt 12.3867 14.1203 23.9188
Pt 23.8875 3.23177 26.3372
Pt 18.2725 8.26247 26.0599
Pt 25.2224 4.00477 24.2337
Au 19.5015 3.20988 27.3673
Au 5.1864 16.7013 18.0605
Pt 28.9757 9.59977 29.3146
Pt 14.056 13.5237 26.0182
Pt 16.0626 16.0965 30.0882
Pt 26.8271 7.86353 29.7401
Pt 27.6779 6.90488 21.5575
Pt 18.6525 10.9923 34.9589
Pt 34.3307 12.6107 36.5026
Pt 24.9718 8.09065 27.7031
Pt 20.5193 6.71912 14.7712
Pt 18.8329 5.46056 25.9284
Pt 17.2587 13.6682 30.5381
Au 17.976 4.60486 21.8776
Pt 16.3987 14.4438 37.0171
Pt 14.0725 12.1665 35.1371
Pt 17.2986 18.493 13.8369
Au 18.9039 4.51071 14.7577
Pt 20.8342 9.36769 14.6615
Au 8.14007 8.5671 23.6535
Pt 17.4764 15.3063 14.8236
Pt 15.6434 13.4813 19.7188
Pt 25.7361 7.39144 13.8186
Au 14.1553 10.4037 11.0296
Pt 18.4317 10.8115 14.8772
Au 38.1079 8.40506 15.1726
Pt 6.65416 13.4994 25.5476
Au 18.3559 25.6805 19.8676
Au 20.4345 18.9466 17.294
Pt 16.3813 21.3905 14.0674
Pt 10.2804 14.6038 15.7455
Pt 19.1413 9.28779 16.9013
Au 19.7418 12.768 21.324
Au 15.7703 18.3192 19.8936
Au 24.1406 14.9122 24.25
Au 30.3359 15.2625 38.7201
Au 34.7789 28.7958 7.96374
Au 26.9427 1.92808 18.5462
Au 22.3602 16.3831 15.3126
Au 15.591 28.5871 28.8352
Pt 11.6247 17.1602 30.6465
Pt 12.3891 16.4152 39.7254
Au 28.6359 16.8376 35.0311
Pt 14.3226 13.6093 30.9088
Au 25.2746 22.1182 39.5343
Au 37.8594 18.5989 38.8282
Au 37.4771 15.7305 41.6926
Au 17.1871 12.6985 43.9818
Pt 15.7922 7.91437 33.0901
Pt 18.699 21.335 41.0951
Pt 11.3392 10.0355 29.1422
Pt 17.0787 19.7349 33.5038
Au 7.54292 34.0274 38.6544
Pt 17.706 24.351 44.6446
Au 3.82192 13.9687 26.0931
Pt 29.0533 5.80157 33.1138
Au 11.8619 11.7347 12.4089
Pt 10.9572 16.2888 24.0594
Pt 6.00952 25.9285 17.762
Au 29.6404 5.95191 11.9755
Au 20.9352 9.05691 10.0589
Au 6.26559 11.9028 21.0147
Pt 14.9146 19.0778 12.9849
Pt 17.5664 18.1756 8.00681
Au 8.6557 21.4105 10.2336
Pt 7.63317 27.4512 14.0842
Au 30.3142 15.7954 16.9076
Pt 10.4931 16.2409 13.4851
Pt 20.4842 7.9575 12.5134
Pt 20.0005 7.87903 18.9665
Au 18.0272 22.4891 19.8823
Pt 14.021 14.6783 11.7639
Au 25.488 12.131 16.4614
Au 23.0477 14.4503 13.3326
Au 36.4448 14.6428 33.1834
Au 26.8304 25.3324 18.9025
Au 28.3289 11.4204 27.4134
Au 22.9808 14.6696 31.3528
Au 34.3887 27.5675 20.3501
Pt 14.1091 20.8153 28.9641
Pt 25.1373 18.0405 28.66
Pt 11.6674 14.7459 31.9398
Pt 22.5195 18.4889 28.9013
Pt 31.6104 26.7837 16.8893
Au 25.2369 25.1298 34.9773
Au 17.8668 19.2237 24.1403
Pt 18.2333 12.0039 25.6006
Pt 14.5738 15.3331 38.692
Pt 13.627 10.202 36.9307
Au 20.7286 24.9118 31.681
Au 22.3077 21.6702 23.5644
Au 24.0615 33.8139 29.3043
Au 25.9093 26.8391 15.7946
Pt 24.8279 6.08709 30.0361
Au 11.8084 22.2091 40.8805
Au 26.0339 12.5914 24.256
Pt 17.5528 10.1799 32.449
Au 15.3884 36.7152 43.8707
Pt 9.35737 32.1064 12.9852
Pt 21.388 16.6815 12.81
Au 20.3012 26.7399 4.12936
Pt 20.7387 15.1892 9.28046
Au 14.1562 31.0237 5.09133
Au 16.9185 27.761 14.8561
Pt 20.2611 17.7842 7.87029
Pt 11.0731 21.308 11.5364
Pt 11.0059 23.1918 14.4337
Au 24.9334 23.2526 19.1412
Pt 12.8703 9.41438 19.4193
Pt 14.476 17.6892 17.5824
Pt 14.2447 21.4749 11.8921
Au 28.5532 26.9473 10.1768
Au 27.1996 13.9867 20.2456
Au 19.7421 21.7324 17.8685
Au 28.2229 25.7875 7.5676
Au 22.7736 30.9012 36.7075
Pt 8.40995 15.4807 17.5408
Au 16.1303 29.0054 21.1899
Au 21.4948 19.1857 26.5645
Au 33.9225 31.5675 12.1576
Au 21.3926 30.0598 25.2942
Au 10.6582 27.4505 27.6258
Pt 28.2809 10.1967 24.7045
Pt 22.214 14.9971 35.6921
Pt 26.1575 23.2829 33.2288
Au 24.2184 25.7319 17.7432
Au 32.5469 21.9496 37.0956
Au 38.1536 20.0218 31.7489
Au 15.9125 23.837 22.9826
Au 23.3153 14.4799 26.8501
Pt 15.2069 24.8347 37.5915
Pt 18.5152 15.0434 34.8033
Pt 20.9237 16.2457 41.6419
Pt 23.1298 28.9689 38.5283
Pt 24.1686 22.6848 44.3622
Pt 25.2381 8.31928 35.8387