3871
Atoms. Timestep: 21096
Au 22.8648 16.0786 7.31195
Pt 21.8131 21.8745 28.6297
Pt 26.9356 17.3361 23.7898
Pt 15.4606 12.6267 35.2673
Pt 13.4738 18.9385 21.5334
Pt 23.5246 32.3011 19.6843
Au 5.02155 36.027 24.9379
Pt 19.5614 23.6088 24.94
Pt 14.0771 9.32477 24.5746
Pt 16.8929 18.5322 25.0173
Au 12.4141 43.2887 35.4156
Pt 30.6911 38.5786 18.168
Au 31.155 48.2733 34.1476
Pt 19.4609 7.34941 36.9707
Pt 9.37554 36.0999 17.8972
Pt 31.6002 20.1611 31.4116
Pt 16.5698 30.2241 27.1965
Au 18.0554 13.6539 42.8166
Pt 19.0233 8.43066 34.6295
Au 2.64553 21.4855 26.5826
Pt 14.2434 17.7827 24.2221
Au 7.6859 34.65 33.4393
Pt 29.2244 19.074 25.097
Au 6.3666 26.9029 34.4223
Pt 22.0139 27.7574 37.2467
Au 6.48497 10.4973 19.0672
Pt 28.7003 34.519 28.9259
Pt 21.0725 16.3568 38.0482
Pt 14.5252 18.1551 34.6317
Pt 13.6483 11.7486 33.4659
Pt 25.7455 22.4306 17.39
Au 5.07203 11.1718 23.5895
Pt 9.87046 20.5455 25.9619
Pt 15.3336 7.94293 26.7759
Pt 28.1959 2.82266 18.4442
Au 4.27959 28.6956 18.2691
Pt 14.8752 7.55915 18.1311
Au 14.2381 35.9515 45.1621
Pt 22.192 6.98047 31.9675
Au 3.37479 21.0982 31.6235
Pt 8.85422 22.4377 35.6157
Pt 13.0618 34.9447 17.8533
Pt 10.8665 30.3051 29.765
Au 10.1215 41.0579 29.6881
Pt 16.1042 11.7235 21.6169
Pt 14.848 19.7922 36.9136
Pt 34.7906 14.4192 33.2863
Au 23.6952 20.1647 5.64363
Pt 14.5741 27.5689 23.6783
Au 22.5483 17.4557 4.75642
Pt 19.7709 28.0307 30.3158
Pt 35.8428 31.3211 25.9814
Pt 7.73895 18.9899 15.213
Au 15.624 4.14052 29.8935
Pt 13.5318 28.6435 14.5456
Pt 31.685 6.37854 26.3344
Pt 20.7517 20.7333 11.2574
Au 15.8622 16.1497 7.64883
Au 25.1124 28.948 10.7905
Pt 12.4702 10.7501 15.5185
Au 5.55247 14.4034 29.8488
Pt 10.8832 38.2083 34.0967
Pt 16.8547 29.8554 37.2696
Pt 17.2286 26.6455 13.7553
Pt 23.2715 26.4388 23.7694
Pt 17.3332 21.5282 17.4754
Pt 24.3771 22.6067 24.0332
Au 10.3145 6.35165 28.525
Au 22.0872 48.2802 28.1583
Pt 18.9885 31.3771 38.4267
Au 21.8047 22.5834 48.0645
Pt 17.1733 27.315 38.2989
Pt 4.21323 17.6297 21.3554
Pt 29.3599 3.21591 28.5712
Au 12.0897 12.4978 38.7691
Au 6.42834 32.7204 31.4352
Au 16.5347 8.94114 11.1399
Pt 20.1694 28.1358 41.4955
Pt 24.6696 15.8029 18.931
Au 25.9671 4.71283 32.9099
Au 12.7067 22.6397 11.0366
Pt 14.7373 19.1533 15.424
Au 32.4381 14.5235 11.2786
Pt 11.1925 23.6099 19.0978
Pt 12.9689 19.8681 11.9929
Pt 12.5829 17.4812 15.0177
Pt 14.0108 12.8758 15.5738
Au 8.38763 41.8782 25.642
Pt 21.0587 12.5757 10.222
Au 6.22754 11.9999 21.2936
Pt 25.6484 32.284 36.4488
Pt 19.1727 25.1763 10.6034
Pt 11.4647 10.8611 24.6118
Pt 20.1635 36.0083 17.5846
Au 14.6509 5.06171 16.624
Pt 18.6763 35.7605 14.9361
Pt 44.3922 32.8773 22.1451
Pt 7.42797 23.0959 22.0454
Pt 33.3458 45.3207 30.6251
Pt 10.1192 18.9177 16.6011
Pt 11.8517 30.8703 35.9321
Au 32.3132 31.1599 46.7016
Pt 10.4959 27.463 37.7964
Pt 16.1511 7.80327 23.9284
Pt 13.2952 16.1855 42.2268
Pt 19.2193 7.77433 29.0544
Pt 22.4919 9.56689 27.5551
Pt 25.6725 6.0409 17.4537
Au 19.3181 12.9174 45.8317
Pt 24.459 13.1234 18.4145
Au 4.09127 22.7146 33.7622
Pt 35.216 21.9793 23.6444
Au 29.2332 39.3148 10.328
Au 7.01087 27.309 31.7457
Pt 10.7591 22.4414 30.536
Pt 8.07938 30.8873 30.0643
Pt 23.6602 9.53549 34.5985
Pt 17.1471 21.0747 39.8428
Pt 24.8322 46.8755 22.7532
Au 4.21258 25.0934 29.5282
Au 22.8733 36.55 6.24558
Pt 8.87416 26.4478 29.4117
Pt 13.1369 21.3786 14.2012
Pt 16.1791 40.2334 32.8735
Pt 13.5304 11.2904 22.7574
Pt 19.359 27.4451 21.3933
Au 25.4502 22.2014 6.26155
Au 23.3211 47.3287 16.0675
Au 22.9476 22.3611 38.4
Pt 16.1349 15.9902 23.5707
Pt 22.7491 30.8071 13.0835
Pt 29.9878 42.0218 31.594
Pt 40.3348 23.7524 24.2967
Pt 24.4631 10.9397 20.6796
Pt 12.9075 15.4828 30.6333
Pt 20.335 42.1533 36.6345
Pt 25.2616 21.0844 37.8197
Pt 15.9883 25.4029 23.2689
Pt 14.8777 12.4735 38.3859
Pt 8.75829 32.4845 23.7218
Au 25.9902 40.4251 6.37626
Pt 17.7334 33.4616 24.2963
Pt 17.0097 43.6205 30.3533
Pt 20.888 13.5753 34.119
Au 5.58851 26.831 19.903
Au 17.3135 6.00138 38.0493
Pt 27.1385 26.6183 36.9623
Pt 21.0156 31.8518 15.7557
Pt 21.6796 18.4397 39.5949
Au 20.6407 11.7591 37.2001
Au 13.8563 28.8302 44.7986
Pt 7.51827 25.1853 18.0488
Au 30.9498 5.22231 22.2943
Pt 19.9833 37.3628 26.6289
Pt 7.34214 37.6496 25.1189
Pt 20.0306 26.6782 46.4789
Pt 24.8904 31.4571 14.5597
Pt 18.0932 40.9818 37.1216
Pt 17.2808 27.1808 11.2059
Pt 28.9577 30.292 18.708
Pt 27.9303 25.3811 23.9747
Pt 16.9688 24.2138 25.3758
Pt 13.1567 17.5821 29.0509
Au 23.5641 14.7037 5.14049
Au 18.4583 47.9315 25.0592
Pt 18.6196 10.6454 14.7789
Pt 14.7247 18.0657 18.9598
Au 11.0571 11.4405 34.2586
Pt 8.83803 21.959 24.0066
Pt 24.7302 27.9487 16.1002
Au 42.187 15.4447 37.453
Pt 31.1016 5.49528 28.8683
Pt 23.0729 33.8571 28.0095
Pt 23.7601 44.3552 22.7017
Au 39.0361 31.4467 42.9602
Au 29.3678 8.5535 39.2133
Au 20.8223 44.1678 22.6957
Pt 36.1098 18.1715 26.0279
Pt 25.1651 18.6491 25.8867
Au 10.2818 12.7713 12.7544
Pt 24.6914 8.20837 21.3562
Au 31.7578 34.6124 41.0047
Pt 16.3958 34.0491 31.4945
Pt 15.6433 23.7669 17.0813
Pt 10.0925 38.5798 18.8258
Pt 23.2961 25.4188 38.8142
Pt 37.2042 39.7588 17.8624
Pt 21.3177 4.70284 14.0425
Au 14.1126 46.8014 27.0076
Pt 12.1377 10.259 31.8808
Au 15.1263 18.7519 8.08166
Pt 18.477 19.7679 32.8894
Pt 35.1624 38.4845 27.6593
Pt 38.1136 30.4317 39.5571
Pt 34.0752 20.7064 30.1267
Au 14.3025 2.76773 27.9389
Pt 35.4197 26.576 20.3033
Pt 11.0147 33.1291 17.9857
Pt 21.5825 9.56317 11.2828
Pt 10.8691 29.9992 32.7644
Pt 15.2192 13.9054 17.5865
Pt 28.2313 28.0219 22.6588
Pt 25.7053 35.9223 22.7902
Pt 9.82367 33.0897 29.9884
Pt 12.2189 34.6376 30.1694
Pt 26.9514 32.5402 21.9557
Pt 26.5626 6.86304 31.1186
Pt 14.4155 26.7933 30.1599
Au 35.4037 9.96152 35.1002
Au 35.1477 30.8974 46.4064
Au 34.8725 37.456 5.84776
Pt 6.44957 16.7846 22.5594
Pt 17.3856 41.7039 19.3205
Au 3.71901 18.5063 17.0565
Au 10.4708 8.98058 27.5744
Pt 17.2393 36.7326 26.3906
Pt 11.367 29.9691 38.5716
Pt 26.3264 33.7374 30.0141
Au 23.6761 47.704 33.7891
Pt 31.0981 25.2936 38.8332
Pt 36.5222 36.7183 21.1534
Pt 24.6607 45.1087 20.4154
Pt 17.7158 27.2772 19.3473
Pt 14.1517 20.8524 34.3162
Pt 6.40148 31.8552 19.9464
Pt 22.7828 15.927 25.0634
Pt 23.2274 10.2568 37.6035
Au 13.7461 28.5035 7.68578
Au 22.3571 26.2359 41.515
Pt 19.5881 19.0999 13.1564
Pt 12.8004 22.6528 17.1473
Au 19.5849 46.3623 27.6299
Pt 12.8473 19.0166 41.2008
Pt 22.4282 43.5873 25.1928
Au 2.05272 20.1608 23.928
Pt 9.008 17.6733 32.4598
Au 29.3545 19.1645 45.9455
Pt 13.3634 39.7846 24.6082
Au 6.31881 17.9743 33.3404
Au 14.9074 3.48313 18.958
Pt 11.0984 37.4616 21.3448
Pt 16.3363 21.9764 32.992
Au 40.3468 45.8875 26.9206
Pt 13.9181 41.5102 26.4562
Pt 20.0351 26.7532 13.2793
Pt 22.5697 38.7198 35.2307
Pt 21.7521 34.4853 20.649
Au 10.3311 8.6777 16.3531
Pt 11.665 35.9518 27.6679
Pt 8.72095 36.8731 20.45
Pt 27.1274 41.4829 11.019
Pt 15.0024 24.1454 29.305
Au 9.38157 39.5043 38.0824
Pt 15.5688 23.1195 41.2717
Pt 28.2673 44.101 31.1104
Au 5.07778 13.0406 18.9843
Pt 14.809 20.3018 25.5807
Au 13.7884 11.6992 40.9495
Pt 36.4771 42.6321 33.8716
Pt 12.5097 17.4239 17.6573
Pt 34.095 13.5359 27.7902
Pt 19.1914 22.317 8.09387
Pt 16.0358 41.8765 35.3891
Pt 14.9786 9.88613 34.6261
Pt 11.7505 15.3239 38.0122
Au 23.1516 21.6907 43.8911
Pt 8.81101 34.9324 24.806
Au 36.3127 28.4657 12.497
Pt 14.6194 17.1606 31.73
Pt 15.598 17.2546 21.3099
Au 13.8249 37.5083 42.8311
Pt 10.0151 23.4117 21.6241
Pt 27.0345 23.3467 15.1343
Au 24.4212 8.9892 11.2076
Pt 6.49608 29.0582 23.8032
Pt 22.114 7.681 22.4078
Pt 10.6185 11.2238 17.4698
Pt 22.3707 18.8177 12.0452
Au 3.92322 15.2068 20.1385
Au 6.14409 11.8537 25.9669
Pt 18.1627 16.1967 38.1867
Pt 8.50866 18.6538 22.6627
Pt 11.4414 23.5459 35.5584
Pt 26.8539 29.8996 15.4274
Au 33.9893 30.0673 11.5797
Pt 19.8405 23.2563 29.6582
Au 33.7217 19.9446 6.34938
Pt 15.4432 24.4885 31.9733
Pt 13.8484 40.9935 17.4169
Au 46.666 21.6797 30.2897
Au 27.9821 7.04333 41.3114
Au 42.2417 10.492 27.3729
Pt 15.363 20.6387 42.138
Pt 22.9649 26.8047 13.8759
Pt 24.6897 7.44951 33.0565
Au 24.5517 2.6091 34.0604
Pt 22.8218 46.1249 18.6015
Au 32.366 32.6533 12.7768
Pt 25.3802 22.3798 13.1871
Au 10.1415 34.2669 40.094
Au 33.2696 13.0026 39.9054
Pt 14.4751 24.1223 37.1062
Au 9.02457 28.9835 28.1652
Au 19.9533 34.5436 10.1547
Au 32.117 16.2229 9.01981
Au 15.7236 21.4351 28.4828
Au 13.8834 35.4885 12.3433
Pt 35.0668 43.7009 26.6088
Pt 25.9209 26.5774 39.2988
Au 36.0822 13.596 25.8452
Pt 24.8523 16.3811 9.47182
Au 10.3044 33.1357 14.5696
Pt 6.84201 28.0926 26.4836
Pt 28.4713 30.716 32.869
Au 24.8278 10.5411 7.77378
Pt 4.26625 20.1555 22.2417
Au 11.8218 40.7577 34.3875
Pt 13.8935 14.3234 36.9863
Au 45.0555 19.0224 16.1739
Au 24.3157 39.1903 13.0288
Pt 18.5368 28.7235 23.7306
Au 20.6633 4.84257 32.2824
Au 27.7972 22.2679 9.83532
Au 38.6959 22.3615 45.332
Pt 11.6043 26.8802 30.2736
Pt 9.38948 32.225 21.1358
Pt 14.5802 21.9039 30.9658
Au 42.4242 20.7273 39.9422
Pt 19.0992 39.8204 20.0642
Pt 16.0401 13.3341 25.9169
Au 38.5632 18.4326 6.69758
Au 8.86558 7.85661 25.7711
Pt 23.8937 27.846 32.3161
Pt 17.5197 35.5339 17.4686
Au 13.0606 30.7873 43.0384
Pt 16.5094 32.2583 36.4163
Pt 16.8461 23.3128 9.02797
Pt 17.762 5.94111 22.9386
Au 26.4618 25.726 43.87
Pt 14.3294 27.0657 10.4844
Au 9.289 13.1535 33.2315
Au 32.8518 30.6521 8.33118
Au 22.2809 34.3621 4.40749
Pt 25.7864 33.5538 16.4853
Pt 20.5479 34.6692 12.9768
Pt 8.71455 21.2019 14.0912
Au 29.4538 25.136 19.5168
Au 33.1505 13.5244 8.81722
Au 9.88396 29.3514 10.3426
Au 15.1362 2.54222 22.6563
Au 37.6261 14.6043 9.53422
Au 32.7882 42.1854 12.4478
Au 24.2136 38.3676 41.291
Pt 26.1848 40.878 25.8859
Au 8.34014 36.6983 38.7611
Pt 30.0924 18.2565 30.5182
Au 18.9941 3.67066 34.2907
Pt 10.3361 20.2327 32.2015
Au 36.5645 20.2622 5.66775
Au 4.73557 32.5807 29.1912
Pt 11.9365 10.8045 29.3564
Au 40.0286 14.7697 35.9905
Au 33.0289 26.3948 46.1607
Au 27.7429 30.9623 6.9385
Pt 15.429 19.162 10.6585
Pt 19.3767 15.6306 19.3624
Au 34.8264 43.6951 19.1943
Pt 30.5028 20.104 33.7693
Au 6.33008 39.2616 29.1907
Pt 20.0827 23.8852 33.6681
Pt 18.1136 29.303 42.5364
Au 35.3466 19.4602 38.5468
Au 19.764 16.6875 40.443
Pt 24.0835 37.7986 28.9791
Pt 13.5367 15.7167 22.4852
Pt 37.794 25.8973 34.9325
Pt 8.5219 31.7801 18.4468
Au 26.6556 4.28706 30.2225
Au 31.2498 10.5116 13.1224
Au 34.1388 35.2881 3.42015
Pt 17.52 9.53218 25.4753
Au 29.7711 44.4091 27.4683
Pt 19.0424 31.5299 18.1221
Au 36.447 24.1008 43.357
Au 19.2678 4.55384 36.8358
Au 41.6727 21.5183 23.4097
Pt 11.4569 30.2664 27.0738
Pt 17.2529 31.7722 41.8119
Au 37.0207 18.6155 15.7928
Pt 18.785 25.051 39.049
Au 39.3766 8.03634 19.7524
Pt 20.6409 16.845 26.1401
Au 38.8144 21.1725 23.3565
Au 25.9646 1.9572 28.6561
Au 40.195 27.2342 6.67537
Pt 19.8917 39.6655 33.9069
Au 40.0611 18.6577 9.85394
Pt 10.8235 30.5722 19.2233
Au 4.25343 15.395 17.4434
Pt 11.4023 30.4115 21.863
Au 32.0818 33.1239 7.44481
Au 42.4195 14.3804 20.5894
Pt 17.4222 10.6809 34.5711
Au 28.6117 16.6021 46.8256
Au 38.4118 12.1655 13.5446
Pt 10.4645 34.4706 32.2436
Pt 10.7951 20.3729 23.3346
Pt 17.8053 27.033 40.8739
Pt 35.5545 36.4791 32.3189
Au 18.211 8.28908 39.2375
Au 30.5968 1.1226 26.9232
Pt 24.0834 22.8086 29.7016
Au 22.89 14.5737 43.8921
Pt 17.2531 17.0437 35.8229
Pt 15.5455 10.6915 26.7814
Pt 21.4994 3.25355 21.0601
Pt 8.70706 13.6238 21.9851
Au 12.3971 12.7467 10.6351
Pt 20.5066 30.343 11.4264
Pt 26.4899 14.0048 17.029
Pt 27.9948 42.3449 33.397
Au 38.5772 16.6943 31.3873
Pt 11.8833 32.8626 28.1927
Au 9.43418 8.07352 21.1285
Pt 33.3656 36.5574 40.2535
Au 37.6026 33.0945 8.97463
Pt 30.844 44.1501 30.0813
Au 40.0871 14.1142 38.7076
Au 30.8928 22.0098 1.25367
Au 41.8693 21.9571 35.489
Pt 17.869 35.6187 33.2199
Au 37.3376 29.3086 10.0002
Pt 14.5892 37.8445 13.8734
Au 35.9741 40.4624 29.6843
Pt 15.1859 31.1932 31.4212
Au 45.9904 23.7433 26.159
Au 44.175 30.2759 31.6459
Pt 24.6779 37.8328 15.5861
Au 48.3994 29.3953 19.0295
Au 36.8385 16.3235 33.7126
Au 25.0064 41.9131 12.7567
Au 19.4423 31.7608 43.6228
Au 38.7976 23.7546 22.0062
Au 33.823 39.6255 11.5097
Au 42.7756 25.145 23.7791
Pt 32.5235 19.3352 35.0827
Au 38.6 11.6995 29.594
Pt 13.3352 21.7151 40.8496
Au 37.7425 29.532 14.6856
Pt 18.9271 26.0763 34.3453
Au 30.6833 16.0881 12.7717
Au 29.0537 35.8216 41.0049
Au 14.1271 8.62629 12.4156
Au 6.07786 26.3911 37.1096
Pt 29.1408 7.10012 31.6023
Pt 12.8381 15.0016 16.5419
Pt 14.8739 22.0959 38.7042
Pt 10.8497 11.7866 22.1953
Pt 28.4849 12.7396 26.927
Pt 26.7815 38.3965 29.398
Pt 21.5337 25.7785 35.1114
Au 16.9107 47.1257 27.286
Pt 20.9403 37.2195 33.4236
Au 18.1212 2.99326 29.6672
Pt 17.6811 13.634 23.4505
Au 38.1494 39.1383 8.81579
Au 24.9495 18.913 3.5696
Au 42.8047 23.6741 14.584
Au 19.0057 20.2254 6.2001
Au 24.584 12.4888 15.6197
Pt 18.2754 15.9311 21.8283
Pt 24.99 27.1271 18.605
Pt 31.7762 32.1683 15.4166
Au 36.2306 26.4196 9.4997
Au 33.2297 28.1499 40.6942
Au 29.6648 33.6939 16.1167
Au 35.5681 34.4383 10.3842
Au 29.1592 30.5928 3.98245
Pt 16.0911 21.9943 24.0425
Au 31.5312 9.77903 43.9326
Au 37.731 15.3044 39.357
Pt 19.2453 41.6014 26.7768
Pt 17.864 33.3144 14.0017
Au 7.47586 38.1154 18.2385
Pt 16.0741 33.7174 22.229
Au 43.5482 22.9331 33.3052
Pt 10.6102 6.9724 23.3505
Pt 10.5149 18.901 20.9464
Au 29.5623 41.0288 36.2395
Au 23.6024 26.8289 49.2988
Au 7.25272 31.7963 36.8697
Pt 18.4103 34.1182 42.6372
Pt 40.2135 17.1035 29.1436
Pt 7.17623 23.3614 33.4569
Pt 15.067 9.87543 31.8873
Au 35.4749 10.0356 16.6154
Au 31.9157 45.1968 25.8187
Au 43.445 11.4755 25.2119
Pt 24.4305 15.1812 41.3316
Pt 13.227 29.8239 23.956
Pt 19.8086 36.6566 20.1828
Pt 11.1281 28.1528 23.4426
Au 7.31821 12.7963 31.3362
Au 5.52291 37.4949 27.2626
Pt 11.7254 8.29836 25.1902
Au 15.9111 6.12991 31.9812
Pt 11.5134 35.291 24.683
Au 26.2959 0.209057 26.5494
Pt 27.1987 43.8618 28.541
Au 12.4119 6.13549 33.8662
Pt 18.8615 20.957 28.5985
Au 37.7071 22.9539 7.78727
Au 7.02221 23.7419 37.6854
Au 8.95425 19.1222 12.4396
Au 23.2488 12.6848 41.7874
Pt 12.9441 37.214 23.4127
Pt 30.8976 31.3528 20.5402
Au 33.7148 31.0313 41.3836
Pt 12.9253 37.3031 29.8182
Au 35.5758 48.4917 22.4047
Au 11.8948 38.0665 14.6113
Au 27.9177 39.1031 4.499
Au 5.04061 28.7736 32.9602
Pt 19.8077 37.3435 13.0524
Pt 32.0247 37.9832 20.4269
Au 10.9228 14.9646 11.1699
Pt 21.2931 21.2794 33.2826
Pt 24.5645 22.2515 35.0585
Au 16.0977 44.7441 16.1873
Pt 17.2422 20.6351 30.63
Pt 18.7057 33.9947 29.9108
Au 28.8167 20.7216 41.2289
Au 29.6476 38.9855 41.2952
Au 27.6298 18.5255 42.1648
Pt 34.1965 30.506 35.8961
Pt 20.1035 39.4381 28.4353
Pt 7.54513 14.1413 26.2471
Pt 16.083 37.1166 15.8692
Au 19.2444 5.18818 25.3168
Pt 11.2663 32.5376 33.9811
Au 34.4253 41.7649 7.24803
Pt 7.06813 33.8902 21.5275
Au 6.81053 9.3343 22.0944
Pt 26.5384 41.2238 28.5087
Pt 16.0303 29.4928 24.6862
Pt 18.1141 25.0469 31.9545
Pt 22.8039 39.3825 16.4335
Pt 6.34837 25.3913 22.595
Pt 15.4261 28.5403 12.5713
Pt 15.9236 34.5286 26.0297
Au 14.6279 38.8957 9.87555
Au 32.0256 28.2479 9.40761
Au 24.0637 3.99896 36.2656
Pt 22.8377 16.5928 21.0523
Au 11.7908 27.538 9.39875
Pt 24.3319 37.8836 24.4006
Pt 10.6623 25.9508 25.0835
Pt 19.0586 43.8476 20.193
Pt 22.3326 37.2432 31.0767
Pt 11.7132 37.9149 25.7269
Pt 21.8562 43.9279 20.0674
Pt 28.2509 30.1968 44.8461
Au 22.8417 46.2866 13.5711
Pt 17.3699 39.5033 35.0731
Pt 8.2199 27.1202 24.2053
Pt 32.379 12.0536 22.7135
Pt 16.22 31.5613 39.3022
Au 33.7739 47.994 20.4423
Au 28.88 48.6624 24.7821
Au 8.36944 31.3063 11.6491
Au 39.9538 20.6426 11.7976
Pt 7.87618 36.9331 28.7399
Au 8.18889 17.0788 35.1375
Pt 34.6067 43.102 29.8265
Au 12.9474 45.0158 28.5871
Pt 34.3991 41.1219 31.8192
Pt 29.3188 43.519 35.3263
Pt 14.6797 17.8882 26.8832
Au 43.2477 24.2534 43.1571
Au 35.3129 6.87609 38.3094
Pt 31.402 38.8662 35.8268
Au 26.3942 43.6374 42.038
Pt 24.1273 30.2707 35.3904
Pt 22.3273 17.4152 9.60759
Pt 16.2366 42.092 16.8297
Pt 18.6889 34.9745 22.0136
Pt 21.0088 25.5654 22.4384
Pt 22.5896 32.5663 22.6449
Pt 20.7868 43.4397 15.3264
Pt 16.8299 44.2846 18.7869
Pt 26.3409 15.5934 14.8115
Pt 24.7441 18.6457 30.2437
Au 20.8027 12.9412 43.6275
Pt 8.04269 24.9505 35.5635
Pt 11.5146 21.3561 20.809
Pt 34.3972 11.2076 26.4185
Au 11.1213 24.743 9.27275
Pt 35.7443 17.4744 28.7834
Au 6.3437 13.9046 23.5201
Pt 14.573 35.9279 31.2143
Pt 17.7044 32.6891 27.0315
Pt 23.4528 24.1825 36.4412
Pt 23.1206 36.7997 22.1304
Au 22.395 27.1308 6.74256
Pt 21.4918 15.7379 31.4083
Pt 27.5516 8.62395 29.1429
Pt 14.8573 25.8045 12.7166
Pt 16.4957 22.8264 19.5234
Au 40.2675 18.9249 22.4401
Pt 14.9387 13.4929 23.4551
Pt 19.7712 19.7564 8.87353
Au 25.88 40.2184 46.3054
Au 14.5773 40.5976 39.8147
Pt 20.7724 15.356 10.4559
Pt 5.65437 20.9268 30.1165
Pt 28.1953 5.45383 22.2837
Pt 10.8162 21.9478 15.4833
Pt 14.8884 19.2731 29.9655
Pt 24.5176 26.3125 21.1099
Pt 18.0877 14.7107 40.3854
Au 10.8482 7.32861 18.7682
Pt 23.686 34.659 18.2961
Au 14.3457 6.52044 14.2604
Pt 25.8994 13.1476 25.4974
Pt 18.385 11.1124 17.6549
Au 8.88673 10.9515 26.0785
Pt 8.65653 25.8323 26.7629
Au 35.8987 11.1646 37.8275
Pt 17.7591 17.8299 19.7028
Au 6.30942 33.6684 17.7106
Pt 20.1842 9.52044 18.7521
Pt 33.2535 18.0474 30.4648
Au 29.1009 46.1507 39.0723
Au 17.38 25.789 46.3236
Au 38.4794 10.5018 38.3722
Au 37.3402 30.9704 12.2286
Au 30.3339 17.821 10.6592
Au 46.1014 33.5925 28.4291
Au 23.6096 11.7175 44.4604
Au 8.04504 40.0814 20.1441
Pt 15.1672 5.23976 23.1556
Pt 18.5761 12.7704 35.8018
Pt 26.6838 34.4765 39.7414
Pt 45.5869 18.1654 23.2039
Pt 22.6343 19.4577 42.1835
Au 3.50774 19.5182 28.8628
Pt 6.35893 19.1412 20.8424
Pt 15.7976 14.4486 21.2698
Pt 12.4931 19.6006 19.105
Pt 11.1231 39.3226 23.3652
Au 26.877 27.6065 12.4819
Au 4.37456 28.8828 25.4445
Pt 25 38.9593 34.0955
Au 34.0785 26.0166 2.10974
Pt 9.21904 30.7701 14.0882
Pt 22.3086 39.6524 29.7315
Au 33.6733 47.9439 29.5521
Pt 22.0468 11.2336 29.8778
Au 33.7116 34.9444 6.01427
Pt 14.4183 17.6919 12.8913
Au 27.2126 24.7127 12.7127
Au 31.7301 13.9927 17.653
Pt 21.5255 10.5493 20.8711
Pt 20.2202 15.2925 16.9769
Pt 18.6592 30.7313 15.1756
Au 44.0447 40.3675 25.7482
Pt 12.2929 32.6151 39.2245
Au 5.11684 19.5694 15.0269
Au 38.454 34.9489 16.9072
Au 41.4064 17.5576 32.8967
Pt 27.4013 6.94137 33.6842
Au 25.6206 43.0577 15.522
Au 30.9497 35.1606 5.74514
Au 20.1353 1.17401 22.6266
Au 10.2893 14.3011 39.9435
Au 32.676 7.42542 39.1433
Au 19.3458 45.7516 34.6246
Pt 13.0759 9.73401 27.0362
Au 7.69796 21.0637 37.717
Pt 14.9404 9.21246 21.9511
Au 45.8006 25.7189 19.2681
Pt 14.7265 5.32935 27.4218
Pt 26.8575 14.8099 27.3666
Pt 28.0402 14.4552 24.5793
Pt 25.4072 3.1891 23.2351
Pt 21.7981 14.9916 14.9677
Pt 28.8574 9.0464 33.5214
Pt 18.4137 32.8658 34.4373
Pt 14.5306 24.3602 10.2523
Pt 8.69842 39.3749 27.6862
Pt 7.88432 21.1901 28.2602
Au 42.5477 36.037 26.6417
Pt 14.9519 36.2574 21.897
Pt 13.6493 26.437 32.5995
Pt 34.0142 41.2952 27.8643
Pt 18.0833 44.8418 22.5562
Pt 19.5855 39.7313 22.7064
Pt 17.7709 40.6992 24.4551
Au 31.7875 41.8828 7.73272
Au 24.8567 17.8749 41.8922
Au 41.5036 23.9176 21.6202
Au 43.0878 26.2644 18.9983
Au 39.5161 13.5047 11.3858
Au 43.3701 27.9655 23.8597
Pt 24.0222 28.5981 22.3991
Pt 17.2575 22.148 13.0033
Pt 26.5027 9.4139 19.7428
Pt 17.8571 7.9762 18.5383
Au 25.5377 13.469 43.3832
Au 47.0629 29.4729 16.7986
Pt 7.67968 27.5474 21.6948
Au 39.0843 9.221 30.8687
Pt 23.1297 41.8919 22.7422
Au 38.9213 34.5434 14.1074
Pt 4.64548 20.5441 24.8957
Pt 9.16195 30.7693 34.6862
Pt 12.2589 13.4752 23.7323
Au 25.5914 17.0052 12.4035
Pt 29.9145 17.687 35.1108
Pt 30.5267 44.9462 37.2333
Pt 22.8453 25.2909 19.2693
Au 35.3283 34.0918 44.2028
Au 4.9085 25.4756 32.5568
Pt 21.7804 22.9497 31.3749
Au 24.968 8.26674 26.3268
Pt 13.3558 30.2801 19.9539
Pt 6.80702 31.3354 22.4737
Au 5.00265 14.268 27.2739
Pt 22.2211 28.4176 25.7355
Au 22.1403 30.1627 21.3185
Pt 16.5706 31.0467 13.4611
Au 17.1629 5.54827 35.3274
Au 34.8128 17.7892 40.8914
Au 45.8901 34.0308 23.9789
Au 35.1634 11.5568 9.20535
Au 4.08181 30.1591 22.8637
Au 19.1431 4.6384 12.1771
Au 8.00232 11.1879 16.8218
Au 34.984 38.7457 16.5255
Pt 7.08756 35.4156 26.7316
Au 30.819 28.3737 4.33474
Au 39.7131 31.8166 5.26293
Pt 7.24797 31.5284 16.1056
Pt 31.1847 45.0544 23.0587
Pt 13.9767 41.9229 33.452
Au 36.3547 23.0588 13.0796
Au 11.2684 6.0281 31.1183
Au 26.343 24.018 8.09356
Au 30.7969 13.2903 38.2735
Au 40.433 39.3515 32.9552
Au 41.2935 25.2813 17.0677
Au 40.5016 29.9307 14.7461
Au 39.4541 24.5855 6.14359
Pt 15.1154 29.7435 22.0621
Pt 20.8523 41.7411 24.1261
Au 13.1207 11.4243 36.295
Au 17.4992 1.55585 21.8047
Pt 31.6654 35.1407 29.31
Au 36.5744 25.113 39.1579
Au 21.4104 24.0818 7.22861
Au 31.4459 44.8684 39.9878
Pt 17.5376 20.0087 14.6741
Au 23.2708 15.952 46.5746
Au 26.8074 9.40968 40.5974
Au 35.6922 29.4052 40.3585
Pt 15.2487 18.0006 42.3793
Pt 15.8553 14.9889 38.9677
Au 29.8677 21.177 36.4284
Au 10.6456 25.5433 39.945
Pt 22.0407 27.4745 20.6566
Pt 11.2383 14.5052 21.5099
Pt 18.375 29.609 7.55795
Au 1.91841 17.4586 23.8657
Pt 24.093 40.612 28.0657
Au 32.4779 28.3555 6.63752
Au 8.92456 39.9135 35.2674
Au 30.9162 17.58 19.0065
Pt 34.025 25.0528 27.5355
Au 26.716 37.0439 9.50875
Au 11.6284 17.4359 12.3112
Au 31.9813 30.4545 3.04557
Pt 15.5837 21.8017 15.3055
Pt 24.894 11.572 33.3077
Pt 34.4202 46.2801 25.6197
Au 16.2495 41.9688 11.0212
Au 39.6254 42.8415 33.7448
Pt 9.31645 31.6457 27.771
Au 44.8906 19.7327 30.3121
Au 26.0805 25.8954 48.8138
Au 5.41258 38.1371 23.3333
Au 34.5189 8.05023 14.8491
Pt 33.8797 24.6794 24.3272
Au 25.885 8.23758 9.06158
Au 44.0971 24.7603 38.5368
Au 42.9313 19.1916 34.6248
Pt 14.2552 34.871 42.4802
Au 39.5243 14.3942 24.6413
Au 36.8479 40.7733 15.2982
Pt 13.5152 29.4907 10.4756
Pt 22.1763 30.7694 18.1682
Au 41.729 27.1729 36.8408
Pt 27.2477 41.608 30.9925
Au 20.895 29.2863 43.9309
Au 38.4574 13.2049 27.0466
Au 36.2381 19.3057 2.88423
Au 26.5003 4.52612 37.9373
Au 30.4493 6.80354 34.2025
Pt 12.316 19.3113 36.0638
Pt 28.3575 15.472 34.6642
Au 13.4817 24.8244 40.2211
Pt 37.6326 34.9181 32.1922
Pt 9.92517 35.0219 37.4953
Pt 9.80559 22.8974 33.1369
Pt 8.30626 21.1103 16.7484
Pt 26.0124 12.1705 27.8968
Au 33.9602 46.244 18.5284
Pt 7.76794 17.1754 20.1906
Au 10.5746 8.1699 32.4939
Au 16.3705 10.8158 7.10117
Pt 15.5286 32.0718 24.8172
Pt 23.3574 25.6279 16.6502
Au 13.5372 4.18652 21.2274
Pt 13.1315 30.2558 40.3852
Au 11.0713 43.8871 30.1891
Pt 16.7329 25.4479 36.4858
Pt 35.1947 31.9523 39.1351
Pt 13.2976 20.0562 27.7821
Pt 15.5012 40.2344 28.424
Au 29.2357 28.8943 14.0549
Au 18.1224 29.0921 4.91006
Au 33.8401 28.0953 13.8705
Au 29.35 39.3819 15.5516
Au 46.1235 31.2077 19.0271
Au 43.4896 37.5624 21.8807
Pt 7.24616 23.4069 26.5834
Pt 17.035 26.5877 16.7833
Au 29.2106 23.8663 47.1632
Pt 28.547 32.67 19.8856
Au 37.5272 37.6142 15.9233
Au 24.8285 25.7905 1.82564
Au 46.4542 19.4842 28.0204
Au 19.0329 24.4221 44.4597
Au 34.955 38.4575 41.9966
Pt 8.78233 25.6219 33.2104
Au 33.8315 31.5034 44.1978
Au 19.6866 30.676 48.7618
Au 33.0898 11.226 42.2066
Pt 6.20416 19.7352 17.7248
Pt 12.5486 27.5782 39.5957
Au 35.598 13.7575 7.58042
Pt 21.5945 20.2513 19.8509
Au 44.4787 21.1717 35.3709
Pt 24.5325 45.2398 28.366
Pt 12.6434 26.2223 14.024
Au 32.4638 48.8769 36.4903
Pt 20.3418 28.4027 35.1409
Au 19.3037 2.17303 17.1978
Pt 18.1365 38.2871 32.5606
Au 21.1017 21.0222 40.3912
Au 13.9828 43.9122 31.0286
Au 29.4116 24.1897 10.781
Au 28.045 28.0773 3.87216
Pt 17.7569 16.7106 42.7829
Au 30.8653 8.46856 18.5154
Pt 5.86851 20.8378 32.9219
Au 27.2692 36.4844 4.65248
Au 9.70966 13.2815 24.7653
Pt 20.79 44.7287 17.6935
Au 41.8297 42.3224 29.3938
Pt 20.4295 39.5948 25.4443
Pt 17.1865 31.1609 22.8556
Au 9.45417 10.671 31.8385
Au 30.3632 32.6234 2.57664
Au 26.7128 19.5671 27.9535
Pt 22.0633 15.2824 18.8481
Au 33.614 8.59619 18.8992
Au 18.0924 43.7569 36.665
Au 23.6246 42.8263 9.75863
Au 20.6308 2.42112 12.8587
Au 37.8344 12.6795 39.7788
Pt 10.8798 18.6545 27.8396
Au 22.1297 13.1617 46.1795
Pt 11.8688 33.5146 36.6329
Au 18.942 26.8522 3.59751
Au 7.84027 11.5818 23.5788
Au 34.1649 45.5662 39.5715
Pt 19.6003 13.8639 28.6159
Au 27.9207 45.7937 36.6156
Pt 23.744 36.246 26.795
Pt 25.1874 24.9686 24.888
Pt 16.1218 12.3523 32.4795
Pt 20.7219 32.0407 20.1569
Pt 15.3007 27.8035 36.0664
Pt 8.03655 15.6082 15.7134
Au 15.0784 21.5848 7.67644
Pt 38.5878 25.5911 17.6594
Au 11.7434 43.7916 32.8712
Au 22.6664 21.6405 13.4581
Pt 20.4426 29.4488 16.8142
Au 21.6228 18.1092 46.8921
Pt 28.7301 25.929 26.5028
Au 3.77698 25.2038 21.2608
Au 16.9824 25.0491 42.5396
Au 21.2223 28.1892 4.14549
Pt 9.79992 24.3394 37.4687
Au 17.535 46.4673 20.2547
Au 2.56185 17.3854 19.1631
Pt 14.4614 39.7024 35.0927
Au 23.3628 35.9057 8.88976
Au 6.80258 9.33935 24.8689
Au 42.8914 42.4954 24.6436
Au 37.2057 24.4862 19.8079
Pt 19.4513 30.1881 21.7844
Au 23.6977 43.0203 43.3603
Au 25.941 32.4215 41.5361
Pt 14.4522 34.3053 20.0482
Pt 32.5775 25.8115 36.1921
Pt 6.47329 14.7712 20.8603
Au 31.7421 46.2576 28.5864
Pt 32.8742 26.5911 30.382
Au 19.546 2.40216 31.9909
Pt 9.42517 34.5688 27.8255
Au 15.9875 37.0273 11.4028
Au 20.8942 10.8131 41.9439
Au 21.0812 39.2992 46.1324
Pt 33.6381 17.3405 22.3258
Pt 12.393 24.4101 26.2253
Pt 28.9571 40.7889 39.1374
Pt 35.0039 34.8164 34.3824
Pt 23.5742 16.0021 36.894
Pt 13.6608 33.5916 32.4016
Au 28.5215 30.4003 40.3228
Pt 18.2319 24.3911 18.049
Au 16.087 42.4685 38.2576
Pt 34.5794 41.4073 16.941
Pt 25.4455 33.8551 13.6154
Pt 18.9696 30.2966 28.2076
Pt 20.4801 13.2049 31.1583
Pt 11.857 36.399 36.4168
Au 41.1573 42.4664 22.5036
Pt 14.4381 30.886 15.7172
Au 19.5485 35.9163 47.4911
Pt 14.8904 26.3456 15.382
Pt 13.3803 7.12571 22.7301
Pt 16.0842 38.0093 39.653
Au 9.03233 15.2141 37.4494
Pt 19.477 44.275 29.6454
Au 42.2307 26.7812 43.2649
Pt 6.10978 23.244 28.9685
Au 12.383 9.01528 34.3701
Au 3.05901 22.6483 24.104
Au 35.9253 20.6674 8.36481
Au 11.9918 35.5425 43.7937
Au 23.463 41.0503 45.248
Pt 24.5383 41.476 35.3778
Au 36.2449 21.034 36.469
Pt 13.8951 31.0739 37.6729
Pt 20.2523 17.787 20.8076
Au 18.4755 20.2308 44.9275
Au 42.0066 25.008 34.7183
Au 9.92414 10.7211 14.6336
Au 25.3403 45.0671 36.9923
Pt 14.2267 23.6176 34.3118
Pt 16.6589 12.1413 15.7801
Pt 30.1544 32.8935 33.263
Au 41.899 37.6699 12.663
Pt 11.1667 41.6223 24.9813
Pt 25.8844 33.4962 19.1639
Pt 17.0562 17.4775 40.3033
Pt 33.1543 39.8438 18.5679
Au 23.5017 27.8263 44.4297
Au 28.1872 2.68184 22.4224
Pt 36.9412 10.6603 26.3339
Pt 25.4132 15.9918 25.5342
Au 7.01458 17.2654 13.2841
Au 23.7018 22.3398 8.26348
Pt 12.852 28.5144 28.587
Au 5.70694 17.0102 15.8406
Au 14.7861 3.42529 25.2246
Pt 20.3351 5.79496 22.6861
Pt 9.84679 28.4659 25.7213
Pt 14.6734 23.0984 12.8163
Pt 11.8819 13.335 32.1592
Pt 13.9384 15.2128 25.1893
Pt 15.4119 20.26 13.0325
Pt 28.1405 19.7641 34.5905
Pt 15.8663 13.7237 10.7015
Au 14.8943 4.64063 34.0985
Au 7.71925 15.3105 32.7764
Pt 16.7162 15.3671 31.6116
Pt 40.6497 12.3537 20.057
Pt 27.2806 10.7479 21.9054
Pt 10.0219 25.9425 22.4951
Pt 25.6818 21.4006 22.0114
Pt 28.1579 21.2957 26.3654
Pt 40.4258 26.6304 25.5538
Pt 25.7293 6.47293 28.6059
Pt 16.9031 26.8838 30.5136
Pt 27.7569 6.36038 15.7182
Pt 21.3299 34.8199 23.254
Au 29.6245 1.20882 20.4943
Pt 16.4529 25.5615 27.8291
Pt 10.9919 15.8929 28.8062
Pt 33.7178 11.2889 29.0996
Au 42.7746 20.3746 32.0613
Pt 25.7914 15.6999 33.4936
Au 29.1712 10.706 11.1524
Pt 24.6619 8.48767 39.1663
Pt 12.6839 16.5114 35.7359
Pt 19.4461 15.347 35.8289
Au 14.8214 33.7703 9.00591
Pt 19.0893 5.05058 28.0655
Au 42.2303 25.0967 31.9415
Pt 23.4917 4.41363 15.93
Au 31.1667 43.3986 10.079
Au 31.599 40.6543 10.2924
Pt 23.6519 9.94716 15.5725
Pt 15.0001 15.6058 34.7505
Pt 21.4529 30.4454 36.6581
Au 32.9411 17.3058 6.60672
Au 18.8616 11.9408 40.4898
Au 35.608 7.38671 17.3516
Au 25.9776 16.2421 46.9446
Au 35.4324 40.6744 40.7078
Au 4.24044 26.5372 26.9094
Au 23.4566 26.325 4.19828
Au 30.7607 24.2518 13.2251
Pt 25.5018 7.78748 13.7095
Pt 26.1406 26.2743 32.3651
Au 7.90585 18.1081 37.8032
Pt 24.4437 10.8118 25.6144
Au 45.0862 35.322 26.1326
Au 41.6585 15.8536 23.4167
Au 31.524 3.96888 33.2383
Au 35.2805 12.8434 35.6431
Pt 7.10765 18.3121 24.7225
Pt 17.2072 14.4672 34.0687
Pt 11.6846 16.7771 40.2103
Pt 17.2427 9.25137 28.1893
Au 19.0535 10.3322 7.01848
Pt 29.5293 6.44037 24.4689
Au 35.4272 4.2283 24.1501
Pt 24.0697 23.4151 27.1099
Au 36.9044 23.8244 10.3178
Pt 27.9095 32.1842 24.7619
Pt 21.4079 22.2446 15.7285
Au 11.393 23.4088 41.5605
Au 21.3439 5.98982 29.5918
Au 8.69216 15.0435 12.9854
Pt 19.0224 34.9348 27.3342
Pt 17.5006 25.1608 20.8987
Au 42.2893 29.6062 29.2627
Pt 18.3347 20.8241 37.1465
Au 29.6733 29.1218 1.76878
Pt 13.9652 32.7785 35.4543
Pt 28.4682 39.7103 27.7634
Pt 29.1526 9.49425 20.4034
Au 31.1188 21.4641 13.2184
Pt 12.0259 27.3084 16.3954
Au 18.7552 37.1799 10.3458
Au 44.014 34.2661 15.1114
Au 35.5048 13.8192 38.2723
Au 21.0225 22.0796 2.94281
Au 40.227 21.4233 20.9711
Au 11.7906 30.3497 8.63196
Au 31.984 30.109 13.8098
Pt 9.0929 15.0268 19.7013
Pt 25.5839 11.4806 11.587
Pt 21.969 18.271 30.2409
Pt 21.5402 5.80806 20.3582
Pt 20.7506 40.9788 16.2434
Au 7.45951 35.3343 36.3751
Au 27.1595 38.0002 14.58
Pt 24.0181 17.1637 39.4378
Pt 33.2719 22.317 32.2178
Pt 12.1923 16.9084 26.4039
Au 40.4622 43.6394 25.0463
Au 42.4975 39.828 31.0122
Au 13.1538 17.6219 10.0214
Au 22.7328 40.9235 40.0801
Pt 6.35441 18.7571 28.9243
Au 30.7103 18.6972 37.3523
Au 31.7373 25.6644 10.7225
Pt 30.4981 13.1958 25.0381
Au 40.5447 30.3456 40.7842
Pt 14.2582 35.652 28.2892
Pt 8.80068 20.9297 21.3859
Au 20.6646 12.5187 6.14434
Pt 7.86037 17.6024 17.4582
Au 33.6328 22.4905 17.4213
Au 30.333 33.1828 10.7919
Pt 37.9842 16.5729 27.4857
Pt 18.4674 41.9427 34.3865
Pt 13.5074 14.4338 40.0338
Au 26.2312 28.5967 6.34051
Pt 20.9874 24.5744 17.2933
Pt 15.5964 19.5504 32.5124
Pt 16.2125 24.937 39.5667
Au 42.8715 13.2729 30.2559
Au 38.3646 16.4189 20.1784
Au 33.2731 13.4504 25.0881
Au 24.324 0.566341 24.6777
Au 43.5596 26.1325 10.0036
Pt 17.8805 18.5215 22.3712
Au 27.773 26.3146 7.40878
Au 33.5894 22.7042 13.4176
Au 30.3602 13.9454 22.5199
Au 37.6692 36.2405 9.62217
Au 15.7309 46.7144 18.1446
Pt 16.7833 8.13122 36.1311
Pt 16.8251 24.4541 11.5817
Pt 16.8849 19.653 35.086
Au 33.4659 26.4307 16.1474
Au 41.8461 22.1746 42.3762
Au 21.6246 3.46198 34.9473
Au 28.2496 37.073 22.1221
Au 34.2978 33.178 14.9816
Pt 13.4823 30.9961 29.1922
Pt 22.5655 3.56759 18.6139
Pt 8.44341 24.4866 24.2081
Pt 14.8976 32.4929 27.4301
Pt 9.45386 9.47651 23.5473
Pt 24.21 17.5825 34.8677