3871
Atoms. Timestep: 21672
Au 17.6314 6.57225 20.2458
Pt 19.9166 15.019 26.226
Pt 23.6843 12.2583 28.2502
Pt 14.5487 14.8925 34.3131
Pt 11.3613 18.2403 22.8887
Pt 23.692 32.9053 23.6431
Au 5.16303 30.9768 13.814
Pt 26.0434 26.8988 21.5614
Pt 27.5336 5.67932 23.8783
Pt 28.0917 4.78114 26.304
Au 22.5466 33.2471 39.6338
Pt 26.2641 31.2618 21.8784
Au 31.9462 39.9915 39.4824
Pt 28.9474 7.31779 37.5598
Pt 14.9713 28.9401 13.4888
Pt 28.7004 5.39794 33.9525
Pt 26.5602 32.7863 29.7246
Au 18.3058 6.6233 35.7628
Pt 20.7994 17.4664 39.5839
Au 5.60761 13.5137 27.3604
Pt 9.30811 31.2024 22.7772
Au 7.48498 35.259 35.7319
Pt 37.752 8.62956 23.4269
Au 14.3387 29.6737 46.4345
Pt 22.17 12.0315 22.5572
Au 18.9047 4.49235 24.9494
Pt 13.0764 23.4972 20.4125
Pt 33.5975 10.6297 32.3692
Pt 9.64743 16.548 19.2134
Pt 21.2451 17.704 44.747
Pt 21.1746 22.0942 16.2893
Au 10.9227 9.57512 19.189
Pt 12.9853 27.9392 35.6722
Pt 15.0848 15.3524 27.2832
Pt 18.1738 9.94635 14.285
Au 6.92322 18.5422 11.4427
Pt 35.9146 11.7108 17.6215
Au 25.569 28.3128 48.9928
Pt 22.664 11.0529 38.3203
Au 12.3089 10.5908 33.9934
Pt 13.8314 13.6937 29.1924
Pt 16.9664 37.8757 16.1816
Pt 10.2628 28.4424 26.5173
Au 2.91965 29.3276 30.3392
Pt 18.204 24.2135 20.9236
Pt 16.9243 26.9767 35.6569
Pt 31.5374 15.7681 34.859
Au 19.0376 30.7848 6.57587
Pt 23.3102 16.0796 10.2752
Au 6.74518 14.7949 29.5227
Pt 21.447 18.5755 24.9173
Pt 27.6999 22.4875 33.0431
Pt 9.90379 13.8404 19.354
Au 26.365 3.23194 24.8524
Pt 17.3286 37.7507 13.4105
Pt 28.6935 12.3161 35.9158
Pt 28.7809 28.2021 18.3236
Au 13.8541 14.1738 11.0446
Au 25.5644 32.2238 -0.000744694
Pt 10.7633 23.1511 25.2651
Au 1.82767 25.5895 23.1626
Pt 17.1925 28.0048 38.0068
Pt 12.2112 23.4198 34.8008
Pt 16.5279 14.6721 19.9957
Pt 14.4264 27.9765 17.7063
Pt 16.6294 10.9935 23.0081
Pt 22.5919 21.4827 28.143
Au 28.3615 12.2679 42.8274
Au 7.36687 37.8077 24.9143
Pt 12.629 37.3776 17.6175
Au 21.3421 17.3282 47.3805
Pt 26.4157 32.581 27.0045
Pt 8.86743 16.8201 21.8964
Pt 30.8732 8.29488 29.4361
Au 2.7441 16.5517 31.2003
Au 22.5502 15.4434 45.8236
Au 33.0436 6.03677 24.4738
Pt 13.4031 20.3401 43.9247
Pt 3.81457 23.8502 23.8065
Au 14.462 12.1919 34.9335
Au 9.33076 13.6012 30.6707
Pt 15.2965 20.425 25.4017
Au 46.0766 31.6435 23.1611
Pt 9.16953 21.9298 23.2237
Pt 11.7134 21.6581 9.13521
Pt 8.24034 23.5415 21.496
Pt 22.5852 19.014 19.588
Au 12.1203 34.9844 8.84228
Pt 23.1043 16.1839 20.02
Au 1.73368 29.6156 25.3232
Pt 20.6295 18.9356 34.4674
Pt 19.3576 11.1048 22.2034
Pt 12.0885 13.4829 21.242
Pt 31.5746 42.583 19.2108
Au 16.5871 5.56804 23.7859
Pt 19.2963 38.792 17.1498
Pt 33.1172 38.778 10.5676
Pt 8.40005 21.1351 32.0823
Pt 19.1963 40.3911 27.045
Pt 14.5116 12.5631 20.2085
Pt 4.18499 28.7564 26.1467
Au 39.8257 17.695 35.8471
Pt 24.1645 26.5625 33.4164
Pt 3.67941 21.8856 27.9364
Pt 9.99156 24.0343 36.3153
Pt 18.4199 9.4358 35.4458
Pt 23.5679 9.54957 31.8913
Pt 25.6272 25.021 19.6716
Au 22.7939 9.02857 40.4631
Pt 29.6179 19.2104 17.1415
Au 9.00872 21.1001 42.9271
Pt 36.8548 25.2213 34.3103
Au 30.965 44.0304 11.5149
Au 7.18025 24.9849 42.059
Pt 9.29405 22.1054 34.6136
Pt 13.1021 35.2693 19.307
Pt 14.7778 15.6486 37.0999
Pt 31.5796 11.8701 39.5008
Pt 17.5225 33.5524 29.0893
Au 7.72631 28.8768 40.965
Au 21.7244 22.2384 7.31321
Pt 13.5723 19.17 34.299
Pt 15.8931 29.5978 15.9198
Pt 11.899 34.9755 24.4374
Pt 13.4162 17.0961 13.9635
Pt 9.54175 21.9383 10.7934
Au 19.1976 20.4473 0.824316
Au 15.6888 45.9702 21.9074
Au 25.0206 26.6932 41.4276
Pt 30.294 21.7884 26.2125
Pt 17.6548 42.1179 25.2831
Pt 30.2392 36.6061 21.7159
Pt 40.8965 19.0557 30.5873
Pt 24.5564 12.1631 25.4337
Pt 6.62722 18.0616 22.7815
Pt 12.229 39.1251 26.1017
Pt 25.7887 28.5838 33.0762
Pt 22.1365 37.0646 21.4994
Pt 24.8029 10.7688 36.4971
Pt 23.4843 39.9555 36.5796
Au 16.0471 39.0339 8.8759
Pt 10.6629 26.6185 39.3552
Pt 21.8199 39.0086 23.5468
Pt 18.3987 16.7551 30.7486
Au 4.35701 31.3635 20.999
Au 10.7583 13.1449 38.0266
Pt 26.348 25.8698 31.9028
Pt 17.7412 34.299 19.5741
Pt 21.7289 11.8352 18.2749
Au 28.474 2.16085 26.2678
Au 5.86824 25.2477 39.7478
Pt 13.0393 14.6329 38.7804
Au 35.431 17.5811 44.5066
Pt 10.8006 28.9928 33.671
Pt 5.38765 28.6588 21.6201
Pt 16.4209 24.4503 36.1857
Pt 10.392 23.5644 12.7789
Pt 14.3302 34.247 29.3565
Pt 9.00452 14.2264 24.7318
Pt 24.9285 34.4496 28.1024
Pt 32.3505 25.7209 23.7834
Pt 12.9761 30.2433 23.5733
Pt 5.44362 19.5574 18.4841
Au 19.1862 23.2751 0.598507
Au 16.5263 41.6246 38.9372
Pt 18.9843 10.9626 16.7274
Pt 11.5211 28.9047 31.1306
Au 18.4936 5.88676 33.1162
Pt 5.30516 17.481 30.6631
Pt 31.3086 37.8976 15.017
Au 34.4933 13.3187 42.2427
Pt 24.0306 10.0592 23.9503
Pt 18.6501 42.9275 27.7403
Pt 24.8018 36.2333 21.1617
Au 21.6309 32.6439 44.0216
Au 34.135 8.32004 35.4603
Au 21.4169 47.1992 28.0462
Pt 40.327 12.9817 20.7236
Pt 10.9901 21.3258 27.3211
Au 4.06146 15.0404 29.3593
Pt 20.7308 9.4449 13.4961
Au 20.4979 30.1818 43.5788
Pt 7.84172 34.4037 14.4249
Pt 6.63162 18.5894 32.7984
Pt 9.47551 30.3667 13.5143
Pt 8.07451 26.6476 39.5712
Pt 28.0103 39.1213 24.0871
Pt 27.0991 15.1563 13.9604
Au 9.13644 41.2051 23.9027
Pt 10.6584 26.1854 23.2294
Au 3.49997 21.4159 19.7016
Pt 20.4447 12.777 31.901
Pt 32.2938 32.6912 33.1838
Pt 30.1169 22.9363 34.2084
Pt 33.111 10.9604 21.7038
Au 1.27867 27.0327 25.3623
Pt 28.0224 21.205 24.6143
Pt 17.5653 26.8001 4.05487
Pt 38.3389 22.6486 22.8682
Pt 11.9303 33.1153 13.9121
Pt 11.0192 15.6814 23.8078
Pt 24.6342 26.2984 17.4351
Pt 15.5357 32.3008 16.5423
Pt 12.1131 30.3746 13.6412
Pt 6.23726 32.2965 19.0368
Pt 19.5444 33.4429 24.8311
Pt 22.8534 23.8813 17.307
Pt 10.052 31.0265 30.5725
Au 26.6726 5.85666 38.5499
Au 26.9886 15.2479 48.6558
Au 30.3391 22.3229 10.8823
Pt 8.81032 29.799 19.9228
Pt 18.9343 43.58 23.5932
Au 1.72274 18.8922 26.8594
Au 2.36193 18.1012 22.2233
Pt 24.5436 31.833 13.9806
Pt 13.0493 30.3636 39.9558
Pt 31.7196 30.9964 21.595
Au 23.0912 25.7487 45.7023
Pt 18.5873 35.0254 31.536
Pt 34.2058 37.3322 31.5956
Pt 24.2639 33.4351 21.2288
Pt 10.8583 33.2399 18.0024
Pt 15.2186 17.9761 26.5012
Pt 11.7476 25.8458 20.5419
Pt 11.9197 20.1774 39.28
Pt 15.2972 12.4209 27.634
Au 5.51037 37.7211 18.4338
Au 22.9253 23.536 40.6574
Pt 14.2567 19.3864 12.1668
Pt 7.16658 17.3093 18.381
Au 6.28979 35.5813 32.3089
Pt 14.8173 18.1768 36.5831
Pt 23.1371 43.8407 29.2137
Au 4.11449 36.2813 20.2795
Pt 15.0148 26.1057 24.8395
Au 18.1923 26.6736 40.8014
Pt 26.1245 45.1867 25.7657
Au 3.24963 31.8064 25.4378
Au 16.7877 5.84698 26.4847
Pt 23.5421 30.8628 21.9594
Pt 12.0512 14.8997 30.7661
Au 31.2522 43.1185 34.2034
Pt 27.5144 44.2977 27.9807
Pt 12.8183 20.1725 14.1506
Pt 8.18697 35.3031 30.3403
Pt 23.2143 36.0206 26.6364
Au 32.5066 7.27434 10.212
Pt 11.2924 20.9113 21.9337
Pt 8.59922 24.5532 16.233
Pt 36.7713 34.6134 23.8024
Pt 12.9809 33.6087 31.6841
Au 9.04515 40.1106 17.3119
Pt 20.8606 17.7125 36.9219
Pt 19.4277 39.8631 24.4482
Au 2.95711 30.6951 27.9109
Pt 4.2432 24.475 29.1891
Au 4.11166 19.9161 33.9957
Pt 28.9535 32.3594 28.358
Pt 13.2807 24.4259 15.9085
Pt 23.8057 28.0914 22.4618
Pt 22.1122 15.7216 16.2579
Pt 17.2125 33.0408 33.4364
Pt 12.1372 12.2649 30.7041
Pt 15.9042 22.2818 37.7225
Au 22.1494 32.0598 48.5878
Pt 12.4347 32.4978 25.0695
Au 32.6319 27.8325 3.97009
Pt 7.84796 23.4841 18.633
Pt 27.4109 25.5992 17.2201
Au 7.94348 40.1509 26.3219
Pt 10.4914 26.5772 32.1529
Pt 25.3092 21.3063 23.4381
Au 25.9444 1.51192 27.068
Pt 7.05525 33.4293 16.7448
Pt 24.6349 9.14613 19.1381
Pt 9.53408 14.1529 22.0804
Pt 15.9043 29.1122 19.5776
Au 23.857 2.78091 25.5029
Au 14.9551 12.9633 37.7432
Pt 16.3548 10.4165 33.9184
Pt 10.028 39.0626 27.4923
Pt 11.352 25.0803 44.1014
Pt 30.4048 29.9923 19.3823
Au 25.1053 29.3821 6.00506
Pt 22.9335 27.6853 24.8541
Au 17.2078 22.2758 2.16823
Pt 4.5065 23.8384 26.4224
Pt 12.0424 36.0031 22.0005
Au 40.1599 34.8902 44.2345
Au 41.4494 16.1894 42.3154
Au 32.4177 25.898 40.0089
Pt 12.1954 20.1964 29.4395
Pt 25.7456 29.3698 13.6273
Pt 23.5365 9.99998 26.5558
Au 34.0384 7.89876 38.2471
Pt 16.7204 40.477 13.2822
Au 40.5481 37.7274 13.0703
Pt 35.4611 28.9629 26.8429
Au 18.2782 36.7844 45.1611
Au 28.0535 26.8895 48.9182
Pt 21.9672 19.4977 40.9039
Au 6.08043 35.9654 16.0486
Au 26.5072 33.8008 7.31383
Au 19.0189 32.0497 2.29127
Au 7.65152 19.152 36.6839
Au 15.0869 17.3492 6.79643
Pt 18.3983 21.4112 21.2172
Pt 12.9228 17.9053 43.0163
Au 33.118 19.027 36.3326
Pt 21.8877 24.0397 14.6087
Au 13.4439 44.7413 20.845
Pt 13.6802 25.257 22.4654
Pt 27.1017 41.5727 27.4426
Au 25.1506 16.2892 2.9808
Pt 7.01473 27.7245 29.2666
Au 17.5126 34.8231 39.936
Pt 18.9362 9.88782 27.4537
Au 31.8895 26.9389 11.9358
Au 23.8355 42.6196 10.1257
Pt 6.90507 19.1298 27.6525
Au 21.0174 19.7972 48.4928
Au 23.2308 37.2645 5.02491
Au 28.3553 43.1226 40.9979
Pt 10.9445 26.3517 28.4038
Pt 10.434 28.9286 23.7523
Pt 4.73395 19.8496 29.2332
Au 31.8415 18.8791 38.7563
Pt 23.486 41.6844 19.0035
Pt 20.933 13.2982 16.1629
Au 32.929 20.0947 12.8261
Au 1.7223 19.8252 24.3002
Pt 16.8463 25.3257 33.4703
Pt 15.3278 36.0306 12.9756
Au 5.2561 20.6286 36.7541
Pt 12.54 27.4886 24.8181
Pt 12.3494 31.7354 16.152
Pt 11.1774 18.0608 33.5264
Au 7.56751 22.38 40.9241
Pt 16.8326 22.3001 14.58
Au 5.68189 18.0312 35.3326
Au 26.6703 17.3436 5.07281
Au 22.2281 23.5836 1.93642
Pt 21.7917 26.0804 11.389
Pt 25.0563 31.9093 19.2534
Pt 8.46329 25.2332 13.5946
Au 39.373 27.8198 6.52882
Au 29.3761 27.0654 16.0238
Au 14.2442 30.949 7.63111
Au 31.4738 24.3698 12.7196
Au 31.744 26.3654 14.7491
Au 25.9123 42.4001 14.8054
Au 22.0165 30.5094 39.2437
Pt 20.3196 25.0285 26.13
Au 9.20703 41.4177 28.6565
Pt 27.3538 16.6196 36.7602
Au 31.4173 4.38669 32.3169
Pt 9.48418 24.535 33.542
Au 19.9159 43.5833 12.2845
Au 8.40224 34.1749 19.2021
Pt 19.13 10.8941 19.3464
Au 39.8751 25.5076 45.3568
Au 27.2255 22.4174 50.4007
Au 24.133 41.1722 12.5493
Pt 16.43 10.3552 18.6248
Pt 21.2088 28.4557 20.1893
Au 36.0814 41.9088 12.3712
Pt 12.9018 17.4433 38.5613
Au 5.82542 22.8054 38.6321
Pt 19.2436 15.5867 19.6111
Pt 18.5979 23.0397 37.3162
Au 22.0177 28.3955 37.2278
Au 21.1107 3.30442 28.7665
Pt 22.443 43.0483 20.9929
Pt 8.20099 21.5924 28.3933
Pt 42.7667 28.3247 36.0908
Pt 10.9782 30.863 28.0062
Au 28.0096 1.87435 28.884
Au 33.3152 5.22638 12.4313
Au 18.9539 34.4513 3.81109
Pt 11.1331 13.7207 28.5752
Au 20.3483 48.7325 23.9154
Pt 17.7182 37.0961 19.0804
Au 34.7275 26.4379 41.2902
Au 12.0516 9.69326 31.2948
Au 47.7321 27.609 26.3221
Pt 20.0493 32.9398 30.0759
Pt 8.93716 31.1443 36.8915
Au 20.7178 19.3032 7.65056
Pt 15.3929 36.3836 40.3169
Au 29.632 14.6405 43.6079
Pt 14.4289 16.4575 30.5887
Au 38.9651 17.2337 14.0239
Au 27.3671 3.51825 19.5687
Au 21.8453 26.1771 1.05376
Pt 14.8635 38.6315 36.5388
Au 29.7357 7.20743 9.60054
Pt 13.8966 30.5471 11.6454
Au 1.75239 24.1333 25.7241
Pt 26.4488 33.5892 14.9079
Au 24.1058 30.4608 3.73501
Au 25.8958 6.00773 13.3589
Pt 5.65537 16.8454 27.9195
Au 34.3742 23.4175 48.6369
Au 37.8881 23.442 5.3461
Pt 7.46198 25.8187 32.3629
Pt 10.1698 17.8458 35.9766
Pt 29.7642 21.826 28.905
Pt 44.1383 36.7058 29.0434
Au 9.77092 17.9803 38.601
Au 24.9601 3.14152 32.4279
Pt 24.3849 26.3575 28.4072
Au 20.4491 9.83641 39.4696
Pt 15.1991 12.8451 24.9643
Pt 6.86378 19.7363 24.965
Pt 14.2158 21.3199 10.3627
Pt 9.05215 18.2645 31.7098
Au 9.65944 11.6681 17.7091
Pt 14.1768 21.5197 16.2688
Pt 23.0064 30.6294 16.0843
Pt 12.3492 37.7118 23.9244
Au 31.1469 19.6738 43.6874
Pt 9.75354 37.592 29.7627
Au 3.37934 28.2266 23.4582
Pt 9.20396 31.6449 33.0006
Au 25.3538 3.70533 17.5379
Pt 25.074 43.6569 27.476
Au 45.3584 21.956 21.4921
Au 19.596 23.5807 5.78874
Au 43.8416 29.8707 38.0626
Pt 22.9763 30.2333 19.5372
Au 30.9065 35.8167 6.56261
Pt 14.2869 34.0856 15.0666
Au 45.3643 33.4187 17.9942
Pt 8.72695 28.8329 38.3455
Au 38.9969 23.945 34.8964
Au 46.4491 33.9239 24.7821
Pt 14.959 38.6633 14.174
Au 43.1036 30.3157 11.6757
Au 25.3998 15.2975 39.0872
Au 40.2722 36.3101 15.5494
Au 30.124 24.0582 42.1974
Au 35.6375 24.3225 3.99989
Au 26.6865 42.8874 9.84449
Au 43.4263 20.1282 31.1754
Pt 34.3552 38.4284 38.9634
Au 35.1718 36.27 34.1362
Pt 10.5912 12.7052 26.1906
Au 32.8187 9.63989 8.77013
Pt 11.8933 32.8179 37.5113
Au 17.5143 12.7971 13.247
Au 20.387 22.2076 47.4326
Au 20.3871 6.79214 13.4949
Au 9.35587 29.345 43.1024
Pt 22.3243 7.54329 32.8535
Pt 5.77276 31.1875 26.1505
Pt 7.47477 25.2052 35.3162
Pt 16.7119 22.2896 26.221
Pt 25.8329 13.581 19.9302
Pt 28.4201 31.4991 35.804
Pt 7.55917 30.3684 30.07
Au 10.8048 40.8461 34.1998
Pt 7.42996 32.8372 31.1319
Au 32.7979 4.60389 17.6708
Pt 8.92565 21.2115 20.2752
Au 30.9241 36.4231 1.97619
Au 8.94816 33.5341 10.275
Au 46.0089 18.9881 15.175
Au 26.7178 23.0805 7.58871
Au 33.6952 15.0539 10.5208
Pt 10.9396 24.5195 30.3865
Pt 15.5592 23.1272 21.4437
Pt 19.6816 37.8116 22.4558
Au 32.1307 35.4147 10.34
Au 23.3253 18.6507 43.1486
Au 37.8636 12.6039 8.8586
Au 29.1471 40.2854 5.15888
Au 16.077 18.074 4.41464
Pt 18.2871 8.68632 32.8696
Au 40.3991 24.1307 38.2529
Au 33.1382 25.11 46.7655
Pt 26.0235 34.5731 22.8688
Pt 21.9862 32.5285 14.3231
Au 19.3493 36.0233 10.4212
Pt 20.4484 28.7968 29.4557
Au 37.492 20.5149 37.5952
Pt 20.9376 8.75754 26.0056
Pt 9.16739 25.5441 20.034
Au 29.2818 31.526 47.849
Au 30.3441 43.7298 31.5128
Au 14.8195 36.3759 43.0916
Pt 17.4681 36.9429 35.4404
Pt 36.117 18.9295 30.8693
Pt 21.5519 26.8548 34.6796
Pt 12.5645 13.4111 16.4963
Au 37.3789 15.5686 45.2042
Au 17.6902 40.3341 41.1695
Au 25.825 21.1016 42.7038
Pt 35.9643 29.1244 36.5599
Pt 17.9522 33.286 17.0672
Pt 18.6426 29.0956 19.4217
Pt 12.7905 35.6146 13.4287
Au 4.37358 16.435 22.8095
Au 6.09193 36.9445 29.5237
Pt 12.5371 16.1221 16.3878
Au 16.4338 7.22947 28.8894
Pt 13.8365 35.5944 10.8614
Au 32.5533 5.05536 26.9941
Pt 22.9398 43.2329 25.8893
Au 3.5618 27.5911 32.6489
Pt 17.1836 31.5728 20.6443
Au 31.9901 13.3555 5.46532
Au 4.14398 22.6532 33.5325
Au 11.486 15.1117 11.8291
Au 20.645 17.3201 42.2827
Pt 17.4287 36.5388 21.6554
Pt 31.9119 26.1611 17.4821
Au 19.6296 22.3153 44.7948
Pt 9.41068 36.5389 20.7727
Au 40.84 31.1794 21.3507
Au 28.5021 46.3936 15.9891
Au 20.5295 35.7676 7.94472
Au 7.22429 33.1876 37.5331
Pt 33.7807 40.575 26.6869
Pt 27.2066 42.6192 31.6298
Au 23.1679 5.86826 13.6797
Pt 14.9639 23.3036 34.1118
Pt 24.2989 23.5933 24.4701
Au 9.52165 40.8093 21.1978
Pt 24.0345 13.3415 37.1269
Pt 11.8969 35.544 30.177
Au 23.8023 23.9415 47.6077
Au 25.8115 37.9121 46.8207
Au 28.846 15.193 46.2973
Pt 40.1408 28.7838 35.5813
Pt 11.6417 33.1069 29.2978
Pt 13.9288 21.5657 27.8862
Pt 13.7072 42.1901 22.5409
Au 24.7132 3.85584 20.2705
Pt 16.6942 30.1068 33.0322
Au 29.3043 29.6973 7.09313
Pt 19.9632 42.7349 21.3469
Au 12.9214 7.92193 20.3852
Pt 30.5687 40.7643 23.4297
Pt 13.5009 22.6556 39.1366
Pt 17.318 41.3104 34.3256
Pt 27.4392 31.6176 13.2845
Pt 5.44349 29.8787 28.4396
Pt 14.5467 26.9816 20.5872
Pt 25.9187 40.5112 22.9354
Au 16.2247 36.8559 7.18935
Au 21.328 43.8466 9.9065
Au 23.9279 4.12938 34.9238
Pt 21.213 34.7413 15.5961
Au 10.3544 37.5822 12.6275
Pt 27.9298 28.6879 20.9403
Pt 17.0585 15.6227 17.5597
Pt 16.3182 37.0513 26.7695
Pt 21.0754 36.1387 33.3762
Pt 18.9874 39.3976 14.4286
Pt 29.7472 42.1406 21.1835
Pt 21.2217 22.5544 36.8955
Au 18.6145 36.2617 5.79048
Pt 29.0472 32.4641 15.3108
Pt 7.85578 30.0492 24.8361
Pt 23.5852 10.5776 13.9803
Pt 17.0046 30.7374 37.6722
Au 46.8205 32.1914 27.1956
Au 31.8032 45.8287 22.3286
Au 5.62668 24.3095 10.9705
Au 29.1943 3.34513 14.6582
Pt 22.7312 32.356 30.8385
Au 3.44057 15.8029 26.9062
Pt 23.1737 35.6592 35.274
Au 14.3118 43.7963 28.4714
Pt 28.2228 27.4738 36.7165
Pt 24.2768 38.4122 22.4779
Pt 12.2359 13.4842 33.2393
Au 37.7794 23.7673 37.4903
Au 27.2259 13.805 40.7001
Pt 35.8329 41.1496 18.5799
Au 12.7311 42.5927 33.2423
Pt 26.0548 13.5149 29.5287
Pt 16.172 21.6133 12.0701
Pt 25.8203 39.5571 25.723
Pt 11.6815 32.5097 22.5357
Pt 23.7774 27.092 20.0137
Pt 10.2448 29.8108 16.0366
Pt 21.6828 32.3379 20.6355
Pt 28.3901 35.0397 15.8332
Pt 24.2026 28.083 15.4002
Pt 23.2138 19.3479 29.8478
Au 25.6929 17.9271 38.4699
Pt 5.50927 28.9262 31.0533
Pt 14.0498 19.7017 18.5476
Pt 28.5279 6.98447 29.8954
Au 12.7591 7.87376 17.6234
Pt 21.5481 14.5041 18.6163
Au 3.93784 30.3513 32.7502
Pt 7.80492 24.506 37.8971
Pt 22.0845 26.7501 29.8647
Pt 20.298 20.3949 26.9471
Pt 12.6747 26.6088 30.4176
Au 14.8561 23.3428 3.286
Pt 24.7975 11.474 30.7442
Pt 18.3145 13.7472 30.879
Pt 16.485 27.1141 14.6731
Pt 16.0338 16.2604 10.6808
Au 35.449 7.42355 24.1248
Pt 10.7468 26.2365 12.0828
Pt 24.3958 15.0593 15.2425
Au 19.986 29.2212 40.9985
Au 22.6243 36.0463 39.9822
Pt 22.7982 28.2864 17.8164
Pt 7.54058 23.1173 12.3586
Pt 30.5963 9.10875 26.7427
Pt 11.7833 20.4181 16.8163
Pt 9.57399 23.9105 27.9888
Pt 31.7724 32.9834 14.8334
Pt 30.3109 7.03927 35.2632
Au 17.0345 8.28889 23.3768
Pt 15.243 31.7566 22.7653
Au 19.9397 15.0569 4.2629
Pt 25.1586 21.7384 18.7338
Pt 8.65013 31.5595 17.7374
Au 8.87982 11.608 23.8787
Pt 11.268 26.0805 34.6791
Au 33.7023 17.1877 40.1246
Pt 12.4055 22.9125 17.8564
Au 12.4004 25.6425 7.69281
Pt 26.6173 18.3902 29.544
Pt 28.988 13.7371 29.3551
Au 21.1249 44.4627 37.6764
Au 16.1915 25.6104 47.5197
Au 18.0543 17.8935 42.9729
Au 30.5117 11.382 6.41444
Au 40.9281 28.6402 10.8074
Au 41.6907 39.4233 22.6075
Au 16.7158 11.1804 36.5766
Au 2.58636 25.5809 17.8349
Pt 29.1738 9.91373 24.5679
Pt 16.0114 25.0208 44.7828
Pt 11.8561 22.0464 37.0635
Pt 35.0191 18.4105 26.491
Pt 28.7696 17.6435 34.6912
Au 1.3621 21.5624 26.5841
Pt 9.61059 19.2794 11.1735
Pt 4.42875 19.2957 23.8083
Pt 13.8115 18.6275 16.1684
Pt 5.94465 34.9833 18.6694
Au 11.1412 16.9891 9.85606
Au 10.7939 41.5817 18.7749
Pt 19.5119 35.4936 29.1184
Au 21.4863 18.3257 10.1637
Pt 7.31169 18.5324 16.1487
Pt 24.179 41.31 34.3614
Au 31.535 42.1836 13.4598
Pt 23.5692 7.38274 17.5749
Au 43.6515 26.5966 18.4231
Pt 18.7826 8.46967 18.624
Au 31.1276 31.7834 7.54871
Au 23.4349 2.21955 28.0385
Pt 16.757 8.54006 26.3558
Pt 31.5672 6.98267 18.6226
Pt 12.7245 18.3996 20.6256
Au 46.748 32.2533 31.8375
Pt 9.32017 22.3115 38.6674
Au 18.9627 9.99277 24.5863
Au 44.951 38.2778 18.4236
Au 39.116 28.0359 43.6586
Pt 30.5249 25.8091 47.9423
Au 40.7072 33.9964 10.008
Au 27.823 41.9515 7.28688
Au 13.574 10.0228 12.6683
Au 7.55928 16.4672 36.6442
Au 28.5964 15.4076 38.8708
Au 19.912 38.8521 45.6515
Pt 24.7893 12.4214 22.5871
Au 17.8474 11.0022 39.0718
Pt 9.40457 19.2227 18.1543
Au 32.2443 10.1303 13.7824
Pt 27.0876 6.58141 27.8353
Pt 29.8516 14.2972 21.5906
Pt 28.3123 8.06267 22.9111
Pt 25.3259 5.67853 25.679
Pt 24.5775 19.9489 14.0824
Pt 13.3902 16.165 40.9165
Pt 19.4427 24.592 32.8095
Pt 11.0596 20.5097 24.6241
Pt 9.17207 35.0271 16.5808
Pt 18.4696 32.4868 35.9603
Au 38.8293 21.0013 16.5559
Pt 16.4647 35.942 24.3483
Pt 35.848 22.5423 21.9706
Pt 30.3266 34.5909 32.5271
Pt 21.7868 42.9285 31.2305
Pt 23.9904 43.0068 23.3807
Pt 17.0366 39.4941 25.946
Au 27.3005 39.0128 3.45656
Au 26.7628 6.75703 41.3173
Au 33.6881 22.4833 3.18979
Au 25.1592 18.5069 7.1835
Au 14.4011 11.527 10.5319
Au 33.1378 31.8178 12.797
Pt 40.1456 17.4816 25.6748
Pt 12.0569 12.3146 18.9277
Pt 14.657 9.52135 16.6309
Pt 7.66677 15.0299 20.34
Au 34.3923 25.2366 44.0376
Au 45.3384 35.741 19.4809
Pt 14.0775 30.1084 21.0786
Au 42.2244 10.7115 31.0112
Pt 27.2099 39.5742 18.3584
Au 36.0543 20.2328 16.5155
Pt 15.5545 15.6513 24.676
Pt 6.35046 27.9521 33.4377
Pt 6.26479 22.4544 24.3678
Au 17.7227 16.1662 5.7964
Pt 32.6086 22.63 32.7238
Pt 14.5513 39.12 27.1878
Pt 17.9771 25.2082 18.0699
Au 31.7683 34.6493 44.1338
Au 7.84056 31.2118 39.4907
Pt 21.3491 25.5916 36.9758
Au 34.1975 11.9534 39.9423
Pt 17.0116 29.3395 22.0078
Pt 16.8567 35.4213 15.1825
Au 3.45033 24.1075 15.3585
Pt 36.8011 39.9251 30.1645
Au 1.74766 23.4919 28.7105
Pt 8.86436 24.9054 10.9024
Au 32.5695 3.80218 29.4633
Au 22.2179 23.0155 45.3395
Au 31.9821 30.2665 2.95067
Au 28.5253 5.41028 13.1181
Au 5.88739 30.9133 16.6193
Au 29.3874 16.3253 8.88452
Au 16.3088 10.3647 12.2271
Au 33.263 35.5186 15.2423
Pt 14.0353 39.823 19.0394
Au 22.8149 27.6473 5.75473
Au 25.6468 38.7263 12.531
Pt 11.3269 30.1275 21.2606
Pt 25.2921 42.6104 21.1302
Pt 11.6946 40.4139 23.4879
Au 26.9409 25.7391 8.87366
Au 7.39664 12.6649 19.0303
Au 45.5272 31.1463 15.3658
Au 37.1884 16.6273 35.8552
Au 40.4255 26.062 11.6519
Au 41.5138 28.8607 22.7716
Au 38.6119 18.2381 20.9774
Au 19.2222 23.1999 8.61095
Pt 18.2041 20.6605 24.1668
Pt 17.943 31.8699 31.2458
Au 7.54062 19.1455 41.4997
Au 33.85 12.1345 9.79511
Pt 36.6761 33.5178 21.1845
Au 17.928 20.1273 44.3752
Au 20.9968 17.358 5.16465
Au 24.807 37.4355 40.3401
Pt 19.314 33.2617 21.4757
Au 7.15098 17.6919 39.1437
Au 31.0002 12.9211 47.5198
Au 20.3591 27.1843 39.1382
Pt 12.8339 16.2237 32.8688
Pt 13.3691 25.6127 39.4349
Au 35.7715 29.2337 41.0868
Au 5.28657 34.323 30.0877
Pt 29.1709 19.1432 29.4864
Pt 4.11314 21.5435 22.4867
Pt 19.8735 35.7516 20.5875
Au 3.01663 20.0919 17.3577
Pt 22.6305 39.3778 17.3304
Au 18.6379 32.3175 9.21468
Au 1.78878 28.3304 27.8405
Au 40.8072 11.2074 12.0948
Pt 20.4632 13.5052 23.8617
Au 29.9065 45.1265 13.8511
Au 6.0249 35.7261 13.1633
Au 17.0422 25.0038 1.82196
Pt 16.6353 33.9894 22.2219
Pt 18.1463 16.6251 40.3995
Pt 22.6778 40.5281 32.3972
Au 9.56182 36.2908 23.4533
Au 45.0831 25.168 33.1532
Pt 14.1909 25.6835 34.802
Au 46.2032 27.1448 31.7213
Au 23.128 28.5325 46.2809
Au 9.94947 39.6218 14.6132
Au 36.4247 12.3185 38.3487
Pt 12.2837 10.7045 21.2407
Au 17.3447 27.7116 1.58803
Au 27.5509 24.9357 41.1908
Au 35.2196 26.111 48.6756
Pt 14.305 24.8941 29.2926
Au 44.1137 17.9154 22.2673
Au 26.7872 39.5302 14.9953
Pt 21.349 38.5232 15.1203
Pt 23.8533 25.165 22.068
Au 22.9943 21.4055 38.8475
Pt 31.5314 37.8638 19.3564
Au 20.4362 25.1847 44.9598
Au 27.9157 16.8807 44.1678
Au 32.8361 29.6368 8.57015
Au 37.5342 10.9739 31.6717
Au 28.7898 38.0709 43.0093
Pt 12.6113 30.2982 36.798
Pt 29.7612 12.2078 31.4325
Au 32.4723 22.4121 50.2325
Pt 35.1244 31.3232 32.8076
Pt 13.4889 32.3005 27.5977
Pt 25.5872 30.4324 30.7663
Pt 12.0461 15.197 18.7718
Pt 39.548 14.2935 18.5755
Au 26.2856 46.5529 21.2096
Pt 3.75244 21.4829 25.2166
Au 6.56017 12.8397 24.6557
Au 2.7564 28.2896 17.9169
Pt 14.7466 31.4969 25.4212
Pt 28.0801 22.8413 16.9747
Au 8.08262 11.7327 26.6228
Pt 12.0593 30.1432 42.3886
Au 4.2884 33.01 23.2888
Pt 9.6247 28.6206 29.1972
Pt 25.5609 42.2833 36.7062
Pt 9.95887 27.779 21.2519
Pt 20.4611 35.5875 26.6393
Au 37.137 32.0111 10.3097
Au 17.4317 32.2528 4.50919
Au 28.5264 34.3387 13.1718
Au 40.7503 39.0679 20.0414
Au 29.5533 24.3372 15.14
Au 29.4129 43.0347 9.46179
Pt 16.9006 25.3898 30.1273
Pt 9.97051 37.5828 16.4601
Au 30.4352 28.5423 41.7758
Pt 32.947 30.6717 19.1444
Au 38.0851 30.2627 7.13563
Au 20.2654 19.196 3.08047
Au 37.0239 22.0369 35.417
Au 29.9217 10.7773 41.2579
Au 35.4127 42.668 31.6047
Pt 10.9871 23.7879 22.4066
Au 30.5024 24.3844 50.4018
Au 24.3831 33.286 43.4607
Au 31.8677 28.7165 39.269
Pt 6.82029 20.8263 22.3906
Pt 13.9864 18.7731 40.849
Au 42.0544 12.0749 18.5087
Pt 27.892 25.893 25.5586
Au 32.7828 28.6687 36.1327
Pt 18.6087 37.3477 32.9219
Pt 9.49681 16.974 16.5715
Au 24.7255 47.6763 23.1796
Pt 14.9352 28.1809 23.1405
Au 8.82436 18.2201 13.8135
Pt 25.8759 28.9794 23.7378
Au 19.513 27.7161 36.3982
Au 8.37173 34.3051 33.381
Au 31.571 28.0902 6.61964
Au 11.6827 37.3347 10.2573
Pt 11.0122 15.8107 37.4561
Au 36.3472 18.7064 19.0864
Pt 10.6877 30.6514 38.7487
Au 31.027 27.7716 9.44009
Au 21.7974 6.14835 11.2929
Pt 20.9368 44.5337 27.8405
Au 38.5268 22.3499 9.58077
Pt 18.0557 31.7475 23.2091
Pt 9.96093 35.3386 28.3304
Au 6.30725 15.4142 34.2635
Au 20.9374 33.6578 9.91821
Au 20.8982 17.9335 29.7454
Pt 12.9671 27.7043 12.3691
Au 36.5781 11.5871 41.3395
Au 23.9263 39.3035 14.6535
Au 39.7814 33.5584 14.522
Au 27.2994 6.53181 10.8333
Au 26.8046 24.4575 46.3847
Pt 11.462 20.6997 34.6123
Au 41.5933 25.4188 40.4312
Pt 16.0411 34.0663 31.3438
Au 16.2473 7.67116 34.4061
Au 3.29918 22.1868 30.7445
Au 25.4126 29.5202 42.4183
Pt 28.7647 4.88396 31.5391
Au 26.1632 38.5285 42.4722
Pt 13.0238 37.7442 20.3227
Pt 8.89172 26.1706 30.15
Pt 12.7347 16.0302 28.3596
Pt 22.0511 33.9576 25.3355
Pt 16.1283 26.4162 27.3801
Pt 5.96029 22.2974 29.4358
Au 19.9062 13.3331 11.6326
Pt 46.5596 25.1364 26.2053
Au 18.88 42.1075 14.2865
Au 20.7867 38.4585 9.84794
Pt 30.2575 28.725 22.0259
Au 23.4944 5.47133 37.5601
Pt 23.8194 40.6765 24.518
Au 5.87213 33.9385 21.2483
Au 26.0803 45.0569 32.7597
Au 13.4465 39.4902 10.0855
Pt 14.2091 21.2744 35.7625
Au 28.7159 37.3858 14.2036
Au 10.8599 42.0185 15.896
Pt 14.375 29.1517 31.5231
Au 22.6958 45.7469 16.5223
Au 2.35629 26.604 30.1901
Au 22.5777 43.3964 12.4438
Au 39.6611 22.5753 7.14071
Pt 12.409 28.2413 38.4099
Au 20.7581 30.7273 36.1376
Au 24.422 22.731 50.0599
Pt 14.8551 28.4757 25.9385
Pt 31.3102 31.574 26.4369
Pt 18.0948 20.2918 13.2584
Au 11.4526 43.0308 23.9003
Pt 23.2108 28.9517 34.7135
Au 26.5448 3.80418 14.8079
Pt 11.9848 35.1176 16.1828
Au 15.8865 28.7405 8.19227
Au 24.1588 13.5441 44.3777
Au 13.9757 33.9583 44.1053
Pt 34.6984 32.9553 24.1885
Pt 15.3613 31.928 29.9359
Pt 13.6034 40.2053 34.6555
Pt 36.8462 34.5043 39.8021
Pt 16.5573 15.526 32.1865
Pt 8.40881 26.3747 27.3491
Au 24.1712 30.0384 37.1772
Pt 9.77707 32.0597 20.2043
Au 10.7204 41.4559 26.2305
Pt 40.2771 38.2431 24.4795
Pt 10.8294 29.0644 11.5922
Pt 25.2569 34.5649 19.1098
Pt 10.7764 15.3678 34.7137
Pt 10.5935 38.6268 19.1994
Au 37.5184 32.0986 15.2359
Pt 18.9587 35.2719 23.2559
Au 6.81418 35.4257 23.4547
Pt 17.3337 24.205 12.5324
Pt 5.6908 23.5998 22.0387
Pt 16.8443 36.0984 29.4577
Au 12.8947 19.523 46.4435
Pt 16.0595 41.5856 27.4134
Au 28.5183 24.0503 48.5335
Pt 23.0194 18.66 38.528
Au 9.52937 33.361 38.879
Au 5.99926 28.0073 38.7405
Au 31.5397 24.3426 7.21951
Au 23.199 30.3679 44.0643
Au 27.4015 33.7448 48.4187
Pt 30.5018 28.466 34.5194
Au 18.4231 33.4359 42.3382
Pt 15.2651 29.2696 36.2165
Pt 16.5389 28.7881 11.2278
Au 10.221 11.6818 32.4611
Au 25.6166 19.6233 47.1617
Au 3.1063 17.733 28.8504
Au 20.3628 39.2934 40.8611
Pt 13.2383 21.642 32.745
Pt 12.3148 19.4109 10.3314
Pt 32.6192 35.5175 18.1625
Au 34.495 28.3446 6.36978
Pt 17.9695 35.4076 12.5599
Pt 37.2615 24.2823 31.7075
Pt 18.9867 25.1215 35.448
Pt 17.0738 30.8761 18.0284
Au 14.1482 17.4021 45.4485
Au 28.1189 4.84262 36.4339
Pt 33.9228 10.9559 19.1242
Pt 27.0219 13.7735 37.4747
Au 17.014 10.9663 9.69021
Au 16.0681 20.0714 6.38256
Pt 5.26356 26.3591 30.9516
Au 2.60003 18.7541 19.6288
Au 12.0924 9.03415 28.5201
Pt 36.7795 9.0411 26.0057
Pt 9.31936 26.5124 36.9923
Pt 14.4386 36.6034 15.7445
Pt 11.5775 17.6414 30.6221
Pt 13.3398 26.3947 27.1849
Pt 10.4307 20.6768 13.2695
Pt 17.6889 18.9391 22.0055
Pt 26.0877 14.1646 24.1226
Au 30.9131 16.5142 40.0872
Au 2.62572 25.8283 27.539
Pt 25.9045 5.6067 33.4882
Pt 29.6813 20.2057 6.45509
Pt 29.9946 12.0691 23.3194
Pt 4.76541 19.3111 21.1306
Pt 43.8841 20.1952 26.2781
Pt 16.4019 25.6267 22.5153
Pt 25.7104 24.0701 34.0139
Pt 27.7021 11.9881 33.1798
Pt 35.9085 26.4677 30.228
Pt 17.59 15.7962 14.7556
Pt 11.0482 38.3012 33.5684
Au 31.8394 8.85622 34.0109
Pt 19.2211 25.2857 23.2197
Pt 8.50744 16.9007 34.1234
Pt 26.4121 18.1693 26.7031
Au 42.9799 13.747 34.9445
Pt 24.1073 14.811 28.1271
Au 31.1009 11.8242 9.04081
Pt 24.1318 19.7173 34.4565
Pt 11.2998 17.8041 40.7507
Pt 12.8063 16.8137 35.5678
Au 9.66346 24.5956 8.31287
Pt 16.329 11.3095 15.488
Au 38.3641 38.3953 41.7051
Pt 28.893 12.4252 17.3644
Au 32.1968 29.6643 11.4385
Au 27.2657 43.9923 16.768
Pt 21.608 26.6631 22.0527
Pt 18.2724 21.5399 28.2377
Pt 19.2482 19.331 40.9244
Au 29.5812 41.4986 11.7381
Au 20.9848 3.95833 23.0807
Au 35.5706 5.90421 14.0464
Au 30.4338 17.1263 42.9934
Au 18.8621 40.2285 38.7413
Au 5.42085 30.1514 34.938
Au 12.8769 26.8647 5.02007
Au 28.2231 38.9986 7.29908
Pt 18.7841 29.6511 16.3402
Pt 16.5327 13.0833 33.1487
Au 10.1724 34.3074 41.3966
Pt 18.04 15.3062 12.1694
Au 44.7306 22.4379 39.2824
Au 44.0922 16.6224 35.6274
Au 32.7315 6.22449 33.8606
Au 36.786 16.9294 40.1831
Pt 10.7642 36.6699 26.118
Pt 16.188 12.2003 30.5025
Pt 10.1189 15.8033 32.177
Pt 7.10145 19.7825 30.2921
Au 10.3869 10.0957 26.4636
Pt 24.6854 8.18773 14.6252
Au 24.6892 14.1647 41.6786
Pt 18.8693 18.0289 24.3852
Au 42.1629 19.3628 17.9255
Pt 25.8006 23.2157 31.2331
Pt 13.5818 32.7373 9.78569
Au 21.9392 3.2316 20.4375
Au 24.4869 6.25537 11.0261
Au 1.73334 20.6501 21.6042
Pt 13.504 19.6983 23.5161
Pt 19.8994 25.3357 13.447
Au 41.2155 25.94 17.2063
Pt 11.4862 27.5602 43.0778
Au 13.7558 15.9417 8.84779
Pt 28.4077 35.2041 34.26
Pt 14.8754 38.4719 24.6519
Pt 23.5456 12.5167 16.1721
Au 20.0145 22.0242 2.88074
Pt 14.4079 34.1679 24.2571
Au 22.5101 42.2193 7.78689
Au 39.0132 17.4122 9.17727
Au 30.8073 26.7245 37.694
Au 22.6766 15.2889 3.48621
Au 35.7735 10.5894 8.66423
Au 11.5769 20.5602 6.46691
Au 12.2992 30.1098 9.4468
Pt 13.402 14.4255 23.5981
Pt 25.7457 17.3186 14.1776
Pt 29.6404 13.8847 33.5871
Pt 26.7526 5.94894 18.2458
Pt 33.9972 41.9606 20.2319
Au 11.3528 29.7283 44.9801
Au 29.1492 33.5626 6.28674
Pt 31.6886 8.77833 36.8935
Pt 26.855 19.6954 33.154
Pt 23.1281 4.90502 27.2851
Au 43.699 35.6797 33.9751
Au 38.3962 29.2263 15.1948
Au 16.8285 19.0165 11.1239
Au 17.9927 26.7783 45.5732
Pt 26.7656 9.98787 25.9235
Au 27.7941 9.15592 42.4491
Au 22.1167 25.0332 6.63641
Pt 36.381 14.0026 30.8913
Au 37.3967 41.08 40.9158
Pt 12.1567 40.3805 20.778
Pt 11.262 30.3738 18.3902
Au 22.9723 8.36672 12.3726
Pt 18.828 7.24505 24.9832
Au 31.447 3.01354 15.9722
Au 43.2683 34.7301 21.0245
Pt 38.1755 13.2124 22.3323
Pt 16.5646 29.9662 24.5793
Pt 12.9504 19.3722 26.3434
Au 20.3672 32.029 4.59204
Pt 14.9998 9.88896 24.6268
Pt 12.7001 24.6103 32.5
Pt 13.7462 25.8905 43.338
Au 41.6856 9.33125 26.4676
Au 28.0421 26.822 3.701
Au 33.1421 9.76519 29.4976
Au 27.951 9.37328 10.1907
Au 24.4836 25.4399 10.2266
Pt 20 27.3979 17.7086
Au 26.846 18.2187 2.28335
Au 44.7322 15.1606 20.3756
Au 32.7333 37.2381 8.28958
Au 45.2601 28.5331 16.0538
Au 30.2221 31.2831 13.037
Pt 26.9671 10.1924 35.0303
Pt 12.8202 24.7521 13.0458
Pt 20.6466 15.0331 40.9873
Au 25.9905 33.6396 12.225
Au 38.122 20.9773 45.6381
Au 33.3146 13.153 37.4782
Au 32.2668 23.8465 15.5748
Au 33.6366 28.028 18.7797
Pt 7.66157 26.14 22.3813
Pt 28.071 11.82 27.7314
Pt 21.9114 21.443 33.9823
Pt 10.4862 23.2586 19.836
Pt 21.1676 24.2181 21.1688
Pt 34.9729 22.1888 28.9995
Pt 24.366 17.3561 28.3673