3871
Atoms. Timestep: 20119
Au 5.76021 7.67669 23.4384
Pt 7.86311 5.89574 23.4776
Pt 7.79354 7.71335 21.5209
Pt 6.18189 5.90057 25.4479
Pt 5.98799 7.71398 27.3307
Pt 7.88926 5.84879 27.4009
Au 7.83611 7.75327 25.4132
Pt 7.74122 7.68114 29.3374
Pt 5.92598 11.6076 19.5587
Pt 7.74028 9.6224 19.5077
Au 7.46887 11.3435 17.356
Pt 5.97483 9.65804 21.4896
Au 5.48287 11.4874 23.422
Pt 7.71077 9.6616 23.4512
Pt 7.63114 11.6569 21.5127
Pt 5.87169 9.58684 25.4217
Pt 5.79876 11.5299 27.4234
Au 7.7165 9.6525 27.4585
Pt 7.53071 11.6657 25.3663
Au 5.66401 9.62417 29.3641
Pt 5.96161 11.6343 31.3566
Au 7.4954 9.43156 31.4868
Pt 7.64434 11.5645 29.4316
Au 7.49301 11.4442 33.5577
Pt 5.81401 15.5876 15.6487
Au 7.44972 13.4089 15.3874
Pt 7.56778 15.5831 13.5883
Pt 5.90219 13.5673 17.5968
Pt 5.68618 15.4858 19.47
Pt 7.62959 13.5508 19.533
Pt 7.61607 15.5085 17.5309
Au 5.41688 13.5442 21.4255
Pt 5.63277 15.5455 23.4067
Pt 7.41447 13.5503 23.4241
Pt 7.48964 15.4794 21.4452
Au 5.39324 13.5573 25.4125
Pt 5.61707 15.5253 27.3726
Au 7.44015 13.5745 27.4313
Pt 7.42499 15.514 25.3977
Au 5.46251 13.5247 29.4518
Pt 5.70756 15.4676 31.4901
Pt 7.58881 13.5722 31.4284
Pt 7.38747 15.544 29.4184
Au 5.61839 13.5623 33.399
Pt 5.88449 15.5728 35.3118
Pt 7.63953 13.5802 35.3407
Pt 7.62539 15.4934 33.3925
Au 7.46383 15.3851 37.5112
Pt 5.86841 19.5617 11.5931
Au 7.43163 17.3496 11.3858
Pt 7.64685 19.5143 9.60575
Pt 5.8369 17.5842 13.5777
Pt 5.64623 19.4269 15.5126
Au 7.56983 17.5132 15.5621
Pt 7.56883 19.5103 13.5352
Pt 5.6564 17.4727 17.5332
Pt 5.56912 19.4756 19.5248
Au 7.47083 17.5062 19.5032
Au 7.43198 19.5248 17.5409
Pt 5.60962 17.4568 21.46
Au 5.21782 19.4588 23.4187
Pt 7.39958 17.5511 23.4363
Pt 7.3417 19.5233 21.504
Pt 5.5794 17.4564 25.3853
Pt 5.52076 19.4519 27.3316
Pt 7.36647 17.5115 27.4066
Pt 7.33394 19.4847 25.3566
Au 5.28558 17.4045 29.3778
Au 5.2659 19.4733 31.4587
Pt 7.36995 17.5199 31.3476
Au 7.23989 19.4461 29.4196
Pt 5.72248 17.4334 33.4426
Pt 5.72418 19.4357 35.3875
Pt 7.60776 17.4801 35.4371
Au 7.42678 19.4714 33.3338
Au 5.59813 17.4984 37.3095
Au 5.63589 19.4906 39.3198
Pt 7.63955 17.5573 39.2352
Pt 7.58748 19.4511 37.3409
Au 7.52232 19.3773 41.4412
Au 5.71956 23.4241 7.69852
Pt 7.72501 21.5073 7.71829
Au 7.74883 23.4152 5.68587
Pt 5.89708 21.5068 9.69395
Pt 5.70791 23.4028 11.5221
Pt 7.63588 21.4914 11.6472
Pt 7.68739 23.4373 9.62948
Au 5.37654 21.4443 13.4964
Pt 5.55159 23.4762 15.5579
Au 7.38528 21.4785 15.4794
Pt 7.3836 23.4698 13.5902
Pt 5.56591 21.4994 17.5461
Pt 5.47666 23.4753 19.5195
Pt 7.36299 21.5046 19.5196
Au 7.3729 23.474 17.5362
Pt 5.48842 21.4957 21.4506
Pt 5.45029 23.432 23.3904
Pt 7.29272 21.4455 23.427
Pt 7.32695 23.4652 21.4629
Pt 5.47418 21.4628 25.3864
Pt 5.44597 23.4202 27.388
Au 7.29478 21.4654 27.3743
Pt 7.25866 23.4855 25.4014
Pt 5.4918 21.4821 29.3624
Pt 5.49976 23.4183 31.3811
Pt 7.30989 21.4376 31.3537
Pt 7.27031 23.4607 29.378
Pt 5.59242 21.4276 33.4323
Au 5.34095 23.361 35.4131
Pt 7.49661 21.4734 35.3861
Au 7.32446 23.4377 33.3923
Pt 5.7229 21.3874 37.3511
Au 5.46698 23.4304 39.359
Au 7.57664 21.4354 39.2799
Pt 7.42898 23.4599 37.3391
Pt 5.9462 21.5668 41.2686
Pt 5.95134 23.5442 43.094
Pt 7.72696 21.5763 43.25
Pt 7.71297 23.499 41.1636
Au 7.6892 23.4918 45.2438
Au 5.93873 25.476 5.84289
Pt 5.92514 27.3297 7.74592
Pt 7.76071 25.3632 7.73141
Pt 7.82127 27.3707 5.90323
Pt 5.80557 25.3825 9.59997
Pt 5.69267 27.3753 11.5551
Au 7.49768 25.4027 11.6743
Au 7.61082 27.4109 9.68907
Au 5.30946 25.4273 13.5636
Pt 5.52251 27.4116 15.5676
Pt 7.36311 25.4631 15.5226
Pt 7.38498 27.3886 13.6124
Pt 5.52438 25.4527 17.5048
Pt 5.44279 27.3956 19.422
Pt 7.3344 25.4501 19.4914
Pt 7.37428 27.4107 17.5109
Pt 5.45941 25.4313 21.431
Pt 5.43745 27.3764 23.3685
Pt 7.22472 25.416 23.4463
Pt 7.23993 27.4567 21.4123
Au 5.15225 25.4148 25.3998
Pt 5.43086 27.4153 27.4598
Pt 7.18246 25.4263 27.4054
Pt 7.14567 27.4041 25.4166
Au 5.15398 25.3772 29.389
Au 5.19669 27.4753 31.4614
Pt 7.19464 25.4697 31.3031
Pt 7.16778 27.4168 29.468
Pt 5.56929 25.4361 33.364
Au 5.34882 27.5302 35.3836
Au 7.28495 25.4469 35.4196
Pt 7.3017 27.4632 33.3549
Au 5.38534 25.5272 37.4606
Pt 5.78203 27.4954 39.373
Pt 7.54693 25.4208 39.2264
Pt 7.4994 27.4352 37.3169
Pt 5.79661 25.4522 41.2475
Pt 5.89908 27.3878 43.0118
Pt 7.82601 25.4402 43.0709
Pt 7.72341 27.4357 41.1864
Pt 5.97164 25.4884 44.7464
Pt 7.71087 27.3807 44.9581
Pt 7.68758 29.3438 7.75294
Au 5.62854 29.3737 9.6222
Au 5.61963 31.4622 11.5706
Pt 7.51052 29.4018 11.624
Pt 7.63565 31.3337 9.68687
Au 5.39218 29.3752 13.5514
Pt 5.66893 31.4589 15.4942
Pt 7.40939 29.3715 15.5071
Au 7.51323 31.3532 13.521
Pt 5.54469 29.3802 17.4608
Pt 5.52133 31.4083 19.3469
Pt 7.31194 29.3842 19.4714
Au 7.43473 31.3619 17.4789
Au 5.16473 29.3854 21.3471
Au 5.16279 31.4415 23.3836
Pt 7.10194 29.4463 23.4115
Pt 7.22906 31.3135 21.4121
Au 5.13909 29.3666 25.4341
Pt 5.43161 31.4055 27.5278
Au 7.19158 29.4116 27.4177
Pt 7.15685 31.3232 25.4346
Pt 5.45916 29.4739 29.4799
Pt 5.52906 31.44 31.4569
Pt 7.3143 29.4241 31.3835
Pt 7.33332 31.4129 29.4493
Pt 5.56556 29.4747 33.3951
Au 5.37242 31.4279 35.4669
Pt 7.40955 29.4361 35.3714
Au 7.40296 31.3996 33.429
Pt 5.72115 29.4533 37.426
Pt 5.88963 31.3629 39.2399
Pt 7.66746 29.4179 39.3081
Pt 7.62564 31.3871 37.2965
Au 5.64977 29.4605 41.2408
Pt 7.70359 29.3545 43.1422
Pt 7.65576 31.3425 41.2433
Pt 7.64164 33.3747 11.5665
Pt 5.88967 33.4072 13.5923
Pt 5.88239 35.3122 15.5269
Pt 7.63224 33.3701 15.5386
Pt 7.66832 35.3739 13.5357
Pt 5.64721 33.4109 17.4285
Pt 5.68178 35.3588 19.3223
Pt 7.44926 33.3351 19.4182
Pt 7.60558 35.3475 17.4789
Pt 5.54639 33.3637 21.2781
Au 5.2617 35.3909 23.4747
Au 7.19439 33.3377 23.4382
Au 7.30779 35.3919 21.4553
Pt 5.46616 33.3745 25.5119
Pt 5.53642 35.3478 27.4397
Au 7.30459 33.3386 27.4418
Au 7.312 35.3715 25.4172
Pt 5.50954 33.3803 29.5059
Pt 5.64625 35.3672 31.5587
Pt 7.44084 33.355 31.4179
Au 7.34272 35.3719 29.4456
Pt 5.65073 33.4189 33.448
Pt 5.8459 35.3238 35.3404
Pt 7.57581 33.3498 35.3572
Pt 7.61585 35.3264 33.4106
Pt 5.87844 33.3472 37.3361
Pt 7.66133 33.3685 39.3064
Pt 7.65463 35.3461 37.3172
Pt 7.66632 37.3315 15.5356
Au 5.65298 37.3362 17.3971
Au 5.66254 39.3814 19.372
Pt 7.51731 37.3564 19.4269
Pt 7.66798 39.3253 17.5153
Au 5.39026 37.4007 21.3833
Pt 5.73875 39.3865 23.4818
Pt 7.39735 37.2946 23.4278
Au 7.47899 39.2674 21.4295
Pt 5.58975 37.4193 25.437
Au 5.41739 39.367 27.4061
Pt 7.36488 37.3355 27.4587
Au 7.50925 39.2683 25.4978
Au 5.36623 37.336 29.5418
Pt 5.89479 39.2243 31.5088
Pt 7.60101 37.2918 31.4534
Au 7.47567 39.2605 29.4121
Pt 5.84103 37.2782 33.4203
Pt 7.63395 37.3238 35.3713
Pt 7.64409 39.2925 33.4731
Pt 7.69689 41.2535 19.5568
Au 5.67762 41.3512 21.5234
Pt 5.9775 43.1868 23.5404
Pt 7.71074 41.2205 23.4491
Pt 7.74948 43.1869 21.5393
Pt 5.80914 41.3202 25.4062
Au 5.69019 43.2192 27.3689
Pt 7.57959 41.2664 27.5089
Pt 7.82364 43.0803 25.4879
Au 5.66547 41.2544 29.5263
Pt 7.7005 41.2043 31.4436
Au 7.5209 43.3128 29.5511
Pt 7.86972 45.0481 23.502
Pt 6.17692 44.9541 25.4193
Pt 7.8184 44.9632 27.4065
Pt 9.68247 7.67406 19.5313
Pt 11.6543 5.83291 19.5063
Pt 11.6047 7.6704 17.5634
Pt 9.7505 5.85278 21.4996
Au 9.77439 7.66969 23.4793
Pt 11.6229 5.66857 23.4382
Au 11.666 7.63099 21.4513
Pt 9.669 5.71693 25.4422
Pt 9.75034 7.64294 27.396
Au 11.6065 5.3611 27.4243
Pt 11.6757 7.4875 25.5036
Pt 9.75594 5.86818 29.3556
Au 9.45385 7.42568 31.561
Pt 11.6345 5.88958 31.3613
Pt 11.6249 7.61936 29.3743
Pt 11.57 7.6403 33.3792
Pt 9.61316 11.5371 15.6394
Au 11.4044 9.40865 15.4199
Au 11.4612 11.3477 13.4027
Pt 9.64972 9.5945 17.5901
Pt 9.50628 11.5861 19.4336
Pt 11.5845 9.61783 19.4585
Pt 11.5548 11.4741 17.4554
Au 9.63262 9.66487 21.4477
Pt 9.54082 11.6481 23.4099
Au 11.6598 9.65169 23.4881
Pt 11.528 11.6221 21.3886
Pt 9.64212 9.68371 25.4361
Au 9.55305 11.6279 27.436
Au 11.6052 9.57113 27.4261
Au 11.6149 11.5973 25.4403
Pt 9.56672 9.50962 29.5418
Pt 9.39351 11.4927 31.4903
Pt 11.47 9.43269 31.406
Au 11.4495 11.5194 29.4768
Pt 9.61043 9.56259 33.329
Au 9.45737 11.3903 35.5429
Pt 11.6165 9.56847 35.369
Au 11.412 11.4973 33.4492
Au 11.4333 11.3993 37.5526
Pt 9.57007 15.5936 11.5568
Au 11.4546 13.3727 11.3705
Au 11.3872 15.3474 9.3985
Au 9.44857 13.4378 13.3772
Au 9.46976 15.3892 15.4503
Au 11.4655 13.4134 15.4088
Pt 11.5078 15.3997 13.4268
Pt 9.40857 13.427 17.4804
Au 9.54777 15.4788 19.4782
Pt 11.4878 13.4527 19.4002
Au 11.476 15.4106 17.417
Pt 9.51048 13.5609 21.488
Pt 9.36915 15.5251 23.4311
Au 11.5271 13.5573 23.4264
Pt 11.4994 15.4257 21.4497
Au 9.46215 13.5976 25.4021
Pt 9.34979 15.5628 27.4082
Au 11.5161 13.5786 27.4535
Au 11.4884 15.538 25.4384
Pt 9.39392 13.6166 29.415
Au 9.43574 15.5481 31.3959
Au 11.4013 13.511 31.416
Au 11.4764 15.5389 29.4034
Pt 9.44842 13.4421 33.4518
Pt 9.46699 15.4984 35.4498
Pt 11.3876 13.4125 35.4917
Au 11.4254 15.4608 33.4593
Pt 9.52315 13.5757 37.354
Pt 9.57993 15.5624 39.2936
Au 11.4092 13.407 39.541
Au 11.4851 15.4109 37.4392
Pt 11.6228 15.5869 41.2871
Pt 9.59926 19.5181 7.66793
Au 11.3655 17.3349 7.45236
Pt 11.6004 19.4963 5.87662
Pt 9.56581 17.574 9.60564
Pt 9.48376 19.4087 11.5417
Au 11.5095 17.4138 11.458
Pt 11.553 19.3823 9.48374
Au 9.46785 17.4635 13.4484
Au 9.5261 19.4736 15.5153
Au 11.489 17.4167 15.4276
Pt 11.5574 19.3429 13.4499
Pt 9.45079 17.5119 17.5433
Pt 9.32618 19.5624 19.5721
Au 11.4581 17.495 19.4753
Au 11.4588 19.4871 17.531
Au 9.42349 17.491 21.4785
Au 9.38106 19.5169 23.4345
Au 11.4405 17.4609 23.4305
Au 11.3956 19.5554 21.4247
Au 9.3583 17.5061 25.4336
Pt 9.25857 19.4974 27.4038
Au 11.4185 17.5201 27.4144
Pt 11.3517 19.4517 25.4653
Au 9.35385 17.5177 29.3746
Pt 9.30858 19.5019 31.3349
Au 11.4341 17.4883 31.4174
Au 11.3319 19.5114 29.4011
Pt 9.39271 17.5004 33.3799
Au 9.46288 19.4786 35.3676
Au 11.4769 17.4686 35.4141
Au 11.421 19.4615 33.3632
Pt 9.50489 17.4429 37.3694
Pt 9.48898 19.442 39.3818
Au 11.4606 17.5023 39.392
Pt 11.4345 19.4495 37.3806
Au 9.46249 17.3685 41.4338
Pt 9.67685 19.5651 43.2525
Pt 11.6124 17.56 43.2231
Au 11.5367 19.4872 41.3453
Au 11.5594 19.4731 45.2519
Pt 9.70305 21.4738 5.88215
Pt 9.63193 23.4249 7.6754
Pt 11.5908 21.4341 7.67729
Pt 11.5112 23.3945 5.739
Au 9.59812 21.4124 9.63221
Au 9.5771 23.4698 11.6071
Au 11.57 21.3853 11.54
Pt 11.5664 23.4425 9.50743
Au 9.53549 21.4754 13.5748
Pt 9.34091 23.5032 15.5622
Au 11.5493 21.4133 15.48
Au 11.5348 23.4803 13.5802
Au 9.41319 21.5055 17.5323
Pt 9.30373 23.475 19.5523
Pt 11.3636 21.5074 19.5044
Au 11.4265 23.4486 17.4869
Pt 9.27668 21.5113 21.4889
Au 9.28436 23.4592 23.4477
Pt 11.3319 21.4597 23.4328
Au 11.3447 23.4441 21.4492
Au 9.33245 21.4633 25.4293
Au 9.27577 23.4779 27.4119
Pt 11.2931 21.4134 27.4369
Au 11.3154 23.4892 25.4471
Pt 9.2301 21.4541 29.3519
Au 9.2657 23.44 31.3393
Pt 11.3453 21.4463 31.3537
Au 11.3125 23.4154 29.4135
Au 9.38823 21.4846 33.3377
Pt 9.3738 23.475 35.4108
Au 11.4412 21.4663 35.3869
Au 11.395 23.4672 33.3763
Pt 9.48362 21.4689 37.3386
Pt 9.51128 23.4369 39.1954
Pt 11.4627 21.4306 39.266
Pt 11.4438 23.4291 37.2982
Au 9.55432 21.4317 41.2971
Au 9.65891 23.4607 43.2675
Pt 11.6927 21.4839 43.3353
Au 11.5978 23.3986 41.2709
Pt 9.72398 21.547 45.0316
Pt 11.5958 23.4831 45.2159
Pt 9.62234 25.4234 5.7929
Pt 9.63152 27.4009 7.74371
Au 11.5591 25.4321 7.60471
Pt 11.472 27.4668 5.73693
Pt 9.57741 25.4428 9.6476
Pt 9.49422 27.405 11.6223
Au 11.5615 25.4884 11.539
Pt 11.5749 27.4468 9.56088
Au 9.4547 25.4683 13.6263
Pt 9.36953 27.4161 15.5712
Au 11.4708 25.4976 15.5518
Pt 11.4904 27.4317 13.559
Au 9.37569 25.4538 17.5018
Au 9.35284 27.4521 19.4805
Au 11.3999 25.4698 19.458
Pt 11.4447 27.4787 17.5082
Au 9.27737 25.5024 21.4842
Pt 9.08238 27.4539 23.4218
Au 11.3025 25.5407 23.4003
Pt 11.3626 27.4801 21.3657
Au 9.21566 25.4968 25.4217
Au 9.17257 27.4204 27.4492
Pt 11.2688 25.474 27.4711
Au 11.2713 27.4367 25.4833
Au 9.23012 25.4518 29.3944
Au 9.2586 27.4343 31.3771
Au 11.387 25.4507 31.4092
Au 11.3185 27.455 29.4017
Au 9.28684 25.4324 33.3728
Au 9.39007 27.4066 35.3441
Pt 11.4353 25.3926 35.3612
Au 11.4364 27.3979 33.4102
Pt 9.46619 25.4119 37.2983
Au 9.61178 27.4294 39.2457
Pt 11.5077 25.3843 39.198
Au 11.5124 27.4175 37.2687
Au 9.70401 25.4485 41.1768
Au 9.67099 27.4644 43.2473
Au 11.6632 25.4493 43.3678
Pt 11.6405 27.4512 41.3632
Pt 9.60002 25.4546 45.1067
Pt 11.6074 27.4499 45.1917
Pt 9.62148 29.3552 5.89944
Pt 9.5407 31.3293 7.70927
Pt 11.5418 29.3877 7.69484
Pt 11.4845 31.2924 5.87895
Au 9.55353 29.4208 9.67865
Pt 9.53191 31.421 11.5764
Au 11.5544 29.3841 11.5725
Pt 11.5106 31.3755 9.55411
Au 9.45999 29.3336 13.5529
Au 9.51088 31.3914 15.5156
Au 11.4885 29.384 15.4995
Au 11.508 31.4434 13.494
Au 9.41256 29.3929 17.4975
Pt 9.36388 31.3437 19.456
Pt 11.4168 29.4383 19.4321
Pt 11.4687 31.4079 17.4999
Au 9.26782 29.4032 21.469
Au 9.19687 31.3783 23.4662
Au 11.2685 29.3693 23.4426
Au 11.3631 31.3932 21.4208
Au 9.16188 29.378 25.4034
Pt 9.20117 31.3649 27.4358
Au 11.2495 29.449 27.4574
Au 11.261 31.4213 25.4693
Pt 9.18122 29.4092 29.3928
Pt 9.30552 31.3651 31.3996
Au 11.3489 29.4435 31.3732
Pt 11.2915 31.3846 29.4105
Au 9.37166 29.4071 33.3914
Pt 9.47651 31.4134 35.3583
Pt 11.4862 29.4583 35.3374
Au 11.4329 31.4166 33.3984
Au 9.55258 29.4467 37.3013
Au 9.57687 31.4634 39.3908
Pt 11.5503 29.4874 39.3682
Pt 11.4984 31.4673 37.3723
Pt 9.62072 29.4091 41.2604
Pt 9.62579 31.2752 43.1784
Au 11.6203 29.3962 43.3057
Au 11.5478 31.5234 41.4009
Au 9.59511 29.4175 45.2428
Pt 11.6439 31.3377 45.0162
Pt 11.4619 33.27 7.66946
Pt 9.52904 33.3044 9.59583
Pt 9.54459 35.3382 11.6099
Au 11.4789 33.4451 11.4547
Au 11.289 35.5078 9.4515
Pt 9.4835 33.3984 13.5075
Au 9.53832 35.3671 15.4852
Pt 11.4863 33.3853 15.5137
Au 11.5019 35.3969 13.4823
Pt 9.46373 33.3302 17.544
Au 9.43719 35.3329 19.5119
Pt 11.4326 33.3482 19.471
Au 11.4774 35.3448 17.5143
Au 9.30505 33.3137 21.4366
Au 9.35845 35.3349 23.4312
Au 11.3546 33.3675 23.446
Pt 11.4003 35.3213 21.4427
Pt 9.22533 33.3316 25.4721
Au 9.36978 35.3318 27.4081
Pt 11.3181 33.3322 27.443
Au 11.375 35.3252 25.441
Au 9.38021 33.3393 29.4074
Au 9.49657 35.319 31.4218
Au 11.4395 33.3423 31.4176
Pt 11.4575 35.338 29.4387
Pt 9.45561 33.3374 33.3849
Au 9.53752 35.3746 35.3768
Pt 11.4862 33.4238 35.3838
Pt 11.472 35.3894 33.4283
Au 9.54036 33.3916 37.3688
Pt 9.60785 35.3336 39.3007
Pt 11.5201 33.4464 39.4242
Au 11.5209 35.4027 37.4099
Au 9.4382 33.535 41.4519
Au 11.4866 33.5474 43.4245
Pt 11.6115 35.3778 41.2854
Pt 11.4806 37.4178 11.6596
Pt 9.56647 37.3772 13.5947
Pt 9.5641 39.3776 15.572
Au 11.5085 37.4587 15.485
Pt 11.5119 39.4241 13.5948
Au 9.52106 37.4004 17.4924
Pt 9.54043 39.3346 19.4806
Au 11.4885 37.3509 19.5159
Pt 11.4847 39.4151 17.5138
Pt 9.42361 37.3282 21.4213
Pt 9.43814 39.1649 23.4148
Pt 11.4057 37.2534 23.3695
Pt 11.4846 39.2917 21.4533
Pt 9.36762 37.2877 25.4251
Pt 9.44855 39.248 27.4656
Au 11.4576 37.3169 27.4656
Au 11.4755 39.1541 25.3997
Au 9.46212 37.3063 29.4152
Pt 9.48905 39.267 31.4657
Au 11.4837 37.3632 31.4384
Pt 11.4213 39.296 29.4602
Pt 9.5073 37.3411 33.4328
Pt 9.5711 39.2572 35.3718
Pt 11.4711 37.3978 35.4567
Pt 11.4394 39.3496 33.4673
Pt 9.5595 37.2864 37.3507
Pt 11.5643 37.3071 39.3685
Au 11.352 39.4185 37.5635
Pt 11.5217 41.3326 15.5975
Pt 9.58624 41.2944 17.5669
Pt 9.62792 43.2012 19.5545
Pt 11.5289 41.3687 19.4477
Au 11.3845 43.4189 17.4011
Au 9.60773 41.2313 21.4675
Au 9.70768 43.2088 23.5167
Au 11.6048 41.2369 23.501
Pt 11.6199 43.2012 21.5202
Au 9.62288 41.1513 25.4769
Pt 9.63844 43.1399 27.4602
Au 11.567 41.2205 27.4337
Pt 11.648 43.3729 25.5021
Pt 9.48135 41.27 29.4615
Pt 9.60769 43.1843 31.3634
Au 11.4706 41.2534 31.424
Au 11.5924 43.2235 29.3779
Pt 9.55319 41.2357 33.3872
Au 11.3652 41.4473 35.4988
Pt 11.5118 43.2193 33.3215
Pt 11.6174 45.0162 19.6171
Pt 9.72717 45.0102 21.5553
Pt 11.5797 45.1889 23.4739
Pt 9.62594 45.1298 25.4772
Pt 11.5244 45.1812 27.4626
Pt 9.66835 44.9868 29.3548
Pt 11.5921 45.0139 31.3339
Pt 13.5154 7.66062 15.6196
Pt 15.464 5.82696 15.6305
Au 15.3804 7.47691 13.4666
Pt 13.5538 5.82371 17.6073
Pt 13.5937 7.6576 19.4885
Pt 15.4894 5.63305 19.4624
Au 15.5482 7.55146 17.5296
Pt 13.5645 5.65777 21.3949
Au 13.6145 7.45591 23.4595
Pt 15.5304 5.52927 23.341
Pt 15.5609 7.46682 21.4187
Pt 13.5704 5.55699 25.3893
Pt 13.5699 7.3518 27.423
Au 15.4728 5.2529 27.4254
Pt 15.5561 7.29839 25.4283
Pt 13.4948 5.66345 29.4991
Pt 13.569 7.64197 31.4016
Pt 15.4835 5.65261 31.5034
Au 15.5369 7.35505 29.4118
Pt 13.5431 5.86432 33.3328
Pt 13.5895 7.64569 35.3491
Au 15.5258 5.61339 35.4212
Au 15.55 7.54409 33.4293
Pt 15.5502 7.6471 37.3361
Pt 13.5983 11.4986 11.5011
Pt 15.5469 9.60896 11.5497
Pt 15.5404 11.5324 9.52878
Pt 13.5913 9.56813 13.592
Pt 13.4431 11.4272 15.4896
Pt 15.4906 9.48512 15.5015
Au 15.4863 11.4528 13.4952
Pt 13.5161 9.55567 17.4762
Au 13.5587 11.5377 19.4222
Pt 15.5677 9.49916 19.4441
Pt 15.4948 11.4671 17.4176
Au 13.6154 9.59716 21.455
Pt 13.5942 11.5922 23.3797
Au 15.5779 9.42978 23.4289
Pt 15.5508 11.5034 21.3818
Au 13.6371 9.44454 25.4924
Pt 13.5904 11.463 27.4366
Pt 15.5797 9.23888 27.4224
Au 15.5252 11.4492 25.4509
Au 13.5976 9.49216 29.3644
Au 13.4742 11.4629 31.4213
Au 15.5996 9.49673 31.4188
Au 15.5897 11.4498 29.4089
Au 13.4922 9.5451 33.4185
Au 13.4289 11.5287 35.5072
Au 15.5007 9.5661 35.41
Pt 15.5451 11.4591 33.4138
Pt 13.591 9.57819 37.3758
Pt 13.5861 11.5324 39.3539
Pt 15.5456 9.54955 39.3059
Pt 15.4872 11.501 37.457
Au 15.3326 11.3647 41.4399
Pt 13.5641 15.5146 7.61616
Pt 15.5435 13.5373 7.60015
Pt 15.514 15.5605 5.83507
Pt 13.6268 13.4954 9.4852
Au 13.4246 15.4026 11.3857
Au 15.4825 13.4355 11.441
Pt 15.5209 15.4825 9.46318
Au 13.4146 13.3834 13.4357
Pt 13.5001 15.4155 15.4271
Pt 15.4656 13.4118 15.4453
Au 15.4438 15.4204 13.4481
Pt 13.5074 13.4171 17.4002
Au 13.4806 15.4232 19.4189
Pt 15.5068 13.4585 19.3576
Au 15.473 15.4145 17.3759
Au 13.5525 13.5079 21.4239
Pt 13.5049 15.4944 23.4015
Pt 15.4818 13.5299 23.4126
Pt 15.4805 15.4568 21.4194
Au 13.563 13.5319 25.439
Pt 13.4834 15.5751 27.4355
Au 15.5134 13.489 27.4726
Au 15.4392 15.5305 25.4259
Au 13.4897 13.4976 29.4267
Pt 13.4548 15.5194 31.4307
Au 15.4862 13.4568 31.4252
Au 15.4349 15.5073 29.4709
Au 13.4476 13.4655 33.4279
Au 13.4461 15.4495 35.4665
Au 15.4495 13.4545 35.4728
Au 15.4117 15.5048 33.4234
Pt 13.4176 13.4201 37.529
Au 13.5036 15.4587 39.4194
Pt 15.4753 13.4588 39.4554
Au 15.4621 15.4848 37.4668
Pt 13.5845 13.564 41.3178
Pt 13.5751 15.5365 43.2168
Pt 15.4606 13.5811 43.2511
Pt 15.5283 15.5751 41.4037
Pt 15.5307 15.5575 45.0178
Pt 13.5842 17.5326 5.85614
Pt 13.5388 19.4305 7.63164
Pt 15.5104 17.4929 7.61525
Pt 15.446 19.3889 5.64755
Pt 13.4304 17.4036 9.43898
Au 13.5603 19.3769 11.4719
Pt 15.4588 17.4058 11.4359
Pt 15.5268 19.4131 9.44671
Pt 13.498 17.3749 13.4308
Pt 13.538 19.3446 15.3801
Pt 15.4931 17.3681 15.3904
Pt 15.5085 19.3112 13.464
Au 13.4767 17.4507 17.3982
Au 13.4901 19.519 19.4935
Au 15.4851 17.4327 19.4187
Au 15.4774 19.4193 17.3928
Au 13.4843 17.4513 21.4517
Au 13.3814 19.4912 23.4226
Pt 15.406 17.4592 23.4317
Pt 15.4166 19.4667 21.4763
Pt 13.4068 17.5169 25.4038
Pt 13.3457 19.4767 27.4311
Au 15.4055 17.4983 27.4563
Au 15.371 19.449 25.4301
Pt 13.4306 17.5363 29.4259
Au 13.4236 19.4508 31.4149
Pt 15.4301 17.4358 31.4214
Au 15.4263 19.4399 29.468
Pt 13.4516 17.4729 33.4304
Pt 13.441 19.4262 35.4536
Pt 15.4163 17.4711 35.4764
Au 15.4068 19.4067 33.4317
Pt 13.4479 17.4802 37.4596
Pt 13.5038 19.4621 39.3804
Pt 15.5051 17.5156 39.4464
Au 15.4649 19.4204 37.4466
Au 13.5716 17.5501 41.4038
Pt 13.5888 19.5732 43.3937
Au 15.5983 17.6012 43.4044
Pt 15.5546 19.5219 41.4652
Pt 13.5593 17.5138 44.9859
Au 15.4584 19.4782 45.5363
Pt 13.4571 21.3375 5.70956
Au 13.5785 23.4115 7.4296
Pt 15.5566 21.4052 7.37071
Au 15.4243 23.3408 5.30326
Au 13.6048 21.4482 9.49734
Au 13.5812 23.4732 11.4983
Au 15.5504 21.4349 11.491
Au 15.619 23.4602 9.35076
Au 13.5622 21.4058 13.4877
Au 13.5541 23.4988 15.5041
Au 15.4945 21.4546 15.4092
Pt 15.5925 23.5372 13.4273
Au 13.5037 21.4383 17.4582
Au 13.413 23.4434 19.4493
Pt 15.4153 21.494 19.4695
Pt 15.4251 23.4867 17.4984
Pt 13.3839 21.4861 21.4328
Au 13.3205 23.4827 23.4168
Au 15.3678 21.4697 23.4224
Au 15.3755 23.4733 21.438
Au 13.2918 21.4406 25.4494
Au 13.3027 23.4542 27.4409
Au 15.3659 21.4406 27.4436
Au 15.3496 23.4722 25.4368
Au 13.3636 21.4578 29.4405
Pt 13.3758 23.4693 31.4269
Pt 15.3852 21.4323 31.4575
Au 15.3631 23.4463 29.4908
Au 13.4102 21.4658 33.3872
Pt 13.4095 23.4557 35.3838
Au 15.4443 21.4411 35.4259
Au 15.4003 23.4503 33.4047
Au 13.4453 21.4338 37.3884
Pt 13.4503 23.4043 39.2994
Au 15.5209 21.4423 39.4166
Au 15.5008 23.427 37.3904
Au 13.5874 21.4659 41.381
Pt 13.6064 23.4656 43.4678
Pt 15.5587 21.4853 43.6083
Au 15.5396 23.45 41.5278
Au 13.4983 21.5301 45.5259
Pt 15.4958 23.515 45.3637
Pt 13.3889 25.5037 5.67517
Pt 13.5084 27.4655 7.52602
Au 15.5597 25.4081 7.24877
Pt 15.3675 27.5276 5.57837
Au 13.6073 25.4596 9.45043
Au 13.5863 27.4728 11.4828
Au 15.6111 25.5205 11.3911
Pt 15.5846 27.4622 9.30086
Au 13.579 25.495 13.478
Au 13.5194 27.4707 15.4665
Au 15.5234 25.4806 15.4417
Pt 15.5803 27.4953 13.3977
Pt 13.429 25.52 17.5004
Pt 13.3941 27.4973 19.4184
Au 15.389 25.4769 19.4401
Au 15.4314 27.4945 17.4708
Pt 13.3447 25.4814 21.3618
Au 13.3422 27.4474 23.4176
Au 15.3494 25.4792 23.4297
Au 15.3654 27.4752 21.4121
Au 13.3136 25.5082 25.4965
Pt 13.3411 27.506 27.469
Au 15.3616 25.484 27.4618
Au 15.3726 27.491 25.504
Au 13.3399 25.477 29.4135
Pt 13.3929 27.4583 31.4304
Au 15.3559 25.4824 31.4513
Au 15.3709 27.5066 29.4237
Pt 13.4278 25.4266 33.4282
Pt 13.449 27.4054 35.36
Au 15.4601 25.4487 35.3796
Pt 15.386 27.4294 33.4306
Au 13.4779 25.4024 37.3378
Au 13.4705 27.4519 39.3779
Au 15.5166 25.4392 39.4101
Au 15.4917 27.4438 37.3796
Au 13.55 25.4118 41.3645
Pt 13.6105 27.4265 43.4252
Pt 15.5189 25.4805 43.5053
Au 15.5246 27.4443 41.4393
Pt 13.5698 25.4628 45.3267
Pt 15.4798 27.4399 45.3887
Pt 13.384 29.413 5.69446
Pt 13.4975 31.3629 7.53523
Pt 15.4625 29.4502 7.41902
Au 15.3729 31.3637 5.35453
Pt 13.554 29.4203 9.45499
Au 13.5327 31.4053 11.4651
Au 15.5558 29.4225 11.3759
Pt 15.4967 31.3921 9.35624
Pt 13.5449 29.4453 13.4961
Au 13.4738 31.4264 15.4756
Pt 15.4356 29.4726 15.4709
Au 15.5089 31.4512 13.4689
Pt 13.4178 29.4566 17.4701
Pt 13.3866 31.4124 19.4165
Pt 15.3299 29.4583 19.4209
Pt 15.3747 31.4216 17.4527
Au 13.3611 29.4415 21.4166
Au 13.3726 31.4362 23.4905
Au 15.4012 29.4821 23.4812
Au 15.3905 31.4236 21.4476
Au 13.3548 29.4359 25.4866
Au 13.3494 31.4334 27.4221
Pt 15.3881 29.4949 27.4646
Pt 15.4139 31.4193 25.4897
Au 13.3586 29.47 29.4294
Pt 13.4274 31.4507 31.4515
Au 15.3936 29.4544 31.456
Au 15.4115 31.4399 29.4651
Au 13.433 29.422 33.4052
Au 13.455 31.4751 35.4136
Au 15.4527 29.4568 35.3987
Pt 15.4333 31.4431 33.4353
Au 13.4605 29.4602 37.3611
Au 13.5117 31.4685 39.3832
Au 15.5063 29.4367 39.3907
Pt 15.4679 31.4741 37.3975
Pt 13.572 29.4615 41.4337
Au 13.5845 31.4774 43.353
Pt 15.524 29.3955 43.4645
Au 15.5449 31.4192 41.4129
Pt 13.5651 29.4102 45.2487
Pt 15.4663 31.3849 45.2653
Au 13.34 33.3783 5.65265
Pt 13.3687 35.2881 7.5965
Au 15.4613 33.339 7.38294
Pt 15.5355 35.533 6.04142
Au 13.4597 33.4101 9.44542
Au 13.3972 35.5017 11.3681
Au 15.472 33.4343 11.4179
Au 15.3776 35.5422 9.27339
Pt 13.4836 33.4031 13.491
Au 13.5043 35.3855 15.4868
Pt 15.4485 33.3861 15.5032
Au 15.4369 35.3776 13.4521
Au 13.4579 33.4048 17.4983
Pt 13.449 35.3668 19.4936
Au 15.4247 33.4173 19.4656
Pt 15.4749 35.3921 17.5074
Pt 13.3922 33.3687 21.3955
Au 13.407 35.3198 23.4198
Au 15.4209 33.3678 23.4805
Au 15.4606 35.4078 21.4461
Pt 13.3636 33.3755 25.4727
Au 13.4253 35.3651 27.4453
Au 15.4203 33.403 27.4145
Au 15.4782 35.3952 25.4433
Au 13.3918 33.3747 29.4351
Au 13.4551 35.3972 31.4432
Pt 15.4064 33.4405 31.4942
Au 15.4457 35.4485 29.4475
Pt 13.455 33.4109 33.4346
Au 13.469 35.4203 35.4094
Au 15.4681 33.4313 35.4163
Au 15.4683 35.4523 33.4106
Pt 13.4886 33.4405 37.4265
Au 13.5237 35.3952 39.3908
Pt 15.5076 33.4573 39.4143
Pt 15.4506 35.4623 37.456
Pt 13.5503 33.4585 41.391
Pt 13.5976 35.3479 43.2483
Pt 15.5606 33.3977 43.3528
Pt 15.518 35.3904 41.3561
Au 13.6155 33.4392 45.313
Pt 15.5658 35.3948 45.0369
Au 15.26 37.7519 7.49534
Au 13.2845 37.6386 9.50721
Pt 13.4952 39.4892 11.6161
Au 15.3692 37.5032 11.4189
Pt 15.5062 39.5233 9.62883
Au 13.4754 37.4938 13.4637
Au 13.4741 39.5111 15.4798
Au 15.4757 37.4555 15.5256
Pt 15.3772 39.5751 13.4953
Au 13.5222 37.3979 17.5402
Au 13.5156 39.399 19.514
Pt 15.5606 37.449 19.4922
Au 15.5189 39.4531 17.5393
Au 13.4949 37.3599 21.4593
Au 13.5855 39.3394 23.457
Au 15.5615 37.4569 23.4456
Pt 15.5852 39.4668 21.4683
Au 13.5228 37.3284 25.4135
Au 13.5563 39.2764 27.4297
Pt 15.5148 37.4214 27.4315
Pt 15.6051 39.4849 25.4534
Pt 13.4665 37.3638 29.4491
Au 13.4979 39.3135 31.4219
Pt 15.4748 37.3997 31.4498
Au 15.5666 39.3596 29.4128
Pt 13.4249 37.3851 33.4353
Au 13.3569 39.3739 35.4788
Au 15.4455 37.4629 35.4494
Au 15.503 39.3684 33.4418
Pt 13.4443 37.4154 37.4475
Pt 13.5017 39.2404 39.3794
Pt 15.4678 37.4118 39.4573
Pt 15.4416 39.3735 37.505
Pt 13.5551 37.2864 41.3259
Pt 15.4972 37.3382 43.2096
Au 15.3125 39.4714 41.4877
Pt 15.5238 41.434 11.5924
Au 13.3287 41.5603 13.4163
Pt 13.5553 43.2498 15.6308
Pt 15.458 41.4085 15.5356
Pt 15.4969 43.2723 13.6311
Pt 13.4405 41.4046 17.5264
Pt 13.5003 43.2662 19.4776
Au 15.5508 41.4531 19.4982
Pt 15.4463 43.3722 17.5197
Au 13.5903 41.3635 21.5236
Pt 13.5584 43.404 23.5334
Pt 15.579 41.5345 23.4963
Pt 15.4907 43.4379 21.5066
Au 13.6008 41.3752 25.4649
Pt 13.5885 43.4561 27.3835
Au 15.5948 41.4568 27.431
Pt 15.5 43.4896 25.4687
Au 13.5657 41.3049 29.3781
Au 13.5521 43.2678 31.4082
Au 15.5787 41.3951 31.4161
Au 15.5491 43.4485 29.403
Au 13.451 41.3387 33.4614
Pt 13.5161 43.2646 35.2727
Au 15.4467 41.3784 35.46
Pt 15.5721 43.3846 33.3778
Pt 13.4956 41.2089 37.3499
Au 15.2979 41.4001 39.4803
Au 15.3064 43.4123 37.4314
Au 15.4795 45.3007 15.5173
Au 13.4783 45.2866 17.5677
Pt 15.376 45.205 19.5123
Pt 13.4857 45.1818 21.5095
Pt 15.4258 45.294 23.4959
Au 13.5076 45.5688 25.4837
Pt 15.5181 45.3293 27.4299
Pt 13.506 45.204 29.4341
Pt 15.4657 45.2343 31.4136
Pt 13.5176 45.05 33.2938
Au 15.4054 45.2774 35.3343
Au 17.4708 7.41624 11.466
Pt 19.6969 5.75618 11.6304
Pt 19.6233 7.57835 9.65273
Au 17.5928 5.54863 13.5668
Au 17.5188 7.43627 15.5093
Pt 19.5954 5.60136 15.4918
Au 19.5201 7.51286 13.5242
Au 17.4981 5.33442 17.4817
Pt 17.5242 7.39356 19.4372
Pt 19.4678 5.49635 19.4907
Pt 19.52 7.31316 17.5167
Pt 17.4699 5.52236 21.386
Pt 17.4931 7.35085 23.3674
Pt 19.3737 5.41765 23.2956
Pt 19.4703 7.3341 21.4252
Pt 17.45 5.45792 25.2809
Au 17.5298 7.1615 27.4119
Au 19.3788 5.14536 27.4404
Pt 19.4912 7.15158 25.3652
Pt 17.4804 5.52894 29.5779
Pt 17.5366 7.42215 31.4577
Pt 19.4452 5.49168 31.563
Pt 19.5338 7.20597 29.501
Pt 17.5092 5.64178 33.4678
Pt 17.4963 7.58813 35.3663
Pt 19.4365 5.6702 35.401
Pt 19.508 7.44212 33.3927
Pt 17.5603 5.88817 37.3279
Pt 17.5521 7.65523 39.3338
Au 19.4496 5.63866 39.3674
Pt 19.538 7.55885 37.3726
Pt 19.505 7.69839 41.2491
Pt 17.4805 11.576 7.63949
Au 19.2918 9.34809 7.51148
Pt 19.5294 11.5749 5.96015
Au 17.3629 9.41343 9.47639
Pt 17.4938 11.4557 11.4062
Pt 19.3877 9.50444 11.4552
Pt 19.4272 11.4736 9.39646
Au 17.4466 9.43222 13.4544
Pt 17.4478 11.439 15.4734
Au 19.5201 9.44204 15.5328
Pt 19.3961 11.4509 13.4672
Au 17.5528 9.45222 17.4847
Au 17.5087 11.4383 19.4374
Pt 19.5025 9.27549 19.4675
Pt 19.4406 11.4306 17.4696
Pt 17.5432 9.31621 21.4008
Au 17.4817 11.4105 23.3994
Au 19.4878 9.26253 23.449
Au 19.4954 11.3288 21.4431
Au 17.5174 9.25685 25.4474
Au 17.5101 11.3707 27.4362
Au 19.5061 9.17023 27.4242
Au 19.4971 11.3151 25.4247
Au 17.5663 9.3063 29.4196
Pt 17.5655 11.46 31.4286
Pt 19.5118 9.30883 31.4048
Au 19.4712 11.3676 29.4663
Pt 17.5739 9.43712 33.3663
Au 17.5 11.52 35.4203
Au 19.4848 9.47526 35.3744
Au 19.4851 11.4573 33.3515
Au 17.4982 9.52867 37.4129
Pt 17.3933 11.5078 39.4189
Pt 19.4745 9.57725 39.3277
Pt 19.4345 11.5299 37.4309
Pt 17.5414 9.58309 41.2399
Au 17.3464 11.3713 43.4348
Pt 19.5394 9.60822 43.213
Au 19.4354 11.5339 41.3941
Pt 19.5631 11.5982 44.9963
Au 17.443 13.4696 5.63678
Pt 17.4889 15.4856 7.54185
Pt 19.4836 13.6156 7.51701
Au 19.3899 15.4522 5.37353
Au 17.5084 13.4853 9.47973
Au 17.5014 15.4956 11.4484
Pt 19.4462 13.4884 11.4188
Pt 19.4758 15.5242 9.43529
Au 17.502 13.4199 13.4364
Pt 17.4496 15.4027 15.3963
Au 19.4409 13.4161 15.457
Pt 19.4254 15.4636 13.4402
Pt 17.4413 13.4386 17.3831
Pt 17.4229 15.404 19.3576
Au 19.4471 13.4575 19.3914
Pt 19.3725 15.416 17.3685
Au 17.447 13.4749 21.4175
Au 17.4587 15.4735 23.4323
Au 19.4867 13.3933 23.4434
Au 19.4439 15.4474 21.4044
Au 17.4782 13.4626 25.4152
Au 17.4759 15.4636 27.4807
Au 19.4365 13.4209 27.4665
Pt 19.4343 15.4524 25.445
Pt 17.5104 13.4991 29.5202
Pt 17.4476 15.4524 31.4563
Pt 19.4453 13.468 31.4448
Pt 19.4232 15.4273 29.5223
Au 17.4655 13.4772 33.4038
Au 17.4463 15.469 35.4635
Pt 19.4374 13.4768 35.3849
Pt 19.4257 15.4321 33.4006
Pt 17.4457 13.4767 37.4659
Au 17.465 15.5237 39.4675
Au 19.4473 13.5068 39.4286
Au 19.4445 15.4691 37.4374
Au 17.3844 13.4464 41.4663
Pt 17.5329 15.6181 43.3477
Au 19.4968 13.5909 43.3507
Au 19.4928 15.6085 41.4554
Pt 17.4856 13.595 44.9859
Au 19.4615 15.4623 45.5259
Pt 17.3866 17.4619 5.68913
Pt 17.4866 19.471 7.40818
Au 19.5187 17.4351 7.3217
Pt 19.4552 19.4536 5.55552
Au 17.5405 17.4959 9.4326
Au 17.4917 19.3883 11.4598
Pt 19.4859 17.4701 11.4287
Pt 19.5111 19.4305 9.29412
Pt 17.4798 17.3832 13.4374
Au 17.4719 19.3842 15.3892
Pt 19.4217 17.3793 15.4079
Pt 19.45 19.3435 13.4236
Pt 17.4454 17.3548 17.3347
Au 17.3981 19.4718 19.4258
Au 19.3814 17.4016 19.3657
Au 19.4194 19.4328 17.387
Au 17.4106 17.4405 21.4352
Au 17.416 19.4505 23.4174
Pt 19.4153 17.4421 23.4126
Au 19.4231 19.4543 21.4278
Au 17.4553 17.4587 25.4073
Au 17.4285 19.4404 27.4721
Au 19.4204 17.4144 27.485
Au 19.4323 19.4541 25.42
Pt 17.4375 17.3905 29.5272
Pt 17.3812 19.3726 31.4432
Pt 19.4098 17.37 31.4564
Au 19.3803 19.4072 29.5089
Au 17.4293 17.4288 33.4194
Au 17.4431 19.4206 35.4779
Au 19.4465 17.4567 35.4622
Au 19.4122 19.4314 33.4222
Pt 17.4572 17.4937 37.5071
Pt 17.4907 19.4584 39.4896
Pt 19.427 17.559 39.5011
Pt 19.4209 19.4681 37.5203
Pt 17.4859 17.5942 41.4776
Pt 17.5203 19.5398 43.6081