2057
Atoms. Timestep: 20186
Au 24.9831 24.6472 25.4406
Au 27.2808 24.6297 23.9829
Au 27.3241 24.6032 26.9149
Au 22.6749 24.6887 23.9631
Au 22.7308 24.659 26.9284
Pt 23.6118 26.9644 25.3682
Au 26.4529 26.9168 25.4547
Au 23.5091 22.3736 25.3293
Au 26.3658 22.3217 25.3618
Au 25.0839 23.1337 27.7258
Au 25.0259 26.0836 27.735
Au 24.9101 23.226 23.0652
Au 24.9996 26.0718 23.1037
Au 29.5926 24.6752 22.4894
Au 29.6465 24.5298 25.3457
Au 29.7714 24.4136 28.1539
Pt 20.392 24.6899 22.3581
Au 20.3514 24.6663 25.4238
Au 20.4489 24.6633 28.3962
Pt 22.2287 29.2191 25.3028
Pt 25.0354 29.2551 25.3356
Au 27.8362 29.2169 25.3857
Au 22.0265 20.1019 25.1624
Au 24.8519 19.9796 25.1839
Au 27.6571 19.9892 25.2409
Au 25.0131 21.7209 30.0728
Au 24.9129 24.5572 30.0389
Au 25.0596 27.563 30.0386
Au 24.8596 21.8152 20.6808
Au 24.9495 24.688 20.6734
Pt 24.9948 27.4782 20.7887
Au 27.463 23.2612 29.3947
Au 27.3553 26.1711 29.2436
Au 27.2612 23.2385 21.587
Au 27.3058 26.1185 21.596
Au 22.6454 22.9449 29.1535
Au 22.6737 26.2441 29.3134
Au 22.6052 23.2369 21.5164
Au 22.6378 26.0926 21.5408
Au 28.8135 26.9917 23.9671
Pt 28.7976 26.8704 26.9567
Au 21.2496 26.9687 23.9019
Au 21.2904 27.0232 26.8213
Pt 28.6625 22.2601 23.8551
Au 28.701 22.201 26.8183
Au 21.1649 22.3975 23.8055
Au 21.1678 22.292 26.7814
Au 23.636 28.4175 27.6751
Pt 26.5636 28.414 27.7352
Au 23.57 20.8239 27.6225
Pt 26.4483 20.8013 27.7081
Au 23.5585 28.3861 23.023
Pt 26.4264 28.389 23.1054
Pt 23.4164 20.8589 22.8567
Au 26.2608 20.8573 22.9176
Pt 31.8831 24.6677 20.941
Au 32.0458 24.421 23.779
Au 32.1322 24.3085 26.6421
Au 32.2306 24.2247 29.5218
Pt 18.0999 24.711 20.8933
Au 18.0551 24.6926 23.808
Au 17.9846 24.6699 26.8839
Au 18.1073 24.6727 29.8048
Au 20.7269 31.4739 25.1341
Pt 23.6211 31.5544 25.1873
Pt 26.4009 31.5922 25.2506
Pt 29.1528 31.5197 25.2927
Au 20.588 17.7832 24.9861
Au 23.3625 17.6326 24.9824
Au 26.1386 17.5606 25.0085
Au 28.9353 17.5642 25.0986
Au 24.7727 20.2819 32.3884
Au 24.409 23.1673 32.4504
Au 24.3882 26.0101 32.263
Au 25.0869 29.0671 32.2624
Au 24.8291 20.4751 18.2703
Au 24.8773 23.2473 18.2326
Au 24.9538 26.0758 18.2894
Au 25.0309 28.8478 18.3637
Au 30.0835 22.6707 30.4693
Au 27.4891 21.4058 31.3583
Pt 31.6178 26.9355 30.6116
Pt 29.4783 25.4298 30.5359
Au 27.6267 27.8717 31.4596
Au 29.5822 23.2063 20.052
Au 27.1951 21.8163 19.1328
Au 29.6649 26.1109 20.0567
Au 27.2919 24.6562 19.1297
Au 27.3211 27.4761 19.1671
Au 20.1518 22.7784 30.4998
Pt 22.3326 21.5232 31.5725
Au 20.2876 26.3988 30.7604
Au 22.2198 24.4215 31.3627
Au 22.5109 28.0338 31.6431
Au 20.3084 23.2771 19.9827
Pt 22.5095 21.7973 19.1179
Pt 20.313 26.106 19.9771
Au 22.5694 24.6639 19.0885
Au 22.6598 27.4955 19.1715
Au 30.315 29.3536 23.8153
Au 31.2214 27.0152 22.3546
Au 30.2956 28.9653 26.6045
Au 31.2618 26.7442 25.2206
Pt 31.3318 26.6209 28.0177
Au 19.8343 29.2812 23.7708
Au 18.9461 26.9788 22.2989
Pt 19.8104 29.3389 26.6982
Au 18.8687 27.0167 25.3164
Au 18.9376 27.0534 28.2505
Au 29.9674 19.8893 23.6565
Au 30.9014 22.2182 22.33
Au 30.0597 19.7849 26.6176
Au 31.0307 22.098 25.2139
Pt 31.1739 21.9376 28.1042
Au 19.6701 20.0782 23.68
Au 18.8495 22.4118 22.2666
Pt 19.6586 19.9689 26.6612
Au 18.7784 22.3338 25.2637
Au 18.8024 22.2618 28.1393
Pt 23.4849 29.9635 29.8962
Au 22.1246 30.7295 27.5262
Au 26.4252 29.9937 29.9539
Au 25.0509 30.7768 27.5836
Au 28.01 30.647 27.7716
Au 23.4332 19.3859 29.9822
Au 21.9784 18.5372 27.4452
Au 26.281 19.2309 29.9084
Au 24.8742 18.4195 27.5263
Au 27.7029 18.3941 27.5394
Au 23.5537 29.8038 20.6212
Pt 22.1732 30.6957 22.9119
Au 26.4655 29.762 20.6776
Au 25.0155 30.722 22.9381
Au 27.91 30.6876 22.9788
Pt 23.3626 19.4925 20.4731
Pt 21.9484 18.616 22.695
Pt 26.1758 19.4004 20.4849
Pt 24.7462 18.4818 22.6736
Au 27.5805 18.5024 22.7204
Au 28.845 20.5806 29.0562
Au 29.3889 28.227 29.3601
Au 28.5874 20.8208 21.3705
Au 28.8448 28.4063 21.4991
Au 21.041 20.6033 29.0452
Au 21.1543 28.6264 29.1604
Au 21.097 20.8842 21.3527
Au 21.1692 28.4367 21.412
Pt 34.0954 24.6186 19.4647
Au 34.3787 24.3774 22.1613
Pt 34.5355 24.1359 24.9214
Pt 34.6464 24.163 27.6216
Pt 34.8131 23.5867 30.1371
Au 15.8133 24.7034 19.4297
Pt 15.7191 24.6886 22.2343
Au 15.6633 24.7049 25.2664
Pt 15.5759 24.6047 28.2364
Pt 15.7908 24.645 31.0518
Au 19.1794 33.7856 24.9573
Au 22.1231 33.89 24.9866
Pt 24.9545 33.9365 25.0832
Pt 27.7212 33.9341 25.1115
Au 30.5761 33.7891 25.1667
Au 19.0847 15.4927 24.8496
Pt 21.8782 15.2504 24.8068
Pt 24.6235 15.1746 24.7553
Pt 27.4578 15.1911 24.9176
Pt 30.3136 15.2396 24.9784
Au 24.5557 18.7012 34.5636
Au 23.9999 21.7251 34.8482
Pt 24.023 24.7428 34.6685
Au 23.8431 27.6681 34.273
Au 24.7192 30.7851 34.3233
Au 24.7808 19.1228 15.9026
Pt 24.8468 21.8813 15.777
Au 24.9373 24.6431 15.806
Au 24.9353 27.4889 15.8523
Au 24.9919 30.2516 15.9372
Pt 32.5723 22.3865 31.7226
Au 29.941 20.9336 32.7755
Au 27.3694 19.7307 33.575
Au 31.4243 24.758 32.288
Au 28.9893 23.4991 32.7935
Au 26.6406 22.4505 33.7089
Au 29.3368 26.3859 32.9799
Au 26.9286 24.8957 31.8711
Pt 26.534 26.8135 33.7384
Pt 31.8111 23.2269 18.5564
Pt 29.5134 21.7628 17.6606
Pt 27.1477 20.4493 16.7162
Pt 31.922 26.0949 18.5559
Au 29.6221 24.6502 17.6257
Au 27.236 23.2177 16.66
Pt 29.6744 27.4907 17.6618
Au 27.2903 26.0762 16.6938
Pt 27.3663 28.8704 16.7392
Pt 17.7214 22.6868 31.7853
Pt 19.8793 21.4428 32.9392
Au 22.1025 19.9804 33.7953
Pt 17.9133 26.4832 31.9945
Pt 19.6758 24.3536 32.5897
Pt 21.8502 23.1125 33.7863
Pt 20.0097 28.1812 32.8966
Pt 21.7505 25.9988 33.4233
Pt 22.0878 29.7986 33.8497
Au 18.0159 23.2727 18.4934
Pt 20.2492 21.8812 17.6079
Pt 22.4783 20.4929 16.7137
Pt 18.0251 26.1409 18.5096
Pt 20.244 24.7023 17.569
Au 22.5337 23.2313 16.6711
Au 20.2945 27.5127 17.6248
Au 22.5877 26.077 16.6652
Au 22.6119 28.8986 16.7446
Au 31.6435 31.7653 23.5079
Au 32.6607 29.4397 22.1103
Au 33.5553 27.0214 20.82
Au 31.8284 31.1785 26.1989
Au 32.891 28.9286 24.9387
Pt 33.687 26.5829 23.572
Au 32.8087 28.853 27.8334
Au 33.7841 26.5311 26.3255
Au 33.9162 26.4163 29.0719
Au 18.2722 31.5888 23.5902
Au 17.4441 29.3028 22.1398
Au 16.6009 27.014 20.7945
Pt 18.2379 31.57 26.5036
Au 17.3798 29.3477 25.1217
Au 16.483 26.9995 23.6802
Au 17.3932 29.3837 28.0289
Au 16.4845 27.0228 26.6757
Au 16.5418 27.04 29.5669
Au 31.287 17.4728 23.5135
Pt 32.2655 19.8281 22.0697
Au 33.1286 22.2002 20.7802
Au 31.3666 17.3107 26.4784
Au 32.4081 19.6776 25.0056
Pt 33.327 21.9733 23.6545
Au 32.4487 19.4349 27.9588
Au 33.463 21.865 26.537
Pt 33.4661 21.4668 29.3998
Au 18.1659 17.7707 23.4992
Au 17.3256 20.0801 22.1401
Pt 16.5476 22.3566 20.7718
Au 18.1808 17.6904 26.4477
Au 17.2469 19.997 25.1178
Au 16.4334 22.3815 23.6747
Au 17.2753 19.934 28.0264
Au 16.3504 22.3416 26.6364
Au 16.4018 22.2714 29.4565
Au 23.2828 31.5225 32.0902
Au 21.9399 32.3262 29.7449
Au 20.582 33.0634 27.3754
Au 26.2558 31.7146 32.1563
Au 24.7975 32.437 29.8053
Au 23.4899 33.2079 27.4087
Pt 27.5718 32.5531 29.8404
Au 26.3271 33.198 27.4644
Au 29.1552 33.0886 27.5625
Pt 23.27 17.7666 32.0809
Au 21.8944 17.0508 29.736
Au 20.5018 16.1815 27.2536
Au 26.0756 17.6395 32.1051
Pt 24.7527 16.8603 29.7586
Au 23.3279 16.0409 27.246
Pt 27.5922 16.742 29.6721
Au 26.1801 15.9827 27.2809
Pt 28.9998 15.9666 27.3515
Au 23.5414 31.2287 18.1537
Au 22.0668 32.1509 20.463
Au 20.6007 32.9999 22.6742
Au 26.467 31.2009 18.2021
Au 24.9631 32.2248 20.428
Au 23.5099 33.0713 22.7341
Au 27.8711 32.1589 20.5379
Au 26.3894 33.0827 22.814
Pt 29.2007 33.0599 22.8804
Au 23.3258 18.1154 18.0762
Au 21.86 17.2227 20.3226
Pt 20.5207 16.2809 22.559
Pt 26.1614 18.0362 18.1146
Pt 24.7052 17.077 20.299
Au 23.2702 16.1711 22.5552
Pt 27.5436 17.091 20.2844
Au 26.0898 16.0999 22.5415
Au 28.9281 16.1354 22.6316
Pt 31.2846 20.1693 30.4195
Au 31.4946 29.596 31.0476
Pt 30.1282 18.0687 28.8675
Pt 30.5653 30.5783 28.6557
Au 28.7579 18.8446 31.1957
Au 28.8442 30.5171 31.3062
Pt 30.8863 20.7407 19.8396
Pt 31.1932 28.4387 19.8892
Au 29.9568 18.4121 21.1674
Au 30.2517 30.7435 21.2747
Au 28.5229 19.3925 18.9367
Au 28.8047 29.7915 18.9976
Pt 18.6128 20.5036 30.4033
Pt 18.7387 28.7634 30.493
Pt 19.5139 18.3274 28.9114
Pt 19.5954 30.8738 28.9403
Pt 20.9251 19.1791 31.34
Pt 20.8883 30.2669 31.3914
Pt 18.8004 20.9212 19.8367
Pt 18.8111 28.4545 19.8054
Pt 19.5832 18.6156 21.1709
Au 19.6781 30.7538 21.2563
Pt 21.0316 19.5045 18.9363
Au 21.1522 29.8728 18.99
Pt 36.2598 24.5114 18.0196
Pt 36.7822 24.1769 20.6145
Au 36.9447 24.0806 23.3688
Au 37.0231 23.9268 26.2277
Pt 37.2545 23.992 29.0222
Pt 35.8105 21.1923 30.7856
Pt 13.5229 24.806 17.9548
Au 13.3961 24.7323 20.7545
Au 13.3832 24.7318 23.6204
Pt 13.2883 24.6227 26.5794
Pt 13.1913 24.6082 29.3855
Au 13.4008 24.7527 32.1758
Au 17.7619 36.15 24.7396
Au 20.6026 36.2169 24.7783
Pt 23.4656 36.2558 24.9276
Pt 26.2903 36.2962 24.9504
Au 29.0994 36.3019 24.9136
Au 31.9463 36.1452 25.0075
Pt 17.6268 13.2434 24.7959
Pt 20.4018 13.0225 24.684
Pt 23.1407 12.8662 24.6392
Au 25.9695 12.8384 24.6377
Au 28.8183 12.8709 24.7275
Au 31.6392 12.8952 24.6965
Au 22.0812 16.1797 37.9347
Pt 25.8605 19.0267 38.2546
Au 23.6202 23.5549 37.1161
Pt 23.3732 28.4148 38.9316
Au 23.4309 29.4572 36.3746
Au 24.4472 32.3289 36.5094
Au 24.7022 17.7094 13.5498
Pt 24.7868 20.5483 13.4504
Pt 24.8394 23.2699 13.4024
Au 24.8957 26.1026 13.4189
Pt 24.9099 28.8724 13.4293
Pt 24.9661 31.6435 13.5845
Pt 34.6651 21.9685 33.182
Au 32.3949 20.5128 33.9721
Au 29.7797 19.3376 35.1337
Au 27.2101 18.0243 35.7734
Au 33.4935 24.9299 34.2995
Pt 33.2848 27.1835 36.1229
Au 28.7356 21.9022 35.6726
Au 26.2172 20.5371 36.0041
Pt 30.9689 26.0245 35.2186
Au 28.3278 24.776 35.0775
Au 23.5763 26.5946 36.7505
Au 28.6545 27.6881 35.263
Au 26.1981 25.8991 36.2979
Au 25.9829 28.6213 35.8113
Pt 33.9881 23.1376 17.1297
Au 31.7265 21.837 16.1316
Au 29.4297 20.402 15.2529
Au 27.1049 19.1063 14.3437
Au 34.1236 26.035 17.0209
Pt 31.8615 24.6706 16.1296
Au 29.5257 23.2654 15.1548
Pt 27.135 21.9055 14.2344
Pt 31.876 27.4957 16.1415
Au 29.5756 26.0923 15.1908
Pt 27.212 24.6503 14.1888
Au 29.6065 28.8914 15.205
Au 27.2529 27.4807 14.2612
Au 27.2968 30.3115 14.3485
Pt 15.2693 22.7168 32.9913
Pt 17.4309 21.5458 34.2162
Au 19.444 19.8192 35.2759
Au 22.1562 18.807 36.4208
Au 15.5401 26.5441 33.1526
Pt 17.2286 24.384 33.7858
Pt 19.3737 23.1818 35.0719
Au 21.4604 21.688 36.122
Au 17.5757 28.2671 34.1566
Au 19.2441 26.0576 34.5817
Au 21.4773 24.817 35.8758
Au 19.7006 29.9234 35.1183
Pt 21.2898 27.6686 35.4426
Pt 21.7692 31.6446 36.0428
Au 15.6481 23.2976 17.0003
Pt 17.9333 21.9002 16.0917
Au 20.1901 20.5233 15.2032
Au 22.4414 19.0784 14.3556
Pt 15.7469 26.1701 17.0301
Au 17.9315 24.7473 16.0533
Au 20.1971 23.3116 15.1373
Pt 22.4843 21.8959 14.2273
Pt 17.9937 27.6015 16.1564
Au 20.2615 26.1851 15.1402
Au 22.5641 24.6902 14.2173
Pt 20.3191 28.9578 15.2054
Pt 22.5613 27.526 14.2302
Au 22.6267 30.2993 14.3857
Pt 33.0336 34.0609 23.1783
Pt 33.9596 31.8334 21.7133
Pt 34.8795 29.49 20.4202
Au 35.8359 26.9728 19.1754
Au 33.294 33.5781 25.783
Au 34.2836 31.239 24.3772
Au 35.1797 28.7833 23.1391
Pt 36.1415 26.4826 21.8808
Pt 34.4111 31.2547 27.2293
Pt 35.3253 28.7204 26.1329
Au 36.1601 26.4251 24.7589
Au 35.3214 28.9735 28.9309
Pt 36.2754 26.3557 27.5725
Au 36.3633 26.2815 30.4496
Pt 16.8554 33.9277 23.3746
Au 15.9808 31.6407 22.0008
Pt 15.1412 29.3348 20.5869
Pt 14.3213 27.0709 19.2742
Pt 16.7411 33.9146 26.2639
Pt 15.8843 31.6894 24.9581
Au 14.9784 29.3772 23.5198
Pt 14.1594 27.0753 22.0808
Pt 15.8415 31.7226 27.7755
Au 14.9557 29.4295 26.4166
Au 14.0936 27.0927 25.0307
Pt 14.9816 29.512 29.2383
Au 14.1011 26.9766 27.9322
Au 14.1192 27.0964 30.7308
Pt 32.6512 15.1523 23.3925
Au 33.551 17.4323 21.9531
Pt 34.4606 19.7382 20.5618
Pt 35.3789 22.1144 19.3116
Pt 32.7213 14.9461 26.3466
Au 33.7428 17.2401 24.9799
Pt 34.6654 19.5696 23.513
Au 35.5497 21.8642 22.1623
Pt 33.825 16.9929 27.8379
Au 34.8338 19.3777 26.4489
Pt 35.7185 21.6462 25.0234
Pt 34.8767 19.0945 29.2891
Au 35.8206 21.6827 27.9528
Pt 35.9435 19.4453 32.9963
Pt 16.6636 15.5099 23.4059
Pt 15.8047 17.7435 22.0153
Pt 14.9839 20.0382 20.7034
Pt 14.2459 22.3842 19.3513
Pt 16.6415 15.3897 26.2541
Pt 15.7159 17.6624 24.8954
Au 14.8729 19.984 23.5372
Au 14.1051 22.3383 22.1399
Au 15.7541 17.6323 27.7526
Au 14.7942 19.9727 26.4474
Au 13.9907 22.3553 25.0443
Pt 14.7735 19.9635 29.2492
Pt 13.9262 22.3165 27.8869
Au 14.002 22.283 30.6687
Pt 23.0582 33.2245 34.2522
Au 21.7865 34.0099 31.9037
Au 20.5096 34.8205 29.5378
Au 19.1238 35.49 27.1403
Pt 25.9438 33.382 34.3928
Au 24.6052 34.1049 31.9957
Pt 23.379 34.9155 29.5869
Au 22.011 35.6067 27.2444
Pt 27.3505 34.2189 32.0253
Pt 26.1111 34.9486 29.6741
Pt 24.824 35.6304 27.2805
Au 28.8959 34.9186 29.7695
Au 27.6034 35.6108 27.3432
Au 30.4439 35.5637 27.4386
Au 23.2663 16.1784 34.1855
Pt 21.8286 15.3852 31.8156
Au 20.4372 14.6018 29.4549
Pt 19.0084 13.8453 27.0745
Au 26.0688 15.9482 34.2253
Pt 24.6523 15.2164 31.8599
Au 23.2353 14.4745 29.4562
Pt 21.7799 13.6302 27.0482
Pt 27.5078 15.1524 31.8185
Au 26.0763 14.4024 29.4921
Au 24.6273 13.5896 27.021
Pt 28.9336 14.3489 29.4293
Pt 27.5274 13.5961 27.1262
Pt 30.3055 13.6192 27.1079
Pt 23.5183 32.6549 15.7775
Au 22.0493 33.548 18.0531
Pt 20.5477 34.4516 20.2709
Pt 19.1395 35.3101 22.4366
Au 26.4097 32.6372 15.8069
Pt 24.9011 33.6748 17.9942
Pt 23.441 34.5992 20.2921
Pt 21.9823 35.3787 22.4786
Au 27.7493 33.6174 18.0541
Au 26.2695 34.6479 20.2735
Au 24.8433 35.4575 22.6223
Au 29.1621 34.5792 20.359
Au 27.7136 35.4639 22.6256
Au 30.5597 35.3682 22.6628
Pt 23.2417 16.6699 15.7145
Au 21.7916 15.7626 17.88
Pt 20.4294 14.8764 20.1821
Pt 19.0374 14.0304 22.4675
Au 26.1153 16.6431 15.701
Pt 24.6386 15.6307 17.8883
Au 23.2196 14.7254 20.1262
Pt 21.8054 13.8092 22.3977
Au 27.5082 15.6778 17.9294
Pt 26.0115 14.7056 20.1268
Pt 24.5559 13.7253 22.3574
Au 28.9427 14.7742 20.1563
Au 27.3874 13.696 22.389
Au 30.3025 13.8287 22.4519
Pt 33.6522 19.7842 31.6715
Pt 33.8741 25.3953 31.653
Au 32.5372 17.7182 30.2361
Pt 33.0571 31.0022 29.4186
Pt 31.4232 15.6263 28.6918
Au 31.858 33.1151 28.0838
Au 31.1905 18.3834 32.6812
Pt 30.0826 28.9211 33.2264
Au 30.0374 16.3697 30.9908
Pt 30.3027 32.5109 30.2605
Au 28.6492 17.1983 33.4291
Au 27.4877 29.6883 33.6812
Au 33.1309 20.7329 18.3427
Au 33.4183 28.461 18.3293
Pt 32.2263 18.3538 19.6194
Pt 32.5186 30.8255 19.5954
Pt 31.3222 16.1062 20.9488
Au 31.5248 33.1272 21.059
Pt 30.8521 19.3004 17.4538
Au 31.0943 29.8761 17.4249
Pt 29.9295 17.018 18.715
Au 30.1582 32.1906 18.7725
Au 28.5182 17.9874 16.5287
Pt 28.768 31.246 16.519
Au 16.0884 20.4274 31.7252
Pt 16.349 28.8954 31.6439
Au 17.0407 18.2064 30.2784
Pt 17.1977 31.0568 30.2127
Pt 18.0404 16.0019 28.6367
Au 18.0966 33.2305 28.6579
Au 18.5116 19.0725 32.6721
Pt 18.489 30.4747 32.6593
Au 19.3844 16.8184 31.2029
Au 19.4278 32.5927 31.0926
Au 20.8785 17.5336 33.6137
Pt 20.6381 32.0383 33.5645
Au 16.4075 20.9314 18.3931
Pt 16.5194 28.4699 18.3561
Au 17.2149 18.6113 19.7158
Pt 17.3352 30.785 19.642
Au 18.1285 16.3071 21.0771
Pt 18.1975 33.0799 21.0551
Au 18.7162 19.5509 17.4492
Au 18.8099 29.9233 17.4326
Au 19.5026 17.1685 18.7498
Au 19.6323 32.2222 18.8505
Pt 20.9626 18.1001 16.5584
Pt 21.1363 31.2924 16.585
Au 38.4513 24.3818 16.554
Pt 38.6579 25.4602 19.1293
Pt 38.9227 25.6961 21.8502
Au 38.9262 25.6889 24.6841
Pt 38.9801 25.6852 27.4377
Pt 39.1271 25.7039 30.1148
Pt 40.5827 21.164 30.2832
Au 11.2955 24.7848 16.4459
Pt 11.0765 24.77 19.2963
Au 10.9827 24.7279 22.0716
Au 10.9783 24.7152 24.9121
Au 10.8868 24.7214 27.7884
Pt 10.7678 24.8212 30.6198
Pt 11.0765 24.889 33.4066
Pt 16.363 38.4875 24.5201
Pt 19.1546 38.5777 24.6321
Au 21.9424 38.6049 24.74
Au 24.785 38.5971 24.7428
Pt 27.6043 38.715 24.7682
Pt 30.3236 38.7154 24.7161
Au 33.1022 38.6238 24.7291
Pt 16.1725 10.9857 24.6815
Pt 18.9423 10.7748 24.6005
Pt 21.6678 10.6249 24.5145
Pt 24.4317 10.4976 24.4934
Au 27.304 10.4083 24.4581
Au 30.1425 10.3901 24.4981
Pt 32.9469 10.482 24.4687
Au 24.5637 17.0747 36.73
Pt 24.4606 20.4349 40.2563
Pt 23.7787 20.7478 37.5564
Au 23.3323 25.5798 39.2211
Pt 25.4449 29.0448 40.6946
Pt 23.0216 31.2098 38.523
Pt 24.1214 33.872 38.6333
Au 24.7017 16.3739 11.2024
Pt 24.7394 19.1633 11.1115
Au 24.8189 21.8789 11.0634
Au 24.8476 24.7149 11.0319
Pt 24.9413 27.4854 11.038
Pt 24.9238 30.2275 11.089
Au 24.9272 32.9992 11.2563
Pt 33.5417 22.524 35.6117
Au 31.2087 23.0368 34.3461
Pt 29.8261 21.9191 38.4159
Au 29.6293 17.4875 37.1677
Au 26.1657 21.8231 38.523
Pt 35.8358 26.2748 33.113
Pt 34.2431 24.7377 36.9319
Pt 30.4038 23.9519 36.7128
Au 26.0795 23.2716 36.1395
Au 29.0109 18.618 42.3773
Au 32.3508 27.3131 33.2368
Pt 30.7135 28.2466 36.9895
Au 28.7798 26.3301 37.6768
Au 25.6597 22.8531 41.4553
Au 32.0995 29.4257 34.9793
Pt 30.4516 27.1498 39.6446
Pt 25.5073 26.2643 40.9702
Au 28.0496 29.1437 37.559
Au 25.9109 27.3392 38.5265
Pt 25.5439 30.2003 38.1531
Au 36.2176 23.0492 15.6422
Au 33.9625 21.7453 14.5612
Au 31.7014 20.3618 13.65
Pt 29.4276 19.0202 12.8309
Au 27.0639 17.6498 12.0385
Au 36.4514 26.0968 15.6016
Au 34.0724 24.5631 14.5805
Pt 31.786 23.2017 13.5496
Au 29.4683 21.8447 12.7317
Pt 27.1605 20.5044 11.9035
Pt 34.1036 27.4698 14.5656
Au 31.8514 26.0663 13.6938
Au 29.5132 24.7206 12.7028
Pt 27.1742 23.3142 11.8227
Pt 31.8445 28.9016 13.6889
Pt 29.5218 27.5038 12.7105
Pt 27.2164 26.1171 11.8018
Pt 29.5523 30.3007 12.7522
Au 27.2452 28.9088 11.8398
Pt 27.2724 31.7217 11.9944
Pt 12.8209 22.8953 34.2176
Pt 14.9459 21.6496 35.4087
Pt 16.9974 20.6809 36.7273
Au 18.1102 16.8835 39.0807
Pt 18.3617 15.3325 36.7052
Au 13.1258 26.6823 34.3927
Pt 14.7959 24.4959 34.9668
Pt 16.8978 23.3248 36.3662
Pt 19.1388 22.2238 37.615
Pt 21.4059 20.9062 38.6944
Au 15.1137 28.4106 35.4635
Pt 16.786 26.0786 35.8596
Pt 18.9654 24.9382 37.147
Pt 21.2242 23.7546 38.3847
Au 17.2568 30.0937 36.4245
Pt 18.8801 27.6894 36.7339
Pt 21.0492 26.5315 38.0201
Pt 19.3457 31.7229 37.3026
Au 21.0098 29.3763 37.5891
Pt 21.429 33.4182 38.2385
Pt 13.3933 23.2819 15.4879
Au 15.6279 21.9191 14.5929
Pt 17.8971 20.5201 13.6906
Au 20.1796 19.1123 12.7876
Pt 22.3938 17.6855 11.9458
Pt 13.4832 26.1533 15.5201
Pt 15.6342 24.697 14.5364
Pt 17.9018 23.3018 13.6011
Pt 20.2286 21.9403 12.6744
Pt 22.4645 20.5309 11.8801
Au 15.7013 27.5237 14.6221
Au 17.9655 26.1256 13.6196
Au 20.2259 24.7094 12.6857
Pt 22.5054 23.328 11.7885
Au 18.05 28.9564 13.7132
Pt 20.3056 27.5172 12.6678
Pt 22.546 26.1172 11.8161
Pt 20.32 30.3389 12.8126
Au 22.5869 28.8877 11.8623
Au 22.6115 31.7178 12.0157
Au 34.2297 36.5405 23.1107
Au 35.2322 34.3394 21.5965
Au 36.1782 32.0765 20.1872
Pt 37.0907 29.758 18.9229
Pt 38.1227 27.4443 17.5518
Pt 34.4842 36.5023 25.8264
Pt 35.5015 34.4224 24.3327
Pt 36.4327 32.285 22.97
Au 37.2644 30.0358 21.6978
Pt 38.1227 27.7969 20.3994
Au 35.4134 34.3917 27.2299
Au 36.4057 32.3271 25.7835
Au 37.203 30.1046 24.5066
Au 38.1019 27.8972 23.2245
Pt 36.4358 32.3219 28.7298
Au 37.2389 30.1733 27.3238
Pt 38.1626 27.9344 26.0326
Pt 37.4856 30.1916 30.1904
Au 38.0545 27.9204 28.824
Au 36.5451 23.5949 32.0812
Au 15.3895 36.2955 23.2312
Au 14.5102 33.9937 21.8454
Au 13.631 31.6402 20.4751
Au 12.8042 29.3485 19.1265
Pt 12.0244 27.1017 17.8176
Pt 15.3393 36.2845 26.0649
Au 14.4184 34.0254 24.7355
Au 13.4709 31.7201 23.3818
Au 12.6185 29.4088 22.0097
Pt 11.8451 27.0951 20.6305
Pt 14.3533 34.0868 27.5552
Au 13.4224 31.7799 26.2163
Pt 12.4803 29.4803 24.8418
Au 11.7342 27.1433 23.4648
Pt 13.3935 31.8316 28.9994
Au 12.5311 29.4273 27.6663
Au 11.6819 27.1054 26.2937
Au 12.5184 29.5508 30.509
Au 11.6738 27.0855 29.1772
Au 11.6424 27.2263 32.0155
Pt 33.9808 12.7404 23.1508
Au 34.9355 14.9805 21.8059
Au 35.8213 17.2705 20.3866
Au 36.7506 19.6268 19.0664
Au 37.7649 22.1225 18.011
Au 33.9836 12.5602 26.0996
Au 35.058 14.8298 24.7859
Au 35.9893 17.0841 23.3932
Au 36.9012 19.324 21.999
Au 37.8419 21.5917 20.7035
Pt 35.1661 14.6335 27.6683
Pt 36.2431 16.8939 26.3763
Pt 37.0887 19.1359 24.9206
Au 37.9497 21.4492 23.5579
Pt 36.2658 16.6768 29.1531
Au 37.2374 19.0155 27.7968
Pt 38.0387 21.2828 26.3727
Pt 37.2647 18.9001 30.5568
Au 38.1704 21.3441 29.2564
Pt 38.0475 20.9862 32.1186
Au 15.2294 13.2605 23.2952
Pt 14.3148 15.5413 21.9052
Pt 13.5317 17.7547 20.5185
Au 12.733 20.0704 19.1867
Au 12.0052 22.4688 17.8742
Pt 15.1664 13.1642 26.1999
Pt 14.2268 15.4349 24.7831
Pt 13.3683 17.7047 23.3745
Pt 12.515 20.0004 22.023
Pt 11.7785 22.3424 20.663
Pt 14.2614 15.3463 27.5739
Pt 13.3103 17.6338 26.178
Au 12.3932 20.0078 24.8785
Pt 11.6641 22.3281 23.4386
Pt 13.3552 17.613 28.9708
Au 12.3354 19.961 27.7425
Pt 11.615 22.3346 26.3191
Au 12.3383 20.0126 30.6238
Pt 11.5517 22.3494 29.0611
Au 11.5813 22.4459 31.8493
Pt 22.8356 34.7717 36.3856
Au 21.5702 35.6798 34.0636
Au 20.2765 36.5398 31.7181
Au 18.9856 37.2058 29.3366
Pt 17.6891 37.848 26.9534
Pt 25.626 34.8604 36.6421
Pt 24.3725 35.6774 34.2136
Au 23.1524 36.5801 31.7988
Pt 21.8781 37.3227 29.4527
Pt 20.5691 37.9527 27.1072
Pt 27.1745 35.7086 34.2854
Pt 25.9543 36.5706 31.9062
Au 24.7022 37.3525 29.53
Pt 23.3592 38.0003 27.16
Pt 28.6984 36.566 32.0009
Pt 27.4875 37.3425 29.607
Au 26.1691 38.0586 27.1716
Pt 30.2465 37.3109 29.6576
Au 28.9595 38.0075 27.1685
Pt 31.7103 37.9657 27.2167
Pt 20.8304 15.5178 35.4744
Au 21.8561 13.5966 33.7917
Pt 20.3864 12.8737 31.5019
Pt 18.9758 12.2229 29.1833
Pt 17.5383 11.5794 26.9549
Pt 26.1656 14.1269 36.1706
Pt 24.7003 13.4464 33.8796
Au 23.1876 12.7514 31.5253
Pt 21.7205 11.9391 29.1751
Pt 20.3164 11.3506 26.8917
Pt 27.5467 13.4558 33.9029
Au 26.0525 12.7089 31.6256
Au 24.5348 11.8763 29.1972
Pt 23.0602 11.2168 26.8508
Pt 28.9076 12.7229 31.548
Au 27.4041 11.8735 29.2227
Au 25.9372 11.1067 26.8486
Au 30.2266 11.8961 29.1732
Au 28.7934 11.0796 26.8857
Pt 31.5964 11.1758 26.8642
Pt 23.5129 34.0604 13.4534
Au 22.0397 34.9475 15.6407
Pt 20.5586 35.8398 17.8864
Pt 19.1176 36.7607 20.0841
Pt 17.7281 37.6351 22.3
Au 26.3977 34.0266 13.4444
Pt 24.8969 35.0592 15.646
Au 23.4615 35.9891 17.8985
Pt 21.9432 36.8415 20.0665
Au 20.5249 37.7144 22.3392
Pt 27.6867 35.0488 15.6173
Pt 26.2479 36.0858 17.8384
Pt 24.8165 37.0237 20.0695
Au 23.3443 37.7651 22.3478
Au 29.0744 36.0143 17.8917
Pt 27.5994 37.0216 20.1166
Au 26.2182 37.8346 22.3831
Pt 30.3555 37.0182 20.1648
Pt 28.9782 37.8635 22.4174
Au 31.7446 37.819 22.4316
Pt 23.2151 15.3286 13.3569
Pt 21.8063 14.3667 15.5153
Pt 20.3286 13.4717 17.7434
Au 18.9635 12.6066 20.0511
Au 17.5386 11.779 22.3512
Pt 26.0984 15.2243 13.3132
Pt 24.6255 14.2368 15.4756
Au 23.1631 13.2706 17.6773
Pt 21.7527 12.3764 19.9868
Pt 20.3515 11.5427 22.2732
Au 27.5142 14.2752 15.4732
Pt 25.9877 13.2964 17.6779
Au 24.5608 12.2815 19.9454
Pt 23.0967 11.414 22.2228
Au 28.9802 13.3504 17.6867
Au 27.3936 12.3185 19.9376
Pt 25.8364 11.2751 22.1984
Au 30.2891 12.3454 19.966
Au 28.7362 11.2752 22.1996
Au 31.5784 11.3591 22.2457
Au 36.2527 17.742 35.147
Au 34.0117 28.2101 31.2022
Pt 35.0346 17.3715 31.5093
Au 35.1706 31.3152 30.9013
Au 33.8944 15.2941 30.0559
Pt 34.1306 33.5398 29.4542
Pt 32.6533 13.2026 28.4464
Pt 33.0979 35.6467 27.9695
Pt 34.6402 20.0751 35.4314
Au 33.5579 30.4324 32.8903
Au 32.5407 15.9045 32.4663
Pt 32.6806 32.6896 31.4891
Pt 31.4007 13.9242 30.7808
Pt 31.6303 34.9265 30.1464
Pt 28.6304 15.4385 35.4872
Au 30.9821 31.5235 33.2312
Au 29.9977 14.7181 33.1546
Pt 30.0354 34.0847 32.226
Pt 28.5292 13.7391 37.4994
Au 28.5177 32.4551 33.8301
Pt 35.3927 20.6342 16.8621
Au 35.7049 28.5784 16.7495
Pt 34.4492 18.2531 18.1119
Au 34.7646 31.0077 17.987
Pt 33.5616 15.9624 19.3919
Au 33.7973 33.3125 19.34
Au 32.6022 13.7306 20.8655
Au 32.7606 35.6015 20.8544
Au 33.1058 19.3179 15.8968
Au 33.3477 29.9343 15.7965
Pt 32.2128 16.9311 17.2095
Pt 32.468 32.3251 17.1287
Pt 31.3063 14.6834 18.5126
Au 31.4441 34.6234 18.5757
Pt 30.8678 17.9085 15.0317
Au 31.0518 31.3153 14.9135
Pt 29.9536 15.5996 16.3219
Au 30.0631 33.6733 16.3277
Pt 28.5495 16.5883 14.1467
Pt 28.7776 32.7204 14.0908
Au 13.6208 20.2733 33.3086
Au 13.9004 28.9737 32.9076
Pt 14.3995 18.2739 31.4459
Au 14.7182 31.1994 31.3946
Au 15.5721 15.8909 29.9939
Au 15.623 33.4267 29.9452
Pt 16.5667 13.7153 28.5025
Au 16.6312 35.6476 28.4301
Au 16.2275 19.0157 34.1809
Au 16.0091 30.617 33.8823
Au 18.3312 17.0561 34.5826
Au 16.9168 32.8173 32.4016
Au 17.9986 14.432 30.8586
Au 17.919 35.0374 30.8788
Pt 17.1984 18.1078 36.846
Pt 18.2278 32.2727 34.848
Pt 19.4342 14.9366 33.1784
Au 19.1835 34.3868 33.299
Pt 19.863 17.4738 36.9054
Pt 20.3231 33.8828 35.8078
Pt 14.122 20.8963 16.8743
Pt 14.2332 28.4971 16.8598
Pt 14.8876 18.582 18.1955
Pt 15.0687 30.8342 18.1335
Pt 15.7321 16.3111 19.5387
Au 15.875 33.1552 19.4711
Au 16.603 14.067 20.942
Au 16.7732 35.4144 20.9288
Au 16.3768 19.5238 15.9367
Au 16.4665 29.9416 15.9364
Pt 17.1455 17.1953 17.2773
Pt 17.2921 32.2856 17.2649
Pt 18.0425 14.8755 18.6108
Pt 18.1736 34.5465 18.685
Au 18.6555 18.0963 15.0431
Au 18.7722 31.3507 15.0015
Pt 19.4406 15.7526 16.3236
Au 19.601 33.6038 16.4349
Pt 20.9246 16.669 14.159
Au 21.1338 32.682 14.1964
Pt 40.6235 24.1372 15.0617
Pt 40.7291 23.6901 18.1389
Pt 39.6174 23.5136 20.5741
Pt 39.731 23.4969 23.2996
Pt 41.3766 25.8026 25.9991
Pt 40.4964 28.0898 27.3314
Pt 40.5134 28.2786 30.0166
Au 38.4585 25.4115 32.7104
Au 9.00052 24.7432 14.9706
Au 8.82809 24.7603 17.8384
Pt 8.6469 24.8135 20.5902
Pt 8.60226 24.9082 23.3461
Au 8.54893 24.8915 26.1298
Pt 8.49954 24.9651 29.0743
Au 8.31796 25.0351 31.8855
Au 11.8493 23.8158 38.6284
Pt 14.9522 40.6907 24.3474
Au 17.7467 40.9268 24.4208
Pt 20.5065 40.9989 24.6165
Au 23.3047 41.0113 24.6269
Au 26.1326 41.0196 24.6737
Pt 28.9197 41.1136 24.6474
Au 31.6295 41.0892 24.53
Au 34.4232 40.9927 24.437
Au 14.6166 8.72777 24.5545
Pt 17.4774 8.53444 24.3942
Au 20.1782 8.28895 24.401
Pt 22.9867 8.27404 24.374
Au 25.8502 8.08406 24.3284
Pt 28.7156 8.00841 24.2742
Pt 31.5237 8.11352 24.302
Au 34.2669 8.17344 24.2426
Au 24.6067 14.8888 38.3835
Pt 25.5552 16.9759 39.7338
Au 27.1043 13.1259 41.7846
Pt 23.4575 22.7092 39.6547
Pt 23.0437 27.3298 41.3491
Au 24.9406 30.6615 42.8801
Au 27.533 29.6444 42.4247
Pt 25.0375 31.7582 40.2531
Pt 24.6939 15.0761 8.9028
Pt 24.7634 17.8013 8.79217
Pt 24.789 20.5505 8.62953
Au 24.8171 23.3098 8.6713
Pt 24.8951 26.142 8.6908
Pt 24.927 28.869 8.71511
Pt 24.9162 31.6668 8.81216
Pt 24.8706 34.4616 9.03962
Au 36.0774 23.892 34.8462
Pt 31.4227 21.2229 36.4836
Au 34.7703 23.2465 39.3762
Pt 28.0426 23.8047 37.893
Au 33.5269 15.971 36.1287
Pt 27.1908 16.2271 37.6961
Au 36.2801 29.1307 32.3767
Au 39.7561 28.7862 35.8108
Pt 32.4724 23.2088 38.0638
Pt 31.9652 21.6846 39.9668
Pt 25.7226 24.4269 39.0458
Au 30.7791 17.6652 40.5147
Pt 35.9451 26.4177 35.7401
Pt 35.3954 27.7039 37.8871
Au 32.6051 24.3182 40.8129
Pt 30.3036 24.3287 39.4929
Au 25.5002 20.2927 42.7693
Pt 34.2607 29.8863 36.6833
Pt 32.7962 28.4371 38.501
Au 30.2557 25.6458 41.9392
Au 28.1339 21.2598 42.6804
Pt 31.7776 30.8445 37.2927
Pt 30.0494 29.7757 39.1863
Au 27.7232 26.8406 42.6043
Pt 29.6239 30.4177 35.5597
Pt 27.9633 28.1127 40.1592
Au 27.0498 31.3244 35.9778
Pt 38.4884 22.9681 14.113
Au 36.2449 21.7341 13.0992
Pt 33.9346 20.2666 12.1072
Pt 31.6856 19.0139 11.256
Au 29.3257 17.6744 10.4849
Pt 27.0362 16.3109 9.67785
Au 38.8917 26.0869 14.2747
Au 36.4326 24.6074 13.1409
Pt 34.1458 23.1554 11.9834
Pt 31.8189 21.7587 11.1179
Pt 29.497 20.4808 10.3358
Au 27.0753 19.1441 9.52151
Pt 36.3902 27.4517 13.2076
Au 34.1763 25.9951 12.129
Au 31.905 24.5839 11.1749
Au 29.5158 23.2861 10.3193
Au 27.1818 21.8972 9.44783
Au 34.1247 28.9177 12.1965
Au 31.8313 27.4431 11.2577
Pt 29.5156 26.1093 10.2803
Pt 27.2183 24.7497 9.45066
Pt 31.8761 30.2682 11.3662
Au 29.5799 28.9174 10.266
Pt 27.2778 27.4817 9.38175
Au 29.5242 31.8062 10.448
Au 27.265 30.3486 9.43042
Pt 27.2308 33.1639 9.71152
Au 8.10749 21.65 35.4948
Au 10.1358 20.203 36.7694
Au 12.9933 16.4316 36.3342
Au 14.911 17.6389 38.2704
Au 21.4459 17.4716 41.7712
Pt 23.2147 15.9567 40.4765
Pt 14.3859 23.4159 37.4425
Au 11.794 26.6326 38.3393
Pt 14.6119 20.7193 38.0593
Au 16.7894 22.1506 39.1354
Au 19.1663 20.7249 40.4481
Pt 21.9439 20.0148 41.0132
Pt 11.4763 29.1403 34.1036
Pt 14.295 26.26 37.0477
Au 16.4603 25.0096 38.4894
Pt 20.8944 25.5313 40.5588
Pt 21.0508 22.7075 40.8058
Pt 14.0002 28.1152 38.9372
Au 16.4226 27.8034 37.9625
Pt 18.6093 26.6369 39.3185
Au 22.9347 26.1666 43.7369
Au 16.7369 31.9479 38.707
Au 18.534 29.4813 38.8109
Au 20.8014 28.2743 40.1394
Pt 20.6138 31.1211 39.6957
Au 22.617 28.9847 43.4937
Pt 22.5639 32.8008 40.6582
Au 11.1124 23.2993 13.9083
Pt 13.368 21.9331 13.0382
Au 15.5949 20.5007 12.2313
Au 17.8416 19.0943 11.3154
Pt 20.162 17.6763 10.4077
Pt 22.3799 16.3252 9.58551
Pt 11.2119 26.191 14.0344
Au 13.3534 24.698 12.9856
Pt 15.6238 23.3257 12.0817
Au 17.8906 21.9202 11.1946
Au 20.1101 20.5098 10.2683
Au 22.4242 19.1654 9.48761
Au 13.3268 27.5711 13.0965
Au 15.6444 26.1108 12.1025
Pt 17.908 24.6929 11.1744
Pt 20.1826 23.3685 10.2629
Pt 22.4704 21.9221 9.47852
Au 15.6934 28.9837 12.1673
Au 17.9356 27.5249 11.1412
Au 20.2066 26.1017 10.2368
Pt 22.4492 24.7478 9.39881
Au 17.9387 30.3558 11.3121
Au 20.2204 28.9727 10.2715
Pt 22.6087 27.4699 9.46771
Au 20.2874 31.8268 10.422
Au 22.5659 30.3417 9.45609
Pt 22.5811 33.1208 9.66554
Au 35.6252 38.9585 22.9464
Au 38.7773 36.9303 19.8871
Pt 37.5274 34.5044 20.1067
Au 41.0206 32.4899 19.9678
Pt 39.2757 29.9961 17.5356
Pt 40.7356 28.4483 16.2357
Au 35.7285 38.9324 25.8062
Au 37.7905 39.1756 21.3123
Pt 37.8181 34.6537 22.8932
Au 41.898 30.0314 18.5599
Pt 40.4847 27.9524 21.7563
Pt 41.2481 25.6389 20.1259
Pt 36.7361 36.8843 27.2236
Pt 36.8406 36.8291 24.3043
Pt 38.8385 32.5213 24.3169
Pt 39.7786 30.2992 23.0112
Au 41.4032 25.7414 23.1362
Au 37.7439 34.7462 28.6614
Au 37.8298 34.7363 25.7528
Au 41.208 32.7263 22.9311
Au 43.0131 28.0704 23.086
Pt 38.7513 32.6275 30.0848
Pt 38.7787 32.6017 27.1779
Au 39.7179 30.3195 25.7688
Pt 39.7536 30.5717 31.4734
Au 39.6866 30.4402 28.6061
Pt 38.5206 27.9218 31.6487
Pt 13.9572 38.6224 22.9358
Au 13.0466 36.3682 21.6722
Au 12.1688 33.988 20.3584
Au 11.2443 31.6902 18.9813
Pt 10.4016 29.3549 17.6845
Pt 9.77015 27.0911 16.3717
Au 13.9079 38.5748 25.8514
Pt 12.9251 36.3646 24.5196
Au 11.941 34.0744 23.1874
Pt 11.0415 31.7223 21.8789
Au 10.2632 29.442 20.4822
Pt 9.56541 27.1287 19.1676
Pt 12.8994 36.4127 27.331
Au 11.8813 34.1706 25.995
Au 10.9206 31.8267 24.6724
Pt 10.1035 29.5115 23.3451