2057
Atoms. Timestep: 20225
Au 25.0172 24.6663 25.6123
Au 27.3097 24.647 24.153
Au 27.3725 24.6694 27.1133
Au 22.7078 24.6987 24.0575
Au 22.7577 24.6756 27.0452
Pt 23.6116 26.9752 25.4555
Au 26.4069 26.963 25.5698
Au 23.5488 22.4033 25.4428
Au 26.398 22.368 25.5917
Au 25.1177 23.2583 28.0328
Au 25.022 26.1134 27.9237
Au 24.942 23.2471 23.1959
Au 25.0101 26.0717 23.2101
Au 29.5801 24.6853 22.6134
Au 29.7215 24.5506 25.526
Au 29.8357 24.6839 28.5123
Pt 20.4033 24.6879 22.4146
Au 20.365 24.6596 25.4711
Au 20.4286 24.641 28.408
Pt 22.2069 29.2242 25.3582
Pt 24.9766 29.3033 25.3966
Au 27.7787 29.2776 25.4557
Au 22.0602 20.1277 25.2206
Au 24.8796 20.0227 25.2744
Au 27.6866 20.0533 25.391
Au 24.976 21.9165 30.4492
Au 25.4538 24.8306 30.3911
Au 24.8632 27.6844 30.1554
Au 24.8824 21.8338 20.7775
Au 24.9433 24.6908 20.756
Pt 24.9698 27.4775 20.8574
Au 27.5577 23.2147 29.4943
Au 27.4434 26.4485 29.3032
Au 27.2691 23.2667 21.707
Au 27.2773 26.1056 21.6644
Au 22.6724 23.059 29.3555
Au 22.7775 25.8623 29.6602
Au 22.627 23.2475 21.5942
Au 22.6377 26.094 21.608
Au 28.724 27.041 23.9574
Pt 28.8722 26.8586 26.7443
Au 21.2491 26.9647 23.958
Au 21.2838 26.986 26.877
Pt 28.6945 22.3032 24.0171
Au 28.7998 22.3099 26.9904
Au 21.1947 22.4057 23.8723
Au 21.2098 22.3138 26.8539
Au 23.5573 28.4049 27.7713
Pt 26.4018 28.5447 27.7822
Au 23.665 20.9358 27.7654
Pt 26.5087 20.8963 27.9146
Au 23.5347 28.3855 23.0821
Pt 26.3702 28.4221 23.1688
Pt 23.4425 20.8803 22.9329
Au 26.3014 20.9048 23.053
Pt 31.8282 24.6676 20.9893
Au 32.0666 24.5016 23.88
Au 32.2238 24.4271 26.8286
Au 32.5232 24.0951 29.6036
Pt 18.1032 24.7043 20.9329
Au 18.0569 24.6835 23.8484
Au 17.9682 24.6479 26.8969
Au 18.0638 24.5987 29.8203
Au 20.69 31.4819 25.1577
Pt 23.5547 31.5945 25.2249
Pt 26.3091 31.6561 25.2878
Pt 29.0598 31.6036 25.312
Au 20.6065 17.794 25.028
Au 23.3851 17.6566 25.0198
Au 26.1617 17.598 25.0657
Au 28.9485 17.6126 25.1787
Au 24.6449 19.9536 32.3303
Au 25.9481 22.1082 33.3657
Au 26.1129 24.6923 33.0133
Au 24.6738 29.3688 32.372
Au 24.8405 20.4941 18.3393
Au 24.8729 23.2532 18.2945
Au 24.929 26.0732 18.3431
Au 24.9908 28.8492 18.3951
Au 30.108 22.7286 30.6179
Au 27.5155 21.2151 31.3295
Pt 31.5068 28.7606 29.9194
Pt 31.1098 26.245 30.362
Au 26.6299 27.1168 32.1021
Au 29.5627 23.2271 20.137
Au 27.1967 21.8373 19.2171
Au 29.6019 26.0988 20.0773
Au 27.264 24.6529 19.188
Au 27.2664 27.472 19.1991
Au 20.2695 22.8477 30.616
Pt 22.3376 21.3944 31.6025
Au 20.2669 26.2285 30.7394
Au 23.3864 23.9808 31.8987
Au 22.4468 27.8565 31.5993
Au 20.3193 23.2799 20.0362
Pt 22.5252 21.8121 19.1789
Pt 20.3089 26.1038 20.0217
Au 22.5676 24.667 19.1482
Au 22.6396 27.4935 19.2187
Au 30.1878 29.3966 23.7156
Au 31.0901 27.0358 22.3052
Au 30.3561 29.1124 26.4164
Au 31.2514 26.8274 25.1046
Pt 31.4202 26.8919 27.8378
Au 19.82 29.2756 23.8039
Au 18.9407 26.9699 22.3383
Pt 19.7901 29.3161 26.7268
Au 18.8611 27.0054 25.3458
Au 18.8986 27.0114 28.2618
Au 29.9935 19.9512 23.7696
Au 30.9221 22.2722 22.4495
Au 30.1208 19.852 26.6922
Au 31.1154 22.1757 25.3473
Pt 31.2352 22.0395 28.2617
Au 19.6938 20.0808 23.719
Au 18.8659 22.4094 22.3174
Pt 19.6805 19.9907 26.6781
Au 18.7996 22.3277 25.3158
Au 18.8295 22.2654 28.2139
Pt 23.3176 30.0537 29.9693
Au 22.0487 30.7405 27.5718
Au 26.2335 30.09 30.0664
Au 24.9032 30.8597 27.6432
Au 27.79 30.8649 27.7701
Au 23.4307 19.3324 29.9447
Au 22.0118 18.5824 27.4789
Au 26.2398 19.1968 29.9541
Au 24.8942 18.4513 27.5571
Au 27.7218 18.4237 27.6282
Au 23.5137 29.8054 20.6601
Pt 22.1395 30.7016 22.9472
Au 26.3909 29.788 20.7025
Au 24.952 30.7498 22.9766
Au 27.8172 30.7359 23.0051
Pt 23.3799 19.5141 20.5327
Pt 21.9675 18.6334 22.742
Pt 26.1983 19.4373 20.5693
Pt 24.7716 18.5173 22.7361
Au 27.6082 18.5523 22.8096
Au 28.9605 20.558 29.1246
Au 29.0995 28.4229 28.7617
Au 28.6101 20.8705 21.4779
Au 28.7338 28.4359 21.4687
Au 21.0821 20.6736 29.0745
Au 21.1406 28.4956 29.1924
Au 21.1173 20.8976 21.4059
Au 21.1513 28.4326 21.4532
Pt 34.0309 24.6493 19.4692
Au 34.3197 24.5796 22.2497
Pt 34.4849 24.2801 25.1151
Pt 34.7995 24.0407 27.965
Pt 34.6022 23.3892 31.1598
Au 15.8142 24.6953 19.4562
Pt 15.7168 24.681 22.26
Au 15.6458 24.6915 25.2801
Pt 15.5553 24.5666 28.2468
Pt 15.7442 24.594 31.0802
Au 19.1387 33.8 24.9571
Au 22.0617 33.9307 24.9896
Pt 24.8834 33.9932 25.1036
Pt 27.6314 34.0009 25.1355
Au 30.4532 33.8954 25.1479
Au 19.0907 15.4954 24.8733
Pt 21.8866 15.2605 24.8311
Pt 24.6375 15.1901 24.7828
Pt 27.4707 15.2177 24.9512
Pt 30.3133 15.272 25.0158
Au 24.4758 18.5582 34.6039
Au 23.6826 21.5441 34.6099
Pt 23.8136 24.2847 34.5415
Au 24.0437 26.8974 33.6663
Au 24.4942 31.1673 34.5036
Au 24.7918 19.1439 15.9549
Pt 24.848 21.891 15.8228
Au 24.9265 24.6444 15.8477
Au 24.9124 27.4857 15.8837
Au 24.9555 30.2515 15.9519
Pt 32.3878 22.2189 32.0824
Au 29.909 20.821 32.8203
Au 27.3168 19.6321 33.626
Au 31.0707 24.6517 32.4505
Au 28.3512 21.8084 35.3961
Au 26.2174 26.0446 35.3334
Au 28.6417 25.2653 31.3305
Au 28.5331 23.1768 32.9461
Pt 25.9031 24.9477 38.0862
Pt 31.7942 23.2212 18.6223
Pt 29.5118 21.7816 17.7372
Pt 27.1549 20.4662 16.7833
Pt 31.8387 26.0813 18.532
Au 29.5879 24.6314 17.6578
Au 27.2244 23.2174 16.709
Pt 29.6025 27.4873 17.6514
Au 27.2614 26.0693 16.7287
Pt 27.3184 28.8692 16.7434
Pt 17.6209 22.6214 31.8035
Pt 19.6938 21.3008 32.9061
Au 21.9104 19.7347 33.7023
Pt 17.8636 26.4678 31.9728
Pt 19.4782 24.2989 32.5667
Pt 21.5637 22.9542 33.6514
Pt 20.008 28.1063 32.8275
Pt 21.6438 25.6944 33.1455
Pt 22.1882 29.6422 33.7086
Au 18.0256 23.2736 18.5286
Pt 20.2627 21.8904 17.6519
Pt 22.4906 20.508 16.7613
Pt 18.0208 26.1355 18.5418
Pt 20.2459 24.7031 17.611
Au 22.5364 23.2399 16.7176
Au 20.2796 27.509 17.6582
Au 22.5753 26.0773 16.7076
Au 22.5851 28.8957 16.7714
Au 31.5099 31.7826 23.4377
Au 32.5232 29.4209 22.0272
Au 33.3693 27.0282 20.724
Au 31.7612 31.4662 26.1024
Au 32.8038 29.139 24.8559
Pt 33.5854 26.8494 23.5105
Au 32.8999 29.2416 27.6376
Au 33.7534 26.7245 26.3056
Au 33.857 26.8883 29.0893
Au 18.2478 31.5856 23.6081
Au 17.4313 29.2947 22.1647
Au 16.5952 27.0051 20.8214
Pt 18.2162 31.562 26.5249
Au 17.3642 29.3398 25.143
Au 16.4733 26.9895 23.7037
Au 17.3738 29.3636 28.0467
Au 16.4614 27.008 26.6826
Au 16.5067 26.991 29.5674
Au 31.2941 17.5338 23.5889
Pt 32.2916 19.9135 22.1655
Au 33.1734 22.2804 20.9051
Au 31.3901 17.358 26.5279
Au 32.476 19.7659 25.0707
Pt 33.3809 22.091 23.7535
Au 32.4843 19.5018 28.0584
Au 33.5154 21.9428 26.7165
Pt 33.5026 21.4567 29.6728
Au 18.1795 17.7699 23.5193
Au 17.3393 20.0786 22.1632
Pt 16.5575 22.3531 20.8022
Au 18.1678 17.6961 26.4509
Au 17.2512 19.9975 25.1157
Au 16.4376 22.3775 23.6985
Au 17.2839 19.9407 27.998
Au 16.3519 22.3304 26.6422
Au 16.379 22.2173 29.4467
Au 23.1648 31.7585 32.1276
Au 21.8863 32.4345 29.7388
Au 20.5332 33.0983 27.3747
Au 26.0563 31.9481 32.2388
Au 24.7309 32.5677 29.8347
Au 23.4161 33.2863 27.4207
Pt 27.5178 32.7462 29.9745
Au 26.2468 33.3027 27.5163
Au 29.0871 33.2463 27.6117
Pt 23.3044 17.5594 32.0036
Au 21.9543 16.9487 29.6732
Au 20.4847 16.1869 27.2792
Au 26.1557 17.5098 32.1173
Pt 24.8078 16.7853 29.7399
Au 23.3341 16.0364 27.2532
Pt 27.6188 16.696 29.7098
Au 26.1917 15.9878 27.3123
Pt 29.0079 15.9698 27.3894
Au 23.5014 31.232 18.1737
Au 22.0308 32.1607 20.4805
Au 20.5624 33.0136 22.6831
Au 26.3999 31.2224 18.2069
Au 24.9038 32.2471 20.4477
Au 23.4561 33.1015 22.7527
Au 27.7849 32.1897 20.5371
Au 26.3151 33.1256 22.834
Pt 29.1041 33.1126 22.8715
Au 23.3402 18.1361 18.1236
Au 21.8734 17.2425 20.3611
Pt 20.5325 16.2955 22.5896
Pt 26.1828 18.0741 18.1804
Pt 24.723 17.111 20.3503
Au 23.2865 16.1957 22.5919
Pt 27.5634 17.1341 20.3522
Au 26.1081 16.1377 22.5899
Au 28.9448 16.1793 22.6872
Pt 31.3054 20.1397 30.5125
Au 31.3243 30.4261 32.012
Pt 30.1587 18.0392 28.9146
Pt 30.527 30.8665 28.4013
Au 28.7763 18.7298 31.2499
Au 28.9526 30.4188 30.4648
Pt 30.9184 20.8071 19.9402
Pt 31.0633 28.4691 19.8195
Au 29.9822 18.4734 21.253
Au 30.1375 30.7796 21.2148
Au 28.5458 19.4377 19.0244
Au 28.71 29.8127 18.966
Pt 18.6529 20.5253 30.4027
Pt 18.7352 28.7115 30.4817
Pt 19.5287 18.3639 28.8731
Pt 19.5908 30.8441 28.9578
Pt 20.9219 19.0698 31.2232
Pt 20.894 30.2323 31.3527
Pt 18.8154 20.9283 19.8742
Pt 18.7984 28.4501 19.8357
Pt 19.5985 18.6268 21.2027
Au 19.6567 30.7531 21.2799
Pt 21.0472 19.5212 18.9793
Au 21.1281 29.8694 19.0186
Pt 36.2373 24.5855 17.9932
Pt 36.5519 24.8959 20.5759
Au 36.9137 24.5364 23.1804
Au 36.9815 24.0134 25.9156
Pt 37.7411 23.3963 28.3347
Pt 35.8353 20.9313 30.9835
Pt 13.5223 24.7971 17.9731
Au 13.3916 24.7219 20.7725
Au 13.3723 24.7166 23.6362
Pt 13.2797 24.576 26.6072
Pt 13.1827 24.5744 29.4151
Au 13.3773 24.6576 32.24
Au 17.7178 36.1647 24.7174
Au 20.5512 36.2557 24.7519
Pt 23.4132 36.3078 24.9098
Pt 26.2338 36.3549 24.9468
Au 29.0205 36.3736 24.9297
Au 31.8407 36.2781 25.0397
Pt 17.6294 13.2412 24.7968
Pt 20.4022 13.0299 24.6935
Pt 23.1469 12.8722 24.6454
Au 25.9768 12.8478 24.6455
Au 28.8163 12.8829 24.7389
Au 31.6217 12.9051 24.6926
Au 22.2918 16.0702 38.189
Pt 25.8901 18.9138 38.0873
Au 23.497 23.0239 37.0582
Pt 23.3943 28.1276 38.7056
Au 23.6204 28.9401 35.9769
Au 24.2964 32.9439 36.5967
Au 24.7183 17.7308 13.5905
Pt 24.7952 20.5619 13.4884
Pt 24.8392 23.278 13.4364
Au 24.8853 26.1022 13.4465
Pt 24.8897 28.8708 13.4484
Pt 24.9355 31.6445 13.5914
Pt 34.8386 21.7958 33.3664
Au 32.2264 18.4794 36.1634
Au 29.7526 19.5283 35.3859
Au 27.2033 18.0366 35.8787
Au 33.4559 24.3221 33.8129
Pt 33.0201 27.7057 35.6813
Au 32.2716 20.4521 34.1934
Au 25.9765 20.5775 35.964
Pt 31.3714 25.7243 34.8732
Au 28.6602 24.6034 35.1977
Au 23.6767 26.1472 36.5232
Au 28.8071 27.0088 33.9783
Au 25.713 24.1781 40.6709
Au 26.0807 28.6646 34.7127
Pt 33.9889 23.1414 17.1878
Au 31.7298 21.8451 16.1997
Au 29.4371 20.423 15.3145
Au 27.1161 19.1292 14.3976
Au 34.0558 26.046 16.9989
Pt 31.8316 24.6514 16.1421
Au 29.5166 23.2609 15.1898
Pt 27.1354 21.9159 14.2753
Pt 31.8154 27.5112 16.1249
Au 29.5466 26.0834 15.2092
Pt 27.2041 24.6547 14.2241
Au 29.5598 28.8968 15.1953
Au 27.2289 27.4778 14.281
Au 27.2586 30.316 14.3488
Pt 15.1928 22.659 33.071
Pt 17.2651 21.464 34.2857
Au 19.2297 19.6307 35.157
Au 21.8019 18.1108 35.9712
Au 15.5113 26.5258 33.1718
Pt 17.1212 24.3516 33.8067
Pt 19.2322 23.1208 35.069
Au 21.2004 21.4197 35.9848
Au 17.5853 28.2604 34.1182
Au 19.2301 26.0138 34.5313
Au 21.4212 24.6347 35.7918
Au 19.8121 29.8533 34.979
Pt 21.4658 27.4258 35.191
Pt 21.9939 31.4712 35.8123
Au 15.6551 23.2969 17.0222
Pt 17.9447 21.9071 16.1198
Au 20.2043 20.5366 15.2363
Au 22.4564 19.0969 14.3915
Pt 15.7432 26.1642 17.0526
Au 17.9341 24.7478 16.0824
Au 20.2029 23.3194 15.1714
Pt 22.491 21.9083 14.2628
Pt 17.9835 27.5961 16.1799
Au 20.2562 26.1867 15.1705
Au 22.5608 24.6965 14.2519
Pt 20.2997 28.9562 15.2273
Pt 22.5483 27.5266 14.2553
Au 22.6009 30.297 14.4029
Pt 32.9829 34.0241 23.1961
Pt 33.9227 31.7514 21.7646
Pt 34.83 29.4297 20.4405
Au 35.6968 27.0783 19.1084
Au 33.138 33.9061 25.8513
Au 34.1322 31.6066 24.5458
Au 35.0283 29.2977 23.2517
Pt 35.861 27.087 21.8993
Pt 34.1706 31.6644 27.5116
Pt 35.2751 29.0648 26.1923
Au 36.0194 26.7133 24.6807
Au 35.2405 29.4016 29.0885
Pt 36.1796 26.3441 27.3751
Au 36.0454 25.3973 29.9338
Pt 16.8253 33.9263 23.3731
Au 15.9602 31.6313 22.0148
Pt 15.1282 29.3233 20.6079
Pt 14.315 27.0599 19.2953
Pt 16.715 33.9142 26.2702
Pt 15.8642 31.6839 24.9743
Au 14.9637 29.3664 23.5394
Pt 14.1495 27.0636 22.1015
Pt 15.8237 31.7119 27.793
Au 14.9375 29.4198 26.4324
Au 14.0765 27.0782 25.0479
Pt 14.9626 29.4782 29.2465
Au 14.0802 26.9438 27.9486
Au 14.0988 27.0328 30.7595
Pt 32.6398 15.1947 23.4231
Au 33.5532 17.512 22.0207
Pt 34.5196 19.8593 20.6951
Pt 35.4399 22.2575 19.4685
Pt 32.7093 14.9566 26.3446
Au 33.7531 17.2929 24.9971
Pt 34.7189 19.6978 23.5172
Au 35.6386 22.1105 22.2727
Pt 33.7907 16.9743 27.8791
Au 34.8455 19.3773 26.518
Pt 35.6815 21.6671 25.1424
Pt 34.8241 18.981 29.4461
Au 35.7945 21.4849 28.2128
Pt 35.9754 19.2637 33.1116
Pt 16.6701 15.5087 23.4067
Pt 15.8168 17.7405 22.0219
Pt 14.9938 20.0364 20.7169
Pt 14.2504 22.3785 19.3696
Pt 16.6198 15.3889 26.2362
Pt 15.7055 17.6607 24.8945
Au 14.8737 19.9796 23.543
Au 14.1042 22.3317 22.1557
Au 15.7181 17.606 27.7493
Au 14.7958 19.957 26.4544
Au 13.98 22.3357 25.0557
Pt 14.8149 19.8494 29.2863
Pt 13.9214 22.2523 27.8985
Au 13.9958 22.2533 30.6689
Pt 23.0125 33.5592 34.2741
Au 21.7578 34.2009 31.8716
Au 20.4679 34.9146 29.5059
Au 19.082 35.5322 27.1163
Pt 25.8969 33.7351 34.4034
Au 24.5781 34.3383 31.9867
Pt 23.351 35.0505 29.5648
Au 21.9642 35.6826 27.2189
Pt 27.3822 34.4414 32.168
Pt 26.0999 35.0851 29.7218
Pt 24.7881 35.7183 27.2798
Au 28.9002 35.0701 29.8684
Au 27.5713 35.7041 27.3734
Au 30.4262 35.6861 27.4998
Au 23.2485 16.0371 34.1737
Pt 21.8568 15.2016 31.7504
Au 20.4848 14.4836 29.3939
Pt 18.9661 13.8343 27.0908
Au 26.0711 15.8964 34.2973
Pt 24.7175 15.1192 31.8682
Au 23.2959 14.3959 29.4406
Pt 21.7785 13.6119 27.0423
Pt 27.5486 15.078 31.8742
Au 26.1282 14.3476 29.5076
Au 24.6402 13.5775 27.0257
Pt 28.9531 14.3111 29.451
Pt 27.5355 13.5941 27.1397
Pt 30.3092 13.6121 27.1156
Pt 23.4894 32.6577 15.788
Au 22.0213 33.5576 18.0611
Pt 20.5139 34.4612 20.2678
Pt 19.1019 35.3241 22.4242
Au 26.3712 32.6442 15.8057
Pt 24.8648 33.6876 18.0004
Pt 23.4055 34.6217 20.2936
Pt 21.9408 35.4064 22.4689
Au 27.7075 33.63 18.0519
Au 26.2304 34.669 20.2779
Au 24.7986 35.4966 22.62
Au 29.1285 34.5836 20.3632
Au 27.6709 35.5002 22.6299
Au 30.5268 35.3895 22.6692
Pt 23.2562 16.6936 15.7491
Au 21.8045 15.7837 17.9078
Pt 20.4394 14.8942 20.203
Pt 19.0433 14.0427 22.479
Au 26.1346 16.6787 15.7527
Pt 24.6547 15.663 17.9264
Au 23.2319 14.7549 20.1542
Pt 21.8134 13.8287 22.4159
Au 27.5263 15.7191 17.9811
Pt 26.0244 14.7442 20.165
Pt 24.5653 13.7502 22.3779
Au 28.9559 14.817 20.1971
Au 27.3949 13.7283 22.4116
Au 30.2997 13.8598 22.4721
Pt 33.6107 19.6746 31.8976
Pt 33.5339 25.8818 31.5376
Au 32.5156 17.6701 30.3015
Pt 32.814 31.1744 29.7655
Pt 31.4237 15.5946 28.7115
Au 31.8319 33.2844 28.1672
Au 31.2251 18.31 32.7813
Pt 29.3352 27.8877 31.4158
Au 30.0647 16.3017 31.0541
Pt 30.3626 32.7257 30.356
Au 28.7132 17.1498 33.5728
Au 27.5473 29.5614 32.6036
Au 33.1799 20.8003 18.466
Au 33.3234 28.4914 18.2799
Pt 32.2549 18.4306 19.7111
Pt 32.466 30.8313 19.5773
Pt 31.3341 16.161 21.0111
Au 31.4903 33.1288 21.0388
Pt 30.8805 19.3607 17.5451
Au 31.0212 29.8978 17.3972
Pt 29.9497 17.0759 18.7886
Au 30.0992 32.2036 18.7578
Au 28.5399 18.0309 16.6015
Pt 28.7168 31.257 16.5094
Au 16.1115 20.3505 31.7128
Pt 16.3407 28.8794 31.6221
Au 17.0387 18.1988 30.1836
Pt 17.1996 31.0519 30.2123
Pt 17.9675 15.9918 28.6154
Au 18.0791 33.2407 28.6627
Au 18.5156 18.8792 32.5573
Pt 18.5111 30.4632 32.613
Au 19.4537 16.6685 30.9749
Au 19.4338 32.6139 31.075
Au 20.8326 17.2673 33.34
Pt 20.7312 32.0191 33.4686
Au 16.4187 20.9365 18.4158
Pt 16.5097 28.4621 18.3789
Au 17.2286 18.6181 19.7335
Pt 17.3182 30.7791 19.6607
Au 18.141 16.3157 21.0918
Pt 18.1697 33.0793 21.0612
Au 18.7313 19.5642 17.4781
Au 18.7929 29.9178 17.4535
Au 19.5179 17.1842 18.7747
Au 19.6095 32.2205 18.8628
Pt 20.978 18.1189 16.5914
Pt 21.1117 31.2919 16.6021
Au 38.4501 24.3944 16.5443
Pt 38.8191 24.9948 19.1919
Pt 39.2445 25.336 21.7924
Au 39.1122 25.4427 24.5809
Pt 38.9103 25.637 27.333
Pt 38.8608 25.1587 29.9027
Pt 40.7355 20.538 30.348
Au 11.2948 24.7749 16.459
Pt 11.072 24.756 19.3106
Au 10.9743 24.7102 22.0872
Au 10.9766 24.6825 24.9362
Au 10.8927 24.6707 27.8262
Pt 10.7852 24.7044 30.6973
Pt 11.1018 24.8506 33.4745
Pt 16.3117 38.5011 24.4778
Pt 19.0995 38.6089 24.5778
Au 21.8933 38.6516 24.6785
Au 24.7427 38.6517 24.6871
Pt 27.5769 38.7768 24.7394
Pt 30.3065 38.7635 24.7279
Au 33.1308 38.6216 24.8279
Pt 16.1698 10.9855 24.6696
Pt 18.9319 10.7835 24.5988
Pt 21.6647 10.6295 24.5035
Pt 24.4283 10.4991 24.4836
Au 27.2972 10.4071 24.4453
Au 30.1317 10.384 24.4782
Pt 32.9278 10.4722 24.4383
Au 24.5632 16.9249 36.7504
Pt 23.8992 20.261 39.4907
Pt 23.4726 20.0752 36.962
Au 23.4601 25.3929 39.1687
Pt 25.5816 29.6965 39.6129
Pt 23.348 30.8451 38.1689
Pt 24.0682 34.7122 38.6231
Au 24.7214 16.395 11.2349
Pt 24.7533 19.1783 11.1435
Au 24.8254 21.8891 11.0932
Au 24.8471 24.7184 11.0561
Pt 24.9324 27.4851 11.058
Pt 24.9106 30.2254 11.1018
Au 24.9079 32.9973 11.2589
Pt 33.2255 22.3833 35.7891
Au 30.8677 22.9133 34.6889
Pt 30.5101 21.8365 37.2446
Au 29.6724 17.2128 36.8169
Au 25.7703 21.9909 38.436
Pt 35.887 25.0803 32.9643
Pt 33.3318 24.9783 36.6392
Pt 30.5713 24.7804 37.1884
Au 26.0631 23.3623 35.8738
Au 28.8545 15.6386 41.4565
Au 31.6336 27.6547 32.9467
Pt 30.4262 27.6431 36.3757
Au 28.1897 26.3443 37.241
Au 25.6903 17.5921 42.5427
Au 29.8204 29.5683 34.2051
Pt 30.1471 26.9916 39.0318
Pt 25.6425 26.9493 40.0768
Au 28.1438 29.1182 36.4964
Au 25.8075 27.8145 37.5011
Pt 25.7616 30.5782 36.9659
Au 36.2073 23.0667 15.6645
Au 33.9635 21.7581 14.612
Au 31.7111 20.3784 13.7078
Pt 29.4372 19.0433 12.8828
Au 27.0794 17.6743 12.0831
Au 36.4048 26.0817 15.5761
Au 34.0545 24.5597 14.5871
Pt 31.7814 23.2028 13.5752
Au 29.4714 21.8498 12.767
Pt 27.1667 20.5171 11.9406
Pt 34.0682 27.4817 14.5622
Au 31.8311 26.0667 13.7074
Au 29.504 24.719 12.7278
Pt 27.1747 23.3195 11.8542
Pt 31.8173 28.915 13.6884
Pt 29.5066 27.5024 12.7255
Pt 27.2086 26.1176 11.8244
Pt 29.5286 30.3061 12.7542
Au 27.2308 28.9068 11.8533
Pt 27.251 31.7227 11.9955
Pt 12.7021 22.7171 34.3381
Pt 14.8831 21.6973 35.6016
Pt 17.0746 20.7061 36.8701
Au 17.6153 16.4434 39.2623
Pt 18.173 15.2171 36.7645
Au 13.127 26.6903 34.4159
Pt 14.7006 24.4526 35.0113
Pt 16.8699 23.3686 36.4166
Pt 19.0846 22.3201 37.6874
Pt 21.4572 21.3055 38.6728
Au 15.1402 28.4726 35.4476
Pt 16.7714 26.1016 35.8254
Pt 18.9819 24.9844 37.1148
Pt 21.2253 23.9097 38.394
Au 17.3834 30.1585 36.3141
Pt 19.0274 27.6885 36.6141
Pt 21.214 26.5304 37.8937
Pt 19.5834 31.7312 37.1052
Au 21.2135 29.275 37.3243
Pt 21.8175 33.2427 37.9214
Pt 13.4001 23.2801 15.5021
Au 15.6402 21.925 14.6087
Pt 17.9123 20.5306 13.7115
Au 20.1968 19.1283 12.8132
Pt 22.4125 17.7049 11.9738
Pt 13.4799 26.146 15.5365
Pt 15.6379 24.698 14.5556
Pt 17.9101 23.3095 13.6236
Pt 20.2383 21.9511 12.7012
Pt 22.4767 20.545 11.91
Au 15.6929 27.5194 14.64
Au 17.9633 26.1268 13.6427
Au 20.2274 24.7152 12.712
Pt 22.5093 23.3372 11.8168
Au 18.0358 28.9536 13.7295
Pt 20.2976 27.518 12.6897
Pt 22.5421 26.1198 11.8395
Pt 20.303 30.3372 12.8265
Au 22.5743 28.8873 11.8796
Au 22.5922 31.7147 12.0247
Au 34.2232 36.452 23.1583
Au 35.2233 34.2112 21.669
Au 36.1797 31.9251 20.2651
Pt 37.1114 29.5784 18.9836
Pt 38.0815 27.1885 17.6155
Pt 34.4975 36.3818 25.829
Pt 35.487 34.2023 24.4173
Pt 36.4122 32.0516 23.0347
Au 37.3123 29.764 21.7056
Pt 38.1467 27.4006 20.375
Au 35.3751 34.2162 27.3392
Au 36.407 31.9983 25.983
Au 37.3459 29.8887 24.5308
Au 38.2204 27.6013 23.1681
Pt 36.3377 32.1354 29.019
Au 37.449 29.9338 27.5568
Pt 38.1582 27.7646 25.9788
Pt 37.3581 30.1815 30.6844
Au 37.7175 27.6926 29.1259
Au 37.2531 23.2073 30.9945
Au 15.349 36.2924 23.2145
Au 14.4818 33.9815 21.8468
Au 13.6103 31.6252 20.4891
Au 12.7915 29.3335 19.1441
Pt 12.0173 27.0886 17.8343
Pt 15.3091 36.288 26.052
Au 14.3952 34.0184 24.7393
Au 13.4512 31.7062 23.397
Au 12.6034 29.3922 22.0295
Pt 11.8361 27.0797 20.6484
Pt 14.3336 34.0841 27.5589
Au 13.4029 31.7685 26.23
Pt 12.4645 29.4627 24.8624
Au 11.7199 27.1236 23.485
Pt 13.3764 31.8133 29.0027
Au 12.5151 29.3932 27.685
Au 11.6698 27.0687 26.3164
Au 12.5059 29.5187 30.5239
Au 11.6621 27.0281 29.2107
Au 11.6404 27.1767 32.0396
Pt 33.9687 12.7765 23.1509
Au 34.9371 15.0744 21.8414
Au 35.866 17.4488 20.5012
Au 36.8449 19.8311 19.2573
Au 37.7475 22.1892 18.0724
Au 33.9617 12.5477 26.0579
Au 35.053 14.8755 24.7644
Au 36.0166 17.2532 23.4024
Au 37.0723 19.7611 22.0947
Au 38.0164 22.6156 20.8499
Pt 35.1104 14.5708 27.6344
Pt 36.1938 16.8825 26.3913
Pt 37.1143 19.2713 24.9367
Au 38.0066 22.0406 23.8164
Pt 36.1836 16.5277 29.2052
Au 37.178 18.8901 27.9184
Pt 37.9686 21.2249 26.5813
Pt 37.2383 18.6147 30.6955
Au 38.2826 20.992 29.5269
Pt 38.1586 20.6547 32.337
Au 15.2297 13.259 23.2837
Pt 14.3262 15.5355 21.8924
Pt 13.5485 17.7496 20.5095
Au 12.7421 20.0639 19.1885
Au 12.009 22.4604 17.8845
Pt 15.1694 13.1581 26.1806
Pt 14.2171 15.427 24.7736
Pt 13.3749 17.694 23.3668
Pt 12.5171 19.991 22.0196
Pt 11.776 22.3306 20.6714
Pt 14.2351 15.3515 27.5798
Pt 13.298 17.6237 26.1873
Au 12.3854 19.9898 24.8634
Pt 11.6524 22.3087 23.4444
Pt 13.3118 17.5609 29.0287
Au 12.3262 19.8949 27.7091
Pt 11.5993 22.2892 26.3323
Au 12.428 19.893 30.5381
Pt 11.5671 22.2842 29.0888
Au 11.5851 22.2582 31.9375
Pt 22.7831 35.2886 36.359
Au 21.572 35.967 33.9965
Au 20.2438 36.6893 31.6548
Au 18.934 37.2856 29.2855
Pt 17.6405 37.8889 26.9083
Pt 25.6393 35.4326 36.5214
Pt 24.3896 36.033 34.1424
Au 23.1231 36.7878 31.7273
Pt 21.8299 37.4409 29.3847
Pt 20.5139 38.0225 27.0458
Pt 27.1899 36.132 34.3054
Pt 25.9515 36.7673 31.8887
Au 24.6805 37.4876 29.4754
Pt 23.3151 38.0833 27.1009
Pt 28.7031 36.8238 32.0275
Pt 27.4691 37.4697 29.5678
Au 26.1396 38.1531 27.1171
Pt 30.2274 37.4824 29.7183
Au 28.9394 38.1096 27.1764
Pt 31.6996 38.0769 27.3445
Pt 20.7344 15.5588 35.4951
Au 21.812 13.5612 33.8777
Pt 20.395 12.7863 31.5103
Pt 18.9954 12.1383 29.1555
Pt 17.4731 11.5847 26.9775
Pt 26.1069 14.0079 36.216
Pt 24.6451 13.3904 33.9264
Au 23.1767 12.689 31.554
Pt 21.7338 11.8782 29.1668
Pt 20.2976 11.3391 26.8776
Pt 27.468 13.2953 33.8981
Au 26.024 12.629 31.6282
Au 24.5383 11.8264 29.1918
Pt 23.0524 11.1991 26.8403
Pt 28.8804 12.6208 31.5285
Au 27.4026 11.8191 29.2067
Au 25.9299 11.0884 26.8342
Au 30.2203 11.8445 29.1513
Au 28.7866 11.0588 26.8664
Pt 31.5894 11.154 26.8372
Pt 23.4933 34.0611 13.4562
Au 22.0188 34.952 15.6403
Pt 20.5298 35.8455 17.8745
Pt 19.0803 36.7671 20.0617
Pt 17.6819 37.6437 22.2674
Au 26.3773 34.0277 13.4427
Pt 24.8759 35.0647 15.6451
Au 23.4385 36.0027 17.8913
Pt 21.9089 36.8553 20.0448
Au 20.4835 37.7367 22.3016
Pt 27.669 35.047 15.6168
Pt 26.2308 36.0931 17.8348
Pt 24.798 37.045 20.0527
Au 23.3092 37.7986 22.3084
Au 29.0676 36.0069 17.9017
Pt 27.5925 37.0249 20.1171
Au 26.1986 37.8675 22.3605
Pt 30.3574 37.0023 20.1919
Pt 28.9746 37.8797 22.4225
Au 31.7611 37.817 22.4798
Pt 23.2311 15.3525 13.3828
Pt 21.8209 14.39 15.535
Pt 20.342 13.4908 17.7537
Au 18.9726 12.6211 20.0524
Au 17.5407 11.7875 22.3442
Pt 26.1165 15.2569 13.3522
Pt 24.6406 14.2706 15.5031
Au 23.1765 13.301 17.6965
Pt 21.7615 12.4021 19.9966
Pt 20.3536 11.5598 22.2752
Au 27.5306 14.3149 15.5136
Pt 26.0007 13.3328 17.7036
Au 24.5694 12.3137 19.9582
Pt 23.0997 11.434 22.2239
Au 28.9981 13.3924 17.7163
Au 27.3998 12.3556 19.952
Pt 25.8376 11.2953 22.1987
Au 30.2913 12.3795 19.9811
Au 28.7306 11.2955 22.2002
Au 31.5695 11.3753 22.2377
Au 36.3372 17.9604 35.4833
Au 33.7481 28.8541 31.3326
Pt 34.9699 17.2108 31.6014
Au 34.9363 31.499 31.3381
Au 33.8579 15.1981 30.0459
Pt 34.055 33.6216 29.6874
Pt 32.6551 13.1556 28.4277
Pt 33.1206 35.7219 28.0478
Pt 34.5622 20.0309 35.4982
Au 33.412 30.2749 33.9673
Au 32.5886 15.7923 32.4666
Pt 32.6053 32.9311 31.9097
Pt 31.4052 13.8409 30.7773
Pt 31.6532 35.1007 30.2445
Pt 28.5631 15.1796 35.4361
Au 31.1204 32.1765 34.1855
Au 29.9978 14.5595 33.1427
Pt 30.1502 34.4547 32.4223
Pt 28.5361 13.4841 37.4886
Au 28.8673 32.0608 32.575
Pt 35.4313 20.7008 17.0003
Au 35.6885 28.5738 16.7348
Pt 34.4902 18.3456 18.2384
Au 34.7663 30.9634 18.0264
Pt 33.5862 16.039 19.4755
Au 33.8017 33.259 19.3884
Au 32.6055 13.776 20.8992
Au 32.7604 35.5685 20.8867
Au 33.1348 19.3726 15.9994
Au 33.3219 29.9482 15.797
Pt 32.234 16.9964 17.2965
Pt 32.4536 32.3086 17.1496
Pt 31.3216 14.7411 18.5729
Au 31.4405 34.6025 18.589
Pt 30.8908 17.9581 15.108
Au 31.0239 31.3229 14.9124
Pt 29.9731 15.653 16.3846
Au 30.0432 33.6717 16.3309
Pt 28.5674 16.6313 14.2065
Pt 28.7532 32.7236 14.0893
Au 13.6306 20.3588 33.0374
Au 13.9106 28.9693 32.8986
Pt 14.4734 18.0492 31.6971
Au 14.7207 31.1995 31.3702
Au 15.4447 15.9015 30.0967
Au 15.619 33.4422 29.9443
Pt 16.4594 13.7256 28.5179
Au 16.6092 35.6696 28.4188
Au 16.2194 18.8731 34.1171
Au 16.037 30.6331 33.8291
Au 18.444 16.9879 34.7556
Au 16.9409 32.8502 32.3838
Au 18.032 14.2988 30.7418
Au 17.9157 35.0875 30.8617
Pt 17.4375 18.0532 37.0381
Pt 18.3581 32.2975 34.7466
Pt 19.3738 14.8614 33.1271
Au 19.261 34.4433 33.2362
Pt 19.8495 17.0469 37.6482
Pt 20.5377 33.8613 35.6374
Pt 14.1329 20.8982 16.8844
Pt 14.2238 28.4865 16.8785
Pt 14.9033 18.5867 18.1991
Pt 15.0531 30.8221 18.1496
Pt 15.7489 16.3151 19.5367
Au 15.8506 33.145 19.4764
Au 16.6137 14.0728 20.9381
Au 16.7384 35.4111 20.9182
Au 16.3928 19.5346 15.9518
Au 16.4531 29.934 15.9529
Pt 17.164 17.2081 17.2872
Pt 17.2742 32.2778 17.2749
Pt 18.0565 14.8899 18.6178
Pt 18.1461 34.5424 18.6819
Au 18.6735 18.1129 15.0632
Au 18.7549 31.3466 15.0145
Pt 19.4568 15.7708 16.3409
Au 19.5802 33.6023 16.4399
Pt 20.9413 16.6898 14.1828
Au 21.1147 32.6807 14.2053
Pt 40.6507 24.111 15.1296
Pt 40.8381 23.5872 18.089
Pt 40.7277 23.4145 20.8081
Pt 40.6088 23.2994 23.6346
Pt 41.3875 25.7309 25.9892
Pt 40.2333 27.9846 27.5128
Pt 40.1122 27.4414 30.3039
Au 38.4457 25.7277 32.4022
Au 9.0005 24.7325 14.9788
Au 8.82493 24.7454 17.8485
Pt 8.64022 24.7977 20.6027
Pt 8.59757 24.8965 23.3632
Au 8.55194 24.875 26.1496
Pt 8.53147 24.9058 29.1159
Au 8.31661 25.0039 31.9186
Au 11.8635 24.0325 38.9617
Pt 14.8852 40.6954 24.2887
Au 17.677 40.9534 24.3446
Pt 20.4454 41.0395 24.5137
Au 23.2605 41.0612 24.5277
Au 26.1077 41.0714 24.5972
Pt 28.9244 41.1597 24.6012
Au 31.6573 41.0883 24.5331
Au 34.4535 40.9473 24.4488
Au 14.6135 8.72579 24.5151
Pt 17.4624 8.54257 24.3765
Au 20.1667 8.29605 24.3743
Pt 22.9764 8.27526 24.3486
Au 25.8381 8.07912 24.3009
Pt 28.7022 7.99751 24.2401
Pt 31.5063 8.09692 24.2596
Au 34.2452 8.15401 24.1926
Au 24.8613 14.9348 38.6521
Pt 24.1478 17.5946 39.6351
Au 26.4189 14.7566 42.1847
Pt 23.406 22.7709 39.8039
Pt 23.1189 27.19 41.2362
Au 25.2917 31.5346 41.708
Au 27.7538 30.1441 41.3645
Pt 25.5438 32.3504 39.0045
Pt 24.7184 15.0956 8.93064
Pt 24.7818 17.8167 8.8194
Pt 24.803 20.5605 8.65533
Au 24.8226 23.3152 8.69334
Pt 24.8932 26.1424 8.70974
Pt 24.9217 28.8669 8.72952
Pt 24.905 31.6615 8.81843
Pt 24.858 34.4559 9.03855
Au 35.683 23.4699 35.3417
Pt 33.1328 20.5477 37.7193
Au 36.6479 24.9646 37.7394
Pt 28.2323 23.4115 37.7182
Au 33.5827 15.8505 36.1889
Pt 27.2432 16.0028 37.6976
Au 35.9812 29.6496 33.0251
Au 39.5957 27.2992 35.1196
Pt 32.5308 23.1008 38.3033
Pt 31.5037 21.2834 39.8833
Pt 25.3497 21.6477 41.3092
Au 30.6533 17.6467 40.5814
Pt 35.3637 26.1022 35.5699
Pt 34.662 26.9845 37.944
Au 32.4886 23.7014 41.0362
Pt 30.1574 23.6391 39.543
Au 28.2797 18.2023 42.0343
Pt 33.9545 30.5153 37.155
Pt 32.4143 28.2878 38.1027
Au 30.4141 25.6756 41.3848
Au 27.6614 20.967 42.4942
Pt 31.67 30.0838 36.0664
Pt 30.1221 29.6756 38.2995
Au 27.8782 27.1772 41.7812
Pt 29.4599 31.6356 36.4066
Pt 27.9094 28.335 39.2912
Au 27.321 31.2754 34.7702
Pt 38.4955 22.9672 14.1449
Au 36.2434 21.7427 13.1282
Pt 33.9413 20.2843 12.1459
Pt 31.695 19.0344 11.3044
Au 29.3417 17.6961 10.53
Pt 27.0564 16.3336 9.71527
Au 38.8956 26.0482 14.2834
Au 36.4322 24.5991 13.138
Pt 34.1483 23.1611 12.0036
Pt 31.8248 21.7681 11.1498
Pt 29.5045 20.4923 10.3702
Au 27.0897 19.1574 9.55523
Pt 36.3718 27.4419 13.2113
Au 34.1676 25.9976 12.1401
Au 31.9015 24.5884 11.1976
Au 29.5175 23.2906 10.3465
Au 27.1876 21.906 9.47646
Au 34.1084 28.9226 12.1975
Au 31.8213 27.4474 11.271
Pt 29.5114 26.1117 10.3011
Pt 27.2183 24.7518 9.47394
Pt 31.8609 30.2763 11.3696
Au 29.5693 28.9184 10.2781
Pt 27.2726 27.4817 9.39917
Au 29.5111 31.8094 10.4515
Au 27.2549 30.3468 9.44055
Pt 27.2166 33.1618 9.7123
Au 8.16745 21.5176 35.5032
Au 10.3581 20.293 36.8937
Au 13.3166 16.3814 36.7673
Au 15.1144 17.4743 38.5903
Au 21.848 17.3419 41.1363
Pt 22.5039 14.0948 39.9683
Pt 14.5089 23.6528 37.6373
Au 11.8636 26.7645 38.3614
Pt 14.5524 20.9126 38.193
Au 16.6807 22.303 39.1858
Au 18.9819 21.0607 40.2893
Pt 21.4759 20.1243 40.9787
Pt 11.4923 29.159 34.0837
Pt 14.3216 26.3518 37.0403
Au 16.5561 25.204 38.515
Pt 20.9352 25.6258 40.5282
Pt 20.9691 22.8649 40.9078
Pt 14.1466 28.2613 38.8737
Au 16.5577 27.9275 37.8672
Pt 18.7514 26.762 39.2361
Au 22.8318 26.2604 43.7295
Au 17.0397 32.0901 38.5528
Au 18.7569 29.5615 38.6347
Au 20.9418 28.313 39.9945
Pt 20.9673 31.0856 39.4284
Au 22.8079 28.9869 43.2932
Pt 23.0812 32.6056 40.2283
Au 11.119 23.298 13.9149
Pt 13.38 21.9369 13.0475
Au 15.6116 20.5113 12.2417
Au 17.8612 19.1085 11.3296
Pt 20.1841 17.6944 10.4261
Pt 22.4033 16.3445 9.60783
Pt 11.2093 26.1823 14.0458
Au 13.3581 24.6977 12.9982
Pt 15.6331 23.3319 12.0964
Au 17.9035 21.9304 11.2132
Au 20.1259 20.5217 10.2909
Au 22.4424 19.1803 9.51237
Au 13.32 27.5661 13.1094
Au 15.6448 26.1127 12.1183
Pt 17.9134 24.6997 11.1929
Pt 20.1898 23.3756 10.2852
Pt 22.4805 21.9324 9.50335
Au 15.6821 28.9802 12.1802
Au 17.9317 27.5254 11.1581
Au 20.208 26.1054 10.2568
Pt 22.4521 24.7521 9.41941
Au 17.9252 30.3516 11.3232
Au 20.2114 28.972 10.2859
Pt 22.6044 27.471 9.48446
Au 20.2727 31.8219 10.4274
Au 22.5558 30.3379 9.46762
Pt 22.5669 33.1147 9.66863
Au 35.6249 38.8697 22.946
Au 38.7603 36.8248 19.9175
Pt 37.4973 34.3901 20.1545
Au 40.9533 32.4405 19.9645
Pt 39.2057 29.9479 17.5276
Pt 40.686 28.4237 16.215
Au 35.813 38.8257 25.7303
Au 37.8015 39.07 21.3255
Pt 37.761 34.4727 22.9402
Au 41.8405 30.0734 18.482
Pt 40.5002 27.8253 21.7185
Pt 41.4014 25.7448 19.8869
Pt 36.7264 36.7509 27.2063
Pt 36.8265 36.6404 24.311
Pt 38.7747 32.3447 24.4105
Pt 39.7916 30.1573 23.0728
Au 41.678 25.7165 23.0907
Au 37.6743 34.613 28.7386
Au 37.7669 34.497 25.8461
Au 41.1399 32.6412 23.0248
Au 42.9832 28.1989 23.0241
Pt 38.6573 32.5925 30.2599
Pt 38.7175 32.3624 27.408
Au 39.7331 30.1803 25.8988
Pt 39.6726 30.8762 31.9032
Au 39.676 30.0801 29.2063
Pt 36.3111 27.5113 31.4708
Pt 13.906 38.6134 22.9004
Au 13.0075 36.3508 21.6577
Au 12.1398 33.9685 20.3604
Au 11.2241 31.6702 18.9922
Pt 10.388 29.3377 17.6989
Pt 9.76324 27.0765 16.3842
Au 13.8672 38.5722 25.8224
Pt 12.8929 36.3526 24.5086
Au 11.916 34.0554 23.1921
Pt 11.0217 31.7024 21.8938
Au 10.2499 29.4231 20.498
Pt 9.55717 27.1113 19.1816
Pt 12.8797 36.4098 27.3271
Au 11.8603 34.16 25.9994
Au 10.9005 31.8075 24.6906
Pt 10.0885 29.4916 23.3647
Pt 9.4543 27.1687 21.9599