2057
Atoms. Timestep: 20837
Au 11.1375 36.5015 22.0972
Au 32.2825 10.035 34.637
Au 14.5554 23.6285 12.1717
Au 20.4678 8.63206 18.984
Au 26.8679 13.1419 35.1532
Pt 16.1678 16.0916 32.3608
Au 30.5567 41.0955 34.8646
Au 25.83 30.4627 39.8153
Au 11.6917 9.16644 27.58
Au 25.8089 40.8758 35.5686
Au 33.2839 10.487 15.7612
Au 20.5046 26.0486 39.8158
Au 41.6147 14.9714 22.3512
Au 12.3227 23.4973 38.1273
Au 41.6311 23.6631 25.1407
Au 30.01 20.4028 40.0996
Pt 12.3611 25.1682 28.1465
Au 25.5474 25.7188 42.2531
Au 17.8837 9.59612 13.1058
Pt 18.0064 14.8925 29.6751
Pt 31.5119 18.8198 27.9757
Au 7.71708 21.869 29.3215
Au 15.3638 35.1081 16.1975
Au 30.7691 7.65381 27.5449
Au 27.6163 39.1093 34.2925
Au 15.0989 25.4801 19.0727
Au 16.88 33.6331 18.0549
Au 29.9882 8.24712 18.5434
Au 25.077 36.8598 11.2594
Au 13.4933 13.125 14.4506
Pt 35.6797 31.5034 34.2893
Au 14.902 29.8521 39.1929
Au 9.88618 16.4557 26.1884
Au 17.343 33.4696 12.5533
Au 8.96968 21.974 17.1436
Au 39.9279 35.6617 26.6744
Au 11.9117 31.6059 24.8444
Au 33.3604 32.0994 29.7141
Au 13.8508 21.6914 10.5092
Au 29.4193 15.7267 38.3178
Pt 21.6844 33.9192 22.1592
Au 29.8669 23.2247 7.881
Au 13.1935 36.6133 23.9396
Pt 30.8629 34.4228 13.5853
Au 33.6894 31.9951 32.4666
Au 32.2969 7.98122 20.3169
Au 39.3205 31.344 23.2628
Au 7.28361 17.2057 26.483
Pt 28.7531 38.0822 27.7372
Au 42.834 22.5939 20.0891
Pt 30.203 29.787 15.8054
Au 23.5456 37.681 25.4878
Pt 27.6129 19.6219 24.2553
Pt 18.2762 22.2639 30.3719
Au 27.5012 38.4918 14.8884
Pt 23.7759 15.3608 22.5941
Au 41.1575 17.1519 20.2886
Au 23.5285 6.36474 25.9207
Au 39.5945 30.5968 28.8633
Pt 29.2098 22.9763 31.8768
Au 40.6907 18.7491 17.4503
Au 22.1581 32.9781 6.06008
Au 36.845 22.5675 18.3805
Au 20.8195 38.2825 24.6687
Pt 15.8075 18.9759 28.0698
Pt 32.705 21.3412 16.9393
Pt 11.1331 15.5797 24.0239
Au 27.178 9.35195 34.7923
Au 22.28 7.76308 13.5096
Au 10.0315 26.2483 26.3599
Au 9.58839 23.7199 34.0138
Au 31.2699 8.75478 32.3543
Au 28.5592 30.4804 7.29907
Au 28.5202 9.05868 37.1578
Au 13.2541 38.7208 26.044
Au 27.8769 6.79274 22.7723
Au 24.7591 25.3796 39.5756
Au 16.7537 27.955 17.168
Au 40.4113 12.8607 23.9134
Au 18.4967 19.1553 9.20362
Au 11.3056 28.2452 27.9542
Pt 29.1723 32.7994 35.4154
Pt 31.9404 21.271 11.4615
Au 14.214 10.8397 15.7136
Au 15.0034 41.7509 23.2457
Au 21.9379 27.664 12.3915
Au 16.6566 25.4018 11.0925
Au 28.707 40.9552 19.6061
Au 10.6798 27.4322 13.936
Au 25.9866 14.2652 41.6581
Pt 19.6123 33.9626 34.1341
Au 13.4466 33.8756 14.5721
Au 16.0634 23.0692 9.76636
Au 35.051 20.9706 33.642
Au 41.1857 24.2334 16.3975
Pt 34.9408 23.4778 20.4121
Pt 18.2749 12.7438 33.5008
Au 29.074 37.1694 16.7194
Au 15.793 11.4048 13.4298
Au 9.8873 15.1018 30.3688
Au 42.2994 27.3037 20.4651
Au 36.2957 9.90025 22.5571
Au 27.4904 7.2432 14.5981
Pt 22.4994 23.2897 19.6418
Au 28.3816 25.5731 10.4734
Au 8.74626 35.0997 29.8258
Pt 30.9493 16.1729 28.9635
Au 27.7535 42.1305 30.7427
Au 19.9768 37.8991 14.1376
Au 36.0279 11.5908 31.3741
Au 22.016 37.7571 16.9789
Au 38.1427 38.3771 20.5379
Au 32.4632 40.3049 30.3556
Pt 29.6822 19.1039 25.8205
Au 17.6353 40.2823 16.7106
Au 28.6288 8.00871 32.5923
Pt 16.5945 25.5458 21.4089
Au 17.5116 14.9456 16.5202
Au 5.96328 28.3284 27.1378
Pt 39.7963 24.9552 29.5333
Au 20.9266 20.3027 9.76638
Au 30.6741 7.66942 23.6045
Au 29.0758 43.8361 25.5326
Au 25.2478 43.3157 21.8444
Au 25.5669 39.7937 25.1084
Au 30.9154 18.485 41.7984
Au 11.2248 28.3858 17.9619
Au 21.3712 17.041 41.744
Au 14.8461 30.1397 18.7156
Au 8.00579 24.2733 30.4964
Pt 28.1714 24.9118 26.9425
Au 18.1631 42.1864 29.791
Au 36.2415 25.4055 18.4145
Au 11.8516 13.8615 18.7759
Pt 32.9548 37.5231 30.0659
Pt 20.6364 19.346 37.5316
Pt 19.2441 12.7349 30.9584
Pt 14.3977 25.7207 30.2437
Au 21.2457 28.065 4.99908
Au 20.3414 36.1423 8.89451
Au 11.6555 28.6141 32.522
Au 27.8126 28.6888 38.5763
Au 14.4095 12.327 18.1878
Au 8.40672 24.1406 27.5587
Au 14.0814 40.6837 20.8019
Au 22.7017 24.3313 7.04077
Au 33.7109 39.043 21.6055
Pt 22.7862 21.4182 17.4442
Au 38.3948 28.5418 15.0035
Pt 18.4734 27.5163 22.0986
Pt 33.0341 26.7498 30.2245
Pt 30.4916 25.3541 23.7071
Au 41.7722 17.5784 22.9301
Pt 21.5449 18.5908 15.8686
Au 19.4551 8.02043 31.5129
Pt 29.0296 23.2375 19.1025
Pt 32.495 11.9881 28.6971
Au 36.3767 39.2044 22.3547
Au 33.5673 27.3529 35.2579
Pt 28.0355 30.6229 20.1877
Pt 30.7019 28.1393 23.6571
Au 18.0679 44.6731 25.8351
Au 19.9684 31.55 6.40019
Pt 31.3069 14.7173 34.0654
Pt 15.7275 39.8083 25.0656
Pt 23.2277 28.9185 23.5152
Pt 34.8975 18.4003 34.8966
Au 19.578 14.2501 11.5354
Au 30.3984 29.5608 40.6361
Pt 13.2262 22.0413 24.9943
Au 28.685 11.0839 38.8728
Au 23.0884 6.73945 23.1188
Au 28.6092 43.029 28.1594
Pt 31.1207 32.7755 31.2909
Au 38.1023 18.6487 13.3599
Au 14.8849 31.8433 25.3825
Au 30.7162 17.1999 23.5154
Pt 28.7032 11.6716 21.7246
Au 32.2865 12.4444 14.1887
Au 12.1031 38.801 21.0696
Au 20.5841 22.7148 5.91762
Au 28.7042 40.2603 22.5144
Au 38.8603 36.9257 31.3702
Au 24.3932 36.6733 37.0462
Au 20.9848 25.3557 5.18769
Pt 28.2676 39.7067 31.6384
Pt 31.0449 33.1082 18.5265
Pt 11.6326 17.7088 15.6875
Pt 26.9524 37.9834 23.3486
Pt 23.7812 21.5905 24.5084
Au 19.3881 28.7167 16.688
Au 17.4506 35.8038 25.7785
Pt 19.8658 22.7704 13.4777
Au 6.86298 26.3887 28.9488
Pt 38.5157 29.1062 21.9797
Pt 26.3834 13.8135 28.5559
Pt 17.5503 23.3307 28.0308
Au 16.5225 38.488 32.4863
Pt 27.3155 36.7422 18.9582
Pt 20.5288 27.3885 19.6342
Pt 11.2417 21.3006 18.3083
Pt 29.182 13.2915 33.5606
Pt 25.2975 9.47867 26.8513
Pt 24.7086 14.3748 14.7227
Au 38.1417 15.3894 33.0413
Pt 12.7446 16.5155 17.7451
Pt 24.3113 34.2706 11.1739
Pt 27.0868 30.3241 31.6474
Pt 21.2479 19.8718 33.0158
Au 27.1147 17.9127 7.39187
Au 14.315 31.7334 28.149
Au 35.9535 32.7595 36.667
Au 9.51911 27.9885 35.8782
Au 14.0456 28.1892 10.6719
Au 23.9568 31.4867 7.48672
Au 35.9375 23.3634 15.659
Au 8.82861 20.6638 19.6552
Au 38.9797 38.0532 25.9592
Pt 13.7361 21.2182 34.4046
Au 23.6664 13.6517 8.7937
Au 17.2062 30.8654 17.4914
Au 32.1119 24.6417 6.74998
Au 22.6697 40.2602 29.3989
Au 20.492 43.7794 28.9217
Au 13.8612 29.7009 34.2318
Pt 16.0344 12.497 20.4464
Au 32.7642 40.7213 33.2006
Au 33.009 30.466 10.3172
Au 20.2079 34.4855 12.9389
Au 30.3864 41.4479 31.9903
Au 14.2401 8.13952 29.2884
Au 35.4615 16.1737 36.4906
Pt 27.4247 20.3605 27.0333
Au 33.6283 20.5421 8.59506
Au 19.5655 29.467 42.4043
Au 32.4565 42.1994 25.2245
Pt 23.2106 28.5081 18.6424
Au 18.9664 40.6874 14.348
Au 22.3245 35.1162 25.7468
Pt 34.0979 27.9601 32.5563
Au 18.7198 34.7598 10.4372
Au 34.4607 23.0438 7.54963
Pt 13.9787 16.9296 28.5253
Au 14.1891 19.1104 11.2644
Au 39.8334 13.5992 28.7349
Au 23.555 26.4917 5.45448
Au 19.1419 32.1427 10.5752
Au 31.0128 39.6421 21.252
Au 16.6675 42.3916 25.4006
Au 12.1577 30.2153 30.1171
Au 16.6174 29.9308 24.6411
Au 24.3779 37.4312 18.5974
Au 38.3253 23.7419 14.4301
Au 14.0654 32.9383 19.1846
Au 19.3913 42.5727 21.6121
Pt 15.8512 22.2134 15.7422
Au 17.202 24.8341 8.18726
Au 23.5746 43.9069 26.7191
Pt 26.2708 19.7057 31.7976
Au 38.4034 19.1823 23.9872
Au 11.742 26.2729 16.3024
Au 32.359 8.9864 29.7354
Pt 20.3047 11.7678 34.9943
Au 20.3174 26.8568 42.3556
Pt 35.1146 22.9012 23.7633
Au 36.969 38.3634 32.6883
Pt 35.4768 32.7278 16.6596
Au 17.9954 26.3364 19.1228
Au 34.1889 18.3359 39.6652
Au 13.4107 18.7124 38.407
Au 22.9853 25.7302 14.7637
Au 12.0247 23.7117 11.6038
Au 23.4696 15.5372 37.1772
Au 28.4122 14.3746 11.4512
Au 14.5266 16.283 11.7811
Pt 23.1539 19.1433 28.7444
Au 19.6953 36.0157 21.3591
Au 9.80738 10.9285 26.7276
Pt 36.9981 36.6866 24.6739
Pt 40.1185 25.7233 24.247
Pt 20.4552 17.7007 19.5262
Au 29.8383 16.0883 41.2087
Pt 13.0042 13.4154 28.5665
Au 14.7558 9.66321 31.6163
Au 20.9052 23.9181 41.7277
Pt 12.8775 24.4789 23.7678
Au 15.9817 30.7701 36.8477
Pt 26.5957 30.97 29.1238
Pt 35.555 27.2564 24.5561
Au 39.1461 26.1897 13.6102
Au 29.6371 25.8704 6.16708
Pt 33.0532 33.0198 14.6168
Pt 30.8122 14.0573 24.7891
Au 25.3669 24.4681 5.54791
Au 14.1811 14.6329 16.6622
Au 17.2623 23.0281 12.4295
Au 32.0304 34.4985 8.30805
Pt 27.0503 34.8141 20.8664
Pt 15.1751 20.4805 24.1472
Pt 21.6974 14.5618 16.5241
Pt 35.5809 27.4832 27.2096
Pt 35.3907 35.3195 26.52
Pt 35.3528 25.6598 31.4295
Pt 33.1227 18.5953 22.9522
Pt 29.4639 10.6164 33.0385
Pt 24.8487 14.877 34.6536
Au 18.3019 41.7856 18.988
Pt 35.7511 30.1344 31.9214
Au 19.6012 42.2447 16.5847
Pt 21.0075 33.831 27.7888
Pt 15.7609 22.0469 26.3487
Au 29.1269 25.5265 38.3013
Au 15.2914 34.3164 21.4166
Pt 9.94087 28.3383 30.4608
Pt 33.0005 23.6294 15.3756
Pt 26.4164 36.5949 28.6891
Au 17.8911 17.6773 41.5438
Au 8.30563 28.7339 18.5531
Pt 14.621 12.3086 30.5484
Pt 32.6924 25.8958 32.8572
Au 14.1784 15.9374 38.86
Au 7.41239 29.288 30.4302
Au 22.7551 38.0171 14.2604
Pt 25.559 24.7534 35.3061
Pt 32.1802 30.5225 24.5903
Au 38.2331 13.2817 31.2034
Au 35.1296 10.162 17.8746
Pt 21.3491 30.1302 14.0691
Pt 12.2143 27.4024 34.9474
Pt 25.016 24.6193 20.5094
Au 37.978 22.8654 35.0168
Au 12.2439 30.3377 39.1873
Au 28.371 11.3892 15.3943
Au 34.7064 26.342 11.3155
Pt 24.4636 11.7588 28.6045
Au 17.963 31.4204 8.1866
Pt 22.7845 21.7838 29.0347
Au 32.3033 28.0041 12.1086
Au 28.7191 39.9058 16.9998
Au 34.1586 23.5869 17.7921
Pt 9.52664 30.5161 28.97
Pt 17.6031 26.1206 34.653
Au 28.5716 7.3664 25.4097
Pt 10.8515 18.2726 24.4333
Pt 33.4899 32.506 35.3315
Pt 27.4407 18.5454 10.0767
Au 13.4888 39.846 28.8943
Au 39.0723 21.2488 12.6475
Au 39.9138 29.4776 17.024
Au 11.271 16.4508 19.8812
Pt 26.7205 25.4366 12.6892
Au 12.5685 34.508 20.9238
Au 15.9058 33.1546 29.9781
Pt 26.377 9.41674 15.6208
Au 21.8144 7.66155 32.8725
Au 27.9703 22.0371 4.14905
Au 29.0303 28.4909 5.56431
Au 17.3065 27.362 14.3101
Au 16.4681 32.0107 39.8255
Pt 24.5511 30.9985 24.4526
Au 9.70074 32.0938 33.8442
Au 34.4895 36.9908 17.7425
Au 18.6759 7.9594 15.2113
Au 10.2263 33.6651 25.8321
Pt 15.7317 10.2736 29.073
Au 9.74148 25.0834 14.8354
Pt 22.7337 16.4136 30.2689
Pt 32.0067 31.6468 16.5709
Au 15.7361 40.8111 18.7053
Pt 22.68 35.8586 12.6029
Au 23.5421 26.9256 9.79925
Au 12.9975 10.6111 29.3993
Au 20.7655 40.7224 23.1851
Pt 40.0336 28.2513 27.2361
Pt 21.8916 8.26186 27.1037
Au 40.3278 32.0283 33.2881
Au 39.9066 33.1429 27.6699
Au 22.9994 23.465 4.59846
Pt 33.1394 35.0821 22.3565
Pt 33.9987 22.0301 26.2608
Au 15.0417 35.6164 18.9572
Au 26.8774 29.0463 35.9048
Au 28.267 30.016 10.109
Au 18.9205 23.9079 10.3419
Au 17.273 43.5664 23.1257
Pt 24.3868 28.6984 26.0211
Pt 23.0104 24.2777 17.1493
Au 23.8598 23.5451 42.0373
Pt 24.3601 10.9616 20.2037
Au 20.4961 22.6691 33.1305
Au 9.96848 16.3407 17.5434
Pt 8.87445 22.4396 21.9092
Au 28.6695 13.7306 40.3658
Au 43.6481 25.1307 21.4093
Pt 36.8089 27.7581 32.6131
Pt 33.966 32.5122 23.237
Au 10.5204 29.7592 15.5968
Au 34.6669 34.1957 31.1872
Pt 25.7568 20.7136 22.6374
Pt 32.2122 16.6863 14.0246
Au 33.0956 41.0746 19.9896
Pt 22.0256 22.0108 22.4286
Pt 32.1229 16.2192 17.912
Pt 17.8287 29.6159 38.6688
Au 12.1803 38.4521 30.9796
Au 13.0051 41.1145 24.9888
Au 34.8116 30.0427 18.1024
Au 20.9473 6.98012 21.1367
Pt 19.5865 18.7681 34.936
Pt 35.9221 28.5202 22.0536
Pt 15.6076 17.47 37.3812
Au 23.2712 41.5331 22.3499
Au 34.0234 34.7985 36.7666
Pt 32.2105 10.391 24.3604
Au 19.0413 15.9655 34.9543
Pt 29.3147 14.3941 35.9843
Au 20.8464 42.6098 19.2485
Pt 19.8559 29.9537 31.2996
Pt 22.1179 34.4155 35.9553
Pt 20.8614 38.3768 29.9906
Pt 20.1684 25.8228 24.0865
Au 12.8564 15.7876 13.9757
Pt 20.3084 25.3252 33.193
Pt 22.8443 13.9375 11.3927
Au 13.484 27.6187 39.4699
Au 28.4065 36.7565 33.0576
Pt 17.1698 15.465 36.8482
Au 37.274 30.3292 16.8737
Au 20.5431 22.9272 37.3802
Pt 25.4757 16.8538 32.9965
Au 16.5072 7.99783 27.5663
Pt 28.5181 39.2067 25.303
Pt 37.9797 27.0268 25.8489
Pt 17.2646 21.8227 39.3101
Au 30.8387 32.3963 9.64174
Pt 38.8937 22.8692 27.9993
Au 19.0323 31.3271 40.501
Pt 28.0546 26.6753 24.0853
Au 42.5345 26.1798 26.0062
Pt 34.8043 32.8289 25.9046
Pt 33.4402 12.3116 17.7414
Au 16.0528 8.51267 24.7503
Pt 35.478 33.774 21.2425
Pt 35.6384 28.9599 34.5474
Pt 38.985 23.9527 22.7416
Pt 23.2511 17.4825 20.8818
Pt 13.4806 22.1124 22.2322
Pt 31.256 13.5939 17.891
Pt 37.8567 13.8172 24.3402
Au 12.3935 10.8139 19.1136
Au 14.0479 34.024 32.5869
Au 43.6427 22.5453 29.191
Au 20.8378 44.4573 26.3602
Au 36.6584 27.4795 13.1793
Pt 25.8814 12.1495 26.4142
Pt 17.7634 20.8056 28.128
Au 34.7967 12.8221 15.4312
Pt 10.0035 28.1348 23.0135
Au 13.4817 34.4534 36.7099
Au 34.5752 31.7126 12.4162
Au 9.9753 20.737 28.3478
Pt 10.2247 23.6047 19.2258
Au 19.8271 11.344 19.2545
Pt 23.6736 23.3225 26.8466
Au 23.8951 29.1132 4.88844
Pt 19.4458 31.9464 29.3422
Pt 28.061 35.7839 14.5729
Pt 26.6271 32.3854 11.0266
Au 21.514 32.9436 15.2232
Au 43.0667 21.1083 24.8247
Au 43.0873 27.6169 30.663
Au 31.7661 36.8597 17.0151
Pt 20.7021 16.9316 32.8069
Au 33.0937 13.4207 37.8498
Pt 25.7394 16.6101 16.005
Au 18.1383 36.3085 12.725
Pt 23.214 33.564 19.6989
Au 27.9645 9.67442 13.3713
Pt 22.5054 18.2193 13.1746
Pt 25.2374 36.5214 14.0308
Au 19.9067 9.79299 36.8323
Au 34.2839 11.8927 33.8044
Pt 22.8427 13.0263 34.6704
Pt 22.5799 17.4374 23.7383
Pt 27.595 11.3155 28.3428
Pt 24.0813 18.7557 16.5546
Au 16.4246 37.7986 35.1785
Pt 31.0261 40.0082 24.1349
Pt 37.9591 27.5876 17.7666
Au 22.6029 36.2006 20.4083
Pt 25.0131 18.6648 11.5979
Pt 20.4498 19.9587 28.3945
Pt 15.6485 30.2659 29.9102
Au 22.7048 35.1421 38.7665
Au 25.1128 6.32919 18.8136
Au 22.4081 10.3506 17.8557
Au 30.6516 25.7394 8.78819
Au 30.148 23.3294 5.17486
Au 20.8824 13.216 40.4592
Pt 25.6069 29.5046 13.8441
Au 32.2906 18.4379 9.70518
Pt 25.7025 26.8846 14.7016
Pt 25.0964 13.3423 19.2581
Au 29.8226 7.93219 30.0889
Pt 19.9883 22.8407 20.5756
Au 21.0765 21.1359 35.4819
Pt 30.777 30.2019 32.1724
Au 7.28015 31.1295 32.8029
Pt 26.3188 28.9919 24.1245
Pt 35.1065 13.0565 28.9531
Au 35.4962 35.3519 15.8794
Au 23.5123 25.2162 12.0368
Au 12.8687 34.6527 17.3223
Pt 21.9963 31.4092 28.797
Pt 34.9019 30.211 23.8931
Au 25.6053 15.6729 8.05201
Pt 28.0532 15.1967 15.9477
Pt 14.3459 17.4578 15.7847
Au 20.1347 17.0985 14.0022
Au 14.5889 20.989 39.92
Pt 23.4469 30.0092 12.4204
Au 18.3643 7.38861 20.2694
Pt 29.8174 22.4493 15.5281
Au 17.6928 10.6045 35.1712
Au 15.1765 9.70988 17.9838
Au 41.4509 21.5518 27.0838
Au 18.0168 37.3334 10.175
Pt 21.6638 11.9889 29.5001
Pt 21.7795 29.5832 25.9855
Pt 22.2058 29.6043 7.01671
Au 31.8718 36.7457 36.8557
Pt 15.1547 23.0292 38.2402
Au 23.1596 39.1042 32.1273
Pt 17.0941 19.591 34.9899
Au 25.2358 10.7704 17.6172
Au 31.2595 22.3388 41.9917
Pt 22.6162 11.3883 23.6998
Au 39.7878 23.8454 12.2602
Pt 39.8225 25.5342 26.9105
Au 32.4642 9.62455 18.2529
Pt 35.431 27.9835 29.9861
Pt 14.0304 21.2791 31.7277
Au 27.6329 41.7084 24.6333
Au 24.0501 10.697 31.5068
Pt 34.2777 25.4259 23.1746
Au 7.6943 32.6939 25.3154
Au 14.4784 26.0239 34.7652
Au 39.9589 19.807 15.038
Pt 23.3608 24.0833 9.55941
Au 4.96543 25.8028 26.8503
Pt 12.0353 26.8538 30.2844
Au 14.4505 39.912 31.4601
Pt 25.3879 20.4158 18.2251
Au 36.4601 13.36 33.6054
Pt 25.76 29.888 11.1768
Au 22.9544 21.4909 6.52981
Au 41.2479 29.4362 21.9874
Au 22.5746 22.8681 13.993
Au 18.9857 21.1938 11.3493
Pt 32.9792 36.8608 27.4019
Pt 26.5189 37.4952 26.1217
Au 18.9834 26.9443 6.35531
Pt 27.0503 17.3973 25.5892
Pt 21.2457 22.6181 8.54603
Au 25.9741 40.7364 22.4774
Pt 28.0972 17.4705 36.5469
Pt 33.8613 23.6574 12.0173
Pt 30.4269 13.4661 20.3203
Au 16.0284 35.702 31.5095
Pt 11.4347 15.8044 28.2034
Au 23.2749 41.8434 31.8601
Au 26.8907 35.7281 37.921
Au 11.5589 15.0624 32.7825
Pt 28.5913 26.1213 31.8006
Pt 17.2127 31.5665 27.7668
Pt 21.0003 14.1572 36.2976
Pt 11.179 21.4737 20.9923
Au 32.4996 41.4238 27.9087
Au 7.36189 19.3717 28.2278
Pt 22.3979 26.9638 24.9321
Pt 21.7042 14.5237 28.3023
Au 18.9131 7.52114 23.1258
Pt 24.5499 29.4919 30.6515
Pt 16.6831 15.4223 21.1778
Pt 20.0085 18.4286 11.4831
Pt 35.256 22.9684 28.382
Au 17.2587 28.8402 7.4102
Au 35.1618 34.2292 34.1031
Pt 25.7303 24.8191 16.7163
Au 11.2319 33.1899 18.8965
Pt 30.2941 20.0218 23.4347
Pt 30.373 18.4925 13.8235
Au 22.9893 14.7803 41.4855
Pt 17.8752 23.5737 19.1109
Pt 27.6708 17.3275 19.9682
Pt 16.024 29.203 27.4112
Au 5.63737 27.7397 24.5268
Pt 34.2853 16.3409 21.9835
Au 20.5274 6.10735 14.8234
Au 7.01647 25.8624 19.416
Pt 19.2878 14.3823 25.1751
Pt 15.9943 12.8913 15.673
Au 11.2688 23.5176 16.594
Pt 18.2235 17.901 37.0989
Au 16.7193 41.8503 21.1301
Pt 30.0928 18.0673 18.5799
Au 35.2186 28.2312 39.7855
Au 24.6687 12.9442 36.7795
Pt 33.927 11.1595 22.4617
Pt 40.2321 22.0924 21.2692
Pt 29.9548 30.1945 37.9698
Au 14.6836 41.3861 27.0305
Au 33.8745 15.8266 38.7467
Au 28.6876 18.0821 39.6461
Pt 32.8902 25.6297 13.6103
Au 11.9444 32.9304 35.1215
Au 20.0595 21.1797 39.5964
Au 38.999 17.0608 22.1695
Pt 13.9733 24.2381 26.1051
Pt 10.9938 23.6523 26.1207
Au 8.05117 18.0715 23.9051
Au 16.9617 33.6146 33.0529
Pt 37.1881 24.2899 29.7557
Au 41.7473 24.749 33.6794
Au 40.1212 28.4537 24.3438
Au 16.0407 37.8324 12.1792
Pt 28.4713 37.0971 30.3121
Au 23.0578 6.09889 15.643
Au 8.19414 15.3937 24.4137
Au 32.591 7.74939 25.3625
Pt 23.6716 31.1168 18.8362
Au 13.6772 10.3222 24.3697
Pt 34.4715 16.5374 19.1469
Pt 15.0041 27.7804 25.4103
Au 12.1183 26.485 11.7241
Au 16.1045 35.4191 10.8499
Pt 17.979 36.3403 33.3395
Pt 22.6025 36.5114 28.2966
Pt 35.0699 19.7383 30.8079
Pt 30.9998 36.6202 34.2201
Pt 17.1684 29.1001 31.8071
Au 12.369 36.7245 19.3478
Pt 8.45576 21.7656 26.3697
Pt 25.3745 15.3109 30.6335
Pt 36.7838 20.7912 28.6284
Pt 8.45362 28.3708 25.2347
Au 15.8668 27.097 8.96962
Pt 20.4523 33.1958 24.573
Au 29.3628 35.9163 11.8918
Pt 29.921 12.9687 28.7718
Pt 19.4577 20.9518 25.9932
Pt 27.1193 25.2211 19.0769
Pt 15.8537 21.6679 35.965
Au 12.6563 25.1756 14.0107
Pt 26.597 15.9186 13.4869
Pt 28.0316 10.1315 17.7994
Pt 20.1444 35.8235 29.3581
Au 14.0493 25.3207 10.1272
Pt 21.1164 15.9011 21.5082
Pt 29.9349 35.586 18.7785
Pt 24.4357 33.8258 32.3077
Au 37.3912 25.0843 11.7731
Pt 22.3476 24.3769 28.987
Pt 18.7574 19.4331 30.345
Au 34.091 16.7138 15.9755
Pt 30.6667 21.2222 36.7985
Au 22.1382 29.9299 16.574
Pt 36.8733 31.9772 24.5821
Pt 12.8331 28.4616 15.1046
Pt 20.8308 24.3192 15.7357
Pt 28.0015 35.3722 23.2398
Pt 31.1736 23.7302 17.4172
Pt 20.0721 24.2333 30.6749
Au 29.6879 12.3157 12.881
Au 11.542 12.736 30.8729
Au 39.0864 20.6454 26.2057
Pt 30.0362 30.0188 18.4363
Au 15.2108 35.4076 34.6005
Pt 36.7338 15.3584 22.2976
Pt 17.9426 10.2878 27.7224
Pt 32.7239 28.9927 16.669
Au 31.9242 25.2395 38.9066
Au 28.4016 31.3449 39.9435
Au 6.36688 29.3118 20.4209
Au 11.7567 28.2833 37.4445
Au 15.4561 18.9237 32.8393
Pt 29.4339 15.4574 18.3962
Pt 21.7607 31.1567 23.4005
Pt 15.6523 11.2091 22.8378
Pt 13.9934 16.9993 31.3762
Pt 15.2299 23.3043 20.8448
Au 26.3119 23.2586 43.2248
Pt 22.0372 23.986 35.1196
Au 12.5581 18.3405 13.2785
Au 34.812 17.5736 25.1766
Au 26.3789 27.6095 9.54784
Au 34.9473 41.4659 29.3362
Pt 17.656 35.4007 35.7357
Au 36.687 22.1267 26.1954
Pt 13.6818 20.7957 19.6995
Pt 31.7015 27.8732 18.9289
Au 12.5364 35.819 30.9398
Au 30.0243 41.1921 26.4663
Au 15.979 28.0033 20.0862
Au 25.3203 21.8292 5.1419
Au 38.0894 30.2613 33.8966
Au 40.9504 16.151 28.1158
Pt 34.6274 24.9298 26.0984
Pt 14.456 19.4849 21.8
Au 37.8091 21.0116 32.8956
Au 21.4753 12.0973 10.1755
Au 31.0596 32.1212 39.553
Pt 28.6666 27.797 8.10203
Pt 36.2923 16.1982 26.9629
Au 30.9232 10.3046 37.147
Pt 22.8503 20.588 12.0092
Au 14.1574 35.0365 28.8724
Pt 34.5409 25.7917 16.0026
Au 16.763 20.3048 41.5552
Au 29.5669 36.3363 38.2662
Au 41.5625 20.1421 19.6115
Au 19.4974 42.9018 24.4309
Au 11.3191 22.41 35.7608
Pt 23.0174 18.2366 26.2487
Au 32.635 31.9834 7.69152
Au 10.5445 38.2693 26.6968
Au 41.3083 29.9081 31.5774
Au 26.5797 10.9308 37.079
Au 37.1549 23.8868 32.6276
Au 24.2793 7.29718 28.4372
Au 16.8385 36.1105 28.7711
Au 13.1753 28.195 20.4411
Au 11.575 32.7325 37.869
Pt 13.8691 24.449 16.6825
Pt 40.3369 21.6171 23.8084
Pt 20.4946 29.308 28.3896
Au 30.6083 42.3214 20.8935
Pt 30.254 16.6659 16.0473
Au 11.1976 20.6589 15.4804
Pt 14.1777 23.7039 32.9746
Pt 29.2767 19.6682 15.9665
Au 32.8664 31.3204 27.1612
Pt 27.5538 21.3591 14.5538
Au 28.0437 17.2511 22.808
Pt 37.76 34.2519 25.5145
Pt 30.0896 25.4966 33.892
Au 23.4335 9.97286 14.951
Au 27.2952 26.3846 40.1842
Pt 28.3581 24.8298 35.8267
Pt 19.4268 9.61012 21.4526
Pt 32.5876 34.6 32.9712
Pt 27.8958 24.2476 21.4525
Pt 33.2777 18.9798 32.6853
Pt 30.1588 10.2706 28.3748
Pt 26.4284 14.7349 26.0861
Au 17.3586 33.0194 15.3321
Pt 30.2072 19.0208 11.2698
Pt 20.4221 27.2202 14.5673
Au 33.1969 42.6077 31.2589
Pt 30.9643 11.0765 30.7569
Au 42.3512 28.8846 26.032
Pt 20.2385 32.7468 31.8123
Au 22.8341 34.0271 8.44567
Pt 30.0574 13.5359 15.4328
Au 13.1275 30.728 36.6854
Au 17.1891 11.788 17.7935
Au 19.5065 13.1682 17.2109
Pt 34.9615 25.5304 28.7899
Pt 32.7471 21.1546 24.1187
Pt 18.5796 17.3002 21.6511
Au 21.1213 25.4897 10.1045
Pt 14.4325 18.9245 35.5076
Pt 29.7821 28.8553 13.377
Pt 25.7602 24.685 25.875
Pt 26.823 32.892 31.2168
Au 18.2478 13.2537 36.0983
Pt 11.182 20.7758 25.8644
Pt 30.7758 23.8006 36.7554
Pt 25.3633 35.945 24.0761
Au 24.0215 7.8929 31.1113
Pt 28.5986 28.6133 33.1984
Au 5.80782 21.3608 27.4872
Pt 36.593 24.7773 21.9274
Pt 18.2418 27.3133 40.136
Au 14.6713 32.4233 16.527
Pt 30.176 9.49595 25.7678
Pt 24.2078 26.8523 16.9771
Pt 34.2117 11.8068 26.5861
Pt 32.4573 14.6013 15.7755
Pt 25.2496 20.8076 29.4621
Au 9.75708 19.1747 21.9299
Pt 15.7163 11.7659 33.366
Pt 28.6979 12.5453 31.0293
Pt 20.0661 16.5905 23.889
Au 26.696 36.5307 35.2489
Au 29.7432 38.3382 19.1267
Pt 35.3476 14.8798 24.5202
Pt 33.4825 12.4339 31.057
Au 13.3377 29.6996 26.667
Au 14.7572 32.5441 34.9406
Au 25.3145 37.0393 21.2737
Au 36.6559 32.166 19.1438
Pt 18.8597 18.9912 23.9458
Pt 30.5268 18.4165 37.0883
Au 25.7397 40.8377 32.8009
Pt 21.249 25.6316 37.1923
Pt 29.9067 26.7931 26.2314
Pt 22.266 36.4739 31.0728
Au 8.74491 28.8114 33.2841
Pt 37.5925 26.9061 20.3832
Au 24.3394 10.8491 38.6406
Pt 22.1787 34.6836 33.2797
Au 21.2765 38.207 21.9936
Pt 18.4916 20.7302 37.0832
Pt 22.0378 28.5473 30.655
Pt 19.3621 31.2571 33.6962
Au 39.0514 22.0156 16.6606
Au 6.70442 19.8891 25.398
Pt 14.4188 28.4033 31.7424
Au 20.0195 35.7402 24.0343
Pt 32.856 15.8691 24.6754
Pt 33.5038 14.522 32.6358
Au 38.055 27.7302 35.2111
Pt 22.6596 29.2914 20.9907
Pt 22.0544 33.8834 30.3454
Pt 30.4652 28.9379 20.9694
Au 32.7342 20.3194 40.9402
Au 19.9533 12.1887 37.9906
Pt 7.37563 26.0917 26.0215
Pt 32.7432 25.1548 19.4458
Au 24.9674 41.9084 17.3579
Pt 37.8699 19.3023 30.6144
Pt 13.664 18.3 24.1043
Au 12.3139 29.1157 12.5516
Pt 19.9049 40.5227 28.6577
Au 38.2059 11.0692 24.1315
Pt 20.6792 10.5086 27.6459
Au 29.549 34.8844 9.13405
Au 37.0357 29.4617 19.6382
Pt 33.0822 34.401 16.8817
Au 31.5437 14.3829 12.3916
Au 38.2383 34.1669 20.0486
Au 13.6153 37.2902 17.0722
Au 40.341 20.4546 31.7971
Au 42.5497 25.094 18.7808
Pt 22.7315 31.786 36.9183
Au 9.44431 30.9379 23.5865
Au 5.53686 25.1144 24.0454
Pt 32.4806 11.5445 20.1952
Pt 28.9675 20.0834 31.5533
Pt 31.7302 29.1702 36.4067
Pt 29.1127 32.0876 16.7911
Au 22.7351 36.3549 9.9227
Au 29.5378 38.2273 36.119
Pt 29.3958 33.6273 24.9212
Pt 25.079 17.3078 18.577
Pt 30.0609 10.9676 19.3828
Pt 28.4389 9.19506 20.5603
Au 39.198 31.4464 20.5041
Au 20.9364 33.1164 39.0379
Pt 24.3222 37.9044 30
Pt 27.0968 26.5784 34.029
Au 27.0217 34.1297 33.6517
Pt 31.5228 12.4004 22.536
Au 15.6641 35.3427 13.5635
Pt 26.8815 27.2454 17.1501
Au 9.50229 17.1843 32.1288
Pt 30.6869 33.1348 28.4251
Au 11.2264 28.8455 25.1994
Au 19.9108 10.0018 11.3343
Au 14.0497 37.3073 32.8404
Au 33.1894 16.4234 11.4375
Au 9.73956 13.5898 22.8711
Pt 27.9461 34.534 17.1596
Pt 21.0114 25.0284 12.9916
Pt 20.7809 9.94523 25.1526
Au 22.775 40.412 25.1404
Pt 34.7969 14.5983 17.4644
Au 23.4548 21.2365 9.3606
Pt 32.9047 14.616 29.6995
Au 15.8351 24.5435 14.305
Pt 23.6719 12.4976 16.3303
Pt 27.8836 22.1172 36.0597
Au 34.8357 39.6203 31.3971
Au 13.3644 21.1162 37.2488
Pt 31.2643 26.3412 36.3563
Au 11.5265 20.7385 30.5869
Au 26.3048 40.7302 15.46
Au 8.61501 33.1046 27.9171
Pt 37.8115 26.7849 23.1717
Au 32.8077 16.5796 41.3067
Au 14.9138 39.602 16.478
Au 15.3151 36.348 37.2066
Au 28.0009 8.56105 27.9285
Au 15.9954 37.2269 23.7903
Au 27.5527 27.9654 12.1906
Au 26.2994 13.6418 9.7117
Pt 10.4244 29.0177 20.4121
Pt 40.0509 26.1597 19.0366
Pt 19.0826 23.8037 25.8721
Au 40.1217 24.3221 35.9342
Pt 31.4487 21.2654 26.745
Pt 20.6286 14.1643 33.5987
Pt 32.2987 18.8002 25.3962
Pt 12.0818 24.627 34.3408
Pt 24.8208 35.6451 26.8495
Pt 19.8965 28.0971 37.7212
Pt 23.1084 15.0569 32.479
Au 36.2041 21.4222 8.85907
Au 21.6143 38.8566 27.279
Au 37.0944 20.037 35.379
Au 16.9392 36.6814 20.9294
Au 20.5098 37.1223 11.4616
Pt 18.2894 34.2106 30.513
Pt 17.2302 13.7531 13.3354
Pt 28.1614 32.579 8.99752
Pt 38.8698 18.2849 19.4262
Au 21.6629 26.9264 7.55095
Au 32.83 18.9835 12.4709
Pt 22.4892 13.2238 38.337
Au 14.4374 33.5335 11.9942
Pt 32.3512 20.7224 21.5442
Au 16.7858 28.0893 11.4677
Pt 27.905 18.2195 33.5463
Pt 31.6774 20.7492 14.5696
Pt 18.0113 19.309 39.3757
Pt 21.6137 26.7876 28.5977
Pt 12.9863 23.2702 19.318
Pt 31.1358 30.4251 29.1281
Pt 37.5473 29.3135 27.6068
Au 34.3682 40.2077 24.0191
Au 20.9902 7.03974 24.9003
Au 40.5289 22.2203 34.0996
Pt 25.8558 32.4923 20.2698
Pt 23.0841 20.391 14.7728
Au 26.6414 19.5848 35.558
Pt 21.4573 31.4764 8.8155
Au 18.6447 26.933 9.13598
Au 30.8184 20.758 8.91309
Pt 19.6989 34.6723 37.0969
Au 36.3313 18.3403 15.4412
Pt 23.3136 28.3401 14.7316
Au 19.1043 26.5175 11.8864
Au 22.168 43.0136 24.4983
Pt 24.9766 24.0232 14.0069
Au 19.5653 31.3395 16.2214
Au 14.6777 30.2272 21.5264
Au 21.462 8.27755 16.2025
Pt 21.1561 39.9463 15.729
Au 24.8198 17.4895 35.5902
Pt 32.7571 26.4966 27.4989
Au 29.0565 33.5612 38.1242
Pt 25.5295 33.2374 8.82994
Pt 31.2906 11.8835 26.3548
Au 34.5396 25.3335 37.2039
Au 21.7973 40.2956 20.3738
Pt 36.4551 19.7115 19.0623
Au 17.7573 32.9337 25.2689
Pt 37.5198 19.7716 21.4653
Pt 33.7407 28.6434 20.479
Au 42.2823 27.7037 33.2029
Au 24.5949 19.6571 33.7569
Pt 22.4519 32.0947 26.0018
Pt 27.9678 19.866 18.773
Pt 19.3166 10.2976 29.9198
Pt 23.4075 20.4046 31.3545
Au 15.7077 26.7103 41.245
Pt 17.8381 18.5112 17.8533
Pt 25.7337 9.58675 29.4957
Pt 18.3734 29.0833 19.4149
Pt 12.6329 16.9659 26.12
Au 7.55104 32.0951 30.2603
Pt 26.9579 27.3176 26.3904
Au 18.1699 17.9912 32.7068
Pt 17.7119 24.8057 23.6484
Au 26.7827 21.9985 20.2732
Pt 24.9115 25.7613 7.85141
Au 26.5635 38.6164 36.9272
Au 37.5418 11.8886 28.8843
Pt 27.3435 23.8701 14.9925
Pt 20.9028 14.6496 30.8363
Pt 20.0883 27.2269 26.4548
Au 39.8744 35.0655 29.6081
Pt 18.5288 24.9869 14.1225
Pt 30.9174 37.7573 25.8263
Au 40.2808 33.6217 22.046
Pt 35.5415 33.3854 28.6402
Au 36.6971 10.6772 26.5614
Pt 14.8851 21.4262 28.7918
Pt 18.1747 16.2532 19.0779
Au 22.0546 8.39735 35.7015
Au 39.1051 32.0621 17.8597
Pt 23.0806 21.9155 33.7263
Pt 21.3093 17.261 28.2282
Au 18.1389 25.0184 41.8156
Pt 30.3806 31.8343 14.2183
Pt 24.4138 32.2753 30.1069
Au 41.7434 30.8704 24.3211
Pt 27.2258 12.6562 24.0998
Au 12.6704 30.5374 17.1384
Pt 28.2556 10.0167 30.6013
Pt 33.3485 23.9698 30.424
Au 31.1888 43.6903 27.1617
Pt 21.4657 33.8484 10.646
Au 42.014 16.7858 25.5635
Au 37.0202 36.2008 21.8279
Pt 16.3615 27.4829 29.9188
Pt 30.928 35.1876 26.5627
Pt 28.4453 33.1534 19.3349
Au 42.5273 20.2776 22.237
Pt 18.4374 32.2765 37.9551
Au 43.8923 24.8309 24.1375
Au 26.4406 33.1562 39.041
Au 22.9813 38.5267 11.6094
Au 40.7821 14.3465 19.8936
Au 17.6387 36.0896 38.4239
Au 31.6729 12.5581 35.7372
Pt 29.5843 20.2942 28.8103
Pt 37.3809 32.126 27.2315
Pt 25.2639 31.2745 37.3022
Au 35.8913 27.7862 37.0328
Pt 21.4409 12.876 25.9887
Au 26.8268 32.4951 6.55421
Au 17.5214 30.1226 14.6919
Pt 21.5882 9.74903 31.1379
Au 39.6068 36.1935 21.2473
Au 22.3511 21.3681 41.199
Au 29.6863 20.8482 6.11046
Au 38.7698 15.1275 26.6802
Au 40.5581 23.153 18.7784
Pt 37.031 35.2257 30.5284
Pt 29.8012 34.3559 33.2127
Au 38.5951 24.6397 17.2636
Pt 26.6206 35.5159 31.2612
Au 22.2801 42.3152 16.9629
Au 27.3814 7.51767 17.4135
Pt 33.2161 35.6472 25.009
Pt 22.326 15.9724 34.7746
Pt 26.229 32.2188 17.7372
Au 30.7838 11.1401 16.7453
Pt 32.3981 20.0109 38.3014
Pt 17.5913 22.835 21.7478
Pt 7.92903 26.3221 23.3802
Au 19.6728 6.55272 17.4111
Pt 24.9115 28.5057 37.7834
Au 35.8234 23.5622 38.8755
Au 23.576 33.6488 27.9447
Au 32.7111 27.7369 9.47666
Au 12.3459 30.9003 19.9258
Pt 18.8089 14.604 22.4871
Au 22.4919 10.114 12.0594
Pt 24.3535 30.9796 27.6558
Au 31.4044 22.4942 39.2735
Pt 19.5014 25.1752 28.2526
Au 9.73136 25.9838 29.1561
Au 21.2479 42.2581 14.4341
Pt 25.0202 23.0487 18.4694
Pt 23.9449 9.3441 22.3476
Pt 25.769 29.7106 19.276
Au 26.3311 29.8678 5.87287
Pt 32.1342 25.3352 11.0155
Au 37.6536 34.3225 17.2917
Au 8.46916 14.9872 27.8493
Au 30.1329 23.3477 10.695
Au 11.0653 29.9767 34.9036
Au 9.70607 30.6836 31.6285
Pt 22.1777 20.7702 26.6744
Pt 27.4492 22.1854 17.2455
Pt 27.6234 10.2495 25.6921
Au 23.1145 29.9154 39.1139
Au 18.6796 8.33232 25.8465
Au 16.4441 32.2971 22.9427
Pt 40.0613 28.0136 29.9783
Au 33.2884 29.4814 7.55971
Au 12.4037 11.5783 26.4955
Pt 13.9159 23.5446 35.8866
Au 27.9946 42.778 21.7977
Au 32.9294 16.7438 34.3853
Pt 41.7327 24.0487 27.8757
Au 15.8175 33.8682 27.0729
Au 42.365 22.3821 32.0043
Pt 30.719 16.6322 26.2109
Au 42.6111 22.9398 22.7302
Pt 33.0956 29.645 30.9442
Pt 34.1124 27.8917 14.2498
Au 12.0783 40.9939 22.5808
Au 34.8843 18.6161 10.6156
Pt 21.466 19.9913 24.2638
Au 16.2934 39.2426 21.7345
Pt 20.0475 35.417 31.9857
Pt 17.6917 21.9222 24.332
Pt 14.7686 26.7517 15.33
Pt 28.8209 36.7456 21.1425
Pt 30.9174 13.9979 31.2611
Pt 14.6016 14.908 26.8291
Au 6.59664 24.1878 21.7821
Au 6.95336 31.7375 22.7771
Au 10.0262 30.8794 18.1918
Au 16.7436 9.91521 15.6653
Au 11.7954 36.0495 26.129
Pt 22.708 27.2547 39.0865
Pt 33.2887 17.8341 36.9994
Au 12.889 31.1332 14.3088
Pt 35.915 18.2527 28.882
Au 19.4289 14.4995 14.6391
Pt 37.1063 24.7527 27.1224
Pt 38.1727 26.2075 31.2049
Au 21.6726 7.37312 29.7985
Au 14.2808 9.43508 26.8709
Au 20.8213 41.9137 30.7623
Pt 33.2426 16.8455 27.3329
Pt 25.2957 27.0989 19.4837
Au 33.371 22.8677 37.5707
Pt 19.8832 31.6331 26.7146
Au 9.41345 16.3956 22.1017
Pt 34.3756 23.6409 33.019
Au 22.7657 36.2251 23.201
Pt 26.7052 16.4167 28.5161
Pt 26.6247 26.6451 21.7585
Au 11.457 17.7101 30.5281
Au 10.1443 30.4559 37.408
Pt 14.0261 15.1815 19.8007
Pt 27.972 17.7661 14.6308
Au 15.3966 20.9875 13.0655