2057
Atoms. Timestep: 20920
Au 27.1457 37.4014 11.441
Au 16.0312 8.55249 24.4597
Au 28.6845 21.2238 22.8937
Au 28.8033 19.283 24.8849
Au 19.6739 25.7849 24.2964
Pt 19.731 29.0828 28.9302
Au 28.4143 26.628 6.3637
Au 26.5149 41.3365 13.4571
Au 25.0034 19.8968 22.876
Au 38.584 30.616 13.9329
Au 26.1435 30.6681 16.0997
Au 24.6672 23.8534 14.0136
Au 29.9654 24.0583 22.0175
Au 28.1762 32.5619 17.1343
Au 26.1585 18.0704 25.087
Au 23.4603 43.9444 21.9468
Pt 21.6546 20.5698 9.36062
Au 26.0667 30.1981 22.7219
Au 27.271 17.1352 20.2526
Pt 24.5451 40.0566 27.2876
Pt 32.741 35.1946 26.9536
Au 20.3115 8.7515 26.6204
Au 31.2653 29.3919 14.3795
Au 24.3456 34.7872 7.30551
Au 27.6205 9.35043 32.8653
Au 14.0972 12.5646 31.9782
Au 26.6798 33.5099 7.4912
Au 26.2271 16.4789 27.3099
Au 12.9933 36.9804 15.5248
Au 25.0677 35.8618 12.3535
Pt 18.2443 33.9817 30.9341
Au 24.3446 32.1581 6.66682
Au 24.0048 5.71287 20.169
Au 9.7068 28.1092 14.4523
Au 26.0174 28.1436 17.683
Au 22.2889 24.3145 16.0335
Au 26.6175 24.9724 7.97415
Au 16.5862 31.2908 8.92993
Au 19.7513 39.3896 18.6868
Au 23.1514 9.9407 33.7636
Pt 31.4726 34.6779 24.6053
Au 26.8823 30.5905 11.2096
Au 29.8271 10.5643 31.4591
Pt 40.2392 27.2567 23.534
Au 22.4395 21.5618 16.9688
Au 19.1104 34.8555 21.0045
Au 33.8118 36.2091 13.99
Au 24.9221 31.6722 20.6399
Pt 28.8084 37.5789 28.1066
Au 39.7028 11.9821 21.2011
Pt 18.8381 12.0908 23.3087
Au 26.7094 40.2939 17.905
Pt 11.6714 33.8783 25.3987
Pt 14.4668 20.0812 23.9625
Au 26.7797 21.5161 18.2151
Pt 32.4093 19.4827 28.9244
Au 11.7146 37.578 21.1215
Au 27.7824 32.1017 21.142
Au 26.4159 33.4705 19.1808
Pt 23.1263 38.7834 14.0332
Au 28.3426 34.499 24.5083
Au 21.8711 37.4942 18.3119
Au 17.5106 23.4265 14.5116
Au 17.0429 28.5412 9.42553
Pt 15.7757 24.8324 27.1072
Pt 21.3155 31.4149 27.9474
Pt 9.2605 20.0132 20.8461
Au 29.8693 10.0306 28.7638
Au 23.4744 24.5394 6.44869
Au 10.0387 36.4453 19.1916
Au 27.8103 21.0833 11.1711
Au 27.6654 12.4645 24.1159
Au 21.2852 20.8688 19.6005
Au 30.5928 31.8871 9.96792
Au 24.052 17.7189 42.4531
Au 41.1493 29.6855 20.5343
Au 9.44054 33.3348 29.7846
Au 31.9326 21.6864 9.13659
Au 24.269 36.1044 9.72956
Au 25.3431 11.8429 28.5605
Au 24.7896 29.052 9.76869
Pt 34.3645 27.2821 26.9483
Pt 28.0984 21.4509 34.3005
Au 21.4672 36.941 15.5781
Au 17.8646 29.6546 7.11247
Au 34.9959 22.1467 9.95134
Au 20.7821 32.5796 15.8958
Au 19.4596 37.7932 11.5574
Au 38.9604 26.2355 11.9094
Au 17.8838 36.0376 9.99218
Pt 12.074 25.3126 31.0001
Au 24.1747 33.7119 14.0207
Au 26.3822 24.4182 18.4145
Au 15.768 31.0056 15.9545
Au 15.3738 35.0497 10.7931
Pt 32.3466 20.8658 13.7836
Pt 11.129 24.8858 33.5241
Au 24.4004 26.0027 16.4777
Au 23.8802 23.7972 24.0825
Au 20.6713 32.3559 25.1215
Au 14.4563 35.7865 13.4468
Au 31.6166 7.18602 25.3099
Au 24.333 24.8461 11.4487
Pt 28.5392 15.4659 11.1357
Au 27.94 32.8203 9.89074
Au 25.903 33.1808 11.8532
Pt 27.5044 34.7622 31.9017
Au 18.1455 28.1238 12.0163
Au 10.7046 22.5947 14.7028
Au 24.8884 8.97399 28.4338
Au 19.7793 27.5768 9.63809
Au 14.2299 28.6481 16.2108
Au 10.6432 17.0057 27.7873
Pt 30.9573 19.582 23.1574
Au 17.6125 34.6662 12.3568
Au 24.3272 23.5865 8.95818
Pt 14.7828 28.5367 33.9352
Au 29.0323 29.587 9.3207
Au 11.0628 37.5472 23.8987
Pt 13.5015 26.8385 25.9079
Au 22.1381 36.7408 12.6322
Au 23.0402 21.1971 24.5782
Au 21.3186 27.9329 23.6231
Au 20.6065 27.3443 26.7542
Au 35.9099 34.7769 14.8227
Au 8.07323 32.2507 16.1987
Au 29.3375 6.04194 21.5781
Au 12.3469 35.1378 20.1693
Au 25.7886 10.9247 12.4504
Au 11.1185 36.3679 26.4688
Pt 29.2651 31.3883 39.8394
Au 27.0939 13.6939 9.6386
Au 21.5915 34.83 18.8111
Au 24.816 17.8301 19.3782
Pt 18.8746 36.4448 27.8767
Pt 35.8706 20.9056 22.9366
Pt 36.9011 26.8212 27.9284
Pt 29.9593 9.13445 26.2166
Au 14.3233 32.6708 9.54086
Au 19.9168 29.9724 13.2835
Au 18.107 15.4951 37.4617
Au 28.0906 21.3584 6.45425
Au 24.2528 20.785 19.2057
Au 7.3479 26.2602 23.6468
Au 21.7298 17.6824 22.9486
Au 28.4274 39.4562 12.7337
Au 31.0677 33.7934 13.4177
Pt 35.1231 27.863 17.6169
Au 21.3863 32.65 7.20146
Pt 33.4185 25.7442 17.7776
Pt 30.9626 28.2061 28.0663
Pt 32.059 21.1806 39.6891
Au 23.0362 30.9647 8.66981
Pt 9.462 27.9923 22.3165
Au 24.2093 38.8249 17.8247
Pt 22.3757 20.3605 40.9926
Pt 25.6405 27.2898 36.5607
Au 11.6545 33.2845 33.7853
Au 17.9911 17.5643 8.14823
Pt 28.8402 40.5139 28.6503
Pt 35.7718 31.009 34.5286
Au 31.065 36.4097 14.5274
Au 16.3574 28.6235 14.193
Pt 13.3204 16.4985 20.6888
Pt 11.3395 15.0416 19.9216
Pt 37.0586 24.4522 35.4884
Pt 30.9552 16.0666 34.0383
Au 23.0402 19.1716 21.0374
Au 28.7418 23.1061 17.1273
Pt 32.1125 17.4621 30.8364
Au 28.8863 8.10666 30.5593
Au 25.999 26.5704 10.2687
Au 24.9996 15.2284 9.01972
Pt 36.6514 22.3007 19.91
Au 16.5107 34.0599 8.55392
Au 31.2448 38.9697 17.6531
Au 21.987 42.302 16.6714
Pt 29.2073 13.1642 22.0204
Au 24.4144 13.7968 33.93
Au 17.4223 28.9291 20.0053
Au 28.7182 6.55876 18.9696
Au 25.6017 20.6433 25.4982
Au 13.5468 28.4419 13.3095
Au 15.6829 29.6613 11.5128
Au 34.3733 22.1101 40.9002
Pt 24.4015 37.332 30.183
Pt 40.221 20.1201 23.2483
Pt 31.0377 22.3615 18.7482
Pt 30.6863 17.4625 28.5968
Pt 33.036 27.2009 9.67598
Au 18.4377 32.1267 21.4171
Au 40.9871 24.0681 19.0253
Pt 41.0936 26.4835 25.936
Au 15.1354 40.2248 18.6298
Pt 34.9483 24.2135 11.9793
Pt 13.404 31.2931 33.7192
Pt 21.2723 25.9694 35.3328
Au 26.451 27.6295 15.072
Pt 15.1097 28.7819 36.9267
Pt 25.339 27.7493 41.4713
Pt 18.4943 25.963 38.6801
Pt 24.8886 30.241 40.6178
Pt 22.902 24.0314 36.0846
Pt 24.8706 38.7375 34.0751
Au 9.40652 34.4246 15.3761
Pt 21.2937 13.7319 26.8797
Pt 13.7134 22.5386 23.3845
Pt 15.5211 19.3578 12.6099
Pt 23.9403 14.5592 15.8374
Au 19.6947 35.1349 16.6387
Au 11.7584 17.3391 13.5995
Au 6.96847 21.1941 17.1021
Au 7.69126 35.3259 19.9525
Au 32.3105 17.6108 10.3726
Au 20.9077 23.1476 21.1499
Au 25.4862 33.4668 16.5614
Au 20.5081 40.3591 32.6409
Au 22.1392 31.821 13.3597
Pt 33.5541 17.5383 26.2115
Au 28.0234 34.9409 12.5295
Au 24.7224 22.9905 16.6922
Au 26.9298 21.7879 15.489
Au 20.2083 15.8313 8.77721
Au 7.05645 29.2524 28.1206
Au 19.9285 22.8088 12.8845
Pt 14.509 26.8379 23.0067
Au 25.2539 22.2299 11.5462
Au 21.2143 25.9041 7.27788
Au 12.7529 39.7386 19.9145
Au 20.9856 23.1462 24.0966
Au 27.5867 19.1318 27.4305
Au 21.6056 15.7606 28.9788
Pt 18.9321 21.0814 21.3758
Au 21.9945 39.5792 16.3418
Au 22.0221 24.867 13.0404
Au 28.8888 31.867 7.56276
Pt 30.308 30.2643 21.4979
Au 17.5633 31.1549 18.3648
Au 18.9116 12.924 38.5612
Pt 27.708 23.6932 28.311
Au 38.8796 23.9116 13.4294
Au 25.4381 21.5376 28.0841
Pt 17.5043 23.3812 11.6599
Au 21.7562 39.4506 11.7451
Au 6.66644 20.1682 19.6168
Au 34.9908 32.5658 15.979
Au 19.7991 30.427 19.9781
Au 9.38313 35.4259 24.5729
Au 16.5959 37.1424 12.2117
Au 34.9698 29.2953 9.9339
Au 21.3371 33.9266 22.7349
Au 24.5011 40.297 20.1664
Au 23.3257 6.82799 17.7693
Au 23.4266 17.2748 27.2321
Au 19.8762 24.3673 26.6698
Pt 30.4136 38.9494 23.7353
Au 29.6638 31.618 15.011
Au 20.7564 14.0361 31.1817
Pt 28.1979 24.7303 30.8473
Au 28.1571 12.3378 29.5015
Au 18.1726 42.6347 20.7799
Au 10.0835 12.9816 18.9704
Pt 37.6803 19.3398 24.2325
Au 22.9899 15.3238 31.94
Pt 32.576 25.4196 11.5514
Au 18.2372 7.72186 17.6759
Pt 17.055 14.7852 27.8971
Au 16.3214 17.4657 10.5394
Au 12.8825 22.4426 10.6414
Au 24.5303 41.9343 17.6599
Au 20.2892 35.1171 11.1395
Au 21.7419 37.1985 10.0247
Au 15.7669 33.463 14.1352
Au 22.7573 16.519 8.08279
Au 7.48259 31.6783 22.9048
Pt 27.9839 37.2684 35.7822
Au 9.12574 16.1585 17.9583
Au 30.6618 27.3418 16.3538
Pt 22.2697 11.165 19.7591
Pt 27.667 8.11786 21.1179
Pt 19.6293 16.3658 24.2251
Au 29.9243 29.7035 12.0086
Pt 28.3985 13.7335 16.6471
Au 23.1472 27.3752 11.1263
Au 19.7976 11.4326 36.4065
Pt 28.3879 14.9685 37.815
Au 25.6898 13.2629 25.9637
Pt 28.656 21.9885 31.4452
Pt 26.7299 30.7314 28.0664
Au 21.3935 6.55751 20.2346
Au 20.6202 23.2739 18.3377
Pt 31.2871 37.2559 19.8086
Pt 30.9501 32.9507 17.4687
Au 15.1537 24.0441 12.9407
Au 26.4449 35.3039 14.7743
Au 28.147 21.6316 26.3157
Au 11.4198 26.7405 12.6996
Pt 14.5418 20.9711 31.094
Pt 22.1038 21.9452 34.1573
Pt 11.7519 21.054 30.4749
Pt 16.6038 33.0186 35.701
Pt 17.4633 16.5657 16.3093
Pt 19.978 26.1777 29.1238
Pt 17.9402 12.1113 18.4799
Pt 23.852 31.1822 32.8416
Pt 17.2124 22.1546 9.30957
Au 15.3115 38.9849 26.8641
Pt 16.4304 26.6029 20.9458
Au 22.2694 30.1237 6.1745
Pt 30.6973 27.3779 10.8107
Pt 39.0228 17.4838 26.125
Au 26.9097 30.6585 18.7176
Au 24.4836 16.218 29.7749
Pt 31.382 21.5827 21.3669
Pt 28.4848 15.9054 35.2836
Pt 26.4887 12.5886 21.3352
Au 19.7474 25.1701 14.6453
Au 22.7365 34.5014 16.3667
Pt 10.0584 31.5946 25.9689
Pt 14.0211 26.627 35.743
Au 19.8463 13.5205 10.2669
Au 29.7406 21.5721 13.27
Au 21.3738 29.7457 15.5837
Pt 16.357 31.4545 27.7994
Pt 29.5384 39.5703 26.193
Au 14.6833 37.9952 20.1209
Au 25.271 42.6504 26.9767
Pt 25.0601 8.82505 23.9693
Pt 19.084 20.1254 27.1396
Pt 16.0542 17.3366 27.2171
Au 13.4116 14.2541 34.2123
Au 25.8831 7.45919 18.7467
Au 24.7087 29.2587 6.92515
Au 16.1081 13.352 30.0562
Pt 31.9405 30.8705 38.713
Au 34.9719 29.862 38.6646
Pt 19.8405 28.5452 34.0942
Au 29.7632 28.423 18.8851
Au 25.1033 4.99722 22.5607
Au 22.4493 10.2175 36.4593
Pt 18.8452 15.7935 29.9461
Pt 20.5895 9.3526 23.9256
Au 16.8666 36.1278 14.9349
Pt 31.6574 10.2517 16.5187
Pt 30.6346 18.388 32.9864
Pt 31.2005 22.2702 37.3309
Au 22.2088 22.486 43.3993
Au 29.8489 16.8937 23.2138
Au 34.7254 21.1556 15.5902
Au 12.9813 13.2912 29.6669
Pt 27.6665 26.8271 40.6241
Au 21.2734 20.6182 22.6089
Au 27.5145 23.1838 13.2152
Pt 25.2532 32.7774 39.6323
Au 31.7529 8.7927 30.6324
Au 18.6396 28.3627 25.0595
Au 21.5298 31.0342 18.0065
Au 25.028 29.7723 43.2948
Au 31.4697 14.5355 22.1721
Pt 36.2325 27.5059 22.0737
Au 28.2789 23.9936 5.82193
Au 16.3736 11.0226 31.919
Au 33.4847 20.0466 10.9645
Au 38.4279 36.7879 19.1262
Pt 26.3681 14.3475 12.2975
Au 17.3862 31.101 13.435
Pt 29.2631 16.3502 15.2835
Pt 36.4802 34.9951 19.7739
Au 12.6609 19.5906 12.0025
Pt 29.6157 31.1687 19.0696
Au 26.7928 19.0694 9.44809
Au 26.892 28.0832 8.09106
Au 17.6668 41.3049 18.2676
Pt 29.5956 13.9686 33.2802
Pt 11.631 27.0865 23.936
Au 27.245 15.5653 24.7019
Au 28.9446 16.7699 26.5135
Au 23.1705 8.3714 26.235
Pt 19.3826 36.6325 19.0127
Pt 16.8105 26.0998 36.2217
Au 18.2179 26.4769 18.8265
Au 16.9079 33.7017 19.5347
Au 31.3324 24.8401 9.28851
Au 11.6448 32.1134 13.3333
Au 30.1755 20.6313 43.0631
Pt 27.6442 25.3075 38.2819
Pt 13.2954 23.6332 27.1161
Au 10.8461 32.2962 16.1871
Pt 19.7152 29.7451 31.7036
Au 28.6931 22.1087 20.2931
Au 20.1977 28.2863 6.53599
Pt 14.7071 34.9957 16.2089
Au 37.2393 22.6265 11.6473
Au 33.6972 43.0188 22.9842
Pt 19.1624 18.3559 15.2767
Pt 18.8745 30.8185 26.893
Au 14.954 26.7607 9.10508
Au 18.5702 32.45 7.44962
Pt 26.2367 25.2378 24.1146
Pt 21.6469 18.0703 10.2813
Au 41.1366 16.8969 30.06
Pt 34.6171 25.0837 22.3836
Pt 16.1298 38.4974 22.3843
Pt 32.7008 22.7091 11.47
Au 17.1029 28.7608 16.9342
Au 12.7694 24.528 14.3363
Au 21.4056 29.6998 10.884
Au 24.0896 40.7731 12.634
Pt 26.6606 27.9025 25.0865
Pt 33.1096 21.1131 23.8086
Pt 38.6966 22.6945 34.0462
Au 23.7817 34.4039 21.033
Au 26.7299 20 20.6798
Pt 39.1284 20.9562 29.1943
Au 24.0384 28.8129 15.6935
Pt 27.8541 28.081 27.5501
Au 8.04008 35.8895 17.269
Pt 13.1854 21.9288 15.9954
Pt 14.3881 29.5912 26.73
Pt 16.1017 19.9928 19.5884
Pt 16.9193 36.4841 20.559
Au 23.6246 32.9555 18.5467
Pt 17.3324 19.9487 10.7483
Pt 11.7058 17.1582 18.3373
Au 20.7739 27.3959 12.6526
Au 24.0855 26.5688 13.7621
Pt 17.3373 28.6072 32.7687
Au 18.7068 33.8218 23.5655
Au 23.3371 28.384 25.7512
Pt 29.9701 11.9424 14.2432
Au 24.4228 26.2329 19.1616
Pt 15.958 17.1979 18.9996
Pt 33.153 18.8304 15.5997
Pt 35.1677 19.6168 35.9211
Au 36.3236 19.9329 11.2381
Pt 32.1633 9.47052 22.0791
Au 22.162 40.5974 18.888
Pt 28.4258 18.6833 34.818
Au 16.7035 24.402 7.81977
Pt 41.3023 18.9066 25.563
Pt 36.293 23.3221 14.2471
Au 11.9886 27.0057 15.4382
Pt 25.4932 14.8181 18.0337
Pt 19.8369 11.1555 27.5674
Pt 22.4244 19.4096 38.1827
Pt 28.6198 22.6212 38.173
Pt 13.0914 17.9171 22.8937
Pt 17.0522 20.4273 32.909
Pt 17.0296 20.0663 30.3214
Au 11.1663 14.7058 16.9938
Au 17.118 7.24008 22.3197
Au 9.57953 31.0162 18.3793
Au 10.607 30.61 34.4003
Au 11.478 11.8024 23.2419
Pt 10.2348 20.0131 25.5785
Pt 9.86021 22.4931 32.5388
Au 17.4047 25.8758 13.3292
Pt 19.1571 27.221 31.3881
Au 22.9725 34.1216 11.5061
Au 24.0313 37.4163 20.3328
Au 18.3312 23.8133 19.9944
Pt 30.9432 23.6406 39.6313
Au 19.7006 32.5978 12.4436
Pt 21.4884 30.8531 34.3071
Au 7.31556 24.6772 21.3162
Pt 38.0251 28.5845 29.853
Pt 22.5416 17.5996 40.0157
Pt 23.7463 20.0825 33.5741
Au 16.9592 33.3507 16.761
Au 36.2891 32.0469 13.4785
Au 28.9395 27.5613 14.0245
Au 18.561 33.583 14.6586
Pt 18.4123 18.008 25.7425
Au 23.5221 7.70213 30.4105
Pt 17.3013 12.0764 27.6023
Au 25.4337 13.2513 31.2263
Pt 21.5889 21.1163 29.1861
Au 35.5824 12.1599 14.5039
Pt 19.6189 12.6583 15.7454
Pt 25.4787 11.2232 32.9595
Au 22.5055 8.59139 15.4717
Au 26.2891 35.717 20.6182
Pt 30.6561 21.6683 24.9595
Pt 30.1402 34.4777 34.3515
Pt 26.2295 22.6761 30.394
Pt 23.5296 34.4453 24.1461
Au 20.0494 38.9565 35.0346
Pt 12.1719 31.5099 24.1938
Pt 13.817 26.0397 17.1893
Au 13.1483 21.9706 13.2614
Pt 28.1653 37.2207 25.5327
Pt 16.3554 34.3544 22.0965
Pt 24.9933 20.4651 41.7075
Au 22.567 19.5588 14.9086
Au 15.0452 37.6988 17.1246
Au 20.5678 27.8614 20.0614
Au 25.5562 26.251 5.90492
Au 25.0103 19.9334 16.6197
Au 19.7497 22.5001 10.1749
Pt 18.9822 21.1967 24.3789
Au 28.269 13.8887 26.6987
Pt 24.8852 12.1669 19.207
Pt 13.915 18.8549 14.5199
Au 43.4989 20.3217 24.9386
Pt 22.9737 10.3847 24.511
Au 19.2665 25.9582 21.4838
Pt 16.1765 20.662 35.407
Au 25.0324 41.4173 34.0372
Pt 19.4245 10.0254 18.83
Pt 30.1032 8.75391 20.6934
Au 22.847 12.3313 32.2545
Au 35.872 37.6156 18.6522
Au 32.6442 33.3825 10.9208
Pt 36.663 23.7708 32.7629
Pt 33.2936 25.7765 24.63
Au 27.1117 32.6973 14.3422
Pt 24.7092 36.4652 22.7545
Pt 26.4175 17.7365 36.2446
Au 18.2013 14.6868 40.481
Au 36.6091 33.2183 35.9668
Pt 34.0368 32.9574 28.1546
Au 14.6137 12.782 27.5119
Pt 34.2812 33.2965 34.4965
Au 29.7598 7.08914 28.1864
Au 27.5049 18.2587 22.71
Au 8.61088 23.3224 16.3581
Au 24.3688 43.4245 24.4953
Pt 31.7039 21.9145 27.9048
Pt 38.3922 23.6247 18.1537
Pt 34.3854 15.9864 31.003
Au 19.2751 24.7922 8.76763
Pt 33.7888 15.9823 21.8945
Au 40.2396 26.0733 14.4053
Pt 15.2052 20.2334 16.9322
Au 24.8924 17.1103 22.4758
Au 23.042 19.9416 43.6538
Pt 22.2068 15.1024 13.6887
Au 19.7461 28.7712 17.6201
Pt 20.6773 33.5224 29.9027
Au 38.6974 12.5796 18.4313
Pt 7.95067 24.0915 26.6111
Pt 14.483 15.1854 31.3576
Au 33.8374 33.4535 13.4242
Au 11.9787 29.9419 14.9985
Pt 19.1531 37.9915 21.2665
Au 25.9727 23.4107 26.0405
Au 24.1285 26.7835 23.7268
Au 21.7454 15.1184 34.4091
Pt 29.4439 30.2029 37.4228
Au 22.357 22.2452 14.0448
Pt 17.5892 14.4625 14.5582
Au 28.4956 23.6012 24.3612
Pt 27.4555 34.1455 34.7179
Au 23.8102 14.5526 27.3351
Pt 13.9788 29.0637 24.2058
Au 20.9781 20.8107 6.71737
Au 29.4669 37.2883 38.0411
Au 34.4602 31.3189 11.5767
Au 20.1026 42.6443 26.0974
Pt 25.7843 12.6372 16.5729
Pt 25.4912 19.3412 11.8107
Au 38.3755 36.4032 23.809
Pt 32.562 28.1798 18.2573
Pt 34.4112 19.4014 17.869
Au 22.5088 25.701 28.054
Pt 35.2455 31.5889 20.178
Pt 33.1894 33.0271 30.6974
Pt 38.5255 22.09 24.2425
Au 9.38517 24.2069 18.7137
Pt 11.4124 26.2755 18.5356
Au 13.4661 32.5993 15.5521
Au 24.0608 6.36578 24.5296
Au 16.7742 39.7133 16.2404
Pt 15.2338 21.8103 37.9733
Pt 10.0493 18.6098 22.9687
Pt 15.751 24.4564 22.2425
Pt 22.5814 17.0112 15.3901
Au 35.7861 38.4255 28.2566
Au 39.185 28.9674 11.9364
Pt 25.7344 25.4686 34.1853
Pt 33.0225 38.1225 30.04
Au 26.0498 34.4601 41.4055
Pt 16.6829 19.0784 15.0552
Pt 17.2456 17.2635 23.1686
Pt 27.5728 29.3877 40.5599
Pt 20.9801 17.3241 31.238
Au 34.3622 9.78618 15.4235
Au 28.1738 12.3877 11.7535
Pt 29.7258 17.7508 18.9291
Au 24.5462 24.9082 21.575
Pt 27.4544 11.3695 34.848
Pt 24.2252 21.4004 39.2711
Au 19.063 28.778 22.2652
Pt 37.5787 19.1051 28.058
Pt 32.2531 39.467 25.5966
Pt 32.8665 27.0667 36.0321
Au 13.1912 25.3028 11.2579
Pt 23.1337 12.3463 17.1856
Au 18.4412 33.189 10.1043
Au 35.6971 9.0576 18.892
Pt 34.8417 21.7208 12.6954
Pt 19.8135 33.5934 27.3814
Au 38.2469 27.8496 14.1276
Pt 17.2927 17.9513 33.8178
Au 25.5042 28.5025 12.4748
Pt 37.0289 14.7186 30.888
Au 29.6505 7.99102 23.4927
Au 23.4683 23.4574 19.1444
Pt 35.7595 22.8613 37.2578
Pt 27.8866 20.2648 36.9614
Pt 31.1227 36.5575 28.9405
Au 20.0653 22.5738 15.7363
Au 42.5114 20.8323 32.4668
Au 23.5635 29.4766 23.1268
Pt 26.864 21.1158 39.674
Au 19.6118 25.2253 11.5612
Au 37.0187 33.2744 33.2333
Au 20.3363 25.9651 17.2695
Pt 27.974 30.582 34.0501
Pt 32.6938 19.8548 34.5188
Au 19.6129 8.86346 29.5072
Au 22.5756 29.9807 20.4515
Pt 30.5561 30.4311 32.9513
Au 28.6568 9.98845 12.7155
Au 40.4146 18.7151 17.9298
Au 26.4171 27.403 22.3377
Pt 33.6221 12.7741 28.1502
Au 32.8505 38.4115 15.2279
Au 22.7141 20.218 12.0006
Au 29.1736 34.4479 15.3075
Pt 30.2945 13.3476 30.8366
Au 14.5186 32.6762 18.1171
Pt 34.1498 17.6908 19.8837
Pt 36.8054 23.394 22.629
Au 22.423 14.1642 9.36447
Au 32.5004 13.0339 10.4392
Pt 15.393 21.7167 11.4865
Pt 31.3849 26.8399 13.4239
Pt 35.7375 12.4315 19.2812
Pt 35.7722 27.5876 15.0468
Pt 30.3254 15.4972 17.5691
Au 18.0541 39.1533 33.1074
Pt 33.2133 23.1443 17.0928
Pt 21.5681 22.776 31.6543
Pt 18.6318 26.1217 33.8853
Pt 31.9179 28.3243 33.7618
Au 29.1458 16.6151 40.186
Pt 29.0459 28.1285 32.7842
Au 8.99686 25.5542 34.9379
Pt 24.8724 33.9672 33.4838
Pt 28.4296 25.4023 33.4948
Pt 15.1131 30.319 31.8736
Pt 24.2984 26.9109 29.5665
Au 10.6478 29.4058 36.9533
Pt 15.4104 37.4023 24.7171
Pt 14.7116 24.397 31.9932
Pt 15.3754 27.5231 31.3192
Au 17.3465 40.0864 20.6858
Pt 28.1468 32.2435 36.3472
Pt 12.7992 30.5872 30.5863
Pt 27.673 32.5757 29.9347
Au 38.4968 13.7389 32.9208
Pt 24.2365 20.4134 30.5858
Pt 15.0464 29.9942 18.5551
Au 30.5859 22.2829 6.71764
Pt 22.836 15.1942 22.9591
Au 15.7531 10.4231 14.9193
Pt 17.7354 21.2176 16.151
Pt 11.2007 22.1973 17.7397
Pt 23.1312 16.2531 17.9282
Pt 32.1425 15.3263 19.6816
Pt 33.0788 12.2462 15.7313
Pt 25.2563 17.118 16.5887
Au 24.174 30.2298 18.1459
Au 22.2056 28.3128 8.48457
Au 21.8908 41.2656 14.1406
Pt 23.0799 13.2059 24.7848
Au 21.3374 6.81456 24.8784
Pt 16.3942 22.2838 23.847
Pt 34.7339 16.5742 16.9734
Pt 32.7827 15.446 12.5462
Au 26.8045 42.3035 15.9482
Au 17.5195 38.8361 28.325
Au 40.267 26.3317 17.1322
Au 21.2059 11.4421 29.8783
Au 21.8329 27.0369 15.2581
Pt 28.5877 34.8015 21.7304
Pt 35.5996 30.0147 22.6255
Pt 29.3908 33.8952 19.3903
Pt 29.1722 30.0021 28.9223
Pt 37.5081 32.7521 21.0434
Au 28.5498 29.3565 16.5046
Pt 35.7736 26.3721 24.5587
Au 29.2972 25.3819 11.9424
Au 30.8423 27.7006 7.93971
Au 28.099 18.6721 7.21879
Au 13.8646 11.0008 16.8445
Pt 33.2313 27.9274 15.6222
Au 32.7666 34.6374 16.0049
Pt 38.0286 25.7798 22.9235
Pt 35.4942 28.3166 30.6466
Au 14.78 40.6736 21.4271
Au 28.3356 8.80256 35.3975
Au 19.6079 34.7857 8.31701
Au 5.63807 22.5602 26.1439
Au 15.3328 26.9218 11.8206
Au 12.0008 34.2778 28.6375
Pt 11.4956 24.2764 20.338
Pt 15.9002 34.7042 24.815
Au 7.1398 25.7373 18.7099
Au 22.2789 25.5673 25.3733
Au 7.75915 32.5938 20.258
Pt 18.6959 30.9225 24.0055
Pt 13.8682 25.8502 20.1605
Au 16.9694 41.5306 23.0106
Pt 9.1519 28.1143 25.0308
Au 18.7064 30.8081 15.8229
Pt 13.8204 18.602 19.0399
Au 32.1003 11.4608 29.9382
Au 6.75392 33.6628 17.9956
Au 20.8992 21.8227 26.5284
Au 24.3249 20.6524 9.50191
Au 7.31202 24.1456 33.1952
Pt 34.8309 23.1615 24.4649
Au 7.7346 34.3601 22.574
Au 19.8041 30.8807 5.71828
Au 20.5026 9.74891 34.4056
Au 20.3902 39.0052 14.0297
Au 20.1762 30.3431 8.4084
Au 23.4741 22.1409 21.775
Au 41.6497 29.8621 23.1617
Au 26.7084 25.8327 12.9386
Au 19.0299 27.8738 14.979
Pt 40.2585 18.6375 28.1437
Pt 36.5134 11.7138 24.5598
Pt 34.9666 24.7214 26.7888
Au 14.398 31.0381 13.5339
Pt 30.8949 18.0188 35.7399
Au 38.7467 12.8385 26.0797
Pt 36.4393 34.8545 22.3396
Pt 37.9579 29.8326 26.3227
Au 35.1525 17.8773 38.1613
Pt 39.9191 23.7518 29.0537
Au 6.24159 20.3917 31.0877
Pt 13.959 23.1113 20.6776
Pt 19.8434 19.4193 29.8961
Au 10.6783 14.8473 29.5863
Au 6.93081 27.3394 21.034
Pt 21.047 25.0741 37.8384
Pt 26.7895 26.8837 31.799
Pt 12.8559 24.8937 22.554
Pt 20.4691 17.2379 17.1778
Pt 7.96904 21.2986 26.0494
Pt 14.0797 20.5181 21.3741
Pt 8.46922 26.7886 27.2629
Au 6.16572 20.7957 24.1306
Pt 19.4656 15.8104 27.1056
Pt 9.36704 26.4328 20.188
Au 25.7937 26.7603 43.9978
Pt 9.68904 30.2908 23.6355
Au 15.0631 18.6441 39.7278
Pt 17.4183 34.0194 28.2917
Au 6.79464 23.0365 19.1146
Pt 25.0133 26.1057 26.4823
Au 21.9206 38.9853 37.0073
Au 29.8688 27.9813 42.1059
Au 18.5361 23.5412 22.7569
Pt 18.8417 31.6808 29.5115
Pt 23.6429 26.9547 34.8264
Pt 19.2654 21.4338 31.6561
Au 26.9316 39.9792 35.9767
Pt 21.8437 28.6468 35.8426
Pt 22.9819 38.9832 32.2413
Pt 20.0857 32.22 32.2835
Pt 26.5118 32.2385 32.4019
Au 40.0344 14.3773 30.3872
Pt 27.5236 31.9295 23.9599
Pt 36.5584 21.7333 28.4066
Pt 29.7165 32.3178 27.9846
Au 26.7299 24.7199 15.6023
Pt 25.4484 38.1203 24.7944
Au 28.7186 33.6666 41.4327
Pt 34.7911 34.909 17.8226
Pt 37.1184 25.8876 30.7861
Au 23.2318 23.1714 26.8611
Pt 10.5987 24.4969 27.56
Pt 12.8109 18.9234 31.4991
Pt 20.1572 19.9993 17.0917
Pt 20.7769 26.0241 40.4546
Pt 23.8911 29.331 30.5402
Au 26.7539 10.1416 37.3073
Pt 19.1197 17.6941 10.5622
Pt 25.3278 14.2592 23.2367
Pt 31.1093 17.9018 25.4654
Au 22.5048 27.9223 17.9726
Au 12.632 15.8799 24.7242
Pt 16.01 23.5303 35.6067
Pt 31.9583 12.1635 23.4139
Au 42.6327 21.0667 22.3529
Au 20.5701 18.2893 7.64941
Au 31.3714 17.3738 38.5058
Au 21.7576 12.2802 38.1993
Pt 23.6827 12.901 21.6273
Pt 22.9257 38.9543 25.3958
Au 30.4338 35.8667 17.3189
Pt 33.5518 32.624 18.3101
Pt 25.6157 30.2812 25.5012
Pt 17.1752 36.46 29.9401
Au 25.0038 30.9845 13.6414
Pt 14.0856 34.1507 26.6821
Au 34.1432 39.6 17.2107
Pt 9.95506 34.0515 20.9138
Au 32.3528 31.984 15.3479
Pt 21.7787 30.8761 30.5715
Pt 20.9752 29.7597 25.7291
Pt 17.3997 36.4506 23.2846
Au 18.0281 26.8805 7.54209
Au 21.5078 36.2383 21.125
Pt 14.6981 24.666 24.7243
Au 17.7836 38.7753 13.9218
Pt 31.5339 32.6525 20.4643
Pt 22.8885 28.042 40.3576
Au 21.895 25.2809 22.5348
Pt 16.4036 14.5263 18.4955
Pt 9.23514 22.8425 21.1347
Pt 17.7341 21.0616 13.1577
Au 22.9825 10.6941 12.7348
Au 11.8516 14.346 31.9764
Pt 31.9965 10.7613 27.1676
Pt 15.4221 18.2264 31.8
Au 18.836 7.74958 20.2435
Pt 11.9354 19.3475 27.9076
Pt 14.943 15.7425 22.9252
Au 30.7186 19.9194 11.2578
Pt 27.1094 12.2924 14.3603
Au 19.4787 13.4136 34.3979
Pt 31.5024 15.5077 27.0026
Au 17.5844 9.29027 27.6169
Au 17.869 11.7703 13.9068
Pt 36.1996 11.9605 21.8642
Au 25.1789 18.7841 28.6
Au 24.1233 26.4246 8.31041
Au 19.3933 13.491 28.8296
Au 23.918 10.469 30.6154
Au 21.7209 25.4603 19.6471
Pt 33.3417 28.551 29.1652
Au 23.4332 14.0781 36.5164
Au 18.4058 19.8815 6.39961
Pt 37.049 28.6592 34.9704
Pt 13.7561 21.8199 35.7761
Pt 24.1038 22.9772 41.5054
Pt 38.1783 18.4138 21.7204
Au 26.6325 38.0399 19.3142
Au 18.3118 9.21882 13.4922
Pt 29.9835 34.7392 26.8267
Pt 36.0137 14.5944 22.349
Pt 22.4121 28.8958 28.2523
Pt 36.0277 21.8794 34.8098
Au 33.2334 18.6945 39.8857
Au 34.0728 9.91723 28.771
Pt 23.9171 36.4037 32.6447
Pt 34.797 25.3398 37.1171
Au 30.0144 11.7368 25.4446
Pt 35.3427 14.621 28.8716
Au 37.9321 25.2277 15.725
Pt 30.2114 19.7615 27.2511
Au 31.903 35.8393 37.5307
Pt 36.5789 21.3319 25.8091
Au 30.2486 39.094 14.8262
Au 27.9367 29.2706 20.7994
Au 22.8475 29.1659 13.228
Au 43.6253 21.3596 29.6565
Au 43.2335 23.0114 24.2225
Pt 34.1303 10.677 20.5635
Pt 39.3126 30.9697 22.1875
Pt 34.8912 19.4028 27.8217
Au 35.51 26.9783 8.49768
Pt 35.0116 25.1688 15.7289
Au 27.1976 24.061 10.5949
Pt 39.812 24.5589 24.5191
Au 15.2324 24.0891 10.0622
Pt 29.0368 39.4849 19.4118
Pt 32.1014 37.5629 22.244
Au 27.018 6.81207 23.4979
Au 21.5822 32.5642 20.4517
Pt 19.3443 18.041 37.7291
Au 29.3172 30.7845 42.4067
Au 29.0626 24.7283 19.4493
Au 12.9535 38.5384 25.5867
Pt 15.181 22.0944 26.1226
Au 37.7674 32.9364 15.6402
Au 22.61 18.8874 17.8402
Au 6.31931 21.2289 28.5365
Au 34.8701 10.7452 34.3238
Au 18.8159 41.358 30.7528
Au 28.2575 26.3943 17.1903
Au 8.61629 22.7556 35.0218
Pt 30.3668 23.7649 32.3977
Pt 30.4011 32.7738 37.8422
Pt 12.3424 28.9115 28.1963
Au 27.4892 28.7276 43.1462
Pt 8.38136 24.9904 29.129
Pt 25.4026 28.7484 38.6714
Pt 19.8976 13.7054 13.2242
Pt 14.735 31.9848 25.4021
Pt 27.597 14.4206 19.5263
Pt 9.6804 29.2735 27.6082
Pt 13.3117 17.0628 27.2047
Au 18.9885 22.5431 7.25029
Au 25.062 8.55413 32.3504
Au 12.5973 27.4485 37.9182
Au 15.2034 23.8315 16.0699
Au 25.457 17.4982 7.52147
Pt 31.9631 16.6224 15.1649
Pt 12.245 29.1603 32.7708
Pt 15.0402 13.2132 23.1389
Pt 20.7334 32.9248 39.1376
Au 26.146 22.4201 23.2714
Au 12.0348 34.6564 14.5068
Pt 14.8319 15.0236 25.937
Au 38.892 30.752 16.7246
Pt 26.1287 16.7545 11.1502
Au 31.1831 42.5783 22.0754
Pt 30.0378 13.4472 19.375
Pt 30.4892 21.022 33.0388
Pt 36.6723 17.9633 18.4839
Pt 30.6483 26.2655 31.9285
Pt 33.1281 27.3895 31.568
Pt 31.9568 25.8823 26.9292
Pt 37.1109 31.4585 24.1656
Au 32.8446 23.499 7.40006
Au 19.4897 33.0901 18.5403
Au 21.622 43.7661 23.9625
Pt 11.6415 29.292 25.5513
Pt 13.8637 15.606 18.1998
Au 21.3548 18.0967 42.5113
Pt 12.9013 30.6231 20.2106
Au 22.9221 41.6658 31.9612
Au 25.8279 19.2596 43.8641
Pt 26.8669 35.6142 37.3365
Au 17.4855 40.682 25.7211
Pt 28.6252 29.2234 23.4704
Au 16.9706 26.1242 16.2617
Au 27.5543 39.7008 15.348
Pt 19.8235 36.0895 30.2554
Au 19.1307 38.6731 30.6384
Au 37.3645 36.2421 28.597
Au 19.6166 17.0223 35.2727
Pt 12.5436 20.7747 33.5286
Au 6.15011 19.3999 26.6079
Pt 33.2683 17.4339 33.1907
Au 24.5169 8.65817 13.508
Pt 12.6723 14.2645 22.5422
Pt 26.0525 18.1881 31.1302
Au 34.2021 10.6035 31.5577
Au 8.43326 30.6892 30.112
Pt 27.4697 38.8695 33.6849
Au 39.5163 29.9744 31.7426
Pt 24.2549 16.9188 37.8188
Pt 36.0101 29.2143 28.0199
Au 34.9951 34.8386 32.0696
Au 36.8844 22.0452 39.5923
Pt 37.9031 26.0087 33.6296
Pt 30.3523 16.5503 12.6358
Pt 31.3439 11.6923 20.9151
Pt 20.7131 17.8185 13.096
Au 36.6484 11.0274 17.0604
Pt 28.4021 18.3473 11.6069
Pt 29.3484 20.6632 15.735
Pt 37.4253 29.9218 20.8161
Pt 31.2791 30.4776 23.9194
Au 40.8818 18.5284 32.6096
Pt 30.8594 30.224 26.5209
Au 26.848 12.7674 37.0171
Pt 34.8313 30.8557 29.683
Au 19.5043 15.8721 32.8266
Pt 27.222 20.2536 29.905
Au 29.3816 24.9492 14.9167
Au 26.7906 17.2163 41.6437
Pt 34.3339 21.9783 26.9989
Pt 17.9092 21.996 36.7316
Pt 25.6157 15.834 32.4821
Au 43.5024 25.2496 26.2473
Pt 34.1184 21.3863 29.7144
Pt 32.4515 22.6778 33.7066
Au 29.9766 39.6159 33.3609
Pt 28.113 26.4186 35.9562
Au 36.1566 33.1784 30.1713
Pt 24.9901 41.6625 22.4137
Pt 27.95 28.0195 38.176
Au 40.5109 12.6815 28.2701
Au 30.9745 8.86059 35.5131
Pt 38.875 18.7008 30.6788
Pt 32.9655 30.2257 31.5538
Au 10.3576 16.7268 31.9176
Pt 29.7506 27.6362 25.755
Pt 34.5261 29.1013 36.05
Au 20.0911 42.3447 18.7753
Pt 27.6717 18.4408 15.7341
Au 29.7829 8.95664 14.8965
Pt 33.5494 23.3617 14.2424
Pt 33.0344 18.116 23.5095
Au 38.5531 17.123 16.607
Pt 15.9937 16.7732 13.9242
Au 33.8431 7.76296 20.5949
Au 35.2591 13.5118 16.8947
Pt 23.7713 15.3253 11.4062
Pt 33.8466 30.9094 24.5275
Pt 23.6184 9.71247 17.7973
Au 28.7222 38.0004 17.1648
Pt 38.9709 15.6529 21.9673
Au 36.9737 25.0728 10.3337
Au 14.6333 21.8715 8.6158
Au 25.7313 20.1389 6.94467
Au 40.2721 11.6122 24.052
Au 43.6423 22.2924 26.8543
Au 37.3657 27.8961 10.3711
Pt 30.4778 18.454 16.5476
Pt 31.1691 23.9282 13.1928
Pt 29.4878 25.9269 28.1523
Au 42.5617 18.4381 23.1742
Pt 24.4491 13.1822 13.5736
Au 34.2575 24.6815 9.35885
Au 35.9654 23.0314 17.132
Pt 38.1207 27.1393 25.4048
Au 14.9373 16.3517 38.2223
Au 27.3772 14.5088 40.3808
Au 33.2457 24.6936 40.8995
Au 21.9405 12.2915 34.887
Au 33.7805 41.7166 25.3544
Pt 11.7314 18.4106 34.1514
Pt 20.8908 34.5029 36.9544
Au 15.9598 35.5376 34.401
Pt 15.0596 22.1302 33.3842
Au 18.464 24.2275 40.8644
Au 37.0561 19.9403 38.0116
Pt 25.9699 25.0662 41.8093
Pt 9.95376 32.9725 23.442
Pt 19.4078 23.2911 38.589
Au 38.5997 12.0994 30.7282
Pt 21.8095 22.0083 38.7269
Pt 30.0783 23.2614 34.9684
Pt 22.9145 31.5927 39.6591
Au 32.7935 20.1488 42.0717
Pt 18.3869 35.3341 25.6787
Au 26.8364 31.7334 41.8242
Au 24.6976 11.63 35.5782
Au 24.3424 40.0683 36.546
Au 30.591 12.8993 28.0228
Pt 17.8039 22.463 26.6213
Au 32.608 39.9585 32.1384
Pt 26.0158 22.1756 37.2571
Au 24.3207 10.7925 15.1659
Pt 20.8484 23.6413 29.0995
Au 8.91791 21.1026 23.3734
Au 11.7765 10.8019 18.749
Pt 19.4677 11.6576 20.8357
Pt 27.1166 18.8321 18.1837
Pt 21.1433 13.8826 21.2332
Au 18.4612 10.2785 16.2018
Pt 18.5093 21.2023 18.8113
Au 17.3095 25.8903 10.2471
Au 16.496 21.8911 6.66732
Au 26.7182 28.5235 5.29381
Au 24.0272 36.4665 14.9478
Au 17.1687 35.8676 17.6732
Pt 19.0834 20.1575 8.89693
Pt 10.8286 19.6553 18.5783
Pt 16.5119 12.618 16.3656
Au 11.9631 31.9755 36.328
Au 24.6733 33.1882 9.38133
Au 25.1628 28.8184 20.3008
Pt 36.7042 25.7809 13.2295
Au 20.6661 10.3313 14.2172
Au 30.2445 34.9771 39.5307
Pt 25.0914 15.0744 20.6202
Au 28.3221 37.1542 14.3607
Au 21.8876 25.3398 9.90141
Pt 14.9135 29.6229 29.3244
Au 36.529 27.6356 37.4435
Au 39.005 16.8664 19.4908
Pt 36.425 25.583 17.9941
Au 37.8225 13.2878 15.9928
Pt 39.6173 27.1399 31.7889
Pt 34.1436 11.3512 25.8245
Au 37.6206 35.1689 31.1261
Au 35.6747 35.6019 34.5528
Pt 34.7451 31.915 32.3411
Au 29.5908 43.7119 26.371
Pt 30.529 26.1475 34.828
Pt 38.5894 19.8211 19.5407
Pt 22.5478 33.2318 32.2037
Pt 33.4159 23.2533 38.4755
Pt 25.8071 35.4689 25.1457
Pt 33.4595 16.8247 28.5776
Au 41.6703 16.2701 21.7551
Au 23.8263 31.2574 11.2403
Au 16.1185 32.4308 11.4499
Au 38.7346 32.5473 31.24
Au 29.3788 41.0609 17.0754
Pt 36.6956 30.0387 18.2745
Pt 35.3359 23.6619 30.3915
Au 23.0192 27.3919 21.2388
Pt 21.243 26.4282 32.7896
Au 38.3309 22.287 15.6456
Pt 29.4396 28.764 35.2355
Pt 15.9604 31.1643 20.7031
Au 8.97925 29.4891 32.506
Au 7.84131 29.8761 20.7778
Au 17.5664 13.1719 11.6917
Pt 8.70162 22.385 28.3551
Pt 21.0034 15.7065 11.4136
Au 31.8741 40.9389 15.8979
Pt 20.7848 18.075 27.5105
Au 13.6226 15.2264 13.7217
Pt 14.9853 27.3092 28.1227
Au 8.12161 28.3102 18.5872
Pt 18.2417 10.5128 25.3095
Pt 10.0952 22.7443 25.5217
Au 13.8367 33.8335 35.4042
Au 6.8871 30.8914 18.2721
Pt 21.6443 27.8832 30.5446
Pt 13.4816 21.1552 18.7472
Au 9.33314 36.4952 21.9603
Pt 31.1266 14.3111 14.7661