2057
Atoms. Timestep: 21043
Au 30.4037 25.4141 22.4013
Au 26.726 18.8083 22.7823
Au 18.4735 16.0865 27.6547
Au 29.3342 21.6587 28.4131
Au 23.7974 26.8312 28.523
Pt 27.1773 33.3497 32.6421
Au 20.1805 29.8706 14.5842
Au 18.694 25.8135 19.7046
Au 30.2748 25.7937 16.2638
Au 24.9448 17.5094 18.0314
Au 22.1012 26.929 34.2299
Au 26.0043 22.0478 14.2348
Au 23.7972 29.2886 30.0338
Au 26.5877 31.1506 25.7649
Au 26.4738 33.9084 26.9381
Au 22.1358 33.1108 18.974
Pt 20.7555 21.74 12.9918
Au 24.5165 32.1511 19.8034
Au 24.9445 18.7881 27.9442
Pt 16.7218 31.8261 18.2367
Pt 17.8751 40.0578 21.9221
Au 26.4468 28.3706 21.6482
Au 31.6702 17.6819 26.4954
Au 21.3907 33.4797 12.9981
Au 18.9346 17.0782 24.1529
Au 18.1395 18.5637 26.4781
Au 13.6342 23.2042 27.129
Au 22.6447 24.1243 30.6292
Au 21.2704 30.4972 9.11065
Au 18.959 25.8552 14.8148
Pt 27.3705 36.8889 33.6907
Au 34.0067 30.0628 26.5757
Au 23.1182 26.4413 41.2928
Au 17.3675 26.9593 12.1873
Au 24.9395 26.0645 22.065
Au 21.0719 16.1394 21.3471
Au 20.3557 20.1719 18.8819
Au 22.7949 28.5911 7.61447
Au 23.3183 31.6555 16.8027
Au 28.5764 16.2281 29.9198
Pt 34.4424 33.3781 22.4013
Au 19.8539 27.7352 12.8123
Au 25.9604 18.7465 25.4373
Pt 33.4064 21.9928 11.9464
Au 32.3967 25.7261 31.3678
Au 19.5097 30.2559 23.2549
Au 20.6533 22.9946 22.7434
Au 23.2997 23.7166 21.612
Pt 18.4927 37.7324 23.4879
Au 24.4864 19.0142 30.7439
Pt 18.9163 13.8461 22.2367
Au 21.5283 33.0097 10.3102
Pt 21.2007 38.4263 23.1194
Pt 17.1745 24.1629 13.7244
Au 29.5182 18.9002 28.94
Pt 38.6895 19.4636 17.4054
Au 26.0808 40.2215 13.9941
Au 31.2882 16.8005 29.014
Au 32.9652 24.3031 25.3126
Pt 12.2454 24.2067 16.9586
Au 17.5331 26.4097 17.1462
Au 17.7068 29.9054 12.6275
Au 17.0218 26.9932 28.1012
Au 12.5905 24.0209 12.1981
Pt 10.2908 27.4236 22.8656
Pt 21.8291 39.6787 30.2676
Pt 20.9819 34.1278 26.4019
Au 26.1465 20.0151 18.158
Au 13.5735 29.2516 10.81
Au 25.3833 23.608 23.711
Au 27.3252 22.3962 18.8899
Au 14.3077 25.8807 28.2048
Au 22.5845 22.4026 27.2978
Au 18.5771 30.884 20.2408
Au 23.1744 16.897 32.0747
Au 24.2092 33.3331 12.6507
Au 9.46505 29.5269 16.505
Au 23.9972 30.8713 8.57562
Au 11.3551 36.9809 22.8422
Au 31.8326 20.535 22.2223
Au 25.7502 24.5826 15.39
Pt 32.4488 32.1026 33.0079
Pt 39.7216 23.1443 34.1267
Au 15.8665 22.5253 25.3598
Au 19.2396 36.9498 15.753
Au 21.8415 28.1254 10.2961
Au 27.0435 26.9213 12.8004
Au 15.1941 39.4952 17.6468
Au 31.3802 38.8271 14.2505
Au 15.9057 21.4018 20.2333
Pt 24.9108 12.0691 31.9438
Au 16.1179 22.5568 31.7563
Au 21.0837 24.9579 32.6039
Au 15.1807 28.5275 24.0096
Au 21.915 40.4705 16.0588
Pt 35.3731 20.3611 11.292
Pt 14.5354 28.0637 21.2534
Au 15.1288 26.8231 10.1995
Au 24.3114 28.1432 23.7868
Au 25.6427 26.1641 24.8917
Au 25.9678 36.0888 22.5035
Au 26.1932 14.0607 30.5646
Au 28.7205 32.2415 18.3017
Pt 28.2987 16.98 15.1371
Au 23.4112 24.4453 13.459
Au 17.4672 27.2132 8.93773
Pt 19.5891 32.8619 30.9118
Au 19.9847 26.9486 26.8632
Au 17.9675 27.8891 24.4362
Au 31.1706 15.8829 22.1634
Au 25.6774 35.3862 11.2834
Au 29.1626 17.8387 22.0444
Au 25.0559 19.2006 20.623
Pt 30.264 19.1825 33.8722
Au 26.8936 31.0563 20.5001
Au 14.0434 20.3615 23.0522
Pt 17.3573 18.2261 31.8358
Au 25.3 16.978 15.2731
Au 16.7601 38.7698 15.3314
Pt 14.1499 32.8313 18.9273
Au 18.6581 30.4557 16.807
Au 25.5614 24.2108 31.334
Au 20.8275 18.9194 25.9514
Au 23.6601 26.6366 31.6426
Au 27.7233 17.3068 27.4037
Au 22.1643 29.6789 23.2792
Au 27.0342 18.8502 29.8605
Au 16.6387 21.5622 22.8599
Au 26.6525 9.9484 32.8982
Au 16.7939 35.1686 12.4095
Pt 26.484 40.2721 30.7561
Au 25.5925 28.4184 7.82281
Au 20.7113 32.4069 15.6906
Au 29.6643 32.0213 20.8647
Pt 35.6784 33.2956 16.8518
Pt 35.9429 24.3471 13.7348
Pt 32.9063 23.3104 16.8692
Pt 21.1827 10.4241 20.1586
Au 21.9056 36.03 14.4032
Au 24.4577 24.0607 28.7608
Au 21.6191 20.28 23.3207
Au 28.0556 22.0505 16.1447
Au 29.8205 27.6698 23.8014
Au 25.0757 22.1367 16.8491
Au 18.373 29.2544 26.9538
Au 24.9394 29.3322 13.2319
Au 18.8518 42.3061 20.3412
Pt 33.71 29.6967 11.9554
Au 27.9212 32.6637 15.7091
Pt 29.0251 14.0206 15.3654
Pt 38.6563 29.0994 27.0525
Pt 30.5584 16.6543 38.0099
Au 18.4024 28.5053 18.9861
Pt 14.734 25.3116 20.9665
Au 23.1781 31.0165 11.2159
Pt 23.3594 21.2244 41.3106
Pt 9.67952 23.6747 30.3036
Au 12.7796 26.7596 11.6635
Au 27.4517 34.2293 24.2498
Pt 29.1169 35.3107 32.5793
Pt 27.5305 30.1295 39.7222
Au 25.8957 31.4147 11.7206
Au 21.2633 30.0839 20.625
Pt 19.635 18.2599 16.9681
Pt 20.8646 14.84 23.732
Pt 33.5761 19.0393 24.7995
Pt 23.6467 12.6582 20.34
Au 20.6262 21.6309 25.5458
Au 24.8727 30.7436 23.4299
Pt 30.7171 31.3824 37.6899
Au 22.4781 24.9683 19.2238
Au 26.4101 29.3331 29.0702
Au 21.6885 26.1276 6.62385
Pt 26.5771 21.4146 11.6675
Au 25.8387 43.6869 22.9005
Au 24.2681 36.4899 16.3804
Au 26.6971 30.76 9.10998
Pt 32.5765 17.6388 33.5454
Au 23.4257 19.4453 33.437
Au 29.1636 24.643 27.7119
Au 27.1045 20.4488 27.4061
Au 20.8726 16.093 26.3106
Au 8.0005 25.1923 19.0016
Au 22.6355 29.1276 15.6829
Au 27.6838 23.5197 33.1013
Pt 31.8907 29.3724 33.7731
Pt 34.6216 29.0351 14.5753
Pt 30.9018 16.4645 14.7461
Pt 29.3337 9.65903 19.6707
Pt 39.7175 25.9417 19.0766
Au 30.0275 28.4965 15.2506
Au 41.463 25.9772 14.3549
Pt 38.1647 28.6521 19.1206
Au 26.9106 19.4523 15.5839
Pt 33.367 29.8024 16.9226
Pt 13.9757 20.5989 25.9796
Pt 13.5457 21.443 31.503
Au 18.6562 29.6726 31.6266
Pt 11.8573 25.0909 30.9887
Pt 19.3326 30.156 39.6712
Pt 14.8148 24.4659 35.0298
Pt 15.6293 32.8295 33.4255
Pt 17.5057 30.03 34.9292
Pt 13.1585 30.3178 25.2965
Au 13.2244 26.7448 14.3515
Pt 23.3287 24.1902 7.76881
Pt 19.7107 19.4565 11.7139
Pt 15.0924 28.0891 12.7406
Pt 30.8525 18.5916 12.8198
Au 14.4261 24.1956 10.0982
Au 19.1722 25.3261 7.66635
Au 18.3883 22.5669 7.49014
Au 22.9719 43.9313 23.6306
Au 20.6831 23.5246 6.20329
Au 24.9872 33.4836 22.689
Au 22.8313 35.294 11.4194
Au 12.6676 38.0941 17.7342
Au 31.3511 22.826 26.9197
Pt 40.2151 28.2374 17.4324
Au 30.315 32.6056 28.7937
Au 27.3541 31.652 23.1796
Au 30.9402 23.7679 29.732
Au 22.4035 28.6183 12.9256
Au 19.2374 34.7537 14.2049
Au 21.8152 21.7793 4.51137
Pt 12.2711 27.3067 29.5099
Au 10.6807 34.525 16.3249
Au 16.8207 32.5421 11.4394
Au 21.0933 34.8885 16.9035
Au 21.3133 24.4003 35.4601
Au 16.318 23.9902 27.6222
Au 23.7526 21.7211 31.4679
Pt 29.1398 22.6435 10.3717
Au 32.1516 29.1243 24.7148
Au 19.0488 21.1754 21.3133
Au 18.928 23.1601 27.0649
Pt 35.9879 30.8065 15.9513
Au 26.235 16.6536 31.6918
Au 29.6359 15.0217 27.4424
Pt 34.0772 18.8798 27.4325
Au 15.0605 30.8292 12.5155
Au 22.7717 26.9751 17.2471
Pt 14.0777 14.0517 27.8318
Au 23.237 19.8483 18.5128
Au 12.5708 18.7509 13.5907
Au 34.8913 31.8155 10.5822
Au 15.4093 26.2826 25.6844
Au 20.2249 23.3296 19.6716
Au 17.6775 28.3452 14.8557
Au 22.5753 34.6842 21.2304
Au 19.0663 26.6849 31.813
Au 20.2523 32.9307 21.4772
Au 22.2807 18.7464 21.0369
Au 20.9928 22.0246 31.6727
Au 22.735 27.2418 25.9735
Pt 31.4648 34.5744 33.7476
Au 25.5171 28.3308 26.659
Au 19.1544 25.2155 29.0119
Pt 27.762 25.5618 40.2823
Au 31.1895 7.7429 16.2339
Au 24.4587 26.9678 14.7145
Au 30.3284 15.6427 24.8065
Pt 32.489 20.2158 32.6718
Au 28.0371 17.0854 24.5608
Pt 24.4434 10.7429 24.1653
Au 26.7776 14.2496 27.7712
Pt 22.3356 8.71684 26.461
Au 17.0286 13.1317 10.2536
Au 20.0273 27.892 16.6314
Au 27.351 29.1278 11.1292
Au 19.4316 27.9991 21.5942
Au 25.4232 29.3104 16.0583
Au 13.8842 38.9017 15.2447
Au 27.6092 27.0484 15.3734
Au 17.3949 41.0666 17.3884
Pt 21.3318 34.2283 29.066
Au 20.4022 20.5863 6.81106
Au 14.2697 23.6355 29.8771
Pt 21.26 13.0387 21.368
Pt 32.3582 11.7735 17.0185
Pt 25.103 10.1817 17.3724
Au 29.513 21.4922 20.7014
Pt 26.4766 9.43599 19.6912
Au 29.579 16.3477 19.7653
Au 26.3628 7.8115 17.1384
Pt 33.1087 22.0885 29.27
Au 28.5783 25.7032 34.8089
Pt 21.1499 16.4711 38.0443
Pt 26.6457 36.1232 28.9765
Au 21.6008 17.4773 23.7196
Au 23.232 17.5872 26.2966
Pt 29.4723 34.7578 16.958
Pt 37.5815 24.1875 32.9383
Au 20.8797 25.4033 21.4345
Au 29.0728 32.7483 26.1806
Au 24.848 13.2574 26.1104
Au 23.4537 41.5471 18.0021
Pt 13.2002 15.8902 26.0006
Pt 16.7058 29.9323 29.359
Pt 17.4833 12.1628 23.9926
Pt 16.9873 31.7114 27.2747
Pt 13.5261 17.7473 22.3623
Pt 8.17817 30.0927 27.1107
Pt 19.1891 23.6816 9.88797
Pt 13.7526 31.6081 14.6459
Pt 21.4527 25.2818 9.22606
Au 14.1401 41.899 21.7691
Pt 17.3533 17.9467 15.4985
Au 20.7758 38.5866 14.1237
Pt 39.13 23.7318 17.7271
Pt 36.0179 22.4307 22.9864
Au 32.5893 27.4747 15.6748
Au 29.5336 30.3179 24.7009
Pt 39.7075 26.1376 21.8591
Pt 34.8913 22.264 36.1512
Pt 14.8204 18.9417 20.2813
Au 23.1189 21.9896 14.8174
Au 23.6813 29.5059 18.3695
Pt 11.6069 20.7734 24.6451
Pt 10.6582 27.0737 27.3573
Au 11.0199 9.82712 24.6254
Au 29.6128 30.1856 9.71264
Au 22.3048 19.8285 28.2021
Pt 16.0687 36.7895 22.5403
Pt 31.5134 35.1632 29.202
Au 20.7861 29.4428 25.6991
Au 24.716 35.8659 13.7589
Pt 15.8972 9.773 20.3039
Pt 23.8086 12.7689 17.636
Pt 13.7565 15.2533 23.3059
Au 21.7541 6.18529 22.6655
Au 33.9508 9.80418 25.7311
Au 27.7959 14.2324 24.9678
Au 12.3322 14.3319 34.6091
Pt 28.5073 25.2471 37.5821
Au 25.2541 33.8764 40.0878
Pt 16.0745 30.1464 32.5059
Au 18.9079 25.4728 34.4018
Au 25.3969 22.0244 33.7776
Au 31.8201 8.45514 24.7047
Pt 24.522 16.6998 10.7904
Pt 30.6168 20.9761 8.657
Au 24.3512 33.2187 9.94639
Pt 28.1341 21.446 8.00294
Pt 28.3771 25.2909 9.00329
Pt 33.0849 24.8004 33.8445
Au 29.0291 11.2808 33.787
Au 32.455 14.9719 26.6331
Au 19.3498 31.7682 25.8796
Au 21.3762 26.5782 30.0576
Pt 30.2022 20.8327 38.3434
Au 27.6386 25.9221 23.022
Au 28.3328 23.2324 23.099
Pt 30.7122 23.9542 34.8971
Au 17.7294 22.3855 29.4931
Au 21.8047 28.7843 28.168
Au 24.6799 21.2948 28.9293
Au 34.9727 31.3295 39.5511
Au 25.9776 24.4081 35.2298
Pt 38.5823 21.7882 15.8748
Au 19.0514 29.0219 10.3394
Au 22.0502 17.6799 15.5614
Au 26.0397 24.218 12.4188
Au 42.8066 30.2462 23.2882
Pt 31.8186 23.1662 10.0938
Au 23.1639 24.4692 16.3241
Pt 33.5732 17.2001 13.1321
Pt 38.226 22.9679 13.5817
Au 21.2345 17.9191 6.52689
Pt 33.1385 20.6762 9.42681
Au 28.3099 29.3352 26.9596
Au 33.6819 38.7855 15.589
Au 25.9486 42.7097 17.5466
Pt 14.1907 21.1789 28.7211
Pt 16.111 24.0977 38.7236
Au 21.8293 19.511 30.9456
Au 19.7875 22.6839 33.961
Au 15.0886 18.7903 27.9617
Pt 10.9842 23.3449 25.953
Pt 23.4647 24.1459 39.0602
Au 14.3294 26.2031 31.0383
Au 17.8374 32.3083 22.6289
Au 13.3132 23.0062 24.3802
Au 21.7102 24.9861 27.8798
Au 10.0755 32.8155 32.5616
Pt 16.3015 29.2372 37.2901
Pt 12.8453 33.8354 29.4108
Au 17.7307 23.7338 16.5463
Pt 16.5172 30.881 15.1641
Au 23.5168 20.247 25.5277
Au 14.2592 33.6786 12.3932
Pt 9.72691 25.1811 21.4705
Au 26.7746 35.1751 15.6879
Au 24.9706 43.0731 20.0549
Pt 18.7072 22.0484 14.5873
Pt 13.9729 22.9739 18.8397
Au 20.1722 27.8535 8.13476
Au 24.3601 26.7211 11.9591
Pt 26.858 41.479 21.5733
Pt 22.1864 18.2096 10.8944
Au 32.6479 22.7973 7.35581
Pt 37.2056 33.4674 21.8668
Pt 35.9862 33.0767 19.5179
Pt 32.1064 27.7969 13.0477
Au 29.7212 31.2491 14.2721
Au 31.1446 28.2369 17.9924
Au 22.887 35.9594 18.7092
Au 22.7822 32.0339 21.9367
Pt 26.4374 37.8601 15.265
Pt 35.7271 32.4932 26.7844
Pt 40.1253 23.9644 23.911
Au 27.0881 28.8021 24.2866
Au 23.2198 14.492 30.5613
Pt 34.1324 29.2181 35.1336
Au 33.0901 24.6121 28.0455
Pt 11.5881 33.5501 19.0656
Au 6.72155 28.9468 20.5754
Pt 8.97453 21.1879 21.7442
Pt 16.2669 33.1715 14.0235
Pt 14.9832 25.332 12.5205
Pt 12.7662 29.0147 22.8355
Au 21.6801 32.055 24.5154
Pt 15.0783 24.4371 16.7573
Pt 11.7106 30.7512 18.5417
Au 24.1331 29.6738 21.0272
Au 12.4277 31.681 12.2484
Pt 11.7164 25.7476 33.5936
Au 12.72 25.4741 25.8692
Au 19.5103 20.519 27.9235
Pt 36.4023 21.1744 20.5911
Au 22.8787 22.7338 24.4069
Pt 36.0153 18.1891 20.9443
Pt 33.2787 34.403 16.8
Pt 34.7213 18.6595 32.2292
Au 17.7219 19.3696 19.3665
Pt 38.1839 19.326 19.9491
Au 31.8729 30.7029 19.6448
Pt 28.676 14.4527 32.0243
Au 33.5428 26.9621 26.4371
Pt 38.5087 21.0593 29.3465
Pt 33.2854 14.3256 31.7337
Au 28.8817 27.1968 20.8409
Pt 26.804 11.6083 25.0419
Pt 16.3213 11.3846 28.9532
Pt 15.9981 16.036 29.1659
Pt 15.4822 14.4398 25.2309
Pt 12.9913 20.9551 20.3433
Pt 14.3728 13.3367 21.2511
Pt 12.1802 12.6116 29.081
Au 7.35646 25.1999 30.4202
Au 16.2657 19.6308 24.8377
Au 22.8132 25.4921 23.6921
Au 10.6855 11.0351 19.657
Au 8.20202 20.5741 30.9813
Pt 18.6223 16.0359 33.2771
Pt 12.9458 33.5034 24.4022
Au 16.7527 20.9273 27.3976
Pt 21.3294 29.4858 35.6117
Au 23.6229 25.4979 36.433
Au 23.2671 32.4452 29.6958
Au 21.6805 31.6674 27.5305
Pt 26.4271 36.5619 36.1012
Au 27.9655 28.844 31.2687
Pt 19.669 31.7613 35.4715
Au 26.3681 28.9441 18.8485
Pt 31.1978 26.6291 34.1082
Pt 22.005 30.9874 39.8586
Pt 22.5077 31.6031 35.0452
Au 29.8185 32.8084 23.5005
Au 29.6871 34.5811 19.759
Au 28.7014 24.2388 20.4735
Au 18.438 22.9122 24.3606
Pt 18.6116 16.0343 37.9618
Au 22.7851 17.2206 29.3286
Pt 22.564 10.9114 31.0697
Au 15.9714 16.6977 26.5158
Pt 20.4601 18.7047 36.3578
Au 23.4173 15.4163 24.6402
Pt 21.29 12.5607 18.4874
Pt 26.196 11.292 27.6103
Au 33.996 9.27686 23.0338
Au 27.861 17.7507 17.7696
Pt 30.7607 13.022 25.6726
Pt 30.9646 18.3582 31.2943
Pt 28.0934 20.8761 34.115
Pt 27.9427 39.207 23.1273
Au 26.7002 42.7605 29.3817
Pt 14.2152 34.7022 14.9225
Pt 11.9581 26.7922 16.755
Au 24.6727 33.9885 17.5247
Pt 31.2262 37.1057 23.6249
Pt 25.9741 41.03 24.2429
Pt 26.0166 38.7985 28.4235
Au 25.4332 31.8523 14.7784
Au 18.9895 31.7363 10.1248
Au 31.9965 31.9931 25.1904
Au 26.067 31.5686 17.6383
Au 20.6588 30.8545 33.1003
Au 26.4578 37.2662 18.0169
Pt 17.6667 15.525 11.337
Au 29.1918 20.3484 18.031
Pt 12.5268 11.4879 23.0229
Pt 11.7018 13.7511 22.1607
Au 36.7044 12.9296 17.1217
Pt 25.3167 13.3087 23.5254
Au 20.2132 17.9385 28.8444
Pt 21.5105 12.4896 28.9984
Au 30.2195 40.6924 15.7846
Pt 19.6396 14.6408 19.6077
Pt 17.2024 11.0257 18.2196
Au 27.9019 19.2487 20.1597
Au 27.0007 23.0693 28.7216
Au 30.5635 23.2073 15.3629
Pt 32.6206 21.5416 37.357
Pt 38.9442 24.9125 30.7333
Au 30.6857 27.5011 26.5026
Pt 39.0396 30.7658 29.9406
Pt 34.6057 21.3285 31.422
Au 32.5909 26.5982 23.6998
Au 39.6823 20.2858 34.0532
Pt 29.3862 28.4161 33.7101
Au 25.7102 16.0524 25.9738
Pt 35.0401 32.4563 31.9299
Au 23.7227 24.4604 33.4857
Au 30.1378 24.9813 25.1353
Au 18.8008 32.1743 13.5304
Au 24.4065 41.586 15.4941
Pt 35.6363 22.6755 16.066
Pt 33.4442 37.4846 27.7307
Pt 39.9363 18.6555 23.9401
Au 14.9592 36.8806 16.4313
Pt 35.3787 17.3751 23.3834
Au 27.5564 36.4754 13.1397
Pt 24.5514 14.9481 12.9299
Au 29.9646 29.5258 29.5179
Au 26.7784 16.6752 20.2304
Pt 33.9009 27.0951 11.0604
Au 19.2505 28.2334 29.3847
Pt 13.1071 35.9062 31.0312
Au 24.026 16.65 20.6141
Pt 14.2917 30.5892 17.454
Pt 18.6613 13.4194 29.5094
Au 21.0569 27.5381 19.282
Au 21.6803 26.4868 14.6703
Pt 27.2569 39.4822 26.0264
Au 18.8865 20.0457 24.0272
Au 23.4808 30.011 25.8722
Au 22.6019 22.049 33.9703
Pt 16.3322 35.5656 34.0818
Au 22.4347 22.4325 18.0307
Pt 11.5716 21.8806 18.1032
Au 24.0719 18.329 23.3441
Pt 12.5847 35.6912 20.2335
Au 16.4338 24.2294 19.0788
Pt 15.2627 34.8403 20.6894
Au 19.1682 34.0965 11.449
Au 8.78416 30.2652 19.1552
Au 25.291 19.5189 13.346
Au 18.0462 37.3185 13.3902
Pt 23.8301 10.1481 19.6138
Pt 29.3484 34.6739 14.3144
Au 35.3868 25.5056 24.4798
Pt 40.0836 19.8908 21.5767
Pt 36.5303 20.1435 15.8568
Au 20.7135 27.2839 23.9971
Pt 33.5212 23.0484 14.3285
Pt 30.3273 21.8672 33.0898
Pt 36.922 29.937 35.7526
Au 18.5575 17.6908 7.20632
Pt 9.64548 23.0923 23.5557
Au 16.9753 30.5717 24.7331
Au 14.8854 7.92643 26.0996
Au 20.7441 24.5554 25.2983
Pt 9.43978 22.3864 28.0238
Pt 15.9223 22.4045 36.4661
Pt 16.5544 34.5471 27.1791
Pt 9.38197 32.3291 23.1848
Au 29.4088 42.3989 17.6884
Au 32.4736 28.6862 28.3611
Pt 28.3386 34.2141 30.2472
Pt 29.5654 40.8526 26.0515
Au 42.6623 29.633 27.5476
Pt 13.6662 10.3659 25.2748
Pt 17.6779 11.3647 31.2168
Pt 17.3731 16.2336 35.711
Pt 21.789 8.31712 18.5437
Au 15.7218 7.43948 23.3562
Au 28.5288 8.47888 15.5123
Pt 36.9328 16.1083 28.2405
Au 16.1896 16.8628 23.7589
Pt 28.0767 22.6824 38.471
Pt 17.531 21.1384 37.9861
Au 17.9715 25.4058 25.8323
Pt 29.7314 30.6587 35.2334
Pt 29.9787 27.1021 31.4851
Pt 23.2902 33.0943 38.4519
Au 22.7681 31.2613 13.9857
Pt 22.868 19.5691 8.29143
Au 22.8612 37.7505 12.5378
Au 22.3764 14.0268 8.71746
Pt 32.2491 18.5715 15.2361
Pt 29.1812 37.1898 18.564
Au 32.1865 40.7418 20.6635
Pt 31.0215 14.4003 30.1273
Au 21.4216 20.3175 16.1925
Pt 31.1043 13.3321 32.9222
Au 26.4205 19.218 32.7357
Au 26.326 25.7188 27.6952
Pt 30.5536 23.3761 37.5804
Pt 35.3617 24.7757 35.3822
Pt 29.8625 23.8955 40.1827
Au 23.1268 31.1706 32.1057
Au 42.2742 21.3449 28.0369
Au 25.2487 22.3342 26.4179
Pt 22.911 38.6226 28.219
Au 27.3169 24.0591 25.6592
Au 27.3339 24.3628 43.2356
Au 28.1303 26.7725 25.8897
Pt 35.9287 34.877 31.1455
Pt 33.3847 26.7177 35.8795
Au 28.4357 27.2886 28.7761
Au 21.1932 30.5709 30.2265
Pt 19.1057 29.4345 37.0344
Au 37.7708 19.1774 11.1558
Au 36.1644 16.0446 13.815
Au 31.0762 22.8808 23.6046
Pt 28.7827 12.9525 12.976
Au 27.8006 24.6954 17.3478
Au 28.6848 31.7791 11.7602
Au 12.3443 36.5506 15.4129
Pt 33.2474 18.6071 10.9715
Au 20.607 22.7561 29.183
Pt 33.6291 19.7954 13.3139
Pt 33.6368 32.0436 15.5081
Au 33.0504 18.0151 8.20687
Au 36.5166 25.8163 11.4904
Pt 21.6768 23.3871 11.172
Pt 31.1426 20.8116 11.3851
Pt 38.1379 20.2603 13.6518
Pt 33.9385 24.5126 11.9112
Pt 35.7401 21.5247 13.6816
Au 9.72983 32.1953 17.3641
Pt 30.8626 23.3721 12.6015
Pt 13.6944 23.6945 37.384
Pt 16.6817 26.7722 38.4825
Pt 25.2613 22.8017 42.3348
Au 22.574 12.1847 38.3918
Pt 21.8254 17.2334 40.3827
Au 9.54109 23.6616 34.7262
Pt 20.6681 31.7265 37.8291
Pt 13.7053 24.0174 32.6236
Pt 17.8117 18.6001 37.0346
Pt 27.6355 20.2003 39.4002
Au 10.7422 18.8484 34.6432
Pt 21.7949 36.0315 34.8674
Pt 10.0892 20.0738 29.1301
Pt 16.6856 22.1403 40.3717
Au 14.6102 36.8886 35.649
Pt 23.3805 30.6719 37.5426
Pt 15.1174 34.006 31.2052
Pt 26.2881 26.8003 36.6763
Au 27.4758 21.234 43.3421
Pt 26.0322 24.4821 38.0979
Pt 15.8185 18.8173 17.4779
Au 25.7869 24.3601 5.22647
Pt 18.032 17.6387 12.8053
Au 13.0269 21.6137 13.5294
Pt 18.0909 22.0164 18.7892
Pt 13.381 19.8383 17.9925
Pt 21.7853 25.9163 11.8499
Pt 27.9401 18.6699 8.59968
Pt 25.7477 25.0473 8.13389
Pt 28.7502 20.101 10.6481
Au 7.52222 31.9994 21.0632
Au 16.6583 24.6449 8.43731
Au 28.5673 43.0813 27.4622
Pt 22.5623 16.7798 8.78925
Au 15.0518 12.1728 12.0749
Pt 17.0697 24.5822 11.0553
Pt 36.4178 22.8985 11.5409
Pt 19.4094 26.2866 10.4736
Au 30.8645 28.6365 7.81827
Au 22.0872 42.0613 20.2207
Au 38.4771 27.9493 11.9943
Au 26.4791 21.4709 31.0834
Au 31.2159 28.413 21.2098
Pt 33.6129 34.5858 19.4419
Pt 37.2023 30.9533 20.5136
Pt 36.4701 30.0716 25.6606
Pt 33.8769 31.9932 18.3375
Pt 35.8022 25.5401 27.282
Au 33.5078 28.4609 19.3666
Pt 37.9844 35.2503 19.9928
Au 27.6534 31.7281 28.383
Au 31.7565 30.9426 22.5227
Au 26.6699 21.1788 24.4214
Au 27.4627 29.7522 13.966
Pt 38.4887 31.4686 22.8438
Au 22.4749 34.6869 24.0978
Pt 37.2458 27.24 23.1302
Pt 40.8413 28.3102 23.0824
Au 25.5213 38.1 12.5213
Au 25.5936 16.4201 29.077
Au 28.1048 29.8973 16.6877
Au 11.6752 14.0195 31.8739
Au 10.9267 31.2252 14.7798
Au 5.34603 26.5053 23.7527
Pt 11.5843 22.1444 22.2026
Pt 14.653 31.1917 23.1983
Au 6.65187 32.8499 23.6689
Au 16.9048 26.7406 21.8428
Au 7.63533 20.0547 28.0706
Pt 10.6891 25.5199 18.8685
Pt 15.9133 27.0204 19.1905
Au 12.4803 39.8835 22.562
Pt 11.1624 29.2701 20.7937
Au 21.996 21.4554 20.7637
Pt 14.668 28.4072 29.3275
Au 19.6337 18.5573 21.732
Au 27.2165 26.4114 32.6115
Au 16.7002 25.0481 30.1341
Au 16.1175 24.5691 23.4966
Au 11.8983 19.1952 37.2102
Pt 34.9381 14.6176 24.5343
Au 24.184 27.127 19.6443
Au 21.7822 37.7483 16.5967
Au 30.913 18.9013 20.0118
Au 25.0574 24.3254 18.4628
Au 29.1571 20.4265 23.3039
Au 31.448 23.4648 20.8786
Au 41.7323 19.7475 25.7912
Au 28.2524 24.3201 14.3412
Au 18.8781 25.4189 23.2338
Pt 37.4131 22.8254 35.4568
Pt 34.6842 14.6019 19.1901
Pt 35.1963 16.877 26.0649
Au 24.6251 21.8802 19.8207
Pt 26.5881 8.6873 28.2437
Au 40.7082 23.6615 15.5619
Pt 32.9646 24.1313 36.5688
Pt 35.4276 15.2943 30.3775
Au 37.8363 14.1857 30.1395
Pt 36.7882 19.9294 31.0719
Au 17.1013 18.8046 42.0799
Pt 11.6863 24.8265 23.1095
Pt 13.8785 15.2801 14.8304
Au 13.087 8.09852 23.9047
Au 12.4889 10.9766 17.562
Pt 20.8139 15.1465 29.1528
Pt 11.7147 11.4631 26.6784
Pt 9.95921 25.6723 24.9834
Pt 19.8255 14.8386 12.6439
Pt 12.4255 13.2086 19.4515
Pt 17.5262 18.2958 29.1841
Pt 11.4386 15.0677 29.1679
Au 13.6025 18.6467 34.9787
Pt 16.1585 15.785 31.9323
Pt 13.2194 28.2165 27.0837
Au 11.9415 16.6591 35.9821
Pt 12.132 26.7578 20.9249
Au 8.11834 23.015 32.291
Pt 12.4015 29.9337 29.2417
Au 9.48218 15.7647 31.0162
Pt 25.352 30.182 35.8263
Au 24.7857 30.9583 40.3255
Au 20.286 32.0326 41.5675
Au 24.8344 31.3001 27.8974
Pt 14.991 35.8104 29.0051
Pt 26.0841 31.8534 38.1989
Pt 18.8264 23.1303 39.3445
Au 8.41093 32.8998 25.8189
Pt 15.4648 31.5356 35.8321
Pt 21.9263 36.8329 30.3798
Pt 28.5284 31.6952 30.8846
Pt 23.5027 29.2974 34.064
Au 25.42 28.9217 32.2744
Pt 28.9813 35.0654 27.8333
Pt 38.483 28.0322 34.647
Pt 28.5078 37.9145 28.109
Au 24.2524 32.6481 25.3393
Pt 33.9717 36.2453 30.0296
Au 35.8148 33.7054 36.5785
Pt 40.7834 27.3666 26.6834
Pt 27.551 22.8002 41.022
Au 21.5254 28.464 32.0197
Pt 20.1901 13.8048 33.9687
Pt 16.044 16.8305 37.9722
Pt 18.0745 16.2479 21.5292
Pt 23.9429 16.5421 38.6541
Pt 22.3283 18.8973 38.27
Au 24.2727 12.3866 29.1352
Pt 16.0952 13.5814 30.3447
Pt 19.9834 9.88751 31.3437
Pt 34.5649 19.5985 37.2136
Au 22.0637 13.5136 26.3298
Au 27.14 6.21356 28.6022
Pt 24.8286 14.7946 32.9987
Pt 30.3216 11.948 30.898
Au 40.9302 19.149 18.9915
Au 14.2898 9.0701 18.3187
Au 27.0092 7.95863 30.8404
Au 32.3178 8.42563 27.483
Pt 28.2015 9.62413 26.4339
Pt 27.476 38.9042 20.3159
Au 17.4758 43.6279 24.7118
Pt 25.7353 39.8627 17.0011
Pt 19.0527 37.7293 21.0403
Pt 17.8545 35.8968 25.1564
Au 27.452 33.741 21.3026
Pt 21.4889 39.2623 25.9468
Au 10.0488 39.1596 23.471
Pt 17.3437 36.2082 19.904
Au 15.1579 36.9596 13.7076
Pt 28.6139 41.5158 23.8409
Pt 29.9448 38.0394 21.3439
Pt 18.7324 38.532 26.3643
Au 20.3338 25.1272 17.3561
Au 27.6957 43.4155 19.7533
Pt 17.8073 31.5704 37.3674
Au 26.99 33.671 13.1556
Pt 36.4076 32.5492 24.2263
Pt 21.9253 36.3315 27.5505
Au 23.8411 24.7018 26.1775
Pt 21.6856 13.0988 11.1981
Pt 19.1415 21.0403 9.63612
Pt 22.4005 14.8003 19.3325
Au 18.5514 6.90139 22.8741
Au 15.2871 9.67737 31.1968
Pt 29.0698 15.7008 12.9291
Pt 20.3848 18.7966 8.95686
Au 11.2314 11.3162 31.3161
Pt 22.8149 10.7132 22.1252
Pt 13.9461 10.965 28.0672
Au 27.7614 10.3595 17.5329
Pt 16.3833 13.5987 17.1248
Au 17.4324 6.89365 28.0525
Pt 22.6278 8.21383 21.06
Au 24.4467 6.20854 21.606
Au 13.3085 11.5953 14.5344
Pt 31.9039 11.0875 24.1412
Au 31.6442 20.1352 27.8088
Au 26.053 14.0566 21.0706
Au 29.2033 19.2446 26.0056
Au 39.3004 14.7269 21.5333
Au 28.2336 25.0758 30.3782
Pt 33.3646 13.7579 29.0016
Au 26.86 21.332 21.6038
Au 22.5893 6.10772 25.526
Pt 33.9692 34.6592 27.8734
Pt 34.5025 11.9469 23.9397
Pt 21.0697 22.3926 40.4849
Pt 29.089 27.8401 36.3834
Au 25.9687 26.8455 30.2032
Au 22.2576 6.80871 28.2856
Pt 36.5736 30.4617 30.9671
Pt 37.386 17.8615 24.7031
Pt 37.3349 21.4534 33.1948
Pt 33.9349 16.3278 28.38
Au 24.4252 28.5043 42.721
Au 25.0403 6.73139 24.3536
Pt 23.0404 37.2476 25.2548
Pt 30.1398 24.5649 32.3986
Au 24.884 26.867 34.2252
Pt 37.4232 17.7002 15.7289
Au 36.1314 37.932 16.7714
Pt 33.0332 18.9872 17.815
Au 33.2575 40.3209 27.8005
Pt 33.1652 19.355 30.0027
Au 30.8069 30.8193 16.8858
Au 26.096 23.8447 21.0931
Au 23.2815 33.8508 15.2017
Au 43.238 25.4388 30.3159
Au 42.3976 25.4071 25.394
Pt 27.9571 23.8378 6.92081
Pt 31.5348 34.1282 26.7573
Pt 35.7856 15.6553 16.8018
Au 32.6592 26.1116 20.7739
Pt 31.8374 14.0734 18.5478
Au 20.3906 36.4208 12.235
Pt 35.8642 19.3688 18.2339
Au 11.9344 33.7181 14.0552
Pt 33.9309 20.6836 15.8536
Pt 29.8644 39.8752 18.9937
Au 14.3513 22.9202 21.883
Au 16.9304 29.5406 22.0639
Pt 13.6397 16.4236 33.0628
Au 25.6437 41.2821 33.5893
Au 23.5606 15.1063 27.8112
Au 15.6435 41.2398 29.2196
Pt 11.7025 21.0871 27.2896
Au 26.9897 28.4996 34.703
Au 16.8584 18.8853 22.0401
Au 16.3221 23.9331 42.2645
Au 17.8174 23.6653 21.3716
Au 11.1767 37.5345 30.5307
Au 16.4645 25.2068 32.8724
Au 14.3782 30.9729 38.2376
Pt 25.1572 19.9266 38.3077
Pt 29.4854 36.5863 30.1986
Pt 20.1628 20.7549 38.3281
Au 22.9716 32.9638 41.3696
Pt 16.1562 19.9677 35.1997
Pt 25.6056 34.7048 34.3285
Pt 15.9163 22.2824 14.9677
Pt 15.1721 32.9224 16.436
Pt 18.9594 12.0421 20.0009
Pt 14.6673 29.0719 15.0871
Pt 19.0395 10.8566 28.948
Au 7.75771 27.8925 18.1913
Au 25.738 16.0911 23.0582
Au 11.4396 38.3216 20.2936
Au 13.8292 26.2713 23.3285
Au 17.8995 17.9503 9.85798
Pt 23.3522 14.6018 22.0819
Pt 16.8941 35.493 15.3678
Pt 19.4049 17.2131 19.3056
Pt 10.3966 31.8469 20.6913
Au 28.3218 15.1799 22.2236
Au 9.58821 36.3895 20.8322
Pt 14.6773 14.7167 18.822
Au 38.6376 34.455 13.5944
Pt 19.6664 14.0814 9.98504
Au 16.6946 42.743 22.1284
Pt 37.9043 32.6176 15.3516
Pt 37.0522 17.1998 31.6527
Pt 33.6194 21.8286 24.0651
Pt 35.7899 28.1605 27.9681
Pt 32.7407 22.1962 34.5593
Pt 35.3806 28.0194 31.0203
Pt 37.8435 28.3067 29.8251
Au 29.5975 19.5211 15.2602
Au 5.64261 23.9782 19.8571
Au 14.6729 19.795 12.2858
Pt 10.9165 16.4996 22.0792
Pt 11.6082 24.71 28.3609
Au 10.8526 24.0831 37.21
Pt 7.18358 22.0952 23.7672
Au 16.0463 33.2801 38.1174
Au 19.315 26.7519 42.3341
Pt 15.9847 34.7484 18.023
Au 20.0857 38.2532 34.4363
Pt 20.4894 36.0977 32.6646
Au 19.597 32.6665 18.3244
Au 23.4567 36.9822 22.5411
Pt 23.5189 41.7989 25.1356
Au 40.2029 31.8472 32.2497
Au 40.3942 36.9037 23.0171
Au 19.9364 6.06019 26.9983
Pt 19.594 13.6691 27.1463
Au 17.4966 9.19234 32.8411
Pt 37.0408 15.1446 23.076
Au 27.3031 7.08891 25.9158
Pt 27.7698 12.4235 22.6765
Pt 18.9748 9.86755 24.8264
Au 41.5253 14.8781 23.2754
Au 17.1451 21.3826 42.8913
Pt 37.734 32.9332 30.9448
Au 36.6062 17.7571 37.347
Pt 30.117 26.4971 39.3765
Pt 19.1617 27.5729 39.0141
Au 39.0996 29.3539 37.1068
Au 35.5125 13.9567 34.5156
Pt 25.9635 27.8742 40.5907
Pt 24.4046 13.9351 10.546
Pt 30.672 11.9238 14.8691
Pt 26.5284 18.6862 10.9481
Au 27.4 21.955 5.15618
Pt 26.5363 16.8323 12.7302
Pt 26.5992 23.2664 9.7895
Pt 31.4664 25.6237 11.4342
Pt 31.4301 33.1015 18.32
Au 37.3564 27.1694 37.2952
Pt 34.0193 30.0799 32.216
Au 34.1801 17.2921 38.7685
Pt 34.6867 25.7654 38.0708
Au 32.8651 14.9609 38.3209
Pt 27.7676 11.9299 31.4049
Au 31.0516 26.4307 29.0197
Au 33.5398 12.2591 33.636
Pt 30.9707 25.9697 36.7925
Pt 25.9674 22.0563 36.7931
Pt 23.5742 22.8693 36.4517
Au 30.3488 14.1132 38.8843
Pt 28.6497 13.3611 29.3901
Pt 34.8708 18.0034 35.0596
Au 32.2376 32.1964 40.0214
Pt 28.5706 32.7901 37.4485
Au 30.71 34.1235 38.5552
Pt 36.2868 29.1405 33.2884
Pt 36.8633 30.5525 28.2782
Au 31.5136 10.5128 32.7873
Au 36.5644 24.0603 40.2908
Pt 34.9238 28.3631 37.4868
Pt 23.5407 28.1401 36.623
Au 30.0493 19.9516 43.201
Pt 34.0359 26.6551 29.3789
Pt 38.8364 29.3761 32.277
Au 26.7308 26.1322 19.7304
Pt 34.8691 19.9433 22.6349
Au 26.0489 11.7355 10.8354
Pt 32.6362 13.8082 23.6515
Pt 31.5322 21.0832 14.0077
Au 28.7527 11.9341 10.5537
Pt 23.6025 17.3945 13.1904
Au 34.851 11.1327 16.0001
Au 35.8188 17.2678 11.2998
Pt 21.6864 20.8021 10.5755
Pt 38.6959 22.1888 22.0189
Pt 30.5788 17.9795 17.3418
Au 16.3968 22.1728 9.63389
Pt 38.1694 23.8239 20.1091
Au 34.1083 14.546 12.3495
Au 28.811 21.653 13.2583
Au 23.0228 19.5638 5.30656
Au 20.3201 15.6413 7.81191
Au 35.7491 10.5126 18.4995
Au 25.599 26.7593 17.2359
Pt 31.4475 20.9205 16.6715
Pt 24.0994 24.409 10.5097
Pt 39.3952 26.1553 16.1684
Au 29.3724 14.566 10.3957
Pt 26.0143 20.6216 9.15124
Au 29.7537 26.3252 6.51642
Au 32.4364 25.5621 6.77382
Pt 29.6954 28.9615 12.5427
Au 10.0278 26.2353 35.6663
Au 22.2968 30.2348 42.3713
Au 28.6879 16.0993 40.048
Au 25.4875 14.6101 40.3449
Au 36.0175 19.0026 39.7345
Pt 24.4745 13.0309 34.9985
Pt 14.6596 21.9581 34.0576
Au 15.4871 38.4152 33.5864
Pt 18.5841 18.3309 34.3979
Au 23.3139 23.4598 44.3436
Au 24.1998 20.8093 43.8574
Pt 20.6118 27.0031 36.4245
Pt 10.9441 32.1305 25.4048
Pt 17.0257 24.8697 36.3694
Au 32.0765 21.635 42.5585
Pt 21.2141 23.5198 38.0243
Pt 28.0535 17.9473 37.8989
Pt 16.1774 39.8095 26.8693
Au 21.7238 27.7107 43.2878
Pt 12.3983 36.0657 25.425
Au 18.4539 32.7864 39.7153
Au 14.514 34.059 35.9251
Au 17.8965 39.6855 28.9279
Au 24.0811 16.3981 41.7295
Pt 20.5721 20.034 33.6415
Au 26.0869 36.251 39.0272
Pt 19.1785 25.3166 37.8954
Au 11.5948 19.9317 15.8281
Pt 19.9461 22.3291 16.966
Au 15.2123 10.7334 16.3298
Au 17.9423 9.27368 15.9459
Pt 22.0024 13.0666 15.7478
Pt 20.8513 17.3644 12.9683
Pt 19.5767 24.4616 12.5217
Au 17.6976 12.9676 12.939
Pt 15.5036 22.5673 12.335
Au 10.5821 27.8838 14.6301
Au 20.9049 23.7629 14.8514
Au 27.9596 19.4313 6.01843
Au 24.812 43.992 25.8263
Au 11.3837 16.5923 14.8062
Pt 26.4179 26.6051 10.145
Pt 22.2612 15.5232 11.4061
Pt 19.5577 16.5065 14.9706
Au 19.3764 39.523 16.5197
Au 24.6674 21.782 4.72258
Au 11.0459 25.1073 14.6054
Pt 23.7974 22.0562 9.43793
Au 24.8726 15.2908 8.1578
Au 34.722 40.5713 25.5936
Pt 23.2874 15.5974 16.8284
Au 32.2666 32.9042 10.3851
Au 35.454 18.9688 9.05841
Pt 31.4493 35.8842 18.248
Au 41.53 25.0514 34.9268
Au 39.3952 17.3304 33.5985
Pt 39.4853 30.5061 15.9279
Au 38.7721 24.2798 11.0539
Pt 29.8117 35.1883 22.2964
Pt 37.6545 28.7248 16.5669
Au 42.4507 32.6152 28.1691
Au 38.5483 35.5242 30.7241
Pt 36.5405 35.0458 28.569
Au 41.8234 32.7519 19.5508
Pt 38.065 23.8327 28.3506
Pt 36.1482 24.034 18.2455
Pt 40.3121 31.1897 27.6621
Pt 34.474 24.101 30.6592
Pt 38.1797 32.8546 28.2332
Pt 37.217 27.3018 25.7805
Au 39.8052 28.1788 14.4072
Au 30.8843 30.4812 27.1139
Au 25.1154 34.8742 20.1409
Au 39.5336 36.1699 25.436
Au 40.7675 32.8345 14.7963
Pt 35.7629 37.6551 22.3189
Pt 40.6729 32.0065 24.0201
Au 33.6698 28.8701 22.2352
Pt 35.3832 25.6458 32.6013
Au 41.5083 18.8676 32.5569
Pt 25.8518 31.31 31.0125
Pt 18.6146 39.6713 19.2386
Au 6.14038 34.0174 26.3152
Au 4.99084 26.8318 26.8355
Au 9.28063 26.3483 16.5697
Pt 7.66434 27.8307 23.1346
Pt 13.9378 17.1815 18.6163
Au 15.8722 42.4811 26.7153
Pt 13.7761 34.4146 26.9261
Au 7.92807 27.63 28.1107
Pt 7.76592 25.1331 23.4174
Au 7.5962 19.8778 19.7148
Pt 9.94239 22.9237 19.8881
Pt 16.3925 28.9983 17.1757
Au 6.10254 28.7041 25.2221
Au 6.43798 22.0148 26.6642
Pt 10.5353 29.8817 24.0672
Pt 14.5549 27.1352 16.839
Au 10.2448 37.5519 25.7283