2057
Atoms. Timestep: 20180
Au 25.056 24.6535 25.4487
Au 27.3708 24.6153 24.0114
Au 27.4496 24.6427 26.8582
Au 22.7318 24.6894 23.9609
Au 22.8279 24.6868 26.9389
Pt 23.6711 26.9634 25.3679
Au 26.4787 26.9349 25.421
Au 23.5742 22.3846 25.3252
Au 26.4375 22.3247 25.37
Au 25.1894 23.1457 27.738
Au 25.1817 26.0397 27.7998
Au 24.9639 23.2259 23.0679
Au 25.039 26.055 23.0899
Au 29.673 24.6378 22.5424
Au 29.8438 24.6213 25.4034
Au 29.8463 24.6451 28.2122
Pt 20.4292 24.684 22.3484
Au 20.42 24.6738 25.427
Au 20.5439 24.6949 28.3883
Pt 22.2725 29.2085 25.2919
Pt 25.0456 29.2745 25.2798
Au 27.8288 29.2448 25.221
Au 22.0784 20.1089 25.1419
Au 24.9077 19.985 25.1583
Au 27.7223 19.9977 25.2411
Au 25.0079 21.6429 30.0217
Au 25.0818 24.4706 30.1307
Au 25.3599 27.5191 30.0741
Au 24.8968 21.8107 20.6801
Au 24.9771 24.6695 20.6598
Pt 24.9942 27.454 20.7508
Au 27.5366 23.3277 29.3989
Au 27.7135 26.2949 29.0373
Au 27.3158 23.231 21.6134
Au 27.3308 26.0746 21.5782
Au 22.723 22.9763 29.1404
Au 22.8612 26.2075 29.3811
Au 22.6443 23.2332 21.5097
Au 22.6604 26.0812 21.5224
Au 28.8234 26.9683 23.8913
Pt 28.9522 27.0106 26.7223
Au 21.2905 26.9597 23.8976
Au 21.373 27.0278 26.8325
Pt 28.7754 22.2813 23.9302
Au 28.7877 22.2664 26.8475
Au 21.2146 22.4007 23.7955
Au 21.2358 22.3167 26.7645
Au 23.7503 28.37 27.7003
Pt 26.6238 28.4495 27.6571
Au 23.6181 20.831 27.5957
Pt 26.4805 20.7734 27.674
Au 23.5662 28.367 22.9924
Pt 26.408 28.3874 23.0219
Pt 23.4609 20.86 22.8443
Au 26.3226 20.8653 22.9182
Pt 31.941 24.6388 21.0117
Au 32.1997 24.5592 23.8856
Au 32.4626 24.7286 26.7118
Au 32.1852 24.3122 29.3948
Pt 18.1266 24.705 20.8844
Au 18.1048 24.6943 23.8077
Au 18.052 24.6818 26.876
Au 18.1892 24.6774 29.79
Au 20.7594 31.4638 25.1259
Pt 23.6178 31.57 25.1334
Pt 26.3629 31.6325 25.0999
Pt 29.1196 31.5924 25.0198
Au 20.6248 17.7859 24.9629
Au 23.4016 17.6328 24.9552
Au 26.1838 17.5553 24.9815
Au 28.9827 17.5583 25.0873
Au 24.7479 20.1275 32.3227
Au 24.496 22.9826 32.4714
Au 24.491 25.9931 32.2393
Au 25.2054 29.1753 32.181
Au 24.86 20.4699 18.2668
Au 24.9009 23.2312 18.2193
Au 24.9591 26.052 18.2638
Au 25.0068 28.8258 18.3056
Au 30.0464 22.6318 30.3506
Au 27.422 21.2915 31.258
Pt 30.1296 26.403 30.3867
Pt 27.2569 25.4916 31.4148
Au 27.9919 28.0708 31.3706
Au 29.629 23.1979 20.089
Au 27.2332 21.8065 19.1552
Au 29.6718 26.062 20.0399
Au 27.3104 24.6262 19.1174
Au 27.3103 27.446 19.1281
Au 20.2308 22.8116 30.4771
Pt 22.3669 21.463 31.5284
Au 20.4207 26.3581 30.7625
Au 22.3516 24.3575 31.4226
Au 22.653 28.0295 31.6202
Au 20.3366 23.2727 19.9721
Pt 22.5399 21.794 19.1065
Pt 20.3273 26.0972 19.9598
Au 22.5896 24.6521 19.0727
Au 22.6544 27.4785 19.1393
Au 30.2212 29.3307 23.6503
Au 31.143 27.0075 22.2748
Au 30.2908 29.3062 26.4965
Au 31.3352 26.9728 25.1988
Pt 31.3782 27.0164 28.0655
Au 19.8664 29.2701 23.7619
Au 18.9746 26.9688 22.2932
Pt 19.8683 29.3284 26.6964
Au 18.9273 27.0157 25.3232
Au 19.019 27.0582 28.2564
Au 30.0535 19.9163 23.6992
Au 31.0006 22.2415 22.3978
Au 30.1189 19.816 26.6065
Au 31.1766 22.2165 25.2739
Pt 31.2459 22.0221 28.0325
Au 19.7118 20.08 23.6597
Au 18.8858 22.41 22.2566
Pt 19.71 19.9911 26.6274
Au 18.8309 22.3428 25.2465
Au 18.8719 22.2872 28.1176
Pt 23.617 29.9643 29.8831
Au 22.1933 30.6941 27.518
Au 26.5866 30.0479 29.8674
Au 25.0601 30.7995 27.5271
Au 27.9264 30.7959 27.4731
Au 23.4393 19.3063 29.906
Au 21.9989 18.5355 27.4136
Au 26.2715 19.1303 29.8371
Au 24.8821 18.3918 27.4629
Au 27.7133 18.343 27.49
Au 23.5273 29.786 20.5689
Pt 22.1686 30.6837 22.8796
Au 26.4094 29.763 20.5714
Au 24.9757 30.7252 22.8525
Au 27.8389 30.7153 22.8028
Pt 23.3948 19.4909 20.4601
Pt 21.9839 18.6174 22.6746
Pt 26.2145 19.4008 20.485
Pt 24.788 18.4847 22.6571
Au 27.6337 18.5089 22.7186
Au 28.8407 20.5265 28.9938
Au 29.2045 28.6398 28.9846
Au 28.6651 20.8364 21.4148
Au 28.7841 28.4045 21.3874
Au 21.0965 20.6288 29.013
Au 21.2748 28.5887 29.1661
Au 21.1321 20.8849 21.3386
Au 21.1743 28.4221 21.389
Pt 34.1473 24.5996 19.5718
Au 34.4749 24.4347 22.3776
Pt 34.6303 23.9656 25.2401
Pt 34.519 23.6311 28.3257
Pt 34.0226 23.5466 31.1859
Au 15.8329 24.6991 19.4232
Pt 15.7544 24.6921 22.2313
Au 15.7143 24.7144 25.2627
Pt 15.6489 24.6023 28.2319
Pt 15.8774 24.6276 31.0501
Au 19.2091 33.7774 24.9582
Au 22.1211 33.9039 24.9513
Pt 24.9193 33.9759 24.9661
Pt 27.6637 33.9993 24.8998
Au 30.4867 33.9318 24.7952
Au 19.1064 15.5037 24.8116
Pt 21.8934 15.2497 24.781
Pt 24.6431 15.1634 24.7353
Pt 27.4822 15.1719 24.8948
Pt 30.3392 15.2134 24.9716
Au 24.4933 18.6181 34.5427
Au 24.0435 21.6538 34.9294
Pt 23.9167 24.6616 34.6668
Au 23.9903 27.677 34.2279
Au 24.8559 30.8181 34.3064
Au 24.8073 19.122 15.8947
Pt 24.8659 21.8718 15.7632
Au 24.9499 24.626 15.7849
Au 24.9311 27.4677 15.817
Au 24.9591 30.2349 15.8726
Pt 32.14 21.954 32.0147
Au 29.6943 20.8559 32.8127
Au 27.284 19.3737 33.5047
Au 31.2033 24.5134 32.0446
Au 28.6554 23.5062 32.558
Au 26.7063 21.9218 33.7976
Au 29.4381 26.2737 33.0292
Au 26.3859 24.6013 33.7113
Pt 26.7111 27.2039 33.551
Pt 31.8567 23.2188 18.6109
Pt 29.5519 21.754 17.6999
Pt 27.178 20.441 16.7314
Pt 31.914 26.0481 18.5459
Au 29.6392 24.6134 17.6191
Au 27.2566 23.1951 16.6543
Pt 29.6614 27.4713 17.6334
Au 27.2963 26.05 16.6706
Pt 27.3449 28.8517 16.6948
Pt 17.7891 22.6953 31.7702
Pt 19.9248 21.4181 32.8802
Au 22.1317 19.9683 33.8054
Pt 18.0332 26.4614 31.9888
Pt 19.7746 24.3263 32.609
Pt 21.8968 23.0171 33.8005
Pt 20.1399 28.176 32.8753
Pt 21.8261 26.0061 33.4114
Pt 22.2386 29.7875 33.806
Au 18.0383 23.2717 18.4814
Pt 20.2735 21.8804 17.5942
Pt 22.5039 20.4904 16.7006
Pt 18.0337 26.1349 18.4963
Pt 20.2588 24.6965 17.5531
Au 22.5521 23.2251 16.6537
Au 20.2876 27.5025 17.5997
Au 22.5914 26.0647 16.641
Au 22.5913 28.883 16.7021
Au 31.5524 31.7207 23.4199
Au 32.6099 29.3961 22.032
Au 33.4562 27.0165 20.6769
Au 31.6255 31.6908 26.2748
Au 32.7142 29.4046 24.896
Pt 33.5902 26.9072 23.3833
Au 32.6259 29.4974 27.869
Au 33.9155 27.2241 26.0865
Au 33.9291 27.2245 28.8037
Au 18.2992 31.5787 23.5888
Au 17.4669 29.2928 22.1381
Au 16.6227 27.0073 20.7906
Pt 18.2922 31.5603 26.5108
Au 17.427 29.3421 25.1294
Au 16.5257 26.9987 23.6841
Au 17.4676 29.38 28.0443
Au 16.5473 27.0266 26.6845
Au 16.6246 27.0301 29.572
Au 31.3299 17.4707 23.5315
Pt 32.33 19.8368 22.1134
Au 33.2175 22.219 20.8498
Au 31.3943 17.2937 26.4832
Au 32.4837 19.686 25.0468
Pt 33.4098 22.0072 23.7057
Au 32.4739 19.4388 27.9826
Au 33.5504 21.803 26.608
Pt 33.3319 21.4586 29.5957
Au 18.195 17.7767 23.4686
Au 17.3563 20.0826 22.1162
Pt 16.5749 22.356 20.7589
Au 18.2148 17.7113 26.419
Au 17.284 20.01 25.0811
Au 16.4708 22.3903 23.6592
Au 17.326 19.9664 27.9722
Au 16.4028 22.3588 26.6135
Au 16.4737 22.2663 29.4344
Au 23.4334 31.5739 32.0711
Au 22.079 32.3214 29.7209
Au 20.6515 33.0447 27.3732
Au 26.4328 31.7717 32.0824
Au 24.9528 32.4651 29.7553
Au 23.5348 33.2177 27.363
Pt 27.7875 32.5278 29.5768
Au 26.3456 33.2474 27.3021
Au 29.2055 33.1875 27.2264
Pt 23.2821 17.6693 32.004
Au 21.8812 16.9925 29.6739
Au 20.4898 16.1799 27.2375
Au 26.054 17.4534 31.9775
Pt 24.7273 16.7575 29.6538
Au 23.3138 16.0152 27.2032
Pt 27.5918 16.6444 29.6077
Au 26.1671 15.9348 27.2334
Pt 28.9911 15.8988 27.3074
Au 23.5049 31.2175 18.0888
Au 22.0402 32.1441 20.4159
Au 20.5984 32.9985 22.6502
Au 26.4102 31.2048 18.0962
Au 24.9089 32.2327 20.3345
Au 23.4761 33.0842 22.6686
Au 27.801 32.1701 20.3705
Au 26.3266 33.1149 22.6592
Pt 29.1269 33.1036 22.6174
Au 23.3521 18.1148 18.0613
Au 21.8856 17.224 20.3011
Pt 20.5452 16.2857 22.5299
Pt 26.1953 18.039 18.1143
Pt 24.7335 17.0779 20.2855
Au 23.2971 16.1713 22.5353
Pt 27.576 17.0896 20.2856
Au 26.1183 16.0986 22.5261
Au 28.9603 16.1285 22.6272
Pt 31.1565 20.042 30.393
Au 31.5522 28.791 30.5941
Pt 30.1068 17.9895 28.8152
Pt 30.371 31.0093 28.7731
Au 28.73 18.7319 31.1429
Au 29.0812 30.5795 31.2626
Pt 30.9558 20.7549 19.8922
Pt 31.1326 28.451 19.8035
Au 30.0093 18.419 21.1951
Au 30.203 30.759 21.1509
Au 28.569 19.3972 18.9699
Au 28.7542 29.8046 18.9029
Pt 18.673 20.5351 30.3694
Pt 18.8614 28.7423 30.4941
Pt 19.5455 18.3597 28.8815
Pt 19.6998 30.8516 28.9416
Pt 20.9689 19.1501 31.2857
Pt 21.0325 30.2627 31.3639
Pt 18.8283 20.9225 19.8203
Pt 18.817 28.4465 19.791
Pt 19.6117 18.6188 21.1472
Au 19.6809 30.7451 21.2371
Pt 21.0583 19.5056 18.9192
Au 21.1363 29.8597 18.9558
Pt 36.2929 24.5006 18.1012
Pt 36.7094 24.1754 20.7549
Au 37.0974 23.8621 23.5663
Au 36.8588 23.4175 26.671
Pt 36.9155 23.3089 29.5106
Pt 35.6 21.2014 30.9018
Pt 13.5351 24.8024 17.954
Au 13.4216 24.7323 20.7559
Au 13.4237 24.7344 23.6235
Pt 13.3506 24.6018 26.5895
Pt 13.2771 24.5837 29.3973
Au 13.5045 24.7152 32.2012
Au 17.7859 36.1391 24.7499
Au 20.6092 36.2317 24.7527
Pt 23.4385 36.2964 24.8232
Pt 26.2326 36.3619 24.7799
Au 29.0103 36.4209 24.6785
Au 31.8301 36.3588 24.6729
Pt 17.6371 13.2593 24.7358
Pt 20.3974 13.0283 24.6581
Pt 23.1326 12.8584 24.6226
Au 25.9666 12.8169 24.6222
Au 28.8162 12.837 24.7094
Au 31.6422 12.8562 24.6921
Au 22.2009 16.1237 37.994
Pt 26.0606 18.818 38.3046
Au 23.748 23.4059 37.2306
Pt 23.46 28.3783 38.9076
Au 23.551 29.4331 36.3503
Au 24.5058 32.3436 36.5286
Au 24.7283 17.7116 13.5408
Pt 24.8093 20.5451 13.4358
Pt 24.8531 23.2633 13.3824
Au 24.9003 26.0898 13.3909
Pt 24.899 28.858 13.3885
Pt 24.9329 31.6321 13.5214
Pt 34.5049 21.8047 33.3605
Au 32.1504 20.3676 34.2192
Au 29.7253 19.2083 35.1035
Au 27.2012 17.8044 35.7546
Au 33.302 24.5211 33.792
Pt 33.25 27.4152 36.2742
Au 28.7302 21.8188 35.8653
Au 26.2039 20.3374 36.0437
Pt 31.223 25.8386 35.3757
Au 28.6892 24.6809 35.2428
Au 23.7287 26.5541 36.6955
Au 28.8384 27.6721 35.2322
Au 26.3947 25.937 36.1661
Au 26.114 28.652 35.8051
Pt 34.022 23.1505 17.181
Au 31.7539 21.8461 16.1713
Au 29.4579 20.4099 15.2747
Au 27.1348 19.112 14.3486
Au 34.1205 26.014 17.0543
Pt 31.878 24.6541 16.1282
Au 29.5464 23.2569 15.1522
Pt 27.1538 21.9024 14.227
Pt 31.8708 27.4908 16.1391
Au 29.5843 26.0837 15.1811
Pt 27.2244 24.6448 14.1735
Au 29.595 28.8901 15.1857
Au 27.2526 27.47 14.2346
Au 27.2766 30.3044 14.3049
Pt 15.3603 22.6909 33.0107
Pt 17.5321 21.5738 34.226
Au 19.5171 19.7742 35.1612
Au 21.98 18.6476 36.504
Au 15.6534 26.5235 33.146
Pt 17.3354 24.3756 33.7969
Pt 19.4816 23.155 35.1041
Au 21.5274 21.604 36.178
Au 17.6986 28.2533 34.1319
Au 19.3594 26.0492 34.5884
Au 21.5627 24.7778 35.9146
Au 19.8341 29.9075 35.0748
Pt 21.427 27.6625 35.4337
Pt 21.8871 31.5956 35.9916
Au 15.6634 23.2994 16.99
Pt 17.9517 21.9024 16.0767
Au 20.2123 20.5252 15.1866
Au 22.4654 19.08 14.3396
Pt 15.7513 26.1663 17.0214
Au 17.9417 24.7452 16.0389
Au 20.2113 23.3102 15.12
Pt 22.5026 21.8937 14.2091
Pt 17.9864 27.5945 16.1369
Au 20.2643 26.1789 15.1175
Au 22.5728 24.6842 14.1945
Pt 20.299 28.949 15.1743
Pt 22.5569 27.5168 14.1969
Au 22.5966 30.2894 14.3406
Pt 32.9371 34.0642 23.2258
Pt 33.9424 31.7713 21.8143
Pt 34.8893 29.4131 20.4816
Au 35.8335 27.0137 19.0786
Au 32.97 34.1195 26.0198
Au 34.0693 31.7937 24.6129
Au 35.0967 29.1618 23.3619
Pt 35.9744 26.664 21.7362
Pt 33.9834 31.9916 27.6707
Pt 35.0586 29.698 26.3089
Au 35.9152 26.1802 24.4497
Au 35.067 29.8457 29.0958
Pt 35.7076 25.7196 27.2913
Au 35.5103 25.5276 30.2161
Pt 16.8802 33.9162 23.3821
Au 16.0001 31.6291 22.0081
Pt 15.1573 29.3251 20.5907
Pt 14.3351 27.0644 19.2765
Pt 16.7868 33.9023 26.2798
Pt 15.9258 31.6804 24.9757
Au 15.0132 29.3708 23.5333
Pt 14.1898 27.0724 22.0885
Pt 15.9074 31.7116 27.7974
Au 15.0114 29.4234 26.4333
Au 14.1412 27.0898 25.0433
Pt 15.0561 29.487 29.2454
Au 14.167 26.9593 27.9412
Au 14.2042 27.0627 30.7394
Pt 32.6598 15.1183 23.3882
Au 33.5796 17.4108 21.9673
Pt 34.5059 19.7357 20.5995
Pt 35.4239 22.0974 19.3528
Pt 32.7269 14.8914 26.3597
Au 33.7627 17.1694 24.9981
Pt 34.7033 19.5065 23.5509
Au 35.608 21.8443 22.2443
Pt 33.8121 16.9198 27.8722
Au 34.9161 19.1694 26.5057
Pt 35.789 21.4426 25.0779
Pt 34.7607 19.0161 29.4343
Au 35.8334 21.1839 28.1013
Pt 35.8049 19.4271 33.0811
Pt 16.6813 15.5176 23.3553
Pt 15.8271 17.7482 21.978
Pt 15.0067 20.0415 20.6798
Pt 14.2646 22.3843 19.3401
Pt 16.6687 15.4234 26.2022
Pt 15.7407 17.6778 24.8486
Au 14.9029 19.994 23.5083
Au 14.1342 22.344 22.1278
Au 15.7758 17.6624 27.6997
Au 14.832 19.9919 26.4178
Au 14.0299 22.3615 25.0323
Pt 14.8442 19.9202 29.2406
Pt 13.9915 22.2899 27.8873
Au 14.0976 22.2638 30.6699
Pt 23.1654 33.2676 34.2618
Au 21.9908 34.0333 31.8687
Au 20.6374 34.8163 29.5273
Au 19.1905 35.4788 27.1433
Pt 26.0106 33.4117 34.4605
Au 24.8659 34.1356 31.9758
Pt 23.5234 34.9162 29.5376
Au 22.0676 35.6146 27.2064
Pt 27.7031 34.1556 31.6631
Pt 26.2556 34.9486 29.461
Pt 24.8514 35.6681 27.1507
Au 29.0962 34.9433 29.404
Au 27.6366 35.6762 27.1057
Au 30.5316 35.653 27.0604
Au 23.2697 16.1013 34.1385
Pt 21.8266 15.3189 31.7516
Au 20.3206 14.5932 29.452
Pt 18.9678 13.8693 27.0481
Au 26.0518 15.8275 34.1523
Pt 24.6184 15.1003 31.7889
Au 23.1603 14.4028 29.4005
Pt 21.7347 13.6317 27.0314
Pt 27.4964 15.0166 31.7566
Au 26.0375 14.3183 29.4419
Au 24.5925 13.5541 26.9932
Pt 28.9118 14.257 29.3926
Pt 27.495 13.5416 27.0977
Pt 30.2801 13.5486 27.0805
Pt 23.4807 32.6489 15.7116
Au 22.0201 33.5459 18.0009
Pt 20.5269 34.4503 20.2369
Pt 19.1419 35.3098 22.4241
Au 26.3636 32.6401 15.71
Pt 24.8602 33.6828 17.9005
Pt 23.4014 34.6108 20.2188
Pt 21.9666 35.3967 22.4301
Au 27.7078 33.6282 17.9217
Au 26.22 34.6704 20.136
Au 24.8014 35.4953 22.4977
Au 29.1136 34.5931 20.172
Au 27.649 35.5178 22.4335
Au 30.4728 35.4621 22.4035
Pt 23.264 16.6724 15.6976
Au 21.8112 15.7653 17.8574
Pt 20.4464 14.8796 20.1521
Pt 19.0504 14.0372 22.4262
Au 26.1424 16.6483 15.6977
Pt 24.6597 15.6331 17.875
Au 23.2359 14.7271 20.1085
Pt 21.8145 13.811 22.3757
Au 27.5296 15.6766 17.9282
Pt 26.0265 14.7029 20.1169
Pt 24.5624 13.7178 22.343
Au 28.9571 14.7633 20.1548
Au 27.3918 13.6837 22.3774
Au 30.3042 13.8041 22.4498
Pt 33.4969 19.6294 31.8375
Pt 32.9478 26.1991 31.0563
Au 32.4598 17.6292 30.2325
Pt 32.6861 31.2609 30.0557
Pt 31.3907 15.546 28.671
Au 31.6855 33.4386 28.4844
Au 31.1402 18.3086 32.6909
Pt 30.2638 28.858 33.0664
Au 30.0198 16.2684 30.9709
Pt 30.2889 32.8339 30.7231
Au 28.6646 17.0132 33.3909
Au 27.6825 29.7919 33.6574
Au 33.1736 20.7363 18.3833
Au 33.3968 28.4957 18.2878
Pt 32.2636 18.3514 19.6453
Pt 32.5243 30.8368 19.5915
Pt 31.3427 16.0951 20.9593
Au 31.5227 33.1426 21.0127
Pt 30.8868 19.3065 17.4867
Au 31.0753 29.8983 17.3882
Pt 29.9546 17.0186 18.7314
Au 30.1488 32.2146 18.7022
Au 28.5493 17.9948 16.5455
Pt 28.7362 31.2624 16.4582
Au 16.1433 20.4225 31.707
Pt 16.4649 28.8792 31.6338
Au 17.0724 18.2602 30.2066
Pt 17.3091 31.0501 30.2203
Pt 18.0174 16.0395 28.6387
Au 18.1817 33.2191 28.6632
Au 18.5616 19.0388 32.5992
Pt 18.6224 30.4717 32.6331
Au 19.3946 16.7993 31.1362
Au 19.5701 32.596 31.0671
Au 20.9543 17.5082 33.5196
Pt 20.7973 32.0265 33.5045
Au 16.4286 20.9358 18.3751
Pt 16.5221 28.4629 18.348
Au 17.2384 18.6163 19.6887
Pt 17.3362 30.7769 19.6334
Au 18.1492 16.313 21.043
Pt 18.1981 33.073 21.0431
Au 18.7387 19.5554 17.4292
Au 18.7957 29.9148 17.4104
Au 19.525 17.1728 18.724
Au 19.6157 32.2156 18.8221
Pt 20.9851 18.1029 16.5387
Pt 21.1074 31.2831 16.5441
Au 38.5603 24.4781 16.6793
Pt 38.6057 25.4703 19.2197
Pt 38.721 25.7047 21.9987
Au 38.7461 25.7702 24.7211
Pt 38.4213 25.6026 27.4063
Pt 38.2716 25.5931 30.0446
Pt 40.7815 21.5979 30.1326
Au 11.3016 24.7832 16.4519
Pt 11.0943 24.766 19.3058
Au 11.0142 24.7192 22.0841
Au 11.0282 24.6848 24.9293
Au 10.9625 24.6824 27.8075
Pt 10.8707 24.7548 30.6485
Pt 11.1885 24.8263 33.4317
Pt 16.3813 38.4723 24.5392
Pt 19.1616 38.582 24.6143
Au 21.9314 38.641 24.669
Au 24.7568 38.6635 24.6164
Pt 27.5672 38.8136 24.5999
Pt 30.2902 38.8445 24.5304
Au 33.0999 38.7601 24.5226
Pt 16.1622 11.0009 24.6155
Pt 18.9158 10.7864 24.5737
Pt 21.6339 10.6264 24.5058
Pt 24.3972 10.4822 24.4859
Au 27.2722 10.375 24.4439
Au 30.1135 10.3488 24.4801
Pt 32.9203 10.4352 24.4614
Au 24.5831 17.0454 36.7137
Pt 24.9163 20.2351 40.3573
Pt 23.8486 20.508 37.6172
Au 23.4876 25.5578 39.1649
Pt 25.4735 29.0691 40.7178
Pt 23.1003 31.1783 38.5184
Pt 24.164 33.8821 38.6587
Au 24.7281 16.3792 11.1909
Pt 24.7599 19.164 11.0978
Au 24.8372 21.8758 11.0449
Au 24.857 24.7072 11.0068
Pt 24.9394 27.4753 11.0062
Pt 24.908 30.2158 11.0457
Au 24.8907 32.9896 11.1953
Pt 33.181 22.5426 35.6155
Au 30.8397 22.9735 34.3452
Pt 29.55 21.7371 38.6753
Au 29.6829 17.2503 37.1183
Au 26.1654 21.7965 38.4326
Pt 35.2704 26.1652 33.0787
Pt 33.8688 24.8939 36.5514
Pt 30.558 23.7172 36.9471
Au 26.1833 23.2366 36.1212
Au 29.1021 18.3951 42.5786
Au 32.4441 27.2424 33.4151
Pt 30.7383 28.2624 37.037
Au 28.8418 26.3152 37.7104
Au 25.6176 22.6499 41.8377
Au 32.1051 29.5231 34.9987
Pt 30.3902 27.1089 39.7823
Pt 25.629 26.3774 41.0349
Au 28.1036 29.0918 37.6124
Au 25.9924 27.2221 38.5157
Pt 25.6036 30.1576 38.1852
Au 36.276 23.1112 15.7181
Au 33.9933 21.7802 14.6111
Au 31.7275 20.3899 13.6757
Pt 29.4554 19.0377 12.8417
Au 27.0894 17.6594 12.0387
Au 36.4568 26.0996 15.6589
Au 34.0979 24.5798 14.6012
Pt 31.8107 23.2151 13.5572
Au 29.4894 21.8517 12.7316
Pt 27.1834 20.5072 11.8967
Pt 34.098 27.4885 14.5891
Au 31.8646 26.0734 13.6968
Au 29.5283 24.7241 12.6967
Pt 27.1895 23.3134 11.8099
Pt 31.8364 28.9121 13.6872
Pt 29.5224 27.5062 12.6974
Pt 27.2225 26.1134 11.7804
Pt 29.5326 30.302 12.7237
Au 27.2369 28.9032 11.8076
Pt 27.2455 31.72 11.949
Pt 12.9402 22.8239 34.2579
Pt 15.0806 21.6541 35.4627
Pt 17.1794 20.7288 36.7707
Au 17.6315 16.5614 39.0996
Pt 18.0944 15.3092 36.6456
Au 13.2408 26.6493 34.4027
Pt 14.9063 24.4766 34.9786
Pt 17.0173 23.3446 36.3971
Pt 19.2528 22.2719 37.6917
Pt 21.5444 20.99 38.7796
Au 15.234 28.3887 35.4447
Pt 16.8988 26.0765 35.8612
Pt 19.0841 24.9608 37.1617
Pt 21.3744 23.7903 38.4271
Au 17.3826 30.0926 36.3794
Pt 19 27.7015 36.7185
Pt 21.1843 26.5654 38.0118
Pt 19.4655 31.7137 37.2553
Au 21.114 29.3761 37.5708
Pt 21.5374 33.3839 38.1808
Pt 13.4022 23.2838 15.4828
Au 15.6416 21.9243 14.5801
Pt 17.9146 20.5247 13.6745
Au 20.2006 19.1156 12.7699
Pt 22.4173 17.689 11.9295
Pt 13.4832 26.1497 15.5183
Pt 15.6393 24.6982 14.5257
Pt 17.9123 23.3043 13.5848
Pt 20.2435 21.941 12.6563
Pt 22.4835 20.5319 11.8624
Au 15.6919 27.5199 14.6103
Au 17.9645 26.123 13.6024
Au 20.2314 24.7068 12.6647
Pt 22.5172 23.3252 11.767
Au 18.0299 28.9505 13.6898
Pt 20.2976 27.5109 12.642
Pt 22.548 26.1097 11.7881
Pt 20.293 30.3312 12.7787
Au 22.5734 28.8787 11.8256
Au 22.5782 31.7084 11.9693
Au 34.2024 36.5468 23.1272
Au 35.1621 34.3225 21.6875
Au 36.1163 32.0814 20.2597
Pt 37.0638 29.781 18.942
Pt 38.1647 27.4141 17.5345
Pt 34.2158 36.6609 26.0037
Pt 35.3308 34.4392 24.5314
Pt 36.341 32.3045 23.1309
Au 37.214 30.0971 21.7708
Pt 38.0748 27.8292 20.4229
Au 35.2327 34.5447 27.4207
Au 36.2885 32.3152 26.0701
Au 37.3069 30.2154 24.6585
Au 37.858 27.9473 23.2613
Pt 36.393 32.4323 28.8718
Au 37.4405 30.135 27.5132
Pt 37.2956 27.793 26.0079
Pt 37.5723 30.2422 30.3576
Au 36.8413 27.7018 28.6777
Au 36.4126 23.5197 32.2489
Au 15.409 36.2792 23.2498
Au 14.5256 33.9781 21.8657
Au 13.6423 31.6273 20.4935
Au 12.8133 29.3395 19.1412
Pt 12.0313 27.0958 17.8292
Pt 15.3803 36.2668 26.0926
Au 14.4544 34.0103 24.7614
Au 13.4996 31.7064 23.4072
Au 12.6439 29.3975 22.0317
Pt 11.8664 27.088 20.6471
Pt 14.4094 34.066 27.5851
Au 13.4682 31.7624 26.2422
Pt 12.5194 29.4628 24.8667
Au 11.7701 27.1287 23.4861
Pt 13.4592 31.8012 29.0163
Au 12.5896 29.3945 27.6886
Au 11.7362 27.0735 26.3147
Au 12.5983 29.5129 30.5304
Au 11.7487 27.0425 29.2023
Au 11.7389 27.1747 32.0403
Pt 33.9679 12.7003 23.1444
Au 34.9338 14.9452 21.8032
Au 35.8275 17.2452 20.3866
Au 36.7635 19.6037 19.0678
Au 37.8084 22.1612 18.0787
Au 33.9772 12.5027 26.1177
Au 35.0745 14.7675 24.824
Au 36.0124 17.0115 23.4324
Au 36.9207 19.261 22.0528
Au 37.8352 21.5043 20.7515
Pt 35.1671 14.5568 27.7355
Pt 36.3306 16.7574 26.4755
Pt 37.188 18.9892 24.9812
Au 38.078 21.3585 23.6224
Pt 36.1443 16.5879 29.3101
Au 37.405 18.7005 28.0088
Pt 38.1204 20.959 26.5365
Pt 37.0705 18.8968 30.7759
Au 38.321 21.0007 29.4207
Pt 37.8843 21.15 32.1671
Au 15.2322 13.2681 23.2276
Pt 14.3271 15.5463 21.856
Pt 13.5477 17.7598 20.4846
Au 12.7489 20.0729 19.167
Au 12.0168 22.4677 17.8684
Pt 15.2074 13.1926 26.1171
Pt 14.2438 15.4475 24.7229
Pt 13.3915 17.713 23.3357
Pt 12.5394 20.0038 22.0006
Pt 11.8 22.3419 20.6573
Pt 14.2915 15.3845 27.5072
Pt 13.3389 17.6492 26.1371
Au 12.4284 20.0099 24.8539
Pt 11.6964 22.3199 23.4337
Pt 13.3682 17.5841 28.9521
Au 12.3795 19.9171 27.7225
Pt 11.6669 22.301 26.3308
Au 12.4546 19.9778 30.6014
Pt 11.638 22.3155 29.0799
Au 11.7144 22.3857 31.9002
Pt 22.9434 34.8528 36.3862
Au 21.7914 35.7284 34.026
Au 20.4687 36.5561 31.693
Au 19.095 37.1974 29.3402
Pt 17.749 37.8352 26.9652
Pt 25.6957 34.8955 36.736
Pt 24.6173 35.7074 34.2129
Au 23.375 36.5704 31.7422
Pt 22.0029 37.321 29.4065
Pt 20.6231 37.9573 27.0769
Pt 27.508 35.5369 33.8622
Pt 26.2039 36.5328 31.6614
Au 24.8125 37.3604 29.3954
Pt 23.395 38.0286 27.0618
Pt 29.0401 36.5585 31.5949
Pt 27.6087 37.3646 29.3481
Au 26.1921 38.1157 27.0069
Pt 30.4376 37.3642 29.2697
Au 28.9854 38.1038 26.9498
Pt 31.7652 38.1005 26.9454
Pt 20.8063 15.6101 35.5069
Au 21.8174 13.5956 33.7963
Pt 20.3365 12.8622 31.4765
Pt 18.826 12.2887 29.1962
Pt 17.4744 11.6292 26.9209
Pt 26.1491 14.0519 36.1496
Pt 24.6467 13.3767 33.862
Au 23.121 12.694 31.5066
Pt 21.6211 11.9368 29.1596
Pt 20.2412 11.3765 26.8852
Pt 27.5011 13.3425 33.8742
Au 25.9934 12.6197 31.597
Au 24.4667 11.8301 29.1757
Pt 22.9934 11.2105 26.8409
Pt 28.863 12.6085 31.5185
Au 27.3534 11.799 29.1985
Au 25.8861 11.0682 26.8296
Au 30.1823 11.8086 29.1522
Au 28.7484 11.0252 26.8624
Pt 31.5548 11.1053 26.842
Pt 23.4748 34.0561 13.3903
Au 22.0067 34.9464 15.5863
Pt 20.5286 35.837 17.8453
Pt 19.0965 36.7567 20.06
Pt 17.723 37.6273 22.2973
Au 26.3595 34.0324 13.3599
Pt 24.8615 35.0694 15.5621
Au 23.4287 36.0004 17.8252
Pt 21.9134 36.8514 20.0084
Au 20.5091 37.7259 22.2991
Pt 27.6557 35.0589 15.5127
Pt 26.2165 36.1136 17.7294
Pt 24.7853 37.0558 19.9702
Au 23.318 37.8081 22.2542
Au 29.0432 36.039 17.7653
Pt 27.5716 37.0601 19.9848
Au 26.1845 37.9003 22.2479
Pt 30.336 37.0654 20.0027
Pt 28.9439 37.9489 22.2428
Au 31.7204 37.9115 22.2409
Pt 23.2357 15.3335 13.3388
Pt 21.8238 14.3707 15.4921
Pt 20.3432 13.475 17.7128
Au 18.9735 12.6103 20.0112
Au 17.5391 11.785 22.2978
Pt 26.1202 15.2298 13.3059
Pt 24.6423 14.2418 15.4612
Au 23.1752 13.275 17.6594
Pt 21.7581 12.3784 19.9665
Pt 20.3453 11.5475 22.2499
Au 27.529 14.2761 15.4675
Pt 25.9974 13.2954 17.6661
Au 24.5606 12.2786 19.9327
Pt 23.0846 11.4087 22.2107
Au 28.9865 13.3418 17.681
Au 27.3891 12.3084 19.9269
Pt 25.8193 11.2583 22.1889
Au 30.2777 12.3212 19.9623
Au 28.712 11.2468 22.1882
Au 31.5561 11.3244 22.2399
Au 36.339 18.032 35.2972
Au 34.251 28.4502 31.4126
Pt 34.8654 17.2554 31.6375
Au 35.1543 31.7165 31.1075
Au 33.8086 15.197 30.0838
Pt 34.0061 33.849 29.7737
Pt 32.6029 13.119 28.436
Pt 32.9321 35.9503 28.3494
Pt 34.4229 20.1032 35.6182
Au 33.5227 30.6229 32.9633
Au 32.5069 15.8427 32.5133
Pt 32.694 33.0962 31.9501
Pt 31.3641 13.8343 30.7822
Pt 31.5671 35.2494 30.628
Pt 28.6136 15.2835 35.4771
Au 30.9503 31.5134 33.2598
Au 29.9792 14.5759 33.1381
Pt 30.1701 34.341 32.8336
Pt 28.4903 13.5964 37.5128
Au 28.5058 32.5127 33.8567
Pt 35.4209 20.6572 16.8864
Au 35.6965 28.6199 16.7382
Pt 34.4662 18.2465 18.1212
Au 34.7488 31.0213 18.0118
Pt 33.57 15.9444 19.3921
Au 33.7823 33.316 19.3684
Au 32.5957 13.7044 20.8614
Au 32.7715 35.6232 20.8183
Au 33.1283 19.3349 15.9211
Au 33.3301 29.9718 15.7828
Pt 32.2254 16.9306 17.219
Pt 32.4587 32.3553 17.1118
Pt 31.3108 14.6758 18.5142
Au 31.4428 34.6552 18.5249
Pt 30.8906 17.9239 15.0465
Au 31.0263 31.3284 14.8819
Pt 29.9663 15.602 16.3265
Au 30.0474 33.6937 16.2646
Pt 28.5718 16.5993 14.153
Pt 28.7465 32.7355 14.0345
Au 13.7495 20.196 33.3724
Au 14.0165 28.9463 32.903
Pt 14.4244 18.2298 31.5194
Au 14.8244 31.1762 31.3844
Au 15.5356 15.997 29.9905
Au 15.7175 33.4183 29.9642
Pt 16.5238 13.7978 28.4809
Au 16.7086 35.6343 28.4436
Au 16.3461 19.0932 34.1889
Au 16.1334 30.6016 33.8541
Au 18.5155 17.1043 34.6637
Au 17.0496 32.8246 32.3983
Au 17.7965 14.5081 30.9618
Au 18.0423 35.038 30.8749
Pt 17.3822 18.1789 36.8816
Pt 18.3865 32.2708 34.7923
Pt 19.4883 14.9677 33.1389
Au 19.3801 34.3951 33.2463
Pt 19.7789 17.0822 37.416
Pt 20.4969 33.851 35.7245
Pt 14.1371 20.9013 16.8586
Pt 14.2307 28.4903 16.8608
Pt 14.9057 18.5883 18.1688
Pt 15.0645 30.8253 18.1345
Pt 15.7485 16.3179 19.5008
Au 15.8708 33.1446 19.4728
Au 16.6166 14.0734 20.8914
Au 16.7709 35.4045 20.9272
Au 16.3947 19.5301 15.9163
Au 16.4517 29.9352 15.9245
Pt 17.1653 17.202 17.2491
Pt 17.2751 32.2788 17.2519
Pt 18.0585 14.8819 18.5754
Pt 18.1548 34.5401 18.6655
Au 18.6752 18.1024 15.0211
Au 18.7468 31.3438 14.9754
Pt 19.4593 15.7574 16.2968
Au 19.5739 33.5991 16.4021
Pt 20.9447 16.6735 14.1379
Au 21.0997 32.6759 14.1531
Pt 40.637 24.212 15.0944
Pt 40.8418 23.6864 18.4545
Pt 39.4401 23.5152 20.7686
Pt 40.3789 23.3518 23.2826
Pt 40.9972 25.6513 26.221
Pt 39.6989 27.9727 27.216
Pt 39.3335 28.0852 29.811
Au 38.0652 25.5555 32.8344
Au 9.00096 24.7422 14.9854
Au 8.83973 24.7569 17.8563
Pt 8.67151 24.803 20.6127
Pt 8.64271 24.8797 23.3758
Au 8.60734 24.8528 26.1603
Pt 8.59426 24.8995 29.1074
Au 8.42211 24.9178 31.9242
Au 12.0052 23.789 38.6779
Pt 14.9642 40.6708 24.3824
Au 17.7471 40.9237 24.4181
Pt 20.4975 41.0241 24.564
Au 23.2869 41.0658 24.5239
Au 26.1129 41.1038 24.5384
Pt 28.8959 41.2189 24.4961
Au 31.604 41.2167 24.37
Au 34.4085 41.1175 24.3036
Au 14.5981 8.7301 24.4778
Pt 17.4354 8.54497 24.3629
Au 20.1235 8.29838 24.3998
Pt 22.9286 8.2684 24.378
Au 25.7911 8.06062 24.3317
Pt 28.6687 7.97222 24.263
Pt 31.4781 8.06532 24.2847
Au 34.2204 8.1175 24.2311
Au 24.6956 14.8733 38.3612
Pt 25.764 16.8226 39.8859
Au 26.9331 12.9289 41.7975
Pt 23.611 22.4347 39.8039
Pt 23.1383 27.3453 41.3337
Au 24.9622 30.6829 42.9186
Au 27.5415 29.6287 42.5098
Pt 25.0673 31.7583 40.2839
Pt 24.7231 15.0836 8.88946
Pt 24.7892 17.8058 8.77796
Pt 24.8101 20.55 8.61255
Au 24.8325 23.3046 8.64846
Pt 24.9009 26.1324 8.66332
Pt 24.9213 28.8563 8.67863
Pt 24.8926 31.6499 8.76417
Pt 24.8302 34.4477 8.97771
Au 35.9228 23.9059 34.936
Pt 31.3915 21.1094 36.865
Au 34.8488 23.0573 39.7004
Pt 28.0368 23.8453 38.0122
Au 33.4407 15.7911 36.2179
Pt 27.2563 16.1047 37.7642
Au 36.3201 29.7479 32.6901
Au 39.4621 28.7386 36.0745
Pt 32.7308 23.2834 38.2353
Pt 31.8455 21.6638 39.9218
Pt 25.7527 24.2348 39.5101
Au 30.8461 17.385 40.7336
Pt 35.7942 26.4952 35.7878
Pt 35.2813 27.7485 38.0703
Au 32.6227 24.1876 40.9651
Pt 30.3267 24.1955 39.6069
Au 25.0493 20.2226 43.0153
Pt 34.2201 29.9971 36.8464
Pt 32.7278 28.4662 38.6758
Au 30.3092 25.5578 42.0472
Au 27.8566 20.9637 42.6564
Pt 31.7456 30.8613 37.3733
Pt 30.0779 29.7394 39.2718
Au 27.8027 26.8165 42.7381
Pt 29.6355 30.3969 35.5831
Pt 27.9539 28.1086 40.2438
Au 27.0974 31.3132 36.0353
Pt 38.5193 23.0226 14.1962
Au 36.2721 21.7953 13.1624
Pt 33.9546 20.307 12.1389
Pt 31.7101 19.0421 11.2731
Au 29.3505 17.6944 10.4904
Pt 27.0638 16.3227 9.67357
Au 38.9376 26.2126 14.43
Au 36.4691 24.6647 13.1959
Pt 34.1709 23.1884 12.0142
Pt 31.8406 21.7821 11.127
Pt 29.5227 20.4952 10.3351
Au 27.0991 19.151 9.5146
Pt 36.3824 27.5014 13.2617
Au 34.1959 26.0235 12.151
Au 31.9265 24.6023 11.1805
Au 29.5352 23.2967 10.3151
Au 27.2035 21.9011 9.436
Au 34.1186 28.9481 12.2135
Au 31.8376 27.4572 11.2605
Pt 29.5255 26.1156 10.271
Pt 27.2316 24.7487 9.43322
Pt 31.8701 30.2833 11.3638
Au 29.5798 28.9194 10.249
Pt 27.2817 27.4788 9.35746
Au 29.4943 31.8059 10.408
Au 27.2523 30.3404 9.39307
Pt 27.1981 33.1572 9.65965
Au 8.35224 21.397 35.4829
Au 10.3651 19.9764 36.7263
Au 13.2675 16.4012 36.6219
Au 15.1371 17.6765 38.3508
Au 21.5318 17.4687 41.7554
Pt 23.2824 15.8715 40.491
Pt 14.5085 23.3976 37.4771
Au 11.9079 26.603 38.3345
Pt 14.8256 20.6918 38.1095
Au 16.9526 22.1397 39.234
Au 19.3851 20.6635 40.4336
Pt 22.3685 20.0554 41.0699
Pt 11.6017 29.0981 34.115
Pt 14.4098 26.2411 37.0524
Au 16.5753 25.0123 38.512
Pt 21.0587 25.5632 40.5622
Pt 21.1641 22.7531 40.819
Pt 14.1102 28.1159 38.924
Au 16.5359 27.8036 37.9501
Pt 18.7345 26.6673 39.3149
Au 23.0097 26.1564 43.7004
Au 16.8288 31.9812 38.6533
Au 18.6232 29.5006 38.7852
Au 20.8857 28.2957 40.1345
Pt 20.6858 31.1248 39.676
Au 22.6691 28.9973 43.4955
Pt 22.6082 32.8029 40.6515
Au 11.1154 23.3032 13.9099
Pt 13.3769 21.9371 13.0304
Au 15.6091 20.5075 12.2168
Au 17.859 19.1004 11.2984
Pt 20.1848 17.6818 10.3884
Pt 22.4063 16.3312 9.56754
Pt 11.2069 26.1878 14.0401
Au 13.3539 24.6982 12.9805
Pt 15.6301 23.3285 12.0689
Au 17.9024 21.9231 11.1781
Au 20.1263 20.5116 10.2508
Au 22.4449 19.1678 9.46999
Au 13.3145 27.5671 13.0928
Au 15.6401 26.1094 12.0901
Pt 17.911 24.6929 11.1562
Pt 20.1911 23.3662 10.2429
Pt 22.486 21.921 9.45848
Au 15.6719 28.9788 12.1533
Au 17.9248 27.5195 11.1214
Au 20.2064 26.097 10.213
Pt 22.4555 24.7414 9.37396
Au 17.9114 30.3477 11.2867
Au 20.2023 28.9627 10.2417
Pt 22.6074 27.4596 9.43573
Au 20.2524 31.8149 10.3841
Au 22.5443 30.3278 9.41727
Pt 22.5433 33.1052 9.61582
Au 35.5838 38.9976 22.9236
Au 38.7036 36.9622 19.9252
Pt 37.4501 34.5272 20.1866
Au 40.9313 32.5832 20.1103
Pt 39.2675 30.0622 17.5849
Pt 40.4835 28.3322 16.2037
Au 35.579 39.039 25.8541
Au 37.719 39.2132 21.2703
Pt 37.6437 34.7027 23.0185
Au 41.8341 30.178 18.7048
Pt 40.3471 28.0635 21.8287
Pt 40.9585 25.7584 20.4727
Pt 36.5329 37.0218 27.3284
Pt 36.6452 36.8713 24.4187
Pt 38.7195 32.6253 24.4845
Pt 39.7075 30.4081 23.1303
Au 41.2427 25.8142 23.3106
Au 37.6054 34.8986 28.776
Au 37.642 34.7966 25.8985
Au 41.087 32.839 23.0626
Au 42.7644 28.1944 23.2571
Pt 38.6861 32.8019 30.207
Pt 38.6991 32.7005 27.3367
Au 39.782 30.4238 25.9329
Pt 39.8193 30.9717 31.712
Au 39.7799 30.5587 28.808
Pt 36.8906 27.5224 31.3576
Pt 13.969 38.6031 22.9688
Au 13.0578 36.3497 21.704
Au 12.1774 33.9723 20.3886
Au 11.249 31.6783 19.0102
Pt 10.4049 29.3468 17.7103
Pt 9.77142 27.0863 16.3924
Au 13.9439 38.5524 25.8951
Pt 12.9572 36.3453 24.557
Au 11.9662 34.0549 23.223
Pt 11.062 31.7046 21.916
Au 10.2807 29.4286 20.5145
Pt 9.57931 27.1206 19.1937
Pt 12.9504 36.3852 27.3733
Au 11.9224 34.1475 26.0309
Au 10.9537 31.8023 24.7134
Pt 10.1347 29.4885 23.3826
Pt 9.49261 27.1681 21.9757
Au 11.9723 34.1305 28.836
Pt 11.0583 31.6726 27.5537