2057
Atoms. Timestep: 20678
Au 22.0515 31.6335 16.3815
Au 21.2179 7.49175 23.3364
Au 19.8599 13.909 27.2759
Au 26.8587 20.0782 23.8022
Au 25.1054 24.0005 32.3659
Pt 19.8898 32.1047 31.5337
Au 21.9418 18.418 9.07424
Au 17.6956 24.5037 16.6809
Au 27.0808 26.6245 21.7297
Au 27.4696 23.6745 17.263
Au 22.1705 27.6416 31.6592
Au 24.0278 28.8043 11.7846
Au 22.4157 28.1849 28.7625
Au 21.1597 30.7945 21.4782
Au 21.3427 21.6614 27.9922
Au 29.8679 35.5919 13.1278
Pt 14.7323 17.2351 14.8624
Au 24.9442 33.9917 26.2172
Au 28.3887 18.3242 25.5528
Pt 16.4106 38.9274 19.2513
Pt 13.7863 38.2171 26.1479
Au 24.7277 20.4978 28.2208
Au 30.2904 28.0242 18.994
Au 17.0752 28.0373 21.1
Au 25.1204 7.27186 26.3759
Au 21.5754 10.348 23.9776
Au 21.811 24.1472 25.6322
Au 25.2759 19.3223 30.8913
Au 25.226 36.5064 11.5307
Au 23.4072 29.34 17.4292
Pt 24.1781 39.3951 31.2187
Au 30.1217 24.87 29.6138
Au 20.0593 18.3928 30.9616
Au 8.16123 29.7593 15.494
Au 29.0295 30.0323 22.8132
Au 20.49 21.6649 24.8853
Au 27.0122 22.4913 14.2768
Au 26.2404 26.5739 6.60882
Au 19.1805 38.5175 15.1624
Au 27.954 22.5355 24.8538
Pt 32.2387 34.075 20.8989
Au 14.0235 33.1666 14.2351
Au 26.9656 19.4751 20.8408
Pt 39.2893 28.2361 20.7721
Au 26.1761 12.7458 31.4022
Au 23.2583 24.7201 15.8565
Au 25.8492 24.8249 14.9788
Au 19.6416 33.8856 24.2514
Pt 19.4018 34.0046 27.0129
Au 24.9465 11.419 29.1603
Pt 12.4264 12.913 22.619
Au 19.5777 27.8586 8.52933
Pt 17.7655 36.68 19.3341
Pt 14.6533 21.7108 16.2203
Au 24.6483 18.2843 21.4961
Pt 35.2432 18.0033 12.7999
Au 24.6842 37.3764 20.0416
Au 23.7741 15.7695 22.7966
Au 28.8922 24.7783 22.8404
Pt 16.0183 26.9367 16.8515
Au 20.5873 31.2261 13.8515
Au 12.8753 31.5979 16.1322
Au 25.363 22.7932 19.5579
Au 19.4546 31.3662 11.0481
Pt 12.8525 23.5174 17.4882
Pt 17.9386 27.6491 28.4997
Pt 15.9182 27.0036 30.4015
Au 25.2026 20.1758 15.3184
Au 19.0054 28.1738 13.9784
Au 19.2802 30.5986 23.4957
Au 29.8673 23.0247 18.7328
Au 20.9378 23.6276 22.7983
Au 24.1206 27.5964 22.0193
Au 21.0361 35.1376 17.8939
Au 20.9379 20.2113 33
Au 25.6042 31.7546 8.5628
Au 6.09719 31.7357 25.3525
Au 35.8815 29.9562 8.71399
Au 24.4724 38.836 17.6169
Au 25.2525 13.7038 21.5486
Au 20.73 26.1866 23.903
Pt 33.8394 32.3274 26.6454
Pt 41.4606 24.5448 29.9342
Au 20.1353 20.176 22.3374
Au 17.527 31.7955 18.1803
Au 23.5772 16.1587 8.53165
Au 25.6653 26.633 11.0569
Au 30.3645 38.271 13.4709
Au 36.1185 38.3441 14.1597
Au 17.466 26.2002 19.0193
Pt 17.9595 13.4176 33.5621
Au 17.4254 17.4379 31.202
Au 28.8392 31.0371 25.4666
Au 20.3525 36.6217 20.3255
Au 24.3625 34.1588 12.5621
Pt 31.4132 19.0855 10.3613
Pt 12.4942 32.4047 23.1617
Au 24.8337 38.6191 13.0494
Au 26.3433 31.415 24.4686
Au 24.801 26.8385 32.8513
Au 28.2602 33.8699 14.8907
Au 27.2626 8.31465 33.3476
Au 26.3458 29.4601 15.3329
Pt 32.5481 23.522 19.7258
Au 23.9111 37.4183 15.2369
Au 23.6966 25.4885 7.10077
Pt 20.1124 25.7833 32.1695
Au 21.2969 15.3769 24.2112
Au 19.2802 28.6276 11.1531
Au 27.4794 25.1687 25.3889
Au 23.1173 32.7181 9.45486
Au 23.1524 23.2507 21.2043
Au 22.7552 20.4472 26.0462
Pt 32.4171 13.1825 28.4362
Au 26.1114 32.4393 13.9246
Au 15.1509 22.6214 20.5501
Pt 17.4023 17.9181 37.7951
Au 27.6034 18.6428 8.00169
Au 22.6678 42.4358 20.1847
Pt 10.7584 30.6284 17.8286
Au 27.7057 23.2795 7.99703
Au 28.6843 21.1418 31.6228
Au 16.2864 22.6427 32.6824
Au 27.6351 25.3532 28.6426
Au 30.719 22.5826 21.4876
Au 19.3876 28.3735 25.1261
Au 26.4058 14.8766 29.3549
Au 23.1342 22.3236 23.8761
Au 22.9355 6.75773 28.0447
Au 13.879 34.4971 16.7535
Pt 17.463 32.2605 27.9125
Au 28.8348 16.2078 7.98926
Au 29.1364 39.6818 15.4732
Au 23.0963 31.0987 19.4426
Pt 34.9767 36.2766 15.4234
Pt 31.5836 24.1176 14.336
Pt 36.1848 21.7843 14.5843
Pt 20.7793 9.35353 21.4829
Au 9.51568 33.1574 18.4582
Au 27.4023 18.8348 33.1239
Au 24.0145 6.68707 23.7419
Au 25.5225 21.282 12.2392
Au 27.9427 28.987 20.3932
Au 20.5727 24.5083 16.3913
Au 22.0024 31.5206 24.128
Au 21.2622 36.7318 15.605
Au 23.3563 41.2464 17.8476
Pt 36.2935 25.2431 19.0628
Au 20.7154 30.4046 8.8273
Pt 31.2087 16.1631 19.405
Pt 37.4259 34.901 24.7617
Pt 26.7827 23.0497 34.6218
Au 17.6206 36.3526 11.6268
Pt 13.638 24.3785 21.8427
Au 24.2538 22.8283 9.79937
Pt 25.6438 20.7257 35.0274
Pt 17.2985 30.1127 34.5103
Au 9.1841 29.3913 19.654
Au 25.6868 34.8772 19.2376
Pt 20.7861 35.5001 28.7646
Pt 25.2404 29.3669 32.0401
Au 22.0678 30.8147 11.2692
Au 17.8384 26.5853 23.6238
Pt 18.4806 16.1553 20.1534
Pt 14.0158 16.0588 20.1361
Pt 36.7299 19.3889 23.17
Pt 31.8796 17.6059 29.7171
Au 26.1587 16.1074 26.3886
Au 27.9135 19.5285 29.462
Pt 25.6996 34.6562 31.0764
Au 19.6067 23.5928 27.2767
Au 22.1843 28.6058 20.2348
Au 18.5185 22.3758 9.90608
Pt 25.0402 12.7397 11.7861
Au 30.8242 39.655 17.7945
Au 32.1673 36.7218 12.0142
Au 28.9694 20.9609 7.19182
Pt 33.9242 15.3611 28.6049
Au 27.5791 20.6226 26.9717
Au 25.6443 26.7463 24.2006
Au 21.2538 10.4837 26.9915
Au 23.0887 18.2641 27.7193
Au 11.1601 34.238 16.3929
Au 20.0195 24.9448 18.9715
Au 25.1801 24.4839 29.5491
Pt 31.9529 29.8708 34.305
Pt 34.8633 26.8893 22.83
Pt 27.3536 16.3686 14.6556
Pt 34.2192 15.1083 15.7675
Pt 40.8434 23.1201 20.763
Au 30.673 23.0529 24.1605
Au 39.4669 24.819 12.5632
Pt 34.8548 26.9146 17.4363
Au 27.2274 34.6469 12.2899
Pt 35.5361 24.9998 15.2974
Pt 12.8806 25.7407 24.0367
Pt 16.0693 26.3756 34.8456
Au 25.3272 25.3063 35.2165
Pt 17.4169 25.5796 32.2969
Pt 22.672 31.9444 37.9982
Pt 18.5332 25.6975 36.3173
Pt 17.0117 26.702 38.3497
Pt 17.6587 32.9751 32.8304
Pt 12.0144 31.762 28.5857
Au 17.0894 37.2568 14.047
Pt 16.3046 23.2786 11.4953
Pt 15.92 20.0357 19.6463
Pt 14.6143 29.1108 21.6332
Pt 32.5894 19.1582 12.7517
Au 22.0766 38.85 13.7934
Au 19.1279 19.6995 10.4497
Au 11.2913 32.9748 13.9984
Au 26.0889 40.9048 17.0744
Au 27.3013 12.7342 10.2034
Au 24.7022 32.8272 28.8157
Au 28.4879 36.792 15.2504
Au 13.1869 40.6986 27.1281
Au 33.2674 27.5158 26.1964
Pt 42.2862 25.3837 21.0626
Au 19.0203 32.712 21.6948
Au 30.3577 33.4327 25.6583
Au 26.93 28.8851 25.7877
Au 18.9687 25.2082 9.57043
Au 14.6483 36.7901 18.6629
Au 21.3923 21.089 9.51325
Pt 12.2204 28.2125 36.0732
Au 14.3174 26.9646 9.90469
Au 17.9207 30.0004 9.10781
Au 20.6238 40.9353 18.6066
Au 20.7395 23.8818 29.7804
Au 19.0321 16.1885 25.5709
Au 29.4816 24.0598 26.8954
Pt 30.5586 13.8973 18.0569
Au 23.9026 30.7377 22.2383
Au 26.3138 28.9353 17.9499
Au 22.6424 20.5201 21.4652
Pt 36.8594 25.6091 13.0659
Au 25.5329 18.8898 26.1246
Au 27.6138 12.2645 29.1647
Pt 32.7632 21.4138 25.1216
Au 32.337 32.6785 9.43055
Au 25.6719 13.1995 27.0678
Pt 14.1373 23.3592 24.1614
Au 25.9463 17.3431 23.8946
Au 10.0944 25.0088 14.0039
Au 22.7121 37.8231 11.3867
Au 21.8385 25.9342 20.9216
Au 24.4661 27.1881 16.0634
Au 17.7318 23.5751 19.9546
Au 23.7932 34.4078 15.3459
Au 18.5941 20.9881 26.8706
Au 18.613 30.301 20.3725
Au 28.6831 13.2553 24.514
Au 22.7738 24.3174 18.6403
Au 23.1797 26.81 25.5094
Pt 29.1134 32.4109 28.1696
Au 20.1387 31.4984 26.1581
Au 23.5245 20.9093 32.4673
Pt 27.9492 24.5301 36.4846
Au 30.6399 6.72642 26.8895
Au 21.0778 29.1041 15.8474
Au 22.7068 6.78711 20.952
Pt 30.9988 20.4678 33.0629
Au 26.0917 14.499 24.0969
Pt 25.2405 11.0793 22.1767
Au 27.9541 9.46665 24.7928
Pt 14.6869 13.6969 21.1306
Au 15.6018 15.1575 13.1724
Au 19.045 27.0398 16.572
Au 22.3364 23.2785 7.94672
Au 18.7259 35.4289 16.3821
Au 22.0859 28.2073 7.43277
Au 14.1844 38.9931 17.2116
Au 29.3059 25.6151 14.6361
Au 25.4677 42.0833 19.5896
Pt 14.7541 33.8916 29.0632
Au 10.6857 16.5378 14.9329
Au 20.3956 26.668 29.5929
Pt 20.417 18.2348 20.4283
Pt 31.4036 10.8045 20.5052
Pt 23.4526 14.0912 18.1721
Au 27.5606 37.4837 12.8172
Pt 35.233 13.3669 17.7885
Au 23.3396 17.3221 25.1813
Au 24.6084 7.1729 18.9085
Pt 33.1578 22.202 31.6406
Au 28.9494 29.6968 27.8503
Pt 30.9313 16.217 34.8412
Pt 23.0818 29.3484 33.6988
Au 24.4737 16.4975 30.8521
Au 24.8014 18.5475 33.6427
Pt 34.2231 31.1105 16.9173
Pt 38.1342 25.8927 29.0983
Au 23.6664 29.3154 14.5268
Au 22.0717 33.323 27.5223
Au 21.1188 15.8938 21.5238
Au 9.11708 34.4227 20.8414
Pt 9.41901 23.3636 31.3575
Pt 13.2715 27.4848 31.4233
Pt 8.83969 16.3828 24.1024
Pt 15.4939 28.767 28.1795
Pt 15.7991 19.5367 25.5141
Pt 14.8778 18.378 28.1651
Pt 19.2638 25.3019 14.2314
Pt 12.1286 36.1954 25.9157
Pt 15.2633 21.5274 13.6
Au 17.4821 43.2032 21.6472
Pt 11.2185 17.3052 24.6162
Au 21.3379 25.7974 8.4087
Pt 31.935 23.2315 17.0379
Pt 42.1203 24.7445 25.7884
Au 31.3281 31.1212 26.9191
Au 32.0549 22.6852 28.8092
Pt 36.9228 18.4562 25.7871
Pt 32.2123 14.8937 30.5636
Pt 16.9006 26.3981 14.457
Au 16.4811 33.3265 12.9916
Au 23.8602 19.2577 13.1149
Pt 12.4966 29.4543 26.6894
Pt 9.68954 28.7033 35.3931
Au 9.75783 21.6189 18.75
Au 24.9283 18.4965 8.43198
Au 20.309 21.1827 30.4886
Pt 13.392 37.1005 23.676
Pt 30.6999 38.0728 28.866
Au 16.2357 34.8806 15.2181
Au 23.7818 35.6599 22.6348
Pt 24.7639 9.76579 17.7237
Pt 22.4976 13.6813 11.9879
Pt 7.03095 21.0436 24.942
Au 13.9106 8.94136 23.7024
Au 38.705 13.9491 20.5503
Au 25.4231 19.8605 18.41
Au 8.00022 18.1043 31.0679
Pt 22.8693 26.6871 38.6221
Au 25.3343 39.8848 33.7588
Pt 15.5097 31.107 32.8239
Au 30.6953 23.0127 31.4008
Au 25.3142 21.6324 25.4654
Au 36.5754 13.5509 15.4975
Pt 22.9825 19.5532 16.7101
Pt 28.1185 12.8971 17.5717
Au 26.1459 33.9488 16.6911
Pt 20.7288 20.1931 18.6009
Pt 32.9669 20.6018 17.0055
Pt 36.9864 21.6285 28.573
Au 28.8551 14.082 38.3883
Au 28.4169 11.5688 26.7223
Au 23.7052 22.9297 27.447
Au 26.3072 21.9214 29.8279
Pt 30.1993 25.2152 35.0068
Au 23.3143 25.2014 23.1912
Au 30.0808 25.3709 20.1264
Pt 31.5747 28.5629 38.9709
Au 16.3206 20.6539 22.366
Au 18.8748 23.3184 31.8855
Au 28.2332 14.4109 27.1608
Au 27.5519 27.9615 41.1924
Au 22.9991 20.1002 35.201
Pt 42.2068 18.6348 21.8005
Au 15.1885 29.5309 10.1109
Au 27.7794 9.38213 28.9493
Au 28.1865 27.7659 11.3821
Au 45.023 27.4216 24.0448
Pt 30.97 21.2128 12.0291
Au 21.1867 23.6772 10.4471
Pt 30.2268 20.7948 16.9684
Pt 36.796 31.3394 15.9596
Au 19.5178 17.065 10.0345
Pt 27.2643 27.4162 8.85862
Au 19.7647 32.8188 17.1256
Au 31.9195 40.1176 15.4157
Au 26.5036 38.7989 15.2474
Pt 20.4048 25.665 39.1533
Pt 14.4373 29.9859 35.0014
Au 27.5922 26.6151 18.9725
Au 17.7307 20.526 31.5927
Au 21.5066 16.0998 27.004
Pt 11.7278 22.7099 30.1686
Pt 20.0793 18.5183 38.1517
Au 20.8105 26.6457 26.8213
Au 27.1366 34.2194 21.5236
Au 21.9439 28.6878 23.3002
Au 18.8254 24.0274 24.5643
Au 16.677 25.3811 40.7181
Pt 22.0381 28.6491 36.9751
Pt 21.8633 36.0957 34.0233
Au 16.0966 31.9049 15.6791
Pt 18.6443 36.7173 24.2607
Au 19.3247 17.391 23.1102
Au 16.5924 28.5448 12.2248
Pt 9.28011 26.7326 19.1373
Au 28.6333 28.3829 6.71532
Au 37.8365 37.3759 18.9708
Pt 16.9754 23.8462 13.919
Pt 11.7331 27.2377 15.001
Au 21.543 33.4797 12.1276
Au 28.2394 34.6145 9.79331
Pt 25.716 40.8722 21.9787
Pt 23.8855 17.6692 10.8872
Au 40.3313 22.6248 14.183
Pt 37.1487 29.8481 20.0008
Pt 32.0679 37.9495 26.6066
Pt 34.5619 27.0466 13.3903
Au 28.5763 33.0285 23.5224
Au 27.3179 26.8035 16.2461
Au 28.1145 33.0572 19.2065
Au 28.5637 35.2495 17.6744
Pt 29.8874 32.5861 16.9546
Pt 32.92 31.4608 29.2351
Pt 39.5268 17.5942 26.2317
Au 21.1041 32.8947 19.5993
Au 22.7274 13.1366 27.7309
Pt 31.8609 31.8659 36.9769
Au 32.1679 23.758 26.3177
Pt 8.43856 30.7758 24.6841
Au 4.91534 24.801 23.7145
Pt 11.3653 19.4761 18.6885
Pt 13.9407 31.8304 21.0512
Pt 20.2817 21.5155 12.0428
Pt 15.1426 26.9897 23.2237
Au 26.6597 34.9788 24.1817
Pt 9.53266 23.6558 23.8744
Pt 7.58558 27.6773 21.1165
Au 18.7332 34.2049 19.3734
Au 18.1465 32.7168 8.96709
Pt 15.3383 29.6038 30.6836
Au 16.7328 29.2647 23.7954
Au 18.0125 22.2751 29.3715
Pt 34.0537 22.7386 15.5763
Au 24.7171 24.3067 25.3466
Pt 31.7755 21.4651 14.7253
Pt 35.5333 25.4861 10.8975
Pt 39.4805 14.872 24.2871
Au 21.5139 26.6593 14.8522
Pt 34.2435 13.1016 20.1585
Au 28.6002 31.028 14.3583
Pt 30.6479 14.1327 32.636
Au 27.5895 24.1958 20.314
Pt 40.0662 22.6541 30.9106
Pt 34.7883 23.2693 25.0853
Au 27.4455 25.1058 12.6012
Pt 33.2024 14.8374 18.2712
Pt 16.4066 9.94035 29.4778
Pt 14.5187 16.3443 30.6107
Pt 16.8992 12.8207 22.7788
Pt 7.51035 25.5466 23.3336
Pt 17.2529 14.682 27.0228
Pt 8.35707 19.8913 27.8643
Au 5.00193 24.8509 31.122
Au 32.4688 8.46416 28.0178
Au 17.5448 28.9156 18.0406
Au 6.72476 18.1023 23.671
Au 9.93354 27.012 38.0154
Pt 15.4792 17.0748 33.0525
Pt 13.0713 21.3493 35.8199
Au 15.9872 25.1086 25.1168
Pt 20.469 29.6356 32.9458
Au 21.555 22.9845 32.4974
Au 24.5037 33.1083 23.5791
Au 26.4611 29.1063 22.8347
Pt 24.3688 31.5749 34.2611
Au 24.5699 27.2566 30.0199
Pt 21.1801 34.7719 31.4455
Au 19.745 27.719 19.3671
Pt 36.5206 23.9776 27.4839
Pt 27.224 33.5103 37.5411
Pt 25.4828 35.6581 37.4368
Au 28.8667 29.1322 16.7127
Au 25.3579 25.1572 17.8361
Au 25.7094 31.7751 18.8796
Au 22.7411 35.2916 20.1489
Pt 13.8889 14.8529 32.7249
Au 23.963 15.5903 28.2046
Pt 20.1175 11.7583 34.0667
Au 23.5172 12.8057 23.5057
Pt 20.2937 14.4499 33.6015
Au 21.4031 12.7718 25.2894
Pt 25.5523 9.44446 20.1588
Pt 21.0399 8.98467 29.4456
Au 31.967 7.54766 22.7932
Au 25.2045 29.4357 20.3095
Pt 32.7917 14.9092 26.1833
Pt 33.89 27.5936 29.0158
Pt 32.5442 18.2997 34.1824
Pt 28.9147 36.6564 22.4492
Au 29.4433 41.4246 23.1278
Pt 16.447 40.2015 21.5673
Pt 11.0316 29.8298 15.2029
Au 23.483 33.4552 17.9997
Pt 35.4061 33.7732 16.6431
Pt 23.8254 39.9781 20.3704
Pt 22.2798 32.6858 30.2843
Au 24.3504 29.2921 24.5118
Au 27.6538 36.8421 19.8559
Au 24.2198 27.229 19.0286
Au 21.1912 33.9176 14.9521
Au 25.3949 26.1804 27.2033
Au 20.6174 33.55 9.52854
Pt 12.1961 22.7588 20.0884
Au 29.6023 20.4096 23.8823
Pt 16.5442 16.4648 28.827
Pt 13.1712 15.7646 22.6447
Au 42.6605 15.987 21.6814
Pt 17.1631 10.5703 21.3041
Au 20.3991 19.0507 28.1338
Pt 18.9285 11.4247 26.1283
Au 31.0878 37.5542 15.9408
Pt 21.6959 15.9568 18.8888
Pt 27.4101 10.1954 17.9886
Au 27.7382 21.5371 19.2366
Au 21.965 29.3231 26.0082
Au 23.516 26.3673 13.1215
Pt 38.734 27.0707 33.6698
Pt 37.2816 26.1414 31.6581
Au 29.9127 27.5198 21.7936
Pt 29.335 38.6715 30.9964
Pt 35.5253 24.364 36.0768
Au 34.1538 29.4315 22.3144
Au 36.2205 28.6001 37.4811
Pt 28.0308 33.9749 32.0788
Au 22.2193 11.4664 29.7743
Pt 32.6558 29.346 31.0709
Au 29.779 26.0455 32.2459
Au 31.0628 20.439 29.9925
Au 22.0356 38.484 18.9812
Au 15.7537 41.0861 17.8089
Pt 35.6431 20.1351 16.8089
Pt 31.0155 29.979 9.50048
Pt 31.4752 19.0165 25.3066
Au 22.9902 35.2666 10.4044
Pt 28.498 15.8755 24.2174
Au 30.4182 31.4114 7.31333
Pt 18.6807 18.243 18.5306
Au 27.6722 33.7746 26.4527
Au 28.6134 6.9511 21.8588
Pt 29.5317 22.9609 10.2434
Au 24.5167 28.866 27.1945
Pt 10.6277 29.3271 31.1028
Au 23.985 22.4724 14.3453
Pt 11.6158 27.9673 19.4388
Pt 16.6584 10.2448 23.9278
Au 19.0782 25.384 21.5426
Au 21.494 28.6908 12.9404
Pt 19.0861 39.1092 20.0981
Au 26.2696 11.8098 24.6541
Au 27.4234 25.4669 33.4498
Au 22.5737 19.7054 29.952
Pt 16.1757 37.1918 31.9485
Au 21.7068 23.9525 13.4478
Pt 9.61928 22.7716 21.3213
Au 32.6796 27.389 20.7686
Pt 9.89904 32.7329 22.9269
Au 21.831 26.8927 17.6661
Pt 15.9154 40.2579 26.1093
Au 18.5084 35.3142 9.31847
Au 8.04268 31.9132 20.603
Au 25.5151 34.1277 9.99587
Au 17.8832 41.5092 19.5247
Pt 32.531 12.0467 18.3268
Pt 32.4577 27.7235 9.3819
Au 43.9972 22.6612 26.7693
Pt 33.3259 25.4091 24.4402
Pt 30.1604 16.7866 14.3499
Au 17.7034 19.2694 29.185
Pt 33.2531 23.1996 22.8196
Pt 35.0607 30.0502 30.3513
Pt 36.2413 28.2045 33.0457
Au 18.0116 26.1998 11.8892
Pt 16.6209 31.2071 22.1047
Au 16.4103 34.5556 17.958
Au 7.75163 19.6872 18.4355
Au 20.6545 22.4943 20.2385
Pt 11.8245 22.6583 33.2517
Pt 19.9983 24.5091 34.5097
Pt 16.593 27.7074 25.9415
Pt 15.395 25.9147 20.7253
Au 33.2831 38.1782 14.1553
Au 30.0455 32.35 21.2295
Pt 33.9506 37.58 24.7456
Pt 29.5996 35.0046 20.4719
Au 38.4306 32.5987 33.6635
Pt 10.7748 19.5577 26.8878
Pt 16.7112 15.1415 24.3449
Pt 27.1548 16.7007 35.3177
Pt 20.1115 9.42802 18.9175
Au 17.7106 9.16626 16.5094
Au 18.07 7.0684 26.9722
Pt 36.9027 17.1722 28.1997
Au 18.2951 19.8457 24.3118
Pt 34.0872 19.1166 36.1874
Pt 20.0848 22.833 39.754
Au 18.5696 18.7838 33.4845
Pt 29.7929 26.327 39.7109
Pt 30.5113 34.2821 32.8877
Pt 25.1646 27.3607 37.2263
Au 17.9171 30.7805 13.2584
Pt 24.4371 15.1775 11.0239
Au 18.762 33.8538 11.6566
Au 31.6614 12.2537 13.4039
Pt 31.8283 26.9528 13.7363
Pt 33.4191 38.0955 17.2424
Au 44.2185 27.2822 21.1847
Pt 29.7611 16.0952 30.4093
Au 23.2507 31.9475 13.8236
Pt 38.6978 17.8136 29.9915
Au 26.7236 16.2054 21.5216
Au 28.8967 27.0289 26.9095
Pt 36.1004 15.3362 30.1296
Pt 34.3325 26.0785 34.1615
Pt 30.3735 30.9497 38.9762
Au 22.4034 34.273 24.918
Au 40.6233 19.066 31.3012
Au 21.7657 33.5511 22.2075
Pt 20.6069 37.3124 30.9
Au 23.7063 14.6158 25.5861
Au 25.5347 29.901 41.2811
Au 31.5083 26.1936 27.7604
Pt 21.6441 39.7559 30.6723
Pt 36.2366 19.4876 34.8308
Au 27.2995 17.1547 30.8382
Au 23.3047 22.4237 30.1488
Pt 27.3847 26.4658 38.4494
Au 36.3543 21.753 10.0263
Au 40.6579 16.8605 17.3167
Au 33.0186 28.831 18.3219
Pt 31.9461 14.875 13.9424
Au 31.4553 30.4183 16.5972
Au 16.2293 34.3339 10.429
Au 26.1914 36.7244 17.1248
Pt 38.3758 23.6227 19.0781
Au 26.0996 24.0114 22.9603
Pt 34.6967 21.8892 18.6151
Pt 33.3398 29.2116 12.6239
Au 29.7794 12.2471 11.2777
Au 31.7297 21.81 9.35187
Pt 21.7987 16.0714 10.766
Pt 33.645 20.5203 10.671
Pt 41.3389 24.4988 18.5427
Pt 33.9738 23.3579 10.2846
Pt 33.8248 17.7943 17.0238
Au 11.2891 35.4415 18.8936
Pt 31.3201 18.5254 18.0515
Pt 14.8467 27.8258 36.8493
Pt 18.1512 24.3095 38.6499
Pt 28.8628 16.2712 33.2345
Au 26.4406 20.0042 42.0484
Pt 19.9473 20.1869 40.2575
Au 12.6206 22.2099 39.5609
Pt 19.1024 36.6978 34.3839
Pt 14.395 23.7294 34.5681
Pt 15.4316 12.6022 32.9403
Pt 27.2936 19.0833 36.1343
Au 11.8024 24.7537 38.357
Pt 18.5113 38.378 32.2406
Pt 21.1442 26.2253 36.4405
Pt 17.3949 28.2611 36.2981
Au 22.691 42.8272 27.95
Pt 29.1955 31.7348 36.6841
Pt 8.16737 28.8324 30.0398
Pt 32.3033 24.9608 32.7001
Au 22.115 26.1069 41.2371
Pt 19.0891 17.4061 35.8122
Pt 13.6668 18.5606 19.2444
Au 29.1759 14.9008 10.3821
Pt 12.3319 15.3241 16.746
Au 13.9728 21.7775 11.2405
Pt 16.3859 22.2207 18.0669
Pt 14.1749 21.9808 26.3225
Pt 29.4475 14.2644 13.1637
Pt 28.5407 19.2018 18.3302
Pt 29.1898 20.3783 9.71748
Pt 35.6653 20.4731 12.3104
Au 9.53437 32.081 15.8414
Au 11.7578 23.3384 12.2498
Au 36.3727 39.3327 24.5799
Pt 20.1551 15.6964 15.1454
Au 22.4073 8.24435 14.1447
Pt 12.7498 22.2501 14.5237
Pt 36.6304 23.0869 16.9848
Pt 22.8155 21.9225 11.9078
Au 31.3369 28.8291 7.0244
Au 19.9974 42.8232 20.6494
Au 41.2594 30.1892 13.6234
Au 30.1761 18.8218 27.8096
Au 31.0429 27.5872 16.234
Pt 35.1707 33.9295 20.757
Pt 40.3769 28.987 18.3156
Pt 36.8526 28.6093 22.5082
Pt 35.9918 29.3367 17.6313
Pt 36.7401 35.0187 27.4522
Au 32.2695 25.9964 18.4117
Pt 41.289 28.5248 27.3675
Au 18.3008 25.8097 26.5761
Au 31.1645 31.3762 23.7609
Au 24.8003 24.0924 12.2793
Au 19.8513 38.0348 12.582
Pt 40.0048 26.5091 17.3049
Au 26.5959 31.2742 27.3975
Pt 38.3787 29.6548 14.2219
Pt 37.1956 24.6633 33.9359
Au 16.2706 39.5183 15.4924
Au 26.0735 9.89554 26.9343
Au 25.9571 35.8708 14.355
Au 7.98046 20.8475 30.4272
Au 5.57689 27.4888 22.9703
Au 7.70276 22.081 33.1073
Pt 8.55096 25.1428 21.0748
Pt 13.8314 34.4453 24.7614
Au 5.32208 28.5756 30.0261
Au 12.6657 35.4451 14.3647
Au 5.36576 30.2391 27.63
Pt 9.8404 28.2601 17.0257
Pt 13.0955 30.1895 19.2504
Au 12.2605 38.9275 21.8658
Pt 14.5232 27.786 19.097
Au 19.2242 22.3657 17.6854
Pt 11.4666 26.6887 26.4691
Au 23.0937 21.4428 18.9044
Au 24.4559 36.6113 25.0964
Au 22.7976 25.3787 28.228
Au 16.6633 22.1475 24.8217
Au 13.5832 16.0418 35.2338
Pt 36.0601 27.3765 27.4202
Au 16.5959 31.6345 10.8556
Au 23.4867 30.0696 8.89884
Au 26.0612 27.3387 13.6671
Au 33.3002 31.9879 21.9668
Au 28.4838 27.4573 24.0717
Au 30.6352 25.87 24.9411
Au 43.6881 20.1592 25.6078
Au 29.6984 25.4573 17.3563
Au 20.5322 30.2511 18.3593
Pt 37.4061 23.6054 24.9252
Pt 36.1051 13.0358 22.2002
Pt 38.3782 20.7221 30.7748
Au 23.2623 25.4816 10.2912
Pt 28.1054 11.3445 22.5199
Au 41.0568 16.9689 23.82
Pt 27.9709 35.886 36.6427
Pt 33.2942 15.0338 33.8789
Au 37.8654 18.8659 36.8832
Pt 34.3977 27.1461 31.5706
Au 8.97578 19.1829 33.8072
Pt 7.22807 22.8027 22.7458
Pt 11.0933 24.991 21.8445
Au 13.126 12.7086 15.8821
Au 9.01914 20.835 16.2342
Pt 12.0797 17.3226 27.2167
Pt 10.8089 14.8938 26.5124
Pt 10.0705 21.0255 32.0931
Pt 20.2068 14.6323 12.8265
Pt 11.7257 19.4935 23.4338
Pt 12.992 14.0163 30.4354
Pt 13.1761 18.1075 32.626
Au 9.237 16.4052 32.9095
Pt 13.8689 15.7374 28.1382
Pt 13.7805 23.2727 31.6942
Au 9.41269 24.2576 37.0722
Pt 11.6329 23.93 25.4615
Au 12.5512 27.4862 38.655
Pt 10.6645 30.4174 33.6338
Au 8.32533 14.8506 27.7858
Pt 27.4081 26.9798 35.6153
Au 26.8342 34.9709 39.7974
Au 23.5813 31.7426 40.8357
Au 22.8646 25.1013 31.0564
Pt 14.0549 35.5588 31.0357
Pt 25.435 23.165 36.959
Pt 16.2777 22.4032 38.1959
Au 9.36098 31.6143 29.4221
Pt 20.1269 34.0948 33.7168
Pt 16.4651 37.6819 25.93
Pt 25.7629 29.0411 34.7141
Pt 27.1401 32.2212 30.2397
Au 27.7827 23.8797 31.124
Pt 23.4324 40.3004 28.669
Pt 32.2691 27.5653 33.1752
Pt 33.7072 37.9458 21.9947
Au 25.1099 30.19 29.5297
Pt 29.7599 35.6369 27.5694
Au 31.6915 40.0268 30.6528
Pt 40.3649 30.7692 20.2288
Pt 22.576 23.9939 39.3263
Au 20.7012 18.6312 25.3647
Pt 17.1804 12.152 28.1101
Pt 23.3052 16.396 34.2699
Pt 16.2092 15.7659 21.7284
Pt 24.7654 17.9272 36.3299
Pt 21.5531 11.81 36.4233
Au 28.3331 16.9072 28.1257
Pt 13.9268 17.8768 24.0968
Pt 19.0764 11.1064 23.2423
Pt 31.4291 18.1018 36.7185
Au 22.0381 18.1239 22.8194
Au 27.4904 7.27287 30.7159
Pt 22.5674 13.707 34.7521
Pt 31.6482 11.0622 27.0222
Au 44.2615 22.5337 23.9901
Au 18.5362 8.31782 22.5527
Au 33.5244 15.0566 38.5983
Au 36.3784 10.5266 29.8447
Pt 24.9275 14.7657 16.2006
Pt 29.4127 33.0115 12.4011
Au 18.4904 42.1085 28.1227
Pt 30.8536 32.4414 14.478
Pt 18.6689 35.3948 21.9201
Pt 14.8923 35.7903 26.724
Au 32.0201 31.597 19.0759
Pt 20.3987 38.0744 28.3247
Au 23.4919 36.2261 17.6332
Pt 11.7687 33.8413 20.9971
Au 24.4117 27.523 8.67844
Pt 31.3307 36.7439 21.3468
Pt 26.24 36.6217 22.104
Pt 20.7343 40.7119 24.0971
Au 23.5889 20.8195 7.82042
Au 28.5456 40.9776 18.1263
Pt 20.0099 29.208 27.8219
Au 21.6825 39.4308 16.4309
Pt 42.0419 28.9923 24.561
Pt 22.4261 30.785 28.4223
Au 23.915 31.4887 26.1933
Pt 19.8611 11.0933 16.8712
Pt 18.9801 23.7652 12.1184
Pt 13.5985 19.7146 14.8107
Au 24.9939 7.45043 31.9987
Au 23.5055 9.3704 27.9805
Pt 29.5574 14.6966 15.7997
Pt 9.5092 18.1543 20.0499
Au 11.934 10.5952 27.6944
Pt 20.0609 13.9637 19.7669
Pt 18.7335 9.4658 28.0638
Au 22.5408 11.3063 10.4533
Pt 22.8632 9.29205 19.6371
Au 25.3625 7.77779 29.1642
Pt 26.8418 11.8869 20.0226
Au 37.0306 10.4628 22.8749
Au 10.7322 13.8146 15.317
Pt 34.8244 14.5089 24.5025
Au 29.734 18.5424 31.5634
Au 22.9118 18.5854 19.414
Au 26.5881 23.2174 27.3472
Au 30.2012 10.8017 29.2448
Au 22.6246 25.1552 33.8819
Pt 40.8488 20.088 26.647
Au 25.7104 17.7944 28.6292
Au 15.7044 7.73817 27.9955
Pt 23.0792 36.927 31.8066
Pt 29.9472 13.5634 29.5318
Pt 17.9093 20.4369 38.6575
Pt 34.2103 23.3975 33.8853
Au 29.3616 27.6626 29.7017
Au 13.9845 9.36573 20.5386
Pt 34.2711 30.4319 32.8819
Pt 29.141 17.577 20.2582
Pt 29.8103 27.7921 34.5074
Pt 34.4726 12.8235 26.6673
Au 20.5005 16.3154 41.3555
Au 34.4538 8.61293 30.2487
Pt 27.9323 34.6717 29.2865
Pt 30.1023 24.342 38.0452
Au 28.9936 22.2483 28.9733
Pt 37.1807 19.4238 14.3639
Au 34.7958 36.2405 12.7223
Pt 34.6929 21.0596 23.339
Au 33.6135 38.9182 28.9541
Pt 40.31 20.8786 29.0434
Au 31.4422 29.852 21.2138
Au 28.012 22.0448 22.0585
Au 18.5673 33.1085 14.6802
Au 44.4634 20.0103 22.9185
Au 43.4154 27.2536 26.3592
Pt 31.269 16.7361 11.9438
Pt 34.3997 36.8408 27.4613
Pt 39.6188 19.3365 22.2528
Au 29.4428 30.6924 18.9683
Pt 31.5594 18.8804 15.3157
Au 21.8804 28.062 10.1314
Pt 36.0241 18.2197 18.9005
Au 7.90067 30.9826 17.8588
Pt 34.2988 25.1294 20.8032
Pt 31.1518 34.1821 18.5172
Au 24.0824 19.6721 23.8041
Au 16.6482 23.4671 27.3171
Pt 22.1753 15.4565 32.0094
Au 20.4709 42.2031 29.9665
Au 24.8809 9.3808 34.091
Au 7.24947 32.8564 23.0296
Pt 11.684 24.6805 28.2472
Au 27.0468 26.6843 31.0037
Au 22.6622 13.8432 20.7502
Au 12.0777 17.4335 37.071
Au 16.4521 24.1839 22.562
Au 11.7015 33.561 35.7481
Au 18.5208 22.3375 22.4055
Au 21.0548 36.5697 38.5336
Pt 22.3752 21.3536 39.9532
Pt 32.5488 35.9233 33.3061
Pt 18.0751 16.1139 33.6666
Au 21.0661 40.7446 35.0779
Pt 16.2913 17.5413 35.456
Pt 23.2935 37.0842 36.5501
Pt 12.1654 18.0189 21.3338
Pt 14.7805 32.1637 18.1638
Pt 17.6762 18.5062 21.3345
Pt 8.0073 29.8789 27.4087
Pt 14.3688 11.2606 25.0641
Au 15.021 35.572 12.7919
Au 31.9473 8.68279 25.206
Au 14.2295 34.579 35.2395
Au 19.6485 28.1588 22.0684
Au 16.4457 29.0243 15.0246
Pt 24.2829 17.13 17.6285
Pt 16.3266 33.0667 20.3484
Pt 16.3921 14.9356 18.5221
Pt 12.5733 28.6724 17.1342
Au 18.459 20.7673 19.9852
Au 8.95686 35.3335 23.382
Pt 8.15304 20.5689 21.0355
Au 33.6917 34.7276 10.6537
Pt 21.815 20.7991 14.1482
Au 21.5887 42.9705 22.8339
Pt 34.8336 27.9512 10.6843
Pt 34.2796 13.8291 31.7237
Pt 39.1401 23.564 28.5443
Pt 33.0388 30.004 25.1723
Pt 32.1411 26.0996 38.2545
Pt 31.7304 27.0299 30.5807
Pt 34.5763 32.674 30.9708
Au 25.0287 23.042 7.16416
Au 7.23288 28.1579 17.8301
Au 14.6117 37.1481 15.2033
Pt 7.45275 24.8332 32.3584
Pt 13.2611 19.3929 26.1412
Au 9.71793 21.853 35.0119
Pt 11.7126 28.1133 24.0166
Au 11.0238 38.5759 26.4835
Au 17.3588 20.0039 41.3372
Pt 9.37134 30.1286 22.2507
Au 19.7969 40.9731 32.4747
Pt 24.7095 32.1335 31.5987
Au 19.4075 35.6593 13.6857
Au 24.0825 40.2072 15.2488
Pt 18.9129 33.9593 29.9019
Au 36.495 32.954 35.9489
Au 37.0477 35.068 34.0365
Au 26.2583 9.80051 31.177
Pt 18.7738 10.0183 30.8125
Au 11.1935 17.3825 34.4583
Pt 33.9106 10.2697 26.0779
Au 25.2129 9.21633 24.3603
Pt 16.5612 9.96083 26.611
Pt 24.1297 11.3105 32.1129
Au 39.0285 13.3723 26.7093
Au 17.5117 13.1755 38.1184
Pt 31.3217 39.3188 22.2309
Au 39.0605 25.7418 36.0135
Pt 25.157 20.4299 37.5489
Pt 27.7402 29.2496 36.6766
Au 28.1994 38.7225 36.7028
Au 23.3311 16.2446 41.3126
Pt 27.5758 21.6994 36.9807
Pt 20.0234 20.2827 16.0938
Pt 31.7457 16.1961 16.5026
Pt 25.7198 17.1314 12.6221
Au 33.994 15.3822 12.114
Pt 24.5219 17.3881 14.9913
Pt 27.6312 12.1086 13.0105
Pt 29.1719 30.267 11.7219
Pt 32.9033 35.5945 17.1071
Au 34.6309 25.672 39.7887
Pt 30.5276 29.4355 36.605
Au 39.3995 16.989 32.6467
Pt 29.1321 23.3049 33.5235
Au 28.4211 18.196 41.9696
Pt 35.2682 19.4392 27.5426
Au 30.564 28.7675 25.5674
Au 31.4797 12.8057 37.9157
Pt 31.8317 22.3252 37.9641
Pt 27.1103 11.072 33.4108
Pt 24.5714 19.7241 40.0342
Au 36.3841 21.136 37.1716
Pt 31.147 14.7035 24.0074
Pt 33.8174 20.7035 33.8128
Au 32.3123 35.5581 37.9927
Pt 26.179 29.0095 38.8599
Au 25.2128 38.6186 37.9604
Pt 40.6284 31.0832 23.6502
Pt 30.0162 35.8736 30.3946
Au 33.6745 13.2976 36.2874
Au 30.3273 16.3453 41.7816
Pt 29.9747 34.116 37.2922
Pt 24.477 35.4522 34.8871
Au 19.6239 9.05196 33.9105
Pt 32.2076 36.0129 28.6379
Pt 28.8914 30.297 34.458
Au 24.3751 33.1614 20.9002
Pt 34.2904 24.313 17.774
Au 27.8936 10.1859 11.1539
Pt 33.2528 13.264 22.5789
Pt 28.9554 18.6451 15.6389
Au 43.8666 20.0491 20.182
Pt 19.895 17.1754 12.7693
Au 29.7984 10.2888 13.211
Au 35.7425 19.0976 9.7295
Pt 29.8127 18.9306 12.6702
Pt 36.5525 28.0561 29.9086
Pt 27.5228 20.9032 16.4808
Au 25.7946 25.0131 8.86307
Pt 38.287 18.9659 20.0689
Au 39.7842 28.0809 12.4837
Au 28.8893 25.7159 7.25543
Au 16.3857 20.6425 10.5929
Au 20.9907 9.5019 12.2831
Au 38.0376 13.9055 17.8627
Au 24.9184 25.2622 20.7192
Pt 28.5149 15.0509 19.4795
Pt 28.1583 21.0934 11.933
Pt 39.0295 32.2087 14.6519
Au 42.4105 19.3238 17.9081
Pt 26.9172 23.138 10.7156
Au 32.9788 23.5686 7.53051
Au 37.7755 23.9758 10.5271
Pt 32.8763 26.1293 11.3668
Au 11.508 14.5855 34.0249
Au 24.2799 33.9886 39.4861
Au 16.7039 15.636 39.0937
Au 21.8324 17.7072 43.1757
Au 41.9834 23.5313 32.5661
Pt 17.5943 15.2331 36.2917
Pt 20.556 35.4175 36.1647
Au 10.5261 36.5642 28.4433
Pt 19.5121 15.6526 31.391
Au 14.8002 23.4769 40.3044
Au 25.9329 17.3338 41.0337
Pt 20.4267 32.8847 36.8745
Pt 12.9811 31.8808 25.9154
Pt 13.462 25.7091 36.2792
Au 29.5852 26.1522 42.2323
Pt 19.3752 13.3396 36.1235
Pt 33.916 20.6979 38.2939
Pt 14.8974 33.7168 32.6863
Au 26.7535 22.7152 41.5461
Pt 11.0227 33.6552 25.2904
Au 17.8683 29.5759 39.0568
Au 11.5254 36.5762 30.9825
Au 14.8127 40.8562 30.8953
Au 20.1098 7.62079 31.6283
Pt 15.8634 14.8206 34.4721
Au 32.6937 37.0595 35.7355
Pt 22.7039 19.4208 38.0174
Au 13.7413 24.3904 10.5329
Pt 17.308 21.8109 15.5048
Au 9.62551 18.1513 17.064
Au 26.5705 8.2072 16.3042
Pt 20.9935 13.8054 17.1177
Pt 18.9897 17.991 15.7302
Pt 31.7923 23.6583 11.6909
Au 26.1359 16.2409 7.41472
Pt 11.8 20.9824 16.6154
Au 17.0282 27.4983 9.62313
Au 14.1493 32.9093 11.568
Au 22.6564 13.7391 9.29534
Au 30.9868 41.1528 20.1603
Au 9.59953 30.801 13.3341
Pt 29.1473 17.7686 10.136
Pt 19.7677 12.9481 14.8787
Pt 17.5097 16.7048 14.0814
Au 10.4422 36.7886 21.2663
Au 26.3389 21.0545 8.88932
Au 12.409 36.8112 16.7747
Pt 33.5589 21.9368 12.9252
Au 29.9559 9.33173 22.6314
Au 36.3132 39.2828 27.41
Pt 32.3482 15.988 21.8774
Au 28.8165 28.2017 13.9972
Au 20.8104 26.1202 11.8644
Pt 30.8237 34.6456 23.119
Au 41.0735 28.3423 32.5929
Au 38.5748 15.0391 31.0394
Pt 34.1487 32.17 11.9669
Au 34.1628 28.2238 7.48856
Pt 36.3687 37.0837 25.9232
Pt 39.0531 22.1368 26.412
Au 36.6021 26.9027 35.3824
Au 38.5504 37.5528 24.494
Pt 34.3962 36.3794 30.1641
Au 37.5609 34.8749 21.8687
Pt 42.5955 26.5135 23.6483
Pt 37.3738 15.1283 22.8091
Pt 35.4929 33.7587 23.323
Pt 29.7104 18.5224 34.6344
Pt 39.4667 28.4795 23.4264
Pt 42.0502 23.8869 23.1405
Au 44.138 29.5861 22.727
Au 26.9093 31.4975 21.4973
Au 27.4827 31.5273 16.8402
Au 39.8753 31.0831 31.6589
Au 40.5014 33.2741 21.8225
Pt 32.9115 33.3201 24.3711
Pt 39.7931 30.9056 28.1278
Au 31.6997 25.2686 22.2797
Pt 27.7961 29.7106 30.7085
Au 41.0613 15.3065 26.4281
Pt 20.3086 29.5338 30.3584
Pt 18.8414 40.9124 22.2528
Au 10.6282 29.6045 38.0046
Au 6.21676 30.0208 32.381
Au 13.7652 28.4163 12.1776
Pt 10.1853 27.5063 21.7293
Pt 10.8553 20.4294 21.0845
Au 12.4196 39.869 24.4568
Pt 13.0989 32.1519 33.8099
Au 6.58291 30.1579 22.6471
Pt 9.06091 27.1856 27.9147
Au 8.55959 25.7968 16.4158
Pt 11.9359 22.451 22.7672
Pt 15.852 30.2353 19.7063
Au 14.5248 25.6997 38.8897
Au 4.70836 21.1331 26.7278
Pt 13.8005 24.8738 26.6134
Pt 9.39202 21.0716 23.4644
Au 13.9495 40.0588 19.7747