2057
Atoms. Timestep: 21557
Au 30.36 30.6417 11.0335
Au 17.907 9.51518 18.8375
Au 31.3451 28.3939 6.90184
Au 15.7394 26.0743 11.3686
Au 7.12985 30.4381 17.2042
Pt 26.1764 30.83 39.0636
Au 18.2953 29.2579 14.2567
Au 14.2442 20.8432 8.98635
Au 29.0513 10.6253 16.7747
Au 28.5101 31.8786 12.8175
Au 38.1847 26.5479 18.9413
Au 27.9751 26.8713 10.5536
Au 18.0774 34.4238 11.4325
Au 38.048 30.3707 13.2422
Au 14.5162 23.5656 12.4265
Au 19.0239 40.3958 24.4531
Pt 24.5714 21.3711 18.7691
Au 8.00111 33.086 17.2639
Au 34.982 21.6916 9.76466
Pt 16.8251 36.133 22.3323
Pt 31.6968 33.0544 29.7427
Au 19.4657 7.54128 29.0509
Au 30.3356 14.0235 13.8536
Au 11.7424 30.5675 18.5691
Au 30.8249 14.548 36.6846
Au 17.1502 12.335 28.1741
Au 19.3663 38.5924 17.1958
Au 16.9194 13.9249 30.5625
Au 9.68334 19.6994 19.4312
Au 29.3681 26.7587 8.00401
Pt 34.4817 33.3321 26.6915
Au 19.3344 35.6536 21.2047
Au 15.763 11.2431 18.584
Au 25.4216 27.0763 11.6236
Au 29.8393 17.6682 12.418
Au 19.8061 25.1168 3.65793
Au 26.8983 21.6075 4.98056
Au 13.2876 26.7444 12.7035
Au 27.4458 35.9695 15.0201
Au 30.0558 9.70867 34.3972
Pt 25.6138 20.6813 31.2423
Au 23.6322 39.5465 23.2686
Au 26.161 14.0979 38.7254
Pt 38.552 29.2232 31.1528
Au 15.8931 22.818 7.55242
Au 17.0908 30.5099 16.5376
Au 16.6783 28.3812 18.9823
Au 11.5527 36.4541 17.2543
Pt 39.108 28.2762 35.5397
Au 24.1028 7.83634 21.2371
Pt 9.26086 29.6341 28.7088
Au 15.9698 33.1652 8.46112
Pt 29.6027 37.8404 25.6682
Pt 10.8012 27.8693 24.8445
Au 24.1185 22.1742 11.2959
Pt 29.2453 20.9885 29.8522
Au 19.3886 28.9037 19.7405
Au 40.2179 31.1195 15.1812
Au 24.8502 23.4151 8.92458
Pt 20.4976 27.3471 21.8922
Au 34.7578 26.2998 8.41944
Au 8.97607 35.5938 17.2904
Au 22.1438 23.6186 17.6702
Au 27.4513 21.6357 17.8928
Pt 11.3102 30.7399 31.376
Pt 30.7145 26.2038 33.3261
Pt 15.7433 17.4802 27.661
Au 18.5304 8.51698 31.4634
Au 31.4596 15.5313 11.7773
Au 21.8106 40.6794 33.4887
Au 40.0551 16.3452 16.8582
Au 23.7057 28.6146 15.7271
Au 15.4845 25.3747 14.2424
Au 28.0236 26.122 13.4147
Au 20.7154 9.82235 19.4273
Au 29.1748 23.3306 5.00247
Au 19.0241 41.2212 21.7546
Au 27.1828 19.1593 6.08098
Au 13.6833 32.5601 19.0718
Au 28.8249 24.8706 43.8455
Au 17.7422 18.3202 6.17955
Pt 28.5808 30.4821 35.3686
Pt 30.0245 18.4699 29.1116
Au 13.7577 34.8822 17.6189
Au 12.6583 29.4412 13.4676
Au 20.7092 14.7233 13.8009
Au 23.7484 18.8023 7.93441
Au 15.5689 22.9478 20.7932
Au 33.9039 39.3981 21.8104
Au 8.2606 22.8769 11.9087
Pt 19.8448 31.3033 30.6751
Au 30.8068 12.8131 16.2543
Au 31.5976 22.4995 5.69312
Au 33.4301 38.2492 33.3771
Au 30.6255 18.6604 7.92438
Pt 11.4619 25.558 23.3863
Pt 13.9526 30.1006 27.6055
Au 16.4583 22.0674 5.05068
Au 21.0679 36.2735 17.3622
Au 18.6139 29.8685 8.30733
Au 15.5749 25.0207 5.49839
Au 21.8833 8.44503 26.1831
Au 11.1666 26.9919 14.6949
Pt 38.2757 32.3367 26.5873
Au 34.9172 24.5643 10.502
Au 17.7615 39.8224 30.1264
Pt 35.4805 30.0684 29.0161
Au 29.3475 39.6358 19.2354
Au 12.078 34.4708 15.2796
Au 22.1164 9.01727 35.6467
Au 33.8556 16.666 12.2634
Au 22.7842 15.1248 9.80075
Au 16.8012 9.74316 27.0094
Pt 30.1692 21.8411 19.0509
Au 7.95699 25.1356 33.3468
Au 13.5462 26.5036 9.71748
Pt 19.6006 25.5705 36.3122
Au 24.0048 16.5168 13.41
Au 9.27767 28.738 16.8798
Pt 10.1169 34.1738 22.3844
Au 24.5013 29.2025 7.14592
Au 23.0421 21.1146 16.6264
Au 13.3521 18.9425 7.30872
Au 14.7325 23.0911 15.5763
Au 12.9403 34.0747 12.3551
Au 25.6194 26.1705 8.88204
Au 41.5548 21.8577 33.5893
Au 5.68827 32.0615 21.8779
Au 17.8545 14.4278 10.0663
Au 14.9153 31.867 21.3841
Pt 31.0088 30.2371 41.2219
Au 19.511 17.4095 13.3242
Au 18.846 18.9094 8.74573
Au 19.3892 23.1021 17.9834
Pt 9.26625 24.2339 22.7276
Pt 39.3395 28.3069 27.5283
Pt 19.8161 24.5869 38.878
Pt 21.5271 14.6684 29.8043
Au 22.5614 41.8984 28.07
Au 21.7501 23.0882 14.9883
Au 16.6729 15.1432 39.3665
Au 13.7955 34.1012 9.82864
Au 23.5299 21.3746 13.8433
Au 25.2525 29.8571 12.0484
Au 32.7118 26.1764 10.8526
Au 15.5462 37.0669 18.609
Au 20.1277 38.4878 11.9441
Pt 38.0338 25.641 16.1253
Au 5.75827 27.7439 20.4686
Pt 34.8509 22.8249 14.5217
Pt 23.7303 30.0759 40.3449
Pt 33.002 30.9805 36.3547
Au 29.5129 22.4158 9.84558
Pt 11.1761 24.3735 30.5535
Au 42.0407 32.2455 22.1215
Pt 30.2962 33.0945 20.7785
Pt 28.9093 30.9468 19.7882
Au 14.7998 33.4961 36.8846
Au 14.5441 30.1055 17.9308
Pt 37.7137 29.0655 37.8947
Pt 31.0863 19.941 37.8686
Au 18.1019 33.5162 16.7593
Au 8.88252 31.5062 10.0493
Pt 25.9104 10.866 20.6417
Pt 19.0744 21.0021 37.0297
Pt 16.3538 28.7154 30.7406
Pt 25.9325 17.7443 15.1918
Au 24.3032 33.5155 14.4552
Au 6.51362 20.684 22.0416
Pt 35.7477 25.244 15.1486
Au 32.7535 10.2829 34.5745
Au 21.5651 32.4926 13.75
Au 13.388 21.2984 13.8171
Pt 32.7388 22.6389 19.0708
Au 7.32535 34.302 21.909
Au 30.2363 25.156 10.213
Au 18.3148 36.1434 18.34
Pt 39.8959 18.5378 22.0965
Au 24.2 7.61407 30.6273
Au 20.5964 28.238 6.99407
Au 20.9951 13.2385 16.1062
Au 18.5797 27.1176 12.4224
Au 11.9954 28.496 10.8356
Au 7.10456 23.4344 21.2559
Au 18.0699 15.8868 34.9544
Pt 25.9162 21.954 33.9676
Pt 40.4888 30.8664 26.9567
Pt 27.942 19.6639 22.0093
Pt 34.0152 25.4608 13.131
Pt 23.2149 33.0125 21.2123
Au 15.8116 27.7348 6.43502
Au 15.6409 10.5379 29.6148
Pt 40.3245 18.2527 24.8446
Au 13.6205 31.797 8.44992
Pt 27.0302 21.6763 41.0958
Pt 8.0231 28.2901 24.2422
Pt 19.1531 21.56 32.6251
Au 14.6627 28.7692 11.2852
Pt 17.0038 23.0077 33.2779
Pt 15.3993 29.2064 33.4567
Pt 27.9331 24.3514 37.2768
Pt 18.5349 19.1874 23.0798
Pt 19.7139 29.5601 36.7695
Pt 26.4373 16.6217 31.9855
Au 6.75886 32.9878 19.5797
Pt 23.9672 14.2364 28.4433
Pt 17.2457 26.9638 26.0617
Pt 28.8365 22.2336 21.1502
Pt 32.5234 16.1641 32.671
Au 13.9119 23.7276 9.39026
Au 18.0297 29.1627 5.73867
Au 9.87275 29.6264 14.354
Au 12.0197 34.8612 27.1718
Au 35.6482 30.4298 14.8076
Au 27.928 22.509 7.34402
Au 9.3378 33.9171 15.0555
Au 27.0931 42.1727 27.0268
Au 20.5364 29.2589 12.538
Pt 30.8847 17.1286 37.7006
Au 17.6605 21.2945 16.5263
Au 20.6948 22.8861 6.95593
Au 22.0882 23.2303 9.5247
Au 18.927 15.3348 15.8576
Au 20.7085 12.116 12.9006
Au 12.128 22.5643 16.3286
Pt 17.6583 21.2522 30.4555
Au 13.4529 23.9241 6.67834
Au 39.7289 35.1611 18.6679
Au 24.0043 39.2617 20.5276
Au 32.7564 14.2012 34.6886
Au 29.0845 17.6626 42.1333
Au 26.1816 28.0548 14.1184
Pt 16.5557 22.4314 25.9877
Au 21.3379 21.8524 12.1256
Au 22.901 27.3723 8.32627
Au 22.5626 16.3129 7.18453
Pt 41.1542 20.6253 23.1228
Au 7.86485 31.6034 14.7061
Au 20.126 20.7075 41.6873
Pt 35.1052 26.7359 25.4214
Au 20.7974 31.0558 10.5154
Au 5.54634 27.0533 23.6857
Pt 20.8972 17.7583 19.7529
Au 16.8326 38.1655 16.4164
Au 14.6761 17.5973 16.0171
Au 41.7074 23.2454 31.1492
Au 20.6408 33.8779 10.8769
Au 9.60153 21.4353 17.2437
Au 33.7384 39.75 28.8209
Au 29.9781 23.0009 14.6247
Au 32.0815 26.1453 8.17057
Au 20.2987 32.4624 8.10819
Au 20.3349 10.741 31.3288
Au 31.1723 32.6705 12.9455
Au 24.9645 33.1438 7.50667
Pt 32.0255 29.2618 27.3514
Au 28.2009 20.9078 12.3212
Au 30.302 23.9412 7.6199
Pt 20.7156 19.9801 21.2276
Au 12.8364 21.5599 39.4398
Au 25.1765 33.7786 10.4173
Au 19.7529 19.0492 39.2111
Pt 33.5533 24.5516 25.1054
Au 24.9994 17.1225 40.0654
Pt 37.7673 23.6836 14.1706
Au 14.3872 14.051 38.471
Pt 20.061 25.0214 29.221
Au 23.8702 9.44976 19.0386
Au 17.7599 26.5678 4.74366
Au 21.1842 26.5033 11.6523
Au 7.13198 24.7225 13.5575
Au 21.2276 40.0243 20.4116
Au 18.9604 36.2165 15.6573
Au 12.6087 21.8776 10.9715
Au 14.8812 37.9432 21.2431
Pt 31.6839 31.5554 31.8355
Au 16.6231 23.2655 18.2534
Au 21.93 36.6351 10.5515
Pt 29.7685 21.0145 23.5346
Pt 28.0768 18.8962 31.2506
Pt 18.1579 15.0591 12.8908
Au 18.0734 26.475 14.9835
Pt 33.4357 20.6149 22.2087
Au 20.1551 26.125 19.3422
Au 18.7258 18.4988 36.2358
Pt 36.0274 27.8477 16.5158
Au 25.6554 7.15943 23.5326
Pt 26.1202 23.632 31.8506
Pt 32.552 20.8331 33.2994
Au 34.4498 10.3411 32.3624
Au 15.0577 25.3452 17.0548
Pt 27.7024 31.5227 17.4024
Pt 26.4762 21.7521 26.9663
Au 10.6904 20.5583 14.8613
Au 33.2357 24.3968 6.62497
Au 8.00343 25.4967 11.0669
Au 8.50299 26.694 14.9725
Pt 16.8768 14.9068 25.0729
Pt 14.2872 27.8273 29.2225
Pt 10.0078 23.4547 25.3885
Pt 27.37 28.6293 25.8291
Pt 25.5505 14.5443 17.5751
Pt 13.108 26.6007 33.4696
Pt 39.1727 24.571 20.4398
Pt 28.5463 17.4434 33.6101
Pt 28.2772 12.5648 20.7232
Au 36.1811 38.4117 28.7422
Pt 19.462 33.0372 32.9001
Au 12.1607 25.7254 17.0438
Pt 25.8517 35.602 24.0509
Pt 35.0222 32.5013 16.6526
Au 18.4469 21.1841 6.8267
Au 21.0485 9.60107 38.0553
Pt 32.5916 10.7212 19.9645
Pt 28.9534 31.9777 31.5108
Pt 30.7455 26.358 24.0837
Au 16.2808 34.2273 18.791
Au 10.3759 26.3538 10.2222
Pt 28.5235 29.2915 30.2306
Pt 7.60634 26.4263 22.05
Au 14.3352 21.8226 18.0023
Au 24.4813 17.1556 10.6663
Au 13.5115 24.1825 19.2222
Pt 19.4065 11.4918 33.9575
Pt 23.6927 34.5141 36.3774
Au 31.3553 39.7892 21.0912
Au 37.3932 34.6114 16.9434
Pt 32.8206 12.7234 18.2319
Pt 25.4064 18.6595 23.733
Pt 24.6372 11.598 27.697
Au 12.3833 13.3516 30.2682
Au 34.1632 17.2067 14.9886
Au 22.475 29.6808 5.34196
Au 31.3026 15.537 39.9084
Pt 23.7268 23.567 19.9141
Au 34.3724 32.0194 38.6095
Pt 16.865 34.1923 34.7032
Au 29.4648 20.6968 6.01885
Au 15.4529 15.4249 9.25323
Au 19.2506 13.8534 39.4518
Pt 12.8511 23.6578 24.5478
Pt 24.9868 12.3649 30.1561
Au 17.7538 16.4525 8.17442
Pt 25.0322 9.67343 22.8702
Pt 37.1439 16.7778 33.2049
Pt 30.2759 15.489 34.0659
Au 21.1732 33.0983 39.8641
Au 23.2944 21.906 7.0824
Au 28.5568 38.3179 14.6662
Au 20.1979 8.39121 23.9518
Pt 28.0221 25.4249 30.114
Au 16.8179 32.8178 14.2602
Au 22.661 37.4717 13.0133
Pt 41.4469 20.6607 25.7112
Au 29.5994 7.99119 25.7777
Au 10.4992 34.8908 12.795
Au 40.3547 25.4169 17.6485
Au 16.7974 32.5481 38.9728
Au 18.1871 19.7307 14.2557
Pt 32.581 34.0573 24.793
Au 24.6945 36.4741 11.2783
Au 24.3547 7.14321 26.1397
Au 28.6763 29.3731 9.19306
Au 34.1615 23.8706 41.8573
Pt 33.011 35.7055 19.571
Au 20.1692 24.8917 13.6877
Pt 29.6568 18.6254 25.0726
Pt 23.5958 38.3694 34.2898
Au 19.8993 24.003 11.1046
Pt 25.4478 33.6926 26.397
Au 16.3822 28.1287 9.16407
Au 39.4864 12.1219 20.2579
Au 13.5555 35.6501 31.5411
Pt 39.6135 27.272 33.0293
Pt 21.9264 32.8125 32.0393
Au 30.468 12.3623 38.1319
Au 21.9762 21.1844 4.81879
Au 10.6416 27.7307 36.9692
Pt 31.0497 38.2427 28.4435
Pt 13.1357 19.7889 32.8861
Au 10.0581 18.001 24.0091
Au 33.0003 38.4944 19.2398
Au 16.7307 31.4589 19.1225
Au 23.2701 27.3035 13.2266
Au 12.5007 26.3208 39.5306
Pt 33.1758 29.186 38.8441
Pt 30.2031 15.1124 23.6437
Au 7.44378 23.3979 26.3541
Pt 22.2027 32.4565 37.4143
Au 27.5077 32.5253 6.14603
Au 17.3408 33.5067 21.1741
Pt 25.6728 37.732 22.398
Au 38.6756 37.0441 28.6314
Au 21.8715 39.4052 35.9529
Pt 9.90958 27.423 22.2508
Pt 19.1382 36.8016 30.765
Au 21.723 16.5996 11.8675
Au 15.8247 25.6162 19.7691
Pt 29.8622 27.6557 26.2083
Pt 25.3068 20.6574 21.819
Au 23.2139 10.1564 30.8339
Pt 30.6639 24.3284 19.9491
Pt 15.147 28.7737 25.5955
Pt 22.2958 24.191 22.5812
Au 10.0603 36.7276 19.5267
Au 22.5109 20.5038 9.72615
Au 27.1312 29.7695 5.042
Au 37.6296 32.5564 15.0237
Pt 33.4021 31.512 28.3584
Pt 26.9881 29.942 21.6791
Pt 37.9662 26.4322 37.3741
Au 13.2841 31.3324 11.1822
Au 30.8064 29.9978 13.7169
Pt 33.4897 29.6646 32.4689
Au 40.5036 23.6738 13.8515
Pt 34.4506 35.8983 25.9593
Au 19.671 36.2011 23.8989
Pt 23.8814 13.3962 25.8975
Pt 14.0462 23.6919 26.8699
Pt 30.9133 17.4379 20.1075
Pt 19.7096 31.4135 23.6674
Au 24.0994 40.9093 34.8932
Pt 31.5987 16.8134 24.9528
Pt 18.3366 16.692 26.6041
Au 33.2487 31.048 10.518
Au 28.0515 21.2563 15.1234
Pt 19.8481 23.5631 41.2609
Au 25.7504 20.8836 7.70164
Au 8.43611 28.0737 19.5349
Pt 35.1471 14.1898 17.9275
Au 30.7689 36.6723 14.3273
Pt 18.7961 16.7485 18.3643
Pt 29.6869 31.756 25.0521
Pt 33.9145 18.4835 33.4643
Au 33.7184 21.8436 7.31524
Pt 27.6718 17.7946 26.7359
Au 32.3637 36.6855 16.9688
Pt 34.9145 16.7305 31.7326
Au 20.0804 36.098 12.7061
Pt 39.7788 22.8823 22.3016
Pt 36.7757 32.6455 21.9551
Au 14.7637 27.3906 21.4209
Pt 35.0759 11.9581 19.462
Pt 27.6305 9.32861 22.0376
Pt 24.2425 22.9015 29.7617
Pt 28.7971 30.804 37.9217
Pt 16.6286 17.4395 22.1405
Pt 29.5996 23.4381 30.5822
Pt 13.0644 14.1646 24.5529
Au 21.5659 17.7755 9.31672
Au 36.9274 20.3009 11.1659
Au 20.7719 27.8545 43.3027
Au 11.7267 18.3696 34.6735
Au 6.68908 26.4212 26.2732
Pt 24.0658 26.4075 36.2642
Pt 15.3583 24.8675 36.9186
Au 10.2834 36.482 14.9299
Pt 31.4962 22.4209 21.5148
Au 21.1673 38.522 24.3462
Au 21.1069 35.1379 8.41185
Au 22.8274 25.6545 15.436
Pt 26.1337 13.9646 24.3323
Au 15.7664 30.8618 9.94255
Pt 26.2077 30.6507 30.7624
Au 17.5993 24.3793 12.7622
Pt 32.6103 26.5402 29.1989
Pt 20.1593 21.9822 39.1746
Pt 33.4457 17.6056 23.0915
Au 7.00694 20.6373 26.1434
Au 42.1638 18.5692 20.4238
Au 25.0492 12.5894 13.651
Au 22.0436 30.1661 8.24723
Pt 28.2332 15.5014 25.4122
Au 25.7942 9.03863 32.5482
Pt 18.6534 13.4686 36.5377
Au 33.1542 8.49345 18.3565
Pt 16.4718 27.6321 23.5182
Au 39.1136 12.2295 17.4493
Pt 33.2777 23.1585 12.1372
Pt 24.1547 14.7623 31.0025
Au 32.5572 20.8136 10.5408
Au 22.9444 34.6756 12.2271
Pt 33.835 18.1251 25.7302
Pt 32.9039 34.0038 17.3706
Pt 13.9617 15.175 31.6695
Pt 20.6806 28.7849 24.4706
Au 31.5902 37.397 35.2761
Pt 16.2672 33.4918 25.5551
Pt 11.8954 16.416 25.2645
Au 10.815 22.5355 12.9859
Pt 30.576 34.8852 18.7442
Pt 30.564 37.3742 19.5228
Pt 19.2425 29.8074 39.5484
Au 26.7854 24.159 3.9853
Au 9.57474 22.283 20.6611
Au 8.04018 16.6155 22.6984
Au 10.0145 18.5891 16.8204
Au 18.6008 39.759 19.5537
Au 18.4457 34.454 8.44316
Pt 20.0716 19.7961 30.6793
Au 21.8111 15.4171 32.5587
Pt 27.4821 19.9901 24.8687
Pt 23.6048 24.3368 25.0311
Au 39.6089 14.0896 24.9915
Pt 28.6703 12.8935 25.4019
Au 25.6014 19.5415 12.9852
Pt 12.5899 14.5838 27.349
Au 42.4403 31.8647 25.3054
Pt 25.5251 25.3133 29.591
Pt 19.4879 28.3952 27.0442
Au 13.7927 11.3205 22.3437
Au 43.1769 29.8145 21.5656
Au 21.083 19.668 14.0721
Pt 35.7864 18.9168 21.8851
Pt 17.3919 14.6917 19.6406
Au 25.4204 41.1462 24.8345
Pt 29.8136 35.6682 21.3726
Pt 28.4195 22.9298 34.8768
Au 10.9972 15.3324 22.8971
Au 14.0619 34.9486 34.4105
Pt 35.3816 22.8686 26.6497
Au 24.8077 31.0473 42.8542
Pt 26.9878 22.5112 29.5376
Au 28.07 20.0238 42.9049
Au 19.6909 11.4795 27.0838
Au 18.2074 12.4991 11.9868
Au 16.1987 30.6313 12.7573
Pt 24.6746 25.0249 41.3488
Pt 18.6937 29.1845 22.6437
Pt 31.2787 18.2975 33.5641
Au 33.8111 12.527 15.7452
Pt 39.27 27.8257 16.5946
Au 32.0179 27.2785 14.1114
Pt 18.854 26.796 31.2424
Au 16.2163 27.857 16.3972
Au 25.7902 12.9234 34.9172
Pt 21.6151 26.267 24.237
Au 33.4805 33.4742 11.8232
Pt 20.904 35.3738 32.5086
Au 18.1663 26.0195 10.0551
Pt 23.8116 30.4644 19.9482
Pt 25.0938 28.9759 32.4739
Au 9.00459 30.1292 32.888
Au 17.5572 19.0816 11.5021
Pt 39.879 31.921 24.4245
Au 24.5823 20.0455 5.36005
Au 27.345 24.0516 15.243
Au 13.3148 17.0202 9.17384
Pt 17.8202 27.5266 36.345
Au 40.0278 28.6716 14.0693
Pt 10.3501 26.1023 32.6525
Au 24.9649 17.4301 6.04647
Pt 26.7707 26.9443 41.6611
Au 23.2378 18.8615 42.3517
Pt 28.6049 25.3792 25.3982
Au 15.8697 13.9158 11.932
Au 29.6244 36.8846 37.1994
Au 29.2423 32.1221 8.5968
Au 16.3947 40.4404 25.2065
Pt 21.173 16.1005 17.3498
Pt 26.7929 26.9682 18.8167
Au 35.2257 27.4035 10.9867
Pt 31.5628 26.8521 19.9037
Pt 33.6588 25.1723 19.5645
Au 26.4581 18.0564 8.41208
Pt 35.4509 31.9206 19.5691
Pt 29.3381 25.7347 41.3787
Pt 34.5521 21.5085 29.0027
Au 25.2316 25.266 13.8293
Pt 27.2987 11.3919 31.4834
Au 20.1802 25.2758 16.4765
Au 31.9829 10.4599 16.8746
Au 25.3828 30.8274 14.8061
Pt 29.585 28.3279 34.3206
Pt 21.1376 23.1054 36.7114
Pt 18.4162 18.7499 20.4913
Pt 14.9815 13.9424 18.5109
Au 39.9374 32.1952 35.294
Au 33.5238 28.6577 9.06425
Pt 19.3553 32.0212 38.0544
Pt 26.1236 35.0126 37.3687
Au 41.9961 27.2018 34.3261
Pt 29.8595 22.7907 27.9269
Pt 18.2236 24.2917 20.2937
Pt 30.1648 32.7423 27.5319
Pt 22.241 30.1866 17.8611
Au 31.5377 16.7022 14.3633
Au 9.67617 27.7592 12.4283
Pt 29.8304 34.6999 25.708
Au 27.122 7.49875 30.6713
Pt 28.6843 10.4357 26.6104
Pt 21.7858 23.2533 30.8492
Au 17.3939 12.0611 25.4488
Pt 31.1031 29.3244 36.5915
Pt 24.2061 26.7429 33.6837
Pt 27.4163 33.1364 38.9028
Au 12.0597 15.6981 13.9667
Pt 14.8946 19.9176 34.8133
Au 23.2701 37.5565 16.0486
Au 28.4503 8.03202 28.2771
Pt 38.4186 26.1265 22.2952
Pt 25.3991 33.3687 22.6209
Au 28.8771 36.6057 12.3551
Pt 16.0653 19.4318 29.4435
Au 34.6072 18.8402 10.6341
Pt 36.5045 13.9947 25.9705
Au 26.9413 11.3388 15.2419
Au 22.9371 28.8519 10.771
Pt 29.3931 22.04 37.3983
Pt 13.9758 36.6606 26.1417
Pt 34.0145 34.1699 29.334
Au 15.341 32.698 16.6028
Au 33.387 9.59487 29.9451
Au 12.8606 33.8023 22.3988
Pt 19.2774 25.412 33.5845
Au 9.0379 15.2022 20.7067
Au 40.8314 24.7927 28.9995
Au 10.2328 16.4459 18.6599
Pt 34.0452 36.2521 31.2559
Pt 28.5247 24.5807 32.7686
Au 28.5569 13.1755 33.771
Au 30.4461 32.3362 18.0257
Pt 38.1451 16.3721 25.5958
Au 28.1374 10.1695 19.3722
Au 44.6596 22.6374 20.3889
Au 22.1924 41.5127 30.7282
Pt 31.7915 24.9942 17.5929
Au 23.3267 36.8731 19.033
Au 18.168 32.1371 9.87165
Au 19.4477 22.4328 4.4765
Pt 37.2487 23.5074 22.5648
Au 11.1675 22.3568 37.2895
Pt 39.4067 23.2819 16.3144
Pt 35.6647 28.8079 31.2902
Au 16.4531 21.9466 13.8076
Au 30.798 25.635 5.67578
Pt 29.817 20.2839 16.8931
Pt 27.959 16.8157 29.4242
Pt 28.9271 14.0946 18.3827
Pt 33.1618 27.1702 23.8094
Pt 23.0992 19.6249 25.3372
Au 10.9224 34.4204 31.5749
Pt 26.4531 28.8776 16.6276
Pt 20.3895 22.2486 22.5815
Pt 17.4943 37.5875 20.4041
Pt 23.9629 19.7336 33.1172
Au 24.5312 10.2894 35.0679
Pt 15.5294 33.8718 23.088
Au 15.6924 36.6979 33.153
Pt 21.6541 36.1962 25.8852
Pt 24.5633 15.0713 33.5626
Pt 22.8031 25.3305 29.3827
Pt 30.9459 24.0009 35.0048
Au 12.3483 33.0942 35.0406
Pt 28.1092 36.1558 19.0183
Pt 12.4507 31.0211 22.4848
Pt 25.0477 31.7467 24.6948
Au 11.9654 34.8292 19.9052
Pt 26.382 32.574 32.7711
Pt 29.8514 35.9241 27.9189
Pt 30.7208 24.3375 37.6381
Au 39.5486 20.4957 34.6866
Pt 11.8947 23.971 33.2994
Pt 23.3813 27.6015 30.8764
Au 34.6792 10.4293 17.3838
Pt 21.4908 15.1295 20.0189
Au 10.0511 23.6559 10.064
Pt 13.5744 26.9624 24.3866
Pt 17.8126 18.6794 31.4548
Pt 11.4417 19.112 30.8971
Pt 31.006 14.0881 31.8153
Pt 29.7523 12.603 22.9509
Pt 19.6485 24.861 22.4964
Au 14.8744 35.9823 11.9068
Au 35.5229 23.763 8.00091
Au 20.1601 17.4245 6.7829
Pt 35.8023 16.6928 17.0671
Au 28.3255 8.05259 17.8574
Pt 19.5317 13.6475 21.2963
Pt 33.6323 26.4543 16.0522
Pt 24.3218 28.2987 18.3362
Au 22.528 26.9196 5.23258
Au 28.2405 40.0398 32.9811
Au 42.9706 29.8913 27.7307
Au 15.9115 9.26994 31.8651
Au 22.7 33.0851 9.19568
Pt 27.2764 39.4631 26.2942
Pt 30.4291 28.0281 29.0006
Pt 38.4707 33.7905 30.7772
Pt 25.2273 34.5841 19.4795
Pt 32.9055 33.0618 19.7978
Au 31.4829 30.6087 8.46774
Pt 38.6821 29.6369 25.299
Au 12.5746 24.5137 14.3412
Au 15.6391 33.2173 11.5958
Au 26.2112 24.2408 17.9133
Au 11.0367 13.4924 20.6149
Pt 31.5609 33.4608 34.2926
Au 19.4565 31.0176 17.9403
Pt 34.4121 14.0913 32.5204
Pt 30.9708 19.7231 31.3473
Au 20.828 38.0828 14.8776
Au 19.4903 13.575 31.9519
Au 39.683 33.0687 16.9563
Au 16.2814 35.5613 16.3512
Au 7.5633 19.072 17.8816
Au 7.00478 27.3936 12.6773
Pt 15.0876 33.4588 30.0627
Pt 24.7715 39.9814 30.0743
Au 6.76848 27.5673 17.338
Au 7.54926 18.4748 20.6858
Au 13.7984 29.0652 8.52737
Pt 9.2648 33.9751 19.7916
Pt 24.6418 24.1871 27.4119
Au 40.2582 33.9867 33.1054
Pt 7.14154 30.8251 23.795
Au 41.8258 15.8095 24.466
Pt 21.5206 13.7406 27.1548
Au 14.336 17.1251 34.3372
Au 14.6459 35.2278 20.6824
Au 25.0058 26.4998 6.31858
Au 9.53379 35.8034 26.652
Au 12.8222 28.5322 35.361
Pt 33.8406 29.7426 20.0613
Au 19.2985 33.5665 19.2176
Au 25.518 23.7243 6.3472
Au 30.7443 12.2784 35.0403
Au 5.71821 29.1116 25.4365
Au 22.9586 24.7721 7.21903
Au 27.7374 24.5095 9.13523
Au 30.7884 19.8003 42.5255
Au 22.8447 24.2828 12.7221
Au 7.37101 18.9842 23.9604
Pt 40.8506 27.7241 21.5216
Pt 35.9337 12.5143 28.4029
Pt 26.9504 16.6986 38.2531
Au 14.6367 34.7469 14.4452
Pt 33.8448 18.9834 28.2729
Au 37.8725 14.7556 16.8201
Pt 23.0737 31.8177 15.9838
Pt 28.512 27.354 32.0512
Au 37.3633 9.07122 25.9497
Pt 28.3878 38.0499 28.2239
Au 24.2302 12.2841 19.1707
Pt 18.6397 19.2072 25.8198
Pt 11.3856 28.5709 33.0249
Au 27.3365 10.6663 34.1823
Au 17.9145 32.1081 6.87587
Pt 27.9068 21.7506 32.1134
Pt 27.8715 14.6669 22.6098
Pt 24.552 36.139 26.3459
Pt 17.1441 18.5784 17.0492
Pt 10.509 26.9429 28.7017
Pt 28.619 22.5868 25.5145
Pt 15.6433 22.0037 28.4014
Au 16.1845 11.9072 13.8281
Pt 16.4518 17.726 24.8227
Pt 23.0349 36.8311 28.3554
Au 7.49134 19.4131 28.6854
Pt 8.99534 25.8964 24.7178
Au 23.4707 15.2141 38.7367
Pt 15.3835 31.2523 31.8
Au 18.9142 31.7289 12.4944
Pt 28.3352 34.3148 16.9744
Au 24.6977 23.3233 43.6013
Au 30.771 26.9628 43.4646
Au 23.0135 19.1038 12.1209
Pt 21.6663 37.2408 30.6041
Pt 29.5065 36.8286 30.5665
Pt 21.3004 23.3871 33.567
Au 18.8577 34.5719 39.5309
Pt 17.6449 32.889 30.829
Pt 23.6062 31.1257 33.4157
Pt 15.2292 27.0394 35.1376
Pt 25.3989 38.3148 25.0586
Au 31.3076 10.2377 36.7871
Pt 33.5781 27.7509 18.3039
Pt 33.4615 23.0942 34.5253
Pt 31.7879 24.0839 29.3036
Au 20.3053 19.3438 11.3293
Pt 23.048 29.9125 24.5743
Au 29.1616 38.8133 35.322
Pt 35.1814 33.9013 23.8595
Pt 25.8868 19.166 38.0475
Au 26.9364 15.9447 9.99623
Pt 11.8228 21.8722 31.558
Pt 17.8315 29.6737 34.8954
Pt 24.9978 30.8891 17.55
Pt 29.3633 39.4749 30.3306
Pt 35.1714 34.6261 21.2454
Au 22.8445 16.2833 41.6433
Pt 36.978 19.4757 15.8952
Pt 26.5307 14.6127 29.6749
Pt 33.8023 10.9789 24.5059
Au 17.356 24.1006 3.56969
Au 11.5129 19.7996 12.293
Pt 27.056 33.0784 14.8972
Pt 38.3111 28.4051 20.9305
Au 43.6813 22.5018 25.9257
Au 11.131 27.8757 18.7928
Au 19.0633 16.3391 32.209
Au 22.9798 7.61445 23.7729
Pt 35.8417 16.7374 26.7471
Pt 33.6705 27.7172 36.4809
Au 21.0065 33.3187 16.9365
Pt 29.0815 28.3919 20.4296
Pt 23.5373 34.2151 24.7125
Pt 31.2336 36.1334 23.8978
Au 31.0062 28.178 9.73942
Pt 35.5064 27.3501 38.4473
Au 29.625 36.9496 16.8486
Pt 14.568 15.829 26.0491
Au 13.7963 27.2382 15.3754
Pt 21.269 28.3899 40.7436
Pt 16.3447 35.9559 24.8222
Pt 20.7489 30.8906 26.1017
Au 20.1198 27.8788 4.404
Au 24.9698 31.2785 5.49431
Pt 17.5368 25.7973 38.3971
Au 28.8554 33.9181 10.9676
Pt 37.1224 23.8477 31.7083
Pt 21.6876 20.8809 32.4087
Au 19.3738 33.9982 14.1263
Pt 15.7677 12.8965 20.9224
Pt 11.431 32.5064 24.3524
Pt 28.5889 14.5127 27.911
Au 32.0734 8.1832 20.7548
Au 27.9316 12.0655 38.9562
Pt 39.5284 16.2471 23.2684
Pt 15.5326 22.821 31.0328
Au 15.8728 18.403 9.31067
Pt 18.299 33.932 23.6585
Pt 22.8726 14.1568 17.8313
Au 11.314 30.5701 9.11526
Pt 24.3555 14.9697 20.0883
Au 17.6182 9.49809 33.8803
Pt 32.4568 17.5586 30.2094
Au 19.0616 11.3519 38.108
Au 22.7192 11.6324 14.5673
Pt 25.8978 14.9726 14.7516
Au 32.7854 34.741 14.2238
Au 26.6971 30.7981 7.76489
Au 9.48357 23.028 32.4155
Au 28.0207 13.5499 36.5292
Au 15.9838 27.9458 13.5093
Pt 27.066 35.2823 21.4913
Au 22.2092 7.05469 28.6191
Au 14.7942 12.4789 36.3031
Pt 36.8658 21.4081 30.6204
Pt 27.481 30.7078 24.0595
Pt 27.1161 24.2197 41.73
Pt 22.3486 21.022 40.3677
Au 33.0192 29.18 29.9363
Au 5.95881 31.7451 26.4204
Pt 14.1484 35.7299 28.869
Pt 36.4568 20.4406 18.3252
Pt 27.9084 17.2047 20.992
Pt 22.9669 19.2091 30.4984
Au 16.3809 20.2506 37.0912
Au 22.0435 10.767 33.5609
Pt 29.2662 34.1687 29.7934
Pt 35.0112 27.3288 33.6081
Au 38.0962 17.9527 17.7741
Pt 35.863 27.8642 19.7073
Au 42.1327 22.945 21.1455
Pt 15.4434 25.169 24.8143
Au 20.0356 41.1347 29.0986
Pt 39.5459 24.8627 31.7688
Au 17.8122 25.9015 17.8727
Au 20.7367 25.6287 8.90579
Au 15.8936 19.9655 6.90254
Au 38.3568 25.518 39.9494
Au 31.4215 18.3835 40.26
Pt 29.3421 28.0643 14.9404
Pt 35.2668 29.9981 17.6928
Pt 40.4947 30.2334 20.7319
Au 24.5452 23.3977 15.8583
Pt 30.7023 21.2752 35.3167
Au 30.8127 22.0921 12.1965
Pt 32.1818 24.299 32.2558
Au 9.88011 37.4506 24.3273
Pt 34.3119 31.5583 24.5505
Pt 24.3558 30.7929 22.3292
Au 36.775 14.1865 34.2314
Au 8.16248 23.4388 18.5155
Pt 19.2785 23.8673 31.5215
Au 21.2733 30.9611 41.5497
Au 25.8217 36.2446 17.2301
Au 17.9131 37.0074 34.8293
Pt 31.2939 27.5868 16.8561
Au 22.6046 32.1921 6.53297
Au 24.8926 15.8543 8.27082
Au 7.23677 21.0975 19.5555
Au 32.9948 8.15209 27.657
Au 19.2933 36.5037 10.0099
Au 37.4255 22.9523 9.81636
Au 9.25381 27.8787 34.5487
Pt 31.2818 22.3473 39.3823
Pt 33.2422 18.2016 38.0126
Pt 25.6406 37.8823 28.0573
Au 17.964 24.3232 43.1938
Pt 15.6726 33.9381 32.4828
Pt 37.257 27.9051 29.233
Pt 25.4387 19.1372 26.5114
Pt 35.3163 29.8716 37.3672
Pt 33.8126 14.0866 20.3878
Pt 21.7423 25.8357 34.6244
Pt 22.9822 16.7775 21.5659
Au 22.0956 37.5284 21.6224
Au 16.8135 8.13837 29.3822
Au 10.7424 25.0193 37.6826
Au 17.141 17.0877 14.6519
Au 5.23949 25.3311 21.6166
Pt 28.016 30.2601 14.9796
Pt 24.804 20.5036 28.7751
Pt 18.6545 34.9828 26.2723
Pt 8.89431 27.9467 26.7276
Au 25.4229 15.3846 36.3939
Au 6.82053 21.9921 28.6819
Pt 16.6179 20.4949 24.2029
Au 31.3637 33.0312 10.1249
Pt 26.5347 19.7208 19.5965
Au 31.3473 40.9297 29.2661
Pt 33.5595 29.6004 22.8527
Pt 29.5992 26.0662 21.7302
Pt 36.8347 21.1074 13.8731
Pt 30.0316 25.5143 27.9316
Pt 22.4911 23.4668 39.2774
Pt 21.3384 25.9424 31.8435
Pt 27.2603 22.0904 23.2136
Au 38.8155 24.4923 11.5632
Au 20.3636 14.2017 11.1037
Au 22.7614 41.2179 25.3579
Pt 18.7484 28.9221 29.6552
Pt 20.9564 23.6541 20.2857
Au 17.5796 20.9703 39.51
Pt 15.6474 22.5552 35.5991
Au 39.2503 36.0891 25.9359
Au 21.145 9.65768 28.7062
Pt 25.8006 23.4797 39.0666
Au 15.0745 38.5188 23.9012
Pt 27.3743 24.6128 22.5624
Au 24.7332 36.1171 14.2157
Au 21.0978 29.8202 15.5357
Pt 20.6353 30.6383 33.3104
Au 39.7513 36.454 23.1749
Au 32.0599 39.8682 26.5615
Au 31.564 9.51208 31.9798
Pt 26.1534 27.846 30.2378
Au 18.7903 32.095 40.8849
Pt 29.0225 20.2995 27.1369
Au 41.542 16.0844 21.4375
Pt 10.8394 22.1153 23.257
Pt 21.6548 27.9237 36.1878
Au 43.8337 25.0979 21.4625
Au 11.6612 17.0862 11.6687
Pt 33.7277 20.7823 26.1428
Au 40.9514 18.7866 27.792
Pt 19.9425 27.3827 38.4633
Pt 38.9245 23.3565 33.9124
Au 37.6851 33.7632 35.6765
Au 36.685 21.3516 38.8526
Pt 32.3056 13.4248 28.2643
Pt 19.5805 18.0935 16.0591
Pt 32.7749 22.8805 27.2866
Pt 32.629 16.3931 27.7227
Au 35.9006 18.3688 13.0986
Pt 37.0632 15.7715 19.3425
Pt 31.4693 11.6445 30.0494
Pt 37.712 29.1402 18.4045
Pt 27.3338 36.4131 26.2751
Au 41.496 29.1074 32.1582
Pt 25.3372 34.9984 31.5763
Au 21.1266 17.4589 37.242
Pt 29.9167 18.6029 35.7036
Au 14.8793 12.3262 16.1952
Pt 41.8552 23.1447 24.0252
Au 41.3387 26.4235 15.2881
Au 21.1432 11.7271 36.1258
Pt 19.6431 14.0761 18.3965
Pt 11.7424 23.7348 21.3196
Pt 20.6341 20.9423 34.9159
Au 40.4504 17.855 30.2667
Pt 39.5091 17.0112 19.8541
Pt 28.7761 16.2074 36.3618
Au 20.6252 17.9943 41.7108
Pt 35.267 34.3696 18.6166
Au 27.0144 37.9007 37.4405
Pt 33.5675 31.9417 33.8551
Pt 26.8172 33.3516 30.2178
Au 29.2114 7.70065 20.5899
Au 10.7205 14.7541 31.8708
Pt 23.9049 17.2129 32.0259
Pt 38.9663 22.9028 29.6873
Au 17.2451 11.2844 35.9534
Pt 25.8909 32.0494 20.0712
Pt 34.1285 23.8951 30.3347
Au 15.38 38.1677 30.6395
Pt 24.4765 25.9268 22.9362
Au 42.0741 23.9081 16.1583
Pt 28.0259 24.7444 19.9382
Pt 30.8758 19.8781 21.3537
Au 39.8496 16.5519 32.4715
Pt 19.0374 16.2631 21.1084
Au 28.3303 7.13315 23.4144
Au 25.9004 24.425 11.2937
Pt 11.8795 21.6733 26.224
Pt 28.8262 28.8737 17.7074
Pt 30.3118 11.9153 18.8734
Au 29.1596 23.8077 17.3888
Pt 30.9866 24.1838 25.7549
Au 23.3864 25.549 10.3436
Au 10.2516 13.9465 28.7944
Au 35.57 14.7163 15.1648
Au 41.9843 26.2763 31.6971
Au 40.8861 13.7961 22.555
Au 31.1767 21.257 8.08286
Pt 23.2884 14.3311 15.0636
Pt 27.7546 17.3957 23.6528
Pt 32.0234 36.9521 26.2675
Au 39.7274 18.7373 15.6342
Pt 27.5025 18.6045 11.0045
Au 38.4926 19.0952 13.2206
Au 39.6004 37.0765 20.5237
Pt 28.5488 34.2812 36.5583
Au 9.53158 18.4703 11.067
Au 22.7278 15.7807 35.4792
Au 25.6403 34.7245 40.2222
Au 19.3966 9.56439 35.9583
Au 27.525 38.4875 17.5343
Pt 16.9057 18.2684 33.9691
Pt 17.7844 26.5071 28.8319
Au 11.5294 37.6343 26.7521
Pt 28.5977 19.0674 37.8761
Au 20.3214 15.1994 41.9959
Au 22.3961 18.85 35.1642
Pt 14.0507 22.2527 33.3005
Pt 27.0695 38.3233 30.8634
Pt 26.5397 26.602 36.9193
Au 42.7304 21.1394 19.0159
Pt 28.7265 32.899 34.1556
Pt 16.0482 20.5676 32.4522
Pt 38.03 32.5011 33.2412
Au 20.5284 25.2478 43.3458
Pt 18.2326 20.8521 27.8277
Au 16.3957 15.7335 32.7327
Au 37.2214 18.8498 37.3948
Au 15.6056 39.8459 28.3655
Au 23.4751 10.4859 37.5738
Pt 27.4046 16.1514 16.6637
Au 23.0225 34.9497 39.094
Pt 22.2242 21.1597 29.0798
Au 18.7964 9.40779 21.5654
Pt 23.6801 21.8302 26.7705
Au 9.52921 25.4297 20.32
Au 26.3512 22.6485 20.3459
Pt 29.7234 15.0909 20.8831
Pt 18.9324 26.8557 24.0821
Pt 24.3043 12.0036 23.6643
Au 23.7939 9.10889 28.1949
Pt 13.3547 21.9339 22.5024
Au 9.0053 31.0773 19.0761
Au 20.7401 27.3738 14.5674
Au 20.2697 10.649 15.1583
Au 8.85888 36.5513 21.8771
Au 22.0499 23.9469 4.70298
Pt 24.8203 28.0744 20.9199
Pt 8.39414 30.6055 26.0564
Pt 26.356 9.39856 27.2236
Au 34.8814 35.2063 15.9233
Au 12.7505 36.6068 13.6939
Au 18.2536 38.2546 14.0053
Pt 38.1537 22.1023 20.0866
Au 33.2209 19.399 8.34503
Au 16.5936 30.3977 40.6764
Pt 33.7662 13.0526 25.9637
Au 29.277 30.2195 6.62601
Au 5.81598 26.6025 14.9993
Pt 13.0415 23.7636 35.6298
Au 40.8921 35.2271 28.6746
Au 37.0119 10.9885 21.2004
Pt 32.1519 31.6599 26.1048
Au 41.9065 16.4414 18.7628
Pt 30.3953 22.4053 32.8677
Pt 36.3349 23.6797 29.0203
Au 26.9778 41.6177 31.1979
Au 30.1362 29.6104 43.7712
Pt 8.61472 31.8557 21.6648
Au 41.3291 27.6455 36.923
Pt 31.188 34.7863 36.6801
Pt 35.9409 31.0828 33.062
Pt 20.829 33.6661 25.2305
Pt 34.1894 11.7972 21.9688
Pt 36.3266 32.8159 28.7265
Pt 34.7769 22.0565 32.1705
Au 42.6771 22.7482 28.5844
Au 29.3635 17.1156 9.70811
Au 15.9304 30.3664 7.28529
Au 37.088 36.6601 30.8636
Au 34.9222 36.9955 17.9751
Pt 39.8921 30.5094 17.9356
Pt 31.5868 22.2827 16.7179
Au 28.3464 20.0181 8.55786
Pt 23.0753 38.554 26.3329
Au 37.1983 25.8074 9.85016
Pt 28.7923 28.0405 36.8317
Pt 24.0028 27.5169 41.118
Au 6.66334 24.5994 23.9348
Au 16.3602 16.6399 11.4957
Au 16.1426 10.2206 21.1562
Pt 11.2359 23.5614 27.849
Pt 14.056 36.1364 23.2886
Au 23.7868 35.494 8.88612
Pt 11.6778 25.5768 26.1197
Au 27.1729 31.5277 10.4106
Pt 13.1301 32.9093 32.1783
Au 11.1258 32.9993 10.6342
Pt 11.8737 19.8409 21.478
Pt 11.565 20.9747 28.9325
Au 9.90366 23.4868 35.1364
Au 6.60075 29.5496 27.936
Pt 38.2798 23.5234 26.9148
Pt 24.0468 27.2053 25.2714