2057
Atoms. Timestep: 21174
Au 15.4887 29.2265 20.5137
Au 21.4346 26.4149 42.6323
Au 14.3423 16.2479 12.8148
Au 23.4294 21.1729 41.8453
Au 8.12716 29.1407 19.827
Pt 22.6854 32.6516 24.5875
Au 9.95983 26.4642 16.0401
Au 30.2101 11.0496 28.8566
Au 14.6632 37.9945 21.772
Au 25.7768 32.3138 43.0771
Au 35.02 17.1131 13.2406
Au 13.8885 22.1395 33.8917
Au 37.8919 24.5739 16.0722
Au 15.4973 41.6811 19.4311
Au 8.00798 32.7693 21.9617
Au 18.7468 36.8283 39.3599
Pt 21.3531 21.2753 30.9335
Au 12.2447 24.0987 39.6828
Au 9.03323 19.0187 21.5587
Pt 14.0829 17.5114 26.3188
Pt 38.4552 30.0686 14.435
Au 14.9542 30.7277 22.7662
Au 11.162 23.3947 19.7602
Au 17.4571 15.079 26.5388
Au 29.1047 42.0295 22.4254
Au 13.3058 33.4044 17.7538
Au 20.7057 24.2827 14.3426
Au 19.9186 10.1146 34.8423
Au 12.373 36.3002 16.2629
Au 11.5512 21.0536 28.7763
Pt 30.9724 33.0681 35.3786
Au 18.2888 30.7847 43.8817
Au 13.3104 35.5803 20.9691
Au 22.8315 14.8815 12.4184
Au 11.7427 26.8077 39.5038
Au 30.8584 37.6359 35.6845
Au 22.4136 20.0491 7.93334
Au 40.7864 27.2615 11.7623
Au 16.8047 28.6057 23.2397
Au 11.9273 13.6967 34.3091
Pt 26.3873 34.5538 18.1992
Au 9.38047 31.6157 19.7696
Au 17.7492 42.4451 23.245
Pt 26.3883 10.4224 21.043
Au 19.6841 35.5924 41.5381
Au 27.9812 10.3772 16.5518
Au 18.2295 41.7298 26.1469
Au 10.6421 19.988 37.5682
Pt 31.2236 25.2842 25.8121
Au 23.9147 5.72564 19.7781
Pt 26.5769 36.7803 16.6477
Au 17.5364 35.4204 37.1154
Pt 14.7892 16.6185 30.5833
Pt 24.2589 28.3168 34.1651
Au 10.626 36.7447 21.1501
Pt 25.8705 20.4095 10.6296
Au 34.6085 30.3453 9.28472
Au 33.6406 26.5645 37.9266
Au 35.6195 10.7125 23.704
Pt 22.8404 24.2546 27.8824
Au 31.6508 12.0606 34.1004
Au 12.9804 22.7667 27.0105
Au 36.3537 27.8735 34.0382
Au 13.4835 33.0885 22.4694
Pt 23.7259 15.8846 28.0827
Pt 28.5469 23.3478 27.0507
Pt 19.6372 19.536 27.0595
Au 34.3897 11.8158 34.6934
Au 39.02 20.39 11.996
Au 10.7177 31.8876 22.1753
Au 30.1585 7.41756 18.4298
Au 16.0091 17.7436 40.8151
Au 10.0724 32.9218 26.7914
Au 8.91145 22.7331 32.9593
Au 16.0921 35.5351 20.5513
Au 33.1565 9.68974 19.0206
Au 22.6769 37.4873 36.9109
Au 22.9203 41.0974 19.6878
Au 34.7174 21.8987 10.1116
Au 10.3548 26.9779 13.3292
Au 29.9239 39.6892 15.503
Pt 25.858 35.2634 28.3258
Pt 38.3362 17.7653 22.4309
Au 30.5438 13.9018 9.1522
Au 15.7623 35.831 23.2625
Au 36.8105 23.635 11.04
Au 15.0756 24.2225 24.0949
Au 24.8543 25.1756 12.1222
Au 17.2821 31.4507 24.2817
Au 42.7523 22.7008 25.465
Pt 17.8995 37.3229 27.4107
Au 30.5981 30.5177 11.3389
Au 9.18409 29.9541 17.5677
Au 32.8441 11.1553 29.5743
Au 38.9225 34.0006 23.7231
Pt 26.7225 10.1324 23.5653
Pt 29.4191 13.6271 28.7411
Au 33.9082 9.87199 21.7105
Au 24.6715 19.4363 6.27383
Au 26.2341 39.4314 11.6541
Au 19.2375 33.1324 10.7338
Au 22.9032 17.4538 6.7567
Au 13.0919 18.8508 19.6035
Pt 22.916 17.3887 30.0932
Au 32.9498 36.2357 13.9609
Au 16.7944 29.9588 16.4058
Pt 36.1397 30.4485 25.7086
Au 13.0095 25.552 37.3249
Au 35.0797 34.8066 15.3293
Au 36.4817 10.9958 21.1825
Au 30.1684 33.3534 10.3854
Au 14.744 39.6619 29.7974
Au 41.0842 21.8254 13.1318
Pt 21.3643 16.4173 23.9504
Au 14.9663 24.6048 39.715
Au 37.1978 12.0932 28.9567
Pt 13.8937 29.9065 32.5848
Au 31.1925 7.25088 27.4259
Au 20.5212 8.31097 32.7819
Pt 32.4168 33.7648 15.0859
Au 10.3047 21.1869 17.9369
Au 23.8866 5.32931 24.4199
Au 17.7548 38.3653 32.5818
Au 9.84031 34.683 31.2726
Au 32.2126 40.1354 29.5468
Au 29.9388 17.5239 37.2928
Au 16.2002 26.7767 25.5329
Au 18.4065 37.5774 11.6332
Au 10.3649 18.5624 19.0349
Au 17.4889 39.1652 16.6498
Pt 22.617 32.3339 19.8146
Au 23.3812 41.7115 34.944
Au 40.628 31.2027 23.2863
Au 21.1104 16.267 8.38813
Pt 23.3567 40.9432 27.7083
Pt 28.2202 29.8678 32.8599
Pt 26.4965 26.8933 16.278
Pt 20.512 25.5269 34.6732
Au 21.4869 35.5144 17.954
Au 38.5637 23.0098 13.22
Au 15.0033 20.2784 17.9086
Au 30.634 22.1698 42.073
Au 16.2244 7.6484 31.6116
Au 17.4109 35.2649 10.202
Au 18.4482 18.3549 11.5511
Au 30.3967 10.1775 18.3791
Au 11.7063 32.8158 32.1957
Pt 28.3122 19.1345 10.1137
Au 12.5245 38.5427 28.2273
Pt 16.6188 19.2802 22.8166
Pt 36.3364 24.2372 30.6457
Pt 25.0868 22.0216 38.3731
Au 28.3084 11.5503 30.7146
Pt 21.7557 25.5208 25.6494
Au 27.8648 5.90092 23.2365
Pt 19.1276 19.581 16.3259
Pt 36.2639 23.6831 27.2941
Au 40.0945 16.0817 17.4448
Au 39.8906 33.3932 18.6016
Pt 30.4998 16.8966 12.9642
Pt 19.1184 17.697 14.3149
Au 13.5547 40.3227 20.8004
Au 21.4289 21.8054 13.0779
Pt 21.0136 18.3857 21.9684
Pt 15.5911 32.6767 29.3894
Pt 33.9226 32.9597 17.3855
Pt 22.4111 13.5918 14.902
Au 19.6585 5.0763 22.1563
Au 12.2965 18.4619 39.0719
Pt 15.9767 12.62 27.5009
Au 15.3336 19.3157 30.2191
Au 16.0906 11.4049 20.4887
Au 23.1988 33.1133 42.4604
Pt 19.6115 39.0497 25.9816
Au 43.3575 24.624 18.9329
Au 25.7551 8.73338 31.9216
Au 15.5387 23.1575 14.2051
Pt 29.7726 16.5229 10.2371
Au 15.7623 23.122 9.44417
Au 27.5581 42.9728 24.5476
Au 28.7802 17.9294 7.6081
Au 29.3729 41.069 29.6665
Au 29.4826 29.549 42.4269
Au 39.1854 27.8303 32.2002
Au 22.0226 42.8109 14.7084
Pt 31.252 31.7346 27.9177
Pt 27.0115 33.1468 22.6618
Pt 20.2598 24.5378 17.1235
Pt 40.5702 22.0656 21.9505
Pt 17.482 14.9935 23.563
Au 10.84 12.4584 23.8999
Au 22.224 26.946 45.2066
Pt 26.0408 32.1189 17.1119
Au 18.2229 32.4955 16.9146
Pt 26.5788 30.7527 21.5957
Pt 21.2534 23.8424 19.882
Pt 37.0067 26.109 28.8371
Au 20.1946 29.2309 41.8583
Pt 19.0329 36.2455 29.6392
Pt 20.5851 29.6184 31.5689
Pt 21.2487 26.574 20.5868
Pt 25.0262 31.5605 14.6294
Pt 16.321 10.1987 31.3596
Pt 26.1976 14.5682 24.3047
Au 35.8918 29.5128 23.0848
Pt 25.2492 28.3994 28.9586
Pt 22.1834 39.8016 17.5483
Pt 23.3402 23.4139 39.8965
Pt 31.824 30.4872 35.8356
Au 15.0769 25.9274 9.35614
Au 21.1251 28.7729 12.9798
Au 16.1193 36.0964 39.4439
Au 11.8421 16.646 17.8841
Au 40.3144 15.096 26.6622
Au 24.9525 7.12654 29.6027
Au 31.1707 19.0926 6.80229
Au 20.6608 41.7096 34.2332
Au 28.0272 41.9912 19.9466
Pt 34.6066 36.4956 26.7631
Au 40.2904 20.5579 16.8443
Au 19.6758 43.5907 24.7515
Au 20.2538 36.4519 24.9063
Au 27.4563 37.484 21.5633
Au 25.2453 42.9951 28.5059
Au 17.4898 25.2148 10.4767
Pt 29.0645 10.8249 24.2711
Au 32.2537 34.119 12.2743
Au 34.0736 13.0827 15.1369
Au 13.9729 40.1906 23.5528
Au 15.0501 27.5063 43.5791
Au 30.6443 41.3332 20.1506
Au 38.0889 22.4383 17.7681
Pt 32.8361 18.0929 29.7061
Au 18.8667 34.8819 18.193
Au 21.4979 37.2671 39.4123
Au 11.1663 34.574 22.6146
Pt 28.3977 24.5916 31.6414
Au 41.971 27.5517 27.4435
Au 18.039 28.3235 12.4819
Pt 21.9633 18.8157 37.1407
Au 18.7454 29.0503 7.63143
Au 26.4971 36.3956 39.0613
Pt 18.35 23.863 28.8209
Au 16.1035 34.1359 17.9907
Au 24.0003 9.98679 13.4743
Au 8.58951 35.4222 22.7288
Au 31.3542 37.458 15.9559
Au 17.2196 26.8567 20.8443
Au 23.1545 19.6558 10.8613
Au 15.5246 40.0173 32.6302
Au 13.1595 31.1443 15.5406
Au 22.8191 38.4285 13.2224
Au 33.1442 27.6216 40.4305
Au 17.8849 42.6169 20.4227
Au 18.3647 35.0649 12.7978
Pt 23.6664 11.41 15.6396
Au 31.4799 24.5628 7.43311
Au 37.0289 37.3686 25.8736
Pt 33.8814 25.7457 31.3284
Au 41.6664 24.7281 21.0337
Au 30.7409 22.6187 12.1081
Au 42.8256 25.4967 25.6411
Pt 32.1426 17.2984 18.1411
Au 15.2541 15.4567 39.5091
Pt 37.8641 21.8108 20.5548
Au 21.8338 34.3543 9.05741
Pt 17.0191 16.6358 37.617
Au 8.8834 14.2007 24.4275
Au 40.1721 22.9472 15.5628
Au 24.5652 28.5154 44.9559
Au 14.2492 12.8196 16.2874
Au 6.58147 25.5961 28.5047
Au 34.7657 7.06696 24.5265
Au 9.09607 27.1467 21.3025
Au 18.0236 15.7668 12.5147
Pt 25.3274 29.3347 39.4925
Au 25.155 26.4324 9.66304
Au 11.0588 20.6574 20.4939
Pt 28.594 37.6496 32.7514
Pt 29.6635 27.2308 29.8212
Pt 26.4824 13.4983 34.5976
Au 24.5304 13.2154 39.0788
Pt 14.8155 17.7927 38.1712
Au 11.2979 21.7681 15.3991
Au 26.4344 27.8017 41.5164
Pt 21.4037 13.9695 22.6634
Au 29.5918 31.7329 40.1369
Pt 21.4045 27.6038 23.9457
Pt 29.5525 30.1892 16.9813
Au 42.4686 22.7773 17.2297
Au 14.5498 30.8535 18.0542
Pt 36.5727 33.716 22.1132
Pt 36.381 34.9309 24.7798
Au 12.2382 26.1944 17.5901
Au 11.6993 11.99 21.2796
Au 33.7519 22.8276 7.42391
Au 20.291 18.4819 6.99492
Pt 35.3641 35.2633 17.8639
Pt 23.0399 20.443 39.0489
Pt 12.7695 22.0184 17.6955
Pt 29.7315 36.1385 30.5836
Pt 28.679 26.1155 26.2644
Pt 39.9524 28.9709 19.0659
Pt 33.9874 18.4274 19.9683
Pt 39.9695 21.679 27.3341
Pt 19.9874 32.5856 25.0196
Au 34.1097 25.4287 7.1602
Pt 16.8928 30.7591 37.5308
Au 39.2174 22.8055 34.2707
Pt 18.0244 33.7466 29.2472
Pt 13.097 33.6354 29.9272
Au 13.7015 38.5418 16.8221
Au 23.5501 36.0361 14.3134
Pt 17.9669 21.3123 37.2837
Pt 31.4397 34.7855 22.0645
Pt 25.8911 38.0932 14.0649
Au 32.1721 20.0655 40.5778
Au 10.0428 23.3392 30.123
Pt 17.5986 13.456 33.0736
Pt 31.2935 22.9055 27.1782
Au 16.9363 22.4859 11.8363
Au 14.1203 18.3277 14.751
Au 10.44 27.7755 23.5549
Pt 33.3212 23.8739 14.825
Pt 17.5389 22.5929 23.9444
Au 28.8716 20.6229 6.79594
Au 26.7755 11.8108 38.7329
Pt 20.3999 11.7741 23.9639
Pt 24.8728 34.3279 23.9298
Pt 23.3175 13.6963 20.7798
Au 42.2581 17.7926 30.1335
Au 21.472 28.4404 8.2813
Au 38.3459 14.5449 24.5826
Au 34.4166 11.1377 17.0561
Pt 32.0984 12.8597 27.5652
Au 27.4719 21.9877 8.75538
Pt 32.7491 15.0373 16.7615
Au 16.7174 32.8884 26.7123
Au 14.2638 21.5996 11.3357
Au 13.6189 11.5978 34.6885
Pt 24.8048 14.0071 26.5296
Pt 21.0295 39.6366 28.3159
Au 33.4449 21.6833 16.2725
Pt 24.2982 21.7436 26.6351
Pt 33.0241 25.4222 20.5221
Pt 30.5352 37.0747 21.3117
Au 7.88943 28.7192 24.3895
Au 25.8161 22.4376 41.3838
Au 40.4986 28.0522 14.4136
Au 26.6015 5.52885 25.6036
Pt 31.9407 27.593 24.5984
Au 28.9698 23.4509 7.04787
Au 17.4279 41.4171 15.0834
Pt 21.5699 11.9849 19.6632
Au 14.2807 24.2033 31.9256
Au 21.2479 32.8165 6.89591
Au 27.9746 14.492 10.548
Au 7.90773 21.9293 26.0766
Au 19.3538 12.5733 36.7927
Pt 22.5337 23.1145 16.89
Au 39.1118 29.4847 10.1416
Au 25.9493 30.9628 9.08033
Au 15.7347 11.203 14.6575
Au 25.9397 40.6679 35.3659
Pt 16.4356 10.1273 26.0177
Au 7.46676 27.1913 26.5205
Pt 22.8703 30.3243 33.1943
Pt 11.9479 28.201 31.541
Au 14.4271 32.0245 13.0089
Pt 13.287 18.1781 28.752
Au 22.1068 12.1433 12.3539
Au 21.3008 23.7355 41.7886
Au 35.1233 37.9196 30.8662
Pt 28.6238 25.7704 15.052
Pt 22.8041 12.0664 30.4907
Au 14.9431 34.0248 40.7811
Au 21.988 36.4706 21.775
Au 14.6987 13.6061 13.7502
Pt 29.9998 32.7786 15.4674
Pt 39.4938 19.6269 20.9431
Au 19.8225 41.4895 13.7037
Au 19.2497 25.8696 37.3835
Au 37.2376 18.7069 10.7594
Au 31.0555 16.3789 7.77101
Au 26.6995 28.7115 10.8637
Pt 21.4613 23.687 32.4759
Pt 16.2925 28.4611 28.6114
Au 9.30333 16.2465 30.24
Pt 28.8551 16.4448 28.1682
Au 29.8592 19.5296 41.8093
Au 25.4015 36.79 32.7868
Pt 12.6901 17.9801 33.9388
Au 41.9985 20.5796 30.3222
Au 36.3381 21.9937 37.5878
Pt 29.0091 21.3253 13.8305
Pt 38.308 20.5223 23.0982
Au 23.7551 39.553 10.9242
Au 25.4655 5.36583 22.0779
Pt 21.9212 16.3048 33.2141
Pt 18.6356 12.2981 19.7337
Au 20.9232 30.2537 6.35262
Pt 19.0269 28.6221 19.6982
Pt 40.8236 27.8273 21.1549
Pt 14.889 11.9968 29.9889
Au 24.7029 40.4758 13.7798
Au 27.2971 28.2239 8.24321
Au 39.1506 30.2998 25.507
Au 26.5492 6.519 19.556
Pt 25.4745 29.6984 31.9009
Pt 26.2271 29.2354 13.6475
Pt 15.1 34.8301 31.2657
Au 41.1737 30.6644 15.0256
Au 8.48028 29.9278 33.7492
Pt 22.1438 29.6398 35.9778
Au 24.5323 15.7892 38.4103
Pt 28.3176 23.4443 40.8701
Au 24.282 43.1755 18.6988
Pt 27.129 36.8778 34.8823
Pt 34.389 35.7967 29.3554
Pt 23.0972 31.0396 16.3662
Pt 11.1388 30.3239 32.9204
Au 9.26206 28.846 15.0468
Pt 10.4363 20.6206 25.9282
Pt 24.4597 15.9866 14.1891
Au 35.1664 38.7128 20.9194
Au 30.6657 35.0743 37.1626
Pt 30.5755 38.1708 28.3429
Au 41.4815 24.3592 12.1973
Au 31.9398 19.3817 35.814
Pt 27.3826 18.26 35.7871
Au 10.439 13.304 26.5711
Pt 32.3492 37.9734 26.1889
Pt 37.2397 32.8299 29.4917
Pt 15.3549 21.9939 25.7735
Au 22.371 41.2096 12.516
Pt 29.8036 17.2769 19.8922
Au 14.4723 27.266 39.1697
Pt 22.6318 16.2605 21.6072
Au 26.8267 39.5821 16.1838
Pt 30.7689 31.3846 25.022
Pt 29.0063 16.3536 25.2618
Au 14.3775 8.8848 29.9238
Pt 34.834 31.2969 32.1473
Pt 33.5096 27.0539 33.9412
Pt 32.0908 16.2571 31.6324
Pt 23.9729 18.3964 15.5363
Pt 16.4486 27.2622 30.932
Pt 40.3121 21.6789 24.5646
Pt 33.2571 11.0327 32.285
Au 14.6175 31.6593 9.78343
Au 37.2022 23.8912 35.7672
Au 29.2964 32.5777 37.4381
Au 29.5475 27.9992 10.0728
Au 39.5806 32.8275 28.2305
Pt 21.6635 27.95 33.3818
Pt 16.1096 35.7553 26.2111
Au 29.5235 8.38081 29.2832
Pt 13.6628 24.2225 18.7756
Au 17.2261 32.7857 35.8795
Au 29.3772 11.7165 14.2508
Au 20.0897 34.6334 15.4867
Pt 13.6192 23.0114 37.5699
Au 19.1505 26.5333 8.4482
Pt 34.9691 24.7696 12.6888
Au 24.1225 41.4761 16.3108
Pt 26.6086 27.5428 33.3051
Pt 36.5279 26.4055 10.8481
Pt 26.2655 35.6541 13.7687
Au 20.5183 31.6139 15.1913
Au 37.2819 33.628 19.2132
Au 32.4305 18.4747 38.3914
Au 17.74 37.1905 24.5534
Pt 12.179 18.7178 24.5602
Au 40.7009 19.058 23.5127
Pt 27.799 11.3879 19.0301
Au 37.1127 31.3906 9.65031
Pt 34.726 23.1179 34.8877
Au 14.778 25.747 14.1413
Pt 27.5344 18.1116 21.3122
Pt 20.5143 9.84021 18.7047
Au 11.1288 26.5295 35.6725
Au 42.717 21.0997 23.2479
Pt 18.5625 16.6785 28.7881
Pt 25.9562 34.4328 34.4083
Pt 20.4646 7.94024 25.7721
Pt 30.0839 21.167 9.30648
Au 15.733 29.8735 11.4218
Pt 19.4502 15.2496 33.6852
Pt 31.6829 20.6139 23.367
Au 17.4073 13.0675 13.3843
Pt 31.7333 11.2474 20.6215
Pt 26.2769 16.0521 28.5874
Pt 20.738 28.0612 29.4971
Au 28.5801 27.1073 43.1665
Au 38.9868 17.4502 32.9196
Au 31.1428 14.9812 36.5637
Au 25.5493 29.7077 6.54192
Au 38.8887 26.9449 9.484
Au 26.896 14.5842 39.8166
Pt 17.7094 19.2844 28.8501
Au 33.5092 16.8707 36.5168
Pt 37.7336 30.7589 12.1337
Pt 32.4325 30.3104 31.7479
Au 27.2677 30.6511 41.5505
Pt 16.0343 33.4414 38.2768
Au 34.9309 9.68794 30.7355
Pt 38.3786 31.123 18.7263
Au 11.6758 32.1269 13.3122
Pt 28.516 32.3715 31.8461
Pt 24.4477 25.1616 16.5398
Au 35.2119 31.874 11.7341
Au 19.4607 11.5021 12.6037
Au 11.5018 28.8454 16.5315
Pt 35.5902 13.4312 24.5321
Pt 28.4248 36.6534 28.3501
Au 26.7531 24.6526 8.18569
Pt 28.2389 28.5854 15.2434
Pt 21.0461 27.521 18.0832
Au 37.1815 18.9164 13.5218
Au 14.093 22.4065 41.161
Pt 22.9719 36.0108 24.6628
Au 21.2097 4.07853 24.1636
Pt 27.5868 12.8235 22.244
Au 18.6173 8.1688 23.816
Au 10.7442 14.836 32.1202
Au 22.7042 4.58938 22.0353
Au 29.9797 28.8839 7.56478
Pt 21.2161 32.2149 32.3965
Pt 26.3776 23.3969 10.6816
Pt 27.0228 27.0371 30.7103
Au 18.581 35.4736 22.3029
Pt 21.3187 11.8616 17.0268
Au 17.6026 39.781 23.8731
Pt 16.7041 24.535 30.7328
Au 15.2028 10.289 23.5324
Au 19.0605 23.9306 43.2565
Pt 31.3281 15.8884 28.663
Au 24.2358 28.7471 8.77602
Pt 33.8734 34.388 25.4895
Au 34.6385 20.0106 14.383
Pt 18.0544 15.0955 31.0699
Pt 26.3049 32.0211 30.4822
Au 24.182 41.4081 30.3954
Au 24.5374 38.3289 35.0219
Pt 20.5208 16.9213 19.6995
Au 14.3034 28.585 16.4126
Au 10.6228 16.1377 34.5179
Au 24.02 35.998 9.39052
Pt 27.646 27.5951 28.1248
Au 24.2825 28.0441 11.9769
Pt 12.0202 16.3764 30.3547
Au 7.83269 24.7702 30.8843
Pt 36.1337 20.7275 16.7101
Au 31.269 29.6387 40.3441
Pt 23.5356 38.5416 28.5872
Au 35.0787 17.0318 10.1512
Au 38.7349 26.5273 19.6592
Au 20.1746 8.91462 16.2771
Au 10.7816 24.4326 14.4431
Pt 29.7506 22.694 22.4785
Pt 19.6338 22.9933 34.12
Au 25.3267 26.8568 6.90508
Pt 15.6324 23.4772 28.3517
Pt 21.3192 9.24991 23.298
Au 17.3008 34.8545 15.6189
Pt 31.6579 19.0869 21.2462
Pt 22.5706 14.7742 30.829
Pt 23.3519 33.8718 21.9559
Au 26.3979 39.3459 33.0375
Pt 18.9353 25.0852 32.5216
Au 22.3114 35.3082 41.1295
Au 22.2613 6.46442 29.615
Au 10.7947 22.827 37.5899
Pt 34.8671 33.4177 30.3884
Pt 22.163 39.6594 30.7217
Pt 14.4661 32.3532 31.846
Pt 19.3442 27.7782 22.2866
Au 13.0496 36.4313 23.6404
Au 18.5559 31.7036 7.24167
Pt 19.9044 23.3195 36.6777
Pt 32.0879 29.086 29.2235
Au 31.6665 16.8536 34.5662
Pt 27.829 38.9431 30.2282
Pt 23.2584 27.4441 21.9582
Pt 21.24 6.65469 23.4966
Pt 34.009 19.6218 24.6463
Au 25.0272 30.9996 11.8027
Au 27.3654 33.3646 41.0027
Pt 37.5735 16.4387 14.4746
Au 25.606 9.07687 15.6627
Pt 27.0261 26.7233 13.1067
Pt 23.0609 7.9633 25.0886
Au 18.0186 16.1765 39.98
Pt 20.0754 36.6616 32.1941
Pt 35.4427 32.0711 27.7127
Pt 12.2986 25.7694 33.4361
Au 12.8816 30.3501 11.42
Pt 26.9438 12.2922 28.219
Au 19.0171 20.8688 10.801
Au 11.4485 27.9788 28.6688
Pt 27.7752 21.9482 29.4066
Pt 28.925 28.4199 12.6649
Au 10.2572 32.2397 34.617
Pt 25.4578 17.0624 23.3437
Au 33.7831 25.0202 40.1008
Pt 32.8699 35.1486 19.7068
Au 27.5819 40.2125 24.7253
Au 13.605 33.2748 34.201
Pt 9.60725 18.4562 24.2133
Pt 30.6878 20.28 30.2915
Pt 24.2697 12.1712 34.4157
Au 21.7421 42.2399 29.4335
Au 38.5023 36.7025 23.6777
Au 22.451 30.8337 41.1309
Pt 23.6678 29.188 14.4445
Au 11.8251 30.8352 37.6392
Au 11.5699 23.2123 32.5655
Au 43.4478 26.8566 20.828
Pt 21.8172 39.4381 35.2427
Pt 26.8591 10.1138 26.5075
Au 25.9943 16.8842 7.03663
Au 6.64813 27.2318 30.5028
Pt 17.3957 14.3039 35.5239
Au 38.4527 12.796 20.6623
Au 37.6753 37.8495 20.9702
Au 27.9711 37.3792 11.9936
Pt 26.8153 32.9869 13.3009
Au 39.2627 17.562 12.3567
Au 38.9355 14.3616 15.4544
Au 42.6696 25.101 28.4436
Pt 15.8711 34.3246 13.4262
Au 8.29536 18.9052 30.7758
Pt 21.9345 30.0166 18.5411
Pt 17.4483 28.9238 42.1392
Au 12.2394 19.3967 16.9174
Au 33.569 37.6453 18.8248
Pt 30.0961 22.881 29.6907
Pt 29.2406 19.9691 22.4546
Pt 34.5601 21.2701 26.7761
Pt 35.2891 32.5051 24.3123
Pt 27.0564 24.5148 17.37
Au 10.0001 27.5262 18.6079
Pt 38.4718 17.2083 19.6352
Pt 24.8997 18.3423 27.699
Pt 33.3423 12.2691 23.1592
Pt 19.6833 33.7599 36.2163
Au 6.86307 34.0413 24.2007
Pt 30.1689 30.2217 14.1766
Au 36.5883 38.7836 23.505
Pt 21.3645 9.15083 30.2669
Pt 14.1226 27.6647 27.3004
Pt 40.3245 26.617 25.3376
Pt 33.9905 16.159 33.4411
Au 37.0411 32.5448 14.1711
Pt 18.6617 9.24547 30.6956
Pt 14.2563 10.5139 27.7789
Pt 29.8857 17.4148 22.699
Au 37.0478 16.0576 11.7169
Pt 21.7359 20.7526 23.4529
Pt 34.4415 25.9035 18.1428
Pt 23.8385 33.7577 29.1823
Au 41.9789 28.508 16.7954
Pt 24.9544 12.344 22.8547
Pt 22.0567 9.09641 20.7052
Au 12.9728 12.8914 27.6967
Pt 34.9073 13.8451 17.7945
Au 29.5228 26.7997 23.8334
Pt 30.2047 17.6553 30.3525
Pt 16.3108 15.5763 14.569
Pt 18.9248 32.7355 33.7659
Pt 27.9189 30.8146 12.3522
Pt 25.2039 15.241 18.9634
Pt 19.0723 32.7407 22.5165
Au 42.7443 29.1256 19.4553
Au 11.4492 17.8596 22.0327
Au 17.3 6.21477 22.5237
Pt 28.2276 36.2864 19.2828
Au 10.0533 22.8463 24.4629
Pt 34.349 30.4018 16.3754
Pt 36.1724 34.5755 27.5966
Pt 34.2811 17.0218 25.1909
Au 12.3503 11.1496 29.6925
Au 12.8969 22.8169 13.3433
Au 22.5003 29.7954 10.7624
Au 16.448 20.6086 41.5645
Au 8.12733 16.6348 25.5029
Pt 30.8905 12.556 31.4613
Pt 32.1333 28.5649 17.0157
Pt 22.2737 13.4286 28.3541
Pt 34.6066 29.5175 20.7887
Pt 17.5625 17.828 26.3535
Au 22.6596 16.5489 42.5013
Pt 20.1214 27.9617 35.5051
Au 16.3718 20.0168 10.5574
Au 18.5985 20.3638 13.6265
Au 28.3034 24.0068 12.7887
Au 18.9088 33.408 42.9509
Pt 16.1793 12.6885 22.8762
Au 14.5817 24.7472 42.5318
Pt 20.1892 13.5709 31.4761
Pt 31.3097 33.7715 26.1647
Au 22.1698 43.2896 23.9228
Au 22.4429 42.1572 32.2848
Au 14.8676 24.3579 11.6823
Au 14.431 17.5389 17.4782
Au 25.0241 34.6941 41
Au 34.3827 14.812 11.7666
Pt 28.4837 31.2526 23.7931
Pt 14.9095 15.1852 22.4105
Au 38.7421 18.2669 16.4042
Au 17.1389 6.98636 19.8154
Au 20.9668 31.4909 43.3961
Pt 30.3953 35.2572 14.2947
Pt 27.0744 39.2138 19.194
Au 29.4863 6.02805 25.6408
Pt 29.3325 9.37821 26.8471
Au 19.6103 26.7847 14.4789
Pt 22.3647 13.3163 33.0739
Au 19.8622 6.41005 28.0084
Au 18.4538 31.2914 41.1245
Au 42.5417 23.635 14.5604
Au 14.2508 36.173 18.3938
Au 16.243 41.3463 28.1309
Pt 22.1485 18.874 34.454
Au 24.5556 18.4393 42.3741
Au 12.8017 27.753 11.8395
Au 26.9001 29.2912 43.8565
Au 29.3289 13.1049 35.338
Au 17.4174 11.3008 34.8923
Au 27.6165 7.59978 17.2387
Au 21.7791 43.625 19.9371
Au 20.9069 41.9814 26.7533
Au 29.233 20.31 36.6064
Pt 30.8908 18.6949 9.42586
Pt 16.8362 32.4627 11.7127
Pt 15.4336 14.2314 31.6106
Au 10.7634 15.9973 25.0165
Pt 19.8683 16.5795 26.3205
Au 22.1478 7.5896 18.1841
Pt 27.9796 20.8657 40.4339
Pt 31.8389 38.286 23.5146
Au 21.6515 37.3951 15.9616
Pt 17.1375 24.078 26.1084
Au 37.8016 12.3015 23.2765
Pt 24.6488 26.8206 14.4475
Pt 30.6432 8.55604 24.8162
Au 15.4812 27.1081 11.8856
Au 23.3012 17.6813 40.0727
Pt 26.357 32.7856 27.8764
Pt 18.8988 30.4778 26.1826
Pt 27.8906 25.3789 34.2613
Pt 14.7432 27.0777 35.1247
Pt 23.3194 20.1342 21.3939
Pt 19.8231 30.1961 23.4592
Pt 25.8582 12.8922 20.0547
Au 10.1975 28.1737 37.8531
Pt 25.5156 20.6244 28.9355
Pt 21.1477 27.874 26.6104
Au 12.8605 28.3599 37.0693
Pt 27.2434 16.6148 37.9015
Au 34.9713 12.71 30.336
Pt 16.1601 13.3934 18.5431
Au 29.0227 40.7786 17.783
Pt 35.6436 21.0221 19.2781
Au 16.3769 29.4412 26.0902
Au 20.8104 26.7377 6.17872
Au 12.3482 10.2131 23.4987
Pt 13.3904 36.5096 26.4996
Pt 18.7618 26.2693 30.1332
Pt 16.0051 22.4824 19.6399
Au 35.7222 29.9441 13.9532
Pt 24.1701 26.5024 24.2044
Pt 35.3796 23.3433 17.2717
Pt 27.1898 40.1078 21.8722
Pt 18.8123 26.7823 42.5391
Au 26.4964 5.11666 28.3607
Pt 19.3675 19.3558 35.7408
Pt 26.3188 27.8783 25.7494
Pt 29.5088 21.5353 25.0895
Au 9.10636 16.2975 22.7343
Pt 27.6421 34.7322 36.5242
Au 13.2778 16.385 24.0553
Pt 32.6868 25.2156 35.8146
Pt 31.6058 22.3738 31.8625
Au 20.1723 41.0054 24.1851
Pt 32.194 16.5435 21.2929
Pt 39.3072 21.1624 29.8901
Pt 38.7309 23.1249 31.5299
Pt 31.8978 29.5083 26.4051
Pt 32.27 6.68048 25.0999
Au 11.8258 14.7264 22.4498
Pt 32.1685 22.6464 35.4279
Pt 36.8685 14.6737 19.4951
Pt 22.4086 11.5416 22.2793
Au 34.9585 35.5347 35.3879
Au 19.5359 30.9367 12.3891
Pt 15.5018 11.9984 32.9154
Pt 32.5263 20.9466 28.5694
Au 13.3977 32.4394 39.1489
Au 16.9473 35.3042 42.2123
Au 14.379 25.8037 29.4845
Au 39.2101 14.2847 29.2738
Pt 17.2641 18.896 33.637
Pt 28.9763 21.9536 31.932
Au 9.47127 34.3741 20.2973
Pt 26.3272 26.9154 38.7985
Pt 29.9016 25.342 36.1124
Pt 35.557 20.4673 32.8522
Au 42.0174 19.9701 25.89
Pt 35.9167 15.4425 26.195
Au 40.651 28.5754 29.7498
Pt 28.4924 26.2107 40.5201
Au 18.4717 21.6985 39.982
Pt 14.436 34.267 27.6281
Pt 27.3412 19.5663 12.6548
Pt 25.0134 31.8663 40.56
Au 23.164 31.2859 8.4148
Au 10.1311 16.126 20.248
Pt 9.94545 28.1888 26.3035
Au 20.4638 39.3284 12.0283
Pt 28.425 37.0334 14.8178
Pt 25.1261 25.2928 34.8116
Au 25.8627 16.0271 35.6662
Pt 29.38 33.9547 24.309
Pt 17.6334 21.7018 27.2577
Pt 32.7535 30.681 18.7008
Au 29.0045 6.40308 20.7586
Au 24.8332 18.527 37.7915
Pt 16.041 31.5341 40.071
Pt 30.9097 24.8324 14.2489
Au 26.1821 22.2523 13.1949
Pt 37.9235 17.2511 25.003
Pt 25.7817 25.2196 32.2065
Au 22.0162 11.7148 35.7898
Pt 33.3931 31.4345 29.5947
Au 34.5657 12.1871 12.5243
Pt 24.4133 11.5302 27.6139
Au 32.9612 36.4909 36.8072
Au 40.3234 16.6065 14.6954
Pt 36.4672 16.4533 32.4944
Au 17.9141 8.76229 33.39
Au 25.9882 40.4106 28.4367
Au 23.1051 28.642 6.15332
Au 32.0445 27.2104 7.32346
Au 32.4176 35.0616 34.4482
Pt 25.5822 11.4701 30.4268
Au 31.6368 26.1206 9.74245
Au 17.8303 33.358 20.1818
Pt 29.1275 10.7627 21.3617
Pt 26.6829 18.2287 33.0261
Pt 27.2837 29.3922 37.3158
Pt 27.5963 14.4497 26.7942
Au 10.8389 36.749 29.6705
Au 16.5491 39.5831 35.196
Pt 34.4256 32.248 14.5313
Pt 36.228 15.9702 23.441
Pt 36.834 29.7158 16.7323
Pt 28.5493 32.8243 17.6548
Au 40.4547 15.9598 31.238
Au 28.6593 37.077 37.253
Pt 26.1355 32.0172 33.2309
Pt 12.7421 18.7273 31.3506
Au 24.893 39.0317 25.9833
Pt 32.5115 17.4618 11.042
Au 14.3166 34.1162 24.9217
Pt 28.9178 29.0867 25.68
Au 28.5219 28.8432 39.8858
Pt 34.7922 23.4067 20.0174
Au 40.082 25.3934 14.2374
Au 13.8149 15.6143 15.5307
Au 12.9519 19.96 26.757
Au 16.4795 8.70656 21.7687
Au 15.9684 7.6851 24.5512
Pt 26.8897 36.6248 30.5933
Pt 24.8215 17.4722 20.7272
Pt 31.5591 28.0553 12.0995
Au 10.5758 37.06 26.9024
Pt 38.4653 23.5732 28.7879
Au 17.2284 37.2764 14.1194
Pt 30.8862 32.3092 30.5241
Au 13.7809 14.7015 18.0953
Pt 14.6186 15.0706 27.2043
Pt 35.7471 26.0774 26.1794
Au 38.7816 13.5622 17.9801
Au 21.955 13.492 37.9044
Pt 29.6466 18.5841 34.5753
Au 17.4466 37.9932 21.5634
Au 19.5579 38.8181 14.5748
Au 7.78726 30.2473 26.6867
Pt 36.4175 32.4851 16.7374
Au 14.533 24.5484 34.73
Au 8.14147 31.5286 29.1169
Au 23.6405 35.1692 19.7273
Au 26.9181 13.9096 37.1895
Au 32.429 24.6871 11.9191
Au 29.2218 10.1854 11.7255
Au 32.1191 23.0028 9.63436
Pt 22.0578 26.1389 15.8984
Pt 30.1334 24.4849 16.9697
Pt 23.7941 33.3653 17.7118
Au 37.962 28.4551 29.7798
Pt 19.8048 21.5265 25.2473
Pt 28.8383 13.7614 24.4004
Pt 30.041 36.2646 26.2584
Pt 14.1855 35.7816 33.6622
Pt 18.7697 34.953 26.9321
Pt 34.0157 22.2124 24.1714
Pt 21.912 10.2719 25.7137
Au 43.3654 19.5251 28.239
Au 16.2032 30.1422 8.10415
Au 37.5023 33.4852 11.6378
Au 15.1795 21.8175 22.6611
Au 39.792 22.6707 10.7694
Pt 15.231 37.8806 27.8088
Pt 26.4857 23.213 25.2243
Pt 21.9504 17.9216 27.3485
Pt 36.129 18.7684 26.58
Au 23.426 26.2268 5.16148
Au 27.2107 31.4789 38.9161
Pt 17.4921 35.7743 31.7626
Au 32.5109 40.4888 25.3277
Pt 38.3192 19.9442 18.6239
Au 20.8907 23.725 29.837
Pt 12.8454 18.3815 36.4931
Pt 35.9894 23.9486 24.5177
Pt 29.1178 12.0683 26.5738
Pt 15.9477 30.2741 30.7914
Pt 16.9905 38.0822 29.9016
Pt 28.4496 33.1541 34.4119
Pt 33.3634 33.6301 28.0406
Au 33.3902 37.6692 34.3056
Au 12.8875 12.9511 31.8716
Au 42.2348 25.6063 16.3761
Pt 31.362 26.192 18.6958
Pt 17.9205 10.6892 23.1735
Au 17.5146 8.69357 17.0542
Pt 25.5443 11.6676 17.4254
Au 25.3458 17.7305 11.6787
Au 17.4532 25.3476 13.199
Pt 32.4932 22.6937 21.7341
Au 34.4246 24.7688 9.77986
Pt 25.4783 7.7446 24.4528
Au 19.2264 34.1264 8.26548
Au 32.2599 39.2382 20.7623
Pt 26.2316 24.628 14.5404
Au 34.4377 27.5971 8.7626
Au 22.5563 9.40434 34.3397
Au 9.54777 13.7447 21.7095
Pt 24.6922 23.4306 18.5925
Au 41.7549 18.3126 16.3012
Pt 30.8848 22.4794 15.309
Au 24.216 25.1119 45.0134
Pt 29.3375 17.995 17.2424
Pt 23.8663 31.9786 31.393
Au 32.043 10.012 26.9849
Au 32.7285 32.034 10.435
Pt 27.561 12.5493 12.4564
Au 29.9607 41.6719 24.9734
Pt 36.0757 18.1233 15.9192
Pt 36.91 24.7804 21.6459
Au 41.2469 31.0725 17.8021
Au 26.1988 17.3761 40.2481
Pt 37.0177 29.5961 32.0567
Pt 16.5459 15.6432 17.1739
Pt 26.2987 16.6697 25.9687
Pt 18.8884 28.1244 24.9251
Au 15.7102 22.406 36.14
Pt 12.4835 21.1002 36.0441
Pt 21.1443 34.4982 33.7683
Pt 21.1332 26.2554 31.4395
Pt 28.8211 25.2045 21.729
Au 15.4317 23.1179 17.0316
Pt 18.6375 17.4852 23.8489
Au 23.7431 22.4165 44.5499
Pt 26.2026 34.9594 20.8992
Au 22.0771 19.5313 5.26434
Pt 29.7212 27.244 16.9776
Au 23.1399 7.93915 31.878
Au 42.1859 26.6911 23.2907
Pt 18.6383 11.2684 17.3102
Pt 21.0901 15.8249 28.6612
Pt 27.7741 31.3212 15.1577
Au 32.9279 8.28567 32.3173
Pt 17.6666 21.3657 21.432
Pt 37.3423 25.4144 13.5063
Au 14.2264 37.0045 14.2089
Pt 18.6586 11.1753 32.3947
Au 13.9649 8.04659 22.79
Pt 26.3061 25.4597 26.8131
Pt 32.228 20.4353 11.047
Au 24.7333 7.20927 17.4962
Au 25.656 20.7029 43.5689
Pt 28.6655 27.1095 37.5903
Pt 17.8522 20.6869 18.7566
Au 22.4562 14.7762 40.2927
Pt 31.7843 20.7175 13.7104
Pt 20.5716 23.4562 39.182
Au 18.1785 40.8909 33.428
Pt 21.4858 16.2097 14.7242
Au 33.0233 39.1606 32.0609
Pt 17.0219 18.1565 18.5737
Pt 28.3055 39.3673 27.5344
Au 30.958 26.9871 38.9401
Pt 17.1338 29.1205 39.6134
Au 40.7842 30.4321 27.6862
Au 36.6031 25.964 8.18883
Pt 27.5136 29.588 30.1455
Pt 30.6519 27.4565 27.2781
Pt 27.8146 34.2984 15.4621
Au 34.0627 39.7081 23.1586
Pt 20.6054 39.2347 32.9299
Au 23.9446 22.1948 11.6827
Au 40.2955 16.2378 23.8193
Au 22.3167 26.8488 10.4613
Au 35.4137 33.9571 33.155
Au 34.3173 31.1625 36.916
Au 36.9327 26.9267 17.556
Pt 27.0304 13.7761 17.7595
Pt 28.7719 35.0273 21.8146
Pt 19.4521 27.5225 39.9988
Au 35.5084 25.1853 33.3215
Pt 12.6516 28.3729 34.3027
Au 23.4702 23.8615 14.2257
Au 17.9926 30.6685 10.0119
Pt 30.9925 14.5237 33.4744
Au 15.1695 37.2209 37.0241
Au 14.4597 34.7622 15.6952
Au 20.9936 14.4051 10.3418
Au 33.8326 7.86307 27.0503
Au 22.5033 31.314 13.3373
Pt 38.9472 29.9108 21.3871
Pt 29.7376 32.6616 12.9267
Au 26.835 30.1566 27.4373
Pt 21.6224 37.1134 29.9345
Au 25.9808 32.4062 6.81381
Au 31.0907 8.4863 20.7279
Pt 35.8816 30.3749 29.8302
Pt 22.1385 22.9159 24.8786
Pt 14.2944 24.1579 21.3109
Au 20.6185 16.664 11.9847
Pt 37.9108 16.5381 30.2871
Pt 22.9048 26.7636 29.2731
Pt 16.4711 17.9287 13.2377
Au 21.2906 10.6343 14.4885
Pt 14.2085 27.0195 32.2924
Au 42.7229 20.2823 18.202
Au 12.2708 38.6641 25.2746
Au 34.1753 15.1321 20.1007
Au 41.0009 23.5259 29.9829
Pt 19.924 36.5472 36.8338
Au 19.2224 13.9566 28.6158
Pt 25.4014 19.9913 40.2132
Au 35.9288 24.7406 38.2536
Pt 25.2666 36.0972 36.6441
Au 15.0269 38.0681 24.8089
Au 10.6826 23.8954 17.1479
Pt 30.9627 36.9153 18.7598
Pt 25.6717 19.785 19.6661
Pt 31.5773 19.5477 16.0746
Au 22.7678 25.9504 7.80751
Pt 27.3481 32.8401 10.679
Au 26.3003 23.43 44.1092
Au 10.1732 23.1997 27.2608
Au 21.9033 24.1729 5.42847
Au 10.804 29.2495 20.6204
Au 12.1102 22.9266 22.3305
Pt 24.0286 11.0713 20.1298
Pt 40.0866 16.9435 28.7161
Pt 27.1623 17.143 18.9264
Au 19.5104 26.0475 44.9792
Au 38.1783 20.9701 15.0194
Au 20.4986 31.1579 9.02383
Pt 31.0955 19.5066 18.7042
Au 10.098 29.9392 30.4823
Au 24.6765 11.4038 36.9727
Pt 23.0638 33.1437 39.5355
Au 35.7788 36.7769 33.1889
Au 22.0435 14.8508 26.0995
Pt 31.2151 36.8755 32.7774
Au 26.679 32.167 36.2252
Au 43.9492 27.0898 18.0717
Pt 16.7262 9.91919 28.7853
Au 40.6549 24.6375 32.6711
Pt 23.6987 27.1614 38.3507
Pt 26.4231 17.8413 14.4089
Au 9.37779 27.2007 30.8507
Au 28.6452 15.7501 35.4699
Pt 17.4832 12.4438 30.3193
Au 13.3352 26.9356 41.615
Pt 32.3244 32.8595 23.6202
Pt 20.0176 19.1828 18.6608
Pt 24.6495 31.7431 23.0997
Pt 14.7399 19.5352 24.5497
Pt 24.1853 9.62433 22.6228
Pt 14.1572 13.5245 20.6349
Au 31.2326 21.9187 6.88174
Au 23.8736 24.0513 9.54761
Au 24.5263 24.0891 6.69957
Au 21.7774 5.61408 26.2711
Au 12.7066 30.889 30.1512
Pt 27.2106 14.1229 30.3848
Pt 33.1243 26.5281 13.8417
Au 24.47 33.2002 10.0545
Pt 22.6953 15.7237 19.0428
Au 11.6775 25.6374 30.7241
Pt 27.7095 22.2514 38.1771
Pt 31.729 16.7894 26.139
Au 27.2698 11.2577 35.9782
Au 20.7378 24.6279 9.45655
Au 13.0974 30.8227 20.6823
Pt 18.0507 30.4346 32.4951
Pt 23.2122 16.5886 36.0585
Au 23.6146 35.5266 38.6825
Pt 23.6962 20.6107 36.1459
Au 15.5123 39.3396 14.688
Pt 33.4051 20.5071 31.0159
Au 19.0307 42.2125 28.8361
Pt 14.6451 19.7886 34.8659
Pt 14.876 29.7155 35.5006
Au 11.7188 20.4414 33.5042
Au 42.9665 22.3322 20.5355
Pt 26.7641 21.634 18.0129
Pt 31.7205 24.4083 38.2009
Au 17.0627 24.9079 7.75518
Pt 25.808 28.5966 20.2264