2057
Atoms. Timestep: 20347
Au 25.1566 24.5772 25.7482
Au 27.419 24.5137 24.2859
Au 27.4739 24.4952 27.2985
Au 22.8226 24.6216 24.1871
Au 22.8855 24.5938 27.1305
Pt 23.7356 26.9099 25.639
Au 26.5437 26.8858 25.7759
Au 23.6936 22.2631 25.5087
Au 26.5579 22.1854 25.6139
Au 25.2114 22.9575 27.9452
Au 25.2992 26.0362 28.1288
Au 25.0596 23.1713 23.3027
Au 25.112 26.0179 23.3834
Au 29.6468 24.5771 22.7138
Au 29.7728 24.5767 25.7054
Au 31.4162 22.1502 28.2556
Pt 20.4922 24.6238 22.5109
Au 20.4582 24.597 25.5624
Au 20.5266 24.5889 28.5121
Pt 22.2761 29.1596 25.5156
Pt 25.0298 29.2637 25.5441
Au 27.8101 29.2537 25.6603
Au 22.1835 19.9844 25.2659
Au 25.0618 19.8211 25.3491
Au 27.9786 19.8275 25.5604
Au 24.988 21.2788 30.0927
Au 25.0949 24.3253 30.2837
Au 25.1339 27.5162 30.4379
Au 25.0019 21.7636 20.8923
Au 25.0398 24.6367 20.8994
Pt 25.0405 27.4233 21.0176
Au 27.5224 22.6106 29.6488
Au 27.9648 27.9516 30.1791
Au 27.3914 23.1529 21.8212
Au 27.3617 26.028 21.8325
Au 22.7438 22.8798 29.3544
Au 22.813 26.1283 29.4458
Au 22.7305 23.1752 21.7067
Au 22.7256 26.0312 21.7332
Au 28.7652 26.9515 24.1891
Pt 31.5058 26.7546 28.061
Au 21.3504 26.8968 24.0768
Au 21.3538 26.939 26.9771
Pt 28.8752 22.1449 24.101
Au 28.9451 22.2097 26.9485
Au 21.3065 22.317 23.9619
Au 21.3031 22.2372 26.886
Au 23.6631 28.3442 27.9577
Pt 26.391 28.551 27.9605
Au 23.5931 20.6473 27.7345
Pt 26.4402 20.485 27.8045
Au 23.6051 28.3214 23.2361
Pt 26.4298 28.3791 23.3477
Pt 23.5797 20.7737 23.0268
Au 26.4412 20.7955 23.1657
Pt 31.885 24.6334 21.0141
Au 32.092 24.549 23.8888
Au 33.8485 22.2625 26.4653
Au 34.1529 22.2755 29.2964
Pt 18.1793 24.6525 21.0072
Au 18.1382 24.6336 23.9138
Au 18.0508 24.6172 26.9539
Au 18.1046 24.5911 29.893
Au 20.712 31.4234 25.2765
Pt 23.5685 31.5637 25.3464
Pt 26.3287 31.6483 25.4564
Pt 29.1039 31.5878 25.5587
Au 20.6855 17.673 25.0247
Au 23.5237 17.4883 25.0998
Au 26.4295 17.3858 25.2185
Au 29.4273 17.4146 25.6042
Au 24.488 19.6078 32.3236
Au 27.5983 25.362 29.979
Au 25.3997 25.7964 32.5461
Au 24.6455 29.2493 32.5963
Au 24.9765 20.4174 18.4638
Au 24.9663 23.1864 18.4262
Au 24.9919 26.0172 18.4819
Au 25.0402 28.8021 18.5372
Au 29.9191 24.4931 28.6124
Au 24.8889 22.6394 32.3983
Pt 32.7667 29.2612 27.9721
Pt 33.9276 27.0393 29.287
Au 29.9862 28.3227 32.248
Au 29.6775 23.1355 20.2221
Au 27.3317 21.7405 19.3453
Au 29.6543 26.0437 20.1917
Au 27.3447 24.5777 19.3265
Au 27.3118 27.4078 19.3544
Au 20.2805 22.8042 30.7055
Pt 22.3487 21.2232 31.5636
Au 20.3191 26.3263 30.7788
Au 22.6459 24.4726 31.6053
Au 22.5132 27.7293 31.7686
Au 20.4151 23.221 20.1306
Pt 22.6361 21.7445 19.2821
Pt 20.3825 26.0501 20.1172
Au 22.6546 24.609 19.2675
Au 22.7022 27.442 19.3385
Au 30.1327 29.3603 23.9346
Au 31.075 26.9876 22.4718
Au 30.3276 29.008 26.7176
Au 31.2568 26.8175 25.3163
Pt 32.3169 24.531 26.6864
Au 19.8857 29.2106 23.9097
Au 19.018 26.9131 22.4223
Pt 19.8111 29.266 26.828
Au 18.9403 26.9498 25.4155
Au 18.947 26.9798 28.3358
Au 30.2816 19.7367 23.8949
Au 31.0563 22.1596 22.5079
Au 30.5829 19.8659 26.7108
Au 31.3153 22.2075 25.3335
Pt 31.2811 19.903 30.0484
Au 19.7879 19.9952 23.7681
Au 18.9603 22.3457 22.3898
Pt 19.7574 19.9277 26.6794
Au 18.8754 22.2731 25.3544
Au 18.9149 22.2448 28.2416
Pt 23.2986 29.9375 30.1794
Au 22.0424 30.6895 27.7104
Au 26.0662 30.1377 30.2433
Au 24.8147 30.8591 27.7782
Au 27.5948 30.9087 27.9317
Au 23.285 18.9674 29.9443
Au 21.9538 18.3642 27.4991
Au 26.1515 18.7711 29.9748
Au 24.8507 18.1354 27.5791
Au 27.7007 18.0151 27.7637
Au 23.5609 29.7514 20.7979
Pt 22.1833 30.6339 23.0826
Au 26.429 29.7449 20.8694
Au 24.9825 30.7074 23.1272
Au 27.8261 30.7277 23.2063
Pt 23.5052 19.4439 20.6463
Pt 22.0986 18.5282 22.8106
Pt 26.3371 19.3575 20.7187
Pt 24.9298 18.3826 22.8686
Au 27.7796 18.4623 23.006
Au 28.8947 20.3761 28.8893
Au 28.7556 26.9698 27.6496
Au 28.7668 20.7376 21.6245
Au 28.7519 28.3805 21.6536
Au 21.0722 20.5684 29.1157
Au 21.1418 28.5341 29.2878
Au 21.2296 20.8233 21.4968
Au 21.2197 28.3719 21.5669
Pt 34.1493 24.6718 19.5081
Au 34.3766 24.7089 22.2577
Pt 36.0573 22.4011 24.7456
Pt 36.4134 22.619 27.4656
Pt 34.4765 22.2897 32.2787
Au 15.8821 24.6594 19.5014
Pt 15.7735 24.6501 22.3014
Au 15.7105 24.6634 25.293
Pt 15.6234 24.5499 28.2506
Pt 15.7363 24.5472 31.1293
Au 19.1195 33.742 25.0583
Au 22.0282 33.8977 25.0989
Pt 24.8374 33.9885 25.2146
Pt 27.6012 34.0088 25.2628
Au 30.4739 33.8867 25.3308
Au 19.0826 15.4197 24.81
Pt 21.9258 15.1307 24.8488
Pt 24.7581 15.0107 24.8951
Pt 27.8521 15.0632 25.2842
Pt 30.9058 15.1403 25.6578
Au 24.2352 17.8889 34.4542
Au 23.5036 21.4976 34.3153
Pt 21.2298 24.2507 35.8258
Au 23.7093 24.334 34.243
Au 24.4313 30.9968 34.7512
Au 24.9252 19.0571 16.0878
Pt 24.9353 21.8199 15.9522
Au 24.9821 24.5874 15.9741
Au 24.9464 27.4449 16.0142
Au 24.9731 30.2189 16.0824
Pt 31.7416 20.4061 32.8725
Au 29.2961 19.1646 33.54
Au 28.025 19.5366 36.2437
Au 32.0012 22.3279 31.0301
Au 27.3895 23.6327 32.3527
Au 28.6049 27.232 35.0785
Au 32.5423 24.5488 29.4348
Au 28.114 26.3056 32.5776
Pt 28.9361 27.2842 37.8779
Pt 31.8851 23.2354 18.6325
Pt 29.6292 21.7128 17.8323
Pt 27.2882 20.3742 16.9246
Pt 31.8855 26.0632 18.5985
Au 29.6342 24.5849 17.7525
Au 27.2945 23.1433 16.8374
Pt 29.6218 27.4435 17.7619
Au 27.2937 26.0164 16.8604
Pt 27.3397 28.8232 16.8773
Pt 17.6958 22.6025 31.9618
Pt 19.7712 21.0339 32.8357
Au 21.9679 19.4153 33.6192
Pt 17.7848 26.5979 31.9523
Pt 19.4252 24.5537 32.5135
Pt 21.3893 22.9866 33.4352
Pt 19.9414 28.0602 33.0139
Pt 21.4846 25.8733 33.5604
Pt 22.0982 29.5279 33.9486
Au 18.1159 23.2362 18.5994
Pt 20.3639 21.844 17.7405
Pt 22.6063 20.4566 16.8571
Pt 18.0882 26.0961 18.614
Pt 20.3269 24.6602 17.7081
Au 22.622 23.1912 16.8288
Au 20.3365 27.4687 17.7557
Au 22.6337 26.0331 16.8237
Au 22.6237 28.8594 16.8846
Au 31.4544 31.7634 23.6328
Au 32.4521 29.4098 22.1489
Au 33.3277 27.0309 20.8555
Au 31.8712 31.4136 26.3167
Au 32.6775 29.1832 24.9741
Pt 33.5987 26.945 23.6371
Au 35.033 29.5572 26.3116
Au 34.6108 24.6888 25.0531
Au 33.7363 27.013 26.4669
Au 18.2701 31.5233 23.6965
Au 17.4788 29.2384 22.2421
Au 16.6571 26.9581 20.8798
Pt 18.212 31.5155 26.6194
Au 17.4088 29.288 25.2128
Au 16.5369 26.9463 23.7489
Au 17.3763 29.3315 28.1208
Au 16.5244 26.9696 26.6997
Au 16.5192 26.9738 29.5622
Au 31.6873 17.2605 23.7514
Pt 32.516 19.8281 22.2031
Au 33.2335 22.242 20.86
Au 32.1974 17.5366 26.5347
Au 32.8992 19.8526 24.9997
Pt 33.5715 22.2162 23.6405
Au 32.8245 17.6785 29.6146
Au 33.1552 19.9352 27.9362
Pt 33.7909 19.9402 30.9546
Au 18.22 17.7125 23.5035
Au 17.4087 20.0344 22.1789
Pt 16.6327 22.317 20.842
Au 18.1977 17.6568 26.3976
Au 17.3054 19.9617 25.0908
Au 16.5022 22.346 23.7146
Au 17.3334 19.9511 27.9527
Au 16.4121 22.3195 26.6576
Au 16.4665 22.2415 29.4874
Au 23.079 31.638 32.3424
Au 21.8008 32.3315 29.9158
Au 20.4866 33.0453 27.4958
Au 25.916 31.8882 32.414
Au 24.5803 32.5643 29.9887
Au 23.3037 33.2766 27.5484
Pt 27.3325 32.8139 30.0984
Au 26.0766 33.3559 27.6402
Au 28.8359 33.4099 27.7107
Pt 22.9924 17.1754 32.0003
Au 21.7199 16.6603 29.667
Au 20.4041 16.02 27.2397
Au 25.7887 17.0219 32.0666
Pt 24.5629 16.4044 29.7188
Au 23.2483 15.7833 27.2809
Pt 27.3821 16.1924 29.8831
Au 26.1376 15.6487 27.3883
Pt 29.0103 15.5435 27.7218
Au 23.5261 31.1932 18.3004
Au 22.0506 32.1086 20.5995
Au 20.5689 32.9562 22.7925
Au 26.4099 31.191 18.3518
Au 24.9127 32.2087 20.5848
Au 23.4501 33.0582 22.876
Au 27.778 32.1661 20.7012
Au 26.2991 33.1074 22.9782
Pt 29.0852 33.1078 23.0554
Au 23.4359 18.1059 18.2352
Au 21.9809 17.1739 20.4368
Pt 20.6244 16.2096 22.6045
Pt 26.3267 17.9704 18.3366
Pt 24.8422 17.0616 20.5048
Au 23.4259 16.0706 22.6885
Pt 27.7135 17.0665 20.5485
Au 26.3096 15.9628 22.7933
Au 29.1323 16.164 23.0613
Pt 31.248 17.9853 31.9097
Au 31.1748 30.8124 32.0587
Pt 30.2987 17.8338 28.4637
Pt 30.1852 31.119 28.3135
Au 28.7819 18.5593 30.7968
Au 28.7952 30.4871 30.5426
Pt 31.0165 20.6991 20.0247
Pt 31.0375 28.4371 19.9397
Au 30.1795 18.3392 21.4245
Au 30.1039 30.7518 21.3835
Au 28.6827 19.3225 19.1794
Au 28.7054 29.7683 19.1155
Pt 18.6344 20.5112 30.4192
Pt 18.7156 28.7381 30.5758
Pt 19.4937 18.2919 28.8638
Pt 19.5554 30.8249 29.0716
Pt 20.7808 18.8874 31.225
Pt 20.8561 30.1277 31.5445
Pt 18.9111 20.8843 19.9409
Pt 18.8547 28.4012 19.9234
Pt 19.6947 18.5661 21.2549
Au 19.6974 30.6926 21.3837
Pt 21.1459 19.4705 19.0661
Au 21.1725 29.819 19.1316
Pt 36.4237 24.6694 18.0638
Pt 36.6878 24.9205 20.7746
Au 38.3858 22.4587 22.9623
Au 38.5223 23.036 25.6982
Pt 38.9553 22.9523 28.4785
Pt 36.3813 20.2325 31.7021
Pt 13.5792 24.776 17.9908
Au 13.4373 24.7001 20.7795
Au 13.405 24.6913 23.6325
Pt 13.3236 24.5522 26.5545
Pt 13.2432 24.5197 29.3443
Au 13.2736 24.5895 32.1783
Au 17.6634 36.102 24.8115
Au 20.487 36.2181 24.8534
Pt 23.3299 36.2988 24.9872
Pt 26.1601 36.3689 25.0236
Au 28.9838 36.3854 25.0403
Au 31.8596 36.265 25.2054
Pt 17.5418 13.1976 24.6622
Pt 20.344 12.9462 24.6525
Pt 23.137 12.7414 24.6746
Au 26.1716 12.717 24.808
Au 29.2945 12.8124 25.0309
Au 32.2808 12.8382 25.5322
Au 21.5535 16.8785 40.7209
Pt 25.962 21.037 37.5675
Au 23.7148 22.7598 36.746
Pt 22.8481 27.1802 38.4658
Au 23.6943 28.8856 36.5196
Au 24.3221 32.9133 36.7309
Au 24.8513 17.64 13.7405
Pt 24.8788 20.4998 13.6154
Pt 24.8841 23.2296 13.5566
Au 24.9061 26.0734 13.5659
Pt 24.8917 28.8527 13.5675
Pt 24.9318 31.6351 13.714
Pt 34.3997 19.961 33.6025
Au 32.0406 18.6832 34.9568
Au 28.355 21.7353 34.139
Au 25.8964 20.2502 34.7258
Au 32.8026 24.5696 32.3204
Pt 34.1192 26.606 34.711
Au 28.8192 24.4045 34.86
Au 27.0226 20.5561 31.9937
Pt 34.1336 26.9169 32.0414
Au 29.9119 24.3365 31.4234
Au 23.7771 27.1941 34.295
Au 31.4504 26.5771 30.8295
Au 26.2327 24.0167 37.6918
Au 26.0902 28.6044 35.0613
Pt 34.0415 23.2862 17.1129
Au 31.7861 21.9003 16.1947
Au 29.5309 20.374 15.406
Au 27.23 19.0503 14.5384
Au 34.1063 26.0713 17.0387
Pt 31.8285 24.6987 16.1635
Au 29.5348 23.2397 15.2611
Pt 27.192 21.8561 14.3965
Pt 31.8187 27.5034 16.1967
Au 29.537 26.0704 15.2985
Pt 27.2208 24.6204 14.333
Au 29.557 28.8842 15.2965
Au 27.2304 27.4571 14.3968
Au 27.2501 30.2977 14.4734
Pt 15.2513 22.5703 33.1759
Pt 17.2586 20.9557 34.1828
Au 19.5572 19.3402 34.9852
Au 21.836 17.6637 35.8357
Au 15.3243 26.671 33.1093
Pt 17.0155 24.6358 33.6547
Pt 18.9599 22.9919 34.6225
Au 21.139 21.4869 35.7614
Au 17.4666 28.18 34.2631
Au 19.138 26.017 34.8492
Au 20.523 25.9204 37.7008
Au 19.6538 29.728 35.2444
Pt 21.3537 27.4956 35.6564
Pt 21.9723 31.3499 35.9519
Au 15.7324 23.2789 17.064
Pt 18.0302 21.8816 16.1831
Au 20.3043 20.506 15.3152
Au 22.5714 19.0605 14.4797
Pt 15.8047 26.1407 17.1017
Au 18.0062 24.7202 16.1563
Au 20.2789 23.2871 15.2653
Pt 22.5701 21.8739 14.3661
Pt 18.0398 27.5686 16.2526
Au 20.3116 26.1552 15.2687
Au 22.6127 24.6643 14.3611
Pt 20.3335 28.9298 15.3253
Pt 22.5768 27.5045 14.367
Au 22.6184 30.2809 14.5164
Pt 32.9654 34.0156 23.3476
Pt 33.888 31.7273 21.8591
Pt 34.7992 29.4066 20.5474
Au 35.6211 27.0552 19.2816
Au 33.2348 33.911 26.0048
Au 34.1123 31.7009 24.6095
Au 34.9678 29.4107 23.3223
Pt 35.8942 27.1581 22.065
Pt 34.1637 31.8348 27.7939
Pt 36.0335 27.2234 24.8356
Au 36.9955 24.8742 23.5268
Au 35.1419 29.6432 29.2413
Pt 37.0805 25.1912 26.2651
Au 34.8107 24.7708 27.8443
Pt 16.8107 33.8589 23.4632
Au 15.9774 31.5734 22.0894
Pt 15.1673 29.2743 20.6669
Pt 14.3657 27.0251 19.3341
Pt 16.6829 33.8586 26.3646
Pt 15.8728 31.6279 25.0475
Au 14.9964 29.3207 23.5867
Pt 14.1918 27.0264 22.128
Pt 15.8038 31.6732 27.8696
Au 14.9619 29.372 26.4722
Au 14.1107 27.0416 25.0407
Pt 14.9457 29.4594 29.2879
Au 14.1127 26.9081 27.8932
Au 14.1001 26.9938 30.666
Pt 33.3044 15.0249 23.8412
Au 33.9069 17.5002 22.0405
Pt 34.6688 19.8324 20.579
Pt 35.3854 22.2266 19.2259
Pt 34.4927 15.5205 29.3163
Au 34.4483 17.4914 24.8241
Pt 35.0707 19.9504 23.3494
Au 35.7634 22.3566 21.9951
Pt 34.1313 13.2961 30.8303
Au 34.9018 17.7512 27.6808
Pt 35.4782 20.09 26.1074
Pt 35.5186 17.8497 30.5107
Au 35.8525 20.1314 28.8843
Pt 36.3454 17.8627 33.1801
Pt 16.645 15.4732 23.3179
Pt 15.8276 17.7199 21.9815
Pt 15.0412 20.0209 20.7006
Pt 14.307 22.3594 19.3752
Pt 16.5699 15.3685 26.108
Pt 15.7001 17.6411 24.8012
Au 14.9139 19.9692 23.4974
Au 14.1555 22.3207 22.1483
Au 15.7097 17.6233 27.6147
Au 14.8358 19.9663 26.3763
Au 14.0293 22.324 25.0372
Pt 14.833 19.8826 29.1842
Pt 13.9676 22.2477 27.8862
Au 14.0499 22.2311 30.6768
Pt 22.9982 33.4784 34.4082
Au 21.6119 34.0831 32.0535
Au 20.3752 34.8355 29.6437
Au 19.0035 35.4716 27.2248
Pt 25.8021 33.7631 34.4939
Au 24.425 34.3242 32.102
Pt 23.1952 35.0486 29.6815
Au 21.8457 35.669 27.3227
Pt 27.194 34.5248 32.2402
Pt 25.9119 35.1456 29.8168
Pt 24.6289 35.7518 27.3664
Au 28.6779 35.2219 29.9435
Au 27.3772 35.8076 27.4518
Au 30.2234 35.8516 27.5792
Au 22.7951 15.4644 34.1429
Pt 21.4056 14.8892 31.7702
Au 20.1371 14.2988 29.3676
Pt 18.8113 13.7201 26.9936
Au 25.6533 15.1937 34.1637
Pt 24.2531 14.6412 31.8457
Au 22.942 14.0833 29.4496
Pt 21.6078 13.449 27.0392
Pt 27.0809 14.3274 31.9878
Au 25.7811 13.9359 29.5517
Au 24.5029 13.3059 27.069
Pt 28.5911 13.7258 29.7874
Pt 27.5076 13.2863 27.3275
Pt 30.3331 13.2244 27.6095
Pt 23.4943 32.6364 15.9123
Au 22.0285 33.5223 18.18
Pt 20.5086 34.4137 20.3772
Pt 19.081 35.2669 22.5278
Au 26.3599 32.6268 15.9425
Pt 24.8596 33.6646 18.1331
Pt 23.3942 34.5856 20.4153
Pt 21.9145 35.3668 22.582
Au 27.6947 33.6089 18.1983
Au 26.219 34.6434 20.4108
Au 24.7649 35.4753 22.7262
Au 29.1237 34.5541 20.5185
Au 27.6452 35.4913 22.7535
Au 30.5142 35.3714 22.8295
Pt 23.319 16.6829 15.8459
Au 21.8696 15.755 17.9787
Pt 20.5082 14.8375 20.2206
Pt 19.0658 13.9881 22.4257
Au 26.2906 16.5487 15.9315
Pt 24.7134 15.684 18.0675
Au 23.3232 14.6874 20.2543
Pt 21.8787 13.747 22.4445
Au 27.7274 15.5746 18.2155
Pt 26.112 14.7516 20.3643
Pt 24.71 13.6223 22.5078
Au 29.2059 14.8396 20.5467
Au 27.7627 13.586 22.7311
Au 30.8395 14.1698 23.0037
Pt 33.7298 17.6655 32.6235
Pt 35.054 24.7705 30.5971
Au 32.6269 15.5184 31.4024
Pt 32.3799 31.4075 29.6992
Pt 31.776 15.4292 28.2861
Au 31.5887 33.4902 28.1238
Au 31.0569 16.0971 33.7286
Pt 30.5363 28.7582 29.4854
Au 30.0843 15.9798 30.358
Pt 30.1286 32.9134 30.3791
Au 28.5374 16.557 32.5888
Au 27.4068 29.2217 32.7203
Au 33.1896 20.7913 18.403
Au 33.2871 28.4745 18.382
Pt 32.4283 18.3871 19.7636
Pt 32.4281 30.8015 19.686
Pt 31.6555 16.1451 21.1315
Au 31.4744 33.0919 21.1991
Pt 30.9514 19.2767 17.6263
Au 30.9873 29.876 17.5108
Pt 30.1355 16.9708 18.9481
Au 30.0733 32.1728 18.9087
Au 28.657 17.9153 16.7595
Pt 28.6958 31.2312 16.6461
Au 16.1085 20.3671 31.6311
Pt 16.2651 28.8948 31.6823
Au 17.0091 18.1999 30.0783
Pt 17.1449 31.0231 30.3157
Pt 17.9026 15.9278 28.524
Au 18.0309 33.1891 28.7785
Au 18.2961 18.7653 32.5492
Pt 18.4201 30.386 32.7907
Au 19.217 16.5517 30.9595
Au 19.3418 32.5189 31.247
Au 20.5352 17.047 33.3667
Pt 20.5954 31.8727 33.6541
Au 16.4986 20.9201 18.451
Pt 16.5633 28.423 18.4461
Au 17.3002 18.5926 19.7579
Pt 17.3539 30.73 19.7477
Au 18.1931 16.275 21.0899
Pt 18.1781 33.0229 21.1576
Au 18.8161 19.5418 17.5378
Au 18.8352 29.8784 17.5478
Au 19.5947 17.1547 18.8253
Au 19.6336 32.1724 18.9697
Pt 21.0585 18.0973 16.665
Pt 21.1373 31.2583 16.7156
Au 38.687 24.6265 16.4911
Pt 38.9758 24.9739 19.285
Pt 39.2789 25.1883 22.0063
Au 39.6634 25.482 24.743
Pt 39.5654 25.4128 27.399
Pt 37.3262 25.1185 28.9517
Pt 41.033 20.8816 30.6637
Au 11.3433 24.7636 16.4608
Pt 11.1073 24.7371 19.2999
Au 10.9973 24.6795 22.0624
Au 10.9774 24.6221 24.8877
Au 10.9197 24.5853 27.7303
Pt 10.8488 24.5752 30.5252
Pt 10.8447 24.6476 33.3072
Pt 16.2331 38.4348 24.5684
Pt 19.01 38.5637 24.6715
Au 21.7934 38.6389 24.7624
Au 24.6436 38.6597 24.7629
Pt 27.508 38.7974 24.8139
Pt 30.2736 38.7697 24.8788
Au 33.1702 38.59 25.0544
Pt 15.9976 10.9534 24.4799
Pt 18.7774 10.7266 24.502
Pt 21.5203 10.5486 24.493
Pt 24.3098 10.3823 24.5226
Au 27.206 10.188 24.4843
Au 29.9557 10.1613 24.8569
Pt 33.7778 9.70053 22.856
Au 23.5736 19.7823 36.5524
Pt 24.1471 19.8546 39.3231
Pt 22.1197 21.215 38.4319
Au 23.7168 25.5589 36.6372
Pt 24.8815 27.7264 40.1057
Pt 23.2322 30.9349 38.2968
Pt 24.0247 34.7673 38.7178
Au 24.8264 16.3424 11.3732
Pt 24.8239 19.1281 11.2741
Au 24.8571 21.8516 11.2082
Au 24.8571 24.6983 11.1685
Pt 24.9175 27.479 11.1671
Pt 24.8928 30.2311 11.2145
Au 24.8916 33.0077 11.3772
Pt 37.7532 22.5746 35.6697
Au 29.4715 21.4991 31.5035
Pt 30.877 22.9677 33.6533
Au 26.9473 17.6734 34.5302
Au 26.1059 22.9757 35.0921
Pt 35.3783 24.6205 33.3367
Pt 33.7249 22.9453 37.2854
Pt 33.0439 24.2682 34.9875
Au 26.2891 25.7039 35.2002
Au 31.1267 19.731 39.8676
Au 32.427 28.5746 33.7721
Pt 30.8183 28.349 36.0728
Au 30.9265 26.0703 33.6838
Au 24.176 21.1253 41.8274
Au 29.6655 30.0577 34.3653
Pt 31.571 27.4361 38.4454
Pt 24.704 25.2131 39.5819
Au 28.1948 29.5001 36.7022
Au 25.8558 27.1814 37.517
Pt 25.7806 30.5697 37.3595
Au 36.2137 23.352 15.4864
Au 33.9583 21.9069 14.5021
Au 31.7298 20.4451 13.6877
Pt 29.4891 19.0358 12.9533
Au 27.1794 17.6023 12.2239
Au 36.4026 26.1541 15.5413
Au 33.9893 24.7 14.5191
Pt 31.7416 23.2873 13.5519
Au 29.4681 21.8543 12.8256
Pt 27.2014 20.4682 12.0556
Pt 34.0332 27.5441 14.5729
Au 31.766 26.154 13.72
Au 29.4685 24.7386 12.7918
Pt 27.1794 23.2956 11.954
Pt 31.7809 28.9775 13.7482
Pt 29.4704 27.5298 12.7997
Pt 27.1909 26.1201 11.9203
Pt 29.4892 30.3315 12.8568
Au 27.1995 28.9148 11.9611
Pt 27.2244 31.7327 12.1134
Pt 12.7325 22.5599 34.3386
Pt 14.787 20.9019 35.4528
Pt 17.1978 19.1589 36.2946
Au 16.9448 15.7611 40.3925
Pt 17.8402 15.1907 36.8557
Au 12.76 26.7165 34.3565
Pt 14.4397 24.6599 34.6903
Pt 16.3066 23.1261 35.7012
Pt 18.1794 21.6639 36.7771
Pt 19.5965 21.0885 39.955
Au 14.9012 28.3114 35.4887
Pt 16.5171 26.0805 35.9318
Pt 18.3723 24.4066 36.8915
Pt 20.2189 22.9451 38.0653
Au 17.0897 29.9094 36.6151
Pt 18.6476 27.7349 36.9825
Pt 20.2564 27.5782 39.7219
Pt 19.6802 31.6592 37.2506
Au 21.1213 29.2351 37.6631
Pt 20.3756 35.5514 37.7855
Pt 13.4673 23.2741 15.5245
Au 15.7176 21.9202 14.6476
Pt 17.9968 20.5214 13.7684
Au 20.2872 19.1104 12.889
Pt 22.5132 17.6803 12.066
Pt 13.5336 26.1346 15.567
Pt 15.7023 24.6916 14.6065
Pt 17.9776 23.3024 13.6923
Pt 20.303 21.9356 12.7882
Pt 22.5448 20.5224 12.0122
Au 15.741 27.5108 14.6963
Au 18.0143 26.1178 13.7212
Au 20.2754 24.6988 12.8078
Pt 22.5486 23.3198 11.9167
Au 18.0677 28.9458 13.8064
Pt 20.3265 27.5048 12.7891
Pt 22.5641 26.1084 11.9467
Pt 20.3226 30.3291 12.9265
Au 22.5815 28.8824 11.9884
Au 22.5897 31.7135 12.1338
Au 34.242 36.4174 23.3068
Au 35.2105 34.1529 21.7773
Au 36.1713 31.8441 20.3519
Pt 37.0948 29.4812 19.0492
Pt 37.8814 27.0987 17.7927
Pt 34.6416 36.3187 25.9431
Pt 35.5513 34.1578 24.4987
Pt 36.4386 31.964 23.0987
Au 37.3135 29.6553 21.7928
Pt 38.1403 27.31 20.5191
Au 35.5048 34.223 27.5218
Au 36.444 32.017 26.0749
Au 37.3687 29.7789 24.6333
Au 38.3386 27.4924 23.3185
Pt 36.5335 32.0983 29.1901
Au 37.4934 29.8763 27.5857
Pt 38.475 27.6329 26.0945
Pt 37.7079 29.7482 30.3658
Au 36.1731 27.3689 27.6928
Au 36.6998 22.6203 30.2496
Au 15.3017 36.2225 23.301
Au 14.4671 33.9166 21.9245
Au 13.6232 31.5734 20.5499
Au 12.8214 29.2929 19.1887
Pt 12.0572 27.0623 17.8577
Pt 15.2476 36.2156 26.1442
Au 14.3712 33.95 24.8198
Au 13.454 31.6461 23.4534
Au 12.6242 29.3451 22.0613
Pt 11.863 27.0453 20.6603
Pt 14.2863 34.0158 27.6504
Au 13.3932 31.702 26.2815
Pt 12.4626 29.4018 24.8708
Au 11.7335 27.0735 23.4718
Pt 13.3303 31.7663 29.0552
Au 12.5074 29.3382 27.6689
Au 11.6682 27.0121 26.2658
Au 12.4528 29.4702 30.4794
Au 11.6649 26.9592 29.0898
Au 11.6729 27.0498 31.8602
Pt 34.4038 12.537 23.5441
Au 35.4163 15.1725 21.8761
Au 36.2521 17.4798 20.3837
Au 36.9073 19.8817 18.94
Au 37.6048 22.219 17.5208
Au 33.8897 15.2999 26.5212
Au 36.0779 14.9008 24.5909
Au 37.1022 17.9266 25.9151
Au 37.2803 20.048 21.6731
Au 37.8978 22.5468 20.2125
Pt 36.0268 13.4455 28.7099
Pt 36.6865 15.6719 27.3856
Pt 37.6707 18.0477 28.5645
Au 37.6962 20.188 24.4095
Pt 37.193 15.7803 30.0115
Au 39.8953 16.1659 30.6203
Pt 38.0687 20.5968 27.1106
Pt 38.1644 18.1716 31.2077
Au 38.4844 20.523 29.798
Pt 38.9499 20.4974 32.5219
Au 15.134 13.2483 23.1379
Pt 14.2742 15.5418 21.8276
Pt 13.5389 17.7618 20.481
Au 12.7714 20.0646 19.1652
Au 12.0523 22.4519 17.878
Pt 15.0428 13.149 25.9698
Pt 14.1484 15.4335 24.651
Pt 13.349 17.7096 23.3102
Pt 12.5427 19.9975 21.9789
Pt 11.8125 22.3229 20.6526
Pt 14.1725 15.3366 27.4215
Pt 13.2828 17.631 26.1038
Au 12.419 19.9884 24.8089
Pt 11.6875 22.2912 23.4207
Pt 13.3007 17.5177 28.9347
Au 12.3831 19.881 27.649
Pt 11.6415 22.2447 26.3209
Au 12.4542 19.8406 30.4699
Pt 11.5833 22.2258 29.0836
Au 11.616 22.1901 31.8986
Pt 22.784 35.2766 36.4327
Au 21.4591 35.9089 34.1055
Au 20.0736 36.5884 31.7978
Au 18.813 37.2054 29.4025
Pt 17.5376 37.821 27.0084
Pt 25.5702 35.4727 36.5543
Pt 24.2623 36.0746 34.2121
Au 22.9359 36.7654 31.8225
Pt 21.6584 37.4246 29.4867
Pt 20.3767 37.9987 27.135
Pt 27.0334 36.2305 34.3345
Pt 25.7461 36.8413 31.9551
Au 24.4802 37.5278 29.5527
Pt 23.1499 38.0992 27.1796
Pt 28.4905 36.9768 32.0787
Pt 27.2516 37.5866 29.6369
Au 25.9608 38.2198 27.1857
Pt 30.0105 37.6656 29.7695
Au 28.7489 38.2269 27.2529
Pt 31.5165 38.2291 27.431
Pt 20.3048 15.2833 35.5632
Au 21.1725 13.2053 33.9118
Pt 19.8121 12.6309 31.5279
Pt 18.52 12.0611 29.1341
Pt 17.2481 11.5154 26.8056
Pt 25.3785 13.4369 36.257
Pt 23.9995 12.8975 33.9972
Au 22.6101 12.34 31.6039
Pt 21.293 11.7119 29.1998
Pt 20.0173 11.2415 26.8492
Pt 28.5178 14.6774 34.5115
Au 25.4173 12.1051 31.7031
Au 24.093 11.5067 29.2687
Pt 22.7669 11.03 26.8731
Pt 28.2269 11.8279 31.8468
Au 26.9123 11.3827 29.3848
Au 25.6625 10.8156 26.8992
Au 29.6931 11.2814 29.5703
Au 28.4885 10.7945 27.078
Pt 31.2862 10.7604 27.3922
Pt 23.4833 34.0568 13.5777
Au 22.0156 34.9349 15.7628
Pt 20.5205 35.8122 17.9885
Pt 19.051 36.7181 20.1665
Pt 17.6289 37.5836 22.3648
Au 26.351 34.0302 13.5762
Pt 24.862 35.0535 15.778
Au 23.426 35.9808 18.0177
Pt 21.8814 36.8168 20.1613
Au 20.4304 37.6921 22.4036
Pt 27.6481 35.0353 15.7588
Pt 26.2192 36.0763 17.9707
Pt 24.7763 37.0194 20.1777
Au 23.2582 37.7764 22.4087
Au 29.0595 35.9854 18.0567
Pt 27.581 37.0013 20.2573
Au 26.1591 37.8597 22.4704
Pt 30.3559 36.9687 20.3548
Pt 28.9544 37.8712 22.5545
Au 31.7607 37.7933 22.6725
Pt 23.2825 15.3403 13.461
Pt 21.8513 14.3828 15.5952
Pt 20.3758 13.4599 17.7725
Au 18.9773 12.5941 20.0081
Au 17.4701 11.768 22.2315
Pt 26.2845 15.1339 13.5326
Pt 24.6555 14.3134 15.603
Au 23.195 13.2831 17.7776
Pt 21.7994 12.3451 20.0245
Pt 20.3158 11.5207 22.2407
Au 27.743 14.1453 15.7647
Pt 25.9633 13.4174 17.8648
Au 24.6278 12.2591 20.0665
Pt 23.094 11.3538 22.255
Au 29.3743 13.2795 18.0487
Au 27.474 12.5233 20.2016
Pt 25.8783 11.1933 22.2951
Au 30.7006 12.5753 20.4497
Au 28.9306 10.9836 22.3611
Au 31.8104 11.7023 22.961
Au 34.3466 15.6965 37.0141
Au 32.8771 29.0243 30.8949
Pt 35.3492 15.5387 31.9993
Au 34.5503 31.8107 31.1542
Au 33.9228 10.9095 32.2419
Pt 33.8199 33.894 29.6523
Pt 33.2102 13.1235 28.2191
Pt 32.9638 35.8818 27.9799
Pt 34.5862 20.133 36.2754
Au 33.5559 31.1287 33.7183
Au 35.176 13.2023 33.4731
Pt 32.4217 33.2962 31.9268
Pt 31.364 13.4522 30.1498
Pt 31.44 35.3111 30.2172
Pt 26.3911 10.8925 36.1083
Au 30.9926 32.5479 34.2015
Au 33.6124 13.271 35.8432
Pt 29.9497 34.6344 32.4439
Pt 26.9434 13.6638 38.4026
Au 28.6529 32.1511 32.6371
Pt 35.3559 20.8329 16.7178
Au 35.6213 28.5566 16.8103
Pt 34.5983 18.4042 18.1714
Au 34.7464 30.9176 18.1219
Pt 33.9061 16.0498 19.5325
Au 33.7834 33.2132 19.4982
Au 33.0748 13.8598 21.2066
Au 32.7492 35.5357 21.0359
Au 33.1177 19.4282 15.9374
Au 33.2647 29.9495 15.8919
Pt 32.3774 16.9909 17.3733
Pt 32.4126 32.2977 17.2752
Pt 31.6609 14.6937 18.7648
Au 31.4283 34.5689 18.7377
Pt 30.9424 17.9043 15.187
Au 30.9813 31.3435 15.032
Pt 30.1524 15.5532 16.5817
Au 30.0117 33.6546 16.4762
Pt 28.6647 16.5301 14.3727
Pt 28.7131 32.7227 14.223
Au 13.6512 20.3119 32.9604
Au 13.7344 28.9573 32.8995
Pt 14.4951 18.0687 31.4608
Au 14.6294 31.1523 31.4591
Au 15.44 15.903 29.8437
Au 15.5569 33.3678 30.0614
Pt 16.3287 13.693 28.3206
Au 16.5295 35.5899 28.532
Au 15.765 18.6478 33.946
Au 15.8947 30.5024 33.9833
Au 18.0582 16.9532 34.7704
Au 16.8303 32.7317 32.5744
Au 17.6445 14.2702 30.7237
Au 17.8185 34.9753 31.0074
Pt 17.1193 17.3776 38.3122
Pt 18.1481 32.0858 35.0385
Pt 18.9177 14.7867 33.1777
Au 19.0657 34.2973 33.4571
Pt 19.4835 17.3686 37.143
Pt 20.5792 33.7438 35.6801
Pt 14.1973 20.8989 16.8962
Pt 14.2686 28.4592 16.9313
Pt 14.9545 18.5922 18.2032
Pt 15.085 30.7789 18.2227
Pt 15.7606 16.3211 19.5195
Au 15.8588 33.0923 19.5624
Au 16.6017 14.0668 20.8681
Au 16.7205 35.35 21.0154
Au 16.4646 19.5336 15.9859
Au 16.4934 29.9067 16.0305
Pt 17.2217 17.2086 17.3134
Pt 17.2969 32.2371 17.3702
Pt 18.0908 14.8828 18.618
Pt 18.1461 34.494 18.7851
Au 18.7442 18.1089 15.1151
Au 18.7798 31.3238 15.114
Pt 19.5105 15.764 16.3848
Au 19.5924 33.571 16.5516
Pt 21.0036 16.6838 14.247
Au 21.1262 32.6657 14.3199
Pt 40.8621 24.619 14.8588
Pt 42.5374 23.1072 19.3998
Pt 40.4082 22.8223 21.1478
Pt 40.7974 23.27 23.8138
Pt 41.065 23.3641 26.6064
Pt 38.6584 27.5801 28.8659
Pt 38.8701 27.526 31.5876
Au 37.5575 25.0078 31.6509
Au 9.04583 24.7288 14.9669
Au 8.85463 24.7335 17.8274
Pt 8.65599 24.7561 20.5739
Pt 8.5971 24.7937 23.3296
Au 8.54182 24.7278 26.1052
Pt 8.5542 24.6986 29.0255
Au 6.21998 24.7972 33.1648
Au 13.2623 24.6314 39.2166
Pt 14.78 40.6194 24.3711
Au 17.56 40.9047 24.4241
Pt 20.3211 41.0146 24.5813
Au 23.1427 41.0614 24.5941
Au 26.002 41.0827 24.6636
Pt 28.8575 41.1742 24.6721
Au 31.6295 41.0713 24.6677
Au 34.4767 40.8911 24.6893
Au 14.3876 8.69695 24.29
Pt 17.2413 8.49682 24.2274
Au 19.9283 8.23859 24.3216
Pt 22.7389 8.18256 24.369
Au 25.5857 7.94387 24.3607
Pt 28.7122 7.88333 23.9309
Pt 31.3493 9.02794 22.7935
Au 35.9887 7.86884 23.266
Au 26.5058 16.7492 41.5583
Pt 26.3912 18.6622 39.6269
Au 28.8835 18.2343 40.7711
Pt 24.349 22.5488 39.4012
Pt 22.3263 26.1136 40.832
Au 25.2951 32.0575 41.9949
Au 27.1408 27.6096 41.7578
Pt 25.648 32.6356 39.1766
Pt 24.8077 15.0665 9.04386
Pt 24.8304 17.7822 8.93565
Pt 24.835 20.5377 8.75875
Au 24.823 23.3052 8.79839
Pt 24.8753 26.1449 8.81273
Pt 24.8933 28.8787 8.8348
Pt 24.878 31.6864 8.92614
Pt 24.8346 34.4809 9.15736
Au 38.2555 24.8021 37.1266
Pt 32.2337 20.7765 37.497
Au 36.3061 22.9027 38.1036
Pt 30.9913 23.1573 36.4192
Au 30.9897 11.7875 36.9114
Pt 25.7612 18.2053 37.1288
Au 35.4057 29.4288 32.0635
Au 40.3134 25.2508 35.3839
Pt 31.7253 24.4724 38.6298
Pt 30.3456 20.7576 35.5768
Pt 23.5799 23.8492 41.6118
Au 33.0418 18.2211 38.0447
Pt 35.6451 24.6003 36.0998
Pt 34.0769 27.7325 39.0788
Au 32.4611 26.1915 40.6838
Pt 29.89 25.8806 39.8929
Au 29.039 21.1728 41.2357
Pt 34.6347 30.9533 36.3154
Pt 33.4119 28.4075 36.5124
Au 29.4983 28.5427 40.4858
Au 30.5998 23.565 41.0763
Pt 31.9626 30.7178 36.0391
Pt 30.4796 29.9549 38.2622
Au 26.169 23.7012 41.5316
Pt 29.502 31.9428 36.5435
Pt 27.1483 28.8302 39.1922
Au 27.189 31.3365 34.9019
Pt 38.4439 23.311 13.9313
Au 36.1865 21.9358 12.9344
Pt 33.9145 20.4099 12.0308
Pt 31.6942 19.0976 11.281
Au 29.3832 17.6888 10.6013
Pt 27.1305 16.3028 9.82934
Au 38.6732 26.093 13.9614
Au 36.289 24.7415 12.9266
Pt 34.0542 23.2884 11.8742
Pt 31.7674 21.8455 11.1213
Pt 29.4809 20.5054 10.4187
Au 27.114 19.1302 9.66415
Pt 36.3039 27.5477 13.1482
Au 34.0577 26.1432 12.0722
Au 31.8135 24.6942 11.1786
Au 29.4731 23.3203 10.3947
Au 27.1751 21.8944 9.56669
Au 34.0431 29.0458 12.2223
Au 31.7507 27.5662 11.2888
Pt 29.4639 26.1542 10.3594
Pt 27.1901 24.7652 9.56174
Pt 31.7941 30.389 11.4312
Au 29.502 28.9711 10.3517
Pt 27.229 27.5057 9.48889
Au 29.4663 31.8543 10.552
Au 27.2108 30.3797 9.54175
Pt 27.1856 33.1933 9.82256
Au 7.72538 20.0103 33.059
Au 8.91372 20.3316 35.4857
Au 13.1704 16.8366 37.3224
Au 14.7448 17.429 39.6061
Au 23.9321 15.4232 41.1073
Pt 19.3484 15.723 39.1935
Pt 15.7528 21.752 37.941
Au 13.8932 29.9091 40.3564
Pt 17.4018 19.9892 38.8777
Au 17.1644 21.2128 41.3564
Au 17.0642 18.4084 41.0574
Pt 21.8413 19.7043 40.8065
Pt 11.2568 28.9937 34.0729
Pt 15.8787 24.5313 38.1046
Au 15.4655 26.102 40.3022
Pt 20.0693 24.6525 40.221
Pt 21.6788 22.4889 40.6475
Pt 14.4126 29.9575 37.5928
Au 16.0496 27.7271 38.1931
Pt 18.0371 25.9733 39.0163
Au 21.3151 24.3788 42.7862
Au 18.3353 31.4543 40.9422
Au 17.6759 27.9771 40.8332
Au 20.1337 29.4608 41.682
Pt 21.8096 33.2313 38.042
Au 22.3796 27.9786 42.6602
Pt 23.1722 32.7478 40.3238
Au 11.1769 23.3004 13.9179
Pt 13.4474 21.9396 13.0718
Au 15.686 20.516 12.2779
Au 17.9407 19.1103 11.3834
Pt 20.2703 17.6916 10.4947
Pt 22.4905 16.3327 9.69147
Pt 11.2586 26.1781 14.0591
Au 13.4177 24.6984 13.0306
Pt 15.696 23.3349 12.1454
Au 17.9683 21.9307 11.2776
Au 20.1921 20.5147 10.3725
Au 22.5109 19.1712 9.61088
Au 13.3663 27.5672 13.1471
Au 15.6952 26.1158 12.1749
Pt 17.963 24.7023 11.2659
Pt 20.2315 23.3707 10.3721
Pt 22.516 21.9224 9.59906
Au 15.7131 28.9822 12.2401
Au 17.9667 27.5296 11.2362
Au 20.237 26.102 10.3519
Pt 22.4696 24.7518 9.51402
Au 17.9461 30.3575 11.4024
Au 20.2271 28.9759 10.3806
Pt 22.5949 27.475 9.58594
Au 20.2728 31.8281 10.5237
Au 22.5492 30.3503 9.57098
Pt 22.5539 33.1308 9.77744
Au 35.6589 38.8232 23.1075
Au 38.7727 36.6961 19.9895
Pt 37.49 34.2638 20.226
Au 40.9311 32.224 19.983
Pt 39.2829 29.5185 17.4935
Pt 40.0188 27.0647 16.1972
Au 35.9794 38.7142 25.8331
Au 37.7783 39.0037 21.3654
Pt 37.791 34.3557 22.9753
Au 41.8513 29.8 18.6116
Pt 40.5513 27.6306 21.718
Pt 41.436 25.3209 20.4507
Pt 36.8957 36.6611 27.3358
Pt 36.9215 36.553 24.3709
Pt 38.8103 32.2329 24.4086
Pt 39.7903 29.995 23.0178
Au 42.0597 25.6544 23.1198
Au 37.8207 34.4879 28.9756
Au 37.8457 34.4412 25.9238
Au 41.171 32.4641 22.9303
Au 43.0696 28.1017 22.8579
Pt 39.0855 32.1046 30.0673
Pt 38.8415 32.3264 27.369
Au 39.813 30.0925 25.8381
Pt 39.0379 27.4106 34.2646
Au 40.0098 29.9937 28.707
Pt 36.3984 27.3028 30.4489
Pt 13.8346 38.5353 22.982
Au 12.964 36.2757 21.7378
Au 12.1246 33.9052 20.4282
Au 11.2315 31.6206 19.0432
Pt 10.4125 29.3056 17.729
Pt 9.79982 27.0595 16.3935
Au 13.7795 38.4871 25.9068
Pt 12.837 36.2677 24.5892
Au 11.8906 33.9773 23.2583
Pt 11.0137 31.6354 21.9396
Au 10.2598 29.3701 20.5273
Pt 9.57623 27.0787 19.1864
Pt 12.8088 36.3203 27.4165
Au 11.8234 34.0686 26.0656
Au 10.8806 31.7237 24.7271
Pt 10.0758 29.4144 23.3786
Pt 9.45554 27.1031 21.956
Au 11.8237 34.0765 28.8735