2057
Atoms. Timestep: 20727
Au 23.8474 26.2765 7.77417
Au 32.5664 10.0807 17.3492
Au 22.6737 40.6236 22.896
Au 7.50503 18.9907 26.1454
Au 22.9468 31.3831 17.3993
Pt 21.3021 22.62 24.285
Au 15.2739 21.5545 11.593
Au 7.20341 26.5273 16.4164
Au 25.6267 25.5749 13.2911
Au 30.2825 19.8563 42.3119
Au 42.9625 28.9432 25.4684
Au 42.9519 19.9151 29.1974
Au 29.0156 24.2478 25.4641
Au 39.22 36.1304 30.2094
Au 11.268 31.1243 21.6573
Au 25.6814 41.8031 29.3229
Pt 17.2703 17.0581 18.3506
Au 13.2686 24.3797 15.9792
Au 33.1856 18.5705 9.00864
Pt 27.0535 16.9472 17.5018
Pt 39.127 14.6364 31.438
Au 20.7604 14.3189 12.1946
Au 14.5079 12.0205 20.114
Au 9.58563 18.8492 21.5384
Au 13.0374 17.4743 23.9887
Au 6.77879 31.0141 28.2967
Au 29.3761 12.2337 12.0367
Au 18.6185 24.5148 17.0813
Au 28.4565 25.9269 13.7986
Au 39.4383 17.9722 19.7117
Pt 36.522 23.8661 25.2627
Au 25.2355 40.1501 24.0243
Au 14.697 22.0807 37.3488
Au 21.2694 19.9466 13.3664
Au 15.4435 15.1509 19.3754
Au 21.8055 9.16631 16.7779
Au 18.6944 32.8908 9.49193
Au 44.1058 27.8705 27.7539
Au 20.3619 31.9329 7.47473
Au 33.7743 26.1914 11.1245
Pt 15.0958 22.609 20.8384
Au 19.4055 39.0532 35.6228
Au 33.0304 42.3708 25.4157
Pt 23.7522 32.1512 21.0135
Au 28.8667 41.31 15.5567
Au 4.24437 24.7401 22.7656
Au 36.3485 25.5075 10.5465
Au 7.01177 23.7447 16.0714
Pt 21.0159 34.0016 34.2371
Au 27.5365 5.14664 24.6491
Pt 12.8508 33.981 26.1388
Au 20.319 24.612 42.8504
Pt 37.0688 28.5255 14.9871
Pt 23.1566 6.2392 26.0882
Au 26.0632 21.9442 4.73079
Pt 27.7902 19.0382 8.06038
Au 23.3677 37.4556 16.6149
Au 4.31816 28.8315 20.7636
Au 29.7616 27.9764 15.1691
Pt 38.0534 25.4738 20.3251
Au 41.2501 33.7378 23.0511
Au 16.78 40.1959 31.8463
Au 11.7195 28.77 37.0191
Au 21.7519 19.7979 5.66183
Pt 16.774 23.5963 25.156
Pt 14.7808 23.2207 27.8129
Pt 19.8917 16.5615 18.5459
Au 33.9858 9.41111 22.1204
Au 34.0162 25.8697 13.984
Au 21.4984 32.8862 19.4298
Au 8.36984 28.1828 14.2195
Au 41.0081 23.3193 21.3929
Au 18.8211 43.2042 28.6867
Au 16.5206 27.1846 12.5405
Au 15.5089 25.7849 14.9133
Au 43.2442 21.4952 26.2289
Au 41.0298 22.9201 35.3459
Au 6.15959 19.7066 23.6199
Au 25.2456 24.031 6.74339
Au 17.4146 8.6365 31.3481
Au 38.0595 21.554 18.1844
Pt 22.0111 30.3141 34.9411
Pt 28.6708 20.9318 22.1268
Au 18.808 16.865 7.50647
Au 12.3751 32.6249 23.6847
Au 19.1593 17.8663 9.92434
Au 26.712 39.9542 14.6545
Au 30.7032 40.1688 31.3914
Au 20.5107 40.0034 25.5882
Au 29.3724 21.212 8.72242
Pt 24.2341 29.3927 41.7138
Au 40.8567 26.0303 20.0623
Au 12.9623 25.219 10.4365
Au 33.6962 29.4437 38.7338
Au 42.4276 26.3607 32.221
Pt 22.7756 32.0627 33.2119
Pt 24.752 21.3085 37.9007
Au 20.1213 30.4438 10.0622
Au 23.191 34.8097 15.7206
Au 21.631 40.257 20.4631
Au 12.7065 38.1382 25.184
Au 14.9988 23.155 13.9484
Au 12.0663 16.9334 12.1614
Pt 34.8614 19.8303 29.7554
Au 43.571 28.9419 32.3787
Au 18.9439 21.7067 5.07991
Pt 38.2806 23.4118 31.4396
Au 8.67357 23.5428 20.9791
Au 11.5401 31.6209 14.0505
Au 27.8828 10.9918 38.7966
Au 39.9785 23.6432 18.8045
Au 11.8472 13.7006 14.4938
Au 20.3272 5.64293 25.3673
Pt 27.6842 39.6803 22.4968
Au 9.71112 24.256 16.0313
Au 25.7509 3.68001 26.3418
Pt 33.5321 12.1951 22.3688
Au 28.3032 29.6775 39.9105
Au 17.9814 11.8129 16.6923
Pt 30.0319 26.4473 17.599
Au 5.63725 22.3772 23.2673
Au 13.1506 12.4361 23.565
Au 23.8233 44.4028 20.3501
Au 9.88286 23.1108 28.2172
Au 19.1206 19.4455 6.5626
Au 21.2573 4.49379 27.4986
Au 10.3416 24.5772 11.9081
Au 41.4687 15.781 27.2233
Au 14.6591 17.9448 18.7148
Au 28.2526 35.8502 13.1722
Pt 23.7011 34.2063 29.1739
Au 17.6239 19.8205 19.4427
Au 28.088 29.2867 10.0546
Au 15.6273 27.957 20.0084
Pt 33.8051 36.3724 23.0655
Pt 32.4438 21.6774 19.4284
Pt 28.8812 28.0448 35.164
Pt 25.6284 16.7359 38.3694
Au 7.68587 21.1417 28.305
Au 40.4644 21.5811 16.9792
Au 22.8353 31.6434 42.645
Au 25.5039 31.5673 42.7027
Au 6.95262 28.6655 21.0512
Au 14.6117 36.4497 16.3556
Au 36.8393 38.7418 19.2796
Au 23.2723 41.2416 33.1988
Au 28.0028 36.5919 17.984
Pt 37.8732 21.5706 25.3077
Au 36.6801 20.4438 38.5417
Pt 38.5232 17.3057 31.3537
Pt 30.5244 23.1095 32.2817
Pt 25.8524 30.7963 40.2083
Au 10.2994 20.7602 14.5019
Pt 26.8196 27.27 28.6237
Au 30.4984 30.5805 10.9565
Pt 13.3618 21.6022 22.6704
Pt 22.2373 14.5848 37.1484
Au 30.4527 18.4312 7.9657
Au 22.51 25.348 12.9173
Pt 27.3391 16.0281 14.9397
Pt 28.6335 26.7896 26.4694
Au 25.7915 38.7838 17.1374
Au 29.9977 30.8584 13.8224
Pt 28.1824 13.8152 32.137
Pt 19.2911 15.2116 28.8072
Pt 21.5352 33.2163 22.261
Pt 27.9817 18.7128 15.2408
Au 20.745 11.6057 12.7902
Au 25.9681 43.0354 26.6393
Pt 35.8223 24.3374 30.7998
Au 31.137 25.1164 14.2631
Au 32.4273 23.898 12.1472
Au 20.7375 35.4233 20.6744
Pt 25.9451 15.9365 25.5255
Au 17.5455 20.1921 10.4558
Au 26.9609 27.4466 11.7963
Au 13.4841 23.5481 18.7267
Pt 22.4656 21.9558 29.4027
Au 34.191 8.58851 27.8791
Au 7.89419 28.3275 26.6958
Au 27.9305 8.67607 18.2996
Au 8.23245 31.0321 25.8687
Au 6.89635 18.4362 21.3311
Au 10.6463 26.1687 9.59042
Au 15.4462 11.149 15.5246
Pt 29.9098 17.339 26.8585
Pt 24.5692 26.3865 34.5542
Pt 31.5554 32.8209 24.9339
Pt 31.4838 40.2916 26.2534
Pt 14.2505 19.2833 31.2268
Au 11.9394 18.5455 14.455
Au 29.6669 22.3523 43.2796
Pt 17.6312 13.9649 23.9918
Au 20.0159 29.7022 12.8229
Pt 36.1236 13.1233 23.7237
Pt 18.5368 37.7852 24.9322
Pt 24.4817 19.4047 32.3778
Au 15.071 16.9302 35.9155
Pt 28.6718 31.9926 29.1798
Pt 26.5434 37.6558 23.7261
Pt 33.2718 29.2059 22.797
Pt 28.9778 24.9306 34.429
Pt 13.2581 28.0636 34.5233
Pt 24.6364 31.9046 38.1473
Au 16.4296 38.5334 16.7025
Pt 32.66 16.0519 28.0436
Pt 31.2924 14.7763 15.3357
Pt 27.4034 30.6806 35.6824
Pt 23.2791 9.26724 20.883
Au 31.8052 24.0587 16.8296
Au 26.2488 44.6981 24.4627
Au 10.5656 16.0875 14.4675
Au 18.3667 15.6753 38.9912
Au 26.8531 24.7054 4.82513
Au 15.7179 40.6777 23.2013
Au 12.6971 27.1423 15.8137
Au 35.2881 27.8389 9.44129
Au 14.2618 40.3209 29.8451
Pt 24.3488 10.2731 16.3916
Au 28.4742 43.749 20.4812
Au 17.6202 24.6142 13.3383
Au 15.7107 38.4452 24.9544
Au 13.3563 11.6414 13.8534
Au 20.0433 24.2354 11.8307
Au 15.8135 21.2316 8.6625
Pt 21.0379 19.9474 16.1563
Au 37.9165 30.0548 21.1683
Au 38.2408 36.4309 20.1664
Au 13.8626 40.5983 25.2848
Au 8.81835 19.8788 23.8963
Au 18.5861 40.8977 33.7172
Au 40.1873 18.544 22.3705
Pt 14.1531 16.2502 26.2448
Au 36.1635 40.3994 21.4848
Au 22.5998 37.6126 20.8965
Au 7.57598 17.3591 23.7593
Pt 28.5348 33.1199 20.3185
Au 38.8807 23.6134 16.2432
Au 17.4325 11.4918 32.5942
Pt 31.9735 30.2476 25.102
Au 12.4981 24.3195 7.79953
Au 24.9351 21.736 43.6485
Pt 23.9426 20.3291 13.5894
Au 27.2021 37.3409 15.3468
Au 24.6121 26.3096 5.13406
Au 34.8628 41.6741 23.6057
Au 23.0722 35.3503 9.20526
Au 15.6015 25.0694 20.0179
Au 36.6221 38.7403 26.3973
Au 36.6712 11.8053 34.9012
Au 14.1593 32.1642 8.02362
Au 16.037 15.769 16.3682
Au 31.5414 12.0197 15.4689
Au 39.2259 26.1285 17.7846
Au 15.6871 29.1574 9.10247
Pt 33.7374 30.3655 36.1935
Au 15.7143 12.4485 12.8416
Au 9.17526 16.6791 16.7562
Pt 28.7003 10.214 34.4876
Au 8.56584 25.0151 18.2953
Au 22.6199 30.4358 7.3301
Au 28.1211 4.88674 27.231
Pt 28.4985 24.395 18.3502
Au 39.4729 24.7586 36.7907
Pt 26.1214 16.3972 12.6904
Au 21.5543 40.8123 17.4489
Pt 21.8401 16.3938 23.2331
Au 35.959 39.773 31.6533
Au 11.6425 27.2253 11.9604
Au 18.4458 34.223 16.9256
Au 13.689 31.3147 25.8132
Au 10.0914 29.6473 23.7189
Au 19.9008 13.1975 14.8875
Au 24.9789 39.3433 21.3313
Au 22.2084 43.2978 22.1949
Pt 24.7595 15.5646 10.5591
Au 9.89916 29.5509 12.0564
Au 14.8571 23.678 9.15391
Pt 18.2148 22.1276 32.2488
Pt 39.7047 19.5332 25.1771
Pt 29.3559 11.4768 23.8136
Au 21.3402 38.2249 18.3616
Pt 22.9776 21.6588 32.0055
Au 16.2403 14.3922 10.9889
Au 29.6714 9.05896 38.2188
Pt 35.5378 19.7254 21.6918
Au 13.0744 18.834 36.0375
Pt 32.3548 17.2738 39.4011
Pt 25.0168 25.4731 39.8024
Au 40.25 28.4855 18.8763
Au 12.7149 19.9646 11.9438
Pt 22.625 13.3039 13.8241
Pt 29.8213 29.5101 29.3137
Au 11.1612 33.5913 28.2029
Au 13.0997 35.2545 21.2338
Au 14.3677 26.7016 17.8323
Au 13.6259 33.2575 14.6015
Pt 36.5229 19.1847 31.7394
Pt 38.3437 25.8969 34.5673
Pt 34.1361 14.7447 33.0399
Pt 16.968 19.2969 31.9974
Pt 17.3886 18.233 34.5478
Pt 15.7953 23.294 35.1366
Pt 29.0209 26.1141 23.5739
Pt 30.1879 16.6612 19.2699
Pt 15.8152 29.7538 25.4563
Au 21.0014 41.3474 34.6524
Pt 13.4796 25.9703 31.1092
Au 8.49089 27.7554 18.8141
Pt 16.2371 24.5482 37.5942
Pt 34.4573 19.8586 18.6017
Au 28.2867 33.989 9.52323
Au 31.9365 20.7065 7.60346
Pt 33.5265 32.2407 26.6842
Pt 32.9704 13.6022 29.2072
Pt 24.5563 26.2408 29.7512
Au 24.3275 26.6232 11.0351
Au 17.1076 17.7495 14.6933
Pt 17.9128 29.3455 21.3308
Pt 12.1391 21.3653 26.7278
Au 21.9986 16.1874 9.93132
Au 36.4529 21.9308 10.9912
Au 10.8839 29.8641 30.4479
Pt 14.6377 23.7401 30.484
Pt 17.8681 17.0191 27.4031
Au 28.9608 31.4003 8.59345
Au 35.1562 34.9575 33.4145
Pt 24.674 16.523 33.0652
Pt 17.2068 22.0158 27.6757
Pt 27.1135 22.4926 9.80523
Au 33.2033 41.4797 28.0448
Au 16.7243 16.1672 9.009
Au 11.2673 16.5839 21.6101
Au 39.5115 20.6081 34.8464
Pt 31.7831 14.6659 17.9279
Au 18.7224 18.9722 12.5072
Pt 34.2184 31.2202 29.0913
Au 38.9508 32.675 16.2894
Au 34.2573 10.0644 30.1682
Au 22.5781 20.1925 43.1544
Pt 17.0726 36.3376 28.9541
Pt 24.694 12.7359 15.2147
Au 33.3002 39.146 33.0473
Pt 32.2795 26.7358 28.0148
Pt 27.3142 36.05 25.5916
Pt 19.6416 12.3075 25.4194
Au 13.1834 37.7059 29.6996
Au 42.7863 31.8124 24.8945
Au 43.8042 26.585 24.3785
Au 26.2019 44.6606 21.7314
Pt 28.7309 34.1213 38.1065
Au 22.2553 27.8839 6.02112
Au 11.8226 28.1499 18.47
Pt 35.1273 26.5572 32.7124
Au 19.2083 31.9236 14.5801
Au 21.1148 30.2475 15.5642
Au 24.3263 33.3657 40.6388
Au 10.0189 24.5464 25.7802
Au 8.67245 19.4557 30.7023
Pt 16.8268 35.8746 26.2186
Au 23.9144 45.2614 22.985
Au 16.2245 32.2916 13.845
Au 8.84391 21.7039 16.7461
Au 14.5476 30.7549 38.8137
Pt 19.51 35.3148 32.471
Au 33.1593 31.6849 10.0666
Pt 31.2797 21.2682 12.4952
Pt 20.4655 19.5788 18.9522
Au 19.9482 20.3043 9.0381
Pt 26.7382 12.888 19.2477
Au 7.38788 29.0669 24.027
Au 27.2163 23.7414 43.6363
Au 40.4068 35.1177 27.9508
Pt 25.7015 25.2838 18.4627
Pt 20.048 22.2567 14.6001
Au 35.42 41.2129 26.327
Au 21.2122 17.9524 7.92835
Au 27.8314 18.4527 41.9178
Pt 33.2121 36.4979 28.576
Pt 25.7473 30.8893 17.8438
Au 7.60804 34.1415 24.7316
Au 24.5301 24.6036 43.9293
Au 24.0893 23.7805 4.30131
Au 14.9831 10.1783 23.6951
Au 5.58655 30.0692 25.9534
Pt 27.0431 10.5869 20.8296
Pt 29.6613 32.505 16.0588
Au 5.78757 24.9955 18.3031
Pt 26.9065 14.6718 23.3287
Au 13.5266 30.65 10.0249
Au 13.1848 29.0498 20.7279
Pt 26.5133 23.7744 16.3779
Au 31.0579 39.7474 15.5407
Au 23.2272 15.7905 39.6437
Pt 21.4221 14.5506 32.8718
Pt 38.314 33.4732 30.549
Au 14.3121 22.418 6.6963
Au 15.1891 10.0789 30.5706
Pt 18.4865 10.4462 27.0028
Pt 26.6158 19.2491 29.1259
Au 42.4282 25.5406 22.3492
Pt 21.3892 15.5034 14.7824
Pt 31.5935 31.1181 28.2274
Pt 27.7332 20.5592 19.2573
Au 12.4522 18.3127 9.73006
Au 22.8205 13.6087 10.6553
Au 19.7593 27.1143 5.36082
Au 18.4728 24.5607 19.8709
Pt 33.6495 24.0067 32.3794
Pt 27.6892 26.9269 19.0693
Pt 25.4136 22.3454 32.6412
Au 33.9526 21.4025 11.9836
Au 23.9189 42.3339 17.9696
Pt 13.9915 23.7162 33.138
Au 22.512 23.9433 7.56394
Pt 17.2721 29.7414 18.6496
Au 9.48665 32.2299 19.6679
Pt 7.06825 24.6143 22.8773
Pt 26.8835 9.83354 29.3265
Pt 21.337 24.2717 38.2741
Pt 11.893 27.7245 32.2262
Au 14.464 34.437 18.7926
Pt 24.9828 25.9769 15.8497
Pt 35.8205 26.4669 24.8049
Au 30.6742 41.0775 17.8447
Au 20.1009 27.5071 9.97647
Pt 24.7534 30.5696 31.2484
Au 41.2936 23.8252 30.5485
Au 25.9485 14.2596 39.8614
Pt 26.2293 18.6001 34.2667
Au 27.4454 30.8805 15.5473
Pt 33.577 18.7717 16.3757
Pt 35.8603 36.757 28.0695
Pt 33.9928 32.7491 20.1353
Au 30.9055 42.8816 20.0282
Pt 30.6018 17.1978 29.4593
Au 10.1851 34.3826 25.577
Pt 33.8726 39.3479 22.3342
Au 7.94386 25.4948 13.9992
Pt 34.5331 15.1453 30.4962
Pt 33.1521 33.2981 32.0641
Au 15.1533 31.5727 23.2101
Pt 18.5205 11.9721 22.4638
Pt 20.3916 20.9409 31.1544
Pt 24.7823 7.93886 24.6691
Pt 21.1502 24.7862 19.1777
Pt 27.9481 23.5961 22.9048
Pt 23.8252 14.3074 34.5679
Pt 18.1751 26.9686 28.3436
Au 18.8789 15.2786 10.4654
Au 37.0092 18.9655 18.9665
Au 28.0081 42.9343 28.5617
Au 9.03683 18.312 14.5166
Au 12.3936 19.1952 21.7753
Pt 23.9682 37.7569 23.2896
Pt 21.7952 35.2784 36.432
Au 42.1021 33.122 27.3068
Pt 28.6209 16.5925 24.4851
Au 10.4964 27.5252 34.8562
Au 16.6845 8.10734 23.2473
Au 16.5143 32.4644 18.7686
Pt 11.6611 25.3524 29.1348
Au 11.0318 23.1639 9.68441
Pt 31.2124 19.9192 29.9706
Au 11.905 17.0833 16.8541
Pt 14.3009 29.0616 36.7444
Pt 25.0177 36.7213 29.3608
Pt 33.1445 27.448 20.5944
Au 9.32825 35.5882 23.1333
Au 22.7995 30.1395 13.2821
Au 42.1728 19.8509 24.2478
Au 14.3189 26.6664 22.2769
Pt 35.6222 17.9046 24.0836
Au 23.5783 8.40777 34.3825
Pt 32.6558 19.0026 34.4026
Au 28.5536 7.97492 20.787
Pt 24.7255 26.7548 42.0935
Au 28.4539 11.1588 14.3331
Pt 15.5666 13.8262 26.179
Pt 34.2911 15.1544 18.8896
Au 11.6136 20.0123 24.2967
Au 37.4867 38.3084 29.5482
Pt 31.137 12.0661 18.2616
Pt 35.6833 29.0176 23.831
Pt 31.7138 10.2668 23.334
Pt 14.9585 16.3226 33.1245
Au 27.2391 33.3362 17.3932
Pt 16.9685 24.7424 27.736
Pt 29.8475 30.5163 34.4506
Au 12.9177 19.7832 17.2471
Pt 26.5994 25.638 24.8449
Pt 22.9224 37.6623 27.773
Pt 32.5131 37.8869 20.6675
Au 31.3321 27.0175 41.7481
Au 11.4625 25.4843 17.7759
Au 8.65661 17.9712 28.419
Au 17.962 14.2498 17.9541
Au 30.0476 26.017 7.42841
Au 38.5182 36.8674 27.1816
Pt 24.918 20.6039 19.3101
Au 33.2843 9.87524 32.9537
Pt 23.2533 26.2186 18.169
Pt 21.4887 20.09 27.5088
Au 36.0819 31.8481 36.4985
Pt 31.1559 29.0493 21.3313
Au 36.7012 26.267 13.2056
Pt 19.6805 36.849 30.1476
Au 32.2507 32.2111 14.8027
Pt 29.6308 17.9316 39.9428
Pt 33.9352 25.2106 34.9554
Au 16.9117 18.7475 8.09879
Au 34.4249 23.5996 10.0503
Au 36.9362 24.1519 18.2472
Pt 31.1826 19.8613 10.2639
Pt 16.6209 17.614 20.8629
Au 23.4218 34.0689 12.9161
Pt 15.4996 30.6394 20.5869
Pt 23.5404 23.3812 39.282
Au 17.8881 28.9883 5.8495
Au 18.4601 42.8309 25.9648
Pt 28.3608 14.2336 29.4449
Au 21.0917 12.0712 37.5596
Pt 21.5676 37.028 32.2611
Au 28.8906 27.0228 43.309
Au 12.7416 13.7573 26.0505
Au 15.582 30.0175 12.1116
Au 14.992 19.0446 10.2782
Pt 28.2052 34.7434 35.4079
Pt 14.3189 13.2245 28.4165
Pt 33.3584 30.1597 19.9414
Au 18.6076 15.7235 13.3152
Pt 39.6497 18.115 27.3074
Au 27.4201 41.9474 24.3456
Pt 27.3965 21.9046 28.7336
Au 24.5374 23.3001 14.2805
Au 13.1339 12.2959 30.8402
Pt 22.5201 29.8298 27.6886
Au 17.3124 9.33178 15.8665
Pt 24.695 15.4594 14.7519
Au 39.9122 32.8624 32.9151
Pt 18.1706 29.6342 28.5057
Pt 21.8215 29.7445 32.2426
Au 17.5106 40.7663 20.9982
Au 34.2487 21.0089 9.19257
Pt 33.3347 27.7479 24.9659
Au 22.2442 22.5593 12.714
Au 5.69044 28.4496 28.1785
Au 11.8868 29.1838 25.736
Pt 24.3463 29.2016 33.5218
Au 15.569 26.3605 9.22519
Pt 17.1468 25.5191 35.0849
Au 10.6486 36.2565 20.6312
Pt 27.0108 13.41 14.2455
Au 43.5464 32.5356 29.6355
Pt 21.9056 32.4378 27.9868
Au 32.8652 14.7009 10.9829
Au 15.8196 33.9162 16.2755
Au 5.68239 23.5345 20.7624
Au 22.0931 25.3509 10.0811
Pt 22.3636 21.1423 20.5704
Pt 28.8519 34.2497 32.0609
Au 23.533 17.7962 6.57736
Pt 12.7103 30.1392 32.493
Pt 32.0508 19.2185 37.3509
Au 15.8153 10.9003 27.9115
Pt 26.165 28.4025 35.3174
Pt 22.3509 11.569 25.5968
Pt 35.9892 30.4818 19.1446
Au 12.102 31.0461 19.0445
Pt 20.6822 14.3039 17.3521
Au 16.8702 17.2641 11.4807
Au 23.658 21.7928 6.16944
Au 34.3439 39.7884 19.4792
Pt 20.6149 23.3289 21.6858
Pt 25.8433 36.131 35.127
Pt 19.0413 33.9832 22.4289
Pt 15.866 12.5827 30.5723
Au 27.1529 33.2571 40.7146
Au 36.6408 31.1212 16.4127
Pt 17.3236 31.0302 34.9308
Pt 32.3184 26.2195 32.7234
Au 26.9068 38.6443 35.3391
Pt 25.2159 26.8789 37.6511
Pt 31.6649 12.8571 24.2183
Pt 28.3517 15.4691 35.9315
Pt 15.6791 33.2257 30.1655
Au 24.4698 23.6563 11.3353
Au 9.3749 30.5412 15.2671
Pt 26.4432 22.808 18.9187
Au 35.6186 12.5457 29.4054
Pt 35.9716 21.6367 19.8387
Pt 33.9234 11.5795 24.8926
Au 13.4785 27.3859 38.7145
Pt 32.7487 36.4477 33.0868
Pt 30.6062 26.5174 20.2134
Pt 29.8174 12.7346 26.1867
Au 13.5805 14.2072 12.3974
Pt 31.5696 19.8108 39.9513
Au 20.2072 28.9834 7.57691
Au 17.0801 12.8695 20.2285
Pt 21.6436 17.3928 16.7176
Pt 24.6543 30.7093 35.7995
Au 11.5224 28.8611 9.81488
Pt 29.349 29.8875 37.3944
Au 36.4317 24.1595 15.178
Pt 29.2646 14.3927 13.6853
Au 38.5596 19.1469 36.9115
Au 24.6897 30.0312 15.4076
Pt 25.1804 35.4095 23.9509
Pt 24.4507 11.71 20.685
Pt 14.5743 34.1938 23.5241
Au 26.7183 41.9713 21.5518
Au 44.4005 25.1044 28.0132
Au 38.196 30.3828 35.5479
Pt 22.2408 30.703 37.5252
Au 10.4071 28.3363 27.8904
Au 32.5015 24.4828 41.607
Au 26.6325 14.8443 8.65935
Pt 31.356 22.0915 21.6892
Pt 23.6399 19.5335 16.2104
Au 28.8653 16.3213 8.9255
Au 10.461 21.5453 21.9705
Pt 27.5858 25.3917 38.983
Au 34.0884 12.2501 34.2295
Au 15.2703 36.7507 20.4319
Au 32.0422 27.59 12.9554
Pt 40.8609 29.9675 24.144
Au 20.6267 36.2391 16.074
Au 16.7602 23.3084 5.69321
Au 22.0221 22.4579 9.91885
Pt 28.6342 28.2619 31.4319
Au 21.8117 5.87248 29.7243
Pt 24.9918 10.7036 25.1424
Pt 17.7829 30.5335 23.8307
Au 6.31234 25.9432 27.4555
Au 12.5961 36.4355 18.5806
Pt 33.4767 28.5966 32.0506
Pt 28.9776 23.9671 29.9702
Pt 32.791 17.3291 18.9636
Pt 20.4206 17.3775 27.2054
Pt 32.3405 34.8936 26.764
Au 11.6039 27.4364 22.5196
Pt 41.3217 28.859 31.0243
Pt 26.7894 11.3807 36.0273
Pt 11.4578 17.7932 28.6197
Pt 19.9707 26.3207 34.9256
Au 26.4539 26.4367 44.1961
Pt 27.7422 17.8089 36.6577
Au 9.49291 28.9973 32.6386
Pt 22.4386 21.4525 17.9748
Pt 32.815 23.911 28.4552
Pt 28.9779 32.6544 11.7918
Pt 23.3072 36.8262 34.5108
Au 8.45949 22.6441 23.8595
Pt 23.9013 28.9185 39.0868
Pt 22.2405 35.764 23.126
Pt 12.9955 21.6138 31.5253
Au 31.8693 22.3807 9.87832
Pt 17.2961 13.7544 14.9191
Pt 35.4295 22.5092 37.4194
Pt 28.1719 32.4466 33.8656
Au 42.5901 23.7096 33.2443
Pt 17.716 40.2796 25.1412
Pt 19.2122 18.0141 20.7281
Au 15.4177 35.2227 13.9521
Pt 18.9321 18.5314 17.0538
Au 23.8368 40.3269 15.9981
Pt 24.9082 15.1168 18.9243
Pt 16.3149 14.0882 32.756
Pt 19.8197 12.4792 28.2582
Pt 31.9076 32.2131 35.5827
Pt 32.0151 15.6029 31.2856
Pt 30.5376 25.0903 39.579
Au 32.2122 26.8474 16.0572
Au 14.9234 20.7523 18.9485
Au 32.6214 27.6176 7.97556
Pt 15.7885 30.986 27.9366
Au 14.7094 38.4517 32.0599
Pt 31.7014 13.5365 33.5234
Pt 28.8486 18.9313 30.7131
Pt 12.3796 32.2681 30.7036
Au 14.074 27.8365 10.9043
Au 22.5594 36.3153 38.75
Au 21.5335 22.6793 4.64975
Au 18.1579 23.1073 41.7976
Au 9.84786 27.5263 16.477
Pt 28.4276 31.214 18.4273
Pt 31.0182 36.1699 21.9239
Pt 18.2551 15.4185 20.4316
Pt 32.8944 21.4727 16.8167
Pt 29.1746 24.0225 15.8636
Au 21.6823 35.6454 11.4998
Pt 32.4881 14.771 38.2063
Au 10.3344 21.7378 11.958
Au 14.8717 25.1542 6.73946
Au 17.9093 36.0044 20.7818
Au 11.5456 22.7887 24.3159
Pt 31.3215 35.43 24.3799
Au 33.1599 8.47597 19.572
Pt 22.7533 26.4954 38.798
Pt 40.0808 26.4677 30.4662
Au 29.4727 20.3574 6.18923
Au 28.1066 31.2775 42.1406
Au 39.1876 19.2374 17.2175
Au 17.8794 28.9287 10.8662
Au 18.4386 12.9814 37.8756
Au 26.891 28.7989 42.5239
Pt 21.9272 8.60218 30.0102
Pt 23.4872 36.1395 25.6194
Au 11.6625 22.1496 16.7806
Au 24.7938 28.6493 6.57836
Au 21.1636 7.45472 27.333
Pt 27.844 35.0769 22.9922
Pt 26.776 29.189 19.7665
Au 10.8764 14.4347 16.8699
Pt 22.4435 40.3137 27.7481
Au 33.5095 23.205 14.7137
Pt 27.3569 18.0293 26.6418
Au 20.5868 30.1973 41.5511
Au 17.4824 26.5984 21.4615
Au 13.2539 21.3995 9.62882
Au 15.8435 28.3889 16.0371
Au 22.1115 38.2652 36.5942
Pt 31.453 27.7158 30.5001
Au 35.3158 30.2997 10.8961
Au 13.1447 39.7079 22.85
Au 31.7859 43.353 22.6543
Au 17.2715 22.6707 15.5707
Au 12.2312 13.3334 19.0883
Au 14.5377 18.1443 15.8283
Au 31.4061 33.7942 38.694
Au 12.7065 38.118 20.6448
Au 8.08937 28.8896 29.4384
Pt 29.6553 39.9013 24.4152
Pt 33.1803 17.7954 29.9892
Pt 23.7084 23.8386 17.0666
Au 13.1055 21.056 14.458
Pt 31.0613 15.0054 35.7846
Au 27.3204 23.2861 13.933
Pt 24.7046 30.571 26.0175
Pt 18.2039 33.5304 34.504
Au 6.03431 32.6756 26.2836
Pt 24.0952 19.2685 21.4369
Au 19.2124 38.3572 32.8727
Pt 17.1304 33.2165 24.0654
Pt 20.9254 21.0393 35.5191
Au 13.2126 25.3723 13.3093
Au 34.5371 10.7079 19.1285
Pt 20.3058 28.0188 29.5502
Pt 22.2491 12.1713 16.2965
Pt 25.1626 10.8032 31.5969
Pt 29.984 13.7934 37.7768
Pt 20.4158 9.5281 22.3291
Pt 26.2308 20.7553 14.7342
Pt 15.4361 33.3409 26.0334
Au 10.268 20.3205 28.5656
Pt 22.1799 34.43 31.871
Pt 18.2377 28.8191 26.0304
Au 16.7229 38.6782 34.1621
Pt 16.6961 20.9093 34.4047
Au 30.3859 8.5266 35.6603
Pt 35.974 18.6762 36.3926
Au 17.9744 25.774 10.5181
Pt 38.6078 28.8131 31.0501
Au 36.0878 10.3075 23.8568
Au 17.9496 27.4204 8.11212
Au 7.19384 25.9228 20.501
Pt 9.06504 25.8598 27.9768
Pt 36.5463 35.6986 25.2555
Pt 25.3369 11.6444 27.6111
Au 30.6079 38.3308 33.445
Pt 27.8587 33.9044 27.2456
Pt 21.5271 34.193 25.0836
Pt 29.4847 30.8169 31.8128
Pt 32.0191 28.5339 18.3216
Au 30.1563 14.2336 42.2107
Pt 26.2467 33.293 25.1354
Pt 37.1787 28.4363 26.1799
Pt 16.5895 30.5632 30.421
Au 23.0572 3.65422 25.635
Pt 29.3488 37.0487 31.2911
Au 38.3946 35.1037 32.7211
Pt 22.5205 32.0327 30.602
Pt 18.3462 20.0468 36.3516
Au 17.5707 35.3371 9.60629
Pt 23.7666 16.3401 21.1904
Pt 37.377 17.8108 21.5168
Pt 31.9884 40.8034 23.3511
Pt 24.116 17.7378 23.5678
Pt 20.9429 23.8815 35.4489
Au 33.7926 13.8261 14.7027
Pt 30.8509 22.2047 15.0632
Pt 39.0659 23.8869 26.2558
Pt 17.4813 16.641 32.4578
Au 24.2339 33.0003 10.549
Au 17.8138 11.1303 13.9455
Pt 36.3972 24.3128 33.3518
Pt 31.8092 9.51122 28.6186
Au 33.0621 16.9795 36.5912
Au 15.8163 15.5613 13.3838
Au 11.2926 34.289 32.2514
Au 34.5922 33.1378 15.6971
Pt 37.0483 24.949 22.8814
Pt 20.9139 15.7544 20.8315
Au 10.2161 19.3115 16.901
Pt 27.5935 10.5339 25.6318
Pt 24.4277 31.6432 28.7756
Pt 18.8538 25.6358 30.6634
Au 18.2917 33.3406 40.1473
Pt 30.937 20.8044 35.5064
Au 34.6562 27.9975 15.7002
Pt 23.3866 27.0673 32.0579
Au 12.9305 39.4461 27.6012
Pt 23.3626 17.0478 37.1132
Pt 19.4701 30.8086 19.7891
Pt 27.4414 15.3753 19.6959
Au 35.346 23.8525 12.6034
Au 21.0358 27.6808 14.5684
Pt 25.2718 25.197 32.2704
Au 13.2982 16.0656 14.5076
Pt 25.6453 36.5018 21.5173
Pt 23.6586 12.3163 36.4366
Au 18.095 26.7508 15.1422
Pt 23.7503 23.2021 19.5939
Pt 22.8709 17.778 28.0042
Pt 24.6801 18.508 26.0091
Au 30.7638 22.4946 40.8112
Au 35.9444 14.6305 16.8111
Pt 29.2756 14.0658 23.9291
Pt 18.8381 33.539 19.6883
Au 10.9621 32.4034 16.7842
Pt 34.0383 20.4867 36.1669
Pt 32.9338 19.4514 20.7226
Au 31.3821 15.9832 12.7325
Pt 26.2076 19.3396 17.2426
Au 14.2103 37.2235 22.9152
Pt 28.783 20.9341 13.9357
Au 37.0167 17.764 38.8336
Au 12.3522 21.1945 19.8365
Pt 14.0045 21.2827 34.7394
Au 18.1825 21.9776 7.71952
Au 19.7518 36.8403 13.5654
Au 9.4301 21.4063 26.0878
Au 16.7758 11.7137 25.2444
Au 25.4894 35.5282 14.0601
Pt 17.1857 13.1637 28.3374
Au 11.4317 16.3064 26.1956
Au 23.5101 42.8703 27.9765
Pt 24.8688 20.5314 23.6826
Pt 33.3825 27.434 36.9745
Pt 34.3842 22.6036 26.3444
Pt 37.0736 32.7129 20.8377
Au 32.2866 8.08105 30.8716
Au 24.876 30.5675 8.86943
Pt 27.3222 39.2403 25.5383
Pt 25.3852 14.0255 21.328
Pt 22.964 28.2063 16.4539
Pt 30.7988 32.7489 30.5256
Au 32.0081 13.2645 40.5397
Au 27.211 36.4844 37.4731
Pt 29.7153 35.7948 26.556
Pt 30.7667 27.5273 38.0129
Au 19.2467 27.7863 19.4828
Pt 33.7039 16.584 25.5994
Au 18.798 21.2019 39.9241
Pt 31.627 24.1391 34.3484
Au 35.7623 40.4028 28.9744
Pt 33.6479 25.1796 25.9277
Au 18.1032 31.7325 5.85812
Au 18.7923 28.9498 16.5319
Au 8.65744 16.4058 26.1056
Au 25.3684 11.748 38.4466
Au 40.0759 13.4691 26.3471
Pt 38.5224 23.1864 34.5526
Pt 34.938 18.9073 13.8849
Pt 27.2439 20.4333 32.5601
Au 27.0523 38.3985 19.7716
Pt 23.5383 18.2774 34.7373
Au 27.4903 36.3553 10.6323
Pt 35.7877 20.5405 27.3183
Au 5.80263 27.8166 18.6259
Pt 25.7821 8.96688 27.1451
Pt 19.6254 16.4756 34.0525
Au 37.637 28.3362 33.7762
Au 39.0014 28.0858 13.305
Pt 20.2234 26.5784 37.8919
Au 17.4919 23.0396 10.3918
Au 34.5178 25.1887 16.7404
Au 12.2033 23.7727 21.3927
Pt 35.0433 15.0914 27.8223
Au 15.7741 28.8129 22.87
Au 12.9019 22.8887 11.9187
Au 21.3677 43.542 29.6455
Au 35.8085 10.8693 32.3427
Au 14.2773 30.5531 14.7538
Au 34.9212 30.5269 14.4059
Au 33.6566 41.9609 21.2384
Pt 21.372 38.3578 23.3791
Pt 26.9892 11.8784 33.3739
Pt 18.266 18.3317 25.0786
Au 32.6843 15.6537 41.5864
Pt 26.2284 27.873 40.0612
Pt 33.7268 19.412 25.8194
Pt 22.9462 28.705 30.078
Pt 35.4054 33.709 22.5964
Pt 23.8398 29.2679 18.8403
Pt 31.1391 26.2229 25.5165
Pt 15.5071 33.0906 34.2071
Au 25.0455 40.5406 26.8217
Au 4.47722 26.1596 20.4916
Au 30.0599 14.4934 10.7199
Au 29.3357 6.88459 23.2093
Au 30.0738 35.1233 11.2946
Pt 16.8395 29.5595 32.8897
Pt 16.1944 25.9625 30.533
Pt 14.9106 37.7037 27.4926
Pt 27.2987 21.2459 24.2736
Au 14.0906 16.9517 21.4726
Au 24.3056 39.3735 34.9077
Pt 27.1597 29.9193 29.8555
Au 11.6862 33.8552 19.0934
Pt 32.9838 24.6435 21.2443
Au 14.6278 13.6751 14.9944
Pt 29.7546 31.0001 23.7686
Pt 34.551 25.0177 37.602
Pt 32.8203 21.6283 24.1566
Pt 31.1573 21.6721 38.1541
Pt 21.9939 16.1222 35.0434
Pt 32.6726 21.7326 33.6619
Pt 30.1285 23.1439 36.2672
Au 33.9251 30.619 17.1728
Au 22.6202 6.98506 32.1624
Au 21.936 10.4663 35.2365
Pt 26.216 23.2102 38.9344
Pt 15.7803 17.7382 23.4989
Au 15.5243 25.7193 40.0459
Pt 19.7024 32.3555 24.629
Au 30.8319 33.0192 9.55265
Au 15.4688 12.9023 17.6657
Pt 18.5531 25.9904 25.8944
Au 9.30744 24.4729 30.4503
Pt 28.3136 15.0486 26.717
Au 10.5841 23.1997 19.0743
Au 29.5378 23.8208 9.80908
Pt 34.2744 36.977 18.7133
Au 39.5654 33.6753 20.8708
Au 10.0569 15.5898 19.1836
Au 23.7607 8.18393 18.4038
Pt 19.4017 28.9557 34.1467
Au 28.346 7.51907 34.0437
Pt 22.7602 25.0413 41.2941
Au 38.4897 22.2798 37.2728
Pt 20.7341 30.5397 29.6003
Pt 16.0484 21.7436 23.1875
Au 26.7163 28.1688 14.5916
Au 9.09897 14.971 23.714
Pt 36.0841 26.9364 29.737
Au 38.1275 12.0259 30.9069
Pt 29.8886 9.00694 25.0651
Pt 35.7557 37.9927 23.786
Au 26.3335 4.27725 29.0971
Au 36.771 36.5257 17.7626
Pt 12.4604 22.7391 29.1833
Pt 28.015 21.4634 16.5814
Pt 26.2902 19.9145 10.0973
Pt 26.1583 21.5816 12.2215
Au 10.2401 18.9807 12.1516
Pt 12.4081 19.6794 33.33
Pt 16.6088 24.2124 32.6074
Pt 21.4388 13.952 29.9938
Pt 22.0001 30.3436 20.4097
Au 36.0966 29.1949 37.0762
Pt 14.5951 30.4309 34.4625
Au 18.9966 9.18275 17.8081
Pt 18.5516 22.671 34.9859
Au 21.2063 7.04451 21.6239
Pt 26.3589 16.7622 21.9254
Au 30.2786 25.771 11.6139
Au 43.7398 24.1337 25.5766
Pt 23.2098 14.6908 16.6719
Pt 22.8674 22.5959 36.6562
Pt 20.8342 27.1028 24.2822
Au 31.9332 7.86266 26.5685
Pt 18.3383 9.948 24.0677
Pt 36.6964 32.1308 27.8528
Au 28.6406 44.1507 23.1959
Pt 28.7262 22.2575 34.1621
Au 11.1004 28.7383 14.2669
Pt 31.8231 37.5865 26.3354
Pt 15.052 26.2938 33.1867
Au 32.4308 25.3108 6.54216
Au 9.98478 27.162 30.3696
Pt 32.9243 21.0523 28.058
Pt 26.0933 29.5516 37.7808
Au 16.8778 12.7806 35.2377
Pt 40.5542 21.1874 30.1657
Pt 24.7046 33.3997 31.5001
Au 7.86704 33.467 21.8356
Pt 24.9906 13.7763 12.6041
Au 15.67 40.3793 27.289
Pt 39.4879 31.6208 22.7306
Pt 29.2581 38.9031 29.5128
Au 32.3667 16.3993 33.9501
Pt 34.9583 17.3581 20.4795
Au 38.1424 21.1133 15.3529
Au 13.3762 29.5554 7.59895
Pt 17.1219 33.7775 27.9644
Pt 27.0064 25.9967 36.0075
Pt 28 28.8343 17.1032
Au 37.5837 27.88 19.5125
Pt 38.631 26.2203 24.8029
Au 13.5965 32.5357 20.9212
Au 14.7401 11.9994 33.0836
Au 37.2366 28.0379 11.2219
Au 42.6283 22.6464 23.5224
Au 33.0965 35.5237 37.3682
Au 34.133 29.9251 8.30832
Pt 37.6409 19.6385 23.4637
Pt 26.8518 35.7641 31.0062
Pt 15.8895 27.1338 37.44
Au 35.5459 27.18 38.8113
Pt 11.7028 24.0809 31.635
Au 27.4701 30.3283 12.7684
Au 41.4486 28.3742 28.4026
Pt 26.1199 34.0498 38.4272
Au 10.2308 24.716 35.2519
Au 12.7205 32.5391 34.0379
Au 28.0324 15.7093 41.4014
Au 10.0383 24.8444 22.9851
Au 21.0303 33.3943 16.6765
Pt 20.1716 19.4773 37.9763
Pt 23.5848 28.4097 36.4035
Au 19.0987 38.6436 16.8523
Pt 35.0427 21.8068 31.8449
Au 22.1948 5.08045 23.4792
Au 32.1344 12.5944 36.4759
Pt 17.7916 28.1193 30.7612
Pt 13.8358 32.657 28.3441
Pt 17.4255 23.4129 30.0113
Au 19.8341 42.1759 21.3307
Pt 28.704 18.1039 33.3035
Pt 33.4424 19.1057 23.2406
Pt 17.1517 24.0985 22.3665
Au 38.5471 26.0707 15.1069
Pt 17.9652 20.6648 30.0033
Au 39.6054 13.276 29.0192
Au 27.5597 8.87637 36.5354
Au 15.9148 28.5123 39.7456
Au 16.7363 35.896 23.4435
Pt 10.4188 21.871 30.8113
Au 6.52795 21.4404 25.6474
Pt 34.0158 21.892 21.7458
Au 22.8616 9.83832 23.4644
Pt 39.9717 25.8778 27.6649
Au 18.3195 13.1509 12.2858
Au 19.325 36.3566 18.4588
Pt 35.2616 37.4148 32.5777
Pt 22.2035 31.5544 25.3769
Pt 32.1142 15.2307 20.6116
Au 19.2405 6.02633 28.56
Pt 26.289 7.05022 29.1429
Au 17.6769 21.9199 12.9035
Au 24.6134 36.1891 11.4816
Au 27.0102 19.3732 5.51933
Au 24.6013 36.9285 19.0802
Au 7.69929 26.1024 25.0211
Pt 36.8977 31.1577 30.3122
Pt 24.5725 12.6254 17.8588
Pt 39.0478 23.4866 23.6007
Au 17.9459 30.4611 8.30117
Au 27.061 29.8617 7.35444
Au 37.7838 22.8024 13.2622
Pt 30.1783 21.8067 17.8866
Au 19.343 37.0629 10.9134
Au 17.8821 10.8568 29.7562
Pt 21.7998 25.1466 32.9994
Au 28.1111 12.7781 9.66233
Au 19.9144 37.1792 37.7113
Pt 32.0076 24.261 23.8988
Au 10.7772 20.3612 9.70018
Au 39.2428 15.8999 21.74
Pt 21.5788 11.4092 20.8099
Au 37.0771 24.3981 38.7546
Pt 16.6901 34.6922 32.4695
Pt 32.7391 25.9041 18.5942
Au 30.2462 33.9153 13.84
Au 14.6601 14.3205 35.0724
Pt 36.9772 31.397 23.4678
Au 16.5424 10.4823 18.5593
Pt 30.9125 13.0013 21.6153
Pt 30.2754 38.9896 21.9734
Pt 20.4631 36.6943 34.7455
Pt 23.175 9.1402 26.4496
Pt 23.9544 12.3394 23.3432
Pt 28.9458 21.5136 30.8662
Au 7.55035 20.6245 14.5744
Au 13.0509 26.9934 8.28376
Au 18.0831 34.3229 14.123
Au 16.5922 33.1122 7.71383
Au 25.6031 35.5667 16.8707
Pt 36.6956 26.7379 17.0883
Pt 39.7119 25.7088 22.409
Au 14.6726 21.9741 16.5271
Pt 14.0937 17.712 28.6389
Au 33.3763 23.0885 7.58951
Pt 29.9742 38.178 19.4015
Pt 17.6708 31.6699 26.3079
Au 9.00108 26.9525 11.8747
Au 10.1746 27.1961 25.1372
Au 25.1077 31.8202 13.0698
Pt 25.4526 31.848 33.623
Pt 25.6897 37.8966 33.0355
Au 16.5863 31.0939 16.3127
Pt 20.1187 19.0074 29.3955
Au 17.2237 26.8246 17.9453
Pt 37.5956 14.0382 27.3925
Au 9.4195 20.6735 19.3521
Pt 14.777 35.1559 28.0441
Pt 39.4423 16.0915 29.082
Au 16.705 8.45031 28.5866
Au 22.1368 29.1657 43.5525
Pt 11.4016 19.3407 30.9077
Pt 22.1119 27.7174 34.1917