2057
Atoms. Timestep: 21184
Au 7.40476 27.6889 15.8128
Au 35.1446 11.2173 33.5284
Au 16.8042 21.6706 16.5774
Au 23.775 7.27275 23.1432
Au 11.5719 23.1129 9.24444
Pt 31.723 29.3509 34.4903
Au 30.432 31.1974 8.60748
Au 19.1905 20.0581 40.2724
Au 19.487 21.582 11.6997
Au 19.5592 34.3574 40.7275
Au 38.4112 31.8815 12.115
Au 35.8513 36.694 22.55
Au 35.6911 23.7804 8.83417
Au 21.5357 41.99 34.4873
Au 14.156 41.2341 34.0682
Au 26.2301 16.0057 41.3372
Pt 19.6685 14.6472 30.8547
Au 25.1919 32.9686 39.9502
Au 22.5572 6.04629 17.99
Pt 25.7917 10.2403 19.303
Pt 29.9081 21.9958 41.0667
Au 15.7783 28.8118 20.3895
Au 12.0085 25.6762 21.2383
Au 8.86 31.7383 31.0781
Au 16.4478 38.2198 18.1671
Au 14.3118 36.7593 30.7896
Au 10.7838 32.8156 12.2544
Au 15.8844 9.19967 21.3136
Au 14.3682 34.2844 19.3947
Au 25.9556 11.6829 14.1164
Pt 29.0749 38.2742 26.8707
Au 38.1257 19.7353 39.1985
Au 11.0212 28.4488 35.0898
Au 10.1846 27.5373 14.5388
Au 10.8917 31.9058 23.4845
Au 28.1954 36.2156 38.2156
Au 12.7742 32.115 18.6792
Au 41.505 29.4147 15.8147
Au 16.228 25.2419 12.7716
Au 15.8733 35.1802 28.1296
Pt 21.2301 29.2698 13.9008
Au 13.9107 20.2764 26.5346
Au 9.95579 26.4818 19.3708
Pt 20.653 27.3395 15.721
Au 27.2935 15.7223 38.8793
Au 18.267 20.4583 6.78055
Au 28.1608 41.8786 23.8233
Au 7.23848 27.9978 24.0349
Pt 19.2626 34.21 18.6111
Au 33.0372 13.532 13.3047
Pt 31.1919 34.7765 21.416
Au 21.3082 25.7535 43.7983
Pt 19.1275 17.3845 18.3015
Pt 13.4151 32.631 30.2528
Au 14.4427 29.2858 14.2475
Pt 14.5003 22.9971 27.2018
Au 24.3781 40.0935 23.1396
Au 13.0509 21.7356 38.3067
Au 38.3477 21.5157 12.1159
Pt 33.7213 34.8473 22.5815
Au 40.5803 30.2899 25.0781
Au 6.86013 34.0861 24.1608
Au 25.6987 31.5093 44.1738
Au 7.45244 30.1077 17.4112
Pt 21.5133 12.6464 23.3394
Pt 26.9712 32.9261 35.2839
Pt 32.4175 16.0113 28.661
Au 35.1821 15.3593 37.5068
Au 20.858 11.1513 12.3453
Au 16.9103 35.6458 23.3914
Au 37.2702 19.3911 13.6302
Au 35.1595 12.9629 35.8066
Au 11.3866 28.3734 21.1806
Au 22.0508 28.3506 43.9325
Au 17.9986 32.6787 31.4334
Au 36.7444 12.7508 22.1168
Au 11.9493 36.5708 35.1362
Au 27.5526 35.9556 11.7102
Au 22.165 12.7089 10.5477
Au 7.58684 23.2309 27.1493
Au 43.4499 26.5652 26.5843
Pt 17.9812 29.844 24.0213
Pt 26.7214 10.7097 23.8907
Au 22.9812 21.8807 7.99983
Au 15.6683 41.2948 19.9726
Au 28.4112 21.5766 8.99313
Au 22.8848 18.9616 12.2576
Au 32.8017 26.4452 10.1802
Au 22.8518 36.9441 9.66618
Au 36.1572 10.0076 28.3637
Pt 26.8306 32.6288 27.5327
Au 29.3973 20.2152 11.2375
Au 6.91459 25.4612 22.8372
Au 21.2143 10.1382 34.8062
Au 30.5312 37.1396 11.9417
Pt 25.8924 14.9598 10.1553
Pt 14.1846 24.768 22.7278
Au 29.919 35.5594 9.83234
Au 12.1847 29.2499 18.6125
Au 10.2818 16.8027 28.8044
Au 16.394 28.2062 12.5022
Au 33.0504 24.4523 8.06597
Au 20.4296 19.7134 18.8362
Pt 15.4417 21.2983 29.2131
Au 38.3584 35.7471 23.286
Au 18.3816 10.9969 16.7753
Pt 24.5993 26.9528 9.41024
Au 29.8689 40.9063 19.401
Au 18.567 40.094 22.8998
Au 30.7322 8.02286 33.9268
Au 27.049 33.2963 12.701
Au 13.1427 35.8443 26.22
Au 30.5452 30.3792 43.3159
Pt 24.0563 23.1146 10.3837
Au 8.42128 18.585 29.6646
Au 23.9579 6.57455 28.9164
Pt 11.6883 17.0592 23.6727
Au 18.2149 19.7194 37.5154
Au 9.22927 16.0123 23.1631
Pt 39.6334 28.7671 22.9136
Au 11.3223 22.0293 31.7041
Au 36.4633 11.9219 31.2542
Au 19.1916 40.7833 33.8124
Au 8.1632 34.9736 26.4461
Au 29.7025 40.1375 22.2087
Au 31.3267 25.7614 43.1115
Au 26.1576 14.3294 7.52358
Au 38.756 29.1128 11.7897
Au 10.0395 28.2414 11.0614
Au 21.125 38.7098 10.871
Pt 13.0227 36.1827 21.0862
Au 11.3222 37.3732 22.9379
Au 36.6305 18.9719 11.0388
Au 15.2158 11.581 20.1828
Pt 31.8579 34.269 26.2145
Pt 13.8736 18.0459 24.7498
Pt 37.1748 27.6691 22.4868
Pt 13.9482 22.7366 31.759
Au 14.1465 36.1713 36.6315
Au 35.9933 10.5445 20.651
Au 14.6672 12.3217 22.8422
Au 34.6079 32.8869 35.0276
Au 21.6847 11.0304 37.4512
Au 11.0945 36.1898 30.3304
Au 43.5208 22.7717 21.6827
Au 11.9273 24.4405 18.643
Au 16.7427 43.5306 26.4741
Pt 21.653 13.0803 16.616
Au 18.8082 37.3452 11.7851
Pt 15.9493 19.5536 35.1062
Pt 36.5254 32.5126 26.0307
Pt 38.1238 22.6204 27.0071
Au 24.5118 9.41682 14.7383
Pt 21.1174 25.6045 22.5007
Au 29.5027 28.7309 7.57093
Pt 22.9581 12.373 18.7651
Pt 34.1658 27.991 35.336
Au 38.3099 11.1729 29.306
Au 36.0176 34.1818 32.9245
Pt 22.2476 21.5822 11.9227
Pt 33.1096 26.1687 37.2109
Au 15.9031 37.0992 11.7294
Au 19.5918 18.6629 11.1198
Pt 29.8899 20.6344 16.1522
Pt 21.4201 25.4931 39.083
Pt 22.5178 31.1557 15.5474
Pt 36.2353 13.0951 28.7626
Au 8.80104 20.9788 25.5422
Au 19.915 15.9913 36.1871
Pt 22.6382 11.4721 14.747
Au 7.16948 25.4931 25.651
Au 24.0832 16.8131 13.6269
Au 16.1669 32.5556 37.7577
Pt 22.2735 29.7276 17.9785
Au 29.7678 34.1341 12.1461
Au 11.2862 16.9595 15.4141
Au 25.1626 30.8746 7.0656
Pt 34.8312 17.4899 19.4754
Au 25.5699 34.3814 10.5884
Au 12.9536 41.0286 20.5718
Au 28.1489 32.8676 10.1836
Au 21.2715 37.9098 15.6878
Au 10.1728 22.7047 29.3148
Au 31.7021 32.0526 17.6648
Au 42.1339 18.1122 19.0512
Pt 37.0602 20.896 33.8803
Pt 32.3943 20.6197 31.0604
Pt 23.6727 25.6445 22.9865
Pt 33.907 32.954 24.8859
Pt 27.3074 13.0868 17.3452
Au 13.488 13.495 17.9278
Au 15.3744 21.26 40.323
Pt 17.6141 21.9783 23.8892
Au 23.9384 20.2853 10.1593
Pt 28.0475 24.9492 27.4446
Pt 20.9596 24.9599 7.6009
Pt 23.5222 35.6384 29.977
Au 28.6525 25.2471 43.8107
Pt 23.3799 24.7461 25.7267
Pt 26.9271 33.5877 37.9347
Pt 28.2087 26.3706 23.9644
Pt 24.8405 30.3371 16.4122
Pt 17.5841 18.4607 32.9242
Pt 32.5548 11.6887 20.2147
Au 24.0422 41.1585 35.0033
Pt 16.7125 27.2005 18.1574
Pt 21.5451 34.0818 25.1439
Pt 33.222 28.1839 19.5508
Pt 27.3749 33.4153 24.9054
Au 14.1489 27.5071 22.5316
Au 8.1292 29.9119 26.059
Au 43.7785 25.5003 21.9653
Au 13.411 26.9747 34.6118
Au 40.5995 15.0461 23.0562
Au 10.995 19.5602 29.541
Au 14.9556 30.578 18.4228
Au 38.1613 34.7613 16.562
Au 7.62671 35.3055 21.9206
Pt 29.8201 19.9785 27.7401
Au 22.1535 35.1285 14.3745
Au 14.0024 29.8767 8.66376
Au 12.3119 19.0434 11.4304
Au 10.2955 39.9355 27.0004
Au 31.3409 38.7679 19.889
Au 6.51441 27.851 21.3374
Pt 22.4115 27.2424 7.99945
Au 8.79579 30.0134 15.0831
Au 38.2714 25.7775 37.3578
Au 27.1798 22.9816 40.9526
Au 18.1663 42.2528 31.6442
Au 18.1942 40.1933 29.5652
Au 39.9785 26.9921 16.1588
Pt 32.4714 19.6947 26.6602
Au 40.2877 25.6156 13.6481
Au 15.191 39.8623 29.7854
Au 26.1848 41.3332 33.0855
Pt 20.5188 29.5374 29.0522
Au 41.0898 29.5205 20.6245
Au 30.3823 35.7211 16.6844
Pt 27.4879 20.1187 35.6513
Au 15.3476 32.0199 20.8524
Au 29.2624 29.9188 41.1268
Pt 24.3213 17.1146 16.6334
Au 15.8909 36.6462 25.7811
Au 37.784 25.4891 9.51646
Au 11.1218 35.7077 12.8533
Au 24.1826 13.8057 14.1037
Au 27.9587 31.0696 7.59532
Au 9.31639 18.5307 24.1951
Au 33.3908 35.0458 36.1747
Au 36.6602 23.862 11.5281
Au 6.71208 22.8766 18.7936
Au 37.1755 32.414 31.0786
Au 29.9393 40.333 25.2943
Au 9.89523 19.0494 16.4924
Pt 22.8958 16.756 22.1396
Au 17.3112 39.1971 20.6188
Au 33.4344 33.8854 19.7399
Pt 20.9033 32.4856 39.1771
Au 43.7071 25.6705 19.2926
Au 21.8924 34.5234 8.48469
Au 40.222 14.4731 25.7848
Pt 26.2174 18.998 28.2174
Au 28.3772 32.0666 42.8279
Pt 34.5683 30.6007 26.298
Au 14.0376 37.0189 18.6181
Pt 26.6442 32.3954 32.669
Au 18.5772 7.90608 28.7398
Au 18.2684 18.1151 13.6227
Au 25.582 37.7663 37.3832
Au 11.9596 18.1996 27.0024
Au 12.0581 18.7945 18.29
Au 25.3408 17.6378 11.0197
Au 12.7931 34.2889 11.3184
Au 27.4546 35.4726 8.84378
Pt 19.9204 17.3263 31.4381
Au 20.8554 31.9658 8.01106
Au 14.2899 21.5095 15.0255
Pt 29.9405 33.3096 24.7443
Pt 40.6147 21.1568 26.2748
Pt 31.538 15.9199 18.0132
Au 26.4829 10.6174 36.4581
Pt 23.7086 26.6997 39.1612
Au 10.6636 21.3254 11.4763
Au 26.2717 33.6219 42.5546
Pt 37.8491 23.0425 29.6944
Au 31.7683 28.2147 42.1015
Pt 22.1392 15.3429 24.4086
Pt 28.8277 26.9198 21.0351
Au 35.7163 17.4187 15.0152
Au 22.77 41.7241 24.8469
Pt 21.2597 23.8811 24.5476
Pt 30.5522 30.6528 23.7635
Au 9.52906 38.8631 24.4367
Au 21.8244 9.01452 13.6702
Au 19.289 34.0561 23.1958
Au 18.2013 25.4942 16.264
Pt 35.9116 29.1161 24.4346
Pt 38.226 15.5718 24.3165
Pt 23.8535 29.1753 37.7772
Pt 20.939 40.1356 29.1438
Pt 27.8624 26.2874 18.5205
Pt 24.2059 18.3769 29.9678
Pt 31.7693 25.4291 32.6876
Pt 31.3953 23.4532 30.5847
Pt 26.1545 12.9466 35.0956
Au 43.443 28.0458 20.7867
Pt 24.0049 32.9016 33.4743
Au 29.7288 27.8671 44.1359
Pt 16.5512 30.2495 32.5295
Pt 19.7049 37.6769 29.3154
Au 14.6409 38.6756 13.4991
Au 25.7732 39.2962 20.6397
Pt 19.5656 25.5031 37.1101
Pt 31.6017 28.6854 25.4108
Pt 29.9045 30.3259 32.7954
Au 35.0417 8.85986 17.7634
Au 9.75584 29.2211 23.8488
Pt 22.1264 17.6413 35.579
Pt 29.2458 32.769 33.8103
Au 9.67157 32.8708 33.4385
Au 15.3276 24.7912 6.78351
Au 6.24891 30.1141 20.018
Pt 31.6056 32.8964 28.5269
Pt 34.8553 12.8839 19.901
Au 17.0661 19.839 11.7957
Au 33.7501 9.12956 20.2269
Pt 26.5787 17.0419 29.8216
Pt 17.3312 15.8832 31.8983
Pt 20.7623 9.72436 15.9633
Au 42.8644 17.5227 28.0589
Au 29.2896 36.0892 14.051
Au 37.1254 12.5371 15.6229
Au 39.904 26.9025 35.1798
Pt 32.0598 18.7484 38.6424
Au 11.7528 26.5527 12.2701
Pt 33.9598 22.5851 30.5856
Au 16.003 21.6809 19.3873
Au 24.5303 8.05909 17.9798
Au 17.757 25.0142 39.1461
Pt 24.0774 26.1389 29.6699
Pt 21.2879 26.5864 25.1145
Au 30.6911 18.7467 42.7311
Pt 20.8032 24.9839 17.538
Pt 21.3032 36.0643 23.4724
Pt 35.6184 31.2181 15.4974
Au 34.8973 36.2703 20.0928
Au 33.4251 28.0888 39.8307
Au 43.7347 24.6475 24.6161
Au 24.2091 11.0568 9.81205
Pt 36.1234 24.6457 27.0105
Au 7.03195 27.6651 18.5771
Au 26.1664 30.8693 9.65931
Pt 26.1711 15.4698 12.9176
Au 18.7607 36.4642 39.0669
Au 13.3034 31.6497 12.8901
Au 13.2853 27.7293 25.5099
Au 9.52063 37.0412 19.2282
Au 19.9619 25.0116 41.2828
Pt 25.6421 18.937 21.3368
Au 13.8874 23.7328 10.694
Au 14.7616 43.2227 21.5173
Au 27.1973 7.86348 18.1848
Au 16.6426 39.176 34.6718
Pt 23.6145 29.9132 13.1518
Au 8.5255 18.2502 21.6012
Pt 18.628 25.6211 18.9645
Pt 15.6432 15.8566 25.0518
Au 28.5425 8.67164 15.9145
Pt 30.4637 11.8654 18.3358
Au 35.0992 26.4048 8.52589
Au 40.0603 19.468 37.0439
Au 33.0221 31.9083 15.2348
Pt 28.6786 16.046 13.6148
Pt 18.1659 13.3257 32.6193
Au 23.525 41.8772 32.4867
Au 8.95303 37.1927 31.6124
Au 15.0351 15.3683 19.2789
Pt 30.6572 27.1818 19.0652
Pt 33.9366 15.8468 24.4224
Au 12.3132 33.2807 21.162
Au 13.4689 13.1107 32.2411
Au 27.8457 39.6369 15.4327
Au 17.5303 23.3982 10.9989
Au 21.0682 36.9777 18.9496
Pt 25.5309 8.478 27.3871
Pt 12.7944 28.2901 30.0772
Au 9.42604 25.2164 28.0423
Pt 40.2361 28.8546 18.0869
Au 12.3511 13.4471 26.857
Au 31.4771 38.699 23.7026
Pt 18.7148 31.8 33.8459
Au 31.9257 15.441 38.4089
Au 28.7274 17.2424 41.6257
Pt 22.1954 30.7044 10.9991
Pt 31.9008 23.2231 23.8822
Au 12.6774 42.3313 22.8694
Au 35.4802 19.5435 40.167
Pt 13.5742 14.96 34.4649
Pt 26.2791 28.1121 20.2256
Au 25.3758 39.6436 13.9966
Pt 15.6626 28.5642 34.9034
Pt 40.0253 23.2441 24.9333
Pt 12.2662 24.3841 30.2797
Au 13.9321 22.5773 17.7075
Au 20.5576 29.2841 25.0826
Au 29.2405 33.5728 7.9447
Au 18.9438 8.65206 18.395
Pt 24.8225 28.3072 22.675
Pt 21.6435 36.9481 12.6367
Pt 29.7835 35.9737 25.7778
Au 27.2311 40.0262 18.177
Au 20.5903 39.7892 36.0157
Pt 18.2606 20.9592 28.2501
Au 35.5943 10.1626 15.3785
Pt 27.5608 14.9975 28.4357
Au 8.67737 33.272 28.7837
Pt 25.2364 30.7571 34.3848
Pt 20.2235 39.4917 20.7758
Pt 17.8445 38.4865 25.086
Pt 17.7241 24.8439 32.4846
Au 9.58019 38.6635 29.3715
Pt 19.1146 29.2408 32.5722
Pt 31.0699 22.8684 15.6906
Au 22.957 41.7108 17.4883
Au 13.4384 16.5891 17.1129
Pt 20.639 30.3021 34.8858
Au 30.5684 7.03584 31.4498
Au 32.9284 8.25781 31.7565
Pt 38.2663 15.0713 21.6141
Au 15.8252 32.9258 17.2385
Pt 29.5324 23.811 38.8715
Pt 36.1836 30.0333 17.7973
Pt 17.7789 30.4386 21.2862
Au 14.4839 28.3747 16.9326
Pt 38.9245 20.6674 17.2749
Au 12.1736 34.7132 23.4951
Pt 15.5499 22.273 21.9596
Au 17.514 35.37 10.4362
Pt 39.6011 28.9434 27.3279
Pt 24.8035 11.1134 33.9842
Au 31.1938 12.9521 9.65374
Pt 38.0158 33.0929 23.1585
Pt 31.5516 21.8961 28.4422
Pt 21.1643 20.1318 36.0767
Pt 24.0117 14.1294 22.917
Pt 31.202 24.2375 9.99789
Pt 39.3219 18.1318 32.1494
Pt 22.0115 19.5855 33.6175
Au 28.6094 38.6568 12.9504
Au 23.3688 23.8797 44.0926
Au 42.8194 23.083 26.813
Au 9.77218 34.0817 14.5765
Au 42.891 20.0262 22.4777
Pt 23.5232 28.8874 35.2599
Pt 26.6626 31.2494 29.9361
Au 33.1414 9.059 15.6955
Pt 13.5505 20.2308 31.2507
Au 11.8153 23.6585 36.3901
Au 22.8087 25.4934 10.9341
Au 8.58124 21.2263 17.7191
Pt 15.4521 18.3547 31.3342
Au 16.4427 30.5619 10.0427
Pt 33.472 22.2825 26.4219
Au 19.0806 37.9745 34.2022
Pt 11.2146 25.8626 26.0746
Pt 22.598 28.1571 11.094
Pt 37.3904 23.8332 24.5854
Au 23.1801 25.711 5.72909
Au 21.9174 23.2014 5.87811
Au 34.2894 12.3984 15.8712
Au 9.03774 29.1038 19.6021
Pt 15.7688 16.8358 33.9164
Au 25.8686 24.3341 43.1734
Pt 31.1004 16.4789 20.8274
Au 32.3285 35.1868 11.771
Pt 21.4709 21.7056 31.7381
Au 15.548 14.8932 16.453
Pt 23.8822 14.7701 20.3473
Pt 29.6202 24.1799 13.8876
Au 13.0648 39.9774 27.6568
Au 43.2402 20.2728 17.3453
Pt 28.041 12.4393 19.8611
Pt 26.0357 30.9431 41.6273
Pt 34.8141 20.1084 14.7817
Pt 20.8982 12.0841 20.5678
Au 9.4075 35.3 17.1397
Pt 23.3651 21.5477 34.4016
Pt 25.3546 25.4014 27.3338
Au 12.8115 11.7786 24.723
Pt 31.9673 15.0967 26.0302
Pt 25.0929 28.0702 27.6495
Pt 20.4247 35.3035 21.0019
Au 24.2476 11.8253 37.7846
Au 33.6061 13.135 38.0986
Au 25.4753 7.1732 32.4659
Au 12.0042 26.7662 17.1559
Au 25.7293 25.9934 6.83316
Au 36.9849 21.8793 40.6701
Pt 19.0316 18.3039 27.4315
Au 31.5576 10.9043 38.5222
Pt 41.0051 20.5346 18.7721
Pt 39.0654 17.4613 22.7043
Au 26.1311 39.3915 35.3194
Pt 13.6236 30.402 28.7625
Au 42.0139 22.2093 29.4543
Pt 32.2679 26.6305 27.3397
Au 31.0044 21.9155 8.29608
Pt 37.6265 28.6836 29.3009
Pt 25.8702 20.6848 33.5797
Au 32.8414 14.7488 10.7104
Au 17.2199 11.8763 14.1117
Au 12.9368 20.8382 9.51453
Pt 29.678 25.7322 30.9304
Pt 24.214 32.8233 21.0124
Au 19.0206 33.7782 8.8734
Pt 24.6462 34.6975 18.5402
Pt 11.8025 24.3026 23.7443
Au 28.5886 11.2459 13.2138
Au 22.5819 30.1028 41.9282
Pt 31.8959 19.3994 12.3803
Au 37.8044 13.4618 33.257
Pt 22.7806 26.6866 27.4716
Au 28.1322 7.66824 27.8424
Au 9.07443 28.9665 30.8187
Au 16.9342 22.7571 7.88109
Au 15.3848 20.2345 23.8809
Pt 22.5871 26.284 31.9359
Pt 9.96007 23.4156 25.9509
Pt 17.1768 16.4803 27.3426
Au 16.2166 38.3187 22.9882
Pt 26.0117 15.4496 18.6808
Au 13.791 32.0599 23.3986
Pt 12.8443 21.7574 29.1707
Au 27.5467 13.4589 11.908
Au 6.77477 25.6878 28.3145
Pt 18.2753 27.4877 25.2873
Au 15.8786 25.0452 9.4093
Pt 28.0474 25.4158 16.0184
Au 38.3959 18.5999 34.5455
Pt 15.9651 28.7647 30.1522
Pt 27.1749 35.8853 25.8452
Au 26.9667 37.2718 33.7473
Au 27.4194 34.8061 40.4422
Pt 41.0447 27.6623 25.1518
Au 38.2552 32.5356 14.9452
Au 10.4601 22.9838 34.1238
Au 21.2397 23.3466 9.9054
Pt 39.0827 15.8617 31.1747
Au 16.379 30.5144 15.7817
Pt 19.9135 26.5904 32.0477
Au 17.8324 33.7516 35.6545
Pt 37.8534 15.5641 28.8434
Au 27.7297 41.328 30.4036
Pt 24.4258 36.8264 34.789
Au 23.4097 24.6799 8.27821
Au 41.1157 18.8405 16.5826
Au 13.4366 18.7185 15.4542
Au 15.7376 27.8806 9.67526
Pt 31.1148 11.7312 23.6649
Pt 29.3917 25.5029 33.7241
Au 12.5725 29.6153 23.5858
Pt 22.945 20.3408 24.8964
Pt 40.4328 19.2181 21.0581
Au 9.17807 33.004 21.6123
Pt 31.4414 15.9898 13.2495
Pt 21.3094 30.4866 37.4886
Pt 25.444 25.3068 11.7557
Au 18.4904 41.645 27.2491
Pt 15.9289 28.7805 25.4896
Au 32.0268 33.1924 37.6672
Au 38.5225 12.8347 24.3294
Au 11.5751 22.2728 14.0231
Pt 41.5079 24.3838 23.0998
Pt 20.3732 38.4233 24.5419
Pt 16.0486 19.5816 21.3046
Pt 14.53 26.5031 30.1096
Au 15.137 25.6826 39.8522
Au 19.0383 32.1094 25.0964
Pt 20.8695 20.2284 27.1009
Pt 21.874 13.5949 29.5344
Au 33.1356 18.911 41.4493
Pt 23.9185 26.329 34.225
Pt 21.3805 14.6634 21.7257
Pt 24.8839 10.4221 29.329
Pt 33.6349 16.9031 21.8731
Au 7.79077 23.205 15.9689
Au 42.3128 32.5251 22.4678
Pt 27.9631 14.0623 26.0221
Au 20.2783 6.97382 16.624
Pt 23.4039 33.7075 16.2991
Pt 22.5913 15.1535 27.407
Au 7.82269 23.6581 29.8937
Pt 26.3974 37.1721 18.829
Pt 33.8446 25.0121 25.7675
Pt 9.49491 34.3062 23.8732
Au 20.4029 35.8694 10.279
Pt 36.7029 19.5712 19.0265
Au 23.9778 13.6039 8.80405
Au 11.4309 27.0163 23.6214
Pt 28.0642 31.2357 37.2679
Pt 22.5099 23.9722 13.0851
Au 9.42901 25.6544 16.6693
Pt 34.3294 21.1033 33.2555
Au 15.5329 14.4116 38.8652
Pt 24.7905 23.7023 30.7596
Au 30.1107 37.2357 21.7681
Au 13.0126 39.5309 23.0301
Pt 16.6892 12.5987 27.8903
Pt 25.9743 20.7761 23.9653
Pt 26.3262 26.4144 14.2321
Au 13.1769 34.9601 28.9349
Au 37.9678 35.5984 20.6289
Au 42.6707 31.8263 25.0787
Pt 22.1976 34.2886 19.3227
Au 36.3806 34.4784 18.6846
Au 11.8482 18.3982 37.6004
Au 29.8395 34.1415 39.1947
Pt 29.9559 29.345 27.5011
Pt 25.8515 12.0879 21.7452
Au 15.2869 16.8643 14.5556
Au 34.0555 37.9873 24.202
Pt 18.7209 20.2316 34.9118
Au 33.8083 17.3204 26.8276
Au 23.8071 39.209 10.7717
Au 16.7295 14.623 13.7683
Pt 19.0371 39.1456 18.5319
Au 27.5015 23.5744 7.0667
Au 41.2939 14.5559 30.1464
Au 34.5082 21.4665 41.8819
Pt 24.0206 21.1614 31.7648
Au 13.0088 24.7328 38.5074
Pt 31.928 9.66663 22.2723
Pt 33.5127 26.5947 13.0253
Au 8.02361 34.6495 19.3904
Au 8.58673 32.7375 16.6658
Pt 31.6487 19.6676 36.1906
Pt 27.8301 27.3016 31.9342
Pt 26.3459 29.2306 36.6348
Pt 39.9392 24.7023 30.1093
Pt 24.5411 37.4574 22.2763
Au 11.2952 14.6693 16.9875
Pt 22.6703 8.62487 25.3522
Pt 30.6167 9.90087 32.0724
Pt 34.768 23.1324 23.8787
Pt 24.2999 28.9014 40.4589
Au 10.7051 34.7533 27.7028
Pt 19.6224 10.5123 22.4607
Au 21.3485 41.882 19.7611
Pt 17.0034 13.6403 20.3619
Pt 20.3771 23.9045 20.1594
Pt 37.2741 18.4877 24.4284
Pt 39.2133 21.434 35.4468
Au 42.4253 30.4387 18.2837
Pt 17.4884 29.7016 18.2095
Pt 13.7303 18.5525 33.3932
Pt 19.218 15.4985 20.2787
Au 17.1182 40.9057 17.7637
Pt 15.6055 13.8654 30.706
Pt 31.9941 25.1905 14.7794
Pt 32.0522 32.5935 12.585
Au 40.4183 33.2168 24.3708
Pt 18.3281 21.0388 21.3868
Pt 28.8128 12.3354 27.9477
Au 18.3409 29.6607 13.8799
Pt 34.4866 14.3471 22.2505
Au 17.9644 32.4329 14.2343
Pt 34.2917 32.3424 32.0225
Pt 22.1208 14.9327 34.8666
Pt 26.8861 29.8257 32.2616
Pt 25.659 31.5018 25.5378
Pt 32.9013 17.6346 14.7946
Pt 25.8066 37.8155 24.6013
Au 17.9426 31.4895 7.8068
Au 11.2551 21.5386 18.804
Au 40.3826 13.7189 32.5389
Pt 15.5418 20.8101 32.9262
Au 13.7303 42.2058 29.2588
Pt 35.0802 27.2276 17.9786
Pt 31.0507 29.7598 18.9329
Pt 40.387 16.0583 28.2016
Au 23.7457 9.74412 36.0845
Au 39.471 34.1566 18.755
Au 16.6491 35.3519 18.2613
Au 14.0262 38.4785 35.154
Au 10.0759 16.8346 18.0033
Pt 34.4219 16.4 34.3043
Pt 41.4485 26.9748 22.3874
Pt 15.0514 14.6255 27.7522
Pt 36.2024 16.4842 22.7936
Pt 16.4093 21.392 26.4486
Au 11.2691 30.5427 30.3578
Pt 38.6306 25.4653 26.3879
Au 28.4377 37.8445 10.1626
Au 22.4921 32.6579 13.16
Au 40.0719 26.8266 11.0311
Au 29.6538 37.5577 33.2618
Pt 17.5539 15.243 18.2443
Au 39.3921 15.7027 34.2066
Pt 9.33999 25.3494 24.1602
Pt 38.796 28.1258 20.3928
Au 16.281 33.2032 9.20167
Au 22.8663 42.2707 29.7691
Au 9.49929 30.4466 12.507
Au 14.3276 23.9666 20.0795
Au 28.286 20.094 42.2108
Au 42.4988 21.3965 32.139
Pt 19.5984 32.6516 20.781
Pt 19.0256 13.2441 21.9152
Au 30.6912 6.93329 28.6992
Au 16.0239 11.4914 32.5227
Au 18.0517 13.83 37.4068
Pt 28.9784 31.9001 19.3372
Pt 39.0153 27.0709 30.7928
Au 42.666 22.0997 24.297
Pt 28.5382 21.644 24.4143
Au 32.9189 31.0702 10.3661
Pt 23.9995 12.6457 28.2273
Au 16.7943 19.06 39.7445
Au 20.0822 30.141 43.0661
Au 28.9057 7.89735 20.6778
Au 16.2853 12.5072 17.8556
Au 19.6898 34.9883 33.9754
Pt 16.5128 22.8745 31.1457
Au 33.1374 37.5802 29.4843
Au 8.96767 23.1271 13.1577
Au 20.3135 18.048 38.0154
Au 10.7324 25.7017 9.82491
Au 10.8987 14.1009 24.488
Au 34.7094 9.09399 22.8371
Au 19.8187 34.2523 27.1245
Au 16.4251 37.1808 32.6438
Au 18.5162 24.6971 43.3635
Pt 24.3404 30.0872 20.2116
Pt 23.9238 32.0195 18.3469
Pt 20.1127 15.2632 38.8169
Au 12.2113 37.4422 32.5476
Pt 36.4272 17.7387 28.0477
Au 35.9799 11.3562 17.927
Pt 27.6818 21.0247 29.1075
Pt 36.1682 28.7563 19.9744
Au 15.682 24.0256 15.394
Pt 20.5319 21.3166 24.0433
Au 35.7814 36.6952 29.1179
Pt 26.9564 23.8747 13.5688
Pt 29.1968 33.6081 36.6967
Au 21.1304 16.9454 12.881
Au 38.8794 31.1481 29.157
Pt 27.268 29.703 27.6084
Pt 19.3851 22.8313 16.3957
Pt 29.5119 24.5927 41.3605
Pt 24.3007 22.904 24.1632
Pt 13.3719 19.0237 22.3504
Pt 20.9791 24.7982 27.3178
Pt 19.4968 23.25 22.5411
Au 11.5998 38.0542 17.6351
Pt 26.0233 32.8994 16.9168
Pt 21.8867 27.4082 41.2705
Au 11.1629 21.0409 36.1971
Pt 23.5114 22.1034 19.8938
Au 15.6154 12.4718 37.1315
Pt 12.6658 17.557 30.7725
Au 17.3352 42.5548 22.3678
Pt 29.1866 32.9706 16.7763
Au 30.4807 32.4311 41.1859
Au 31.4579 28.8632 9.54826
Au 29.8646 7.37292 18.2024
Pt 21.6022 40.048 22.9875
Pt 20.4968 31.2382 31.5339
Pt 26.5095 17.91 18.0815
Au 19.7687 28.6513 11.6503
Pt 19.3741 22.1787 36.8011
Pt 26.7706 22.9817 10.9026
Pt 36.1532 31.5767 28.6966
Pt 30.6474 21.595 38.1054
Au 41.5492 16.1282 32.5746
Pt 18.528 31.4854 39.2838
Pt 17.5695 23.583 20.5955
Pt 24.1941 13.8585 33.5438
Au 9.30943 30.588 28.4147
Pt 23.184 36.1951 37.0228
Au 14.766 34.3902 22.1899
Pt 16.1673 26.04 34.5163
Pt 14.2289 22.2147 35.7798
Au 11.7914 42.2916 27.0976
Pt 31.8405 18.2052 24.4472
Pt 34.9514 24.2183 20.8824
Pt 25.0756 40.6072 30.6664
Pt 24.0637 10.6483 26.5076
Pt 24.6683 12.5099 16.5029
Au 41.5195 16.7982 25.7224
Pt 19.341 27.1852 39.808
Pt 32.9627 11.2027 31.6877
Pt 23.583 23.5764 28.2476
Au 43.602 27.3505 23.9528
Au 7.29513 25.4124 20.1014
Pt 27.3647 20.4589 26.4347
Pt 32.9936 14.7027 35.8171
Au 36.7132 31.5402 33.6504
Au 24.1353 22.4225 41.7582
Au 14.5586 25.6156 17.4894
Au 29.749 36.9047 30.644
Pt 27.601 34.7772 18.0683
Pt 28.7424 18.8119 30.0434
Au 8.02184 36.6214 24.239
Pt 30.6435 14.3578 34.7464
Pt 25.5428 35.622 16.2765
Pt 26.6975 33.1321 22.2723
Au 28.3242 11.1973 31.0938
Pt 32.0211 23.6083 40.9234
Au 38.7266 17.922 15.7604
Pt 25.3489 23.531 33.4447
Au 11.9379 39.7331 34.0085
Pt 17.9945 13.6347 16.0522
Pt 29.125 13.6191 30.3191
Pt 33.7204 29.6624 17.1969
Au 26.2834 33.1713 8.06269
Au 12.227 15.804 19.3713
Pt 15.8744 31.6327 30.1464
Au 17.485 34.3678 20.9007
Pt 25.1499 34.1114 31.304
Pt 23.4987 19.6015 27.5561
Au 17.7413 17.6118 35.6426
Pt 14.5313 28.1194 27.8338
Pt 16.1401 30.2632 27.8698
Pt 22.237 23.1958 15.8364
Au 29.8818 7.11304 25.8094
Au 17.0968 12.3205 34.9733
Pt 22.3394 23.1749 22.2554
Pt 30.8519 22.7365 18.3646
Au 9.10024 25.752 12.0241
Pt 34.7424 26.8758 21.2935
Pt 19.7048 10.3647 29.3405
Au 31.5009 16.8499 40.8277
Pt 32.7846 28.7822 11.9485
Au 23.3351 8.88894 33.4829
Pt 29.2245 9.8601 23.1452
Au 42.4659 26.8126 15.2369
Au 32.716 7.82232 24.1473
Pt 29.9725 9.85818 27.6373
Au 8.07157 26.2635 30.6371
Au 28.9861 40.8342 27.9328
Au 29.3208 32.0048 13.9864
Au 33.894 19.4524 10.1055
Au 37.8957 15.3579 15.7089
Pt 24.1878 17.2953 19.48
Au 30.2396 13.545 14.0996
Au 9.66985 30.1591 33.2287
Pt 34.1902 13.5437 30.7845
Pt 39.9254 20.5032 33.1346
Pt 29.8511 34.2836 30.0048
Pt 28.5039 20.3409 32.9002
Au 9.26052 21.8672 20.6291
Au 20.9794 35.1422 16.7977
Pt 31.4449 27.7038 14.3857
Pt 34.6061 16.2889 31.698
Pt 38.2407 21.2439 24.5177
Pt 33.8708 35.6246 25.2631
Au 35.2295 28.129 37.8295
Au 25.0597 41.6303 19.3196
Pt 25.3224 30.9164 22.8259
Pt 20.0701 27.5893 27.3366
Au 19.9183 34.4612 12.6838
Pt 21.4246 10.9458 25.2267
Au 27.277 37.1347 21.8905
Pt 30.6651 17.0924 36.4607
Au 42.4129 28.2661 28.3561
Pt 37.8228 26.3783 12.1008
Au 31.1964 19.1404 9.4118
Au 16.072 25.9968 20.6135
Au 6.49472 27.8667 26.6527
Au 23.1354 7.32408 20.4033
Au 21.917 17.609 10.0115
Pt 25.1019 34.1644 26.1282
Pt 25.6348 14.9745 15.8966
Pt 24.8681 22.0739 12.5647
Au 16.7521 36.4624 35.3461
Pt 28.1351 19.9151 22.4145
Au 19.252 30.9751 10.1147
Pt 25.6144 35.606 28.2717
Au 9.25061 21.083 14.8944
Pt 19.4766 13.1042 28.5552
Pt 13.3773 14.5259 23.5862
Au 29.5317 14.913 40.3552
Au 31.2951 9.1019 36.395
Pt 29.9944 15.5036 32.3193
Au 11.4807 33.4564 16.6783
Au 24.96 32.1122 14.3571
Au 13.661 27.1549 19.5981
Pt 38.6224 21.2042 19.9848
Au 12.7159 41.1287 31.6486
Au 15.1009 33.9679 35.493
Au 9.0304 27.1684 21.9772
Au 11.7219 14.9885 31.0134
Au 15.3685 33.3657 14.6093
Au 11.7046 30.5587 10.6805
Au 40.1785 34.205 21.7218
Pt 20.7081 31.5189 27.0855
Pt 31.9441 23.3571 12.7561
Pt 18.6441 25.7629 21.6858
Au 41.2844 23.0319 33.9949
Pt 26.3144 23.1864 28.4815
Pt 22.4934 11.5244 32.8106
Pt 25.8338 35.275 23.5088
Pt 28.2495 29.0586 38.774
Pt 22.6545 24.8233 41.5983
Pt 37.2556 30.0494 26.8291
Pt 29.3762 14.7305 21.8006
Au 24.8046 29.0499 43.3307
Au 16.0387 31.0944 12.7518
Au 35.3253 14.6583 14.7933
Au 8.50709 27.9005 28.4046
Au 17.3178 38.3094 13.8233
Pt 17.5581 27.3083 36.8628
Pt 33.3368 15.1931 19.8631
Pt 25.0671 26.809 36.5726
Pt 37.372 19.8971 36.6421
Au 11.9715 20.8072 16.3226
Au 18.3983 38.3975 37.0043
Pt 28.2892 27.377 28.7174
Au 42.8523 27.8143 17.7783
Pt 30.2143 21.3664 13.5375
Au 17.8816 9.56328 31.0826
Pt 18.1221 29.2703 35.0095
Pt 20.0727 30.7795 22.5983
Pt 26.7313 23.1842 25.7628
Pt 19.8956 19.6162 29.7163
Pt 24.5254 36.9239 32.0396
Pt 31.7295 31.4953 26.1489
Pt 34.5341 23.5517 36.9856
Au 35.7271 34.0701 15.809
Au 24.668 14.8643 39.3619
Au 27.7622 10.8713 33.87
Pt 31.0926 30.3327 29.8719
Pt 34.1033 11.2754 29.3987
Au 21.857 15.2304 8.72299
Pt 26.5172 20.2442 10.8111
Au 32.3592 7.89951 26.8492
Au 14.008 10.8983 17.4595
Pt 35.0572 15.6128 29.0672
Au 14.1381 43.5783 26.852
Pt 34.5132 18.3522 24.1164
Au 18.6236 26.7665 13.6768
Au 12.4984 27.8665 9.72195
Pt 27.2104 31.1603 15.383
Au 34.6011 32.445 17.6955
Au 11.2189 17.7206 20.9547
Au 9.43807 24.3965 21.681
Pt 17.2867 23.3699 28.5002
Au 22.1918 15.9857 40.389
Pt 25.8881 29.0436 14.2018
Au 30.9879 36.133 28.2789
Pt 29.3785 16.2932 25.4074
Pt 32.5938 30.0629 31.9558
Au 40.5011 16.512 20.5405
Au 15.9614 26.8798 15.0846
Pt 28.5719 24.3678 9.40235
Au 21.2025 40.739 15.3663
Pt 21.7804 8.54783 18.1725
Pt 40.6563 18.8474 27.6245
Au 35.7856 21.4713 10.5444
Au 34.0616 8.39878 28.9338
Pt 40.4897 20.7912 23.3532
Pt 22.8415 25.8026 15.402
Pt 33.8741 20.4665 28.7106
Pt 15.7249 26.2926 24.7226
Au 9.67503 20.5033 33.8472
Pt 20.795 22.2642 34.4159
Pt 23.9984 24.4949 37.8284
Pt 19.9467 15.8791 28.6332
Pt 23.8498 37.2307 14.6369
Au 17.0001 41.2133 24.923
Pt 24.4867 16.9448 27.7077
Au 22.348 13.4924 39.0037
Pt 21.0274 35.3542 29.2809
Au 6.86772 25.281 17.3468
Pt 31.6055 32.5751 31.2641
Au 26.5009 12.3645 9.32858
Au 41.7239 17.6319 23.0089
Pt 30.2995 16.3234 15.6613
Pt 22.9394 18.8184 37.8792
Pt 27.7476 19.4549 19.7503
Au 40.3361 26.5938 28.1651
Pt 17.0791 11.4667 22.4376
Pt 38.1117 19.7158 26.7259
Au 14.069 39.7477 18.1687
Pt 11.3337 19.2909 32.2957
Au 28.9415 11.7132 10.4407
Pt 28.8188 26.4519 39.2359
Pt 35.7724 20.5605 23.6569
Au 14.8559 9.83814 23.9719
Au 11.7476 16.4852 33.323
Pt 31.1358 24.1711 35.3135
Pt 13.0143 23.9918 33.8355
Au 16.873 10.0027 28.4641
Pt 33.5588 22.4341 14.9018
Pt 22.4692 31.3294 29.1938
Au 37.2343 35.1859 30.7635
Pt 17.9415 15.9141 22.4441
Au 34.5409 37.7057 26.9543
Pt 29.8825 21.0918 30.6513
Pt 28.8393 28.8768 25.0734
Au 22.4507 16.038 37.7351
Pt 22.2067 16.8622 32.8972
Au 42.2401 24.124 31.5584
Au 12.9483 17.1171 13.2097
Pt 10.8826 33.4681 30.4971
Pt 13.7596 19.039 28.9518
Pt 36.8818 26.1793 19.8181
Au 21.0791 29.2846 8.97474
Pt 37.527 30.3061 21.8487
Au 16.0645 17.5825 17.5427
Au 43.1956 19.3921 30.0826
Au 36.1693 32.9164 13.2208
Au 22.6211 34.292 40.3949
Au 38.6691 29.6293 34.4331
Au 30.6916 9.79094 14.2789
Pt 23.8081 20.9763 22.3394
Pt 30.72 34.8394 32.6206
Pt 22.0288 14.2178 32.159
Au 30.6319 23.2394 43.5638
Pt 23.2407 9.96185 19.8623
Au 17.3212 18.1945 9.51592
Au 10.8334 13.5275 19.6401
Pt 19.9641 17.9547 34.1289
Au 16.0484 29.7844 37.3361
Au 18.1036 34.4785 15.9847
Au 18.0969 8.41025 15.8775
Au 22.9415 34.7582 11.3206
Au 19.418 36.5054 14.4036
Pt 25.1327 31.6727 37.0532
Pt 37.7082 25.7963 28.9341
Au 13.4215 30.1995 21.0009
Pt 25.2577 28.7815 11.2823
Au 30.0909 31.1655 11.3291
Au 33.2477 10.7807 13.6452
Pt 27.2928 40.0077 25.6847
Pt 12.6312 11.6235 19.7531
Pt 19.0135 22.229 30.6407
Au 12.0084 29.2877 15.8323
Pt 33.84 19.0871 34.9571
Pt 22.7512 17.6296 25.7292
Pt 25.4852 21.7987 35.9936
Au 24.0114 11.2469 23.9085
Pt 23.5537 20.5662 39.6942
Au 41.5046 30.7861 27.6607
Au 12.1306 37.9598 13.8107
Au 27.2233 7.91481 23.05
Au 34.6607 36.2488 17.4006
Pt 25.9008 20.4876 40.7289
Au 13.2771 13.2196 29.4276
Pt 25.061 35.2417 38.5145
Au 24.2302 6.44907 25.9881
Pt 28.1417 34.7388 32.2477
Au 12.513 38.7764 30.1094
Au 16.4718 23.6708 41.1758
Pt 27.1887 23.5764 23.1413
Pt 16.9503 27.6287 22.7267
Pt 30.0952 28.4389 12.047
Au 11.0204 41.0962 24.6377
Pt 35.4954 24.5396 18.1977
Au 15.0616 11.2685 29.9992
Au 21.629 37.073 34.7472
Au 20.5907 25.5014 5.04087
Au 18.89 36.5358 31.7631
Au 15.8657 39.5262 15.8242
Pt 32.227 20.1975 14.8483
Pt 33.4453 22.7842 19.2145
Pt 30.1511 14.6264 27.799
Au 23.2656 38.884 36.2228
Au 14.7698 18.9616 10.2555
Au 32.3021 37.6397 16.8407
Pt 40.0871 23.0216 18.5339
Au 18.9768 37.3331 22.3766
Au 18.7585 10.6862 33.4481
Pt 30.3645 31.3557 35.7686
Au 31.9032 37.7574 26.24
Au 34.0793 17.1012 39.4953
Pt 35.2253 21.2137 35.7583
Au 17.5933 32.5336 28.0581
Au 36.8601 24.0343 38.8862
Pt 30.1008 20.0704 18.5922
Au 37.7926 33.7157 28.5244
Pt 26.0423 24.2874 36.1925
Pt 38.5645 30.4904 19.2283
Au 19.05 9.81917 13.8716
Au 27.0423 6.61479 25.4824
Pt 28.8853 11.6183 25.3212
Au 18.5553 41.6204 20.0561
Pt 32.9408 31.0876 36.173
Pt 20.5191 32.9341 15.1126
Pt 36.7666 27.423 27.0305
Pt 23.3507 10.329 17.0588
Pt 23.3405 12.1328 21.3516
Pt 27.6048 21.4192 12.8928
Au 23.3401 15.441 11.1985
Au 13.3277 21.5041 12.145
Au 14.9206 22.8745 24.492
Au 11.6325 15.9812 36.1776
Au 21.4419 42.0628 27.3007
Pt 29.2693 24.1684 24.9965
Pt 31.3735 29.7531 16.1259
Au 18.7336 39.4958 15.8822
Pt 36.1534 16.5263 25.7181
Au 18.8672 13.1664 12.3603
Pt 28.0914 20.9959 39.3694
Pt 37.3356 25.0015 31.8564
Au 21.7859 6.59965 27.3278
Au 16.3467 29.3785 7.37177
Au 18.7944 36.9303 17.0694
Pt 28.0433 17.365 32.1916
Pt 20.7072 9.34707 20.4088
Au 16.9565 33.625 40.1445
Pt 25.9681 22.8214 19.0649
Au 20.0009 41.2038 25.0048
Pt 28.9321 35.341 34.7532
Au 21.2753 29.0741 20.6715
Pt 24.1323 18.5191 23.429
Pt 27.0734 30.6747 20.9202
Au 18.4535 8.09793 21.1766
Au 35.9779 26.2907 24.5967
Pt 34.0195 11.6728 22.3613
Pt 33.2893 21.2059 37.8033