2057
Atoms. Timestep: 20777
Au 15.1812 39.1098 22.9486
Au 30.8456 9.60933 14.2888
Au 19.429 33.0061 20.1662
Au 9.18394 19.3782 32.5603
Au 18.2592 41.0768 19.8283
Pt 8.23627 30.4409 29.7594
Au 28.5435 23.1359 7.43167
Au 6.23369 24.5102 22.9908
Au 32.3989 28.5164 12.6628
Au 35.1154 18.837 38.501
Au 39.8186 18.171 14.1746
Au 36.7267 27.7497 14.8534
Au 18.8791 22.393 7.40558
Au 24.0213 33.5234 42.5185
Au 10.8287 37.0142 23.1634
Au 20.0958 42.257 33.2663
Pt 27.8843 23.7025 27.1041
Au 31.0793 35.482 16.1929
Au 33.4994 10.8969 14.2777
Pt 31.2643 28.0811 21.943
Pt 28.0216 18.8499 15.2751
Au 27.872 31.4296 14.0643
Au 10.2597 25.3537 14.1232
Au 19.8474 41.6475 22.084
Au 12.4281 12.3539 27.4095
Au 13.3399 27.3786 15.1248
Au 7.06828 31.3235 20.402
Au 7.38319 23.983 27.5936
Au 30.5134 29.7194 17.9267
Au 25.155 8.65112 16.0138
Pt 34.8315 30.5285 32.3913
Au 19.3592 39.6104 14.65
Au 21.8089 32.409 41.4302
Au 23.1993 18.3838 7.9395
Au 29.8216 19.8298 10.3127
Au 13.4902 22.0152 13.6788
Au 24.1564 23.1051 16.1775
Au 39.1627 29.9945 31.2909
Au 18.1157 21.5605 11.971
Au 32.8691 23.5268 4.76234
Pt 24.4857 20.4914 26.2546
Au 14.9965 24.351 40.7061
Au 25.4726 35.5636 41.3958
Pt 25.674 36.2197 20.5284
Au 35.3311 39.2451 26.9515
Au 10.996 18.0394 14.432
Au 38.8699 25.8804 14.4493
Au 15.5534 17.6135 13.8974
Pt 20.7636 36.8331 37.0682
Au 12.9578 15.1715 17.3558
Pt 15.7077 17.6492 21.051
Au 41.5976 29.6149 32.4386
Pt 35.5814 18.7253 25.3519
Pt 26.4771 14.0444 33.6316
Au 21.3162 7.06396 21.7786
Pt 18.6941 21.3299 19.8927
Au 26.8104 41.8844 28.3195
Au 18.6566 27.5488 16.4256
Au 9.73887 34.4893 23.6803
Pt 32.0054 34.0816 24.4949
Au 24.2586 31.9247 17.3821
Au 18.8963 41.9282 25.2166
Au 5.95958 21.8161 23.3782
Au 21.1717 27.9862 18.9143
Pt 15.1114 34.461 29.1207
Pt 14.0163 30.9485 27.2511
Pt 22.7932 13.6247 24.3225
Au 26.1806 13.8946 39.3656
Au 22.4049 20.0448 9.94486
Au 14.7054 34.1278 12.1781
Au 16.1789 11.2855 18.9273
Au 41.5105 19.9595 18.3463
Au 22.6052 29.7876 17.5521
Au 16.9993 30.8376 9.79332
Au 8.93465 14.7293 20.8385
Au 36.7239 34.5136 29.7614
Au 39.4846 29.9504 34.1094
Au 22.2899 7.01271 19.1932
Au 30.6089 26.3856 12.8754
Au 42.159 19.7469 31.8448
Au 30.9189 33.1002 7.36825
Pt 21.4335 32.4369 28.76
Pt 36.7572 20.9992 26.5893
Au 20.139 25.7063 14.4113
Au 7.78849 24.2788 20.7439
Au 34.9696 19.6316 7.54138
Au 8.75347 29.7146 15.4081
Au 19.6771 33.6197 30.6282
Au 27.2425 38.2054 11.6071
Au 36.3131 18.9286 9.81736
Pt 24.0175 39.3214 34.5151
Au 30.8167 24.8939 8.24679
Au 8.76713 26.991 15.9322
Au 37.3844 30.932 15.5445
Au 40.9862 24.9747 32.8935
Pt 22.218 33.5606 26.4216
Pt 22.4193 20.4389 22.3007
Au 6.02483 26.9795 31.7046
Au 22.128 32.115 19.2664
Au 34.5754 35.1411 14.3768
Au 30.939 34.0419 11.4373
Au 20.2218 21.8705 10.0045
Au 21.9799 24.8351 16.7958
Pt 37.0035 26.704 31.0993
Au 36.5736 11.7979 24.0382
Au 29.6995 38.2399 12.6057
Pt 36.2442 16.869 28.5886
Au 10.1362 23.6107 26.4842
Au 24.2235 28.674 15.4377
Au 28.7902 14.4232 38.5713
Au 32.9968 20.588 5.84327
Au 17.2436 18.9255 12.1656
Au 11.7341 18.2814 21.7018
Pt 15.5522 30.7824 25.2022
Au 10.6703 14.864 18.7703
Au 28.7144 17.9601 8.51478
Pt 25.9932 14.1763 11.2107
Au 36.2586 24.2568 38.2347
Au 14.2757 19.7834 12.0234
Pt 20.1527 13.0365 17.6929
Au 7.93627 23.0586 24.9218
Au 12.7316 24.337 15.15
Au 12.5242 27.7537 24.1677
Au 8.59198 17.2705 21.6717
Au 31.2303 22.4874 6.72225
Au 14.3947 11.1235 34.7092
Au 24.2515 26.5234 5.84349
Au 38.1275 22.1209 31.6799
Au 21.7796 14.0933 11.2637
Au 26.1643 35.1438 18.0248
Pt 33.2258 26.171 22.2061
Au 20.6076 34.586 18.0259
Au 31.448 35.1976 9.01817
Au 17.2782 32.3886 15.2941
Pt 29.2759 30.9173 39.7861
Pt 33.642 17.1637 21.5335
Pt 38.2891 25.9065 33.4853
Pt 32.4608 32.6676 33.8768
Au 11.2788 35.4224 16.0945
Au 32.8891 24.3375 10.107
Au 23.2205 23.0435 41.5785
Au 17.6458 42.2902 32.1721
Au 21.4758 22.853 14.8579
Au 4.65163 26.6794 22.1088
Au 33.1361 38.8163 28.7108
Au 20.5355 39.9686 17.0976
Au 33.5264 35.0353 10.9022
Pt 33.4423 15.9614 15.9194
Au 22.3817 14.2893 39.4032
Pt 26.9624 25.1681 29.6896
Pt 26.1783 21.2153 15.2948
Pt 22.4718 39.826 27.2756
Au 15.0263 27.2001 12.7016
Pt 35.8637 17.4842 19.7557
Au 21.4505 27.5541 16.1308
Pt 15.862 17.5437 37.2217
Pt 41.5284 24.3651 28.2594
Au 26.4044 6.77437 20.5714
Au 17.4387 29.0351 12.3091
Pt 35.8 27.7698 29.0032
Pt 27.3414 20.7828 31.7618
Au 29.2963 41.3847 29.6777
Au 28.4003 39.2331 17.0091
Pt 33.4096 17.2463 11.4392
Pt 22.8021 12.9484 30.8023
Pt 32.2198 36.6926 24.462
Pt 25.0945 18.8387 15.8946
Au 9.25045 20.0426 14.4626
Au 24.8279 33.4319 20.0515
Pt 33.9851 25.7672 37.7335
Au 37.7984 15.9948 13.1619
Au 31.6835 26.8573 10.3778
Au 22.2951 38.9003 19.8549
Pt 22.1477 25.5946 19.5662
Au 26.9993 24.269 11.7292
Au 29.3289 15.0607 8.78109
Au 16.2823 34.7036 14.2932
Pt 21.1944 15.7676 24.1775
Au 39.2029 15.7732 15.4654
Au 13.7924 21.7229 28.4216
Au 31.2034 8.51865 33.0875
Au 24.13 35.5785 9.08954
Au 6.22956 20.5076 28.7046
Au 24.7364 37.0488 11.302
Au 29.5373 8.31826 30.6262
Pt 27.2724 12.0034 28.7679
Pt 33.9659 34.1648 29.538
Pt 28.7811 26.9774 33.8285
Pt 41.2153 23.0169 23.8516
Pt 33.5001 17.953 32.0159
Au 16.1265 24.7733 10.5372
Au 15.2051 19.8129 39.0973
Pt 15.0243 16.4168 30.3202
Au 36.0291 16.5134 11.0854
Pt 31.265 16.0314 33.4088
Pt 30.7216 26.1108 23.8365
Pt 28.9376 31.0489 36.8617
Au 17.1552 12.9216 38.5
Pt 20.9155 26.8272 32.2992
Pt 20.6542 31.0924 26.6552
Pt 26.1964 27.0876 33.7463
Pt 27.9293 21.9461 35.2282
Pt 26.0722 25.379 37.998
Pt 26.6704 34.7261 36.012
Au 13.4993 35.8314 17.7494
Pt 25.5982 9.89396 29.484
Pt 27.4994 20.1381 17.5695
Pt 31.3495 22.3585 15.157
Pt 24.2377 12.1415 28.7543
Au 18.9383 9.17239 15.6338
Au 19.9752 29.9922 16.3797
Au 24.2966 24.2668 11.0652
Au 18.0382 15.1998 39.7092
Au 35.3549 21.3936 10.4742
Au 11.5879 33.1934 14.2907
Au 18.1016 11.4449 14.0601
Au 29.5933 34.9704 22.847
Au 18.8427 37.549 16.718
Pt 28.1716 16.8677 24.3505
Au 26.4202 27.2515 16.2575
Au 18.037 26.2165 11.7285
Au 29.5347 37.2152 9.31809
Au 23.3303 35.2393 18.5813
Au 25.0882 26.4575 12.7495
Au 32.6643 18.117 7.06507
Pt 22.1926 29.7199 20.8513
Au 34.5943 28.8156 7.04681
Au 18.5757 39.8547 33.0978
Au 12.0251 31.2831 18.5127
Au 33.3425 21.8195 8.37896
Au 19.456 32.6537 39.8484
Au 27.4666 16.0157 6.98679
Pt 25.5718 18.3108 39.1546
Au 8.9995 36.9685 25.2104
Au 21.1752 35.5634 13.0852
Au 8.40206 21.404 27.2908
Pt 27.615 36.9342 29.6971
Au 36.3754 25.7868 12.8596
Au 11.9982 12.9219 30.1462
Pt 25.0956 39.9893 27.5625
Au 35.6157 26.1973 7.53015
Au 19.5433 20.6208 40.3762
Pt 25.1895 11.2755 17.3222
Au 30.4228 38.02 22.5836
Au 34.3604 28.3729 9.92245
Au 39.3477 35.9379 21.043
Au 33.5559 21.3563 16.4579
Au 15.1485 39.2576 16.6457
Au 21.9538 42.5826 28.9688
Au 36.9852 29.9427 35.3827
Au 22.0068 17.69 11.2673
Au 17.7876 17.6112 9.79672
Au 37.2605 11.2871 17.4435
Au 38.3253 26.5586 17.0249
Au 7.11177 27.1059 22.9602
Pt 24.0266 11.0787 15.0244
Au 8.92104 21.5899 16.6429
Au 7.57863 17.9413 19.2455
Pt 25.5114 12.2473 35.5718
Au 10.4296 29.6415 19.9199
Au 28.7117 29.8987 8.69996
Au 37.6004 22.421 36.5859
Pt 32.4503 12.0406 16.7488
Au 35.4194 15.8647 30.9005
Pt 13.7819 19.6586 20.5209
Au 25.6697 40.9452 35.7394
Pt 17.631 18.1558 26.3045
Au 40.8887 22.9819 30.7856
Au 19.759 28.4561 13.7914
Au 22.0671 40.0274 14.8962
Au 12.5451 30.2429 10.226
Au 29.5241 28.9507 13.3055
Au 28.3067 8.42383 14.4545
Au 14.1342 41.4344 23.5106
Au 32.4986 32.2943 42.1731
Pt 31.3832 25.2857 15.2537
Au 14.8848 29.8362 11.4922
Au 28.9727 21.1503 5.62386
Pt 31.6732 24.4478 37.1008
Pt 35.0846 16.1322 26.2768
Pt 37.404 17.1264 24.4172
Au 11.1073 34.295 18.5415
Pt 26.8818 18.7465 22.7242
Au 20.7194 26.2455 8.81532
Au 34.5169 12.7904 34.5146
Pt 39.2533 24.8015 23.6435
Au 13.629 19.2862 36.7699
Pt 30.7842 8.33648 23.4109
Pt 27.973 19.3004 36.0953
Au 32.8821 38.3903 36.1705
Au 25.174 20.4331 8.84196
Pt 27.9918 25.5158 17.7308
Pt 29.1119 26.9461 30.9157
Au 21.0045 41.1926 19.5791
Au 37.251 27.6618 11.0171
Au 8.66989 27.6969 18.5
Au 27.8955 20.5103 8.10078
Pt 37.9212 27.1229 24.1506
Pt 39.5262 27.4747 31.864
Pt 26.5395 20.115 20.0987
Pt 25.1845 15.2105 30.9695
Pt 36.8341 27.4638 26.6277
Pt 30.2932 22.1932 35.9772
Pt 23.911 27.8713 20.0197
Pt 18.104 10.9271 32.044
Pt 17.6394 16.683 30.8559
Au 13.7963 26.5944 39.4874
Pt 20.5404 23.1561 40.2746
Au 11.479 29.6433 22.5097
Pt 13.5488 15.8467 33.2382
Pt 31.6992 31.6102 19.9701
Au 35.1331 28.6046 12.7231
Au 37.9208 11.1942 26.5236
Pt 23.3774 35.8304 24.7931
Pt 28.3698 16.8317 37.1425
Pt 21.9664 29.2974 31.9757
Au 39.9869 28.6579 17.7434
Au 19.9064 30.4672 19.1158
Pt 15.8737 35.9942 26.7613
Pt 20.3769 19.7714 26.8649
Au 26.8596 36.654 9.33635
Au 26.1796 25.0628 7.00537
Au 13.296 23.394 21.6501
Pt 11.3718 23.2657 35.4703
Pt 21.0032 9.40433 23.1721
Au 30.9019 31.4723 12.5744
Au 34.3736 30.0717 42.4284
Pt 30.3855 21.7351 23.4775
Pt 22.8607 24.819 31.5625
Pt 39.0642 21.1187 18.0026
Au 28.1819 35.344 41.4272
Au 34.3674 17.036 8.8924
Au 14.6422 15.3016 12.7347
Au 40.8634 27.4457 34.1486
Pt 25.6936 15.4239 24.8965
Au 21.6122 37.4436 17.6563
Pt 24.169 38.251 25.7194
Au 27.4524 10.0786 16.3472
Au 24.7795 11.6538 38.1799
Au 13.1423 28.8785 38.0293
Pt 9.66646 33.0144 25.9464
Pt 35.2999 15.2045 17.8486
Au 30.811 28.3056 40.1204
Pt 30.9579 17.4141 12.5868
Pt 33.0345 36.5916 33.8206
Pt 31.3539 16.4635 17.6949
Au 13.4001 28.94 17.6628
Au 39.5075 29.0001 20.4324
Au 21.7145 25.8403 6.28048
Au 25.8048 39.4237 16.273
Pt 30.8993 37.1842 31.8659
Au 33.4657 21.2847 13.6921
Au 24.3706 32.5553 9.55921
Pt 37.1701 28.5757 33.019
Au 16.7722 32.8181 19.1944
Au 7.50654 29.7483 23.4505
Au 26.6706 33.3915 42.784
Au 6.44247 32.4225 29.8462
Au 6.35948 29.0743 18.8484
Pt 21.5432 38.7287 35.0964
Au 19.3795 38.6667 19.2365
Au 13.3099 26.1292 26.5762
Au 12.1967 26.3181 21.5929
Au 29.0489 38.7591 33.8319
Pt 22.3299 33.1813 38.9324
Au 30.0346 24.4249 11.031
Pt 35.4745 13.4546 22.1587
Pt 22.2192 19.4631 25.0314
Au 8.12133 36.3094 22.7143
Pt 23.957 13.7375 16.0674
Au 11.0864 21.5373 28.1415
Au 28.2029 18.669 41.5813
Au 37.9794 32.2172 30.3707
Pt 23.8339 24.8779 23.515
Pt 19.9053 12.7677 30.8657
Au 36.1828 38.4899 32.233
Au 25.9403 30.1395 8.527
Au 16.3252 17.2627 39.881
Pt 28.5452 31.2058 32.0815
Pt 34.8561 37.6319 24.6152
Au 18.083 39.9713 23.3378
Au 23.1744 40.515 36.8816
Au 14.6968 29.5965 8.77237
Au 31.2365 7.41094 20.9524
Au 18.256 34.7489 32.6981
Pt 22.8894 21.9731 31.3104
Pt 37.1013 27.2197 19.712
Au 9.06403 21.2517 30.4958
Pt 28.0725 23.1239 24.391
Au 18.482 19.9486 8.58146
Au 19.4337 35.4481 10.8463
Pt 16.8326 32.9214 24.2196
Au 26.666 36.0605 13.2093
Au 19.7284 13.658 38.141
Pt 15.5907 13.3942 20.8685
Pt 26.6974 27.8577 29.3749
Au 21.6034 31.4782 9.73428
Au 9.05406 24.9634 23.2216
Pt 15.8381 12.8272 27.3061
Pt 32.7056 24.1561 20.1511
Au 41.3834 27.2336 15.0643
Pt 15.6805 22.2512 25.7937
Pt 23.0295 29.114 26.1293
Pt 28.8664 19.3456 12.802
Au 20.1501 12.1485 12.2738
Au 19.8489 9.60267 13.1495
Au 14.6022 37.9004 20.3645
Au 16.941 36.014 11.9416
Pt 21.9782 15.1266 36.8192
Pt 33.6132 33.1703 18.6781
Pt 36.9079 29.5488 24.9699
Au 28.7563 25.738 6.40516
Au 16.7152 37.7739 18.4854
Pt 20.3962 18.8372 36.7114
Au 38.8839 25.4689 11.5785
Pt 8.8333 32.6881 28.5152
Au 10.7224 29.0201 17.0483
Pt 14.9451 28.1822 25.3352
Pt 25.1135 10.862 22.1198
Pt 26.0562 36.0162 33.5475
Pt 32.6287 34.7465 31.8401
Au 42.2377 27.1263 17.7859
Pt 20.2878 19.7049 18.3133
Pt 40.9501 20.8526 25.477
Au 26.7807 24.454 15.1195
Au 28.8155 34.5337 8.92778
Pt 33.7149 19.5907 23.3791
Au 34.676 24.7047 40.5156
Au 43.9032 25.3391 26.6104
Pt 36.67 16.1309 22.0081
Au 30.4206 37.6882 18.0226
Pt 22.4931 15.1732 26.5477
Pt 39.1748 20.4378 27.4131
Pt 37.2955 28.5281 22.1456
Au 40.2496 32.3693 23.6511
Pt 26.4974 16.7418 12.1731
Au 11.1181 33.7167 21.3538
Pt 28.8355 25.7616 25.7022
Au 19.6545 27.9262 7.01153
Pt 29.2792 17.4569 34.4065
Pt 27.2449 32.0867 35.1111
Au 19.0471 28.4221 10.052
Pt 29.2379 24.2323 34.4469
Pt 12.7244 18.0474 34.5111
Pt 28.5159 21.528 37.894
Pt 26.0782 23.7609 22.5242
Pt 35.4119 23.9304 20.4155
Pt 16.0775 15.9669 32.8271
Pt 23.6886 31.8968 22.2171
Au 31.321 17.6227 9.48493
Au 38.8372 15.8935 29.1339
Au 28.6241 41.1541 26.2789
Au 21.2999 23.4805 7.64183
Au 20.8398 33.1907 11.7801
Pt 28.5126 30.3906 25.4672
Pt 17.889 27.2518 33.672
Au 22.0734 30.1679 14.4707
Pt 24.7206 14.7451 13.6783
Au 22.5338 41.5599 34.465
Au 12.3308 26.3646 12.6745
Au 9.76651 26.1142 27.9865
Pt 19.1698 29.2095 32.3353
Au 7.77526 32.3805 24.1268
Pt 18.404 31.8167 22.485
Au 20.5251 18.043 8.7226
Pt 18.5509 36.6315 26.6666
Pt 18.5204 26.4552 31.0957
Pt 32.7937 15.5256 13.3661
Au 14.6168 23 9.03362
Au 41.3819 22.5237 17.2635
Au 35.8934 12.5938 19.5745
Au 9.44018 26.6158 20.9529
Pt 38.2119 19.6421 24.7042
Au 14.7636 13.7685 31.4066
Pt 31.1318 18.6706 32.7753
Au 24.688 6.29197 24.9291
Pt 26.2024 31.1157 32.9824
Au 21.7945 9.587 15.6378
Pt 27.7929 11.8292 22.3078
Pt 29.9108 8.86098 26.1426
Au 4.91672 27.7772 29.2918
Au 39.0262 34.7084 31.2005
Pt 25.2876 18.3282 36.2277
Pt 32.9544 14.7864 22.5878
Pt 18.5312 16.3103 24.641
Pt 18.0733 15.1971 34.3608
Au 34.779 23.4548 12.4653
Pt 20.3053 13.8395 35.4374
Pt 37.1237 24.6776 18.4921
Au 9.72864 27.7881 23.4147
Pt 34.7309 22.1647 28.3747
Pt 22.0649 40.0781 29.9113
Pt 23.6533 38.0689 29.1613
Au 24.8396 6.84161 18.2446
Au 6.7881 22.7689 30.1505
Au 6.9665 19.4906 22.2097
Au 11.6 22.6198 30.8598
Au 33.0936 30.8836 17.3443
Au 37.5136 37.7967 20.3238
Pt 29.095 26.0977 28.4186
Au 35.5627 10.1488 27.0995
Pt 25.2622 29.1488 18.0065
Pt 27.3332 15.0728 18.796
Au 32.7455 25.4035 42.4457
Pt 30.3431 17.5686 25.8527
Au 41.0477 25.1869 13.1779
Pt 19.8888 19.6936 34.0554
Au 26.5646 40.9097 21.4153
Pt 20.184 28.1876 30.0192
Pt 15.7083 25.1846 38.2655
Au 15.9901 10.3871 24.904
Au 27.2243 27.6603 7.9338
Au 23.4649 25.3262 8.44953
Pt 24.873 16.3715 27.3204
Pt 16.0631 20.4099 21.528
Au 13.1565 25.0258 23.797
Pt 39.9461 23.1764 26.4481
Pt 17.6033 32.7577 34.8118
Au 22.5147 24.764 13.1354
Au 20.763 39.5156 37.6867
Pt 26.1235 9.13541 18.681
Au 18.4989 22.5137 42.0455
Pt 24.149 33.7534 36.7574
Au 32.3747 25.9173 39.8575
Au 5.4907 19.2903 24.4324
Au 16.3109 22.5575 16.0052
Au 13.5731 35.1187 14.7454
Pt 25.7411 18.6657 31.0442
Pt 9.35453 30.3325 32.2054
Pt 33.7187 17.6592 29.2529
Au 33.6987 24.082 15.0624
Pt 30.5357 24.1266 27.7325
Au 24.4829 41.6632 29.8733
Pt 15.9971 20.6322 29.8364
Au 17.8841 16.4651 14.9062
Au 37.8782 17.6909 34.4353
Pt 24.4436 30.6973 19.8534
Au 21.6945 34.2786 9.2893
Pt 22.6689 18.8411 16.9171
Au 37.5731 16.5167 17.4231
Pt 26.3257 32.6969 22.9214
Pt 30.6957 25.6307 32.5768
Au 19.997 40.9249 35.5535
Au 19.6575 29.3056 21.5829
Pt 34.6482 29.6508 27.5061
Au 16.8919 33.6387 10.5557
Au 8.1455 33.7626 21.5738
Au 28.7205 35.8596 11.3406
Pt 26.0701 25.2964 24.8973
Au 27.5667 29.9147 6.14075
Pt 16.7431 26.5512 35.9967
Au 5.86314 30.2982 28.165
Pt 22.9539 18.2819 27.2919
Au 33.4319 24.3697 7.19154
Pt 20.712 21.6657 28.9553
Au 22.9284 7.11312 27.1511
Au 26.8981 39.0562 25.68
Au 14.4716 32.4907 14.4328
Au 25.4125 21.5322 11.2621
Pt 24.564 15.5691 35.3249
Pt 11.0435 33.9346 28.1878
Au 14.0528 12.3635 25.2331
Pt 33.1083 32.1266 31.1058
Pt 32.2645 13.6185 26.8374
Au 20.5593 20.7487 13.0634
Pt 30.8123 37.2302 35.1125
Pt 25.9637 18.1076 25.4823
Pt 34.5461 15.0708 20.3309
Au 9.77253 19.4363 23.169
Pt 20.4873 17.4136 15.9023
Au 27.6229 34.2617 20.3938
Au 35.3029 32.8691 15.9117
Au 25.2729 38.5599 13.6118
Pt 15.3278 29.0493 35.9623
Pt 14.2146 33.2987 31.3642
Pt 29.8307 21.4721 17.6854
Pt 22.8987 27.4354 30.4161
Au 28.1179 24.6671 41.5564
Au 40.8958 31.4385 21.0006
Pt 24.0605 29.2157 39.5105
Pt 35.5769 17.0851 33.2773
Au 28.6605 39.1671 31.1485
Pt 40.4107 20.293 22.9845
Pt 20.4859 11.9316 15.223
Pt 18.5245 31.8494 32.5339
Pt 22.0459 17.8734 22.7302
Au 33.3666 33.0643 12.6701
Au 25.3023 24.8079 17.8933
Pt 38.9943 31.3611 25.9168
Au 21.8478 8.08066 31.6144
Pt 27.6418 12.5141 17.6422
Pt 23.4937 17.0617 24.9609
Au 23.5231 20.346 42.7284
Pt 39.5645 30.6446 28.5519
Pt 33.9248 35.2074 17.0261
Pt 30.6957 12.9424 21.875
Au 28.3446 33.2301 12.0751
Pt 31.9115 27.8143 31.1443
Au 26.099 22.0133 6.58478
Au 5.36388 23.8995 25.5346
Pt 28.6478 10.2587 18.8261
Pt 20.7191 21.3492 37.8847
Au 12.5589 29.0981 12.7413
Pt 15.3105 31.7998 35.3877
Au 30.7395 22.2673 9.40642
Pt 18.2491 13.6818 21.1571
Au 38.264 25.5906 28.7065
Au 37.5228 33.4695 14.3236
Pt 28.8112 32.4322 29.748
Pt 19.7516 18.6787 24.2333
Pt 16.2953 32.2683 28.2702
Au 33.2727 30.6217 14.1864
Au 30.5103 30.4242 42.1763
Au 35.0302 34.0056 38.5284
Pt 24.2198 25.6312 28.9947
Au 12.8819 31.6742 21.333
Au 30.5191 19.8951 40.4829
Au 26.1751 9.9245 13.561
Pt 28.6034 14.4963 11.3202
Pt 20.5802 20.2849 15.7901
Au 35.9716 26.9044 39.2549
Au 8.82125 30.6479 34.7952
Pt 26.1599 32.7917 28.6714
Au 37.46 11.2348 21.3061
Au 23.3217 22.4644 9.0899
Au 38.9802 33.5003 19.811
Pt 34.2725 31.0634 20.2886
Au 11.1301 37.0542 18.3381
Au 23.2138 27.1193 10.753
Au 40.3416 18.0313 25.0511
Pt 37.3522 23.4793 26.7889
Au 13.0212 30.8294 36.1591
Pt 27.1098 8.55072 25.8518
Pt 21.2944 36.3694 22.9145
Au 13.0891 37.62 15.8175
Au 28.0695 39.4109 28.253
Pt 37.1843 30.0636 27.7697
Pt 32.3759 15.9115 30.7628
Pt 27.8816 14.32 23.4831
Pt 21.5082 13.1876 32.9879
Pt 24.9366 34.4129 26.7869
Au 10.8595 16.9978 32.4204
Pt 23.6304 31.2393 32.8925
Pt 27.0726 19.1332 10.6096
Pt 26.02 20.5029 37.8501
Pt 10.0949 28.9873 28.6969
Au 21.1413 19.0125 41.9896
Pt 34.6507 25.682 30.1438
Au 12.2375 19.578 39.2072
Pt 16.0915 21.6448 32.2316
Pt 35.5577 21.2983 31.3879
Pt 23.9587 20.7233 20.0939
Pt 14.3936 28.2849 28.1004
Au 14.4319 24.5207 12.909
Pt 21.889 37.6042 31.0901
Pt 18.6927 36.6233 21.8175
Pt 13.2247 18.0478 31.666
Au 24.2985 27.9258 8.2119
Pt 25.6108 22.7536 25.3442
Pt 35.7377 33.8236 22.9257
Pt 23.1595 37.2773 33.2602
Au 37.3259 34.0507 33.3646
Pt 17.9864 31.2488 26.068
Pt 22.4053 13.2874 13.8619
Au 9.36158 31.3485 22.0121
Pt 33.1284 18.0975 26.6269
Au 26.1504 34.5433 10.7934
Pt 23.7589 13.5188 21.1041
Pt 15.7349 18.6563 31.8547
Pt 25.3249 13.2059 23.4759
Pt 22.0114 24.9778 34.1117
Pt 26.8748 16.7968 29.5345
Pt 28.9946 22.6599 32.4723
Au 30.2224 27.6815 7.92019
Au 12.3225 21.8521 37.7228
Au 28.8244 7.63703 19.3654
Pt 21.4281 35.9951 34.7482
Au 18.2023 24.5892 15.9383
Pt 29.1774 12.3901 24.5492
Pt 32.7775 25.4679 17.4847
Pt 12.0842 28.6212 26.7574
Au 21.9847 18.6251 14.0696
Au 21.3339 42.1287 26.3528
Au 37.7234 32.3138 11.7742
Au 23.215 25.3479 43.1375
Au 13.4057 9.76315 24.3339
Pt 34.2253 29.9356 24.9548
Pt 22.6915 33.4736 34.2988
Pt 22.4244 26.8703 35.881
Pt 37.5878 22.3956 20.0411
Pt 23.1762 23.3097 18.9562
Au 18.3769 27.9256 19.1395
Pt 36.1225 14.251 28.7287
Au 16.1795 27.7724 10.2003
Au 30.7869 29.4866 10.7049
Au 22.5852 38.223 12.8671
Au 10.271 31.864 16.3898
Pt 17.6463 40.9839 27.5541
Au 19.6851 17.4672 13.0627
Pt 23.8384 27.2703 41.2181
Pt 31.8839 39.0359 33.2657
Au 28.4269 12.3524 9.74547
Au 11.5427 26.7658 37.7416
Au 22.2838 35.3212 15.969
Au 27.4954 34.0992 15.5078
Au 30.094 12.4024 37.0381
Au 20.0454 30.1306 41.0724
Pt 23.7324 11.3414 33.2421
Pt 17.7143 23.9011 39.733
Au 9.47901 28.1039 26.1707
Au 22.5945 22.1733 12.0127
Au 10.1944 17.4124 19.4213
Pt 22.1265 29.1402 23.5445
Pt 29.5601 29.8734 20.6034
Au 31.1082 32.9325 17.5423
Pt 15.2105 35.1113 24.253
Au 38.1567 33.2007 17.0427
Pt 28.2839 26.3755 39.2464
Au 10.4093 25.9959 30.8955
Au 7.42489 21.7202 32.7998
Au 40.6788 25.1074 16.6359
Au 13.603 19.5161 17.7698
Au 12.303 27.9611 35.2741
Pt 24.466 19.3404 23.7634
Au 38.5607 35.5747 28.0472
Au 20.2528 34.8764 27.9536
Au 35.5068 29.7078 39.7181
Au 7.30562 23.2837 18.2146
Au 15.4219 33.848 16.9573
Au 20.4817 7.60397 17.1576
Au 33.0577 37.201 15.3418
Au 22.5682 33.2895 14.1154
Au 7.77712 25.8083 25.5413
Pt 29.4768 32.7035 24.4945
Pt 38.5508 22.2121 24.5271
Pt 17.7411 16.1332 19.8843
Au 31.2522 9.20824 18.9198
Pt 27.66 14.1773 30.9477
Au 38.711 13.3741 27.9931
Pt 12.9815 25.254 34.6586
Pt 17.3336 24.7199 34.1551
Au 20.1731 16.4267 38.3478
Pt 27.0053 17.5461 20.2171
Au 11.1265 23.0605 23.7122
Pt 19.645 30.7456 35.3105
Pt 20.5891 23.2663 31.0766
Au 16.0105 19.8523 9.9162
Au 36.2216 14.995 15.2465
Pt 15.8874 36.999 29.1612
Pt 17.6491 25.2009 20.2812
Pt 19.9541 15.2636 32.6091
Pt 37.4266 31.939 23.8956
Pt 15.9013 20.9254 18.7783
Pt 17.7939 22.8868 21.6804
Pt 20.0297 23.8127 20.0964
Au 15.1509 12.7697 36.6678
Pt 21.3756 34.2355 36.6729
Pt 11.3827 15.6021 21.4286
Au 16.9726 36.8009 33.891
Pt 14.3862 20.1726 33.8473
Au 25.6783 7.4232 27.8042
Pt 29.5122 24.1682 30.322
Au 19.1762 31.0181 11.3539
Pt 34.2189 27.0579 26.3261
Au 30.045 12.0278 11.9922
Au 28.1398 40.1257 23.5085
Au 13.3176 13.2181 15.4707
Pt 11.278 28.8212 31.1709
Pt 33.8555 36.9306 26.8735
Pt 25.5405 20.8455 35.1835
Au 30.083 39.0235 25.2169
Pt 18.8148 39.259 26.0908
Pt 31.474 32.5314 22.4923
Pt 18.2047 20.697 23.051
Pt 35.3922 31.8639 29.035
Au 39.8139 25.3507 35.6874
Pt 34.107 35.6621 19.7631
Pt 31.2857 32.284 36.6566
Pt 27.5263 16.2495 26.8705
Au 19.0446 8.92536 21.3192
Pt 24.7579 24.9568 40.3656
Au 36.6646 35.4177 16.1014
Pt 25.6433 29.2632 41.548
Pt 28.8251 24.4889 37.066
Au 30.4419 38.1266 15.264
Pt 16.9102 15.519 22.4253
Pt 30.7425 19.5573 27.6359
Pt 23.6762 33.4245 28.8802
Pt 22.7055 27.0411 22.1465
Pt 17.289 30.8473 36.8625
Au 32.9299 9.69629 27.836
Pt 34.8539 28.9007 18.7591
Pt 26.4358 11.1929 33.3037
Pt 30.8652 13.8705 31.8001
Au 37.7757 29.6442 12.9252
Au 8.93224 16.4304 27.9634
Pt 37.2539 15.0453 19.7292
Pt 29.5149 12.3645 30.0761
Au 37.8084 13.7942 17.0915
Au 18.9597 32.4523 17.4023
Au 11.3812 38.2036 25.8054
Au 40.529 20.3785 15.7251
Pt 37.878 20.7876 15.4184
Pt 21.8881 31.6325 36.5892
Au 15.3437 25.2811 15.4511
Pt 23.1746 16.8473 38.3505
Pt 33.6682 33.5358 21.3052
Pt 16.4303 29.702 27.576
Au 34.7459 32.1533 40.5974
Pt 30.0853 28.3225 25.0501
Au 37.9151 23.3804 13.6662
Pt 21.2533 22.2565 33.5075
Au 10.8392 25.849 25.2303
Pt 32.6293 27.9411 24.2548
Pt 26.7941 31.4684 20.578
Pt 20.0662 26.5664 20.9488
Au 21.6333 24.2781 10.4221
Au 36.2901 30.2342 10.706
Pt 35.9628 19.676 33.4986
Au 11.6973 23.7216 12.4225
Pt 31.1745 12.2643 14.4321
Pt 15.1786 24.3708 35.6963
Au 15.6999 31.9586 21.7779
Pt 26.7688 28.9006 20.7039
Pt 29.3512 21.335 25.9283
Pt 30.7232 19.9291 7.72805
Au 36.1134 9.74549 19.2262
Au 33.8857 14.7348 10.4173
Pt 28.9284 13.4345 15.5749
Pt 12.4946 33.1025 26.0507
Au 23.5168 37.9677 15.7064
Pt 32.345 15.8544 25.34
Pt 28.8512 15.1459 21.0529
Au 26.7992 27.3407 5.31164
Pt 28.9561 17.1232 11.0231
Au 16.7979 13.7177 13.2874
Pt 27.904 9.2342 28.4068
Au 42.5799 19.1049 26.5554
Au 10.6525 20.9952 25.423
Pt 23.0512 19.2507 31.399
Au 14.4677 17.2228 16.4207
Au 32.0208 35.5056 13.4899
Au 14.6657 37.8363 32.5717
Au 21.9007 8.71799 11.7246
Au 25.6029 31.9639 6.61174
Pt 21.3869 12.2161 19.9214
Au 9.07841 19.1343 28.6505
Au 22.2901 42.9502 21.1376
Pt 30.2237 14.5709 13.4533
Pt 31.0163 30.5476 30.4139
Pt 21.9178 9.50527 25.6924
Pt 39.246 29.6611 23.6183
Au 32.4341 17.9924 39.199
Au 23.5066 33.6006 7.26687
Pt 17.835 33.9713 26.523
Pt 14.0771 14.9335 26.1953
Pt 22.6543 14.1594 18.5513
Pt 13.93 26.3168 17.7069
Au 30.2048 20.7728 30.8945
Au 11.6424 34.3965 30.827
Pt 35.1992 36.6282 29.0377
Pt 33.9822 13.6625 30.5527
Au 10.2701 16.5422 23.742
Pt 27.451 22.6191 29.8802
Au 25.5942 39.1982 37.9468
Pt 31.6088 23.2624 31.872
Au 39.8042 32.3611 32.5634
Pt 30.3069 10.2571 28.718
Au 13.9512 10.9188 17.1508
Au 26.0606 41.665 25.3786
Au 18.5784 10.0458 24.1045
Au 36.546 22.3333 34.0384
Au 38.8492 23.1508 9.20992
Pt 30.9345 32.89 26.8072
Pt 35.2678 17.5616 16.4948
Pt 32.9974 20.1627 28.7881
Au 29.3103 35.9137 13.9747
Pt 26.4376 26.719 41.1303
Au 35.661 31.5435 13.2648
Pt 33.5653 17.1415 18.6982
Au 11.4088 16.6443 26.3325
Pt 11.7795 14.1656 25.27
Pt 16.4144 28.849 32.0543
Au 27.7494 41.3154 33.9304
Au 43.7808 23.9624 24.1518
Pt 26.4021 29.8721 36.7465
Au 21.0612 32.4536 7.3194
Au 26.6191 28.9514 13.8207
Au 22.0433 34.1714 20.9372
Pt 26.2213 14.3238 28.556
Au 17.5662 29.7451 14.9344
Au 7.87457 15.1639 23.298
Au 18.2886 35.5216 19.3706
Au 21.1297 8.4678 29.0397
Au 24.4775 42.171 22.6948
Au 27.559 37.3257 18.867
Au 21.3984 37.8302 25.7963
Pt 13.5182 36.9813 22.7311
Pt 33.6854 15.0116 32.9636
Pt 31.956 23.8053 12.9362
Au 37.3495 19.6967 37.1062
Pt 28.2487 36.632 32.2656
Pt 29.3019 17.6614 21.8219
Pt 22.7906 38.4008 23.4129
Pt 36.0467 31.846 26.0863
Pt 33.1462 18.3042 14.0945
Pt 19.0593 10.5451 29.574
Pt 31.0576 22.235 38.4944
Au 18.7179 27.8695 41.7947
Au 23.4547 20.8341 14.7611
Au 30.8027 19.0803 5.22218
Au 24.1464 6.43842 22.2645
Au 33.462 30.6697 11.2164
Pt 25.087 32.8786 31.2283
Pt 26.7282 32.566 18.1083
Pt 24.6229 29.2953 22.1276
Pt 34.4687 23.8351 22.9582
Au 17.386 16.0651 12.1114
Au 26.4165 39.1095 32.9923
Pt 21.4149 21.5025 19.9459
Au 8.46252 30.4255 18.0104
Pt 36.3565 32.6581 20.5653
Au 19.8466 27.4809 23.536
Pt 32.3894 29.1452 19.8396
Pt 37.8253 20.7213 22.3042
Pt 31.2761 18.3684 30.1277
Pt 15.8384 26.1961 31.6613
Pt 30.0287 30.5625 27.7713
Pt 31.904 34.801 35.5413
Pt 24.4179 28.8851 28.6304
Au 43.0588 21.6789 22.5429
Au 13.2883 13.6899 34.7945
Au 23.4402 10.4438 36.1648
Pt 36.4469 36.4728 26.4148
Pt 22.2283 15.5297 34.0958
Au 10.4574 24.3484 37.985
Pt 25.7947 37.4351 27.7701
Au 24.1137 37.5748 39.8142
Au 18.4181 8.13567 28.575
Pt 18.357 20.1556 28.4068
Au 7.31834 34.8672 24.9302
Pt 33.738 11.5748 25.7348
Au 16.0853 20.8293 13.9086
Au 27.4327 24.9805 20.3578
Pt 39.6708 23.6591 19.0401
Au 37.3318 38.8326 25.0581
Au 21.9782 36.6427 10.7063
Au 35.3094 14.3128 12.7436
Pt 18.2482 26.0417 38.015
Au 29.08 21.0408 42.735
Pt 24.9004 34.0335 39.3523
Au 34.7426 10.1549 29.8857
Pt 8.12828 28.9426 20.9709
Pt 25.2849 33.549 33.9233
Au 36.0534 12.2097 14.7981
Au 17.1223 29.5034 23.4076
Pt 24.091 13.984 32.9494
Au 39.0033 36.7555 25.6095
Pt 15.8722 19.7554 24.4201
Pt 29.4734 21.7804 28.4819
Au 30.0305 16.8812 39.3219
Au 32.7443 30.1152 40.4803
Pt 16.9281 22.4228 28.1382
Pt 23.3354 22.898 21.6414
Pt 34.8643 19.302 12.2036
Pt 34.9454 12.8072 17.1078
Au 19.2239 32.9977 9.38967
Pt 20.9689 10.6666 31.9951
Pt 11.124 17.2558 29.3944
Pt 27.2825 28.6197 31.9925
Pt 31.6343 23.9602 22.5748
Au 25.0169 41.6582 33.1279
Pt 16.1141 36.6121 22.2754
Au 33.7767 16.437 37.4354
Pt 33.4139 28.1783 38.792
Au 18.2951 19.2681 14.7642
Pt 36.3905 21.7174 17.7103
Au 14.3601 29.8023 22.8793
Au 40.4098 18.0098 27.9245
Pt 20.0467 19.3849 21.4872
Pt 19.1387 13.9237 23.6979
Pt 24.0607 24.6324 36.2672
Au 33.3507 8.19595 22.72
Pt 23.625 14.7218 28.9383
Pt 18.9778 24.9729 22.8302
Au 17.806 39.9894 37.0674
Pt 34.6074 28.803 34.3968
Au 18.482 36.3683 14.1658
Pt 20.8922 37.695 28.4398
Pt 22.9228 35.6816 38.2296
Au 23.8913 13.6113 9.48469
Au 17.8665 25.0921 42.2923
Pt 34.006 21.8703 19.26
Pt 29.2958 33.7148 35.6343
Au 35.2817 15.3221 35.3867
Pt 31.9641 19.6493 12.0637
Pt 24.9336 35.5476 29.4454
Au 26.0498 39.3819 30.0296
Pt 30.8048 22.0431 20.2644
Au 24.1805 25.7477 15.2351
Pt 36.5471 29.7706 30.5226
Pt 27.1617 30.4794 27.9372
Au 28.2272 18.8973 38.8481
Pt 37.4319 18.0332 15.0486
Au 41.2503 17.3995 22.395
Au 25.7733 31.2516 11.7986
Pt 11.1383 35.4795 25.8864
Pt 28.4292 36.2702 34.9311
Pt 35.4462 33.0452 31.7208
Au 26.2308 28.5729 10.9086
Pt 26.2539 26.9872 19.1026
Au 26.3819 39.7877 18.9829
Au 15.4373 10.8919 32.1829
Au 38.2224 32.318 35.2329
Au 35.172 22.1845 6.33448
Au 36.2997 31.7415 37.4809
Au 39.3582 20.7148 13.1977
Pt 35.8119 21.3293 24.1487
Pt 12.7342 30.4418 25.0122
Pt 24.9099 22.7029 39.1289
Au 25.8775 25.2903 43.3403
Pt 19.4724 15.1209 29.9221
Au 41.4086 31.3451 30.2858
Au 42.1987 29.4703 16.4818
Pt 25.3481 39.7043 23.5337
Au 5.08018 25.0337 29.9559
Au 7.49741 27.9823 28.4091
Au 13.4538 21.8243 40.2284
Au 9.23518 14.9529 25.6981
Au 29.1896 23.9937 13.7222
Pt 29.533 22.4142 40.5988
Pt 17.2846 29.9239 34.2899
Au 18.4108 33.771 12.8127
Pt 29.2111 17.6037 28.6174
Au 32.6944 12.9779 12.2328
Au 31.3435 6.65818 25.5275
Pt 8.33091 30.5749 26.9659
Pt 17.954 28.4765 25.8235
Pt 35.7446 18.7057 30.8339
Au 25.6539 33.5224 13.3388
Pt 34.0224 20.5983 26.1625
Pt 29.9685 29.0147 32.6505
Pt 18.0176 23.1362 24.4156
Au 41.6341 29.0608 22.385
Pt 21.2838 11.3027 34.7626
Au 19.5829 6.96854 19.5731
Au 35.6043 18.0221 35.8997
Au 8.5638 23.6305 34.6016
Au 10.9805 34.6757 33.7242
Pt 19.613 25.8087 35.6402
Au 23.4151 40.867 24.929
Pt 24.5167 8.82173 25.5937
Au 14.3176 11.4456 29.5688
Pt 31.4682 17.9476 20.1104
Au 17.6177 8.34624 25.9643
Au 32.694 32.6924 9.41025
Pt 35.7171 27.1132 36.3027
Pt 28.7602 31.937 16.6016
Pt 21.5913 9.51469 20.3945
Au 19.3212 11.248 36.5245
Pt 28.1425 19.0184 26.6227
Au 23.4332 34.394 11.5345
Au 19.5983 14.5386 13.4631
Au 30.31 16.787 6.72647
Au 15.0564 37.069 13.6251
Au 10.251 25.8066 35.5058
Pt 36.9916 24.8625 35.4922
Pt 24.6977 24.9154 33.5625
Pt 31.7322 35.4422 18.8067
Au 31.3723 28.1018 15.1988
Au 32.9028 31.3418 6.64908
Au 35.2261 32.7645 10.484
Pt 24.7631 16.0637 17.4802
Au 23.8539 23.6522 6.42092
Au 9.98866 18.2183 34.9026
Pt 26.1431 27.9314 38.6413
Au 17.1827 28.9596 7.84593
Au 16.1586 39.1578 34.9388
Pt 21.9938 27.0793 27.8997
Au 15.2459 17.3847 11.0227
Au 35.0206 10.1841 16.4629
Pt 23.7739 11.1915 19.7076
Au 39.5862 15.6195 21.0396
Pt 15.7864 31.4622 32.6174
Pt 39.7006 27.0119 22.1053
Au 28.1998 25.1807 9.1666
Au 19.7634 37.368 33.0152
Pt 25.1352 37.1596 23.1491
Au 27.2215 32.2917 9.60959
Pt 31.6495 19.8492 25.0703
Pt 30.5923 32.7839 32.0404
Pt 13.94 18.9907 29.2452
Pt 18.8355 11.4326 19.6192
Pt 28.7572 6.97711 24.6585
Pt 23.8337 17.381 29.75
Au 23.2393 30.787 7.51916
Au 20.7729 36.4566 20.1144
Au 9.53044 25.021 18.6192
Au 21.6135 28.801 8.88319
Au 24.6053 37.7343 18.3827
Pt 36.5811 35.3839 20.8173
Pt 31.9602 22.0315 26.838
Au 15.4549 22.2846 11.6002
Pt 17.3689 23.5751 36.9348
Au 42.8562 27.6393 25.7921
Pt 37.8365 32.8933 27.7522
Pt 22.6718 17.6224 35.8364
Au 14.7911 30.7437 19.3962
Au 12.9101 23.2212 25.9326
Au 10.5211 30.7836 13.6721
Pt 22.1374 35.3553 29.8236
Pt 21.1728 35.1357 32.3455
Au 9.16971 18.8657 17.1017
Pt 11.7995 19.9072 32.8917
Au 16.6935 24.14 7.68277
Pt 33.1861 12.8304 20.6445
Au 14.799 23.8092 17.9432
Pt 14.37 34.3463 21.8413
Pt 26.428 30.5972 16.23
Au 18.3838 6.32389 21.8341
Au 8.74018 28.016 35.5225
Pt 31.115 17.113 36.6326
Pt 26.7321 32.6395 37.628
Au 9.55106 23.6467 29.2129