2057
Atoms. Timestep: 20125
Au 25.0121 24.6593 25.4827
Au 27.2817 24.6052 24.02
Au 27.408 24.6554 26.9421
Au 22.691 24.6898 23.968
Au 22.7676 24.6948 26.9327
Pt 23.6162 26.9653 25.3765
Au 26.4242 26.9303 25.4884
Au 23.5438 22.3868 25.3359
Au 26.3913 22.3333 25.4067
Au 25.1079 23.199 27.7945
Au 25.1076 26.0389 27.8503
Au 24.9188 23.2287 23.0798
Au 24.982 26.0606 23.1123
Au 29.573 24.6361 22.5369
Au 29.6873 24.5963 25.4179
Au 29.8067 24.7114 28.4218
Pt 20.3914 24.681 22.3478
Au 20.3722 24.6702 25.4221
Au 20.4991 24.6937 28.3884
Pt 22.2044 29.2137 25.2892
Pt 24.9611 29.2822 25.2921
Au 27.7137 29.2617 25.2583
Au 22.056 20.1114 25.1473
Au 24.8771 19.9843 25.1591
Au 27.6911 19.9969 25.2199
Au 25.0235 21.6779 30.0389
Au 25.6237 24.5524 30.2672
Au 25.1977 27.6368 30.0471
Au 24.8643 21.8182 20.6783
Au 24.9279 24.6773 20.664
Pt 24.9365 27.4568 20.7603
Au 27.5491 22.9462 29.1317
Au 27.575 26.3839 29.1158
Au 27.2546 23.2361 21.5929
Au 27.2601 26.0774 21.586
Au 22.724 23.0056 29.1662
Au 22.8231 26.17 29.3922
Au 22.6083 23.2346 21.5112
Au 22.6129 26.0814 21.5246
Au 28.7108 26.9606 23.945
Pt 28.9113 26.98 26.8578
Au 21.2395 26.9566 23.896
Au 21.3111 27.026 26.8279
Pt 28.7029 22.272 23.8739
Au 28.7913 22.2371 26.767
Au 21.1872 22.3982 23.7988
Au 21.2141 22.3211 26.7764
Au 23.6663 28.3806 27.695
Pt 26.5258 28.5046 27.6605
Au 23.6042 20.8448 27.6095
Pt 26.4412 20.7493 27.6458
Au 23.5026 28.3706 22.9949
Pt 26.333 28.3875 23.0518
Pt 23.4317 20.8616 22.8456
Au 26.287 20.8749 22.9187
Pt 31.835 24.6555 20.9719
Au 32.071 24.6254 23.8875
Au 32.137 24.4752 26.6996
Au 32.2219 23.8839 29.3942
Pt 18.0944 24.7002 20.8781
Au 18.0656 24.6907 23.8015
Au 18.011 24.6823 26.8737
Au 18.1531 24.6791 29.7907
Au 20.6952 31.475 25.1136
Pt 23.5421 31.5847 25.141
Pt 26.2723 31.6516 25.1337
Pt 29.0022 31.6162 25.0578
Au 20.6103 17.787 24.9657
Au 23.3825 17.6329 24.955
Au 26.1596 17.5563 24.973
Au 28.9532 17.5466 25.0554
Au 24.768 20.1497 32.3225
Au 24.4499 23.0401 32.3952
Au 24.4016 26.0196 32.1361
Au 25.1026 29.2851 32.1686
Au 24.8387 20.4774 18.2623
Au 24.8722 23.2382 18.2158
Au 24.9173 26.0565 18.2616
Au 24.9602 28.8293 18.3065
Au 29.9867 22.4933 30.4781
Au 27.4692 21.3139 31.3225
Pt 30.3399 26.6822 30.5775
Pt 28.4637 24.7639 30.921
Au 27.8622 27.9751 31.2875
Au 29.578 23.211 20.0666
Au 27.2026 21.8145 19.1373
Au 29.6018 26.0789 20.0428
Au 27.2657 24.6368 19.1092
Au 27.2515 27.4505 19.1302
Au 20.2044 22.8095 30.467
Pt 22.3588 21.4616 31.5129
Au 20.3704 26.3695 30.7509
Au 22.2919 24.3662 31.4142
Au 22.5793 28.0635 31.5838
Au 20.3064 23.2707 19.9687
Pt 22.5143 21.7971 19.1037
Pt 20.2901 26.0952 19.9547
Au 22.5544 24.6525 19.0698
Au 22.6116 27.4786 19.1379
Au 30.0751 29.3264 23.6855
Au 31.0317 26.9895 22.3674
Au 30.1391 29.3192 26.5127
Au 31.1686 26.9414 25.3274
Pt 31.6934 26.7444 28.2769
Au 19.8138 29.27 23.7531
Au 18.9318 26.9652 22.2857
Pt 19.8089 29.3347 26.6884
Au 18.8753 27.0158 25.3146
Au 18.9628 27.0584 28.2488
Au 30.0319 19.9266 23.665
Au 30.9687 22.2764 22.373
Au 30.1027 19.7488 26.5414
Au 31.1031 22.1877 25.2158
Pt 31.1072 21.8238 28.0931
Au 19.6925 20.0769 23.6586
Au 18.86 22.4057 22.255
Pt 19.6937 19.9919 26.6288
Au 18.8045 22.3379 25.2447
Au 18.8448 22.2876 28.11
Pt 23.5174 30.0227 29.863
Au 22.1205 30.7184 27.5073
Au 26.538 30.0887 29.8795
Au 24.9882 30.8223 27.5372
Au 27.8865 30.8061 27.5411
Au 23.4444 19.3265 29.913
Au 21.992 18.5427 27.4179
Au 26.2698 19.1574 29.844
Au 24.8645 18.3862 27.4707
Au 27.696 18.3192 27.4667
Au 23.473 29.79 20.5693
Pt 22.107 30.692 22.8741
Au 26.3426 29.7661 20.5867
Au 24.902 30.734 22.8655
Au 27.7396 30.7278 22.8301
Pt 23.3745 19.4955 20.4579
Pt 21.9655 18.618 22.6745
Pt 26.1949 19.4155 20.48
Pt 24.7686 18.4901 22.6531
Au 27.614 18.5235 22.7013
Au 28.8364 20.4178 28.9749
Au 29.335 28.5968 29.0218
Au 28.6347 20.8524 21.3908
Au 28.6954 28.4006 21.4154
Au 21.0903 20.6381 29.012
Au 21.2107 28.5902 29.1483
Au 21.1078 20.8838 21.336
Au 21.125 28.4228 21.3833
Pt 34.1079 24.6746 19.5367
Au 34.305 24.7057 22.3077
Pt 34.6055 24.4027 25.1957
Pt 34.5732 24.2189 27.9835
Pt 34.6045 23.4034 30.5091
Au 15.8051 24.6931 19.4146
Pt 15.7232 24.6867 22.223
Au 15.6796 24.7133 25.2583
Pt 15.6155 24.6034 28.2337
Pt 15.8501 24.6293 31.0567
Au 19.1525 33.7927 24.9394
Au 22.0571 33.9245 24.9464
Pt 24.8494 33.9966 24.9871
Pt 27.5796 34.0203 24.9314
Au 30.393 33.9365 24.8401
Au 19.0993 15.5039 24.8156
Pt 21.8852 15.2516 24.7809
Pt 24.6318 15.1647 24.7273
Pt 27.4639 15.1689 24.8736
Pt 30.3127 15.2045 24.9336
Au 24.6061 18.7228 34.6108
Au 24.0751 21.6702 34.885
Pt 24.0074 24.6773 34.5413
Au 23.9216 27.7025 34.1553
Au 24.7747 30.944 34.267
Au 24.799 19.1296 15.892
Pt 24.8528 21.8778 15.7596
Au 24.927 24.6298 15.781
Au 24.9014 27.4699 15.813
Au 24.9263 30.2357 15.8716
Pt 32.413 22.1013 31.8117
Au 29.8743 20.6878 32.6987
Au 27.3738 19.481 33.5336
Au 31.2104 24.5454 31.926
Au 28.8991 23.2419 33.0455
Au 26.5734 22.0206 33.7728
Au 29.1877 26.2273 33.0122
Au 26.6081 24.7044 33.1547
Pt 26.598 27.2979 33.4354
Pt 31.8484 23.241 18.6008
Pt 29.5477 21.7764 17.6932
Pt 27.1686 20.4519 16.7251
Pt 31.8555 26.0673 18.5342
Au 29.6094 24.6257 17.6138
Au 27.2393 23.2045 16.6462
Pt 29.6035 27.4731 17.6208
Au 27.2634 26.0552 16.6653
Pt 27.3042 28.8543 16.6885
Pt 17.7735 22.6946 31.7678
Pt 19.9258 21.4119 32.8654
Au 22.1703 19.9579 33.7874
Pt 17.9963 26.468 31.9877
Pt 19.7544 24.327 32.606
Pt 21.9009 23.0063 33.7821
Pt 20.0874 28.1999 32.8522
Pt 21.8021 26.0294 33.3896
Pt 22.1856 29.8286 33.7597
Au 18.0132 23.268 18.4743
Pt 20.2524 21.8801 17.5891
Pt 22.4884 20.4931 16.6969
Pt 18.0022 26.1316 18.488
Pt 20.2308 24.6951 17.5468
Au 22.5299 23.2263 16.6485
Au 20.2539 27.5012 17.5925
Au 22.5615 26.065 16.636
Au 22.5573 28.8826 16.6982
Au 31.4139 31.6985 23.4772
Au 32.4061 29.3996 22.0515
Au 33.2899 27.0358 20.7859
Au 31.4698 31.6949 26.3532
Au 32.5415 29.3087 24.9712
Pt 33.4867 27.0013 23.5831
Au 32.4786 29.3572 27.8446
Au 33.6693 26.7956 26.3454
Au 34.5626 27.3913 28.7712
Au 18.2495 31.5834 23.5756
Au 17.4249 29.2921 22.1262
Au 16.5874 27.0036 20.7797
Pt 18.236 31.5701 26.4982
Au 17.377 29.346 25.1188
Au 16.4838 26.9973 23.6744
Au 17.4141 29.3861 28.0342
Au 16.5008 27.0284 26.6793
Au 16.5809 27.0335 29.573
Au 31.3246 17.5073 23.5211
Pt 32.3454 19.9304 22.1005
Au 33.2346 22.3047 20.8678
Au 31.389 17.2604 26.42
Au 32.5142 19.7947 24.9749
Pt 33.4035 22.2146 23.6992
Au 32.4718 19.358 27.8963
Au 33.4466 22.0063 26.64
Pt 33.4106 21.2943 29.473
Au 18.1823 17.7729 23.468
Au 17.3378 20.0774 22.1137
Pt 16.5517 22.3502 20.7543
Au 18.2039 17.7105 26.4208
Au 17.2652 20.0055 25.0785
Au 16.4442 22.3849 23.6555
Au 17.3074 19.9663 27.9667
Au 16.3751 22.3579 26.6087
Au 16.4528 22.2696 29.4304
Au 23.3421 31.6543 32.0419
Au 22.0028 32.3781 29.697
Au 20.5859 33.0719 27.3523
Au 26.373 31.8399 32.0602
Au 24.8947 32.5025 29.7502
Au 23.4722 33.2459 27.3621
Pt 27.7691 32.5633 29.6381
Au 26.2889 33.263 27.3418
Au 29.1252 33.2156 27.2746
Pt 23.315 17.7006 32.0227
Au 21.8961 17.0072 29.6827
Au 20.4878 16.1854 27.2428
Au 26.0854 17.5174 32.0205
Pt 24.7404 16.7795 29.6825
Au 23.3091 16.0177 27.2068
Pt 27.5727 16.638 29.5892
Au 26.1554 15.9263 27.2222
Pt 28.9888 15.8859 27.2835
Au 23.4631 31.2202 18.0871
Au 21.993 32.1519 20.4109
Au 20.5459 33.0112 22.6385
Au 26.3576 31.21 18.103
Au 24.8497 32.2405 20.3429
Au 23.4151 33.0989 22.6732
Au 27.7191 32.1828 20.3871
Au 26.2512 33.1297 22.6826
Pt 29.0426 33.1114 22.6469
Au 23.3405 18.1203 18.0584
Au 21.8731 17.2268 20.299
Pt 20.5344 16.2862 22.5301
Pt 26.1882 18.0541 18.1106
Pt 24.7238 17.088 20.2802
Au 23.2866 16.1755 22.5312
Pt 27.5696 17.1108 20.2758
Au 26.1095 16.1089 22.5161
Au 28.9557 16.1511 22.5994
Pt 31.2352 19.9833 30.3666
Au 31.9925 28.7863 30.5122
Pt 30.1296 17.947 28.7848
Pt 30.3441 31.0432 28.8372
Au 28.7197 18.6806 31.1187
Au 29.0627 30.4873 31.18
Pt 30.9644 20.8096 19.891
Pt 31.0125 28.4544 19.8194
Au 30.0154 18.4594 21.1855
Au 30.078 30.7725 21.1712
Au 28.5661 19.4213 18.9634
Au 28.6779 29.8051 18.9112
Pt 18.6599 20.5354 30.3574
Pt 18.8038 28.759 30.4779
Pt 19.5422 18.3628 28.8791
Pt 19.6391 30.8714 28.9255
Pt 20.9668 19.1508 31.2786
Pt 20.9637 30.2976 31.3349
Pt 18.8066 20.9192 19.8157
Pt 18.7794 28.4464 19.7816
Pt 19.5953 18.6164 21.1442
Au 19.636 30.7497 21.2276
Pt 21.041 19.506 18.9152
Au 21.0961 29.8616 18.9491
Pt 36.3719 24.6777 18.1498
Pt 36.629 24.983 20.7884
Au 36.7807 24.7674 23.508
Au 37.1313 23.7615 26.2136
Pt 37.1685 23.7627 29.0345
Pt 35.7173 20.9948 30.927
Pt 13.511 24.7953 17.9447
Au 13.3946 24.7268 20.7476
Au 13.3951 24.7322 23.6165
Pt 13.3214 24.6006 26.5901
Pt 13.2484 24.5842 29.4024
Au 13.482 24.7126 32.2101
Au 17.7362 36.1551 24.7248
Au 20.5574 36.2535 24.7383
Pt 23.3865 36.3181 24.83
Pt 26.1782 36.3794 24.8004
Au 28.9507 36.4229 24.7118
Au 31.769 36.3388 24.7222
Pt 17.6343 13.2595 24.7419
Pt 20.3944 13.0302 24.6595
Pt 23.1288 12.8608 24.6175
Au 25.9585 12.8167 24.6081
Au 28.8047 12.8323 24.6871
Au 31.6241 12.8551 24.6519
Au 22.2352 16.1803 37.9883
Pt 26.0317 19.0121 38.2934
Au 23.8257 23.5285 37.0065
Pt 23.3575 28.426 38.8206
Au 23.5024 29.4702 36.2759
Au 24.452 32.45 36.4813
Au 24.7265 17.7187 13.5412
Pt 24.8046 20.5492 13.4344
Pt 24.8436 23.2652 13.3798
Au 24.8841 26.0893 13.3869
Pt 24.8793 28.8574 13.3852
Pt 24.9146 31.6318 13.5209
Pt 34.4934 21.8341 33.4077
Au 32.3205 20.2316 33.9931
Au 29.7849 19.3341 35.202
Au 27.2852 17.9549 35.8168
Au 33.8459 24.5361 32.8963
Pt 33.605 26.173 35.3398
Au 28.892 21.8943 35.801
Au 26.3912 20.509 36.0757
Pt 31.3467 25.3479 34.4719
Au 28.747 24.8292 35.3476
Au 23.6159 26.5634 36.603
Au 28.8816 27.8257 35.1369
Au 26.1879 26.0109 35.7837
Au 26.0738 28.7765 35.6316
Pt 34.0715 23.2034 17.2146
Au 31.7793 21.8628 16.1935
Au 29.4686 20.4204 15.2878
Au 27.1374 19.1212 14.3535
Au 34.0984 26.0449 17.058
Pt 31.868 24.6599 16.1326
Au 29.5476 23.2566 15.1561
Pt 27.1504 21.9062 14.2258
Pt 31.8308 27.4933 16.1296
Au 29.5615 26.0798 15.1742
Pt 27.2123 24.6442 14.1726
Au 29.5618 28.8902 15.174
Au 27.2305 27.4667 14.2299
Au 27.2476 30.2998 14.3008
Pt 15.3463 22.6888 33.0144
Pt 17.5252 21.5697 34.2154
Au 19.5382 19.769 35.1196
Au 22.058 18.7062 36.4791
Au 15.6246 26.5285 33.1523
Pt 17.3154 24.3765 33.7943
Pt 19.4726 23.1486 35.0864
Au 21.5442 21.615 36.1554
Au 17.6602 28.2689 34.1292
Au 19.3253 26.0625 34.5695
Au 21.5549 24.7835 35.8336
Au 19.7825 29.9457 35.0475
Pt 21.364 27.7066 35.3876
Pt 21.84 31.636 35.9508
Au 15.6422 23.2937 16.982
Pt 17.9347 21.8992 16.0698
Au 20.1999 20.5253 15.1819
Au 22.458 19.0829 14.337
Pt 15.7249 26.1614 17.0114
Au 17.9191 24.7422 16.0301
Au 20.1933 23.3099 15.1127
Pt 22.4918 21.895 14.2046
Pt 17.9586 27.5919 16.1275
Au 20.2412 26.1787 15.1091
Au 22.5555 24.6847 14.1887
Pt 20.2732 28.949 15.1663
Pt 22.5356 27.5167 14.1908
Au 22.5728 30.2887 14.336
Pt 32.8465 34.0185 23.3145
Pt 33.7987 31.7607 21.8766
Pt 34.741 29.4629 20.5313
Au 35.6089 27.1064 19.281
Au 32.8361 34.1263 26.1334
Au 33.8543 31.7867 24.7689
Au 34.811 29.5034 23.3849
Pt 35.7781 27.2311 22.0485
Pt 33.7669 31.988 27.7652
Pt 34.8099 29.4263 26.36
Au 35.8779 27.1282 24.8359
Au 34.6594 30.015 29.3201
Pt 36.2815 26.0074 27.2967
Au 36.0305 25.7329 30.5424
Pt 16.8345 33.9244 23.3611
Au 15.9596 31.6305 21.9915
Pt 15.1224 29.3231 20.5765
Pt 14.305 27.0595 19.2647
Pt 16.7354 33.9141 26.2615
Pt 15.8773 31.6874 24.961
Au 14.9721 29.3721 23.5221
Pt 14.1558 27.0705 22.0781
Pt 15.8555 31.7196 27.7843
Au 14.965 29.4285 26.4245
Au 14.1037 27.0899 25.0382
Pt 15.0112 29.4938 29.2429
Au 14.1281 26.9611 27.9425
Au 14.1682 27.0632 30.7451
Pt 32.658 15.1649 23.3906
Au 33.5916 17.5214 21.9807
Pt 34.5883 19.8932 20.6507
Pt 35.4986 22.2843 19.4298
Pt 32.723 14.8909 26.2877
Au 33.7817 17.2981 24.952
Pt 34.7563 19.7775 23.442
Au 35.6656 22.2648 22.2413
Pt 33.8107 16.8944 27.8065
Au 34.8759 19.4103 26.4422
Pt 35.6316 21.7417 25.1052
Pt 34.8319 18.9392 29.3271
Au 35.7121 21.632 28.096
Pt 35.8682 19.2816 33.0851
Pt 16.6731 15.5145 23.3578
Pt 15.8143 17.7434 21.9771
Pt 14.9897 20.0355 20.6766
Pt 14.2436 22.3773 19.3346
Pt 16.6622 15.4219 26.2059
Pt 15.7285 17.6741 24.8484
Au 14.884 19.9893 23.5055
Au 14.1102 22.3384 22.1228
Au 15.7633 17.6612 27.698
Au 14.8131 19.9902 26.4141
Au 14.0038 22.36 25.0285
Pt 14.8285 19.9219 29.2364
Pt 13.9683 22.2899 27.8865
Au 14.0814 22.2676 30.6704
Pt 23.0853 33.3513 34.2353
Au 21.9075 34.0995 31.8472
Au 20.5648 34.858 29.5032
Au 19.1312 35.5048 27.1194
Pt 25.9666 33.5265 34.4067
Au 24.7917 34.1986 31.9526
Pt 23.4608 34.959 29.532
Au 22.0118 35.6439 27.1976
Pt 27.6619 34.2403 31.7179
Pt 26.2075 34.9792 29.496
Pt 24.8007 35.693 27.1677
Au 29.0595 34.9712 29.4686
Au 27.5818 35.6943 27.1475
Au 30.4747 35.6642 27.12
Au 23.3148 16.1894 34.1872
Pt 21.8646 15.3475 31.7673
Au 20.3367 14.6038 29.4598
Pt 18.9702 13.8738 27.0539
Au 26.0931 15.9184 34.2144
Pt 24.6516 15.1491 31.8237
Au 23.1753 14.4221 29.4101
Pt 21.7362 13.6361 27.0322
Pt 27.4934 15.0582 31.7688
Au 26.034 14.3245 29.4426
Au 24.5891 13.5546 26.987
Pt 28.8979 14.2432 29.363
Pt 27.4899 13.5344 27.074
Pt 30.2896 13.5411 27.0523
Pt 23.4563 32.6502 15.71
Au 21.9895 33.5527 17.9957
Pt 20.4899 34.4604 20.225
Pt 19.0987 35.3241 22.4061
Au 26.3356 32.6378 15.7152
Pt 24.8262 33.6861 17.9059
Pt 23.3605 34.6219 20.2203
Pt 21.9196 35.4138 22.4238
Au 27.668 33.6286 17.9326
Au 26.1729 34.6779 20.1497
Au 24.7496 35.5119 22.5095
Au 29.0645 34.5857 20.1957
Au 27.5939 35.5249 22.4547
Au 30.4166 35.4478 22.4416
Pt 23.26 16.6786 15.696
Au 21.8051 15.7695 17.8549
Pt 20.44 14.8815 20.1511
Pt 19.0442 14.038 22.4286
Au 26.1451 16.6631 15.6979
Pt 24.6585 15.645 17.8715
Au 23.2319 14.7344 20.1038
Pt 21.809 13.8145 22.3732
Au 27.5356 15.6981 17.9246
Pt 26.0269 14.7184 20.1092
Pt 24.5578 13.7251 22.3348
Au 28.9647 14.791 20.1418
Au 27.3896 13.6972 22.363
Au 30.3018 13.8262 22.4246
Pt 33.5933 19.571 31.7095
Pt 33.1821 26.0126 30.5804
Au 32.5108 17.5674 30.1858
Pt 32.5166 31.438 30.3096
Pt 31.4091 15.5154 28.6266
Au 31.5588 33.479 28.6219
Au 31.1575 18.1783 32.6364
Pt 30.345 28.6838 32.8175
Au 30.0115 16.2278 30.924
Pt 30.1858 32.8755 30.9302
Au 28.6728 17.0591 33.4155
Au 27.7196 29.8314 33.5327
Au 33.2254 20.8138 18.4357
Au 33.2728 28.4944 18.3267
Pt 32.296 18.4281 19.6739
Pt 32.4155 30.8388 19.5987
Pt 31.3596 16.1427 20.9709
Au 31.4436 33.1219 21.0548
Pt 30.9106 19.3485 17.5133
Au 31.0001 29.8983 17.3881
Pt 29.9713 17.0574 18.7457
Au 30.0793 32.208 18.7196
Au 28.5598 18.0161 16.5556
Pt 28.6946 31.2571 16.4637
Au 16.1343 20.4265 31.6953
Pt 16.4176 28.8904 31.6311
Au 17.0664 18.2584 30.1979
Pt 17.2514 31.0668 30.2056
Pt 18.0155 16.0395 28.6387
Au 18.1216 33.2399 28.645
Au 18.5536 19.0379 32.5792
Pt 18.5636 30.4952 32.6152
Au 19.4018 16.7989 31.13
Au 19.5029 32.629 31.0486
Au 20.9668 17.5126 33.5081
Pt 20.7339 32.0669 33.4778
Au 16.4098 20.9303 18.3695
Pt 16.4905 28.4611 18.336
Au 17.2233 18.6119 19.6851
Pt 17.3008 30.7787 19.6195
Au 18.1387 16.3102 21.0414
Pt 18.1584 33.0797 21.0276
Au 18.7235 19.5529 17.4241
Au 18.7643 29.9155 17.3991
Au 19.5137 17.1716 18.7207
Au 19.581 32.2202 18.8103
Pt 20.9746 18.1041 16.535
Pt 21.0779 31.2857 16.5363
Au 38.6453 24.7982 16.7029
Pt 38.9624 25.1422 19.3697
Pt 39.1599 25.3243 22.0126
Au 39.106 25.4187 24.804
Pt 38.9708 25.471 27.5662
Pt 38.8519 25.5017 30.2257
Pt 40.4738 20.9115 30.4734
Au 11.2807 24.7734 16.442
Pt 11.0707 24.7579 19.2975
Au 10.989 24.7138 22.0778
Au 11.004 24.6805 24.9264
Au 10.9367 24.679 27.81
Pt 10.8462 24.7482 30.6577
Pt 11.1693 24.8195 33.4431
Pt 16.3359 38.4871 24.5069
Pt 19.1165 38.6013 24.5906
Au 21.8894 38.6606 24.6576
Au 24.7185 38.68 24.6171
Pt 27.5368 38.8205 24.6101
Pt 30.2685 38.8221 24.5579
Au 33.0893 38.6914 24.5827
Pt 16.1627 11.001 24.6244
Pt 18.916 10.7884 24.5775
Pt 21.6336 10.6288 24.5034
Pt 24.3959 10.4834 24.4769
Au 27.2687 10.3737 24.4278
Au 30.1102 10.345 24.4563
Pt 32.9131 10.4344 24.4249
Au 24.6427 17.1053 36.7573
Pt 24.6389 20.4823 40.2075
Pt 23.9664 20.6893 37.5069
Au 23.5505 25.5878 39.1051
Pt 25.4973 29.0283 40.5522
Pt 23.0698 31.2235 38.4568
Pt 24.1231 33.9448 38.6316
Au 24.7319 16.3845 11.1936
Pt 24.7597 19.1671 11.0981
Au 24.8347 21.8766 11.0437
Au 24.8502 24.7067 11.0039
Pt 24.9333 27.4742 11.0042
Pt 24.9012 30.2134 11.0444
Au 24.8885 32.9875 11.1974
Pt 33.3641 23.4998 35.4103
Au 31.1522 22.6366 34.3258
Pt 30.3306 21.8053 38.2039
Au 29.7048 17.4268 37.1891
Au 26.3949 21.9057 38.4924
Pt 35.823 26.3811 33.3104
Pt 34.9087 24.7592 37.2009
Pt 31.002 24.0357 36.7879
Au 26.3852 23.3648 36.0955
Au 29.1617 18.5768 42.3304
Au 32.5728 27.1921 32.9206
Pt 30.8666 26.8048 36.6221
Au 28.3051 26.4028 37.6359
Au 26.0027 22.9716 41.2314
Au 31.9018 28.92 35.2331
Pt 30.3457 26.8771 39.3463
Pt 25.7771 26.2638 40.7701
Au 28.0765 29.1804 37.4149
Au 25.8039 27.4229 38.2485
Pt 25.567 30.262 38.0448
Au 36.3362 23.2017 15.7615
Au 34.0396 21.7898 14.6712
Au 31.7555 20.3973 13.7111
Pt 29.4712 19.0448 12.8642
Au 27.0946 17.6656 12.05
Au 36.4157 26.1072 15.6215
Au 34.0943 24.5752 14.6104
Pt 31.8251 23.2041 13.5755
Au 29.499 21.8478 12.7419
Pt 27.1868 20.5091 11.9012
Pt 34.0762 27.4779 14.582
Au 31.8537 26.0618 13.6966
Au 29.5234 24.7152 12.6987
Pt 27.1848 23.3111 11.8102
Pt 31.8228 28.9089 13.6929
Pt 29.5134 27.5015 12.6979
Pt 27.2153 26.1085 11.78
Pt 29.5288 30.3046 12.7335
Au 27.231 28.8985 11.8072
Pt 27.2372 31.7107 11.9493
Pt 12.9313 22.817 34.268
Pt 15.0834 21.6617 35.4753
Pt 17.2255 20.7485 36.7596
Au 17.7075 16.6039 39.0928
Pt 18.1412 15.3355 36.6502
Au 13.2187 26.6453 34.413
Pt 14.8936 24.4763 34.9842
Pt 17.0211 23.3545 36.3963
Pt 19.3051 22.298 37.6814
Pt 21.7091 21.0026 38.7698
Au 15.2068 28.3981 35.4553
Pt 16.8818 26.0827 35.862
Pt 19.0889 24.9701 37.1426
Pt 21.4428 23.7968 38.356
Au 17.3523 30.1056 36.3851
Pt 18.9762 27.7122 36.7116
Pt 21.1749 26.5584 37.9801
Pt 19.4289 31.7407 37.2451
Au 21.0663 29.4079 37.529
Pt 21.5024 33.4125 38.1577
Pt 13.384 23.2759 15.4741
Au 15.6269 21.919 14.573
Pt 17.9044 20.5223 13.6688
Au 20.1949 19.1156 12.766
Pt 22.4162 17.6915 11.9283
Pt 13.4608 26.1424 15.5073
Pt 15.6203 24.693 14.5163
Pt 17.8976 23.3016 13.5769
Pt 20.2347 21.9407 12.6504
Pt 22.4792 20.5332 11.8592
Au 15.6697 27.5154 14.5994
Au 17.946 26.1206 13.5927
Au 20.2178 24.7067 12.6568
Pt 22.5095 23.3256 11.7626
Au 18.0102 28.9487 13.6802
Pt 20.2816 27.511 12.6333
Pt 22.5367 26.1096 11.7819
Pt 20.2764 30.3322 12.7705
Au 22.5604 28.8785 11.8197
Au 22.5693 31.7084 11.9664
Au 34.1755 36.4461 23.2225
Au 35.1212 34.1935 21.8009
Au 36.0838 31.9146 20.4094
Pt 37.0631 29.5957 19.1044
Pt 37.8993 27.2339 17.8682
Pt 34.16 36.5638 26.0992
Pt 35.2335 34.2922 24.6427
Pt 36.2142 32.0792 23.2506
Au 37.166 29.78 21.9051
Pt 38.0927 27.4652 20.5861
Au 35.1124 34.4221 27.5614
Au 36.1044 32.1028 26.1801
Au 37.1245 29.8746 24.7528
Au 38.1695 27.5994 23.3579
Pt 36.1207 32.3367 29.1273
Au 37.0041 29.9368 27.6301
Pt 38.163 27.7035 26.1551
Pt 37.0645 30.0775 30.4884
Au 37.6065 27.6537 28.9464
Au 36.6104 23.2783 32.183
Au 15.3664 36.2875 23.2228
Au 14.4877 33.9808 21.8443
Au 13.6079 31.6257 20.4764
Au 12.7828 29.3348 19.1265
Pt 12.0052 27.0883 17.817
Pt 15.3332 36.2793 26.0674
Au 14.4084 34.0179 24.7418
Au 13.4591 31.7085 23.3928
Au 12.609 29.3958 22.0194
Pt 11.8371 27.0829 20.6364
Pt 14.362 34.0755 27.5676
Au 13.4222 31.7692 26.2309
Pt 12.4816 29.4647 24.8589
Au 11.7387 27.1268 23.479
Pt 13.4163 31.805 29.0104
Au 12.55 29.3952 27.6852
Au 11.7024 27.0719 26.3115
Au 12.562 29.512 30.5315
Au 11.7147 27.0403 29.2051
Au 11.71 27.1694 32.047
Pt 33.9726 12.7533 23.1349
Au 34.9541 15.0744 21.8207
Au 35.9106 17.4765 20.4713
Au 36.929 19.8834 19.2133
Au 37.8261 22.2935 17.9834
Au 33.9651 12.5056 26.0426
Au 35.0739 14.87 24.7501
Au 36.0418 17.2913 23.3724
Au 37.1116 19.8597 22.0613
Au 37.9965 22.6273 20.7724
Pt 35.1366 14.5309 27.624
Pt 36.2192 16.877 26.3873
Pt 37.1328 19.3265 24.8688
Au 37.9444 22.1937 23.7914
Pt 36.2198 16.5151 29.1808
Au 37.1749 18.9104 27.8986
Pt 37.9091 21.2212 26.5721
Pt 37.1957 18.7104 30.6604
Au 38.0641 21.1871 29.4498
Pt 38.0059 20.795 32.242
Au 15.2279 13.265 23.2334
Pt 14.3181 15.5409 21.8582
Pt 13.5352 17.7526 20.4837
Au 12.7332 20.0648 19.1632
Au 11.998 22.459 17.8619
Pt 15.2053 13.1905 26.1251
Pt 14.2362 15.4431 24.7271
Pt 13.3789 17.7069 23.3359
Pt 12.522 19.9964 21.9973
Pt 11.7787 22.3345 20.652
Pt 14.2845 15.3826 27.5114
Pt 13.3271 17.6455 26.1381
Au 12.4102 20.0058 24.8517
Pt 11.6736 22.3147 23.4294
Pt 13.3587 17.5836 28.955
Au 12.3638 19.9147 27.7215
Pt 11.6448 22.2979 26.3303
Au 12.4472 19.9777 30.6018
Pt 11.6183 22.3121 29.0813
Au 11.702 22.3812 31.9059
Pt 22.87 34.9249 36.3745
Au 21.7022 35.7884 34.0136
Au 20.3893 36.5989 31.6725
Au 19.0299 37.2308 29.3133
Pt 17.6947 37.8586 26.9363
Pt 25.6314 34.9967 36.7072
Pt 24.5326 35.785 34.1894
Au 23.301 36.6296 31.7334
Pt 21.9426 37.359 29.3945
Pt 20.5725 37.9847 27.06
Pt 27.4761 35.6652 33.8841
Pt 26.1418 36.5942 31.6815
Au 24.7637 37.3966 29.4005
Pt 23.3497 38.0554 27.06
Pt 28.999 36.6242 31.6486
Pt 27.5653 37.3906 29.3792
Au 26.1534 38.1374 27.0158
Pt 30.3924 37.3781 29.3329
Au 28.951 38.1073 26.9761
Pt 31.7424 38.0666 27.0096
Pt 20.8337 15.6198 35.4984
Au 21.856 13.6259 33.7981
Pt 20.3632 12.8742 31.4803
Pt 18.8371 12.2978 29.2015
Pt 17.4785 11.6328 26.9286
Pt 26.1663 14.0738 36.1424
Pt 24.6786 13.4238 33.8665
Au 23.1488 12.7207 31.5089
Pt 21.6321 11.9463 29.1591
Pt 20.2451 11.381 26.8873
Pt 27.5149 13.382 33.8728
Au 26.0072 12.6425 31.596
Au 24.4718 11.8371 29.1704
Pt 22.9962 11.2135 26.8363
Pt 28.8568 12.6182 31.4957
Au 27.3528 11.7987 29.1803
Au 25.8864 11.0689 26.8175
Au 30.1879 11.7994 29.1188
Au 28.7514 11.0217 26.8405
Pt 31.5666 11.1026 26.8109
Pt 23.4688 34.0574 13.3907
Au 21.9937 34.9507 15.5813
Pt 20.507 35.8447 17.833
Pt 19.0665 36.7671 20.0413
Pt 17.6845 37.6399 22.2716
Au 26.3549 34.0269 13.3682
Pt 24.851 35.069 15.5672
Au 23.4097 36.0067 17.8248
Pt 21.8833 36.8628 19.9994
Au 20.4719 37.743 22.2829
Pt 27.6486 35.0494 15.5286
Pt 26.202 36.1121 17.7401
Pt 24.7598 37.0656 19.9727
Au 23.2822 37.8252 22.249
Au 29.0368 36.0192 17.7868
Pt 27.5499 37.0554 19.9981
Au 26.1533 37.9096 22.2547
Pt 30.3145 37.0348 20.0462
Pt 28.9184 37.9382 22.2681
Au 31.7069 37.8682 22.285
Pt 23.2353 15.3392 13.3385
Pt 21.8225 14.3754 15.4905
Pt 20.3401 13.4781 17.7121
Au 18.9697 12.6124 20.013
Au 17.5363 11.7857 22.3026
Pt 26.123 15.2401 13.3101
Pt 24.6452 14.2536 15.4604
Au 23.1763 13.2838 17.6564
Pt 21.7564 12.3838 19.9636
Pt 20.3432 11.5506 22.2499
Au 27.5387 14.2954 15.4715
Pt 26.0035 13.3129 17.662
Au 24.563 12.29 19.9258
Pt 23.0831 11.414 22.2048
Au 29.0067 13.3694 17.6783
Au 27.3963 12.3288 19.9153
Pt 25.819 11.2676 22.1778
Au 30.289 12.3486 19.9528
Au 28.7114 11.2586 22.1729
Au 31.5551 11.3388 22.2157
Au 36.1602 17.609 35.3083
Au 34.817 28.1943 31.4624
Pt 34.9898 17.1786 31.5352
Au 35.0183 31.6079 31.6355
Au 33.8664 15.1491 30.013
Pt 33.8957 33.7878 30.0081
Pt 32.6371 13.1009 28.3924
Pt 32.8784 35.8987 28.4811
Pt 34.5062 19.8311 35.4704
Au 33.1751 30.0606 32.8923
Au 32.5233 15.7267 32.4159
Pt 32.6485 33.1182 32.3075
Pt 31.3677 13.7949 30.7246
Pt 31.5089 35.2564 30.771
Pt 28.64 15.3338 35.4852
Au 30.8389 31.3501 33.2458
Au 29.9693 14.5741 33.1051
Pt 30.179 34.4356 33.0044
Pt 28.5134 13.6315 37.4927
Au 28.4579 32.5551 33.7731
Pt 35.4766 20.7317 16.9935
Au 35.608 28.5755 16.8285
Pt 34.5246 18.3448 18.2181
Au 34.7354 30.9615 18.0905
Pt 33.6099 16.0272 19.4552
Au 33.7655 33.2533 19.4368
Au 32.6156 13.7519 20.8789
Au 32.7556 35.5484 20.9081
Au 33.1687 19.3705 15.9878
Au 33.2939 29.9555 15.8256
Pt 32.2572 16.9789 17.2724
Pt 32.4497 32.3259 17.1581
Pt 31.3373 14.7203 18.5456
Au 31.428 34.6064 18.5759
Pt 30.9178 17.9515 15.0844
Au 31.0144 31.3286 14.9036
Pt 29.99 15.6356 16.3525
Au 30.038 33.6678 16.2926
Pt 28.5845 16.6185 14.172
Pt 28.7306 32.7127 14.049
Au 13.7548 20.2056 33.3702
Au 13.9802 28.9488 32.9097
Pt 14.4275 18.2314 31.5183
Au 14.7772 31.1855 31.3851
Au 15.5326 15.9948 29.9908
Au 15.6625 33.4311 29.9503
Pt 16.5237 13.7982 28.4866
Au 16.6527 35.6541 28.4235
Au 16.3428 19.0893 34.1712
Au 16.0909 30.6158 33.8571
Au 18.5285 17.1056 34.6411
Au 16.9922 32.8427 32.3871
Au 17.8058 14.5101 30.9626
Au 17.9794 35.0657 30.8572
Pt 17.4416 18.21 36.8647
Pt 18.333 32.3004 34.7864
Pt 19.5131 14.9695 33.1323
Au 19.3088 34.4301 33.2349
Pt 19.8354 17.1295 37.3741
Pt 20.4372 33.8875 35.7115
Pt 14.1204 20.8939 16.8529
Pt 14.2039 28.486 16.8477
Pt 14.8918 18.5817 18.1654
Pt 15.0345 30.8243 18.1189
Pt 15.7377 16.3128 19.4999
Au 15.8385 33.1472 19.4539
Au 16.6092 14.0705 20.8935
Au 16.7344 35.4122 20.9044
Au 16.3814 19.5252 15.9111
Au 16.4261 29.9342 15.9112
Pt 17.1543 17.1982 17.2459
Pt 17.2484 32.2815 17.2362
Pt 18.051 14.8798 18.574
Pt 18.126 34.5464 18.6483
Au 18.6659 18.1007 15.0169
Au 18.7257 31.3455 14.9634
Pt 19.4529 15.7572 16.2941
Au 19.5516 33.6037 16.3898
Pt 20.9402 16.6753 14.1357
Au 21.0839 32.6786 14.1457
Pt 40.7055 24.0325 15.3229
Pt 40.594 23.382 18.0986
Pt 40.6531 23.3127 20.861
Pt 40.4446 23.2726 23.4856
Pt 41.3878 25.7969 26.2666
Pt 40.2927 27.9831 27.6156
Pt 40.1292 28.0672 30.2507
Au 38.4033 25.2223 32.9075
Au 8.98254 24.7291 14.9749
Au 8.81893 24.7453 17.847
Pt 8.64893 24.7936 20.6053
Pt 8.61968 24.8729 23.3709
Au 8.58516 24.8462 26.1575
Pt 8.57194 24.8924 29.1113
Au 8.39931 24.9102 31.9296
Au 12.038 23.8156 38.7235
Pt 14.9203 40.6834 24.3428
Au 17.7058 40.9398 24.3859
Pt 20.4612 41.0418 24.5402
Au 23.2568 41.0798 24.5101
Au 26.0899 41.111 24.5294
Pt 28.8933 41.2086 24.4913
Au 31.6175 41.1673 24.3901
Au 34.429 41.0193 24.3519
Au 14.6018 8.72978 24.4889
Pt 17.4381 8.54671 24.3693
Au 20.1253 8.30101 24.4004
Pt 22.9297 8.2702 24.3724
Au 25.7907 8.05989 24.3186
Pt 28.6671 7.97005 24.2398
Pt 31.4759 8.06152 24.2552
Au 34.216 8.1129 24.1924
Au 24.6923 14.8727 38.3586
Pt 25.67 16.9396 39.734
Au 27.0556 13.0228 41.7734
Pt 23.7526 22.802 39.5686
Pt 23.2586 27.3354 41.2422
Au 25.0764 30.6425 42.791
Au 27.6541 29.5866 42.2714
Pt 25.0613 31.7687 40.2058
Pt 24.7312 15.0866 8.89405
Pt 24.7953 17.8074 8.78028
Pt 24.8124 20.5495 8.61309
Au 24.8315 23.3036 8.64689
Pt 24.8989 26.1314 8.66169
Pt 24.9227 28.8558 8.67827
Pt 24.8958 31.6472 8.76556
Pt 24.8405 34.445 8.98149
Au 36.0947 23.9861 34.8091
Pt 32.2923 21.2084 36.5498
Au 35.4894 23.2665 39.3338
Pt 28.5307 23.749 37.886
Au 33.5278 15.7517 36.1433
Pt 27.2602 16.1435 37.7036
Au 36.64 29.453 33.0949
Au 39.0198 27.396 36.7629
Pt 33.0112 23.1294 38.24
Pt 32.1493 21.609 40.0814
Pt 26.0364 24.5824 38.7129
Au 30.8878 17.5627 40.4802
Pt 36.428 26.4879 35.9803
Pt 34.4978 27.6088 37.3025
Au 33.1484 24.3403 40.7245
Pt 30.7269 24.1593 39.5077
Au 25.7455 20.3895 42.6972
Pt 34.0529 30.1161 36.7775
Pt 32.1991 28.5066 38.1178
Au 30.5614 25.6229 41.8088
Au 28.4281 21.2355 42.6178
Pt 31.6162 30.9822 37.2168
Pt 29.9847 29.6771 39.0472
Au 27.9825 26.7836 42.4766
Pt 29.6241 30.4653 35.5275
Pt 27.9367 27.9975 40.0006
Au 27.0576 31.4206 35.9265
Pt 38.5362 23.0033 14.2396
Au 36.2775 21.7763 13.1812
Pt 33.9624 20.3082 12.158
Pt 31.7192 19.0436 11.2992
Au 29.3593 17.6978 10.5115
Pt 27.072 16.3269 9.68529
Au 38.8651 25.9585 14.2269
Au 36.4487 24.5916 13.1548
Pt 34.1698 23.1653 12.0199
Pt 31.8438 21.7744 11.1402
Pt 29.5272 20.4919 10.3466
Au 27.1045 19.1503 9.52205
Pt 36.3904 27.4286 13.2331
Au 34.1933 25.999 12.1453
Au 31.9241 24.5883 11.1887
Au 29.5338 23.2901 10.32
Au 27.2039 21.8987 9.438
Au 34.1144 28.9213 12.2145
Au 31.8347 27.4456 11.2653
Pt 29.5219 26.11 10.2739
Pt 27.2293 24.7451 9.43372
Pt 31.8701 30.2759 11.377
Au 29.5813 28.9157 10.2566
Pt 27.2808 27.4752 9.35866
Au 29.5086 31.8024 10.4292
Au 27.2576 30.3369 9.39676
Pt 27.2035 33.147 9.66414
Au 8.3899 21.314 35.4617
Au 10.3966 19.9183 36.7266
Au 13.309 16.4181 36.6408
Au 15.2035 17.7086 38.3535
Au 21.5987 17.4813 41.7851
Pt 23.3269 15.9926 40.4896
Pt 14.5054 23.4074 37.4839
Au 11.9029 26.6081 38.3403
Pt 14.8733 20.7158 38.1145
Au 16.9882 22.1862 39.1974
Au 19.4236 20.8262 40.3399
Pt 22.1591 20.0736 41.1044
Pt 11.5655 29.0966 34.1154
Pt 14.3999 26.2427 37.0574
Au 16.596 25.0207 38.5183
Pt 21.1121 25.5819 40.5189
Pt 21.3321 22.7917 40.7998
Pt 14.0972 28.1326 38.9185
Au 16.5226 27.8094 37.9555
Pt 18.7475 26.6779 39.3047
Au 23.198 26.194 43.6607
Au 16.8184 31.9884 38.6636
Au 18.6122 29.509 38.7853
Au 20.9007 28.3015 40.1158
Pt 20.6827 31.1368 39.6555
Au 22.8269 28.9825 43.418
Pt 22.6119 32.8159 40.6177
Au 11.1002 23.2924 13.9009
Pt 13.3649 21.9294 13.022
Au 15.6006 20.5022 12.2107
Au 17.8543 19.0979 11.2943
Pt 20.1847 17.6815 10.3858
Pt 22.4107 16.3333 9.56751
Pt 11.1878 26.178 14.0289
Au 13.3379 24.6906 12.9701
Pt 15.6179 23.3233 12.0603
Au 17.8948 21.9204 11.1715
Au 20.1228 20.511 10.2464
Au 22.4455 19.1684 9.4682
Au 13.2959 27.5598 13.0813
Au 15.6249 26.1044 12.0798
Pt 17.8998 24.6902 11.1478
Pt 20.1847 23.3658 10.2367
Pt 22.484 21.9212 9.45533
Au 15.657 28.975 12.1424
Au 17.9118 27.5175 11.1116
Au 20.1972 26.0972 10.2048
Pt 22.4503 24.7414 9.3695
Au 17.8997 30.3466 11.2776
Au 20.1932 28.9631 10.2339
Pt 22.6046 27.4596 9.431
Au 20.2492 31.8167 10.3784
Au 22.5413 30.3279 9.41358
Pt 22.5464 33.106 9.61509
Au 35.5941 38.8637 23.019
Au 38.6874 36.7767 20.0434
Pt 37.4124 34.3414 20.3014
Au 40.7869 32.4698 20.2495
Pt 39.2765 29.7882 17.5994
Pt 40.0136 27.5682 16.3558
Au 35.5661 38.9065 25.9317
Au 37.7494 39.0364 21.4004
Pt 37.5582 34.4818 23.1626
Au 41.7167 30.2231 18.887
Pt 40.4602 27.8844 21.9223
Pt 41.4116 25.7502 20.4872
Pt 36.4796 36.8608 27.4338
Pt 36.6007 36.692 24.5388
Pt 38.5432 32.3485 24.6353
Pt 39.6033 30.1603 23.2746
Au 41.6103 25.73 23.3275
Au 37.4847 34.7112 28.9303
Au 37.516 34.5732 26.0453
Au 40.9395 32.6358 23.2524
Au 42.9543 28.2179 23.2626
Pt 38.432 32.57 30.4229
Pt 38.4393 32.4436 27.5134
Au 39.5238 30.173 26.073
Pt 39.2963 30.4786 31.7778
Au 39.3344 30.2861 28.9506
Pt 37.8848 27.6251 31.6264
Pt 13.9295 38.6106 22.9329
Au 13.0214 36.3523 21.6738
Au 12.1434 33.9701 20.3669
Au 11.2188 31.6724 18.9924
Pt 10.3774 29.3379 17.6964
Pt 9.74844 27.0756 16.3797
Au 13.899 38.5635 25.8611
Pt 12.9156 36.3523 24.5288
Au 11.9272 34.0569 23.2035
Pt 11.0273 31.7025 21.9011
Au 10.2499 29.4231 20.5014
Pt 9.55332 27.1117 19.1825
Pt 12.9073 36.3956 27.349
Au 11.8777 34.1553 26.0149
Au 10.914 31.8035 24.7021
Pt 10.1019 29.4854 23.3726
Pt 9.46474 27.162 21.9664
Au 11.9323 34.1337 28.8233
Pt 11.0185 31.6703 27.5462