2057
Atoms. Timestep: 20253
Au 25.1815 24.5728 25.949
Au 27.3782 24.5444 24.3392
Au 27.6041 24.5549 27.4556
Au 22.8246 24.6014 24.3217
Au 22.8754 24.5592 27.2765
Pt 23.7484 26.8734 25.7893
Au 26.5765 26.85 25.9014
Au 23.667 22.2834 25.67
Au 26.5418 22.2435 25.7664
Au 25.2373 22.9808 28.206
Au 25.3369 25.944 28.3907
Au 25.0378 23.1628 23.4284
Au 25.1044 25.9975 23.5158
Au 29.6879 24.6147 22.6753
Au 29.8448 24.5094 25.3709
Au 31.5577 22.1431 28.2171
Pt 20.4903 24.5982 22.5933
Au 20.4364 24.5412 25.6684
Au 20.4654 24.5051 28.6131
Pt 22.2875 29.0973 25.6554
Pt 25.061 29.2133 25.6491
Au 27.9168 29.2162 25.8046
Au 22.1422 19.9863 25.3367
Au 24.9981 19.8932 25.4332
Au 27.9085 19.9223 25.6545
Au 24.6183 21.2459 30.492
Au 24.8586 24.0901 30.6668
Au 25.1206 27.1912 30.8443
Au 24.9911 21.7821 20.9633
Au 25.0433 24.6493 20.997
Pt 25.0514 27.4185 21.146
Au 29.4893 23.174 29.7615
Au 27.7622 27.7819 30.2336
Au 27.3637 23.1951 21.8749
Au 27.3738 26.0696 21.9404
Au 22.5866 22.8041 29.4305
Au 22.7963 25.9474 29.6781
Au 22.7262 23.1827 21.7868
Au 22.7257 26.0202 21.8504
Au 28.8696 26.9598 24.3405
Pt 31.9458 26.9096 28.3473
Au 21.3414 26.8578 24.2102
Au 21.3331 26.8668 27.1065
Pt 28.8299 22.1786 24.0848
Au 29.0263 22.32 26.8973
Au 21.2892 22.3034 24.0325
Au 21.2405 22.1729 26.9642
Au 23.6617 28.1968 28.1611
Pt 26.3549 28.5013 28.0274
Au 23.5536 20.65 27.8963
Pt 26.3477 20.5201 27.9399
Au 23.6117 28.289 23.3717
Pt 26.4794 28.3398 23.4911
Pt 23.5416 20.7935 23.0906
Au 26.4289 20.819 23.2492
Pt 31.9833 24.6153 21.1129
Au 32.2973 24.5541 23.9571
Au 33.9919 22.0855 26.3936
Au 34.0819 22.188 29.1841
Pt 18.183 24.6381 21.0669
Au 18.1296 24.5801 23.9907
Au 18.0083 24.5164 27.0653
Au 18.0793 24.446 30.0394
Au 20.6995 31.3498 25.4125
Pt 23.57 31.5048 25.4471
Pt 26.3518 31.6013 25.5393
Pt 29.1547 31.5711 25.6652
Au 20.6477 17.6488 25.0188
Au 23.4738 17.5263 25.1104
Au 26.332 17.5096 25.2577
Au 29.2612 17.5467 25.5992
Au 24.3257 19.5252 32.6744
Au 27.3664 25.0077 30.2151
Au 27.3206 26.3328 32.7084
Au 24.6685 29.1873 32.7162
Au 24.95 20.4719 18.4881
Au 24.9686 23.2339 18.4832
Au 25.0129 26.045 18.5747
Au 25.065 28.8089 18.6576
Au 30.437 24.7652 27.8854
Au 27.1043 22.0833 30.173
Pt 33.0971 29.2771 28.0484
Pt 34.3802 27.0684 29.4722
Au 29.835 27.9945 32.249
Au 29.6829 23.1719 20.2503
Au 27.3016 21.8058 19.3657
Au 29.7212 26.0825 20.3009
Au 27.3635 24.6323 19.4099
Au 27.3513 27.4318 19.4707
Au 20.1302 22.6063 30.7969
Pt 22.1353 20.921 31.5868
Au 20.2917 26.1059 30.9846
Au 22.3428 24.1528 31.8161
Au 22.5015 27.6669 31.8953
Au 20.414 23.2326 20.182
Pt 22.6309 21.7798 19.326
Pt 20.3892 26.0506 20.2074
Au 22.6629 24.6297 19.3486
Au 22.7174 27.4461 19.4513
Au 30.2599 29.349 24.1117
Au 31.2178 26.9737 22.6872
Au 30.5666 28.9564 26.8818
Au 31.4505 26.6981 25.5935
Pt 32.7975 24.4959 26.8153
Au 19.8649 29.1509 24.049
Au 19.0163 26.8763 22.532
Pt 19.7752 29.1658 26.9531
Au 18.9041 26.8702 25.5486
Au 18.8898 26.8561 28.4819
Au 30.1864 19.8594 23.8771
Au 31.0899 22.2062 22.5126
Au 30.5678 19.9652 26.6546
Au 31.4249 22.2681 25.3238
Pt 31.2644 20.0466 30.2112
Au 19.7609 19.9748 23.782
Au 18.9455 22.3245 22.4291
Pt 19.6894 19.8449 26.694
Au 18.835 22.2137 25.405
Au 18.8484 22.1252 28.2933
Pt 23.249 29.8382 30.2864
Au 22.0034 30.5639 27.8485
Au 25.9698 29.9796 30.3163
Au 24.7576 30.7784 27.863
Au 27.5348 30.8875 28.0064
Au 23.2234 18.8397 30.0776
Au 21.9087 18.3228 27.5421
Au 26.0565 18.89 30.1545
Au 24.7849 18.1823 27.6703
Au 27.6152 18.1253 27.8794
Au 23.5768 29.7326 20.9279
Pt 22.1793 30.5855 23.2167
Au 26.4854 29.7084 21.0077
Au 25.0118 30.6586 23.2378
Au 27.8923 30.6731 23.3379
Pt 23.4896 19.4655 20.6586
Pt 22.055 18.5484 22.8148
Pt 26.3197 19.3949 20.7569
Pt 24.8832 18.4416 22.8833
Au 27.7693 18.4896 23.049
Au 28.9341 20.5053 28.8449
Au 28.8144 27.0985 27.6839
Au 28.7283 20.8005 21.6096
Au 28.8543 28.3613 21.8166
Au 20.9685 20.416 29.1503
Au 21.1068 28.3605 29.4368
Au 21.2146 20.8359 21.5216
Au 21.222 28.3496 21.693
Pt 34.2451 24.6048 19.6255
Au 34.5754 24.5668 22.3538
Pt 36.1683 22.1976 24.5903
Pt 36.6057 22.1548 27.1815
Pt 34.4559 22.4472 31.9131
Au 15.89 24.6555 19.5455
Pt 15.7793 24.6095 22.3526
Au 15.6996 24.5803 25.3875
Pt 15.5871 24.4261 28.4058
Pt 15.7633 24.3567 31.3238
Au 19.0926 33.6711 25.1909
Au 22.0112 33.8369 25.1968
Pt 24.8317 33.9444 25.2847
Pt 27.6132 33.9808 25.3262
Au 30.5264 33.8689 25.3992
Au 19.0494 15.3714 24.7224
Pt 21.8692 15.1198 24.7871
Pt 24.6708 15.0711 24.8536
Pt 27.6218 15.181 25.2023
Pt 30.5278 15.2289 25.464
Au 24.0921 17.6701 34.7254
Au 24.3243 22.4182 33.0689
Pt 23.5388 24.7162 35.371
Au 24.716 25.3429 33.0349
Au 24.5131 31.0729 34.721
Au 24.8875 19.1536 16.065
Pt 24.9297 21.8988 15.9664
Au 24.9975 24.6495 16.0282
Au 24.9729 27.4814 16.1
Au 25.005 30.2359 16.1957
Pt 31.9588 20.5264 32.962
Au 29.2791 19.1641 33.7968
Au 28.1132 19.4214 36.406
Au 31.8499 22.6017 31.183
Au 26.9868 23.4191 32.6255
Au 28.7023 27.4176 34.8686
Au 32.8301 24.6673 29.6734
Au 29.9182 26.1389 30.1186
Pt 27.928 27.1393 37.5919
Pt 31.9066 23.2385 18.6884
Pt 29.6035 21.7748 17.8263
Pt 27.2472 20.4695 16.8993
Pt 31.9534 26.053 18.7345
Au 29.6599 24.6364 17.8324
Au 27.2985 23.2237 16.877
Pt 29.6806 27.4621 17.8859
Au 27.3219 26.0698 16.9485
Pt 27.3822 28.8475 16.9938
Pt 17.6489 22.4085 32.0892
Pt 19.6498 20.6861 32.8491
Au 21.8912 19.3552 33.8907
Pt 17.852 26.3126 32.1698
Pt 19.5468 24.2108 32.8449
Pt 21.5225 22.3886 33.6271
Pt 19.9142 28.0225 33.0256
Pt 21.5948 25.845 33.669
Pt 22.1081 29.5584 33.936
Au 18.1203 23.254 18.6294
Pt 20.3664 21.8829 17.7638
Pt 22.5929 20.5108 16.8697
Pt 18.0997 26.1036 18.6864
Pt 20.3395 24.6873 17.7689
Au 22.6302 23.2386 16.8758
Au 20.3531 27.482 17.8488
Au 22.6533 26.0654 16.9058
Au 22.6464 28.8753 16.9899
Au 31.551 31.7503 23.7684
Au 32.5689 29.3947 22.3005
Au 33.4335 26.9821 21.0266
Au 32.0084 31.3504 26.4447
Au 32.8501 29.0662 25.115
Pt 33.8226 26.8299 23.8095
Au 35.285 29.4981 26.3507
Au 34.9249 24.5588 25.2272
Au 34.052 26.9331 26.6379
Au 18.2448 31.4542 23.8411
Au 17.4684 29.1894 22.3673
Au 16.6618 26.9322 20.9709
Pt 18.1693 31.4085 26.749
Au 17.3648 29.1936 25.352
Au 16.5241 26.8761 23.8582
Au 17.312 29.1953 28.2654
Au 16.4767 26.8569 26.867
Au 16.4489 26.7948 29.7821
Au 31.5108 17.4624 23.6956
Pt 32.4545 19.8399 22.1455
Au 33.2925 22.2111 20.8358
Au 32.0466 17.6165 26.4527
Au 32.8347 19.8753 24.9383
Pt 33.6639 22.1747 23.5802
Au 32.6716 17.5968 29.8275
Au 33.1035 19.7402 28.0051
Pt 33.7899 19.9901 30.9178
Au 18.1968 17.6794 23.4492
Au 17.3931 20.0115 22.1608
Pt 16.6301 22.3022 20.8561
Au 18.1374 17.5713 26.345
Au 17.2627 19.8974 25.0789
Au 16.4797 22.2967 23.748
Au 17.2541 19.8317 27.9436
Au 16.361 22.2257 26.7177
Au 16.4257 22.1035 29.5627
Au 23.1372 31.6248 32.359
Au 21.8087 32.2815 29.9811
Au 20.4582 32.964 27.6099
Au 25.9917 31.846 32.4191
Au 24.6005 32.5104 30.0385
Au 23.2725 33.2128 27.6278
Pt 27.3525 32.7643 30.1265
Au 26.0423 33.3163 27.6929
Au 28.8034 33.3935 27.7537
Pt 22.813 17.0899 32.1376
Au 21.6415 16.5601 29.683
Au 20.3442 15.9575 27.1975
Au 25.5634 17.0201 32.1446
Pt 24.4645 16.3852 29.7476
Au 23.1671 15.7853 27.2574
Pt 27.234 16.2866 29.92
Au 26.0153 15.7328 27.3951
Pt 28.8274 15.6836 27.693
Au 23.5458 31.1846 18.4209
Au 22.0518 32.0786 20.7246
Au 20.5521 32.9028 22.9214
Au 26.4583 31.1705 18.4765
Au 24.9428 32.1711 20.6945
Au 23.459 33.002 22.9814
Au 27.836 32.1246 20.8218
Au 26.3299 33.0543 23.0675
Pt 29.1338 33.0634 23.1559
Au 23.4434 18.1221 18.2121
Au 21.9632 17.2041 20.4001
Pt 20.5802 16.2148 22.5444
Pt 26.2817 18.0611 18.3297
Pt 24.8287 17.0778 20.474
Au 23.3616 16.1236 22.6525
Pt 27.675 17.104 20.5466
Au 26.2187 16.0873 22.7595
Au 29.1038 16.1495 23.0041
Pt 31.0819 18.0487 32.0508
Au 31.1521 30.6641 31.8979
Pt 30.2623 18.0255 28.4778
Pt 30.1514 31.0871 28.3399
Au 28.7176 18.7869 30.8354
Au 28.7366 30.3133 30.5036
Pt 31.0079 20.7512 19.9891
Pt 31.1362 28.4208 20.1053
Au 30.0906 18.4156 21.3746
Au 30.1912 30.7282 21.5338
Au 28.6294 19.403 19.1422
Au 28.7797 29.7578 19.2608
Pt 18.5188 20.3185 30.4341
Pt 18.6828 28.5775 30.672
Pt 19.4053 18.154 28.8554
Pt 19.525 30.7088 29.1685
Pt 20.6602 18.6629 31.2793
Pt 20.8225 30.0922 31.5787
Pt 18.9093 20.8965 19.9428
Pt 18.8589 28.3863 20.0327
Pt 19.6765 18.5761 21.2221
Au 19.6887 30.6546 21.5143
Pt 21.1505 19.5021 19.0576
Au 21.1831 29.8075 19.2525
Pt 36.5007 24.5751 18.1836
Pt 36.8804 24.6288 20.8794
Au 38.3121 22.8058 22.7845
Au 38.8579 22.177 25.411
Pt 38.9304 23.1428 28.0297
Pt 36.3689 20.5147 31.4879
Pt 13.5896 24.7846 18.0278
Au 13.4494 24.6732 20.8269
Au 13.4191 24.6358 23.6997
Pt 13.3261 24.4577 26.6895
Pt 13.2083 24.3891 29.5276
Au 13.3491 24.3776 32.4292
Au 17.6361 36.0399 24.9326
Au 20.4633 36.1604 24.953
Pt 23.3096 36.2529 25.0556
Pt 26.1462 36.3406 25.0788
Au 28.9869 36.3769 25.0877
Au 31.9025 36.2476 25.2443
Pt 17.5291 13.1212 24.4815
Pt 20.3163 12.8995 24.5131
Pt 23.083 12.7387 24.5894
Au 25.9992 12.7624 24.7359
Au 28.8937 12.8786 24.9525
Au 31.7471 12.9115 25.127
Au 22.1109 15.6393 40.5543
Pt 25.1049 21.5354 37.7235
Au 23.4206 22.1102 35.7113
Pt 22.4425 28.2607 39.5374
Au 23.5179 29.2165 36.5618
Au 24.3078 32.7564 36.8559
Au 24.8066 17.762 13.6647
Pt 24.8663 20.5993 13.5964
Pt 24.8952 23.3135 13.5776
Au 24.9334 26.1342 13.621
Pt 24.9281 28.8954 13.6532
Pt 24.9669 31.6575 13.8221
Pt 34.5175 20.3425 33.6053
Au 31.8418 18.5094 34.7638
Au 28.4265 21.7767 34.5185
Au 25.6765 20.4532 35.0841
Au 33.1195 24.5894 32.8555
Pt 33.7033 26.5769 34.8915
Au 28.6169 24.5789 34.7228
Au 26.9121 20.3862 32.4994
Pt 34.6711 27.181 32.3373
Au 29.6593 24.4155 32.2026
Au 23.745 27.3388 34.6064
Au 32.2044 26.7685 31.3637
Au 25.1547 24.5069 37.6351
Au 26.1575 28.7001 35.2585
Pt 34.0738 23.2249 17.2027
Au 31.791 21.8977 16.2253
Au 29.5017 20.4412 15.3792
Au 27.1863 19.1513 14.4827
Au 34.155 26.0165 17.1812
Pt 31.8623 24.7031 16.2664
Au 29.555 23.2913 15.3103
Pt 27.1914 21.9442 14.4027
Pt 31.8754 27.4942 16.3263
Au 29.5736 26.1015 15.3878
Pt 27.2441 24.6808 14.3843
Au 29.6034 28.8904 15.4171
Au 27.2641 27.497 14.4847
Au 27.2937 30.3196 14.5855
Pt 15.2457 22.3432 33.33
Pt 17.1347 20.4894 34.162
Au 19.3349 18.9792 35.0858
Au 21.4989 17.2965 35.9848
Au 15.4419 26.4064 33.2905
Pt 17.0349 24.3004 33.9746
Pt 18.8433 22.4174 34.7193
Au 20.9301 21.0966 35.9492
Au 17.3936 28.2315 34.2651
Au 19.0125 26.0333 34.7812
Au 20.928 24.0478 35.5534
Au 19.6714 29.8274 35.1401
Pt 21.0963 27.5457 35.5756
Pt 21.9531 31.3646 36.0115
Au 15.7398 23.3085 17.0769
Pt 18.0374 21.9295 16.1864
Au 20.3037 20.5682 15.3078
Au 22.5525 19.1341 14.461
Pt 15.8181 26.1598 17.1599
Au 18.0208 24.7585 16.201
Au 20.292 23.3427 15.2974
Pt 22.571 21.9444 14.3778
Pt 18.0573 27.593 16.3327
Au 20.3327 26.1978 15.3373
Au 22.6307 24.7242 14.4129
Pt 20.3569 28.9584 15.4192
Pt 22.6051 27.5444 14.4452
Au 22.6493 30.3049 14.6199
Pt 33.0281 34.016 23.4685
Pt 33.9701 31.7231 21.9739
Pt 34.8759 29.3918 20.651
Au 35.7071 26.9588 19.428
Au 33.3402 33.8743 26.1144
Au 34.2272 31.6403 24.7105
Au 35.1168 29.3153 23.4266
Pt 36.017 27.0432 22.1487
Pt 34.3927 31.8105 27.8306
Pt 36.278 27.1525 25.0424
Au 37.1013 24.9851 23.6753
Au 35.5578 29.6387 29.1811
Pt 37.5113 24.8666 26.4773
Au 35.2511 24.6442 28.0826
Pt 16.7852 33.7925 23.5991
Au 15.9607 31.5163 22.2242
Pt 15.1686 29.2406 20.7735
Pt 14.3757 27.0118 19.4102
Pt 16.6437 33.7659 26.4865
Pt 15.832 31.5351 25.186
Au 14.9813 29.2418 23.7175
Pt 14.1967 26.9789 22.2191
Pt 15.745 31.5472 28.0001
Au 14.9103 29.2584 26.6282
Au 14.1129 26.9445 25.1855
Pt 14.8603 29.3129 29.4585
Au 14.0791 26.7846 28.1142
Au 13.9863 26.8274 30.9464
Pt 32.8062 15.1511 23.4773
Au 33.7707 17.4802 21.9561
Pt 34.627 19.7661 20.5027
Pt 35.5153 22.1544 19.216
Pt 33.9177 15.0948 29.6711
Au 34.2618 17.4475 24.6996
Pt 34.9894 19.8065 23.2739
Au 35.86 22.0784 21.873
Pt 33.4962 13.1163 31.6098
Au 34.6382 17.2447 27.8409
Pt 35.3379 19.7632 26.0814
Pt 35.4012 17.7591 30.5501
Au 35.7937 19.9163 28.8199
Pt 36.2655 18.2753 33.1039
Pt 16.6356 15.4171 23.1786
Pt 15.8217 17.6854 21.8881
Pt 15.0383 20.0038 20.6566
Pt 14.3117 22.3569 19.3742
Pt 16.5203 15.2634 25.9554
Pt 15.6651 17.5583 24.6949
Au 14.8918 19.9128 23.4559
Au 14.1535 22.2817 22.1566
Au 15.6279 17.4974 27.4978
Au 14.7795 19.8743 26.3356
Au 14.0038 22.2587 25.0703
Pt 14.7446 19.7436 29.1362
Pt 13.9299 22.1421 27.9552
Au 14.022 22.0853 30.7599
Pt 23.0097 33.4662 34.4795
Au 21.6953 34.0953 32.0794
Au 20.3801 34.8103 29.7169
Au 18.9875 35.4237 27.3295
Pt 25.8355 33.6905 34.5508
Au 24.4798 34.2846 32.1628
Pt 23.21 35.0172 29.7455
Au 21.8304 35.6235 27.4022
Pt 27.2294 34.4845 32.2731
Pt 25.9153 35.1105 29.8642
Pt 24.6026 35.7145 27.4267
Au 28.6675 35.208 29.9684
Au 27.3417 35.7888 27.4952
Au 30.1709 35.8727 27.5987
Au 22.5549 15.289 34.2169
Pt 21.2692 14.7497 31.7361
Au 20.0679 14.1672 29.2595
Pt 18.7736 13.6153 26.8421
Au 25.3676 15.1998 34.2479
Pt 24.0802 14.604 31.8384
Au 22.8562 14.0224 29.385
Pt 21.5485 13.3896 26.9296
Pt 26.8498 14.4161 31.9688
Au 25.6739 13.9486 29.5135
Au 24.4073 13.3264 27.0136
Pt 28.4587 13.8383 29.7256
Pt 27.326 13.372 27.28
Pt 30.09 13.3321 27.4899
Pt 23.5142 32.6373 16.0273
Au 22.0337 33.5026 18.3006
Pt 20.4929 34.3749 20.4995
Pt 19.0595 35.2133 22.6518
Au 26.3981 32.6256 16.0581
Pt 24.8849 33.6413 18.2373
Pt 23.4044 34.5437 20.5196
Pt 21.909 35.3084 22.686
Au 27.7368 33.5831 18.3106
Au 26.2425 34.6039 20.5036
Au 24.7704 35.4232 22.8074
Au 29.1604 34.5283 20.6131
Au 27.6585 35.4521 22.8272
Au 30.5344 35.3531 22.9065
Pt 23.3461 16.7116 15.7942
Au 21.8909 15.7798 17.911
Pt 20.4998 14.859 20.1276
Pt 19.0487 13.9634 22.2944
Au 26.2102 16.6878 15.8613
Pt 24.7424 15.6595 18.0053
Au 23.3117 14.7336 20.1835
Pt 21.8392 13.7607 22.3505
Au 27.6122 15.7104 18.1389
Pt 26.1145 14.7285 20.2951
Pt 24.6177 13.6867 22.4309
Au 29.079 14.8159 20.4183
Au 27.4965 13.7095 22.5833
Au 30.4608 13.8656 22.7612
Pt 33.6642 17.9326 32.6327
Pt 35.4273 24.9691 30.9367
Au 32.3103 15.5641 31.8252
Pt 32.4392 31.4407 29.614
Pt 31.5427 15.5759 28.1344
Au 31.5382 33.5066 28.1026
Au 30.6261 16.1192 33.9847
Pt 30.8598 28.8486 29.7152
Au 29.9592 16.1751 30.3048
Pt 30.1322 32.877 30.3538
Au 28.3226 16.732 32.5088
Au 27.4363 29.2584 32.7945
Au 33.2151 20.7704 18.3801
Au 33.3617 28.4392 18.5294
Pt 32.3265 18.3881 19.7009
Pt 32.5015 30.7837 19.8206
Pt 31.4574 16.1632 21.1053
Au 31.5351 33.0778 21.3246
Pt 30.9133 19.334 17.5759
Au 31.057 29.8597 17.6492
Pt 30.0139 17.0529 18.8781
Au 30.137 32.1564 19.0368
Au 28.5915 18.0206 16.6877
Pt 28.7477 31.2286 16.7722
Au 16.0065 20.1653 31.6043
Pt 16.289 28.731 31.7566
Au 16.8839 18.0055 29.9902
Pt 17.1235 30.9323 30.386
Pt 17.8157 15.7749 28.4014
Au 18.0009 33.1199 28.8599
Au 18.1397 18.4652 32.4884
Pt 18.3872 30.3803 32.7886
Au 19.0982 16.3391 30.8843
Au 19.3531 32.5034 31.2683
Au 20.365 16.8784 33.3899
Pt 20.6864 31.9178 33.6354
Au 16.5042 20.9401 18.4311
Pt 16.5718 28.4177 18.5413
Au 17.3018 18.6024 19.7004
Pt 17.3523 30.7039 19.8697
Au 18.1844 16.2735 20.9966
Pt 18.1612 32.9763 21.2905
Au 18.8305 19.5784 17.5118
Au 18.8458 29.8776 17.6575
Au 19.6062 17.1804 18.7607
Au 19.6343 32.1492 19.0965
Pt 21.0804 18.1367 16.6311
Pt 21.1523 31.2581 16.831
Au 38.682 24.5983 16.5935
Pt 39.0517 25.01 19.4017
Pt 39.4561 25.3482 22.1136
Au 39.6722 25.2874 24.8458
Pt 39.9707 25.5656 27.6067
Pt 37.7695 25.2968 29.2594
Pt 41.4081 23.594 29.0464
Au 11.3597 24.7923 16.4821
Pt 11.1249 24.7257 19.3321
Au 11.0185 24.6416 22.1129
Au 11.0024 24.5486 24.9667
Au 10.9183 24.4754 27.8422
Pt 10.7822 24.3815 30.6691
Pt 10.9173 24.2718 33.4686
Pt 16.2045 38.3822 24.6797
Pt 18.9827 38.5116 24.7742
Au 21.7655 38.596 24.8507
Au 24.6143 38.6319 24.8347
Pt 27.4793 38.7909 24.8621
Pt 30.2564 38.7779 24.9285
Au 33.163 38.612 25.0888
Pt 16.0101 10.8499 24.2173
Pt 18.7927 10.6492 24.2853
Pt 21.5318 10.51 24.3342
Pt 24.3205 10.3876 24.4388
Au 27.2357 10.3233 24.526
Au 30.1021 10.4163 24.6943
Pt 34.0789 8.23712 24.7481
Au 23.2048 19.456 36.642
Pt 24.285 19.5546 39.3225
Pt 22.2918 21.2117 38.4735
Au 22.8023 26.5277 37.3932
Pt 26.7971 29.3316 39.2582
Pt 23.9432 30.4331 38.9046
Pt 24.1813 34.6307 38.822
Au 24.7933 16.4541 11.2734
Pt 24.8145 19.242 11.2176
Au 24.8663 21.9565 11.1999
Au 24.8831 24.7838 11.1965
Pt 24.9556 27.5462 11.2282
Pt 24.9327 30.2802 11.3017
Au 24.9257 33.04 11.4833
Pt 37.286 23.0976 35.222
Au 29.4441 21.39 31.9319
Pt 31.0216 22.8454 33.9646
Au 26.8406 17.8545 34.5297
Au 26.036 23.2259 35.297
Pt 35.8214 25.2283 33.698
Pt 33.9737 22.9675 37.399
Pt 32.5111 24.3199 35.6692
Au 26.2116 25.9878 35.4866
Au 31.9239 19.3717 39.791
Au 32.3611 28.6507 33.6034
Pt 31.2049 28.214 36.0622
Au 31.0447 26.0758 34.0204
Au 25.637 20.9742 41.3061
Au 29.8947 29.9898 34.3205
Pt 31.5295 27.366 38.5564
Pt 24.8769 28.3899 40.65
Au 28.5675 29.4887 36.7235
Au 25.2811 27.5732 37.9198
Pt 26.0228 30.6578 37.1521
Au 36.2455 23.2394 15.6086
Au 33.9804 21.8421 14.5768
Au 31.726 20.4418 13.695
Pt 29.459 19.0957 12.9059
Au 27.1352 17.7252 12.1289
Au 36.4126 26.0767 15.6646
Au 34.0276 24.6423 14.6393
Pt 31.7754 23.277 13.6216
Au 29.4827 21.9094 12.8438
Pt 27.1974 20.5733 12.026
Pt 34.0761 27.4991 14.6955
Au 31.8143 26.1371 13.8273
Au 29.5072 24.7764 12.8537
Pt 27.201 23.377 11.9775
Pt 31.8305 28.9555 13.8653
Pt 29.5112 27.5515 12.8942
Pt 27.227 26.177 11.9822
Pt 29.5313 30.3347 12.9627
Au 27.2406 28.9574 12.0509
Pt 27.2659 31.7634 12.2232
Pt 12.7783 22.2805 34.4367
Pt 14.6571 20.3848 35.3647
Pt 16.817 18.6671 36.2394
Au 17.296 16.9329 40.62
Pt 17.4112 14.7303 36.5525
Au 13.0151 26.4923 34.4608
Pt 14.5873 24.3236 35.1087
Pt 16.3374 22.394 35.9223
Pt 18.364 20.8536 36.9599
Pt 19.4796 20.8973 39.6226
Au 14.8673 28.5016 35.7049
Pt 16.4738 26.2226 35.9853
Pt 18.1344 24.1717 36.6105
Pt 20.0207 22.8326 37.9084
Au 17.2465 30.1094 36.4723
Pt 18.6166 27.819 36.8791
Pt 20.1893 25.6421 37.5094
Pt 19.5775 31.6203 37.2882
Au 20.9536 29.2355 37.6027
Pt 21.7211 34.7481 40.0753
Pt 13.4822 23.3186 15.523
Au 15.7326 21.9773 14.6336
Pt 18.007 20.5889 13.7438
Au 20.2909 19.1935 12.8531
Pt 22.5009 17.7708 12.0121
Pt 13.5513 26.1685 15.613
Pt 15.7221 24.7419 14.6336
Pt 17.9971 23.3657 13.7064
Pt 20.3153 22.0123 12.7897
Pt 22.5482 20.6115 11.9944
Au 15.7606 27.5487 14.7618
Au 18.0386 26.1701 13.7752
Au 20.2987 24.7671 12.8472
Pt 22.5655 23.4018 11.9382
Au 18.09 28.9853 13.8895
Pt 20.3549 27.5599 12.8603
Pt 22.5928 26.1753 11.9995
Pt 20.3506 30.3679 13.0229
Au 22.6162 28.9349 12.0715
Au 22.6198 31.7509 12.2372
Au 34.2679 36.4408 23.3846
Au 35.2457 34.1688 21.8617
Au 36.2215 31.8554 20.428
Pt 37.1411 29.4832 19.1252
Pt 37.9117 27.0822 17.8928
Pt 34.7178 36.3426 26.0227
Pt 35.6169 34.1715 24.5724
Pt 36.5258 31.9853 23.1685
Au 37.3981 29.6676 21.858
Pt 38.2049 27.3043 20.6185
Au 35.675 34.2402 27.5399
Au 36.6164 32.0267 26.0851
Au 37.562 29.798 24.6744
Au 38.4702 27.5384 23.4075
Pt 36.8774 32.1453 29.0364
Au 37.8158 29.8616 27.5263
Pt 38.7839 27.5516 26.1788
Pt 38.1306 29.9752 30.3124
Au 36.551 27.2573 27.7815
Au 36.6193 22.8082 29.8327
Au 15.2767 36.1619 23.4247
Au 14.448 33.8585 22.0602
Au 13.6144 31.532 20.6772
Au 12.8297 29.2741 19.2858
Pt 12.0706 27.0663 17.9206
Pt 15.2147 36.1434 26.2525
Au 14.336 33.8659 24.9551
Au 13.4382 31.5687 23.5979
Au 12.6269 29.2893 22.1818
Pt 11.8802 27.0128 20.7374
Pt 14.234 33.9103 27.7687
Au 13.3492 31.5964 26.4471
Pt 12.474 29.3112 25.0399
Au 11.7536 27.0115 23.5868
Pt 13.2727 31.6122 29.2364
Au 12.4796 29.2025 27.904
Au 11.6963 26.9079 26.4238
Au 12.347 29.2838 30.8219
Au 11.6291 26.8196 29.3246
Au 11.4265 26.7345 32.1508
Pt 33.9505 12.7858 23.1768
Au 35.0624 15.0325 21.851
Au 36.0266 17.3234 20.3005
Au 36.8811 19.6892 18.8814
Au 37.7139 22.047 17.5469
Au 33.3401 15.2266 26.0985
Au 35.8968 14.9173 24.8175
Au 36.719 17.394 26.0146
Au 37.2663 19.6251 21.648
Au 38.2384 21.939 20.1844
Pt 37.526 12.9903 29.1069
Pt 35.5518 14.5573 27.6108
Pt 37.3781 17.5849 28.6508
Au 37.4766 19.8106 24.3579
Pt 36.7068 15.3674 29.9716
Au 39.4692 16.3986 30.0369
Pt 37.9577 19.7417 27.0533
Pt 38.0277 18.5384 31.0209
Au 38.4449 20.7864 29.4947
Pt 39.0475 20.9717 32.1117
Au 15.1412 13.172 22.9209
Pt 14.2829 15.4919 21.6562
Pt 13.5479 17.7356 20.3574
Au 12.7797 20.0591 19.0974
Au 12.0653 22.4623 17.8569
Pt 15.0118 13.0201 25.7244
Pt 14.1225 15.3353 24.4531
Pt 13.3352 17.6419 23.1708
Pt 12.5373 19.9542 21.9051
Pt 11.8219 22.2994 20.6318
Pt 14.1002 15.1808 27.1968
Pt 13.2316 17.5129 25.9417
Au 12.3901 19.9117 24.7317
Pt 11.6889 22.2397 23.4044
Pt 13.1966 17.3427 28.7456
Au 12.3176 19.7511 27.5598
Pt 11.6275 22.1531 26.3292
Au 12.3475 19.6746 30.3633
Pt 11.5459 22.0953 29.1054
Au 11.5855 21.9916 31.9331
Pt 22.823 35.1892 36.5474
Au 21.499 35.8822 34.2033
Au 20.1398 36.6103 31.8485
Au 18.8124 37.1952 29.4824
Pt 17.5182 37.7854 27.1068
Pt 25.6122 35.3816 36.6131
Pt 24.2927 36.011 34.2921
Au 22.9773 36.7469 31.9039
Pt 21.6695 37.403 29.5625
Pt 20.3594 37.962 27.223
Pt 27.0482 36.1926 34.3659
Pt 25.7641 36.8075 32.0111
Au 24.4741 37.5041 29.6204
Pt 23.1253 38.0686 27.2535
Pt 28.4944 36.9705 32.1
Pt 27.2273 37.5745 29.6811
Au 25.9184 38.2006 27.2455
Pt 29.9663 37.6954 29.7866
Au 28.6866 38.24 27.2899
Pt 31.4297 38.2915 27.4361
Pt 19.9497 14.9859 35.4701
Au 20.9787 12.9756 33.7813
Pt 19.7109 12.4246 31.3381
Pt 18.4804 11.8866 28.9096
Pt 17.2392 11.3781 26.5596
Pt 24.9667 13.3437 36.2016
Pt 23.7851 12.7829 33.8672
Au 22.4944 12.2201 31.4608
Pt 21.2496 11.5919 29.0264
Pt 20.0097 11.1407 26.6532
Pt 28.0597 14.8868 34.4652
Au 25.3052 12.0882 31.599
Au 24.0528 11.4606 29.16
Pt 22.7537 10.9822 26.7421
Pt 28.1033 11.9697 31.7798
Au 26.8971 11.4096 29.3201
Au 25.6378 10.8529 26.8491
Au 29.6937 11.403 29.5076
Au 28.4897 10.921 27.0196
Pt 31.3028 10.9303 27.2318
Pt 23.5046 34.0672 13.6888
Au 22.0249 34.9283 15.8797
Pt 20.51 35.7857 18.1066
Pt 19.0312 36.6776 20.2849
Pt 17.6035 37.5328 22.4828
Au 26.3863 34.0401 13.6866
Pt 24.882 35.0448 15.883
Au 23.4315 35.9519 18.1251
Pt 21.8725 36.7677 20.2706
Au 20.4123 37.6353 22.5095
Pt 27.6775 35.0285 15.8665
Pt 26.23 36.0515 18.0698
Pt 24.7779 36.98 20.2779
Au 23.2445 37.7252 22.5014
Au 29.0734 35.9723 18.1556
Pt 27.5841 36.9765 20.3446
Au 26.1487 37.8246 22.5512
Pt 30.3647 36.9713 20.4315
Pt 28.9444 37.8574 22.6203
Au 31.7521 37.7977 22.7325
Pt 23.3166 15.3939 13.3959
Pt 21.9062 14.4133 15.5121
Pt 20.4095 13.4891 17.6505
Au 19.001 12.5874 19.8465
Au 17.4926 11.7105 22.0245
Pt 26.1871 15.2938 13.4114
Pt 24.7131 14.2919 15.5357
Au 23.2481 13.3084 17.6908
Pt 21.8068 12.3845 19.9093
Pt 20.3288 11.4933 22.0785
Au 27.5873 14.3275 15.6154
Pt 26.0628 13.3371 17.7798
Au 24.6257 12.3038 19.9824
Pt 23.0902 11.3713 22.153
Au 29.0529 13.3904 17.8693
Au 27.4575 12.3547 20.0825
Pt 25.8429 11.2501 22.2537
Au 30.3481 12.3619 20.1883
Au 28.7613 11.276 22.3587
Au 31.6263 11.3949 22.5361
Au 34.6144 16.0485 36.8892
Au 33.3624 29.2531 30.9297
Pt 35.0971 15.5872 32.1375
Au 34.7712 31.9459 30.8955
Au 33.1209 11.1791 33.615
Pt 33.8085 33.9884 29.5024
Pt 32.8194 13.2088 27.8413
Pt 32.8893 35.9614 27.9162
Pt 35.3674 20.7885 36.2073
Au 33.5763 31.2451 33.4121
Au 34.7529 13.5289 34.0502
Pt 32.4768 33.289 31.7706
Pt 31.2437 13.7184 30.0211
Pt 31.4237 35.3484 30.1803
Pt 26.1992 10.8674 36.0023
Au 31.0964 32.5491 34.0475
Au 33.0885 13.8525 36.3188
Pt 29.9972 34.6346 32.4007
Pt 26.072 14.2039 38.4574
Au 28.7436 32.0908 32.5706
Pt 35.4038 20.6731 16.7391
Au 35.6489 28.5075 16.9339
Pt 34.515 18.2933 18.0919
Au 34.7917 30.9115 18.2197
Pt 33.6585 16.0249 19.436
Au 33.8259 33.2132 19.6068
Au 32.6532 13.7986 20.9358
Au 32.7715 35.5387 21.1374
Au 33.1049 19.3721 15.9181
Au 33.3184 29.9322 16.0082
Pt 32.2489 16.9799 17.2756
Pt 32.4622 32.2804 17.3919
Pt 31.3623 14.7446 18.6252
Au 31.4614 34.5656 18.8464
Pt 30.8834 17.9531 15.1068
Au 31.0224 31.3147 15.1495
Pt 29.9954 15.6342 16.4341
Au 30.0499 33.6468 16.589
Pt 28.5919 16.6409 14.2529
Pt 28.7566 32.7306 14.3365
Au 13.5398 20.0607 32.8579
Au 13.921 28.845 33.0917
Pt 14.3395 17.8126 31.2654
Au 14.6586 31.0724 31.56
Au 15.3226 15.6832 29.6262
Au 15.5396 33.3105 30.1242
Pt 16.2645 13.5108 28.0888
Au 16.5087 35.548 28.6085
Au 15.5454 18.2547 33.7508
Au 15.8805 30.5988 34.0531
Au 17.7845 16.61 34.5918
Au 16.8517 32.762 32.5697
Au 17.5351 14.035 30.5126
Au 17.8216 34.9907 31.0441
Pt 16.3654 16.7308 38.1094
Pt 18.2869 32.2248 34.9375
Pt 18.7403 14.5161 33.0048
Au 19.192 34.366 33.4065
Pt 18.9137 16.9936 37.0756
Pt 20.5285 33.7277 35.7506
Pt 14.2128 20.9283 16.8559
Pt 14.2807 28.4682 17.0135
Pt 14.9705 18.6075 18.1213
Pt 15.0879 30.7653 18.333
Pt 15.7795 16.3169 19.3958
Au 15.8484 33.057 19.6907
Au 16.6222 14.0403 20.7026
Au 16.701 35.3023 21.1437
Au 16.4883 19.5789 15.9393
Au 16.5061 29.9189 16.129
Pt 17.2485 17.2398 17.2292
Pt 17.3014 32.2254 17.4905
Pt 18.1145 14.8996 18.4959
Pt 18.135 34.462 18.9106
Au 18.7752 18.1631 15.0633
Au 18.7939 31.3371 15.2223
Pt 19.548 15.8028 16.2969
Au 19.599 33.561 16.6744
Pt 21.0387 16.7377 14.1867
Au 21.1444 32.6768 14.4333
Pt 40.7974 24.2768 15.0246
Pt 42.6382 23.2068 19.2809
Pt 40.526 23.1747 21.0262
Pt 40.9059 23.2143 23.6254
Pt 41.1264 23.4249 26.3711
Pt 39.0535 27.7456 28.9533
Pt 39.3303 27.9203 31.7034
Au 38.0072 25.4327 31.9733
Au 9.06544 24.7786 14.9753
Au 8.87496 24.7433 17.8418
Pt 8.68172 24.7348 20.5936
Pt 8.62029 24.7264 23.3584
Au 8.54918 24.622 26.1351
Pt 8.50529 24.478 29.035
Au 6.40687 25.0042 33.4491
Au 12.951 24.371 38.8214
Pt 14.7442 40.5662 24.4792
Au 17.5247 40.8582 24.5274
Pt 20.2847 40.9744 24.6724
Au 23.1026 41.0336 24.6732
Au 25.955 41.0733 24.7224
Pt 28.804 41.1864 24.7071
Au 31.5766 41.1054 24.6981
Au 34.4336 40.9403 24.7886
Au 14.4173 8.57254 23.9654
Pt 17.2898 8.40116 23.9525
Au 19.9933 8.17258 24.09
Pt 22.8132 8.17068 24.1974
Au 25.6969 7.99242 24.2636
Pt 28.6026 7.93942 24.3143
Pt 31.4146 8.14781 24.457
Au 35.5778 6.12008 24.5737
Au 26.3521 18.2988 40.9629
Pt 26.971 20.171 39.0613
Au 29.056 19.0268 40.7164
Pt 24.11 22.9834 39.7521
Pt 19.7923 27.3918 39.3502
Au 25.5228 34.0812 41.2545
Au 27.7134 27.5973 41.3508
Pt 25.8877 32.4816 39.0838
Pt 24.781 15.1762 8.93753
Pt 24.8211 17.9021 8.85916
Pt 24.8413 20.6566 8.72405
Au 24.8469 23.4138 8.80123
Pt 24.912 26.2365 8.85021
Pt 24.9358 28.9564 8.90047
Pt 24.9195 31.7432 9.01528
Pt 24.8691 34.5237 9.26532
Au 39.7293 23.3848 36.1971
Pt 32.9037 19.3689 37.1203
Au 36.6621 22.6597 37.9277
Pt 30.2028 23.1037 36.53
Au 29.8729 12.4395 38.0679
Pt 25.6944 18.5832 37.1341
Au 35.9049 29.7286 31.9746
Au 40.5415 25.9739 35.8435
Pt 31.7231 24.4505 38.4182
Pt 30.4924 20.5291 35.9876
Pt 21.5657 25.5293 39.958
Au 32.9338 17.0989 38.8017
Pt 35.4863 24.763 36.3304
Pt 34.0394 28.1344 39.1988
Au 33.0505 25.9487 40.4019
Pt 29.4428 25.816 39.311
Au 30.9339 21.5869 40.8792
Pt 34.9594 31.0488 36.1949
Pt 33.75 28.5975 36.6703
Au 30.5894 27.1117 41.3329
Au 30.9611 24.3401 41.1582
Pt 32.2671 30.7619 35.8375
Pt 30.9124 30.1076 38.0057
Au 25.7578 23.6942 41.8308
Pt 29.7064 32.0081 36.3932
Pt 29.3378 28.6159 39.4118
Au 27.3907 31.3056 34.8546
Pt 38.4624 23.0928 14.0783
Au 36.2053 21.8144 13.0309
Pt 33.9108 20.3651 12.0688
Pt 31.6782 19.1121 11.2641
Au 29.3562 17.7675 10.524
Pt 27.0959 16.4067 9.72824
Au 38.6926 25.9344 14.1087
Au 36.3337 24.6213 13.058
Pt 34.0936 23.2327 11.9612
Pt 31.7872 21.8571 11.1555
Pt 29.4857 20.5755 10.406
Au 27.1076 19.2402 9.60435
Pt 36.3438 27.4374 13.2583
Au 34.1121 26.0784 12.1886
Au 31.8612 24.6869 11.2591
Au 29.5033 23.3782 10.43
Au 27.1917 21.995 9.56162
Au 34.088 28.979 12.3233
Au 31.7958 27.5428 11.3955
Pt 29.5042 26.1965 10.4296
Pt 27.2232 24.8421 9.59751
Pt 31.8492 30.3559 11.5435
Au 29.5526 28.997 10.4479
Pt 27.2739 27.5705 9.55623
Au 29.4997 31.8656 10.6496
Au 27.2543 30.424 9.63242
Pt 27.2234 33.2281 9.93035
Au 7.57975 19.7605 32.8962
Au 8.79965 20.1461 35.3174
Au 12.8009 16.2165 37.0044
Au 15.0438 18.5408 39.7344
Au 24.7981 15.0643 40.8543
Pt 18.5267 15.1127 38.9382
Pt 15.8743 20.6209 37.9252
Au 13.331 28.2944 38.7915
Pt 17.853 18.87 38.7838
Au 20.5893 21.079 42.2002
Au 18.3367 22.478 41.5693
Pt 23.0364 21.1499 41.192
Pt 11.419 28.9123 33.8777
Pt 15.602 24.274 37.7909
Au 17.4393 27.635 40.6955
Pt 19.1938 24.5125 39.9327
Pt 21.3093 22.8847 40.2494
Pt 15.837 32.4723 36.0722
Au 16.1111 28.1616 38.2273
Pt 17.5325 25.9325 38.5453
Au 20.418 23.9835 42.4672
Au 16.1053 30.1106 40.2104
Au 18.5363 31.3753 41.0394
Au 20.3027 29.1611 41.3366
Pt 21.8847 33.0561 38.0586
Au 22.5849 27.164 41.975
Pt 23.3733 32.5323 40.2988
Au 11.1961 23.3674 13.9035
Pt 13.4677 22.0135 13.0459
Au 15.707 20.6009 12.2373
Au 17.9586 19.2014 11.3299
Pt 20.2775 17.7911 10.4334
Pt 22.4841 16.434 9.61813
Pt 11.2788 26.2306 14.0918
Au 13.441 24.7676 13.0465
Pt 15.7191 23.4154 12.1481
Au 17.9883 22.0208 11.2679
Au 20.2065 20.6148 10.347
Au 22.5128 19.2775 9.56476
Au 13.3873 27.625 13.2013
Au 15.7214 26.1884 12.2168
Pt 17.9902 24.7864 11.2937
Pt 20.2544 23.4637 10.3861
Pt 22.5328 22.0265 9.59361
Au 15.7347 29.0414 12.3143
Au 17.9959 27.6011 11.2988
Au 20.2694 26.1876 10.3994
Pt 22.4976 24.8443 9.5421
Au 17.9715 30.4129 11.4906
Au 20.2591 29.0466 10.4587
Pt 22.6325 27.5579 9.64538
Au 20.3009 31.8815 10.6199
Au 22.5856 30.4144 9.65885
Pt 22.5859 33.1783 9.87947
Au 35.6247 38.8905 23.1784
Au 38.7283 36.7816 19.9964
Pt 37.4924 34.3177 20.2718
Au 40.9555 32.3328 19.9528
Pt 39.3009 29.5713 17.5178
Pt 39.9975 27.1436 16.2677
Au 36.0209 38.7596 25.9031
Au 37.7567 39.0422 21.4496
Pt 37.8331 34.4156 22.9993
Au 41.8831 29.9592 18.6009
Pt 40.6798 27.7792 21.7589
Pt 41.5785 25.535 20.4485
Pt 37.0622 36.7058 27.3072
Pt 36.9467 36.6146 24.3941
Pt 38.9466 32.3008 24.3883
Pt 39.9244 30.0965 23.0206
Au 42.1315 25.745 23.238
Au 38.0723 34.6063 28.821
Au 37.9754 34.4965 25.8701
Au 41.2728 32.5821 22.8405
Au 43.2516 28.1616 22.8241
Pt 39.4217 32.3918 29.985
Pt 39.0823 32.4042 27.2675
Au 40.0627 30.1547 25.7985
Pt 39.551 28.1067 34.4215
Au 40.3426 30.238 28.648
Pt 36.8466 27.4953 30.5945
Pt 13.8071 38.4803 23.0952
Au 12.9436 36.2214 21.858
Au 12.1126 33.8627 20.5547
Au 11.234 31.5987 19.1499
Pt 10.4239 29.3072 17.8095
Pt 9.81649 27.0836 16.4419
Au 13.7471 38.4204 26.0116
Pt 12.8122 36.1937 24.7045
Au 11.8731 33.9063 23.3971
Pt 11.0149 31.5822 22.0658
Au 10.2794 29.3374 20.6177
Pt 9.59914 27.0667 19.2424
Pt 12.7761 36.2291 27.5194
Au 11.785 33.9818 26.2177
Au 10.8815 31.6371 24.876
Pt 10.0968 29.3479 23.4877
Pt 9.48576 27.0584 22.0243