2057
Atoms. Timestep: 20233
Au 25.0576 24.8917 25.8311
Au 27.3036 24.8802 24.3241
Au 27.3751 24.966 27.4401
Au 22.7403 24.9056 24.2479
Au 22.7404 24.7781 27.1661
Pt 23.6521 27.2583 25.6603
Au 26.4491 27.2326 25.7744
Au 23.6137 22.5431 25.635
Au 26.4323 22.5592 25.7176
Au 25.1903 23.3627 28.1955
Au 24.9274 26.3562 28.1182
Au 24.9662 23.4533 23.3811
Au 25.0246 26.3422 23.4294
Au 29.5366 24.9045 22.688
Au 29.7209 24.8885 25.5801
Au 31.3611 22.3924 28.3038
Pt 20.4286 24.8668 22.5453
Au 20.3293 24.8484 25.5386
Au 20.3441 24.7419 28.4393
Pt 22.2083 29.5259 25.5491
Pt 24.9598 29.6454 25.5163
Au 27.8586 29.5989 25.7465
Au 22.1163 20.2499 25.3348
Au 24.9301 20.1453 25.4399
Au 27.8098 20.203 25.6143
Au 25.9488 21.8102 30.3502
Au 25.5479 24.8656 30.4949
Au 24.7052 27.7846 30.577
Au 24.9405 22.0237 20.9516
Au 24.9721 24.9334 20.9575
Pt 24.9973 27.7619 21.0739
Au 27.1255 26.9398 29.588
Au 27.0738 28.6041 32.127
Au 27.2822 23.4649 21.8612
Au 27.2826 26.3808 21.8599
Au 22.7956 23.4199 29.715
Au 22.493 26.4188 29.3813
Au 22.6713 23.4425 21.7491
Au 22.6699 26.3163 21.7891
Au 28.7324 27.3075 24.1782
Pt 31.7267 27.1642 28.1252
Au 21.2983 27.2113 24.0894
Au 21.2523 27.203 26.9247
Pt 28.7335 22.5246 24.1389
Au 28.8069 22.5937 27.0082
Au 21.2605 22.5616 23.9977
Au 21.1955 22.4579 26.9266
Au 23.4677 28.7275 27.9882
Pt 26.1412 28.9183 27.8322
Au 23.5748 21.113 28.0399
Pt 26.3017 20.8193 27.8366
Au 23.5604 28.6831 23.2664
Pt 26.3904 28.739 23.3869
Pt 23.5139 21.0351 23.0806
Au 26.3661 21.0737 23.2464
Pt 31.7616 24.8749 20.9667
Au 32.004 24.8713 23.8787
Au 33.7516 22.4362 26.4659
Au 34.1151 22.401 29.2508
Pt 18.1401 24.8606 21.0168
Au 18.0262 24.8617 23.8872
Au 17.8661 24.7977 26.8539
Au 17.8956 24.618 29.7471
Au 20.6743 31.8121 25.3718
Pt 23.4992 31.9521 25.3935
Pt 26.3095 31.9753 25.436
Pt 29.1961 31.9506 25.6742
Au 20.6318 17.8907 25.0266
Au 23.4523 17.7453 25.1569
Au 26.2937 17.7311 25.3252
Au 29.1875 17.8007 25.6596
Au 24.4135 19.9116 32.2718
Au 28.0106 23.6567 29.8789
Au 28.0863 25.9543 32.0369
Au 24.482 29.3317 32.8533
Au 24.9208 20.6658 18.5035
Au 24.9095 23.4525 18.4711
Au 24.9465 26.3066 18.5272
Au 25.0098 29.0993 18.5859
Au 30.0642 24.7816 28.3299
Au 26.9784 23.3895 32.5803
Pt 33.1351 29.4523 27.8663
Pt 34.2454 27.0906 29.1957
Au 29.8874 28.4044 32.1792
Au 29.5609 23.4061 20.2164
Au 27.2422 22.0197 19.3639
Au 29.5788 26.3475 20.1963
Au 27.2672 24.8788 19.3614
Au 27.2709 27.7313 19.3855
Au 20.1612 22.9244 30.5427
Pt 22.1724 21.2937 31.4568
Au 20.0997 26.4674 30.6942
Au 23.0939 25.4243 31.8066
Au 22.1859 28.1518 31.7613
Au 20.3791 23.4494 20.1485
Pt 22.5994 21.9795 19.3192
Pt 20.3532 26.2933 20.1605
Au 22.6132 24.8713 19.3106
Au 22.6767 27.722 19.4057
Au 30.1929 29.6908 24.054
Au 31.0454 27.2697 22.4984
Au 30.505 29.5233 26.9014
Au 31.2899 27.201 25.3718
Pt 32.323 24.8255 26.6843
Au 19.8528 29.5632 23.9498
Au 18.9871 27.1742 22.437
Pt 19.7167 29.5541 26.7979
Au 18.8395 27.2432 25.348
Au 18.8256 27.1371 28.2112
Au 30.0983 20.1815 23.9735
Au 30.951 22.4971 22.526
Au 30.3298 20.2097 26.8682
Au 31.1928 22.5343 25.3878
Pt 31.0948 20.1858 30.1483
Au 19.754 20.2027 23.7475
Au 18.9196 22.5536 22.382
Pt 19.6492 20.0986 26.6283
Au 18.7921 22.4745 25.3009
Au 18.7294 22.3623 28.1354
Pt 23.27 30.3044 30.2123
Au 21.8952 31.0275 27.7987
Au 26.0602 30.3207 30.126
Au 24.7135 31.2573 27.7963
Au 27.4944 31.4875 27.8362
Au 23.2129 19.1942 29.958
Au 21.9204 18.6064 27.5112
Au 26.0395 19.0987 30.0723
Au 24.744 18.458 27.6593
Au 27.5804 18.3997 27.8802
Au 23.5575 30.1067 20.8433
Pt 22.176 31.0197 23.1383
Au 26.4341 30.0977 20.9213
Au 24.9616 31.1116 23.1372
Au 27.8771 31.045 23.2791
Pt 23.4896 19.6627 20.6843
Pt 22.0658 18.7624 22.8386
Pt 26.297 19.6154 20.7925
Pt 24.8796 18.6604 22.9331
Au 27.749 18.7095 23.1011
Au 28.6424 20.9604 29.1318
Au 28.9777 27.2106 27.1153
Au 28.6587 21.0489 21.6554
Au 28.7541 28.7212 21.6988
Au 20.9704 20.7456 29.0463
Au 20.947 28.8151 29.2599
Au 21.2054 21.0511 21.5111
Au 21.1954 28.6834 21.6178
Pt 33.9855 24.8415 19.3851
Au 34.2316 24.8655 22.1557
Pt 35.9788 22.4313 24.7853
Pt 36.3702 22.376 27.5152
Pt 34.5794 22.486 32.0623
Au 15.861 24.8252 19.4866
Pt 15.6992 24.832 22.2661
Au 15.5489 24.8201 25.2064
Pt 15.4089 24.554 28.1107
Pt 15.4846 24.4129 30.9352
Au 19.1653 34.1452 25.2082
Au 21.9933 34.3703 25.2494
Pt 24.8752 34.2652 25.129
Pt 27.7116 34.2503 25.3261
Au 30.6523 34.2435 25.4207
Au 19.0686 15.5795 24.7754
Pt 21.8981 15.3591 24.8837
Pt 24.7272 15.2757 25.0078
Pt 27.642 15.406 25.3543
Pt 30.5487 15.5299 25.6451
Au 24.199 18.1565 34.5219
Au 24.2742 23.0068 32.0979
Pt 23.5062 24.4554 34.4019
Au 25.5638 26.1611 33.0042
Au 23.9802 30.5807 35.3549
Au 24.8743 19.2932 16.1107
Pt 24.8817 22.0529 15.9741
Au 24.9299 24.8294 15.9987
Au 24.9063 27.6918 16.0339
Au 24.9492 30.4595 16.1163
Pt 31.7014 20.8257 32.9531
Au 29.3421 19.5262 33.7015
Au 26.0158 20.4018 35.3243
Au 32.0077 22.5401 31.0233
Au 25.9318 23.0842 35.2886
Au 28.3693 27.5405 34.4616
Au 32.5992 24.8182 29.4926
Au 29.7323 26.9049 29.9141
Pt 27.6747 27.0919 37.1415
Pt 31.76 23.4148 18.5846
Pt 29.5185 21.9524 17.8031
Pt 27.2104 20.634 16.9142
Pt 31.7852 26.2739 18.5449
Au 29.5391 24.8277 17.7511
Au 27.2181 23.401 16.8471
Pt 29.5628 27.686 17.7513
Au 27.2341 26.2793 16.8817
Pt 27.3097 29.0824 16.8959
Pt 17.5502 22.5834 31.7897
Pt 19.7083 21.1522 32.7046
Au 21.8944 19.5343 33.5661
Pt 17.48 26.5249 31.7378
Pt 19.2236 24.5889 32.3415
Pt 21.4539 23.2944 33.0494
Pt 19.5269 28.1255 32.8476
Pt 21.153 26.0865 33.4228
Pt 21.6685 29.3317 34.1749
Au 18.0952 23.4184 18.6
Pt 20.3426 22.0346 17.7594
Pt 22.5743 20.6599 16.8908
Pt 18.0786 26.2984 18.6346
Pt 20.3017 24.8763 17.7367
Au 22.5848 23.4109 16.8679
Au 20.3293 27.7003 17.8052
Au 22.6026 26.2695 16.8627
Au 22.6089 29.1085 16.9466
Au 31.634 32.0577 23.7924
Au 32.498 29.6136 22.2142
Au 33.2702 27.2191 20.8167
Au 31.96 31.845 26.6023
Au 32.7786 29.5342 25.0653
Pt 33.6111 27.1792 23.6073
Au 35.363 29.4306 26.0717
Au 34.5355 24.7925 24.9701
Au 33.8615 27.133 26.3948
Au 18.2379 31.8782 23.7986
Au 17.4684 29.505 22.2601
Au 16.6433 27.1604 20.8754
Pt 18.0949 31.7956 26.6312
Au 17.2739 29.6067 25.1436
Au 16.445 27.187 23.6803
Au 17.2287 29.4688 27.9719
Au 16.3693 27.187 26.5225
Au 16.3344 26.9752 29.327
Au 31.445 17.8093 23.8116
Pt 32.3776 20.1517 22.2467
Au 33.1373 22.4929 20.8328
Au 31.9209 17.8472 26.5931
Au 32.6924 20.197 25.087
Pt 33.4744 22.4813 23.6417
Au 32.624 17.8846 29.724
Au 32.9791 20.1151 28.0168
Pt 33.6549 20.1311 31.0168
Au 18.2047 17.8722 23.448
Au 17.3913 20.1974 22.1216
Pt 16.6063 22.481 20.8015
Au 18.1131 17.7823 26.3261
Au 17.2413 20.1069 25.0017
Au 16.4327 22.5124 23.644
Au 17.1895 20.0212 27.8387
Au 16.2758 22.4213 26.5283
Au 16.2537 22.2306 29.3424
Au 22.6813 31.4387 32.6228
Au 21.6396 32.4876 30.12
Au 20.2879 33.3259 27.7066
Au 25.4141 31.9254 32.1668
Au 22.8582 35.0322 30.2297
Au 23.1854 33.5595 27.6724
Pt 24.5956 32.9736 29.9163
Au 26.0392 33.8241 27.5962
Au 28.915 34.0829 27.8115
Pt 22.9334 17.4072 32.0235
Au 21.6888 16.841 29.6573
Au 20.3728 16.2113 27.2225
Au 25.746 17.3462 32.1963
Pt 24.5225 16.6687 29.8081
Au 23.227 15.9911 27.3364
Pt 27.3136 16.521 30.0118
Au 26.0532 15.9504 27.5213
Pt 28.8306 15.8442 27.8152
Au 23.5371 31.5051 18.3577
Au 22.0846 32.4734 20.6708
Au 20.5656 33.2718 22.8992
Au 26.4348 31.4624 18.3962
Au 24.9699 32.5994 20.6226
Au 23.4704 33.5208 22.9248
Au 27.9178 32.4784 20.7338
Au 26.4298 33.4462 22.9663
Pt 29.2855 33.3461 23.1551
Au 23.4654 18.274 18.2724
Au 22.0078 17.3646 20.4662
Pt 20.6239 16.3984 22.6066
Pt 26.2881 18.2478 18.399
Pt 24.8615 17.2638 20.5607
Au 23.4101 16.318 22.751
Pt 27.6959 17.3181 20.6412
Au 26.2604 16.2915 22.8731
Au 29.152 16.3408 23.1334
Pt 31.1552 18.2613 32.025
Au 31.3817 30.9163 31.927
Pt 30.1183 18.1482 28.5688
Pt 30.0321 31.6419 28.6166
Au 28.6928 18.9212 30.8529
Au 28.5457 29.2396 28.9671
Pt 30.9222 20.9899 20.0213
Pt 31.0302 28.6766 19.9499
Au 30.0696 18.6649 21.467
Au 30.2059 31.0426 21.4808
Au 28.6017 19.613 19.1993
Au 28.7357 30.0538 19.1577
Pt 18.5119 20.5833 30.2867
Pt 18.4082 28.7848 30.4153
Pt 19.4199 18.4218 28.7802
Pt 19.2987 31.038 29.0633
Pt 20.6567 19.0001 31.1559
Pt 20.4567 30.2846 31.4937
Pt 18.9108 21.0657 19.9319
Pt 18.8436 28.6433 19.9553
Pt 19.7014 18.7481 21.2388
Au 19.6928 31.0067 21.4484
Pt 21.1657 19.6584 19.0865
Au 21.177 30.1061 19.1972
Pt 36.2085 24.7742 17.796
Pt 36.5078 24.8383 20.5121
Au 38.3102 22.3696 23.0335
Au 38.5629 22.4027 25.8187
Pt 38.9496 22.4001 28.5535
Pt 36.2127 19.9572 31.9058
Pt 13.5699 24.8971 17.9482
Au 13.3885 24.8081 20.7154
Au 13.2879 24.7891 23.5476
Pt 13.1366 24.5234 26.4307
Pt 13.0184 24.3935 29.2128
Au 13.0306 24.357 32.0709
Au 17.8331 36.4637 24.8626
Au 20.5741 36.8727 25.3285
Pt 23.4052 36.5619 24.5881
Pt 26.2646 36.5432 24.9372
Au 29.0697 36.6173 25.085
Au 31.9303 36.5931 26.251
Pt 17.585 13.2982 24.5859
Pt 20.3738 13.1207 24.6552
Pt 23.1438 13.0027 24.7744
Au 26.1073 12.9514 24.9585
Au 29.0208 13.1664 25.2179
Au 31.9742 13.3567 25.4961
Au 19.6718 16.4575 41.5231
Pt 25.2715 21.2707 37.8994
Au 23.2067 22.8205 36.6776
Pt 21.9748 24.8531 41.5545
Au 23.2098 28.3483 36.9737
Au 23.1729 30.6318 38.3763
Au 24.8076 17.8434 13.7401
Pt 24.8263 20.6913 13.6268
Pt 24.8304 23.4163 13.5665
Au 24.852 26.2571 13.5699
Pt 24.8427 29.0283 13.5621
Pt 24.8889 31.7905 13.6994
Pt 34.2142 20.4862 33.7765
Au 31.885 18.8757 34.716
Au 28.4592 21.9362 34.5613
Au 23.6437 21.6438 34.2329
Au 32.9692 24.6098 32.6074
Pt 33.6962 26.458 34.4775
Au 28.3931 24.7345 34.5699
Au 27.0066 20.4207 32.6095
Pt 34.6985 27.0701 31.9853
Au 30.2727 24.5583 31.3536
Au 23.3903 27.1883 34.3903
Au 32.1287 26.9303 31.1518
Au 28.6194 26.6203 41.5765
Au 25.7717 28.3156 35.2263
Pt 33.9264 23.3577 17.0368
Au 31.6963 22.0269 16.1499
Au 29.45 20.5619 15.3729
Au 27.1605 19.2544 14.5231
Au 33.9732 26.1988 16.8997
Pt 31.7283 24.8385 16.124
Au 29.4573 23.4149 15.2489
Pt 27.1291 22.051 14.392
Pt 31.7399 27.6698 16.1198
Au 29.4616 26.237 15.2741
Pt 27.1589 24.7954 14.3259
Au 29.4995 29.0391 15.2508
Au 27.1721 27.63 14.3862
Au 27.2031 30.452 14.4409
Pt 15.0796 22.4364 33.014
Pt 17.1603 20.9273 33.9985
Au 19.3287 19.4105 34.9063
Au 21.5037 17.8422 35.837
Au 14.9702 26.4057 32.9045
Pt 16.7677 24.5185 33.4708
Pt 18.8277 23.051 34.4419
Au 21.022 21.5849 35.2812
Au 17.0188 27.934 34.049
Au 18.8002 25.9717 34.6684
Au 20.9882 24.3656 35.5963
Au 19.1891 29.1627 35.3543
Pt 20.9708 27.1362 35.9185
Pt 21.2112 30.6605 36.4982
Au 15.7252 23.4176 17.0404
Pt 18.0207 22.032 16.1857
Au 20.2904 20.6649 15.3301
Au 22.5452 19.2203 14.5139
Pt 15.8006 26.302 17.1059
Au 17.988 24.8901 16.1695
Au 20.2532 23.4583 15.2931
Pt 22.5314 22.0498 14.3919
Pt 18.0351 27.7599 16.2864
Au 20.2813 26.3426 15.3043
Au 22.5708 24.8483 14.3936
Pt 20.3188 29.1238 15.3761
Pt 22.5364 27.6923 14.4011
Au 22.5953 30.4646 14.5469
Pt 33.4324 34.0115 23.2366
Pt 34.1299 31.7279 21.8782
Pt 34.8586 29.4466 20.4673
Au 35.5625 27.118 19.1394
Au 33.4793 34.1687 26.1436
Au 34.3219 31.8372 24.7181
Au 35.0967 29.461 23.2597
Pt 35.8958 27.1593 21.897
Pt 34.5615 31.7428 27.5985
Pt 36.1735 27.0617 24.6555
Au 36.7871 24.7628 23.2578
Au 35.7203 29.3765 28.8451
Pt 37.0848 24.7155 26.059
Au 34.8525 24.7373 27.7772
Pt 16.772 34.1513 23.6551
Au 15.9623 31.8109 22.1777
Pt 15.1593 29.4416 20.6739
Pt 14.3519 27.1662 19.3168
Pt 16.6527 34.1339 26.4351
Pt 15.6782 31.9845 25.0672
Au 14.8838 29.5832 23.5299
Pt 14.1239 27.1734 22.0694
Pt 15.6395 31.7575 27.819
Au 14.761 29.6045 26.3364
Au 13.9724 27.2182 24.9012
Pt 14.7596 29.386 29.1153
Au 13.9462 26.8812 27.696
Au 13.897 26.8329 30.4533
Pt 32.8294 15.569 23.7174
Au 33.712 17.7991 22.0814
Pt 34.547 20.111 20.6068
Pt 35.3622 22.454 19.218
Pt 34.1853 15.5187 29.4357
Au 34.1507 17.8602 24.8808
Pt 34.9095 20.1667 23.4162
Au 35.684 22.4333 21.9803
Pt 33.8818 13.1242 31.0011
Au 34.5895 17.8017 27.7619
Pt 35.3043 20.1615 26.2291
Pt 35.2819 17.6875 30.6532
Au 35.6745 20.0429 29.06
Pt 36.1453 17.4042 33.419
Pt 16.6744 15.5713 23.2241
Pt 15.8412 17.8202 21.8894
Pt 15.0391 20.1224 20.6103
Pt 14.3002 22.4755 19.3043
Pt 16.5276 15.4388 25.9934
Pt 15.659 17.7188 24.683
Au 14.876 20.0585 23.3799
Au 14.1086 22.427 22.0549
Au 15.5889 17.6505 27.4717
Au 14.7349 20.0024 26.2275
Au 13.9238 22.3772 24.9011
Pt 14.6487 19.8373 29.0175
Pt 13.7943 22.2039 27.7281
Au 13.8091 22.0927 30.5219
Pt 22.1941 32.6516 34.9744
Au 21.0171 33.7895 32.4746
Au 19.8772 34.8963 29.9881
Au 18.8263 35.804 27.5274
Pt 25.1926 36.0375 34.1727
Au 23.6553 34.1722 32.7755
Pt 24.3455 36.8609 31.8116
Au 21.6959 35.8512 27.7964
Pt 26.222 34.6424 31.9951
Pt 25.4943 35.6587 29.5745
Pt 24.3647 35.9798 27.1072
Au 27.4085 33.1666 30.0669
Au 27.3423 36.3341 27.4314
Au 30.3919 36.7532 28.5048
Au 22.596 15.7555 34.1946
Pt 21.319 15.0889 31.7538
Au 20.1157 14.4471 29.3285
Pt 18.8129 13.8515 26.9382
Au 25.4342 15.5539 34.3328
Pt 24.156 14.9311 31.9441
Au 22.9434 14.2577 29.4932
Pt 21.6072 13.6555 27.0693
Pt 26.9517 14.7261 32.166
Au 25.7422 14.2164 29.6957
Au 24.5404 13.4675 27.1998
Pt 28.5129 14.029 29.9274
Pt 27.4089 13.5139 27.4652
Pt 30.1777 13.4936 27.7559
Pt 23.4993 32.8688 15.9389
Au 22.0757 33.857 18.24
Pt 20.4322 34.6448 20.4064
Pt 19.0564 35.5375 22.6008
Au 26.399 32.7984 15.9224
Pt 24.9621 33.9182 18.1252
Pt 23.4977 34.9714 20.4489
Pt 21.835 35.6714 22.5917
Au 27.8568 33.7877 18.1342
Au 26.4778 34.9495 20.3059
Au 25.0787 35.8745 22.5416
Au 29.4459 34.79 20.4864
Au 27.9932 35.6854 22.7297
Au 31.0253 35.5169 22.8271
Pt 23.3849 16.8118 15.889
Au 21.9582 15.8932 18.0184
Pt 20.581 14.9916 20.2347
Pt 19.1216 14.121 22.3962
Au 26.2334 16.8292 15.966
Pt 24.7992 15.8134 18.1318
Au 23.3946 14.8881 20.3222
Pt 21.9183 13.9449 22.4883
Au 27.6614 15.9034 18.2813
Pt 26.1912 14.9151 20.4554
Pt 24.7128 13.8901 22.6152
Au 29.1504 15.0318 20.6111
Au 27.5956 13.9142 22.8048
Au 30.6257 14.0413 23.0145
Pt 33.6898 18.0633 32.7454
Pt 35.197 24.782 30.5432
Au 32.5741 15.7675 31.5794
Pt 32.5372 31.6726 29.4832
Pt 31.5654 15.7068 28.3176
Au 31.546 33.9988 28.3678
Au 31.0544 16.255 33.844
Pt 31.1053 29.3337 29.6942
Au 30.0277 16.2699 30.4492
Pt 30.1321 33.2349 30.8213
Au 28.5317 16.951 32.6799
Au 25.507 33.1296 34.6306
Au 33.1335 21.0058 18.3953
Au 33.2595 28.6007 18.3105
Pt 32.2986 18.6636 19.7996
Pt 32.5165 30.9162 19.6977
Pt 31.4841 16.4051 21.258
Au 31.7403 33.2468 21.188
Pt 30.8816 19.5396 17.6234
Au 30.9875 30.0367 17.4827
Pt 30.0358 17.2727 18.9985
Au 30.214 32.3696 18.9081
Au 28.5934 18.1878 16.769
Pt 28.7224 31.402 16.6242
Au 15.9373 20.3347 31.4492
Pt 15.9138 28.7533 31.5146
Au 16.8937 18.2255 29.9203
Pt 16.7954 31.011 30.2218
Pt 17.827 16.0114 28.4138
Au 17.689 33.3824 28.8739
Au 18.1635 18.8438 32.4018
Pt 17.9092 30.2632 32.6818
Au 19.1189 16.6473 30.8475
Au 18.8602 32.5311 31.3094
Au 20.3531 17.2044 33.2941
Pt 20.0158 31.4473 33.882
Au 16.5161 21.0539 18.4169
Pt 16.5542 28.6135 18.4618
Au 17.3306 18.7241 19.7154
Pt 17.3361 30.951 19.7851
Au 18.2365 16.4097 21.0503
Pt 18.1413 33.2709 21.2465
Au 18.8527 19.685 17.5379
Au 18.8369 30.0998 17.5937
Au 19.6564 17.2994 18.822
Au 19.6359 32.4166 19.0178
Pt 21.1139 18.2378 16.6933
Pt 21.159 31.4995 16.775
Au 38.4672 24.6636 16.1231
Pt 38.7492 24.7739 18.8675
Pt 39.0754 24.7475 21.557
Au 39.3532 24.7282 24.319
Pt 39.6182 24.6891 27.0818
Pt 37.4367 24.7194 28.796
Pt 41.5008 22.3819 29.5799
Au 11.3462 24.8551 16.3892
Pt 11.075 24.8022 19.2034
Au 10.9161 24.7075 21.9436
Au 10.8246 24.5833 24.7411
Au 10.7164 24.4585 27.5809
Pt 10.6185 24.3724 30.3985
Pt 10.579 24.3359 33.2244
Pt 16.4112 38.7815 24.7113
Pt 18.9864 39.0188 24.3629
Au 21.9704 39.0727 24.2696
Au 24.9353 38.7935 24.3289
Pt 27.224 38.8866 25.9404
Pt 29.9371 38.7032 26.5133
Au 33.7995 38.7509 25.7835
Pt 16.0973 11.0034 24.3646
Pt 18.8813 10.844 24.4681
Pt 21.6182 10.7546 24.5467
Pt 24.4125 10.6994 24.7053
Au 27.5465 10.5881 24.7648
Au 30.4178 10.8831 24.9306
Pt 34.3636 8.89659 25.7653
Au 23.2458 20.0014 36.3877
Pt 24.5409 19.5599 39.8593
Pt 22.5439 21.1584 38.8203
Au 23.1315 25.6016 36.946
Pt 27.2865 28.1078 39.5621
Pt 25.7849 27.2392 41.4659
Pt 24.4697 28.852 39.9477
Au 24.8076 16.4797 11.3759
Pt 24.7921 19.2759 11.2689
Au 24.806 22 11.2095
Au 24.8013 24.8364 11.1632
Pt 24.8603 27.6017 11.1463
Pt 24.8312 30.3336 11.1695
Au 24.8218 33.084 11.3042
Pt 37.0247 22.169 35.4615
Au 29.3038 21.8174 31.7424
Pt 30.7846 23.2124 33.758
Au 26.9824 17.9575 34.7031
Au 25.3081 23.9872 38.0695
Pt 35.6525 24.9153 33.3216
Pt 33.9164 23.1708 37.3494
Pt 32.346 24.495 35.5123
Au 25.7646 25.6861 35.7372
Au 31.8042 19.5533 39.982
Au 32.4838 28.6394 33.3597
Pt 33.4822 28.5539 36.0161
Au 30.8377 26.1757 33.7359
Au 26.3103 22.0291 42.3332
Au 26.7391 30.6977 34.2678
Pt 31.9137 27.4026 37.8744
Pt 22.6066 26.7714 39.5567
Au 29.495 30.3978 34.027
Au 25.2122 26.8027 38.3695
Pt 25.7183 29.6195 37.6168
Au 36.1126 23.3161 15.3601
Au 33.8815 21.936 14.4466
Au 31.6629 20.515 13.6552
Pt 29.4194 19.1621 12.9232
Au 27.1297 17.7772 12.1947
Au 36.2416 26.1763 15.2883
Au 33.8931 24.7262 14.4304
Pt 31.666 23.3527 13.5102
Au 29.4059 21.9721 12.8063
Pt 27.1417 20.624 12.037
Pt 33.9644 27.6046 14.4237
Au 31.6923 26.2292 13.6671
Au 29.4033 24.846 12.7622
Pt 27.1203 23.4328 11.9391
Pt 31.731 29.0486 13.6427
Pt 29.411 27.627 12.7542
Pt 27.1315 26.2399 11.8985
Pt 29.4416 30.4137 12.7727
Au 27.1419 29.0172 11.918
Pt 27.1627 31.8025 12.0156
Pt 12.5441 22.3268 34.1869
Pt 14.6639 20.7546 35.1957
Pt 16.7895 19.2016 36.1476
Au 16.2257 15.765 40.2641
Pt 17.4097 15.3377 36.7227
Au 12.4353 26.3074 34.2487
Pt 14.2716 24.3984 34.6387
Pt 16.2976 22.9534 35.618
Pt 18.3629 21.4625 36.5638
Pt 19.9586 21.0727 39.928
Au 14.5196 27.8212 35.3845
Pt 16.3354 25.7623 35.8767
Pt 18.3877 24.2521 36.889
Pt 20.4692 22.7246 37.8198
Au 16.6884 29.1155 36.6236
Pt 18.467 27.03 37.1663
Pt 20.5444 25.494 38.1014
Pt 18.7207 30.7044 37.615
Au 20.5516 28.6243 38.1949
Pt 21.5373 31.9207 40.0185
Pt 13.4768 23.3794 15.4707
Au 15.726 22.0274 14.6228
Pt 18.003 20.6363 13.7638
Au 20.2908 19.2289 12.9047
Pt 22.5102 17.7987 12.0918
Pt 13.5351 26.2631 15.5477
Pt 15.6971 24.8168 14.5953
Pt 17.9672 23.4262 13.6953
Pt 20.282 22.0664 12.8057
Pt 22.5167 20.6545 12.0313
Au 15.74 27.6511 14.7058
Au 17.9963 26.2566 13.7346
Au 20.2465 24.8362 12.8313
Pt 22.5067 23.4565 11.935
Au 18.0542 29.0926 13.8326
Pt 20.2934 27.6465 12.8127
Pt 22.5201 26.2448 11.9627
Pt 20.2921 30.4767 12.9577
Au 22.5335 29.0148 11.9987
Au 22.5356 31.8375 12.1285
Au 33.6155 36.5137 23.9871
Au 35.685 34.0379 21.7747
Au 36.4189 31.704 20.2686
Pt 37.1985 29.3642 18.8704
Pt 37.8212 27.0559 17.5212
Pt 35.1857 36.3585 26.2548
Pt 35.8554 34.1375 24.5163
Pt 36.7134 31.7456 23.0392
Au 37.4693 29.4291 21.5979
Pt 38.1541 27.0888 20.2409
Au 36.0686 33.9552 27.3573
Au 36.8816 31.7252 25.8267
Au 37.6925 29.403 24.3599
Au 38.456 27.0969 22.9888
Pt 37.2854 31.6277 28.6428
Au 38.0063 29.3486 27.137
Pt 38.7605 27.0194 25.7389
Pt 38.3737 29.3188 29.8946
Au 36.4573 27.0256 27.4182
Au 36.7039 22.3909 30.2581
Au 15.2723 36.4504 23.5924
Au 14.4138 34.0625 22.1354
Au 13.6102 31.6817 20.6345
Au 12.8009 29.4043 19.2029
Pt 12.0447 27.168 17.8213
Pt 15.6067 36.5897 26.4122
Au 14.0788 34.3814 24.9946
Au 13.2585 31.9278 23.5109
Au 12.5382 29.4601 22.0601
Pt 11.8074 27.1211 20.5983
Pt 14.2892 34.079 27.6727
Au 13.1127 31.9654 26.2862
Pt 12.3092 29.521 24.8283
Au 11.6121 27.1328 23.3724
Pt 13.1463 31.5978 29.0009
Au 12.3389 29.2394 27.5578
Au 11.5151 26.9448 26.1276
Au 12.2387 29.2429 30.3661
Au 11.4775 26.7938 28.9392
Au 11.4587 26.7795 31.7239
Pt 34.2653 13.4004 23.7706
Au 35.1918 15.4176 21.9587
Au 35.9982 17.7649 20.4052
Au 36.8159 20.1028 18.9573
Au 37.614 22.3968 17.5313
Au 33.4942 15.5074 26.4487
Au 35.7127 15.5134 24.7431
Au 36.7932 17.8629 25.9995
Au 37.2121 20.0763 21.7193
Au 37.968 22.4423 20.2785
Pt 38.9171 15.5692 28.3301
Pt 36.2142 15.5913 27.5335
Pt 37.2782 17.8024 28.7578
Au 37.5008 20.1139 24.4989
Pt 36.9273 15.4946 30.1855
Au 39.574 15.5144 31.0245
Pt 37.936 20.1004 27.3147
Pt 37.8648 17.7705 31.4809
Au 38.3541 20.1027 30.1078
Pt 38.8237 20.2391 32.8312
Au 15.212 13.297 23.0094
Pt 14.333 15.594 21.694
Pt 13.5747 17.82 20.3538
Au 12.7898 20.1337 19.0489
Au 12.0619 22.5318 17.7792
Pt 15.0552 13.1724 25.8139
Pt 14.1473 15.4611 24.4874
Pt 13.3406 17.7456 23.1531
Pt 12.5228 20.0433 21.8358
Pt 11.7847 22.3786 20.5297
Pt 14.0934 15.3227 27.2376
Pt 13.2044 17.623 25.9192
Au 12.3489 19.9861 24.6308
Pt 11.6096 22.3031 23.2748
Pt 13.1334 17.4548 28.7237
Au 12.235 19.8168 27.4446
Pt 11.4983 22.1854 26.1445
Au 12.2183 19.7083 30.2496
Pt 11.3795 22.0935 28.9133
Au 11.3522 21.9876 31.7524
Pt 21.9162 33.0794 37.6044
Au 20.668 35.0073 34.9224
Au 19.3778 36.0882 32.4829
Au 18.0946 40.3854 31.4525
Pt 17.9674 38.2853 27.0425
Pt 24.445 32.6515 37.094
Pt 23.2952 34.911 35.6104
Au 22.048 36.7144 33.3471
Pt 21.275 37.1763 30.7127
Pt 20.629 38.2104 28.1437
Pt 26.5489 38.3238 34.6943
Pt 25.6036 39.2825 32.4475
Au 23.4073 37.8101 29.3868
Pt 22.8488 38.2527 26.5909
Pt 27.1517 36.9553 32.5187
Pt 26.1587 38.1396 30.1601
Au 25.3437 38.3498 27.6151
Pt 30.6276 37.7137 32.1046
Au 28.2949 35.9575 30.1714
Pt 32.2576 39.1928 27.8439
Pt 19.9244 15.5271 35.5185
Au 20.9735 13.4503 33.8933
Pt 19.7357 12.7796 31.4765
Pt 18.5233 12.1654 29.0594
Pt 17.2985 11.5937 26.7097
Pt 24.9472 13.8335 36.4575
Pt 23.7906 13.214 34.0951
Au 22.5396 12.567 31.6432
Pt 21.3121 11.885 29.2226
Pt 20.0697 11.401 26.8434
Pt 28.3149 15.217 34.7182
Au 25.32 12.4218 31.8489
Au 24.1797 11.6192 29.353
Pt 22.8151 11.2719 26.9699
Pt 28.0811 12.2422 32.0252
Au 26.938 11.6939 29.5452
Au 25.9051 10.8686 27.0649
Au 29.7876 11.5799 29.7642
Au 28.7462 10.9936 27.2515
Pt 31.5363 11.2157 27.4649
Pt 23.4542 34.1977 13.5533
Au 22.03 35.1903 15.7897
Pt 20.3853 35.9935 17.9173
Pt 18.9149 36.879 20.1365
Pt 17.5546 37.817 22.3536
Au 26.3479 34.1034 13.4654
Pt 24.9512 35.1853 15.6941
Au 23.6048 36.2559 18.0194
Pt 21.7846 36.9756 20.0101
Au 20.3882 37.9105 22.2739
Pt 27.7662 35.1307 15.5645
Pt 26.4192 36.2392 17.7694
Pt 25.2035 37.3798 20.0378
Au 23.3337 37.9347 22.0205
Au 29.3094 36.0476 17.7039
Pt 28.0097 37.2042 19.8611
Au 26.8629 38.1488 22.307
Pt 29.5557 37.8081 21.9507
Pt 28.7285 39.4155 23.9599
Au 31.2747 38.0281 24.0657
Pt 23.3704 15.4404 13.5218
Pt 21.9901 14.4806 15.656
Pt 20.52 13.5724 17.8005
Au 19.1139 12.6955 19.9921
Au 17.5921 11.8467 22.168
Pt 26.2312 15.3871 13.5462
Pt 24.7897 14.4006 15.6936
Au 23.3593 13.4252 17.8676
Pt 21.9339 12.5173 20.087
Pt 20.4382 11.6623 22.2551
Au 27.6606 14.4933 15.7911
Pt 26.1673 13.511 17.9748
Au 24.7692 12.4742 20.2011
Pt 23.2195 11.5745 22.3667
Au 29.1715 13.6194 18.0886
Au 27.6183 12.576 20.3181
Pt 26.0063 11.4782 22.5151
Au 30.5958 12.6598 20.4211
Au 29.0454 11.5678 22.576
Au 32.1004 11.62 22.7416
Au 34.5891 15.9086 36.9934
Au 33.5483 29.3214 30.7192
Pt 35.1607 15.2755 32.1276
Au 35.1369 31.6407 30.4331
Au 32.8348 11.1758 34.1454
Pt 34.1593 33.84 29.3811
Pt 33.0154 13.3697 28.2258
Pt 33.2711 36.072 28.4604
Pt 34.8625 20.7741 36.3885
Au 33.9988 31.0712 32.9579
Au 35.037 12.7521 33.4013
Pt 32.767 33.3577 31.7326
Pt 31.3264 13.7217 30.2915
Pt 31.3841 35.5312 30.7169
Pt 26.1175 11.3814 36.3998
Au 30.7772 33.0319 33.6373
Au 33.6107 13.5457 35.7797
Pt 29.3724 35.28 32.5785
Pt 25.9297 14.5431 38.794
Au 28.6953 30.8213 31.1486
Pt 35.3445 20.9222 16.7335
Au 35.5925 28.5655 16.6472
Pt 34.4987 18.6153 18.1743
Au 34.8683 30.8986 18.0351
Pt 33.695 16.3511 19.5735
Au 34.0581 33.1629 19.5144
Au 32.8611 14.0964 21.2469
Au 33.1714 35.5891 20.7544
Au 33.0763 19.5663 15.9409
Au 33.2774 29.9989 15.7791
Pt 32.2734 17.2257 17.3866
Pt 32.5647 32.2712 17.2403
Pt 31.4608 15.0052 18.8264
Au 31.7397 34.6067 18.4904
Pt 30.8833 18.1051 15.1758
Au 30.99 31.3922 14.9428
Pt 30.0538 15.8313 16.589
Au 30.1476 33.711 16.3158
Pt 28.6151 16.7692 14.3556
Pt 28.7047 32.7787 14.11
Au 13.4174 20.1781 32.7324
Au 13.3663 28.6588 32.8305
Pt 14.3048 18.0012 31.232
Au 14.2673 30.9315 31.4301
Au 15.3191 15.9014 29.6577
Au 15.1697 33.342 30.1244
Pt 16.2889 13.7324 28.1762
Au 16.3671 35.9497 28.8926
Au 15.5563 18.6027 33.7
Au 15.4118 30.1625 33.9813
Au 17.7674 17.0578 34.6108
Au 16.2859 32.5051 32.5822
Au 17.5587 14.3343 30.5837
Au 17.167 35.0368 31.3036
Pt 16.4717 17.4766 38.1898
Pt 17.5295 31.4402 35.1499
Pt 18.7283 14.9112 33.0658
Au 18.4244 33.7554 33.7921
Pt 18.9379 17.6506 37.0578
Pt 19.5943 32.8726 36.1834
Pt 14.234 20.993 16.8308
Pt 14.2554 28.603 16.9365
Pt 15.0034 18.6794 18.1264
Pt 15.0512 30.9446 18.2545
Pt 15.8356 16.4055 19.4434
Au 15.7895 33.2612 19.6494
Au 16.7025 14.1477 20.7924
Au 16.6161 35.5184 21.1539
Au 16.5184 19.6372 15.9576
Au 16.4807 30.068 16.061
Pt 17.2987 17.3113 17.2848
Pt 17.2583 32.4057 17.4133
Pt 18.2009 14.9861 18.5972
Pt 18.0521 34.6472 18.8187
Au 18.8139 18.2143 15.122
Au 18.7735 31.4858 15.1497
Pt 19.6171 15.8696 16.3977
Au 19.5781 33.7414 16.5803
Pt 21.085 16.7826 14.2792
Au 21.133 32.8426 14.3588
Pt 40.6589 24.5635 14.4631
Pt 42.6159 22.2757 19.7313
Pt 40.5418 22.3005 21.3524
Pt 40.8496 22.3242 24.096
Pt 41.1183 22.3867 26.854
Pt 39.0306 27.0017 28.4717
Pt 39.3776 27.092 31.1828
Au 37.7667 24.7497 31.5446
Au 9.06158 24.7996 14.8605
Au 8.83452 24.7705 17.701
Pt 8.58994 24.7493 20.4254
Pt 8.47407 24.7249 23.1592
Au 8.36677 24.5963 25.9289
Pt 8.34623 24.4988 28.8751
Au 5.94357 24.4709 32.9585
Au 11.18 22.7481 38.0325
Pt 14.1563 38.8347 23.2006
Au 19.2162 43.8248 23.5223
Pt 20.3953 41.2649 23.796
Au 23.7035 41.2071 23.5873
Au 26.5579 41.2878 24.293
Pt 33.4656 41.5832 25.4666
Au 32.8152 42.0892 27.9631
Au 34.6338 42.0803 22.8774
Au 14.5409 8.70114 24.1449
Pt 17.4104 8.57096 24.1617
Au 20.1136 8.3848 24.3259
Pt 22.9284 8.45386 24.4576
Au 25.866 8.41747 24.6598
Pt 29.217 8.356 24.4858
Pt 30.4937 8.73516 26.8559
Au 36.0247 6.88437 25.5088
Au 26.4461 19.23 41.9684
Pt 27.0601 19.7762 39.4254
Au 29.1403 18.3257 40.7114
Pt 24.5141 22.3785 40.2705
Pt 19.9484 26.8651 40.2409
Au 26.3418 30.0252 41.7235
Au 31.2105 27.8783 40.4868
Pt 28.0539 30.524 38.9152
Pt 24.8058 15.1469 9.06601
Pt 24.8039 17.8765 8.93538
Pt 24.7917 20.6371 8.75284
Au 24.7666 23.4056 8.78756
Pt 24.8075 26.2315 8.78409
Pt 24.8208 28.9512 8.78387
Pt 24.7904 31.7259 8.83593
Pt 24.7276 34.4923 9.02909
Au 38.8329 23.6425 36.6973
Pt 32.6356 19.4452 37.2644
Au 36.5154 22.2306 38.1453
Pt 30.1472 23.2072 36.4021
Au 29.9242 13.0943 38.2784
Pt 25.4362 18.5528 37.3964
Au 36.1919 29.3898 31.6459
Au 40.6771 24.9348 35.0932
Pt 31.7479 24.695 38.1547
Pt 27.987 19.1569 36.9994
Pt 24.4651 25.0796 40.5528
Au 32.9054 17.2295 38.9348
Pt 34.5321 23.0414 34.7087
Pt 34.272 28.3616 38.5475
Au 33.4108 26.1912 39.9048
Pt 29.4816 26.0671 39.0204
Au 31.028 22.0613 40.9262
Pt 34.6228 31.1323 35.7102
Pt 36.0294 29.076 36.7915
Au 33.1505 30.0346 40.2395
Au 31.0698 24.9712 40.8947
Pt 32.0869 30.864 34.9714
Pt 30.6764 30.5626 39.5679
Au 26.3687 24.8038 42.5049
Pt 30.1948 30.8091 36.9141
Pt 30.7851 28.4742 35.6368
Au 28.0657 32.8256 32.8851
Pt 38.367 23.2127 13.7403
Au 36.1158 21.8801 12.8517
Pt 33.8654 20.4074 12.0077
Pt 31.6446 19.142 11.2643
Au 29.3468 17.7802 10.5741
Pt 27.1025 16.4048 9.82149
Au 38.5313 26.061 13.6385
Au 36.1911 24.6775 12.7652
Pt 33.982 23.2747 11.789
Pt 31.7107 21.8779 11.0844
Pt 29.4223 20.5843 10.3954
Au 27.0736 19.2337 9.64002
Pt 36.2296 27.5315 12.9058
Au 33.9785 26.1411 11.964
Au 31.7421 24.725 11.1269
Au 29.4102 23.3892 10.3648
Au 27.1155 21.9911 9.54753
Au 33.9944 29.0573 12.0547
Au 31.6832 27.5948 11.2097
Pt 29.3957 26.2151 10.3118
Pt 27.1239 24.8452 9.53327
Pt 31.7461 30.4135 11.3076
Au 29.437 29.0097 10.2765
Pt 27.1616 27.5699 9.43677
Au 29.4076 31.8593 10.4154
Au 27.1387 30.4081 9.44789
Pt 27.0906 33.1835 9.65663
Au 7.37966 19.737 32.6795
Au 8.48205 20.0389 35.125
Au 12.7239 16.6827 37.0531
Au 17.1653 13.6002 38.8454
Au 24.1837 17.7068 41.9267
Pt 18.6409 15.9198 39.0708
Pt 15.8792 21.3193 37.6975
Au 13.1459 27.0603 39.2459
Pt 17.9162 19.785 38.6444
Au 19.6286 19.4482 42.1084
Au 15.3594 19.6493 39.8598
Pt 23.969 20.5873 42.1634
Pt 10.929 28.5647 34.1095
Pt 15.8276 24.1523 38.0611
Au 17.4417 23.9127 41.5216
Pt 19.9498 23.8858 40.2172
Pt 21.977 22.1633 41.2601
Pt 14.1551 29.2044 37.6921
Au 15.3144 25.4989 40.4523
Pt 17.9018 25.4337 39.2887
Au 19.5427 25.4607 42.5281
Au 17.0694 30.22 41.3803
Au 15.2546 28.5011 40.3369
Au 19.4084 28.7857 42.1396
Pt 21.8107 29.2482 40.4376
Au 23.8111 28.8392 42.6626
Pt 23.7337 31.0934 41.3064
Au 11.1964 23.377 13.8356
Pt 13.4695 22.0188 13.0212
Au 15.7127 20.5985 12.2506
Au 17.9684 19.189 11.3756
Pt 20.2925 17.7722 10.5115
Pt 22.5044 16.4085 9.72473
Pt 11.2644 26.2775 14.0075
Au 13.4212 24.7973 12.9997
Pt 15.6966 23.4319 12.1307
Au 17.9647 22.027 11.2763
Au 20.1854 20.6103 10.3824
Au 22.494 19.2648 9.62194
Au 13.3648 27.6788 13.1305
Au 15.6828 26.2238 12.1726
Pt 17.9439 24.8088 11.2727
Pt 20.2014 23.4755 10.3856
Pt 22.4787 22.0245 9.61012
Au 15.6927 29.0905 12.2419
Au 17.9378 27.6392 11.2456
Au 20.2021 26.2079 10.3685
Pt 22.4212 24.8513 9.51721
Au 17.9136 30.465 11.4121
Au 20.1782 29.0779 10.3897
Pt 22.5374 27.5712 9.58261
Au 20.2097 31.9217 10.5162
Au 22.4775 30.4282 9.55184
Pt 22.4693 33.1891 9.71954
Au 36.316 40.0832 19.3124
Au 39.6151 36.2103 19.7142
Pt 38.0299 33.8435 20.0081
Au 41.313 31.639 19.7377
Pt 39.4085 29.2865 17.2269
Pt 39.9916 26.9382 15.8519
Au 38.57 38.5742 24.5189
Au 37.189 38.8529 17.0267
Pt 38.2818 33.8813 22.8563
Au 42.0451 29.2337 18.2846
Pt 40.6619 27.0229 21.3035
Pt 41.2327 24.6326 19.9274
Pt 37.7029 36.1728 27.2046
Pt 37.3709 36.2115 24.2331
Pt 39.2903 31.6592 24.0995
Pt 40.0916 29.3922 22.6581
Au 43.7803 24.4973 20.9879
Au 38.7536 33.8906 28.3635
Au 38.4142 33.9614 25.5847
Au 41.6422 31.742 22.5305
Au 43.2822 26.9283 22.3658
Pt 39.878 31.5362 29.547
Pt 39.5028 31.6648 26.8501
Au 40.2982 29.3365 25.3842
Pt 39.7008 27.1618 33.8784
Au 40.5924 29.2804 28.1873
Pt 36.8432 27.0504 30.1814
Pt 11.9125 38.6244 22.071
Au 13.0589 36.3618 21.8066
Au 12.0816 33.9236 20.5454
Au 11.1919 31.6783 19.0906
Pt 10.3902 29.3757 17.699
Pt 9.79172 27.1341 16.326
Au 15.298 42.3383 27.1792
Pt 13.8553 38.3794 25.7519
Au 11.5054 34.3125 23.2304
Pt 10.8925 31.655 21.9665
Au 10.1912 29.3895 20.4914
Pt 9.5274 27.1148 19.0953
Pt 12.8385 36.1815 27.023
Au 11.3073 34.3052 25.9717
Au 10.6853 31.7585 24.7147
Pt 9.92708 29.3973 23.3236
Pt 9.35334 27.0851 21.8446