2057
Atoms. Timestep: 20865
Au 30.7697 23.4179 10.1248
Au 28.5125 7.03756 27.4791
Au 32.3047 27.5837 9.13521
Au 27.5098 26.3827 7.88638
Au 6.87152 23.6337 20.5895
Pt 24.5583 22.5486 34.4928
Au 8.30374 30.3785 17.4946
Au 20.4868 32.7189 10.6037
Au 31.0886 18.2593 12.6709
Au 34.9934 31.7781 11.8637
Au 40.7907 32.0732 21.5543
Au 38.4864 27.4863 17.378
Au 24.2948 41.2355 13.4682
Au 25.2811 32.9166 15.4696
Au 17.4907 23.7072 11.4683
Au 22.6588 37.0888 40.0078
Pt 25.7934 19.2225 13.6449
Au 20.0765 41.3334 15.3896
Au 40.3048 23.0369 15.9592
Pt 17.6374 34.0854 29.16
Pt 33.1772 34.5967 25.803
Au 14.4502 12.2176 28.8144
Au 18.438 20.2583 13.3766
Au 13.3426 24.626 16.8839
Au 22.7838 15.0407 37.9484
Au 19.5015 22.0915 42.4554
Au 14.0636 34.847 13.6393
Au 25.1548 7.04352 33.6462
Au 8.83207 22.2724 19.266
Au 34.2174 31.5939 18.1678
Pt 35.2801 31.3125 23.727
Au 20.1268 34.844 18.9095
Au 22.4692 6.72523 32.834
Au 16.4605 29.4254 16.517
Au 27.8643 24.0544 9.3886
Au 26.3736 24.2983 11.6352
Au 19.7729 27.7914 13.4733
Au 12.734 32.8422 15.6061
Au 21.9355 30.7398 17.1058
Au 27.3776 8.03148 19.5662
Pt 36.3064 32.4933 28.5885
Au 18.7917 43.5395 21.8092
Au 23.8946 17.8787 36.7209
Pt 28.7975 32.0063 33.3803
Au 34.0236 35.7139 14.5726
Au 20.8866 40.3407 17.7961
Au 15.6244 25.6143 12.4223
Au 13.0456 35.4591 16.3754
Pt 32.0914 36.1734 23.905
Au 18.7888 7.3412 26.7532
Pt 9.0305 27.9273 26.6124
Au 20.1725 35.712 16.1412
Pt 25.3603 29.2449 24.5749
Pt 10.9279 23.4042 20.8288
Au 29.0639 12.3331 11.232
Pt 35.0238 13.8282 29.1136
Au 23.8513 34.0489 12.9701
Au 38.5423 30.0981 18.1241
Au 34.7147 24.4576 7.38609
Pt 21.977 28.4823 21.3346
Au 38.1385 25.9875 13.6656
Au 15.7315 40.8623 27.9291
Au 22.1686 28.0987 7.64215
Au 26.7056 23.5777 16.4943
Pt 13.5459 32.1664 30.2669
Pt 32.7752 34.0109 32.5977
Pt 15.1493 23.6181 35.6911
Au 29.8626 9.03856 28.724
Au 34.6973 21.742 8.54297
Au 12.9814 38.2433 23.4675
Au 26.0395 20.7341 5.87212
Au 31.594 30.2879 8.72654
Au 22.56 26.5489 5.32493
Au 22.193 21.8033 12.3972
Au 16.9371 10.7965 15.7176
Au 33.6437 18.4807 8.25213
Au 12.3858 32.9588 35.4255
Au 24.0922 16.8312 4.82652
Au 15.5341 24.6337 21.14
Au 35.2561 27.7853 39.2682
Au 18.0319 26.5828 6.83391
Pt 28.5201 34.013 37.5152
Pt 31.9751 16.5476 28.4285
Au 23.7838 38.5673 14.3447
Au 29.7948 36.4118 10.7547
Au 21.6845 21.1823 4.95936
Au 27.9789 30.7578 5.26284
Au 22.5461 29.315 5.14863
Au 32.1066 41.3422 21.0807
Au 21.0186 33.267 13.4015
Pt 17.126 30.4076 36.0846
Au 32.0716 17.2506 6.29788
Au 37.2574 23.7514 12.2378
Au 27.7667 40.9967 19.5459
Au 29.7189 21.663 3.55818
Pt 14.0498 31.7199 27.5998
Pt 21.0708 26.4897 30.8857
Au 29.3888 21.5093 8.75958
Au 26.0154 42.1999 17.3585
Au 21.7396 40.5043 13.2988
Au 23.8215 20.5929 9.67855
Au 21.4158 8.46219 26.7443
Au 17.8602 27.1728 15.5195
Pt 38.8261 19.6586 28.2417
Au 36.796 20.7958 15.66
Au 28.6006 42.5382 34.214
Pt 37.1666 31.9163 25.8857
Au 27.7852 32.625 17.0747
Au 27.2923 37.6228 14.4244
Au 24.2096 6.62739 30.7974
Au 29.5068 16.46 11.0225
Au 25.2083 26.0804 5.97564
Au 19.0004 15.0065 36.4644
Pt 28.5056 25.0416 24.4947
Au 11.5537 13.6672 25.385
Au 11.1309 29.358 17.2196
Pt 20.2865 24.742 36.2146
Au 26.2006 9.09936 17.2787
Au 16.6947 30.8919 10.9216
Pt 15.8331 32.9398 23.7624
Au 20.6463 25.8043 7.5997
Au 22.288 26.5352 12.9666
Au 21.4683 16.533 4.40822
Au 14.3947 11.8006 16.9312
Au 17.616 31.8368 15.4811
Au 16.4282 33.2418 8.86393
Au 41.2097 20.7343 27.2865
Au 9.7775 19.9409 34.7976
Au 20.2467 25.0618 5.09818
Au 13.5577 30.6112 17.2564
Pt 24.2623 35.7948 38.3439
Au 29.1677 29.4145 7.40806
Au 17.1194 28.3889 9.4349
Au 19.2403 18.1213 11.0066
Pt 12.1156 30.4748 21.5057
Pt 34.5942 22.7986 29.1653
Pt 26.4573 19.4543 35.8035
Pt 18.7766 15.6428 29.1013
Au 21.3468 43.6567 22.3762
Au 26.3493 26.2364 15.7661
Au 21.5936 20.2152 43.6628
Au 10.7366 35.4899 26.8268
Au 27.5278 27.0064 10.5373
Au 21.1919 27.9295 10.8821
Au 35.0166 26.6844 8.99497
Au 23.0694 33.0647 9.29242
Au 18.7251 31.6813 12.7928
Pt 30.1462 19.6201 17.1843
Au 7.88799 17.3649 23.9519
Pt 35.9428 33.5807 19.3698
Pt 33.399 24.7842 35.1403
Pt 30.46 28.7636 29.0943
Au 30.6636 20.7431 11.2993
Pt 12.3984 33.9788 28.3102
Au 39.0383 33.8448 22.5131
Pt 26.7287 25.7827 31.5475
Pt 29.786 37.2294 24.6143
Au 29.3004 19.8961 39.862
Au 20.8004 28.7813 18.974
Pt 33.4823 30.2591 34.6767
Pt 34.1938 15.4767 36.8084
Au 38.1159 33.3248 15.1234
Au 25.4436 38.0826 10.245
Pt 30.4551 14.6278 19.9728
Pt 24.7043 18.9119 39.2002
Pt 28.0119 29.7691 29.2348
Pt 25.4592 15.2015 11.1506
Au 23.224 31.1335 7.07224
Au 12.7433 13.7796 16.0387
Pt 41.6276 23.3357 23.0568
Au 29.667 14.706 40.7412
Au 28.5676 28.9377 12.9894
Au 14.7989 30.0891 12.6958
Pt 21.1275 23.9171 24.127
Au 23.8038 30.0394 19.1862
Au 35.0477 34.3321 17.0182
Au 20.2351 42.2594 19.8712
Pt 27.9925 12.7946 30.014
Au 20.5207 10.8542 30.5854
Au 13.7809 37.9187 17.7217
Au 17.4018 9.10364 22.9363
Au 24.6728 27.9543 4.05957
Au 26.7387 33.9259 8.39534
Au 10.8802 25.9441 13.006
Au 24.4348 19.2884 43.7731
Pt 19.5166 21.2749 37.1886
Pt 38.7967 27.1003 24.9055
Pt 29.9457 18.257 21.8654
Pt 36.7855 32.5118 21.6608
Pt 29.5216 27.0759 25.5892
Au 18.568 41.9147 17.6182
Au 17.5055 18.8233 40.6087
Pt 36.7929 17.8073 19.2558
Au 31.6414 32.9199 8.05923
Pt 30.558 18.0524 34.9868
Pt 11.2676 30.4413 30.8286
Pt 20.9201 17.1188 36.831
Au 10.7991 20.6821 18.034
Pt 14.4648 24.7267 31.0179
Pt 17.1678 27.9265 37.4191
Pt 31.313 33.509 37.0714
Pt 28.1199 22.5092 22.9337
Pt 16.2059 29.8941 38.709
Pt 34.1827 20.8487 27.3678
Au 15.7733 21.5379 19.6809
Pt 18.3964 14.0483 20.7337
Pt 13.2855 21.7042 24.5103
Pt 27.4226 17.6195 20.4814
Pt 27.9686 15.2758 30.8056
Au 16.0164 30.6559 8.22047
Au 19.0923 34.3181 8.77872
Au 21.9082 35.2542 8.25962
Au 13.1525 17.8751 39.8519
Au 37.5492 23.4699 15.0876
Au 31.7758 26.7177 4.56281
Au 8.20576 31.796 23.5126
Au 33.1241 33.133 15.5786
Au 29.9817 26.1217 9.2308
Pt 31.4701 20.8621 34.2955
Au 20.5179 16.2966 9.12522
Au 29.6997 23.9948 7.37175
Au 20.7348 23.2175 16.7406
Au 14.5429 22.2368 15.8132
Au 25.6272 14.1397 8.62144
Au 19.5266 35.3442 11.9264
Pt 15.5743 20.7935 39.191
Au 25.1667 43.5221 19.488
Au 30.1018 30.3776 14.7947
Au 18.1648 36.7539 18.1337
Au 32.1571 9.1271 30.4008
Au 30.6219 18.8844 42.0245
Au 17.7801 17.001 8.38007
Pt 13.2418 23.75 22.3876
Au 23.5104 24.1852 11.8239
Au 23.4565 39.528 11.4764
Au 10.7 14.1225 20.412
Pt 24.6691 21.0748 25.3725
Au 8.94677 31.3752 29.9591
Au 15.122 25.4354 40.5278
Pt 21.3861 35.9951 22.8815
Au 28.0754 24.3482 14.2364
Au 9.47386 22.2777 36.3284
Pt 23.1716 19.8085 19.6088
Au 10.6407 34.0269 23.0997
Au 13.1327 22.0532 11.2707
Au 41.5177 21.3941 29.9229
Au 29.1044 25.1307 11.7268
Au 16.9611 25.4866 9.04991
Au 32.1818 37.6703 15.0259
Au 32.0099 25.6248 7.20364
Au 24.1233 21.3933 3.95712
Au 26.0452 31.4188 7.17238
Au 21.6966 13.3516 40.2932
Au 34.8646 29.3712 13.1204
Au 28.0247 38.1622 11.6324
Pt 28.4419 35.4131 22.891
Au 26.1257 23.7883 7.21434
Au 40.3604 25.7821 15.6403
Pt 19.7751 22.2599 22.6468
Au 15.5274 17.0009 41.4115
Au 27.4865 35.1175 15.7926
Au 27.2739 27.3772 41.7257
Pt 32.1669 24.567 23.947
Au 25.478 11.2813 39.5412
Pt 28.9985 17.0482 13.6044
Au 17.3923 29.5201 42.4639
Pt 16.6782 18.2542 22.8277
Au 26.4317 9.54598 24.4491
Au 32.4916 32.2637 10.7219
Au 29.6029 30.0308 17.5732
Au 14.9372 31.2569 15.0939
Au 25.0669 35.0069 17.4383
Au 13.8238 33.5028 18.2578
Au 14.4244 23.3371 13.3124
Au 20.6165 41.5887 28.7613
Pt 17.0635 37.7609 31.4487
Au 13.3328 13.6136 18.7739
Au 34.601 37.2986 16.7037
Pt 26.1888 23.6708 21.0749
Pt 21.2206 15.071 28.3409
Pt 18.5793 13.109 15.4001
Au 37.0537 31.1546 13.5745
Pt 30.9647 19.1012 24.5207
Au 23.555 29.1942 12.1462
Au 18.0961 16.8245 42.7329
Pt 38.8909 25.4605 27.2497
Au 23.0175 6.67158 25.4259
Pt 35.2817 17.6519 25.5572
Pt 32.6559 24.574 29.7774
Au 37.4631 13.515 30.8709
Au 30.6889 28.1348 19.5637
Pt 23.2115 39.5922 25.1434
Pt 35.9824 24.8229 21.1802
Au 24.3227 16.9324 13.1593
Au 28.1097 19.4495 7.28109
Au 19.6071 21.9833 11.4772
Au 17.8844 29.3261 6.82701
Pt 13.6257 15.0601 21.0992
Pt 12.0235 27.6814 27.3303
Pt 12.86 27.226 24.8134
Pt 26.1832 27.8925 29.8261
Pt 25.6887 11.625 17.7314
Pt 11.4183 28.6455 32.9139
Pt 25.6117 18.3325 16.2243
Pt 26.827 15.0316 33.5324
Pt 30.7431 12.2756 24.3824
Au 25.5379 43.6661 27.273
Pt 20.1876 26.5182 40.6714
Au 6.61707 25.4039 22.7587
Pt 18.3601 39.418 18.7378
Pt 36.4112 30.9011 19.6302
Au 18.0599 22.2952 18.0284
Au 14.5198 9.60713 24.429
Pt 25.5547 11.9796 29.133
Pt 20.1478 22.461 34.859
Pt 28.7763 24.5956 30.0757
Au 23.4048 41.529 18.5276
Au 24.8052 26.6865 11.9079
Pt 29.4443 30.1906 31.4946
Pt 12.6718 18.9057 25.4989
Au 18.3229 18.3353 6.00981
Au 28.2589 19.5656 4.52043
Au 20.9242 32.7123 7.69582
Pt 21.7723 19.6806 37
Pt 27.5467 31.7954 38.6058
Au 25.5194 37.5904 16.5927
Au 37.1696 36.6952 25.6961
Pt 21.4215 9.75873 16.7782
Pt 22.3732 18.6461 22.0242
Pt 16.8564 11.1045 24.7071
Au 20.6387 12.9957 37.5522
Au 25.006 7.54809 15.4897
Au 22.3181 23.8216 14.3128
Au 27.2786 19.1553 42.51
Pt 23.6702 24.2916 22.9286
Au 43.0181 25.5347 24.1923
Pt 18.7054 36.443 29.3389
Au 32.7598 13.31 11.838
Au 27.1114 17.0056 9.18425
Au 21.2292 13.7048 34.9751
Pt 9.94699 25.9166 31.2663
Pt 27.3789 9.86132 29.3977
Au 24.7939 10.5467 11.041
Pt 16.0979 14.8488 19.202
Pt 34.8228 18.4355 28.2258
Pt 27.8017 11.1087 35.1193
Au 14.4172 22.4817 41.1553
Au 28.8812 21.9922 15.788
Au 25.6689 40.2049 15.555
Au 20.7332 13.7608 7.7437
Pt 32.2161 19.0688 27.5789
Au 17.922 34.0484 17.1345
Au 12.2748 36.0555 19.0065
Pt 38.1311 24.8843 22.8449
Au 21.7395 8.9498 23.7887
Au 11.6407 31.7369 18.9053
Au 39.326 18.6611 20.5999
Au 29.2792 25.9562 42.7678
Au 13.7607 15.2342 13.9649
Pt 34.441 32.3021 26.1044
Au 21.792 36.0101 13.8115
Au 12.2284 11.3618 23.813
Au 31.0025 27.9441 16.2545
Au 35.6653 31.8222 38.1777
Pt 29.8279 23.5937 17.8011
Au 19.6389 28.1417 8.65554
Pt 28.9247 12.7539 22.3542
Pt 29.2405 39.7606 28.144
Au 17.2669 35.8759 10.0755
Pt 25.1369 38.6011 21.9164
Au 18.5063 23.8741 6.91426
Au 34.2374 19.694 10.6622
Au 22.147 43.0672 30.7967
Pt 37.8858 29.8567 34.6032
Pt 18.2828 31.0614 40.3195
Au 27.6132 11.6349 37.82
Au 29.3003 17.3513 5.82173
Au 29.5237 28.8165 41.9379
Pt 28.066 34.2247 27.2095
Pt 13.2288 25.1831 37.3536
Au 10.9598 27.3336 15.3423
Au 24.9857 35.8613 14.5699
Au 8.91506 32.6024 18.9592
Au 11.1101 31.243 13.8722
Au 13.6114 29.6721 39.4071
Pt 31.3507 22.88 36.575
Pt 23.602 16.2538 22.5159
Au 9.29791 17.4869 31.8119
Pt 29.4785 31.9536 35.9209
Au 22.8761 31.4849 14.4793
Au 21.0907 38.0333 12.034
Pt 19.0716 35.7646 23.9214
Au 35.3285 38.8346 32.1116
Au 23.037 43.1915 28.2458
Pt 9.55438 27.4991 20.4395
Pt 14.8406 37.2606 25.0773
Au 29.1634 26.5792 3.58684
Au 16.9333 30.2434 20.1148
Pt 24.9853 27.0514 27.5378
Pt 21.8147 16.4115 16.6252
Au 29.482 13.9525 34.3672
Pt 25.1098 25.318 17.9928
Pt 15.2815 30.6093 22.4859
Pt 18.9904 20.9369 15.9297
Au 9.34592 28.4656 30.8878
Au 21.1113 23.1466 6.86755
Au 28.0512 22.4484 5.60658
Au 29.6784 37.0351 16.0579
Pt 27.6303 41.1579 30.4836
Pt 20.5411 30.7805 32.1098
Pt 35.9732 27.594 31.634
Au 21.7343 30.3448 9.43851
Au 32.7084 23.0272 13.9226
Pt 32.9098 34.604 35.3734
Au 38.9368 30.6594 15.4277
Pt 20.4317 39.5464 20.3667
Au 6.31588 24.0248 25.2778
Pt 17.3013 16.3819 25.0233
Pt 17.9121 28.1295 25.2413
Pt 28.7898 20.557 24.6852
Pt 17.5062 28.9812 22.5569
Au 14.0172 39.8839 25.8672
Pt 26.5742 11.4284 22.5382
Pt 13.8755 22.018 33.8747
Au 37.7826 35.2251 20.4538
Au 17.0049 22.4906 14.5102
Pt 34.3233 26.4776 37.0345
Au 32.9915 20.1613 6.34063
Au 12.1582 36.1454 21.8333
Pt 30.7479 12.0526 28.9451
Au 21.4347 31.5506 19.8249
Pt 20.9209 18.2845 19.0041
Pt 21.7526 25.5821 26.1178
Pt 30.4419 19.1641 29.7272
Au 35.3915 21.9597 13.4001
Pt 20.1125 18.0592 28.3006
Au 29.7488 34.806 17.6709
Pt 36.7648 15.3414 26.0045
Au 21.395 26.0589 20.2315
Pt 31.521 16.0432 14.565
Pt 31.8275 33.0835 27.5262
Au 16.1558 31.9615 18.0136
Pt 32.0342 14.5903 25.2753
Pt 18.6203 11.8294 32.0837
Pt 18.2774 21.283 39.5788
Pt 22.6855 25.971 32.8823
Pt 19.5524 11.6336 17.2052
Pt 18.7393 21.4023 25.4011
Pt 12.0792 25.1539 30.0169
Au 28.0515 19.2814 15.1996
Au 29.9033 26.6923 14.0365
Au 17.3428 26.469 41.9683
Au 8.48868 22.2791 33.7451
Au 22.6533 18.9084 3.68213
Pt 28.6293 25.4269 40.2134
Pt 16.9036 22.2743 37.293
Au 15.3206 33.0056 21.0179
Pt 26.3537 16.868 22.9199
Au 27.5753 36.3996 18.2979
Au 29.9558 38.2728 13.5652
Au 28.1821 40.1894 14.4644
Pt 17.3061 15.4689 16.0459
Au 16.2379 38.5224 16.7285
Pt 25.2088 37.0907 36.2114
Au 19.593 10.7849 14.3349
Pt 33.2279 27.1683 30.3113
Pt 23.1948 23.4221 39.5815
Pt 32.6836 21.2894 20.8302
Au 6.36808 19.7027 23.4338
Au 32.743 10.9729 16.4649
Au 35.808 23.404 17.4651
Au 23.9576 28.1489 9.65477
Pt 28.952 15.8023 21.9484
Au 28.0746 9.77562 32.8329
Pt 16.252 12.589 26.785
Au 28.0832 7.12677 33.2727
Pt 12.9389 21.5403 21.0847
Au 31.1209 11.6288 13.1421
Pt 30.3275 20.4527 14.211
Pt 25.0237 17.2208 33.9935
Au 34.3839 31.2959 9.22883
Au 22.0701 35.0605 10.9894
Pt 28.904 16.5198 33.0413
Pt 28.5385 32.5853 21.6745
Pt 20.1768 14.0321 30.6512
Pt 23.4629 28.869 26.4634
Au 21.2904 38.3579 37.918
Pt 16.2935 27.3166 20.8188
Pt 12.0555 20.8988 31.9488
Au 16.972 22.6806 8.8074
Pt 29.5783 32.423 19.1989
Pt 22.4888 41.3195 21.1987
Pt 30.8754 29.8648 33.9862
Au 23.6579 26.2128 15.3274
Au 6.98788 26.3411 20.1818
Au 9.39352 29.5328 15.1469
Au 10.7679 28.638 12.9584
Au 18.2676 36.7947 20.9473
Au 25.2422 25.8255 9.24319
Pt 21.3775 15.4711 32.7275
Au 19.8176 17.3247 40.6712
Pt 24.1409 13.0277 16.0963
Pt 26.4248 25.2402 28.8907
Au 31.9678 17.1971 17.5142
Pt 15.9113 14.1042 21.8365
Au 23.8643 23.3333 16.4906
Pt 10.9279 23.1434 26.1132
Au 34.2193 39.6105 21.9752
Pt 22.4403 24.0611 34.8709
Pt 15.4032 26.1372 33.127
Au 14.5369 14.5651 31.0006
Au 40.1065 17.6765 26.402
Au 23.8845 22.1547 6.78586
Pt 31.8785 12.9793 18.1681
Pt 26.2558 19.6704 10.847
Au 29.5052 34.6594 8.60445
Pt 35.2121 22.2586 20.2272
Pt 33.5761 25.3654 32.362
Au 12.6706 10.4142 29.6277
Au 19.0419 37.3373 38.8327
Pt 39.2549 17.1252 28.9628
Au 33.4234 25.8591 39.8037
Pt 29.6777 19.1061 26.8771
Au 27.7109 23.6923 42.1728
Au 20.9769 10.3683 33.4483
Au 18.5812 10.2123 11.6755
Au 14.7785 36.982 15.0384
Pt 32.7344 27.8846 35.4964
Pt 23.519 23.5743 25.4672
Pt 34.459 20.374 30.4677
Au 27.3043 10.3152 12.2723
Pt 29.6044 31.3652 23.7247
Au 43.943 22.9929 19.092
Pt 14.1892 22.9211 26.6764
Au 17.6752 25.2894 19.4833
Au 35.6378 10.9481 27.2058
Pt 28.8278 22.793 20.3847
Au 28.9306 25.9087 16.7567
Pt 19.764 31.2678 23.4263
Au 28.8675 18.9953 9.96048
Pt 18.7438 16.405 31.9029
Pt 31.0644 24.5991 39.0133
Au 6.26435 25.5829 27.5437
Au 15.1167 34.3613 11.0953
Pt 30.1148 20.9314 21.9217
Au 20.5737 24.6327 12.0506
Au 16.0877 32.8097 13.1421
Au 12.7005 12.4645 21.3139
Pt 23.4055 33.3648 39.3548
Au 36.3312 19.4012 12.7442
Pt 10.3556 23.5494 28.8163
Au 25.4442 19.0557 3.7325
Pt 27.7677 36.7961 35.6415
Au 33.9663 16.8392 39.4227
Pt 21.416 30.0892 27.7407
Au 22.4106 15.7381 6.7722
Au 23.7123 30.1397 41.8676
Au 25.0307 32.334 18.1507
Au 24.5043 42.1831 31.9179
Pt 21.7369 12.0388 15.3883
Pt 23.8153 27.3489 19.629
Au 42.8544 26.9715 21.8321
Pt 33.5947 33.4331 23.4407
Pt 27.4894 24.5571 18.8495
Au 25.6151 23.6586 4.47414
Pt 39.8656 28.1511 19.8918
Pt 37.1783 31.8865 32.6052
Pt 35.7125 16.5131 34.3722
Au 29.8611 32.199 9.93925
Pt 23.9615 14.6129 33.3712
Au 15.0142 20.9572 9.48164
Au 31.7475 9.9547 36.9148
Au 16.8096 38.4569 13.9473
Pt 22.4862 24.2408 30.5302
Pt 16.5782 23.3266 39.7555
Pt 16.7364 12.8457 17.4768
Pt 13.5337 20.2038 29.6806
Au 31.2048 42.4694 33.5604
Au 28.0488 28.3985 15.8431
Pt 24.9537 28.2183 40.1045
Pt 23.6789 37.3378 33.9979
Au 40.5047 26.1762 29.3312
Pt 27.2253 31.0588 25.1926
Pt 11.9981 19.8893 22.9889
Pt 25.639 29.0098 34.8732
Pt 18.4586 33.2806 24.3791
Au 24.8046 9.25079 13.423
Au 8.13669 33.689 21.5909
Pt 23.1399 33.377 25.42
Au 18.027 9.49642 30.6292
Pt 32.3642 18.4778 32.9579
Pt 21.9626 22.9837 27.7879
Au 12.4276 13.7465 32.8828
Pt 30.17 40.272 30.4488
Pt 27.984 34.1323 34.9657
Pt 26.7699 26.7739 38.852
Au 13.3614 21.5713 18.2295
Pt 16.7208 28.0295 34.6407
Au 34.0406 28.3312 15.6299
Au 16.6345 8.81785 26.0095
Pt 29.0268 14.7869 15.0864
Pt 27.1813 33.8268 19.4155
Au 34.2183 35.7369 19.3825
Pt 19.9407 16.6565 34.4614
Au 29.7662 16.368 8.28379
Pt 34.1803 17.4148 23.1161
Au 20.536 7.73389 18.6018
Au 22.9938 31.8801 11.6529
Pt 35.4978 28.5241 35.2085
Pt 10.652 28.7516 24.7558
Pt 19.249 39.2726 27.6365
Au 8.99434 25.0856 18.8121
Au 34.7048 11.4818 33.9287
Au 8.65391 24.5699 26.9191
Pt 14.9084 26.4484 35.7701
Au 12.93 24.9857 11.538
Au 39.5079 22.4513 35.1048
Au 13.3289 27.6718 12.2565
Pt 25.3769 39.9748 26.8808
Pt 16.9465 10.5445 28.2093
Au 34.5584 14.0922 38.9153
Au 23.2815 24.8178 7.45812
Pt 35.5842 13.3678 22.4661
Au 30.1344 8.32699 22.6812
Au 38.3715 19.1685 17.6868
Au 21.2603 38.6154 15.2133
Pt 34.9802 24.2726 15.0133
Au 17.1548 34.5411 19.6989
Au 17.6121 23.0066 21.1951
Au 21.8115 20.6227 7.70072
Pt 38.6415 25.7323 20.2268
Au 16.8236 39.6118 35.1122
Pt 38.2658 21.9497 17.5329
Pt 26.2948 31.0949 33.3692
Au 13.5937 10.6962 19.3329
Au 31.6277 25.9334 18.0051
Pt 27.7337 14.7685 12.6482
Pt 29.1554 17.0586 28.7823
Pt 29.7332 17.1769 19.1133
Pt 25.8764 24.8508 26.2601
Pt 23.1425 12.8126 25.8768
Au 19.9914 41.4129 31.4364
Pt 24.9915 18.2643 21.0042
Pt 19.4333 14.8472 23.9824
Pt 19.8956 41.0189 22.4326
Pt 25.3478 20.4815 29.2894
Au 26.4413 9.15306 38.0989
Pt 16.9531 34.9635 22.4049
Au 24.5622 35.3197 41.0832
Pt 16.4851 35.2388 25.0311
Pt 27.3533 20.5364 31.3265
Pt 32.902 23.9818 16.7857
Pt 28.2892 33.4974 24.4876
Au 14.5238 34.5367 34.8742
Pt 25.7152 36.0886 23.305
Pt 12.2622 21.0664 27.3182
Pt 19.5095 32.74 33.6176
Au 13.3054 38.2445 20.4329
Pt 27.0414 36.2376 38.1429
Pt 26.8426 41.191 25.0521
Pt 34.0423 29.533 37.3563
Au 37.0195 15.5438 28.9932
Pt 11.9594 26.8963 35.0554
Pt 16.9776 28.2727 32.0428
Au 23.275 13.078 7.86966
Pt 19.9543 10.4769 22.0342
Au 15.253 27.7461 14.4645
Pt 21.1348 11.2053 11.8948
Pt 15.0078 20.9499 36.1256
Pt 12.4984 23.5084 32.0691
Pt 33.4083 15.9692 32.2644
Pt 25.8553 10.9677 31.5688
Pt 21.0236 19.3716 13.1224
Au 12.2915 35.6707 24.6441
Au 30.3834 21.3359 6.24211
Au 17.0958 20.0087 7.72547
Pt 28.0126 11.989 27.6341
Au 31.6213 8.74929 17.4329
Pt 20.5938 12.923 19.4732
Pt 37.5695 23.3557 19.5736
Pt 22.5433 22.607 18.8671
Au 36.871 32.0253 17.1013
Au 26.9053 43.3623 32.0254
Au 36.1887 37.4133 21.0524
Au 27.6959 15.4845 38.7195
Au 23.7991 36.9003 12.1313
Pt 17.7079 32.1059 21.9716
Pt 19.4705 26.0481 24.4963
Pt 30.4412 35.0229 28.6273
Pt 22.7913 36.0964 18.876
Pt 30.6954 33.9916 23.3003
Au 36.8566 28.8247 15.2934
Pt 32.9728 23.4767 27.2829
Au 23.1355 15.3804 9.46307
Au 10.8239 24.6773 15.5973
Au 32.0891 28.585 13.6541
Au 9.20262 16.4783 19.5271
Pt 32.8576 36.2058 29.2629
Au 42.6776 26.9098 16.8458
Pt 23.1503 18.8179 29.5784
Pt 36.7547 21.6589 34.6218
Au 10.2417 34.6691 20.2852
Au 10.5195 15.0284 31.2794
Au 31.9367 28.6323 6.50456
Au 15.9957 38.0611 19.476
Au 13.1891 25.7575 14.3334
Au 16.0379 26.4788 17.4318
Pt 14.6614 29.2308 36.4671
Pt 24.3659 38.7702 29.0065
Au 8.85505 24.5444 24.1683
Au 12.3613 30.2471 11.5575
Au 21.0194 30.2519 12.378
Pt 15.4101 28.2337 24.1706
Pt 22.7256 19.9055 32.1349
Au 40.8083 29.3523 31.2226
Pt 12.5787 26.276 32.4426
Au 32.3914 16.0838 8.70978
Pt 15.6777 18.8065 28.5411
Au 12.3298 15.018 35.3249
Au 15.5037 33.9405 15.7083
Au 30.5048 24.1854 4.74969
Au 12.2313 37.8907 26.2435
Au 15.7141 34.5044 37.3098
Pt 34.5803 21.4326 22.7663
Au 9.12809 33.4947 25.3488
Au 27.3065 28.8041 3.31299
Au 31.9676 15.0512 38.8769
Au 11.0999 20.2505 37.2938
Au 26.2723 29.2905 11.4315
Au 26.5027 17.702 5.82248
Au 39.7231 26.1764 35.5504
Au 15.7988 18.3217 9.60761
Au 11.4578 15.5436 22.8646
Pt 37.234 28.2146 19.919
Pt 36.0143 15.5576 31.9105
Pt 24.9868 21.6914 38.9624
Au 25.1887 24.1491 14.0896
Pt 32.8989 14.6522 16.3753
Au 27.3647 9.07607 14.7169
Pt 25.1055 37.2391 19.3399
Pt 29.4923 27.6418 33.1315
Au 34.3882 14.2354 34.3554
Pt 25.8194 37.4062 27.1255
Au 17.1159 11.8455 13.2404
Pt 13.0768 22.7969 29.2592
Pt 18.9324 29.075 27.9888
Au 25.5553 9.76818 34.0325
Au 21.2854 42.9343 17.3957
Pt 24.9697 18.6394 27.1606
Pt 17.6042 11.8018 22.0678
Pt 20.863 29.0021 30.0046
Pt 15.1553 16.1741 23.4245
Pt 17.4457 14.281 31.1566
Pt 27.9576 10.6045 18.8129
Pt 17.8334 24.9009 28.4292
Au 15.8011 9.73131 20.9116
Pt 21.3661 20.9338 20.9263
Pt 19.4675 34.1627 21.6565
Au 11.2455 16.3214 26.8679
Pt 17.0329 26.2031 23.1445
Au 32.3739 12.4323 38.0081
Pt 15.8097 36.1259 29.8906
Au 30.6594 24.3042 15.2833
Pt 30.4005 29.7399 21.8683
Au 38.2494 31.3222 37.172
Au 28.975 33.7134 40.2957
Au 25.5067 19.0879 8.17963
Pt 23.0653 33.9647 36.8178
Pt 29.5087 40.4754 32.9324
Pt 27.4147 27.74 36.4703
Au 19.7637 40.1058 33.9627
Pt 24.586 35.664 25.7284
Pt 21.5723 28.938 36.908
Pt 12.4325 24.9501 27.4916
Pt 20.3937 34.2046 28.4766
Au 31.9081 14.3712 36.0102
Pt 33.4636 29.9092 25.511
Pt 34.0624 29.6414 30.7412
Pt 34.6307 35.5056 33.5778
Au 23.7364 19.2416 6.08415
Pt 16.5879 38.984 26.2151
Au 31.9686 38.0851 36.0396
Pt 32.4437 28.1837 22.0207
Pt 27.1945 18.7323 33.3629
Au 22.8484 23.8396 4.82348
Pt 16.1178 24.9762 37.6493
Pt 26.862 31.6644 35.9103
Pt 18.6362 34.7456 26.6524
Pt 27.0848 38.7387 29.0943
Pt 28.08 27.6171 18.64
Au 20.8864 10.4787 38.4384
Pt 23.6125 19.4507 12.196
Pt 28.513 10.2165 21.3588
Pt 32.2702 13.453 33.1155
Au 32.2825 22.0148 4.44653
Au 20.0161 15.5516 11.7764
Pt 30.3637 26.6353 22.9769
Pt 40.0393 26.7729 22.2791
Au 40.9902 18.8573 18.2575
Au 7.08413 28.3089 22.1523
Au 19.0571 12.9559 39.8407
Au 20.4332 6.69103 24.7001
Pt 31.1832 14.0685 22.4134
Pt 23.4286 30.0211 38.8827
Au 15.5017 35.8194 17.6871
Pt 31.5692 21.7238 16.2424
Pt 23.3529 37.1585 24.1036
Pt 22.8714 40.5794 27.6598
Au 35.4435 26.7511 13.7587
Pt 28.4018 36.1404 32.8538
Au 29.0215 32.971 14.5987
Pt 16.4688 16.6178 30.1904
Au 14.3057 31.9289 10.3048
Pt 29.1233 24.7457 32.8519
Pt 11.0238 22.5404 23.4301
Pt 27.2255 31.6937 30.8258
Au 29.7677 26.8854 6.40004
Au 25.3665 28.525 14.2629
Pt 22.4596 21.7737 41.6916
Au 36.5416 26.336 11.2615
Pt 39.1358 24.2614 30.8316
Pt 16.2649 20.9724 33.2104
Au 28.0694 31.5755 12.295
Pt 16.6474 17.2534 18.1311
Pt 9.84025 29.9334 19.6604
Pt 19.9195 16.337 26.2687
Au 32.2323 9.80889 24.1347
Au 23.5436 9.34082 18.7321
Pt 37.338 20.4599 20.2056
Pt 12.6688 22.3948 36.3199
Au 14.0688 26.3422 19.3674
Pt 17.2541 30.7716 24.4472
Pt 25.0455 14.3686 13.7834
Au 27.2614 31.4737 9.65296
Pt 21.1862 10.991 25.9703
Au 23.0118 8.84122 34.4901
Pt 33.5457 14.99 22.1226
Au 26.1889 8.34956 31.5018
Au 25.0191 6.95591 18.2895
Pt 18.2118 11.5696 19.5071
Au 32.2967 33.5247 18.9157
Au 27.9871 21.9222 11.1809
Au 11.1986 17.7647 35.8985
Au 30.0228 11.9067 36.2514
Au 15.6978 23.767 18.023
Pt 31.5885 27.8549 26.8536
Au 18.4699 9.35825 33.5134
Au 9.12423 27.278 33.657
Pt 38.0826 29.3232 32.009
Pt 25.1596 33.8483 27.6022
Pt 29.0039 21.5557 37.4429
Pt 32.4404 11.8797 35.2022
Au 28.5335 34.3231 30.5777
Au 7.27766 28.8672 19.4594
Pt 15.6265 33.6015 31.1021
Pt 29.9267 12.0819 19.9567
Pt 23.0632 14.5163 30.8211
Pt 24.9431 23.3928 30.0013
Au 18.2522 11.5891 37.5459
Au 23.729 13.286 35.9099
Pt 23.6116 37.7141 31.2762
Pt 34.7151 32.73 33.7913
Au 26.7337 11.9176 9.75056
Pt 35.6226 23.9183 23.6929
Au 37.2376 14.1848 18.0253
Pt 14.0942 28.5637 21.3946
Au 17.581 40.2369 32.364
Pt 37.3233 17.592 27.3042
Au 24.6216 30.1909 16.2918
Au 18.9053 30.8698 9.25011
Au 13.3273 32.4393 12.846
Au 25.4813 37.6799 39.9322
Au 37.756 17.1775 35.9462
Pt 26.5014 21.0494 20.8663
Pt 36.4463 25.9169 18.7242
Pt 28.5455 28.8301 23.8741
Au 24.2021 21.4272 14.3835
Pt 28.036 17.9291 31.0161
Au 38.7647 32.7654 19.6669
Pt 36.9727 25.1687 32.1405
Au 9.00621 19.1842 19.3948
Pt 40.3191 23.5725 18.7474
Pt 28.9367 29.4631 26.6225
Au 25.0912 17.4791 41.7998
Au 24.5957 30.7746 9.54077
Pt 17.7811 23.6719 35.2206
Au 32.3629 40.08 33.1012
Au 15.0477 28.7915 18.7461
Au 13.8712 37.7608 30.8414
Pt 24.0893 26.7618 22.1816
Au 22.3813 25.314 17.7431
Au 22.3308 25.707 9.88583
Au 7.2358 20.7454 20.9754
Au 28.588 7.41984 30.4922
Au 22.8916 41.1503 15.7849
Au 30.0434 22.8282 12.9548
Au 20.0352 30.2417 42.2427
Pt 33.3777 21.2269 37.9905
Pt 37.7443 27.2841 33.8624
Pt 18.4179 30.0465 30.4433
Au 26.5529 23.8068 39.0773
Pt 17.2304 35.3112 34.8304
Pt 30.9621 35.512 31.3048
Pt 25.8322 14.2259 18.1147
Pt 34.2916 34.2476 28.2467
Pt 31.9892 16.7889 20.9206
Pt 18.401 18.3864 30.1817
Pt 20.71 16.173 21.8797
Au 18.1149 37.6665 34.0155
Au 24.7431 9.21345 29.2356
Au 8.44847 24.683 35.2415
Au 24.8782 14.5646 6.0606
Au 17.9696 28.1363 18.5546
Pt 23.5443 36.6276 21.4545
Pt 26.0098 29.7285 37.7347
Pt 24.0053 21.9673 21.0617
Pt 9.15971 27.1142 23.3154
Au 23.2082 11.7193 30.5403
Au 11.325 26.3496 17.9607
Pt 17.707 18.3983 15.6654
Au 43.4352 25.6702 19.2837
Pt 27.1084 12.7526 20.2611
Au 28.6204 41.6328 16.9529
Pt 26.2583 31.5211 20.3493
Pt 34.6599 28.6102 23.4037
Pt 27.8509 15.1788 19.6311
Pt 28.7283 17.5225 24.2387
Pt 24.631 19.8449 34.0141
Pt 18.686 27.3233 29.8755
Pt 25.5881 27.9511 17.6837
Au 36.1545 16.9381 14.1642
Au 20.3093 7.84334 15.368
Au 15.4994 39.9301 30.4965
Pt 21.7372 31.6323 37.6807
Pt 16.2938 28.0517 11.8814
Au 21.9393 28.2436 41.854
Pt 18.04 26.0659 35.9625
Au 32.0232 41.9946 31.0031
Au 18.6234 9.11638 17.1585
Pt 33.7073 22.1782 35.4229
Au 23.1091 44.1195 24.4972
Pt 26.8443 27.2328 25.461
Au 32.2531 38.4976 17.6339
Au 14.566 35.5754 20.2958
Pt 19.8009 32.8139 38.9431
Au 29.7334 42.5507 28.7908
Au 27.8721 43.4972 18.9474
Au 23.6315 9.54366 38.3661
Pt 19.5613 23.8305 26.368
Au 15.6383 31.0958 41.007
Pt 30.0969 13.7368 31.6194
Au 33.918 9.07408 26.1434
Pt 9.22312 21.4783 27.4863
Pt 20.4954 24.4914 32.9999
Au 37.3833 12.5485 20.1815
Au 16.0914 16.6038 13.9228
Pt 26.8298 20.5107 26.8173
Au 39.206 15.1178 27.1002
Pt 23.1309 27.969 34.7308
Pt 37.5078 17.9721 32.9927
Au 30.6751 40.4682 35.3546
Au 32.0389 19.1702 39.4487
Pt 25.8254 13.3397 26.7311
Pt 19.8687 15.4193 15.0565
Pt 20.5339 20.7693 27.9738
Pt 30.1822 14.6653 29.1544
Au 33.4299 22.3783 11.0423
Pt 27.9187 11.2214 16.2067
Pt 21.0166 12.3871 28.4233
Pt 38.2915 20.0816 22.8091
Pt 27.1425 40.5143 22.4274
Au 41.3498 18.7452 29.1289
Pt 24.9139 27.4674 32.6651
Au 20.8198 17.3448 43.1363
Pt 30.0936 16.4022 26.3301
Au 14.2539 12.3107 34.7961
Pt 35.8799 19.4088 23.6795
Au 41.0277 30.6918 19.1774
Au 30.388 8.45915 32.2643
Pt 21.6267 21.0891 15.1789
Pt 10.5297 24.8981 33.5783
Pt 31.5389 23.4523 33.8225
Au 35.0978 10.9626 24.5172
Pt 30.1803 10.9442 26.515
Pt 33.2244 16.9334 34.8684
Au 26.4949 25.5936 43.6115
Pt 26.2193 28.8448 20.204
Au 23.9122 38.703 37.9214
Pt 31.8512 32.1564 24.993
Pt 24.027 26.3863 30.3168
Au 30.4544 14.287 12.811
Au 12.8698 20.7967 39.3438
Pt 32.6641 17.1943 25.7399
Pt 34.1974 20.7152 33.2321
Au 14.9847 11.7087 22.8019
Pt 27.419 36.0935 25.3911
Pt 36.1476 34.3566 26.4167
Au 25.1389 39.7537 35.631
Pt 16.2628 31.6852 29.1149
Au 38.2555 21.3342 13.4298
Pt 20.9442 36.9778 20.5875
Pt 30.2356 11.008 17.5663
Au 36.4061 16.2118 38.2507
Pt 25.0579 21.785 11.8702
Au 22.4277 6.59304 22.5849
Au 34.9849 31.0108 15.4236
Pt 8.44409 22.104 24.956
Pt 23.6297 24.9228 28.0241
Pt 25.7161 10.2483 20.2592
Au 33.1601 28.3484 18.4204
Pt 34.2303 29.7508 20.6822
Au 30.7312 18.9691 7.65488
Au 16.0439 10.1257 32.5745
Au 30.1805 8.91362 19.7537
Au 34.9298 19.3626 39.2466
Au 30.8049 14.1899 9.99699
Au 31.792 25.0999 12.2376
Pt 24.825 16.6071 7.69308
Pt 22.1727 9.88992 14.0666
Pt 30.3387 34.7706 25.8256
Au 33.977 15.1602 13.537
Pt 26.1163 20.935 16.2976
Au 33.8861 17.8132 12.7326
Au 36.6847 35.7088 15.538
Pt 20.0639 34.3915 31.1181
Au 17.2611 16.057 10.9791
Au 21.5065 23.1895 44.0156
Au 28.4587 31.244 41.2302
Au 9.40472 20.3018 32.0598
Au 35.5824 33.4373 14.2195
Pt 26.3905 17.4865 37.5189
Pt 20.0538 19.4029 35.0266
Au 12.3391 34.4559 33.0394
Pt 33.3244 19.4884 35.5558
Au 12.6987 24.3227 40.0493
Au 20.2204 15.3176 38.9925
Pt 19.1241 28.5811 35.5858
Pt 25.8612 33.9107 30.072
Pt 29.0287 25.6785 35.3689
Au 36.2515 21.5177 10.9023
Pt 40.3395 27.7856 27.1193
Pt 26.4627 25.252 36.6619
Pt 29.1432 36.9931 27.3453
Au 37.9472 27.0447 38.772
Pt 23.1005 20.4993 27.434
Au 17.0182 13.9815 38.2758
Au 34.4868 21.1891 41.0936
Au 7.0324 29.5752 30.5107
Au 20.0206 14.8875 41.8396
Pt 20.6086 10.2817 19.3146
Au 19.4925 32.9127 41.764
Pt 21.3525 21.6586 25.561
Au 23.5606 6.96245 28.0833
Pt 28.5614 27.7832 21.3192
Au 19.6933 16.1088 6.54448
Au 19.7552 26.0982 17.9139
Pt 25.7856 11.4879 14.5136
Pt 20.7744 15.576 19.2381
Pt 23.1476 10.894 27.8471
Au 26.3252 6.94092 29.0319
Pt 20.8974 20.7139 17.992
Au 28.1466 34.1418 10.9301
Au 28.9139 35.6999 13.277
Au 28.9094 8.56216 17.1312
Au 11.6933 32.9505 25.8815
Au 14.6888 26.5661 9.97867
Pt 30.7239 21.4007 18.9183
Pt 20.0431 28.5823 23.3962
Pt 19.5854 18.6285 21.3388
Au 24.129 43.3703 22.0752
Au 16.3252 20.4717 16.9496
Au 19.1316 39.7282 13.438
Pt 33.9363 16.9623 15.6751
Au 39.7924 32.4035 17.2081
Au 36.708 29.2423 37.5878
Pt 33.8854 10.9385 22.0718
Au 27.1904 28.1222 5.77149
Au 11.1053 23.4691 18.1285
Pt 14.6969 25.9506 26.204
Au 32.6164 40.7919 25.4499
Au 32.2969 15.9494 11.4867
Pt 22.8302 28.6384 23.8739
Au 38.1219 18.6324 14.8359
Pt 34.9967 17.9783 36.8466
Pt 34.9613 19.4136 21.0328
Au 25.8726 43.5504 24.2567
Au 26.7377 38.9146 37.6952
Pt 17.3141 36.2561 15.5823
Au 31.829 40.9786 28.2268
Pt 34.7834 34.8779 30.8302
Pt 33.6097 32.2085 36.4021
Pt 22.1296 30.8848 25.1568
Pt 29.9758 13.6099 26.7059
Pt 36.1997 22.6994 31.136
Pt 36.1388 25.567 27.3999
Au 38.2956 15.4102 33.859
Au 24.6355 23.2162 9.50672
Au 17.3495 40.7173 15.5363
Au 34.5965 36.4509 36.2659
Au 27.8619 39.0437 16.9821
Pt 34.8286 27.7862 26.2204
Pt 34.2415 21.7517 15.8835
Au 18.5676 26.5072 11.0996
Pt 10.1373 32.0527 21.3313
Au 37.5233 36.052 23.1014
Pt 29.4238 26.985 38.235
Pt 30.9342 23.386 31.2476
Au 15.7236 24.9451 15.1971
Au 18.5691 14.43 9.11983
Au 24.763 7.78311 20.9311
Pt 11.1267 22.3202 34.1186
Pt 16.6123 32.8531 26.4967
Au 18.9652 30.5366 17.5584
Pt 15.9968 30.8172 31.5223
Au 31.8296 30.6745 19.3651
Pt 23.7046 30.3694 36.0868
Au 34.1099 26.9225 6.2875
Pt 15.0468 17.6701 25.9464
Pt 10.2752 29.2471 28.5053
Au 9.67529 16.6168 29.2032
Au 8.09173 21.9134 30.0298
Pt 34.4771 16.3378 29.8936
Pt 21.3312 35.4132 25.4003