2057
Atoms. Timestep: 20316
Au 25.0686 24.6127 25.8788
Au 27.4571 24.571 24.5418
Au 27.3997 24.5638 27.5273
Au 22.7333 24.6489 24.2902
Au 22.7499 24.5919 27.257
Pt 23.6426 26.9342 25.7778
Au 26.434 26.9191 25.8218
Au 23.5272 22.3102 25.6
Au 26.3824 22.2407 25.7175
Au 25.0097 22.9672 28.0534
Au 25.1372 26.0424 28.2613
Au 24.9857 23.2237 23.4106
Au 25.0509 26.0268 23.4914
Au 29.607 24.6765 22.8703
Au 29.8295 24.8172 26.1902
Au 31.4754 22.1454 28.1639
Pt 20.4177 24.6378 22.5817
Au 20.352 24.5859 25.6678
Au 20.3676 24.5042 28.6365
Pt 22.2052 29.1781 25.6737
Pt 24.9575 29.2953 25.595
Au 27.8047 29.2906 25.712
Au 22.0212 20.0021 25.3049
Au 24.8767 19.8924 25.408
Au 27.7612 19.9202 25.6255
Au 24.6362 21.2233 30.2597
Au 24.6916 24.2161 30.4344
Au 24.9543 27.4521 30.6127
Au 24.9242 21.8285 20.9573
Au 24.9656 24.6907 20.9782
Pt 24.9747 27.4539 21.1237
Au 27.0622 22.4528 29.879
Au 27.6814 27.9154 30.0485
Au 27.3014 23.276 21.9296
Au 27.3134 26.0861 21.968
Au 22.4657 22.7628 29.4084
Au 22.624 26.0802 29.636
Au 22.6557 23.217 21.7844
Au 22.6533 26.0621 21.8354
Au 28.7771 27.0093 24.3152
Pt 31.6863 26.8248 27.9673
Au 21.2712 26.9089 24.2112
Au 21.2496 26.9314 27.1243
Pt 28.7104 22.2122 24.0937
Au 28.8274 22.3298 26.856
Au 21.1781 22.3451 24.0172
Au 21.1163 22.1933 26.952
Au 23.5055 28.3387 28.1354
Pt 26.208 28.5839 27.9397
Au 23.4071 20.6208 27.8025
Pt 26.2525 20.5304 27.927
Au 23.5324 28.3283 23.3589
Pt 26.3855 28.3987 23.4284
Pt 23.4609 20.8309 23.0762
Au 26.3258 20.8434 23.2256
Pt 31.8132 24.7015 21.0621
Au 32.1093 24.6264 23.9246
Au 33.8074 22.1385 26.5148
Au 34.0209 22.175 29.3377
Pt 18.1235 24.6708 21.0564
Au 18.0602 24.6155 23.99
Au 17.9329 24.537 27.0683
Au 17.9821 24.4329 30.0554
Au 20.6408 31.4248 25.4496
Pt 23.4981 31.586 25.4328
Pt 26.2821 31.6747 25.4865
Pt 29.1072 31.6106 25.5751
Au 20.5501 17.6619 25.0036
Au 23.3733 17.5302 25.1058
Au 26.2266 17.4988 25.2552
Au 29.1251 17.5471 25.5976
Au 24.3091 19.5319 32.4973
Au 27.2079 25.2464 30.165
Au 26.9598 26.5384 32.5774
Au 24.6238 29.3075 32.6445
Au 24.892 20.5064 18.4879
Au 24.8906 23.2658 18.4682
Au 24.9236 26.0786 18.5473
Au 24.9711 28.8426 18.6161
Au 29.523 23.5281 29.2998
Au 26.7823 23.5921 32.4532
Pt 33.0467 29.1719 27.7861
Pt 34.1668 26.9951 29.167
Au 29.6683 27.9276 31.9711
Au 29.5667 23.2512 20.2874
Au 27.226 21.8584 19.379
Au 29.5846 26.1187 20.2781
Au 27.2618 24.6716 19.3985
Au 27.2472 27.4682 19.4453
Au 20.026 22.5848 30.816
Pt 22.0777 20.9369 31.5854
Au 20.1431 26.1811 30.967
Au 22.1346 24.2292 31.7165
Au 22.3667 27.7975 31.8961
Au 20.3483 23.2564 20.1805
Pt 22.5664 21.806 19.3292
Pt 20.3219 26.0836 20.1938
Au 22.5881 24.6588 19.3392
Au 22.6372 27.4792 19.4302
Au 30.1803 29.4063 23.9797
Au 31.0973 27.0596 22.497
Au 30.4647 29.0233 26.7137
Au 31.3651 26.8641 25.2778
Pt 32.4758 24.5381 26.7158
Au 19.8247 29.2118 24.0562
Au 18.9568 26.9146 22.5316
Pt 19.7216 29.2491 26.9893
Au 18.8482 26.9288 25.5413
Au 18.8366 26.8789 28.4536
Au 30.0704 19.9111 23.8956
Au 30.9644 22.2749 22.5249
Au 30.3741 20.0183 26.6775
Au 31.1897 22.4192 25.3245
Pt 31.0966 20.0415 30.2627
Au 19.6634 20.0037 23.779
Au 18.8632 22.3583 22.4225
Pt 19.5744 19.8559 26.6969
Au 18.735 22.2425 25.4134
Au 18.7272 22.129 28.3159
Pt 23.1304 29.9654 30.3204
Au 21.892 30.6847 27.8965
Au 25.9053 30.1396 30.259
Au 24.6569 30.8729 27.8355
Au 27.4455 30.9393 27.9346
Au 23.1154 18.8434 30.0127
Au 21.8034 18.3071 27.5071
Au 25.9612 18.8074 30.1177
Au 24.6977 18.1686 27.6498
Au 27.5343 18.144 27.8785
Au 23.4948 29.7655 20.9102
Pt 22.113 30.6389 23.2193
Au 26.3784 29.7647 20.9472
Au 24.9277 30.7191 23.1993
Au 27.8051 30.7342 23.2612
Pt 23.4317 19.4951 20.659
Pt 21.9872 18.569 22.8103
Pt 26.2535 19.4305 20.7508
Pt 24.8068 18.4621 22.8799
Au 27.6835 18.5158 23.0456
Au 28.8082 20.5899 28.9025
Au 28.6768 27.1411 27.4547
Au 28.63 20.8513 21.6171
Au 28.7281 28.4234 21.7449
Au 20.8627 20.4152 29.1372
Au 20.9732 28.4976 29.4864
Au 21.1433 20.8615 21.5253
Au 21.1509 28.389 21.6862
Pt 34.0458 24.7108 19.5179
Au 34.3422 24.6675 22.2634
Pt 36.0208 22.104 24.9104
Pt 36.3605 22.0349 27.6527
Pt 34.4277 22.5058 32.0803
Au 15.8399 24.6751 19.5393
Pt 15.7296 24.6299 22.3485
Au 15.6338 24.5948 25.3909
Pt 15.5294 24.4147 28.4226
Pt 15.6636 24.3315 31.354
Au 19.0621 33.7307 25.259
Au 21.9676 33.8972 25.2279
Pt 24.789 34.0081 25.2604
Pt 27.5863 34.0253 25.2407
Au 30.5181 33.888 25.2822
Au 19.0086 15.3652 24.7084
Pt 21.8282 15.1288 24.7857
Pt 24.6277 15.084 24.8681
Pt 27.564 15.1778 25.2237
Pt 30.4708 15.2481 25.505
Au 24.1019 17.7517 34.5591
Au 24.2413 22.5232 32.6388
Pt 23.4011 24.0898 34.7221
Au 24.3952 25.5918 32.7247
Au 24.4341 30.9476 34.9016
Au 24.8486 19.1813 16.0689
Pt 24.8697 21.9248 15.9561
Au 24.9206 24.6767 16.005
Au 24.885 27.5115 16.064
Au 24.904 30.2683 16.1493
Pt 31.5269 20.5827 33.0239
Au 28.9965 19.2449 33.7834
Au 28.082 19.1534 36.5782
Au 31.8074 22.5615 31.1271
Au 25.8466 22.9764 35.1359
Au 28.492 27.4216 34.6027
Au 32.4166 24.6012 29.4243
Au 29.4586 24.5508 31.8769
Pt 27.5653 27.1286 37.2972
Pt 31.7738 23.2889 18.6718
Pt 29.5155 21.8317 17.8393
Pt 27.191 20.5092 16.9048
Pt 31.8086 26.1302 18.6548
Au 29.5504 24.6801 17.8068
Au 27.2177 23.2591 16.8632
Pt 29.5615 27.5103 17.8289
Au 27.228 26.1079 16.9176
Pt 27.2837 28.8889 16.9417
Pt 17.6289 22.4274 32.1465
Pt 19.6075 20.6661 32.8896
Au 21.7918 19.1474 33.7274
Pt 17.7031 26.3009 32.1698
Pt 19.4706 24.2741 32.8597
Pt 21.4088 22.4678 33.631
Pt 19.8122 28.0442 32.997
Pt 21.5283 25.9118 33.6905
Pt 22.1321 29.7321 34.0103
Au 18.0636 23.2692 18.6262
Pt 20.3102 21.8963 17.7675
Pt 22.5439 20.5302 16.8756
Pt 18.0403 26.1302 18.6675
Pt 20.2741 24.7068 17.7606
Au 22.5634 23.2592 16.8677
Au 20.2807 27.5097 17.8228
Au 22.5773 26.0897 16.8869
Au 22.5558 28.904 16.9517
Au 31.5448 31.7764 23.6649
Au 32.5348 29.4506 22.1664
Au 33.3598 27.0636 20.8941
Au 31.9682 31.3873 26.3358
Au 32.8192 29.1837 24.9439
Pt 33.7201 26.9315 23.6363
Au 35.3256 29.3139 26.0743
Au 34.684 24.5076 25.0946
Au 33.9282 26.8778 26.3959
Au 18.2235 31.514 23.857
Au 17.4304 29.2314 22.3621
Au 16.6114 26.9626 20.9644
Pt 18.1378 31.4911 26.8197
Au 17.3402 29.2662 25.3423
Au 16.4681 26.9154 23.8506
Au 17.2741 29.2317 28.2237
Au 16.4218 26.8924 26.824
Au 16.4134 26.7937 29.7209
Au 31.3855 17.5184 23.7267
Pt 32.357 19.9516 22.2211
Au 33.171 22.3247 20.88
Au 31.8272 17.6909 26.4881
Au 32.6691 20.0285 25.0403
Pt 33.5219 22.2686 23.6727
Au 32.5134 17.6591 29.9894
Au 32.9184 19.7812 28.095
Pt 33.5715 20.0296 31.0977
Au 18.1293 17.6905 23.4597
Au 17.3246 20.0286 22.174
Pt 16.5722 22.3199 20.8554
Au 18.0463 17.5678 26.3608
Au 17.1743 19.907 25.1097
Au 16.4093 22.3127 23.7611
Au 17.1381 19.834 27.9877
Au 16.2717 22.2358 26.7513
Au 16.3019 22.0862 29.6313
Au 23.1701 31.7411 32.4205
Au 21.6766 32.3559 30.0975
Au 20.3692 33.0425 27.6988
Au 25.9582 31.9113 32.4597
Au 24.5221 32.6034 30.0451
Au 23.1953 33.2811 27.6633
Pt 27.3034 32.8213 30.0794
Au 25.9798 33.3767 27.6617
Au 28.734 33.4282 27.656
Pt 22.8031 17.0336 32.0444
Au 21.587 16.5265 29.6415
Au 20.2958 15.9364 27.1682
Au 25.5737 16.9906 32.1726
Pt 24.4245 16.3648 29.7604
Au 23.1308 15.7726 27.2615
Pt 27.1949 16.2691 29.9412
Au 25.983 15.7289 27.4224
Pt 28.7859 15.6969 27.7281
Au 23.468 31.2156 18.3999
Au 21.9894 32.1182 20.725
Au 20.5106 32.9504 22.9495
Au 26.3644 31.2117 18.419
Au 24.8635 32.2173 20.6629
Au 23.401 33.064 22.9765
Au 27.7579 32.1617 20.7507
Au 26.2725 33.1082 23.0132
Pt 29.1009 33.0894 23.0619
Au 23.409 18.145 18.219
Au 21.93 17.2179 20.4041
Pt 20.5447 16.2198 22.5424
Pt 26.2455 18.1023 18.33
Pt 24.7921 17.1037 20.4751
Au 23.3207 16.1381 22.6534
Pt 27.6355 17.1503 20.5495
Au 26.169 16.1087 22.7601
Au 29.0349 16.1783 23.0144
Pt 30.9109 18.0588 32.1916
Au 31.1327 30.6742 31.5844
Pt 30.1345 18.0767 28.548
Pt 30.0562 31.1119 28.2179
Au 28.5953 18.816 30.8802
Au 28.6773 30.3824 30.4219
Pt 30.9191 20.8337 20.0162
Pt 31.0328 28.484 20
Au 30.0264 18.4808 21.3933
Au 30.1219 30.774 21.4479
Au 28.5751 19.4582 19.1497
Au 28.678 29.8034 19.1933
Pt 18.4474 20.311 30.4633
Pt 18.525 28.5857 30.6475
Pt 19.3323 18.1389 28.8362
Pt 19.4094 30.8019 29.2891
Pt 20.5838 18.6384 31.2353
Pt 20.7164 30.2303 31.7363
Pt 18.8519 20.9087 19.9494
Pt 18.8016 28.4153 20.0245
Pt 19.6256 18.5874 21.2325
Au 19.6366 30.7018 21.5118
Pt 21.1033 19.5172 19.067
Au 21.116 29.8397 19.2403
Pt 36.2513 24.6847 17.9915
Pt 36.5929 24.6611 20.7221
Au 38.2114 22.0276 23.2275
Au 38.5485 21.9475 26.1019
Pt 38.8644 22.9609 28.6094
Pt 36.1206 20.3188 31.7784
Pt 13.5484 24.7851 18.0231
Au 13.4053 24.6727 20.8239
Au 13.3742 24.6279 23.6954
Pt 13.2786 24.4077 26.7111
Pt 13.1719 24.3276 29.5553
Au 13.2461 24.3431 32.5049
Au 17.6259 36.0776 25.0364
Au 20.4368 36.2033 25.0214
Pt 23.2818 36.298 25.0563
Pt 26.1482 36.3816 25.0106
Au 29.0128 36.3965 24.9737
Au 31.981 36.2133 25.0923
Pt 17.5329 13.0956 24.4675
Pt 20.321 12.8928 24.5067
Pt 23.0865 12.7598 24.5986
Au 26.0067 12.7901 24.7631
Au 28.9287 12.9178 25.0072
Au 31.8511 12.9771 25.1953
Au 21.9373 15.3358 40.6177
Pt 24.9794 21.126 37.4235
Au 23.5762 21.1059 34.833
Pt 22.3278 27.1058 39.1248
Au 23.4951 28.9928 36.8205
Au 24.8557 32.9554 36.6291
Au 24.79 17.7847 13.6724
Pt 24.8235 20.6192 13.5915
Pt 24.8345 23.3344 13.5595
Au 24.856 26.1563 13.5911
Pt 24.8396 28.9212 13.6152
Pt 24.8514 31.688 13.7732
Pt 34.1099 20.3811 33.7422
Au 31.6387 18.593 34.8776
Au 28.375 21.8711 34.2761
Au 26.1009 20.1322 34.9134
Au 32.8914 24.6121 32.7434
Pt 33.4288 26.6417 34.7977
Au 28.3545 24.6497 34.4407
Au 26.7877 20.6625 32.1953
Pt 34.487 27.2287 32.3167
Au 29.8132 26.1725 29.6945
Au 23.6914 27.5087 34.4714
Au 32.0889 26.7225 31.085
Au 24.2041 25.1845 40.2258
Au 26.0697 28.6558 35.3174
Pt 33.9444 23.2712 17.1606
Au 31.7026 21.9407 16.2168
Au 29.443 20.4893 15.3805
Au 27.1504 19.1861 14.4862
Au 34.0094 26.1134 17.0623
Pt 31.7579 24.7475 16.2182
Au 29.4727 23.3332 15.2888
Pt 27.1327 21.9765 14.3893
Pt 31.7565 27.5633 16.2388
Au 29.4781 26.1439 15.344
Pt 27.1691 24.7151 14.3582
Au 29.5011 28.9423 15.3469
Au 27.1753 27.5313 14.4418
Au 27.1898 30.3573 14.5301
Pt 15.3149 22.3755 33.4004
Pt 17.191 20.4981 34.2252
Au 19.2945 18.8194 35.0761
Au 21.3916 17.1271 35.9484
Au 15.3147 26.3578 33.3533
Pt 17.0581 24.3319 34.0912
Pt 18.9008 22.4554 34.8312
Au 20.9817 20.8684 35.855
Au 17.2874 28.1999 34.2242
Au 19.005 26.1206 34.821
Au 20.8643 24.162 35.6822
Au 19.6877 29.9336 34.9787
Pt 21.1233 27.7494 35.5635
Pt 22.0377 31.5835 36.2533
Au 15.6952 23.3103 17.0769
Pt 17.9918 21.9336 16.1911
Au 20.2632 20.574 15.3153
Au 22.5225 19.1459 14.4701
Pt 15.7716 26.1729 17.1446
Au 17.9673 24.7751 16.1887
Au 20.2353 23.3516 15.2926
Pt 22.5202 21.9567 14.3727
Pt 18.0027 27.628 16.2881
Au 20.2687 26.215 15.3183
Au 22.5642 24.7395 14.3963
Pt 20.2718 28.9854 15.3613
Pt 22.5251 27.5659 14.4142
Au 22.5501 30.3283 14.5661
Pt 33.1056 33.9833 23.3754
Pt 34.0067 31.7171 21.8539
Pt 34.8801 29.4082 20.522
Au 35.6375 27.0364 19.3091
Au 33.3946 33.8407 26.0285
Au 34.2622 31.6295 24.5853
Au 35.1478 29.322 23.2494
Pt 35.9985 27.0015 22.0403
Pt 34.4955 31.6292 27.5064
Pt 36.2461 26.8388 24.7787
Au 36.928 24.5172 23.4662
Au 35.5439 29.4434 28.942
Pt 37.2009 24.4917 26.3317
Au 34.9357 24.5131 27.956
Pt 16.7814 33.8421 23.6401
Au 15.9458 31.5614 22.2153
Pt 15.1278 29.267 20.7592
Pt 14.3315 27.025 19.398
Pt 16.6357 33.8172 26.5832
Pt 15.8232 31.5995 25.1816
Au 14.9398 29.2803 23.6829
Pt 14.1456 26.9925 22.2021
Pt 15.6946 31.5757 27.9612
Au 14.8707 29.2913 26.5535
Au 14.0456 26.9636 25.1459
Pt 14.824 29.2791 29.3524
Au 14.0254 26.7605 28.0531
Au 13.9883 26.7238 30.886
Pt 32.7362 15.2259 23.5183
Au 33.6361 17.604 22.0217
Pt 34.5277 19.9247 20.6104
Pt 35.4081 22.316 19.3066
Pt 33.8381 15.2141 29.7917
Au 34.0459 17.6502 24.8262
Pt 34.9023 19.9419 23.4331
Au 35.7146 22.2338 22.0557
Pt 33.5151 13.2194 31.7376
Au 34.3738 17.3633 27.9141
Pt 35.207 19.7825 26.288
Pt 35.2066 17.6178 30.7331
Au 35.5738 19.7505 29.0685
Pt 36.0704 17.9977 33.3311
Pt 16.6109 15.4079 23.182
Pt 15.7758 17.6861 21.9141
Pt 14.9928 20.0017 20.676
Pt 14.2712 22.3573 19.379
Pt 16.5045 15.2436 25.9539
Pt 15.6095 17.5469 24.7303
Au 14.8292 19.9059 23.4905
Au 14.1053 22.2771 22.1658
Au 15.526 17.4953 27.5545
Au 14.6942 19.8683 26.3966
Au 13.9385 22.2435 25.0906
Pt 14.6019 19.7118 29.2375
Pt 13.8633 22.0996 28.0256
Au 13.8887 22.0282 30.8819
Pt 23.2214 33.5784 34.5461
Au 21.851 34.2304 32.1314
Au 20.3277 34.8638 29.8516
Au 18.941 35.4766 27.4676
Pt 26.1497 33.8515 34.4037
Au 24.6269 34.3933 32.1358
Pt 23.2381 35.1154 29.7554
Au 21.7952 35.6688 27.4636
Pt 27.4119 34.5909 32.1486
Pt 25.9731 35.1885 29.8027
Pt 24.5968 35.7684 27.3986
Au 28.75 35.256 29.8277
Au 27.349 35.8374 27.4039
Au 30.1883 35.9132 27.4466
Au 22.5292 15.254 34.1328
Pt 21.2545 14.6821 31.6838
Au 20.0652 14.1213 29.2282
Pt 18.7854 13.5738 26.8173
Au 25.338 15.1324 34.2431
Pt 24.0887 14.5503 31.8383
Au 22.8628 13.9916 29.3853
Pt 21.562 13.3781 26.9283
Pt 26.863 14.389 32.0076
Au 25.6823 13.9271 29.5424
Au 24.4251 13.3224 27.033
Pt 28.4676 13.8309 29.7783
Pt 27.3464 13.3731 27.3199
Pt 30.1261 13.3745 27.5518
Pt 23.4476 32.6733 16.0105
Au 21.9796 33.5402 18.2975
Pt 20.4536 34.412 20.5224
Pt 19.0362 35.2543 22.7039
Au 26.3145 32.6555 16.0045
Pt 24.8268 33.6764 18.2095
Pt 23.3558 34.5874 20.5156
Pt 21.8757 35.3572 22.711
Au 27.6798 33.6098 18.2453
Au 26.2016 34.6362 20.4576
Au 24.7455 35.4743 22.7792
Au 29.1419 34.5256 20.5324
Au 27.6572 35.4758 22.7464
Au 30.5626 35.3423 22.7949
Pt 23.3399 16.7277 15.807
Au 21.8865 15.7879 17.9208
Pt 20.4974 14.8605 20.1308
Pt 19.0491 13.9509 22.2881
Au 26.2048 16.7287 15.869
Pt 24.7403 15.6891 18.0151
Au 23.3112 14.7477 20.1893
Pt 21.8391 13.7664 22.3504
Au 27.6082 15.7685 18.1519
Pt 26.1129 14.7596 20.305
Pt 24.6179 13.7122 22.4447
Au 29.065 14.8723 20.4432
Au 27.489 13.7413 22.617
Au 30.4404 13.9129 22.8132
Pt 33.4789 17.9482 32.8238
Pt 34.9381 24.9843 30.7548
Au 32.2033 15.6014 31.9827
Pt 32.4395 31.3893 29.2706
Pt 31.4877 15.6593 28.2429
Au 31.4514 33.5375 27.9486
Au 30.5622 16.1404 34.1702
Pt 30.7945 28.8338 29.492
Au 29.8972 16.193 30.3632
Pt 30.0973 32.893 30.2279
Au 28.3189 16.7095 32.545
Au 27.3568 29.373 32.7396
Au 33.1464 20.877 18.4261
Au 33.2778 28.5001 18.4261
Pt 32.2682 18.501 19.7423
Pt 32.4585 30.824 19.7208
Pt 31.4083 16.2308 21.1264
Au 31.5481 33.0795 21.2349
Pt 30.8744 19.4203 17.5925
Au 30.9657 29.908 17.566
Pt 29.9929 17.1247 18.8946
Au 30.0767 32.1827 18.9683
Au 28.5718 18.0778 16.698
Pt 28.6651 31.2675 16.7103
Au 15.993 20.1577 31.6667
Pt 16.0765 28.6772 31.7303
Au 16.849 17.9852 30.0063
Pt 16.9413 30.9305 30.3653
Pt 17.8002 15.7317 28.3848
Au 17.942 33.1744 29.0507
Au 18.1073 18.4233 32.5047
Pt 18.1627 30.3055 32.6964
Au 19.0563 16.2915 30.8484
Au 19.2576 32.5855 31.5577
Au 20.2997 16.7524 33.3227
Pt 20.9042 32.1884 33.8831
Au 16.4623 20.9385 18.4404
Pt 16.5231 28.4386 18.5238
Au 17.2637 18.6027 19.7189
Pt 17.3076 30.7369 19.8545
Au 18.1601 16.2726 21.0081
Pt 18.1328 33.0224 21.2985
Au 18.7936 19.5798 17.5224
Au 18.7893 29.9008 17.6497
Au 19.5833 17.1839 18.7722
Au 19.5829 32.1869 19.0881
Pt 21.0566 18.1434 16.6424
Pt 21.0926 31.2834 16.816
Au 38.4632 24.6591 16.3649
Pt 38.7458 24.7057 19.1483
Pt 39.2786 24.2899 21.8593
Au 39.5065 24.3418 24.6641
Pt 39.5858 25.2261 27.4185
Pt 37.3596 25.1553 29.0717
Pt 40.6766 20.9508 30.7406
Au 11.3233 24.7753 16.4766
Pt 11.0862 24.7086 19.3235
Au 10.9757 24.6066 22.1015
Au 10.9683 24.4703 24.9535
Au 10.874 24.4068 27.8404
Pt 10.7737 24.3945 30.6842
Pt 10.7093 24.4151 33.4596
Pt 16.2181 38.39 24.799
Pt 18.9859 38.5323 24.8608
Au 21.7671 38.6238 24.8736
Au 24.633 38.6562 24.7911
Pt 27.5439 38.8115 24.7717
Pt 30.3413 38.7657 24.8164
Au 33.3035 38.5447 24.9401
Pt 16.0471 10.8099 24.1931
Pt 18.8363 10.6273 24.2685
Pt 21.5793 10.517 24.3325
Pt 24.3778 10.435 24.4587
Au 27.3526 10.4044 24.5607
Au 30.2681 10.5324 24.7466
Pt 34.4989 8.3699 24.6912
Au 23.0834 19.1503 36.7642
Pt 24.2562 19.2663 39.3456
Pt 22.1061 20.7823 38.6998
Au 22.9267 25.9625 36.6038
Pt 26.8192 27.974 39.7927
Pt 25.1848 30.1582 40.0879
Pt 24.7624 34.6947 38.6373
Au 24.8013 16.4656 11.29
Pt 24.7969 19.2524 11.2196
Au 24.8232 21.9672 11.1901
Au 24.818 24.7974 11.1725
Pt 24.8769 27.5642 11.1963
Pt 24.8387 30.3071 11.2677
Au 24.82 33.0712 11.4507
Pt 37.2051 22.5728 35.6726
Au 29.2584 21.6484 31.6192
Pt 30.7968 23.0431 33.7419
Au 26.8956 17.4734 34.7167
Au 24.9284 24.2155 37.5566
Pt 35.464 25.1524 33.5443
Pt 33.7681 23.2536 37.2616
Pt 32.2067 24.4525 35.5323
Au 25.8341 25.8306 35.299
Au 31.6269 19.9776 39.9378
Au 32.1912 28.596 33.2181
Pt 31.0566 28.1151 35.6789
Au 30.8069 26.0783 33.7625
Au 25.7147 20.8742 41.2782
Au 29.8247 29.9954 33.9826
Pt 31.4252 27.2875 38.2379
Pt 24.3276 27.8203 40.7837
Au 28.6559 29.4327 36.4158
Au 24.9754 27.0916 38.078
Pt 26.2877 29.9152 37.7555
Au 36.1507 23.2641 15.5636
Au 33.9105 21.8913 14.5627
Au 31.6838 20.4789 13.7038
Pt 29.4377 19.1252 12.919
Au 27.1309 17.7495 12.1409
Au 36.2592 26.1547 15.4847
Au 33.9331 24.6818 14.5697
Pt 31.7007 23.3135 13.5934
Au 29.4321 21.9369 12.8316
Pt 27.1626 20.5938 12.0214
Pt 33.9735 27.5689 14.5842
Au 31.7218 26.1798 13.7703
Au 29.4304 24.8069 12.8196
Pt 27.1425 23.3991 11.9561
Pt 31.7325 29.0086 13.7797
Pt 29.4251 27.5865 12.8415
Pt 27.151 26.2016 11.9459
Pt 29.44 30.3786 12.9031
Au 27.1529 28.985 12.004
Pt 27.1667 31.7911 12.172
Pt 12.9204 22.2686 34.4449
Pt 14.7816 20.3615 35.3939
Pt 16.7967 18.5596 36.2557
Au 17.1812 16.751 40.6071
Pt 17.3345 14.5948 36.5514
Au 12.8694 26.3965 34.5345
Pt 14.6304 24.3421 35.2306
Pt 16.451 22.4301 36.0336
Pt 18.4242 20.6955 36.9319
Pt 19.4992 20.7384 39.6275
Au 14.7355 28.3998 35.5984
Pt 16.4966 26.2631 36.0864
Pt 18.2669 24.2888 36.7751
Pt 20.1874 22.5862 37.8292
Au 17.2299 30.2481 36.1693
Pt 18.6098 28.0216 36.8116
Pt 20.2513 26.0574 37.5011
Pt 19.4859 31.7594 36.963
Au 20.9238 29.3402 37.698
Pt 22.285 33.5264 38.3323
Pt 13.4438 23.3035 15.5238
Au 15.6943 21.9665 14.6395
Pt 17.9742 20.5839 13.7534
Au 20.2683 19.1884 12.8643
Pt 22.4937 17.7731 12.0248
Pt 13.5108 26.1657 15.6054
Pt 15.6759 24.7398 14.6284
Pt 17.9473 23.3685 13.7054
Pt 20.2719 22.01 12.7898
Pt 22.5145 20.6136 11.9938
Au 15.7192 27.5626 14.738
Au 17.9833 26.1956 13.7577
Au 20.237 24.7688 12.8374
Pt 22.5111 23.4067 11.9261
Au 18.0298 29.0578 13.7801
Pt 20.2821 27.5717 12.8305
Pt 22.5214 26.1836 11.976
Pt 20.2494 30.398 12.9209
Au 22.5344 28.9503 12.0354
Au 22.4797 31.7732 12.1644
Au 34.4032 36.3675 23.3073
Au 35.343 34.0993 21.759
Au 36.2872 31.7837 20.3212
Pt 37.1671 29.4448 18.9897
Pt 37.8134 27.0778 17.7091
Pt 34.8833 36.2279 25.9402
Pt 35.7289 34.0402 24.4585
Pt 36.6199 31.8016 23.0283
Au 37.5076 29.4121 21.6897
Pt 38.2113 26.9986 20.4502
Au 35.8683 34.012 27.3076
Au 36.7708 31.7539 25.8167
Au 37.6973 29.3099 24.4147
Au 38.5917 26.7743 23.1477
Pt 36.966 31.8896 28.8239
Au 37.8095 29.5812 27.2973
Pt 38.7552 27.0731 25.8349
Pt 37.9793 29.7845 30.2902
Au 36.4324 27.0649 27.4915
Au 36.526 22.8314 30.2944
Au 15.2941 36.1986 23.4707
Au 14.4519 33.9021 22.045
Au 13.6001 31.56 20.6419
Au 12.794 29.2864 19.2587
Pt 12.0314 27.0638 17.9034
Pt 15.215 36.1543 26.3426
Au 14.3348 33.9093 24.9341
Au 13.4094 31.6033 23.5314
Au 12.5797 29.298 22.129
Pt 11.8322 27.0074 20.7097
Pt 14.168 33.9079 27.7002
Au 13.2952 31.6095 26.3286
Pt 12.3964 29.313 24.926
Au 11.6893 26.9875 23.5342
Pt 13.1843 31.5737 29.0714
Au 12.4078 29.1673 27.7202
Au 11.616 26.8454 26.3474
Au 12.3318 29.2038 30.5467
Au 11.5781 26.7581 29.226
Au 11.493 26.7797 32.0661
Pt 34.1084 12.9143 23.3259
Au 35.0162 15.2128 21.7952
Au 35.9396 17.5478 20.3758
Au 36.7949 19.9351 19.0098
Au 37.7289 22.3222 17.7401
Au 33.2045 15.3344 26.2092
Au 35.3911 15.1647 24.5802
Au 36.5279 17.314 26.0997
Au 37.1239 19.7927 21.7884
Au 38.0266 22.2092 20.4314
Pt 38.2622 14.8017 28.2321
Pt 35.6157 14.9229 27.6344
Pt 37.0879 17.2987 28.8116
Au 37.4084 19.6693 24.6456
Pt 36.5321 15.1735 30.2637
Au 39.3113 16.0765 30.3549
Pt 37.805 19.5472 27.3717
Pt 37.8136 18.2536 31.2769
Au 38.124 20.6621 29.8392
Pt 38.6635 20.6083 32.5786
Au 15.1528 13.145 22.9119
Pt 14.2669 15.4751 21.67
Pt 13.5208 17.7197 20.3803
Au 12.7498 20.0454 19.1153
Au 12.0326 22.4476 17.8619
Pt 15.0274 12.9811 25.7068
Pt 14.107 15.3077 24.4585
Pt 13.2938 17.6192 23.2107
Pt 12.4991 19.9277 21.9325
Pt 11.7862 22.2774 20.6408
Pt 14.1034 15.1523 27.1937
Pt 13.1762 17.4821 26.0037
Au 12.3361 19.8721 24.7905
Pt 11.6478 22.189 23.4175
Pt 13.0366 17.3262 28.8599
Au 12.2437 19.7035 27.6605
Pt 11.5868 22.0895 26.3922
Au 12.167 19.6325 30.5291
Pt 11.4959 22.052 29.2046
Au 11.4106 22.0282 32.1195
Pt 23.2544 35.3608 36.5543
Au 21.8309 36.0478 34.3017
Au 20.4102 36.7345 31.9137
Au 18.7645 37.2274 29.7228
Pt 17.5299 37.8016 27.2812
Pt 26.0918 35.5404 36.4872
Pt 24.6262 36.1313 34.2356
Au 23.2098 36.8636 31.9041
Pt 21.7453 37.4706 29.5926
Pt 20.3608 37.9819 27.3099
Pt 27.439 36.3052 34.2706
Pt 26.0064 36.9128 31.9313
Au 24.589 37.5742 29.57
Pt 23.154 38.1028 27.2451
Pt 28.7628 37.0213 31.9681
Pt 27.3646 37.6361 29.5816
Au 25.9788 38.2476 27.1725
Pt 30.1249 37.7234 29.6432
Au 28.7583 38.2838 27.186
Pt 31.5209 38.3021 27.2803
Pt 19.8782 14.8612 35.4455
Au 20.9799 12.914 33.7491
Pt 19.7382 12.3533 31.3069
Pt 18.523 11.8224 28.8826
Pt 17.285 11.3214 26.5301
Pt 24.9857 13.3424 36.2678
Pt 23.8026 12.7405 33.9172
Au 22.5408 12.1761 31.4708
Pt 21.3035 11.5608 29.0232
Pt 20.0617 11.1125 26.6417
Pt 28.0739 14.84 34.5453
Au 25.3498 12.0576 31.6397
Au 24.1201 11.443 29.1752
Pt 22.8108 10.9863 26.7482
Pt 28.1474 11.961 31.8455
Au 26.9724 11.4065 29.3632
Au 25.7314 10.8675 26.8716
Au 29.7818 11.4284 29.5674
Au 28.6033 10.9584 27.07
Pt 31.4545 11.0328 27.276
Pt 23.4523 34.1069 13.6787
Au 21.9734 34.9669 15.8716
Pt 20.4773 35.8198 18.1181
Pt 19.0117 36.71 20.322
Pt 17.6023 37.5612 22.5567
Au 26.3129 34.0651 13.6413
Pt 24.8344 35.0838 15.8608
Au 23.3968 35.9883 18.1172
Pt 21.8421 36.8035 20.2811
Au 20.4 37.6707 22.5521
Pt 27.632 35.0472 15.814
Pt 26.2073 36.0786 18.0319
Pt 24.7667 37.0149 20.2528
Au 23.2366 37.7676 22.4877
Au 29.0696 35.9747 18.0843
Pt 27.5942 36.9832 20.2825
Au 26.1725 37.8535 22.4962
Pt 30.3883 36.9419 20.3475
Pt 28.9925 37.8588 22.5283
Au 31.8254 37.768 22.6279
Pt 23.3332 15.4021 13.4151
Pt 21.9287 14.4156 15.5287
Pt 20.4349 13.4847 17.6596
Au 19.029 12.5739 19.8451
Au 17.5216 11.6867 22.0125
Pt 26.2107 15.3307 13.4319
Pt 24.7429 14.3183 15.5563
Au 23.2827 13.3213 17.7053
Pt 21.8426 12.3887 19.9131
Pt 20.3653 11.4866 22.0731
Au 27.6228 14.3895 15.6413
Pt 26.1017 13.3811 17.8051
Au 24.6707 12.3288 20.0018
Pt 23.1351 11.3905 22.1619
Au 29.0921 13.4749 17.9085
Au 27.5114 12.4038 20.1201
Pt 25.9014 11.2952 22.2837
Au 30.4204 12.4599 20.2324
Au 28.8639 11.3651 22.404
Au 31.7629 11.5269 22.5957
Au 34.4605 16.2716 37.2199
Au 33.3381 29.1879 30.6449
Pt 34.9375 15.564 32.4149
Au 34.81 31.7303 30.4766
Au 33.1324 11.1922 33.6998
Pt 33.8443 33.8715 29.1101
Pt 32.8552 13.3273 27.9739
Pt 32.9144 35.9665 27.715
Pt 34.8578 20.9102 36.4022
Au 33.5957 31.146 32.9452
Au 34.6642 13.4829 34.2931
Pt 32.5817 33.2364 31.4139
Pt 31.232 13.768 30.1203
Pt 31.5312 35.359 29.9928
Pt 26.2084 10.873 36.1002
Au 31.2353 32.5303 33.7219
Au 33.0693 13.9532 36.5304
Pt 30.1759 34.655 32.2265
Pt 26.1795 13.8917 38.6684
Au 28.6939 32.137 32.5306
Pt 35.3787 20.8402 16.8256
Au 35.5823 28.5567 16.8178
Pt 34.4824 18.4556 18.1572
Au 34.7737 30.9235 18.128
Pt 33.6344 16.1634 19.4684
Au 33.8584 33.2116 19.5139
Au 32.6823 13.8938 21.0125
Au 32.8419 35.4983 21.0649
Au 33.0978 19.4744 15.9598
Au 33.2437 29.9698 15.9193
Pt 32.2484 17.0873 17.3133
Pt 32.4274 32.2975 17.3116
Pt 31.3885 14.8356 18.6689
Au 31.4594 34.5491 18.7781
Pt 30.8878 18.0303 15.1364
Au 30.9534 31.3631 15.0787
Pt 30.0189 15.7152 16.4667
Au 30.013 33.666 16.528
Pt 28.6092 16.6976 14.2726
Pt 28.6801 32.7526 14.2816
Au 13.5692 20.0094 32.9122
Au 13.587 28.7097 33.0019
Pt 14.3765 17.7494 31.2652
Au 14.404 30.9863 31.4725
Au 15.3279 15.6291 29.6057
Au 15.3521 33.2802 30.1019
Pt 16.2951 13.4426 28.0569
Au 16.4693 35.5561 28.7996
Au 15.5549 18.189 33.7725
Au 15.569 30.4635 33.9299
Au 17.7328 16.4945 34.5981
Au 16.532 32.7076 32.5404
Au 17.5431 13.9599 30.4806
Au 17.757 35.0317 31.3347
Pt 16.311 16.6336 38.1085
Pt 18.3505 32.2997 34.5457
Pt 18.7132 14.4172 32.972
Au 19.5176 34.5949 33.6122
Pt 18.8404 16.8261 37.1122
Pt 20.8224 34.0743 36.1308
Pt 14.1815 20.9151 16.8665
Pt 14.2387 28.4765 16.9955
Pt 14.9444 18.5968 18.1395
Pt 15.0541 30.7885 18.3083
Pt 15.7656 16.3076 19.4161
Au 15.8285 33.097 19.6744
Au 16.6301 14.0241 20.7038
Au 16.6928 35.3442 21.1621
Au 16.4617 19.569 15.9505
Au 16.4601 29.9346 16.1036
Pt 17.2335 17.2331 17.2461
Pt 17.2569 32.2603 17.4684
Pt 18.1239 14.8893 18.5046
Pt 18.1086 34.5023 18.9108
Au 18.7585 18.1564 15.076
Au 18.7441 31.3471 15.2321
Pt 19.5515 15.7991 16.3086
Au 19.551 33.5945 16.6646
Pt 21.0395 16.7355 14.2007
Au 21.0946 32.6968 14.4255
Pt 40.7177 24.5741 14.8204
Pt 42.8441 24.1369 19.0092
Pt 41.0144 25.4735 20.2447
Pt 42.3385 23.51 24.2381
Pt 41.0452 23.0703 26.7937
Pt 38.7993 27.5293 28.7856
Pt 39.0291 27.6172 31.5833
Au 37.5371 25.233 31.7672
Au 9.02972 24.7458 14.9689
Au 8.83856 24.711 17.8296
Pt 8.64048 24.6912 20.5737
Pt 8.57537 24.6805 23.328
Au 8.51606 24.5787 26.0991
Pt 8.4659 24.5765 29.0051
Au 6.59339 26.9364 34.2877
Au 13.0621 24.3469 38.8414
Pt 14.7775 40.5667 24.6003
Au 17.5426 40.8594 24.6291
Pt 20.3033 40.9887 24.7148
Au 23.1454 41.049 24.6453
Au 26.0234 41.0788 24.6603
Pt 28.9057 41.1844 24.6121
Au 31.6973 41.0671 24.5724
Au 34.5732 40.8667 24.6373
Au 14.4745 8.52109 23.9318
Pt 17.3604 8.36939 23.9247
Au 20.0752 8.16608 24.0691
Pt 22.9047 8.20515 24.1928
Au 25.8173 8.08637 24.2779
Pt 28.8179 8.08516 24.3304
Pt 31.715 8.35809 24.4633
Au 37.148 8.14007 25.514
Au 26.2742 18.115 40.9858
Pt 26.8534 19.9094 38.9855
Au 28.9424 19.0164 40.629
Pt 23.9685 22.5105 39.5837
Pt 19.7901 27.6266 39.5635
Au 26.0072 31.8868 41.9489
Au 26.3928 29.0145 42.3628
Pt 26.2327 32.423 39.0846
Pt 24.8097 15.1758 8.96397
Pt 24.8241 17.9003 8.87147
Pt 24.8189 20.6526 8.72464
Au 24.8002 23.4133 8.78776
Pt 24.8422 26.2424 8.8236
Pt 24.8521 28.9715 8.87155
Pt 24.8165 31.7777 8.98974
Pt 24.7804 34.569 9.24124
Au 38.3903 24.3897 37.2138
Pt 32.6186 19.5331 37.2427
Au 36.1834 23.0552 38.341
Pt 29.9332 23.1781 36.3201
Au 29.9715 12.3639 38.1621
Pt 25.605 18.2488 37.1406
Au 35.8227 29.6114 32.0206
Au 40.3802 25.2133 35.4065
Pt 31.4425 24.5765 38.2426
Pt 30.2226 20.542 36.0515
Pt 22.0784 24.4484 38.7286
Au 32.6503 17.4561 39.0969
Pt 35.8041 24.7796 36.1943
Pt 35.4967 29.0072 38.1975
Au 33.7705 27.4495 39.6771
Pt 29.244 26.0512 39.1031
Au 31.2682 22.9716 40.5445
Pt 34.7189 30.9361 36.5217
Pt 33.3347 28.5843 36.8679
Au 28.9748 27.5949 41.4458
Au 31.4585 25.9024 40.6957
Pt 32.318 30.5603 35.3222
Pt 31.0572 29.9948 37.6923
Au 26.1143 23.5952 41.6723
Pt 29.9475 31.9158 36.0563
Pt 29.1807 28.7094 38.9608
Au 27.2509 31.3059 34.9691
Pt 38.4266 23.2039 14.0122
Au 36.1753 21.8757 13.0383
Pt 33.9069 20.4032 12.104
Pt 31.6822 19.1388 11.2967
Au 29.3701 17.7855 10.551
Pt 27.117 16.419 9.75304
Au 38.5678 26.0594 13.9011
Au 36.2479 24.6672 12.967
Pt 34.037 23.2655 11.9313
Pt 31.7588 21.8757 11.1524
Pt 29.4671 20.5884 10.4109
Au 27.1032 19.2465 9.61145
Pt 36.2483 27.5258 13.1095
Au 34.0238 26.1239 12.1156
Au 31.7915 24.7129 11.2235
Au 29.4531 23.3917 10.4101
Au 27.1556 22.0011 9.55189
Au 33.9966 29.0417 12.2189
Au 31.7098 27.5796 11.3311
Pt 29.4304 26.2187 10.3891
Pt 27.1622 24.8535 9.57049
Pt 31.7486 30.4035 11.46
Au 29.4602 29.0252 10.3924
Pt 27.194 27.5866 9.51577
Au 29.4113 31.8975 10.5948
Au 27.1575 30.4509 9.58779
Pt 27.1254 33.2535 9.88597
Au 8.53274 19.9361 34.3487
Au 7.84735 22.2969 35.6335
Au 12.6313 16.0763 36.8655
Au 13.8396 16.5686 39.2109
Au 24.6695 14.7039 40.99
Pt 18.3679 14.9357 38.9642
Pt 15.9218 20.5454 37.9305
Au 13.6079 28.6415 38.7613
Pt 17.8236 18.7635 38.823
Au 20.5324 20.7721 42.2131
Au 16.9434 20.7233 40.7073
Pt 23.0446 20.7036 41.2508
Pt 11.0862 28.7288 34.0645
Pt 15.7082 24.3436 37.8575
Au 16.7165 24.4393 40.5544
Pt 19.4226 24.4846 39.4985
Pt 21.2789 22.6535 40.4575
Pt 14.8408 30.6841 37.1899
Au 17.1544 28.1241 40.5466
Pt 17.6284 26.2017 38.6274
Au 21.4102 25.3272 41.2965
Au 18.3712 32.0045 40.5882
Au 15.8724 30.4411 39.8137
Au 19.5417 29.6358 41.2411
Pt 23.7418 31.2334 38.2195
Au 21.692 27.9876 41.8472
Pt 23.6865 32.5322 40.4856
Au 11.1592 23.3339 13.9067
Pt 13.4321 21.9835 13.0531
Au 15.6782 20.5754 12.2495
Au 17.9392 19.1805 11.3449
Pt 20.2754 17.7737 10.449
Pt 22.4976 16.4259 9.63744
Pt 11.2372 26.2108 14.0875
Au 13.3949 24.7438 13.0478
Pt 15.6728 23.394 12.1511
Au 17.9486 22.0033 11.2744
Au 20.1768 20.5969 10.3535
Au 22.4973 19.2687 9.57023
Au 13.3437 27.6123 13.1966
Au 15.6652 26.1778 12.2101
Pt 17.9312 24.7773 11.2903
Pt 20.203 23.4475 10.3811
Pt 22.4937 22.0187 9.58871
Au 15.6914 29.0585 12.287
Au 17.9219 27.6164 11.2808
Au 20.1958 26.173 10.3867
Pt 22.4348 24.8399 9.52333
Au 17.8581 30.5161 11.2169
Au 20.1896 29.0228 10.4258
Pt 22.5573 27.5587 9.61961
Au 20.1223 31.87 10.3989
Au 22.5059 30.4306 9.62521
Pt 22.4822 33.2302 9.86401
Au 35.7958 38.8089 23.0897
Au 38.839 36.676 19.8738
Pt 37.5706 34.242 20.1368
Au 41.0628 32.1895 19.8197
Pt 39.2852 29.5672 17.3322
Pt 39.9654 27.0198 16.1018
Au 36.2134 38.6256 25.8029
Au 37.9231 38.9341 21.3429
Pt 37.939 34.277 22.8723
Au 41.9254 29.7002 18.4509
Pt 40.5589 27.7932 21.5328
Pt 41.3904 25.6606 22.9577
Pt 37.3117 36.5096 27.1355
Pt 37.1042 36.4694 24.2991
Pt 39.0439 32.1234 24.2299
Pt 39.973 30.0249 22.848
Au 43.9539 25.5757 24.1556
Au 38.2571 34.3747 28.6247
Au 38.1452 34.2847 25.703
Au 41.403 32.3896 22.7044
Au 43.1911 27.8398 22.6927
Pt 39.3563 32.1255 29.9705
Pt 39.1443 32.1738 27.1617
Au 40.0395 29.9803 25.6821
Pt 39.5425 27.5733 34.1471
Au 40.216 29.9585 28.5855
Pt 36.5624 27.4066 30.5094
Pt 13.8371 38.5095 23.1558
Au 12.9692 36.2646 21.8471
Au 12.1228 33.8978 20.4994
Au 11.2157 31.612 19.1082
Pt 10.3912 29.3019 17.7753
Pt 9.77732 27.0641 16.4228
Au 13.7533 38.4241 26.095
Pt 12.815 36.2275 24.6822
Au 11.8593 33.9346 23.306
Pt 10.9799 31.5908 21.9789
Au 10.2281 29.3301 20.5637
Pt 9.55382 27.0462 19.2083
Pt 12.686 36.2238 27.4376
Au 11.7226 33.9926 26.0705
Au 10.8056 31.6431 24.7424
Pt 10.0237 29.3304 23.3952
Pt 9.42662 27.0249 21.9714