2057
Atoms. Timestep: 21054
Au 32.6623 40.185 18.4013
Au 24.2337 6.63796 29.5745
Au 27.2197 27.0198 11.1677
Au 16.6357 16.1705 14.5079
Au 8.68326 26.1426 13.1793
Pt 31.9297 25.6725 36.5606
Au 8.39609 21.7543 21.0011
Au 14.7792 22.8534 12.7719
Au 35.3185 13.4266 19.8719
Au 35.0357 32.3037 11.0287
Au 41.138 32.7708 19.7985
Au 24.6613 27.7035 10.0614
Au 30.3253 40.2072 16.7528
Au 28.4629 36.0874 15.043
Au 15.524 14.2628 9.31916
Au 22.99 19.7428 39.7648
Pt 23.781 15.9682 13.1877
Au 12.8754 36.7185 22.6221
Au 27.9351 15.6632 8.65617
Pt 21.3707 28.5883 32.2146
Pt 30.8183 38.7702 30.6963
Au 7.8955 18.1134 18.509
Au 10.4234 16.3362 14.0234
Au 22.5308 30.6034 15.1896
Au 13.6649 10.9163 29.0583
Au 17.1245 23.6537 40.4345
Au 12.7744 31.4392 19.6472
Au 18.8297 11.9324 33.9673
Au 11.463 28.5908 15.948
Au 37.6584 32.9251 14.836
Pt 30.6711 30.3604 23.8644
Au 7.18896 28.1359 21.2634
Au 15.0865 15.4392 31.7036
Au 14.3092 36.7134 13.4202
Au 26.0278 17.8404 12.714
Au 29.3763 27.8302 9.38184
Au 27.4504 20.2711 12.2715
Au 14.0908 30.2032 11.3119
Au 27.6393 30.9904 13.3782
Au 27.125 5.42739 24.653
Pt 37.5286 30.5478 35.3483
Au 15.621 35.8812 30.8471
Au 24.6235 18.7059 41.8993
Pt 25.4278 30.8538 34.7696
Au 16.5614 37.141 14.794
Au 12.0878 33.5819 21.0503
Au 15.2724 22.2048 18.1368
Au 13.7285 34.0652 18.4894
Pt 30.3489 38.9761 19.2134
Au 12.0083 12.1521 21.3771
Pt 17.7044 26.9783 19.2469
Au 28.4695 33.3698 8.40598
Pt 30.8452 32.8044 25.0141
Pt 8.97407 26.4485 28.0471
Au 29.934 17.7815 8.82929
Pt 29.9705 18.0818 21.9731
Au 12.1376 35.9307 27.9347
Au 16.8775 36.5115 12.1666
Au 24.1706 11.2939 12.0892
Pt 22.9272 27.637 19.0047
Au 28.0327 18.117 6.93399
Au 14.6716 38.3345 24.229
Au 21.4214 18.4867 4.59697
Au 25.5705 20.206 14.3603
Pt 13.1246 29.8316 31.8468
Pt 29.4694 31.5791 30.0394
Pt 20.1663 35.1045 30.452
Au 22.7486 6.33816 31.8875
Au 30.2086 15.5687 10.3315
Au 15.5442 32.5516 15.9651
Au 28.0209 9.74014 14.0397
Au 28.1256 20.1923 5.10763
Au 17.8944 30.0509 7.31001
Au 25.0092 26.8497 5.74282
Au 17.9083 7.14077 19.6815
Au 34.5796 23.1329 9.40002
Au 13.0085 35.3907 32.6383
Au 23.6738 17.192 5.113
Au 27.8173 33.3476 14.8702
Au 38.8157 27.6828 39.4835
Au 18.4757 29.3366 13.9526
Pt 16.809 24.7954 33.2389
Pt 33.696 23.1876 37.4284
Au 18.527 38.9104 15.6451
Au 14.2904 23.2757 9.56341
Au 28.2626 17.2972 11.0259
Au 23.7185 14.0235 11.2548
Au 12.9261 25.8541 9.45327
Au 40.2452 36.6755 23.3218
Au 25.5946 32.8427 13.2195
Pt 25.4803 32.7691 39.1681
Au 36.4006 15.2363 18.2155
Au 25.1198 14.9721 8.7632
Au 14.1822 36.924 18.7598
Au 30.3992 13.7918 14.4981
Pt 9.77577 28.5305 30.1242
Pt 25.2549 32.9388 24.5364
Au 20.7964 14.3534 7.11832
Au 29.9048 38.4395 14.7159
Au 27.5769 22.0517 6.9662
Au 27.9043 22.9187 4.41592
Au 30.8215 9.51798 29.3627
Au 16.623 25.1035 13.551
Pt 39.3138 27.6718 26.222
Au 37.0457 16.896 16.1901
Au 25.8479 40.9211 29.2948
Pt 41.0537 32.3486 25.6993
Au 29.7541 34.3774 16.8159
Au 22.3117 35.375 10.0639
Au 10.772 16.6507 18.9424
Au 40.1976 19.4071 18.5684
Au 23.9495 17.0377 10.7114
Au 11.1161 17.0756 22.1066
Pt 26.5086 29.6051 21.2091
Au 11.4556 25.578 16.1516
Au 13.3441 23.3222 16.4318
Pt 14.1037 26.2909 29.0552
Au 18.4297 12.1318 31.1553
Au 10.0199 17.8406 11.7422
Pt 20.5397 32.7668 28.8724
Au 21.0914 19.7625 7.05664
Au 27.5495 30.8491 16.2634
Au 9.48159 30.5985 12.5235
Au 19.1972 12.273 12.0487
Au 21.4582 33.8379 12.0735
Au 18.9229 19.0318 5.45147
Au 43.7979 25.7747 24.3159
Au 14.7536 27.8479 22.8266
Au 14.0529 16.4272 13.4062
Au 25.6994 35.0539 15.4886
Pt 25.6715 33.4636 33.7807
Au 25.423 24.8525 10.9018
Au 18.3793 9.05077 15.6041
Au 16.3214 19.0653 14.5455
Pt 14.2448 32.7071 27.713
Pt 30.1395 27.2288 25.0381
Pt 26.2185 17.0163 31.5295
Pt 24.736 18.8351 27.0411
Au 10.7256 26.8252 25.352
Au 23.1552 36.1569 20.1455
Au 24.0579 10.6603 34.9867
Au 20.7238 39.6968 17.1233
Au 27.5818 23.0499 11.3249
Au 22.8902 32.023 17.5049
Au 33.0414 32.9513 12.9843
Au 9.69367 34.573 20.2284
Au 23.6892 37.063 14.8895
Pt 32.3456 25.8507 13.5555
Au 10.7163 27.3455 18.2772
Pt 29.9401 24.7017 17.9899
Pt 37.1357 25.0809 34.994
Pt 36.8873 28.955 32.6764
Au 26.1387 21.6335 9.37234
Pt 12.86 31.5663 29.7584
Au 36.7352 39.7937 22.1616
Pt 25.3406 21.3976 27.8932
Pt 26.2535 38.7478 21.8645
Au 18.7758 24.4776 43.16
Au 24.9946 28.9742 7.63
Pt 36.2015 26.5979 39.3374
Pt 26.7634 14.2017 32.2011
Au 29.6228 31.9601 18.3268
Au 25.2842 39.5156 14.3498
Pt 34.8579 19.3922 19.8597
Pt 21.1148 12.5676 28.8078
Pt 23.3408 32.0913 28.7546
Pt 28.8311 15.6093 15.5907
Au 23.2097 24.3731 15.8492
Au 6.98645 21.5254 14.2482
Pt 36.5126 25.4132 17.94
Au 25.24 7.24464 32.1882
Au 18.4306 42.3953 19.6851
Au 9.50469 21.7808 14.1664
Pt 25.6686 31.3308 29.8117
Au 13.7899 27.1527 15.6862
Au 27.422 38.0773 13.5188
Au 18.7068 39.7431 27.6011
Pt 26.4501 12.3195 24.276
Au 17.6987 8.87586 29.1812
Au 26.6516 32.0125 10.5789
Au 12.3347 10.1484 23.6618
Au 22.0679 22.3619 6.83517
Au 16.4003 23.2883 6.22945
Au 18.0402 33.5998 15.9102
Au 20.8272 7.70625 33.0792
Pt 22.8001 16.3986 36.3925
Pt 36.1242 33.4114 20.1973
Pt 29.9203 19.0155 12.1029
Pt 38.4497 26.0134 19.7117
Pt 32.5569 28.5444 24.7048
Au 29.2737 30.955 9.45089
Au 27.0682 24.12 43.0969
Pt 34.938 20.1424 24.3168
Au 29.7751 20.3277 7.22529
Pt 37.8025 26.5703 37.212
Pt 17.8189 34.0397 31.2841
Pt 29.6212 20.0495 29.8521
Au 7.0335 19.1414 20.9144
Pt 22.8348 24.2852 33.5609
Pt 24.3698 23.7515 35.8044
Pt 31.2892 30.1551 36.7257
Pt 19.2915 14.1714 20.5223
Pt 23.0303 29.264 39.223
Pt 37.1634 27.9129 35.1039
Au 11.2262 32.3954 13.0231
Pt 17.2634 12.0342 25.8112
Pt 20.3479 26.7182 18.7649
Pt 28.5806 27.978 20.7857
Pt 23.9631 17.3366 34.1131
Au 12.4824 14.318 14.1224
Au 7.47354 30.8647 21.6035
Au 18.4417 23.5188 14.8498
Au 14.5035 23.8362 41.4848
Au 26.2771 17.7052 9.10584
Au 28.896 12.0287 12.6565
Au 15.0647 31.4305 18.3657
Au 27.9187 41.5592 17.7855
Au 26.8255 31.3156 7.72645
Pt 28.4019 9.06275 28.1695
Au 8.26459 20.1647 16.4091
Au 27.9599 10.9441 16.6657
Au 23.7446 23.002 9.56283
Au 21.7788 23.5368 11.377
Au 34.658 11.0122 24.3162
Au 16.347 38.318 17.346
Pt 11.8533 15.7359 27.3399
Au 24.4383 31.6132 6.64104
Au 30.2853 34.5711 10.0749
Au 14.2328 38.0865 27.4077
Au 26.1326 12.3877 34.413
Au 40.7184 22.3 35.943
Au 21.79 18.3614 9.44728
Pt 17.0977 24.9105 28.6666
Au 25.2143 30.0632 14.6701
Au 23.2607 40.3775 18.5527
Au 17.6544 20.2097 12.4954
Pt 30.6855 14.9704 34.6661
Au 17.7429 28.1121 9.29828
Au 9.45449 19.4089 32.9563
Pt 35.5927 30.0928 23.3984
Au 25.5407 29.6665 11.9494
Au 13.9555 29.2482 38.321
Pt 20.431 18.7742 16.2491
Au 14.0221 29.8796 15.8412
Au 14.8043 34.9798 11.2804
Au 42.5274 22.8236 33.9674
Au 30.2891 27.7724 5.70991
Au 15.6506 30.3443 8.95403
Au 25.7109 42.9856 24.0057
Au 20.2868 12.9497 9.2948
Au 25.7861 11.2448 14.6055
Au 31.6056 25.382 5.89466
Au 11.9371 27.9875 22.9454
Au 33.9427 28.178 14.1024
Au 29.3333 31.5373 6.63293
Pt 24.1442 36.5495 31.0952
Au 28.2762 9.11056 21.2017
Au 37.9916 21.0399 14.9847
Pt 21.6814 23.921 23.4353
Au 11.8638 19.2075 36.7915
Au 31.5134 29.2856 10.274
Au 21.5744 12.0166 34.7421
Pt 37.453 24.7453 28.9527
Au 27.9522 16.9329 41.075
Pt 38.3774 20.794 20.064
Au 20.2109 16.1844 36.5917
Pt 19.3675 19.3856 20.8134
Au 26.8685 7.37689 29.8466
Au 23.0029 13.0652 8.75019
Au 29.2048 25.7834 7.31737
Au 15.8217 32.4675 11.8376
Au 30.3557 33.8886 13.8222
Au 12.7499 32.0975 16.5995
Au 21.783 24.6195 8.51844
Au 16.595 39.11 25.9769
Pt 22.817 31.1073 35.1034
Au 12.2385 18.4817 17.303
Au 33.3505 30.3759 11.9861
Pt 28.7944 20.0722 17.7437
Pt 33.4488 16.427 31.9123
Pt 21.437 14.7549 14.0958
Au 23.8099 24.3451 13.076
Pt 32.5443 31.2011 17.3467
Au 21.9745 26.2807 13.6753
Au 26.3955 10.3643 36.4617
Pt 41.0703 25.1229 24.3095
Au 19.0374 9.18833 34.5306
Pt 30.1556 25.3003 27.2089
Pt 36.8265 14.9365 29.6521
Au 42.53 21.842 29.3911
Au 25.2111 32.3937 16.1129
Pt 21.7078 37.2358 24.5849
Pt 30.9655 28.8778 19.909
Au 21.221 35.4068 14.4721
Au 31.0648 10.8621 17.4899
Au 16.4873 18.9984 9.25795
Au 20.4982 26.0663 6.4571
Pt 27.1764 17.778 16.1555
Pt 28.6344 27.5545 32.2624
Pt 24.4937 25.6628 19.8952
Pt 22.8342 25.0425 29.375
Pt 36.0007 19.4739 16.2127
Pt 18.0815 36.8054 31.1286
Pt 32.4788 23.1193 21.918
Pt 25.0587 15.7903 27.3221
Pt 19.7553 10.6059 24.6564
Au 16.7654 37.4001 28.5011
Pt 22.5376 26.7249 38.6761
Au 15.7214 24.6389 16.1224
Pt 18.9469 33.234 20.3286
Pt 30.08 35.8417 19.558
Au 20.6012 31.5333 18.9683
Au 16.3284 8.2739 24.7049
Pt 26.455 10.9268 28.872
Pt 27.2445 20.6039 25.7568
Pt 28.3269 29.1221 23.3456
Au 20.9243 42.0129 23.6909
Au 22.6937 27.38 7.42652
Pt 34.0885 28.8726 28.3574
Pt 16.1624 28.4915 25.2542
Au 16.7983 20.2142 17.0948
Au 23.01 10.5965 14.6334
Au 23.1447 24.7458 5.97444
Pt 18.8187 18.1586 33.0691
Pt 17.9197 23.2166 34.9891
Au 38.0004 37.4277 21.9381
Au 41.7124 34.1948 22.3688
Pt 22.1183 14.8284 25.1657
Pt 24.7147 25.7703 27.2489
Pt 17.1939 13.4891 18.5463
Au 16.1573 16.5051 39.0057
Au 32.7934 9.4057 22.7971
Au 20.1334 31.5746 7.86767
Au 33.2185 14.5567 36.1625
Pt 24.1156 28.3056 25.866
Au 38.5464 38.6907 24.2832
Pt 27.7307 27.5018 37.2659
Au 39.219 18.1288 20.6998
Au 11.9291 15.8948 16.3335
Au 13.362 16.0508 33.9281
Pt 17.9889 25.9664 35.5959
Pt 26.5922 17.1958 28.9698
Au 29.3099 13.3178 17.2009
Pt 29.688 22.2256 16.377
Pt 30.3619 11.7139 30.8697
Pt 31.9488 19.3925 28.8687
Au 27.2403 19.5959 41.9705
Au 33.7352 20.5886 9.7176
Au 19.9727 35.9147 20.5108
Au 23.8678 8.30551 16.1584
Pt 35.1706 15.782 34.0077
Au 24.8594 22.7281 6.90662
Au 26.9603 29.3601 9.63871
Pt 37.8332 32.1334 23.6266
Au 25.5011 8.58968 27.6931
Au 11.1604 23.4642 25.0971
Au 39.9987 15.3717 32.9869
Au 34.365 22.0887 41.5909
Au 13.8923 20.447 15.8848
Pt 30.4114 37.6191 21.5165
Au 18.5411 41.8076 22.248
Au 10.5287 13.2021 23.3374
Au 23.4201 15.0194 6.66128
Au 27.6667 31.1826 42.2054
Pt 35.3731 32.8954 22.759
Au 34.6904 38.2483 18.3451
Pt 29.2576 12.7186 23.8449
Pt 28.4826 39.1131 29.6712
Au 24.3219 30.8609 9.51797
Pt 28.1163 40.1122 20.0938
Au 15.5118 21.1857 7.91997
Au 37.8451 14.3944 23.5515
Au 20.7978 40.7769 31.4284
Pt 39.2529 31.4374 27.2413
Pt 17.3208 29.971 30.6835
Au 39.2285 19.9688 35.7825
Au 28.2169 13.569 10.4575
Au 28.6847 28.5192 42.5473
Pt 26.4163 29.9265 25.6646
Pt 12.0565 18.9021 33.6267
Au 13.1665 31.4066 8.8463
Au 23.3835 42.6616 19.9909
Au 23.1252 43.2007 22.6278
Au 10.7978 27.6144 9.11447
Au 21.7053 23.3234 42.9489
Pt 31.905 21.2807 37.0295
Pt 18.7158 12.9728 23.6732
Au 8.73336 23.9664 23.2555
Pt 19.487 24.278 37.1047
Au 24.4279 33.4126 19.4827
Au 19.014 32.3732 11.6085
Pt 26.0152 35.595 23.9772
Au 28.1231 43.7893 22.8948
Au 20.123 39.6369 33.7425
Pt 15.5388 26.3443 26.8628
Pt 21.7146 32.6907 26.4839
Au 20.1796 10.4427 13.9822
Au 16.9593 23.3276 8.86522
Pt 22.9437 19.5412 15.66
Pt 32.2752 17.8892 18.2537
Au 16.1691 10.8637 30.2439
Pt 25.5526 33.9529 29.0756
Pt 17.0257 27.4327 29.2218
Pt 25.8453 25.7017 24.8498
Au 13.0904 32.7637 11.0844
Au 21.3288 17.0118 6.85327
Au 26.9644 24.1374 8.72785
Au 34.917 40.3595 20.1895
Pt 14.8573 35.4505 28.2919
Pt 26.1657 26.1966 32.1235
Pt 38.9629 29.1978 28.5829
Au 19.4618 23.73 9.88131
Au 26.907 24.7894 6.14464
Pt 31.656 35.8321 35.1436
Au 36.3337 35.6191 15.0656
Pt 33.0846 34.2566 23.5416
Au 8.83926 27.1349 33.9663
Pt 12.4861 19.9381 22.6389
Pt 21.911 21.0415 20.7957
Pt 26.9888 18.4466 18.9509
Pt 25.8781 38.3667 19.0511
Au 10.1201 29.2723 35.3372
Pt 25.9762 23.5792 20.2181
Pt 17.3471 18.0002 19.0527
Au 28.8356 33.0016 11.7972
Au 22.6092 26.1107 10.8902
Pt 36.6445 29.05 37.6192
Au 35.7565 17.9359 14.0484
Au 19.2779 26.3268 14.7163
Pt 26.5069 7.69134 23.2849
Au 30.4074 41.8128 19.037
Pt 19.2411 20.3373 18.1312
Pt 30.5838 34.9325 22.609
Pt 37.6364 23.8035 32.5013
Au 30.1569 11.1647 14.9892
Pt 18.4065 16.7393 28.6316
Au 33.851 35.4443 13.946
Pt 36.6916 20.5014 26.4905
Au 17.1287 30.1228 11.3207
Pt 33.8636 17.7941 24.9752
Pt 32.2719 28.1852 30.2793
Au 18.0106 22.7991 17.5402
Pt 33.0226 14.1777 21.0696
Pt 23.9696 12.5772 28.9149
Pt 21.2733 23.209 28.1429
Pt 31.881 18.6721 31.716
Pt 17.0734 13.7575 15.7457
Pt 18.0801 27.23 23.6286
Pt 14.7857 28.6443 27.7845
Au 14.726 19.1604 18.3107
Au 25.9556 16.3799 6.58108
Au 28.5727 21.9637 41.5902
Au 12.273 22.9465 22.4669
Au 15.2256 27.8147 10.2787
Pt 21.6955 24.0643 38.7116
Pt 25.5826 19.5664 35.0533
Au 21.4677 38.3385 19.3443
Pt 23.817 27.7508 15.1318
Au 35.4084 31.2283 13.6367
Au 25.6178 31.0153 18.6661
Au 20.6973 43.0902 21.1435
Pt 10.9149 20.2898 15.8242
Au 27.3806 34.7692 10.344
Pt 27.0133 25.7046 39.0439
Au 21.3408 8.46378 18.2296
Pt 34.272 33.9265 34.9462
Pt 28.3401 16.7898 35.7371
Pt 37.2803 19.0628 18.4921
Au 7.7992 30.2726 30.3011
Au 43.7621 24.5946 28.9951
Au 35.7296 26.065 13.2554
Au 29.5413 26.7402 13.0044
Pt 32.7611 16.8618 34.4356
Au 9.90382 18.267 35.277
Pt 14.0891 16.0872 25.2657
Au 26.018 9.9729 32.8057
Pt 26.9108 25.697 18.3665
Au 22.8237 7.59163 27.3278
Pt 36.5138 23.3839 13.9416
Pt 15.8406 17.1144 29.5478
Au 25.9706 18.5533 4.93358
Au 18.8785 37.8601 18.3254
Pt 22.6106 17.2609 27.0545
Pt 29.5499 30.5922 21.2734
Pt 21.3083 16.4789 29.398
Pt 29.1128 32.5939 22.97
Au 18.5014 38.8998 35.7116
Pt 12.9709 21.2467 24.8964
Pt 9.67348 24.5903 29.8448
Au 12.4753 27.79 11.2703
Pt 37.9041 28.8184 19.7877
Pt 31.8815 31.45 19.8181
Pt 22.6167 25.4938 36.3928
Au 33.772 27.6916 11.3258
Au 9.65016 29.6001 22.417
Au 18.4889 22.2326 4.747
Au 11.1841 25.5076 7.50604
Au 19.1638 37.4074 13.3143
Au 17.4588 34.4163 10.5829
Pt 13.2456 13.517 28.0726
Au 18.8078 14.8719 38.7691
Pt 26.2628 15.5684 14.2415
Pt 24.306 29.3855 28.5522
Au 41.1071 17.6369 27.7056
Pt 23.9045 11.4573 23.8157
Au 31.9889 17.7403 10.9331
Pt 11.5892 26.2345 33.9812
Au 30.6914 39.7584 28.0491
Pt 29.5929 20.1717 32.6114
Pt 14.0071 25.2023 33.3617
Au 18.2836 11.7091 28.3662
Au 42.5696 34.2379 27.249
Au 28.2459 6.71168 20.058
Pt 33.967 16.6564 20.2176
Pt 20.2519 10.9238 16.7305
Au 20.8545 21.0981 4.68285
Pt 30.5882 26.0306 20.6807
Pt 39.3627 29.0237 34.0507
Au 7.96676 19.4023 25.8312
Au 25.8929 29.1487 42.4702
Pt 39.4469 23.0108 24.5587
Au 30.0154 19.6754 42.0209
Pt 32.1491 19.0863 23.5007
Au 32.5343 19.5377 41.2384
Au 14.7251 15.6432 36.2897
Au 17.4552 11.1661 14.0862
Au 18.4672 41.055 24.9301
Pt 32.7843 27.9989 35.3428
Pt 31.8311 25.8392 23.2088
Pt 31.1667 37.814 33.1844
Au 32.2841 13.254 16.373
Pt 25.777 28.0535 23.4705
Au 37.8959 30.0529 16.9779
Pt 10.0937 26.3995 31.6754
Au 13.2116 28.774 8.71581
Au 24.7876 9.34813 30.3587
Pt 32.2503 20.3494 12.0856
Au 22.3619 30.211 7.54831
Pt 19.1709 23.1009 29.7191
Au 26.562 28.2407 16.5935
Pt 29.0725 24.9868 31.9499
Pt 23.5881 21.3628 35.8896
Au 11.943 36.0686 20.0927
Au 18.6256 34.6584 13.3081
Pt 34.6731 26.1479 15.9
Au 14.5762 17.5668 15.9293
Au 18.2351 24.9696 4.98158
Au 9.68103 19.3103 21.3562
Pt 26.3225 23.2447 37.8464
Au 40.8637 20.451 21.0806
Pt 13.3818 26.2144 24.7577
Au 23.2048 22.4215 4.35565
Pt 30.2905 27.6697 40.2983
Au 41.8309 29.9206 33.5566
Pt 27.3507 25.4351 27.2942
Au 19.0317 21.9474 20.2657
Au 23.2187 29.8294 42.0195
Au 20.926 28.5605 14.8591
Au 21.3937 34.6716 40.4775
Pt 17.7269 9.69732 21.0093
Pt 24.4399 26.4004 17.3331
Au 31.3415 24.5179 8.5825
Pt 31.67 32.247 22.3191
Pt 30.7466 20.9822 22.0552
Au 26.7928 12.7569 18.5406
Pt 32.3026 26.0773 25.8981
Pt 28.9392 19.0915 39.6965
Pt 37.403 33.5375 31.6698
Au 23.6053 29.2301 5.28759
Pt 24.4328 13.6368 25.8624
Au 18.1245 14.0008 7.79906
Au 37.0188 12.3588 30.5085
Au 17.5042 31.8973 13.9187
Pt 30.093 27.6588 36.1403
Pt 16.3579 21.1359 35.7382
Pt 24.6964 17.6187 15.1926
Pt 19.1448 11.8053 19.2852
Au 35.1622 39.1497 29.5531
Au 22.5291 26.8271 4.48492
Pt 29.0183 22.1008 36.9756
Pt 26.2965 28.6371 33.2003
Au 43.0177 19.8735 27.5305
Pt 35.1863 22.7359 23.3757
Pt 15.7926 27.1892 17.4502
Pt 27.5251 26.6569 34.6336
Pt 17.1575 37.1865 23.8924
Au 28.9206 6.71864 22.8601
Au 20.699 33.5903 16.6262
Pt 26.8647 28.9535 30.4999
Au 20.735 10.3548 32.6647
Pt 20.757 16.1533 31.931
Pt 32.3643 18.6563 20.8994
Au 9.94292 18.7569 24.0283
Pt 29.8426 31.6181 27.3402
Pt 24.4268 27.645 40.6985
Pt 29.7613 30.214 40.6736
Au 9.8187 24.2069 20.7024
Pt 19.2178 22.5173 39.1735
Au 31.3082 27.3254 15.4609
Au 16.2219 7.4215 27.3052
Pt 32.0588 23.0289 13.1761
Pt 27.8996 36.1472 17.7671
Au 35.8314 33.8849 13.0015
Pt 20.2013 21.6466 22.9096
Au 27.7051 13.1288 14.9299
Pt 33.9852 19.6419 26.8629
Au 19.2089 6.02571 21.8037
Au 18.7881 28.225 16.8802
Pt 27.8413 33.7963 38.433
Pt 14.606 29.7179 20.833
Pt 23.1092 38.9257 26.2213
Au 11.1144 33.8791 15.385
Au 40.4921 22.6275 19.5082
Au 8.15447 32.6464 29.1141
Pt 16.3744 23.817 26.1711
Au 10.8659 19.8318 9.97324
Au 38.7256 34.52 33.8517
Au 10.2732 22.4669 11.4174
Pt 26.4821 35.588 31.0102
Pt 23.8593 18.9785 22.2636
Au 28.0774 9.9172 30.7096
Au 26.2705 13.1819 12.581
Pt 27.7931 17.133 23.4587
Au 30.8233 8.01173 21.4429
Au 37.9411 30.2699 14.2436
Au 10.9922 33.3383 18.2701
Pt 33.5172 29.2921 19.2143
Au 14.4978 35.1896 20.9669
Au 23.0169 33.2522 14.6413
Au 26.3151 29.7326 5.4773
Pt 31.7394 22.5794 17.993
Au 14.5971 31.9833 34.3018
Pt 37.0435 23.2478 16.6114
Pt 27.5191 26.4473 29.8757
Au 12.3489 18.5897 20.1523
Au 25.0441 19.5602 10.7068
Pt 28.5 17.5456 13.8271
Pt 26.8239 17.4196 26.1542
Pt 30.2331 10.4809 22.569
Pt 24.3224 29.0061 31.2377
Pt 32.9624 15.3841 25.4927
Au 22.8268 40.5325 33.4119
Pt 22.6152 16.6269 22.5963
Pt 20.3304 15.552 27.1275
Pt 24.084 28.4431 21.2902
Pt 31.5069 18.6613 26.234
Au 30.7802 8.19425 26.9705
Pt 22.6327 33.3799 33.5991
Au 21.5368 21.9447 40.5588
Pt 17.9768 34.8988 28.793
Pt 28.3098 14.0111 34.4487
Pt 35.5116 26.6227 28.7974
Pt 26.2964 32.5212 36.5882
Au 16.6476 34.8825 37.3977
Pt 22.4637 39.6107 23.6535
Pt 16.1321 24.8133 18.869
Pt 23.8446 31.0791 26.24
Au 10.4846 34.2672 32.7756
Pt 31.643 21.3288 30.9759
Pt 28.9089 36.7397 26.4228
Pt 26.8556 30.0355 37.5118
Au 36.2519 13.0638 25.2692
Pt 12.4599 30.3914 34.2946
Pt 20.1645 28.8892 23.0923
Au 16.6116 18.1366 6.6669
Pt 19.748 11.4668 21.8152
Au 11.9084 36.4455 14.7769
Pt 30.3139 22.8517 20.165
Pt 17.9331 19.4428 28.8486
Pt 12.0881 22.403 27.6353
Pt 35.6021 15.9219 24.4927
Pt 24.781 11.2066 26.7565
Pt 31.3056 19.9948 16.5524
Au 19.4491 40.0213 20.2277
Au 21.1792 8.52778 15.5836
Au 22.3681 15.5934 9.10975
Pt 26.431 15.0378 24.9338
Au 37.7978 16.8787 22.7448
Pt 17.3906 10.609 23.4071
Pt 28.4779 14.9492 12.7822
Pt 21.2065 28.7678 20.6316
Au 28.0919 29.7413 18.7879
Au 19.015 35.1163 35.7978
Au 36.1935 28.7791 12.5484
Au 17.9548 16.2383 31.3744
Au 20.8949 28.78 5.34837
Pt 27.6755 34.7395 20.0691
Pt 21.8715 33.0586 31.1113
Pt 25.1216 36.4798 28.569
Pt 30.0026 24.2 12.3232
Pt 38.3909 34.1447 19.0568
Au 36.4554 28.2215 15.367
Pt 34.4748 27.5309 23.1902
Au 11.8475 15.6441 11.8367
Au 9.78681 28.1295 11.5916
Au 20.8355 23.9798 4.61316
Au 11.4369 26.9151 13.6342
Pt 30.0008 37.1731 24.0963
Au 27.0493 28.0641 13.8254
Pt 21.2158 17.7122 34.3527
Pt 33.0786 31.9489 38.2404
Au 18.7244 34.9023 18.2416
Au 25.4514 12.0755 31.1817
Au 22.5932 20.8416 11.2348
Au 18.2974 37.8796 21.4409
Au 9.20957 24.8793 18.0127
Au 25.601 40.2824 17.0858
Pt 16.467 30.2685 37.891
Pt 22.9683 38.9121 31.2614
Au 11.2276 25.3638 22.9528
Au 16.0656 22.0279 15.0388
Au 18.1978 40.5331 17.7974
Pt 19.7284 30.8913 26.9835
Pt 25.5704 14.6386 29.8674
Au 37.5292 37.7087 29.1944
Pt 18.8601 29.6862 32.8368
Au 42.206 26.3162 22.1428
Pt 10.5565 20.7501 25.9532
Au 12.796 20.04 39.3511
Au 16.927 39.7416 23.0249
Au 33.5252 24.0571 7.11808
Au 10.7043 33.2477 30.2321
Au 16.2856 25.4725 42.7918
Pt 33.4933 20.099 14.3113
Au 14.7467 32.5005 21.6011
Au 28.427 29.0938 7.17415
Au 23.2993 9.03128 32.9007
Au 7.46752 32.9569 26.5841
Au 17.7712 32.0765 9.1807
Au 39.0004 21.5776 17.4458
Au 42.4393 24.6582 26.558
Au 22.9324 28.6985 12.621
Au 11.1528 20.1274 12.7972
Pt 35.894 30.6982 18.9395
Pt 34.8979 14.0109 31.6251
Pt 27.4934 21.0915 38.9363
Au 19.7715 22.0307 12.4763
Pt 36.0389 20.5532 13.4001
Au 33.3629 15.1059 18.1628
Pt 19.7969 31.7494 24.3359
Pt 30.9457 16.8363 36.4715
Au 27.8195 7.81324 32.4975
Pt 21.1514 33.0348 36.0775
Au 16.6495 13.3369 35.4676
Pt 15.727 20.9458 30.344
Pt 19.7463 18.3457 30.4572
Au 29.6721 6.08727 25.4515
Au 21.5799 34.2304 19.0639
Pt 26.067 21.4991 23.4247
Pt 15.0853 10.7596 24.6308
Pt 35.5345 32.1636 25.3605
Pt 23.5766 23.6262 21.5023
Pt 13.814 18.8494 30.0451
Pt 31.2081 18.4698 14.3162
Pt 13.3065 34.2278 30.1384
Au 16.5525 8.37399 17.587
Pt 28.147 22.8128 18.5843
Pt 15.1465 35.5236 23.6259
Au 7.10926 23.6028 19.4047
Pt 14.8268 29.4882 35.7012
Au 15.6462 10.0343 27.2898
Pt 20.64 32.7337 38.8371
Au 33.3298 17.0443 13.2647
Pt 28.107 37.5142 20.1279
Au 37.5327 26.2637 41.4759
Au 21.1813 25.98 43.2224
Au 30.9396 13.6397 11.9032
Pt 21.4055 27.6643 40.9703
Pt 24.4544 33.7517 31.4548
Pt 27.3518 18.7686 37.2756
Au 17.5606 38.521 33.1326
Pt 22.3113 37.8598 33.974
Pt 21.0073 20.1697 35.506
Pt 18.8922 23.767 27.0806
Pt 23.4685 35.1096 24.6469
Au 35.5287 11.6252 32.7142
Pt 36.8999 27.8777 24.6395
Pt 35.1285 26.9625 33.662
Pt 26.3036 31.1441 32.2702
Au 14.1891 9.65502 17.9525
Pt 15.1693 30.5048 23.5014
Au 25.3715 37.8689 37.9432
Pt 37.2097 25.9629 26.6738
Pt 31.4462 16.6526 29.6336
Au 27.5017 8.77573 18.3948
Pt 11.467 24.1637 32.2145
Pt 20.1804 24.4275 40.9101
Pt 20.8128 37.9085 26.9666
Pt 24.3475 30.8839 37.4035
Pt 28.6367 39.1327 22.7978
Au 16.7792 14.1665 29.8841
Pt 27.7359 16.6973 20.8237
Pt 24.0138 8.96017 18.8416
Pt 34.6938 13.092 29.0489
Au 25.9402 19.8366 7.25537
Au 12.8156 21.4273 10.9797
Pt 28.5991 26.3744 22.879
Pt 37.0639 31.1093 21.3184
Au 33.5114 11.7964 18.6793
Au 15.2227 33.092 9.30371
Au 23.2704 12.9994 39.2682
Au 14.771 12.4974 14.4414
Pt 37.3937 25.6049 15.4017
Pt 24.0873 17.6209 38.6074
Au 15.6129 29.8886 13.6269
Pt 20.9534 22.5349 18.4715
Pt 28.9628 36.6813 31.04
Pt 34.512 33.6128 32.0111
Au 18.2396 21.1001 9.92654
Pt 29.3955 29.3281 38.2423
Au 36.8916 37.3451 17.1157
Pt 13.4452 29.0243 25.0758
Au 14.252 17.0424 7.81517
Pt 35.0651 27.3417 36.6215
Pt 21.0187 27.7167 25.5735
Pt 33.3387 31.4152 24.1057
Au 21.7175 31.6342 10.2798
Au 25.423 35.6855 18.3832
Pt 19.0783 21.478 36.6265
Au 21.9579 37.0215 12.3895
Pt 29.0394 18.3632 25.459
Pt 19.535 21.1759 27.483
Au 25.5032 33.5821 8.51547
Pt 13.2184 15.8259 20.692
Pt 19.3561 26.8208 21.2729
Pt 23.5415 23.4494 26.7753
Au 32.0989 10.8616 26.9126
Au 24.4189 5.43096 20.1987
Pt 36.6229 19.1685 31.4384
Pt 11.0102 28.5651 32.8295
Au 20.9602 19.8083 13.7021
Pt 18.7014 24.7596 24.658
Pt 29.8164 21.608 11.6702
Au 8.53733 20.4601 11.9755
Pt 20.5037 10.4882 27.1458
Au 14.5911 13.5795 33.7034
Pt 37.8665 23.425 19.5229
Au 7.59439 20.9147 28.0468
Au 19.2294 7.07356 17.2418
Pt 21.3731 15.8177 19.838
Au 29.0142 25.1965 10.1154
Au 25.2659 24.0785 4.28957
Au 8.26181 22.1324 25.4289
Au 35.8582 17.6325 38.4751
Au 13.4892 28.7206 18.3324
Pt 36.7816 28.4984 27.3992
Au 29.0964 11.2473 19.3917
Au 12.1131 30.6408 39.6671
Pt 35.9745 31.2231 32.1341
Pt 26.7265 34.6694 26.4947
Pt 34.4541 28.469 39.3385
Pt 29.5328 11.5881 28.1504
Au 22.9178 28.3973 36.477
Au 10.6325 32.4377 23.4392
Pt 21.677 35.354 34.9016
Pt 32.9636 16.3034 22.7511
Pt 21.101 17.2908 24.7667
Pt 23.6369 22.3586 19.0904
Au 14.645 17.9657 32.4715
Au 24.854 12.6077 36.9111
Pt 29.9002 34.9585 37.2829
Pt 39.1714 29.2679 31.3781
Au 25.6775 7.82248 20.7308
Pt 30.2468 20.6879 24.7065
Au 33.1649 8.99224 25.4755
Pt 24.2539 34.246 22.1402
Au 23.1964 41.4073 30.3339
Pt 38.3286 25.4617 24.3015
Au 24.8801 26.8161 12.8003
Au 18.6977 16.3524 6.55302
Au 8.70156 34.1884 24.6496
Au 27.5946 38.8563 36.3007
Au 30.1775 9.46483 32.4695
Pt 26.3352 21.0754 19.1216
Pt 36.097 34.9154 17.6864
Pt 37.8194 33.3089 25.9391
Au 28.619 26.5786 15.7293
Pt 28.5573 24.9441 24.9818
Au 31.6393 27.1605 7.98273
Pt 35.8234 32.5141 29.8028
Au 23.3615 31.3952 12.5619
Pt 32.6533 21.6518 24.1356
Pt 32.7952 29.6051 22.0918
Au 22.2343 13.7495 36.737
Au 19.9549 26.6681 3.90434
Pt 18.4882 20.9026 31.1449
Au 24.0579 34.2528 40.9658
Au 32.6515 30.5418 14.7627
Au 7.60398 27.5447 31.394
Pt 24.7636 31.6917 21.5783
Au 19.4516 25.0644 12.3068
Au 18.9525 17.9165 13.8938
Au 10.0745 31.7454 20.6025
Au 33.3482 9.1087 28.4918
Au 16.073 35.3993 16.9913
Au 40.0107 26.062 15.1726
Au 13.7287 17.5808 37.9934
Pt 33.2553 22.8097 34.7367
Pt 29.8313 33.8623 34.8721
Pt 23.1213 31.769 39.8635
Au 35.3197 27.9247 41.8899
Pt 27.4711 28.2988 40.0241
Pt 31.7977 33.0543 28.2816
Pt 20.1061 17.8797 18.64
Pt 32.3374 35.6495 27.8126
Pt 35.0994 21.7923 15.5662
Pt 20.4234 19.8825 25.3344
Pt 20.2745 18.5342 27.6716
Au 10.5513 35.1956 22.743
Au 15.0904 10.8778 21.767
Au 12.3752 14.3636 32.0987
Au 21.0111 14.4822 11.3133
Au 6.43734 23.0534 22.2602
Pt 23.9781 37.1698 22.9845
Pt 22.5842 14.2849 30.5435
Pt 26.2587 27.9546 27.7064
Pt 12.6745 27.317 27.0585
Au 28.7749 11.762 35.766
Au 14.0929 20.1607 13.2007
Pt 20.1152 8.58491 20.8616
Au 29.4 29.1889 14.7132
Pt 30.7237 16.2452 13.005
Au 23.1421 39.7405 15.8519
Pt 25.9625 32.0044 27.2024
Pt 35.4942 28.8655 21.0433
Pt 35.8382 17.6053 26.9294
Pt 31.9453 21.3515 26.6788
Pt 22.7021 14.6407 27.8711
Pt 21.1335 31.1838 32.9551
Pt 22.7795 17.5828 17.6456
Au 39.3786 19.3162 23.1763
Au 29.4128 8.78771 16.2838
Au 23.2783 41.3612 27.6834
Pt 27.4994 34.6385 35.7527
Pt 13.6527 17.595 23.0135
Au 21.8308 14.9866 34.1294
Pt 17.3798 29.5442 27.6536
Au 34.309 41.7288 25.3916
Au 21.4219 7.26668 23.0534
Pt 31.6436 18.7802 38.6685
Au 11.1701 34.6309 25.4641
Pt 34.3619 24.2182 29.47
Au 28.9505 29.2329 11.7459
Au 13.8022 32.0889 13.843
Pt 21.4188 22.0726 33.5826
Au 28.0661 43.2197 25.6025
Au 20.9662 40.5765 26.0362
Au 28.7639 6.41687 27.9745
Pt 24.4976 22.1086 33.4311
Au 15.3037 19.0754 39.7168
Pt 26.3829 19.0385 21.4837
Au 26.7239 5.38096 21.8207
Pt 11.3571 26.6059 29.2933
Pt 20.9564 25.7034 31.6446
Au 41.4116 22.0877 26.3686
Au 13.8938 23.5952 20.0939
Pt 32.2581 24.9595 16.5001
Au 41.2475 28.5592 29.8321
Pt 23.9145 23.1404 41.0426
Pt 40.7809 27.4408 32.4218
Au 27.8094 36.6045 37.7912
Au 41.192 31.1393 31.208
Pt 25.2892 16.8227 17.8026
Pt 17.9966 17.8658 16.536
Pt 33.5444 25.8583 31.4165
Pt 32.3832 11.9069 29.2371
Au 34.59 15.6269 15.6366
Pt 39.4615 18.4219 29.834
Pt 20.323 8.12816 28.2115
Pt 40.0092 27.708 20.9182
Pt 24.5076 40.9704 22.2892
Au 40.0103 33.7931 31.0567
Pt 24.912 19.2262 29.7241
Au 17.9527 12.2649 37.8237
Pt 33.6778 12.8899 26.1935
Au 21.927 5.05855 21.6721
Pt 38.554 31.5234 19.1958
Au 31.0358 20.1073 9.65589
Au 19.5171 7.46832 30.764
Pt 16.0443 13.1023 23.4602
Pt 14.7766 22.8792 34.3374
Pt 21.3918 21.0657 37.9662
Au 24.3684 14.5385 35.0407
Pt 35.4752 15.3019 21.9615
Pt 39.1278 19.0768 32.7519
Au 28.6053 14.6091 39.7064
Pt 30.2127 37.2037 17.1423
Au 14.6358 34.9246 35.06
Pt 29.7816 34.3744 27.1649
Pt 26.3737 24.2552 33.9945
Au 26.6054 8.33989 15.833
Au 17.1869 10.7393 35.6845
Pt 29.8115 17.8477 16.5405
Pt 41.7882 27.0235 27.5669
Au 10.7008 14.6053 20.9285
Pt 30.717 28.0943 22.4883
Pt 29.9649 34.3905 29.9771
Au 20.4655 38.035 31.4896
Pt 24.3944 30.2754 23.7995
Au 38.7419 16.8357 18.3545
Pt 28.0349 32.3003 25.5134
Pt 27.1517 14.3836 22.4403
Au 28.2396 11.7084 32.7733
Pt 16.3252 10.9206 19.1597
Au 34.9603 13.281 16.9993
Au 30.0056 23.1723 6.3235
Pt 17.2539 31.9133 32.8067
Pt 26.4598 22.07 35.6011
Pt 28.7899 14.1506 20.0144
Au 35.4268 29.747 10.2419
Pt 33.4756 21.7756 28.9135
Au 25.6414 12.5585 10.0045
Au 9.06415 15.5129 23.1526
Au 37.7182 14.6972 20.7162
Au 31.804 34.2554 39.4306
Au 43.1935 30.3689 29.3251
Au 36.2317 12.6224 22.3662
Pt 23.61 14.7685 18.3457
Pt 31.5064 14.2164 23.6523
Pt 29.8201 32.7772 32.3367
Au 41.4295 19.1051 25.4297
Pt 15.1628 12.2605 17.1046
Au 38.4124 24.9895 12.8151
Au 36.1154 26.618 10.6419
Pt 31.9864 36.1052 30.566
Au 16.0783 15.3692 6.75094
Au 21.1792 19.2897 41.7983
Au 21.0681 28.8707 43.2761
Au 8.68005 24.9704 25.7821
Au 32.326 33.5529 15.7567
Pt 22.8764 21.3875 23.3345
Pt 11.4417 17.749 29.0654
Au 13.4975 37.2556 29.9888
Pt 37.3216 17.3205 33.7049
Au 17.2017 13.95 32.8039
Au 16.3506 16.4314 34.0953
Pt 17.0334 27.5295 32.1628
Pt 33.8647 34.338 29.4896
Pt 25.5596 28.4019 35.7516
Au 38.2156 22.1197 12.4383
Pt 39.9563 34.4541 26.8192
Pt 26.9043 23.7272 31.3587
Pt 24.0647 38.8939 28.8224
Au 34.3908 36.4719 35.7626
Pt 27.2285 19.4775 28.1017
Au 9.55299 24.4619 34.3597
Au 35.0679 19.6452 40.2932
Au 12.6462 31.1518 36.8558
Au 30.8284 12.3625 33.559
Pt 23.4649 14.5857 20.9229
Au 20.3068 27.0015 36.3612
Pt 25.2011 20.2571 37.7083
Au 13.8134 8.68518 25.6657
Pt 30.9 16.8785 24.2356
Au 7.8071 27.0957 18.7399
Au 25.6488 23.0782 14.6257
Pt 21.5018 13.189 18.9115
Pt 32.4628 22.2933 15.5943
Pt 24.875 7.11223 25.4527
Au 24.8207 4.40428 25.3653
Pt 16.3951 15.9213 17.3899
Au 20.2825 32.5639 14.1726
Au 14.1621 19.3582 6.43464
Au 41.4173 17.9051 32.3613
Au 10.0189 32.1022 26.2462
Au 18.9521 15.2651 12.8996
Pt 26.8792 21.5374 16.4641
Pt 10.3601 28.6653 27.4815
Pt 20.9472 25.076 26.1774
Au 31.9236 40.6042 25.6971
Au 10.4115 31.0809 15.2724
Au 20.9054 41.8383 18.7671
Pt 34.3092 23.5813 17.3706
Au 21.2393 17.1094 12.1089
Au 32.508 24.4635 42.7673
Pt 30.9339 13.3109 26.2054
Au 20.1075 19.5646 11.1256
Au 12.3734 22.2217 14.1035
Pt 12.4114 18.5538 25.1141
Au 36.4038 40.2911 24.7352
Au 41.159 25.2672 19.7514
Pt 33.5082 23.0253 31.8003
Au 41.0569 16.2346 30.3024
Pt 29.3107 17.7756 28.3325
Pt 34.4735 20.5238 35.4505
Au 33.3304 40.821 28.0359
Au 18.3669 39.5539 30.4122
Pt 29.2338 29.6342 25.9071
Au 32.5438 40.83 30.6244
Pt 32.8311 37.1064 23.5358
Pt 33.8989 30.5907 30.4724
Pt 26.8794 31.2471 23.2682
Pt 22.7357 9.67705 25.4644
Pt 38.8179 22.484 27.4285
Pt 34.5087 25.0761 35.7511
Au 43.2702 28.6983 31.6263
Au 15.5703 18.3673 11.8091
Au 17.3121 27.5159 12.2661
Au 16.4747 28.2215 42.2911
Au 27.807 40.097 15.3697
Pt 39.5642 25.0698 21.9711
Pt 34.3118 31.336 20.9608
Au 8.88375 26.6356 15.9637
Pt 21.478 37.8022 21.9273
Au 42.3713 27.7947 19.7722
Pt 32.1203 29.8597 39.4889
Pt 25.2452 20.9599 40.3782
Au 8.91393 29.4586 19.6293
Au 12.7164 21.3723 8.00366
Au 14.389 14.702 16.0179
Pt 19.2869 26.9213 33.3921
Pt 19.883 39.5948 22.9568
Au 23.2973 34.8642 16.8481
Pt 22.0406 26.2007 21.1504
Au 31.4526 26.2935 10.8585
Pt 26.0202 36.8327 35.4431
Au 23.8895 17.7591 7.73373
Pt 12.6861 14.9158 23.0476
Pt 15.8333 33.3564 29.7369
Au 10.5881 24.3183 13.6882
Au 10.3545 26.5494 36.326
Pt 34.083 18.167 30.0039
Pt 27.9469 33.0445 28.4876
Au 6.29465 23.8587 24.8677