2057
Atoms. Timestep: 20244
Au 25.0594 24.6758 25.4992
Au 27.3538 24.6406 24.0397
Au 27.4144 24.6426 26.9837
Au 22.7397 24.7084 23.9861
Au 22.8092 24.7263 26.9527
Pt 23.6714 26.9755 25.4176
Au 26.4848 26.9388 25.5208
Au 23.5732 22.4058 25.3442
Au 26.4352 22.3496 25.4139
Au 25.1061 23.1776 27.777
Au 25.1656 26.0585 27.8915
Au 24.9698 23.2462 23.0975
Au 25.0551 26.0757 23.1398
Au 29.6468 24.6835 22.5229
Au 29.7449 24.5365 25.4128
Au 29.8456 24.456 28.3009
Pt 20.4341 24.7015 22.3685
Au 20.4073 24.6876 25.4251
Au 20.5097 24.7062 28.3783
Pt 22.2658 29.2176 25.3407
Pt 25.0574 29.2726 25.4123
Au 27.8625 29.226 25.4161
Au 22.0769 20.1331 25.1692
Au 24.8989 20.0057 25.1914
Au 27.7063 20.0018 25.2501
Au 24.9973 21.7139 30.0941
Au 25.3286 24.5175 30.2241
Au 25.1247 27.7306 30.0678
Au 24.8975 21.8286 20.7001
Au 24.9835 24.6943 20.693
Pt 25.0214 27.4766 20.8094
Au 27.5167 22.9832 29.1699
Au 27.5592 26.1714 29.4681
Au 27.3104 23.2526 21.6193
Au 27.3371 26.1099 21.6096
Au 22.7297 23.0739 29.2019
Au 22.8534 26.0941 29.482
Au 22.6493 23.2515 21.5327
Au 22.6776 26.1029 21.5594
Au 28.807 27.0125 23.9483
Pt 28.8916 26.8499 26.8982
Au 21.2947 26.9779 23.9263
Au 21.3311 27.0319 26.8507
Pt 28.7333 22.2767 23.8852
Au 28.8204 22.209 26.8001
Au 21.2149 22.4185 23.8139
Au 21.2415 22.3513 26.7887
Au 23.6581 28.3602 27.7489
Pt 26.5648 28.4355 27.8015
Au 23.6117 20.8684 27.6379
Pt 26.4813 20.7819 27.6936
Au 23.593 28.3814 23.0591
Pt 26.4358 28.4011 23.1433
Pt 23.4581 20.8782 22.8656
Au 26.3084 20.8788 22.9409
Pt 31.922 24.6658 20.934
Au 32.1239 24.4202 23.7672
Au 32.268 24.2871 26.6004
Au 32.467 24.3353 29.324
Pt 18.1313 24.7208 20.9011
Au 18.0953 24.7055 23.8141
Au 18.0307 24.6878 26.8725
Au 18.1556 24.6738 29.7901
Au 20.7557 31.4657 25.1713
Pt 23.6443 31.5491 25.2601
Pt 26.3891 31.5975 25.2721
Pt 29.1398 31.5406 25.267
Au 20.6258 17.8112 24.9977
Au 23.396 17.6558 24.9875
Au 26.1682 17.5717 25.0116
Au 28.9571 17.5608 25.0952
Au 24.8635 20.2105 32.3831
Au 25.0033 23.0792 32.6182
Au 24.526 26.0545 32.2473
Au 24.9588 29.2669 32.3663
Au 24.8509 20.4839 18.2808
Au 24.8989 23.2516 18.2429
Au 24.971 26.076 18.2985
Au 25.0428 28.8476 18.3704
Au 30.0694 22.7001 30.5225
Au 27.4494 21.3815 31.3913
Pt 31.7244 28.4242 29.7444
Pt 30.1737 26.3187 30.1968
Au 27.0386 27.4271 32.0799
Au 29.6153 23.2079 20.0688
Au 27.2228 21.821 19.1522
Au 29.6733 26.0928 20.0351
Au 27.3109 24.6489 19.1363
Au 27.329 27.4694 19.1645
Au 20.2803 22.8855 30.53
Pt 22.4749 21.5417 31.5723
Au 20.4077 26.2499 30.8118
Au 22.5571 24.2667 31.6229
Au 22.5523 27.9759 31.6654
Au 20.3405 23.2893 19.9921
Pt 22.5385 21.81 19.1271
Pt 20.3426 26.1159 19.9884
Au 22.597 24.6729 19.1018
Au 22.6814 27.5004 19.1832
Au 30.2963 29.3719 23.7439
Au 31.1964 27.0422 22.2522
Au 30.38 28.9944 26.5183
Au 31.2923 26.7785 25.0759
Pt 31.4947 26.6672 27.8127
Au 19.8661 29.2849 23.7922
Au 18.981 26.9864 22.3131
Pt 19.8421 29.3327 26.7257
Au 18.9078 27.027 25.3322
Au 18.9729 27.0515 28.2747
Au 30.0197 19.8977 23.6786
Au 30.9506 22.2239 22.3475
Au 30.1102 19.7808 26.6305
Au 31.1353 22.0927 25.2418
Pt 31.2601 21.988 28.1509
Au 19.7128 20.0968 23.6801
Au 18.8871 22.4248 22.2737
Pt 19.7193 20.0247 26.656
Au 18.8305 22.3553 25.2695
Au 18.8751 22.3122 28.1556
Pt 23.4775 29.9924 29.9811
Au 22.1555 30.6914 27.5878
Au 26.9191 29.8728 30.3094
Au 25.0761 30.7442 27.7402
Au 27.9219 30.7675 27.7255
Au 23.482 19.3676 29.9542
Au 22.0126 18.5762 27.4547
Au 26.3191 19.2162 29.8962
Au 24.8986 18.4281 27.5137
Au 27.736 18.3776 27.5354
Au 23.5689 29.7998 20.6446
Pt 22.203 30.6927 22.9518
Au 26.4605 29.7685 20.6844
Au 25.019 30.7239 22.9751
Au 27.9007 30.6944 22.9741
Pt 23.3898 19.5065 20.48
Pt 21.9803 18.6356 22.7005
Pt 26.2014 19.4115 20.4969
Pt 24.7774 18.4988 22.6806
Au 27.6109 18.5132 22.7275
Au 28.9257 20.5303 29.0747
Au 29.0312 28.4972 28.9881
Au 28.6271 20.8302 21.3927
Au 28.8261 28.4174 21.4597
Au 21.1216 20.7029 29.0429
Au 21.219 28.5261 29.2162
Au 21.1321 20.9017 21.3582
Au 21.199 28.4413 21.4324
Pt 34.1231 24.6009 19.4439
Au 34.4451 24.3674 22.1656
Pt 34.5963 24.0986 24.9772
Pt 34.8105 24.0232 27.8245
Pt 34.6286 23.4389 30.6704
Au 15.8382 24.7121 19.4342
Pt 15.7479 24.7011 22.2376
Au 15.6958 24.7189 25.2587
Pt 15.6215 24.6041 28.2251
Pt 15.8305 24.6256 31.042
Au 19.1986 33.7766 24.9815
Au 22.14 33.8811 25.0245
Pt 24.9535 33.9408 25.0931
Pt 27.717 33.939 25.1043
Au 30.5674 33.8107 25.1025
Au 19.112 15.5266 24.8516
Pt 21.8957 15.2743 24.8196
Pt 24.6377 15.1837 24.7632
Pt 27.4648 15.1832 24.9154
Pt 30.3078 15.2135 24.9629
Au 24.3925 18.8006 34.6277
Au 24.0881 21.6629 34.8267
Pt 23.8931 24.6576 34.6301
Au 23.8751 27.5442 34.3218
Au 24.5506 30.9835 34.4387
Au 24.7903 19.1291 15.9075
Pt 24.8579 21.8842 15.7806
Au 24.9497 24.6436 15.8091
Au 24.947 27.4885 15.8544
Au 24.9987 30.2513 15.9366
Pt 32.5287 22.2531 31.6528
Au 29.9368 20.7486 32.6227
Au 27.4596 19.6507 33.5645
Au 31.5269 24.7811 31.8316
Au 27.4832 22.4102 33.9298
Au 26.6683 25.1778 33.7092
Au 29.3489 26.1701 32.8511
Au 27.9536 24.2493 31.5302
Pt 26.0076 26.1724 36.0116
Pt 31.8295 23.2139 18.5535
Pt 29.5293 21.7561 17.6711
Pt 27.1612 20.4487 16.7263
Pt 31.9216 26.0732 18.5178
Au 29.6308 24.6288 17.6141
Au 27.2472 23.2102 16.6627
Pt 29.6702 27.4787 17.6292
Au 27.2999 26.0673 16.6912
Pt 27.3705 28.8653 16.7257
Pt 17.7648 22.7254 31.7726
Pt 19.8842 21.4356 32.8681
Au 22.0783 20.0002 33.7178
Pt 17.98 26.4296 31.9958
Pt 19.7557 24.3012 32.6841
Pt 21.8618 22.9647 33.8911
Pt 20.0401 28.1436 32.8887
Pt 21.741 25.982 33.4486
Pt 22.1228 29.7247 33.8283
Au 18.0422 23.2849 18.4984
Pt 20.2723 21.893 17.6137
Pt 22.4951 20.503 16.7184
Pt 18.0492 26.1492 18.5172
Pt 20.2675 24.7119 17.577
Au 22.5525 23.2401 16.6784
Au 20.3135 27.5188 17.6324
Au 22.6041 26.082 16.6723
Au 22.6249 28.9011 16.7496
Au 31.658 31.7499 23.4243
Au 32.6574 29.4288 21.9738
Au 33.5451 27.023 20.6835
Au 31.8 31.2839 26.0951
Au 32.9155 28.9875 24.7253
Pt 33.6674 26.6393 23.3824
Au 32.997 29.0882 27.4649
Au 33.8179 26.5412 26.1195
Au 34.0372 26.8406 28.8494
Au 18.2946 31.5871 23.6082
Au 17.4692 29.3055 22.1536
Au 16.6283 27.02 20.8039
Pt 18.2607 31.5608 26.5214
Au 17.4062 29.3488 25.1359
Au 16.5148 27.0078 23.688
Au 17.4224 29.3745 28.0458
Au 16.5169 27.0283 26.6827
Au 16.5701 27.0228 29.5742
Au 31.3095 17.4696 23.523
Pt 32.2961 19.8274 22.0793
Au 33.1618 22.1997 20.7828
Au 31.3763 17.2768 26.4635
Au 32.4733 19.6713 25.0344
Pt 33.3835 21.9632 23.6727
Au 32.4798 19.3941 27.9432
Au 33.5937 21.8426 26.6016
Pt 33.5588 21.3956 29.37
Au 18.197 17.7916 23.4931
Au 17.358 20.0949 22.1316
Pt 16.577 22.3686 20.7715
Au 18.2181 17.7368 26.4425
Au 17.2854 20.0245 25.0953
Au 16.4695 22.3994 23.67
Au 17.3289 19.99 27.9835
Au 16.3968 22.3684 26.623
Au 16.4528 22.2716 29.442
Au 23.2309 31.6353 32.1488
Au 21.9766 32.3566 29.771
Au 20.6083 33.0438 27.4092
Au 26.2329 31.7902 32.3189
Au 24.8729 32.4115 29.9116
Au 23.5191 33.1896 27.4691
Pt 27.6072 32.5544 29.8057
Au 26.3165 33.2145 27.4667
Au 29.1993 33.1335 27.5243
Pt 23.4032 17.7292 32.0324
Au 21.9404 17.0363 29.7159
Au 20.5104 16.2153 27.2795
Au 26.1773 17.5938 32.0943
Pt 24.8079 16.8298 29.7228
Au 23.3382 16.0551 27.2455
Pt 27.6211 16.694 29.6504
Au 26.1883 15.9712 27.2725
Pt 29.0069 15.932 27.3348
Au 23.551 31.2262 18.1654
Au 22.0811 32.1481 20.4844
Au 20.6201 32.9955 22.7004
Au 26.4632 31.2075 18.1951
Au 24.965 32.226 20.4416
Au 23.5184 33.0704 22.7633
Au 27.8639 32.1616 20.519
Au 26.3912 33.0845 22.8163
Pt 29.1992 33.061 22.8419
Au 23.3406 18.1256 18.0807
Au 21.8794 17.2379 20.327
Pt 20.5421 16.3039 22.5629
Pt 26.1745 18.0437 18.1225
Pt 24.7213 17.0887 20.3061
Au 23.2894 16.1879 22.564
Pt 27.5573 17.0955 20.2895
Au 26.1054 16.109 22.5467
Au 28.9408 16.1331 22.6282
Pt 31.3529 20.1165 30.3586
Au 31.5684 30.2705 31.6297
Pt 30.1564 18.0026 28.8526
Pt 30.5817 30.6362 28.5987
Au 28.7797 18.7399 31.1669
Au 28.9795 31.3225 31.8205
Pt 30.9126 20.7395 19.8511
Pt 31.1689 28.4517 19.7965
Au 29.9808 18.4137 21.1799
Au 30.238 30.7497 21.2149
Au 28.5417 19.3954 18.9514
Au 28.7913 29.7963 18.9572
Pt 18.6841 20.5844 30.3794
Pt 18.7974 28.6996 30.5111
Pt 19.5623 18.407 28.8864
Pt 19.6471 30.8272 28.9706
Pt 20.9968 19.211 31.254
Pt 20.9303 30.2361 31.3887
Pt 18.8291 20.9364 19.838
Pt 18.8348 28.4591 19.8172
Pt 19.6104 18.6338 21.1691
Au 19.7013 30.754 21.2738
Pt 21.0548 19.5191 18.9397
Au 21.17 29.8733 19.0031
Pt 36.2604 24.4937 17.9537
Pt 36.8012 24.1757 20.5278
Au 37.0424 24.0503 23.2335
Au 37.0877 23.8369 26.0455
Pt 38.4642 23.0401 28.1998
Pt 35.729 20.8837 30.8328
Pt 13.5421 24.8133 17.9575
Au 13.4184 24.7392 20.7549
Au 13.4072 24.7372 23.6186
Pt 13.3272 24.6027 26.5791
Pt 13.2449 24.5787 29.3843
Au 13.4505 24.7045 32.1893
Au 17.7744 36.1405 24.7508
Au 20.6158 36.2092 24.7914
Pt 23.4676 36.2566 24.9211
Pt 26.2938 36.2996 24.9426
Au 29.0982 36.3089 24.8983
Au 31.9321 36.1846 24.9862
Pt 17.6461 13.2803 24.7804
Pt 20.405 13.052 24.7009
Pt 23.1364 12.881 24.6597
Au 25.9611 12.8331 24.6472
Au 28.8009 12.8457 24.7243
Au 31.6128 12.8544 24.6712
Au 22.3049 16.0968 38.2619
Pt 26.0759 19.0438 38.3378
Au 23.4722 23.2137 37.152
Pt 23.1762 28.3928 38.9592
Au 23.4259 29.3442 36.4072
Au 24.2929 32.5145 36.6081
Au 24.7038 17.7131 13.5511
Pt 24.7917 20.5512 13.4509
Pt 24.8462 23.272 13.4021
Au 24.9032 26.103 13.4179
Pt 24.9165 28.8727 13.4272
Pt 24.9703 31.6449 13.5806
Pt 35.0739 22.1131 33.1122
Au 32.2227 21.3988 34.0904
Au 31.8043 19.0901 35.5007
Au 26.8089 17.9985 35.6391
Au 33.5193 24.2803 33.5952
Pt 32.8278 28.1215 35.6852
Au 29.5206 20.9212 35.4305
Au 26.4327 20.663 35.9575
Pt 31.3094 26.0924 34.6509
Au 28.7545 24.5175 35.5105
Au 23.483 26.4177 36.8094
Au 28.3574 27.3714 35.0424
Au 25.6585 24.8018 38.4174
Au 25.9779 28.8196 35.4936
Pt 33.9921 23.1178 17.1059
Au 31.7297 21.8236 16.1246
Au 29.4338 20.396 15.2528
Au 27.108 19.1063 14.3459
Au 34.1165 26.0205 16.9802
Pt 31.8623 24.6512 16.1032
Au 29.5292 23.2527 15.1443
Pt 27.1399 21.9025 14.2327
Pt 31.872 27.4912 16.104
Au 29.5786 26.0799 15.1741
Pt 27.2192 24.6469 14.1849
Au 29.6055 28.8878 15.1766
Au 27.2583 27.4758 14.2533
Au 27.2983 30.3111 14.334
Pt 15.3158 22.6921 33.0099
Pt 17.4823 21.5987 34.2339
Au 19.3969 19.7827 35.1601
Au 21.8278 18.3605 36.0546
Au 15.5813 26.512 33.137
Pt 17.2737 24.3758 33.8157
Pt 19.4176 23.1389 35.1495
Au 21.4463 21.4212 36.1386
Au 17.5875 28.2467 34.1339
Au 19.2535 26.0565 34.6233
Au 21.4428 24.7687 35.9233
Au 19.7042 29.8942 35.0819
Pt 21.3087 27.652 35.4782
Pt 21.7611 31.5585 35.9955
Au 15.6684 23.3097 17.0016
Pt 17.9509 21.9129 16.094
Au 20.2038 20.5348 15.2047
Au 22.4493 19.0869 14.3567
Pt 15.766 26.1789 17.036
Au 17.95 24.7578 16.0586
Au 20.2127 23.3216 15.1424
Pt 22.4942 21.904 14.2297
Pt 18.0104 27.6087 16.1623
Au 20.2761 26.1924 15.1455
Au 22.5751 24.6963 14.2207
Pt 20.3306 28.963 15.2106
Pt 22.5716 27.5299 14.2326
Au 22.635 30.3012 14.3874
Pt 33.0622 34.026 23.1329
Pt 34.002 31.7899 21.6926
Pt 34.9166 29.4649 20.3429
Au 35.8644 26.9782 19.0535
Au 33.2692 33.7258 25.7402
Au 34.3019 31.3453 24.4211
Au 35.2013 28.8697 23.0691
Pt 36.1287 26.53 21.7134
Pt 34.3098 31.5349 27.3208
Pt 35.3853 28.8225 26.0551
Au 36.1415 26.4175 24.4936
Au 35.3443 29.3513 28.9251
Pt 36.2678 26.3168 27.1716
Au 36.3013 25.4047 29.6344
Pt 16.8704 33.9208 23.3896
Au 15.9982 31.6384 22.0157
Pt 15.1613 29.3352 20.5991
Pt 14.3421 27.0752 19.2825
Pt 16.7531 33.9057 26.2738
Pt 15.8997 31.6835 24.9694
Au 14.9988 29.3763 23.5292
Pt 14.1823 27.0782 22.0873
Pt 15.8571 31.7099 27.7815
Au 14.9766 29.424 26.4233
Au 14.1187 27.0926 25.034
Pt 15.0007 29.487 29.2364
Au 14.1297 26.9597 27.9314
Au 14.1418 27.0591 30.7303
Pt 32.6428 15.1315 23.388
Au 33.5514 17.4125 21.9446
Pt 34.4715 19.7221 20.5542
Pt 35.3927 22.0963 19.2901
Pt 32.7036 14.8926 26.3208
Au 33.7661 17.2189 24.9896
Pt 34.6855 19.5298 23.5115
Au 35.5742 21.8332 22.1596
Pt 33.7985 16.91 27.8273
Au 34.9034 19.3414 26.5198
Pt 35.761 21.5669 25.0254
Pt 34.8031 18.9184 29.3816
Au 36.0279 21.5938 28.0989
Pt 35.982 19.3312 33.0264
Pt 16.6856 15.5319 23.3863
Pt 15.8285 17.7586 21.9992
Pt 15.0082 20.0508 20.6914
Pt 14.2677 22.3942 19.3467
Pt 16.669 15.4442 26.2295
Pt 15.7383 17.6926 24.8694
Au 14.9036 20.0038 23.5178
Au 14.1331 22.3517 22.1324
Au 15.7731 17.6817 27.7185
Au 14.8313 20.0028 26.4255
Au 14.0225 22.3662 25.0337
Pt 14.846 19.9277 29.2514
Pt 13.975 22.2928 27.8856
Au 14.0703 22.2605 30.6681
Pt 22.9422 33.371 34.3341
Au 21.7824 34.0839 31.9248
Au 20.5229 34.8376 29.5487
Au 19.1409 35.4825 27.1542
Pt 25.846 33.5353 34.5078
Au 24.6213 34.1748 32.0579
Pt 23.4102 34.9142 29.6177
Au 22.0317 35.6 27.2646
Pt 27.3956 34.2226 31.9643
Pt 26.1289 34.9544 29.6451
Pt 24.8279 35.6394 27.2751
Au 28.9291 34.9433 29.7587
Au 27.6234 35.6182 27.3297
Au 30.4845 35.5855 27.4272
Au 23.3704 16.1896 34.1751
Pt 21.9233 15.3423 31.7778
Au 20.3754 14.6159 29.4857
Pt 18.9901 13.8981 27.0895
Au 26.1701 15.8317 34.1451
Pt 24.724 15.1817 31.8285
Au 23.2265 14.4519 29.4402
Pt 21.7607 13.6641 27.0718
Pt 27.5927 15.1228 31.8124
Au 26.0947 14.3668 29.4882
Au 24.6194 13.5903 27.0292
Pt 28.9554 14.3187 29.4284
Pt 27.522 13.5755 27.1293
Pt 30.3011 13.5837 27.0953
Pt 23.5275 32.6534 15.783
Au 22.0629 33.5458 18.0665
Pt 20.5601 34.4461 20.2855
Pt 19.1532 35.303 22.4507
Au 26.4156 32.638 15.7961
Pt 24.9114 33.6734 17.9956
Pt 23.4529 34.5977 20.3031
Pt 21.9952 35.3755 22.4914
Au 27.7585 33.6181 18.0374
Au 26.281 34.6454 20.2675
Au 24.8559 35.4577 22.6205
Au 29.1764 34.5705 20.3379
Au 27.7274 35.4611 22.6122
Au 30.5783 35.3618 22.6338
Pt 23.2457 16.6779 15.7161
Au 21.8001 15.7742 17.8828
Pt 20.4399 14.8928 20.1848
Pt 19.05 14.0548 22.4656
Au 26.1156 16.6469 15.705
Pt 24.6416 15.6384 17.8938
Au 23.2251 14.7384 20.1357
Pt 21.811 13.8286 22.412
Au 27.506 15.6777 17.932
Pt 26.0117 14.7109 20.1338
Pt 24.5548 13.7324 22.3696
Au 28.9362 14.7664 20.1537
Au 27.3792 13.6919 22.3921
Au 30.2859 13.8074 22.4403
Pt 33.5794 19.743 32.0043
Pt 33.9244 25.9513 31.3129
Au 32.5316 17.6805 30.2882
Pt 33.0253 31.0247 29.5344
Pt 31.4284 15.581 28.69
Au 31.9505 33.1659 28.0378
Au 31.3325 18.382 32.8028
Pt 29.4144 28.6385 31.5598
Au 30.0976 16.3384 31.03
Pt 30.4394 32.6306 30.1339
Au 28.7866 17.2083 33.5147
Au 27.7453 29.7682 33.6553
Au 33.1413 20.7208 18.3384
Au 33.4204 28.4719 18.2498
Pt 32.2329 18.3428 19.6181
Pt 32.5376 30.8345 19.5331
Pt 31.3209 16.093 20.9478
Au 31.5482 33.1183 21.0126
Pt 30.8583 19.2942 17.4566
Au 31.0909 29.8833 17.3733
Pt 29.9308 17.0137 18.7188
Au 30.1624 32.191 18.7374
Au 28.5214 17.9874 16.5347
Pt 28.7706 31.2474 16.4936
Au 16.1486 20.4317 31.7287
Pt 16.3866 28.8659 31.6315
Au 17.0874 18.2872 30.2107
Pt 17.2352 31.0317 30.2153
Pt 18.0272 16.0632 28.6476
Au 18.119 33.2109 28.6676
Au 18.5791 19.0276 32.5748
Pt 18.512 30.4514 32.6357
Au 19.4155 16.8083 31.0883
Au 19.4604 32.5826 31.0846
Au 20.9779 17.4836 33.3722
Pt 20.6594 32.0023 33.5297
Au 16.4302 20.946 18.3899
Pt 16.5394 28.4741 18.3659
Au 17.2378 18.6267 19.7078
Pt 17.3542 30.7852 19.6554
Au 18.1485 16.3261 21.0702
Pt 18.2138 33.0755 21.0692
Au 18.7358 19.5653 17.4485
Au 18.8264 29.9263 17.4423
Au 19.5203 17.1838 18.748
Au 19.649 32.2203 18.863
Pt 20.9757 18.1121 16.5593
Pt 21.1494 31.2929 16.5932
Au 38.4588 24.3619 16.4954
Pt 38.6834 25.4182 19.0645
Pt 38.9594 25.6646 21.7919
Au 38.9548 25.6037 24.5765
Pt 38.968 25.6256 27.271
Pt 39.0182 25.0704 29.7805
Pt 41.0144 20.6313 30.1122
Au 11.3103 24.7928 16.4489
Pt 11.0939 24.7726 19.2979
Au 11.0032 24.7223 22.0721
Au 11.0046 24.6825 24.9131
Au 10.9333 24.6718 27.7858
Pt 10.8313 24.7327 30.6175
Pt 11.1235 24.7985 33.3987
Pt 16.3687 38.4777 24.5227
Pt 19.1617 38.5693 24.6319
Au 21.9473 38.6048 24.7277
Au 24.7924 38.5991 24.7242
Pt 27.6194 38.7196 24.7528
Pt 30.3449 38.7154 24.7115
Au 33.146 38.5997 24.7551
Pt 16.1742 11.0213 24.6676
Pt 18.9272 10.8093 24.6238
Pt 21.6424 10.6491 24.5494
Pt 24.4009 10.5007 24.5202
Au 27.2673 10.388 24.4645
Au 30.103 10.3528 24.4828
Pt 32.9037 10.4273 24.435
Au 24.4283 17.1957 36.836
Pt 24.0048 20.3421 40.0437
Pt 23.7583 20.1295 37.2685
Au 23.2489 25.5753 39.3622
Pt 25.3471 29.1071 40.6056
Pt 22.9369 31.1873 38.5392
Pt 23.9875 34.0046 38.734
Au 24.6959 16.3763 11.2009
Pt 24.7381 19.1657 11.1099
Au 24.8198 21.8812 11.0614
Au 24.8513 24.7165 11.0291
Pt 24.9454 27.4867 11.0349
Pt 24.9293 30.2293 11.0856
Au 24.9318 33.0017 11.2522
Pt 34.5182 22.8048 35.8411
Au 30.0308 23.3127 33.4506
Pt 30.3097 22.5306 37.4905
Au 29.3528 18.0945 36.3659
Au 25.6881 21.8927 38.3416
Pt 36.0283 24.9471 32.512
Pt 33.4912 25.626 36.0712
Pt 31.7317 23.5325 35.5339
Au 26.0323 23.4563 35.9519
Au 28.3963 18.38 41.8002
Au 31.9522 27.4576 32.3883
Pt 30.363 28.156 36.8009
Au 28.1676 26.4037 37.6804
Au 25.5129 21.4564 42.33
Au 30.5778 28.9355 34.1341
Pt 30.3135 27.1262 39.3764
Pt 25.5771 26.3396 40.7097
Au 27.8959 29.2219 37.3942
Au 25.6599 27.6438 38.2578
Pt 25.4519 30.3721 38.0599
Au 36.2174 23.0239 15.6024
Au 33.9575 21.7297 14.5399
Au 31.6972 20.3501 13.6385
Pt 29.4219 19.0145 12.8246
Au 27.0593 17.6494 12.0362
Au 36.4537 26.0905 15.5639
Au 34.0742 24.5488 14.5511
Pt 31.7846 23.19 13.5298
Au 29.4671 21.836 12.7212
Pt 27.1584 20.5017 11.8992
Pt 34.1058 27.4667 14.5323
Au 31.8539 26.0579 13.6709
Au 29.515 24.7124 12.6895
Pt 27.1764 23.3112 11.8173
Pt 31.8469 28.9 13.6601
Pt 29.5259 27.4976 12.6946
Pt 27.2201 26.1144 11.7941
Pt 29.5552 30.3002 12.7317
Au 27.2497 28.9065 11.8304
Pt 27.2765 31.7225 11.9822
Pt 12.8892 22.8047 34.2445
Pt 15.0576 21.6393 35.4685
Pt 17.156 20.6789 36.8043
Au 17.5959 16.5074 39.2209
Pt 18.1923 15.3575 36.7392
Au 13.1564 26.6464 34.3784
Pt 14.8258 24.4724 34.974
Pt 16.927 23.3431 36.4088
Pt 19.1637 22.3173 37.7123
Pt 21.6833 21.4042 38.8005
Au 15.1175 28.396 35.4402
Pt 16.78 26.088 35.8707
Pt 18.9454 24.9874 37.1979
Pt 21.1981 23.9647 38.5011
Au 17.2507 30.0954 36.3927
Pt 18.8553 27.7257 36.7468
Pt 20.9952 26.6306 38.0816
Pt 19.3242 31.7236 37.274
Au 20.9409 29.4113 37.5947
Pt 21.3942 33.3704 38.2049
Pt 13.4093 23.2936 15.4886
Au 15.6426 21.9319 14.5923
Pt 17.9081 20.5323 13.6902
Au 20.1855 19.1227 12.7873
Pt 22.3939 17.6924 11.9451
Pt 13.498 26.1626 15.526
Pt 15.6491 24.7088 14.5396
Pt 17.9147 23.314 13.6034
Pt 20.2364 21.9504 12.6761
Pt 22.468 20.538 11.8805
Au 15.7142 27.5329 14.6283
Au 17.9777 26.1355 13.624
Au 20.2355 24.7181 12.6888
Pt 22.5107 23.3345 11.789
Au 18.06 28.9641 13.718
Pt 20.3146 27.524 12.6711
Pt 22.5529 26.1222 11.8165
Pt 20.3281 30.3443 12.8161
Au 22.5936 28.8919 11.8624
Au 22.6172 31.7209 12.0158
Au 34.2635 36.4874 23.1322
Au 35.2682 34.3043 21.5989
Au 36.2061 32.0578 20.159
Pt 37.1291 29.7489 18.8592
Pt 38.1718 27.4246 17.4823
Pt 34.5065 36.4096 25.8436
Pt 35.5431 34.3116 24.3634
Pt 36.46 32.2268 22.9624
Au 37.3105 30.0116 21.6342
Pt 38.1715 27.7703 20.3077
Au 35.3972 34.248 27.324
Au 36.4744 32.1813 25.9007
Au 37.2705 30.0745 24.471
Au 38.1268 27.8653 23.1297
Pt 36.3721 32.1085 28.9855
Au 37.4586 30.0444 27.4334
Pt 38.1353 27.8714 25.903
Pt 37.427 30.0844 30.6434
Au 37.81 27.7261 28.9529
Au 37.2051 23.0993 30.6761
Au 15.3989 36.2856 23.2391
Au 14.5208 33.9859 21.8583
Au 13.6443 31.6349 20.4911
Au 12.8189 29.3473 19.1408
Pt 12.0398 27.1053 17.8269
Pt 15.3481 36.273 26.0707
Au 14.4269 34.014 24.7461
Au 13.4807 31.7103 23.3958
Au 12.6326 29.4019 22.0235
Pt 11.8617 27.0934 20.6394
Pt 14.3593 34.0698 27.5597
Au 13.429 31.7645 26.2261
Pt 12.4941 29.4647 24.8536
Au 11.7523 27.1308 23.4728
Pt 13.4026 31.7992 28.9997
Au 12.5485 29.3905 27.6721
Au 11.7067 27.0694 26.2977
Au 12.5326 29.5061 30.5113
Au 11.7024 27.0331 29.182
Au 11.6647 27.1594 32.0192
Pt 33.9492 12.6991 23.125
Au 34.9144 14.9463 21.7829
Au 35.8154 17.2496 20.3726
Au 36.7516 19.6089 19.0481
Au 37.7691 22.1106 17.9779
Au 33.9517 12.4917 26.0592
Au 35.0396 14.7783 24.7558
Au 35.9854 17.0369 23.3674
Au 36.9106 19.3067 21.9895
Au 37.8465 21.5874 20.6774
Pt 35.1293 14.5362 27.6237
Pt 36.2289 16.8139 26.3696
Pt 37.1009 19.0579 24.8959
Au 37.9931 21.4591 23.541
Pt 36.1984 16.5081 29.1708
Au 37.2625 18.8509 27.8665
Pt 38.0862 21.1289 26.3244
Pt 37.1603 18.5789 30.6963
Au 38.3958 20.7334 29.5515
Pt 38.0271 20.8644 32.28
Au 15.2377 13.2822 23.268
Pt 14.3293 15.557 21.8847
Pt 13.5477 17.7685 20.505
Au 12.7512 20.0801 19.1742
Au 12.0216 22.4766 17.8701
Pt 15.2131 13.2111 26.1572
Pt 14.2439 15.4614 24.7528
Pt 13.3893 17.7234 23.3556
Pt 12.5393 20.0111 22.0055
Pt 11.7994 22.3479 20.6558
Pt 14.289 15.4058 27.5375
Pt 13.3336 17.6629 26.1585
Au 12.4264 20.0155 24.8544
Pt 11.6896 22.3229 23.4288
Pt 13.3596 17.6002 28.9763
Au 12.3773 19.9234 27.7224
Pt 11.6508 22.3002 26.3217
Au 12.4552 19.9671 30.6034
Pt 11.6139 22.3055 29.07
Au 11.6732 22.3646 31.8834
Pt 22.6956 34.9581 36.4742
Au 21.5251 35.7883 34.0889
Au 20.2729 36.5837 31.7198
Au 18.9875 37.2172 29.3366
Pt 17.6967 37.843 26.955
Pt 25.4925 35.0103 36.7832
Pt 24.3209 35.7931 34.2822
Au 23.1559 36.6263 31.8118
Pt 21.8847 37.3347 29.453
Pt 20.5767 37.9516 27.1043
Pt 27.1336 35.7696 34.144
Pt 25.956 36.6087 31.8358
Au 24.6958 37.3689 29.4999
Pt 23.3587 38.0078 27.1408
Pt 28.7135 36.6045 31.9534
Pt 27.4919 37.3614 29.5665
Au 26.1769 38.0681 27.1471
Pt 30.2615 37.345 29.6418
Au 28.9747 38.0199 27.1541
Pt 31.732 37.9859 27.2394
Pt 20.847 15.7419 35.4909
Au 21.9012 13.6933 33.8929
Pt 20.4128 12.8978 31.5314
Pt 18.8641 12.3249 29.2432
Pt 17.4969 11.6574 26.9704
Pt 26.1719 14.1623 36.2094
Pt 24.6958 13.461 33.9243
Au 23.1881 12.7638 31.5696
Pt 21.6633 11.9769 29.2052
Pt 20.2663 11.4084 26.9324
Pt 27.5761 13.417 33.9439
Au 26.0617 12.7011 31.6594
Au 24.504 11.8792 29.222
Pt 23.018 11.243 26.8827
Pt 28.9001 12.6727 31.5446
Au 27.3847 11.8438 29.2295
Au 25.9033 11.1014 26.8633
Au 30.2031 11.8487 29.1572
Au 28.7616 11.0488 26.8796
Pt 31.5641 11.1269 26.8381
Pt 23.5219 34.061 13.4558
Au 22.0527 34.946 15.6488
Pt 20.571 35.8352 17.8951
Pt 19.1283 36.7537 20.0923
Pt 17.737 37.6266 22.3063
Au 26.4065 34.0279 13.4358
Pt 24.9097 35.0582 15.6449
Au 23.4764 35.9864 17.9027
Pt 21.9551 36.8348 20.0707
Au 20.5356 37.7063 22.3425
Pt 27.7007 35.0474 15.6063
Pt 26.2653 36.0831 17.8333
Pt 24.8353 37.0215 20.0658
Au 23.3579 37.7634 22.3392
Au 29.0958 36.0093 17.8813
Pt 27.6226 37.0138 20.1102
Au 26.2383 37.8329 22.3736
Pt 30.3821 37.0048 20.1623
Pt 29.0045 37.8564 22.4101
Au 31.7809 37.8058 22.438
Pt 23.2115 15.3343 13.3565
Pt 21.8052 14.3762 15.5164
Pt 20.3322 13.4839 17.7442
Au 18.9687 12.6229 20.0501
Au 17.5419 11.801 22.3434
Pt 26.0901 15.2256 13.3132
Pt 24.6182 14.2422 15.4784
Au 23.1587 13.2811 17.6852
Pt 21.7494 12.3904 20.0017
Pt 20.3446 11.5647 22.293
Au 27.5011 14.2724 15.4723
Pt 25.9772 13.2983 17.6812
Au 24.5479 12.2879 19.9577
Pt 23.0805 11.425 22.2467
Au 28.9627 13.3412 17.6813
Au 27.3737 12.3144 19.9392
Pt 25.8118 11.2705 22.2123
Au 30.2614 12.3249 19.9547
Au 28.6999 11.254 22.1971
Au 31.5401 11.3224 22.2237
Au 36.4116 18.3639 35.4982
Au 34.0526 28.7077 31.2184
Pt 34.9289 17.2087 31.6121
Au 35.0009 31.3627 31.2898
Au 33.8641 15.2002 30.0362
Pt 34.1088 33.5471 29.6161
Pt 32.6419 13.137 28.4218
Pt 33.1402 35.6694 28.0243
Pt 34.3488 20.171 34.9797
Au 33.4381 30.031 33.8253
Au 32.5889 15.8321 32.48
Pt 32.6666 32.7998 31.7394
Pt 31.4042 13.8635 30.7719
Pt 31.6748 34.985 30.1919
Pt 28.7473 15.4365 35.5264
Au 31.1288 31.7738 33.8295
Au 30.0324 14.6505 33.1579
Pt 30.1094 34.1136 32.2742
Pt 28.5669 13.63 37.3457
Au 28.5238 32.8547 34.1163
Pt 35.3941 20.6167 16.8437
Au 35.7288 28.5848 16.6863
Pt 34.4467 18.2344 18.1004
Au 34.7951 31.0087 17.9413
Pt 33.5516 15.9417 19.3805
Au 33.8295 33.3017 19.3243
Au 32.5782 13.7047 20.8514
Au 32.7934 35.5881 20.8452
Au 33.1026 19.3054 15.8883
Au 33.3606 29.9417 15.7513
Pt 32.2046 16.9187 17.2033
Pt 32.4885 32.3242 17.0992
Pt 31.2913 14.671 18.5057
Au 31.4687 34.6159 18.5573
Pt 30.8617 17.9006 15.0273
Au 31.0601 31.3183 14.8817
Pt 29.9415 15.5929 16.3194
Au 30.0794 33.6726 16.3067
Pt 28.5412 16.5859 14.1466
Pt 28.7861 32.7222 14.0722
Au 13.7477 20.1828 33.39
Au 13.9309 28.9417 32.8893
Pt 14.4473 18.2345 31.5338
Au 14.7424 31.1738 31.3781
Au 15.5484 16.0226 30.0133
Au 15.6388 33.4108 29.9415
Pt 16.5342 13.8211 28.5101
Au 16.6434 35.6367 28.4327
Au 16.3915 19.0965 34.2231
Au 16.0226 30.6016 33.8579
Au 18.5666 17.1134 34.6842
Au 16.9344 32.8087 32.3849
Au 17.8212 14.5308 30.9701
Au 17.9312 35.0371 30.8737
Pt 17.5711 18.1503 36.9917
Pt 18.2368 32.253 34.8087
Pt 19.5344 14.9922 33.1217
Au 19.2007 34.3818 33.2765
Pt 19.924 17.0905 37.6943
Pt 20.3264 33.8313 35.7529
Pt 14.1405 20.909 16.8688
Pt 14.2481 28.5019 16.8704
Pt 14.9059 18.5948 18.1856
Pt 15.0838 30.834 18.147
Pt 15.7479 16.3266 19.5259
Au 15.8884 33.1506 19.4843
Au 16.6163 14.0852 20.9264
Au 16.7853 35.4064 20.9399
Au 16.3927 19.5372 15.9333
Au 16.4803 29.9456 15.9462
Pt 17.1609 17.209 17.2709
Pt 17.3064 32.2848 17.2765
Pt 18.0527 14.8918 18.6057
Pt 18.1868 34.5413 18.6957
Au 18.6668 18.1089 15.0412
Au 18.784 31.354 15.0094
Pt 19.4481 15.7647 16.3223
Au 19.6153 33.6024 16.445
Pt 20.9279 16.6789 14.1581
Au 21.1447 32.6836 14.2022
Pt 40.6121 24.1074 14.9813
Pt 40.7253 23.6563 18.106
Pt 39.6601 23.4878 20.5774
Pt 39.976 23.4254 23.3361
Pt 41.3479 25.9104 25.8905
Pt 40.261 28.0639 27.3841
Pt 40.1838 27.4142 30.1846
Au 38.7027 25.5877 32.3345
Au 9.012 24.7524 14.975
Au 8.8418 24.7631 17.8416
Pt 8.66356 24.8031 20.5938
Pt 8.62322 24.8702 23.3523
Au 8.57822 24.8361 26.1349
Pt 8.55849 24.8693 29.0768
Au 8.3788 24.8696 31.8882
Au 11.849 23.7675 38.6134
Pt 14.9515 40.6788 24.3441
Au 17.746 40.919 24.4129
Pt 20.5073 40.996 24.5943
Au 23.3117 41.0119 24.6022
Au 26.1456 41.0206 24.6501
Pt 28.9434 41.1132 24.6307
Au 31.6626 41.0714 24.5293
Au 34.4563 40.9589 24.4444
Au 14.612 8.7491 24.5354
Pt 17.4477 8.5669 24.418
Au 20.134 8.32036 24.4498
Pt 22.9355 8.28766 24.4179
Au 25.7911 8.07363 24.3558
Pt 28.6593 7.97863 24.2695
Pt 31.4673 8.06523 24.2736
Au 34.2102 8.10995 24.1992
Au 24.9319 15.1349 38.6841
Pt 26.7153 16.8273 40.1556
Au 26.8783 14.9477 42.08
Pt 23.7116 22.9035 39.9631
Pt 22.9941 27.3406 41.4001
Au 24.9009 30.6334 42.8608
Au 27.4577 29.5836 42.3081
Pt 24.9303 31.8161 40.251
Pt 24.6824 15.0774 8.89952
Pt 24.755 17.8026 8.78882
Pt 24.7856 20.5525 8.62576
Au 24.8158 23.312 8.66749
Pt 24.8958 26.144 8.68692
Pt 24.9294 28.8714 8.71153
Pt 24.9189 31.67 8.80817
Pt 24.8737 34.4653 9.0362
Au 37.1959 23.1501 36.7467
Pt 32.8402 21.1629 37.0728
Au 34.9746 26.2687 40.0766
Pt 28.006 23.6131 37.9566
Au 33.5823 15.6879 36.2098
Pt 27.1648 16.3158 37.6173
Au 36.0386 29.3884 32.9843
Au 39.7791 27.346 35.0199
Pt 32.7518 23.6983 37.9255
Pt 31.7616 21.8804 39.6256
Pt 26.3313 23.3704 40.6581
Au 31.0515 17.797 40.1148
Pt 35.8861 24.9237 35.1222
Pt 34.7518 27.5586 37.6496
Au 33.0702 24.2997 40.6805
Pt 30.6271 24.4049 39.5169
Au 23.3959 19.0342 42.3931
Pt 34.0189 30.2313 36.715
Pt 32.3896 28.7763 38.3388
Au 30.3772 25.7016 41.8561
Au 28.388 21.2373 42.5394
Pt 31.6186 31.1067 37.2006
Pt 29.9261 29.8503 39.0049
Au 27.7465 26.7479 42.452
Pt 29.4977 30.7132 35.7503
Pt 27.8278 28.0666 39.9837
Au 26.9353 31.5353 36.0019
Pt 38.4789 22.9326 14.0635
Au 36.2318 21.7115 13.0626
Pt 33.9247 20.2498 12.0861
Pt 31.6747 19.0029 11.2424
Au 29.3157 17.6683 10.4761
Pt 27.0253 16.3092 9.67287
Au 38.8943 26.0829 14.2355
Au 36.4317 24.5959 13.1097
Pt 34.1392 23.1439 11.9585
Pt 31.8127 21.7481 11.101
Pt 29.4893 20.4739 10.3244
Au 27.0682 19.1418 9.51542
Pt 36.3934 27.4489 13.173
Au 34.1762 25.9882 12.1032
Au 31.9028 24.5769 11.1555
Au 29.5133 23.2796 10.3068
Au 27.1777 21.8951 9.44086
Au 34.127 28.9154 12.1649
Au 31.8329 27.439 11.2357
Pt 29.5165 26.1049 10.2668
Pt 27.2179 24.7479 9.44298
Pt 31.8785 30.2691 11.3414
Au 29.5813 28.9154 10.2504
Pt 27.2792 27.4806 9.37326
Au 29.5284 31.8084 10.4318
Au 27.2673 30.3496 9.42159
Pt 27.2341 33.1668 9.70201
Au 8.25487 21.4284 35.474
Au 10.2801 19.9831 36.6956
Au 13.3021 16.4051 36.6329
Au 15.1752 17.7059 38.3217
Au 21.8919 17.1463 41.0794
Pt 22.708 14.4146 40.2678
Pt 14.3769 23.3871 37.4473
Au 11.767 26.589 38.3078
Pt 14.7182 20.6617 38.0895
Au 16.6862 22.2422 39.1019
Au 19.0211 21.1129 40.2904
Pt 21.397 20.0997 41.0312
Pt 11.5099 29.0871 34.0894
Pt 14.2794 26.2484 37.0426
Au 16.4182 25.0616 38.5045
Pt 20.7859 25.6555 40.6723
Pt 21.0011 22.9207 40.9279
Pt 13.9546 28.1088 38.9308
Au 16.3807 27.8371 37.9598
Pt 18.5437 26.7148 39.359
Au 22.9626 26.2472 43.8159
Au 16.7026 31.9701 38.6781
Au 18.463 29.5287 38.8265
Au 20.7007 28.3502 40.2184
Pt 20.5376 31.1445 39.7219
Au 22.6308 29.0178 43.5235
Pt 22.4751 32.824 40.6832
Au 11.1242 23.3121 13.9092
Pt 13.379 21.9465 13.0383
Au 15.6036 20.5141 12.2295
Au 17.8466 19.1063 11.3131
Pt 20.1613 17.6862 10.4058
Pt 22.3736 16.3307 9.58343
Pt 11.2232 26.2015 14.0408
Au 13.3649 24.7109 12.9893
Pt 15.6338 23.3392 12.0835
Au 17.8974 21.9326 11.1952
Au 20.1131 20.5197 10.2682
Au 22.4226 19.1719 9.48633
Au 13.3368 27.5823 13.1039
Au 15.6542 26.1234 12.1068
Pt 17.9161 24.705 11.1768
Pt 20.1869 23.3777 10.264
Pt 22.4709 21.9284 9.47754
Au 15.701 28.994 12.1736
Au 17.9433 27.5352 11.1449
Au 20.2128 26.1102 10.2388
Pt 22.452 24.7537 9.39756
Au 17.9453 30.364 11.3166
Au 20.2259 28.98 10.2735
Pt 22.6118 27.4751 9.46659
Au 20.2921 31.8325 10.4237
Au 22.57 30.3464 9.45542
Pt 22.585 33.1248 9.66518
Au 35.6522 38.9099 22.9571
Au 38.7916 36.9162 19.8772
Pt 37.5467 34.4872 20.0908
Au 41.0303 32.508 19.9412
Pt 39.3163 29.9943 17.4797
Pt 40.7529 28.4012 16.19
Au 35.7654 38.863 25.8016
Au 37.8117 39.1474 21.3129
Pt 37.8244 34.6113 22.8923
Au 41.9089 30.0696 18.5374
Pt 40.4984 27.9568 21.7113
Pt 41.2326 25.6451 20.0904
Pt 36.7124 36.7943 27.2546
Pt 36.8526 36.7373 24.3265
Pt 38.8338 32.4968 24.3393
Pt 39.7974 30.3103 22.997
Au 41.4565 25.7608 23.0779
Au 37.6899 34.6146 28.7363
Au 37.8164 34.6188 25.8342
Au 41.1937 32.7571 22.9573
Au 42.9788 28.1826 23.0699
Pt 38.683 32.5531 30.2472
Pt 38.7718 32.4494 27.375
Au 39.7198 30.3088 25.8051
Pt 39.7224 30.811 31.8651
Au 39.6967 30.1063 29.1184
Pt 36.585 27.3536 31.426
Pt 13.961 38.6102 22.9376
Au 13.0526 36.3562 21.679
Au 12.1758 33.9772 20.3731
Au 11.2534 31.6823 18.9999
Pt 10.4119 29.3534 17.7013
Pt 9.78195 27.0958 16.382
Au 13.9117 38.5603 25.8533
Pt 12.933 36.3497 24.5236
Au 11.9472 34.0578 23.2008
Pt 11.0483 31.7076 21.8987
Au 10.2736 29.4316 20.5004
Pt 9.57799 27.125 19.1788
Pt 12.9061 36.3932 27.3341
Au 11.8823 34.1529 26.0047
Au 10.9238 31.8031 24.693
Pt 10.1134 29.4873 23.363
Pt 9.47881 27.1667 21.9566