2057
Atoms. Timestep: 20876
Au 9.08397 32.61 23.2821
Au 29.6074 13.7859 37.6879
Au 22.4157 15.6159 10.6451
Au 23.0002 11.6103 37.401
Au 14.8234 8.51228 18.467
Pt 26.3908 35.4681 38.2164
Au 17.0722 41.7132 28.9237
Au 28.0237 10.6434 32.7423
Au 24.613 22.4331 8.51998
Au 28.8221 27.2346 38.1603
Au 33.2418 30.1777 9.24012
Au 19.5379 38.977 29.8407
Au 34.4444 13.6142 11.2646
Au 7.81369 31.4604 25.4907
Au 25.0391 43.1484 22.6561
Au 30.1401 32.069 32.0808
Pt 24.0109 15.5705 25.3459
Au 18.4123 28.9433 43.1347
Au 8.1112 18.5115 26.2101
Pt 21.0465 14.3063 20.1306
Pt 40.0533 23.3314 31.4279
Au 8.09612 31.7972 28.2455
Au 6.75316 21.4679 19.4213
Au 11.0806 25.9568 37.1759
Au 14.0015 32.6591 22.0978
Au 17.4558 38.9557 22.3015
Au 16.8214 36.4306 21.3692
Au 27.1798 6.33548 24.7249
Au 12.1302 23.9689 14.489
Au 14.6653 20.8309 10.8236
Pt 32.48 32.6803 29.9309
Au 28.8082 34.7546 42.1224
Au 7.34445 25.5047 15.7039
Au 22.9716 22.7314 10.7945
Au 21.899 24.6609 30.8731
Au 34.489 36.1692 36.1739
Au 10.9611 29.0094 21.3856
Au 40.6238 33.6893 24.3683
Au 13.562 26.3683 18.5022
Au 13.2299 22.3149 20.8314
Pt 27.5255 33.57 22.6662
Au 15.1013 16.9694 11.3998
Au 21.1643 38.817 35.2479
Pt 35.5678 18.1898 37.6188
Au 31.8909 37.3622 36.17
Au 40.2843 19.2948 16.0631
Au 25.3329 43.2615 26.6784
Au 20.7269 14.2613 34.2959
Pt 16.4607 28.374 32.007
Au 26.952 6.05396 22.1066
Pt 28.5035 22.613 17.1363
Au 18.0681 33.5506 32.2439
Pt 22.4785 17.5102 8.72447
Pt 26.604 31.2845 40.6061
Au 9.63126 21.6405 10.5411
Pt 25.2023 28.6047 17.743
Au 40.9123 28.4708 13.9551
Au 27.0277 13.6085 38.4298
Au 35.2398 18.0269 24.0669
Pt 12.4239 22.007 31.6406
Au 39.6835 22.5332 13.5154
Au 9.4945 12.9959 21.2225
Au 40.7323 24.1825 25.4722
Au 8.56341 18.1675 13.7421
Pt 17.1021 20.0034 20.2208
Pt 34.6515 21.189 19.2148
Pt 25.2402 22.5043 13.0447
Au 13.7301 12.0384 27.2547
Au 30.5463 30.8739 9.26806
Au 9.1095 20.564 15.0016
Au 40.0634 23.3374 10.9517
Au 31.2031 9.63891 29.41
Au 11.1892 34.9572 29.2786
Au 17.5142 18.8855 41.6267
Au 22.9874 32.0024 11.5208
Au 33.7977 16.512 22.2701
Au 13.78 34.6005 28.2933
Au 33.2225 38.9945 19.1067
Au 35.8695 21.3627 9.6508
Au 21.3989 13.0393 10.1552
Au 31.6204 37.7864 14.5452
Pt 17.2289 30.914 25.3377
Pt 26.4832 13.1315 28.9575
Au 22.3455 32.8542 14.2444
Au 14.1446 39.1864 18.6072
Au 35.5565 32.1048 16.868
Au 14.3063 14.368 10.9708
Au 21.6973 40.31 15.9242
Au 19.4566 39.6025 14.4661
Au 42.7337 20.5086 27.8649
Pt 20.7219 36.0673 34.9067
Au 23.8898 25.1637 9.41379
Au 14.6032 20.9017 18.7675
Au 23.8601 6.9861 28.8399
Au 39.3435 26.3868 15.0474
Pt 34.7917 15.4516 15.1262
Pt 29.1887 15.347 25.1707
Au 22.8625 24.0466 6.90636
Au 10.7434 35.0771 17.0583
Au 10.8316 27.9169 28.1743
Au 21.0205 31.9936 7.85348
Au 20.891 31.6299 19.5149
Au 9.93859 22.9165 16.1904
Pt 17.0116 11.7594 19.1961
Au 39.6931 34.685 19.0256
Au 16.3701 22.76 8.69327
Pt 36.9763 22.1022 14.0105
Au 22.6228 43.2562 27.5757
Au 31.0914 37.3758 18.7675
Au 28.7028 8.91511 28.2416
Au 18.2057 31.1247 18.2152
Au 10.2305 32.4306 33.222
Au 38.2474 25.0946 37.4458
Pt 36.641 20.1658 11.9487
Au 17.1987 26.5372 41.4776
Au 34.0568 19.6637 39.6696
Pt 16.473 19.2499 15.0617
Au 15.5531 9.72288 23.7978
Au 17.2317 8.98073 19.986
Pt 34.2034 30.0839 18.3084
Au 11.7298 15.8403 25.3215
Au 23.8691 13.8406 29.6641
Au 20.7742 42.0911 25.9008
Au 24.4595 36.8186 31.2852
Au 27.5446 33.3773 11.3878
Au 25.8483 11.5418 37.1461
Au 25.5584 12.1874 11.4749
Au 21.8161 38.6919 18.0002
Au 19.6334 9.07532 16.3133
Au 20.7954 37.9337 12.6879
Pt 22.6837 22.7761 13.5838
Au 14.7065 35.3596 38.3346
Au 37.7722 19.1809 9.62986
Au 20.9968 24.6408 12.1643
Pt 21.3627 39.8062 24.4001
Pt 24.6532 17.8305 23.9407
Pt 30.5798 19.6334 20.4696
Pt 19.2417 32.7472 39.1467
Au 16.8932 38.3661 19.2567
Au 40.3681 16.3665 19.6349
Au 26.3972 11.7074 16.3671
Au 39.3715 34.4069 21.9662
Au 8.167 17.8761 29.123
Au 14.3829 32.6125 15.611
Au 25.9391 35.6728 10.6149
Au 21.3752 29.223 8.32617
Au 8.71114 24.2651 10.6296
Pt 11.3227 20.1974 16.8785
Au 28.8084 40.4468 16.9591
Pt 13.5077 27.3772 27.7104
Pt 35.4131 32.884 29.3046
Pt 29.4828 24.9752 32.7727
Au 31.087 8.51181 21.4449
Pt 18.7229 24.0587 18.8496
Au 17.3542 25.2612 7.58327
Pt 24.3326 21.5468 15.5705
Pt 36.1946 23.4212 36.7399
Au 38.2381 15.6868 29.6847
Au 41.8805 21.5508 32.1817
Pt 28.9961 30.8621 18.4248
Pt 16.5335 14.0668 17.9321
Au 28.3443 41.6773 19.3636
Au 20.0109 25.1063 6.5883
Pt 25.9691 14.2599 18.5612
Pt 18.8968 29.5966 36.9879
Pt 25.0406 30.3847 20.3472
Pt 38.1131 17.5384 27.6688
Au 7.81837 16.0596 27.2577
Au 16.672 14.3935 37.6693
Pt 21.9224 20.5604 12.2657
Au 8.3947 19.6698 31.3252
Au 34.3242 11.2825 18.1468
Au 34.9855 35.4043 28.0315
Pt 13.0386 32.2043 32.8647
Au 41.8168 32.2809 22.4736
Au 15.6479 12.2257 14.6072
Au 26.558 25.313 12.6887
Pt 39.152 18.7797 20.8134
Au 19.5645 15.1032 10.3581
Au 28.5313 36.0007 11.3592
Au 16.9367 28.6281 12.4446
Au 34.9656 35.1048 16.3558
Au 31.3986 33.7588 41.6499
Au 29.1352 34.2288 13.4653
Au 36.6954 33.0987 12.4396
Pt 32.6986 30.2331 28.7216
Pt 23.7591 24.0596 28.7105
Pt 20.0268 27.4616 23.8378
Pt 33.7559 30.5495 22.3348
Pt 32.6152 18.0526 8.62607
Au 14.9671 8.38124 21.3593
Au 14.9894 19.0809 40.382
Pt 13.0679 26.2486 25.3768
Au 30.8109 40.4095 19.2548
Pt 21.4264 23.0168 19.1063
Pt 13.1362 16.6676 27.4884
Pt 31.0462 26.4305 31.03
Au 16.5122 21.3216 41.3722
Pt 17.1613 32.4793 27.6523
Pt 16.8844 25.8448 38.7959
Pt 18.2591 37.1556 27.7395
Pt 33.1849 32.3991 18.5699
Pt 19.4049 17.4963 35.2045
Pt 24.9163 13.2376 24.1209
Au 34.5974 39.0241 24.4308
Pt 24.145 36.2358 23.7197
Pt 23.5255 40.8356 23.1439
Pt 33.5842 35.0236 30.4601
Pt 39.8922 33.0507 29.2577
Au 9.71205 15.6604 20.0094
Au 14.5666 18.2838 20.9003
Au 24.6819 39.6297 30.7195
Au 8.20408 15.9699 17.7591
Au 37.8482 18.4199 36.1727
Au 26.8711 8.99479 25.356
Au 26.4094 30.9605 17.5519
Au 25.72 40.7161 33.1938
Au 18.1892 41.0606 19.67
Pt 17.4508 26.5011 23.728
Au 31.2243 20.1628 7.18073
Au 29.4583 24.4998 7.36091
Au 24.4626 39.3684 16.3162
Au 20.6249 38.1862 32.5606
Au 27.0949 43.0023 24.439
Au 14.4149 35.6885 25.7696
Pt 35.2581 17.9192 12.1149
Au 16.3909 41.7363 24.8881
Au 36.6242 13.9885 27.7848
Au 29.2728 38.5491 35.8529
Au 19.8947 37.1 37.3589
Au 17.4052 35.1946 34.6116
Au 37.9556 24.7518 13.1692
Pt 29.086 22.7871 34.3802
Au 29.0373 37.17 13.7647
Au 16.4441 40.1109 33.2255
Au 23.3125 30.6031 17.9842
Pt 15.9418 21.4176 24.646
Au 37.3472 29.8419 11.9704
Au 34.5329 33.0879 14.3508
Pt 28.8778 14.3385 29.3169
Au 9.80249 22.7452 13.2036
Au 17.2294 36.0462 39.3404
Pt 19.4665 19.2073 21.0201
Au 20.2452 42.6105 20.656
Au 35.5469 13.1933 13.8551
Au 11.8499 31.4195 20.0765
Au 22.446 29.4534 10.8436
Au 15.5973 23.2695 11.8064
Au 8.31877 27.6658 14.1395
Au 14.7086 26.9302 40.2092
Au 30.7946 35.4556 15.8654
Au 17.481 34.9001 9.26452
Au 39.5664 33.377 16.4082
Au 15.4608 40.4559 27.1504
Au 19.8514 36.6077 17.9773
Pt 32.7007 17.7443 11.2419
Au 10.8248 25.0816 12.1749
Au 33.4427 36.8229 26.0326
Pt 27.245 23.9448 36.2922
Au 42.2541 29.9479 18.1298
Au 31.7566 15.4878 8.53576
Au 22.3382 13.1524 32.0645
Pt 27.4814 13.9643 23.3465
Au 29.049 18.9985 38.6504
Pt 30.513 29.388 33.0784
Au 18.6164 34.2915 16.5756
Pt 10.8444 26.9396 19.4557
Au 18.3286 10.0063 24.4086
Au 24.3831 27.5314 11.1415
Au 23.0484 31.732 31.7461
Au 18.0568 17.1451 11.552
Au 10.3302 17.0576 12.1223
Au 41.4905 22.2036 23.4855
Au 23.3725 28.1181 15.8143
Au 14.9676 27.3671 14.0943
Pt 27.8633 20.8521 32.766
Au 20.2032 22.2537 10.7131
Au 18.5695 12.6668 10.9428
Pt 29.6221 34.8655 27.2097
Pt 39.7836 31.3698 25.7216
Pt 22.6314 20.3138 32.6303
Au 26.5403 13.6325 26.2386
Pt 15.0489 22.8695 35.3287
Au 19.2151 20.6004 5.85025
Au 26.3693 21.5385 41.2208
Pt 23.8516 13.4358 26.9055
Au 23.1931 34.1291 41.9202
Pt 21.959 21.3244 24.9815
Pt 33.7109 23.1628 33.5013
Au 36.2272 17.8491 21.3715
Au 9.54468 32.7607 30.5907
Pt 29.2312 28.2266 23.3074
Pt 33.5715 32.6571 27.4362
Au 10.445 30.1699 17.5673
Au 10.2392 10.4057 18.8367
Au 13.9151 29.8568 21.4706
Au 17.4597 30.6398 10.4704
Pt 23.2916 24.4363 26.0564
Pt 40.5146 16.7703 28.4616
Pt 11.2865 21.2724 24.7636
Pt 27.7193 34.6222 33.8542
Pt 26.6219 27.1668 24.0363
Pt 21.0879 18.58 16.6164
Pt 31.109 23.3528 39.7785
Pt 38.9204 21.9039 24.7728
Pt 26.0513 31.4748 35.736
Au 31.9111 26.0694 7.45999
Pt 26.3108 26.3087 42.5109
Au 43.355 29.9918 22.6046
Pt 18.4006 34.7469 37.1426
Pt 31.2966 26.9431 37.0144
Au 15.4331 36.474 29.5662
Au 12.1466 20.9555 9.67615
Pt 17.3754 30.7253 38.9918
Pt 37.0565 29.2508 29.4118
Pt 25.7759 34.9412 29.3098
Au 36.645 16.8173 34.1261
Au 22.2268 38.5318 30.2389
Pt 21.1752 16.6666 26.0638
Pt 29.6705 26.7833 28.3553
Au 11.9073 32.6501 17.5656
Au 22.2463 25.5414 14.7614
Au 6.63923 20.8866 16.5242
Pt 38.6694 19.1172 18.2069
Pt 24.9663 15.5397 11.9188
Au 23.3157 13.4135 12.1364
Au 34.2249 13.1429 35.3692
Pt 23.2274 9.08103 24.8065
Pt 15.8763 13.4639 23.4411
Pt 19.1277 20.3389 8.64362
Au 42.5465 24.4319 31.5136
Au 12.9734 25.9084 9.46823
Au 28.2265 12.3298 11.0547
Au 35.2294 11.4248 20.9427
Pt 27.6086 14.6045 20.7163
Au 21.8706 30.3034 15.349
Pt 34.5327 27.0037 39.6746
Au 13.1186 29.9576 28.6502
Au 22.5987 11.0369 13.3572
Au 20.4278 33.1132 41.6793
Pt 12.6024 16.2216 13.1493
Pt 18.2189 28.1868 39.1885
Au 37.899 17.4327 38.7059
Pt 24.2325 28.2477 22.2851
Pt 27.4349 41.3241 26.7004
Pt 36.8434 27.8819 22.3092
Au 16.8176 38.9094 29.5497
Au 28.7398 19.7125 41.7034
Au 42.8436 32.6032 29.1488
Au 27.1722 9.06478 15.6105
Pt 27.9075 28.4538 17.179
Au 18.9511 39.2994 17.16
Au 11.8523 30.7233 11.1001
Pt 32.7883 13.5493 13.598
Au 20.1924 11.5738 33.8415
Au 34.0417 34.0548 11.9288
Au 14.8249 25.0614 20.5718
Au 12.4665 37.2705 17.6017
Au 26.5155 19.0521 39.8365
Pt 16.0842 27.3027 21.4929
Au 18.9724 30.2212 15.6044
Au 24.4735 31.5295 15.5569
Au 9.71392 14.3592 26.6947
Au 15.6888 31.9007 40.9889
Pt 28.5971 12.5453 14.9487
Au 17.6051 22.6472 39.3834
Pt 15.28 30.1217 33.6069
Pt 15.3933 30.5007 27.1665
Au 12.9737 11.3578 15.2159
Pt 16.5299 19.2492 17.7224
Au 20.9767 16.8955 6.53406
Au 25.3911 28.8539 45.5548
Au 28.4292 38.2009 22.8845
Pt 31.5193 15.2935 23.3934
Pt 21.9687 21.3262 39.1804
Au 32.8999 17.452 40.9558
Au 7.56093 21.9805 22.049
Au 26.651 7.0411 17.4074
Pt 28.1697 37.4384 27.3396
Pt 34.1471 26.3651 12.9308
Au 21.3545 34.8774 16.167
Au 19.6485 8.67244 30.6822
Au 19.5621 28.471 13.4629
Au 20.6382 13.0377 12.7338
Au 25.2885 37.1218 14.7248
Pt 16.8749 18.8548 35.9805
Pt 15.0971 25.449 31.3839
Au 15.8479 13.9472 33.3318
Pt 40.9127 29.571 23.8538
Au 26.9767 10.4238 30.1438
Au 23.3656 43.1228 24.8408
Pt 28.8342 34.4948 38.6004
Au 40.287 16.5918 31.352
Au 27.1269 10.1055 35.2043
Pt 35.4113 24.4098 14.1519
Pt 37.77 19.5066 33.6803
Au 19.5891 32.9262 14.2942
Au 24.7306 7.03087 26.1323
Pt 8.97042 22.7144 24.5594
Pt 32.299 20.2486 14.9032
Au 10.2564 28.8891 9.84136
Pt 17.3339 23.8358 32.0864
Pt 41.0639 30.0914 20.9591
Pt 12.1751 18.4646 29.2374
Au 27.8799 35.5161 15.6434
Au 28.8691 29.2435 7.79991
Au 32.9781 36.9543 20.9036
Au 30.1831 17.5396 7.61971
Pt 21.9082 27.2314 31.8295
Pt 26.0866 38.9524 26.5235
Pt 22.7653 36.7955 36.4602
Au 38.1906 30.9751 16.3279
Au 20.9608 39.4446 27.3498
Pt 24.556 32.831 39.7088
Au 25.7927 8.92238 27.9059
Pt 30.7364 15.9297 30.1499
Au 15.8714 32.7182 9.68626
Pt 28.4408 27.6491 30.4598
Pt 25.69 34.4196 24.5317
Pt 27.781 24.5671 15.0563
Pt 12.6153 22.6959 34.2844
Au 12.8894 37.1347 27.5526
Pt 12.6936 27.2954 35.3647
Pt 29.8743 18.407 17.8624
Au 31.393 41.3312 21.7527
Au 33.0784 37.1622 16.7636
Pt 23.1532 34.5346 35.2479
Au 35.3605 19.274 32.277
Au 28.8 16.1235 38.923
Pt 19.4395 14.8659 25.0564
Au 19.8067 10.6184 28.509
Pt 24.3847 26.6848 40.3181
Pt 37.6565 26.5539 35.0635
Pt 11.1433 22.7509 26.9189
Au 15.6664 29.8592 8.59885
Pt 33.8348 15.797 12.7259
Au 12.8659 36.7541 30.383
Pt 26.8006 29.2643 22.2927
Au 25.2293 40.988 28.2563
Pt 38.8426 26.919 26.0855
Pt 24.0303 16.4294 30.7751
Au 19.8646 7.58725 21.6592
Pt 39.1963 31.3892 22.9777
Pt 37.5626 23.3819 32.2547
Pt 28.5494 17.2735 29.4992
Pt 20.1266 16.4574 15.2345
Pt 8.54016 26.0953 20.3203
Pt 23.7555 17.7271 26.7122
Pt 20.118 19.2634 32.9231
Au 23.7652 25.0081 12.2626
Au 22.926 28.0534 45.4416
Au 43.5434 21.0989 25.2582
Au 19.5341 38.7379 19.8728
Au 42.4696 31.4266 25.0117
Pt 25.5827 27.4763 33.6199
Pt 21.5059 36.6164 24.1826
Au 36.8666 12.7576 19.1812
Pt 17.8708 30.6161 32.29
Au 17.844 38.159 32.1697
Au 28.5098 24.0228 10.2011
Au 10.6509 28.8413 15.0444
Pt 11.0983 15.1963 22.3599
Au 8.80334 27.6942 16.9013
Pt 29.0158 22.411 26.2898
Au 23.7093 35.3786 19.2246
Pt 33.4397 33.5645 37.0258
Pt 31.6797 26.1495 16.3842
Pt 33.8312 28.4557 11.2129
Au 13.0523 32.2346 26.9299
Au 26.5235 26.2245 9.96962
Au 38.5887 14.659 17.7725
Au 14.5277 36.287 19.3049
Pt 16.3875 19.0875 25.9708
Au 37.9053 22.58 38.6328
Pt 37.5508 17.1367 16.7906
Au 26.7975 28.3003 12.1416
Pt 17.5438 28.2796 25.6196
Au 22.0413 11.5202 26.9827
Pt 26.7779 19.8354 20.62
Pt 31.8344 17.2081 19.1916
Au 18.254 31.205 41.4997
Au 37.8247 15.0829 32.3809
Pt 23.0406 13.8003 22.2388
Pt 31.1022 24.5864 29.0627
Pt 29.781 12.3819 19.7538
Pt 20.6272 29.7049 17.6906
Au 19.7331 7.89718 18.8639
Pt 10.4156 25.794 31.616
Pt 39.8175 32.278 20.4349
Au 9.36341 25.1891 17.8831
Pt 27.3028 11.5845 24.6548
Pt 23.4249 21.2996 30.0566
Pt 27.1287 20.481 25.8896
Au 22.0302 32.3821 43.805
Au 36.9635 19.7074 39.8091
Au 15.6145 12.5643 30.8399
Au 8.10327 19.6494 11.5037
Au 26.1312 18.0442 11.8479
Au 35.2801 16.647 31.2899
Pt 22.6558 31.4856 41.1307
Au 33.4296 24.5977 40.6825
Pt 34.2196 26.8754 15.5636
Pt 30.1836 33.5732 22.7538
Au 36.6579 31.336 35.5549
Pt 18.4354 31.8225 29.9905
Au 24.8747 7.05448 32.1189
Pt 40.4101 19.3033 27.6937
Au 8.23293 15.4191 22.3295
Pt 33.1846 28.1519 30.7252
Pt 18.401 25.8307 16.8656
Au 36.2296 26.5023 9.04429
Au 18.3154 23.7652 12.8075
Au 14.4276 20.8959 8.04138
Pt 34.4271 13.7961 21.8669
Pt 26.4145 40.8599 22.3948
Au 27.8127 22.1686 6.8687
Pt 30.6682 21.3049 22.7309
Pt 18.8886 26.9989 21.4972
Au 33.984 27.8223 8.09145
Au 26.1936 31.3973 45.0247
Pt 32.399 32.6204 23.9832
Au 10.5088 10.3481 21.4816
Pt 31.6509 13.4368 18.204
Au 20.5526 10.6243 38.056
Au 8.56547 30.3356 31.6506
Au 35.1015 11.817 23.8314
Au 22.2015 27.7133 18.2911
Pt 26.7828 32.6608 38.1229
Pt 18.1677 29.2479 22.9744
Pt 19.3813 19.0943 25.4666
Au 15.8817 34.5839 23.4109
Pt 19.1014 26.5223 11.6454
Au 14.9258 38.2872 31.7051
Pt 20.4754 28.1295 35.2357
Au 39.0518 17.1742 14.5636
Au 11.5631 15.7816 32.5846
Pt 31.0856 17.4538 34.3127
Au 29.0055 26.8348 20.6275
Pt 30.2419 24.225 21.199
Au 40.9203 23.246 20.6912
Pt 30.0401 19.8336 33.7007
Pt 30.7041 34.7012 36.7252
Au 29.4537 40.4113 31.0021
Au 28.9445 43.4094 26.3863
Pt 25.5962 12.9664 21.4182
Au 23.4885 40.9042 18.5022
Au 22.3414 17.1089 42.5598
Au 26.7046 24.3008 8.07081
Pt 27.4787 24.1055 21.5303
Au 24.7762 25.9604 7.00715
Pt 15.1508 21.6045 28.4257
Au 9.35277 29.7651 26.7956
Pt 29.5757 15.1614 35.0156
Au 27.8744 42.9673 21.7559
Pt 23.7168 38.6646 27.8932
Au 19.7945 17.6311 9.07941
Au 42.7307 27.1586 17.8306
Au 27.2165 21.5102 9.59337
Au 19.9008 27.8917 6.40742
Pt 40.796 23.8611 28.9923
Pt 21.9514 36.9993 26.675
Au 16.4537 15.8208 6.82225
Pt 22.3826 16.2263 23.4117
Pt 25.7594 16.5783 19.8757
Au 18.113 30.9797 13.0772
Pt 32.7445 21.2189 21.0963
Pt 10.4061 17.3094 27.4
Pt 30.965 25.8901 19.0181
Au 17.1146 35.7774 18.4249
Pt 26.571 26.5294 28.7887
Au 31.1155 38.7577 33.7768
Au 33.4771 9.54016 20.0848
Au 14.8195 23.3581 14.39
Pt 36.1252 26.4804 29.9717
Pt 25.1845 35.4922 33.7089
Pt 14.7268 28.4358 25.6961
Pt 14.9487 33.9258 33.7747
Au 23.265 32.6332 20.4063
Au 8.12165 27.1327 27.3108
Pt 14.9339 18.276 34.2084
Pt 18.2697 28.3358 17.7757
Au 27.1438 27.0298 35.9936
Pt 25.7138 31.7709 22.8069
Pt 13.4646 20.2384 33.3044
Pt 23.8985 8.93618 19.5321
Pt 21.5757 20.834 15.1495
Au 14.6057 27.6651 11.1311
Au 37.5367 35.1772 17.3672
Pt 41.435 20.2629 21.5568
Au 40.1873 16.8563 17.0682
Pt 38.6489 24.6486 27.614
Pt 21.0094 22.6662 22.6691
Au 19.6837 15.0806 36.7934
Pt 27.5923 39.8266 28.8603
Pt 36.16 34.9036 31.0312
Pt 14.8348 22.8701 32.6808
Au 26.4827 36.07 19.508
Pt 31.1326 17.3581 21.6843
Au 14.8137 9.23851 15.7244
Au 7.79025 29.2474 29.1029
Pt 23.5205 16.0712 18.2899
Pt 33.5997 25.8248 18.3961
Au 11.0203 29.0715 36.568
Pt 31.4884 14.0738 25.7753
Au 28.2775 23.5128 41.3748
Pt 31.143 36.247 30.0131
Au 35.5068 33.9951 18.8288
Au 18.2389 42.5197 26.6211
Pt 16.849 26.1451 33.3436
Pt 27.845 12.9074 35.7945
Pt 26.1606 19.0269 9.35156
Au 15.0155 40.1618 23.179
Au 29.5295 41.772 28.5667
Au 27.8147 36.5573 40.2205
Pt 31.3695 28.1268 21.5933
Au 15.4112 40.7966 30.825
Au 19.3508 17.6281 39.7779
Au 41.0504 26.2056 27.5996
Pt 18.0386 32.1418 36.7846
Pt 33.7115 15.0358 27.065
Au 11.5608 14.2199 11.7887
Au 27.1599 38.7264 31.4259
Pt 23.8747 26.5135 27.6367
Au 42.7238 23.1245 27.0174
Au 25.2805 32.4472 12.9342
Au 13.8121 23.2171 9.60886
Pt 21.33 22.782 28.8125
Au 35.7855 35.3568 13.633
Au 31.5953 8.93376 26.8265
Au 30.4279 22.0743 42.1634
Pt 11.4712 27.1333 16.9106
Au 13.028 19.651 38.2731
Pt 28.9145 13.7031 17.4913
Pt 25.3224 30.5309 38.2063
Au 10.2815 20.7889 33.5638
Au 7.25579 30.6342 23.009
Pt 27.2725 18.7566 31.3558
Pt 35.9857 23.9372 28.7527
Pt 23.8143 24.9234 38.1474
Pt 36.029 21.6665 33.2771
Pt 19.4809 38.0484 25.4228
Au 13.6618 33.3343 11.0283
Pt 20.671 16.2508 18.147
Pt 25.8329 17.7871 29.2565
Pt 26.7609 17.5313 22.1642
Pt 27.6163 37.2873 34.0103
Au 19.9046 41.679 28.7832
Pt 20.4039 24.6506 21.0628
Au 17.3333 34.7328 13.6325
Pt 22.2958 13.3884 14.8615
Pt 16.5006 35.0334 27.4525
Pt 36.3124 27.2612 11.6618
Pt 21.676 15.5353 30.7044
Au 38.9429 31.7479 13.8267
Pt 15.9124 16.8547 27.365
Pt 16.4769 11.3166 21.8724
Pt 25.8983 20.7964 17.5026
Au 23.9838 28.2432 8.57097
Pt 22.6841 23.069 33.0464
Pt 23.1675 18.4579 29.1624
Pt 34.793 35.0281 21.0966
Au 41.582 33.3338 26.937
Pt 23.2053 23.079 21.0624
Pt 18.3672 15.2372 19.8312
Au 26.7647 7.50245 30.0719
Pt 29.3566 10.5737 26.2191
Au 12.2433 36.671 24.5659
Pt 29.227 17.354 36.4899
Pt 16.2834 13.9914 20.8184
Pt 23.9148 27.5738 42.8552
Pt 17.9241 33.7468 25.1574
Pt 22.8557 11.5093 23.8989
Pt 22.8483 38.3545 22.6164
Au 41.8682 27.6292 22.1845
Au 18.3168 15.4626 33.5307
Au 22.1784 6.91102 23.2937
Pt 24.4363 39.8495 20.8601
Au 7.08511 20.6954 24.5984
Pt 31.0938 30.791 22.6265
Pt 26.9401 18.448 18.1714
Pt 33.2047 16.2856 29.3111
Au 11.8262 20.4148 35.7267
Au 25.6387 35.0113 17.1267
Au 23.4192 31.1036 8.86817
Au 18.4649 16.3948 41.9651
Au 14.9624 21.4107 39.0243
Pt 28.6593 17.6352 20.2117
Pt 31.5369 29.5719 11.612
Pt 16.0835 23.5483 26.9435
Pt 27.9572 23.0189 12.8708
Pt 18.982 21.9197 24.7535
Au 29.0427 21.5236 39.6692
Pt 28.3125 25.9324 40.5333
Au 21.7287 26.8343 10.3648
Au 19.8042 35.6771 13.9609
Au 27.2193 26.9398 7.22998
Au 26.6208 39.4137 35.552
Pt 13.2744 16.4753 15.8035
Au 23.5807 23.3642 44.8211
Pt 9.2451 20.8566 26.4265
Pt 38.0062 24.439 25.0559
Au 26.305 40.1814 18.3219
Au 38.1633 36.7271 27.1445
Au 12.4686 22.4671 12.0047
Au 12.2974 26.7272 14.2195
Au 28.3648 24.8871 43.7352
Au 41.7507 16.4705 24.0807
Pt 20.7314 29.87 22.4735
Pt 20.9851 11.9793 21.9822
Au 19.6694 7.47786 24.3743
Au 22.5172 20.7138 17.8326
Au 35.5937 32.1675 38.0209
Pt 35.2117 31.6834 20.3639
Pt 39.0826 26.4072 23.4441
Au 36.0834 15.3115 38.556
Pt 25.2991 10.5499 23.2789
Au 24.4464 38.1197 18.7745
Pt 18.6214 16.6612 26.9613
Au 12.8343 22.3606 37.3756
Au 16.6456 36.7273 36.7755
Au 32.4599 19.2269 23.271
Au 11.4893 22.1871 18.6417
Au 19.1418 21.2818 42.7292
Pt 34.82 30.4738 30.3373
Au 39.0571 27.8508 36.9679
Au 8.93273 27.0159 11.5488
Au 37.8817 35.2921 33.5224
Au 17.1261 9.40302 17.2669
Au 15.0076 13.4208 35.7431
Au 26.3211 7.63066 20.0488
Au 18.1653 40.9275 31.2381
Au 16.631 33.4297 38.8875
Au 23.873 24.9601 42.6645
Pt 35.0116 22.9679 21.2336
Pt 17.0097 21.6037 13.8087
Pt 24.1537 18.56 36.0137
Au 19.4336 20.3301 40.0933
Pt 18.603 12.7642 26.7513
Au 24.8131 9.69994 14.3151
Pt 23.9281 21.0205 34.9265
Pt 31.1051 30.6173 14.439
Au 13.5428 34.7916 17.2015
Pt 10.9664 15.2623 17.5469
Au 42.928 22.3845 29.7867
Pt 21.6485 27.2004 21.5718
Pt 27.3277 15.4908 36.6061
Au 26.1723 17.5969 7.04577
Au 42.9442 29.9282 29.8976
Pt 34.604 36.4992 23.4935
Pt 28.9808 25.9533 16.9605
Pt 29.3438 31.8437 37.9141
Pt 13.1984 24.6925 36.2101
Pt 20.3702 23.4253 14.6798
Pt 17.361 26.3667 30.4877
Pt 24.3507 20.8744 20.0101
Au 14.7969 38.3102 21.1271
Pt 17.8094 19.6515 23.3274
Pt 21.8942 18.5411 40.3299
Au 13.899 30.0043 40.0713
Pt 23.5635 17.8304 33.456
Au 25.2537 21.3138 44.2712
Pt 10.5344 16.3206 15.0911
Au 37.2373 33.6181 15.1208
Pt 28.6276 24.3074 19.0952
Au 24.7686 35.781 40.4001
Au 29.7368 27.1203 6.35405
Au 16.0202 12.1165 11.818
Pt 23.6654 38.5384 25.1684
Pt 14.1699 19.1852 27.5459
Pt 18.3559 15.6579 17.1382
Au 31.2351 24.7888 9.74509
Pt 30.0406 28.1527 40.4474
Pt 39.1595 21.2155 22.205
Pt 32.4045 23.4536 22.3758
Pt 31.023 25.9424 39.4726
Au 35.6152 17.3688 40.3084
Pt 22.0809 26.3317 36.5019
Pt 25.0006 29.5126 24.4279
Pt 25.9816 19.1295 34.0026
Au 16.2067 20.7423 33.8774
Pt 28.7024 38.7726 19.0416
Au 6.60952 18.3372 15.674
Pt 16.3234 21.4535 30.9432
Pt 32.2257 27.2276 28.2492
Au 22.5008 36.0054 13.817
Pt 32.3451 24.7178 14.292
Pt 38.6215 16.5851 22.0429
Pt 25.4825 36.8563 35.9596
Pt 23.4517 29.2861 26.6514
Pt 24.8047 11.0198 25.873
Au 29.7365 10.9251 12.6406
Pt 35.1606 24.0828 31.429
Pt 27.9963 11.7225 22.0028
Pt 25.8767 10.2823 20.771
Au 33.5096 39.4703 21.8922
Au 12.9642 28.8607 9.28982
Pt 30.9281 19.3196 12.5133
Pt 27.5545 19.7503 28.4577
Au 33.9596 29.1837 41.3316
Au 31.3485 19.8508 40.7591
Au 5.7375 28.4845 22.8046
Au 39.8771 28.1237 34.2318
Pt 26.9331 23.0007 38.8494
Pt 29.4586 22.6548 31.5171
Au 13.5935 35.5946 21.8979
Pt 26.5121 17.9948 37.1898
Pt 20.0767 26.7403 29.9018
Pt 19.4795 35.7547 32.7184
Au 23.0724 12.3325 34.6644
Pt 37.4802 21.2782 35.6354
Au 43.2696 27.8687 27.9343
Pt 25.7997 31.1915 31.8849
Au 14.0984 39.0176 29.108
Pt 22.0269 15.6279 13.3146
Pt 27.8764 15.9767 18.2232
Pt 26.852 33.9665 40.4413
Au 30.3225 28.4663 18.6527
Au 8.03207 22.1441 32.8727
Pt 18.4977 21.3197 32.4811
Au 16.4029 40.3271 17.5814
Pt 28.2044 34.176 20.2744
Pt 27.0215 23.3113 32.1525
Au 11.5164 18.2384 33.812
Pt 25.3584 40.9923 24.9581
Pt 27.1199 28.1815 40.9534
Pt 28.2137 19.9195 16.2117
Au 23.1227 8.06423 33.9313
Au 20.8188 15.562 41.0508
Pt 30.9363 30.7137 40.2017
Pt 28.6972 21.8043 21.0997
Au 9.65977 18.3221 19.204
Pt 37.8522 27.8504 19.7624
Pt 27.1576 11.1927 27.409
Au 22.2452 10.359 29.7689
Pt 23.278 30.8474 22.5999
Au 34.1062 11.3109 12.5741
Pt 20.621 12.4908 36.2852
Au 35.726 37.9848 26.8239
Au 34.7864 22.1785 7.21528
Pt 25.5747 16.5725 34.9848
Au 18.7134 10.5278 35.8778
Au 32.667 35.7866 38.3811
Au 26.7573 37.647 17.2387
Au 37.0216 19.7226 16.069
Au 43.4656 25.7509 26.1536
Pt 24.4827 18.5397 21.3018
Au 23.8432 25.6066 17.3189
Au 6.95181 22.6138 26.5916
Pt 35.7698 16.4435 28.5949
Pt 34.0464 17.26 33.7224
Pt 27.81 24.3102 25.0097
Pt 25.1447 15.4623 22.3953
Au 17.5566 24.6753 21.4222
Au 33.1789 35.5612 14.296
Pt 35.4044 26.1416 20.434
Pt 40.6358 27.9437 19.4674
Pt 32.3203 19.8629 18.5717
Pt 26.9034 36.1275 22.4007
Au 37.0756 27.3097 38.7875
Au 29.8866 37.0949 38.0835
Pt 22.9026 36.9116 33.7182
Pt 16.9335 21.5638 36.8446
Au 29.4322 37.8115 16.4534
Pt 31.9392 14.9227 11.1799
Au 19.1835 40.171 33.6398
Pt 21.7824 18.1819 31.2777
Au 37.1845 33.1472 21.2043
Pt 41.0361 20.2241 25.3099
Au 31.1078 10.0242 19.0964
Au 14.3772 20.7068 13.5971
Au 16.3455 11.8348 25.5452
Au 31.8593 12.2276 11.3337
Au 34.4026 24.9917 7.5649
Pt 28.5082 31.2 23.1752
Pt 24.8929 20.7873 10.9633
Pt 33.0728 24.1327 11.943
Au 24.5475 37.7443 38.3673
Pt 38.0736 24.1844 15.9193
Au 22.647 33.7342 9.46374
Pt 24.7811 25.8537 35.825
Au 9.94887 25.5899 15.0464
Pt 14.4833 16.8791 25.1755
Pt 25.4897 22.4967 25.0042
Au 38.8542 14.212 20.4931
Au 9.7237 15.4534 29.1988
Pt 20.3923 20.2301 23.1609
Au 18.3374 32.4403 8.49139
Au 17.0778 32.2896 15.3728
Au 7.30962 23.3771 17.5598
Pt 26.4201 26.6356 21.4931
Au 13.1055 25.0481 38.9399
Au 12.2487 34.1613 34.5282
Au 18.9939 35.9548 11.3065
Au 10.016 20.6552 20.5976
Au 29.816 31.5941 12.0445
Au 26.5611 28.8165 9.13801
Au 32.7433 32.8897 21.126
Pt 22.0221 37.411 20.2682
Pt 32.6812 25.7048 21.0099
Pt 26.7596 38.6347 20.7289
Au 35.0338 33.2285 23.0685
Pt 30.9557 13.3764 15.5649
Pt 19.2997 16.8139 31.3867
Pt 29.7387 37.4384 25.1598
Pt 23.087 27.6605 34.4062
Pt 18.8106 40.478 24.6644
Pt 36.7472 26.143 32.5247
Pt 31.1919 18.3712 29.0966
Au 40.3762 19.2269 32.3837
Au 9.1986 18.2563 16.4809
Au 35.8484 22.4761 16.3825
Au 7.43708 22.8571 14.7837
Au 30.2434 33.9351 10.8278
Pt 23.3616 36.1088 28.8477
Pt 17.921 11.9039 16.3862
Pt 19.1535 19.5774 11.2504
Pt 40.4948 21.0431 29.8237
Au 12.4535 28.9691 18.9127
Au 16.3891 29.1272 41.1456
Pt 23.6937 29.0559 31.3962
Au 41.3727 26.8616 24.8151
Pt 35.5851 26.0823 36.7974
Au 15.3305 23.8046 37.8901
Pt 15.8945 16.477 32.3146
Pt 35.0035 20.2544 22.3814
Pt 24.5497 14.8711 14.4286
Pt 22.1024 21.6599 36.6707
Pt 27.6771 33.0922 28.3834
Pt 32.6292 35.0005 22.7617
Pt 35.6085 24.7125 34.3279
Au 42.4284 25.8287 20.2251
Au 12.0383 14.1671 28.0437
Au 35.9116 14.1717 30.4944
Pt 30.8655 38.586 21.353
Pt 24.1549 22.923 18.3204
Au 14.5593 15.9712 8.72499
Pt 37.6599 25.398 18.8573
Au 20.9197 22.5766 5.80466
Au 8.01605 24.9628 13.1096
Pt 32.5394 12.138 20.4687
Au 14.0841 34.29 31.0885
Pt 31.548 22.8188 27.3216
Au 20.6595 41.1577 18.3867
Au 26.742 37.7905 12.4731
Pt 30.0812 26.0855 14.2691
Au 27.4392 30.8135 12.9891
Au 18.1512 9.80145 32.9353
Au 12.8009 17.2482 22.9528
Pt 17.768 28.6502 34.4438
Au 21.2112 7.95238 28.6118
Pt 27.1541 28.8641 19.663
Au 25.9968 37.5996 29.034
Pt 33.1421 15.5724 17.491
Pt 25.1209 28.8099 36.0306
Au 33.669 10.3608 28.051
Au 25.6297 33.0941 19.1935
Pt 30.3586 17.1023 10.2956
Au 37.4023 35.8126 20.0747
Pt 33.0316 14.4302 31.0339
Pt 40.0666 21.9855 27.2235
Au 40.8058 23.8529 15.7423
Au 27.38 7.94246 32.7578
Pt 38.1967 20.6729 31.3154
Pt 28.4878 18.9705 10.7674
Pt 38.0788 23.8637 34.8044
Pt 15.641 28.7928 38.4748
Au 19.6864 23.4048 44.3796
Pt 16.434 28.1075 28.0113
Pt 11.404 19.6453 31.4023
Pt 21.1819 23.9718 38.1127
Pt 20.867 25.0464 17.167
Au 18.0526 37.6922 13.1432
Pt 19.0479 18.6227 13.7916
Au 29.2649 27.3942 42.8874
Pt 24.7536 32.7678 33.9005
Au 16.2379 29.855 16.7053
Pt 27.4683 29.6027 25.1467
Au 34.1542 15.9349 9.78939
Au 43.4712 28.6321 25.0461
Pt 27.0692 13.8603 13.1293
Pt 17.4734 17.0785 29.5538
Pt 32.6893 24.1103 25.0021
Au 36.9279 13.581 25.0598
Pt 17.094 16.7931 14.0777
Pt 40.0368 18.6023 23.4123
Au 20.9478 33.8905 12.0075
Pt 14.1209 23.2877 30.0886
Au 23.784 15.8207 7.0539
Pt 15.7799 33.7242 36.3736
Pt 33.6077 13.3393 16.274
Au 20.5241 9.34081 26.142
Au 27.5801 17.1675 41.3966
Pt 27.7035 32.087 33.565
Pt 18.5948 19.2799 30.7314
Au 26.0766 16.0471 39.3587
Pt 30.322 24.1224 12.2908
Pt 24.7345 36.3877 26.5469
Au 32.7593 41.0622 24.0416
Pt 12.3287 19.6311 19.4658
Au 22.9511 39.6738 33.111
Pt 34.0242 27.5938 22.3695
Pt 29.4937 37.4704 32.0073
Au 33.6829 22.6314 38.3902
Pt 32.3065 33.6792 32.4939
Au 43.4299 30.5247 27.2901
Au 15.8921 35.0176 15.9
Pt 14.6229 26.6657 37.3168
Pt 37.0617 30.5701 31.7504
Pt 18.4461 18.0985 16.4048
Au 30.6083 33.4307 18.1986
Pt 30.2404 36.213 22.8028
Au 6.54471 23.6413 24.002
Au 32.6021 11.7682 30.3651
Au 36.3274 31.1045 14.1893
Au 35.8158 37.7455 21.453
Au 40.2758 35.5101 28.3432
Au 38.8614 15.1261 26.7379
Pt 15.858 27.0063 16.982
Pt 21.0655 32.5652 22.0353
Pt 24.3739 22.443 39.4172
Au 41.7706 26.471 33.1056
Pt 19.5158 15.1191 29.0853
Au 11.2026 23.6918 9.76368
Au 7.82656 15.9627 15.1184
Pt 23.2095 9.16759 27.3852
Au 19.7792 35.3098 39.6421
Au 13.152 27.1634 21.1924
Au 21.5734 9.91559 35.5844
Au 28.6582 9.74895 20.2647
Au 12.2571 32.3876 30.1641
Pt 38.8054 29.4 27.3385
Pt 34.5319 25.0126 22.9452
Au 6.20129 27.531 20.3311
Pt 30.5155 29.3338 27.6444
Au 31.5184 28.9456 7.35064
Au 40.9063 15.0841 21.9848
Pt 27.0477 35.1133 26.862
Pt 11.746 18.5117 14.5646
Pt 19.8991 23.5992 32.9549
Au 18.614 31.3375 21.0777
Pt 30.0379 20.476 27.7389
Pt 23.3858 8.95484 22.0957
Pt 11.7171 17.7218 17.4507
Au 16.8858 20.7006 6.96225
Pt 11.6225 19.6737 26.9095
Au 35.6371 22.0753 40.1625
Au 13.0253 33.5545 37.0771
Au 29.104 8.81531 30.9121
Au 32.8885 35.1185 18.5621
Pt 29.4709 28.1936 35.4577
Au 31.903 11.0509 16.7557
Pt 31.979 29.169 35.5518
Au 33.6547 16.656 38.4762
Pt 27.6012 33.2214 31.0496
Au 12.602 27.9412 38.5921
Au 10.4312 11.3147 16.2949
Pt 24.4127 31.9368 25.1449
Pt 22.533 23.2305 16.328
Pt 30.5673 20.9294 16.7456
Au 8.09408 31.2667 18.3694
Pt 22.0032 18.4522 21.9369
Au 17.1189 19.6287 38.8283
Au 6.60499 24.1869 20.3164
Au 18.2782 18.1731 6.88216
Au 15.6253 40.7065 20.3172
Au 13.5265 36.2204 33.04
Pt 24.2813 13.705 16.7468
Pt 33.6736 21.4022 31.5439
Pt 31.0837 15.2285 32.807
Au 24.902 31.9713 42.54
Au 36.6839 16.7334 9.96936
Au 29.0584 28.9671 10.5504
Pt 34.1111 22.1317 23.8492
Au 15.6073 24.2131 40.5832
Au 14.2616 15.6233 37.0026
Pt 28.3244 33.2237 36.0391
Au 31.0113 41.7089 26.1306
Au 33.3436 14.0687 37.7621
Pt 37.6914 33.2547 24.1347
Au 20.9639 27.9539 43.6613
Au 43.5307 23.6982 21.5505
Pt 33.7423 24.2669 16.439
Au 38.8385 35.6716 30.7587
Pt 33.6428 22.9051 29.2898
Pt 31.6446 26.6122 12.0339
Au 13.8602 19.5133 16.107
Au 17.4834 10.3909 30.2534
Pt 30.6618 11.0963 22.0018
Au 20.8728 37.6593 15.5762
Pt 26.9069 37.0568 24.9411
Pt 17.6559 21.699 18.072
Pt 24.5901 37.003 21.2373
Pt 23.728 18.9495 16.0166
Pt 24.5174 11.3432 28.5165
Pt 18.3617 12.6225 23.5588
Au 14.0598 31.0115 17.9594
Au 8.9584 20.8851 17.9526
Au 9.88848 29.3496 12.4931
Au 16.5275 11.6616 37.0316
Au 11.2586 33.7015 21.7172
Pt 30.8682 19.6827 9.83323
Pt 33.1079 28.0476 19.6809
Au 19.5173 36.0189 20.6656
Pt 26.1053 26.5409 16.2523
Au 13.4615 12.6894 12.9207
Pt 33.1369 26.3587 35.2286
Pt 37.171 30.9503 25.5711
Au 13.7499 15.8091 34.2299
Au 20.4925 27.6034 15.9662
Au 9.52327 32.593 16.372
Pt 25.1158 23.5964 34.1693
Pt 21.2751 12.9818 29.4066
Au 21.7615 43.2177 30.1724
Pt 22.0033 18.9922 37.7047
Au 11.3936 31.6999 35.5907
Pt 29.8899 32.632 25.2121
Au 22.6144 40.9821 29.1198
Pt 16.2946 25.2184 35.7898
Pt 28.8924 40.4003 21.5868
Au 9.04417 16.247 24.8016
Au 41.253 35.8695 22.7793
Pt 29.2607 11.6331 29.3368
Pt 26.0606 23.6358 43.2309
Au 13.7555 18.5802 9.3294