2057
Atoms. Timestep: 20763
Au 20.0187 24.8539 22.445
Au 12.3856 23.6339 16.3494
Au 13.5541 30.3825 17.2567
Au 13.1375 12.5701 30.937
Au 14.8043 10.5071 24.1761
Pt 22.0825 31.4253 30.9722
Au 19.8448 41.4263 29.2245
Au 23.8893 16.8202 42.2408
Au 7.71509 27.777 30.0735
Au 23.5149 36.8351 40.5615
Au 38.762 22.2879 12.0071
Au 11.6293 18.4088 31.0253
Au 31.2001 17.3349 7.50729
Au 12.9765 21.8728 18.5192
Au 30.1808 30.2323 12.02
Au 28.6923 37.2485 35.9226
Pt 26.4219 26.7568 15.7479
Au 32.6425 30.7086 37.0793
Au 9.91871 13.5746 27.3405
Pt 13.1733 17.8884 16.132
Pt 34.5301 25.6375 18.1427
Au 16.3289 34.4142 30.7745
Au 7.91455 30.604 30.2873
Au 18.475 15.6419 34.2096
Au 16.0911 35.066 35.5107
Au 9.31811 29.0384 21.0493
Au 20.8096 27.41 15.4614
Au 22.7382 6.26129 27.6528
Au 32.87 39.8491 27.1335
Au 6.11213 25.3721 29.9426
Pt 18.0008 23.8194 21.1381
Au 17.9127 24.2973 42.2899
Au 33.2043 18.9196 8.68266
Au 5.40477 24.0708 17.2783
Au 11.042 33.6268 15.8217
Au 13.5447 24.1278 38.973
Au 6.76614 26.3583 32.4271
Au 28.3779 39.9501 34.3561
Au 23.0587 18.7486 7.15556
Au 15.2642 20.0088 39.6854
Pt 32.2655 33.4979 17.545
Au 15.7971 8.64823 28.4107
Au 27.3278 43.9566 22.1948
Pt 29.1502 35.1741 14.2811
Au 21.4682 35.0549 36.7803
Au 39.2469 27.8467 16.4121
Au 34.9961 32.2524 37.903
Au 20.2706 21.0292 26.3234
Pt 31.1957 28.5336 35.3391
Au 41.8074 18.5523 24.1832
Pt 30.7464 37.381 22.5042
Au 26.3695 42.1166 31.4683
Pt 31.1625 14.3339 22.4504
Pt 17.3163 24.725 39.5883
Au 18.3979 32.4751 31.2796
Pt 18.5844 16.1672 24.272
Au 27.7943 14.0501 10.1367
Au 37.3128 11.6349 21.9237
Au 41.0046 31.419 28.7167
Pt 29.5867 21.9805 37.6499
Au 30.6571 17.6173 38.2254
Au 18.0775 36.1312 10.9074
Au 37.0493 37.7423 18.8301
Au 25.5848 27.8729 7.17566
Pt 10.909 16.3442 23.9281
Pt 28.3186 25.3794 17.0325
Pt 21.8925 14.1194 22.3181
Au 15.2421 15.9239 22.049
Au 27.1296 11.1231 13.5386
Au 14.3962 37.9881 14.37
Au 15.4849 26.049 19.4069
Au 33.0743 8.94577 25.5677
Au 28.6324 34.2508 9.24851
Au 11.5176 17.6425 33.6533
Au 27.4959 38.924 22.113
Au 41.8762 19.8861 21.4457
Au 15.8411 27.2738 36.7114
Au 18.5472 31.7392 21.8055
Au 35.081 18.7581 16.3555
Au 15.4462 23.1113 20.0233
Au 23.2589 41.2937 21.5998
Pt 31.8493 32.7985 21.9073
Pt 33.5988 14.025 29.1677
Au 24.9845 11.2772 19.125
Au 23.3572 36.9339 21.1884
Au 30.0297 22.5142 8.72723
Au 10.7548 25.4846 17.8659
Au 24.5005 30.6172 13.7486
Au 17.0222 37.3799 21.6281
Au 16.3575 19.9226 33.2505
Pt 24.0207 21.4733 41.1137
Au 12.2612 34.8994 25.1594
Au 11.6532 22.9979 10.9191
Au 23.0515 6.50581 35.9996
Au 34.89 29.4832 38.4326
Pt 26.3821 16.7076 14.7495
Pt 23.0355 12.1442 32.2907
Au 13.8088 18.3029 9.39439
Au 19.1481 25.4471 16.6897
Au 16.2033 11.6294 26.2229
Au 27.9819 31.9671 10.8035
Au 20.7504 22.3554 10.0567
Au 19.3152 24.9565 5.85054
Pt 21.641 19.8509 34.1774
Au 32.3749 31.1509 13.6917
Au 8.53347 33.2835 30.3605
Pt 36.4753 31.1116 28.8791
Au 26.5821 33.7955 41.0292
Au 23.2235 41.4048 24.4414
Au 41.2513 24.0319 31.8494
Au 26.1682 33.0466 7.6743
Au 30.5379 25.2851 8.64298
Au 37.7509 34.9864 35.5362
Pt 33.9926 26.002 12.7196
Au 10.8896 32.3136 33.7624
Au 42.8524 29.2492 19.2356
Pt 15.196 32.6551 17.9199
Au 22.2811 10.2704 14.914
Au 14.3244 30.9494 19.971
Pt 37.1902 23.1387 29.5745
Au 7.97765 25.102 17.4698
Au 24.0115 5.63325 23.2357
Au 15.5769 39.0867 32.26
Au 31.5878 41.7309 20.3542
Au 27.799 43.1 26.9619
Au 30.4756 6.18951 30.2079
Au 12.4824 32.8763 18.2888
Au 5.31441 27.8948 26.142
Au 18.6613 24.7613 8.65114
Au 14.5794 36.2242 25.7951
Pt 26.7132 24.9446 24.7494
Au 16.3558 37.7571 27.1293
Au 36.1142 18.2281 11.2253
Au 18.6945 20.5347 10.8168
Pt 30.3009 38.9805 26.6938
Pt 21.0558 22.382 34.3103
Pt 15.9802 20.7318 24.1573
Pt 20.5444 19.8542 31.419
Au 25.3877 30.5897 6.6868
Au 43.1861 23.0409 26.8647
Au 21.263 25.5741 7.86338
Au 19.9415 19.311 42.4059
Au 13.4801 22.3165 13.0898
Au 19.598 36.4209 21.0212
Au 14.9186 32.0142 10.4278
Au 34.7133 25.7494 10.1618
Au 13.7168 31.3063 37.1075
Pt 31.9437 23.6175 10.2627
Au 35.572 27.702 8.23938
Pt 11.7598 29.2187 25.222
Pt 39.7406 27.7043 29.6146
Pt 23.8128 16.3189 37.8021
Au 37.9976 19.6672 12.7394
Pt 10.0064 24.4065 26.9771
Au 23.1102 23.9873 9.21129
Pt 22.6407 17.9602 28.5455
Pt 30.9106 21.9584 25.3383
Au 41.0654 33.133 21.319
Au 41.6857 26.0175 33.6107
Pt 30.528 11.74 21.5966
Pt 19.429 30.0561 26.2354
Au 16.368 28.3672 7.06673
Au 17.4052 23.1086 10.4892
Pt 29.5738 12.971 27.1396
Pt 13.727 28.7457 35.5315
Pt 30.6464 24.5671 26.3488
Pt 37.0772 16.0222 30.8252
Au 5.82707 20.5429 21.7902
Au 21.2711 17.4152 33.0114
Pt 20.2852 18.3638 25.337
Au 23.3857 13.0869 39.9997
Au 26.8043 9.39891 18.507
Au 23.5876 41.2372 31.8847
Pt 30.5837 31.8963 33.2264
Au 34.0526 16.7123 10.0583
Au 18.3771 17.7474 18.4133
Au 17.8712 10.3517 32.1441
Pt 24.0598 14.4772 12.8287
Au 33.9582 11.4045 27.9989
Au 16.9686 34.6072 18.6019
Au 21.6736 6.67398 22.0299
Au 29.7124 43.7112 20.712
Au 32.2317 29.4541 39.5922
Au 25.4331 44.4568 26.5196
Au 35.0709 32.4566 13.125
Pt 35.1171 28.9428 29.3855
Pt 34.9898 21.4346 15.0732
Pt 17.8061 27.2824 26.3461
Pt 27.9369 37.6739 26.0809
Pt 23.1195 20.3936 29.7187
Au 15.0736 10.5221 21.409
Au 13.5702 36.0688 35.146
Pt 15.5683 16.9647 19.4334
Au 14.3643 34.561 11.4743
Pt 32.1758 38.0034 20.3006
Pt 16.1931 18.1664 31.12
Pt 34.4034 32.5371 27.7856
Au 11.173 13.2658 20.9248
Pt 25.0064 27.3547 17.9144
Pt 36.801 29.7434 16.9918
Pt 26.5816 24.4167 28.2069
Pt 33.3771 18.6546 11.8129
Pt 31.6831 31.6532 30.7792
Pt 25.8948 20.8503 21.1137
Au 41.7443 26.4217 27.9689
Pt 6.79345 25.3297 22.475
Pt 28.8322 36.3617 21.0034
Pt 22.8808 29.1718 35.964
Pt 29.2877 33.1458 30.6984
Au 21.954 12.6815 13.3452
Au 20.1406 34.1321 14.3019
Au 28.5789 10.2633 37.0588
Au 18.3278 41.9187 21.8747
Au 9.65284 32.888 18.2157
Au 21.9227 21.9626 12.7124
Au 32.2327 11.769 11.9301
Au 21.7411 31.989 18.5881
Au 28.8674 39.1666 17.4979
Pt 20.2822 28.01 38.6631
Au 20.1282 10.8201 16.4031
Au 34.1354 38.5156 18.401
Au 10.3995 25.3161 11.2805
Au 18.0075 39.1974 35.9027
Au 19.7087 33.1206 40.5396
Au 21.01 29.611 17.2861
Pt 26.3851 13.6912 18.9013
Au 28.9256 41.3188 21.5783
Au 29.9006 15.7117 11.6293
Au 20.5368 43.9644 24.3101
Au 17.4463 36.9421 37.3262
Au 17.6908 16.305 26.8807
Au 39.2744 22.0012 38.2665
Pt 32.9571 22.3499 33.3149
Au 41.4513 31.5905 19.0623
Au 20.7615 28.566 43.4533
Au 25.0626 39.1174 30.4051
Pt 41.462 21.3596 28.1449
Au 14.1483 35.3813 18.1969
Au 25.3452 43.1937 24.0282
Pt 24.4488 19.2091 34.6781
Au 18.59 29.5691 8.38814
Au 41.0952 26.3762 12.4983
Pt 22.5625 35.573 32.755
Au 16.9867 33.7017 10.8587
Au 31.6289 6.87087 27.3737
Au 20.2338 22.8488 15.2796
Au 30.3707 27.9456 7.69259
Au 21.9024 9.39447 20.7329
Au 20.5868 41.1091 20.2605
Au 23.6544 39.8067 34.4692
Au 22.4393 43.0278 19.6444
Au 27.2656 43.0049 19.712
Au 33.4854 37.7752 34.1674
Au 28.1262 35.6453 17.0194
Au 19.3763 32.559 12.0983
Pt 26.0731 20.7505 18.44
Au 20.7664 18.5334 5.74405
Au 28.2908 42.1104 24.1014
Pt 26.741 25.8858 35.8017
Au 33.3664 29.515 7.93548
Au 15.7204 18.1029 7.59989
Au 33.142 31.0365 11.0483
Pt 36.8272 16.5466 17.1202
Au 19.4934 35.1887 38.8303
Pt 36.2955 32.0048 15.6926
Au 30.6541 32.1692 10.1338
Pt 19.5282 23.3392 27.4738
Au 28.2643 7.60698 17.3793
Au 37.5098 15.1424 26.5
Au 11.4023 38.2528 28.8618
Au 11.7716 14.1573 14.0358
Au 14.4399 30.0803 12.6889
Au 26.8454 6.52469 32.713
Au 7.15866 30.3279 25.3784
Au 24.4967 5.19448 25.9467
Pt 25.0981 24.1589 36.7848
Au 18.4277 41.051 16.5041
Au 11.6045 16.9451 13.8689
Pt 26.4881 34.9252 14.9864
Pt 36.7685 26.6728 16.9992
Pt 26.0666 23.9782 40.68
Au 16.9602 15.5343 31.8932
Pt 23.6734 14.0988 30.4638
Au 13.957 18.9749 34.3384
Au 15.826 13.4385 30.6124
Pt 15.7266 24.6923 37.3321
Au 8.93345 27.0047 34.0058
Pt 7.99281 20.719 23.716
Pt 29.3998 20.4255 27.018
Au 41.1908 26.136 15.1109
Au 19.4755 17.8777 10.6788
Pt 34.9542 36.6121 23.8285
Pt 39.1014 30.7638 18.0595
Au 13.9595 20.3398 7.46337
Au 6.93791 29.4155 22.7954
Au 11.637 29.7288 12.5684
Au 15.0526 16.0103 10.2699
Pt 17.5486 32.2599 26.3063
Pt 23.697 15.6143 23.6929
Pt 18.8218 28.5678 28.5216
Pt 25.8513 39.9609 32.9316
Pt 26.3073 38.1205 34.6944
Pt 31.4043 27.9916 20.3719
Pt 38.0421 28.5264 18.9281
Pt 37.785 17.4909 32.8515
Pt 26.8025 29.237 39.9159
Au 21.1542 30.8636 8.51162
Pt 36.1639 15.3995 33.6997
Au 21.9379 34.6869 20.884
Pt 24.9866 29.9433 37.6287
Pt 29.0758 23.9468 28.7016
Au 20.2397 41.2435 32.0351
Au 11.015 30.993 16.6441
Pt 10.0644 29.4656 29.1985
Pt 37.3775 23.1812 14.2757
Pt 31.9201 33.2279 24.5554
Au 25.7367 25.7449 42.9444
Au 9.55759 37.041 27.4356
Pt 13.1228 27.2601 32.366
Pt 34.094 20.4232 38.6231
Au 5.09168 27.4827 23.1062
Au 22.7436 38.7485 16.6739
Au 12.3891 20.6285 9.67307
Pt 13.3826 17.8538 20.77
Pt 14.8075 29.4536 29.0429
Au 38.8814 30.6194 15.319
Au 25.86 9.95276 36.5045
Pt 29.1439 25.6577 24.1782
Pt 14.5838 36.4564 21.02
Pt 20.3709 11.1267 31.9599
Au 31.3753 22.4791 40.0009
Au 25.9027 37.9034 24.381
Au 28.3728 11.5893 11.1527
Au 31.1274 17.9232 10.0664
Pt 29.7545 18.2328 34.1058
Au 27.4313 22.1529 10.4292
Pt 32.588 15.9863 31.0952
Au 25.0436 14.3649 9.94478
Au 15.8996 20.7161 9.32207
Au 21.8667 26.3113 23.9249
Pt 13.0767 24.2058 34.7065
Pt 28.9216 32.0969 37.5533
Au 32.9348 7.42846 29.8211
Pt 11.9633 20.0508 20.2975
Pt 28.1653 34.235 35.9409
Pt 37.7505 22.5114 16.725
Au 7.96703 33.2739 25.3975
Au 39.6662 17.0369 35.5687
Au 23.5486 12.3575 11.1979
Au 12.9548 11.7988 22.6411
Pt 30.2556 28.0793 22.8524
Au 26.6443 35.7673 8.23647
Au 21.9339 39.3565 36.9194
Pt 19.7143 15.5699 21.779
Au 18.252 19.8188 40.3614
Au 32.0631 34.4617 9.79788
Au 27.1778 37.5494 19.0942
Au 16.2512 37.319 19.0019
Au 15.2225 14.7476 26.9556
Pt 34.7761 28.2554 17.6142
Au 12.0003 37.6193 26.1652
Au 12.6702 32.1781 11.8573
Au 25.4949 22.2696 8.54384
Au 5.35081 25.3051 24.8446
Pt 22.1866 13.5576 25.4057
Au 31.2576 13.9049 13.3015
Pt 9.03932 18.178 24.3644
Pt 17.0717 27.0812 9.2062
Au 20.2643 33.9246 17.066
Pt 19.876 21.9854 21.7964
Au 18.076 19.1086 8.48507
Au 9.65057 14.2421 22.8276
Au 14.2362 38.5064 17.0983
Pt 28.8406 34.6248 25.5105
Pt 18.0837 19.1489 26.5111
Au 38.1861 25.8925 36.4461
Au 25.1288 39.0201 20.5913
Au 19.6072 7.89075 20.5786
Pt 32.0287 38.7508 24.7445
Pt 41.0183 25.5133 17.7048
Au 22.8997 41.4488 17.259
Au 32.5673 25.002 40.1388
Au 22.4046 14.8475 10.5423
Au 19.8139 17.0667 7.73135
Au 20.7571 41.4159 23.0224
Pt 26.9039 27.7751 25.0361
Pt 22.6569 34.2709 26.2219
Au 22.2783 32.0453 40.842
Pt 30.6903 12.9801 24.592
Au 28.9212 12.5218 38.9357
Au 8.66933 15.4348 25.1695
Pt 24.722 15.9329 18.4175
Au 25.1938 20.4692 43.39
Au 33.8903 27.2806 39.6603
Pt 38.896 19.3147 34.5751
Pt 30.071 37.6231 30.3826
Au 20.4038 39.6334 17.8125
Au 37.5442 15.1757 36.2097
Pt 14.5417 20.6352 20.642
Pt 32.3781 18.1779 16.4513
Au 18.7017 38.8445 19.8168
Pt 8.8781 22.0005 28.0576
Pt 36.3186 27.279 12.2291
Pt 21.0964 30.2887 28.4536
Au 17.9352 38.3662 17.0312
Au 30.7019 33.3958 7.72011
Au 40.1744 23.9434 13.7227
Au 31.1188 14.7827 19.5772
Pt 22.8125 20.6023 38.9572
Pt 31.943 26.3378 10.9747
Pt 22.3044 28.858 31.9833
Au 24.0894 34.7416 8.01018
Au 35.4215 16.3201 37.6116
Pt 24.4642 10.3397 34.0714
Au 26.5799 16.5104 41.5244
Pt 27.1114 23.056 30.5192
Au 29.5116 37.6603 15.3395
Pt 27.2683 25.5345 31.6353
Pt 25.0411 25.0615 30.3016
Pt 25.6179 31.6781 22.7815
Pt 13.3262 28.9521 21.5785
Au 27.1899 5.69974 27.2799
Pt 18.5959 23.459 34.565
Pt 22.2636 12.2017 20.2466
Au 26.6106 37.7503 16.306
Au 26.072 36.5101 21.7711
Pt 26.2888 26.8357 40.5081
Au 27.3039 34.097 12.5659
Au 36.0416 26.9405 37.9382
Pt 19.7444 15.4218 31.87
Au 26.2493 8.98559 23.7915
Pt 25.963 40.5071 24.2918
Pt 39.1593 26.2843 27.1352
Pt 21.1347 18.0259 17.4188
Au 31.5696 28.947 9.95221
Pt 35.6076 13.3343 20.5013
Au 14.8731 36.549 37.4407
Pt 9.19972 19.8889 26.378
Au 30.8579 33.4572 35.8891
Pt 24.5376 36.4361 26.6753
Pt 29.8396 17.2333 19.146
Au 17.3881 13.3094 28.275
Pt 35.4957 32.0176 25.1999
Pt 26.6664 26.9521 29.2106
Pt 32.2571 25.6275 19.4303
Pt 19.5167 27.9762 24.259
Pt 8.2561 25.0946 24.8068
Pt 37.7242 19.4635 26.8962
Pt 39.6036 19.5006 19.8248
Au 38.7611 14.156 29.1762
Au 25.705 28.8321 42.5333
Au 42.8038 22.5109 21.2252
Au 25.2016 39.6706 17.6095
Au 34.3182 28.4523 10.4456
Pt 20.1846 17.1942 27.595
Pt 22.3798 26.7846 34.0118
Au 39.0674 27.7745 11.4626
Pt 14.6205 22.5105 22.8465
Au 18.352 42.4869 24.476
Au 20.6782 25.022 10.7771
Au 15.8691 36.5373 16.3467
Pt 23.4787 20.4059 19.85
Au 5.31809 22.1563 19.1811
Pt 33.1152 14.1876 24.4915
Au 21.5909 33.5256 7.69348
Pt 18.7311 22.6265 40.0644
Pt 30.0443 26.7264 18.4888
Pt 31.7716 28.8033 15.0593
Au 21.8719 24.4446 5.14443
Au 23.2446 28.8099 6.04921
Au 39.7587 13.7702 26.495
Au 15.9252 39.5928 12.8527
Pt 24.8564 20.4957 27.464
Au 35.6294 15.3029 24.3739
Pt 30.7998 13.1596 16.0326
Au 23.6706 26.7745 8.95654
Pt 37.7638 20.2585 29.4663
Au 14.3571 22.682 10.4728
Pt 24.1948 27.8834 24.8347
Pt 28.2726 12.6366 15.4813
Au 10.6337 31.0955 31.2617
Au 33.0221 17.9375 39.7228
Pt 28.0271 8.2664 30.6969
Pt 22.4987 23.7577 30.0195
Pt 13.9368 19.0526 18.4984
Pt 22.7178 12.6629 15.9789
Au 16.4586 40.6275 23.8301
Pt 22.3536 31.0005 33.9209
Pt 31.0783 19.5445 20.563
Au 24.2484 36.5525 15.4774
Pt 26.8899 17.3727 21.6593
Pt 12.448 36.3338 30.4218
Pt 24.2042 26.7668 35.9886
Au 36.7668 11.0011 32.5426
Au 34.5918 12.3497 15.9582
Au 14.0572 10.0992 26.9626
Au 17.8101 24.1787 14.3482
Au 29.9393 10.4942 16.1076
Au 7.82165 22.2386 20.7709
Pt 28.2379 36.6518 23.6079
Au 42.0647 17.8769 26.9809
Pt 35.2155 35.9104 19.314
Pt 35.148 13.3748 26.3936
Au 29.4716 15.1324 37.8425
Pt 16.9062 21.2513 21.7817
Au 31.0059 11.4669 37.4294
Pt 38.7743 30.1789 29.7372
Au 11.6043 30.1623 19.5658
Pt 31.1221 34.3527 32.1774
Pt 35.3524 26.8958 22.5174
Au 17.4222 16.3709 8.86853
Au 24.7559 20.7651 6.43653
Au 14.7829 33.7998 20.3891
Pt 26.8532 12.3398 37.3583
Pt 24.8239 34.1794 22.6051
Au 13.3404 29.7992 10.2041
Pt 34.4891 23.216 10.8652
Pt 11.303 21.5012 26.943
Au 15.2302 10.5679 18.6923
Au 19.7104 17.9995 35.1769
Pt 29.5806 32.3081 23.4719
Au 13.1162 12.369 25.7286
Pt 35.6115 21.1467 17.6961
Au 12.4977 20.9759 35.6396
Au 13.9432 10.2401 29.7627
Au 42.556 19.3317 32.0203
Au 34.4809 33.3564 10.6049
Pt 17.754 22.0002 25.8801
Pt 30.3416 22.0307 16.5839
Pt 29.96 23.6455 14.2591
Au 17.6503 40.5128 30.7268
Pt 12.2884 28.291 27.7281
Au 9.28393 18.9293 32.4469
Pt 22.5967 17.3926 35.5071
Au 28.4377 7.74342 20.2724
Au 39.5317 29.4093 35.6554
Pt 32.8482 11.8583 22.7279
Au 24.5158 11.86 14.0009
Pt 32.8631 31.2649 26.1193
Au 34.6822 20.4842 10.3272
Pt 34.5603 27.2265 31.4608
Pt 29.6591 24.4571 31.3856
Au 26.1395 43.7937 29.0925
Au 16.5904 21.8654 41.497
Pt 33.041 28.4448 23.6149
Au 16.5515 33.9266 15.8548
Au 13.0998 21.192 38.3858
Au 23.8469 39.1782 25.8325
Pt 30.4183 36.7399 25.2264
Au 22.0818 32.4464 13.178
Pt 15.6561 20.0989 29.2969
Au 11.0825 35.2246 17.9718
Pt 34.0901 16.1731 17.0261
Au 40.0088 31.0925 33.3735
Pt 27.3918 21.7459 28.0823
Au 27.2058 31.2805 13.5287
Au 32.3443 27.3146 17.169
Au 14.0847 24.9 14.6086
Au 19.5445 13.032 21.0095
Pt 37.4323 31.8757 31.3281
Pt 28.838 28.3394 20.3236
Au 11.4709 24.403 13.5763
Pt 26.3278 29.7046 29.9999
Pt 27.5469 23.5987 12.7808
Au 10.8618 35.8845 22.7247
Pt 22.9517 11.299 26.9687
Pt 18.7219 20.5364 23.7802
Pt 30.6845 19.5147 17.9201
Au 21.2474 38.781 21.5352
Pt 15.6763 31.7561 30.6773
Au 31.2884 32.1236 38.8959
Au 26.2716 13.1348 40.0319
Au 7.7295 17.4997 19.4808
Pt 38.7033 19.9019 32.0438
Pt 24.3708 28.5411 33.8211
Pt 11.7596 26.3646 15.3556
Pt 13.8189 30.3476 26.7255
Au 9.78221 31.2273 24.9991
Au 9.69534 29.7576 33.9928
Pt 27.2313 27.2154 33.5997
Pt 20.1016 24.906 30.4225
Au 28.5572 20.157 39.4827
Pt 28.2787 26.1437 26.9495
Pt 5.5014 23.1699 21.6814
Pt 28.0902 15.8568 23.8236
Pt 36.0581 21.742 27.6465
Au 19.8509 36.8854 13.2528
Au 42.3375 28.9253 28.8125
Pt 29.8119 25.2129 12.0365
Au 33.3225 14.0768 11.0459
Pt 31.0496 35.2194 29.6457
Pt 9.25936 29.1364 26.715
Au 14.6215 29.5723 31.8699
Pt 15.9067 32.734 22.6069
Pt 38.5795 32.8164 28.6806
Pt 18.12 25.5378 36.5387
Au 21.8596 36.9586 26.1037
Pt 36.4981 26.6793 19.9829
Au 10.4749 23.0344 19.5297
Au 17.923 33.7884 28.6178
Pt 31.6498 16.795 21.402
Pt 28.6188 20.099 12.5592
Au 15.9018 13.9497 15.511
Pt 21.5961 11.0033 34.2728
Au 30.4137 39.7853 32.2443
Pt 34.2744 27.6205 14.8064
Au 13.6798 33.9359 29.9685
Au 16.1586 16.0612 29.2876
Pt 27.4786 11.1563 34.6241
Pt 35.2964 29.9587 26.8069
Pt 35.541 22.5414 33.7749
Au 23.7103 38.9774 23.0434
Au 35.8937 10.6583 26.1146
Au 23.5694 27.5337 43.9386
Pt 32.5282 22.7472 15.0091
Au 31.1535 36.3586 36.6584
Au 11.9556 11.7836 28.3042
Au 38.9284 15.1632 33.772
Pt 17.1297 26.4089 34.2155
Pt 34.2297 25.3467 29.6902
Au 14.1727 25.0619 7.16933
Au 26.2416 35.139 24.8711
Pt 25.9964 17.8159 38.8723
Au 31.6986 36.0006 13.7779
Au 38.3309 33.372 33.3826
Au 23.0226 33.8277 15.8135
Pt 23.1707 31.8608 36.5039
Au 20.437 7.43899 28.3565
Au 16.8464 8.96621 22.945
Au 43.0163 19.4519 29.0834
Pt 30.3388 29.3997 17.9352
Au 8.47022 17.387 27.1694
Pt 30.1872 8.81667 26.1074
Pt 25.0271 26.2778 22.7908
Au 19.2125 7.59245 23.3449
Au 22.8899 43.77 25.707
Pt 25.3055 35.0182 32.0793
Pt 22.405 33.6604 23.5533
Pt 37.9491 26.5306 23.1169
Pt 29.9886 32.261 26.1857
Pt 10.2383 21.3166 21.8756
Au 8.07042 31.8649 22.9917
Pt 28.8006 11.0404 25.2503
Pt 22.2067 14.8842 32.7592
Pt 28.9157 29.2959 34.08
Pt 21.6183 23.2658 39.1351
Au 14.6904 17.4918 12.7088
Pt 27.8409 30.4491 26.5033
Au 38.1285 30.017 12.716
Pt 20.0822 13.2784 33.6134
Pt 17.4524 34.5291 21.3417
Pt 35.5287 19.034 36.8866
Pt 31.2704 19.0245 25.7878
Au 29.6058 37.2898 12.5826
Pt 24.4203 18.6192 22.1198
Pt 24.3693 7.79992 32.6291
Pt 23.8835 32.8815 32.6478
Au 37.2456 12.8579 16.0937
Pt 17.882 20.5253 30.9917
Pt 29.5622 27.7312 15.9458
Pt 31.0052 29.2674 32.491
Au 27.7637 20.8667 7.82011
Pt 25.1067 23.0768 42.9288
Pt 11.4683 16.0481 21.2582
Au 17.5673 18.801 12.908
Pt 27.8366 22.9424 32.9487
Au 20.5878 20.3233 19.0209
Pt 38.1789 21.8542 33.9176
Pt 17.6255 22.8553 16.7538
Pt 9.06879 23.617 22.6692
Pt 22.7822 26.6749 13.5989
Pt 28.6825 17.2841 13.5709
Pt 16.4401 27.3711 28.7255
Au 35.2064 15.8197 12.4114
Au 20.6006 20.3807 16.1965
Au 36.8719 17.3697 14.2914
Pt 31.4252 36.9749 32.5005
Au 9.59527 35.5824 25.2077
Pt 23.9994 16.907 13.7187
Pt 32.7686 27.2104 33.6343
Pt 39.9128 30.3972 25.0965
Au 26.2374 6.71821 19.1511
Au 36.0522 37.2813 35.0083
Au 19.267 22.7237 12.5016
Au 15.2402 24.4067 41.2058
Au 11.8778 18.422 25.4837
Pt 34.8763 17.3959 32.5967
Pt 25.3064 25.3039 13.6555
Pt 17.9769 10.0022 27.4855
Pt 28.8523 13.2996 20.2161
Pt 13.9159 17.9713 29.6131
Au 12.5709 18.3985 36.4683
Pt 27.231 25.1348 38.5529
Au 4.50087 26.7814 20.2893
Au 26.6428 16.6656 9.47133
Au 36.0157 24.9431 7.96447
Au 27.9284 39.7136 31.2089
Pt 15.9511 29.9084 36.6576
Au 35.1856 11.4787 35.4755
Pt 22.3483 22.0009 17.6602
Pt 32.8774 30.299 28.6802
Au 18.4824 35.0827 32.3263
Au 34.7257 37.9776 28.2714
Au 14.2185 20.0306 11.5627
Au 17.0676 11.8333 22.9497
Au 42.6327 21.7632 30.6727
Au 42.9788 20.316 26.2393
Pt 33.3868 38.3329 22.7015
Pt 14.0776 28.7117 24.0975
Au 41.7343 21.111 18.8472
Au 21.886 15.3984 17.2564
Au 29.4946 30.1253 40.1607
Pt 31.4265 31.7913 19.4739
Pt 31.2446 39.9271 22.2842
Au 34.7752 14.2988 35.7541
Pt 25.9447 14.318 23.5815
Au 21.4143 36.3291 16.1429
Pt 33.069 23.282 25.8987
Au 21.2275 17.1008 41.7012
Au 23.3444 39.1353 39.1409
Au 37.013 29.1164 10.2741
Au 19.4543 34.6023 9.13852
Au 8.85059 18.0618 29.887
Pt 26.6291 9.29156 28.603
Au 36.2797 32.1328 22.5501
Au 23.034 24.3884 11.9352
Au 23.2936 24.7505 44.1012
Au 34.3856 8.64307 27.9222
Au 13.5176 16.1551 34.752
Au 41.2428 18.474 17.8047
Au 14.7353 38.8636 22.548
Au 6.72262 26.2893 15.3803
Au 37.4232 30.5691 37.2157
Pt 29.7621 27.8414 12.9235
Pt 27.9865 30.3852 16.5759
Pt 19.7572 13.2686 23.9119
Au 14.2499 27.4753 8.53395
Pt 11.3982 19.2386 17.788
Au 18.4748 21.878 8.26323
Pt 20.9044 15.2284 35.4133
Pt 21.5538 19.8049 10.7855
Au 31.0053 41.1875 25.2494
Pt 29.3854 28.2147 25.4393
Au 34.6123 15.9278 27.0285
Pt 22.6853 24.0114 14.5325
Pt 37.9789 30.9453 26.7866
Au 17.6723 10.2733 17.6307
Au 28.5844 14.6726 40.5545
Pt 35.3175 18.8572 27.9501
Pt 26.0823 22.2806 23.6193
Pt 19.4095 26.3464 40.8301
Pt 30.7511 35.4765 16.4542
Pt 21.019 13.4347 30.7413
Pt 30.3311 17.1592 30.1631
Pt 20.6672 28.8373 34.396
Au 15.7828 24.0091 12.5338
Pt 16.4634 23.1988 28.0308
Pt 26.3376 9.34384 21.1215
Au 21.2132 27.091 5.4927
Pt 25.0581 12.5927 25.9565
Au 39.7632 28.6747 23.0558
Pt 11.7566 25.8238 30.6112
Au 20.4617 43.5877 21.4692
Pt 28.7866 17.3373 16.5938
Au 9.96862 26.7943 28.7955
Au 7.07371 27.4136 20.8086
Au 13.4332 20.7374 16.1294
Pt 32.6006 23.6254 17.5385
Pt 29.133 21.4106 19.1833
Pt 28.3522 23.3434 26.1865
Au 21.8697 18.3809 14.7544
Pt 18.466 28.12 35.9952
Pt 36.7054 24.1126 18.6894
Pt 25.7461 32.1769 15.8751
Pt 25.2282 35.3147 39.2291
Au 13.9427 16.9311 32.1456
Pt 16.9411 30.9097 33.0076
Pt 28.5275 33.4957 33.3021
Pt 27.6273 28.0528 17.895
Au 14.0767 19.8204 31.7198
Pt 22.6895 34.5647 39.0441
Au 12.824 19.4015 13.8288
Pt 26.3778 28.8335 35.49
Pt 24.081 16.9281 33.3351
Au 6.34767 29.1998 18.6981
Pt 33.8023 14.4875 22.0535
Pt 37.4468 28.4923 28.0191
Pt 27.2172 11.5363 27.215
Pt 26.0939 12.9559 11.9377
Pt 28.2723 28.155 31.2907
Au 4.96925 25.3452 27.5185
Pt 23.6323 21.6954 34.2232
Pt 26.3777 11.6226 23.9416
Pt 39.1331 15.9793 21.2858
Au 22.117 40.0719 29.8546
Au 22.9261 28.4079 22.4525
Pt 21.2477 25.3548 28.1787
Pt 23.8836 23.814 32.294
Au 18.5341 32.3692 37.8457
Au 14.595 24.7618 32.322
Au 15.4348 34.9565 28.0993
Au 41.517 19.3512 34.6662
Pt 19.1258 12.2255 26.5337
Pt 28.4684 10.3685 22.7582
Au 22.0256 29.443 13.5574
Pt 32.7026 12.9567 31.6641
Pt 20.6148 37.4832 28.6996
Pt 22.5283 35.5768 28.512
Au 11.2496 33.9344 31.5045
Pt 33.5729 28.1343 36.393
Au 37.8946 17.6149 37.651
Pt 19.801 31.0153 33.1796
Au 9.80043 34.4254 20.5678
Pt 19.749 26.0428 34.4817
Pt 25.8618 28.7779 27.4259
Pt 15.9321 27.1885 31.8998
Au 20.6482 19.8247 8.21621
Au 7.28698 19.769 28.4295
Pt 20.5976 19.6597 28.6155
Au 20.4698 42.3721 17.778
Pt 36.3675 17.5845 25.6395
Pt 28.3479 17.4224 36.7617
Au 35.3151 12.6463 23.4405
Pt 25.8089 33.5792 34.461
Pt 25.1213 27.7766 31.2982
Pt 23.7166 29.5226 8.66009
Au 30.1757 11.0795 34.9099
Au 20.1709 7.42844 31.4816
Pt 29.9628 26.9553 33.1591
Pt 38.6773 25.9048 18.6051
Au 15.763 36.9598 12.0228
Pt 26.1765 30.335 18.6413
Pt 28.6932 19.251 29.6003
Au 22.347 8.63566 26.3464
Pt 23.413 24.3072 41.2638
Au 38.7645 24.8774 16.0564
Pt 22.5851 11.552 29.7083
Au 35.8023 39.5929 22.8904
Au 20.2935 14.7282 12.3464
Pt 40.0299 29.7219 20.4654
Au 41.3966 17.4354 20.3323
Au 37.1985 30.1092 24.0461
Au 22.6337 34.7859 18.2818
Au 29.2989 15.8614 8.89694
Au 35.3177 29.7721 12.6806
Pt 22.1538 23.2486 23.1576
Au 12.8329 36.1937 15.9057
Au 16.6993 29.3332 14.0172
Pt 32.9449 14.6754 15.1634
Pt 29.7614 15.328 25.9356
Pt 39.9303 18.8862 28.1635
Pt 27.1959 34.0679 38.3287
Au 18.413 40.2561 13.9593
Au 24.7959 43.7199 21.1271
Pt 40.0456 29.1584 27.4333
Pt 40.6859 27.8758 18.7391
Pt 31.7003 21.7951 19.3252
Pt 30.809 25.0973 16.2451
Au 39.5364 31.3803 22.6094
Au 16.7278 34.4314 38.288
Pt 13.8427 37.2192 28.2172
Pt 26.3112 21.0699 34.2597
Au 35.4687 36.7722 16.7145
Pt 31.4183 16.8496 35.5862
Au 12.3826 37.4349 18.6499
Pt 29.5115 23.3594 21.1329
Au 22.6466 25.3636 21.4409
Pt 39.4535 25.0239 29.6502
Au 22.6123 30.7323 11.0732
Au 16.5438 16.6779 14.6555
Au 19.8203 29.7554 30.8646
Au 24.0819 19.1797 9.75772
Au 24.1763 8.59551 19.2711
Pt 29.4523 36.4874 27.8539
Pt 28.2419 20.039 17.0686
Pt 35.4537 16.4787 21.6238
Au 19.4371 33.5115 19.6828
Pt 37.8454 31.3003 20.4596
Au 31.8506 15.3658 9.31133
Pt 23.3752 21.8729 25.214
Au 4.73553 22.8919 26.302
Pt 14.9781 25.3267 27.3329
Pt 36.9202 24.7073 34.0795
Au 22.7425 19.3871 42.3648
Au 21.126 21.2773 41.0182
Pt 23.0199 24.3145 34.893
Au 7.05091 23.5822 15.1732
Au 14.2497 39.0131 19.8499
Au 12.5119 25.2338 9.27855
Pt 30.2423 19.5187 36.4119
Au 33.8257 36.5966 36.5206
Au 18.1881 39.5206 33.2111
Au 21.1803 36.5065 23.2852
Au 10.9674 13.8492 29.9462
Au 8.53148 31.5054 15.9941
Au 19.5524 17.0033 13.58
Au 25.6121 24.2329 10.8512
Pt 16.7078 28.4988 24.4223
Pt 24.7555 34.0758 28.0533
Pt 24.6979 32.9461 25.1828
Au 27.9422 29.2124 7.16942
Pt 32.4496 17.3617 18.929
Pt 22.5228 16.2108 26.4144
Pt 38.3465 33.7031 21.8865
Pt 10.7085 20.4496 24.3308
Pt 19.9387 38.465 15.3333
Pt 29.0405 15.1955 28.5871
Pt 22.7285 8.69095 34.83
Au 43.8791 25.587 26.3843
Au 22.222 27.9782 10.9117
Au 32.6272 28.5155 12.5752
Au 9.41426 28.8502 23.8324
Au 32.273 33.5562 12.3688
Pt 16.2685 32.4417 35.9429
Pt 25.8776 21.2668 15.8679
Pt 28.4894 17.84 10.9905
Pt 35.8867 21.4399 23.1698
Au 20.2605 37.5905 10.4673
Au 28.4887 17.3536 39.8127
Pt 24.072 18.9578 37.3273
Au 16.4808 20.5262 6.52548
Pt 15.6779 24.8643 22.0504
Au 15.3693 25.2146 9.82509
Pt 19.4093 21.059 36.0091
Pt 34.6991 23.6597 13.6923
Pt 24.243 15.2457 35.433
Pt 13.3187 32.0874 32.2165
Pt 19.9166 34.0462 22.4716
Pt 34.3897 31.4971 17.8932
Pt 27.7377 31.5006 34.8408
Au 9.68925 29.3554 14.7443
Au 14.6398 14.2319 32.964
Au 43.5119 23.8705 24.1606
Pt 9.30087 26.8552 15.7943
Pt 32.1855 23.9667 12.7336
Au 24.8725 19.7654 24.7519
Pt 30.8969 21.2495 13.477
Au 6.60955 18.2592 23.1225
Au 29.9042 11.3806 13.441
Pt 31.516 20.2923 34.1237
Au 38.4533 15.3264 15.3698
Pt 24.5624 26.5968 11.484
Au 24.1807 16.5273 8.33122
Au 25.9592 34.1231 10.159
Pt 40.8634 24.9189 20.4471
Au 11.7012 35.4576 27.9132
Au 13.8623 28.6493 38.1948
Au 10.788 22.7586 34.3821
Pt 24.474 32.3966 18.2761
Au 32.3807 11.5337 14.5893
Pt 30.0373 25.8323 21.4307
Au 20.4446 39.6855 34.6724
Pt 27.7954 22.75 17.368
Pt 33.2299 20.6676 27.1225
Au 19.1342 16.8322 39.7134
Au 17.3838 27.4705 17.7218
Pt 28.569 13.6889 12.8506
Au 24.8368 29.1725 11.2377
Pt 40.9377 22.403 25.4261
Pt 21.812 17.2567 12.128
Au 41.1757 23.1216 16.248
Au 37.4979 12.3812 27.5195
Pt 37.4511 30.4036 34.0608
Pt 23.5281 27.4834 20.0782
Pt 36.9804 15.496 19.6912
Pt 35.3909 28.1911 24.8352
Au 28.3704 28.2017 41.9041
Pt 15.7779 18.0526 27.4362
Pt 31.3197 11.1309 26.4819
Pt 11.7557 27.3695 23.1501
Pt 19.7867 22.9951 24.4585
Au 12.3141 35.2466 20.399
Pt 20.5679 27.3543 21.4277
Au 9.00499 15.464 28.9772
Pt 23.5245 36.6462 37.5147
Au 13.0279 22.8064 8.12919
Pt 36.7413 33.6217 26.8649
Au 22.7081 7.04806 30.3877
Au 42.6742 23.6606 18.7705
Pt 13.1479 20.0763 22.9005
Pt 24.4064 13.5742 20.9934
Pt 37.4412 18.0534 20.7508
Au 35.7135 20.6375 40.7739
Pt 12.2249 32.5582 20.9391
Pt 35.1072 21.6533 36.1401
Au 31.5121 39.7196 18.3879
Pt 21.0895 9.41819 30.0181
Au 21.0928 16.8648 37.7059
Pt 27.7468 29.7924 37.401
Pt 25.2169 7.4502 27.3233
Au 32.521 10.7089 17.1657
Au 31.4406 39.7574 29.5239
Pt 31.1937 19.7119 28.8546
Pt 18.17 20.9986 28.3974
Au 14.3131 21.8936 33.6967
Pt 35.7459 29.7748 19.5797
Pt 21.242 27.6872 29.5912
Au 38.1526 28.0943 25.4464
Pt 19.9653 14.8106 26.4038
Au 35.127 34.8736 34.5887
Pt 33.5138 19.8007 18.8893
Pt 40.4566 23.8548 27.5713
Au 38.2794 34.6035 30.8622
Pt 30.2902 30.9662 35.61
Au 32.7849 15.7666 37.824
Au 24.694 33.4631 13.6229
Pt 24.9069 36.3312 29.6949
Pt 23.0762 31.0444 23.2228
Pt 25.4305 18.4128 19.613
Au 37.7308 38.0993 21.5671
Pt 21.1198 26.9979 36.4945
Au 29.9812 41.508 27.818
Au 21.9676 11.2612 38.5873
Au 18.5721 18.4822 15.6004
Au 36.3664 34.6261 15.1787
Au 35.1 30.3906 35.8757
Au 35.4397 22.2972 8.43744
Pt 35.1866 37.9771 20.8533
Pt 26.2564 36.2479 36.7309
Pt 18.3645 27.0589 30.628
Au 27.8304 19.052 41.9933
Pt 32.9742 25.7865 26.9656
Au 17.1291 31.0178 11.7299
Au 27.8441 23.6162 7.65849
Pt 29.0179 14.3863 17.783
Au 19.9863 37.3939 36.54
Au 15.0653 36.7765 30.5221
Au 14.0215 12.8089 13.808
Au 40.8228 26.7353 36.0313
Au 32.1092 37.8552 16.4153
Pt 31.5035 26.2725 13.978
Pt 41.4567 25.044 25.4518
Au 35.2386 30.8734 9.25587
Pt 24.4646 34.1999 36.8709
Au 17.6355 28.3434 11.5636
Au 15.2648 11.3003 32.1356
Pt 20.437 35.1303 34.3358
Pt 25.7635 17.2969 36.166
Pt 20.9763 33.317 32.4889
Au 38.6164 14.2997 17.8948
Pt 33.4798 11.5636 25.2146
Pt 26.2189 20.9223 12.8462
Pt 6.42864 24.7257 19.7778
Au 17.1741 11.9836 20.0802
Pt 26.7146 29.8026 32.8339
Au 35.2924 9.96979 23.6501
Au 13.2101 36.982 23.5964
Au 43.2194 26.7511 23.9302
Au 16.1042 39.8308 15.5204
Pt 15.8278 22.5593 38.9319
Au 20.1315 13.367 15.405
Pt 24.4896 35.9437 34.7769
Au 35.6961 18.2663 39.4838
Pt 21.9753 39.2203 32.4995
Au 10.8182 33.0123 29.0134
Au 5.26434 27.6434 28.8532
Pt 35.3009 19.3922 13.4677
Pt 29.5577 20.1324 24.0564
Pt 27.3729 19.2115 14.7658
Au 22.6141 37.206 11.5826
Pt 26.7391 23.9265 15.3232
Au 27.83 23.3748 42.8852
Au 15.1092 33.5298 25.3178
Au 35.7185 14.9042 15.0613
Au 18.6151 35.8606 15.76
Au 15.8113 35.4849 23.3569
Pt 22.7522 18.1134 24.1937
Pt 28.5817 12.4117 32.2615
Pt 25.0993 11.695 28.8293
Au 21.8827 15.3415 39.8492
Au 29.6716 5.03521 28.0247
Au 23.7288 36.1804 24.0504
Pt 33.5377 21.1065 21.5211
Au 21.9523 35.7717 9.25825
Au 12.9851 15.4376 12.0208
Pt 17.2499 19.0015 35.7393
Au 36.7738 31.7894 11.2003
Au 25.8819 18.7161 7.71836
Pt 42.2118 29.2303 23.9207
Au 15.6469 37.9934 35.1854
Au 37.7571 35.6125 28.4398
Pt 28.0561 20.4166 32.1258
Au 40.3134 21.6452 35.6927
Pt 33.5615 25.6798 37.4522
Pt 33.8148 23.3647 23.1175
Au 20.6121 34.9994 11.5783
Au 26.3395 6.7343 21.9495
Pt 12.8847 26.5991 25.4907
Au 23.112 31.1593 16.021
Pt 25.2097 28.0025 13.716
Pt 12.37 28.8206 30.332
Pt 20.103 35.1213 27.6706
Pt 29.311 27.1961 10.2782
Pt 39.682 18.3868 22.3865
Pt 15.9811 30.1515 22.2375
Au 22.0192 21.0156 5.78081
Au 8.65753 34.5438 27.8052
Au 19.1477 37.3353 26.1298
Au 20.767 13.0236 18.1535
Au 20.2109 37.3345 32.834
Pt 23.5309 13.7593 27.7877
Pt 37.9253 19.4423 24.1832
Au 12.1114 27.4791 10.8214
Pt 24.8033 32.2765 30.0634
Au 8.70279 16.6607 22.0359
Pt 30.5803 19.4089 31.7019
Pt 34.7352 20.6767 29.6577
Au 37.6132 12.8119 24.7879
Au 19.3543 29.9219 13.5316
Au 12.4837 34.2452 13.5882
Pt 38.8184 28.9444 32.181
Pt 21.6518 19.6309 21.491
Au 30.9953 15.9893 40.2888
Pt 24.2256 29.5588 40.2735
Au 7.15515 30.9262 20.5171
Pt 26.6594 16.2804 33.7118
Au 27.2356 37.1778 13.71
Pt 36.7723 17.5469 35.2027
Pt 17.0493 29.4174 30.6089
Au 9.53536 15.3204 19.5869
Au 27.3895 39.1039 37.2535
Pt 27.2486 24.458 22.2199
Pt 34.6538 24.8974 20.8164
Au 8.61463 25.3516 13.5679
Pt 36.1553 33.6092 20.2312