2057
Atoms. Timestep: 20822
Au 24.7559 30.7821 15.2467
Au 17.242 11.0092 21.7779
Au 11.5904 19.1326 16.8208
Au 13.9845 31.3798 13.9016
Au 22.8712 19.542 9.46491
Pt 20.667 28.5446 38.3538
Au 32.3165 36.3504 20.3866
Au 8.8491 26.8888 16.1988
Au 19.258 9.3393 13.1597
Au 42.1024 23.5746 29.4067
Au 41.7878 31.7354 18.6529
Au 15.668 28.4094 17.684
Au 32.4452 34.6541 9.03156
Au 41.4406 29.3777 32.246
Au 9.3422 32.3374 14.1435
Au 16.4236 35.4848 39.0587
Pt 27.6959 11.4183 15.7754
Au 11.8212 38.4313 22.7926
Au 15.6909 9.4676 16.6614
Pt 18.5045 19.7047 38.9929
Pt 28.4867 32.19 23.7083
Au 10.3854 29.5683 20.4763
Au 13.0568 35.0481 13.1677
Au 28.1955 40.6467 22.7314
Au 22.3874 8.4074 19.8349
Au 10.2035 30.231 32.1413
Au 23.0165 16.8451 9.04278
Au 35.6346 9.65506 25.0153
Au 17.1924 32.121 20.7704
Au 31.9374 25.0428 6.08815
Pt 30.5992 35.6039 18.4496
Au 21.9597 31.0856 8.19132
Au 19.5541 17.8221 41.2367
Au 13.133 17.0166 12.1286
Au 22.0957 26.4178 5.52103
Au 17.7695 36.6559 14.9706
Au 12.3066 13.0028 16.0683
Au 23.7659 38.0233 12.3982
Au 26.2534 32.1418 6.02933
Au 33.6806 10.2975 20.6066
Pt 29.9471 25.8372 25.9168
Au 25.112 45.1332 22.5911
Au 11.4504 25.807 34.3061
Pt 33.2228 36.5996 25.3443
Au 25.6361 36.6946 8.43566
Au 13.5856 28.5584 9.62521
Au 22.0386 34.5899 20.8482
Au 31.1027 30.4968 7.48839
Pt 16.9593 26.5085 39.7562
Au 14.9783 14.5707 21.3021
Pt 12.2785 20.8495 21.4084
Au 39.5769 27.355 22.5452
Pt 22.2353 10.3883 15.6521
Pt 14.1953 17.6164 30.6905
Au 26.6957 17.6384 12.8738
Pt 25.2106 13.9443 35.9487
Au 21.905 42.0606 29.7344
Au 12.9282 23.9464 14.4956
Au 17.3173 33.4985 11.4468
Pt 37.5521 17.7988 20.8599
Au 30.6381 33.2867 7.51743
Au 25.3651 39.9916 22.782
Au 11.3017 36.2618 18.3204
Au 16.1762 41.4328 24.7222
Pt 20.7056 16.4572 28.3879
Pt 26.1446 26.3582 34.7834
Pt 19.9964 28.2096 20.7731
Au 31.6719 12.1807 37.9358
Au 34.114 21.6859 8.19599
Au 28.6514 26.7948 7.97518
Au 35.8835 10.9545 22.3448
Au 36.9344 31.3697 17.9972
Au 28.9848 28.8816 6.01878
Au 19.9215 32.3132 15.6488
Au 25.198 7.74788 19.3256
Au 35.4822 10.7548 18.5609
Au 17.4695 41.3741 27.163
Au 16.9375 8.43789 20.9402
Au 23.3812 37.2716 9.87641
Au 33.1927 18.8533 39.1111
Au 23.2731 36.3341 19.0421
Pt 25.1896 34.7158 32.2298
Pt 40.4537 27.5562 28.0496
Au 24.6041 31.7772 8.23781
Au 22.5904 11.8371 20.0558
Au 28.5769 7.88178 19.2246
Au 16.7934 26.8309 15.8497
Au 16.1944 38.0365 13.2447
Au 39.5872 36.6997 26.1672
Au 36.0786 33.8334 14.0607
Pt 14.4342 29.231 29.6176
Au 24.8154 23.9969 8.10634
Au 13.066 27.5074 17.9063
Au 26.4593 41.4374 25.0395
Au 32.0238 20.6184 9.63502
Pt 9.68911 23.8977 29.9959
Pt 19.2173 20.0067 31.425
Au 16.9822 11.754 16.7565
Au 22.6831 35.4074 11.8972
Au 25.2391 40.928 16.6771
Au 19.6812 32.2211 12.274
Au 32.6832 11.7811 13.745
Au 8.33079 19.8832 21.4358
Pt 29.7703 22.6276 14.6487
Au 36.4888 28.9042 10.0236
Au 34.6807 32.1797 21.1188
Pt 34.1217 29.7106 27.7169
Au 26.888 30.7143 21.5652
Au 22.9503 28.737 14.614
Au 13.4349 11.2447 33.179
Au 38.034 13.2416 14.4707
Au 12.8188 30.7859 11.2854
Au 12.3156 14.1578 36.2647
Pt 32.0135 34.3359 16.5132
Au 25.4478 8.09352 16.7229
Au 16.5365 24.1429 16.576
Pt 22.7822 24.7022 35.77
Au 43.4674 24.4906 26.8174
Au 20.9608 21.4795 16.0876
Pt 30.09 27.4797 12.3574
Au 22.6497 7.92336 17.0764
Au 24.5944 24.8229 10.919
Au 8.46357 35.1744 22.2231
Au 33.5212 10.3026 30.0883
Au 36.499 34.4176 11.327
Au 26.8108 22.0313 9.62154
Au 41.6358 23.5589 19.6541
Au 32.536 31.8961 9.60929
Au 8.72445 31.1667 27.0028
Au 39.2973 35.5564 16.8283
Pt 20.9966 27.6344 28.2525
Au 31.751 30.9779 17.7585
Au 21.7726 37.4894 16.4833
Au 18.9886 38.6248 13.4375
Pt 14.7514 30.3451 24.0411
Pt 18.9581 20.1052 9.99781
Pt 37.4722 19.6065 32.3876
Pt 29.941 19.2485 35.9754
Au 22.6328 33.6444 7.85628
Au 22.4693 21.4104 7.47393
Au 38.1388 23.9831 33.992
Au 26.2559 39.1898 12.9913
Au 18.4851 15.0895 8.38804
Au 20.9317 37.4357 11.6205
Au 24.5532 33.8348 15.0843
Au 33.7847 26.9007 6.01517
Au 36.8745 40.1804 26.5251
Pt 33.3879 24.0127 9.60438
Au 11.4039 12.6558 31.7299
Pt 32.8068 29.0456 9.06601
Pt 20.733 18.3605 35.2332
Pt 35.813 35.8991 25.3122
Au 19.9941 32.8181 9.35679
Pt 15.767 24.3814 21.2601
Au 26.6247 38.5281 16.6474
Pt 18.136 19.8386 25.6686
Pt 28.6601 25.8687 21.4796
Au 25.3763 9.42906 35.3735
Au 9.26544 20.5633 16.8777
Pt 36.0657 28.9508 25.3054
Pt 26.7854 21.7969 24.8226
Au 36.5856 37.6698 20.2347
Au 30.3818 35.9911 7.85995
Pt 35.9299 21.8583 32.0124
Pt 30.6289 27.3633 36.4153
Pt 35.1473 32.7715 27.7376
Pt 33.4575 18.6713 14.6884
Au 8.15041 31.3888 24.347
Au 7.67832 29.3812 20.3473
Pt 31.1408 23.0083 25.3433
Au 28.9569 12.0937 38.2928
Au 18.3123 17.8388 8.39029
Au 21.5533 42.8898 20.3456
Pt 32.4467 16.9425 19.5024
Au 38.3311 35.1068 13.214
Au 35.9232 26.1588 14.1015
Au 28.2836 36.9032 9.29282
Pt 36.8716 19.3143 27.8735
Au 31.2158 8.84313 20.1267
Au 16.7366 21.4952 16.8079
Au 23.083 6.54617 29.1955
Au 18.2064 11.4871 11.7749
Au 21.2029 10.2884 18.128
Au 19.6886 30.432 19.0571
Au 19.4173 25.0238 42.5662
Pt 30.4482 11.3984 25.1162
Pt 32.6616 22.3227 14.5613
Pt 37.9649 18.1103 23.4869
Pt 37.0632 20.7587 22.7612
Pt 22.0827 25.8758 33.2472
Au 20.7794 30.1315 13.6284
Au 24.7813 18.7497 43.5017
Pt 32.3187 19.3149 31.8043
Au 17.9549 30.4107 16.7915
Pt 36.7735 17.1387 32.4856
Pt 25.8761 30.3246 27.4199
Pt 20.1782 21.9952 38.6776
Au 6.57776 18.4884 22.9058
Pt 25.8758 36.532 26.1111
Pt 23.7072 32.9283 35.1934
Pt 35.5509 22.0919 24.8222
Pt 29.5106 16.6121 35.6681
Pt 12.8722 30.179 31.8909
Pt 25.4419 18.1442 30.2687
Au 17.2228 21.442 8.5218
Pt 29.9841 12.9495 28.9332
Pt 15.4673 26.8228 28.8367
Pt 24.7234 14.7314 26.2154
Pt 29.4146 12.1124 32.8968
Au 6.7441 17.2933 25.3025
Au 20.5639 42.115 22.7243
Au 19.2307 37.8677 20.3666
Au 10.9038 22.3498 40.5238
Au 39.4276 20.0745 14.3603
Au 11.5085 32.0599 20.2827
Au 24.6047 12.6046 8.45071
Au 20.6601 41.5734 18.0177
Au 26.8124 34.7004 9.86776
Pt 31.0683 20.8416 33.9037
Au 18.3281 29.5995 12.2067
Au 18.4822 10.2576 18.4469
Au 11.6247 31.7098 15.5333
Au 32.4813 39.9207 17.1307
Au 22.7362 18.5752 6.91858
Au 32.6801 36.2369 14.5023
Pt 24.4253 12.5603 27.7955
Au 32.0833 35.1246 11.7921
Au 38.1582 38.6162 24.7068
Au 15.1654 34.3894 21.6964
Au 37.7386 12.3014 19.1009
Au 22.2871 18.687 42.3833
Au 23.5166 10.9938 10.5589
Pt 11.0385 25.8037 22.6991
Au 9.03586 24.8876 18.3069
Au 18.8071 27.9484 17.5317
Au 11.172 33.6455 17.6414
Pt 13.6615 18.8403 28.2304
Au 21.826 28.9503 6.42532
Au 11.6635 35.1337 29.701
Pt 28.4922 28.3722 20.898
Au 28.5568 13.6081 13.6288
Au 24.4043 17.2655 40.913
Pt 18.1098 12.1742 33.0417
Au 24.3048 38.8357 15.0724
Au 19.4385 40.8532 20.3687
Au 41.5556 32.3033 25.742
Au 29.2343 33.7884 16.3609
Au 30.3823 41.0527 18.5957
Au 35.4306 38.4363 24.8635
Au 16.1371 16.2199 9.38797
Au 29.2654 8.36773 22.0367
Au 41.9475 18.5873 19.0842
Au 19.4139 11.7744 38.2328
Au 41.536 26.1429 15.9659
Au 16.7725 25.8982 18.7399
Pt 33.1375 29.1422 25.1403
Au 23.1391 22.04 14.5339
Au 25.1948 18.2065 7.91255
Pt 30.6148 13.0746 17.5619
Au 6.23342 17.2812 30.0612
Au 15.9966 37.1743 17.1722
Au 22.9549 15.7087 39.0628
Pt 34.4584 19.8947 26.3026
Au 35.8762 14.3271 38.6348
Pt 25.9818 13.3219 16.6561
Au 34.562 23.5798 37.405
Pt 19.5016 11.8146 26.0286
Au 32.3576 16.9427 12.814
Au 11.5304 16.7305 23.7835
Au 25.0135 10.8241 15.8511
Au 17.8495 41.7145 22.5564
Au 28.4735 30.0451 11.7479
Au 21.9386 12.3831 8.87707
Au 18.204 37.1637 23.9163
Au 19.0462 38.0324 36.1814
Pt 28.1218 28.8167 26.4653
Au 17.1895 39.2763 15.5206
Au 34.6656 38.8211 18.3158
Pt 22.4672 30.3636 18.7598
Pt 29.2697 22.5192 23.5136
Pt 23.4108 18.7532 34.2324
Au 12.4916 37.7913 20.2622
Pt 28.4523 13.9551 31.2872
Au 20.5917 17.7972 10.0184
Au 8.48964 16.2934 35.0961
Pt 37.423 15.81 14.7576
Au 27.8542 10.4262 34.4174
Pt 35.1624 12.2162 24.8515
Pt 32.9563 26.7288 40.2953
Au 35.974 11.3542 29.4269
Au 28.9874 32.1617 13.94
Pt 32.1758 34.1497 27.4438
Pt 34.8397 29.9899 23.0282
Au 12.0532 24.1147 11.896
Au 31.0257 14.004 11.9774
Au 16.7048 41.0958 20.0098
Au 28.5272 38.5158 11.5718
Pt 36.5071 24.4633 25.6604
Pt 31.3519 38.0442 32.268
Pt 30.709 28.2729 26.4672
Pt 17.7014 17.8415 19.1079
Pt 34.3198 14.5838 25.4534
Pt 13.8789 22.5655 30.8557
Pt 18.5321 23.2285 27.9535
Pt 25.7303 14.5449 33.1193
Pt 15.3506 25.2632 23.9563
Au 10.6132 16.1987 36.9717
Pt 9.8933 23.4151 33.4615
Au 10.3648 19.8629 19.42
Pt 12.8871 29.8153 22.0839
Pt 31.2247 27.1394 14.9547
Au 19.4767 34.9437 16.5259
Au 19.1438 19.9546 17.5116
Pt 10.7138 18.4526 34.9711
Pt 23.6541 19.9815 28.8813
Pt 33.4297 32.1386 23.586
Au 12.5217 36.5501 27.458
Au 25.6226 19.6266 10.37
Pt 20.5489 34.8513 25.2383
Pt 10.1737 24.5425 24.9526
Au 15.899 12.5617 12.7806
Au 30.198 18.276 8.77478
Au 14.1853 27.6722 14.9009
Pt 11.8147 25.8151 37.275
Pt 18.8635 9.22256 28.7402
Au 38.9353 26.0247 15.0214
Au 28.9418 42.0097 31.6509
Pt 32.1056 16.1917 35.2646
Pt 11.6186 29.0202 29.8844
Pt 30.8125 14.8999 14.5989
Au 17.9951 20.3576 41.6226
Au 27.6045 11.047 12.7888
Au 25.6826 12.5458 11.2199
Au 32.4028 31.9246 38.9248
Pt 37.6258 24.1345 13.5783
Au 38.1196 32.5254 12.6241
Pt 17.6295 28.6898 33.0778
Au 29.7689 10.5032 17.3921
Au 13.9403 17.6062 16.7289
Au 12.3815 12.2926 29.0628
Pt 24.2936 25.1865 38.5029
Pt 18.1931 15.4878 28.991
Au 38.5344 14.2229 17.0474
Pt 26.7406 9.98933 18.3333
Pt 31.2734 22.292 40.524
Pt 38.1954 27.3272 29.4459
Au 21.2813 27.0804 42.439
Au 35.1621 28.0822 7.89411
Au 36.2756 14.3582 12.6097
Au 9.05333 23.7785 27.3468
Pt 19.9946 23.9691 34.794
Au 41.5527 28.9839 17.8391
Au 10.1224 25.9256 11.7329
Pt 39.1055 20.7912 27.1401
Au 12.9319 12.4145 25.4816
Au 9.14998 32.0767 16.7539
Au 28.5704 35.0988 38.0481
Au 12.4734 26.9424 39.6821
Au 10.4715 15.6539 19.6186
Pt 23.2037 28.5882 24.2354
Au 14.4963 38.6119 15.3237
Au 19.0942 15.1737 15.0366
Au 8.93436 31.643 19.3494
Au 24.3375 43.6825 24.707
Pt 26.9396 37.8527 21.6713
Au 37.1109 16.9372 11.9621
Pt 32.0202 23.253 32.7671
Pt 17.7635 23.9699 32.4274
Au 8.49509 32.5227 21.8575
Pt 21.0934 23.4395 26.7926
Au 13.7409 13.8217 13.8289
Au 37.338 29.4503 38.527
Au 30.4412 31.0631 30.3218
Pt 35.4199 20.9494 18.465
Pt 9.04609 27.9925 30.5908
Au 41.9453 30.6735 21.2401
Au 22.1338 26.048 10.7116
Au 9.14529 18.4052 37.1487
Pt 24.4454 37.3178 23.6679
Pt 17.5256 33.2669 27.6074
Au 18.9181 28.1938 9.90708
Au 14.3257 33.0849 11.5583
Au 21.8675 37.429 21.36
Au 14.706 21.4444 9.54258
Au 14.1573 38.436 28.7024
Pt 26.1641 29.6373 38.0528
Pt 25.9375 21.3046 36.3216
Au 10.8832 34.372 15.0049
Pt 26.8588 19.0255 40.2148
Au 21.6164 33.7093 13.9068
Au 15.4132 35.9386 24.0329
Pt 34.2298 36.3062 22.9002
Au 24.3644 38.3148 20.8513
Au 30.8373 29.8359 38.1147
Pt 12.5927 16.0844 21.2801
Pt 18.5233 32.8298 35.0435
Au 17.485 28.8133 19.8177
Au 12.9645 32.3895 23.2207
Pt 23.7725 22.9364 20.2355
Pt 32.9045 20.491 16.8436
Au 21.1949 7.4156 22.1933
Pt 11.6383 27.1294 25.3067
Pt 13.27 27.3835 23.1958
Pt 16.095 18.0479 24.9128
Au 11.5111 13.6131 21.3454
Au 15.2704 12.4326 23.2493
Au 22.2869 32.8956 10.7172
Au 35.3568 29.7209 15.9321
Pt 18.2543 26.6584 24.1929
Pt 30.7778 25.1365 8.51357
Pt 30.2932 30.7903 27.4848
Au 13.4054 38.0842 17.7322
Au 18.0863 32.8168 18.0647
Pt 20.7207 34.4915 35.5579
Au 40.7576 34.8994 19.2187
Pt 20.7778 36.9089 28.9422
Au 12.8899 34.6737 25.0251
Pt 17.4388 13.7146 22.1869
Pt 20.3838 12.8686 18.6829
Pt 30.9569 32.4664 22.8122
Pt 28.8611 39.8116 25.2489
Au 35.7197 39.5139 22.3149
Pt 29.3929 13.9302 26.3414
Pt 31.9284 17.8416 27.2749
Au 27.62 27.4637 10.4845
Au 13.9304 22.8992 17.3255
Pt 34.668 26.3049 18.1924
Au 39.427 32.5191 23.8808
Au 39.1994 22.2745 12.6883
Pt 34.4366 12.5926 27.4452
Au 18.8341 37.6014 17.3889
Pt 20.6144 11.1685 29.3206
Pt 34.5352 22.886 22.5554
Pt 33.5787 17.864 17.259
Au 42.3663 22.9869 22.3128
Pt 30.0592 16.8208 20.167
Au 30.5312 37.2787 13.0136
Pt 34.3937 31.6432 34.3255
Au 21.0533 40.4312 25.0793
Pt 36.0247 14.1944 18.1656
Pt 21.3625 29.0776 35.6904
Au 39.1944 32.9545 18.1464
Pt 24.1318 16.0914 34.7352
Pt 14.9542 17.6576 36.1949
Pt 23.476 28.4208 39.4508
Pt 18.9889 26.6102 37.9884
Pt 29.2697 13.0183 20.8858
Pt 16.9526 29.1557 25.0908
Pt 14.4142 27.9834 25.4728
Au 17.9231 8.16839 15.6134
Au 40.2984 31.1151 16.4082
Au 30.625 40.3491 33.4978
Au 18.3887 16.3522 10.7762
Au 22.5946 19.3602 14.4272
Pt 25.1179 16.1493 37.3857
Pt 14.5911 17.8551 33.3398
Au 10.6054 36.1958 24.0394
Pt 18.5164 32.8791 25.0894
Au 25.8819 43.4495 27.0946
Au 23.9122 38.9546 18.1301
Au 19.872 22.178 7.90302
Pt 25.5916 22.0643 15.6115
Au 12.4511 36.5063 15.6109
Pt 17.2526 31.7111 37.5328
Au 21.6299 16.8961 15.145
Pt 17.837 24.8472 29.8998
Pt 12.9422 33.7831 27.808
Pt 34.9795 13.7843 22.8081
Au 19.0036 22.6842 18.0611
Au 38.8453 27.4037 37.4171
Au 33.4174 22.5108 11.7969
Au 29.5801 45.0176 24.462
Pt 32.4407 34.5626 32.1188
Au 20.9593 8.35687 33.9026
Pt 26.8772 8.97387 20.998
Au 31.2478 8.87624 23.9492
Pt 18.9715 20.6682 23.3082
Au 20.9318 8.17395 14.9155
Pt 33.7257 15.4369 27.9938
Pt 20.62 14.0368 29.4596
Au 20.5688 35.9055 18.8782
Au 28.7303 43.5401 22.3207
Pt 17.3394 10.8244 27.3215
Pt 29.4785 25.3082 10.9467
Pt 34.3067 18.2221 28.4521
Pt 35.4648 25.4923 23.1062
Au 23.3448 41.4707 32.006
Pt 12.4393 16.5402 32.5313
Pt 16.2667 26.9817 37.074
Au 24.8441 25.432 5.60605
Pt 36.3747 22.345 11.9771
Pt 16.3067 37.3818 29.9783
Pt 14.9498 33.2992 32.916
Au 23.0381 26.2338 7.95342
Au 22.1638 39.5356 34.1115
Au 25.1784 32.454 10.7777
Au 17.1195 15.1902 19.6871
Au 19.9074 39.6126 15.8707
Au 13.813 35.2927 17.5769
Pt 32.7057 12.9465 29.4357
Au 33.4282 10.1253 32.8638
Pt 31.7338 22.6569 22.2211
Pt 10.3738 15.7315 28.8301
Au 40.8945 19.1474 16.6415
Pt 27.8191 20.8598 14.6359
Au 34.222 11.2382 16.1165
Pt 12.7939 31.3693 29.3134
Au 33.8381 38.4428 30.4149
Pt 19.7209 13.9922 21.1219
Pt 29.6813 30.2066 22.1127
Au 32.7281 10.8014 35.5183
Au 34.3371 27.4136 10.8181
Au 19.0855 25.2257 16.7679
Pt 22.4741 28.4648 12.0231
Pt 32.6671 13.4079 15.964
Au 22.5617 23.4523 12.1365
Pt 37.0616 21.4976 14.5142
Pt 28.4792 30.7644 36.8675
Au 7.16017 29.1526 25.6766
Au 21.4032 37.0437 37.1298
Pt 34.0256 24.7638 16.04
Au 19.1869 27.646 40.7334
Pt 32.5778 25.7161 37.5796
Au 42.5626 26.1707 28.8587
Au 16.5246 8.51117 23.6732
Au 19.4135 33.6487 20.5316
Au 20.6065 40.7418 31.948
Pt 31.7194 28.9464 28.7645
Pt 31.172 23.912 12.7845
Pt 33.1076 27.2895 27.1458
Au 23.2797 20.7735 12.0876
Pt 32.4957 20.2193 36.4272
Au 39.4025 33.8953 30.0897
Pt 22.884 14.7255 28.2861
Au 11.7602 32.711 12.9172
Au 38.8571 21.9652 32.2237
Pt 24.6773 20.9076 21.7786
Au 15.6539 32.0118 16.2407
Pt 24.4503 25.2662 29.2925
Au 37.6868 28.5737 14.5066
Pt 16.8287 38.4084 19.3843
Pt 18.0627 28.8879 22.566
Au 14.5062 35.2707 37.0844
Au 11.5414 24.8922 16.9825
Pt 27.6751 25.0881 18.5568
Au 20.8808 14.9294 9.64642
Au 26.1087 36.5192 19.1838
Au 10.4701 31.0372 22.9021
Pt 24.5102 26.2276 31.8107
Au 34.9482 30.7731 8.42456
Pt 13.2578 17.9221 25.7924
Au 23.7767 18.1228 11.7382
Pt 19.3051 30.2561 31.4952
Au 39.3755 15.7079 24.9694
Pt 14.4007 22.5692 22.8086
Au 18.3525 14.0765 17.3816
Au 11.0696 30.0832 34.7426
Au 30.317 29.7044 13.9591
Au 33.5905 39.5106 32.9687
Pt 25.1686 10.9975 30.3209
Pt 15.8368 27.6988 23.1693
Au 31.1107 32.5217 12.1039
Pt 23.493 27.3472 34.8942
Pt 34.2834 17.1864 25.9579
Au 23.2956 12.2143 14.021
Pt 28.8388 37.6086 33.0412
Pt 26.3622 27.933 32.5815
Pt 28.3106 22.2068 19.2016
Au 12.7407 18.4701 14.3742
Pt 26.1995 13.3812 29.8026
Au 12.1924 27.4502 20.6197
Au 40.8554 23.9866 14.4659
Au 34.6745 35.207 16.2558
Pt 27.9786 28.089 36.0893
Pt 22.0428 23.6656 39.5144
Pt 33.9562 27.3522 15.5977
Pt 22.0168 30.8831 23.5287
Au 41.6029 29.467 29.5475
Au 29.6503 23.4006 6.01624
Pt 24.3201 31.6176 38.372
Pt 21.7294 30.4839 32.9011
Au 34.8538 37.5822 34.9377
Pt 26.0431 27.3375 39.5913
Pt 22.8204 12.6249 29.9937
Pt 11.7276 22.6501 29.1526
Pt 21.6753 20.7141 34.3092
Au 19.7811 27.3618 7.25413
Au 10.4861 36.4657 21.2219
Pt 26.4004 33.2821 22.8218
Au 21.7386 16.1329 41.6409
Pt 31.5864 14.3544 19.6465
Pt 27.7315 11.9375 25.0399
Au 10.4588 20.233 38.7505
Pt 23.9008 27.9777 29.6435
Pt 28.0818 31.4263 26.2234
Pt 28.5879 26.0186 39.9122
Au 32.6966 37.0693 17.1818
Pt 23.6485 32.3105 32.6139
Au 20.0942 24.5189 12.1561
Au 24.9685 13.768 38.8181
Pt 30.1552 32.8692 18.6574
Pt 25.543 23.9624 25.3004
Au 39.3281 36.8337 20.6638
Pt 20.0033 35.2975 32.539
Au 25.3529 22.8238 5.67285
Pt 26.3873 26.7788 20.2617
Au 25.8497 9.59604 32.5817
Au 23.3159 22.7078 17.3036
Pt 35.3335 28.9121 34.7061
Pt 16.0232 22.9183 19.1049
Pt 16.8067 26.6094 31.505
Au 22.6386 31.9902 16.3077
Au 26.6505 9.08202 14.4565
Au 24.7548 35.5506 21.5397
Pt 18.5761 35.677 30.268
Au 16.0184 29.5955 14.868
Au 33.7316 23.8077 40.0798
Au 20.5761 12.7036 15.9985
Pt 18.3549 28.1636 35.6474
Pt 30.7153 18.6455 11.3331
Au 16.6415 18.0912 40.9387
Au 18.5794 25.6619 14.0893
Pt 22.492 26.8832 37.3847
Au 30.8335 9.82185 33.6582
Au 34.9526 20.535 10.5273
Au 18.1573 18.8738 12.1551
Pt 24.8468 26.8603 13.0793
Au 21.5264 14.3967 13.9589
Au 11.5287 19.2777 12.1035
Au 23.8895 14.4745 10.0506
Pt 29.2706 25.4291 13.8386
Au 28.0324 28.2001 41.4574
Pt 28.9514 19.0796 16.1339
Pt 25.5704 24.4795 16.6227
Au 10.1402 30.4787 12.5023
Au 22.3099 26.0631 13.4236
Pt 33.8272 27.6008 22.7529
Pt 21.3216 18.71 32.5497
Pt 32.3782 13.1943 24.068
Pt 11.6892 21.3628 34.4267
Pt 38.0763 20.274 16.7809
Au 16.0346 30.9059 39.7738
Pt 34.409 24.2023 31.728
Pt 25.9652 12.7507 14.0493
Pt 22.0209 26.3978 30.5799
Pt 21.7142 21.3132 31.549
Au 34.6315 9.81087 27.597
Pt 24.0025 28.9182 17.1733
Au 23.2788 23.4106 44.2964
Pt 11.0749 25.5918 27.3252
Pt 23.8688 11.9111 36.7972
Pt 22.0277 26.1545 20.3485
Pt 29.1508 42.392 24.7719
Au 11.3855 28.411 11.332
Pt 28.2604 27.8036 18.3087
Pt 24.9432 34.754 24.3195
Pt 14.9136 20.8731 20.6496
Au 20.8438 27.035 15.5385
Pt 27.3153 36.1458 31.133
Pt 20.9601 34.45 29.9589
Pt 26.1582 29.4206 29.9918
Au 39.7216 19.2136 21.7374
Pt 17.5071 31.3565 29.4862
Pt 35.1649 17.0473 19.543
Au 13.0201 21.1423 13.5727
Pt 35.4618 14.0365 29.4819
Au 7.53919 27.0912 18.7631
Pt 31.6141 10.9267 28.053
Pt 26.591 21.864 41.0067
Pt 22.3571 21.1567 26.6748
Pt 13.905 18.4393 39.3675
Pt 40.9649 25.1424 26.7708
Pt 32.1729 24.2938 19.8369
Au 25.7933 36.7126 14.0809
Au 14.778 14.9088 11.5548
Au 15.4277 13.4342 18.3916
Pt 32.439 18.5875 34.367
Au 26.2424 29.9003 10.0484
Pt 26.0742 15.7933 22.1656
Pt 24.0334 9.32411 23.8101
Pt 8.94031 24.5124 21.2312
Au 27.0143 44.2398 24.5223
Au 12.9409 35.8844 22.4952
Au 17.7074 20.7456 14.1367
Au 35.8263 14.6968 32.3714
Au 6.38918 26.859 26.9764
Pt 33.1347 38.6779 23.4136
Pt 32.8684 22.7006 35.3573
Pt 35.999 27.4793 27.7336
Pt 32.088 26.0556 17.5523
Pt 30.2279 26.3469 19.4664
Au 17.7869 31.532 14.2009
Pt 30.8044 21.5053 31.1837
Au 7.70637 19.5653 18.8526
Au 15.8203 33.5168 13.8197
Au 9.64685 29.7624 15.3196
Au 14.2382 32.0458 20.8149
Pt 28.5087 37.1055 25.9565
Au 24.0175 28.9917 8.1046
Pt 13.203 21.1168 39.4029
Pt 24.9754 33.946 37.2522
Au 28.896 29.4189 8.84196
Au 11.1476 12.4253 34.4265
Au 6.73282 24.6336 19.8113
Au 32.7834 33.7831 19.0446
Au 5.63216 18.3556 27.5753
Au 39.4906 30.36 19.1392
Pt 20.1083 13.7313 34.1725
Pt 22.2833 36.2732 31.2727
Au 6.11814 15.6745 27.8031
Au 21.5871 28.2619 9.18191
Au 35.9535 25.8195 9.14267
Pt 24.8629 30.7178 23.4509
Pt 31.0684 26.3521 28.8507
Au 36.6374 35.7376 33.8303
Pt 9.10691 18.1105 23.6638
Au 39.7452 13.4284 23.4724
Pt 16.9136 21.3599 32.238
Au 7.30927 21.4071 34.0157
Au 14.574 38.1156 22.2435
Au 25.0686 15.485 7.65298
Au 12.2932 26.2145 10.1147
Au 19.0309 35.7856 37.8149
Pt 20.5622 18.894 22.1555
Au 34.647 41.2574 27.374
Au 26.4634 39.3772 19.2493
Au 37.9214 15.7528 34.6837
Au 15.8936 38.6409 24.5986
Au 14.8567 16.4089 14.2599
Au 16.322 19.0528 9.69202
Au 35.8486 37.9442 32.2672
Au 12.5646 13.8882 18.7768
Au 12.0952 29.4167 13.9212
Pt 35.0117 23.5173 13.9072
Pt 30.7974 27.3225 39.0785
Pt 21.9654 14.4778 25.3799
Au 21.5496 27.8289 18.2483
Pt 27.0822 21.9791 22.1082
Au 17.6817 6.73149 25.4814
Pt 23.261 35.8741 28.6697
Pt 27.7835 18.3954 34.5201
Au 33.3905 13.7565 39.3901
Pt 24.753 34.3286 26.9679
Au 8.29034 17.0661 27.5901
Pt 13.4308 25.14 21.8007
Pt 14.8862 28.1464 39.1705
Au 21.9642 10.09 22.118
Au 29.5663 16.2934 12.4208
Pt 21.7131 30.9147 38.27
Pt 25.0993 12.2169 18.8506
Pt 22.9658 33.2189 24.9855
Pt 30.929 17.4329 22.8442
Pt 10.7458 23.6196 35.9143
Pt 27.091 14.6564 24.6281
Pt 26.061 27.69 27.8304
Au 13.9406 12.1635 20.4973
Pt 23.9717 11.9422 22.6267
Pt 27.04 25.9414 15.1679
Au 9.46477 17.6875 17.9175
Pt 15.3182 14.7025 25.0306
Au 20.2443 6.75636 24.7182
Pt 20.4835 28.1972 23.5139
Au 17.1291 15.0923 12.9666
Pt 27.5052 32.0083 18.5015
Au 30.5534 8.8909 26.59
Au 25.8899 42.8161 18.5383
Au 21.0465 23.5188 19.8561
Pt 19.3476 30.3841 36.8799
Pt 31.0118 38.1548 29.7666
Pt 27.4083 25.3854 32.6883
Au 23.6518 36.1311 38.4628
Pt 12.0363 24.6575 31.3931
Pt 18.6109 19.5413 33.8983
Pt 9.55269 25.6406 31.9988
Pt 17.1371 31.3494 23.3371
Au 35.7352 18.983 38.1906
Pt 35.8637 16.6768 16.7003
Pt 34.8347 26.6982 25.2772
Pt 30.4645 35.5354 25.895
Au 14.6612 25.8448 11.5164
Pt 21.9538 21.2258 21.7498
Au 39.6484 34.0439 26.9989
Pt 32.7815 25.0976 22.3961
Pt 18.3514 18.454 36.4892
Au 14.5768 22.9471 12.0209
Pt 15.8369 24.3133 27.9761
Pt 22.0335 18.1041 39.6221
Pt 24.1595 32.1161 28.379
Pt 33.25 29.5935 30.6484
Pt 13.9741 25.6462 26.4845
Au 7.40051 19.3402 31.8515
Pt 28.0294 23.272 16.6265
Pt 35.2422 16.7215 30.2585
Pt 29.5767 13.3707 23.5736
Au 20.6994 16.6939 7.48115
Au 18.2968 9.43704 33.5836
Pt 24.4206 20.4862 18.9885
Pt 32.6421 18.6146 24.5362
Au 40.4996 16.3223 17.7939
Au 17.7526 34.0948 22.839
Au 17.2558 26.6505 42.5259
Au 33.2068 8.43666 25.7739
Pt 31.1553 15.2921 28.6355
Pt 26.302 24.8897 40.495
Au 14.2076 20.3251 16.2002
Pt 17.7045 28.866 38.4808
Pt 28.021 31.118 29.1721
Pt 38.9471 22.6648 15.673
Au 13.4707 23.8495 9.57937
Pt 31.8317 23.2589 37.9265
Au 36.9154 18.5566 14.3063
Pt 13.2702 14.3517 23.2876
Au 8.12159 22.312 18.7676
Pt 33.2298 28.2749 38.0397
Pt 22.9284 24.3868 24.8731
Pt 31.3178 38.8826 21.5723
Au 19.5297 30.0606 7.96654
Au 39.4536 33.4063 14.9917
Pt 8.5879 26.0902 28.6322
Au 21.4565 35.4416 9.39367
Pt 26.5802 22.8117 33.8453
Pt 14.5951 35.5535 29.007
Au 10.361 20.04 14.3864
Pt 28.5508 18.4221 21.723
Pt 18.2561 23.8711 20.3635
Pt 31.2387 19.15 20.865
Au 40.868 17.898 24.0948
Au 22.9512 6.80554 24.1515
Pt 38.1216 22.3005 24.94
Pt 14.6642 23.1554 25.6295
Au 36.6528 36.9792 17.5438
Pt 27.5764 29.7927 23.9933
Pt 31.0385 23.0324 10.3535
Au 17.4423 23.4067 12.7655
Pt 22.141 11.8794 24.6038
Au 25.3474 19.9209 13.7413
Pt 36.9617 23.0841 36.3504
Au 25.694 14.8295 41.4461
Au 8.49211 29.4173 17.729
Pt 20.4066 12.2769 31.6055
Au 20.6601 30.3318 10.676
Au 27.3385 24.4376 4.51126
Au 23.8556 38.1162 35.9617
Au 40.0286 15.4271 15.1514
Au 19.8861 35.7502 22.3039
Pt 21.8588 22.254 29.1
Au 10.8199 13.8953 24.225
Au 13.2815 16.1969 37.9618
Pt 36.8474 28.3041 22.5953
Pt 24.2907 38.6041 26.2386
Pt 22.012 14.2926 32.1254
Pt 34.007 17.8713 36.4459
Au 14.1806 12.3279 35.6542
Au 20.8813 29.8035 16.4398
Pt 14.2175 21.9482 28.174
Pt 35.7739 16.4661 22.5771
Pt 28.2866 19.9914 23.7322
Pt 25.1295 20.8501 26.7517
Au 7.29207 21.9457 26.3427
Au 27.2561 19.9837 42.8637
Pt 31.9792 32.9211 34.3016
Pt 26.7363 16.4378 39.4845
Au 22.1051 13.0473 11.5445
Pt 18.9312 26.1975 33.3877
Au 37.2777 21.1964 34.4935
Pt 27.1463 20.6748 17.2805
Au 21.6679 43.1504 24.9983
Pt 35.4535 19.5356 16.1888
Au 26.9799 27.1251 5.45072
Au 14.7814 26.2007 8.88055
Au 10.3516 27.4469 18.3906
Au 28.0911 25.5515 42.647
Au 39.3796 17.574 32.9985
Pt 29.5261 16.7219 27.1267
Pt 22.3189 29.0804 21.4876
Pt 24.3084 30.8313 20.6619
Au 28.7438 31.519 6.58885
Pt 25.0741 12.281 25.1004
Au 40.0546 21.5706 18.173
Pt 36.8467 28.1886 32.7161
Au 14.9935 27.3915 20.5204
Pt 25.8822 27.0403 17.5871
Pt 19.6623 14.3952 26.7668
Au 23.5796 33.8445 39.9781
Au 25.1456 40.8761 27.6929
Pt 16.3233 18.3763 38.2335
Au 35.4642 33.6717 18.5885
Au 33.2762 18.276 10.1384
Au 15.5214 39.9583 17.5405
Pt 26.4828 15.8087 17.4427
Au 15.9001 30.9046 18.7366
Au 16.1885 28.2281 10.4557
Au 14.8582 36.5609 19.7861
Au 32.4012 8.39434 28.5166
Au 34.7052 37.9203 15.551
Au 40.4257 28.5433 15.3714
Au 17.2535 39.1634 22.0087
Pt 32.4418 39.8504 28.3853
Pt 28.9289 21.5786 29.3275
Pt 15.1409 36.9224 26.6443
Au 14.4218 19.5427 41.7594
Pt 28.2465 33.824 30.2712
Pt 29.2346 30.305 19.2315
Pt 28.7961 17.0287 17.5697
Pt 32.6087 31.6677 28.8113
Pt 27.0564 22.4528 27.5781
Pt 17.7479 19.1686 21.5216
Pt 28.039 20.4395 37.7777
Au 27.4088 43.0115 29.4765
Au 27.0076 15.0275 11.9157
Au 30.0312 11.6064 35.6215
Au 6.69869 27.0113 21.3865
Au 17.6378 25.8057 11.1909
Pt 29.304 39.4973 31.1749
Pt 25.4969 35.0826 34.8055
Pt 13.5865 30.5376 35.7268
Pt 19.6277 39.7461 27.3185
Au 25.6426 16.6919 10.2191
Au 24.9003 39.5827 33.3682
Pt 23.902 23.3407 27.2571
Au 37.0112 31.5122 23.1376
Pt 31.3646 24.5033 15.488
Au 19.7584 25.5201 9.42363
Pt 34.4022 35.575 27.8099
Pt 31.5991 22.2678 28.5003
Pt 31.122 18.6974 17.8344
Pt 24.3273 23.0374 40.5547
Pt 26.1222 9.73865 25.5846
Pt 29.7867 39.0082 27.6316
Pt 32.5579 22.9812 17.4281
Au 41.1306 15.6289 22.71
Au 23.83 8.49379 14.6183
Au 10.4223 25.0476 39.6125
Pt 22.0145 30.5085 28.3396
Pt 22.9671 16.6846 26.5879
Au 21.3407 12.0549 36.116
Pt 26.7009 32.9738 27.9728
Au 30.552 36.7968 36.8219
Au 27.7403 13.8096 40.0402
Pt 26.8397 12.1197 32.2149
Au 17.016 36.4568 21.504
Pt 40.6742 22.6832 24.6316
Au 17.3437 26.574 8.37611
Au 23.2976 41.8531 18.4551
Pt 29.1321 32.2363 34.5966
Au 37.8749 35.9125 31.4384
Au 10.5122 32.8314 28.3877
Au 38.1927 13.1137 28.7548
Pt 9.85363 17.7036 32.6838
Au 28.9508 15.9827 41.0924
Pt 36.0124 25.6758 33.1981
Au 19.5394 8.35404 20.218
Pt 17.7651 20.2506 29.2701
Pt 13.4744 32.1065 25.9221
Au 38.1621 28.0705 19.9377
Au 14.4332 39.6009 19.9513
Pt 29.4463 23.0475 34.0255
Au 37.1865 33.9651 16.5208
Pt 23.1393 10.8049 34.1638
Pt 38.8677 29.0952 31.4015
Au 32.8246 29.5087 40.3867
Au 42.0378 32.7072 23.0546
Pt 12.862 16.3719 28.2064
Pt 28.5511 14.2548 16.2849
Pt 29.6969 23.8343 27.7661
Pt 26.9168 13.3596 27.1586
Au 14.2173 28.6928 12.296
Pt 33.5668 17.8547 21.7276
Pt 20.6333 20.1546 40.5328
Pt 33.1057 21.4765 24.4997
Pt 22.79 39.2912 23.2774
Au 29.6592 32.5954 38.7218
Pt 14.9813 28.4206 32.2074
Au 7.87788 18.7902 34.5812
Pt 33.3918 21.7799 30.8335
Au 15.1323 30.7538 9.66461
Pt 26.5326 24.0834 20.6551
Au 27.7942 41.9134 20.2333
Au 28.1364 18.0789 10.5885
Pt 21.424 18.7817 27.375
Pt 19.212 17.144 32.8613
Pt 25.1183 27.2796 37.1047
Au 28.5843 9.16388 24.6976
Pt 39.038 23.4339 27.1077
Pt 30.0979 35.8661 28.5451
Au 21.2138 29.511 40.8413
Pt 16.628 21.7888 24.2853
Au 12.5009 32.2245 33.7214
Pt 25.7049 37.4935 28.6818
Pt 29.9242 19.0401 30.4267
Au 17.4932 17.4374 14.4722
Au 18.1498 22.5421 43.3197
Pt 29.1942 21.3297 26.1636
Pt 38.3773 26.1114 26.9231
Au 15.0591 14.034 37.6364
Pt 25.7651 34.0489 17.6066
Pt 33.0533 39.6503 25.7931
Au 20.9717 32.6384 40.169
Pt 33.1688 25.5191 13.593
Au 35.7255 35.0232 21.0182
Pt 29.0547 28.6824 28.9892
Pt 27.3129 24.5652 23.2485
Au 29.9137 21.237 42.7698
Pt 23.6163 10.3009 26.2368
Au 41.5227 20.5593 28.9845
Au 24.3781 28.0564 5.56987
Pt 24.7351 37.1647 31.0634
Pt 14.1123 29.9516 27.1108
Pt 38.4682 15.6781 22.3529
Au 28.0226 32.928 11.5276
Pt 30.4583 24.0556 30.3815
Au 10.5902 22.569 13.5377
Au 23.9921 16.1192 43.1717
Au 33.4007 29.5944 6.46005
Au 38.5457 26.2221 32.0185
Au 41.1479 30.1574 23.9415
Au 34.46 16.0087 11.2126
Pt 38.0039 20.6398 20.0182
Pt 20.5977 16.6977 37.5354
Pt 30.1666 33.3474 32.3879
Au 39.601 30.9305 33.5756
Pt 23.0306 12.4899 17.2084
Au 40.1229 32.6826 20.9189
Au 40.1032 24.4888 22.3522
Pt 24.7736 39.9618 30.2343
Au 18.2558 12.6291 14.3033
Au 25.6482 29.6852 40.849
Au 16.5581 11.7489 37.3878
Au 16.6629 18.8575 16.6107
Au 37.7255 29.8465 12.1468
Pt 19.4358 30.3882 34.2024
Pt 12.1884 21.4668 36.9508
Au 19.5157 25.985 19.333
Pt 29.231 15.9652 38.3486
Au 15.9342 9.31843 29.2011
Au 34.3671 12.3585 37.2216
Pt 12.4017 23.5592 38.5975
Pt 13.4751 26.96 30.5782
Pt 25.7803 20.1456 33.6784
Au 23.985 30.6776 5.86402
Pt 30.2665 24.9296 23.4116
Pt 26.7484 15.9056 30.954
Pt 31.4267 36.5202 22.9971
Au 36.5516 24.1765 39.8383
Pt 23.37 20.171 36.7174
Au 28.1299 11.3322 29.9633
Au 37.7845 20.432 37.1621
Au 10.8747 33.9169 22.4561
Au 23.313 31.1665 40.8018
Pt 15.5966 13.0161 33.4413
Au 16.599 38.2688 34.4862
Pt 10.7616 15.4344 34.1451
Au 15.9952 8.71042 26.4066
Pt 31.1198 20.1877 14.8366
Au 7.60349 28.9436 28.3713
Au 28.1457 34.4855 7.50198
Pt 32.8877 30.8493 13.3247
Pt 28.256 14.982 28.7196
Pt 24.0839 8.57217 30.6433
Au 22.8024 9.00889 36.0815
Pt 17.7233 16.1664 25.9889
Au 23.5997 26.3096 16.0083
Au 28.1705 8.39124 16.6064
Au 29.3651 9.67227 14.4971
Au 21.703 38.7848 13.9789
Au 12.6404 11.6554 22.8966
Pt 23.9327 21.6362 24.434
Pt 22.4124 40.5112 27.5385
Pt 24.8581 28.402 22.0171
Au 34.288 31.1234 18.5632
Au 29.6988 39.32 16.43
Au 29.8114 34.5176 10.0363
Pt 34.9355 18.5147 12.3084
Au 18.7674 22.9029 10.3642
Au 31.8514 15.2148 37.8675
Pt 33.9275 17.2526 32.4826
Au 18.7271 28.6109 14.7519
Au 32.8451 40.4637 19.8422
Pt 16.3972 17.7052 29.2408
Au 27.0766 24.8196 9.72301
Au 38.8631 23.3041 20.1789
Pt 28.2839 23.9015 25.602
Au 36.5811 13.8716 36.1397
Pt 14.7716 23.4409 40.1506
Pt 33.9116 15.1368 20.8265
Au 34.4041 24.3972 7.22132
Au 31.4266 16.8376 40.1294
Pt 24.1448 34.7463 9.74259
Au 41.1933 35.1035 21.9175
Pt 30.963 38.1294 25.2345
Pt 28.0504 31.8133 32.0069
Pt 9.35649 27.0819 20.8929
Pt 32.9368 11.0656 25.8292
Pt 27.0795 27.4089 22.9327
Pt 23.0133 13.5171 34.3825
Au 42.3151 25.7426 21.3786
Au 25.1158 20.8984 7.65103
Au 31.2881 27.697 6.98378
Au 37.5588 31.4292 15.2455
Au 33.0221 42.3539 25.335
Pt 39.5287 21.8227 22.3241
Pt 35.1153 31.2797 25.4337
Au 18.5386 34.199 13.9335
Pt 17.2631 24.2823 25.7079
Au 42.1259 26.1837 18.568
Pt 17.3372 31.6031 32.6763
Pt 21.4644 26.3356 39.7916
Au 17.8816 31.1263 9.97076
Au 14.079 25.1883 19.0587
Au 14.1529 19.5894 11.4517
Pt 32.5886 31.648 26.1628
Pt 26.2334 29.3439 19.4319
Au 24.6157 27.5702 10.4545
Pt 8.60504 22.0793 31.5419
Au 21.8188 18.8996 17.1418
Pt 30.0083 35.8849 31.2302
Au 31.8135 9.95493 15.5467
Pt 15.2204 20.138 30.0963
Pt 28.6624 32.582 20.9625
Au 7.12092 24.5457 30.6178
Au 15.8335 35.4811 34.5861
Pt 26.3315 24.9603 27.583
Pt 24.4529 20.0087 41.1416