2057
Atoms. Timestep: 20690
Au 22.7626 27.9498 27.8537
Au 22.7215 26.6475 25.3279
Au 21.8528 23.617 28.8317
Au 22.4307 24.7455 18.8812
Au 23.9677 31.1263 29.4723
Pt 24.1666 28.8612 24.4968
Au 24.3899 26.398 29.8512
Au 19.913 20.2796 22.4146
Au 24.8663 24.7887 25.0186
Au 23.0147 16.4644 27.9654
Au 23.4752 26.4771 32.3498
Au 22.5458 21.0537 22.1252
Au 18.0964 29.1474 19.9543
Au 24.292 22.2861 23.796
Au 27.9537 24.1642 30.0583
Au 29.389 26.6046 30.2988
Pt 17.4663 24.4705 17.1401
Au 20.6438 25.9864 27.6992
Au 16.7594 24.4448 27.182
Pt 16.7028 30.371 25.6734
Pt 19.516 30.8041 25.8762
Au 25.2817 27.341 26.5375
Au 21.5994 23.495 21.0741
Au 21.6987 19.494 20.053
Au 26.6935 18.1292 24.7797
Au 21.8753 18.556 26.5788
Au 23.9799 19.0633 28.628
Au 24.6513 23.7215 29.5627
Au 22.5777 24.4694 23.4566
Au 22.0722 26.2982 21.2641
Pt 27.3041 25.6158 18.9567
Au 27.7053 24.5159 35.0291
Au 21.7167 21.3688 32.4166
Au 23.4206 27.9311 16.0609
Au 20.3532 22.7991 23.4615
Au 19.4485 16.7408 23.8882
Au 19.9724 21.7092 26.1154
Au 23.8396 25.3253 16.5838
Au 20.1728 23.5266 16.318
Au 20.2858 25.9509 24.069
Pt 31.3834 29.3988 33.0674
Au 19.285 27.9404 22.111
Au 21.343 24.0495 25.9278
Pt 27.879 20.3927 20.8281
Au 27.6337 20.0839 26.5174
Au 23.4245 21.9351 19.6875
Au 18.411 26.3935 26.124
Au 21.2861 31.8746 29.9717
Pt 21.5327 30.3957 27.7636
Au 22.3752 16.7232 20.8249
Pt 26.1659 17.2967 30.3223
Au 24.3775 26.559 22.9076
Pt 20.5669 28.1544 26.0035
Pt 20.636 19.0605 14.7892
Au 23.6608 22.6677 26.5712
Pt 27.1863 23.0481 20.3026
Au 27.4769 25.4567 25.268
Au 33.4239 21.1904 27.225
Au 31.9684 22.0011 31.392
Pt 16.5918 20.7204 16.3287
Au 20.0749 27.1 19.5727
Au 18.4672 23.8331 25.1806
Au 15.6505 22.6462 24.7127
Au 16.9264 30.4848 22.8434
Pt 17.7648 32.7183 26.4545
Pt 22.0267 30.0863 25.2882
Pt 26.3677 30.1675 25.4455
Au 19.8902 17.8274 21.4311
Au 24.5258 19.3867 23.2587
Au 25.9277 15.4065 26.1457
Au 28.6843 15.5561 25.9087
Au 20.3633 17.2787 28.8382
Au 22.1823 20.798 24.8431
Au 19.1232 23.4771 28.1687
Au 17.2573 29.1389 32.751
Au 22.2769 15.1141 18.2339
Au 25.4459 21.5326 16.3997
Au 27.4766 28.6227 15.5325
Au 24.4985 29.7072 18.7889
Au 26.254 24.1643 27.4672
Au 30.9694 19.3272 31.6974
Pt 36.1938 25.0236 33.1819
Pt 33.06 24.8843 33.3972
Au 18.9621 19.1952 30.708
Au 26.7862 23.6027 23.1491
Au 24.4964 23.9927 21.4047
Au 26.276 22.2258 25.5992
Au 22.2655 29.1338 13.8648
Au 26.7039 25.8386 21.5709
Au 17.3581 21.6295 26.874
Pt 18.6057 17.3913 26.7322
Au 15.1953 24.5267 32.5146
Au 18.8016 27.4488 34.2772
Au 20.2821 21.7013 30.0743
Au 21.9787 26.2637 14.2839
Pt 25.1976 18.4538 17.5388
Pt 16.3881 25.6727 15.0714
Au 22.4563 30.3296 17.0431
Au 20.0894 29.6705 18.1665
Au 28.3042 25.7068 32.5989
Au 31.6207 28.6093 20.2751
Au 26.9269 26.42 28.8243
Au 28.9386 24.9319 27.4993
Pt 29.3111 20.0796 24.1242
Au 15.3679 29.0867 19.3659
Au 17.2683 26.2641 19.7367
Pt 17.3944 36.8646 26.3782
Au 18.3082 28.8563 27.3364
Au 15.0507 25.4703 28.9926
Au 30.6386 20.911 26.3687
Au 26.634 27.8111 24.0161
Au 24.608 19.877 25.9601
Au 32.4708 19.9573 29.4665
Pt 34.4758 15.6059 31.9766
Au 17.5402 18.4289 22.7649
Au 19.2211 22.289 20.727
Pt 12.2732 16.6835 26.7281
Au 16.9903 20.7373 21.2447
Au 19.7117 19.1895 25.0162
Pt 17.1758 31.2963 30.9841
Au 21.2174 34.7646 29.3406
Au 24.5145 28.794 33.0536
Au 23.0319 32.8271 27.5314
Au 25.3943 33.3838 32.493
Au 26.0605 17.8284 27.4615
Au 22.1385 15.609 23.4531
Au 28.3454 16.7328 28.5897
Au 21.9619 18.361 23.3366
Au 27.2535 19.5806 29.4048
Au 22.4979 27.8271 18.6662
Pt 18.363 28.6822 24.5047
Au 20.4442 28.3986 15.7573
Au 21.7847 28.1839 23.2522
Au 24.0768 31.6356 20.6576
Pt 25.4457 21.3715 21.508
Pt 20.883 19.2581 17.3673
Pt 23.331 20.2085 17.6803
Pt 24.5064 16.8653 22.4131
Au 23.9112 17.1559 25.1878
Au 28.6678 17.6879 31.1594
Au 23.5622 25.2794 27.506
Au 29.3587 17.5314 23.292
Au 23.8665 28.7023 21.2854
Au 16.8748 19.0307 25.5465
Au 20.3173 28.4911 29.2236
Au 19.5641 24.4597 18.8536
Au 17.2254 29.4276 17.2504
Pt 29.2418 24.558 20.9317
Au 30.0898 26.5368 25.5216
Pt 30.4897 24.3595 23.532
Pt 34.3837 21.9444 29.865
Pt 34.9078 23.4747 34.9759
Au 13.2635 24.145 20.518
Pt 11.2318 25.3081 22.1658
Au 17.9232 21.1044 24.0883
Pt 10.6379 25.0928 30.5099
Pt 14.9266 24.7421 35.5321
Au 20.359 32.9527 27.3752
Au 21.4777 32.7222 24.7764
Pt 24.0632 31.6932 25.005
Pt 25.8325 36.1883 33.3512
Au 28.5765 31.3622 30.2781
Au 15.1091 17.4905 21.5955
Pt 20.0239 12.1605 21.3139
Pt 24.2599 11.603 19.3408
Pt 27.5823 14.091 28.1951
Pt 30.0654 15.4677 31.98
Au 21.6749 19.3193 30.1645
Au 16.4904 19.3136 28.2413
Pt 19.0553 23.2369 35.5323
Au 19.1918 22.4548 32.8204
Au 20.9724 36.0367 32.0855
Au 26.9583 17.073 15.908
Pt 27.5023 19.493 17.0719
Au 24.5554 26.0789 12.9017
Au 25.0285 28.671 13.7992
Au 25.6337 32.9416 15.3939
Pt 34.8632 20.6699 34.8042
Au 27.9547 21.5093 35.2431
Au 25.5155 22.6674 35.3871
Au 23.3397 21.4914 30.1607
Au 25.0589 19.6674 31.232
Au 18.0019 25.0241 32.9532
Au 31.2452 25.0865 28.7959
Au 30.3715 24.0616 34.118
Pt 25.4321 25.1154 36.6195
Pt 28.9907 22.301 22.4627
Pt 27.9956 21.9376 17.8907
Pt 25.9066 20.7825 18.9705
Pt 31.7522 23.9461 19.1769
Au 25.182 23.715 18.6073
Au 26.7738 23.9713 16.4855
Pt 29.6442 29.9876 16.8811
Au 25.96 26.3013 15.1262
Pt 27.07 29.8831 17.9492
Pt 15.5542 22.6034 28.6744
Pt 16.0067 16.7211 26.9587
Au 19.2131 15.3728 30.84
Pt 13.8628 22.6566 34.2151
Pt 15.9542 26.9419 34.0503
Pt 18.7645 24.6503 38.0139
Pt 16.4216 31.4465 36.259
Pt 16.2216 30.4845 38.8982
Pt 18.5498 32.2245 33.0869
Au 20.8384 21.809 18.5
Pt 21.1452 26.0728 16.9915
Pt 24.6774 15.8984 16.917
Pt 13.799 25.1519 15.7045
Pt 18.9657 30.6774 15.534
Au 24.7848 23.5626 14.5108
Au 20.4717 32.4701 16.9608
Au 25.1296 30.2864 16.0862
Au 19.183 31.0046 8.16192
Au 27.9025 28.0702 26.8099
Au 32.8067 30.0906 23.3429
Au 28.8624 26.3903 23.0818
Au 31.4826 28.978 25.7523
Au 29.7655 30.4267 27.6439
Pt 26.9629 30.6537 27.9889
Au 25.3804 28.7764 29.0649
Au 33.4435 23.7678 27.899
Au 34.1033 28.7413 25.4691
Au 12.0102 33.3591 21.078
Au 15.7397 27.0496 17.4541
Au 14.899 24.6247 18.2768
Pt 18.5753 34.8861 27.9955
Au 16.4128 27.8932 21.8136
Au 19.3272 25.1156 21.5326
Au 18.8574 31.1236 28.7768
Au 15.5555 25.0781 21.9426
Au 17.6034 28.7226 30.0203
Au 29.8073 19.5081 28.6591
Pt 31.848 19.1069 23.756
Au 28.8646 22.824 25.2186
Au 29.3054 21.5347 30.66
Au 28.3449 22.1935 28.0697
Pt 33.0171 20.7818 22.0376
Au 33.5049 16.1006 27.5977
Au 33.6811 17.7458 30.5596
Pt 32.6255 22.2412 33.9989
Au 15.6068 15.0948 19.6447
Au 13.947 19.9587 20.5594
Pt 15.3598 23.0118 16.0514
Au 20.5607 13.2731 26.2598
Au 17.5864 16.9671 20.0487
Au 16.8198 23.585 20.0211
Au 15.3284 20.003 23.4639
Au 13.6951 26.7072 22.9412
Au 17.5075 23.3314 22.6714
Au 21.6512 26.2423 30.2258
Au 28.1857 28.8412 29.4802
Au 26.1066 32.793 29.7339
Au 26.0453 26.5002 34.0561
Au 21.4245 28.4552 33.0361
Au 21.1295 33.2162 32.4098
Pt 25.1318 33.7777 35.321
Au 23.1486 35.0871 33.5868
Au 28.0409 33.8806 31.3506
Pt 18.4138 12.9938 31.634
Au 27.1922 12.9267 22.6561
Au 19.7899 13.9852 23.773
Au 25.471 17.5292 32.881
Pt 24.7738 15.0218 31.5152
Au 22.4501 12.8791 23.5902
Pt 32.1016 16.9711 32.8057
Au 25.8496 12.6604 29.9476
Pt 29.8604 14.3328 29.5489
Au 21.662 31.6786 14.7593
Au 18.5403 27.0504 17.3604
Au 16.4058 31.5098 20.1956
Au 25.7701 27.4494 17.5612
Au 21.4657 34.855 17.9873
Au 21.2485 29.5918 20.7466
Au 25.6131 32.3119 18.268
Au 24.5721 26.3021 19.7717
Pt 22.7621 30.7576 22.8334
Au 20.1123 16.9727 18.842
Au 19.001 19.6548 19.4647
Pt 17.8993 13.6546 20.2326
Pt 26.9392 20.6345 23.4729
Pt 24.8895 16.791 19.6685
Au 19.9102 15.1369 21.2937
Pt 24.3525 19.1654 20.4221
Au 24.7751 14.5402 23.8426
Au 26.2663 15.115 21.1703
Pt 32.3073 19.4817 34.2166
Au 26.4842 27.5466 31.4616
Pt 31.7282 17.2256 35.4815
Pt 25.3327 31.2077 34.0518
Au 27.8354 19.967 32.3662
Au 32.2127 27.0525 30.3569
Pt 29.7675 22.1588 19.8779
Pt 29.1787 27.1592 20.4907
Au 29.4277 18.1425 26.1162
Au 28.2608 29.1449 22.1572
Au 26.8565 18.119 22.0023
Au 25.6414 30.3022 22.7582
Pt 14.1384 15.3773 28.2684
Pt 16.659 32.8529 28.9677
Pt 12.4809 16.0574 30.6778
Pt 19.0777 36.4214 30.1615
Pt 15.7223 16.8665 24.2182
Pt 14.9759 29.6281 31.243
Pt 19.3117 20.9601 16.1528
Pt 14.6245 27.6203 15.056
Pt 17.9247 12.2888 23.0654
Au 12.3454 28.8826 19.4646
Pt 18.2869 18.5607 16.9545
Au 19.09 31.5028 21.029
Pt 30.9164 26.4443 18.5516
Pt 37.8133 25.1104 18.6459
Au 36.2412 24.16 20.4863
Au 38.5047 23.5197 26.9869
Pt 40.6114 21.2276 27.6732
Pt 34.529 26.4027 31.7022
Pt 9.60606 23.3884 17.7455
Au 16.3324 19.3002 18.9985
Au 13.2941 24.0707 23.7519
Pt 11.5233 24.1124 26.0133
Pt 9.23562 21.3916 28.7542
Au 10.093 20.3731 35.9474
Au 21.2439 32.9585 21.907
Au 26.8611 35.1543 28.4439
Pt 24.2164 30.0645 27.0094
Pt 30.6908 34.4602 30.9156
Au 28.9607 33.3446 28.3525
Au 31.2605 33.8602 22.8862
Pt 17.5202 11.0166 20.7618
Pt 21.6429 11.8075 18.8368
Pt 18.6635 9.70513 22.5573
Au 27.5087 13.0316 25.4332
Au 29.7584 13.0896 26.981
Au 31.0532 17.2422 29.8361
Au 25.0743 14.2914 40.6158
Pt 21.4924 21.0673 38.784
Au 23.0735 27.4004 42.8878
Pt 13.509 25.4076 37.9221
Au 20.7028 30.9768 34.178
Au 20.9109 25.587 33.0302
Au 25.638 19.2821 14.849
Pt 26.4723 19.9838 8.38991
Pt 28.9663 25.1697 11.359
Au 22.5897 27.5506 11.5646
Pt 25.4281 28.0108 11.2404
Pt 23.7942 31.6578 9.0849
Pt 30.1497 22.4991 36.5239
Au 32.2504 15.8416 40.0248
Au 25.5027 21.3542 28.1712
Au 23.2519 20.8516 34.7264
Au 30.4324 24.1964 31.3572
Pt 37.0683 26.7539 35.4698
Au 24.6405 22.1588 32.6638
Au 29.0282 27.3394 34.7924
Pt 39.0464 20.9581 32.8116
Au 21.9616 20.9538 27.8306
Au 23.0308 31.0167 32.1139
Au 27.9002 22.8959 32.7888
Au 33.0969 24.5362 40.7215
Au 21.6269 23.2848 34.4489
Pt 31.6926 23.0458 21.5998
Au 28.0053 21.1908 15.0196
Au 26.0714 21.4749 13.1239
Au 29.9706 19.2335 16.0772
Au 33.3251 26.7176 16.8995
Pt 29.3219 24.2381 18.1884
Au 27.2718 24.4066 13.4987
Pt 25.0624 23.823 11.708
Pt 27.8045 31.5033 15.7429
Au 28.5148 26.0147 16.1845
Pt 28.2554 21.5558 9.20524
Au 29.6152 29.3754 14.0194
Au 27.5991 27.2315 12.9255
Au 27.034 30.5235 13.396
Pt 13.2072 25.7165 33.8228
Pt 20.8434 21.1345 35.8513
Au 19.9577 19.5505 33.5823
Au 17.3366 20.4038 32.8824
Au 17.0562 24.0624 30.4423
Pt 14.5084 19.9853 33.4959
Pt 18.7074 17.8324 35.6
Au 19.2297 27.1721 31.5277
Au 16.0937 26.8621 31.2996
Au 18.1687 26.1753 29.0235
Au 19.7701 24.3409 30.7791
Au 17.5794 31.8183 41.0042
Pt 17.5025 25.4255 35.6113
Pt 16.8863 34.1314 37.011
Au 15.0185 21.8845 18.7115
Pt 20.1555 21.5865 13.7447
Au 22.9139 22.7641 16.9047
Au 24.3222 19.2515 12.4191
Pt 11.7834 27.6864 15.3846
Au 19.9653 28.9949 10.2603
Au 19.9771 30.6184 12.7688
Pt 23.3014 21.9654 12.3874
Pt 15.366 28.6501 10.3136
Au 17.4719 28.1992 14.5831
Au 22.3491 24.7979 11.8209
Pt 17.3482 30.9444 13.4959
Pt 19.0564 33.0681 14.2855
Au 24.1288 31.3742 13.6659
Pt 32.2135 38.737 23.1423
Pt 33.8716 37.4961 19.3628
Pt 34.9538 33.07 19.6358
Au 33.8341 30.6648 20.721
Au 31.1639 31.4347 18.8014
Au 30.9414 31.0302 21.6715
Au 35.1173 25.087 26.1964
Pt 37.1983 27.6472 18.4243
Pt 31.7559 31.5535 34.6761
Pt 39.0202 27.7866 26.671
Au 36.6937 24.7343 23.0852
Au 32.4012 31.2724 27.1181
Pt 37.0588 25.5401 28.2668
Au 31.1252 22.345 28.7105
Pt 16.0372 34.6723 27.0107
Au 9.48105 34.6679 21.323
Pt 11.0523 31.5846 19.1962
Pt 12.9069 26.7672 17.5853
Pt 12.105 36.3652 25.4419
Pt 20.1176 30.3678 23.2964
Au 16.0317 27.383 27.1878
Pt 12.7914 32.8883 23.8948
Pt 14.1472 30.6647 24.3518
Au 14.0622 29.3038 21.9376
Au 14.1989 26.7444 20.1248
Pt 15.8765 31.5781 33.3214
Au 14.0615 23.7605 26.743
Au 13.5424 23.4115 30.1772
Pt 32.2937 13.4598 28.0057
Au 31.9819 18.5584 27.0019
Pt 31.3302 21.8414 23.9402
Pt 31.3951 25.9216 21.395
Pt 38.3187 18.0316 33.404
Au 31.2539 23.8557 26.1584
Pt 36.6359 21.4341 20.3817
Au 33.9145 24.8263 22.0445
Pt 29.6431 13.2037 36.1963
Au 36.1006 20.4212 26.4429
Pt 35.8123 19.6662 30.042
Pt 33.8116 20.1923 32.0282
Au 34.5941 18.697 27.9374
Pt 32.4771 14.3013 33.1777
Pt 17.6436 15.2837 25.2247
Pt 9.39475 19.0385 27.3883
Pt 11.1779 18.5182 25.2042
Pt 12.2274 24.1209 17.8443
Pt 15.9482 13.4397 24.3345
Pt 14.0872 15.1233 25.5114
Au 12.6395 21.6238 25.0205
Au 12.7409 19.5055 23.1195
Au 13.9235 18.0242 28.6254
Au 14.8657 22.3281 21.9292
Au 6.85102 20.0716 28.4918
Pt 15.1057 16.297 30.5324
Pt 10.8916 22.5347 30.3443
Au 14.6675 20.8805 26.7204
Pt 21.5791 36.0186 35.9357
Au 23.9577 35.5108 28.3651
Au 23.3492 33.6987 30.6781
Au 18.6848 37.1123 23.9546
Pt 30.2753 35.3735 37.7018
Au 19.7537 30.1603 31.5545
Pt 21.4364 33.359 35.8761
Au 24.0884 34.4991 25.462
Pt 25.5212 30.4785 36.5949
Pt 27.8787 36.4716 31.0594
Pt 27.4603 34.3197 34.2253
Au 30.0141 34.3307 25.7862
Au 32.7123 33.7107 25.2907
Au 33.9195 32.9082 22.662
Au 19.3266 19.7635 27.9818
Pt 21.2921 11.7754 28.4422
Au 23.3057 13.6346 28.9886
Pt 19.7412 10.5239 26.532
Au 23.4471 17.2215 30.6649
Pt 23.6166 12.2695 31.371
Au 20.8301 14.5817 28.6949
Pt 22.504 11.0151 21.4305
Pt 29.1069 16.9023 36.4271
Au 27.7813 16.1582 33.4573
Au 29.826 12.155 22.1549
Pt 28.3634 12.419 30.903
Pt 27.5184 14.9663 30.9119
Pt 30.7226 9.65407 22.2102
Pt 21.2498 33.2327 12.7154
Au 17.0028 33.6045 21.8324
Pt 13.1469 33.4136 18.2171
Pt 14.502 32.0661 22.1141
Au 23.2476 33.0796 16.7531
Pt 23.2921 35.9082 16.0886
Pt 19.2381 36.5344 18.5327
Pt 16.9672 35.6806 19.8143
Au 27.6574 34.819 19.2065
Au 26.0876 33.7525 21.1904
Au 23.7858 33.3358 22.8469
Au 28.6185 31.6593 23.1401
Au 28.3343 32.0207 25.9335
Au 28.9839 29.4438 24.8035
Pt 22.911 15.2274 15.0421
Au 22.2545 13.8357 20.7523
Pt 16.1111 12.3962 18.7411
Pt 13.0744 15.1203 20.7209
Au 28.423 11.2723 17.4066
Pt 24.67 14.2041 19.1872
Au 26.9462 12.3014 19.8829
Pt 25.4923 10.562 22.1126
Au 27.0955 15.6061 18.4922
Pt 22.7919 17.6455 18.259
Pt 25.7905 9.09179 24.3101
Au 24.5867 12.9585 21.6944
Au 29.2131 13.7291 18.5598
Au 28.9561 15.2654 20.8855
Pt 34.5241 18.105 33.3941
Pt 35.8973 24.2087 30.5205
Au 29.5874 18.1481 33.8474
Pt 34.0701 30.4408 34.1043
Pt 30.3182 15.2385 34.6356
Au 30.8246 28.2806 22.9455
Au 38.5192 16.0927 35.3025
Pt 29.8646 25.0689 36.7532
Au 26.502 21.9491 30.6462
Pt 32.5047 36.2498 32.4551
Au 30.1006 19.6962 36.0392
Au 26.0611 30.4058 31.3322
Au 30.7625 21.8153 17.1186
Au 34.4653 28.4442 18.9418
Pt 30.4173 20.1836 21.6757
Pt 29.2139 29.819 19.6898
Pt 27.1171 18.2769 19.3914
Au 33.6087 27.7938 21.8971
Pt 29.6749 19.752 18.7828
Au 33.7477 31.1194 17.9179
Pt 29.513 17.8851 20.639
Au 26.3 32.7052 23.9643
Au 29.2268 17.1545 17.7862
Pt 28.6882 27.7972 18.032
Au 14.0201 20.6464 29.5327
Pt 16.4268 33.8172 31.7768
Au 20.8615 16.0088 26.1126
Pt 14.2275 29.4485 26.6604
Pt 20.4152 11.1255 24.027
Au 19.8462 37.2998 27.5722
Au 15.4259 21.9236 31.6858
Pt 16.8269 33.6845 34.4352
Au 23.1875 14.3496 26.096
Au 18.9593 33.5665 30.5633
Au 22.868 18.9122 32.8444
Pt 19.7892 37.1991 34.3406
Au 12.102 21.7611 19.1764
Pt 14.9785 29.2712 12.8603
Au 17.9391 21.9646 18.2135
Pt 13.8072 29.2403 17.102
Au 17.2906 15.3438 22.4268
Pt 16.4313 33.8605 18.0625
Au 16.061 16.9284 17.4824
Au 18.2054 31.7938 18.1724
Au 18.3683 15.5594 17.1966
Au 13.6269 31.2563 19.7078
Pt 20.8531 16.7488 16.2008
Pt 18.2217 31.2374 10.7078
Au 36.0045 26.8907 20.8188
Pt 36.5297 22.5769 18.0105
Pt 39.7928 26.9064 18.7383
Au 33.4372 23.6022 24.4948
Pt 38.0019 21.0455 28.5009
Pt 33.171 24.3328 30.7017
Pt 41.0562 23.0152 25.7182
Au 15.3736 21.6919 8.20766
Pt 9.11778 21.8903 21.7484
Au 12.0841 22.1274 22.0812
Au 5.62584 21.1513 23.8789
Au 13.3094 26.7276 26.5463
Pt 10.9779 27.1256 32.078
Pt 12.6979 21.2772 32.0241
Pt 20.5511 39.9638 27.1767
Pt 22.766 39.7681 24.0794
Au 21.7916 35.4316 26.6407
Au 25.5957 36.8226 26.3207
Pt 30.0401 38.568 25.2032
Pt 31.3402 36.9903 27.1703
Au 38.2386 38.2832 23.8202
Pt 15.7685 13.0511 21.5311
Pt 21.2359 8.79575 22.7627
Pt 20.3658 9.65921 20.4052
Pt 25.7077 7.52533 26.7334
Au 28.1248 10.694 24.0335
Au 27.9894 9.9974 21.1629
Pt 30.7057 11.7859 24.6922
Au 17.5916 21.401 29.8942
Pt 24.2055 25.708 41.0722
Pt 23.2365 22.178 37.1051
Au 20.6988 28.558 35.9955
Pt 31.8243 29.327 38.4929
Pt 26.2957 27.355 40.6323
Pt 20.9003 30.9766 37.1079
Au 28.2026 18.8454 13.4308
Pt 27.1689 19.7407 11.0552
Au 28.7556 22.4705 4.95004
Au 27.1622 24.7432 5.21253
Pt 26.2636 27.7849 8.71186
Pt 25.7615 33.2958 10.0612
Au 21.7287 40.218 14.4648
Pt 37.6831 20.0653 35.0145
Au 22.6174 23.8848 31.5801
Pt 33.8825 18.6187 36.443
Au 25.8434 19.971 34.1131
Au 24.0617 24.5112 34.0897
Pt 38.6361 26.345 33.1315
Pt 32.316 22.9526 38.5216
Pt 27.7866 23.8204 37.601
Au 22.8127 28.7977 30.5525
Au 39.064 31.2225 34.9057
Au 22.8696 27.0369 35.0646
Pt 26.9799 29.1573 34.2397
Au 25.7818 24.6803 31.8535
Au 21.7274 32.8984 41.2452
Au 23.0809 29.8984 35.1005
Pt 37.0341 22.251 36.2408
Pt 24.0454 26.6708 38.4232
Au 30.4836 27.7367 28.0425
Au 20.3405 25.597 35.6648
Pt 25.1605 30.9052 39.188
Au 31.5783 24.6715 16.4903
Au 29.9793 25.6773 13.9132
Au 31.9971 23.0508 14.2435
Pt 32.8556 20.6131 15.7099
Au 29.6901 16.7503 14.8825
Au 34.3712 31.9578 10.685
Au 30.7722 27.537 15.7938
Pt 31.9173 26.9729 9.76385
Au 29.5819 22.8224 12.7969
Pt 25.0926 21.2266 10.4897
Pt 34.2248 32.1128 15.1153
Au 32.714 29.3656 10.9538
Au 30.2985 27.6741 11.873
Pt 27.4564 22.8411 11.1861
Pt 26.5782 25.7198 10.5402
Pt 28.1575 24.379 8.78621
Pt 27.0194 22.6404 7.03198
Pt 29.0327 31.2257 9.08987
Au 27.8449 29.1225 10.8003
Pt 24.2232 35.2847 11.4136
Pt 16.3203 18.6769 34.9202
Pt 16.6711 22.8961 34.2177
Pt 17.904 20.0582 39.8681
Au 20.7786 11.827 38.5965
Pt 21.3249 15.0804 35.7191
Au 9.39294 23.4847 35.9092
Pt 14.1053 27.3666 35.8527
Pt 13.896 22.8166 37.09
Pt 16.3763 14.0205 36.4539
Pt 22.4857 22.9078 41.0388
Au 11.547 29.6297 38.2469
Pt 15.2085 29.5473 34.6909
Pt 15.0918 23.865 39.3238
Pt 18.2032 20.7401 35.4106
Au 16.9231 38.3652 33.9627
Pt 16.485 28.5197 36.6768
Pt 18.5584 29.9063 37.8405
Pt 17.1946 25.4086 39.9203
Au 17.334 27.0059 42.0302
Pt 22.5081 30.862 39.4112
Pt 9.19045 21.1494 19.1497
Au 19.1954 25.8023 15.0785
Pt 18.039 19.9119 13.9124
Au 22.1152 23.4931 14.3754
Pt 28.7761 17.2795 11.0247
Pt 15.7229 23.846 13.3632
Pt 15.5515 26.6671 12.4324
Pt 17.8678 22.9721 14.8776
Pt 17.8418 22.4031 12.3141
Pt 24.4667 21.455 7.81977
Au 19.9002 28.4098 7.33116
Au 21.7667 27.2755 8.92221
Au 22.5756 30.2247 11.3528
Pt 25.7244 23.4242 9.1484
Au 13.786 31.08 9.78927
Pt 24.0521 25.8601 9.71319
Pt 23.2037 23.1284 9.86862
Pt 15.5594 30.1593 15.3363
Au 21.8402 30.0764 8.16142
Au 23.8544 27.3995 7.13767
Au 40.2109 33.1693 15.9524
Au 36.946 31.7254 24.6857
Au 35.5172 29.5986 22.9213
Pt 38.2508 31.6759 16.8092
Pt 36.2822 30.0015 17.561
Pt 36.8832 36.2337 24.8146
Pt 35.5307 33.9637 25.4904
Pt 39.5323 31.1729 20.54
Au 35.1918 26.8037 23.97
Pt 38.637 25.7381 21.197
Au 28.8191 29.0166 32.186
Au 35.5026 30.5185 27.2913
Au 37.0475 29.0355 25.178
Au 37.5865 25.9608 25.4521
Pt 35.1564 35.4497 31.6972
Au 34.2845 31.5062 25.0517
Pt 38.2885 30.2054 22.6662
Pt 38.2978 30.3627 27.238
Au 34.4532 26.0874 28.9583
Au 30.1341 21.2478 33.572
Au 18.6791 32.5511 23.8341
Au 8.33151 33.7492 25.5144
Au 10.7866 31.4038 14.5554
Au 7.36226 30.72 19.9714
Pt 10.3132 26.4939 26.8193
Pt 14.0485 33.6846 28.7114
Au 11.5119 38.0531 23.4652
Au 12.3599 35.4074 16.5019
Au 10.7199 32.9854 16.8534
Pt 10.241 27.9459 17.8528
Pt 9.8121 31.2541 26.8767
Au 14.844 40.3042 22.8006
Pt 12.5421 31.7138 26.4645
Au 15.5433 28.2163 24.4588
Pt 14.481 32.2563 30.8559
Au 17.5921 26.1147 23.5085
Au 14.0339 28.0932 29.0721
Au 15.9912 30.2194 28.5683
Au 15.3924 25.4884 24.9894
Au 8.0618 17.3044 31.8268
Pt 31.5702 14.2375 25.4919
Au 33.863 20.8424 24.632
Au 34.0969 22.6426 20.0698
Au 35.0152 24.9063 18.0766
Au 32.4438 28.5757 13.5443
Au 30.8222 15.901 27.5183
Au 34.1362 18.0817 25.3071
Au 37.6974 18.4693 25.3316
Au 37.6504 20.9158 23.1458
Au 38.5823 23.0494 21.5944
Pt 36.9562 14.7489 30.9499
Pt 34.8848 14.6297 22.4473
Pt 37.6212 14.808 28.1564
Au 38.7896 21.1524 25.6524
Pt 36.4484 15.7811 33.672
Au 40.1482 14.1457 27.4329
Pt 36.4966 17.4372 31.6051
Pt 33.9846 16.007 34.7769
Au 36.0354 22.8644 27.9865
Pt 34.6908 22.698 32.3965
Au 12.6365 10.5035 26.3281
Pt 12.7499 16.7934 23.6956
Pt 12.328 17.6691 21.1463
Au 8.70158 21.776 14.4641
Au 7.74432 19.602 15.9653
Pt 15.9711 13.9224 27.0349
Pt 11.5334 14.2482 25.9048
Pt 7.86225 19.8351 23.0756
Pt 10.0592 17.1847 19.8285
Pt 10.9303 19.9991 20.9509
Pt 15.0788 17.1969 33.0479
Pt 9.5774 16.2733 26.8964
Au 7.41426 15.7448 24.9347
Pt 10.1428 18.1386 22.6492
Pt 10.9297 17.4794 28.9767
Au 12.1042 19.7114 27.32
Pt 8.6083 24.5646 22.2856
Au 13.0253 12.8637 34.4757
Pt 8.28021 23.7198 29.9471
Au 8.28875 21.6355 34.0955
Pt 23.465 31.9773 37.0025
Au 20.2961 36.936 38.2592
Au 28.6769 43.0846 28.1872
Au 25.6928 32.6952 26.9876
Pt 17.221 37.8196 28.836
Pt 27.7594 31.2432 38.479
Pt 27.4364 31.8775 35.6584
Au 21.7451 41.7373 31.556
Pt 24.2998 38.1686 29.4661
Pt 21.7235 37.3715 29.6801
Pt 28.9223 36.1713 35.516
Pt 32.1133 36.4655 29.687
Au 31.7435 34.3425 27.9724
Pt 23.4854 37.2137 31.8148
Pt 26.0421 38.3172 31.4914
Pt 34.533 35.6692 28.9682
Au 25.3523 35.6073 30.7123
Pt 34.1599 37.6551 30.8436
Au 35.9393 40.097 28.2293
Pt 35.1236 38.0958 24.0538
Pt 20.4507 14.5624 38.3953
Au 22.0697 14.9198 31.2239
Pt 24.5227 11.1674 33.8114
Pt 24.0883 9.47966 26.37
Pt 18.7507 12.576 28.7825
Pt 22.7464 16.2285 33.5905
Pt 23.7256 15.6429 36.2625
Au 26.5596 6.70103 29.3798
Pt 22.6132 11.56 26.1068
Pt 19.197 8.37106 24.7656
Pt 31.5512 18.0926 37.8779
Au 26.175 13.1826 32.7339
Au 25.3723 15.3662 28.8284
Pt 26.5617 10.3769 26.5814
Pt 29.283 10.8595 33.0269
Au 29.3175 7.00546 29.9161
Au 25.2604 12.7361 27.1449
Au 24.235 9.60259 31.4123
Au 38.9925 11.905 28.649
Pt 29.4326 10.4127 26.6666
Pt 23.4799 34.2087 13.9447
Au 21.6584 32.003 19.3426
Pt 18.9836 33.6101 11.5683
Pt 17.2047 38.3683 19.0173
Pt 16.292 38.4998 24.2896
Au 29.5047 32.1798 13.6131
Pt 25.4703 37.3786 17.0632
Au 23.6351 34.188 19.5901
Pt 21.1036 38.4664 19.7141
Au 16.9654 34.9777 24.4533
Pt 21.3001 37.4703 14.4712
Pt 23.3703 37.5467 18.7251
Pt 23.3202 38.4138 21.5176
Au 23.7472 35.8658 21.7835
Au 26.9093 31.1365 20.4973
Pt 30.2363 34.0167 18.4652
Au 25.7692 35.4286 23.5047
Pt 32.2867 36.5469 21.6451
Pt 29.5378 36.0085 29.112
Au 31.5356 36.2345 24.4675
Pt 25.2076 14.8996 12.0774
Pt 24.618 12.5885 12.9588
Pt 23.617 13.2551 16.9114
Au 27.2343 9.45126 15.4748
Au 13.5529 12.547 16.6175
Pt 24.8032 16.8267 13.9173
Pt 28.1041 14.6797 15.8502
Au 21.8506 9.57458 14.807
Pt 25.8035 10.4847 17.5342
Pt 18.1681 12.7941 16.8224
Au 32.1498 11.6896 14.2059
Pt 25.5642 14.3447 14.8179
Au 25.6503 9.18067 19.7837
Pt 23.7046 8.50253 21.7785
Au 30.6771 9.54425 17.4528
Au 26.9283 6.6613 19.8165
Pt 26.653 6.48849 24.357
Au 29.9827 11.0073 19.6716
Au 29.5507 7.70289 20.5147
Au 27.2311 15.7183 23.5827
Au 35.8183 10.9357 33.1998
Au 31.2587 32.1261 29.5627
Pt 34.8041 13.5218 34.2964
Au 32.7089 26.4221 26.7358
Au 25.4864 10.2121 36.1594
Pt 33.919 32.9525 35.3299
Pt 33.9722 15.186 24.9348
Pt 29.6934 35.3502 33.1071
Pt 34.648 22.3486 37.3447
Au 35.8957 27.7298 27.2761
Au 33.8704 11.0923 35.2458
Pt 31.4463 29.0618 35.7169
Pt 34.5404 14.3182 29.4112
Pt 37.138 35.1875 29.7002
Pt 27.2075 16.9595 38.4565
Au 29.9151 30.4301 40.2128
Au 29.3812 10.4971 35.9225
Pt 28.215 37.7188 33.2711
Pt 29.0881 20.697 40.6325
Au 30.9458 26.6944 32.74
Pt 33.3565 26.0928 19.6873
Au 34.4336 30.5345 13.0049
Pt 32.1814 18.3978 20.803
Au 34.705 37.3838 14.469
Pt 31.401 16.0939 22.0457
Au 31.981 29.0047 17.6688
Au 29.7295 14.4746 23.5417
Au 28.6201 34.5326 23.2666
Au 29.3229 23.446 15.4769
Au 31.8355 30.7109 15.2224
Pt 33.4207 22.5965 17.4712
Pt 28.3894 32.1102 18.3225
Pt 34.0741 17.562 19.0497
Au 29.1172 32.88 20.7996
Pt 32.0679 18.7686 17.7742
Au 32.1042 31.9422 12.3306
Pt 31.3462 16.3455 19.1871
Au 26.5755 28.2806 20.184
Pt 33.0348 13.8544 15.6674
Pt 25.8677 33.4943 12.7169
Au 14.0495 18.4351 25.6016
Au 13.2943 26.197 31.0335
Pt 10.0405 20.6973 32.1697
Au 22.3463 40.4592 34.0359
Au 17.5146 17.0291 29.4113
Au 19.2201 40.9234 31.6522
Pt 18.3683 14.9725 27.7395
Au 19.5051 34.8415 25.3813
Au 13.3021 18.5787 31.4029
Au 15.6411 37.2978 36.2696
Au 15.9794 19.0048 30.9389
Au 17.5742 36.4025 38.3034
Au 20.767 17.3579 31.9298
Au 19.8167 41.7727 29.0311
Pt 18.6881 17.2519 38.4357
Pt 18.8816 32.3909 35.8496
Pt 15.5135 12.612 31.514
Au 18.4479 38.3279 36.4472
Pt 17.2424 19.3581 37.4502
Pt 19.7094 34.4757 34.3401
Pt 10.1628 20.9134 16.7463
Pt 13.092 27.2449 13.0076
Pt 9.17893 18.6349 17.9207
Pt 11.4038 30.1255 16.9335
Pt 11.6943 19.1705 18.5624
Au 14.6882 36.8422 15.5281
Au 13.8255 17.3711 19.0347
Au 12.3846 37.4105 18.7487
Au 14.1747 19.5648 17.3873
Au 9.38276 29.0758 15.4011
Pt 16.1343 15.8881 14.8261
Pt 11.4923 28.0078 22.0039
Pt 20.7533 14.035 16.1362
Pt 19.0001 36.9409 15.7842
Au 22.9406 20.7515 14.8894
Au 13.6394 26.5159 10.249
Pt 23.0816 10.6816 16.9388
Au 19.2118 33.9591 19.6425
Pt 23.1334 18.0995 15.6514
Au 19.6118 36.0872 10.4999
Pt 38.7615 26.3703 16.3859
Pt 38.1598 17.8124 22.6958
Pt 40.3664 21.9026 23.3755
Pt 40.066 26.4672 23.7573
Pt 39.8604 21.572 30.2855
Pt 36.9413 30.747 29.6086
Pt 36.719 30.1322 34.2516
Au 33.2212 28.7001 28.2634
Au 7.39563 22.0873 17.0224
Au 6.78238 24.7335 17.7767
Pt 11.5082 26.2668 24.5383
Pt 8.04037 22.3893 24.1536
Au 9.02788 18.8652 33.8951
Pt 8.68069 26.2241 28.9575
Au 9.3222 26.2938 36.127
Au 18.4284 17.4858 41.2926
Pt 15.4564 38.589 27.0522
Au 21.4506 42.6717 26.3365
Pt 23.0692 40.6443 26.7904
Au 22.8753 37.9467 27.1118
Au 20.9692 38.031 25.1683
Pt 29.3554 41.5237 23.8008
Au 34.3292 40.6572 23.6694
Au 29.8979 42.6976 21.2339
Au 19.3331 7.23608 21.6875
Pt 19.433 9.77064 29.0878
Au 16.7613 8.38373 20.8998
Pt 28.7722 9.78998 30.5583
Au 24.3375 5.6457 28.3761
Pt 28.0072 8.6002 28.1826
Pt 30.2121 7.52556 26.8713
Au 33.3699 8.56906 22.1498
Au 25.9692 16.942 42.7344
Pt 29.9111 23.3663 39.351
Au 24.0968 24.1623 43.3004
Pt 19.8136 21.96 40.4947
Pt 20.9549 23.3926 37.5686
Au 34.7099 29.5419 38.5953
Au 28.3197 20.7623 43.2818
Pt 28.5659 33.644 37.0455
Pt 30.7811 17.8133 12.6381
Pt 28.7387 18.8219 9.00265
Pt 26.3194 17.2732 8.91028
Au 30.0304 24.9065 5.58663
Pt 25.9436 25.44 7.55024
Pt 23.9972 29.0034 9.3501
Pt 21.5719 34.2954 10.2612
Pt 29.1332 36.7857 13.2766
Au 40.7579 24.6617 33.9704
Pt 31.2528 18.8972 40.2676
Au 39.785 22.1918 35.0705
Pt 27.5045 26.656 37.1022
Au 32.4293 13.4274 38.7022
Pt 25.3425 17.006 40.1817
Au 33.9331 30.9641 29.5734
Au 41.2354 27.3371 33.1816
Pt 34.4572 22.3429 39.9709
Pt 27.992 21.2552 38.0058
Pt 23.324 24.1932 38.9901
Au 30.6745 19.5093 42.696
Pt 32.4976 21.0659 36.3469
Pt 33.9142 25.0182 38.013
Au 25.8232 26.3186 43.1628
Pt 31.4778 25.5911 38.7296
Au 31.7041 21.8716 41.0314
Pt 36.7631 32.7397 34.3457
Pt 33.6036 28.9572 31.6556
Au 38.9392 20.8534 37.4247
Au 33.6302 20.022 41.3912
Pt 33.0945 27.4991 37.1868
Pt 26.0961 25.1379 39.2169
Au 26.4502 32.9809 40.4971
Pt 34.7478 33.0799 32.7624
Pt 34.5463 25.992 35.4584
Au 30.9996 29.543 30.3084
Pt 36.887 24.5224 16.122
Au 39.1222 22.9511 10.4914
Pt 32.2472 18.1805 14.8559
Pt 29.8122 20.3804 11.2761
Au 30.6309 20.5943 13.9272
Pt 31.2675 18.3194 10.1326
Au 35.9588 27.1047 16.0649
Au 34.1822 29.2526 15.7741
Pt 32.1661 22.2496 11.5122
Pt 33.0652 20.2789 9.80096
Pt 28.6937 20.4662 6.74902
Au 34.1496 21.5429 7.22113
Pt 35.7635 24.7903 10.5441
Au 32.5678 34.3002 10.5808
Au 31.5955 25.0458 11.8528
Au 34.8721 24.1932 7.81861
Au 30.3211 18.3169 6.83816
Au 30.0418 35.3692 9.42072
Au 35.4005 29.2472 10.7497
Pt 28.2711 28.9968 7.67959
Pt 30.719 25.1386 8.33592
Pt 28.9308 26.9565 9.48408
Au 33.013 26.1955 7.26371
Pt 26.4802 30.7539 9.01428
Au 30.4069 33.1049 7.77941
Au 25.1509 29.9265 6.93493
Pt 26.4914 36.3465 12.4721
Au 9.78881 16.2016 33.6489
Au 14.2074 19.416 40.0619
Au 22.4043 13.4873 40.1377
Au 14.72 10.6388 33.4668
Au 24.0433 21.4211 42.8832
Pt 15.6683 13.2839 34.0525
Pt 17.4714 22.8373 39.8486
Au 12.7063 24.4702 40.3077
Pt 16.9197 15.9659 34.6214
Au 20.6692 22.3307 42.9943
Au 19.387 19.8447 42.3827
Pt 25.5643 22.6151 38.2718
Pt 21.3116 38.9827 31.8806
Pt 16.0607 25.9906 37.6756
Au 16.4434 19.404 41.8668
Pt 18.7215 27.2423 37.3197
Pt 22.8881 24.7941 36.489
Pt 18.163 35.6007 32.5997
Au 13.538 29.66 40.2195
Pt 14.3902 27.9594 38.4285
Au 15.9619 29.4342 41.4031
Au 14.8574 35.5746 38.2469
Au 12.6116 31.9796 39.0267
Au 14.7643 26.5311 40.6793
Pt 20.7137 28.8526 39.0014
Au 27.8026 35.1121 39.1875
Pt 18.2449 29.9563 35.0976
Au 15.8465 26.37 8.60799
Pt 15.1615 22.0588 11.1252
Au 10.2294 21.1882 11.9109
Au 17.1265 19.2604 8.54926
Pt 21.5861 18.2754 10.2782
Pt 20.4554 15.5805 13.832
Pt 17.5223 28.9002 11.8727
Au 14.1271 24.0372 9.16176
Pt 16.1598 24.4886 10.7562
Au 19.8108 27.7717 13.0307
Au 24.9578 14.8179 9.33545
Au 22.0755 14.6967 9.34882
Au 17.5955 28.7187 8.74892
Au 19.7307 23.6976 6.71519
Pt 19.9079 24.1828 13.0614
Pt 21.2069 24.5465 9.01708
Pt 22.2472 20.6978 9.80693
Au 21.6454 32.844 7.93544
Au 16.6305 33.5443 10.0392
Au 20.4248 20.9412 6.06941
Pt 20.8901 22.5451 11.3035
Au 22.1813 23.4769 5.28041
Au 24.3596 25.5794 5.21377
Pt 23.5738 24.3603 7.49358
Au 16.3265 31.0801 8.79042
Au 26.3532 27.6315 5.87272
Pt 23.4643 32.8176 11.4081
Au 36.6102 39.8132 22.285
Au 38.2875 38.1033 20.8844
Pt 37.1599 34.5138 18.0963
Au 41.3508 31.7472 22.6269
Pt 39.0606 29.6314 18.3274
Pt 35.4571 28.1577 13.5751
Au 37.4633 37.015 31.7055
Au 33.1772 39.3307 15.7739
Pt 34.118 35.667 23.6175
Au 42.4439 29.8008 24.3271
Pt 40.8907 24.4492 22.4353
Pt 41.2703 22.2717 20.8557
Pt 36.438 36.6968 22.2021
Pt 34.4314 38.3564 21.631
Pt 39.3912 33.382 18.5875
Pt 36.5721 29.6234 20.3258
Au 42.866 24.4496 20.6636
Au 30.9009 31.6192 24.7518
Au 32.4423 26.2594 24.0279
Au 38.9554 35.7262 22.617
Au 42.2691 18.044 24.2971
Pt 37.0829 32.8968 27.5739
Pt 34.5042 35.2256 20.9804
Au 37.6927 27.5247 22.989
Pt 39.6207 26.0897 28.7962
Au 43.1112 28.5231 27.9271
Pt 31.6208 26.3558 35.3713
Pt 14.8128 33.9134 20.255
Au 17.4283 40.4135 28.1591
Au 7.25729 30.0292 26.5796
Au 17.0932 35.8303 11.71
Pt 9.0188 25.693 18.8433
Pt 10.448 23.3746 23.8241
Au 17.5413 41.3879 23.7853
Pt 14.42 35.5092 31.0417
Au 13.6048 39.1023 25.0303
Pt 9.30509 31.774 21.4809
Au 6.61053 26.0566 23.5544
Pt 7.35535 28.7183 24.1898
Pt 14.5875 36.394 28.369
Au 10.1013 35.5023 29.5609
Au 9.69759 35.9315 26.8672
Pt 11.1633 30.8276 24.4359
Pt 12.537 28.6355 24.5574
Au 15.9006 40.8129 25.754
Pt 11.9669 35.314 23.0752