2057
Atoms. Timestep: 20789
Au 33.9135 31.8699 14.0351
Au 10.9911 16.0286 15.1497
Au 12.5608 27.3353 14.4289
Au 30.9502 37.351 17.2337
Au 8.4193 30.9878 15.9279
Pt 24.4341 27.1816 29.6709
Au 14.4838 16.1461 11.1303
Au 13.3228 30.1176 6.86603
Au 17.2226 23.5649 6.55374
Au 35.9963 25.7673 8.76303
Au 38.1601 31.2316 16.2717
Au 28.0272 31.2689 11.6593
Au 29.0155 37.5219 12.0033
Au 41.3676 19.7099 16.426
Au 9.69685 26.5651 15.3478
Au 27.5404 40.9631 30.2158
Pt 13.0623 18.4606 21.0949
Au 16.7466 30.9232 8.8456
Au 33.6039 26.8503 12.822
Pt 20.891 34.9037 28.8181
Pt 34.6028 31.6482 17.9109
Au 23.0206 13.9804 37.4963
Au 29.1692 20.0934 9.81975
Au 7.18951 25.5944 16.0189
Au 31.3847 12.9789 34.0208
Au 18.2871 12.9562 34.0108
Au 18.4406 34.1231 12.1836
Au 31.1509 15.6699 28.7178
Au 19.2116 37.8474 19.7256
Au 16.7356 28.8585 10.724
Pt 36.5117 34.3794 27.8863
Au 18.2385 27.8857 5.53546
Au 14.3053 9.49747 21.9504
Au 16.3004 27.5278 14.2908
Au 24.7528 12.001 12.6244
Au 20.384 32.2129 5.9318
Au 34.2674 21.0285 10.8455
Au 7.45627 28.3734 15.7377
Au 18.9137 38.6866 17.0037
Au 30.4989 7.7205 31.2451
Pt 31.3988 29.1161 31.2463
Au 26.9667 41.8131 20.5585
Au 29.0875 12.9818 36.0754
Pt 34.2892 27.6347 29.1522
Au 31.7382 29.1159 6.63243
Au 22.082 39.406 14.1357
Au 21.5143 38.7292 18.5689
Au 21.3143 37.4977 16.1522
Pt 31.3226 33.1855 26.4759
Au 27.079 4.97361 27.7441
Pt 10.2697 20.0568 24.9266
Au 31.3444 41.4244 22.9012
Pt 21.4952 38.9403 27.0103
Pt 18.3963 31.7495 26.3674
Au 27.9519 25.0202 8.23171
Pt 29.4517 29.9222 29.2548
Au 19.1846 35.9468 17.5682
Au 30.7473 31.1369 13.2646
Au 35.3348 37.1309 18.8821
Pt 22.3634 22.9019 16.1125
Au 21.9706 12.3097 13.0513
Au 8.64967 27.1059 20.0754
Au 16.6596 24.0719 9.34949
Au 26.9879 32.133 7.72628
Pt 12.8869 35.8507 26.549
Pt 18.8621 26.7486 40.5142
Pt 14.8455 24.1405 27.2004
Au 18.9358 8.3434 32.2288
Au 33.8711 21.0483 8.14314
Au 23.1389 35.3522 16.4004
Au 39.0283 20.6856 11.3057
Au 27.9116 29.798 9.2773
Au 19.8735 35.108 20.3448
Au 21.0423 33.9286 13.4688
Au 13.408 14.5261 32.0791
Au 31.0958 26.5903 11.45
Au 17.1808 40.1725 32.7942
Au 21.8539 18.1313 14.2081
Au 17.1163 39.6577 18.7927
Au 29.8291 10.5713 28.7179
Au 26.7593 28.5247 11.5297
Pt 32.5573 33.8138 31.8505
Pt 34.5912 25.6506 31.1152
Au 11.8606 30.8186 9.30036
Au 23.8615 22.0182 7.80205
Au 39.2386 22.4949 13.2954
Au 27.0352 19.9555 14.2543
Au 22.8112 33.1333 6.38029
Au 44.3017 25.5272 20.7715
Au 16.8638 17.1169 12.1971
Pt 13.5586 30.3544 36.0284
Au 31.2069 20.904 7.86372
Au 17.9526 32.915 21.5252
Au 25.2581 40.6078 18.2749
Au 10.4755 26.6169 9.84747
Pt 24.1311 22.3729 18.0476
Pt 9.37524 32.7293 24.6361
Au 36.4577 27.1908 12.8561
Au 17.032 26.9554 17.3781
Au 27.8984 34.9457 12.1242
Au 26.0585 30.4392 13.4891
Au 13.4165 9.81996 31.9128
Au 26.6522 22.5512 7.78348
Pt 34.1017 25.9814 16.5163
Au 25.0442 28.817 5.74083
Au 32.8942 38.317 19.2104
Pt 29.966 35.2505 33.9321
Au 22.5097 33.4176 18.5964
Au 16.0996 23.3955 12.5761
Au 27.9091 8.46368 29.1934
Au 31.4431 23.6364 6.7895
Au 16.2676 26.1134 11.4788
Au 23.1214 14.6186 32.8682
Pt 37.7406 23.9646 21.8597
Au 8.62947 29.791 27.2362
Au 27.5976 34.7963 8.25901
Pt 24.2593 18.4827 30.3046
Au 19.1367 12.4509 13.7257
Au 6.23584 25.975 20.6467
Pt 13.9518 32.5028 23.7625
Au 18.1144 28.513 8.20679
Au 19.5466 38.3326 14.0821
Au 20.9093 26.6995 13.5352
Au 6.14806 27.3641 22.956
Au 27.1795 37.0586 14.0717
Au 11.3744 24.0004 10.4029
Au 43.5908 20.3825 27.0371
Au 14.7712 30.346 20.1432
Au 20.6733 10.6546 15.0576
Au 17.7937 35.7424 21.87
Pt 31.937 26.4372 31.0775
Au 30.5977 25.3442 8.90607
Au 26.3773 20.7317 9.92228
Au 31.6045 33.2315 9.49511
Pt 22.3788 16.3467 19.4563
Pt 38.6631 23.9324 24.5816
Pt 27.1507 13.7384 24.597
Pt 21.4062 11.355 21.4545
Au 20.051 41.3788 26.5155
Au 12.454 22.9158 18.0888
Au 19.197 15.7945 35.8334
Au 10.38 27.7685 12.8692
Au 18.9625 24.5871 16.5718
Au 18.3516 23.0003 14.231
Au 13.7648 27.2233 6.91705
Au 19.6196 30.7716 8.02209
Au 16.8749 34.6335 16.4961
Pt 35.0008 27.9655 15.0108
Au 16.1351 28.544 21.7709
Pt 29.9548 18.6511 18.6982
Pt 32.4438 39.0049 23.8891
Pt 26.5215 21.7514 32.1289
Au 41.0237 24.8705 14.023
Pt 11.6973 33.8169 25.3603
Au 35.221 39.7224 20.1635
Pt 17.5097 26.4214 30.8138
Pt 21.7281 34.0768 24.5958
Au 15.0267 35.5715 34.0513
Au 21.5837 15.0209 10.1724
Pt 33.1176 23.5028 31.675
Pt 38.635 21.0369 33.2455
Au 11.6768 28.3192 8.12684
Au 18.8965 33.7596 24.1169
Pt 22.4602 11.7158 18.8896
Pt 18.7425 19.4188 21.0731
Pt 33.8085 31.8285 26.8938
Pt 27.2264 12.0467 13.5355
Au 23.0581 27.934 17.5092
Au 14.4253 25.4719 13.5234
Pt 29.1293 21.4941 15.3057
Au 24.6921 13.2826 30.7285
Au 21.5897 32.4034 8.79666
Au 23.8101 16.049 9.25344
Pt 38.415 21.1921 21.0356
Au 15.223 35.7404 20.6703
Au 32.5154 36.0521 15.1075
Au 21.0911 39.9887 21.2409
Pt 32.5113 17.9721 19.1205
Au 37.5561 13.8169 32.2333
Au 17.3548 34.3614 19.2111
Au 24.5975 8.20598 29.0424
Au 25.4125 26.5753 16.6123
Au 15.5391 21.9299 7.87913
Au 15.9721 24.387 18.0246
Au 24.5908 10.9 29.4099
Pt 26.103 24.5922 32.8886
Pt 39.3673 30.5373 23.2277
Pt 32.8319 17.0295 26.8184
Pt 31.154 21.847 21.7858
Pt 35.621 21.5519 17.3129
Au 12.2366 36.5307 19.0203
Au 25.2911 7.00766 32.3961
Pt 39.6521 26.3039 25.7217
Au 27.4753 29.7913 6.46136
Pt 30.0562 15.3937 34.843
Pt 21.0028 24.5986 24.7393
Pt 24.3267 26.8444 32.5032
Au 18.2404 29.9448 15.0557
Pt 23.3728 22.0786 30.3149
Pt 17.9182 22.726 38.3111
Pt 14.9911 26.1345 28.9581
Pt 24.9564 22.3473 25.2447
Pt 21.6794 31.0226 36.7575
Pt 25.9907 28.7422 36.9765
Au 10.0413 31.697 13.793
Pt 24.63 10.3858 18.1133
Pt 15.5132 16.3173 27.7438
Pt 23.5782 20.7525 20.1877
Pt 28.8597 17.9467 20.9972
Au 8.27879 29.5303 13.4289
Au 12.0705 28.6292 10.8163
Au 6.18723 25.4737 24.9008
Au 14.1128 32.3912 13.3272
Au 42.8003 26.0951 16.2639
Au 18.374 25.5446 13.1698
Au 19.2843 35.6646 14.7395
Au 29.3505 38.7628 30.9437
Au 19.8245 32.626 19.2762
Pt 40.7316 17.3372 25.5298
Au 33.0433 29.937 19.6929
Au 32.3 24.9752 14.5285
Au 21.8854 36.6676 13.6585
Au 19.5653 13.8615 11.4604
Au 16.2744 19.3016 8.09773
Au 6.51549 28.761 20.5934
Pt 12.2005 15.7278 25.1924
Au 14.1329 32.0397 8.67889
Au 25.0798 35.3277 9.3057
Au 24.3085 42.0014 20.4042
Au 27.2477 7.93432 22.1993
Au 28.6967 9.13742 26.6042
Au 14.5153 26.5838 16.2906
Pt 15.6561 17.0702 17.5494
Au 32.6896 24.2736 11.7513
Au 19.5915 29.5563 10.4703
Au 20.9062 28.2875 8.22013
Pt 37.1592 30.3604 24.7012
Au 16.2289 34.4093 13.8645
Au 9.83348 33.788 32.4195
Pt 38.645 30.1128 27.7002
Au 30.138 33.3144 11.8391
Au 11.7637 32.2858 11.7215
Pt 23.5819 24.9258 17.7399
Au 23.848 38.4719 12.3727
Au 10.6359 12.2563 22.4912
Au 43.7707 24.3968 18.178
Au 15.9989 31.7828 15.3594
Au 10.4746 35.8156 21.0697
Au 23.0397 41.5129 22.6463
Au 33.9435 16.4964 9.52788
Au 21.5815 27.5628 10.8211
Au 22.7845 36.28 11.0246
Au 23.5271 6.13974 30.4991
Au 22.0744 31.3279 20.3705
Au 14.4561 35.2971 18.079
Pt 27.4311 34.2721 23.1364
Au 31.4364 16.167 8.51021
Au 35.8916 11.4771 20.4582
Pt 23.9158 22.4345 27.8105
Au 27.8427 18.2957 43.5908
Au 15.4782 32.6443 18.0472
Au 22.5678 15.1152 40.0942
Pt 38.7793 24.248 15.3738
Au 30.9114 15.2899 24.2287
Pt 37.4937 17.4133 16.3063
Au 7.60203 23.4091 33.6003
Pt 12.9471 20.2855 25.7314
Au 31.1909 8.28967 20.092
Au 28.6591 27.1593 9.92441
Au 32.6614 30.7486 8.66605
Au 7.2204 29.9144 18.154
Au 22.6149 35.02 8.41605
Au 10.2147 33.2037 16.2415
Au 22.5827 30.1026 10.1232
Au 22.1718 34.7363 39.6846
Pt 25.1433 24.3421 38.3819
Au 6.7395 27.1945 18.1615
Au 22.6241 24.5056 6.81714
Pt 25.7312 20.0293 26.793
Pt 37.891 16.7161 21.9073
Pt 14.6431 15.6957 34.5659
Au 33.0637 34.1617 11.6642
Pt 25.351 11.292 15.4603
Au 22.6042 19.6105 8.07307
Au 18.5485 18.9823 35.1611
Pt 40.9102 24.333 17.3462
Au 24.3434 5.73388 27.9016
Pt 33.0011 21.1511 30.2274
Pt 20.5379 32.7311 22.2709
Au 30.9577 10.4685 35.5931
Au 18.5835 31.1531 12.5002
Pt 37.1791 29.5359 21.9152
Pt 34.5481 37.269 24.0842
Au 18.8513 18.4388 7.98949
Au 25.869 33.192 13.0016
Au 11.3236 24.2193 20.2702
Au 10.4325 22.6669 12.6643
Pt 15.1142 11.4755 25.3975
Pt 14.3445 27.7674 36.2685
Pt 17.3052 21.8436 24.2385
Pt 27.7049 25.0562 28.2723
Pt 15.5332 13.1198 19.8564
Pt 15.372 26.716 23.7532
Pt 19.1809 9.54849 21.4223
Pt 13.8214 25.9294 34.4624
Pt 11.2968 14.7202 22.8188
Au 22.2076 40.5902 25.0022
Pt 11.3311 24.9432 34.9479
Au 16.6509 16.8871 9.3418
Pt 24.5788 35.8042 26.4243
Pt 41.9316 19.6698 24.8591
Au 29.9828 24.0017 11.4105
Au 29.6101 12.8053 24.3966
Pt 37.4529 14.9529 26.0613
Pt 26.399 19.0759 31.9625
Pt 27.8354 27.6781 20.2256
Au 17.958 32.9469 7.14805
Au 10.3523 23.3041 16.3294
Pt 23.4788 35.5355 29.0259
Pt 15.6069 19.9886 25.2347
Au 21.1345 17.7099 9.34071
Au 20.5271 20.8872 14.1538
Au 13.6019 20.3706 13.035
Pt 13.1988 24.0878 32.6856
Pt 22.8361 38.0081 35.7489
Au 23.5922 39.2939 20.2115
Au 36.6645 29.9122 18.1871
Pt 26.1554 14.6793 13.5056
Pt 18.3091 26.5867 24.621
Pt 11.5309 18.1611 26.545
Au 23.0198 17.862 40.6976
Au 33.2421 11.3902 15.7794
Au 23.8662 28.955 12.5972
Au 29.1962 6.42259 26.927
Pt 32.419 27.822 38.3604
Au 36.3373 19.9383 39.6718
Pt 13.523 26.4367 26.3489
Au 31.4315 22.2922 13.5834
Au 21.2549 7.34028 18.6728
Au 14.5477 8.90905 27.3159
Pt 23.4905 25.9985 23.9978
Pt 23.3062 19.7869 28.0114
Au 14.1409 17.5522 8.87152
Pt 24.6153 19.8841 17.7386
Pt 34.2821 16.3239 31.9355
Pt 32.5513 19.7681 38.6001
Au 24.3959 15.5934 35.3821
Au 23.1828 30.082 15.2321
Au 28.9987 32.7377 9.36694
Au 22.7953 5.33435 23.4426
Pt 26.8512 18.3545 29.4759
Au 23.0228 32.7567 15.7537
Au 19.0467 29.5119 17.7302
Pt 35.5535 15.8403 27.6355
Au 26.2724 6.23375 29.9415
Au 20.5259 33.7644 16.5215
Au 40.5977 22.2237 15.739
Au 27.0295 27.3749 41.9903
Au 16.1927 19.6032 13.3689
Pt 37.5321 26.6007 15.2691
Au 25.7392 27.0216 13.6661
Au 16.461 14.4978 36.3257
Au 28.793 21.3737 12.478
Au 34.8876 27.7096 42.033
Pt 24.1283 16.4304 13.5805
Au 15.4472 21.8903 14.8467
Pt 19.3363 12.3025 20.1631
Pt 32.6187 27.3264 20.8821
Au 8.68447 20.2837 20.4381
Pt 29.7391 39.3178 23.6461
Au 22.6487 28.075 5.03737
Au 44.7342 18.1711 21.8603
Au 24.0532 37.6127 17.845
Pt 39.0553 26.9123 31.2837
Pt 15.5213 30.9501 31.0346
Au 29.4224 13.4183 28.9447
Au 28.1509 26.0054 12.4021
Au 19.9565 11.0479 35.1705
Pt 15.9103 35.0027 36.7602
Pt 16.7544 20.0986 30.8795
Au 6.94341 22.4963 20.4697
Au 22.4534 41.2231 18.5647
Au 26.9543 40.9156 16.0321
Au 18.8034 26.6389 10.3684
Au 18.1059 17.7261 40.5162
Pt 26.3883 24.545 35.6605
Pt 15.5631 14.9934 22.4852
Au 9.38388 31.3535 22.2979
Pt 23.9125 25.2129 34.6313
Au 19.4264 30.3942 20.9769
Au 18.3823 40.3443 21.186
Pt 22.0281 36.3753 26.7664
Au 42.2199 30.9353 26.6324
Au 24.3685 35.0847 41.4466
Pt 18.3305 16.6775 17.1962
Pt 13.5465 31.2183 26.3605
Au 18.1082 14.9941 13.5101
Au 5.7823 22.7848 24.8142
Pt 28.1657 31.9042 30.4047
Pt 14.8739 16.6442 20.3789
Au 35.6335 11.8629 32.1438
Pt 35.4817 30.4141 15.7378
Pt 26.4478 36.0169 18.0716
Pt 31.6853 17.8583 16.3037
Au 13.5051 27.9441 21.3227
Au 18.3784 21.0616 7.16976
Au 27.0158 24.5488 5.65233
Au 28.0313 30.6081 16.4814
Pt 28.2461 36.261 24.8675
Pt 28.1793 32.0862 21.1339
Pt 38.7267 23.7749 31.5525
Au 15.9761 35.2913 11.2585
Au 28.8136 27.918 17.311
Pt 33.2947 28.8454 34.3506
Au 30.2499 26.8424 14.0598
Pt 26.5192 40.2116 27.533
Au 12.8333 31.5091 21.6168
Pt 11.6206 22.2311 24.3461
Pt 20.9183 27.2373 23.9189
Pt 15.1868 15.415 25.1555
Pt 19.2314 29.3029 39.8997
Au 12.7789 34.3377 20.557
Pt 33.1093 15.0921 14.7658
Pt 13.4317 24.5809 24.5052
Au 27.2833 36.7663 10.0648
Au 22.7911 17.2229 11.4477
Pt 26.1888 16.4759 31.2979
Au 29.5037 24.1159 14.1718
Au 20.9215 40.3452 16.3799
Pt 36.484 18.7644 20.8106
Au 20.6583 36.8544 9.43119
Pt 22.8083 11.8043 16.2689
Pt 34.0437 23.3414 15.8904
Pt 35.1823 25.3204 28.1995
Au 32.408 23.1932 9.2338
Pt 33.565 19.3641 25.4254
Au 38.2822 37.4204 23.0257
Pt 33.8242 23.522 26.7657
Au 14.6266 24.6353 7.59779
Pt 37.2359 26.7131 21.8904
Pt 29.9973 26.9122 22.0131
Au 21.2217 28.89 19.4949
Pt 28.0484 14.6848 27.0259
Pt 26.1089 11.3324 24.9106
Pt 11.9367 22.1432 34.1414
Pt 28.8086 31.1627 38.4206
Pt 12.0843 15.9866 20.2346
Pt 25.4992 17.8796 25.1225
Pt 13.8017 20.2614 23.0945
Au 16.9981 14.7367 11.0134
Au 26.6485 14.5979 20.8654
Au 15.5593 36.6323 38.9503
Au 18.2785 39.5682 35.2991
Au 15.4448 13.25 33.7307
Pt 18.1156 16.0949 31.3989
Pt 18.8835 37.9211 33.1224
Au 20.6752 26.5468 6.00805
Pt 13.7365 23.3801 29.7059
Au 24.6694 26.0793 5.41168
Au 29.7314 41.9745 25.1392
Au 20.9076 28.702 15.7428
Pt 21.1418 19.8269 25.9487
Au 12.0023 25.3109 8.00585
Pt 20.5345 39.3789 31.1738
Au 18.6628 7.79038 19.2806
Pt 36.0708 23.2292 31.4699
Pt 23.959 17.4204 32.7904
Pt 32.6026 17.5024 23.8492
Au 9.73434 22.3856 22.0821
Au 32.6396 12.8979 12.6247
Au 35.4394 24.9923 14.2037
Au 23.1914 23.331 12.3669
Pt 32.3845 18.7432 28.9096
Au 16.9807 7.94221 28.3626
Pt 27.4284 17.462 27.1757
Au 28.9394 9.89464 31.3613
Pt 19.3069 29.1097 25.2209
Au 30.7867 8.35172 25.0852
Pt 30.9198 15.0131 12.8201
Pt 20.6707 15.6659 24.4616
Au 24.0668 7.67318 18.4082
Au 18.817 27.103 15.3803
Pt 31.5732 17.2337 30.9143
Pt 33.6125 35.6332 20.5525
Pt 15.5806 23.6592 34.1824
Pt 28.5369 37.7515 18.792
Au 18.707 41.4303 30.9048
Pt 15.3211 36.0236 25.5483
Pt 11.7129 31.3228 24.2282
Au 15.4797 19.0497 10.7535
Pt 31.5048 30.8408 28.0652
Pt 28.1054 31.0281 23.6718
Pt 21.7666 26.8402 33.6923
Au 29.5747 28.8041 12.1225
Au 12.3387 28.3737 17.0273
Au 13.014 22.7552 8.65407
Au 16.4753 12.851 14.6148
Au 29.265 34.7925 14.4761
Au 26.4355 27.4496 7.97564
Pt 21.2558 21.3729 28.3524
Au 20.4179 14.197 38.569
Pt 17.2067 16.9457 21.6736
Pt 18.0041 20.5385 15.0644
Au 40.7292 16.3228 19.2412
Pt 23.9897 8.37601 26.4876
Au 14.6309 19.3419 15.8469
Pt 13.4476 23.5305 35.6626
Au 31.0438 39.5745 35.4061
Pt 24.4267 13.3876 24.9432
Pt 25.0292 22.2682 21.7746
Au 21.6411 16.4177 37.3678
Au 40.5177 30.5709 17.3923
Au 25.1899 30.9135 10.9087
Pt 33.2026 20.9261 32.7818
Pt 26.684 34.2896 25.8651
Au 40.737 27.0763 18.524
Pt 25.5132 24.0423 19.5652
Pt 23.2055 23.6638 40.1599
Au 7.29656 27.8098 32.457
Au 23.1279 30.3722 41.6061
Pt 33.8646 29.4644 37.0304
Au 18.8334 17.9012 37.6914
Pt 34.9996 21.5286 24.7005
Au 25.5686 12.9139 27.4797
Au 21.5199 16.8321 31.5533
Au 11.2815 17.3614 12.8871
Au 32.622 40.8256 20.4091
Pt 19.0232 22.858 28.3728
Pt 31.1882 20.3328 16.879
Pt 29.9677 15.1601 31.3938
Au 28.2946 15.9256 12.1274
Pt 32.9117 28.0287 24.4679
Au 25.7727 24.4547 12.6018
Pt 15.1637 17.7755 23.4418
Au 27.2957 27.1778 5.45237
Au 26.6846 12.1934 34.9674
Pt 35.6761 15.7187 15.1793
Au 28.2125 32.2827 14.2139
Pt 19.2394 34.7275 35.8747
Au 43.0274 23.5537 15.6188
Pt 20.7837 31.5024 24.9457
Pt 17.7058 24.3755 36.0912
Au 18.7449 32.6263 9.86437
Au 19.8726 16.6302 11.8608
Pt 33.0859 38.0053 26.331
Au 26.9902 22.9737 14.5005
Au 18.5074 23.6028 11.2767
Au 6.37666 25.2381 32.1242
Pt 16.8941 28.169 39.5511
Au 31.2684 21.4757 10.947
Pt 17.0932 18.166 32.9272
Au 27.6968 25.807 15.3643
Pt 25.4961 34.013 28.4296
Au 36.1139 12.9581 27.5254
Pt 24.9335 29.3577 26.1837
Au 14.1282 17.6724 13.3384
Au 21.6313 27.9491 41.1169
Au 20.8219 25.5591 8.63409
Au 15.5075 36.9845 23.0967
Pt 16.2071 14.7327 16.5416
Pt 19.9159 16.2495 14.9435
Au 42.5799 21.8681 17.9444
Pt 29.1774 39.956 28.1957
Pt 36.4521 17.6533 13.6044
Au 13.5796 25.5235 18.8678
Pt 30.7416 29.9907 17.7762
Pt 28.6673 28.7511 37.182
Pt 21.8393 26.2645 36.3644
Au 25.189 24.9063 7.80509
Pt 26.8092 21.0679 16.7427
Au 23.2756 20.8021 10.516
Au 27.4514 13.9987 30.854
Au 15.5835 31.707 6.51556
Pt 18.5094 29.541 34.7922
Pt 15.6225 24.3593 31.2754
Pt 14.1125 17.7564 25.9839
Pt 24.2686 18.2785 19.8316
Au 30.7356 31.1377 40.4416
Au 34.1923 32.8944 9.4536
Pt 24.4637 30.875 36.794
Pt 23.6616 33.4138 36.3686
Au 43.9301 24.9005 25.2605
Pt 27.217 18.058 23.0701
Pt 11.2096 20.1138 22.2966
Pt 26.9241 30.1695 27.8755
Pt 25.8073 32.1603 22.6942
Au 29.7584 12.4288 12.2992
Au 24.012 14.407 11.5977
Pt 28.9718 29.5885 21.7756
Au 24.3645 10.9194 33.132
Pt 30.4586 25.7198 27.4291
Pt 18.3772 12.6458 27.6468
Au 33.5185 14.2558 27.9973
Pt 34.2163 26.252 19.182
Pt 26.2959 33.5395 36.483
Pt 20.598 30.8376 33.882
Au 16.017 26.7966 8.75394
Pt 23.6634 19.8535 25.1715
Au 20.4585 29.4484 5.67759
Au 28.523 10.0749 24.0235
Pt 32.2691 19.1556 10.0139
Pt 28.1146 39.8651 25.5629
Au 41.8683 29.3357 19.4753
Pt 11.2575 24.4807 30.7506
Au 23.3095 25.441 9.72464
Pt 37.5238 14.4622 23.3612
Au 20.3254 7.03961 21.2687
Au 25.7128 32.0831 15.7123
Pt 30.2284 17.6866 33.3085
Pt 23.4854 24.5757 26.1593
Pt 26.9798 33.7322 32.0437
Au 20.6999 31.4219 14.6983
Au 44.1824 22.1011 25.0441
Au 17.2641 31.0663 19.5407
Pt 24.4451 22.7352 36.0139
Au 9.30269 29.829 19.9615
Au 41.0757 29.0027 31.5128
Au 12.4576 20.078 17.704
Pt 18.0803 36.2719 37.7104
Pt 37.8202 17.137 24.5516
Au 27.3128 11.5396 29.4443
Au 24.1039 30.9034 17.8431
Pt 36.9297 16.3505 31.5857
Au 29.1945 9.62217 18.2953
Au 39.5573 15.7186 16.687
Au 23.6064 39.8063 16.3141
Pt 31.7013 20.4644 19.5542
Au 16.6849 36.9979 18.2868
Au 23.5647 33.5772 11.0277
Au 32.0365 26.5067 6.96814
Pt 39.2252 19.4309 25.4539
Au 10.7869 32.2724 19.9981
Pt 38.163 22.6691 17.3772
Pt 39.6265 25.1167 29.3635
Au 19.0729 15.8776 9.42437
Au 12.1333 21.5751 15.1375
Pt 20.2945 10.0534 19.072
Pt 26.2596 19.8825 21.2671
Pt 28.9913 11.7087 15.4451
Pt 30.8584 31.4318 20.5069
Pt 32.6587 19.9398 12.7724
Au 19.3613 38.8764 37.8054
Pt 30.4855 28.5212 19.9158
Pt 16.669 10.512 27.5732
Pt 24.6583 31.8235 27.3076
Pt 25.8419 24.301 23.4127
Au 26.077 10.0679 27.261
Pt 21.5886 25.5689 16.079
Au 17.8218 32.6493 40.5074
Pt 12.9466 34.5739 32.0703
Pt 20.6429 16.297 26.9943
Pt 18.7889 27.3706 27.2903
Pt 21.1649 23.6075 30.2617
Au 11.1384 36.2784 23.7553
Pt 25.5939 39.9072 21.8988
Pt 26.2654 28.838 18.337
Pt 23.6814 27.1449 26.8811
Au 14.6921 36.3184 15.5295
Pt 23.8328 31.65 31.9982
Pt 26.9789 36.1713 27.6923
Pt 28.3625 26.4978 39.8506
Au 31.7149 12.7182 36.8428
Pt 10.859 31.4903 26.7378
Pt 21.2514 23.8351 27.4055
Au 18.0663 7.53755 22.9593
Pt 18.7884 11.6368 22.9972
Au 17.4892 10.1212 18.4705
Pt 25.885 15.723 23.331
Pt 13.6844 16.7121 30.2922
Pt 13.6976 20.9305 20.32
Pt 34.9193 18.8006 27.7083
Pt 24.0785 11.1641 20.9615
Pt 21.6257 21.6785 18.421
Au 14.3431 29.3777 15.1482
Au 29.7735 14.4629 10.3733
Au 18.3076 20.9659 12.281
Pt 24.1604 15.8469 21.437
Au 34.4703 10.8599 22.8671
Pt 10.0408 17.2214 24.5639
Pt 31.1641 19.0301 21.6295
Pt 24.4604 18.9017 15.0007
Au 35.4527 24.9954 11.3978
Au 28.3457 39.3982 35.8072
Au 40.6577 20.138 13.6427
Au 28.2139 11.9631 26.6852
Au 29.6908 35.3904 10.0914
Pt 28.496 36.3861 16.4419
Pt 29.9112 29.0994 24.1925
Pt 32.8491 26.4392 26.8185
Pt 23.0549 32.6078 22.7228
Pt 35.2949 33.7054 25.4823
Au 26.5056 33.299 10.3233
Pt 32.9972 32.8391 24.4452
Au 21.1985 21.6824 7.04048
Au 20.8392 34.3835 10.5796
Au 35.1223 23.2498 9.35926
Au 7.69776 18.4105 25.4665
Pt 32.322 31.2476 35.6238
Au 28.3056 39.1367 21.0895
Pt 33.0803 15.1256 22.392
Pt 29.9695 19.676 39.7196
Au 19.6764 40.6727 18.8488
Au 18.9096 13.4125 30.7419
Au 23.3791 31.7365 13.0723
Au 7.3918 28.1221 25.3414
Au 8.46753 27.9362 11.1202
Au 12.9544 39.4612 26.7102
Pt 9.81553 31.6226 29.1658
Pt 20.1987 32.1436 29.2493
Au 10.6319 35.2472 28.0323
Au 9.25808 25.4048 17.9396
Au 13.3437 37.9016 24.522
Pt 20.0161 36.7739 31.0286
Pt 22.3315 20.1357 16.1791
Au 36.548 33.2189 36.1625
Pt 8.43483 25.8898 23.2953
Au 25.9714 9.6382 13.4289
Pt 12.4571 19.6239 33.6333
Au 26.5418 7.3898 27.0128
Au 14.0985 30.7535 11.1336
Au 30.2911 29.3622 15.2155
Au 17.446 21.2301 9.72712
Au 14.841 28.6638 41.0662
Pt 29.0043 20.7229 20.5247
Au 17.4253 40.9268 25.6526
Au 24.8493 18.9373 12.2738
Au 35.205 14.1308 30.4247
Au 14.5187 39.2706 22.1356
Au 13.7495 30.6184 17.5916
Au 29.5866 25.4912 6.06736
Au 29.6592 20.0547 42.5489
Au 26.5376 38.6963 11.8692
Au 6.69307 19.699 27.7689
Pt 37.8037 21.6303 23.8725
Pt 39.7113 15.279 24.4349
Pt 27.494 23.9291 39.3054
Au 12.3427 31.5421 15.4377
Pt 34.1053 13.9548 33.1299
Au 43.2266 17.7556 26.5864
Pt 33.386 33.5593 16.3
Pt 25.4825 29.7922 34.3379
Au 38.0692 21.9163 38.6505
Pt 31.262 30.0686 37.8439
Au 22.3043 6.18715 26.0425
Pt 10.8273 27.0049 27.1484
Pt 17.3805 14.9478 29.0263
Au 37.0297 12.4398 18.1566
Au 17.7867 41.7588 28.24
Pt 24.8611 17.5263 27.8764
Pt 22.8281 17.5043 26.2153
Pt 17.1433 38.9921 28.1494
Pt 15.5365 24.2348 22.7259
Pt 17.088 29.5763 26.8735
Pt 10.2415 20.7889 32.5572
Pt 20.495 21.046 34.7583
Au 9.3232 14.6585 24.6379
Pt 20.9867 24.271 18.4449
Pt 18.9261 38.6559 26.0505
Au 13.8274 19.0516 37.3217
Pt 19.7709 24.0179 21.012
Au 14.7393 32.2478 37.7852
Pt 19.0355 33.064 33.3358
Au 17.0886 39.3888 23.3997
Pt 19.8451 36.3672 12.0085
Au 24.3144 27.8073 41.5989
Au 28.8444 22.1444 41.0497
Au 24.1298 24.5531 14.8654
Pt 20.3051 35.5259 33.436
Pt 24.5102 29.2818 31.19
Pt 27.6992 20.0455 36.3847
Au 23.1477 32.1782 39.0447
Pt 23.1783 31.2833 34.5634
Pt 29.6545 21.8733 32.8158
Pt 25.7333 27.0255 24.8484
Pt 32.1338 36.4719 22.6712
Au 24.9342 13.5732 39.6373
Pt 30.7709 36.7561 20.0769
Pt 25.6373 20.0028 34.3457
Pt 29.0416 23.8908 26.2166
Au 25.7972 16.4731 11.1288
Pt 34.6341 26.4737 22.3906
Au 37.1853 29.2069 38.0849
Pt 35.2653 36.3231 26.5146
Pt 32.588 25.1193 38.1333
Au 23.0763 20.7556 13.3843
Pt 12.1075 19.1004 31.0134
Pt 21.7406 29.9572 39.2762
Pt 12.8957 22.706 22.1888
Pt 26.5378 36.0281 37.3504
Pt 24.949 34.5919 22.0477
Au 14.9673 10.5513 33.9507
Pt 26.2836 12.0797 19.9099
Pt 23.5436 11.1077 26.1272
Pt 31.1786 13.5706 19.351
Au 20.1583 26.9215 17.9365
Au 11.4734 12.052 28.1225
Pt 23.959 29.0196 19.814
Pt 34.1974 18.1045 11.839
Au 41.9811 22.4462 13.3369
Au 20.8052 22.0863 11.6683
Au 22.6576 10.4235 35.5511
Au 27.943 7.28148 31.8946
Pt 28.1277 12.58 22.0782
Pt 30.6011 28.4493 26.6006
Au 24.7621 37.878 9.95035
Pt 41.912 26.9799 21.1561
Pt 25.0271 24.946 28.2713
Pt 21.1258 26.4701 26.528
Au 17.9506 30.5785 5.87937
Pt 34.5777 23.0012 29.3098
Au 34.0483 40.832 22.6787
Pt 14.0999 20.9655 35.3374
Au 9.51701 25.3017 11.9972
Pt 25.9873 15.2676 28.8367
Pt 18.9214 22.6676 18.9706
Pt 27.2471 36.3543 21.0427
Au 24.7442 23.2431 5.64877
Au 15.1864 33.0285 20.83
Pt 12.1686 29.1094 30.9872
Au 30.1286 37.5064 14.5051
Pt 37.1203 33.5853 31.2169
Pt 36.1294 22.4451 36.8646
Au 24.3136 32.4557 8.64825
Pt 20.707 11.49 26.588
Pt 14.584 37.5453 27.6545
Pt 19.9066 22.0001 16.4919
Au 34.9068 13.1088 14.0625
Au 16.0861 17.8317 38.5423
Pt 35.1028 24.2378 21.2135
Pt 19.026 18.5052 30.6243
Au 9.07491 16.7317 27.0687
Pt 16.8539 28.0655 28.9619
Pt 21.3898 11.464 24.1096
Au 18.9465 18.474 13.62
Pt 24.0939 13.6704 20.0039
Au 29.3397 15.6245 37.3833
Pt 38.9448 17.2608 29.8769
Au 28.9721 6.03477 29.5882
Au 15.4607 11.9995 17.1207
Pt 19.273 15.3561 20.8931
Au 26.2859 30.0641 20.859
Au 9.42191 28.2817 17.606
Au 25.4334 18.1829 42.3687
Au 40.1418 18.6956 32.7569
Au 12.5586 33.0933 18.0136
Pt 22.4887 25.5376 28.9035
Au 25.0002 15.9414 40.974
Au 30.6625 7.98164 28.4941
Pt 34.9605 20.1084 37.3858
Pt 25.6046 20.7107 29.5563
Pt 17.7014 24.7453 33.2337
Pt 24.5598 32.481 20.2627
Au 36.123 33.1968 16.111
Au 12.1211 18.7456 15.121
Pt 25.292 40.1104 24.5522
Pt 33.8735 16.3182 17.2148
Pt 29.3369 30.8797 26.5298
Pt 35.4529 16.2596 20.3881
Au 24.1342 11.5208 37.7806
Au 25.8317 14.3899 33.2065
Pt 25.6002 32.5669 34.1937
Pt 29.1672 21.7734 38.2318
Au 30.2603 12.3577 31.3995
Pt 38.0417 19.806 28.4116
Au 44.8217 21.0067 22.4572
Pt 28.2268 26.5196 25.9448
Au 22.4866 33.0196 41.7698
Pt 33.8133 28.2656 31.7361
Au 6.19854 26.2582 27.4554
Au 12.7975 15.2064 13.3612
Au 14.8845 21.7324 10.733
Au 40.9095 22.1723 31.7114
Au 33.9216 15.4295 38.6144
Pt 34.5307 20.009 19.6586
Pt 31.8856 27.3931 18.1161
Pt 37.0202 27.8155 28.7561
Au 37.9063 26.5868 10.6348
Pt 39.9133 20.9828 18.4732
Au 35.3885 32.5961 11.7826
Pt 31.103 28.2824 35.858
Au 12.0706 35.3577 16.4853
Pt 34.4276 34.6482 23.0806
Pt 27.3229 38.2939 29.1504
Au 35.7156 10.8296 25.3492
Au 12.7626 18.5806 11.0117
Pt 24.0229 20.2585 32.1814
Au 32.3362 28.6698 41.1014
Au 28.183 39.5293 13.901
Au 24.6814 38.9835 38.726
Pt 29.1995 34.8303 27.0284
Au 35.434 27.8 10.4287
Au 27.4795 23.2866 10.7011
Au 7.09477 34.0931 25.2685
Au 30.8551 10.9895 26.0455
Au 25.5467 42.4919 22.9129
Au 37.3724 35.4364 19.4975
Au 10.7197 35.9786 30.701
Pt 19.2617 20.7524 37.1451
Pt 28.6834 17.7176 35.5168
Pt 23.6742 38.0933 25.4262
Au 15.4123 23.6907 39.1884
Pt 14.5023 33.6537 26.0551
Pt 28.7018 36.5207 36.0645
Pt 26.4077 21.6453 19.3515
Pt 30.9528 32.7136 33.708
Pt 27.4802 25.7287 18.2935
Pt 16.7037 28.9537 24.3552
Pt 21.6893 15.9583 22.0033
Au 26.4665 38.3623 16.6045
Au 12.1113 14.7749 34.6364
Au 14.3642 37.1542 36.4862
Au 28.271 20.4068 7.29882
Au 12.0966 21.3154 10.8362
Pt 30.8145 22.9959 19.243
Pt 25.1293 26.6611 19.3985
Pt 12.3643 25.1878 28.3657
Pt 17.652 36.0059 29.9794
Au 31.9531 9.78214 30.3016
Au 8.70314 35.0103 23.1226
Pt 13.2946 16.2265 22.6727
Au 32.9207 28.8676 10.9795
Pt 30.8416 11.7057 17.3296
Au 27.9459 40.4249 18.528
Pt 39.7172 28.469 21.2733
Pt 35.8368 28.1679 24.0455
Pt 39.2584 23.349 19.6213
Pt 26.6764 28.1711 32.4446
Pt 19.5593 21.4257 30.6529
Pt 28.4099 24.9358 23.7624
Pt 26.2992 24.671 25.9154
Au 34.038 15.4645 12.2933
Au 11.3507 26.9889 19.2179
Au 25.9507 40.4902 34.877
Pt 18.3316 27.2549 33.5442
Pt 21.8167 18.6643 21.235
Au 17.2784 30.213 41.5222
Pt 18.3214 25.4183 19.2232
Au 30.7748 40.2665 32.7246
Au 33.0089 11.9521 31.6316
Pt 26.9994 20.6854 39.3403
Au 23.0465 40.9834 34.0445
Pt 27.6689 32.6064 27.7379
Au 24.3397 37.3305 14.9003
Au 12.3345 29.9748 13.1908
Pt 26.0177 36.1976 30.1521
Au 30.4921 35.3931 37.9742
Au 22.9556 37.3278 40.2678
Au 26.9499 11.4631 37.7871
Pt 9.88738 20.2964 29.9901
Au 21.1698 18.8005 36.1457
Pt 37.7284 17.4751 27.1919
Au 42.3536 15.1995 25.9111
Pt 16.5057 19.906 36.6233
Pt 20.3115 18.8109 28.1375
Au 38.4954 15.8503 14.1397
Au 6.33903 29.7974 30.6648
Pt 29.7147 31.0378 35.8524
Au 36.7252 27.1702 40.0412
Pt 23.773 18.2187 35.496
Pt 35.2517 27.0268 33.7037
Au 36.2594 28.5048 35.6256
Au 38.9546 21.6659 35.9978
Pt 28.8202 22.7212 28.8257
Pt 28.7739 18.8715 16.3354
Pt 37.6842 18.9975 31.5439
Pt 33.0369 21.8881 17.8892
Au 39.9014 14.9383 21.5
Pt 33.5196 15.1794 25.1712
Pt 28.736 10.1028 21.0965
Pt 35.2941 27.3268 26.4651
Pt 24.8104 37.3054 21.7683
Au 42.0629 24.0601 29.7858
Pt 29.6499 37.9389 33.7539
Au 22.4406 12.4931 39.7032
Pt 22.2877 17.3177 28.9101
Au 11.8069 27.7824 35.1775
Pt 29.3829 13.9079 17.0642
Au 44.8093 23.805 22.9461
Au 19.3332 9.46867 27.6362
Pt 18.1359 17.4251 27.9779
Pt 14.4796 23.3745 20.1134
Pt 31.213 17.4432 38.4
Au 38.4061 14.8504 34.8248
Pt 31.0446 16.4153 21.3725
Pt 33.2552 29.0983 27.0359
Au 28.5035 13.4716 38.8275
Pt 19.9518 25.8681 31.8393
Au 32.7619 26.1049 42.4086
Pt 28.1892 36.2868 31.979
Pt 19.7971 31.8108 38.7682
Au 37.3099 14.337 20.5552
Au 17.1415 8.42961 25.6736
Pt 36.4223 27.6947 31.3233
Pt 37.1549 25.4334 32.8445
Au 11.5783 11.7644 30.9687
Pt 30.7386 34.5747 16.8403
Pt 23.1014 28.5696 37.5436
Au 22.5686 42.4958 27.4895
Pt 19.2746 20.1031 18.5531
Au 36.6066 14.7129 12.7805
Pt 38.7092 28.5043 16.9762
Pt 40.4904 21.8735 25.0869
Au 33.0977 9.80411 24.9387
Pt 22.5777 15.7546 15.5036
Au 34.5448 11.5372 29.3379
Au 30.5406 30.6848 10.4128
Pt 13.4742 26.7011 9.64661
Pt 41.2607 28.5829 23.2825
Pt 24.5493 8.64031 21.7827
Au 35.1146 30.4415 9.99652
Pt 39.7532 23.8769 27.0337
Au 32.4423 14.2964 10.3317
Au 25.2623 6.13004 22.6904
Au 16.7502 17.2703 15.0276
Au 42.5444 21.4037 29.5052
Au 43.8877 22.816 20.5585
Au 29.4766 22.725 8.88979
Pt 22.432 14.2722 17.6816
Pt 31.1898 13.1252 14.897
Pt 32.4496 24.6306 20.6212
Au 40.6319 13.2014 25.8117
Pt 24.3481 18.3358 22.6317
Au 38.694 12.1687 20.7484
Au 41.9122 27.4831 14.0911
Pt 29.2378 27.5478 30.8883
Au 10.737 14.0364 32.3122
Au 29.703 11.1991 37.9413
Au 29.8475 26.9545 42.2314
Au 21.1049 13.8128 35.5429
Au 23.8241 42.2738 30.1487
Pt 17.1442 22.2736 32.2728
Pt 15.4036 16.3923 32.2032
Au 15.635 38.8797 34.7139
Pt 23.837 15.8162 30.3859
Au 18.7466 13.056 36.794
Au 23.3639 8.77908 31.4405
Pt 22.1729 24.5237 32.529
Pt 21.8765 37.2747 21.2393
Pt 27.1487 31.0656 36.0755
Au 44.5059 19.3275 24.4964
Pt 27.6625 29.0204 25.6528
Pt 35.5472 18.329 33.1947
Pt 33.5274 36.5618 31.385
Au 22.2097 20.9779 40.484
Pt 22.3834 26.1989 19.6531
Au 23.9361 8.45683 34.143
Au 21.8049 12.1968 33.4835
Au 11.3511 29.2862 22.5665
Au 37.235 12.3194 29.9454
Pt 11.1947 21.3391 19.9339
Au 17.0131 27.7212 42.4411
Pt 22.5784 24.1133 37.5069
Au 25.8639 6.72309 20.1194
Pt 25.9979 23.8191 16.8708
Au 7.68854 20.7231 32.9983
Au 25.5234 19.9859 7.39962
Pt 23.9743 13.5986 14.6869
Pt 28.2597 23.4976 19.6105
Pt 27.9795 16.7633 18.4301
Au 33.6548 9.80609 20.2932
Pt 22.6293 23.3234 20.4162
Au 14.3683 28.0259 12.1998
Au 14.1784 24.3918 10.5803
Au 19.4904 8.90761 16.8624
Au 23.6747 34.616 13.6954
Au 18.3869 25.3559 4.81102
Pt 30.2907 18.8402 11.9389
Pt 8.64959 25.8012 26.101
Pt 17.5502 13.6516 21.6669
Au 23.8083 40.3935 36.5696
Au 16.0835 30.1264 13.1259
Au 29.1425 39.2425 16.3877
Pt 27.6657 22.5963 22.0897
Au 31.4172 10.7276 13.7694
Au 28.0353 33.8373 38.4643
Pt 27.0936 14.2132 18.2589
Au 18.3063 35.4913 9.78736
Au 9.98181 30.2141 11.4144
Pt 11.5118 26.3507 32.7294
Au 40.1724 31.6336 31.0563
Au 41.955 14.5799 23.2921
Pt 34.6498 23.7887 18.5908
Au 36.3643 16.6838 10.9722
Pt 37.6777 30.9334 32.0144
Pt 36.3128 17.7662 29.5532
Au 25.7844 36.8215 39.8918
Au 25.0564 34.2142 38.8874
Pt 24.4459 33.7203 24.6673
Au 34.9836 35.2658 35.4394
Pt 33.423 26.7246 35.9724
Pt 29.076 33.6531 35.9584
Pt 26.2071 27.4011 27.6514
Pt 31.5498 17.7597 35.6143
Pt 36.0342 29.9766 30.1261
Pt 33.7658 22.4008 38.3299
Au 43.8269 17.4396 19.3213
Au 24.9813 31.5248 5.98557
Au 11.4652 24.7086 14.1504
Au 37.8685 26.6601 37.531
Au 41.3623 33.5173 25.6791
Pt 40.1585 26.6344 15.8551
Pt 32.6999 29.3377 13.6543
Au 27.9056 28.5027 14.3462
Pt 25.6886 36.2277 24.0226
Au 39.1818 14.0458 18.691
Pt 24.2706 22.7528 33.2126
Pt 17.4922 33.1544 37.6614
Au 10.9809 37.6434 26.1257
Au 8.46508 27.2979 28.5573
Au 19.6425 7.11629 26.5319
Pt 16.9576 22.3645 26.8038
Pt 19.8614 18.9487 16.2585
Au 18.2076 32.1205 17.1529
Pt 18.649 14.0561 16.0235
Au 23.4623 26.1098 12.3544
Pt 15.2872 35.384 31.1631
Au 7.73899 26.7817 13.4872
Pt 22.2835 9.86799 28.1851
Pt 10.8621 29.2677 28.4433
Au 6.97284 24.4496 29.5213
Au 8.62891 33.7306 20.7665
Pt 33.7141 23.9682 36.0557
Pt 17.9637 11.1498 25.4998