2057
Atoms. Timestep: 20835
Au 20.4101 25.0847 7.83672
Au 25.2002 17.4704 8.37292
Au 27.7059 25.6191 15.7376
Au 13.0286 34.8184 23.1849
Au 35.7707 32.3595 12.4526
Pt 16.4114 21.0455 35.6358
Au 41.3141 26.7571 15.2259
Au 13.8473 39.6299 21.7901
Au 40.7897 24.1556 14.6546
Au 23.5788 9.33284 35.3237
Au 41.2107 20.7851 21.0054
Au 42.5967 26.9534 17.6617
Au 20.4513 24.7526 5.05925
Au 37.0198 31.9814 36.6066
Au 16.629 41.3428 25.2854
Au 22.095 38.9503 35.4425
Pt 17.0278 24.601 18.5316
Au 31.5354 39.444 16.9383
Au 34.8151 15.2386 13.3053
Pt 30.9357 23.2666 22.6325
Pt 39.3922 22.0314 16.8444
Au 17.9281 17.9024 6.13915
Au 7.49601 24.868 20.7161
Au 13.542 37.1733 16.7996
Au 11.3926 14.09 15.9309
Au 8.94135 32.0262 28.5171
Au 27.7598 18.8244 8.08706
Au 7.75097 20.5672 24.0661
Au 28.2906 43.1605 23.159
Au 30.3178 21.9613 13.4282
Pt 35.4928 32.3643 27.6199
Au 29.6151 41.2522 24.5213
Au 14.33 30.7024 40.0698
Au 11.4713 16.9622 16.2526
Au 26.3633 24.3223 11.9732
Au 17.079 27.5709 15.5381
Au 18.1583 20.7767 18.0806
Au 34.8394 42.0227 27.1433
Au 27.7708 31.4162 19.5118
Au 39.8252 20.9608 14.3041
Pt 26.3774 11.8436 15.7608
Au 18.1896 23.0089 43.3608
Au 31.8192 43.2586 30.5358
Pt 21.0967 30.3083 20.7527
Au 23.8699 40.9006 26.5332
Au 20.9931 29.2565 11.9543
Au 38.2115 23.2353 14.8195
Au 18.8718 26.9946 8.97115
Pt 21.9795 30.3015 36.786
Au 16.4532 17.9339 18.5919
Pt 16.2655 13.1336 21.6262
Au 38.1476 38.5908 28.3678
Pt 27.7564 28.661 19.5439
Pt 22.3691 13.3085 36.9096
Au 30.4762 10.9783 16.8382
Pt 21.9156 12.7309 18.1804
Au 29.4019 38.5925 23.3148
Au 12.6679 25.2719 22.7877
Au 18.1109 25.6702 13.5296
Pt 37.3962 28.2028 30.7867
Au 16.966 31.7361 10.7438
Au 18.1872 41.8064 20.6409
Au 5.92591 26.3 27.1026
Au 9.81751 25.3264 19.4028
Pt 21.7692 23.3821 39.2845
Pt 10.0274 28.5622 29.6525
Pt 18.1694 21.962 23.2186
Au 23.8048 7.54994 33.2798
Au 30.4094 19.6611 7.69065
Au 28.5436 25.3706 10.6741
Au 22.7464 9.37024 12.5702
Au 40.6657 23.7003 33.7959
Au 18.0174 21.8722 8.04883
Au 25.3842 27.4473 8.01892
Au 13.0123 22.6198 16.1614
Au 42.3793 30.1482 21.3523
Au 37.4154 34.2032 28.3269
Au 13.3052 10.0863 17.3479
Au 23.6598 27.9185 5.90045
Au 31.9468 15.2575 39.3521
Au 20.0454 31.7781 11.2818
Pt 18.9368 39.8315 24.8267
Pt 31.113 36.0601 18.9571
Au 16.626 18.7164 10.599
Au 6.6386 25.1813 29.5368
Au 34.0027 17.5722 9.59965
Au 29.5418 37.589 16.6998
Au 25.2488 43.9228 29.8864
Au 25.3663 41.8592 20.315
Au 16.5308 27.4872 7.77338
Pt 19.4861 32.2245 20.0787
Au 30.1858 26.4958 7.21463
Au 12.8037 20.4092 10.3516
Au 42.0959 25.013 31.6864
Au 36.1791 17.9682 37.6261
Pt 16.9431 23.4903 27.3905
Pt 19.4728 16.9346 23.9377
Au 8.74565 33.2432 19.4298
Au 17.2193 19.9044 13.1772
Au 34.4603 31.8646 14.7702
Au 23.9759 37.8443 11.8643
Au 18.5136 17.4602 13.8808
Au 16.3025 29.6586 17.6491
Pt 36.9982 22.2961 36.4185
Au 44.5002 26.5922 23.1627
Au 18.0625 35.2867 14.577
Pt 40.3237 24.9419 29.6919
Au 18.1085 20.5213 20.8488
Au 17.9093 18.9528 16.1712
Au 16.5517 13.2015 36.5853
Au 32.8497 34.2936 15.6912
Au 23.0295 10.8656 15.3043
Au 27.6987 5.80995 20.1841
Pt 21.4138 33.0164 21.9783
Au 19.6399 15.0252 14.5518
Au 24.5395 20.1503 12.2924
Pt 14.3513 17.1927 27.2532
Au 36.279 38.4046 33.7116
Au 9.00755 25.7118 13.7186
Pt 18.8461 22.99 19.7664
Au 21.1085 5.81585 22.812
Au 11.185 11.6693 17.1638
Au 9.70116 27.8384 12.1392
Au 10.0294 17.0787 32.6295
Au 27.5268 25.7994 8.05858
Au 16.0155 14.0752 39.1165
Au 29.3107 40.2615 15.6211
Au 39.6908 17.8054 25.3918
Au 13.4293 11.2086 29.3117
Au 26.0335 21.5656 7.26772
Pt 26.2688 19.2596 19.4073
Au 20.5267 34.6482 12.1144
Au 26.7873 36.425 16.7415
Au 11.9777 36.1838 25.4441
Pt 19.0267 32.1939 34.9878
Pt 35.3836 35.2929 22.5301
Pt 30.2921 28.2713 37.6746
Pt 35.2224 20.1232 36.3037
Au 27.7495 29.216 11.4853
Au 27.3305 16.5463 6.60385
Au 40.6625 29.0673 33.193
Au 32.9548 37.9825 18.7549
Au 13.7592 28.2415 18.8376
Au 22.4509 30.3749 18.3479
Au 19.9753 42.2185 18.5011
Au 15.147 33.4672 19.1931
Au 24.5747 40.3205 23.8584
Pt 35.3389 25.7705 25.2643
Au 12.0344 21.1492 37.8012
Pt 31.6461 28.3624 35.3177
Pt 25.0016 24.3544 24.2235
Pt 22.2588 38.5048 26.3085
Au 29.7348 27.1061 14.7376
Pt 29.8345 23.5911 20.192
Au 20.6099 28.0227 17.7697
Pt 19.5103 21.8808 38.9045
Pt 32.039 18.3192 29.7964
Au 30.0522 9.88458 28.4492
Au 13.3828 29.9826 10.4086
Pt 39.2482 27.2418 29.1058
Pt 20.375 15.4296 33.7837
Au 36.5089 38.0938 22.0468
Au 18.9745 29.0483 7.23644
Pt 32.8106 12.5923 20.8286
Pt 17.0932 22.7593 40.8211
Pt 25.6878 34.5533 27.7127
Pt 15.3444 17.3628 22.6261
Au 9.96173 16.8706 18.7042
Au 27.4217 26.6325 13.0885
Pt 35.5538 36.1831 32.1069
Au 37.9451 14.4394 22.5087
Au 32.8077 19.8435 9.08311
Au 25.6466 42.7975 22.7917
Pt 12.5545 29.013 23.6634
Au 25.6113 29.2276 21.6666
Au 23.1068 16.5361 11.2806
Au 13.7973 38.4114 19.2833
Pt 23.8467 22.172 40.4351
Au 41.829 21.8456 18.5428
Au 16.2784 34.3266 11.2017
Au 24.0079 6.51242 30.7385
Au 22.8484 26.5159 8.24577
Au 13.2295 11.8102 15.2821
Au 22.0095 21.1292 10.778
Au 17.5564 9.91567 18.8179
Pt 34.0139 14.5369 19.6722
Pt 36.6236 31.8213 24.7988
Pt 29.2436 19.2091 36.8813
Pt 37.7346 16.4605 26.9988
Pt 26.9664 18.5007 35.5851
Au 18.4125 16.7145 10.0233
Au 22.7604 24.0217 44.4835
Pt 20.5411 13.3819 27.0581
Au 30.2634 20.3372 10.4673
Pt 21.8902 18.0225 37.7142
Pt 28.6182 35.4269 23.2396
Pt 27.0402 23.4828 33.686
Au 19.9239 31.6179 41.1234
Pt 11.3251 30.0279 27.9059
Pt 18.6151 35.6495 28.8709
Pt 27.7761 20.6946 25.9864
Pt 26.3739 30.1023 34.4872
Pt 22.7583 33.1468 37.0823
Pt 24.8247 31.5603 30.5943
Au 7.48151 31.5882 26.1081
Pt 28.5292 14.1899 23.5567
Pt 19.5954 12.4033 32.6866
Pt 32.8446 11.6365 18.1144
Pt 17.2274 10.853 28.0322
Au 24.5631 20.9143 4.88242
Au 24.7059 41.3741 29.2339
Au 26.3142 31.0126 13.1186
Au 20.8966 16.8916 39.9766
Au 28.8464 24.282 13.2887
Au 23.0616 40.5059 14.4861
Au 20.4114 6.73427 17.4132
Au 35.2087 36.6936 20.1117
Au 21.495 36.9013 11.1942
Pt 30.0323 18.433 23.5729
Au 20.6377 22.6151 6.85825
Au 14.5268 22.1914 11.5896
Au 23.6511 29.5225 8.12933
Au 25.426 39.6292 13.3213
Au 12.7397 21.104 13.627
Au 20.0009 22.1651 4.26075
Pt 23.2957 22.3667 17.8352
Au 36.3813 30.1877 11.0863
Au 37.6479 34.0792 35.0092
Au 14.4866 35.6723 34.6386
Au 30.5258 24.5102 15.6504
Au 20.0087 24.8422 43.9196
Au 24.4227 21.8703 9.54969
Pt 24.9558 13.0714 32.2729
Au 6.57763 22.6139 25.4738
Au 23.5495 35.1516 11.5303
Au 7.14263 26.0506 15.7
Pt 24.6279 31.6299 35.9849
Au 34.6549 25.2825 12.8851
Au 10.9568 13.529 26.3384
Pt 26.4292 40.0923 27.6042
Au 42.969 24.7132 16.1577
Au 31.9101 22.8835 38.6453
Pt 25.0128 17.8445 16.774
Au 37.2515 24.3412 12.508
Au 16.5223 20.2183 6.5841
Au 20.424 36.813 13.7697
Au 29.535 30.7257 9.76684
Au 27.0676 31.8541 10.3572
Au 31.0573 43.5885 25.588
Au 41.816 19.0078 19.113
Au 14.5082 30.452 22.0207
Au 20.9933 27.3193 6.31714
Au 33.2957 9.62446 20.2082
Au 44.9299 25.1697 20.8592
Au 18.1545 10.4083 14.1592
Pt 26.7633 22.2921 24.1874
Au 9.34162 19.5565 19.3086
Au 20.1806 10.6959 12.2436
Pt 23.7365 9.66919 26.2648
Au 25.4353 36.5348 9.87104
Au 30.7299 32.1172 11.7926
Au 31.93 11.2503 30.2985
Pt 28.3326 15.6794 21.3153
Au 32.6509 16.0033 36.7548
Pt 13.8757 27.6406 31.9459
Au 19.9601 39.8393 32.6544
Pt 24.0135 13.3235 29.5215
Au 39.376 21.7072 35.1368
Au 14.7 20.1681 18.0445
Au 25.076 33.4688 13.5254
Au 16.2176 38.708 17.9385
Au 34.1004 29.2201 9.77136
Au 27.1952 11.1711 10.958
Au 15.7939 40.4705 20.077
Au 33.7965 34.1766 39.1527
Pt 31.9703 36.6707 16.4299
Au 13.617 40.7046 24.277
Au 34.7037 27.6961 14.4714
Pt 27.8434 19.2488 28.4283
Pt 28.1838 9.66152 25.6543
Pt 30.7205 13.4905 31.5229
Au 15.1125 22.5603 14.2933
Pt 29.505 22.6645 24.9332
Au 16.3999 26.3306 10.3461
Au 14.6066 9.51103 27.3667
Pt 38.0107 23.2167 24.8319
Au 12.6552 23.2167 39.4097
Pt 24.7784 8.18964 17.9067
Pt 37.0743 20.222 28.99
Au 38.9017 32.9756 32.9321
Au 14.041 18.0268 10.0206
Pt 39.8678 29.4456 30.5962
Pt 33.4531 18.7909 37.7941
Au 18.2934 33.211 12.7411
Au 18.4692 26.3534 6.17989
Au 13.5349 31.5657 14.1757
Au 27.869 27.9781 6.51729
Pt 31.6863 27.4273 16.7875
Pt 28.7041 36.9991 25.5063
Pt 16.2584 19.7487 23.5174
Pt 18.5108 9.23881 29.5694
Pt 31.4686 25.5135 33.947
Pt 28.2798 31.7561 35.0765
Pt 34.7705 26.827 20.0399
Pt 21.0211 12.3333 23.6006
Pt 16.0075 15.4326 34.9003
Au 11.2469 29.6562 36.5077
Pt 21.426 21.6185 30.0988
Au 16.0997 29.0865 10.0824
Pt 24.1079 24.7359 39.792
Pt 35.4342 24.5814 18.0976
Au 33.0675 24.2882 10.7618
Au 30.4412 9.63658 14.3063
Pt 20.0931 28.3738 29.2463
Pt 22.7675 11.8249 31.3554
Pt 17.1394 30.4091 33.6374
Au 29.5106 41.2247 18.3397
Au 22.8152 35.1321 14.2252
Pt 20.8263 37.9916 24.0151
Pt 14.6255 20.9551 39.0242
Au 30.5797 33.3407 14.4378
Au 27.0919 12.2453 8.51235
Au 13.8872 35.9021 20.813
Pt 10.5416 33.9366 23.6896
Pt 23.6409 6.84503 22.0504
Au 31.7836 28.2898 8.5503
Au 34.2107 28.6776 39.9716
Pt 29.6353 26.6292 35.6802
Pt 15.6958 36.8193 28.641
Pt 41.9402 26.4193 24.2689
Au 33.3801 39.899 28.2617
Au 31.1396 25.9987 9.87636
Au 22.2198 11.0469 10.2467
Au 39.3819 24.1892 36.2297
Pt 30.3398 16.5716 12.4168
Au 26.8316 23.3941 9.4288
Pt 17.3672 34.5783 24.2811
Au 32.9438 16.1047 11.5796
Au 24.375 4.33937 26.0452
Au 15.7747 24.0432 42.9502
Pt 17.7153 24.3421 29.8499
Pt 27.2704 16.9431 19.1942
Au 32.102 25.5541 42.6078
Pt 31.5927 20.7309 23.5456
Pt 30.9102 38.7548 29.056
Pt 30.4103 20.018 25.7956
Au 15.9952 22.2936 16.8796
Au 33.8623 26.5033 9.07692
Au 14.1986 27.5705 11.7572
Au 21.3199 36.5886 16.4011
Pt 24.6504 35.6138 25.3464
Au 32.0613 28.2093 13.9919
Au 10.6575 20.5592 12.1266
Pt 36.1401 33.0597 20.9121
Au 13.0034 34.8156 18.2833
Au 6.63473 29.1823 19.2228
Au 35.4698 27.3895 37.4587
Au 13.1572 31.3451 37.6232
Au 9.39529 24.8033 24.6188
Pt 21.4674 33.154 24.6022
Au 28.0414 42.5798 20.5111
Au 12.3514 25.3882 17.4244
Au 24.0291 15.794 15.367
Au 35.2321 30.1429 37.7836
Pt 24.9167 29.8533 24.5454
Au 33.731 23.1271 16.3996
Pt 32.5655 20.783 17.5512
Pt 19.8224 20.2406 32.2278
Au 21.4923 29.9618 6.61825
Pt 29.5399 13.6576 12.2596
Au 10.3963 23.4803 17.4542
Au 33.4677 26.3642 35.6305
Au 36.0155 32.6095 38.9842
Pt 24.9741 12.7848 11.5451
Pt 19.0133 14.5419 36.816
Au 34.7006 38.2588 30.2739
Au 16.0083 17.1789 12.7297
Au 13.4564 25.6708 38.3693
Pt 30.7791 36.5357 27.2217
Pt 23.8138 34.3699 29.5786
Au 19.1406 41.7371 15.8721
Au 23.6379 42.887 24.6059
Au 16.0835 37.1232 15.7036
Au 32.3827 20.3568 14.6309
Au 27.1971 42.7136 28.3939
Pt 28.048 16.7856 23.6904
Pt 28.713 25.5749 33.321
Au 12.8727 30.9455 25.8964
Pt 31.8676 16.4993 34.038
Au 21.0939 17.841 9.77142
Au 18.2495 36.0281 11.8717
Pt 18.8515 32.5046 25.071
Au 23.9557 25.0151 16.9885
Au 24.339 31.0581 43.0869
Pt 20.4877 10.8816 16.9601
Pt 34.9035 33.6055 34.793
Au 29.7929 29.7714 7.28905
Au 11.1315 27.3018 21.7055
Pt 13.4752 13.5844 27.8106
Pt 25.9394 23.0078 17.158
Au 22.5587 22.9238 4.42863
Pt 16.2852 23.2912 31.7623
Pt 25.9544 34.3452 23.0835
Pt 36.6265 22.1359 17.2279
Au 29.5766 12.5438 9.72428
Au 37.4593 18.881 13.1512
Au 19.2648 25.9384 16.174
Au 16.0831 28.7859 20.21
Pt 18.6273 21.9772 30.6777
Pt 41.0923 27.7863 21.9811
Pt 33.5328 33.6425 32.4142
Au 28.1748 20.5814 5.98429
Au 25.1093 39.2676 21.4214
Pt 19.7444 23.5778 41.0386
Au 32.0815 31.0213 13.9264
Pt 17.6145 34.1079 19.8336
Au 18.0928 37.3247 24.0913
Pt 17.0262 23.921 21.427
Pt 20.2191 10.8573 21.5866
Pt 27.2515 31.5252 39.4757
Pt 23.2161 33.8407 26.8239
Au 39.1941 37.7818 22.6835
Pt 19.499 11.9266 19.2704
Pt 36.8966 18.9599 23.7558
Au 19.2015 20.3053 6.05342
Au 14.1029 17.6293 17.1715
Pt 36.5782 27.7465 28.2731
Au 42.8492 23.3075 29.5604
Au 38.36 29.2385 18.1584
Pt 23.7712 17.1805 29.2482
Au 28.2075 36.1682 10.1978
Pt 27.8534 12.7001 25.5593
Pt 33.2453 15.1739 22.1608
Pt 36.9782 25.8146 21.1727
Au 29.9047 43.5693 28.1609
Pt 33.6581 12.7788 23.486
Au 15.0784 29.8073 24.7402
Pt 30.936 22.7205 29.6146
Au 21.7882 29.547 15.7961
Pt 34.6851 22.3346 35.0978
Pt 30.1835 27.839 33.1584
Au 19.921 22.563 9.73096
Pt 33.1074 20.0456 34.074
Pt 16.3947 24.5293 36.8899
Pt 24.8445 20.5231 38.6716
Pt 14.4901 23.7741 24.1552
Pt 33.4273 15.8444 15.5567
Pt 16.0454 17.3248 30.8176
Pt 32.4006 32.1213 24.5481
Au 21.2655 20.3019 8.24329
Au 41.2773 26.4576 33.8327
Au 25.103 26.6202 44.7125
Au 10.8932 18.8024 14.2125
Au 24.3468 25.117 10.2111
Pt 21.7728 40.5403 24.7413
Pt 16.5338 35.2256 33.0051
Au 29.6277 24.0985 8.39244
Pt 29.9389 13.0801 21.1655
Au 31.2099 35.291 38.6456
Au 11.8262 27.4766 10.5031
Au 24.9401 26.8103 15.088
Pt 17.7743 28.6734 38.3241
Au 7.27236 29.5292 21.8881
Pt 27.0999 23.53 19.7826
Au 13.4957 9.00041 19.8447
Pt 13.1978 32.1479 31.8639
Pt 21.023 34.1806 35.4401
Pt 25.9179 10.8394 20.6486
Au 15.1879 30.2213 12.4409
Au 40.7625 32.3296 21.7428
Au 44.0086 25.1155 25.4341
Au 10.7378 25.2256 11.5644
Pt 37.0162 26.7605 18.5377
Au 14.1519 16.083 38.8366
Pt 25.5175 20.9523 36.0637
Au 35.6752 13.1314 21.4507
Pt 24.4882 25.1287 30.5756
Au 30.461 23.3604 11.0159
Pt 35.0934 16.4039 17.8976
Pt 31.3914 16.053 31.0154
Au 8.14553 27.004 25.7764
Au 40.1059 36.864 27.4025
Pt 13.8861 13.3104 25.0017
Pt 31.4465 10.8882 22.2284
Pt 27.535 15.3189 25.9735
Pt 23.3481 12.6019 27.0303
Au 30.4799 35.0081 11.9313
Pt 18.8429 22.3673 36.1718
Pt 32.6041 29.1037 32.9978
Au 19.5733 16.6913 16.7747
Pt 34.5937 24.7408 30.803
Pt 30.8745 41.2877 29.1095
Pt 20.203 40.4853 22.5862
Au 29.1489 11.7831 30.2666
Au 15.6751 39.002 24.0566
Au 9.83232 16.3955 23.1161
Au 11.1435 24.546 15.0335
Au 40.0717 31.3475 18.5393
Au 36.31 38.4702 24.6918
Pt 13.9242 27.7193 21.7229
Au 19.2487 6.6672 29.8306
Pt 20.859 21.6685 18.6948
Pt 30.2709 18.3457 27.8737
Au 34.257 16.4901 38.9575
Pt 32.918 17.6659 27.3294
Au 40.9434 31.4983 31.9056
Pt 11.0499 24.3232 31.6833
Au 38.8868 38.4595 25.4975
Pt 13.3591 19.4735 22.4226
Pt 22.9658 27.704 36.7879
Au 28.5841 7.67349 27.6916
Au 20.605 17.9977 5.31873
Au 19.292 19.0724 11.48
Pt 30.8795 13.5893 18.3787
Pt 21.1862 15.0157 22.7569
Au 15.9908 18.027 8.0618
Pt 38.2019 28.1757 22.6675
Pt 25.5446 25.4156 37.4997
Au 15.3878 32.283 16.5807
Au 19.971 42.4491 28.6903
Pt 35.1062 16.2563 25.8344
Au 14.6527 27.9383 40.2586
Pt 33.5091 31.2984 34.4024
Au 28.4293 12.3253 35.0895
Au 14.1074 14.462 36.663
Au 8.51353 23.5825 15.401
Au 24.148 34.3285 8.88325
Pt 20.0663 19.4299 39.604
Pt 19.5852 19.4954 22.8508
Pt 40.5757 22.2234 28.5701
Au 21.7443 12.9414 8.15183
Pt 24.1996 29.4324 27.2026
Au 28.4137 43.4661 25.9151
Pt 25.0842 10.8279 13.4055
Au 17.8093 15.0468 12.2351
Au 14.8861 11.6441 31.8532
Pt 25.8931 27.368 31.017
Au 22.6559 32.1731 7.76017
Pt 23.1905 14.9705 19.0608
Au 37.7867 15.9718 17.0205
Pt 25.9695 37.5237 19.3845
Pt 17.1148 24.1479 24.2274
Au 13.2928 35.3185 27.7252
Au 29.5452 37.7174 12.2459
Pt 41.9274 23.7526 23.8662
Au 21.1147 28.6122 9.01246
Au 9.0523 28.8873 17.4969
Au 22.3665 30.8261 10.1607
Pt 29.8989 33.3642 36.3749
Au 18.7849 33.8312 10.0621
Pt 24.1625 22.7941 37.58
Au 18.3391 42.2765 23.3227
Pt 29.2035 17.7573 30.5943
Au 42.9969 21.2396 23.0559
Pt 23.5962 18.1326 39.6439
Au 17.594 7.20529 25.2686
Au 26.5318 41.8498 31.2029
Au 16.0019 37.802 20.9013
Au 30.4924 29.741 15.9742
Pt 20.4065 10.5788 31.0107
Pt 16.5584 26.2102 34.7986
Au 25.3645 8.20511 13.1183
Pt 27.0403 31.9464 32.4364
Pt 35.7107 22.7839 29.1077
Au 9.5684 15.1302 20.82
Pt 33.0632 37.1234 28.4968
Pt 32.776 13.944 29.9137
Pt 34.8805 25.5797 28.1832
Au 15.7957 15.9389 10.0627
Pt 24.0092 19.8978 7.424
Au 20.8934 25.9838 13.2397
Au 25.3947 27.0388 19.8701
Au 29.8571 40.7776 21.5892
Pt 17.5215 32.829 32.9026
Pt 11.2103 27.2127 31.6215
Pt 24.1466 17.7683 13.5729
Pt 11.1735 20.4919 21.0087
Au 38.9889 30.7212 34.5457
Au 39.6976 26.8401 17.5784
Pt 22.4819 30.2924 32.3167
Pt 22.971 19.9897 36.2741
Au 33.5659 42.3135 32.476
Pt 38.9362 24.78 19.7333
Pt 26.5491 17.0088 14.4992
Pt 19.7898 31.1109 22.9749
Pt 15.7147 14.8365 27.3462
Au 23.3083 27.8386 10.7903
Au 29.97 27.4381 11.958
Pt 37.0751 31.1164 19.4847
Au 28.2859 7.06441 24.8437
Pt 30.2832 17.4611 20.913
Pt 29.1607 12.022 14.4606
Au 28.0293 21.0864 35.0411
Pt 36.0725 26.7565 34.6914
Pt 29.0017 41.0155 27.1469
Pt 31.4594 21.3765 31.9712
Au 25.2698 31.8221 8.21664
Pt 27.8561 28.102 41.6766
Au 21.6102 15.3612 6.11711
Au 8.45474 24.5579 32.3499
Pt 23.7748 19.0846 21.0807
Pt 16.0287 34.3719 27.9688
Au 15.757 33.7745 22.0182
Pt 22.2741 31.6234 39.2299
Au 32.8886 23.0719 13.6943
Pt 19.5136 14.2919 24.7258
Au 40.068 19.7341 27.374
Au 28.279 33.0231 12.5988
Pt 34.4668 27.9879 26.5285
Pt 17.3736 19.6287 30.4514
Pt 18.5979 33.3125 22.3057
Au 27.4914 39.1756 17.41
Au 39.2145 19.1637 34.1394
Au 30.9873 43.0299 22.939
Pt 13.528 30.8973 29.4554
Au 10.3748 34.733 28.1758
Au 30.3781 16.8896 40.9114
Au 15.5564 11.8628 13.6385
Pt 27.0402 26.4075 28.8748
Pt 25.2861 15.2581 12.8234
Au 30.8551 27.6676 43.9712
Au 9.36513 15.0412 28.3057
Pt 25.2589 27.8855 41.5957
Au 40.0739 16.0258 23.1443
Au 26.3123 27.0432 10.5136
Au 39.3147 28.4833 14.2836
Pt 25.3645 21.6314 19.5016
Au 12.6454 19.7895 16.0916
Au 34.1842 22.4218 9.14705
Au 35.7325 27.4988 11.1272
Pt 39.7984 25.5543 22.3609
Au 23.7007 21.9262 43.1013
Pt 17.0687 17.621 24.7344
Pt 17.7854 26.676 20.8862
Au 13.2032 37.6596 23.5401
Au 27.8907 31.8535 7.55635
Pt 33.0867 36.1276 31.1488
Pt 30.4563 14.1549 34.1968
Pt 32.4245 12.6048 25.9189
Pt 23.078 7.40574 24.5142
Pt 31.9137 29.638 25.6256
Au 8.25998 18.0145 24.7902
Pt 30.4741 28.5397 41.4316
Pt 31.3136 13.3091 15.7404
Pt 20.8638 13.0969 34.8653
Pt 17.6478 31.2581 37.0871
Au 21.3663 10.6223 36.1797
Pt 38.9969 27.4324 20.2533
Au 18.4017 15.2981 39.4069
Pt 9.95626 19.2119 22.99
Pt 33.034 14.8283 27.3849
Pt 18.4153 29.3242 21.5866
Pt 13.5891 23.0529 31.2972
Au 19.0252 27.4549 11.6066
Pt 30.3865 31.8897 20.2245
Pt 23.5622 37.5895 23.8053
Pt 11.7586 21.7091 27.012
Au 13.6431 22.8264 8.97956
Pt 22.6764 23.0672 25.0687
Pt 36.7272 28.0547 25.1046
Pt 23.0895 34.9302 23.3533
Au 41.7223 28.6622 28.5696
Pt 22.7126 31.9402 28.9893
Pt 35.7171 14.6422 15.9555
Au 17.0982 34.6513 17.0503
Pt 30.6134 20.6875 34.6868
Au 29.8962 34.7571 16.8717
Pt 28.8573 11.6259 23.3885
Pt 17.6996 25.2612 41.4646
Pt 30.4395 18.9405 16.5415
Pt 20.6076 33.5217 29.7856
Pt 24.7951 19.1417 34.2103
Pt 27.3765 27.9425 33.3763
Au 30.1585 22.2792 6.44897
Au 8.30199 17.7035 27.5311
Au 25.9012 14.5116 7.66188
Pt 30.8121 36.1545 29.803
Au 20.0658 19.7416 14.4821
Pt 32.4409 16.1365 18.1196
Pt 17.9254 13.0397 14.4009
Pt 8.17783 29.2608 24.5177
Au 14.9131 25.2137 8.12949
Au 33.8857 37.7786 23.1667
Au 31.8705 33.5412 9.87578
Au 33.006 23.4251 41.0823
Au 6.1313 28.9859 26.3306
Pt 28.5807 30.979 28.5643
Pt 29.4901 26.0611 42.1643
Pt 30.3072 29.2933 30.7568
Pt 23.1345 19.652 18.5265
Pt 25.0448 15.0718 10.1277
Au 21.6848 33.6084 9.87102
Pt 30.6397 24.0557 27.1926
Au 15.3369 20.6646 9.06652
Au 36.5197 29.8134 13.9985
Au 10.3056 34.735 17.8144
Au 14.6343 37.3653 26.0801
Pt 17.0449 38.7753 26.4735
Au 27.4034 19.1552 12.651
Pt 24.3144 27.2287 39.0432
Pt 31.1846 38.0241 31.715
Au 26.408 20.0238 10.0793
Au 16.3035 21.0361 42.7432
Au 25.3464 36.4624 13.8861
Au 35.5895 22.7261 14.4441
Au 21.464 6.761 31.5063
Au 29.4555 37.736 38.8617
Pt 19.9533 11.1159 28.3346
Pt 19.1479 30.7821 28.2901
Au 7.47097 31.2266 17.8234
Au 23.6567 13.6683 6.49608
Au 12.772 25.8042 20.0479
Pt 21.6334 26.0937 21.9909
Pt 30.9538 27.2516 26.3637
Au 36.0042 25.2603 15.5003
Pt 12.3324 29.712 31.6307
Au 40.088 18.9815 22.846
Pt 19.6284 22.9689 28.4556
Au 19.951 18.2636 42.1666
Au 12.5106 16.2858 31.5882
Au 42.6023 18.6591 21.8207
Au 15.3438 19.8966 15.2494
Au 9.60231 29.3521 32.3869
Pt 26.7328 19.2328 23.9893
Au 34.2265 39.9529 25.6155
Au 26.8274 37.061 39.3904
Au 35.2153 18.7852 39.9693
Au 15.1574 26.4887 17.2656
Au 15.4234 36.1737 18.5401
Au 31.7399 12.0101 13.3262
Au 29.1212 33.6272 9.90845
Au 18.8976 23.2636 17.0539
Au 15.6901 22.8004 7.17189
Pt 32.4085 34.9224 25.9153
Pt 33.5717 30.0622 27.9035
Pt 11.3174 17.8775 24.8842
Au 29.8285 16.9661 7.94907
Pt 24.3784 15.3879 26.9079
Au 28.0496 23.5414 43.6128
Pt 16.3827 21.8555 25.3649
Pt 18.1671 26.629 36.853
Au 19.3443 13.5846 41.2193
Pt 26.08 25.524 26.3105
Au 8.49393 17.7589 21.161
Pt 14.2822 32.5732 27.3511
Pt 16.5037 27.9509 32.6745
Au 17.7204 13.9203 9.7258
Au 38.9274 18.2227 15.3988
Pt 14.9455 33.0036 33.5888
Pt 14.2648 19.7418 36.6886
Pt 10.5953 21.6912 30.6052
Pt 32.884 37.6602 25.8511
Pt 13.8871 18.6654 31.4433
Pt 27.3704 16.2316 9.36701
Pt 17.0424 36.7972 30.871
Au 22.0365 6.13667 28.7345
Pt 15.7666 31.577 31.3478
Pt 15.5728 19.4503 20.7778
Au 23.0054 36.4001 35.5324
Pt 21.1111 13.1942 29.8084
Au 29.9602 6.67691 18.7934
Pt 27.4586 34.8648 32.7292
Au 8.31805 30.4287 15.354
Pt 28.4718 32.99 21.8733
Au 35.0899 20.06 10.5571
Au 22.0417 36.6248 21.5985
Au 21.4662 17.2292 14.6561
Pt 17.7551 25.2903 32.6112
Pt 26.3673 31.5642 22.7316
Pt 24.4551 10.3996 33.1124
Au 29.6803 29.8604 13.2477
Pt 18.3764 33.2811 27.8274
Pt 39.0961 32.3453 30.1537
Pt 20.6585 21.451 24.5137
Pt 31.5884 29.7201 21.1684
Au 25.2651 17.0788 41.69
Pt 31.9462 33.5157 18.6877
Pt 31.7991 32.645 37.9971
Pt 21.3769 24.2327 17.3249
Au 11.2454 17.6699 21.0489
Pt 26.8101 25.7996 42.6381
Au 40.7805 36.7186 24.6026
Pt 28.201 24.0988 40.9062
Pt 29.9806 24.7842 31.1457
Au 11.786 31.9292 12.0817
Pt 28.1483 18.0981 25.992
Pt 34.4691 22.0081 18.8962
Pt 26.377 35.7003 30.0051
Pt 24.2123 27.2154 25.7512
Pt 19.1114 26.4166 39.409
Au 30.7171 6.70517 23.7199
Pt 32.6695 30.7924 18.9652
Pt 28.8014 14.9331 30.3721
Pt 26.7296 12.7963 30.1584
Au 34.1593 29.6803 12.6099
Au 13.3288 13.1743 17.6673
Pt 27.1366 24.8727 31.2297
Pt 30.6334 8.59041 20.7667
Au 36.4557 20.8908 38.7247
Au 19.6142 21.6398 12.4694
Au 21.5375 35.599 37.7468
Au 38.4505 15.4797 19.7707
Pt 35.5631 21.6244 21.4962
Pt 22.1965 30.0923 41.6502
Au 12.2873 27.7406 16.1884
Pt 18.1868 13.9514 34.4143
Pt 29.7577 34.5019 25.8572
Pt 11.8648 31.5784 23.49
Au 23.7546 31.2448 20.8595
Pt 23.822 29.3492 34.6708
Au 37.9697 32.7488 17.4791
Pt 17.8822 13.3938 27.6307
Au 15.507 36.3057 23.2711
Pt 32.6554 34.5296 28.6915
Pt 35.3071 38.0755 27.3857
Pt 31.6151 23.3661 18.0184
Au 26.4354 21.8521 13.4878
Au 25.749 29.7035 6.35864
Pt 26.0989 21.0618 33.1399
Au 20.4219 31.1874 14.1035
Pt 25.9652 20.468 21.8759
Pt 27.0804 23.1334 36.4875
Au 6.6158 28.12 29.0792
Pt 16.329 28.2874 22.9277
Pt 24.4309 21.4233 23.8604
Pt 29.0347 19.0055 18.9705
Au 34.44 12.0792 31.0994
Au 28.686 14.3809 7.83343
Pt 31.3406 15.1316 20.4109
Pt 14.3852 32.4537 24.0499
Au 25.324 28.3371 12.8189
Pt 27.608 29.6944 30.9526
Pt 14.6309 21.5141 27.4597
Au 12.2587 29.3036 12.9231
Pt 25.3962 19.6611 26.3467
Au 15.4777 8.48052 17.8907
Pt 25.6489 15.9824 36.2788
Au 29.9231 11.278 32.9204
Au 10.0637 24.5487 22.0071
Pt 17.1632 14.9997 29.8919
Au 17.7622 27.3635 18.2385
Au 31.5254 22.147 8.74641
Au 27.1356 39.0426 37.6647
Au 41.9342 22.1219 15.8607
Au 16.8014 31.4616 20.5491
Pt 21.7946 17.2857 19.8871
Au 9.69531 17.3061 29.9119
Au 28.1667 41.9953 33.3355
Pt 24.4693 27.0156 28.5242
Pt 33.3727 35.8453 33.9638
Pt 34.7183 19.1563 18.5402
Pt 34.3918 24.2257 20.6929
Au 36.44 25.9223 39.346
Au 22.3614 23.6368 9.10958
Pt 22.4631 39.2817 22.1991
Pt 28.6435 10.3617 21.0907
Pt 19.6057 25.47 18.9264
Pt 14.899 24.2663 28.931
Au 26.3196 21.2964 43.3087
Au 14.0642 35.2073 31.8952
Pt 32.7036 40.1398 30.8406
Pt 31.633 18.4937 35.8361
Au 15.5835 12.9528 16.2655
Pt 21.1428 17.6162 28.4005
Au 37.6391 23.8172 38.356
Pt 33.7692 25.2519 38.4391
Au 37.3841 38.2937 31.2062
Pt 35.4953 14.8074 23.5496
Au 17.2844 15.6961 7.67484
Au 23.0081 28.4274 20.4771
Au 15.2064 11.2771 18.8557
Au 25.9302 11.1326 35.3108
Au 38.6079 18.0507 29.2353
Pt 30.9619 29.2454 28.1182
Pt 32.9235 25.3649 26.3768
Pt 34.7411 27.3289 30.3509
Au 24.0966 10.8158 17.8669
Pt 24.6451 19.7927 41.446
Au 26.2502 34.4006 11.1682
Pt 35.322 18.9801 33.1906
Au 20.0373 6.24625 20.2717
Pt 26.6438 10.1618 18.0314
Pt 24.5046 30.2912 40.4362
Au 28.1698 27.0807 44.4811
Au 41.8936 32.6882 29.5818
Pt 22.1857 28.7515 25.2901
Au 18.6838 37.2344 16.6082
Au 41.3067 28.8352 19.2207
Au 20.6441 19.3543 17.2416
Pt 25.1244 13.8177 24.984
Au 20.4234 33.9117 14.8897
Au 14.5866 19.5555 12.339
Au 24.0638 22.9123 12.2146
Au 14.9367 7.89592 25.1769
Au 23.123 31.9763 15.2942
Au 27.1114 29.5351 8.6611
Au 24.8806 32.2393 38.5703
Pt 10.3046 32.3442 21.5469
Pt 26.0229 15.1852 29.2083
Pt 30.2423 26.4069 28.9143
Au 21.8855 20.3886 41.5053
Pt 34.1673 32.5003 36.9394
Pt 23.138 16.2605 24.3004
Pt 11.825 32.6056 28.2196
Pt 28.2805 40.3751 29.6411
Pt 24.3294 24.2215 19.5923
Pt 17.5085 10.9219 21.2625
Pt 30.2789 31.866 26.3725
Au 29.0232 29.6332 43.5376
Au 27.697 7.61422 14.6889
Au 27.6808 23.5408 6.45381
Au 16.9485 11.497 34.3102
Au 31.2019 36.5524 23.8627
Pt 19.679 40.027 29.8537
Pt 25.2241 29.5238 32.1642
Pt 21.8794 32.8852 19.3546
Pt 35.8349 29.67 23.1855
Au 10.7697 12.7159 21.6041
Au 32.271 30.57 41.8922
Pt 20.8933 16.2127 26.1423
Au 21.6814 41.7328 16.4743
Pt 32.286 22.4121 20.4436
Au 19.0835 18.2439 19.2566
Pt 24.8743 36.4619 21.6563
Pt 37.4854 19.0863 26.5603
Pt 31.0964 13.1492 23.6395
Pt 19.7252 30.2918 33.1345
Pt 18.9298 22.68 25.9349
Pt 28.6142 35.3815 37.7519
Pt 29.7007 30.9281 37.3947
Au 40.7588 24.2772 17.5775
Au 18.4062 6.46283 22.7861
Au 15.6502 12.7833 29.4875
Pt 38.4188 30.0414 24.8856
Pt 8.65604 29.3612 27.4326
Au 17.0291 20.2221 40.1173
Pt 18.9402 34.9654 31.4835
Au 22.6425 40.4446 33.2509
Au 10.3918 14.7546 30.8758
Pt 20.4113 26.8056 24.8134
Au 10.6655 31.8518 32.8352
Pt 29.4382 21.6461 27.765
Au 15.6714 10.1971 15.8357
Au 38.4266 28.6042 11.741
Pt 38.8628 24.4292 31.9427
Au 24.749 38.8153 36.2331
Au 13.2449 34.1715 13.426
Au 35.1689 11.539 19.427
Pt 21.8355 31.6614 34.5964
Au 20.9322 22.311 43.2601
Pt 22.4958 25.0535 32.2173
Au 34.4355 9.55281 17.6488
Pt 11.606 20.5057 24.4754
Pt 18.7516 27.7815 34.1268
Au 41.4984 18.4779 29.219
Au 27.7926 30.1389 17.1431
Pt 30.8681 15.7106 28.4641
Au 33.2573 42.2861 24.4494
Pt 14.8883 10.5942 21.5034
Pt 33.7761 34.0129 20.5656
Au 15.9744 16.5196 40.7097
Au 41.8742 35.6479 29.3187
Pt 12.9484 25.8821 27.8522
Pt 20.3998 22.0928 21.7693
Pt 38.7968 20.5232 24.786
Pt 38.2116 21.7485 27.1868
Au 25.8547 26.1251 5.72629
Pt 22.293 14.0649 25.2057
Pt 14.951 17.127 33.311
Pt 28.8882 29.5192 39.483
Pt 23.7078 34.071 20.9908
Au 29.4738 39.7002 34.2517
Pt 22.0961 40.6571 28.683
Au 31.1129 11.8152 35.3214
Pt 31.7279 31.4396 32.1731
Au 14.0775 27.5906 9.01939
Pt 34.6381 27.1216 17.1818
Au 26.3045 27.8838 17.1791
Au 41.8444 34.1381 24.1707
Pt 21.3008 10.9377 26.1172
Pt 14.3368 13.7673 20.0451
Pt 18.1119 15.6771 18.821
Au 39.7642 15.0108 25.6226
Pt 21.5255 16.0535 30.6199
Pt 25.1465 31.9383 28.0021
Au 26.8749 30.6825 41.9761
Pt 37.6757 30.674 31.9169
Au 15.698 35.798 13.3408
Pt 23.5605 35.9104 32.5166
Pt 26.2088 33.3142 34.595
Au 13.5227 25.0986 10.5745
Au 31.6604 33.0538 40.6527
Pt 34.6157 23.2725 25.2543
Pt 24.5095 29.6163 37.6779
Au 23.3699 15.6654 37.884
Pt 31.7586 18.6893 18.9978
Pt 20.1002 34.9895 20.5553
Au 29.3588 33.1078 39.1749
Pt 32.3859 18.0379 22.2522
Au 15.8979 26.277 30.6101
Pt 18.9457 29.8153 19.0538
Pt 30.3989 16.753 25.7217
Au 27.7555 16.5808 40.6798
Pt 39.1809 19.2677 20.015
Au 42.6096 20.8617 27.6605
Au 14.1248 30.9941 19.0966
Pt 17.5014 30.2748 26.2701
Pt 23.5927 24.7655 27.0621
Pt 32.7603 32.4437 27.1358
Au 37.5431 21.5081 12.571
Pt 18.4149 32.278 30.4779
Au 25.5433 24.2104 14.6254
Au 16.0008 8.15977 20.5183
Au 27.9136 27.6922 22.0228
Au 41.6865 19.9963 25.054
Au 30.7732 42.815 20.2336
Au 39.6771 23.1894 12.4636
Pt 37.4993 16.5353 24.2949
Pt 16.4447 31.6205 28.7769
Pt 30.9892 35.4228 32.8452
Au 30.0836 25.1089 44.5401
Pt 15.1304 19.3107 29.0239
Au 40.0462 34.1082 28.3189
Au 33.4786 29.5215 16.3525
Pt 23.9689 32.4752 23.3599
Au 11.5381 36.9883 18.6199
Au 8.0435 30.1562 30.3724
Au 21.3419 8.28659 33.9078
Au 8.72389 34.6773 21.8452
Au 35.7075 24.8472 10.1707
Pt 32.0235 22.9866 25.1588
Pt 16.7084 33.6181 35.5742
Au 19.8486 23.6275 14.4319
Pt 25.6254 16.8852 24.9001
Au 30.3348 5.75787 21.2785
Au 30.7041 8.4397 26.0842
Pt 9.36818 21.9328 28.1479
Pt 23.5511 36.4264 27.6939
Pt 21.6895 8.25357 26.8684
Au 15.3849 25.1505 12.7516
Pt 22.2112 24.1794 29.4186
Pt 15.9511 19.3213 26.4522
Pt 9.05546 31.6011 23.7657
Au 42.0645 24.1951 27.0719
Pt 12.6209 20.9086 35.0907
Au 17.9343 7.19974 18.689
Au 32.4867 10.3214 27.4283
Au 15.7339 26.7969 42.6786
Au 33.4097 35.359 36.7143
Pt 25.9639 22.5656 30.8857
Au 25.485 40.7173 33.7664
Pt 28.2392 13.5053 32.6835
Au 11.3816 11.7617 24.208
Pt 35.6173 18.3286 30.4878
Au 27.3857 7.28401 17.5061
Au 27.1631 33.6043 17.7735
Pt 39.1786 24.2088 27.5327
Pt 28.0097 22.8644 15.4292
Pt 30.7528 15.9405 16.0755
Au 13.7849 10.2794 24.443
Pt 24.4283 23.4495 32.7276
Au 15.8051 33.0322 13.7538
Au 29.7524 10.9263 11.9007
Au 33.9181 13.0379 14.602
Au 26.7764 40.9875 15.2692
Au 11.5203 18.7763 36.4893
Pt 34.69 32.3472 18.6433
Pt 24.3934 31.743 33.3497
Pt 36.455 32.2947 30.1345
Au 29.7724 32.0919 17.4639
Au 30.3814 32.5718 7.79489
Au 24.3542 32.4908 10.8796
Pt 27.7767 16.0234 12.275
Au 18.0102 21.6079 15.104
Au 10.2393 19.5504 34.1479
Pt 22.1595 13.9919 32.4874
Au 6.62162 28.6239 16.4914
Au 19.1983 42.3193 25.9414
Pt 17.3079 21.1479 33.0843
Au 22.2939 14.8019 13.3746
Au 40.8716 19.7404 16.6894
Pt 28.6012 13.7818 28.0889
Au 37.1568 14.9622 34.4888
Pt 9.86351 19.6954 26.2737
Pt 39.6865 27.6312 24.6962
Au 37.192 32.6673 14.7092
Au 20.0143 28.7213 40.7205
Pt 22.3524 26.1575 19.1829
Au 33.0408 27.1777 11.5906
Pt 28.5281 24.0998 28.9693
Pt 31.9643 40.2883 33.296
Pt 8.59031 26.575 28.3375
Pt 23.0584 11.1362 21.8935
Pt 26.6962 15.3819 31.9407
Pt 18.9598 9.8695 23.8465
Au 28.1518 21.8632 11.4449
Au 25.3215 29.9646 18.8077
Au 11.5732 30.1615 17.9965
Au 22.9717 19.478 15.5659
Au 17.9596 37.9121 13.779
Pt 37.6571 25.7706 23.8678
Pt 36.4725 23.3674 31.8894
Au 13.6359 17.7802 14.2955
Pt 12.195 25.7977 25.3647
Au 37.7196 35.7687 21.1141
Pt 28.3337 35.6027 28.1216
Pt 15.1952 27.1627 37.0427
Au 6.2298 31.0132 23.8577
Au 11.8366 37.8128 21.1408
Au 7.49121 32.2314 21.6462
Pt 22.3701 30.5242 23.2489
Pt 22.6259 27.3772 41.3246
Au 16.968 31.2841 23.3516
Pt 21.6471 22.4233 36.7899
Au 7.20937 26.658 18.3869
Pt 35.6863 17.6762 28.0218
Au 18.8009 29.7755 16.3016
Pt 12.3936 33.5645 25.6372
Pt 34.4086 30.5653 25.4044
Au 11.9011 23.8906 36.7182
Au 12.9014 28.5806 38.3771
Pt 31.0998 25.6564 37.6764
Pt 23.2814 26.2923 34.5884