2057
Atoms. Timestep: 20756
Au 30.6023 37.5032 14.3771
Au 14.5588 9.93612 25.4412
Au 23.0767 14.8261 24.9549
Au 25.017 22.5311 15.4346
Au 21.4172 23.3801 8.30043
Pt 26.8338 37.5788 29.8365
Au 15.2909 20.7366 11.405
Au 21.0395 32.5682 5.85769
Au 12.5007 25.1698 9.35642
Au 41.8186 32.0608 26.0838
Au 40.3788 27.0669 25.4401
Au 23.5542 37.3582 13.9973
Au 26.8418 30.6568 19.9613
Au 29.589 31.0666 9.07677
Au 24.65 17.0921 25.1267
Au 29.2649 41.4462 21.0337
Pt 22.8526 15.8337 13.75
Au 32.3795 34.3724 11.2565
Au 31.5236 23.322 9.34245
Pt 19.3518 32.6377 21.5853
Pt 29.7823 26.6358 25.9172
Au 23.8969 14.8887 33.75
Au 41.5562 27.9039 22.647
Au 26.1418 27.0139 5.25808
Au 21.1913 17.0211 28.9046
Au 14.2761 14.0954 35.5508
Au 15.0929 21.3715 14.4139
Au 25.6114 11.0149 26.5883
Au 11.5961 32.4031 22.9643
Au 24.8723 29.6032 5.25888
Pt 23.6429 33.7721 23.25
Au 27.0389 28.9417 6.91938
Au 16.3894 9.26412 17.5054
Au 20.6403 33.2553 12.8156
Au 30.1862 25.7926 9.42404
Au 20.2232 34.9182 10.6538
Au 22.6262 27.442 10.5371
Au 10.85 18.7052 11.3091
Au 16.3191 42.1766 22.2924
Au 28.0029 9.4471 32.4572
Pt 30.963 33.3625 21.8055
Au 23.4898 38.1071 18.0873
Au 28.0602 11.8481 36.4449
Pt 38.4082 26.4951 34.4528
Au 23.9516 23.6691 17.7243
Au 12.1825 35.2329 19.1113
Au 16.0768 38.2128 16.1358
Au 22.6593 28.2269 19.6219
Pt 26.4228 35.9609 27.3581
Au 34.1937 10.0259 24.0561
Pt 14.4651 18.8733 35.3919
Au 20.4608 39.8609 16.6965
Pt 21.7193 38.9074 31.5879
Pt 12.7762 20.5797 21.8231
Au 30.8613 26.1957 6.39608
Pt 33.2479 27.9263 27.4643
Au 26.5589 41.9629 21.8542
Au 33.7322 28.6115 8.30795
Au 23.1299 34.9123 11.6203
Pt 17.5211 17.2649 15.9525
Au 30.3288 33.0436 7.38178
Au 10.4764 23.9927 19.572
Au 13.5224 26.2835 15.0748
Au 10.5834 21.6142 13.3558
Pt 12.3367 30.9077 31.362
Pt 23.0638 32.5765 32.4809
Pt 14.579 14.7767 28.5614
Au 22.4262 10.8289 31.9288
Au 25.7251 16.1672 13.4505
Au 18.2172 30.6344 19.6457
Au 35.6338 15.0141 12.637
Au 27.6791 14.4647 24.6314
Au 24.5918 23.1761 21.5996
Au 32.7226 38.1459 16.0537
Au 17.1245 17.1092 41.1089
Au 41.1145 25.1781 23.1993
Au 11.0215 38.0735 26.7327
Au 27.4676 28.4322 12.009
Au 17.9131 39.8292 17.578
Au 30.0793 6.97168 26.2142
Au 17.4063 25.6097 15.0057
Pt 32.046 32.3846 29.6905
Pt 24.2362 26.9455 33.2971
Au 8.84093 36.7065 25.5356
Au 13.4107 22.7439 10.0101
Au 40.3388 20.7288 20.9068
Au 13.0427 17.2101 11.1408
Au 22.2782 31.2563 8.02188
Au 38.5736 34.2091 16.6919
Au 19.2506 24.4852 16.6308
Pt 14.9581 28.9118 34.8485
Au 19.3191 18.8639 8.07297
Au 13.9415 30.1667 17.4836
Au 9.40765 31.3542 19.1594
Au 17.6797 30.1544 9.41238
Pt 27.5507 21.146 15.5579
Pt 15.3531 23.8507 36.9926
Au 39.9672 32.8963 18.6863
Au 18.6722 21.8695 17.9432
Au 19.2519 32.9203 18.3373
Au 24.461 25.2978 10.398
Au 20.6163 7.33533 20.9345
Au 21.4416 17.8405 12.5469
Pt 29.0929 21.5625 18.3057
Au 28.2006 26.3876 7.29198
Au 25.5366 33.2266 11.3235
Pt 26.2572 36.3871 36.6977
Au 25.8601 22.8294 10.507
Au 17.3149 20.2424 13.376
Au 24.1886 13.1639 31.7059
Au 35.0837 22.9068 11.2843
Au 25.7087 32.0593 14.3767
Au 26.8821 13.796 30.7808
Pt 24.8324 29.4012 21.379
Au 9.18746 23.2854 15.0141
Au 27.6025 33.0629 8.57095
Pt 12.8649 28.0043 31.6198
Au 39.091 27.806 13.9493
Au 7.76916 34.2626 24.9477
Pt 14.0753 32.0664 24.2228
Au 7.37417 19.8717 16.723
Au 13.2656 25.0857 12.2212
Au 26.7628 23.0053 17.5466
Au 8.92152 27.9271 14.9562
Au 23.9014 33.398 18.6129
Au 13.1168 34.2708 13.8035
Au 38.2719 12.4204 24.5596
Au 9.01897 31.6804 16.4088
Au 20.826 8.50721 18.5477
Au 17.1602 37.4305 37.0029
Pt 35.6318 30.424 37.9637
Au 21.9189 18.5614 6.97362
Au 21.7704 35.0712 14.4452
Au 21.6196 34.5678 17.4293
Pt 17.4901 32.6388 26.5863
Pt 27.7086 25.0412 24.7982
Pt 29.0179 19.1746 26.2797
Pt 18.4165 10.1205 30.1456
Au 12.3472 35.2385 16.3512
Au 15.0136 25.8265 10.1686
Au 19.1014 15.7564 37.8317
Au 35.14 26.7755 9.82515
Au 27.7414 26.7774 14.3031
Au 16.595 31.4298 11.7393
Au 18.5744 30.7908 16.8442
Au 23.8516 37.9436 11.2649
Au 13.9751 36.9335 20.4943
Pt 34.5356 29.9495 13.6443
Au 13.6682 27.7904 12.3504
Pt 34.3943 21.0419 18.2463
Pt 35.9943 35.8961 29.4307
Pt 24.6136 19.9554 32.0678
Au 34.9224 14.2823 15.3148
Pt 11.6445 22.7413 23.6777
Au 29.9447 41.0481 18.434
Pt 19.7432 25.5519 38.7405
Pt 16.8015 21.5047 24.1539
Au 13.637 28.069 39.4001
Au 25.5233 21.0638 8.3757
Pt 30.3298 38.6514 27.079
Pt 34.4087 34.9702 33.5443
Au 19.0443 38.482 12.2948
Au 20.2472 28.9228 17.9719
Pt 16.3457 13.1999 14.8175
Pt 17.0917 17.5078 20.4894
Pt 36.518 21.4267 36.4856
Pt 33.899 12.6582 25.0221
Au 22.6376 21.4932 16.3435
Au 14.9345 24.0843 14.3964
Pt 27.7251 14.3417 19.5012
Au 23.1077 5.90395 24.3889
Au 16.2997 24.4931 6.2606
Au 21.4841 13.7434 8.78369
Pt 37.3764 24.3617 20.8997
Au 16.9225 35.7307 15.0777
Au 35.953 31.6985 19.098
Au 17.7559 36.2598 11.273
Pt 35.8458 17.5917 22.9946
Au 19.9934 9.20897 32.2043
Au 16.2686 28.9585 13.2118
Au 26.2686 7.27677 19.4708
Au 21.822 23.0122 21.9124
Au 10.7569 30.1639 14.781
Au 15.9851 30.6411 15.4416
Au 28.6289 18.6239 40.2786
Pt 27.109 32.6819 30.0229
Pt 37.8718 21.8595 19.7205
Pt 29.871 15.8721 20.5231
Pt 35.6869 21.5475 15.9006
Pt 32.5393 25.9539 20.9276
Au 15.4494 35.3366 12.5818
Au 27.2181 8.11134 21.9692
Pt 30.2847 24.4204 21.6585
Au 18.1209 24.8761 11.541
Pt 29.555 18.3676 17.3359
Pt 12.4316 31.2666 28.4883
Pt 21.7172 35.7377 38.6687
Au 22.8416 27.4246 15.0476
Pt 31.1666 29.7522 39.5044
Pt 24.5805 22.6297 40.6022
Pt 15.8386 26.4254 35.753
Pt 26.0835 18.1455 29.6132
Pt 24.3857 27.7645 40.9335
Pt 36.7083 31.4571 35.7182
Au 7.86842 30.6378 31.5553
Pt 25.0587 14.389 15.6757
Pt 12.0589 20.2081 24.5171
Pt 23.1767 13.0926 14.4118
Pt 31.3983 16.9455 10.5739
Au 9.0342 21.4871 18.3646
Au 20.6865 27.5935 5.75221
Au 10.8618 18.928 13.9688
Au 6.76841 27.4928 21.7339
Au 36.516 18.7404 9.78703
Au 17.8264 23.069 13.7055
Au 20.5773 30.1689 9.94763
Au 25.7048 42.9681 27.4569
Au 23.3737 30.2504 10.4918
Pt 30.8088 16.781 25.52
Au 21.686 31.5769 17.6565
Au 29.8726 29.445 11.2224
Au 24.6567 32.3033 8.9418
Au 22.0535 8.1094 16.1701
Au 7.45927 23.2997 27.4066
Au 17.9161 33.9098 12.8465
Pt 16.7361 16.2265 31.5591
Au 22.801 20.97 8.57488
Au 22.7729 34.1071 7.87193
Au 16.6452 37.7227 13.3779
Au 23.0426 12.5746 37.9205
Au 27.5168 8.53049 25.9855
Au 23.6245 21.6369 23.9188
Pt 12.9124 18.5918 15.7462
Au 20.453 32.689 15.4935
Au 17.0193 34.6322 17.7774
Au 21.7721 20.39 13.9152
Pt 34.7734 30.259 23.5124
Au 28.6287 23.4733 9.90108
Au 16.5386 16.1417 38.5518
Pt 29.6248 29.794 21.0701
Au 37.3125 30.0694 14.1229
Au 18.2951 17.6714 13.3124
Pt 15.963 15.8914 14.0412
Au 27.6858 40.0633 16.9094
Au 9.61072 21.013 23.5259
Au 38.3108 34.1879 34.2044
Au 14.0927 33.0289 11.3886
Au 11.4218 37.0412 24.2695
Au 9.87901 32.5166 31.763
Au 38.0904 31.3429 16.9132
Au 17.1587 27.5149 10.6305
Au 14.8819 34.0905 16.086
Au 23.3529 7.27059 19.4352
Au 19.9954 24.3012 20.3007
Au 14.3304 36.5378 14.8469
Pt 36.8675 30.916 27.6748
Au 35.5666 32.331 14.0811
Au 23.5388 8.25509 25.7359
Pt 27.0424 24.8816 29.3359
Au 27.7789 10.2751 28.1719
Au 14.6539 36.3638 17.7281
Au 16.1 12.9832 33.8601
Pt 33.7026 25.4908 23.4101
Au 25.6095 14.7564 26.3703
Pt 33.4166 24.3712 13.3555
Au 16.2737 8.31561 23.6708
Pt 18.7312 13.1159 33.3491
Au 25.685 12.2635 10.7908
Au 14.0161 23.3521 7.44626
Au 29.0018 35.4043 15.1452
Au 11.5115 29.4071 12.1648
Au 18.5626 28.097 7.77234
Au 7.13129 32.4501 27.0419
Au 22.8795 22.5585 6.06759
Au 15.0453 35.6677 32.5689
Pt 34.1872 27.1237 37.1273
Au 7.78444 20.4013 20.8808
Au 28.1706 30.9448 17.465
Pt 25.839 10.3088 17.4526
Pt 31.7926 18.5915 15.7574
Pt 20.5235 14.3546 22.6553
Au 28.33 28.2797 9.27448
Pt 33.2522 20.661 20.6113
Au 27.08 21.6086 12.8172
Au 25.0031 11.0262 36.6975
Pt 38.4932 15.3258 25.8018
Au 32.6157 8.47305 26.1328
Pt 24.9371 28.3278 35.5092
Pt 29.6785 32.7678 28.3556
Au 41.1238 15.9888 25.8149
Au 15.4948 25.4454 17.095
Pt 28.6939 38.8442 19.169
Pt 37.6725 28.7705 26.1719
Au 17.3045 16.6766 9.04455
Au 25.435 34.0683 7.0772
Au 21.7885 20.3351 25.7407
Au 7.78989 23.1578 20.2501
Pt 17.4937 19.1121 24.5649
Pt 24.6023 21.5113 36.3121
Pt 18.0898 16.5303 24.9371
Pt 21.642 36.4798 36.2035
Pt 18.3857 13.6707 24.2688
Pt 14.3262 18.972 23.5409
Pt 30.854 15.3148 12.572
Pt 21.1146 29.6276 29.8431
Pt 17.4238 15.4757 11.8556
Au 19.8996 40.4369 19.4953
Pt 10.407 20.6881 30.8967
Au 10.9741 23.9193 11.4569
Pt 31.5414 35.7846 20.802
Pt 39.8891 21.3094 25.803
Au 25.6266 28.8036 17.8276
Au 25.1977 16.0261 31.2242
Pt 25.9713 25.905 22.5703
Pt 33.9656 18.1578 34.5909
Pt 34.2075 16.2443 17.1237
Au 22.4004 36.4878 9.53586
Au 18.8491 23.2362 6.59926
Pt 15.5645 33.6848 28.3106
Pt 13.5871 21.0498 30.6728
Au 25.8247 16.33 8.68255
Au 27.7608 20.7487 10.1891
Au 16.1574 21.8602 6.40009
Pt 16.3742 33.9277 30.9864
Pt 24.4146 36.8159 38.5966
Au 18.6789 41.337 26.7128
Au 35.9064 34.5136 19.351
Pt 33.5924 13.3729 18.3041
Pt 17.5541 9.93527 21.738
Pt 19.0925 19.8384 36.2017
Au 16.8485 14.167 36.4478
Au 18.8078 8.19748 16.6982
Au 16.6552 18.9946 7.44572
Au 27.4968 5.8998 26.4102
Pt 35.1939 30.2922 33.8236
Au 37.2931 26.6522 40.6805
Pt 20.9662 34.2943 32.179
Au 29.6609 28.6407 6.1516
Au 20.7662 7.35324 25.4352
Au 17.8862 10.552 33.2461
Pt 11.3229 15.012 22.5827
Pt 21.1032 12.8202 24.9358
Au 15.1424 29.352 10.6824
Pt 37.4333 18.1878 16.1845
Pt 36.8982 20.2953 17.7961
Pt 29.1335 18.7826 31.9442
Au 26.5572 26.382 42.6459
Au 20.2214 26.9742 15.6444
Au 24.4942 24.8537 6.03378
Au 15.6097 12.3898 28.9126
Pt 20.3594 24.8951 34.9877
Au 22.4301 18.665 16.0718
Au 24.3966 21.1344 13.2043
Pt 31.5624 22.8946 39.1958
Au 19.9854 12.0586 31.1624
Au 18.6652 25.849 5.7673
Au 38.6289 29.2442 11.7292
Au 30.5563 32.1597 40.6472
Au 23.0145 16.2497 8.02315
Pt 40.1322 29.7099 26.6918
Au 25.3455 28.1939 10.2715
Au 15.267 10.7691 32.6034
Au 25.0434 17.6014 6.41296
Au 27.6895 40.1305 36.2807
Pt 19.608 14.8272 20.077
Au 16.7335 30.1942 6.81754
Pt 34.6244 18.8592 16.4835
Pt 33.5603 33.6714 20.5865
Au 10.7503 21.3861 10.7049
Pt 33.6051 37.8598 24.8055
Au 18.327 20.4154 5.88363
Au 40.6567 23.771 16.563
Au 14.0703 36.4065 23.757
Pt 34.5275 13.0362 33.9724
Pt 16.7894 36.0201 24.1821
Au 26.0193 18.0334 22.8357
Au 26.2976 19.6284 25.0615
Au 24.3143 14.6329 36.4305
Pt 19.1062 34.4646 24.4182
Pt 14.8363 30.9143 36.7879
Au 11.3188 27.3295 13.9145
Au 12.8858 30.7835 10.3589
Au 25.9046 38.617 13.1563
Au 6.96129 22.6002 16.4296
Au 22.4786 17.4577 41.9682
Pt 25.7681 21.8381 33.6686
Pt 21.5971 14.8542 27.23
Au 12.3623 31.9811 19.8727
Pt 27.6736 28.7246 35.4696
Au 22.5039 23.0953 13.878
Au 17.622 33.0802 15.6352
Pt 16.9819 28.7046 21.293
Au 42.5639 25.0494 26.6248
Au 28.2402 35.1452 40.4266
Pt 20.0184 15.5213 12.4946
Pt 21.2266 36.3147 26.8907
Au 13.3482 19.4753 12.9525
Au 11.709 28.1112 16.6815
Pt 33.1534 35.317 22.9339
Pt 15.4706 18.5923 14.8357
Au 28.9413 9.55203 23.9162
Pt 30.0166 31.2996 13.5224
Pt 20.0888 39.671 22.1895
Pt 33.7277 18.3439 18.9448
Au 20.1209 25.8571 8.07275
Au 12.9565 19.9413 10.1945
Au 27.2129 24.1423 15.066
Au 40.4778 33.9894 23.8505
Pt 20.6226 29.6562 24.3601
Pt 28.2437 31.3592 24.9498
Pt 34.7248 22.1124 29.9663
Au 18.9282 34.238 6.2894
Au 22.9692 24.9409 20.0502
Pt 39.0232 24.0154 34.5513
Au 25.3093 35.8571 18.452
Pt 24.8435 37.4231 20.709
Au 16.2576 41.492 24.909
Pt 13.759 17.1523 27.8669
Pt 12.9096 30.2755 21.8723
Pt 15.8066 22.0557 18.6548
Pt 16.9881 31.2357 22.1886
Au 14.5793 34.1037 19.4616
Pt 18.6734 13.0914 12.9577
Pt 10.2414 16.6923 20.8424
Au 22.1292 29.9189 5.65901
Au 18.7673 29.5195 11.9093
Pt 18.2607 26.4912 34.2808
Au 25.4552 31.4785 17.0519
Au 16.1585 26.5661 19.7789
Pt 34.0088 13.6512 21.034
Au 24.7505 25.4439 15.249
Pt 14.0868 13.4094 19.7471
Pt 35.6477 23.2279 23.0988
Pt 38.6051 18.3341 29.9334
Au 34.1741 23.5362 8.62288
Pt 37.4937 16.9775 20.7968
Au 31.1 39.303 20.4615
Pt 26.8353 19.9836 27.7959
Au 20.8125 29.7893 15.2681
Pt 37.8638 17.9022 24.7314
Pt 23.2495 24.8019 23.5261
Au 18.2987 35.236 21.9159
Pt 32.7029 16.2705 14.8663
Pt 23.4122 11.0219 24.849
Pt 22.5751 21.2218 30.5945
Pt 26.5451 19.4617 34.807
Pt 11.9386 18.7549 20.1601
Pt 18.4713 10.4104 18.8761
Pt 19.6641 18.4429 19.8836
Au 15.6708 8.86582 20.1371
Au 14.9891 10.9386 15.5817
Au 21.5392 41.5932 23.9751
Au 11.7956 35.0356 32.037
Au 9.05345 16.7886 29.1188
Pt 12.7309 14.0236 30.2807
Pt 15.3018 28.3582 25.3289
Au 20.3047 21.0909 9.68965
Pt 20.6047 34.6795 29.4312
Au 22.0721 32.7317 10.3721
Au 15.5306 32.853 13.7636
Au 21.1395 23.1921 18.0187
Pt 25.1844 24.3756 33.0005
Au 15.0588 30.4171 20.0792
Pt 25.5838 31.6262 32.2858
Au 9.29926 14.0112 24.2775
Pt 35.866 25.3775 38.5286
Pt 34.2072 23.9005 40.235
Pt 26.9259 20.425 30.8633
Au 8.63506 21.3362 28.785
Au 31.6522 30.6053 7.27297
Au 23.7984 28.6626 12.7281
Au 13.1238 22.2622 12.6169
Pt 24.5095 16.9626 15.8479
Au 24.0431 16.5545 28.0842
Pt 16.9403 20.0682 34.8272
Au 20.5601 11.2616 34.1787
Pt 18.4939 19.4823 22.0981
Au 32.3515 9.34515 21.9004
Pt 29.425 13.2306 16.8315
Pt 16.8373 18.5605 37.0484
Au 24.7133 7.68279 17.1476
Au 23.4336 27.4174 6.01275
Pt 31.2171 18.9041 27.7545
Pt 27.9079 33.7377 26.6192
Pt 20.2411 19.5947 30.6209
Pt 19.239 36.0702 13.5566
Au 17.3658 39.6129 31.7577
Pt 13.7748 37.2252 30.56
Pt 18.8346 23.1327 23.4905
Au 22.896 11.9551 10.2618
Pt 26.7077 30.2501 23.1318
Pt 21.0812 34.5046 22.4109
Pt 27.3422 20.13 37.811
Au 17.8284 21.9277 11.1334
Au 18.9834 32.3442 10.7358
Au 23.9598 30.6874 19.2036
Au 19.3029 17.3562 10.6574
Au 25.7241 30.564 12.0657
Au 15.6201 23.504 11.7882
Pt 13.0538 26.5888 29.1393
Au 25.7049 9.49804 24.1931
Pt 20.2617 18.4066 24.1446
Pt 11.9241 16.1834 15.8187
Au 39.8878 19.0106 17.1177
Pt 21.2512 12.6158 20.9817
Au 13.9318 23.0343 16.7671
Pt 14.0907 24.6383 34.4514
Au 30.6463 42.391 28.9276
Pt 26.3238 15.7326 17.5782
Pt 25.3109 18.1455 18.2227
Au 20.1757 14.2299 29.3884
Au 42.1317 29.3967 24.987
Au 21.6921 28.4296 8.1132
Pt 31.9423 24.9524 31.7408
Pt 23.6687 32.3748 25.7287
Au 35.4231 30.4221 16.3877
Pt 33.1478 29.7904 18.0856
Pt 31.8988 20.3464 38.3142
Au 10.6846 12.3844 21.9285
Au 25.9094 40.6826 34.367
Pt 36.5372 23.0921 34.2631
Au 14.9151 10.3263 22.425
Pt 33.0731 31.4248 38.5004
Au 31.379 7.83926 28.5105
Au 26.3511 6.11507 28.994
Au 7.69034 17.4198 21.0951
Au 21.0776 39.0953 13.9771
Pt 26.5375 28.8783 32.9835
Pt 35.9741 23.4997 18.4372
Pt 28.146 21.116 33.1567
Au 30.5739 21.5864 6.2363
Pt 36.6705 20.1316 29.649
Au 42.3888 26.2596 32.0408
Pt 23.5213 16.306 18.5103
Au 19.1456 14.5342 10.008
Au 25.7328 16.727 34.9795
Pt 34.324 29.1946 11.0289
Au 17.0468 33.2312 20.3029
Pt 20.4632 37.0026 21.4459
Au 34.6489 10.7053 21.3496
Pt 16.889 21.2481 27.3504
Pt 18.9348 17.6054 33.1101
Au 18.7298 38.1849 15.1928
Au 27.2033 25.9417 10.1886
Pt 23.3695 37.1399 25.1152
Au 26.4344 21.0219 22.7131
Au 22.8646 25.6433 12.8496
Au 21.1768 16.3502 39.8064
Pt 26.3783 22.4997 38.2897
Au 40.7937 21.2821 15.4176
Pt 15.8402 10.1352 30.1125
Au 19.5392 19.4776 15.1469
Pt 17.1609 35.3204 26.829
Au 22.6817 21.7561 19.6115
Pt 11.4161 30.974 17.303
Au 21.4005 10.2051 11.856
Au 24.3207 41.8023 32.5718
Au 33.5917 33.7501 15.5865
Au 15.4058 40.0052 27.0199
Pt 28.393 16.7888 13.2873
Pt 33.6727 18.3777 10.5689
Au 38.7318 19.6005 32.474
Pt 38.6912 31.3805 22.3814
Pt 30.2265 20.9377 16.0901
Au 20.1673 24.8668 13.7328
Pt 29.3272 32.0394 19.663
Pt 34.3028 25.9946 32.5385
Pt 26.3749 30.0249 30.3724
Au 12.3142 26.1245 20.2039
Pt 13.568 27.1245 23.598
Au 17.0016 20.4029 16.228
Au 22.1717 5.63721 26.9181
Au 26.3514 36.3592 14.7037
Pt 12.7787 22.1461 33.8305
Pt 15.3119 18.6838 31.0433
Pt 14.1749 21.8233 23.6951
Pt 17.0602 14.73 16.9125
Au 33.4227 39.196 31.815
Au 24.9095 35.1549 9.4597
Pt 24.916 22.5018 31.1375
Pt 28.6259 37.6105 36.5997
Au 41.1701 22.6593 34.9778
Pt 20.0241 10.0553 20.9134
Pt 13.3898 13.4404 22.2667
Pt 22.0647 24.7891 28.3623
Pt 37.9265 19.146 22.17
Au 27.7277 17.0168 6.72709
Au 30.2071 16.6469 7.93802
Pt 30.3933 30.0906 15.7803
Au 21.5997 19.1211 21.545
Pt 32.3215 22.0584 31.2741
Pt 15.7927 16.485 35.792
Au 17.4856 24.2826 18.9232
Pt 35.5178 26.9113 25.7432
Pt 28.849 27.2361 33.3323
Pt 28.8784 30.9555 34.4238
Au 26.8199 19.6892 5.98769
Pt 20.8959 20.1756 17.9052
Au 25.4736 26.7309 7.94
Au 37.6541 16.5283 11.1222
Pt 32.0177 27.5756 10.9319
Pt 29.4472 37.4066 21.2024
Au 36.8861 24.5504 27.7869
Pt 22.2386 24.7089 39.7948
Au 22.9866 22.934 10.9272
Pt 31.9839 14.367 24.4663
Au 39.4371 15.204 21.1673
Au 28.3312 32.5329 15.2547
Pt 34.0271 21.8965 38.5011
Pt 28.4038 25.5131 40.9906
Pt 26.0165 34.5424 38.7192
Au 22.9379 29.1554 17.0996
Au 40.2047 24.0483 25.5447
Au 13.4199 29.0967 14.8068
Pt 14.3066 21.9603 28.1652
Au 8.76768 32.6802 22.5889
Au 38.7633 21.2116 34.8356
Au 16.7824 23.1157 16.2807
Pt 23.7085 34.49 39.8324
Pt 27.6647 21.8546 26.0607
Au 23.5079 12.9022 26.8484
Au 34.4817 36.2944 15.3027
Pt 20.6006 26.0815 32.5936
Au 29.4821 23.9252 7.33167
Au 38.1242 14.0994 18.9721
Au 23.8138 26.4838 17.7104
Pt 31.6829 19.9409 18.291
Au 21.0843 24.9747 10.7785
Au 28.4122 36.6293 12.7159
Au 19.8469 37.4683 9.85706
Pt 36.5545 15.1697 27.7181
Au 10.3918 33.6584 20.6639
Pt 37.8041 23.0186 16.6944
Pt 37.3045 22.991 30.1402
Au 29.4298 19.1831 7.02368
Au 17.3923 19.2703 10.2414
Pt 23.8624 14.1605 11.9656
Pt 32.416 22.2733 11.901
Pt 36.1111 19.4199 14.2497
Pt 32.1298 29.4402 22.7671
Pt 31.7214 22.5579 17.5485
Au 13.1295 32.9676 36.3434
Pt 27.7747 26.0047 20.312
Pt 20.4024 15.6203 24.9513
Pt 26.15 27.4203 29.3268
Pt 27.9603 24.242 36.6967
Au 32.5229 12.5288 38.0143
Pt 31.8416 20.4513 35.5237
Au 16.5015 28.2435 40.2521
Pt 16.5928 36.9369 30.4464
Pt 23.535 23.9629 26.1349
Pt 9.88852 32.8443 25.2466
Pt 19.6885 28.6696 33.7228
Au 16.8584 35.1615 38.5412
Pt 28.8635 37.7999 24.8663
Pt 17.5794 26.397 31.8294
Pt 14.1687 27.9371 21.0901
Au 10.0717 34.9095 23.4349
Pt 17.6456 39.2161 25.4376
Pt 21.4675 31.9957 23.3479
Pt 32.3932 36.8169 33.1138
Au 38.6274 18.4324 34.9616
Pt 15.2239 22.1472 34.9793
Pt 9.23562 23.1897 25.002
Au 37.9588 23.8773 11.9422
Pt 28.3671 13.2805 21.8934
Au 19.9298 11.9398 10.3355
Pt 16.9441 13.997 19.5386
Pt 14.752 23.1471 32.3264
Pt 13.5402 16.8745 13.7551
Pt 28.5279 18.2708 21.7955
Pt 29.3192 12.1042 19.5164
Pt 23.8705 17.5733 21.2189
Au 34.792 37.8758 17.9194
Au 24.1922 14.172 9.30605
Au 17.8158 25.2665 21.6374
Pt 10.268 18.2468 16.4943
Au 23.6103 6.55205 29.0837
Pt 9.58041 23.5535 22.225
Pt 33.1564 16.8871 24.2878
Pt 29.2763 22.4982 14.0642
Au 30.0248 33.9269 9.85111
Au 35.3929 39.9643 27.0167
Au 41.1204 30.8146 20.474
Au 24.4279 8.67267 35.3192
Au 23.3742 32.2607 12.7942
Pt 28.3482 32.098 22.0983
Pt 20.9231 31.893 25.9666
Pt 34.9573 29.4807 29.3267
Pt 27.44 35.5477 24.8125
Pt 34.9758 33.8337 31.0494
Au 36.6462 37.1703 20.2195
Pt 29.2825 26.2311 17.9855
Au 32.1711 23.7812 6.63884
Au 24.3943 29.4515 7.89726
Au 32.8013 26.024 8.3009
Au 9.92844 18.5559 25.027
Pt 38.2993 27.5213 31.8613
Au 38.7439 35.5166 21.9069
Pt 28.7832 21.4959 21.3649
Pt 34.2535 19.8466 36.7962
Au 14.9584 39.9323 21.2385
Au 21.5587 13.6838 32.7079
Au 25.5676 26.5362 12.6681
Au 9.72883 34.8904 30.1268
Au 19.8522 27.4239 10.3393
Au 10.9238 24.428 33.6413
Pt 13.6013 29.3323 27.1128
Pt 18.8616 36.9558 25.8428
Au 7.59544 21.1763 14.2391
Au 23.5118 30.4043 14.8047
Au 8.00607 32.7842 29.6331
Pt 19.7522 38.8908 27.6554
Pt 16.2396 12.7694 22.2851
Au 28.3217 42.79 26.5111
Pt 13.2586 24.4913 27.3544
Au 26.1912 31.5068 6.74287
Pt 12.8893 16.0361 20.461
Au 23.9137 11.313 34.1318
Au 19.7149 30.4837 7.25271
Au 20.4854 20.9482 23.1582
Au 8.50858 24.3369 17.6758
Au 25.3898 28.8607 43.313
Pt 27.1237 22.3392 28.8621
Au 18.8411 41.6289 24.0772
Au 9.49321 25.4129 13.2122
Au 24.585 7.83127 21.999
Au 15.8389 38.5798 19.0047
Au 16.1368 23.3973 9.03286
Au 25.1076 15.3504 23.1181
Au 41.0579 18.9625 30.7961
Au 25.6735 22.322 5.93227
Au 14.3833 24.329 19.3146
Pt 35.1979 21.6137 25.2412
Pt 24.5691 9.16447 32.5498
Pt 29.1637 25.4722 31.375
Au 19.6743 19.8654 12.0511
Pt 31.6813 15.9104 27.8551
Au 28.0098 6.98784 31.2079
Pt 37.5869 33.587 23.4291
Pt 25.135 30.5085 28.1852
Au 36.1434 11.0761 25.6933
Pt 36.6706 28.4159 23.7874
Au 10.0678 14.2155 29.2448
Pt 14.2923 29.2434 29.6489
Pt 20.9283 17.2171 17.7798
Au 20.1716 8.90201 14.253
Au 7.01248 24.8548 22.2994
Pt 18.6485 17.1766 35.6347
Pt 22.0234 28.4208 32.3526
Pt 8.95304 28.2937 22.9445
Pt 23.3161 9.79657 18.0235
Pt 9.06712 25.6996 23.8466
Pt 17.6442 19.4378 29.3611
Pt 17.0441 18.4425 27.0199
Au 8.20441 19.0823 30.3384
Pt 16.4935 17.2931 22.9235
Pt 11.0931 29.0646 26.5979
Au 17.3651 30.3754 37.8461
Pt 10.2505 32.9985 27.9309
Au 11.3192 27.0589 38.3706
Pt 17.9424 33.9827 33.2124
Au 6.82787 27.444 27.7261
Pt 33.3567 35.2833 25.7166
Au 22.0312 32.1882 42.3976
Au 25.2701 23.947 43.1782
Au 18.9756 27.5641 19.9884
Pt 23.9265 35.0211 36.755
Pt 28.3242 35.1408 37.6541
Pt 21.063 18.5118 34.827
Au 25.6659 36.0667 41.0086
Pt 26.5718 24.9887 39.0756
Pt 27.1003 23.2131 41.1129
Pt 25.5703 35.1885 34.5256
Pt 20.9758 30.7279 20.0842
Au 30.6953 14.6498 39.4716
Pt 36.9579 31.0709 24.5682
Pt 33.0441 17.6385 29.4377
Pt 25.4911 33.2065 27.5314
Au 23.7536 32.172 5.9698
Pt 33.5507 32.4272 18.1143
Au 36.1534 32.7776 33.2702
Pt 39.2537 31.9263 27.7304
Pt 29.5 21.3353 27.9537
Au 22.0512 24.8256 15.9355
Pt 18.8556 24.1344 32.581
Pt 21.4277 30.4695 39.9803
Pt 11.2117 24.8637 25.4645
Pt 26.2222 29.1489 37.8727
Pt 30.3931 29.2347 18.3619
Au 22.1648 7.67288 31.353
Pt 21.4052 13.2366 12.089
Pt 32.9031 15.6499 19.4889
Pt 32.7936 20.8246 26.2368
Au 18.0596 26.8313 17.4903
Au 12.9993 11.1174 20.7496
Pt 17.6768 23.7247 38.7323
Pt 31.3735 26.8469 23.2523
Au 39.9486 23.4338 21.0144
Au 28.1133 9.5226 14.8103
Au 31.0122 20.6685 43.4227
Au 27.5619 14.7156 36.4447
Pt 28.3889 14.0954 12.752
Pt 33.5057 34.9452 29.0736
Au 15.3913 39.3206 29.7779
Pt 38.8105 26.8801 23.2699
Pt 16.6502 36.1182 19.8802
Pt 19.0948 32.6934 31.1017
Au 10.1273 26.6938 18.6019
Pt 25.227 35.9365 23.354
Au 41.4549 31.7473 31.8529
Pt 15.0227 34.3493 25.6305
Au 25.3284 19.7688 11.0413
Pt 21.236 25.2683 25.7208
Pt 19.2637 35.2528 37.2176
Pt 18.3202 38.3124 20.3852
Au 21.6373 18.3313 9.65512
Au 16.0087 32.0113 17.9234
Pt 17.0836 22.0034 32.9733
Au 18.6129 31.2723 13.8844
Pt 33.4485 26.8519 29.9708
Pt 33.035 24.9009 37.9702
Au 24.7734 20.8896 18.2125
Pt 16.92 11.9283 17.4083
Pt 9.14785 30.7566 26.8764
Pt 27.0062 18.7595 8.54
Au 30.7679 14.4236 9.44891
Au 20.8654 13.7034 39.2766
Pt 37.3567 16.0581 30.1148
Pt 22.2144 21.6668 40.6465
Au 11.6195 12.0448 18.6485
Pt 17.4857 15.3914 33.9904
Pt 17.2514 12.3077 31.221
Au 24.0371 20.0846 6.19528
Pt 31.0104 17.8437 13.1637
Au 25.8317 13.127 38.0794
Pt 33.8418 26.0457 15.3016
Au 19.3062 15.1133 31.8198
Au 15.1393 15.629 10.4608
Pt 22.1232 16.5251 23.0082
Au 25.6909 23.3395 24.209
Au 26.6184 24.1067 7.99877
Au 25.9361 12.9838 34.8835
Au 25.3617 11.4649 29.3858
Au 26.6354 26.0069 17.3848
Pt 32.0743 36.6951 27.655
Au 22.2321 13.1779 35.3167
Au 17.9838 7.08906 21.9718
Pt 30.5733 24.5673 37.0803
Pt 17.4833 22.2575 36.5387
Pt 14.0694 31.341 34.2663
Pt 34.3558 21.6996 34.8251
Au 40.4909 33.307 21.3288
Au 9.31301 29.2082 17.3772
Pt 20.2942 39.2659 25.0379
Pt 30.9777 19.9396 21.9225
Pt 23.6989 26.8937 21.8953
Pt 35.6701 17.6469 28.7832
Au 28.3144 12.2216 33.6144
Au 31.9421 9.51276 34.2159
Pt 20.0878 34.9971 34.5371
Pt 27.8541 24.0587 33.8692
Au 21.5686 7.98172 28.0307
Pt 40.1208 18.5681 25.9325
Au 39.3238 28.8774 21.4271
Pt 26.235 24.0516 26.8538
Au 25.5921 36.839 32.3461
Pt 34.8633 16.4377 31.1572
Au 17.538 32.5751 7.97953
Au 12.4468 21.2186 15.2716
Au 32.9997 21.1881 7.30865
Au 37.8361 12.6805 27.3415
Au 34.8372 13.2912 36.8205
Pt 38.4387 19.2049 19.4784
Pt 36.2995 25.8273 23.3011
Pt 34.2176 19.9834 28.2617
Au 27.6559 34.8806 10.603
Pt 36.3663 28.0944 12.3333
Au 41.0733 25.9576 18.2442
Pt 36.8381 29.7617 31.9854
Au 18.509 29.0155 5.18966
Pt 37.4234 33.4146 26.0317
Pt 30.9912 31.7574 17.6126
Au 33.2161 11.2836 32.5027
Au 18.2281 35.2043 8.76619
Pt 19.6553 20.5796 40.7389
Au 29.9522 36.9292 39.0646
Au 36.4683 30.9393 11.6205
Au 12.7845 37.3259 33.0695
Pt 11.469 28.0183 22.0397
Au 39.855 30.1794 15.0095
Au 14.4113 25.999 7.52712
Au 6.61528 26.645 24.5819
Au 25.4148 8.40153 27.7797
Au 20.6327 37.9238 18.6853
Au 25.7097 36.1633 11.9527
Au 12.9637 27.0436 34.5372
Pt 29.4198 21.2657 30.5432
Pt 27.606 31.3439 27.6506
Pt 12.5024 34.2156 24.7247
Au 23.206 21.8072 43.1702
Pt 15.2734 27.2063 27.9288
Pt 28.2488 32.7609 39.0939
Pt 29.0723 15.6786 17.6321
Pt 23.9658 39.8128 25.3113
Pt 20.4977 16.8784 15.0623
Pt 11.8628 33.2243 30.0681
Pt 19.3442 9.5974 27.7474
Au 19.4632 35.4452 19.3825
Au 26.5758 10.1453 34.6821
Au 13.1202 34.9827 34.4793
Au 21.8854 15.6357 10.5917
Au 14.9591 18.1947 9.41333
Pt 21.492 16.5763 20.3285
Pt 18.6052 30.2002 26.3003
Pt 18.8329 16.4539 27.7854
Pt 17.5065 36.8777 33.095
Au 23.2486 18.9444 23.7688
Au 6.41983 29.7776 26.4433
Pt 19.4594 16.9285 22.1658
Au 38.5334 30.6901 19.5657
Pt 25.9355 13.38 13.3346
Au 22.5064 35.9647 19.6773
Pt 35.8686 23.8224 14.2932
Pt 30.3621 21.6361 25.5033
Pt 33.3618 18.4993 22.1175
Pt 29.879 35.6927 23.0286
Pt 28.5307 17.3104 34.2533
Pt 31.2106 36.6069 25.0517
Pt 22.6336 24.7791 33.5376
Au 30.9551 28.2418 8.44972
Au 18.9522 23.6746 9.32265
Au 22.4495 40.5717 18.5878
Pt 18.07 33.9155 28.9537
Pt 16.001 18.3571 18.002
Au 18.7636 15.2133 40.3918
Pt 14.4439 25.2216 21.8553
Au 22.7903 43.0776 28.2358
Au 29.6213 14.602 34.5277
Pt 21.8538 29.8258 34.8895
Au 14.0163 41.0491 23.5188
Pt 24.6505 34.7171 20.9455
Au 16.5703 29.0314 18.1405
Au 13.3258 31.7811 15.1821
Pt 26.3581 40.3905 29.171
Au 26.1849 33.2398 41.1127
Au 28.2598 37.5517 32.2711
Au 23.674 17.4969 33.1232
Pt 21.879 19.5129 28.4222
Au 10.0253 11.4378 24.4339
Pt 35.7486 16.6568 25.607
Au 24.8127 5.89607 26.6817
Pt 11.7212 16.3322 29.5965
Pt 20.2844 23.0653 26.9813
Au 31.2126 7.77071 23.8988
Au 12.9467 25.4125 31.9793
Pt 25.6304 35.1267 29.7755
Au 41.9718 21.6883 30.2998
Pt 21.9495 19.7647 32.6854
Pt 36.5424 31.6432 30.4387
Au 34.9672 37.8138 33.7371
Au 32.0703 23.0343 43.7709
Pt 30.6978 20.6931 33.0175
Pt 29.3149 18.4679 9.7658
Pt 36.306 17.5365 18.4324
Pt 25.3775 11.6115 15.1922
Au 33.6394 11.9178 15.8909
Pt 27.717 14.9373 15.251
Pt 35.6144 25.4394 12.1101
Pt 30.5151 27.3828 15.9752
Pt 24.6108 40.1844 20.4655
Au 40.3531 16.2507 30.664
Pt 30.6474 28.7263 28.0799
Au 26.4256 7.5396 33.5856
Pt 31.6631 27.2746 38.5594
Au 15.2593 21.2465 40.2315
Pt 31.4444 12.1988 26.1249
Au 39.0052 27.8972 18.7461
Au 33.1023 17.3148 41.2569
Pt 22.815 27.1848 26.3678
Pt 17.3429 20.082 19.6248
Pt 29.7019 21.7397 37.3757
Au 33.8253 19.6003 40.0314
Pt 34.8323 16.6625 20.8385
Pt 36.2206 13.9389 25.3305
Au 32.9583 30.7618 41.2921
Pt 24.5763 25.4047 30.5411
Au 33.3934 36.4209 35.7579
Pt 28.3002 35.5374 34.7207
Pt 19.3222 32.255 38.2177
Au 32.3349 9.14328 30.951
Au 19.5648 7.62293 29.9642
Pt 40.4832 27.2615 30.3585
Pt 40.4745 27.7147 33.353
Au 16.985 8.04386 28.9579
Pt 17.1242 31.4307 29.5164
Pt 37.4489 24.1925 36.6075
Au 19.1353 42.0967 21.494
Pt 30.7791 24.3159 12.1117
Au 28.2507 21.9742 4.95071
Pt 31.0398 22.127 20.1468
Pt 27.4219 23.2344 31.3966
Au 36.5507 14.5075 21.2998
Pt 18.3555 15.1575 14.5967
Au 31.4832 11.4155 17.4982
Au 27.6127 30.0595 14.2379
Pt 24.1029 23.4052 8.35271
Pt 33.5619 28.0799 24.6098
Pt 22.8638 10.5907 15.4887
Au 21.1034 27.8273 12.9203
Pt 40.4022 22.33 23.4244
Au 37.1129 15.4645 16.5942
Au 22.8459 8.71666 13.62
Au 37.5775 21.4481 10.6522
Au 34.6641 15.9993 36.1607
Au 38.6358 16.7514 32.5551
Au 40.5217 32.4569 16.1233
Pt 39.9849 19.709 23.5486
Pt 29.5304 26.6384 11.8829
Pt 30.4977 31.2791 23.5327
Au 29.1138 11.3226 12.6282
Pt 26.6589 18.9592 13.6188
Au 39.56 16.564 15.8996
Au 38.8515 25.8567 16.3337
Pt 30.8569 34.9549 29.2172
Au 13.4054 13.139 32.9694
Au 25.1416 6.81798 31.2892
Au 24.8093 31.628 42.9387
Au 29.3253 9.76861 34.8201
Au 34.9181 40.448 29.765
Pt 19.1248 22.5923 34.702
Pt 20.111 23.0361 39.7186
Au 19.8173 40.989 31.1856
Pt 20.714 22.7015 29.6094
Au 18.6757 18.2772 39.1255
Au 36.4496 18.1758 36.6678
Pt 22.7141 23.4852 35.7804
Pt 12.9428 33.8092 27.5441
Pt 17.5563 28.5824 35.7401
Au 36.2644 12.2194 19.8954
Pt 21.9512 27.1371 34.7511
Pt 23.7777 19.6821 34.6759
Pt 34.0802 38.0462 29.2373
Au 19.9877 25.0465 41.5627
Pt 22.4006 38.7013 20.7199
Au 30.5715 34.2025 38.9038
Au 27.634 16.435 41.7108
Au 27.0502 41.9619 31.8933
Au 28.468 11.6818 30.5002
Pt 15.9758 20.1145 21.9843
Au 26.7525 38.0938 34.5743
Pt 22.4717 28.3498 37.0388
Au 23.8424 11.1521 12.7301
Pt 20.4934 25.0785 23.15
Au 11.027 24.1685 38.2069
Au 24.231 16.9373 11.0496
Pt 22.5697 9.4741 20.7088
Pt 28.909 19.3706 12.2313
Pt 21.4043 12.7053 16.5662
Au 29.0166 7.37477 19.0503
Pt 12.4364 23.3753 21.3155
Au 15.6764 27.8253 15.784
Au 17.2991 12.6567 10.7844
Au 26.4198 14.9019 10.9533
Au 28.9371 33.9507 17.5818
Au 13.0936 27.8688 9.61798
Pt 31.7119 23.0044 14.7564
Pt 10.4781 21.3678 20.6724
Pt 14.85 13.4207 17.1818
Au 22.5316 38.4878 37.7676
Au 11.2193 26.7113 11.2628
Au 18.5577 27.0616 13.0518
Pt 30.1099 27.0749 20.5216
Au 20.4502 5.94508 23.2041
Au 27.1745 37.4831 39.0353
Pt 30.0138 12.596 23.9072
Au 36.0058 33.2466 16.7799
Au 22.5616 20.2533 11.3017
Pt 18.8156 31.7935 24.1405
Au 41.0159 20.9816 32.7923
Au 29.8569 8.03462 21.5664
Pt 38.8915 24.3334 18.6768
Au 35.2215 16.1807 10.0105
Pt 31.8148 27.2445 33.1558
Pt 33.5012 17.7586 26.8213
Au 30.2897 40.0946 35.6963
Au 32.5459 33.6236 36.9923
Pt 22.6567 31.1942 28.0339
Au 36.1675 39.5926 21.5498
Pt 30.4164 24.4611 24.5337
Pt 35.992 27.3529 30.7319
Pt 23.0789 32.1321 21.226
Pt 36.3754 22.859 38.6887
Pt 33.0759 31.9952 22.5273
Pt 28.3305 28.247 30.9274
Au 42.4393 20.5919 22.8387
Au 25.0831 23.8424 12.9205
Au 15.2721 31.6017 9.18136
Au 37.7886 31.9056 38.5174
Au 36.577 36.0314 17.1819
Pt 34.8249 33.458 24.0744
Pt 28.9186 19.9711 23.7692
Au 18.1944 28.709 15.2228
Pt 25.073 38.3872 27.789
Au 41.8814 27.552 27.606
Pt 29.7825 18.9777 37.7745
Pt 17.4783 39.8963 22.5461
Au 10.1663 29.2619 31.6234
Au 11.6641 28.845 29.2608
Au 26.5265 10.6394 12.8552
Pt 15.391 17.3343 25.4106
Pt 14.5022 19.9782 19.692
Au 21.5037 39.271 11.2172
Pt 22.8662 18.8793 19.0403
Au 17.2656 25.8031 8.39691
Pt 21.5109 37.2033 29.5165
Au 12.4584 25.3262 17.4997
Pt 16.4819 12.9076 26.3351
Pt 15.1865 22.9349 25.9029
Au 17.5403 27.573 26.5835
Au 8.20228 28.331 33.3121
Pt 19.2343 27.4085 22.8006
Pt 14.7758 16.4488 16.3737
Au 7.6078 31.355 24.5609