2057
Atoms. Timestep: 20977
Au 32.8079 19.4371 19.3405
Au 24.0825 21.582 15.2076
Au 18.2922 17.0228 23.1636
Au 26.6364 21.2951 28.951
Au 19.8461 25.1958 25.8023
Pt 24.501 33.372 33.5218
Au 21.8706 28.9018 17.4446
Au 18.5733 23.1552 17.7518
Au 24.8798 25.7245 23.268
Au 19.1726 16.3913 19.6397
Au 22.6378 26.4902 33.4403
Au 16.6751 26.7441 18.2026
Au 21.1757 28.1146 24.3751
Au 29.8373 28.6443 30.0666
Au 19.6966 23.7279 23.1889
Au 26.6586 28.312 18.5202
Pt 19.5457 25.1073 9.17054
Au 19.8632 35.0384 20.9899
Au 25.8184 23.3037 22.3042
Pt 13.9629 37.6067 20.1232
Pt 17.2682 37.8321 23.7353
Au 22.8189 27.4352 22.1891
Au 28.4576 19.4477 27.4039
Au 16.3989 31.4159 19.9423
Au 20.1547 18.7059 21.02
Au 20.0486 22.77 27.3904
Au 18.5557 29.9093 30.1909
Au 26.3199 19.4434 31.3103
Au 28.4061 24.5808 16.6032
Au 18.1937 25.0871 15.6192
Pt 24.1408 36.2078 33.7007
Au 30.2571 25.7394 31.9808
Au 31.5123 21.6139 41.5625
Au 14.4159 29.1877 10.7528
Au 26.1478 30.5333 20.8896
Au 20.0838 15.2046 22.1232
Au 18.3528 19.9623 16.6515
Au 26.9077 27.667 8.68152
Au 24.5322 27.404 20.0137
Au 32.5675 18.9164 24.5249
Pt 35.6166 34.5372 26.9258
Au 16.822 27.6111 15.4602
Au 22.9978 22.9315 23.3028
Pt 34.3254 30.1848 17.0259
Au 29.4207 33.2385 27.266
Au 17.4401 27.2533 27.5362
Au 18.5268 29.272 23.6629
Au 20.8711 25.3642 21.3892
Pt 22.7302 35.5229 28.6687
Au 28.1647 18.6653 24.7304
Pt 19.1411 17.7281 28.351
Au 27.5906 40.8573 14.6003
Pt 18.9309 34.1145 25.2962
Pt 9.91981 27.8488 16.6717
Au 23.4491 18.3469 21.959
Pt 36.4529 19.6675 17.9993
Au 25.6893 33.7149 12.1176
Au 30.5971 18.5835 28.9163
Au 31.3039 31.2639 27.4775
Pt 10.5607 22.5962 16.2314
Au 17.4427 30.3937 15.2516
Au 14.494 28.2983 18.8883
Au 18.0122 29.9614 27.3886
Au 9.51236 28.9613 14.3121
Pt 9.47898 23.8722 23.9268
Pt 23.6408 38.2017 28.6293
Pt 21.3288 33.2894 28.7925
Au 17.2309 21.4863 19.6866
Au 14.6047 27.7458 13.4349
Au 23.5578 24.8379 21.0544
Au 32.9087 21.1728 17.1639
Au 18.0148 24.7504 28.1258
Au 22.4086 23.585 26.1885
Au 18.9111 32.7879 22.7878
Au 22.0289 25.3916 23.9322
Au 29.3035 31.0609 16.4065
Au 10.3003 33.86 17.194
Au 18.3485 34.2436 12.2689
Au 19.286 42.2945 18.3409
Au 30.4403 20.3218 25.6959
Au 29.3054 27.4991 25.6869
Pt 35.0688 29.1399 36.8265
Pt 37.0199 25.7262 29.3515
Au 21.8196 20.3853 22.6899
Au 22.65 31.5646 14.1225
Au 23.3894 26.8584 14.5316
Au 25.8562 28.2936 14.6886
Au 22.6234 33.7899 15.8431
Au 26.8741 38.2065 13.8495
Au 12.869 25.0292 21.0618
Pt 17.6607 15.656 27.4019
Au 16.7549 23.5893 30.41
Au 24.0504 20.4152 29.7514
Au 20.1797 28.1122 21.5764
Au 23.6905 35.8569 11.2219
Pt 29.3202 26.3861 9.14206
Pt 10.5113 23.8304 21.4927
Au 13.1991 32.2275 12.9944
Au 24.5448 34.8694 19.2211
Au 29.2195 24.4007 26.4727
Au 27.0628 30.924 18.0987
Au 31.3147 19.3108 31.458
Au 28.8465 31.0541 20.1975
Pt 31.4181 14.165 18.6347
Au 19.2845 25.864 18.0562
Au 15.2424 27.0855 9.33367
Pt 17.509 29.3997 32.6067
Au 19.5487 21.3068 21.5953
Au 19.4694 30.761 17.6269
Au 28.4155 15.654 25.8766
Au 20.6376 32.4906 12.174
Au 25.6954 17.9193 23.3876
Au 28.0093 21.9712 17.7684
Pt 24.6976 20.9928 35.5819
Au 18.8098 37.5688 20.7644
Au 13.1374 18.3401 21.2738
Pt 16.9358 19.3315 27.9197
Au 18.2247 26.2876 20.6608
Au 18.0079 40.2838 16.6689
Pt 10.5456 31.6417 20.3067
Au 19.1112 36.6326 13.6592
Au 27.947 26.7675 30.9974
Au 21.1424 19.3336 33.0316
Au 29.1313 26.3731 28.4828
Au 27.2061 21.2344 20.6901
Au 20.7454 25.2475 28.4619
Au 28.6819 15.4159 30.7258
Au 19.3694 20.2785 29.2788
Au 25.8994 15.5714 28.1186
Au 20.0355 31.4025 14.8995
Pt 21.668 40.0038 30.2004
Au 23.3812 29.2505 10.0109
Au 13.9437 34.5886 14.3307
Au 26.5892 33.0164 19.7222
Pt 32.0082 28.8753 17.1804
Pt 30.9224 20.6064 11.9282
Pt 38.069 21.5055 16.7613
Pt 19.6349 9.5254 19.638
Au 24.4058 27.4554 17.0772
Au 25.8609 22.9165 33.9521
Au 29.4345 6.15545 24.4468
Au 27.6038 26.8701 23.4885
Au 24.26 22.094 27.5515
Au 22.9515 22.1786 17.9115
Au 21.4526 32.8863 24.0427
Au 19.3673 28.1967 16.242
Au 22.2186 36.3993 16.4142
Pt 32.9541 28.5615 12.2086
Au 30.9302 26.062 16.8988
Pt 37.8746 14.671 17.9905
Pt 33.5691 26.0778 33.0141
Pt 27.5651 21.3419 35.3784
Au 14.641 29.5646 21.6327
Pt 10.157 26.4663 21.3567
Au 21.3642 29.7675 12.0254
Pt 21.3982 20.7987 36.5545
Pt 14.8928 23.1076 34.6781
Au 15.1653 32.2444 15.2936
Au 24.3682 37.2588 21.6187
Pt 28.4708 36.1634 27.9573
Pt 24.5882 35.0103 38.0268
Au 29.4217 28.9518 18.1344
Au 18.9252 30.591 20.9295
Pt 19.0066 13.906 15.0666
Pt 15.2821 10.7963 25.7575
Pt 33.1794 17.4728 29.2394
Pt 25.625 13.8073 22.7698
Au 19.442 17.4301 25.671
Au 22.233 31.8988 26.7334
Pt 28.6497 31.6599 38.6657
Au 25.5962 28.4229 22.5431
Au 24.8869 28.6356 30.0699
Au 16.3033 31.2333 10.691
Pt 20.1974 26.2421 11.6181
Au 24.3181 43.1396 18.3781
Au 23.6118 31.795 8.54451
Au 28.9461 28.0743 6.99219
Pt 31.3002 16.6323 31.1352
Au 27.5393 16.7915 33.219
Au 28.1188 21.9435 25.2578
Au 26.2242 18.4992 28.7931
Au 22.2363 23.0208 29.3257
Au 15.2645 26.4078 20.8484
Au 34.4117 26.7243 22.8913
Au 31.6095 24.0592 33.7287
Pt 30.4607 27.4907 38.4809
Pt 39.9685 24.6248 23.4516
Pt 30.084 16.738 14.6336
Pt 35.4182 13.7764 22.0401
Pt 37.8134 23.9443 18.0269
Au 31.7302 26.8928 19.3557
Au 41.5792 15.7943 18.0968
Pt 33.7861 26.8567 17.5499
Au 23.2191 19.4181 16.7864
Pt 35.3759 22.2161 18.0032
Pt 14.4359 19.2888 26.5417
Pt 23.5812 16.6008 36.0552
Au 22.0464 22.4449 20.7491
Pt 13.3239 23.4796 32.3545
Pt 19.9211 31.3876 35.6003
Pt 19.3366 27.0704 40.0703
Pt 11.3019 31.2315 33.0079
Pt 15.4914 31.0749 33.1609
Pt 11.0648 34.6865 25.62
Au 12.9303 38.1739 17.4864
Pt 16.9351 23.4977 13.3668
Pt 18.3732 18.8109 12.0271
Pt 15.4848 25.3324 14.3391
Pt 27.6931 18.4476 14.3816
Au 16.876 29.1757 9.00358
Au 21.5579 23.2788 5.72921
Au 10.7152 31.1726 13.4056
Au 25.6752 42.2155 16.1952
Au 28.1325 30.1838 8.65639
Au 26.2115 35.162 26.5811
Au 20.037 35.9851 18.3394
Au 14.565 37.0094 15.5841
Au 31.601 25.7771 26.8667
Pt 38.8761 24.1542 20.3049
Au 28.8337 31.0958 29.1214
Au 31.942 26.4881 22.0439
Au 29.0348 20.6441 30.1676
Au 16.9146 29.5123 17.807
Au 15.7855 24.4709 16.8612
Au 16.8087 24.9588 8.69581
Pt 14.3912 33.0116 28.4185
Au 15.2091 30.4829 13.1876
Au 19.1544 28.8745 13.4735
Au 24.9576 35.2368 16.541
Au 19.9459 30.36 32.941
Au 17.2869 21.9982 22.8489
Au 25.9782 16.4079 30.9171
Pt 31.3876 17.9601 10.3735
Au 33.2377 21.6864 24.8977
Au 25.1493 22.5904 24.9529
Au 16.8816 18.5482 25.2299
Pt 36.1214 28.3868 17.9094
Au 23.3409 13.3114 24.3807
Au 28.4519 16.845 28.318
Pt 33.7411 19.8646 30.3718
Au 23.6563 25.004 18.2687
Au 20.7338 23.828 16.1097
Pt 12.5814 16.3141 23.1966
Au 25.3351 20.589 18.3091
Au 12.3262 14.2604 12.2599
Au 32.8725 32.8419 10.3836
Au 15.2819 23.8322 27.1406
Au 21.8512 27.0416 19.4741
Au 14.7634 29.3987 15.75
Au 14.451 31.0759 17.8835
Au 22.4244 29.144 26.8542
Au 20.5739 30.4066 28.4627
Au 20.124 12.9014 23.5482
Au 21.6706 17.6012 27.423
Au 21.8774 33.9671 18.7435
Pt 24.6637 32.9042 36.3699
Au 24.8269 30.4457 26.6786
Au 18.5817 25.4134 31.3481
Pt 26.1843 21.8849 37.7346
Au 30.9014 8.79239 17.1692
Au 26.5735 20.6095 23.3062
Au 29.3351 20.571 23.0191
Pt 36.0247 18.5983 31.1381
Au 22.5946 13.4074 21.6727
Pt 26.9494 13.365 26.9906
Au 27.5197 15.9147 23.2288
Pt 23.5641 7.997 25.5789
Au 15.6058 18.6623 12.4768
Au 16.9807 28.6946 20.5459
Au 24.0637 30.0546 15.9369
Au 16.6126 31.0976 22.709
Au 28.3516 29.7091 13.5263
Au 24.8245 40.3118 14.3533
Au 28.3254 31.2772 11.2178
Au 26.667 30.8035 15.4563
Pt 27.3826 37.9573 29.6571
Au 11.1002 18.76 12.1981
Au 17.4792 22.0789 28.2038
Pt 16.7931 13.0805 18.3724
Pt 35.5841 13.7385 16.9071
Pt 26.8068 14.0418 19.3048
Au 31.4687 23.7598 21.9526
Pt 27.0018 11.1351 20.4652
Au 30.1789 14.9819 23.6796
Au 22.4816 12.0492 18.7472
Pt 35.2454 17.797 35.1259
Au 29.7718 33.6131 30.1138
Pt 23.4439 15.5453 31.6693
Pt 19.6319 32.4548 38.2292
Au 26.1717 20.3646 26.2503
Au 21.7623 20.6703 27.8461
Pt 36.3574 25.5372 21.4068
Pt 36.5171 27.6347 27.5964
Au 20.1374 21.1571 18.939
Au 21.7619 34.5587 26.1463
Au 25.6136 18.8057 20.3866
Au 24.2341 38.1574 12.7881
Pt 14.6098 18.9082 29.2529
Pt 13.5788 30.5338 29.0594
Pt 13.1891 12.5784 20.8543
Pt 14.1859 33.7002 25.6326
Pt 8.62194 21.0782 25.0503
Pt 15.5445 28.8659 28.3234
Pt 15.8155 25.7861 11.595
Pt 11.7501 31.5594 17.923
Pt 18.1905 24.4819 11.2693
Au 15.5591 41.3824 21.1623
Pt 17.3896 18.3107 14.697
Au 25.966 31.0433 12.7487
Pt 35.844 18.0998 15.2273
Pt 36.9074 25.4098 26.5543
Au 31.7478 22.8579 26.8881
Au 31.6883 21.5069 29.4608
Pt 40.9563 19.2099 27.5847
Pt 33.1586 21.7823 34.8284
Pt 9.11121 18.0318 20.9019
Au 17.9021 26.4262 13.2117
Au 16.3608 24.1764 19.5189
Pt 8.09474 25.3063 28.428
Pt 14.1397 23.5936 29.8635
Au 9.94289 13.9368 29.215
Au 23.9258 29.3008 13.0268
Au 24.9551 23.1984 30.2208
Pt 19.8888 38.2827 23.4205
Pt 32.576 39.8923 29.292
Au 23.8591 36.4301 26.4291
Au 24.2661 29.8624 18.7325
Pt 24.995 12.7444 17.6618
Pt 23.387 11.1891 16.1562
Pt 13.7346 15.9562 25.7072
Au 24.4175 5.52911 20.7803
Au 26.6886 6.70482 25.727
Au 23.5192 15.7185 22.8538
Au 19.7058 11.7467 37.6659
Pt 28.727 28.7112 40.5234
Au 24.1838 43.5922 31.9191
Pt 14.9499 25.6875 31.7527
Au 26.2616 24.8973 32.0249
Au 26.6105 23.5996 27.3647
Au 33.2648 9.80436 18.215
Pt 23.3528 16.9087 15.7399
Pt 29.3658 18.1886 12.2773
Au 24.9915 33.8085 9.63517
Pt 26.1643 21.0371 13.1017
Pt 26.0854 24.6579 8.58929
Pt 31.6689 23.2382 36.5813
Au 35.6071 11.7127 32.7711
Au 26.5132 25.8252 21.0262
Au 20.0533 27.4955 32.6118
Au 22.2831 26.4224 26.4807
Pt 29.0743 22.7694 37.0173
Au 29.1889 22.0579 27.8446
Au 33.4632 24.3876 28.4979
Pt 34.4838 26.953 35.4099
Au 19.5324 27.4173 29.6491
Au 26.8823 32.2348 26.3326
Au 23.8475 17.1364 29.2441
Au 31.0532 38.2521 36.2579
Au 22.1827 21.7066 34.2022
Pt 41.3978 23.8249 20.7945
Au 10.7391 26.8953 12.9587
Au 23.732 14.7402 19.1111
Au 22.6222 27.2457 11.77
Au 41.1994 18.2333 16.7975
Pt 34.9211 28.0012 15.4875
Au 25.986 25.4621 15.2209
Pt 26.171 18.2107 12.0339
Pt 38.9591 25.6165 14.7195
Au 22.2776 19.132 6.37669
Pt 24.2789 24.104 10.7073
Au 28.6973 35.1945 25.367
Au 33.0657 30.153 9.82592
Au 23.1441 41.4498 16.3209
Pt 19.4758 17.9003 31.0724
Pt 13.2618 25.067 36.2592
Au 28.6581 18.0726 30.9255
Au 27.9863 23.9078 29.8429
Au 23.6974 18.4241 31.7919
Pt 12.7589 25.172 28.1316
Pt 23.5422 21.6947 37.9378
Au 19.9363 27.9153 26.8563
Au 16.2443 28.9535 25.393
Au 18.0979 23.0968 25.389
Au 20.7434 21.9071 24.8106
Au 17.6465 33.7051 39.6928
Pt 15.0765 28.1289 36.8612
Pt 17.6334 32.1531 31.6543
Au 20.8129 18.4846 18.2586
Pt 12.3859 28.954 17.2925
Au 25.9073 18.1035 16.7503
Au 12.4887 29.387 12.6111
Pt 11.8195 26.1475 16.7017
Au 22.1474 29.7948 7.54207
Au 27.6496 32.9281 9.21051
Pt 18.6577 22.2687 15.0846
Pt 16.4348 21.9248 16.8188
Au 17.7656 33.2639 14.8166
Au 23.3659 24.246 15.4331
Pt 24.0311 41.6495 20.6922
Pt 22.8141 27.0634 7.96007
Au 36.2384 23.9609 10.9523
Pt 35.8936 35.84 24.5954
Pt 34.3821 31.6646 23.0161
Pt 32.4443 27.095 14.8191
Au 25.7466 34.7912 21.6689
Au 30.9488 29.8398 24.9753
Au 22.6791 34.9388 21.4067
Au 20.8705 35.6394 23.6336
Pt 36.6029 24.9753 13.6508
Pt 33.9752 35.3276 29.0231
Pt 41.3232 20.1573 23.0567
Au 23.7618 32.2581 19.9449
Au 21.5932 19.39 25.3685
Pt 38.3161 28.9637 33.5438
Au 31.8399 26.5667 29.7103
Pt 11.8568 33.3298 21.7637
Au 8.08083 23.6501 15.3282
Pt 10.3611 23.9583 28.1172
Pt 13.2658 33.4277 16.7864
Pt 14.054 23.9144 12.3918
Pt 10.4759 26.7435 28.3011
Au 21.4361 29.3332 30.8927
Pt 9.86113 29.2752 21.3121
Pt 10.0418 29.5994 18.5996
Au 21.2535 32.5866 21.1472
Au 22.1153 31.5847 17.3518
Pt 13.0971 27.6958 28.4124
Au 14.7188 26.6684 26.2948
Au 19.5261 23.0405 30.1136
Pt 36.1549 22.0401 24.2822
Au 24.6754 25.1606 25.8824
Pt 33.4668 21.4712 12.5559
Pt 40.3257 22.3609 18.6854
Pt 40.4709 22.3488 30.9237
Au 25.5555 23.1724 16.9685
Pt 40.5518 18.9164 20.7107
Au 27.3388 33.4686 16.2863
Pt 30.4728 8.78655 27.6058
Au 30.4915 19.2002 20.9236
Pt 39.7439 19.8514 29.863
Pt 31.0782 17.7922 35.8804
Au 30.7109 29.1263 20.5791
Pt 27.6424 7.71014 23.2824
Pt 18.6183 13.2244 31.2319
Pt 12.2473 19.9527 27.9626
Pt 11.1847 19.9662 25.4006
Pt 10.8995 20.1067 20.8375
Pt 15.1828 14.532 27.9167
Pt 14.0477 13.2173 29.9065
Au 9.51872 19.3519 34.04
Au 15.7602 13.2746 20.9539
Au 15.2542 23.3132 24.4112
Au 7.43752 19.2925 26.8438
Au 6.41537 21.3311 30.5042
Pt 11.9222 19.0655 32.9374
Pt 11.1318 29.4875 27.8172
Au 15.3402 17.4366 22.9296
Pt 20.4378 36.6445 36.3185
Au 26.0163 27.698 32.9222
Au 22.3845 27.4729 29.1559
Au 23.2173 30.8292 29.2721
Pt 26.7951 34.804 33.0781
Au 23.7194 25.041 28.4596
Pt 19.7529 33.0663 33.2881
Au 24.8127 32.4834 17.3929
Pt 24.2726 28.1029 35.1945
Pt 17.3662 32.7109 36.9888
Pt 26.819 32.5789 34.8844
Au 24.3206 33.3383 28.2784
Au 29.8298 34.4349 22.9314
Au 32.7532 29.1965 29.4828
Au 23.5182 17.326 25.0791
Pt 22.6808 10.8421 31.6846
Au 23.2284 15.3113 27.0696
Pt 21.2862 8.49486 24.1905
Au 16.2834 21.2136 25.9101
Pt 20.8282 12.9868 35.7169
Au 14.8432 20.6059 20.846
Pt 27.9915 13.2373 21.7096
Pt 26.9771 14.1476 32.6057
Au 30.1163 9.50613 14.4734
Au 26.9754 16.7856 18.8795
Pt 31.9532 13.1824 28.1052
Pt 36.7934 17.8169 26.5267
Pt 32.5934 17.25 33.7714
Pt 26.8153 37.1597 20.4558
Au 30.5708 42.128 21.9036
Pt 18.1148 37.8549 17.9887
Pt 14.2813 26.8252 16.2872
Au 18.3126 35.6401 16.1824
Pt 25.9196 42.2592 24.7795
Pt 28.5121 40.4715 21.0801
Pt 27.2676 38.8126 22.7806
Au 19.315 28.4151 19.0018
Au 24.7821 35.7473 13.8796
Au 32.3753 27.4492 24.8005
Au 23.541 30.039 21.6484
Au 26.0404 31.0946 29.025
Au 18.0737 31.4055 12.7411
Pt 16.5242 16.1384 12.9186
Au 31.4899 16.2351 21.1959
Pt 16.3682 15.9262 25.0851
Pt 11.2484 17.2327 25.3959
Au 34.6898 14.8689 13.7178
Pt 17.7769 11.5415 21.8016
Au 21.6762 18.7447 29.966
Pt 20.075 10.5741 28.1155
Au 29.4261 39.3112 13.4496
Pt 19.3293 11.9439 18.4222
Pt 20.4933 11.646 20.9179
Au 28.7535 15.7098 20.7437
Au 29.0873 14.068 28.3757
Au 30.7557 24.2586 19.2511
Pt 31.3697 19.833 34.0608
Pt 38.2489 29.6787 28.1875
Au 31.7416 28.2412 32.0583
Pt 32.6572 30.9172 32.7023
Pt 41.5605 24.1123 28.8402
Au 34.2151 22.8751 22.4208
Au 41.455 26.9487 34.3154
Pt 31.5698 26.7793 34.4746
Au 27.9511 18.3719 21.6817
Pt 25.3871 33.9431 30.9233
Au 23.3646 23.808 32.614
Au 27.1148 33.6404 28.7249
Au 21.1459 31.22 9.65538
Au 22.0504 36.6623 13.6904
Pt 38.385 22.8519 14.2335
Pt 34.3988 35.3744 22.2402
Pt 35.0622 17.4702 24.2833
Au 20.0143 37.9665 15.9564
Pt 34.3713 14.1116 27.2238
Au 26.0419 28.5845 11.2406
Pt 25.5774 15.3396 16.9182
Au 24.3033 33.0698 25.4719
Au 30.2828 17.7689 23.2794
Pt 27.41 24.4594 12.9064
Au 19.0689 26.4755 23.4925
Pt 10.3545 32.2193 28.3555
Au 20.9117 14.1163 19.5682
Pt 13.6443 28.3971 23.988
Pt 22.7206 9.7556 27.4855
Au 20.9633 30.44 22.7831
Au 25.0882 26.1704 12.5167
Pt 19.0102 38.0997 28.1145
Au 26.1692 17.5415 26.176
Au 24.7513 27.6715 27.4702
Au 16.8637 17.4605 29.9288
Pt 17.6491 34.3005 34.8217
Au 20.9712 20.9465 16.3087
Pt 10.8829 19.8241 16.8867
Au 25.1498 23.0346 19.6672
Pt 13.5387 35.7004 18.2582
Au 19.1393 19.7173 23.8024
Pt 13.0809 37.5585 22.6346
Au 20.3687 34.3448 14.3198
Au 12.972 40.1593 21.6109
Au 22.7184 19.8666 19.6817
Au 21.6481 29.0485 14.7473
Pt 21.0332 13.1263 16.7423
Pt 30.2027 28.6432 15.3723
Au 44.7144 26.45 24.945
Pt 39.0075 16.6857 21.6542
Pt 36.3834 23.498 15.8605
Au 17.0262 25.6608 25.2633
Pt 35.6319 24.6644 24.0149
Pt 30.0318 17.5722 33.3662
Pt 36.3383 30.248 34.798
Au 11.4432 24.3357 12.0062
Pt 9.80126 16.1191 23.2748
Au 14.291 25.7451 23.5169
Au 12.8115 9.88662 20.1092
Au 24.3909 21.0492 21.5756
Pt 13.4682 20.989 33.7588
Pt 15.2172 26.0189 34.7912
Pt 15.6145 36.409 31.6257
Pt 13.1915 36.2741 25.9563
Au 22.8675 34.0105 12.9509
Au 26.5501 33.9584 24.1207
Pt 31.291 34.5264 25.3428
Pt 30.8183 37.0551 26.3287
Au 42.3163 28.9026 31.3957
Pt 16.2784 14.8156 30.5268
Pt 17.4 13.9228 23.116
Pt 20.2425 11.0024 30.7424
Pt 29.6841 11.1327 21.2167
Au 24.3283 7.14085 18.2177
Au 23.7157 10.8325 11.628
Pt 36.3911 18.1909 22.1791
Au 21.1519 17.5625 23.3122
Pt 27.2984 21.1086 40.1226
Pt 17.2142 26.998 33.3735
Au 15.3936 25.9607 29.0195
Pt 25.1474 32.5043 38.9916
Pt 30.7899 30.5412 36.9834
Pt 19.1394 29.7066 39.4106
Au 21.7341 26.3001 16.7696
Pt 23.3496 24.2575 7.98543
Au 20.6232 26.482 14.2853
Au 26.262 11.4115 12.4803
Pt 32.1697 25.9299 12.4364
Pt 35.2071 29.5669 13.2717
Au 30.2695 34.9714 13.2947
Pt 31.1664 14.0127 30.4732
Au 18.0501 18.8603 19.0841
Pt 29.551 10.4991 32.2009
Au 28.7746 20.146 33.0178
Au 30.6414 22.7131 24.3606
Pt 29.5489 22.2751 39.7096
Pt 32.0534 22.9795 39.2454
Pt 33.1694 30.7357 38.0633
Au 21.4113 25.3208 31.132
Au 42.7537 21.0321 30.7475
Au 24.0661 26.1974 31.0738
Pt 22.9196 33.1432 30.861
Au 27.1716 24.4391 24.5385
Au 25.197 31.2692 41.7
Au 30.039 28.1005 23.0379
Pt 33.5869 31.0155 35.4259
Pt 27.5769 26.2505 34.8659
Au 28.4402 24.0439 33.519
Au 23.5367 28.9235 32.5747
Pt 21.8646 29.5427 34.8483
Au 35.5995 21.2248 10.635
Au 40.359 18.6891 14.241
Au 30.2012 17.4392 18.9285
Pt 25.5887 16.5416 14.4022
Au 27.9268 23.8362 19.7642
Au 23.536 31.7527 11.3986
Au 18.73 32.399 10.2093
Pt 32.8232 20.3568 10.1027
Au 19.0775 20.2301 26.4965
Pt 31.5162 23.3446 12.2413
Pt 38.2963 28.315 16.3311
Au 31.8203 19.5333 7.57788
Au 38.4463 18.5864 16.3378
Pt 20.9383 20.5583 11.7436
Pt 29.0283 22.6178 11.5613
Pt 33.9345 22.6354 15.1164
Pt 29.7976 26.0055 14.4429
Pt 33.4238 19.8536 14.8073
Au 13.9181 40.2321 19.0982
Pt 31.4281 27.5132 10.3328
Pt 10.5924 24.1578 32.8592
Pt 19.8722 24.2472 39.5272
Pt 32.6159 18.1598 38.2824
Au 29.4191 14.4118 39.4113
Pt 20.8105 18.9233 38.4984
Au 6.25554 28.4737 30.0891
Pt 13.6316 30.3215 34.8779
Pt 19.5848 22.5168 35.6848
Pt 16.7739 13.721 33.3706
Pt 29.8064 18.0812 38.1357
Au 13.1311 27.0711 38.4811
Pt 21.7131 37.057 32.657
Pt 16.6133 20.5228 30.3419
Pt 18.1023 22.9001 38.0322
Au 7.77587 32.5743 29.2577
Pt 22.5644 28.2174 37.2945
Pt 15.7884 29.9957 30.6712
Pt 23.951 23.4131 35.8029
Au 27.9654 23.5031 41.6948
Pt 25.7167 26.4068 36.9984
Pt 11.1167 16.4261 20.9372
Au 15.8505 22.4332 8.20723
Pt 23.2112 14.9914 13.6508
Au 9.84526 13.8552 17.1811
Pt 18.8931 14.5189 17.5883
Pt 14.1193 22.6358 18.5703
Pt 19.6755 24.1629 13.4178
Pt 24.498 17.3407 10.1994
Pt 22.0459 25.2909 9.91887
Pt 27.925 20.1127 11.2569
Au 7.22485 27.0073 17.0974
Au 11.8268 21.4663 11.8341
Au 29.4943 42.333 19.3517
Pt 20.5525 14.8894 12.7213
Au 12.3838 16.6275 10.5656
Pt 14.6427 21.3575 12.4938
Pt 28.7976 20.87 13.6307
Pt 12.1191 28.1638 14.8903
Au 20.6948 27.9974 6.32231
Au 19.3285 43.848 23.565
Au 40.3704 30.1609 16.6345
Au 34.1066 21.5066 27.8994
Au 30.5784 31.3413 22.5021
Pt 36.0403 32.324 17.0913
Pt 37.3928 28.8041 20.3533
Pt 38.1685 28.3185 25.6603
Pt 32.7515 31.5886 20.8377
Pt 35.1445 25.301 31.1405
Au 32.8393 24.5796 24.4112
Pt 36.9405 31.218 21.702
Au 24.9364 31.1928 31.6307
Au 27.8226 32.6059 22.1762
Au 32.095 20.9879 22.3791
Au 33.5973 24.8786 20.4166
Pt 36.3432 33.4537 23.2946
Au 23.9623 32.692 22.6308
Pt 39.288 30.7155 25.8649
Pt 36.0879 29.9924 26.6453
Au 26.3317 36.4197 11.7005
Au 30.6542 17.4405 26.0777
Au 27.7269 27.1146 13.1068
Au 6.83891 25.8712 31.1338
Au 7.87511 29.6023 16.9229
Au 6.70581 24.4442 17.6017
Pt 12.5387 23.1988 23.3415
Pt 16.6937 33.4981 26.8776
Au 9.5315 34.2692 20.0705
Au 18.8981 23.6401 20.4877
Au 7.54057 29.7456 19.6969
Pt 12.3676 29.6568 19.8968
Pt 12.6916 27.6333 21.5932
Au 18.2889 42.2994 20.932
Pt 10.92 28.2 23.4704
Au 14.913 23.2131 21.6502
Pt 9.59584 28.0314 25.9517
Au 14.7322 14.6175 23.507
Au 26.177 25.9098 29.1717
Au 20.2684 23.2564 32.7612
Au 16.3983 27.5802 23.0651
Au 10.4245 16.7171 33.7384
Pt 37.3248 15.8427 30.7349
Au 33.239 29.3268 19.518
Au 28.2456 32.5891 13.7136
Au 21.1555 24.1136 18.8591
Au 27.961 27.3419 16.1956
Au 33.1539 18.4243 21.8326
Au 28.5732 23.2613 22.5169
Au 36.532 11.0838 30.2193
Au 30.5415 22.842 16.7791
Au 32.645 29.3147 22.5545
Pt 36.8401 22.136 33.9846
Pt 34.9118 19.7291 25.8374
Pt 32.5382 21.6297 32.2451
Au 33.0295 24.0707 17.5254
Pt 27.6948 8.90534 27.7073
Au 39.9297 14.5704 19.9754
Pt 32.4908 25.702 39.5873
Pt 35.54 16.2721 28.6559
Au 35.5745 16.9042 37.7222
Pt 35.458 21.0416 32.1476
Au 20.5079 9.07548 32.6779
Pt 12.8517 20.0466 18.9558
Pt 12.7706 20.6332 22.8619
Au 13.2943 10.8691 16.6356
Au 8.66121 13.607 22.6296
Pt 20.2947 15.2034 27.3029
Pt 12.3373 18.5523 30.3946
Pt 11.405 23.0742 30.3974
Pt 18.7742 17.04 16.8524
Pt 11.2745 14.1178 22.113
Pt 16.0304 20.1734 34.0804
Pt 13.2631 21.13 30.6336
Au 9.713 18.1313 31.3837
Pt 19.5449 13.9435 33.5314
Pt 12.4709 22.4982 27.9386
Au 9.68065 15.3383 31.549
Pt 11.5016 25.6631 23.5702
Au 11.1444 21.0004 35.4861
Pt 16.8714 27.5275 30.6877
Au 11.5405 12.1092 30.6972
Pt 21.6953 28.4992 39.871
Au 27.2528 33.0329 40.5989
Au 15.9981 37.8442 36.9645
Au 27.342 29.4747 30.9971
Pt 13.6343 35.19 30.0256
Pt 22.5031 32.7856 38.0725
Pt 21.6081 25.8997 40.8534
Au 11.8037 36.8033 28.6322
Pt 16.3665 29.2753 35.0167
Pt 15.6312 36.1666 34.2817
Pt 27.4447 36.6123 36.702
Pt 22.0875 34.364 33.2866
Au 28.9551 28.0292 33.319
Pt 31.0755 34.8285 34.5629
Pt 31.4556 33.2741 32.2696
Pt 33.5076 36.2806 26.5537
Au 27.5195 32.3521 31.3717
Pt 34.1369 33.7611 31.4958
Au 30.4352 39.6054 33.8646
Pt 36.1363 27.4193 33.1883
Pt 24.9843 22.3689 40.2535
Au 21.7573 12.8666 26.6405
Pt 23.6803 8.90518 23.143
Pt 24.3344 12.8187 27.2295
Pt 15.4903 17.0765 27.4582
Pt 23.5653 15.4179 38.7074
Pt 18.8101 17.4956 36.7173
Au 25.4917 15.0175 25.2198
Pt 12.7278 17.3924 27.6575
Pt 21.9916 11.027 23.172
Pt 31.1456 12.6533 32.8199
Au 21.451 15.2806 24.8095
Au 25.1669 6.60779 23.241
Pt 25.1954 8.08454 27.6929
Pt 32.5294 10.5394 27.6266
Au 42.4558 17.067 27.7379
Au 14.7657 7.98341 22.0962
Au 34.9342 9.38 28.5784
Au 35.6382 8.80878 25.9956
Pt 33.846 16.9081 26.5546
Pt 27.0884 35.2869 18.3449
Au 21.8799 41.5091 18.9871
Pt 23.0601 39.2495 20.1101
Pt 20.6726 38.6545 18.8013
Pt 16.466 33.5688 24.0694
Au 25.7588 37.3405 24.5258
Pt 17.4601 35.0886 18.8472
Au 20.6445 40.5199 16.7133
Pt 18.5781 40.0554 19.3641
Au 16.5111 35.6319 13.9901
Pt 26.6341 41.9518 19.5562
Pt 33.3393 36.1534 17.8114
Pt 19.4379 40.9859 23.5302
Au 18.935 32.9148 19.5188
Au 28.0302 41.6802 17.2063
Pt 21.99 39.7126 32.9231
Au 27.5326 35.3139 14.1111
Pt 38.017 35.0351 26.1316
Pt 23.4144 35.7114 31.1532
Au 24.0124 27.879 24.7724
Pt 24.5826 10.2138 18.7134
Pt 10.9654 20.4936 14.381
Pt 23.3968 14.069 16.1028
Au 17.5859 7.7205 18.7005
Au 12.5513 11.7427 28.1257
Pt 27.4654 13.3233 16.7395
Pt 16.0619 23.0682 10.8481
Au 14.1611 8.52511 24.7731
Pt 24.8762 11.2993 22.7371
Pt 16.5118 13.2974 25.9474
Au 28.9406 11.0058 12.1621
Pt 13.2517 16.9895 12.8829
Au 13.8686 9.35394 27.5152
Pt 26.5883 8.58698 19.14
Au 28.2081 8.49753 16.6932
Au 14.6925 12.5604 12.2397
Pt 34.7312 11.8534 23.8851
Au 30.0686 22.7217 31.6484
Au 24.0404 20.1048 24.3566
Au 31.2301 15.8837 28.3512
Au 37.1993 10.7164 24.8318
Au 29.6924 30.5132 32.4186
Pt 35.3165 14.4483 31.9203
Au 26.6053 28.7789 25.3507
Au 21.3971 6.0513 25.4181
Pt 26.1083 39.4441 31.9444
Pt 34.1343 11.9769 29.1148
Pt 19.5305 25.0013 36.7556
Pt 29.7981 25.0505 35.7076
Au 27.0539 26.3141 26.5574
Au 29.8693 6.73755 21.8106
Pt 28.7874 30.6123 35.3828
Pt 33.2475 9.79989 25.1229
Pt 37.7997 25.8446 31.8832
Pt 30.7012 10.5503 25.5546
Au 28.9255 21.1073 42.3583
Au 37.3041 10.5027 27.6435
Pt 25.425 36.1004 29.0654
Pt 30.648 24.3761 41.1267
Au 26.2311 19.2652 34.0201
Pt 30.9226 22.4323 9.70084
Au 34.2195 35.664 14.073
Pt 36.6466 17.0096 17.6826
Au 33.1621 41.0812 22.4029
Pt 38.3367 19.7061 27.4856
Au 30.1214 25.4103 24.0604
Au 32.9573 22.2177 19.8465
Au 34.915 27.3421 20.1251
Au 44.1673 25.8915 22.3861
Au 42.4268 21.0317 20.6348
Pt 21.537 20.1644 8.76092
Pt 31.5853 36.2229 21.6764
Pt 34.2125 15.9051 16.4627
Au 30.9904 28.477 27.5122
Pt 34.9016 15.2386 18.9504
Au 22.253 33.7528 10.09
Pt 34.1762 18.5769 17.1542
Au 17.1772 37.9769 15.3642
Pt 29.3656 20.1796 16.0083
Pt 30.6882 32.6566 12.0475
Au 17.0297 24.7503 22.6081
Au 20.1742 30.5981 25.4877
Pt 15.4736 21.9844 32.1654
Au 28.2681 40.3495 30.5602
Au 21.9663 16.6007 20.4669
Au 13.5979 37.9448 30.4417
Pt 19.506 17.319 33.9053
Au 27.1432 22.0799 31.7236
Au 15.5801 17.9525 19.9567
Au 11.1164 25.2814 37.8335
Au 17.3167 19.3017 21.7527
Au 13.8324 37.9239 33.2492
Au 21.8207 21.3308 31.3019
Au 21.0974 37.9151 39.201
Pt 28.6479 18.7956 35.5579
Pt 31.1419 37.2176 32.797
Pt 18.8514 19.831 34.7152
Au 22.5153 35.656 40.2235
Pt 18.0602 15.265 35.1913
Pt 25.6973 35.0863 35.4761
Pt 13.8296 15.3278 21.0949
Pt 15.1111 33.6491 18.9089
Pt 17.3923 11.9096 16.1717
Pt 12.6139 30.9373 15.3663
Pt 17.5473 8.87601 21.3042
Au 14.0914 24.5903 9.70112
Au 25.5572 15.9543 21.0482
Au 15.4512 39.3976 17.0065
Au 15.3079 20.2582 23.5891
Au 13.7719 21.8792 9.92146
Pt 18.7919 14.839 25.0442
Pt 16.6366 33.8477 21.2913
Pt 16.7581 13.323 13.9108
Pt 14.3587 32.9529 22.7049
Au 16.8182 15.8358 21.2017
Au 14.5834 41.1773 23.7517
Pt 12.5212 13.6281 16.833
Au 37.0609 26.575 11.4053
Pt 24.918 19.1009 14.349
Au 22.8157 44.0718 20.4706
Pt 36.5925 30.1555 15.5284
Pt 37.6127 17.9958 29.1684
Pt 36.7425 21.581 26.8123
Pt 33.7658 28.4847 27.0698
Pt 38.7978 26.2514 34.2342
Pt 32.52 24.295 31.1821
Pt 37.7299 31.8517 32.7559
Au 26.2817 25.5852 18.1991
Au 5.11089 23.3847 22.745
Au 10.3527 13.6118 14.2531
Pt 8.34674 19.8429 22.5184
Pt 13.558 29.3759 26.458
Au 16.4853 16.1209 37.2826
Pt 11.2571 30.1512 25.1496
Au 15.5828 26.4426 40.1824
Au 13.4938 24.4682 39.1541
Pt 12.1033 33.8272 19.2361
Au 21.9725 42.767 30.1612
Pt 18.8603 36.6834 25.5541
Au 21.4952 30.1378 19.829
Au 22.6049 36.7208 19.146
Pt 23.6732 38.356 31.201
Au 37.1087 38.2153 30.6313
Au 38.2723 35.466 23.3182
Au 19.4907 6.84936 20.4405
Pt 21.5811 15.6585 29.5342
Au 16.2023 13.5398 36.262
Pt 36.9217 13.3196 24.2863
Au 35.1254 9.2901 23.1563
Pt 24.8753 12.6028 20.3911
Pt 25.9397 9.26192 24.849
Au 39.3043 11.9374 26.4071
Au 19.2201 16.8342 39.4466
Pt 35.171 36.2838 31.2939
Au 33.8485 21.0082 40.1872
Pt 25.1027 19.7307 39.3903
Pt 21.3783 26.0507 38.2983
Au 39.0315 26.035 36.9672
Au 31.2579 11.8869 35.4139
Pt 27.4686 23.8667 38.9352
Pt 19.1144 12.6337 12.774
Pt 29.0118 15.1809 17.9131
Pt 20.7611 23.2024 11.078
Au 28.6555 19.1862 7.2194
Pt 28.7166 17.6549 16.7287
Pt 30.0109 20.0405 9.50801
Pt 34.7448 26.79 13.0045
Pt 30.7289 30.9746 14.0187
Au 34.75 26.9456 40.8022
Pt 37.0909 27.7215 35.6914
Au 37.4643 18.6953 36.422
Pt 32.7737 28.423 39.4347
Au 25.7743 7.68403 32.4027
Pt 29.1874 9.61249 29.8507
Au 28.6972 30.171 26.5167
Au 33.3985 15.6246 38.9297
Pt 30.947 27.2827 41.0961
Pt 23.3977 19.0428 37.3038
Pt 25.0128 25.501 34.4347
Au 31.0421 16.612 40.1716
Pt 26.4149 9.19779 30.1506
Pt 35.597 22.9332 36.2044
Au 35.0605 34.4392 36.1483
Pt 26.5769 30.2317 39.7239
Au 32.5774 33.4047 36.7572
Pt 29.4604 35.2397 32.4964
Pt 37.3821 32.2518 26.9682
Au 33.6917 12.868 34.4582
Au 35.239 19.5395 38.1393
Pt 32.4901 28.4741 36.6467
Pt 22.3789 31.4874 32.7894
Au 24.1264 19.487 41.9526
Pt 31.2779 31.1236 30.4316
Pt 32.5523 33.0595 29.5046
Au 23.881 35.2411 23.8738
Pt 37.2558 19.6222 24.652
Au 26.419 14.2861 8.22443
Pt 32.5816 13.4676 23.0146
Pt 26.6625 20.4956 15.8671
Au 33.862 16.1753 11.0007
Pt 23.5316 17.4344 12.8215
Au 36.8618 15.5365 15.3102
Au 34.5652 20.1706 8.19016
Pt 17.9774 27.0089 10.2991
Pt 39.6668 26.0346 25.7498
Pt 25.2968 20.4409 10.659
Au 19.3578 29.7965 7.97786
Pt 39.6591 19.8721 18.4192
Au 40.1198 21.0305 12.9572
Au 21.4784 22.2879 13.9129
Au 22.3383 17.3181 8.35358
Au 25.3016 12.8982 10.3784
Au 27.5226 22.8302 6.79544
Au 25.0643 32.9702 14.659
Pt 31.9789 24.4004 14.7629
Pt 22.9592 21.9742 9.89487
Pt 35.7059 20.7683 15.709
Au 38.1805 17.3626 13.7746
Pt 24.9678 23.5043 13.2709
Au 25.2845 26.5025 6.77627
Au 33.3652 24.8577 7.97682
Pt 34.4367 25.3072 15.3795
Au 7.45506 28.0153 32.683
Au 24.739 26.5976 42.7301
Au 23.2046 22.2295 42.3937
Au 27.0708 18.9832 41.8657
Au 32.7341 25.7088 42.291
Pt 26.5426 13.7108 30.0093
Pt 15.4631 25.6513 37.5517
Au 7.23609 30.5946 31.4793
Pt 15.3968 16.796 32.2904
Au 16.0105 23.5504 39.8943
Au 27.3679 12.9675 38.1195
Pt 23.8822 26.6277 39.1193
Pt 9.86969 31.7837 22.9013
Pt 21.5626 24.3634 34.8435
Au 25.4079 17.0696 40.9491
Pt 21.699 23.5204 37.3941
Pt 26.2508 19.3235 36.863
Pt 15.2959 32.7315 35.2888
Au 17.858 25.1636 41.3717
Pt 14.1957 38.0369 27.7204
Au 22.9272 40.6834 35.3575
Au 16.7614 31.0405 39.4308
Au 13.3401 34.6907 35.2549
Au 21.4203 15.6231 40.5001
Pt 21.3547 16.4046 37.8299
Au 30.3766 35.6693 37.0683
Pt 26.5165 31.0372 37.0218
Au 13.4168 19.2967 10.882
Pt 21.5282 15.9145 17.6988
Au 17.1705 13.7981 11.2701
Au 20.0799 8.48984 15.174
Pt 29.5133 15.6953 11.0304
Pt 22.4372 24.6125 12.6808
Pt 14.9259 22.6402 14.8308
Au 9.0704 18.4425 14.0481
Pt 11.5059 17.8771 14.9807
Au 8.52327 26.4131 14.7398
Au 18.971 29.6952 10.6852
Au 25.0255 17.0238 7.52886
Au 21.9703 44.7482 23.0056
Au 9.4233 15.8997 15.3206
Pt 26.5276 22.8603 10.9212
Pt 19.1801 20.36 9.76235
Pt 18.7031 21.8533 12.0946
Au 22.2844 39.2084 14.7185
Au 16.7723 28.6663 11.9551
Au 9.94969 31.1021 16.0068
Pt 29.5597 23.4461 14.1074
Au 15.2501 19.7596 8.73165
Au 32.8751 39.7124 17.6354
Pt 27.1691 22.7981 14.8872
Au 34.8313 33.441 12.481
Au 30.5789 24.2074 7.37772
Pt 28.9252 39.1721 16.4868
Au 39.6408 33.2902 30.7899
Au 41.6687 31.3162 30.3544
Pt 33.708 32.3799 18.4898
Au 39.4097 27.3549 12.71
Pt 29.4204 35.3958 16.8797
Pt 40.5243 26.3788 19.7535
Au 33.0455 38.5115 34.2661
Au 37.1098 39.3102 28.2133
Pt 34.676 38.0399 28.8693
Au 41.5584 30.2276 19.1163
Pt 40.3347 27.9822 23.957
Pt 35.1396 17.8955 19.7511
Pt 37.3104 31.5222 29.9621
Pt 38.1749 23.8225 35.5009
Pt 35.141 32.2376 25.62
Pt 39.1629 21.616 23.8984
Au 41.9254 27.5779 17.7213
Au 29.2604 32.3097 24.7111
Au 25.1677 37.6283 18.3493
Au 39.8678 32.4302 18.2122
Au 43.3181 25.5912 19.81
Pt 30.6559 33.3265 20.4706
Pt 38.62 32.9523 24.6114
Au 30.6217 24.1179 29.1775
Pt 33.4662 21.4575 37.4851
Au 40.8249 19.773 32.4316
Pt 23.6469 30.5667 36.7561
Pt 24.897 39.8998 23.6763
Au 9.78758 36.866 26.6987
Au 6.41303 28.0214 24.1321
Au 11.4324 33.3853 14.7709
Pt 8.88271 27.2539 19.1848
Pt 12.5107 22.2798 20.6673
Au 16.0535 42.5651 25.9581
Pt 14.898 35.5188 27.7368
Au 7.19204 32.7741 26.5983
Pt 8.84636 24.467 19.5023
Au 6.47925 26.0387 19.7719
Pt 11.4635 24.3466 18.7586
Pt 14.0819 34.9716 20.9046
Au 11.0019 30.2039 35.5967
Au 6.14637 23.7852 29.5533
Pt 12.1058 32.5641 24.3058
Pt 15.31 20.0662 18.1711
Au 17.4021 42.9844 28.2634