2057
Atoms. Timestep: 21004
Au 25.2903 19.9826 27.163
Au 26.3347 24.0048 23.0156
Au 20.5691 21.3524 25.0006
Au 24.3638 27.4764 23.4962
Au 21.9172 25.3347 24.8574
Pt 24.8896 33.7459 23.9047
Au 25.2233 23.1555 20.3816
Au 20.1528 22.8935 22.6593
Au 21.4086 23.334 26.8224
Au 14.3413 20.6556 22.4519
Au 23.0978 22.8111 29.0301
Au 21.474 27.9559 23.9298
Au 20.5658 31.7346 18.8387
Au 28.1838 25.5768 28.0511
Au 25.7548 26.5748 27.005
Au 29.0786 25.0634 22.4984
Pt 13.0234 25.4208 16.2257
Au 17.2631 24.3559 29.6055
Au 21.8458 20.4962 22.6578
Pt 15.8992 31.9176 23.3466
Pt 23.0064 30.3106 27.8611
Au 26.3251 21.2549 29.4169
Au 25.8657 26.0649 21.3026
Au 23.7002 25.2826 19.4981
Au 23.7673 19.9857 24.678
Au 20.428 16.4051 26.8851
Au 16.3055 23.8069 33.0945
Au 19.2385 26.5757 29.7985
Au 23.0248 22.6939 18.3645
Au 19.2117 26.1018 18.4111
Pt 25.0764 31.2143 23.0263
Au 28.5878 26.5983 31.5471
Au 20.0646 24.5717 36.4637
Au 20.1027 23.2361 17.8593
Au 23.4656 29.7776 25.0023
Au 14.7295 19.385 27.2425
Au 14.973 23.8464 23.2305
Au 20.7059 32.2166 13.3198
Au 26.4292 27.5322 17.738
Au 26.3194 29.3935 24.7399
Pt 33.5119 27.9381 31.1621
Au 15.5044 26.5412 21.637
Au 28.4481 20.2106 24.3316
Pt 28.776 30.1837 23.6018
Au 26.9685 24.3315 30.9217
Au 11.0169 19.652 23.0183
Au 18.0746 32.9755 22.0707
Au 23.2537 27.4121 26.1422
Pt 24.9647 34.3847 26.7312
Au 23.6528 24.7295 22.4528
Pt 17.6166 16.1741 26.8086
Au 20.7518 27.5208 16.4062
Pt 24.8182 30.6913 20.3967
Pt 14.2784 23.1564 15.0656
Au 28.5262 17.7413 23.1888
Pt 30.6577 24.1323 12.4482
Au 26.4565 32.1365 18.6141
Au 29.4149 24.0201 32.2812
Au 32.0993 23.4107 31.236
Pt 11.2028 21.8791 14.4382
Au 14.4029 23.6909 18.1675
Au 16.2972 27.6259 26.1805
Au 22.899 29.7228 22.3401
Au 20.3142 31.2709 21.5471
Pt 15.6677 29.0231 23.7046
Pt 27.1852 34.1461 22.5083
Pt 27.31 31.4767 21.5128
Au 24.8052 12.7348 25.2794
Au 23.7975 18.5987 22.1085
Au 26.4935 16.3171 18.7902
Au 30.9729 21.1467 23.7732
Au 19.8041 20.7249 27.5619
Au 22.4842 20.7517 27.0559
Au 14.7882 25.0521 31.0193
Au 18.4065 28.1356 33.2022
Au 20.8549 17.8887 22.8296
Au 24.9824 24.239 13.6006
Au 25.5894 31.8364 13.0929
Au 20.5366 34.3644 21.1991
Au 26.6115 18.3204 29.0513
Au 29.5781 23.2944 26.6106
Pt 30.9465 24.4306 39.7467
Pt 29.6821 23.2346 36.0564
Au 24.0445 24.009 33.3659
Au 29.8132 28.5712 18.2882
Au 28.1099 26.8337 19.9871
Au 20.9226 24.7426 20.1746
Au 27.8847 27.6195 15.5103
Au 24.5331 28.0513 19.899
Au 13.0584 21.6939 26.7455
Pt 15.5716 16.6509 22.8501
Au 19.4631 24.1704 25.0478
Au 15.4069 25.395 27.7849
Au 16.6214 24.4525 25.4525
Au 15.8799 25.1048 16.1195
Pt 20.7747 25.525 12.6359
Pt 13.2296 21.3435 12.7545
Au 22.6903 25.98 14.5256
Au 18.69 33.6696 19.4267
Au 27.0364 24.179 25.868
Au 31.5453 31.8131 20.9099
Au 20.9516 24.125 33.9137
Au 28.6897 30.5872 26.3705
Pt 31.8905 19.5828 17.3417
Au 16.1955 26.202 18.7589
Au 14.3075 28.3031 19.6248
Pt 14.4286 36.4602 30.9694
Au 18.0024 30.0773 22.5293
Au 18.3671 23.0311 27.2492
Au 27.8193 16.0123 27.2343
Au 29.3909 29.549 21.0023
Au 20.3504 21.3778 32.763
Au 29.8979 22.5728 21.6239
Pt 33.6984 18.8645 30.5283
Au 17.771 20.0426 20.3817
Au 11.0234 17.7842 20.7981
Pt 10.7234 21.7409 21.458
Au 20.2981 21.3092 20.2949
Au 20.2369 25.722 22.7136
Pt 8.93408 32.4134 22.1912
Au 25.1541 35.0404 29.3904
Au 22.8941 27.2993 36.711
Au 20.1803 31.0346 28.5762
Au 30.5163 27.2066 27.6385
Au 28.8403 20.0617 29.0293
Au 21.1817 18.7093 25.4414
Au 22.9427 20.3932 32.2557
Au 24.2792 25.0141 30.5025
Au 28.0828 18.6714 26.6549
Au 22.9987 30.4555 13.0373
Pt 21.6847 31.6035 25.9986
Au 24.054 32.7867 9.72536
Au 22.3774 33.1092 28.1301
Au 27.1518 36.8765 23.2613
Pt 24.4975 21.5183 22.4033
Pt 23.0206 11.9857 18.5024
Pt 24.5774 17.9999 19.5942
Pt 25.7165 11.1063 23.1598
Au 22.8264 22.7291 24.2268
Au 34.4497 18.2646 26.1949
Au 27.4681 21.5815 26.8944
Au 30.6781 26.9807 20.8359
Au 27.0796 29.4866 19.4737
Au 15.2937 21.3442 19.6693
Au 18.6161 28.5829 27.8078
Au 13.3088 19.5436 24.9502
Au 17.6471 28.0561 16.8875
Pt 36.7375 29.5158 17.2394
Au 33.5329 26.7525 20.8507
Pt 29.941 16.6493 14.5759
Pt 35.5776 19.6962 28.6519
Pt 29.8377 21.7358 33.7247
Au 12.7533 19.8182 20.3949
Pt 11.3732 29.9405 21.91
Au 22.4936 26.9811 21.5502
Pt 13.2479 20.2186 35.1913
Pt 13.6514 22.8528 35.8156
Au 18.1521 34.8063 25.0916
Au 22.6819 32.4129 20.9724
Pt 24.5444 31.9278 25.9187
Pt 23.6638 32.3809 34.4719
Au 26.8175 26.5151 24.2622
Au 26.4022 28.8303 22.0415
Pt 24.1018 9.79897 21.3799
Pt 23.7854 7.48315 25.505
Pt 30.6155 12.3488 28.1613
Pt 31.9319 14.4631 25.3544
Au 23.799 27.6802 28.7822
Au 20.1906 23.8554 29.2265
Pt 20.3592 26.9609 38.2568
Au 23.6701 20.1604 29.4899
Au 24.8021 32.7809 31.5799
Au 22.6543 16.0334 16.1544
Pt 21.4869 20.1006 13.1845
Au 25.3635 26.6313 15.1139
Au 18.9445 34.8413 9.90924
Au 26.7222 32.0482 10.4949
Pt 33.619 20.0246 34.694
Au 27.1892 24.3014 36.7462
Au 26.4255 21.4855 38.2285
Au 20.9291 26.2942 27.4706
Au 21.8627 25.9227 30.0753
Au 18.2277 25.5122 34.259
Au 29.3884 25.8098 25.315
Au 30.9964 28.0535 30.2483
Pt 24.8861 25.6264 37.9235
Pt 27.7613 23.9806 20.4341
Pt 27.3337 15.9063 14.4527
Pt 29.7841 19.2081 15.4939
Pt 32.2279 23.0441 14.3916
Au 21.6481 27.2563 19.0672
Au 26.3252 24.9443 18.4222
Pt 29.4969 23.0529 14.8113
Au 29.2729 19.1356 18.4905
Pt 26.0854 24.794 11.0922
Pt 14.4444 19.7467 31.7015
Pt 15.4161 14.6383 27.6291
Au 16.3435 19.5759 29.7508
Pt 12.0085 25.3803 31.0773
Pt 15.7337 28.4007 31.5954
Pt 19.0731 21.8545 36.7223
Pt 13.2566 31.4679 28.8606
Pt 14.3501 32.3047 34.186
Pt 19.9714 35.8694 27.0157
Au 18.6349 30.7462 16.9029
Pt 21.7778 28.0193 12.401
Pt 21.0791 26.4628 10.1333
Pt 12.5524 28.5135 15.0945
Pt 23.4041 25.7077 11.6752
Au 21.9069 25.1226 17.2936
Au 20.4097 34.9301 14.3844
Au 20.4794 31.2536 8.26008
Au 16.7295 33.2262 10.2934
Au 27.8149 30.0567 16.8441
Au 32.2032 29.0638 19.9514
Au 34.4207 31.0541 17.1053
Au 32.9268 26.6622 25.7363
Au 31.6404 24.8005 27.1722
Pt 27.2774 21.7485 21.9759
Au 27.9846 27.976 26.49
Au 34.0933 23.9919 25.6676
Au 35.3934 28.1151 26.2813
Au 19.9889 28.3691 21.4969
Au 16.0265 30.0858 17.9313
Au 18.6082 25.533 15.9412
Pt 18.3937 38.7265 30.8234
Au 15.4947 30.2794 21.2589
Au 15.9325 24.0442 20.5349
Au 19.3522 26.9053 25.2601
Au 18.1801 25.7556 27.3868
Au 18.1833 29.3787 25.2045
Au 33.2285 16.6788 24.1917
Pt 30.8608 17.1823 17.476
Au 34.1159 31.0412 19.9023
Au 32.2456 22.0082 26.0629
Au 31.2734 23.9929 24.3187
Pt 27.189 18.2485 20.6031
Au 31.1846 22.031 28.7214
Au 31.7687 18.8103 25.4512
Pt 32.1984 20.6932 32.3771
Au 21.3876 13.445 22.3224
Au 22.8248 20.1288 20.0154
Pt 12.4 22.6975 16.6761
Au 29.3156 13.7637 26.2828
Au 10.6109 20.6726 12.1659
Au 15.7422 21.5674 16.8069
Au 13.2397 18.056 22.766
Au 18.2536 25.9816 20.8267
Au 18.3566 21.1462 17.9449
Au 20.9415 29.0508 26.4734
Au 23.45 30.4626 32.5909
Au 17.7813 34.5203 28.1523
Au 23.4339 25.1103 27.6722
Au 21.2732 28.6173 29.327
Au 17.6522 31.2295 27.4234
Pt 26.9869 34.8843 36.2821
Au 27.3292 30.7065 29.1433
Au 25.8971 23.9223 28.4453
Pt 23.5647 20.6959 37.2058
Au 23.3438 18.0431 26.9841
Au 18.5148 23.2283 20.3506
Au 26.5338 16.8675 31.7123
Pt 32.588 16.5309 27.091
Au 23.3139 17.136 24.3823
Pt 30.3913 15.2971 28.1777
Au 26.4759 13.5546 27.2752
Pt 30.1593 9.773 28.4998
Au 29.5267 35.8567 10.5614
Au 22.0102 29.9418 17.2023
Au 23.1971 35.0148 20.1901
Au 23.1401 28.6557 15.0806
Au 23.5102 36.3054 17.8138
Au 25.2704 33.2875 20.9039
Au 23.7402 27.2134 17.3149
Au 30.3804 28.5428 25.2173
Pt 27.6647 37.925 28.2258
Au 22.261 16.7861 20.6519
Au 18.5156 16.4347 24.1904
Pt 15.3793 10.2809 22.4513
Pt 30.4269 14.7841 16.3528
Pt 23.0878 13.2051 16.1227
Au 21.0325 15.4807 24.2772
Pt 31.867 15.1615 18.8335
Au 24.0418 12.7002 21.0163
Au 25.867 18.1076 25.2837
Pt 34.5994 16.6839 31.5265
Au 25.6234 26.3407 32.4513
Pt 30.3713 17.082 32.2165
Pt 23.2074 32.3089 37.3915
Au 30.5635 18.1261 27.9723
Au 32.7777 19.7159 28.0119
Pt 28.9153 25.9998 17.4272
Pt 33.3491 26.6984 16.3161
Au 26.2686 19.4605 22.8361
Au 31.6449 31.1894 18.1993
Au 27.803 13.974 16.64
Au 24.8532 29.9483 17.5642
Pt 16.3635 14.9431 24.7659
Pt 15.5902 30.6907 25.729
Pt 11.3917 17.8754 18.0857
Pt 20.7058 39.6779 29.3975
Pt 11.8294 15.4014 19.1207
Pt 15.5542 32.6632 28.4809
Pt 19.5659 27.5012 14.0532
Pt 12.2899 27.338 18.0293
Pt 18.3524 24.9816 13.3273
Au 16.9419 33.0422 17.3585
Pt 23.9573 21.2971 12.8146
Au 23.3938 32.2638 18.2711
Pt 30.9235 21.9056 16.5649
Pt 38.4531 21.2271 22.6629
Au 33.567 23.4044 28.342
Au 36.0595 22.6481 28.825
Pt 40.8487 17.8085 24.2507
Pt 34.9677 20.3355 32.4085
Pt 12.6687 23.9912 13.192
Au 17.3394 23.7321 17.9367
Au 13.8535 24.1022 25.8358
Pt 8.54161 20.386 27.258
Pt 10.1378 21.5091 31.4174
Au 5.99061 21.4665 30.5574
Au 22.2597 29.796 19.82
Au 28.5104 28.3431 29.2412
Pt 22.7064 32.1932 23.6298
Pt 30.8433 39.1939 32.1333
Au 29.5591 33.5827 25.4598
Au 34.4169 33.1309 24.7346
Pt 22.8826 12.0073 27.0711
Pt 20.5494 10.9159 23.1606
Pt 21.0856 10.34 25.8384
Au 28.922 16.9659 29.7759
Au 30.0715 13.2038 23.576
Au 28.0796 15.1757 24.2089
Au 25.0952 13.0235 38.4979
Pt 22.1317 24.9502 38.5226
Au 16.4478 30.6369 40.3517
Pt 13.4045 27.3419 32.1796
Au 22.0538 29.1237 34.5404
Au 24.7661 28.3986 34.0882
Au 25.0733 12.5214 9.46719
Pt 19.3703 18.1738 13.2743
Pt 23.9685 23.2381 10.941
Au 24.5257 27.9679 12.7868
Pt 24.4581 20.8554 9.74714
Pt 27.8388 26.9951 8.67979
Pt 31.0105 21.8218 37.9356
Au 28.3978 16.9883 40.7003
Au 26.0608 21.6928 24.5722
Au 23.4281 27.8061 31.5091
Au 29.1181 25.574 34.7337
Pt 35.779 20.1823 36.1707
Au 26.8802 24.2511 33.6959
Au 27.5553 27.7043 33.9632
Pt 36.2152 24.6438 35.9048
Au 16.8096 21.8597 22.1873
Au 20.9587 29.049 32.0353
Au 27.479 22.0482 35.0656
Au 35.1021 28.9018 38.5922
Au 22.8373 24.5249 35.9795
Pt 33.7565 24.2932 16.2807
Au 24.0406 20.1635 17.4656
Au 28.2238 17.0414 16.7763
Au 27.9544 21.417 19.4203
Au 32.2248 20.418 14.6834
Pt 32.4434 29.0118 17.0024
Au 25.8678 22.2522 17.7596
Pt 26.0431 19.5817 12.7306
Pt 27.1565 26.6287 12.9371
Au 24.127 26.0958 6.3799
Pt 28.7663 23.3611 17.6287
Au 25.7943 29.5466 14.8669
Au 22.7427 34.298 15.7624
Au 29.3519 28.6118 13.5631
Pt 10.317 24.0282 32.6412
Pt 18.6202 22.8057 34.4035
Au 21.0824 21.1695 30.0163
Au 22.4983 21.9288 34.6796
Au 12.6645 22.5812 31.2767
Pt 13.3677 24.3998 33.4007
Pt 16.8491 18.6112 32.44
Au 17.3108 26.1454 31.6871
Au 16.5346 27.4393 29.1948
Au 17.3714 21.2963 32.4126
Au 19.0095 23.7652 31.784
Au 13.6301 34.8397 35.5432
Pt 14.016 30.0358 32.9932
Pt 20.7499 36.3159 36.727
Au 17.6962 22.9025 15.0291
Pt 14.7613 27.4889 16.8881
Au 20.2035 18.5869 20.1433
Au 17.9197 19.9813 15.4062
Pt 11.3522 24.8037 18.2716
Au 17.2256 28.4039 20.1587
Au 21.3982 33.7123 9.11806
Pt 19.9015 22.6732 12.6988
Pt 13.3844 20.6146 15.2912
Au 21.9206 31.5106 10.7932
Au 23.9773 19.3989 14.7681
Pt 18.5376 33.775 12.3709
Pt 17.4373 31.3166 12.3618
Au 22.9723 30.2022 8.48922
Pt 35.1917 37.6824 22.9913
Pt 37.1598 32.5846 24.1636
Pt 33.3752 33.3548 18.4067
Au 36.3085 26.0757 21.8164
Au 33.4996 31.1644 22.8082
Au 29.5382 32.5685 22.6563
Au 31.4376 26.6367 23.4215
Pt 36.1672 26.4597 16.7394
Pt 32.4515 32.4732 31.5841
Pt 37.5611 25.1544 28.4105
Au 35.3945 30.5228 24.7494
Au 24.7205 22.3841 31.2619
Pt 35.3444 22.8529 31.652
Au 33.1368 28.0496 28.2352
Pt 17.0587 36.9719 23.9474
Au 6.98572 26.5723 18.5219
Pt 9.07769 25.6345 20.0482
Pt 16.011 31.4987 15.2562
Pt 13.3801 29.6979 17.3733
Pt 20.4988 30.4312 24.0192
Au 17.6767 24.404 22.9288
Pt 13.5095 30.705 23.4513
Pt 17.0412 36.7998 26.7185
Au 19.6084 28.9964 18.7586
Au 17.6963 27.3144 23.1888
Pt 8.32067 27.1385 26.9923
Au 15.2887 21.6249 25.0583
Au 15.5338 22.3786 30.7255
Pt 30.4377 11.6872 20.9134
Au 29.7789 17.1328 20.4883
Pt 28.671 22.8911 24.0839
Pt 34.5193 28.3669 18.5016
Pt 36.6268 15.7621 30.0538
Au 30.0528 20.5716 26.5735
Pt 31.8666 26.5401 18.4269
Au 29.1275 31.3914 19.1068
Pt 32.465 14.0653 34.768
Au 34.7735 21.2118 26.4838
Pt 39.5657 20.0744 25.1213
Pt 36.5058 18.5682 31.0712
Au 33.7083 21.4111 30.0838
Pt 32.5953 13.8665 27.9673
Pt 24.0715 12.6311 31.7833
Pt 11.4007 15.8555 22.7887
Pt 14.5307 14.0906 22.502
Pt 10.7639 24.3275 15.2694
Pt 19.0834 14.1623 25.9615
Pt 16.3102 12.4578 23.679
Au 6.31091 19.1343 26.2651
Au 16.4314 19.3508 23.5934
Au 11.7213 19.0047 27.387
Au 8.1372 20.2778 17.4911
Au 10.676 14.2888 29.1606
Pt 14.3492 13.4065 25.3077
Pt 11.1547 23.7226 26.8323
Au 9.02253 17.2774 22.9334
Pt 21.6211 34.3258 35.2015
Au 24.857 32.2761 28.7366
Au 29.9233 33.6109 30.742
Au 22.211 31.463 30.3774
Pt 30.2008 31.6518 32.8381
Au 19.6805 31.5104 31.9397
Pt 17.9811 28.9196 36.1316
Au 28.1105 36.0238 30.1363
Pt 26.0902 30.9131 38.228
Pt 24.3675 34.4242 35.952
Pt 28.4519 31.1543 36.8853
Au 30.4256 35.5389 28.464
Au 35.8747 32.1724 21.7734
Au 35.2721 28.904 21.3087
Au 23.4649 17.3329 32.903
Pt 23.2027 14.5013 33.6631
Au 25.5716 15.3726 25.2476
Pt 22.8077 8.65554 30.0402
Au 28.4549 19.0496 31.6078
Pt 21.5349 16.3036 34.8227
Au 24.1806 17.6242 30.1519
Pt 26.7623 9.87222 25.5472
Pt 31.6166 16.6798 34.7647
Au 26.4894 15.112 29.6628
Au 26.0306 13.815 22.8102
Pt 33.6066 12.4622 25.8018
Pt 31.0455 14.0794 30.4504
Pt 34.061 10.789 20.9836
Pt 26.3371 36.4974 16.3325
Au 20.8515 32.4357 16.1853
Pt 17.8555 35.6834 21.4779
Pt 13.46 31.0435 19.8066
Au 25.2695 34.4716 14.4389
Pt 24.0148 37.667 20.222
Pt 26.5728 37.9679 20.826
Pt 21.406 37.0088 21.2337
Au 25.1419 34.169 17.2714
Au 26.3613 32.212 15.8019
Au 32.9419 29.4403 25.6618
Au 26.0596 35.6183 19.4419
Au 31.0727 31.333 24.8657
Au 27.9421 34.5458 14.9238
Pt 19.1197 9.51523 18.3651
Au 19.8161 15.6415 21.4725
Pt 13.8401 11.7477 20.9824
Pt 18.5709 14.2631 19.4665
Au 27.7145 13.1635 13.917
Pt 17.8878 17.0926 19.3144
Au 25.853 16.7759 22.8655
Pt 25.0824 8.15881 27.7889
Au 22.901 21.971 15.4798
Pt 26.1078 11.0614 20.1727
Pt 26.0514 8.31184 20.1298
Au 26.3558 13.7496 19.6808
Au 30.0301 16.6548 25.6705
Au 30.2951 14.2998 20.9418
Pt 37.8116 20.7734 29.7129
Pt 36.0813 22.2593 34.1615
Au 27.4378 21.7595 32.1344
Pt 32.8138 31.922 34.0992
Pt 37.0009 18.6628 26.0706
Au 28.8277 27.6759 22.941
Au 37.0261 13.428 33.2965
Pt 31.4787 26.0648 32.111
Au 25.1918 21.1658 33.7552
Pt 30.5199 34.0787 33.5805
Au 29.1797 20.4171 36.4148
Au 26.5038 28.9479 31.6689
Au 28.5847 22.0918 7.20472
Au 28.2437 31.1536 14.0408
Pt 25.5236 20.4301 20.2199
Pt 33.3152 35.6445 16.6683
Pt 35.0303 11.3975 23.7274
Au 28.1912 34.9746 17.6705
Pt 36.3508 16.6787 19.8928
Au 27.151 24.4897 15.753
Pt 22.6652 11.8935 13.8009
Au 27.1871 32.1155 24.3772
Au 22.5066 22.7495 21.0745
Pt 30.6925 27.3291 15.9239
Au 13.1701 23.9976 28.7665
Pt 16.2896 34.4441 30.4601
Au 17.9278 21.8536 24.6978
Pt 11.0226 32.0506 20.3585
Pt 27.6153 8.83235 28.0439
Au 18.1844 32.0111 24.7782
Au 19.0571 19.4526 30.8822
Pt 23.2722 37.0625 31.1157
Au 22.962 14.8264 26.3238
Au 17.8673 32.2529 30.0981
Au 21.9774 23.4311 31.4986
Pt 21.2065 37.0699 34.1894
Au 17.9601 17.704 21.8903
Pt 14.6571 30.9052 12.9117
Au 21.1858 20.652 17.7734
Pt 14.3705 32.2747 17.5249
Au 18.4829 18.8701 25.4315
Pt 15.174 35.382 20.6191
Au 20.147 21.4532 15.2131
Au 18.3924 32.5804 14.8191
Au 19.1052 20.1258 22.8298
Au 18.9512 34.7939 16.8133
Pt 20.3606 11.8803 18.5986
Pt 25.4399 34.1653 11.6678
Au 33.876 20.4278 19.1096
Pt 36.2785 20.8927 17.0536
Pt 37.774 30.5813 22.488
Au 31.4368 29.3965 22.7611
Pt 39.1306 25.094 26.2645
Pt 33.9763 25.1709 32.4017
Pt 37.5753 20.9214 32.2095
Au 11.2174 28.1211 11.6515
Pt 15.4032 18.9319 15.794
Au 15.3987 18.5253 20.8369
Au 7.47675 16.8924 25.2397
Au 10.7443 20.9791 25.5224
Pt 8.34804 24.4547 30.8015
Pt 14.4207 21.8949 33.3712
Pt 22.7139 39.8208 31.3446
Pt 16.4474 39.254 27.9718
Au 20.2397 33.8331 29.7854
Au 27.0071 32.5994 27.0279
Pt 31.812 37.681 29.8556
Pt 31.9181 35.3191 31.044
Au 37.5004 37.9753 28.8226
Pt 19.6207 8.50615 23.6975
Pt 26.5081 7.21912 25.8247
Pt 23.0978 11.6006 23.393
Pt 28.1817 10.4543 30.2861
Au 29.169 6.80363 26.4146
Au 23.9485 14.8369 18.324
Pt 38.6624 14.5114 26.2881
Au 21.213 18.589 28.546
Pt 21.809 27.3233 42.312
Pt 13.5605 25.6943 35.8065
Au 20.2652 27.146 35.2575
Pt 32.4876 28.4961 37.6097
Pt 26.1746 29.5167 40.3926
Pt 19.5374 30.2277 34.3464
Au 26.5966 19.2264 18.0412
Pt 22.4143 23.3758 13.1335
Au 25.8109 21.8299 14.8985
Au 26.4181 24.0442 6.40532
Pt 26.8823 29.456 12.3106
Pt 29.4791 33.1152 9.96606
Au 31.1476 41.6975 17.5681
Pt 32.9275 18.1217 32.9843
Au 24.5713 24.9609 25.0327
Pt 30.5912 22.0094 40.7065
Au 30.6286 19.1756 34.0017
Au 24.977 22.8444 35.9262
Pt 34.5845 24.3099 37.9796
Pt 40.0914 20.4177 33.2647
Pt 25.885 26.835 40.3197
Au 18.5778 29.2458 30.4873
Au 41.9901 28.5042 29.4295
Au 25.2008 25.9217 35.2486
Pt 26.6904 29.4007 35.9877
Au 24.4372 22.6151 26.5452
Au 23.7396 35.8131 40.1685
Au 20.338 26.2975 32.3415
Pt 32.1637 23.971 36.8749
Pt 25.2619 28.2482 38.0754
Au 30.2321 25.0908 29.7541
Au 22.7069 26.4227 33.8083
Pt 27.6825 33.3185 38.2389
Au 31.1042 15.8399 9.2957
Au 32.7441 18.2765 8.72751
Au 24.8753 17.4405 16.8379
Pt 28.5267 19.9628 11.2142
Au 21.7086 14.1015 19.7974
Au 30.461 30.2474 15.6965
Au 24.3665 24.2696 16.3864
Pt 32.0674 22.6518 10.6538
Au 26.7788 18.8162 15.2184
Pt 26.1859 18.9903 10.0678
Pt 34.8246 28.6117 15.7116
Au 33.3169 23.77 8.43382
Au 33.7291 21.7113 16.6489
Pt 22.2154 17.4611 13.6769
Pt 30.7985 26.8091 12.1895
Pt 31.426 28.9165 10.65
Pt 28.7317 28.0321 11.0109
Pt 30.385 26.8431 9.19508
Au 27.2332 34.5766 9.62903
Pt 29.546 29.4536 8.80782
Pt 15.7735 19.9013 34.3841
Pt 21.5427 22.4772 37.6557
Pt 25.1486 22.1525 40.8857
Au 23.3097 21.0859 42.6781
Pt 22.2148 15.4267 37.4096
Au 9.21192 25.9602 35.0139
Pt 11.4486 29.0656 32.4655
Pt 15.2558 25.6777 38.1948
Pt 16.8199 15.5856 32.8657
Pt 16.9225 23.6313 40.1302
Au 14.2534 36.8233 33.6699
Pt 16.7811 32.9964 32.8674
Pt 11.6079 26.3149 33.8577
Pt 21.242 18.9109 33.9119
Au 18.3948 39.7807 33.4196
Pt 20.3738 33.6437 37.5982
Pt 17.9935 26.4438 36.809
Pt 15.9593 24.6825 35.6831
Au 15.4317 26.1464 40.9083
Pt 21.0154 28.9459 40.314
Pt 13.5596 20.0276 17.8472
Au 11.2662 25.3829 11.0905
Pt 16.4797 18.6739 13.3555
Au 20.6773 24.0868 15.0754
Pt 19.8833 19.7913 11.0294
Pt 14.2954 26.5221 14.2687
Pt 18.7651 24.8976 10.6144
Pt 16.4607 22.3486 9.54484
Pt 16.8975 27.111 14.417
Pt 21.3546 23.8629 10.6629
Au 8.4069 30.338 15.6153
Au 13.0832 29.9911 10.6085
Au 23.4077 35.351 10.4181
Pt 17.5817 24.4864 8.18905
Au 15.6573 30.6937 10.1415
Pt 22.9544 25.1465 8.81214
Pt 23.3861 27.8087 10.019
Pt 15.0888 33.9523 15.443
Au 22.0368 27.6767 7.63685
Au 19.223 36.6825 12.5408
Au 43.3701 26.0869 24.5606
Au 38.1424 27.5234 26.1723
Au 36.2541 25.8264 24.8937
Pt 37.1931 27.6604 14.6308
Pt 36.1636 30.4666 14.4896
Pt 39.2698 31.5528 27.6434
Pt 36.5585 34.6013 25.7257
Pt 40.7459 27.6664 21.491
Au 34.6217 24.0214 21.0634
Pt 38.9191 23.7887 23.7348
Au 26.0088 30.9054 33.776
Au 33.8979 28.1829 23.4832
Au 32.8819 25.7369 29.6751
Au 35.0057 25.6923 27.5721
Pt 33.4047 35.6842 28.8474
Au 29.6176 32.7344 28.0468
Pt 38.6235 32.2614 20.2601
Pt 37.5349 29.3964 27.8989
Au 28.5417 22.939 29.193
Au 29.9779 21.4906 31.0945
Au 15.8044 32.8653 19.9623
Au 8.76167 33.5144 28.7634
Au 9.93717 28.6372 14.088
Au 8.24831 23.2173 14.876
Pt 13.514 28.3054 22.2283
Pt 13.3643 33.8621 27.125
Au 10.1573 36.141 19.7932
Au 17.9548 31.0471 19.8184
Au 6.86541 31.6443 19.4268
Pt 11.3121 29.562 19.2914
Pt 9.75291 34.3327 23.8994
Au 14.2488 39.9717 23.7474
Pt 10.6232 35.2315 27.189
Au 12.6701 22.3084 23.8322
Pt 9.01946 31.9834 24.9558
Au 13.4665 22.9386 21.1416
Au 15.6108 22.653 27.8033
Au 13.7406 26.9882 29.3777
Au 13.7463 21.0427 29.2372
Au 8.47836 16.7957 29.8527
Pt 32.3428 11.4263 23.1817
Au 35.4562 22.6331 19.0256
Au 35.4627 21.2052 21.6391
Au 33.7372 19.9635 23.8649
Au 38.1475 28.1125 21.4318
Au 32.6833 23.5269 18.7687
Au 31.4972 18.5727 22.7165
Au 41.0377 13.31 26.6023
Au 33.5478 22.6255 23.4005
Au 36.4724 20.7777 24.331
Pt 38.8339 16.9333 31.0202
Pt 34.6972 14.9549 26.7755
Pt 35.6496 18.0911 23.6293
Au 34.31 18.585 21.2498
Pt 34.8592 12.5049 28.1848
Au 38.0318 11.7663 19.0168
Pt 38.697 22.8029 33.8532
Pt 34.1311 14.7324 29.797
Au 38.8769 28.3743 35.6361
Pt 39.7712 19.3869 30.7376
Au 19.3782 12.504 37.2013
Pt 10.2272 20.2526 19.1844
Pt 13.4845 16.1239 21.0637
Au 11.3112 13.735 16.8846
Au 9.77992 13.4916 22.4915
Pt 15.8844 17.056 28.5832
Pt 12.8357 14.013 27.4638
Pt 9.14814 17.8229 27.297
Pt 13.9112 18.8784 13.3858
Pt 13.4753 15.5484 16.9944
Pt 14.2939 13.1333 29.9762
Pt 10.8366 21.4628 28.4186
Au 10.4697 15.5811 31.5213
Pt 17.3043 14.7705 22.1255
Pt 10.5698 23.7115 29.6966
Au 6.61477 16.9295 27.8235
Pt 12.0221 22.154 19.0639
Au 13.0824 13.4545 34.3591
Pt 8.54978 24.5331 28.0961
Au 6.315 24.0076 26.5503
Pt 27.3291 26.9463 36.6312
Au 20.202 38.3116 38.2608
Au 22.0173 42.1837 29.9887
Au 24.0657 30.0954 36.1399
Pt 21.0234 36.8299 29.5491
Pt 22.977 29.544 38.5604
Pt 24.1747 31.3946 39.8679
Au 23.8961 42.0995 32.0231
Pt 21.0634 35.6353 32.0339
Pt 26.2356 39.0137 34.2045
Pt 30.5776 31.9521 35.515
Pt 25.4873 35.7807 31.9286
Au 27.672 31.616 31.8077
Pt 25.2606 36.3268 37.7204
Pt 29.3242 38.3854 34.3194
Pt 34.4015 37.0841 30.9567
Au 22.6993 35.8413 27.7964
Pt 33.2557 39.6253 30.7805
Au 31.9228 38.7267 35.2658
Pt 32.5971 37.0724 26.897
Pt 25.6762 17.5356 39.9137
Au 25.632 19.5562 31.5596
Pt 25.5051 12.611 34.3629
Pt 21.1015 10.8443 28.7997
Pt 20.9637 13.7355 27.9968
Pt 23.639 19.289 35.0004
Pt 18.8344 14.4887 31.5179
Au 23.5301 14.5571 23.439
Pt 19.1135 11.884 27.467
Pt 22.8184 9.2677 27.4927
Pt 31.6535 16.5249 37.333
Au 25.0828 16.2496 27.7382
Au 28.5726 13.3437 29.4831
Pt 25.3996 10.8651 27.5945
Pt 27.925 13.8385 34.3587
Au 35.7055 8.73026 24.7829
Au 27.6789 12.2352 24.7357
Au 29.7978 7.17188 28.9941
Au 34.8261 10.1721 29.7611
Pt 29.3987 9.59642 25.9789
Pt 29.3598 37.3041 16.1057
Au 23.1675 33.4527 12.9194
Pt 18.7661 37.1609 15.4142
Pt 22.9912 39.0462 16.4967
Pt 16.0244 34.5465 23.0831
Au 32.0384 33.5911 23.4825
Pt 25.0543 39.8519 21.644
Au 23.6409 31.6346 15.4544
Pt 22.3209 39.5034 21.1453
Au 21.3088 34.3631 18.3504
Pt 29.7157 39.387 17.7373
Pt 25.4093 40.6712 16.9538
Pt 21.0448 38.7563 23.366
Au 24.5356 36.2845 24.8642
Au 29.7848 35.9673 13.5131
Pt 27.1553 34.7723 25.069
Au 28.3064 33.7233 20.1364
Pt 29.433 35.3157 23.3294
Pt 29.4511 36.4491 25.9724
Au 30.1211 30.8993 30.1193
Pt 19.7946 11.3549 13.6957
Pt 18.5343 13.8649 12.189
Pt 27.1656 9.77083 18.0778
Au 23.9363 4.45643 22.0017
Au 20.7332 8.35769 16.3421
Pt 25.4937 14.3089 12.8904
Pt 22.9901 14.612 13.8357
Au 23.5198 7.99473 16.3091
Pt 21.7769 11.0489 20.7754
Pt 22.2449 6.47159 23.265
Au 34.2172 11.6863 14.8823
Pt 19.2687 12.2714 20.9611
Au 23.4895 7.20616 18.9829
Pt 26.939 6.84951 22.1941
Au 24.3207 9.53204 13.6911
Au 26.0874 9.12794 15.6935
Pt 33.7207 9.00113 22.8828
Au 25.5268 12.2325 17.5159
Au 25.3016 14.7338 15.8204
Au 28.0047 12.3799 21.7113
Au 30.4986 10.415 33.3655
Au 32.2014 33.1491 29.0256
Pt 34.1365 17.8723 36.1946
Au 27.285 33.3884 29.7431
Au 32.9239 11.3339 34.5537
Pt 32.8454 31.3227 36.7773
Pt 34.6854 17.1554 28.744
Pt 25.9465 32.3205 36.155
Pt 31.711 19.8841 39.463
Au 31.0763 30.0456 27.7131
Au 31.6446 8.11246 26.8397
Pt 34.8103 32.2971 29.6522
Pt 37.2436 13.6979 23.2105
Pt 37.0064 33.6464 31.097
Pt 27.412 18.6632 38.1492
Au 32.9871 30.6099 39.4544
Au 30.297 12.4429 35.4067
Pt 25.8287 33.8822 33.8539
Pt 26.2287 24.5623 42.0801
Au 24.624 29.968 30.0939
Pt 29.4107 25.6669 14.3402
Au 35.1278 40.2088 19.7275
Pt 31.0712 24.6422 16.5153
Au 34.4029 40.4887 22.4971
Pt 33.5261 17.484 18.7037
Au 32.2472 32.7183 15.9721
Au 32.5235 16.3933 21.1285
Au 30.9814 34.5644 21.1075
Au 31.9522 24.4049 21.5857
Au 33.0341 20.9844 8.61369
Pt 27.1098 21.5144 9.41378
Pt 34.6098 37.719 18.3979
Pt 33.0633 15.7673 16.5373
Au 33.2061 31.8239 26.8709
Pt 30.7849 18.7652 12.9231
Au 30.7584 33.8832 18.5139
Pt 27.9648 15.1416 12.0022
Au 29.1492 32.5654 16.5837
Pt 30.6434 21.4602 12.6677
Pt 28.1867 41.6482 17.6445
Au 17.1275 20.4993 27.1071
Au 14.7068 26.4214 24.3154
Pt 13.964 18.0084 33.7594
Au 19.8651 41.136 31.4923
Au 15.6947 17.5489 25.511
Au 11.8132 33.6243 33.8163
Pt 18.4424 9.7981 28.9405
Au 25.5668 29.5336 27.3545
Au 18.2046 21.7679 29.7147
Au 19.2593 38.423 35.5892
Au 22.5132 15.9549 28.8946
Au 18.1568 36.59 37.4087
Au 18.4881 18.261 28.265
Au 12.3967 39.3723 26.1019
Pt 22.9738 17.3774 39.2644
Pt 18.9751 34.2217 32.3839
Pt 21.6959 11.2821 31.4109
Au 30.6956 35.1813 38.9199
Pt 17.0829 14.9722 35.8035
Pt 20.9619 31.2884 38.7805
Pt 13.9481 12.9842 16.8716
Pt 10.6559 29.4828 16.7192
Pt 13.8949 17.4986 18.8123
Pt 10.6156 26.82 16.1166
Pt 14.0952 14.0285 19.454
Au 9.14524 31.6415 17.9028
Au 24.5949 15.5111 20.9113
Au 12.1578 36.3149 17.8802
Au 19.2037 18.4533 17.4013
Au 13.0841 33.2625 13.5027
Pt 15.9419 15.6966 20.1316
Pt 11.7838 31.8505 17.7146
Pt 17.7649 11.7527 18.614
Pt 20.9955 36.6033 16.8777
Au 16.3519 19.0935 18.2322
Au 10.6447 31.9072 15.2412
Pt 18.5043 10.3807 15.9541
Au 20.6316 29.9164 14.8574
Pt 17.2835 12.3838 14.0469
Au 25.6277 39.1263 12.0991
Pt 39.7623 31.8433 23.8107
Pt 40.5192 19.7836 22.3669
Pt 38.2775 18.3882 23.699
Pt 41.6729 21.3112 26.5323
Pt 37.6318 22.5417 36.3778
Pt 37.7105 26.0846 30.9559
Pt 36.7375 29.6562 36.508
Au 34.921 30.1177 28.0819
Au 9.94418 23.5563 12.6905
Au 11.1688 18.8459 14.1009
Pt 8.78698 21.3476 23.4326
Pt 11.2121 24.2881 20.898
Au 6.09481 21.5773 27.7809
Pt 11.0186 26.034 28.1677
Au 9.5525 20.4387 33.9095
Au 21.3521 23.0975 43.5063
Pt 12.7893 36.4537 20.489
Au 15.4905 41.4617 29.0757
Pt 21.232 40.4012 25.4029
Au 21.7351 33.0056 32.7362
Au 22.4291 34.1845 25.5781
Pt 21.1828 38.3136 27.1898
Au 32.8477 42.4444 26.825
Au 32.5664 42.5319 22.6844
Au 30.2002 8.69622 31.1984
Pt 20.4572 8.23871 28.3264
Au 20.051 5.77733 27.1137
Pt 28.2988 8.1176 24.136
Au 28.07 11.1354 34.4834
Pt 31.061 11.5682 25.6011
Pt 32.7518 10.8119 27.8856
Au 33.6686 8.34611 19.9744
Au 18.3143 16.3006 40.0055
Pt 31.7107 29.5209 35.1258
Au 23.7477 28.3842 44.0943
Pt 19.7223 21.7335 39.5091
Pt 19.7852 26.6102 40.8109
Au 38.2869 20.1829 37.4681
Au 26.3721 16.566 42.3736
Pt 26.5199 32.3512 40.6062
Pt 20.694 13.6599 14.6966
Pt 21.0557 11.2029 16.1405
Pt 20.4688 15.6763 12.8789
Au 21.0218 19.0316 6.61866
Pt 19.7348 26.2431 7.9818
Pt 25.4703 25.8205 8.63118
Pt 31.0076 34.1116 11.905
Pt 35.2665 32.8684 13.5989
Au 38.6436 25.5239 35.5381
Pt 24.0857 24.6992 40.3119
Au 39.2364 15.8398 33.6512
Pt 28.8364 23.2752 38.6897
Au 32.4335 8.63134 29.5001
Pt 24.7565 18.3841 37.5628
Au 35.8691 27.6618 29.3375
Au 40.8625 24.2165 34.933
Pt 28.0148 26.1816 39.0047
Pt 22.9824 27.1067 39.6874
Pt 19.4054 23.4429 41.6103
Au 29.488 21.1673 43.0565
Pt 33.4165 18.0438 38.7475
Pt 33.5886 20.506 37.6515
Au 30.8116 26.5682 41.6334
Pt 32.5484 25.9975 38.5587
Au 30.7939 23.926 42.5915
Pt 37.1262 33.1033 33.7808
Pt 35.0404 32.1688 32.463
Au 37.3108 17.8592 36.1961
Au 36.6362 15.3524 35.436
Pt 31.7886 26.528 35.8004
Pt 30.3755 27.5538 39.1242
Au 20.0513 33.2964 40.913
Pt 36.1644 35.6755 29.4569
Pt 31.4505 24.1926 34.1302
Au 26.2574 26.8867 29.7398
Pt 37.4342 20.8851 19.5588
Au 29.3076 17.0578 7.78868
Pt 34.2947 18.8559 16.4737
Pt 25.9644 17.0446 11.883
Au 27.3764 12.6574 11.1236
Pt 24.7625 16.8609 14.1299
Au 34.8796 16.4813 11.9009
Au 34.7691 19.4733 10.7357
Pt 21.4725 15.1964 10.1637
Pt 36.7557 18.4712 15.6725
Pt 20.3546 20.8709 8.46442
Au 23.7356 23.3152 6.27442
Pt 33.6806 21.5145 12.6074
Au 38.457 19.969 14.1132
Au 28.234 20.9055 13.7377
Au 35.2652 28.7013 10.3148
Au 23.1623 20.641 6.77564
Au 31.7045 28.8581 7.4632
Au 32.3515 28.3881 14.0023
Pt 28.754 25.4283 10.9873
Pt 27.6114 24.1506 8.94584
Pt 33.4867 30.7247 14.5899
Au 29.5463 27.544 6.59749
Pt 32.0906 25.2786 10.3718
Au 33.3355 30.2915 9.06369
Au 33.2536 27.3531 9.01646
Pt 31.5487 31.6524 10.6778
Au 7.85065 19.8138 31.6318
Au 12.5103 32.418 36.4465
Au 21.065 16.3153 40.9575
Au 20.2762 14.3476 39.1991
Au 28.2154 23.5047 43.6044
Pt 17.7917 16.9461 30.5658
Pt 15.171 23.0879 37.9369
Au 12.6116 24.3934 38.0164
Pt 18.6637 19.9525 34.398
Au 25.614 23.4583 44.5189
Au 22.2601 18.7909 41.5323
Pt 20.984 20.2838 36.1504
Pt 16.5032 37.2399 29.6886
Pt 15.5845 27.4061 36.1077
Au 19.3045 28.2192 43.0015
Pt 19.7194 24.3373 39.2405
Pt 17.2248 21.4142 38.5143
Pt 18.6713 36.0032 30.4467
Au 13.6596 28.1466 37.778
Pt 17.1177 30.5305 32.3843
Au 14.5177 28.7045 40.3249
Au 15.9619 33.1484 39.2526
Au 14.0014 31.0068 38.5801
Au 22.7744 25.5136 44.3582
Pt 21.4222 31.6385 35.6801
Au 24.768 38.8836 36.4978
Pt 16.0614 29.0049 34.2189
Au 16.3756 28.9919 7.95829
Pt 16.6209 26.414 11.9064
Au 12.966 19.365 10.9345
Au 17.4672 10.1749 12.6407
Pt 23.6085 10.586 16.1157
Pt 18.3274 14.7787 14.5961
Pt 17.9186 29.6639 14.463
Au 12.7993 27.2257 9.58912
Pt 14.529 23.0596 11.3837
Au 24.598 30.1498 10.7677
Au 21.299 18.9745 15.6468
Au 20.9501 22.2452 6.16334
Au 15.7108 38.7711 16.1786
Au 19.1739 28.8646 7.72232
Pt 19.7712 29.9033 12.2975
Pt 19.0355 27.4528 11.5334
Pt 17.1659 22.9778 11.9961
Au 18.9715 39.4095 14.035
Au 15.1 26.364 7.94693
Au 17.7671 31.4294 8.38481
Pt 20.1835 23.7076 8.33268
Au 18.9981 24.438 5.93506
Au 20.9747 38.8373 12.1088
Pt 25.9604 27.4073 10.6224
Au 28.219 31.7547 8.1073
Au 25.5296 31.1756 8.04713
Pt 28.3288 33.2685 12.3389
Au 36.9506 35.4178 35.4441
Au 40.4739 34.0538 28.2479
Pt 35.3249 35.0641 18.416
Au 37.3614 36.9328 19.0532
Pt 38.6278 30.0532 15.3735
Pt 38.5962 27.7004 16.9447
Au 38.9102 35.5177 30.0319
Au 32.6868 41.5608 20.0944
Pt 34.293 38.6778 25.5129
Au 43.1249 23.8372 22.6747
Pt 42.5166 19.8818 24.2638
Pt 37.6432 23.0949 21.0267
Pt 37.6429 36.3902 21.9222
Pt 34.195 35.9098 24.9403
Pt 33.2229 35.8538 22.3278
Pt 39.6885 28.9376 23.6953
Au 40.4361 33.2711 18.3321
Au 36.7313 28.3775 23.7907
Au 33.953 25.4385 23.3529
Au 40.0003 32.5895 32.9183
Au 41.2058 23.6499 17.1512
Pt 38.2635 30.3155 25.4483
Pt 41.1446 30.2468 25.4658
Au 36.2462 23.455 23.3711
Pt 38.879 22.8672 28.5531
Au 42.3284 28.2748 32.142
Pt 32.8505 30.3559 29.9292
Pt 16.8322 37.9084 20.3541
Au 16.6343 41.76 24.0489
Au 6.20923 28.7336 26.4023
Au 16.7491 35.7023 11.6355
Pt 9.57387 27.6784 18.5349
Pt 10.3234 23.3533 24.0065
Au 22.0662 42.9634 25.9559
Pt 15.1517 35.464 28.117
Au 8.20048 36.2978 24.4396
Pt 8.95508 30.2854 20.38
Au 6.77479 25.2381 15.9954
Pt 11.2652 27.8028 23.444
Pt 12.9543 37.5454 24.1087
Au 11.7348 30.934 34.3476
Au 7.04712 33.6374 23.8355
Pt 11.4098 32.3164 23.2302
Pt 9.88324 25.6072 22.7524