2057
Atoms. Timestep: 21488
Au 23.4287 31.6507 11.8009
Au 39.1796 14.8635 17.867
Au 28.5163 29.5966 13.8617
Au 7.50289 27.4448 22.2939
Au 25.9578 33.0408 11.4206
Pt 21.7457 25.5588 33.9878
Au 22.9156 34.5557 7.26008
Au 20.6273 37.0276 10.2921
Au 23.9305 20.4308 11.5495
Au 26.4567 11.0837 39.7329
Au 39.1486 21.1405 14.9177
Au 28.8232 22.4933 6.27596
Au 26.0313 21.8867 13.1776
Au 37.2994 19.4594 35.3021
Au 17.9648 38.1169 16.7099
Au 30.5591 40.8471 29.9572
Pt 22.0147 13.4223 22.5663
Au 24.8083 37.6841 13.9323
Au 28.8049 9.67993 15.7698
Pt 32.2837 22.6039 29.5455
Pt 32.3454 19.9218 12.1424
Au 19.818 18.4854 5.33291
Au 14.3441 23.9455 11.0545
Au 18.2302 29.5234 18.4403
Au 13.0347 21.4745 10.7479
Au 9.49281 19.1382 17.5396
Au 20.2939 25.4363 15.9929
Au 9.92584 14.239 20.3123
Au 29.0531 44.4348 26.3028
Au 27.0137 32.0382 8.41857
Pt 36.6737 34.4965 16.3081
Au 33.3888 43.3005 17.6465
Au 7.53635 25.8741 27.5645
Au 14.2488 26.5893 10.0992
Au 21.801 24.7394 11.1138
Au 10.4683 33.5417 23.7691
Au 15.7054 18.3189 14.8186
Au 32.2781 41.1382 18.4089
Au 25.6002 27.4543 17.322
Au 40.983 32.8634 15.4171
Pt 16.0446 10.1854 28.9745
Au 25.2638 38.6443 35.266
Au 30.5182 32.8796 39.7757
Pt 30.4137 38.7054 22.5248
Au 22.6215 44.3926 24.1044
Au 11.9801 36.0297 23.292
Au 32.3761 36.1768 10.859
Au 27.3967 29.2773 9.40506
Pt 28.9184 23.552 40.2195
Au 14.0182 14.2566 14.0025
Pt 15.5678 13.4907 32.0593
Au 35.9972 33.4816 36.6951
Pt 31.315 27.3546 23.3375
Pt 24.5418 12.6556 38.2884
Au 30.8114 9.56603 17.6021
Pt 20.1598 12.131 12.9261
Au 20.6256 35.7963 20.235
Au 12.5123 31.8616 24.5331
Au 12.3117 29.8504 14.848
Pt 35.8818 29.0528 12.4461
Au 21.7628 32.4766 9.59734
Au 7.2817 30.3264 29.0284
Au 7.65661 22.9727 21.1858
Au 17.8655 21.9763 16.1706
Pt 15.4054 18.2173 34.7126
Pt 19.3771 24.6741 29.2148
Pt 24.1696 27.0107 27.3937
Au 16.16 8.50177 33.0719
Au 36.8088 13.3425 17.4342
Au 22.5773 18.9928 4.80386
Au 22.2571 7.58891 19.0981
Au 35.8198 15.3654 32.2438
Au 19.8111 17.0004 8.9496
Au 20.6451 38.8251 21.0398
Au 11.1445 16.6765 21.0099
Au 34.0779 22.1848 11.224
Au 41.6747 30.7991 27.8495
Au 19.7823 9.94572 14.6052
Au 19.9965 27.328 7.76696
Au 21.8398 25.3701 44.3804
Au 26.507 37.8526 18.1679
Pt 23.1536 41.2729 30.0006
Pt 36.8885 23.633 29.2751
Au 16.492 20.8786 13.985
Au 16.8024 10.1706 21.7257
Au 37.2513 15.8992 11.1016
Au 19.626 31.3336 20.1797
Au 16.9966 41.3502 27.1728
Au 24.7783 45.5296 25.1843
Au 14.9349 33.1749 17.413
Pt 17.2008 38.9044 28.3869
Au 14.575 19.3581 9.80456
Au 11.2548 13.1204 22.7892
Au 41.3344 33.6895 25.3872
Au 41.5942 22.348 28.6731
Pt 15.4787 29.6199 29.9183
Pt 22.3368 16.4308 17.8735
Au 12.9406 34.614 25.4589
Au 21.5377 24.3152 18.2623
Au 24.4649 25.6823 21.6432
Au 18.4635 34.2348 20.6029
Au 29.2731 17.4361 9.63933
Au 14.9711 22.7152 21.0191
Pt 39.9987 29.2627 26.517
Au 40.6414 25.6163 22.947
Au 25.3579 36.0522 11.0329
Pt 29.9023 19.6675 32.2826
Au 22.8268 18.2847 13.268
Au 20.055 20.9824 22.2605
Au 8.4163 21.5067 28.9746
Au 41.4069 30.29 16.6905
Au 28.8903 11.58 11.1951
Au 14.4544 9.23202 22.7185
Pt 30.4638 34.3544 23.7116
Au 17.5007 14.974 17.6021
Au 17.8915 17.9737 7.21088
Pt 28.8285 27.3228 21.9548
Au 41.525 28.1624 31.6941
Au 24.4601 17.6835 11.0301
Pt 30.2672 24.6397 10.6887
Au 18.7639 7.85615 33.6145
Au 14.0586 22.0437 13.3742
Au 20.5015 34.8783 8.51172
Au 9.41793 17.9879 22.8735
Au 29.5078 33.5576 8.74117
Au 11.6964 13.4129 34.578
Au 30.8244 39.8059 16.4135
Au 41.9483 23.3622 26.0678
Au 8.20458 22.2304 34.1753
Au 28.7616 27.8828 5.32679
Pt 34.321 32.1572 23.8176
Au 25.9485 24.7778 13.6816
Au 34.6496 37.3761 13.0262
Au 8.85126 32.7038 28.4412
Pt 15.4775 34.0267 27.0519
Pt 38.2676 30.2217 13.0887
Pt 27.5589 9.47789 31.7813
Pt 40.9394 26.1555 29.8809
Au 21.386 32.6428 13.5379
Au 36.2567 17.8822 9.43124
Au 33.3004 15.8671 37.4887
Au 29.5775 42.6988 28.2367
Au 18.3606 7.95165 21.2799
Au 13.1229 28.7125 11.8803
Au 40.5653 37.1877 19.0085
Au 14.8971 25.0237 18.1923
Au 22.6119 35.8689 14.653
Pt 39.5802 23.7611 30.435
Au 9.16786 20.9318 36.5198
Pt 35.5988 25.5663 22.8928
Pt 33.638 25.9125 26.9785
Pt 21.3695 27.6458 22.5654
Au 17.887 27.4925 12.142
Pt 31.1095 20.1187 16.5072
Au 23.8427 32.0303 19.9895
Pt 24.1869 26.3224 40.4201
Pt 34.4991 24.0613 25.2867
Au 21.1999 8.24459 21.5204
Au 11.2667 27.7627 16.3552
Pt 36.9104 32.3025 25.1102
Pt 27.1752 14.3872 27.5042
Au 29.5411 38.5745 14.2629
Au 27.4142 37.221 12.6437
Pt 36.8169 15.4823 19.1008
Pt 22.5121 26.2185 38.3718
Pt 21.428 39.1528 26.0904
Pt 33.543 15.059 20.689
Au 17.1676 9.77593 18.8004
Au 17.2814 22.9492 9.59579
Pt 36.5991 33.1876 29.5782
Au 41.1492 20.3135 22.3516
Au 33.6803 26.3462 9.78967
Au 25.0252 42.7582 20.3826
Pt 25.723 16.8373 27.577
Au 33.4895 30.8167 8.39711
Au 29.5745 20.1317 10.9648
Au 16.5763 35.466 12.4453
Pt 22.3337 10.9726 31.6417
Au 40.7295 17.6494 21.3939
Au 12.0936 26.3426 24.4856
Au 26.8513 6.00658 24.9748
Au 20.3268 30.3173 8.25511
Au 8.28386 19.3706 34.3482
Au 23.8187 23.1878 12.3094
Au 7.12285 21.4549 26.4646
Pt 27.8784 18.019 26.5627
Pt 38.448 26.007 29.207
Pt 31.1761 15.5396 35.8836
Pt 35.7964 22.3124 26.9973
Pt 23.9727 16.3703 34.2793
Au 21.7445 25.9029 20.5438
Au 34.5062 35.4549 35.3127
Pt 24.9767 9.3005 34.8275
Au 29.5569 19.9163 8.23148
Pt 19.7952 16.026 37.4619
Pt 24.0732 18.9494 27.4354
Pt 17.9643 18.4029 38.6649
Au 10.5139 15.6812 35.7243
Pt 17.0675 19.8271 25.3881
Pt 23.0734 34.9486 26.5103
Pt 31.8743 22.6633 21.9383
Pt 33.7482 26.9805 24.5613
Pt 21.3851 30.2464 33.4917
Pt 19.5904 32.3013 27.7288
Au 12.099 25.5614 19.1287
Pt 19.8662 11.8577 31.6677
Pt 16.4195 27.2067 36.5484
Pt 37.6875 18.4114 15.6721
Pt 22.6952 12.8974 36.2344
Au 21.9108 10.1023 12.6939
Au 22.9756 37.6112 19.9013
Au 19.0918 32.3801 22.7715
Au 19.857 28.0207 41.1273
Au 38.6084 25.5051 11.5073
Au 11.5645 17.8307 16.3455
Au 13.5144 16.9254 14.187
Au 30.6337 34.0858 11.1253
Au 17.7606 41.2559 29.828
Pt 28.1201 11.6096 27.9451
Au 18.7189 22.8535 4.83346
Au 15.2782 24.6225 8.49731
Au 16.4488 35.6029 17.2335
Au 16.3136 33.0212 21.8457
Au 23.111 15.6295 12.376
Au 22.1772 18.9991 9.57056
Pt 24.5156 12.9586 31.1392
Au 32.7696 36.2073 17.8757
Au 23.8966 36.2732 35.6674
Au 9.51712 25.7225 25.5163
Au 25.1962 29.098 7.33671
Au 21.8528 28.738 42.7445
Au 19.0124 18.6173 13.117
Pt 13.2372 17.788 36.3843
Au 14.1672 32.4434 20.0278
Au 16.6622 22.8278 6.86631
Au 13.5476 22.083 27.8175
Pt 23.4724 30.7894 29.2263
Au 39.8331 16.6155 15.8345
Au 8.32555 15.5698 31.668
Pt 23.6896 30.2933 24.3185
Au 32.3271 20.8432 9.22827
Au 23.7947 27.1558 43.8732
Pt 35.56 25.0071 16.0737
Au 23.5843 30.0549 5.16139
Au 17.9173 25.2166 8.10069
Au 33.9224 39.9686 13.209
Au 34.6144 36.3576 15.7356
Au 9.56574 29.6797 14.7546
Au 31.7639 39.005 31.637
Au 40.1569 28.1959 12.587
Au 12.252 15.2393 15.975
Au 18.7902 19.1597 10.36
Au 23.9937 7.15698 21.3808
Au 42.8006 27.0911 22.6395
Au 12.1399 18.8648 10.9455
Pt 37.2953 23.0084 16.0277
Au 12.0558 22.6246 15.1951
Au 19.9296 19.7683 7.85681
Pt 27.9868 11.9517 18.0124
Au 20.037 33.5795 25.3451
Au 25.0514 19.2794 6.21864
Au 27.0471 12.9147 41.5591
Pt 33.537 14.7433 27.7196
Au 19.4077 26.1623 43.0876
Pt 10.6917 15.8948 25.2446
Au 30.5151 38.0009 34.6683
Pt 32.2905 16.0999 18.6914
Au 42.6025 25.8908 25.284
Au 18.5997 27.4512 16.6238
Au 19.7105 29.0745 10.5822
Au 19.2062 42.7765 27.9957
Au 39.0592 34.9165 14.9982
Au 33.324 14.4649 12.9788
Au 9.3934 26.2206 18.0286
Au 21.7574 40.4361 32.4483
Pt 37.5645 37.6166 20.1209
Au 21.7012 43.7662 29.1459
Au 24.5535 22.3356 7.43223
Pt 17.3784 27.6307 33.8399
Pt 24.125 10.5222 29.837
Pt 29.413 15.8583 37.9549
Au 17.5279 25.7863 14.3598
Pt 29.7798 27.6637 26.0063
Au 24.6643 26.3443 7.42484
Au 26.3052 8.41897 38.7571
Pt 33.9326 24.9182 20.629
Au 14.2018 29.0091 36.1379
Pt 30.8193 10.5928 25.3708
Pt 32.8581 23.5314 31.9331
Au 37.8329 21.1528 37.3826
Au 26.4262 10.6744 10.494
Pt 36.2421 27.5206 15.3295
Pt 22.3051 23.3147 42.6884
Au 23.8005 33.5818 17.6925
Au 19.5303 28.5382 14.0687
Au 15.1051 31.2142 11.1888
Au 19.3326 25.9735 18.9255
Pt 38.3929 25.7405 19.0807
Pt 31.6239 30.8705 28.184
Pt 18.136 30.0695 28.2944
Pt 26.4757 12.8912 32.7568
Pt 36.9338 22.29 35.1137
Pt 22.9559 21.4292 40.6855
Pt 34.1879 27.4196 29.0848
Pt 20.0711 13.1196 28.9009
Pt 12.7993 17.9719 32.4449
Au 15.3258 27.0155 39.9486
Pt 22.0759 17.5806 37.3445
Au 22.1166 14.8961 6.71314
Pt 11.8308 30.3287 34.4984
Pt 34.0708 28.9964 14.3432
Au 22.3197 26.8964 9.28873
Au 31.7666 18.5592 7.3686
Pt 26.8031 19.5007 31.9606
Pt 20.0333 14.4223 24.1789
Pt 21.7558 20.5302 28.1959
Au 27.085 42.9127 22.2634
Au 17.9404 36.0357 14.8337
Pt 24.1747 32.8024 25.2435
Pt 12.9037 22.0394 33.205
Au 10.9425 32.1032 14.5572
Au 18.3523 13.359 10.7606
Au 16.1109 35.7891 22.36
Pt 18.6364 30.0928 32.9392
Pt 28.1263 16.3955 13.7515
Au 33.411 38.8205 17.4357
Au 33.0262 25.996 40.9697
Pt 23.7473 18.7362 39.2676
Pt 15.5561 22.4837 32.2014
Pt 34.8227 26.0716 13.6504
Au 36.7296 37.0358 30.3571
Au 40.2766 19.1125 16.6483
Au 19.363 10.5825 17.3548
Au 29.4601 17.1301 41.7262
Pt 35.6053 19.3513 17.4745
Au 29.7108 28.1237 7.96683
Pt 18.0386 36.5551 24.8646
Au 35.7101 15.6147 13.6159
Au 14.8974 10.3315 17.2205
Au 21.8442 11.8187 38.862
Pt 10.567 23.3799 33.8188
Pt 31.113 16.6748 16.515
Au 33.187 10.9475 30.5768
Pt 34.9029 17.2562 19.216
Pt 29.8719 31.3167 33.0368
Pt 32.0482 13.0525 29.155
Au 19.7499 19.743 19.8866
Au 35.4708 21.5783 8.96345
Au 17.5736 30.5507 9.67564
Au 17.4174 34.0882 24.2857
Pt 30.1691 30.0179 36.5776
Au 27.6893 35.3322 17.4885
Au 15.8246 21.3089 11.2418
Pt 36.9279 33.7005 19.2055
Au 21.4983 22.9498 15.8058
Au 18.603 40.8505 23.2793
Au 22.0444 18.8719 41.4888
Au 8.47923 20.5598 31.8866
Au 14.1241 18.3023 17.3147
Pt 30.9827 38.492 25.2906
Au 21.2382 33.3331 18.7965
Au 13.8066 24.6692 13.9141
Au 20.9618 11.9349 10.4168
Au 35.242 27.383 39.6998
Pt 29.6829 29.2379 31.2602
Au 31.2916 26.8409 6.14025
Pt 31.3029 20.8271 23.9274
Pt 21.6217 18.8526 26.1585
Au 7.69533 30.172 21.7546
Pt 23.7268 17.287 20.6547
Au 9.14735 25.0422 22.8043
Au 37.5555 16.7873 30.639
Au 37.4209 34.6343 31.6576
Pt 32.9915 24.3768 15.1852
Pt 21.013 10.9207 36.2443
Au 38.6354 35.1909 29.2896
Au 14.2123 17.0465 11.3478
Au 13.0561 33.0386 35.8473
Pt 28.1508 39.0357 25.6123
Pt 23.8312 26.3105 30.2841
Au 25.5719 33.9464 6.86913
Au 18.259 37.5254 11.7583
Au 17.6462 36.9757 19.3611
Au 32.814 33.9087 9.42699
Au 8.2881 30.918 26.4691
Pt 29.5257 23.1436 24.1286
Pt 22.1595 30.2825 21.8841
Au 11.6468 20.8127 17.513
Pt 24.8389 16.0403 38.8921
Au 21.0174 17.3507 11.3399
Au 22.8698 40.7428 20.8582
Pt 33.8513 38.5525 24.3094
Au 17.6391 30.1973 12.4285
Au 12.2957 30.6462 37.2738
Pt 13.8407 13.4385 23.7352
Pt 29.8758 27.5075 37.4991
Au 35.3086 39.0683 15.3152
Au 7.91788 23.6307 18.3752
Pt 12.9474 14.219 32.3354
Pt 33.6549 26.9344 16.3032
Au 24.7462 20.0689 8.97415
Pt 15.4827 14.9419 27.0498
Pt 28.6091 34.5738 27.6831
Pt 31.2961 26.8118 28.0741
Au 27.1956 17.7157 11.5181
Au 40.7735 16.978 18.6156
Au 21.2855 30.021 12.6381
Au 36.7997 35.6895 13.613
Pt 14.4165 19.9909 32.0497
Pt 35.3204 28.0275 26.6306
Pt 35.7889 30.6639 30.3281
Au 14.8037 21.988 8.75251
Au 27.483 29.3295 16.6642
Pt 23.1671 21.9275 34.643
Au 36.0604 38.603 17.9292
Pt 21.5092 35.8202 33.7541
Au 16.7735 38.507 23.448
Pt 18.7788 23.4575 26.755
Pt 15.1902 15.9574 36.3204
Pt 27.6793 35.5726 32.3067
Pt 26.9141 28.6513 27.3668
Au 35.6554 38.1666 26.5062
Pt 25.5886 16.9806 22.7054
Pt 37.1082 22.0844 13.0922
Au 28.6609 26.8389 10.2129
Au 21.9369 30.4205 18.8723
Pt 35.835 18.1565 29.1208
Au 43.3451 28.1446 20.3036
Au 31.3103 21.1979 6.59635
Pt 34.7178 18.3008 24.6837
Au 23.4341 32.7405 5.44866
Pt 30.8441 10.8325 28.0322
Pt 38.678 22.0067 22.8825
Pt 36.1198 25.903 28.0973
Au 31.6821 38.623 28.6984
Pt 30.9993 14.3367 20.2525
Au 18.1188 42.9065 25.2078
Pt 23.9469 21.7781 27.6566
Au 28.0385 32.4338 13.7549
Pt 30.9445 20.2748 29.2911
Pt 30.9468 25.211 39.3268
Au 27.8716 29.9503 6.69766
Pt 27.8831 14.0386 24.9407
Pt 20.0915 25.843 39.5483
Pt 17.071 20.1369 36.1918
Pt 22.7426 21.6247 23.0207
Pt 31.2298 26.1132 8.72726
Pt 13.122 14.6365 28.3162
Pt 21.0596 24.7551 25.6233
Au 26.1315 15.1631 12.1357
Au 39.5735 39.4146 20.2523
Au 19 40.3639 32.2808
Au 15.3574 20.6659 16.507
Au 14.9499 29.787 13.5039
Pt 29.422 37.68 27.5014
Pt 27.3382 29.8921 37.7681
Au 26.3025 41.83 15.2181
Pt 34.3942 19.7224 20.0781
Au 26.3953 32.4023 39.3467
Au 12.0098 18.6902 19.2172
Au 13.5823 22.7641 17.4768
Pt 11.4735 23.6763 29.1157
Au 27.1981 37.3957 15.4373
Pt 16.5258 32.1807 13.7326
Au 24.3101 8.37281 17.6142
Pt 21.4949 26.5548 31.5376
Pt 21.6985 38.9969 29.9634
Pt 21.7897 21.6962 19.1444
Au 13.2281 27.3439 14.4065
Au 37.034 30.9547 10.8182
Au 38.4885 15.2489 25.4034
Au 9.67776 22.662 14.0992
Pt 38.2983 27.3477 24.1458
Au 15.6031 17.9093 40.2723
Pt 36.1028 20.8863 33.021
Au 22.7483 6.9084 23.804
Pt 23.0728 28.4715 37.1877
Au 27.1548 21.4591 8.14625
Pt 36.6512 20.0309 24.0664
Pt 30.058 12.8097 24.149
Au 13.1208 30.839 17.5735
Au 38.7115 38.6626 17.7791
Pt 20.4262 10.1439 33.8568
Pt 29.2359 18.6217 17.5738
Pt 26.2363 14.6821 34.8392
Pt 21.9741 15.1763 29.2114
Au 33.3502 41.0981 15.6723
Pt 10.1004 22.498 31.2287
Pt 28.8929 33.3315 19.3757
Au 13.8164 13.0123 16.4074
Pt 30.1998 24.7989 22.0714
Pt 32.0418 40.472 24.0304
Pt 33.1202 34.2033 22.7579
Au 25.5642 15.587 25.2653
Au 9.48016 32.5033 31.1258
Au 21.76 17.6106 7.09982
Au 18.9756 23.4784 14.2902
Au 39.9987 18.7336 13.8624
Au 38.2877 39.0058 22.6159
Pt 19.5247 17.8464 22.3015
Au 29.3586 6.70587 25.9287
Pt 31.2943 26.9151 11.4003
Pt 19.7251 19.0365 36.7944
Au 36.868 13.0674 24.5579
Pt 31.8844 18.1992 30.8047
Au 37.8368 22.906 10.6283
Pt 12.9268 26.4247 32.6826
Au 32.0921 42.9863 23.0483
Pt 25.2781 16.7607 14.0224
Pt 19.2461 32.8426 32.5432
Au 30.8935 8.18213 24.1353
Au 28.9541 25.2772 5.73254
Au 17.127 32.9584 11.1305
Pt 22.8198 16.2576 15.2759
Pt 22.0218 16.4193 22.5892
Au 15.9901 15.0906 10.5624
Pt 37.1568 18.0801 25.9889
Pt 17.8174 35.5302 36.2949
Au 19.5646 15.8913 6.48262
Au 16.3299 39.5846 31.3263
Pt 33.4596 17.6574 21.3962
Au 14.3715 20.3828 41.1205
Pt 32.1772 23.1207 24.7313
Au 33.3723 18.439 38.8197
Au 14.7484 9.89042 34.9189
Au 10.8313 27.8814 13.302
Au 12.6521 37.5175 25.5459
Pt 28.0652 19.5845 34.3162
Pt 18.7257 24.9351 24.4609
Pt 36.2761 27.5312 35.3933
Au 22.6759 12.9594 8.52588
Pt 19.0857 16.5422 32.7908
Au 26.2365 44.3134 27.1658
Pt 28.2065 11.2457 25.2193
Au 21.3229 18.604 15.6119
Au 21.2854 6.87799 33.5396
Pt 36.3415 25.942 25.3295
Au 20.3782 42.9611 23.4837
Pt 32.2203 18.4455 14.5548
Au 38.6093 19.4676 21.9435
Pt 23.9516 32.576 22.5761
Pt 26.6947 25.4909 39.5865
Au 7.91736 32.0575 23.7608
Au 26.1981 33.6978 15.906
Pt 36.2227 21.211 21.627
Au 27.2915 27.0213 7.59991
Au 22.8158 35.4252 9.83013
Au 27.0133 34.6333 9.27525
Pt 25.9397 27.6846 31.6739
Au 28.0623 34.6779 11.8615
Pt 15.6023 18.2704 37.5684
Au 13.7481 33.9573 22.6344
Pt 24.6415 14.8793 28.9694
Au 42.0459 29.8214 22.4821
Pt 13.9388 26.473 37.2512
Au 15.2119 8.16379 30.5638
Au 25.3332 41.8757 31.4624
Au 16.7356 25.5353 10.6288
Au 24.9771 35.7217 18.9792
Pt 11.6169 19.8241 36.6018
Pt 18.7462 21.4554 31.8248
Au 24.3053 17.4642 8.21158
Pt 35.147 25.9331 37.3693
Pt 34.3649 23.836 28.4785
Au 24.2362 14.7205 21.8018
Pt 31.6218 32.0072 37.4458
Pt 26.1813 20.4806 26.6231
Pt 36.1785 26.9413 17.858
Au 24.1246 25.7888 18.9854
Pt 31.7423 18.3141 10.1074
Au 27.9496 39.9179 16.4598
Au 28.6463 38.3059 20.1058
Au 26.9881 40.4642 18.9788
Pt 14.0704 24.6058 28.4649
Pt 15.5981 34.1266 35.733
Pt 38.9224 31.0381 15.7077
Pt 14.7327 30.1398 24.9904
Au 36.6493 34.1522 34.1309
Au 26.573 24.1621 7.13256
Pt 30.2548 29.0673 34.1815
Pt 27.9418 20.4192 38.2489
Au 33.1731 28.7858 40.8593
Pt 38.9827 27.4734 31.5619
Pt 28.677 25.016 14.894
Pt 30.6911 31.6376 30.5444
Pt 11.1587 21.0463 29.0679
Au 28.0256 31.9496 16.8525
Au 19.2282 22.4797 7.41734
Pt 36.0651 26.5501 20.4461
Au 28.3794 8.17832 21.3175
Pt 26.8623 18.2269 15.6788
Pt 25.5104 12.8243 17.1546
Au 16.9821 19.6473 41.829
Pt 33.741 26.017 35.1921
Pt 37.0909 31.126 20.1202
Pt 24.323 19.2111 22.774
Au 22.3894 43.3246 21.5188
Pt 29.956 20.2879 36.1827
Au 33.6728 17.0741 8.75812
Au 6.78487 25.5473 30.1808
Pt 23.0564 20.9201 16.7721
Pt 26.1312 26.4248 29.0422
Au 15.5269 34.4028 14.8639
Pt 28.1001 31.0802 35.2814
Au 31.179 24.0116 6.78068
Pt 25.6419 10.6684 24.1693
Au 42.4433 28.3203 29.0608
Au 31.0412 42.4868 16.0734
Pt 33.1827 35.1338 28.0355
Pt 14.7786 28.1442 26.6308
Pt 20.8525 30.2417 28.7175
Au 30.6276 33.7294 13.8973
Au 35.0428 10.9371 23.4681
Au 33.5583 40.2475 29.6877
Pt 15.3863 37.5402 29.6736
Au 9.79842 28.3687 26.7163
Au 35.7923 19.8854 38.7135
Au 27.2906 13.4215 10.0522
Pt 27.9833 16.8101 24.1582
Pt 28.7799 23.3538 20.1375
Au 38.838 20.6377 33.2673
Au 8.32432 22.4758 24.0454
Pt 13.6594 35.102 34.1285
Au 39.9795 15.1687 20.53
Au 26.3912 25.2477 9.80696
Au 23.1798 30.3814 14.481
Pt 40.8957 26.8659 27.2634
Au 8.97386 30.7439 19.2604
Au 30.7134 13.4715 12.3314
Au 34.6196 15.7267 10.8358
Pt 39.2395 30.7687 18.3879
Au 17.2754 34.6206 38.7244
Pt 28.4021 20.4922 15.6789
Pt 31.2816 27.2131 18.1132
Au 7.62554 29.3345 24.365
Au 25.7686 35.0426 13.612
Pt 32.5495 34.1441 25.3899
Pt 28.0178 13.3385 13.0117
Pt 29.327 11.5131 32.8379
Pt 19.2612 9.83095 23.0176
Pt 23.4317 39.5855 27.8664
Au 8.61871 16.6984 34.1151
Pt 27.6333 24.4906 33.4501
Pt 18.4972 12.6371 19.0918
Pt 20.6065 17.321 34.982
Pt 18.2343 15.4535 26.1576
Au 26.8533 20.6482 43.4441
Pt 34.7214 31.8821 15.7525
Au 11.9609 33.1745 38.2173
Pt 11.3289 14.032 30.2318
Pt 30.6896 13.6468 34.1151
Pt 18.9126 26.1392 26.8829
Pt 26.1216 19.7571 36.3193
Au 12.7334 25.3514 16.4431
Pt 26.2146 30.7585 24.165
Pt 25.4829 30.5605 31.3197
Pt 12.5023 27.0218 27.3869
Au 19.8917 21.7849 9.93593
Pt 24.9184 23.9216 29.4003
Pt 29.4825 40.7153 24.1546
Pt 22.7425 29.2142 26.8947
Au 31.479 21.5235 42.1639
Pt 17.1238 32.7552 28.9047
Pt 39.4869 23.9671 21.0541
Au 18.9841 38.738 14.1971
Pt 38.201 26.4092 33.8147
Au 13.5475 36.2338 21.0733
Pt 28.0689 24.9318 12.1548
Pt 17.221 37.1619 32.0904
Pt 18.5057 11.0101 28.1713
Pt 20.113 27.854 33.7535
Pt 32.7598 25.0905 22.9621
Pt 18.1749 13.5252 33.083
Au 33.4954 25.3045 7.23224
Au 7.41837 17.0391 29.5084
Au 29.8048 11.2618 13.7669
Pt 25.4911 29.065 36.0613
Au 10.8137 23.5848 17.5464
Pt 30.2182 11.9592 16.3956
Pt 24.493 20.6944 18.9946
Pt 16.907 19.3853 28.1795
Au 21.0598 32.6032 6.94627
Au 19.3798 37.3217 27.5024
Au 12.8219 31.4954 12.6894
Au 30.982 11.3123 37.7668
Au 15.5732 23.4176 15.5727
Pt 25.7824 38.0109 24.3591
Pt 19.9321 24.027 41.5231
Pt 26.918 26.2368 26.2564
Pt 27.2257 27.1571 14.8794
Pt 26.2755 24.9803 16.4796
Au 22.7958 37.0941 12.0866
Pt 23.6403 17.4762 29.5965
Au 16.5565 17.5509 9.49547
Au 22.1219 25.786 6.55909
Au 12.7154 34.1293 14.1926
Au 10.8607 28.6186 18.8901
Pt 18.1815 34.6293 27.1631
Au 17.9836 20.4873 5.96069
Pt 24.6247 30.4009 38.2737
Pt 27.9825 31.6082 31.112
Au 25.7345 31.4579 5.98089
Au 8.88304 28.1004 34.3543
Au 24.946 36.132 8.32417
Au 15.3027 37.7391 16.0624
Au 28.8341 12.3943 39.1223
Au 39.7203 28.5047 29.0913
Pt 21.8498 9.30084 27.411
Pt 28.0824 28.4913 35.5545
Au 20.1942 15.2777 16.3471
Au 24.7218 14.7604 7.56961
Au 17.7845 15.2731 8.59871
Pt 21.6096 31.4687 31.224
Pt 27.3086 22.5525 22.4626
Au 31.4186 38.4833 19.4355
Pt 11.3873 21.7895 26.2976
Au 41.2222 18.1121 24.0292
Pt 21.1832 17.8986 28.4901
Au 9.36563 30.7673 33.7246
Au 9.89426 27.8528 23.7081
Au 28.7302 22.3653 12.9867
Au 16.2069 22.5785 18.4328
Au 9.22376 23.2908 26.8615
Pt 13.2585 19.7675 34.4377
Au 37.084 28.3341 37.8651
Au 26.877 42.549 29.0532
Au 40.0148 20.9658 30.567
Au 11.4536 20.8316 12.8355
Au 10.2727 29.6094 21.4231
Au 24.346 14.1291 14.3324
Au 36.7179 41.4315 22.1857
Au 19.3988 25.8347 22.0317
Au 12.9293 29.9289 20.1766
Pt 29.2418 36.8483 24.3385
Pt 32.1051 29.3798 32.4614
Pt 10.4728 14.6246 27.6583
Au 14.6819 9.68517 19.9632
Pt 26.0388 12.4164 26.2024
Au 31.682 8.77241 29.7289
Pt 17.7917 23.017 33.7315
Pt 26.2795 18.3931 38.5798
Au 18.2053 17.1019 41.0591
Pt 21.3414 29.3641 24.5568
Au 8.74055 13.7544 29.6506
Pt 16.7379 26.6294 25.4218
Pt 12.7746 16.212 30.4814
Au 16.0647 13.2574 12.4682
Au 35.8038 24.2469 11.784
Pt 19.5875 34.196 34.9744
Pt 22.5362 19.8538 20.8986
Pt 9.36049 17.3935 27.4593
Pt 34.7108 30.5957 32.875
Pt 10.9097 15.8221 32.6935
Pt 26.8825 25.4337 19.047
Pt 24.4057 36.0296 22.6993
Au 27.4087 7.11491 30.2251
Pt 25.2305 27.919 38.797
Pt 31.5345 18.6096 18.9749
Au 10.0931 30.6163 24.1568
Pt 20.3575 8.94044 31.6237
Au 16.9927 8.46656 23.9161
Pt 31.9677 28.7674 29.7729
Au 17.9922 16.5184 15.0738
Pt 32.5782 30.6193 35.1797
Au 38.2752 17.3604 23.604
Au 33.3808 39.9871 26.683
Au 17.2531 10.042 15.7625
Pt 20.8105 24.1429 37.5869
Pt 27.6094 35.6875 20.1612
Pt 25.2316 20.9491 38.8502
Au 26.6196 40.7382 23.989
Pt 14.7206 27.1425 29.0868
Pt 23.1577 28.9656 31.6228
Pt 10.0476 25.9694 30.8634
Pt 30.8555 31.39 19.2718
Au 22.3144 22.6076 45.3402
Pt 34.5821 31.5811 19.1006
Pt 33.1232 26.1819 32.4058
Pt 29.6403 18.758 22.9381
Au 17.0641 20.3695 8.56934
Pt 30.1289 24.5994 32.5771
Au 41.8603 32.0771 20.9203
Pt 24.9885 19.9564 41.4378
Pt 22.7062 16.4807 40.2275
Au 22.9243 23.3511 20.8786
Pt 16.3566 13.7277 24.9482
Pt 34.5975 22.5977 16.8785
Pt 34.5517 32.6146 34.5846
Pt 27.4767 24.3494 28.3421
Pt 19.3821 31.4286 34.9789
Au 28.6407 9.68927 38.6505
Pt 30.1816 22.483 8.80083
Pt 26.9813 13.1449 37.0475
Pt 25.3808 7.94289 23.9987
Au 24.2651 24.3142 5.41737
Au 19.7447 8.11743 28.6515
Pt 37.4879 29.6677 25.8365
Pt 29.4616 16.3731 19.1803
Au 39.3406 19.8706 24.6135
Au 12.6412 14.2264 20.611
Au 26.4413 39.8027 33.1477
Au 41.1881 22.9811 23.3041
Pt 26.3724 15.7927 20.286
Pt 26.042 32.0629 36.6906
Au 21.1428 22.7152 12.7415
Pt 13.9217 24.7122 39.3442
Pt 34.3606 36.4502 22.4633
Pt 23.859 27.879 23.1084
Au 8.97213 21.7835 16.68
Pt 28.0015 30.7951 26.3511
Au 41.6028 28.0815 15.0392
Pt 18.7426 11.9685 35.3137
Au 9.30646 18.7306 20.1232
Pt 30.1013 24.8079 29.6645
Pt 34.4055 37.4089 19.8894
Pt 30.0353 28.8847 20.2213
Au 26.7815 20.3705 10.9226
Au 31.9836 33.7022 18.6682
Pt 17.9275 27.443 38.9773
Au 23.5794 33.4316 14.9886
Pt 29.3308 13.6909 29.4811
Pt 16.2505 25.1177 38.2282
Au 14.6661 29.0168 16.2582
Pt 22.2006 28.1402 29.2973
Pt 19.4716 27.4171 29.2818
Pt 27.2696 21.1657 20.169
Au 23.7331 9.62209 20.1731
Au 37.5633 15.1203 15.5978
Pt 29.4275 10.1786 22.9804
Pt 19.9203 34.9396 22.9975
Au 20.3817 28.5007 20.0954
Pt 23.3555 24.5917 27.4184
Pt 23.0272 16.403 27.0177
Au 22.9258 42.5128 18.7487
Pt 27.3422 22.8211 15.415
Au 27.0356 18.6221 8.60179
Pt 30.2149 18.0346 34.6764
Au 32.4897 13.1585 36.1563
Au 8.98203 27.0149 15.1733
Pt 25.2687 12.1653 35.2242
Au 17.6639 23.359 22.4282
Au 21.4744 23.6933 4.56145
Au 12.721 36.4786 30.1335
Au 43.1194 25.7972 18.8721
Au 19.0073 32.7325 8.90958
Pt 21.9827 15.3162 35.8403
Au 8.04798 19.5735 24.7105
Au 27.8023 37.3964 34.3038
Pt 26.3353 26.8038 34.2744
Pt 38.1641 29.8778 30.7557
Pt 24.9674 13.304 23.9893
Pt 39.432 31.8076 25.9095
Au 20.5513 20.6025 44.7989
Au 25.7647 29.4566 14.5387
Pt 29.5877 29.298 28.3076
Pt 19.4526 15.874 28.6194
Pt 14.9505 12.592 29.1021
Pt 18.4526 21.9568 24.5618
Au 23.1131 6.22891 31.4501
Au 14.4187 31.2735 34.375
Pt 35.742 30.2056 35.234
Pt 28.3959 18.1207 36.6681
Au 15.6089 21.5212 23.5447
Pt 21.4028 11.8963 26.7946
Au 21.861 18.2202 44.1093
Pt 28.4553 17.196 32.6021
Au 34.2172 37.5013 28.892
Pt 32.6251 12.2599 26.6724
Au 31.7326 15.6841 10.9154
Au 15.1491 28.298 20.9633
Au 19.039 12.6367 15.5211
Au 26.9062 24.3345 42.0119
Au 40.6234 25.435 32.4618
Pt 31.3887 29.06 13.3666
Pt 30.0197 29.5255 23.1616
Pt 30.1682 22.6735 15.3567
Au 17.4821 20.0206 18.3115
Pt 20.5586 22.2444 39.6157
Au 31.4057 40.6332 13.8095
Pt 36.1034 15.8671 24.3535
Au 27.2092 10.4611 13.3187
Pt 16.6847 9.511 26.4024
Pt 20.9559 29.6364 36.0372
Au 30.9673 27.1441 42.5015
Au 38.4033 29.2317 35.4047
Pt 29.629 30.0574 39.1184
Au 24.1186 41.8408 23.0319
Au 23.33 31.2454 7.65102
Au 23.0372 37.3118 24.7722
Pt 30.4137 12.1282 21.6817
Au 24.514 27.0532 14.3345
Au 19.6877 17.7419 17.6479
Au 13.5965 27.7356 18.4373
Au 15.5568 10.7807 31.585
Au 17.8283 27.6449 20.6717
Au 28.5658 32.0641 10.852
Au 22.7143 38.3065 34.1049
Pt 17.8583 36.1866 29.5406
Pt 29.6451 13.5292 36.7113
Pt 28.6994 26.816 28.3621
Au 17.9558 13.054 38.6991
Pt 33.2233 31.0495 30.5793
Pt 31.4967 25.6635 25.3217
Pt 19.5222 19.4399 24.5874
Pt 32.9515 29.5878 24.0261
Pt 29.403 26.0126 19.6774
Pt 26.0038 13.041 20.1808
Pt 36.2664 31.4678 27.6336
Au 25.4265 34.5634 37.553
Au 24.6153 9.8973 12.5326
Au 14.8849 14.1872 18.5789
Au 8.40213 20.4602 22.0339
Au 16.2361 39.1212 18.4835
Pt 29.3424 33.9928 30.4503
Pt 34.4453 28.6438 37.011
Pt 25.37 32.0064 13.7955
Pt 32.7893 31.6852 26.1111
Au 24.8503 11.5466 14.7406
Au 32.8684 37.2355 33.5784
Pt 21.3507 21.4583 32.6463
Au 19.6998 39.9873 28.1603
Pt 33.6212 27.7456 12.0216
Au 10.2619 20.0854 15.111
Pt 27.5398 28.8724 29.9959
Pt 40.0567 24.3469 27.8531
Pt 34.3152 14.0535 25.29
Pt 25.674 35.4103 28.0326
Pt 23.0846 23.7563 32.3511
Pt 29.6363 36.2656 21.8085
Pt 24.2861 24.9964 42.4981
Au 38.1589 28.5166 10.8034
Au 19.8508 8.31292 36.106
Au 8.29766 24.289 32.2361
Pt 32.5608 36.507 30.8736
Pt 15.1869 18.718 23.6749
Au 13.4204 22.9946 41.2863
Pt 17.0571 34.2797 31.2179
Au 24.2648 33.9037 39.9547
Au 13.9912 16.2946 38.7849
Pt 10.3476 25.9339 33.5012
Au 11.0094 23.6063 24.3383
Pt 33.6745 20.1283 29.1574
Au 23.6513 11.1134 10.3278
Au 21.1165 20.12 11.8734
Pt 38.7705 31.026 28.3587
Au 29.3938 43.3292 23.785
Au 9.35677 32.3558 21.4579
Au 31.4202 13.9945 38.6197
Pt 18.9222 36.8801 34.2274
Au 15.5555 29.7062 40.779
Pt 21.869 30.6292 38.3902
Au 32.3668 9.9335 22.4492
Pt 19.8377 15.1973 21.6088
Pt 14.6002 32.2323 29.3532
Au 40.8642 26.6075 20.0614
Au 11.3139 32.2637 19.2658
Pt 23.7156 9.01351 25.5787
Au 40.451 33.2578 28.1033
Pt 24.3981 8.43349 28.1553
Pt 29.9792 29.5075 17.6342
Au 17.2293 27.7071 41.8186
Au 35.7788 22.0721 40.2141
Pt 12.1257 18.3566 23.1107
Pt 23.9642 23.1701 18.0365
Pt 25.756 21.4351 24.2564
Pt 35.7921 15.9191 21.6221
Au 32.6115 34.0005 15.779
Pt 26.1575 9.63576 21.8094
Pt 12.5072 26.0542 29.985
Pt 33.7497 21.6289 38.2864
Pt 27.0421 35.9635 22.9825
Au 26.5472 27.2271 41.8
Pt 21.8313 32.9057 29.0656
Au 15.1201 13.7655 38.0507
Pt 35.0605 25.0572 30.7754
Au 21.9158 27.6397 14.9466
Pt 35.2035 31.5221 13.0297
Au 20.2017 20.6774 17.2191
Au 43.2574 30.5703 18.9142
Pt 13.1549 28.6002 30.8262
Pt 19.8476 15.1362 18.969
Pt 26.1852 15.6585 32.528
Au 35.1835 11.5338 26.1571
Pt 30.2031 18.7152 25.5403
Pt 34.7706 35.1234 30.3823
Au 20.8771 36.9587 36.2015
Pt 28.3859 16.2961 28.7034
Au 19.1441 35.082 17.8816
Pt 21.8022 36.75 22.4307
Pt 25.6136 40.0981 29.4636
Au 18.2358 19.2766 15.6465
Au 20.1394 39.2688 34.6602
Pt 37.1747 28.7162 21.8777
Pt 24.8824 23.4405 40.1855
Au 17.9262 7.26699 31.0976
Pt 28.5078 26.6488 17.2188
Pt 34.1683 40.0588 19.9173
Au 26.2852 25.9859 44.2045
Pt 30.9832 16.8982 21.311
Au 11.9053 24.7734 21.8844
Pt 32.6654 31.3633 14.2969
Pt 26.7648 19.016 28.8343
Au 26.8747 23.291 44.5173
Pt 36.0832 21.7174 18.8987
Au 35.1301 18.0895 36.7845
Au 12.1 33.2426 16.7175
Pt 22.0871 31.8033 26.6237
Pt 16.4669 24.5798 35.5524
Pt 29.5724 31.4854 21.4948
Au 25.3566 12.2814 8.57249
Pt 32.7218 29.5015 18.94
Au 21.9586 22.9901 7.0147
Au 24.3364 7.84588 37.0204
Au 34.7105 34.9651 11.4424
Au 40.7397 22.6315 32.7093
Au 40.4666 27.6443 34.2181
Au 36.8075 20.3322 10.8522
Pt 34.8147 19.214 31.3992
Pt 8.85379 24.0786 29.4755
Pt 32.6702 19.8437 36.0378
Au 35.4009 24.739 40.0721
Pt 16.7417 20.1959 30.6802
Au 39.7239 35.6363 26.7841
Au 31.9307 38.3734 12.3186
Pt 36.3698 35.534 21.1299
Au 15.3645 26.3502 15.8545
Au 11.2723 30.6075 31.5611
Au 10.9854 22.1659 38.3043
Au 14.1886 24.5833 23.3521
Au 11.7825 23.456 12.3663
Pt 31.6938 24.0452 27.4175
Pt 15.4022 27.3533 31.8087
Au 20.1412 20.8603 14.4536
Pt 23.0481 11.6159 24.5913
Au 29.3016 8.85519 34.032
Au 31.5367 8.30999 26.9037
Pt 13.493 32.0047 26.9315
Pt 19.433 30.8667 25.3663
Pt 26.5144 17.475 34.5993
Au 22.8061 38.2722 17.0126
Pt 26.9757 21.762 40.8327
Pt 23.8036 34.6667 32.9801
Pt 19.1868 20.751 26.9974
Au 40.8089 34.5336 22.3666
Pt 14.3729 20.0178 29.2402
Au 10.4491 11.4281 30.1851
Au 27.2441 17.9516 43.2541
Au 7.08746 28.5127 27.0447
Au 33.0362 31.778 39.7717
Pt 24.2697 19.0957 34.5512
Au 27.0933 44.5204 24.48
Pt 19.3583 19.7256 40.4768
Au 7.78709 15.2365 27.5199
Pt 37.0114 31.0489 22.9802
Au 27.8889 8.56255 24.3404
Au 25.0211 27.7883 9.78705
Pt 38.9647 35.3885 20.408
Pt 33.5994 20.5459 15.4549
Pt 34.8371 20.3993 13.027
Au 27.4337 8.3669 36.1943
Pt 25.7535 22.2337 31.5365
Au 25.8042 37.6096 20.911
Au 32.8136 11.2576 16.6571
Au 21.5202 8.96752 16.7625
Au 15.6884 34.8413 19.7728
Au 10.022 29.4865 36.2987
Pt 38.3628 23.2707 18.3305
Pt 26.1349 34.9495 34.5078
Pt 37.8641 33.5953 27.2405
Au 25.4705 29.8888 19.0542
Au 22.5958 20.3005 7.19986
Au 19.3948 31.8475 17.4109
Pt 33.5529 16.0832 15.2302
Au 16.0587 16.0333 13.1481
Au 17.0137 15.755 38.7957
Pt 28.3057 20.8951 30.4071
Au 18.4842 35.1775 10.4098
Au 23.2927 44.2664 26.9947
Pt 22.9014 24.1895 36.0315
Au 16.8248 17.6254 17.2969
Au 35.0137 11.5141 18.0955
Pt 27.5622 16.553 39.8038
Au 29.4052 19.712 42.7985
Pt 13.0921 15.1656 25.7586
Pt 38.1141 24.4812 23.6765
Au 39.3816 32.7048 13.1835
Au 29.2705 38.4127 30.1444
Pt 24.9901 30.6427 26.7011
Au 22.3921 28.6198 7.15547
Pt 26.6907 38.0719 31.0886
Pt 28.2054 40.2572 28.2772
Pt 19.4569 19.8623 29.5163
Pt 20.7509 12.8114 20.3206
Pt 24.3613 11.8 21.8627
Pt 17.9536 10.5697 32.9511
Au 31.1632 22.309 11.456
Au 20.0724 23.4476 20.7593
Au 24.2959 25.9089 11.6498
Au 30.2168 31.1525 15.4142
Au 19.9023 38.4236 23.7943
Pt 34.5363 33.7479 17.6136
Pt 34.9919 33.5696 26.326
Au 20.7575 14.5064 11.4336
Pt 12.2914 19.462 27.271
Au 23.8629 27.3779 5.08647
Pt 22.5858 42.0853 25.3605
Pt 17.0099 32.1699 34.1419
Au 10.3043 35.7161 25.3855
Au 18.36 16.2929 11.3208
Au 21.3836 33.0439 21.5016
Pt 25.3501 35.577 30.8214
Pt 30.5466 30.1336 25.6463
Au 19.0992 22.9509 18.3576
Pt 25.7093 12.3946 28.8086
Au 21.9008 27.4398 12.0212
Pt 32.9338 17.2555 35.1505
Au 22.1492 35.7367 17.7569
Pt 20.6287 23.3386 23.4056
Pt 30.8981 33.8203 21.1522
Au 8.5722 29.639 31.3664
Au 6.4891 23.4332 28.284
Pt 28.7614 25.0422 37.8918
Pt 20.9834 21.5708 36.7204