2057
Atoms. Timestep: 20353
Au 24.7984 25.5449 25.6456
Au 27.1986 25.4255 24.2766
Au 27.0626 25.2382 27.1724
Au 22.5689 25.5301 24.0113
Au 22.4066 25.3994 26.943
Pt 23.2372 27.9122 25.5772
Au 27.4359 27.8165 25.5749
Au 23.3498 23.0965 25.3237
Au 26.1786 23.0432 25.4768
Au 24.7162 23.7234 27.7712
Au 25.3019 27.4964 27.3785
Au 24.8339 24.0757 23.2206
Au 25.0327 27.1784 23.4901
Au 29.5891 25.4237 22.9745
Au 29.5094 24.9564 25.8652
Au 30.7854 22.4081 28.4374
Pt 20.243 25.3604 22.2831
Au 20.065 25.2057 25.1661
Au 19.8499 24.9475 27.9833
Pt 21.5147 29.8842 25.8679
Pt 25.358 29.5536 25.3022
Au 27.9942 30.6979 25.588
Au 21.9291 20.6417 25.0223
Au 24.7119 20.5954 25.1729
Au 27.4974 20.6024 25.3406
Au 24.426 22.0873 30.0135
Au 23.9283 25.7323 29.4154
Au 25.0863 28.6356 29.8083
Au 24.8372 22.5729 20.7916
Au 24.9299 25.5722 20.9415
Pt 24.9077 28.2784 21.0064
Au 26.7775 28.2272 32.0528
Au 26.8223 30.9516 32.2518
Au 27.2465 24.0376 21.8694
Au 27.3831 27.0418 21.9617
Au 22.1515 23.5338 29.0698
Au 22.6741 27.9179 28.3212
Au 22.5603 23.993 21.5668
Au 22.5359 26.9466 21.6287
Au 29.342 28.8102 23.9103
Pt 30.9346 26.7732 28.8514
Au 21.0237 27.7626 23.9592
Au 20.5325 27.4669 26.794
Pt 28.5985 22.9393 24.1138
Au 28.3987 22.709 27.0473
Au 21.0728 23.025 23.6996
Au 20.9325 22.789 26.5927
Au 23.84 30.2279 27.567
Pt 26.6392 29.7868 27.7546
Au 23.259 21.3375 27.5362
Pt 26.0695 21.2647 27.7138
Au 23.3703 29.354 23.1894
Pt 26.7444 29.3683 23.1244
Pt 23.3718 21.5136 22.8291
Au 26.1811 21.5854 23.0148
Pt 31.8521 25.1882 21.2701
Au 31.9769 25.1434 24.4853
Au 33.3744 22.2001 26.8816
Au 33.1545 21.9647 29.8093
Pt 17.9445 25.2351 20.7505
Au 17.738 25.1151 23.599
Au 17.475 25.0407 26.6425
Au 17.4926 24.5689 29.529
Au 19.6378 31.9037 25.7143
Pt 23.6033 31.4362 25.1235
Pt 25.8455 32.0624 26.6593
Pt 29.6568 32.6846 27.1971
Au 20.5251 18.1924 24.7508
Au 23.2794 18.1238 24.8819
Au 26.0366 18.0991 25.0087
Au 28.8169 18.0845 25.1813
Au 24.3841 20.4133 32.2524
Au 28.3677 20.9423 29.1976
Au 26.5688 26.2592 29.7691
Au 24.2889 29.8525 32.0694
Au 24.884 21.1553 18.3517
Au 24.8917 23.9855 18.3904
Au 24.874 26.7786 18.4345
Au 24.8465 29.475 18.3431
Au 29.2119 24.8003 28.8478
Au 26.9255 21.5796 31.595
Pt 32.1807 28.8041 28.0918
Pt 33.5307 26.5322 29.4309
Au 29.3768 29.2304 32.6732
Au 29.5752 23.9058 20.4009
Au 27.2212 22.5437 19.3582
Au 29.6573 26.8457 20.4652
Au 27.2813 25.4542 19.4446
Au 27.2075 28.2936 19.4177
Au 19.764 23.2139 30.4463
Pt 21.9225 21.7958 31.3476
Au 20.5228 26.1794 30.2406
Au 22.5667 24.6725 31.5579
Au 22.6383 27.6826 31.0637
Au 20.2703 23.91 19.9342
Pt 22.5328 22.4597 19.139
Pt 20.1351 26.7937 19.9414
Au 22.5195 25.3747 19.1764
Au 22.4157 28.1602 19.1195
Au 31.2905 30.449 22.6844
Au 31.4479 27.4561 22.8596
Au 29.5609 29.8807 27.6428
Au 30.3463 27.4308 26.2508
Pt 31.9166 24.6733 27.351
Au 19.2506 29.8167 23.9378
Au 18.6742 27.5514 22.2536
Pt 18.9222 29.6453 26.9036
Au 18.3752 27.4319 25.154
Au 18.387 27.3886 28.7409
Au 29.9108 20.5016 23.8812
Au 30.9204 22.9183 22.7051
Au 29.8478 20.2534 26.8025
Au 30.965 22.6291 25.5549
Pt 33.1025 20.0317 31.9356
Au 19.6173 20.5701 23.4856
Au 18.758 22.9365 22.1124
Pt 19.5122 20.3425 26.3982
Au 18.5697 22.7745 25.058
Au 18.4886 22.4837 27.9064
Pt 22.5566 30.371 30.1125
Au 21.3155 31.5745 28.022
Au 27.1696 33.6392 31.6417
Au 25.2173 31.4152 29.81
Au 28.0134 29.7094 30.0665
Au 23.0912 19.6291 29.802
Au 21.7743 18.9363 27.265
Au 25.9108 19.5495 29.8736
Au 24.6184 18.8563 27.4225
Au 27.442 18.8072 27.5558
Au 23.2162 30.4014 20.4275
Pt 21.4422 31.3481 23.5182
Au 26.1047 30.6454 20.8083
Au 23.9243 31.9669 22.4437
Au 26.2462 31.8929 23.7085
Pt 23.3876 20.1156 20.4468
Pt 21.9359 19.1645 22.5632
Pt 26.1692 20.0775 20.5714
Pt 24.7051 19.0901 22.6672
Au 27.5147 19.1528 22.8123
Au 30.7825 20.4036 30.4956
Au 28.3447 27.5388 28.2243
Au 28.5834 21.5304 21.6126
Au 28.8459 29.6743 21.2685
Au 20.7645 21.0527 28.8644
Au 20.3989 29.1572 29.1986
Au 21.0975 21.5022 21.2748
Au 20.9031 29.2065 21.5303
Pt 34.0919 25.0035 19.8203
Au 34.2215 24.79 22.6597
Pt 35.6779 21.9907 25.3437
Pt 35.7867 21.6292 28.1552
Pt 34.1514 22.0247 33.6686
Au 15.6559 25.1195 19.191
Pt 15.4398 24.9695 21.9784
Au 15.2279 24.8499 25.0165
Pt 15.0115 24.3226 27.9477
Pt 14.9707 24.0209 30.8472
Au 18.1042 34.0853 25.538
Au 21.8735 33.3832 25.7424
Pt 24.7518 33.8238 25.0008
Pt 27.6306 33.5111 25.3474
Au 30.2938 35.2603 27.113
Au 19.0736 15.7781 24.5048
Pt 21.8349 15.6027 24.5997
Pt 24.5706 15.6094 24.6721
Pt 27.3738 15.6385 24.9062
Pt 30.1913 15.6594 25.026
Au 24.3664 18.4947 34.3418
Au 25.129 23.6296 32.1662
Pt 23.2921 25.558 34.0557
Au 24.8569 26.381 32.0601
Au 22.0974 31.6217 32.6296
Au 24.8931 19.7124 15.9665
Pt 24.9025 22.5054 15.8774
Au 24.9425 25.2675 15.8711
Au 24.8233 28.0856 15.8138
Au 25.0743 30.8007 15.744
Pt 31.8501 20.8106 34.3964
Au 29.2637 19.1229 34.9746
Au 29.6045 21.9979 35.5824
Au 29.3101 23.012 30.9656
Au 25.5579 21.964 34.4822
Au 30.723 27.2187 34.4973
Au 31.7173 24.4865 30.157
Au 29.1299 26.9963 30.9404
Pt 28.354 27.587 36.7805
Pt 31.808 23.7576 18.862
Pt 29.544 22.3721 17.9106
Pt 27.2158 21.0687 16.8856
Pt 31.9262 26.6746 18.9073
Au 29.6048 25.2153 17.9347
Au 27.2472 23.8385 16.8599
Pt 29.5598 27.9182 17.9418
Au 27.2169 26.6369 16.8965
Pt 28.7961 30.4457 18.6537
Pt 17.2708 22.7005 31.7951
Pt 19.5173 21.3022 32.6237
Au 21.9212 19.9476 33.4231
Pt 16.3191 26.0963 31.429
Pt 18.611 25.0209 32.1117
Pt 20.6306 23.7246 33.0603
Pt 18.6589 27.6412 31.6633
Pt 20.8533 26.6094 32.9802
Pt 20.5322 33.0059 34.7294
Au 17.9976 23.8125 18.3528
Pt 20.2997 22.4745 17.549
Pt 22.571 21.1067 16.7225
Pt 17.8442 26.6929 18.3878
Pt 20.197 25.3487 17.5639
Au 22.5733 23.8812 16.7312
Au 20.0432 28.1888 17.5141
Au 22.5121 26.7078 16.6809
Au 22.3377 29.4999 16.5635
Au 32.6474 32.7652 23.5612
Au 33.9905 29.9225 23.3721
Au 33.6889 27.4206 21.292
Au 30.8435 31.1597 25.3702
Au 32.2268 28.8845 25.1143
Pt 33.99 27.072 24.0152
Au 35.1106 28.9004 25.7256
Au 34.4508 24.5337 25.6539
Au 33.313 26.8327 26.6757
Au 17.4823 31.983 23.7452
Au 16.8465 29.6945 22.1569
Au 16.2647 27.3876 20.7168
Pt 17.0032 31.8908 26.652
Au 16.6586 29.6949 25.106
Au 16.0114 27.29 23.4887
Au 16.5737 29.6198 28.1578
Au 15.8901 27.3315 26.2879
Au 15.8249 26.6884 28.8385
Au 31.2341 17.992 23.677
Pt 32.2375 20.3864 22.3494
Au 33.1283 22.6777 21.0826
Au 31.2032 17.7393 26.5735
Au 32.3478 20.1454 25.2399
Pt 33.3112 22.4925 24.0139
Au 32.2172 17.9552 30.2744
Au 32.2612 19.8739 28.0929
Pt 33.2055 18.2233 34.0607
Au 18.1646 18.1334 23.1905
Au 17.3044 20.4879 21.8618
Pt 16.4829 22.7775 20.5236
Au 18.0705 17.9373 26.0916
Au 17.1505 20.2784 24.7788
Au 16.2576 22.6844 23.4034
Au 17.086 20.0632 27.6444
Au 16.0909 22.453 26.327
Au 16.0431 22.1134 29.2058
Au 23.0301 33.1487 30.3927
Au 21.4124 35.344 30.2405
Au 19.9038 34.0254 27.8742
Au 24.6944 32.6517 32.6379
Au 25.6305 34.174 29.3857
Au 23.6711 33.1056 27.7323
Pt 29.5587 34.6469 32.5516
Au 27.6041 32.2462 28.7405
Au 29.6961 32.0202 30.5618
Pt 22.9908 17.8133 31.8181
Au 21.7011 17.205 29.4449
Au 20.3578 16.468 26.969
Au 25.7701 17.6686 31.9154
Pt 24.516 17.0857 29.5442
Au 23.155 16.3844 27.0583
Pt 27.3468 16.9795 29.6179
Au 25.9767 16.3679 27.1868
Pt 28.7616 16.285 27.3256
Au 23.2104 31.7104 17.8714
Au 21.4019 32.5662 20.9373
Au 19.768 33.4911 23.0583
Au 26.3019 31.7768 18.2324
Au 24.4879 33.0094 19.914
Au 22.5061 34.1317 23.2175
Au 27.5993 32.835 21.2235
Au 25.4118 34.331 22.3605
Pt 28.9076 31.664 23.2999
Au 23.42 18.6846 18.049
Au 21.9275 17.744 20.2039
Pt 20.5534 16.6878 22.3307
Pt 26.2265 18.6479 18.191
Pt 24.743 17.6701 20.2991
Au 23.2738 16.682 22.4704
Pt 27.5513 17.7079 20.3679
Au 26.0698 16.6762 22.5557
Au 28.8829 16.7094 22.7098
Pt 30.8969 18.54 32.6665
Au 31.79 31.8442 32.3452
Pt 29.8075 18.3124 28.8975
Pt 31.5659 31.2885 28.6044
Au 28.367 19.0185 31.2119
Au 26.8449 23.4361 29.5237
Pt 30.8824 21.3608 20.1179
Pt 31.4742 28.8309 20.5165
Au 29.9277 19.0333 21.367
Au 33.3783 31.0623 20.8911
Au 28.5311 20.0507 19.1372
Au 30.7658 31.4914 20.035
Pt 18.3596 20.7768 30.1758
Pt 18.3885 30.0469 30.6446
Pt 19.3558 18.6622 28.6091
Pt 18.6315 31.7082 28.6971
Pt 20.6271 19.3372 31.004
Pt 20.7306 29.3055 32.0061
Pt 18.8367 21.4575 19.6841
Pt 18.4424 28.9643 19.8363
Pt 19.6325 19.1238 20.9835
Au 19.0248 31.2332 21.4026
Pt 21.1142 20.0923 18.8614
Au 20.7578 30.5034 19.0128
Pt 36.3634 24.747 18.3259
Pt 36.5388 24.5791 21.0736
Au 38.0401 21.7821 23.6922
Au 38.1048 21.5086 26.5522
Pt 38.3297 21.1048 29.227
Pt 35.3261 19.6897 33.3315
Pt 13.4014 25.167 17.6098
Au 13.1403 24.849 20.4438
Au 13.0228 24.712 23.3205
Pt 12.8199 24.2897 26.3068
Pt 12.6986 24.1199 29.2062
Au 12.6185 23.9618 32.2665
Au 16.6939 36.3447 25.3847
Au 20.3653 35.5654 25.0938
Pt 23.1983 35.9917 25.1792
Pt 26.125 36.0242 24.6133
Au 30.2822 33.8746 24.6859
Au 35.1839 37.0562 25.1461
Pt 17.6721 13.4086 24.3006
Pt 20.4186 13.2801 24.3587
Pt 23.1345 13.208 24.4594
Au 25.929 13.2285 24.5656
Au 28.7525 13.2526 24.7462
Au 31.6398 13.2854 24.7752
Au 23.8333 12.6319 40.1093
Pt 24.7934 24.1703 38.7095
Au 24.0177 23.7226 36.1423
Pt 23.1154 25.0552 40.6915
Au 23.1641 29.3544 36.4086
Au 23.2716 32.4288 35.0894
Au 24.8523 18.2102 13.5919
Pt 24.9079 21.0904 13.5325
Pt 24.929 23.8112 13.4573
Au 24.9306 26.6938 13.3771
Pt 24.922 29.6238 13.1724
Pt 24.8047 32.3281 12.372
Pt 33.9824 20.3288 35.9314
Au 31.6525 18.703 36.1976
Au 27.9844 23.112 33.7319
Au 23.0379 22.6722 33.7076
Au 31.7657 22.4884 32.199
Pt 35.0561 26.8765 35.9058
Au 29.2735 24.8896 35.454
Au 27.113 20.5258 36.2591
Pt 36.0936 26.5018 33.3452
Au 27.5084 25.0428 31.9578
Au 22.9424 28.2771 33.7536
Au 33.205 26.3981 33.5072
Au 27.6755 30.932 42.0049
Au 27.6297 29.676 34.832
Pt 34.0165 23.6325 17.4101
Au 31.7754 22.3659 16.3584
Au 29.5131 20.957 15.455
Au 27.2228 19.6362 14.4784
Au 34.1884 26.5468 17.4909
Pt 31.863 25.1549 16.4734
Au 29.5694 23.8424 15.3915
Pt 27.2144 22.4276 14.4059
Pt 31.9159 27.7602 16.3822
Au 29.5524 26.6927 15.4247
Pt 27.2355 25.1174 14.3118
Au 29.6033 28.0591 12.914
Au 27.2084 27.8925 14.3278
Au 27.2811 29.4085 16.7463
Pt 14.8743 22.3442 33.0964
Pt 17.0432 20.8592 33.9319
Au 19.3618 19.5274 34.7888
Au 21.7168 18.1219 35.5677
Au 14.0539 26.2173 33.0581
Pt 16.3293 24.5651 33.628
Pt 18.4421 23.1133 34.3786
Au 20.8607 21.8748 35.2306
Au 16.6089 27.5398 33.6266
Au 18.8124 25.9412 34.6468
Au 21.2951 24.6747 35.4931
Au 18.9809 28.7574 34.2046
Pt 21.1507 27.4191 35.5533
Pt 21.2041 30.1401 34.6817
Au 15.6647 23.7429 16.7638
Pt 18.0193 22.4423 15.9452
Au 20.3147 21.0802 15.1389
Au 22.5931 19.6231 14.3548
Pt 15.6284 26.6358 16.7702
Au 17.9664 25.3425 15.9307
Au 20.2806 23.9291 15.1192
Pt 22.5953 22.4784 14.2717
Pt 17.8379 28.2154 15.9094
Au 20.2722 26.8905 15.0422
Au 22.6316 25.319 14.2185
Pt 20.1735 29.6562 14.7262
Pt 22.655 26.628 11.6994
Au 22.5873 28.2973 14.0466
Pt 32.5446 35.4568 24.8316
Pt 37.6002 33.6186 22.94
Pt 36.7426 31.1341 19.5621
Au 35.9399 27.0773 19.756
Au 36.0664 38.0387 22.4875
Au 34.7768 32.1015 25.1383
Au 35.7784 29.4132 21.4365
Pt 36.245 26.8569 22.5334
Pt 33.3658 30.6726 26.8223
Pt 36.4231 26.5886 25.2388
Au 36.7176 24.2922 23.9208
Au 34.8108 28.8577 28.6297
Pt 36.8592 24.018 26.8727
Au 34.3993 24.1016 28.6474
Pt 15.9009 34.1168 23.7153
Au 15.1365 31.8853 22.0824
Pt 14.5193 29.5739 20.5777
Pt 13.9099 27.2829 19.2548
Pt 15.3731 34.1228 26.5208
Pt 14.8462 31.8654 24.9669
Au 14.2625 29.5319 23.4522
Pt 13.6784 27.1892 21.9462
Pt 14.5899 31.6967 27.7601
Au 14.1016 29.4558 26.288
Au 13.4899 27.1069 24.7735
Pt 14.0233 29.0733 29.0377
Au 13.4173 26.6468 27.5658
Au 13.6037 26.5464 30.388
Pt 32.6042 15.5905 23.4732
Au 33.5314 17.909 22.1406
Pt 34.4513 20.1791 20.8103
Pt 35.3952 22.4723 19.5681
Pt 33.4798 15.4021 30.1272
Au 33.7052 17.677 25.0726
Pt 34.613 19.9958 23.7286
Au 35.5428 22.2338 22.4256
Pt 32.0849 14.0234 34.2143
Au 33.6583 17.3444 27.9404
Pt 34.7951 19.6982 26.6296
Pt 34.5209 17.558 31.7704
Au 34.6119 19.4706 29.4779
Pt 34.6538 15.2457 33.1705
Pt 16.7322 15.7366 22.9691
Pt 15.8485 17.9886 21.6334
Pt 14.9962 20.3092 20.3432
Pt 14.21 22.6835 19.0152
Pt 16.5856 15.5009 25.7503
Pt 15.6575 17.7879 24.4612
Au 14.8169 20.1253 23.1435
Au 13.9819 22.4835 21.797
Au 15.5829 17.622 27.2731
Au 14.6656 19.9591 26.0279
Au 13.7656 22.3171 24.6951
Pt 14.5742 19.693 28.8679
Pt 13.6082 21.9984 27.6006
Au 13.5602 21.7967 30.4423
Pt 22.0069 34.5977 36.4251
Au 20.0765 35.8097 34.8407
Au 20.0579 36.7231 32.2479
Au 19.4252 37.2226 29.2748
Pt 25.2866 37.4209 34.3821
Au 24.5644 35.2559 31.7812
Pt 24.1507 36.6619 29.4953
Au 22.1959 35.5772 27.6612
Pt 27.0481 35.9087 33.1089
Pt 26.8134 36.5683 30.07
Pt 24.927 35.5163 27.0953
Au 28.9578 34.6092 29.7097
Au 27.4811 35.0771 27.4376
Au 32.9958 35.7895 27.4244
Au 22.8642 16.0877 33.9237
Pt 21.5055 15.3752 31.5064
Au 20.2442 14.6838 29.0586
Pt 18.919 14.009 26.6564
Au 25.6976 15.8257 34.0255
Pt 24.3145 15.276 31.6403
Au 23.0212 14.6575 29.2234
Pt 21.6746 13.885 26.7716
Pt 27.2068 15.1639 31.6954
Au 25.8442 14.6409 29.3419
Au 24.4801 13.9171 26.876
Pt 28.6993 14.5653 29.3896
Pt 27.3281 13.9024 27.0572
Pt 31.335 11.4627 26.8116
Pt 24.0559 33.3179 15.9507
Au 21.5451 33.7882 18.3958
Pt 19.2089 35.049 20.5931
Pt 18.1624 35.6198 23.1307
Au 28.2687 32.2221 16.2207
Pt 24.0543 35.0601 17.9336
Pt 20.937 36.9943 19.7103
Pt 20.8563 36.1602 22.3837
Au 30.7464 31.9796 17.1711
Au 26.3084 35.0672 19.7221
Au 22.6297 34.989 20.5488
Au 28.6443 33.2677 18.7957
Au 28.209 34.8058 23.1016
Au 30.4451 33.3688 21.8718
Pt 23.3971 17.1653 15.6773
Au 21.9307 16.2337 17.7587
Pt 20.5401 15.276 19.9567
Pt 19.121 14.3135 22.1163
Au 26.2329 17.1604 15.7549
Pt 24.7426 16.1591 17.8788
Au 23.3035 15.2337 20.0431
Pt 21.8673 14.1982 22.198
Au 27.5614 16.2158 17.994
Pt 26.0577 15.2742 20.1516
Pt 24.582 14.2049 22.2789
Au 28.9376 15.3259 20.2454
Au 27.3802 14.2329 22.4137
Au 30.2565 14.327 22.5477
Pt 32.2129 16.0599 32.382
Pt 33.8505 24.2213 31.772
Au 29.78 16.5793 30.9893
Pt 33.2349 30.4102 30.4946
Pt 31.1651 15.8702 28.6992
Au 31.7026 33.7157 29.1967
Au 30.7642 16.5987 34.6268
Pt 31.8397 26.9708 31.3986
Au 28.2648 17.1465 33.2776
Pt 31.9996 34.5175 31.7014
Au 26.8094 17.7061 35.6984
Au 21.9886 34.4759 32.9089
Au 33.1314 21.2439 18.586
Au 33.9532 29.1045 18.9758
Pt 32.2004 18.9044 19.8528
Pt 31.4802 29.6448 18.0927
Pt 31.2773 16.6515 21.1163
Au 33.195 34.2718 21.3101
Pt 30.8623 19.8728 17.6904
Au 29.9013 29.6532 15.6847
Pt 29.9221 17.6015 18.8971
Au 31.1936 34.2438 19.1964
Au 28.5771 18.5643 16.6979
Pt 29.9397 30.7242 12.3063
Au 15.8531 20.3283 31.3718
Pt 16.2537 28.5497 30.6755
Au 16.883 18.2844 29.7602
Pt 17.4968 32.376 31.3527
Pt 17.871 16.13 28.18
Au 18.6067 34.6727 30.324
Au 18.1754 18.9224 32.2368
Pt 19.2541 31.2425 33.0672
Au 19.2102 16.8261 30.6365
Au 20.3232 32.381 30.6795
Au 20.5078 17.4635 33.0659
Pt 19.0879 34.0201 32.8764
Au 16.4777 21.3648 18.153
Pt 16.0745 28.7921 18.3786
Au 17.3058 19.0209 19.4556
Pt 16.6437 31.1333 19.6773
Au 18.239 16.6874 20.7863
Pt 17.2805 33.3408 21.2454
Au 18.8396 20.0644 17.299
Au 18.3105 30.4036 17.5451
Au 19.6419 17.6579 18.5737
Au 19.0081 32.7102 19.0314
Pt 21.1186 18.6338 16.4786
Pt 20.6172 31.7288 16.5577
Au 38.6384 24.5066 16.6938
Pt 38.8546 24.3482 19.4731
Pt 39.0224 24.1278 22.2382
Au 39.2088 23.8653 25.2063
Pt 39.2567 23.4871 27.964
Pt 36.8905 23.4322 29.6569
Pt 39.5452 19.1434 31.4946
Au 11.2056 25.1016 16.0451
Pt 10.8311 24.7365 18.9869
Au 10.672 24.5177 21.754
Au 10.5848 24.2807 24.5889
Au 10.4469 24.0699 27.528
Pt 10.3336 23.937 30.4316
Pt 9.99142 23.9493 33.2668
Pt 15.6312 37.5245 27.8447
Pt 18.9794 37.8628 24.4428
Au 21.7485 37.9573 24.1273
Au 23.7771 36.577 22.5267
Pt 29.128 39.01 25.8274
Pt 31.3323 37.7872 24.6602
Au 35.2498 40.7776 22.3563
Pt 16.2446 11.048 24.0497
Pt 19.0196 10.942 24.1698
Pt 21.7305 10.8861 24.2422
Pt 24.4542 10.8027 24.3631
Au 27.2602 10.7443 24.4354
Au 30.0897 10.7852 24.5129
Pt 34.4687 8.62904 24.5254
Au 23.4516 20.6275 35.8929
Pt 24.9964 21.625 38.1611
Pt 22.4068 22.1974 37.8397
Au 28.087 26.8891 34.0293
Pt 25.8081 28.7438 36.9669
Pt 26.3137 25.9458 37.2015
Pt 24.3291 29.2883 39.0723
Au 24.9089 16.7836 11.2397
Pt 24.9396 19.6192 11.1672
Au 24.974 22.3387 11.0953
Au 24.9935 25.1245 11.0304
Pt 24.9971 27.8477 10.8855
Pt 22.735 30.3156 8.959
Au 26.2444 32.9307 14.4921
Pt 36.4873 19.5844 35.7606
Au 29.4795 20.9602 32.9163
Pt 31.7528 23.7069 34.5462
Au 26.8689 19.6655 33.5818
Au 26.9708 23.2756 36.6989
Pt 34.7008 24.424 34.4234
Pt 33.5048 24.2156 38.7427
Pt 32.8495 25.5227 36.105
Au 26.0303 24.9481 34.5648
Au 33.8109 22.8157 41.1529
Au 32.2122 29.1933 32.9893
Pt 32.9263 30.9897 35.1548
Au 30.3164 25.0391 32.6917
Au 27.6263 25.2605 42.6429
Au 25.059 30.4677 34.606
Pt 33.5662 26.8593 38.2725
Pt 23.7527 26.5872 36.4819
Au 30.3541 30.038 35.1694
Au 25.4808 27.637 34.5706
Pt 23.8785 31.6185 37.8275
Au 36.2451 23.3926 15.8081
Au 33.9941 22.18 14.7301
Au 31.771 20.8135 13.8224
Pt 29.5303 19.4811 12.9887
Au 27.2221 18.1124 12.152
Au 36.4521 26.2723 15.9315
Au 34.0517 24.9831 14.9184
Pt 31.8291 23.6675 13.7536
Au 29.5499 22.321 12.9418
Pt 27.2822 20.9673 12.0292
Pt 34.2204 27.764 14.9861
Au 31.8798 26.5122 13.8909
Au 29.5629 25.2048 12.8968
Pt 27.2812 23.7245 11.9366
Pt 31.9253 29.277 13.9154
Pt 29.5871 29.1092 10.1493
Pt 27.2954 26.4875 11.8242
Pt 29.1867 32.0707 9.80967
Au 27.3141 29.1883 11.7593
Pt 25.1162 30.4575 10.5826
Pt 12.434 22.0103 34.2406
Pt 14.5631 20.4203 35.1189
Pt 16.8384 19.0362 36.0122
Au 19.9525 12.3002 39.288
Pt 17.7788 15.2632 36.4332
Au 11.6404 26.3365 34.6283
Pt 13.9018 24.2795 34.9323
Pt 15.9721 22.6874 35.634
Pt 18.1701 21.4447 36.5333
Pt 21.0845 23.3996 40.0229
Au 14.2412 28.198 34.952
Pt 15.8652 26.0966 35.7799
Pt 17.7978 24.4494 36.6169
Pt 20.0386 23.3313 37.4367
Au 16.2692 30.0284 35.5357
Pt 17.8298 27.7887 36.4983
Pt 19.8144 26.1167 37.4643
Pt 22.8805 27.7707 40.8337
Au 20.6308 27.4523 42.636
Pt 23.5056 31.3248 40.5213
Pt 13.4246 23.6123 15.208
Au 15.7332 22.2981 14.3737
Pt 18.058 20.9508 13.5635
Au 20.3792 19.5684 12.7203
Pt 22.616 18.1488 11.9216
Pt 13.5099 26.4443 15.0324
Pt 15.7659 25.0895 14.3165
Pt 18.0573 23.7487 13.4592
Pt 20.3946 22.4168 12.6597
Pt 22.6505 21.0137 11.8851
Au 15.6719 27.9423 14.1769
Au 18.0716 26.5995 13.4244
Au 20.3739 25.2137 12.6214
Pt 22.6639 23.7936 11.8181
Au 17.8877 29.3711 13.1133
Pt 20.3861 28.0111 12.3821
Pt 20.4459 26.3926 10.0967
Pt 20.0259 30.7212 12.1383
Au 22.6176 29.684 11.6335
Au 20.3669 29.1725 9.85008
Au 37.7054 38.7294 24.6204
Au 35.384 32.2777 22.2909
Au 35.2066 33.2259 19.6718
Pt 38.0056 28.9106 19.8042
Pt 38.1809 26.8269 18.1549
Pt 36.366 39.013 26.7791
Pt 37.4362 36.103 23.8176
Pt 37.2 33.4161 25.482
Au 38.3027 28.7533 22.6037
Pt 38.482 26.5534 20.9722
Au 32.4792 33.2105 26.4862
Au 35.9974 31.1251 27.4426
Au 36.839 30.5552 24.2914
Au 38.7454 26.3705 23.8225
Pt 36.8822 32.819 29.3883
Au 37.3772 28.522 27.2792
Pt 38.7975 26.2851 26.5381
Pt 37.2011 27.911 30.1911
Au 35.8485 26.3278 27.8888
Au 35.4418 21.5968 31.189
Au 14.4137 36.2975 23.5772
Au 13.7144 34.2615 21.8786
Au 12.823 31.8069 20.4365
Au 12.0956 29.4482 19.1712
Pt 11.5007 27.1422 17.9002
Pt 13.6069 36.2672 26.4585
Au 13.1419 34.0668 24.7876
Au 12.5097 31.7579 23.2972
Au 11.8938 29.367 21.984
Pt 11.3199 27.0282 20.5721
Pt 12.857 33.7759 27.6183
Au 12.2245 31.577 26.0866
Pt 11.619 29.2739 24.7377
Au 11.1363 26.9259 23.307
Pt 12.2638 31.1983 28.9078
Au 11.66 28.9188 27.507
Au 11.0555 26.6052 26.0737
Au 11.7244 28.7588 30.4601
Au 11.0252 26.3762 29.0332
Au 11.228 26.3215 31.839
Pt 34.0068 13.1201 23.3217
Au 34.9308 15.3924 21.9644
Au 35.8565 17.6775 20.6022
Au 36.7484 19.9725 19.2815
Au 37.6982 22.2537 17.983
Au 32.6132 15.2997 26.3741
Au 35.0293 15.1584 24.9451
Au 36.1785 17.1208 26.6003
Au 36.9573 19.7342 22.1686
Au 37.8702 22.0695 20.7948
Pt 37.6258 14.9466 28.581
Pt 34.9738 14.8553 27.9468
Pt 35.9091 16.9236 29.5265
Au 37.0182 19.4487 25.0931
Pt 35.8993 14.5227 30.8554
Au 38.6449 14.1524 31.191
Pt 37.2643 19.0356 28.104
Pt 37.0337 16.532 32.1872
Au 36.8588 19.1593 30.9571
Pt 37.8432 18.9218 33.5201
Au 15.3446 13.3794 22.7486
Pt 14.4293 15.6833 21.4321
Pt 13.6114 17.9254 20.0959
Au 12.7806 20.2546 18.7597
Au 11.9953 22.7055 17.4879
Pt 15.2042 13.1445 25.5506
Pt 14.2358 15.4388 24.2519
Pt 13.3684 17.7366 22.921
Pt 12.4934 20.0148 21.5774
Pt 11.6921 22.3407 20.2682
Pt 14.1866 15.2049 27.0174
Pt 13.228 17.5065 25.7162
Au 12.3079 19.8516 24.4217
Pt 11.4975 22.1387 23.0471
Pt 13.1613 17.2628 28.5425
Au 12.1849 19.5773 27.2753
Pt 11.3638 21.9166 25.9939
Au 12.1418 19.4038 30.1226
Pt 11.2332 21.7481 28.8173
Au 11.1476 21.628 31.7766
Pt 22.6439 36.7733 34.3157
Au 21.3531 37.4826 36.6233
Au 21.1353 38.9338 33.9389
Au 16.7328 36.7903 30.2915
Pt 18.0676 38.2724 26.9282
Pt 26.4412 35.5552 36.0122
Pt 22.6169 37.3605 31.7513
Au 18.4627 38.2805 34.2955
Pt 21.9865 38.0644 29.0979
Pt 17.9466 41.274 27.4431
Pt 25.9332 40.3612 31.6433
Pt 25.2849 37.8327 31.7052
Au 25.5657 39.0835 29.0872
Pt 23.7351 37.971 27.1183
Pt 27.5997 38.5476 32.7769
Pt 29.7359 37.1022 33.663
Au 28.6123 37.5558 28.3115
Pt 29.1284 36.9955 31.1658
Au 31.1417 37.8547 27.4048
Pt 33.6436 38.4901 26.8153
Pt 20.2715 15.6911 35.2223
Au 21.3305 13.6716 33.5967
Pt 20.0545 12.9392 31.1756
Pt 18.756 12.3036 28.7628
Pt 17.4949 11.6747 26.4063
Pt 25.4786 13.9959 36.0673
Pt 24.1503 13.5108 33.738
Au 22.8238 12.8458 31.3348
Pt 21.5326 12.1307 28.907
Pt 20.2617 11.5669 26.5293
Pt 27.4362 18.161 38.2689
Au 25.6584 12.8275 31.4674
Au 24.3212 12.1051 29.0576
Pt 23.0049 11.4674 26.6421
Pt 28.5105 12.79 31.4538
Au 29.9429 7.34429 29.0578
Au 25.8249 11.4231 26.7568
Au 27.1536 12.108 29.1425
Au 32.9689 6.41988 24.458
Pt 28.6004 11.387 26.8647
Pt 23.6133 34.3722 13.4911
Au 21.6025 34.1981 15.6792
Pt 19.5393 39.1482 15.0168
Pt 17.8487 37.3625 19.0496
Pt 16.6825 38.0612 23.1418
Au 27.7117 30.5714 14.1185
Pt 21.9703 36.4968 17.18
Au 22.2493 39.0062 18.3082
Pt 19.5983 35.5565 17.9202
Au 18.8801 37.735 21.4949
Pt 27.9265 34.9756 15.1381
Pt 26.425 34.2042 17.138
Pt 24.3043 37.6739 17.1185
Au 23.9887 37.1788 19.7543
Au 30.2114 34.5472 16.5107
Pt 28.402 35.8962 18.0477
Au 26.6782 36.8288 21.9709
Pt 30.9661 35.8491 22.7237
Pt 28.741 36.4474 25.273
Au 33.654 36.6884 22.7017
Pt 23.4211 15.7461 13.315
Pt 22.0158 14.7511 15.4016
Pt 20.5334 13.8334 17.5094
Au 19.1503 12.8957 19.7022
Au 17.6503 11.9157 21.8708
Pt 26.2811 15.6707 13.3574
Pt 24.7702 14.6922 15.4664
Au 23.3188 13.7294 17.6009
Pt 21.9014 12.7847 19.7789
Pt 20.4709 11.8462 21.9626
Au 27.5958 14.7043 15.5056
Pt 26.0819 13.776 17.6903
Au 24.6634 12.7612 19.8778
Pt 23.1949 11.7853 22.0603
Au 29.0272 13.8415 17.7652
Au 27.4386 12.8498 19.9719
Pt 25.9044 11.7174 22.1571
Au 30.2951 12.8535 20.0832
Au 28.7247 11.7512 22.2513
Au 31.597 11.798 22.3712
Au 37.0112 17.236 37.014
Au 34.4959 28.0958 31.4524
Pt 33.4136 13.3293 31.9195
Au 35.884 30.577 30.4967
Au 35.8947 14.8905 35.8175
Pt 34.1066 32.4598 28.8306
Pt 32.3982 13.3992 28.4316
Pt 35.3441 36.9233 27.9635
Pt 33.7633 21.5797 38.6918
Au 34.6499 31.1139 33.0071
Au 32.0079 14.4263 39.2232
Pt 33.4191 33.5434 33.9348
Pt 30.0965 13.9038 27.0999
Pt 31.2241 36.2007 29.6837
Pt 26.6282 11.375 35.7357
Au 30.9716 33.1 34.7764
Au 30.5464 12.3281 37.806
Pt 31.7381 35.5876 34.2543
Pt 26.3655 18.6662 40.7465
Au 30.7723 29.2804 30.3345
Pt 35.3805 21.04 17.0216
Au 36.1622 28.7469 17.4261
Pt 34.4277 18.7262 18.3399
Au 35.5293 31.4436 17.1827
Pt 33.5328 16.4505 19.6056
Au 33.1268 32.0891 18.3601
Au 32.5812 14.2108 21.0246
Au 35.0195 34.5567 24.0224
Au 33.0961 19.8063 16.1122
Au 33.2809 30.1711 16.1245
Pt 32.1973 17.4488 17.421
Pt 32.8275 33.7092 16.1218
Pt 31.2955 15.2056 18.6852
Au 33.5966 35.1568 18.3784
Pt 30.9121 18.4014 15.2119
Au 31.3787 31.9476 14.4775
Pt 29.9788 16.1147 16.4813
Au 31.5174 34.7781 14.0134
Pt 28.646 17.0732 14.2951
Pt 29.0669 33.1769 13.5649
Au 13.3785 19.9565 32.6214
Au 13.9904 28.9812 32.1928
Pt 14.3474 17.8503 31.0683
Au 15.3067 31.0333 30.3812
Au 15.4293 15.8522 29.4515
Au 15.7785 34.365 31.4382
Pt 16.4477 13.7565 27.9205
Au 17.5487 35.5161 27.8819
Au 15.6205 18.462 33.5198
Au 16.5925 30.1568 32.8202
Au 17.977 17.0702 34.3951
Au 17.0558 32.535 34.1161
Au 17.7666 14.4062 30.333
Au 17.3821 36.1121 32.9736
Pt 16.7004 17.1534 37.9666
Pt 18.8352 31.1067 35.8459
Pt 18.9959 15.0088 32.8108
Au 16.092 36.984 35.268
Pt 19.1653 17.6235 36.8782
Pt 19.4851 33.5408 37.128
Pt 14.2313 21.2197 16.5677
Pt 13.6631 28.5178 16.9202
Pt 15.0162 18.8868 17.8693
Pt 14.24 30.9626 18.1369
Pt 15.8984 16.6024 19.1797
Au 14.9532 33.3624 19.4949
Au 16.7933 14.3369 20.5372
Au 16.2452 35.8319 21.2827
Au 16.5454 19.933 15.7149
Au 15.7399 30.0149 16.0158
Pt 17.3324 17.5917 17.0352
Pt 16.3491 32.3967 17.2439
Pt 18.254 15.2622 18.3305
Pt 17.1655 34.6489 18.7009
Au 18.8622 18.5423 14.9006
Au 17.9158 31.3042 15.0176
Pt 19.651 16.1855 16.1705
Au 18.6239 33.6453 16.3665
Pt 21.1559 17.1195 14.0821
Au 22.6626 31.2597 14.4052
Pt 40.8726 24.3927 15.0848
Pt 42.7476 21.4742 23.0827
Pt 40.5584 21.4696 24.7699
Pt 40.8175 21.2998 27.6027
Pt 39.7476 20.8957 33.7918
Pt 38.223 25.6564 29.0864
Pt 38.3048 25.8273 31.8346
Au 36.5067 23.7958 32.4322
Au 8.96933 24.9634 14.4983
Au 8.65309 24.6053 17.4526
Pt 8.34402 24.4116 20.231
Pt 8.23563 24.2577 23.0183
Au 8.13392 24.0752 25.8133
Pt 8.07554 23.9261 28.8576
Au 6.36673 21.2292 31.3406
Au 14.3589 22.6182 39.5977
Pt 14.2277 40.7421 24.8267
Au 18.8601 43.1766 25.762
Pt 20.1612 39.7548 23.0238
Au 22.2698 38.9019 21.3807
Au 24.9744 39.0158 21.8127
Pt 27.012 38.6637 24.2216
Au 28.1818 43.8088 24.4545
Au 30.6236 42.9693 22.6599
Au 16.106 6.40368 23.7506
Pt 20.3202 8.52778 24.1004
Au 21.6333 6.10269 23.9418
Pt 24.3722 9.06615 26.5671
Au 27.0755 7.22812 28.9088
Pt 25.8282 8.41369 24.2568
Pt 28.6415 8.38801 24.2528
Au 31.6245 6.93803 21.9098
Au 24.2014 17.8266 42.1509
Pt 27.1033 23.2312 39.5077
Au 21.7163 18.9173 41.8189
Pt 25.8918 21.3266 41.0056
Pt 20.7407 26.2097 40.103
Au 33.5493 30.5295 40.8724
Au 30.6539 29.6169 41.9409
Pt 28.9531 29.8937 39.963
Pt 24.9803 15.4628 8.92172
Pt 25.0172 18.1743 8.828
Pt 25.0501 20.8977 8.67947
Au 25.159 24.9097 6.18487
Pt 25.099 26.3285 8.55961
Pt 27.3267 30.3472 9.27989
Pt 23.6968 32.4705 9.91865
Pt 24.5092 34.7841 10.9605
Au 41.234 22.9247 34.8758
Pt 32.9928 19.0412 38.4938
Au 35.9688 22.9449 39.3999
Pt 31.1483 23.9164 37.2924
Au 28.3974 14.2922 41.4357
Pt 25.1258 19.0694 37.5897
Au 37.0298 29.057 32.5956
Au 40.9921 25.4064 33.2091
Pt 31.3626 25.5631 39.5792
Pt 29.497 19.6978 37.6683
Pt 25.4674 24.0076 41.4346
Au 33.0045 16.9987 40.2383
Pt 35.4255 24.5493 37.0335
Pt 31.879 28.1499 40.0099
Au 30.362 26.7798 41.9526
Pt 29.2403 24.4791 40.6878
Au 29.5069 23.206 43.1695
Pt 35.1065 30.0965 36.4832
Pt 39.1358 29.5721 34.1871
Au 37.998 23.9335 37.9109
Au 31.7043 24.3441 42.1514
Pt 33.3467 29.4798 38.2796
Pt 30.6025 29.1908 37.7433
Au 23.2809 23.4302 42.9395
Pt 29.1639 32.247 38.7478
Pt 32.704 28.349 35.9875
Au 28.9872 32.0322 33.3283
Pt 38.5458 23.1577 14.228
Au 36.2599 21.9855 13.2123
Pt 34.0044 20.6219 12.2455
Pt 31.7935 19.4124 11.4063
Au 29.5029 18.0779 10.6207
Pt 27.2617 16.7205 9.76621
Au 38.7324 25.9384 14.2771
Au 36.367 24.7409 13.2897
Pt 34.1676 23.4704 12.1146
Pt 31.8964 22.1645 11.3102
Pt 29.6177 20.8841 10.5073
Au 27.2853 19.5294 9.6243
Pt 36.5622 27.5169 13.499
Au 34.2208 26.2963 12.4269
Au 31.9797 25.07 11.3769
Au 29.6524 23.6796 10.5093
Au 27.3352 22.2667 9.5427
Au 34.3583 29.0735 12.6459
Au 31.9366 28.1914 11.3976
Pt 29.6847 26.4833 10.4104
Pt 27.3822 25.0292 9.50281
Pt 31.0272 33.1445 11.8011
Au 29.9506 30.4333 7.77342
Pt 27.4251 27.6759 9.29735
Au 33.2845 32.9174 10.0882
Au 30.9216 34.0941 9.28195
Pt 27.3874 31.9371 11.8132
Au 7.40913 18.9502 32.6412
Au 8.62075 19.5832 35.044
Au 12.965 16.3233 36.8551
Au 17.5313 13.4874 38.4987
Au 26.4363 19.6404 43.152
Pt 21.4955 16.2242 37.6629
Pt 15.6179 20.8376 37.6768
Au 10.8717 26.2575 37.5038
Pt 17.8828 19.5109 38.4746
Au 18.5779 22.9283 41.6143
Au 17.7409 17.7113 40.487
Pt 23.9821 19.631 40.0363
Pt 12.3441 31.115 31.6777
Pt 15.0156 24.3136 37.5264
Au 16.2564 24.4832 40.7238
Pt 18.7562 24.6009 39.4828
Pt 23.4956 22.3315 40.3922
Pt 15.3681 28.0898 37.6568
Au 14.1575 26.0426 39.5102
Pt 16.9279 22.8994 38.5693
Au 18.3286 26.3346 41.5284
Au 25.2919 26.7573 41.918
Au 16.1377 27.8191 40.4208
Au 20.6871 24.6517 42.4091
Pt 24.5728 26.7293 39.0859
Au 27.3947 33.4225 40.6573
Pt 20.0156 29.1573 37.2618
Au 11.1876 23.4588 13.6008
Pt 13.4997 22.1609 12.7354
Au 15.7968 20.7767 12.0111
Au 18.1024 19.4608 11.1375
Pt 20.4269 18.0359 10.2985
Pt 22.6573 16.6952 9.54644
Pt 11.2897 26.2614 13.4259
Au 13.5609 24.8682 12.695
Pt 15.7943 23.555 11.8676
Au 18.1037 22.2537 11.0818
Au 20.3561 20.8716 10.1982
Au 22.6812 19.5375 9.48277
Au 11.2138 27.3929 10.8376
Au 15.8454 26.3543 11.8039
Pt 18.1681 25.024 10.985
Pt 20.446 23.6882 10.2399
Pt 22.7307 22.2877 9.4251
Au 15.8057 30.0981 8.77266
Au 18.1141 27.8143 10.7646
Au 18.1714 28.939 8.04918
Pt 22.7036 24.9907 9.37939
Au 20.5338 30.3816 7.30338
Au 18.2516 31.7543 8.15869
Pt 22.7538 27.7297 9.30134
Au 19.7171 34.3392 8.66304
Au 20.5267 31.9144 9.67704
Pt 21.9751 34.359 10.0733
Au 36.5898 39.403 20.1796
Au 41.5515 35.3297 22.9838
Pt 40.2127 33.0702 21.9577
Au 42.142 31.1173 20.4687
Pt 40.0868 28.7878 18.1025
Pt 40.3261 26.6528 16.4998
Au 34.4104 40.9804 26.3319
Au 34.2209 41.1471 19.7433
Pt 35.9184 35.2147 21.5165
Au 42.6551 28.7037 19.0087
Pt 40.906 26.11 22.0422
Pt 41.3253 23.9112 20.5731
Pt 37.6169 36.2429 26.4887
Pt 39.204 35.5326 21.921
Pt 39.3148 31.8685 24.3471
Pt 41.0371 28.1688 23.5963
Au 43.7322 23.7699 21.8475
Au 38.6585 33.9876 27.6087
Au 41.2794 34.3426 28.9419
Au 43.1566 30.8407 23.0988
Au 43.3808 26.1243 23.2909
Pt 38.2044 30.1179 29.1975
Pt 38.4896 31.3811 26.7668
Au 39.025 29.0556 25.2383
Pt 40.6859 25.9214 30.465
Au 43.545 24.9886 28.6767
Pt 35.8108 25.7107 30.6748
Pt 11.7215 36.183 22.5317
Au 10.4893 38.2295 26.5508
Au 11.1791 34.0027 20.7872
Au 10.4771 31.8061 18.8919
Pt 9.62391 29.264 17.8624
Pt 9.19235 27.0734 16.4021
Au 13.8217 41.9222 27.1686
Pt 11.2547 35.9296 27.7813
Au 10.6412 33.8217 23.4584
Pt 10.1511 31.5224 21.7661
Au 9.49022 29.1967 20.5286
Pt 8.98899 26.8899 19.1144
Pt 14.7272 35.2546 28.9181
Au 10.1887 33.5637 26.222
Au 9.67156 31.3596 24.5664
Pt 9.21784 29.0465 23.3019
Pt 8.876 26.7183 21.8179