2057
Atoms. Timestep: 21133
Au 15.9374 33.286 28.7491
Au 15.85 12.1256 33.6374
Au 27.7156 30.4787 9.00261
Au 27.8443 14.5673 34.8022
Au 10.7337 26.8008 37.9259
Pt 27.8399 30.9289 30.9656
Au 13.1415 35.4039 16.8304
Au 32.3949 12.1356 35.2465
Au 9.10741 23.4417 13.1943
Au 28.1279 24.5967 40.7388
Au 41.5258 12.633 23.5371
Au 17.882 27.8417 37.4642
Au 35.8417 13.0849 16.6419
Au 9.22261 37.7529 26.5775
Au 24.111 34.528 12.0779
Au 28.7074 40.8286 31.4018
Pt 20.1471 11.6416 16.507
Au 23.6162 25.9752 41.2956
Au 11.8877 18.1263 13.2822
Pt 13.2493 17.2087 23.0274
Pt 38.2237 30.9969 26.9846
Au 9.31424 36.5003 29.0486
Au 12.5996 25.0153 20.9589
Au 13.6329 30.3039 35.7408
Au 36.2787 34.9881 25.9417
Au 23.4072 30.2541 10.6015
Au 14.5792 28.3166 8.24695
Au 19.5413 8.01041 24.9528
Au 21.8721 34.9866 10.4674
Au 6.74975 34.4541 22.9582
Pt 31.6711 33.9328 25.2122
Au 29.4581 33.3686 40.6824
Au 19.6392 23.7813 12.4176
Au 12.1 31.9651 14.0288
Au 8.93763 27.8001 21.8986
Au 33.3713 35.9342 34.6031
Au 16.241 29.7552 21.0933
Au 10.4001 33.2823 33.52
Au 10.2157 32.4675 20.2621
Au 14.183 20.5134 39.6083
Pt 19.8242 39.4528 31.3202
Au 16.7675 25.6721 16.1855
Au 13.2373 39.5028 28.0973
Pt 29.5216 30.9383 16.2064
Au 26.5405 40.8176 33.1389
Au 41.3836 11.0888 18.5648
Au 34.7872 39.7789 27.1714
Au 8.72325 20.4197 35.236
Pt 27.6799 34.9874 33.0566
Au 32.8776 7.17514 18.7645
Pt 33.007 38.1493 25.7551
Au 22.0115 37.0503 25.6193
Pt 24.6374 21.5679 12.5792
Pt 18.0422 22.8492 32.7769
Au 7.61395 34.0927 25.5349
Pt 28.7604 19.0623 22.1324
Au 32.7612 10.2581 14.1544
Au 35.6195 8.89156 29.7178
Au 37.3808 15.1275 30.8019
Pt 20.4272 14.2312 31.4074
Au 35.4118 13.175 32.1297
Au 12.6625 29.3126 9.9598
Au 44.3728 17.0418 23.1279
Au 16.1534 22.5516 11.0136
Pt 19.3281 15.3772 26.93
Pt 39.3368 23.7653 16.0866
Pt 24.5258 14.8624 17.1943
Au 34.3051 14.7649 30.0328
Au 20.2081 19.4583 14.2704
Au 13.1822 41.3283 21.3693
Au 21.1299 17.3823 6.46232
Au 42.5452 22.629 33.726
Au 11.3686 37.4435 18.0823
Au 21.0031 33.4404 28.0776
Au 12.3474 37.4669 15.4336
Au 32.993 7.40382 25.7118
Au 28.6887 37.9493 36.4019
Au 19.0196 34.2141 26.2918
Au 40.9868 31.1856 20.8361
Au 15.6567 11.3669 15.6778
Au 26.6368 43.9242 24.0732
Pt 19.4114 32.5934 32.726
Pt 20.9745 10.3421 25.771
Au 28.3601 7.86414 19.4958
Au 23.984 41.1542 32.1668
Au 33.7133 25.9666 10.1611
Au 14.9776 21.7418 18.5425
Au 31.5609 22.6258 11.3632
Au 22.7409 40.3496 15.1963
Au 31.0998 19.6438 40.0773
Pt 23.9994 28.3636 39.8483
Au 31.7397 31.5186 11.3521
Au 16.06 27.4722 19.525
Au 18.812 17.8724 40.6674
Au 38.3735 34.5045 30.2972
Pt 17.5112 12.2166 20.9962
Pt 26.9556 20.2222 29.7797
Au 23.0872 16.6633 8.16653
Au 19.0741 19.0739 5.73227
Au 8.11645 26.7394 19.2895
Au 19.6437 30.9321 14.2762
Au 27.3748 19.2375 6.67673
Au 17.6826 28.2846 15.7415
Pt 30.3174 23.8801 19.7333
Au 43.6318 24.4818 22.3138
Au 16.6616 33.351 41.1596
Pt 39.6114 29.7233 22.6104
Au 20.9057 36.2205 35.8364
Au 22.4493 30.8521 14.7257
Au 38.2671 17.6058 26.9773
Au 18.7608 39.0612 12.6564
Au 17.9788 34.2327 16.0909
Au 42.5432 32.5905 32.8303
Pt 39.7197 19.981 18.1913
Au 15.4865 30.869 41.1021
Au 36.6258 15.3382 28.1022
Pt 12.2379 38.4449 22.5991
Au 18.1247 11.1261 14.7466
Au 16.5665 19.0975 7.51843
Pt 34.3981 27.4321 26.2211
Au 13.6288 12.3966 17.1463
Au 13.349 12.6628 24.318
Au 16.667 38.6645 34.3704
Au 36.1224 35.9305 19.0017
Au 15.6196 43.0388 25.8364
Au 32.4332 11.5718 32.6469
Au 13.2073 32.5835 18.4923
Au 22.7737 27.7119 32.5227
Au 6.60843 21.9469 22.1598
Au 19.2817 33.4812 18.4859
Pt 20.1992 25.403 21.5116
Au 11.9869 36.9126 27.5175
Au 38.7201 15.9859 14.1822
Au 19.5633 28.144 13.6017
Pt 21.6121 27.6562 21.91
Pt 23.4565 16.5683 34.1767
Pt 18.5909 21.5575 29.1133
Pt 12.9153 17.531 25.9126
Au 23.7119 28.5967 6.39925
Au 40.9829 14.4778 15.1832
Au 15.6722 15.2181 11.4571
Au 28.0472 36.2367 38.5141
Au 23.2607 7.65697 20.2729
Au 11.1582 39.5239 26.0965
Au 17.7338 21.3766 6.3284
Au 31.4856 24.4591 9.17235
Au 8.00662 27.1487 24.3515
Pt 26.9806 25.1911 13.2058
Au 24.1233 38.1585 16.5255
Pt 14.6467 23.1288 20.9712
Pt 40.0481 25.9443 31.4601
Pt 27.7038 16.6861 23.8002
Au 40.9365 14.7065 18.874
Pt 20.658 22.9012 17.7116
Au 33.8622 12.1366 12.3514
Pt 10.4482 22.276 17.9876
Pt 38.3885 15.1653 25.8624
Au 40.7728 27.9201 16.2981
Au 39.1899 32.1713 35.8493
Pt 29.0655 21.1283 11.9174
Pt 8.37744 22.936 27.3151
Au 12.0846 34.818 14.174
Au 15.404 24.89 12.4485
Pt 32.1752 16.7294 22.3705
Pt 16.1649 36.452 32.8387
Pt 34.648 11.888 22.9823
Pt 26.9523 10.9977 25.2896
Au 9.21129 15.4995 24.3095
Au 26.7239 20.809 41.4188
Pt 17.6061 16.8587 20.9733
Au 32.0526 22.1349 39.7004
Au 28.5941 7.6295 28.4623
Au 31.5768 38.4413 34.3041
Pt 23.674 41.5907 27.5572
Au 39.2823 18.6741 15.1201
Au 18.0739 8.46188 27.3097
Au 14.8886 9.8745 17.7683
Pt 22.5917 19.6357 20.7221
Au 15.8109 12.1188 18.8901
Au 29.5376 43.3891 24.313
Au 27.0263 23.8466 5.75422
Au 19.5327 34.8724 11.8954
Au 26.8601 34.5021 40.3304
Au 27.437 41.8419 29.1795
Au 29.6002 33.7664 12.8969
Pt 19.6912 23.6278 30.582
Pt 29.2928 24.0919 11.9958
Pt 10.0846 27.069 17.4042
Pt 36.8804 26.4066 26.6408
Pt 13.3733 20.6238 21.2774
Au 13.4864 13.5596 19.7715
Au 12.3188 22.8504 38.7968
Pt 25.1624 13.6754 28.4452
Au 10.645 32.9877 12.0337
Pt 25.8156 29.1549 10.3528
Pt 12.0309 20.153 32.0902
Pt 25.8687 34.6001 37.6188
Au 7.26564 27.9946 34.6585
Pt 20.3895 35.2565 33.2187
Pt 28.9752 25.1822 17.3807
Pt 23.4835 13.998 24.0929
Pt 33.052 29.724 13.3009
Pt 18.6702 25.8977 26.2881
Pt 28.1147 22.8237 18.7431
Au 39.5482 26.2544 25.7611
Pt 15.9061 28.4792 29.7589
Pt 34.794 31.5682 17.0168
Pt 40.4212 28.561 33.3349
Pt 26.7426 31.5577 28.6145
Au 21.1825 28.6807 9.89598
Au 7.1056 31.8449 29.6167
Au 33.1509 31.183 38.8983
Au 6.33903 29.4587 28.4356
Au 43.2702 21.8013 20.9761
Au 21.5547 23.6467 5.45017
Au 29.0062 28.2599 8.07072
Au 30.9882 40.8314 19.6756
Au 27.977 35.9396 13.748
Pt 26.0138 32.2375 38.9826
Au 20.9831 18.2442 9.10873
Au 13.8291 30.6309 22.7622
Au 30.7595 17.6529 8.93041
Au 17.0018 34.5505 19.4934
Au 29.504 26.4747 42.0588
Au 18.9787 27.1411 8.97097
Pt 28.7919 13.8984 15.5047
Au 20.5792 36.3225 27.9045
Au 45.0676 16.9284 20.5474
Au 31.96 41.977 24.4768
Au 14.0352 35.2341 36.4923
Au 8.86849 23.2671 35.3617
Au 40.7542 28.824 38.5418
Pt 33.5354 18.9806 26.1158
Au 37.2284 32.2765 15.9626
Au 19.1009 15.6064 39.0075
Au 30.5808 35.6872 14.6321
Pt 17.5366 41.1335 30.901
Au 17.3768 42.7841 28.82
Au 28.1289 24.5958 8.08558
Pt 17.3551 17.5721 26.3639
Au 18.1015 36.6464 22.6121
Au 28.7598 35.4329 24.8256
Pt 24.0162 19.9939 16.735
Au 20.9621 40.574 20.1394
Au 16.782 15.7719 14.0067
Au 14.2876 37.4825 18.4945
Au 35.687 22.3773 12.5325
Au 16.5047 31.7482 23.0659
Au 13.1381 25.4802 14.1336
Au 25.6584 43.4035 27.6054
Au 30.5313 42.5843 26.7697
Au 35.7352 27.4828 10.9701
Au 38.0275 35.671 32.6894
Au 14.3365 39.033 32.6443
Au 16.4256 22.9312 16.5086
Pt 31.9041 13.8919 12.5362
Au 22.8227 27.0754 11.5387
Au 32.5905 38.732 18.8632
Pt 29.6854 21.1862 38.2347
Au 41.1826 29.5263 18.4767
Au 35.56 25.1836 12.4271
Au 43.5735 21.1051 29.3292
Pt 24.2082 12.0532 32.6466
Au 25.1267 15.9298 38.7875
Pt 18.0138 33.397 21.6464
Au 22.7052 43.7737 28.5043
Pt 10.6809 36.176 22.7117
Au 28.4609 8.71938 24.4832
Au 35.5171 15.2643 18.5064
Au 6.69051 24.6204 30.5215
Au 14.0302 17.6112 11.4904
Au 17.3778 39.5294 15.0386
Au 42.8615 14.9804 24.0068
Au 14.6617 33.4876 10.0463
Au 18.3045 8.02785 22.2601
Pt 28.035 23.2042 36.5882
Au 15.0276 32.4541 20.766
Au 6.42922 26.701 21.6721
Pt 21.9118 31.9052 23.7795
Pt 36.6156 22.5325 27.1733
Pt 27.9632 30.2767 38.1736
Au 30.1896 10.5828 33.7799
Pt 13.3807 15.477 30.0376
Au 12.6275 14.2034 36.5646
Au 40.5295 17.8733 33.2082
Pt 21.3234 25.8053 33.835
Au 14.7616 32.7006 37.0964
Pt 20.0011 24.0486 27.8481
Pt 33.6336 31.445 27.7695
Au 38.9263 35.014 23.0591
Au 21.0642 16.2787 10.9918
Pt 32.144 36.7484 20.7707
Pt 28.3334 34.3772 15.8227
Au 23.7854 17.1863 10.7851
Au 10.4268 20.6601 13.429
Au 16.0155 21.614 8.44381
Au 15.1171 24.2198 9.00294
Pt 23.0386 23.7009 34.2061
Pt 15.7693 15.9869 22.7692
Pt 10.9966 22.5139 27.0677
Pt 38.0566 27.7989 32.2151
Pt 24.96 35.7619 33.132
Pt 33.1665 31.3694 19.4532
Pt 36.5408 18.7757 21.7797
Pt 26.9706 15.3405 21.1237
Pt 26.038 34.2089 35.0164
Au 26.736 26.9376 9.05766
Pt 33.5479 27.0797 30.7913
Au 35.8106 30.6764 39.0299
Pt 25.1959 31.4669 30.9442
Pt 33.987 21.8547 36.9167
Au 5.13893 24.217 22.2856
Au 14.1419 24.8123 16.7446
Pt 15.4736 26.327 38.4617
Pt 36.0071 20.3025 25.8281
Pt 34.7429 36.8883 27.3375
Au 27.1475 12.381 33.133
Au 20.9309 36.9659 22.8261
Pt 15.3574 14.7167 18.0756
Pt 32.1874 32.1561 30.5701
Au 14.2923 34.851 19.4576
Au 8.80449 31.4447 16.1163
Au 18.1005 25.7379 13.6686
Pt 18.4383 21.8809 23.0298
Pt 26.5803 18.3574 25.7843
Au 38.1085 20.8911 13.6949
Au 17.1181 9.8852 29.4633
Pt 15.5257 14.7813 33.6459
Pt 9.777 23.4326 24.785
Pt 17.6749 15.6723 16.5901
Au 40.6951 26.9254 36.6395
Au 13.1085 27.1606 12.0353
Au 44.0789 14.6593 21.6437
Au 35.1816 9.00386 25.5722
Pt 17.6946 16.5056 28.8316
Au 28.0581 17.3495 8.71977
Pt 34.687 19.3446 23.6397
Au 13.0447 31.7033 11.3339
Au 16.529 19.4491 17.1133
Au 12.4587 30.834 20.434
Pt 21.8412 14.9729 35.528
Pt 9.29857 30.4049 30.3143
Au 39.9818 12.7691 25.8648
Pt 13.5833 27.1167 31.7331
Pt 28.1027 35.9544 28.7941
Pt 26.9159 31.8689 16.6132
Au 9.44343 22.2782 15.5633
Au 39.532 25.5487 38.6515
Au 43.8028 15.1125 18.9568
Au 10.7224 16.2709 29.5189
Pt 28.6661 39.2095 18.9368
Au 9.0374 33.6951 17.8292
Au 16.1722 34.7496 38.5035
Pt 20.0297 16.768 22.3651
Au 29.2309 9.82972 31.1379
Au 31.6062 27.4939 9.28238
Au 17.118 37.2373 20.1211
Au 21.6516 41.6437 22.5723
Au 20.4747 19.7191 36.5695
Pt 21.6408 21.9461 12.0492
Au 17.7811 36.8506 11.2961
Au 35.0285 33.387 14.4017
Au 10.7194 13.3269 23.534
Au 18.1376 25.5096 29.1302
Pt 12.5668 15.2514 27.497
Au 15.682 27.1949 13.9672
Pt 15.1213 25.6562 35.8291
Pt 22.4121 23.8548 8.21467
Au 14.9416 38.2328 15.7694
Pt 15.8986 25.9201 27.5438
Au 24.9001 16.1313 14.2635
Au 21.6523 9.81327 21.0051
Au 11.7837 37.8641 32.7392
Pt 29.0484 30.8291 27.421
Pt 17.1962 10.49 22.9526
Au 34.5507 25.6703 40.0978
Au 16.0577 41.6055 21.59
Au 15.1934 14.0358 15.4576
Pt 27.7439 34.8099 22.364
Pt 32.1315 28.827 19.3367
Au 11.0038 31.6196 22.8902
Au 32.9593 17.7984 39.1311
Au 22.8139 20.4476 14.2344
Au 16.7435 17.7882 12.1453
Au 15.1465 35.9123 11.5913
Pt 17.3658 16.6317 33.4763
Pt 15.2616 28.2856 36.6733
Au 24.7675 21.8325 42.9455
Pt 32.0648 21.5212 34.925
Au 38.0286 19.5366 33.8468
Au 6.67066 31.8777 26.8467
Pt 10.1723 25.1833 26.7139
Au 27.64 25.6498 38.238
Au 43.8728 22.1404 23.6451
Pt 39.236 22.4483 26.2535
Pt 20.3444 34.1561 30.6686
Au 16.2066 44.0359 23.1929
Au 43.5596 26.2082 27.7791
Pt 14.6666 15.1323 24.9135
Pt 21.2288 21.7202 29.412
Au 25.2312 30.6007 15.0031
Pt 10.6599 25.6178 35.4797
Pt 31.8613 23.4743 21.8288
Pt 29.3061 21.4936 29.8158
Au 8.3667 34.2615 30.5159
Au 22.9168 31.6081 19.2103
Au 27.7577 37.6834 26.7205
Au 35.5167 11.4474 14.3067
Pt 31.5646 22.9285 29.8714
Pt 28.2849 30.4473 18.5523
Pt 19.0242 30.5039 37.8544
Au 16.8885 28.9969 9.33071
Au 31.0216 36.3007 36.1308
Pt 18.5442 18.2092 35.1695
Au 22.0457 8.03434 30.1018
Pt 33.021 14.0435 25.7694
Au 14.8432 30.1801 18.7514
Pt 30.4556 38.0094 26.6962
Pt 30.5686 33.3923 36.2044
Pt 25.2253 40.6056 22.6103
Pt 14.3988 30.2861 38.487
Au 14.8578 11.2938 21.5073
Pt 18.8117 33.0347 37.4541
Pt 31.4302 19.1153 18.3552
Au 12.4337 26.9086 16.3703
Au 18.2493 43.6323 26.2546
Pt 14.6557 38.1145 30.0816
Au 41.0261 19.3235 20.6524
Au 25.3585 10.809 34.6967
Pt 31.9989 10.3509 30.3296
Au 13.2583 10.9447 26.6003
Pt 17.1718 33.997 33.2381
Pt 39.3689 28.9512 25.1817
Pt 20.4245 27.9978 26.126
Au 29.0194 37.4705 16.125
Pt 27.3827 12.0086 22.8049
Au 19.8118 42.2197 31.5465
Pt 30.9217 19.2685 26.2949
Au 36.4008 33.0822 28.0309
Pt 31.5291 32.3778 21.4246
Pt 24.9998 24.9016 29.7775
Au 16.4168 9.54085 20.0275
Pt 32.882 33.2788 17.418
Pt 31.9845 20.9588 28.0343
Pt 35.2763 20.8393 14.9245
Pt 26.702 25.9045 15.7762
Pt 16.2962 31.6209 32.2186
Pt 38.3797 21.654 31.7341
Pt 28.3819 20.1745 27.3587
Au 39.3458 12.3885 28.5434
Au 19.0831 20.5323 39.0721
Au 40.2489 30.6394 28.9581
Au 23.3663 32.7958 9.90241
Au 41.6508 22.6515 17.3445
Pt 35.1128 15.9819 32.3984
Pt 17.7567 33.391 30.7456
Au 38.3094 18.1502 12.6239
Pt 9.55152 19.9158 18.4981
Au 5.46511 20.0072 20.6867
Au 22.6497 25.9986 6.42851
Au 24.337 31.9193 12.7446
Pt 21.6963 10.7755 29.9008
Au 17.6153 18.295 14.9011
Pt 41.5961 22.4846 24.9989
Au 28.2559 40.1547 16.0353
Pt 32.3472 24.6199 38.9355
Pt 30.0465 26.8205 24.4115
Pt 34.1708 27.7139 20.8377
Au 22.1985 27.9809 14.7445
Au 40.3904 32.7831 31.1302
Au 30.8992 7.02978 20.5355
Au 22.8273 33.6268 14.7323
Pt 10.7303 26.3344 28.996
Au 34.0204 40.1989 24.4341
Pt 25.1894 22.0246 23.3938
Au 30.3956 29.8726 9.74896
Pt 36.9678 19.4619 30.7482
Au 17.8507 21.5926 18.415
Pt 13.7384 17.3488 18.17
Pt 29.6994 22.46 27.4466
Au 5.28309 23.8266 25.1391
Au 36.8483 25.3604 38.6595
Pt 18.3339 10.4617 25.4458
Pt 23.5626 30.2643 32.7101
Pt 13.2117 19.6822 23.9299
Pt 22.2624 24.3428 11.1278
Au 7.67994 33.8226 20.4642
Pt 37.3802 22.5142 34.1343
Pt 40.4143 23.4492 32.106
Au 8.49281 36.3091 24.2928
Pt 31.2048 16.7564 19.6776
Pt 20.3367 20.7242 27.1841
Pt 17.09 18.4391 31.4739
Au 40.1835 15.0155 23.7657
Au 38.6308 10.457 26.6566
Au 22.7627 12.3605 35.1173
Au 19.3626 8.96374 16.0274
Au 32.5382 12.8586 10.1218
Au 11.8478 15.7504 19.4725
Pt 26.0943 28.1489 20.175
Au 39.1704 18.9424 22.8555
Pt 39.153 24.9332 23.1122
Pt 27.5918 23.8607 33.738
Au 30.4775 31.9422 38.5355
Pt 9.86153 18.0291 20.2626
Au 35.056 22.9816 39.2492
Pt 27.3342 22.5749 13.2558
Au 14.6874 37.8258 21.4828
Pt 31.3048 36.4923 24.6191
Pt 38.1231 32.8118 32.7846
Au 39.3819 9.81258 17.016
Au 12.2586 28.8064 18.3386
Au 18.3923 31.5221 16.6652
Pt 33.7267 19.4114 35.2599
Pt 13.52 26.1567 29.1276
Au 14.8681 30.8587 9.26609
Pt 37.3903 20.0033 28.1556
Pt 9.99998 35.0162 20.6657
Au 30.3056 7.52631 26.0525
Au 19.497 25.7167 38.9016
Pt 31.1993 28.959 15.0702
Au 10.0711 15.9054 26.8179
Pt 38.7925 26.1986 16.9505
Au 6.85614 19.8343 18.4806
Au 12.6612 12.8874 29.0168
Au 40.7579 24.0143 29.4186
Au 17.1289 34.1658 10.6954
Pt 21.45 21.1953 40.4365
Pt 23.6459 29.4249 30.1107
Pt 34.0963 17.0592 15.2972
Au 25.2908 41.7865 25.305
Pt 12.6066 22.7471 19.4657
Au 20.67 35.2556 16.2062
Pt 23.2676 19.277 35.475
Au 23.215 14.8618 12.5604
Au 38.2775 25.0284 36.1903
Pt 22.4002 15.3977 15.3737
Au 28.6931 21.5631 5.27189
Pt 28.9613 29.0071 29.3199
Au 42.5987 20.4492 18.6481
Pt 30.6366 37.058 29.2211
Pt 25.6364 31.0129 34.6171
Au 21.3934 40.6651 33.3338
Au 16.6575 19.4407 40.079
Pt 33.0534 30.0465 21.8941
Au 11.431 28.9408 22.4765
Au 34.4272 15.9558 36.948
Au 22.7473 36.4895 20.4994
Pt 21.7569 13.8 26.3107
Au 18.8506 32.2639 11.9702
Pt 17.3972 26.8792 40.1575
Au 16.0674 41.0286 33.0396
Pt 40.6669 17.4621 18.7785
Au 40.2752 28.2985 30.3636
Pt 28.0016 33.5811 27.4765
Au 22.9993 21.3588 4.77543
Au 41.5647 20.5417 23.01
Au 20.0891 22.4503 7.42009
Au 25.4786 17.9054 8.44075
Pt 39.1348 30.3454 31.6265
Pt 25.6551 26.8123 11.5248
Au 20.0115 26.4522 11.396
Pt 24.892 11.7413 23.5641
Pt 33.6202 14.9314 16.6834
Au 18.8486 44.0355 23.52
Pt 30.9364 18.0925 32.2669
Pt 10.1934 23.9144 20.2742
Pt 30.352 22.4513 13.8841
Au 29.2413 41.871 17.9492
Pt 7.47978 22.1718 24.8558
Au 21.9714 41.5087 30.0679
Au 30.2002 17.2475 39.096
Au 5.4757 26.3169 24.1781
Pt 32.8357 27.1491 38.3317
Pt 18.1398 36.1215 34.525
Pt 10.6514 27.3077 24.6649
Pt 12.6233 31.5342 25.0665
Au 28.5234 43.7488 21.8659
Au 18.0827 40.0674 19.8279
Pt 16.8633 23.4607 30.474
Pt 29.4979 21.2687 35.5372
Au 28.9975 10.0989 26.8257
Pt 22.2983 30.9661 37.6621
Pt 13.5959 26.3829 18.9046
Pt 31.0141 12.281 19.3481
Pt 26.5326 23.1094 20.8325
Au 25.9759 31.9864 10.4985
Au 35.4582 36.0737 31.6726
Pt 35.8196 17.8651 19.3937
Au 36.0742 16.2986 12.9532
Pt 28.9264 28.647 22.7596
Pt 8.27892 19.9318 21.1578
Au 14.8879 28.1107 40.6822
Pt 8.72007 30.3559 27.6361
Pt 24.6357 30.1938 27.5262
Pt 27.6405 21.4949 32.2706
Au 20.0923 31.3893 30.4374
Pt 28.9049 23.454 21.9534
Au 11.1131 22.5568 11.447
Au 6.79561 29.6346 31.2775
Pt 30.0409 22.8751 16.5719
Pt 21.7797 26.2143 9.07753
Au 11.4423 29.4406 37.436
Pt 32.9272 20.0217 32.8594
Au 30.8114 34.7439 33.8157
Pt 26.9323 34.4443 19.9856
Au 25.1829 37.9724 21.3592
Au 22.0442 20.8595 43.0332
Pt 17.8023 20.5101 36.3524
Pt 32.8877 31.9211 23.9415
Pt 37.6802 31.6433 21.3424
Au 28.8855 40.2372 27.4393
Au 26.845 33.8633 12.2607
Au 32.835 34.1025 37.3496
Pt 31.3386 20.0601 12.8468
Au 20.1349 22.7324 42.6759
Au 5.00539 21.3392 24.1907
Au 36.5167 13.0458 19.6445
Pt 14.2253 23.2236 35.213
Pt 34.6019 31.8264 36.7212
Au 24.6902 18.6262 13.2847
Au 22.6487 39.0791 21.985
Pt 13.0312 15.6141 32.7243
Au 32.0443 19.2837 23.7094
Au 23.8965 41.0087 17.672
Au 23.6795 35.0198 26.7838
Pt 23.3653 33.3989 38.7583
Au 39.1188 12.5043 18.7261
Au 34.501 14.3375 14.0169
Au 36.1242 27.0412 36.4583
Pt 23.3565 21.7051 7.35521
Au 8.55796 20.656 31.6249
Pt 26.2431 9.47273 23.1459
Pt 12.1345 27.3155 26.9304
Au 17.8776 15.0712 9.18764
Au 15.1798 41.5108 27.9923
Pt 17.6456 37.6276 27.1317
Pt 17.4478 23.4558 27.3744
Pt 40.7249 21.9881 19.8352
Pt 28.2148 28.2383 31.7198
Pt 11.0751 28.1716 31.0293
Au 8.26382 31.1764 21.7308
Pt 26.9238 17.5301 18.0812
Pt 19.8932 16.4105 36.5617
Pt 37.6774 17.341 32.3805
Pt 16.6987 27.848 32.301
Au 13.5292 22.014 9.65031
Pt 27.2836 27.4701 24.8253
Au 25.2328 36.5562 18.9123
Pt 23.3066 11.6987 25.6637
Pt 7.63649 24.9668 25.8663
Pt 34.7313 20.3997 28.2298
Pt 29.3596 15.0307 27.2166
Au 21.5964 39.0786 12.8647
Pt 16.4846 12.3379 25.4558
Pt 19.8604 17.3591 24.9875
Pt 14.0954 24.4105 31.4744
Au 36.7592 9.14698 15.9318
Pt 8.5675 19.9333 23.8181
Pt 26.6157 22.0802 10.6319
Pt 25.6268 34.9186 28.668
Au 42.7308 24.1116 19.5686
Pt 33.8164 33.7777 29.2039
Pt 14.9446 23.5294 26.3082
Au 19.8569 26.5267 15.8884
Pt 24.7351 11.6181 30.0054
Au 18.8473 41.6944 21.9997
Pt 35.9656 35.4913 29.0599
Pt 14.8915 21.6409 23.197
Pt 8.10717 25.7277 28.4093
Pt 22.9318 23.5704 13.7355
Pt 27.5082 27.4232 17.9398
Pt 12.6225 27.5404 35.7971
Au 35.761 29.8418 11.9886
Au 20.7699 9.29837 32.3648
Au 34.9697 6.81568 20.6181
Pt 23.8528 39.5235 24.4584
Au 16.9402 34.4818 24.2111
Pt 20.6252 25.3398 18.7523
Pt 31.2579 21.6945 25.3128
Pt 29.8426 34.8116 20.1062
Au 33.5631 9.31627 27.8355
Au 16.2336 36.8153 36.3631
Au 33.1251 19.2833 8.83571
Au 15.7447 18.314 34.7278
Au 10.5578 21.2968 36.9961
Pt 30.4481 12.6529 26.4496
Pt 36.3447 26.074 21.7866
Pt 23.7427 18.6888 32.742
Pt 32.1141 18.097 11.2199
Pt 15.922 14.3205 20.7387
Au 32.2656 26.5274 41.1597
Pt 30.1781 38.6961 31.8101
Au 24.7758 12.5353 12.2027
Au 17.6312 10.3802 17.5503
Au 37.7502 26.7747 12.6643
Au 25.4352 23.8044 40.7012
Pt 9.22191 22.3118 22.4079
Au 32.0381 20.0295 37.4556
Pt 22.7424 25.9683 20.1746
Pt 23.9449 36.9165 30.8356
Au 23.7269 36.8697 23.5047
Au 37.7688 37.1562 30.1149
Au 9.70904 32.2374 25.549
Au 26.1603 29.3198 23.1508
Au 37.7997 34.3992 35.1074
Au 33.4985 36.0631 18.2802
Pt 34.6341 33.7836 23.8666
Pt 16.7241 27.6653 25.3856
Au 40.6489 16.624 30.5807
Au 14.4699 19.4583 9.45666
Au 22.7897 23.1807 41.7976
Pt 35.1584 33.2063 19.2354
Pt 19.7366 39.2036 22.1599
Au 38.7166 13.941 21.2659
Pt 26.0107 11.4311 14.4811
Au 20.1365 30.8659 18.8719
Pt 30.5823 9.68646 20.2691
Au 10.149 24.1051 37.6851
Au 29.3917 21.8626 40.9766
Au 34.275 14.764 11.1053
Au 10.5502 40.2924 21.4547
Au 23.8725 20.0566 41.0978
Pt 22.234 16.751 20.6645
Au 43.4447 23.6399 28.3198
Au 15.157 26.6395 10.2921
Au 35.3071 34.5318 36.2618
Au 27.643 9.65579 33.7963
Au 26.1423 12.7684 36.3941
Au 37.4794 11.4029 21.7529
Au 6.59673 27.0159 32.1371
Au 17.7989 29.2471 23.4017
Au 42.4088 29.4266 36.4261
Pt 28.2964 28.5976 11.0353
Pt 24.2524 26.1387 13.7082
Pt 24.9441 18.5197 37.4978
Au 14.5921 23.1672 14.6028
Pt 23.2665 23.7946 37.0043
Au 22.1008 16.0683 17.9473
Pt 25.5815 20.5279 39.0031
Pt 36.7832 25.5713 15.0164
Au 23.0961 44.0185 21.0035
Pt 22.4257 28.4774 27.8121
Au 37.9584 10.2287 29.3707
Pt 31.4343 26.6477 16.4878
Pt 37.3546 12.9447 26.7574
Au 12.2931 11.8362 21.8794
Au 28.4987 11.7896 35.5027
Pt 36.4854 30.8854 32.1956
Pt 22.4069 13.3218 17.2832
Pt 19.5518 21.7749 34.8162
Pt 18.4195 35.1141 28.8549
Pt 22.8836 21.5876 22.4852
Pt 23.3718 23.7007 24.6547
Pt 19.7717 29.6315 28.3175
Au 10.712 31.0965 17.9872
Pt 18.9731 10.0256 20.5602
Pt 9.65234 21.1387 28.9738
Au 10.5812 38.8924 28.7718
Pt 34.1537 29.169 36.9432
Au 43.6693 19.1071 21.4211
Pt 21.592 18.9199 23.1379
Au 27.8312 37.0223 20.5966
Pt 29.2223 20.6444 17.8566
Au 19.6737 23.2104 40.1092
Au 17.6454 29.4891 18.3924
Au 18.7855 22.9458 20.5841
Pt 22.4483 16.5769 23.9768
Pt 21.8481 21.2952 24.8427
Pt 12.1225 19.9596 26.508
Au 30.1954 23.1417 6.97164
Pt 17.4907 20.2838 33.5928
Pt 25.4226 24.6701 22.8745
Pt 28.7274 32.5433 20.8367
Pt 16.7386 34.1158 35.8753
Au 37.0875 32.7113 37.451
Pt 18.8808 29.2328 35.2262
Pt 25.0581 30.3293 37.3137
Pt 26.0478 34.2018 17.5048
Au 16.8886 23.0455 35.3997
Pt 26.0887 29.4358 32.6049
Au 30.4127 7.3082 30.4666
Pt 29.2952 28.0849 34.4989
Pt 20.4855 13.2736 28.6965
Au 21.6459 19.0915 4.52483
Pt 35.4981 17.2587 29.9683
Pt 29.5448 40.6657 24.9232
Pt 37.0649 23.3775 22.4782
Pt 28.6864 22.4955 24.8904
Pt 30.2206 18.6869 28.7806
Au 12.4437 33.7641 21.4788
Pt 36.0449 20.5007 35.4087
Pt 27.9786 25.0029 23.9508
Pt 35.5754 13.6573 24.9366
Au 24.1138 32.3316 16.9145
Au 15.821 39.6519 26.0071
Pt 19.5298 22.6405 25.5708
Pt 39.7027 16.5143 21.3425
Au 30.1554 42.1218 29.3426
Au 24.7772 24.5174 43.2663
Au 21.5723 34.2991 25.2162
Au 42.1089 24.63 35.5972
Pt 9.2496 20.5176 26.3128
Pt 28.8742 14.235 22.6551
Au 13.6055 28.3007 20.794
Pt 38.1343 24.051 30.5698
Pt 23.874 39.606 29.3779
Pt 25.7687 37.6635 28.7818
Au 18.7507 22.897 37.4397
Pt 31.5377 30.9512 25.9981
Au 38.6373 30.5996 38.5046
Pt 21.6276 33.4828 36.6671
Au 7.04568 29.4441 25.668
Pt 16.2563 29.6581 34.2602
Pt 23.3363 29.5493 23.1104
Pt 10.8198 22.2672 31.144
Au 20.6964 22.2924 14.5709
Au 8.4572 17.4773 22.6523
Pt 24.0662 15.2696 26.332
Au 14.3182 33.2381 15.5205
Pt 29.9414 33.5014 23.1118
Pt 35.7083 24.6101 34.8252
Au 31.6613 8.72217 32.4463
Pt 24.9976 34.108 31.0787
Pt 26.7721 32.5675 32.7483
Pt 37.9011 17.9672 17.4801
Au 24.9611 6.76205 25.8153
Au 14.6164 15.3345 38.0114
Pt 23.0645 24.9876 31.7903
Pt 31.9654 24.416 17.8598
Au 13.2694 30.7377 16.4322
Pt 34.6181 29.2645 18.368
Pt 22.8865 20.1697 28.0666
Au 17.2471 14.1729 37.7525
Pt 11.288 36.9871 24.9583
Au 31.9629 6.56839 28.0884
Pt 27.3542 17.6899 37.7896
Au 34.67 37.9047 20.3235
Au 31.7849 15.7441 7.27351
Pt 40.0327 27.2108 19.2047
Au 31.4287 7.19503 23.3611
Au 40.3099 33.9074 33.8333
Au 17.2218 23.0237 13.6578
Au 36.1709 19.7579 12.177
Au 27.5627 39.2694 22.0839
Pt 23.8727 11.4012 16.3531
Au 9.68819 38.6977 23.5219
Au 15.6068 40.6821 16.9554
Pt 19.3098 11.7479 30.6386
Pt 35.1176 16.7431 23.0015
Pt 35.9044 33.4112 30.9783
Pt 35.8833 20.9665 32.5693
Au 22.0066 42.7063 18.8509
Au 23.2432 37.1792 11.6258
Pt 28.5354 33.237 18.1598
Pt 41.3957 14.4098 21.5315
Pt 30.9438 20.4652 15.649
Pt 38.5493 28.3896 27.6384
Au 43.0549 19.2304 27.4468
Au 24.4307 35.6057 39.8189
Pt 20.4281 31.2539 35.7148
Pt 19.9889 15.8682 33.6713
Au 24.2586 38.729 13.6257
Pt 40.2502 24.5876 18.6303
Au 19.4182 36.8523 13.9341
Pt 25.3957 12.969 21.1659
Au 24.6705 30.5676 42.3261
Pt 38.8308 22.0451 28.9154
Au 36.5157 15.9336 15.9741
Au 12.4362 20.0883 11.4161
Au 18.0073 13.7591 32.7007
Au 19.9899 19.5939 11.373
Au 35.7456 9.34295 22.7467
Pt 19.7939 18.8331 30.0535
Pt 21.3947 21.3814 9.47745
Pt 24.2823 10.0529 21.4291
Au 17.0059 41.5776 24.1584
Pt 35.199 25.491 19.4818
Au 37.0904 8.26379 27.4296
Pt 27.0698 29.0825 35.7141
Au 10.5917 18.0378 24.7443
Pt 13.4666 21.7317 27.8504
Pt 27.4015 10.1474 29.0702
Au 33.0679 8.56563 21.2305
Au 28.9339 30.6546 40.6447
Pt 25.6104 13.217 25.8159
Au 14.5698 30.9031 13.6906
Au 41.6633 28.4733 21.1006
Au 18.759 27.993 20.9886
Pt 41.1307 25.6684 21.2254
Au 22.1874 31.7146 41.8843
Au 5.81267 24.4477 27.8873
Au 14.0412 42.6288 23.5545
Au 27.7623 16.3137 39.9987
Au 15.947 30.37 16.0586
Au 30.1893 9.44153 14.8897
Au 27.7652 21.9043 7.68983
Pt 18.6582 36.0956 18.0114
Pt 23.1581 34.8528 34.8997
Pt 16.5857 30.5786 36.7006
Au 35.468 34.4102 16.8363
Pt 26.915 15.7663 16.0538
Pt 34.3429 19.6122 30.6173
Pt 38.016 30.9953 24.2214
Pt 21.3813 25.6807 13.564
Pt 21.3764 20.0621 6.97816
Pt 41.5773 24.9688 24.0972
Pt 22.2902 17.7371 28.9866
Au 38.1151 22.9801 38.6088
Au 10.3092 25.0418 15.5129
Au 33.0964 35.0662 15.4984
Au 19.3555 29.8788 8.23386
Au 33.6373 20.646 11.1694
Pt 18.5189 32.2423 28.3058
Pt 20.9267 23.2317 23.1164
Pt 26.3912 13.1177 16.4759
Pt 37.6112 26.9805 23.9754
Au 24.8984 30.7465 8.28094
Au 36.0119 17.1961 35.0744
Pt 20.7853 24.0902 35.9441
Au 42.4789 16.13 16.8014
Pt 26.784 18.3648 15.1608
Au 10.3614 30.5186 10.8776
Pt 13.5963 21.3497 37.123
Pt 34.4397 24.5851 17.0805
Pt 30.6428 15.3397 31.9143
Pt 17.5469 25.2382 36.8743
Pt 21.7522 26.1117 37.4844
Pt 32.7935 38.4391 28.3631
Pt 16.3535 21.6607 38.2832
Au 13.497 41.1763 25.8342
Au 25.4346 16.2298 36.0566
Au 43.4635 17.9381 18.6161
Pt 13.1004 32.8535 29.5554
Pt 29.9246 25.8591 21.8295
Au 14.8036 10.3832 24.2833
Pt 26.6742 13.9686 13.8025
Au 10.6862 13.6905 20.8509
Au 27.9083 32.065 14.1554
Pt 39.8466 29.5367 36.0138
Au 23.3946 7.45254 17.4796
Pt 23.9655 23.343 20.8674
Au 31.5124 15.3729 10.2914
Au 40.1254 21.224 15.6615
Pt 38.7957 27.1683 21.4912
Au 9.63072 33.5396 14.5202
Au 19.9534 13.5751 36.9606
Au 5.93004 27.0333 29.5259
Pt 8.32229 22.0484 19.6508
Au 37.8113 8.54491 24.7531
Pt 29.2162 24.7134 14.6981
Au 34.0553 20.3548 39.3352
Pt 34.7565 23.6538 14.6992
Pt 26.6971 22.8578 30.2515
Au 33.1904 16.9671 34.1107
Au 14.9317 29.1353 11.5535
Pt 25.3489 23.6324 14.638
Au 28.8337 31.4092 11.476
Pt 37.8462 25.6913 19.4923
Pt 29.0258 27.2651 15.4682
Au 42.808 17.2327 25.6032
Au 41.0573 17.28 27.8621
Pt 31.7427 28.3927 26.8196
Pt 28.4377 11.2219 15.8606
Pt 26.1898 23.6053 25.2533
Pt 19.7326 26.68 35.8847
Au 19.7336 32.9642 41.9234
Pt 15.2253 17.9277 24.834
Pt 22.5924 10.0498 23.592
Pt 26.2318 29.7298 40.2284
Pt 30.4465 21.342 22.9003
Au 15.3036 39.7919 19.6358
Pt 26.1686 32.543 22.0333
Au 13.1486 31.926 32.8103
Pt 11.9606 36.9518 30.1787
Au 18.7701 21.9772 10.3947
Pt 35.917 31.967 25.6925
Au 33.1132 7.80013 30.1591
Au 39.7172 25.7894 14.3432
Pt 25.5575 20.6629 8.32921
Pt 20.1817 13.2974 34.1888
Pt 31.3458 27.9919 21.6833
Au 39.3799 15.0551 28.5054
Pt 23.8343 22.2079 10.0847
Pt 38.267 27.6283 34.9809
Au 19.7772 41.8038 24.7732
Pt 12.5077 18.2194 20.5213
Au 13.2707 14.5347 22.2785
Pt 32.1077 23.6345 26.9508
Pt 31.0518 13.8563 17.017
Au 22.9239 9.80397 34.0105
Au 42.6639 27.8236 31.9575
Pt 25.2164 27.2575 31.2807
Pt 19.7157 27.0158 23.7754
Au 25.8686 18.203 40.319
Pt 35.5981 22.0186 17.4777
Pt 27.0562 32.0539 36.4455
Au 24.7671 43.2159 18.9747
Pt 19.9414 16.5566 15.5505
Au 26.4518 39.3807 35.399
Pt 34.0211 20.2227 18.8289
Pt 32.1576 25.9906 25.7786
Au 40.3966 23.4246 37.3447
Pt 29.0631 27.8391 37.1884
Au 38.3538 35.5259 27.7203
Au 23.6102 35.2523 16.8963
Pt 23.4161 28.3047 37.2253
Pt 26.364 35.3848 26.1215
Pt 25.3388 25.5651 20.3504
Au 28.2457 38.5564 29.6576
Pt 18.771 37.7755 29.492
Au 25.9973 40.1255 27.5573
Au 36.5595 20.767 38.1935
Au 22.238 24.2575 29.3696
Au 39.6024 33.1216 28.0934
Au 36.9054 29.9073 36.6214
Au 43.7591 24.3454 25.5185
Pt 33.9527 26.2413 15.03
Pt 31.4028 32.9998 27.7231
Pt 22.7119 14.996 28.736
Au 34.8815 33.3308 38.9643
Pt 14.8748 17.3572 32.3468
Au 13.5125 28.6039 14.5936
Au 22.277 34.6236 22.4127
Pt 32.4832 11.2551 21.4285
Au 26.9173 32.0549 41.6073
Au 10.8676 29.7791 25.9945
Au 19.2617 12.3656 12.5881
Au 42.1209 18.8304 29.9776
Au 29.0528 38.1143 24.1188
Pt 28.873 29.373 13.7176
Pt 33.8529 19.0464 13.4445
Au 17.5972 43.8786 20.9076
Pt 25.5639 32.8329 26.6206
Au 25.8087 36.6489 12.4139
Au 20.4749 10.7714 34.88
Pt 15.906 26.0232 30.5045
Pt 21.7288 16.4123 26.6506
Pt 11.1356 17.8798 17.9087
Au 26.0432 7.75806 21.0539
Pt 36.2526 21.9957 29.9262
Pt 24.2041 13.4573 14.7811
Pt 10.1755 37.8086 20.6776
Au 13.882 15.828 13.7507
Pt 16.6004 16.5849 36.5607
Au 34.2187 9.52935 31.988
Au 21.1278 39.3932 24.4386
Au 34.2443 7.01241 23.285
Au 20.0563 40.1156 14.8521
Pt 24.2839 32.7873 36.3841
Au 16.0797 17.1582 9.47036
Pt 24.13 32.6338 28.8407
Au 38.7839 16.7401 34.9898
Pt 22.1517 24.4589 39.4492
Au 23.673 44.0559 25.8743
Au 8.02748 36.491 21.601
Pt 27.0624 24.6209 10.5308
Pt 29.4026 16.3632 15.0801
Pt 30.828 20.2065 10.1622
Au 19.5763 33.7795 9.48254
Pt 29.0765 15.9007 17.7903
Au 30.8757 24.1837 41.2281
Au 20.0163 24.2271 9.58533
Au 22.3588 7.83267 25.4088
Au 11.7978 40.7837 23.7704
Au 7.1554 22.0915 29.6093
Pt 23.3128 14.2407 19.8108
Pt 36.8948 16.1218 20.9568
Pt 35.2449 18.5541 32.9575
Au 27.707 28.6693 42.2939
Au 36.971 10.6891 18.1811
Au 15.823 35.5788 17.1756
Pt 33.9664 33.6607 26.5246
Au 14.2816 33.3619 23.6032
Au 14.1064 13.2113 31.532
Pt 19.666 21.0662 31.6314
Au 32.2809 33.6746 13.267
Au 39.2065 9.82796 19.7072
Pt 35.7559 27.4357 28.8203
Au 21.6343 38.7989 35.3889
Au 35.3052 38.4237 29.7723
Pt 29.0154 18.3111 19.4393
Au 36.3065 36.0478 23.2495
Pt 21.2392 22.2659 38.0405
Pt 29.1931 18.4324 16.6045
Au 16.6021 26.3523 8.05441
Au 11.2699 13.2435 18.2506
Pt 14.5421 19.5031 30.1181
Au 19.7228 35.4552 20.5894
Pt 24.1609 17.9193 26.7653
Pt 16.6944 23.7781 22.3811
Pt 14.2722 24.2776 23.5197
Pt 23.5605 32.4365 21.8387
Pt 31.9692 12.2655 23.8937
Pt 24.0175 19.5424 24.4238
Au 25.708 21.3462 5.69943
Au 31.5175 39.2359 23.7541
Au 12.2248 33.5548 26.9911
Au 19.6487 10.6834 28.049
Au 10.185 35.7247 31.8343
Pt 20.174 14.8102 24.3678
Pt 32.6849 26.0958 23.0326
Au 17.3501 27.4972 11.6782
Pt 24.8146 27.2316 27.7895
Au 7.5895 24.5145 23.273
Pt 33.401 21.6199 23.2542
Pt 36.1692 26.0531 31.1268
Au 22.0893 9.43319 16.1011
Au 22.1131 17.489 13.2555
Au 14.6497 35.8851 14.4079
Pt 32.8925 31.7596 15.0674
Pt 41.2607 19.9164 25.6764
Au 38.3077 27.8571 37.9433
Pt 21.2381 17.9116 34.6122
Au 10.8989 27.4139 14.0007
Pt 29.7152 12.4302 31.7308
Au 32.8241 39.7355 21.4438
Pt 28.6663 32.9066 34.5648
Pt 19.2746 28.5922 39.7738
Au 13.1892 13.3869 34.1217
Au 40.2654 25.9789 34.1257
Pt 33.8167 18.6375 21.0929
Pt 29.3642 36.9844 33.9577