2057
Atoms. Timestep: 20574
Au 28.1966 18.906 24.7336
Au 21.0291 20.1564 24.5952
Au 18.4543 19.0216 27.6111
Au 24.389 25.9201 26.118
Au 22.9675 22.1787 28.1499
Pt 26.4498 32.5886 25.8126
Au 22.5482 27.1296 14.5065
Au 22.2438 21.8672 20.0381
Au 24.5143 18.1505 28.5644
Au 15.15 19.2919 22.59
Au 20.1982 26.0463 35.7885
Au 22.4157 30.3941 14.5908
Au 17.6832 29.6411 25.5267
Au 19.8998 25.6378 26.5282
Au 26.4373 22.2131 23.9782
Au 26.2771 24.9623 23.9983
Pt 13.0079 26.2176 16.0636
Au 20.1898 28.5102 26.3305
Au 18.503 20.8087 25.3154
Pt 14.169 32.5658 28.9303
Pt 17.1203 33.5863 29.9727
Au 21.5501 22.6598 22.7769
Au 22.3143 24.2938 26.5294
Au 21.9733 21.9813 15.6439
Au 21.2722 19.0709 28.9581
Au 16.3163 19.8282 29.6772
Au 19.0195 24.8538 33.5687
Au 21.7713 28.1274 30.9404
Au 21.7249 24.0618 18.3646
Au 18.0094 25.1042 28.9045
Pt 24.6238 29.9285 22.0655
Au 29.2266 24.1653 35.2739
Au 22.4563 24.9299 36.6353
Au 20.3388 28.9913 15.7636
Au 23.7783 28.6055 26.4632
Au 16.7167 17.2546 23.5418
Au 16.3233 26.7544 23.3572
Au 18.8322 31.7283 8.64592
Au 24.1028 29.0442 19.4019
Au 24.4657 24.5632 28.5452
Pt 35.1264 27.5603 28.74
Au 15.0958 25.9985 20.927
Au 20.8955 17.8364 26.598
Pt 31.5676 24.2534 18.1314
Au 18.956 18.8901 30.435
Au 19.9605 23.4538 20.5725
Au 15.6239 31.724 22.6601
Au 19.8957 31.7163 32.5119
Pt 25.3659 30.2267 24.6812
Au 18.1312 15.004 24.3992
Pt 20.3843 12.0987 27.8351
Au 22.5299 31.1417 18.0912
Pt 25.3171 32.2823 23.0826
Pt 12.783 23.4856 12.5783
Au 26.8122 23.0857 21.1932
Pt 35.3729 23.9012 10.406
Au 26.8414 25.5323 14.134
Au 26.9383 23.1255 28.4519
Au 35.3709 24.6088 28.3005
Pt 9.37871 22.0209 19.6432
Au 19.7377 30.6558 18.0121
Au 16.7099 31.7802 27.8583
Au 13.6118 24.542 24.3052
Au 18.1095 31.6663 21.2914
Pt 12.851 28.5198 25.8651
Pt 26.782 32.8972 20.9848
Pt 27.9654 32.7838 23.5888
Au 23.5394 16.5991 19.7462
Au 20.8289 16.9798 19.8517
Au 28.0546 13.2372 23.146
Au 24.3056 22.7743 22.2021
Au 17.7667 16.5958 29.6528
Au 21.043 15.9359 24.5293
Au 16.4297 23.8569 32.9327
Au 25.7798 28.0887 31.0179
Au 23.4572 19.6638 17.9694
Au 21.2269 34.8015 11.1892
Au 25.6028 31.8589 10.5468
Au 20.3178 30.1914 10.5101
Au 23.4974 20.0892 30.1257
Au 30.9529 19.7506 29.7305
Pt 31.6731 23.9751 36.6243
Pt 31.4445 20.2907 32.5875
Au 23.0844 21.5573 32.3757
Au 23.0558 24.7663 16.008
Au 24.8656 21.2118 19.9181
Au 25.6558 26.7113 18.8954
Au 24.9671 26.9274 15.8076
Au 23.2065 28.7541 16.7395
Au 18.2849 23.2216 26.95
Pt 15.6228 15.7865 25.5656
Au 20.9229 23.1777 32.6658
Au 18.8856 24.4522 37.7324
Au 22.6057 23.7245 30.4881
Au 16.3798 26.0393 18.2928
Pt 17.6033 30.4118 10.7557
Pt 12.371 23.7486 17.3117
Au 20.2091 24.1114 15.824
Au 17.5082 27.0879 26.795
Au 26.3762 25.1906 30.6849
Au 28.951 30.3946 20.0974
Au 25.4625 21.5374 35.7398
Au 27.4513 28.3144 24.0554
Pt 32.4924 17.6987 17.0511
Au 18.8258 27.2264 24.345
Au 14.7385 28.1725 18.8884
Pt 18.9213 33.5263 34.2434
Au 15.1384 29.2639 24.3235
Au 19.3636 31.9238 29.7406
Au 28.3552 12.258 27.0509
Au 25.1825 25.5245 21.6006
Au 27.4944 22.6952 31.3937
Au 20.5195 21.1686 27.2457
Pt 34.0747 15.2511 31.2823
Au 16.1122 21.5833 24.282
Au 11.2575 21.2141 24.5389
Pt 13.5591 17.1377 23.5874
Au 19.0997 18.0699 24.6031
Au 23.1585 27.3979 21.5551
Pt 13.3402 30.2923 22.4933
Au 21.9508 30.6863 26.2106
Au 26.4871 26.3572 33.2148
Au 24.5063 30.4526 31.8058
Au 26.1466 30.4966 29.4961
Au 26.1413 13.2679 28.4933
Au 23.3843 16.6492 26.625
Au 25.7806 16.6412 30.4541
Au 22.7468 17.1844 30.602
Au 25.2987 19.9624 25.1854
Au 27.0441 28.5956 14.8002
Pt 22.1572 29.8854 21.1259
Au 24.951 38.3338 13.1387
Au 17.8178 29.3589 22.8198
Au 27.9329 32.6769 18.4825
Pt 22.8343 19.0831 20.4822
Pt 25.5161 18.651 19.8006
Pt 31.9782 19.8163 18.445
Pt 21.8666 9.31408 24.5383
Au 24.7008 24.0341 19.4292
Au 32.1552 20.5249 26.831
Au 30.2714 22.6095 32.0302
Au 20.7012 28.0592 22.6759
Au 26.3341 28.0182 21.3404
Au 13.7859 19.8136 24.8972
Au 18.1569 33.9206 26.8167
Au 18.0246 19.8048 17.6875
Au 23.6619 30.5435 8.59247
Pt 34.9723 25.6773 16.6616
Au 29.4419 22.9696 20.2273
Pt 31.1721 17.5714 19.6738
Pt 35.8717 21.5356 31.6689
Pt 29.9422 22.1829 37.4024
Au 14.0832 23.2113 20.1021
Pt 11.1699 30.96 15.459
Au 21.0208 26.5574 16.8932
Pt 15.1681 22.1552 35.1065
Pt 14.9644 23.9927 37.3512
Au 17.0444 34.1795 22.125
Au 20.1271 30.5268 23.9737
Pt 28.1627 34.8675 25.3353
Pt 24.7102 36.6955 35.4409
Au 23.141 21.9887 25.0596
Au 20.4668 26.5069 20.409
Pt 25.4786 15.3258 15.4649
Pt 20.836 11.0336 22.7485
Pt 29.8082 11.2161 23.8488
Pt 33.6156 11.0927 25.5142
Au 22.0876 25.4931 33.5318
Au 20.1023 27.3874 33.0823
Pt 24.0541 29.5201 37.2758
Au 20.3355 23.0271 25.1438
Au 24.4588 25.5347 34.8864
Au 27.0951 20.6456 13.6447
Pt 22.6934 24.5416 10.8741
Au 26.9935 30.6155 12.8819
Au 18.4815 35.2382 11.6653
Au 24.4888 31.8896 13.2427
Pt 35.9166 14.3439 33.2605
Au 28.9055 24.9631 32.3202
Au 20.5277 18.1871 34.6987
Au 22.3022 26.7418 28.1244
Au 21.0189 21.5023 30.2349
Au 21.5263 29.6344 33.4482
Au 23.3727 24.7432 23.8386
Au 29.4181 23.7726 29.712
Pt 28.9229 27.2931 38.5326
Pt 30.8192 23.4221 14.906
Pt 31.8671 13.4986 15.4433
Pt 29.5612 15.7392 18.6735
Pt 36.0369 24.3275 14.6371
Au 24.5187 28.9038 13.3241
Au 24.2488 25.1409 13.392
Pt 32.4617 17.8372 14.2568
Au 27.1737 19.2192 17.6831
Pt 30.1731 26.4094 17.5973
Pt 21.4829 23.2398 38.5176
Pt 13.604 17.4851 26.1873
Au 16.4007 21.2188 27.1015
Pt 16.9437 31.7314 35.2411
Pt 18.4997 33.6195 36.961
Pt 16.464 25.7492 38.4435
Pt 14.0114 27.8284 31.3325
Pt 15.1546 30.6971 37.064
Pt 15.4474 34.2074 27.4027
Au 20.4657 32.1721 15.6591
Pt 17.2062 26.2404 12.8607
Pt 17.9489 24.2286 14.3826
Pt 10.2296 26.6405 14.7213
Pt 18.9271 28.229 11.8506
Au 19.8625 26.6359 13.9532
Au 17.0592 33.7961 9.32197
Au 15.2977 28.6445 9.52075
Au 22.11 39.1286 13.4156
Au 29.1462 23.547 17.292
Au 27.5466 26.5515 16.7815
Au 33.8664 31.3028 21.8693
Au 30.0475 22.3428 27.3536
Au 28.7326 23.5397 23.1704
Pt 34.2936 19.5494 13.5203
Au 28.6213 30.6818 28.1745
Au 22.9932 19.7375 26.8295
Au 28.0678 23.9356 25.94
Au 19.3726 31.4081 26.8811
Au 17.7149 32.5184 17.8171
Au 16.3014 28.3126 16.5897
Pt 16.4054 36.797 23.4401
Au 17.0353 29.964 19.2787
Au 16.9442 23.8161 19.8815
Au 15.4306 29.3672 27.1696
Au 21.6896 32.6122 28.2477
Au 18.3796 29.7705 33.6795
Au 30.1972 25.0892 27.353
Pt 33.872 14.7799 21.9982
Au 34.0093 24.6904 19.0934
Au 27.5475 20.5352 20.2793
Au 29.8909 17.936 22.3749
Pt 31.5974 14.9201 20.4456
Au 30.0756 26.4388 29.8097
Au 28.272 18.1367 29.596
Pt 30.3739 17.944 31.9517
Au 20.3836 20.4543 21.6817
Au 18.5604 22.4811 22.8611
Pt 9.84813 19.8568 20.9394
Au 29.7605 13.8911 25.1602
Au 7.99327 21.0015 16.6215
Au 15.3503 30.9331 17.299
Au 14.1439 19.9741 28.0443
Au 18.1806 29.4122 28.3177
Au 19.0845 25.099 18.5242
Au 15.079 31.712 25.6252
Au 24.2835 34.4931 31.8647
Au 16.8533 30.7706 30.4191
Au 26.2313 19.7496 30.5148
Au 21.0103 29.6863 28.6294
Au 23.8373 36.919 27.9237
Pt 23.734 34.4008 34.4837
Au 28.3336 35.4281 28.631
Au 22.7566 29.4207 23.9248
Pt 19.1914 20.3591 36.0834
Au 23.5452 11.2348 21.6954
Au 22.1056 17.2232 17.333
Au 23.8471 15.1001 28.9264
Pt 33.7873 19.1226 28.5623
Au 22.4586 13.1986 23.4822
Pt 31.0531 14.0105 30.678
Au 26.0192 16.0209 27.436
Pt 31.0739 11.6987 26.1054
Au 26.8515 24.9955 5.27906
Au 21.4155 28.6073 18.8112
Au 17.96 30.6819 15.8676
Au 19.7377 30.574 13.3698
Au 21.8666 35.2601 16.4334
Au 26.5681 33.5791 12.616
Au 25.8006 24.457 16.8894
Au 27.9013 28.2669 29.2064
Pt 25.5823 38.3892 26.3946
Au 23.3706 18.7699 15.3601
Au 17.8981 19.7373 22.6888
Pt 17.2688 13.1819 19.1688
Pt 32.4703 17.2717 22.0367
Pt 26.2563 14.4697 12.9121
Au 23.1064 20.3486 22.7501
Pt 31.1646 15.3551 23.2102
Au 27.2981 10.9233 24.6277
Au 21.2787 18.0702 22.5672
Pt 36.3279 17.0076 32.7863
Au 29.1013 26.8162 34.4272
Pt 27.5629 10.2396 28.8324
Pt 24.2501 32.2341 36.0948
Au 30.3275 16.4307 29.7314
Au 28.9509 16.6215 26.8542
Pt 28.7253 20.9073 16.0619
Pt 39.9107 20.7578 18.3361
Au 20.7141 19.698 18.9759
Au 32.0085 29.1493 21.9168
Au 26.4404 16.1374 19.9423
Au 28.2631 27.6485 19.3224
Pt 14.0061 13.4569 29.5232
Pt 13.7833 27.7108 28.3288
Pt 17.4378 14.2999 21.7118
Pt 22.0438 36.8601 21.8413
Pt 12.2078 19.5562 22.5148
Pt 14.4125 29.9828 29.801
Pt 15.7223 25.455 15.5908
Pt 11.8428 33.5485 14.1446
Pt 14.8855 27.3572 14.0983
Au 18.6676 33.3083 13.8904
Pt 17.5116 23.4882 16.986
Au 19.3625 35.9668 17.3946
Pt 35.8149 21.1612 10.382
Pt 37.4853 25.2156 23.7303
Au 34.1463 26.6152 26.4906
Au 30.5273 20.1228 20.8176
Pt 42.064 20.3816 25.6653
Pt 32.6938 17.5755 30.4811
Pt 11.5942 17.5317 17.3765
Au 22.4822 24.6911 21.0656
Au 14.8694 26.7301 25.709
Pt 9.00642 20.045 28.6395
Pt 13.989 22.6038 32.7433
Au 9.1688 19.9413 31.3696
Au 19.4899 29.3737 20.61
Au 23.6906 26.224 30.6279
Pt 25.3938 34.5728 24.4399
Pt 31.9034 38.2493 32.2304
Au 23.5969 32.5384 25.1391
Au 33.9913 33.1636 24.541
Pt 17.3508 8.99936 25.3835
Pt 21.6871 14.5563 18.4086
Pt 19.8667 13.7102 22.6196
Au 26.2944 11.0188 22.0307
Au 27.0761 13.4057 20.6087
Au 30.9543 17.9519 25.0013
Au 27.3034 17.7019 42.0182
Pt 28.5166 26.061 40.9909
Au 18.6613 32.186 40.3052
Pt 16.011 28.4131 38.3544
Au 22.5398 32.2003 33.5093
Au 25.6202 27.9165 35.4122
Au 32.0429 13.2637 11.5731
Pt 22.3458 17.762 12.8109
Pt 21.7518 21.0037 8.84102
Au 21.6399 32.4166 9.51203
Pt 26.6592 25.0299 8.0693
Pt 28.8653 29.3073 11.3899
Pt 30.9335 22.0026 34.8121
Au 31.2259 8.74774 31.9967
Au 27.6138 21.2386 26.3015
Au 23.1609 22.8655 34.8918
Au 26.561 23.7853 34.4136
Pt 34.035 16.008 33.9321
Au 23.8252 27.6999 32.9349
Au 28.46 27.7424 31.8236
Pt 34.7798 28.8528 33.9441
Au 22.0016 26.9055 25.0052
Au 22.5298 35.1831 29.4274
Au 20.8656 20.8822 34.0466
Au 36.2653 30.2272 38.2527
Au 20.3411 23.1045 35.7842
Pt 28.9905 24.0926 12.9257
Au 26.0479 23.0338 12.393
Au 31.1355 13.8297 8.98685
Au 26.8534 22.1521 18.1001
Au 39.6895 18.1935 15.1891
Pt 32.531 21.5494 14.3507
Au 25.5119 20.5987 16.1143
Pt 26.3208 20.6124 8.22417
Pt 29.4148 25.4729 15.252
Au 25.7349 28.8653 7.64256
Pt 31.0395 19.5928 15.4232
Au 25.2727 32.1054 17.7319
Au 21.7039 32.6379 12.957
Au 29.1228 28.8614 16.8652
Pt 12.316 22.0659 28.4047
Pt 15.6761 26.406 33.2512
Au 23.4773 19.6848 34.5624
Au 21.8307 20.8598 36.6839
Au 18.4679 21.5184 29.0927
Pt 14.5834 30.4688 32.507
Pt 18.3339 19.0512 33.6075
Au 19.6887 27.2105 28.9694
Au 21.9831 30.8972 30.8156
Au 18.1773 22.16 34.2209
Au 17.8298 27.207 34.6718
Au 17.6419 36.153 37.617
Pt 19.7749 29.8547 38.017
Pt 22.137 36.1272 35.8443
Au 15.9203 21.5441 18.4264
Pt 13.6286 28.7137 16.3856
Au 24.4778 20.1057 13.2602
Au 20.5726 19.637 16.2701
Pt 12.1077 21.484 18.6983
Au 15.9929 32.6975 19.8924
Au 15.7314 35.5844 11.065
Pt 15.3072 24.4641 13.0933
Pt 14.9266 23.8959 17.5505
Au 14.408 33.2665 10.2164
Au 27.579 23.0632 15.0547
Pt 26.0163 36.013 14.5403
Pt 12.7404 25.9828 13.3615
Au 24.9225 26.4428 6.39072
Pt 34.0311 37.6838 30.5748
Pt 35.239 27.3991 18.9679
Pt 28.2103 35.1624 19.7598
Au 35.8374 23.1157 20.4308
Au 36.6861 32.5827 24.4136
Au 26.2914 29.0696 17.5028
Au 29.3187 28.1842 21.859
Pt 32.287 25.4113 15.8503
Pt 33.9435 32.0967 28.4052
Pt 36.8414 25.9745 26.4437
Au 32.8685 24.3536 21.6188
Au 25.3899 20.8288 27.9661
Pt 32.0657 24.7778 31.2723
Au 31.8694 22.5104 29.474
Pt 10.8345 33.4834 24.4914
Au 8.51476 30.4434 16.1055
Pt 9.20698 24.1006 21.4831
Pt 14.1261 34.9082 15.0169
Pt 13.3993 33.0021 21.1235
Pt 14.1113 37.9059 22.7125
Au 15.7998 23.9614 25.8863
Pt 12.3717 30.9419 24.9575
Pt 12.8394 33.0185 26.5168
Au 17.5629 27.381 20.5251
Au 15.4727 28.8128 21.5796
Pt 16.4983 28.6676 32.1295
Au 14.8109 23.0361 28.454
Au 18.7272 23.6427 31.0188
Pt 34.7582 15.6036 26.8019
Au 23.1541 18.2463 24.5301
Pt 29.4839 20.8127 18.4761
Pt 31.4766 22.705 12.2262
Pt 37.162 15.609 28.235
Au 29.5862 19.4108 27.1771
Pt 28.7703 18.6511 14.5969
Au 33.1807 28.1615 24.2363
Pt 26.5929 14.1532 31.2806
Au 28.3876 20.9608 29.1714
Pt 36.2831 28.6466 26.5802
Pt 35.0871 18.686 31.3302
Au 34.3738 21.9308 28.2145
Pt 33.1178 12.6511 30.2143
Pt 22.9661 12.0315 18.4395
Pt 9.1772 17.1291 25.4814
Pt 14.8729 13.3706 26.5266
Pt 9.19122 21.7347 22.7099
Pt 22.975 12.081 28.1527
Pt 16.4122 14.8265 27.9954
Au 7.39814 18.3125 27.2603
Au 13.6739 22.063 22.9682
Au 16.2332 22.4641 30.5882
Au 9.08745 17.4148 19.9549
Au 9.7335 13.3535 27.9156
Pt 11.2806 15.7062 26.3895
Pt 11.338 23.7218 25.9935
Au 15.5483 25.6385 28.0801
Pt 20.1488 40.113 30.0737
Au 25.4671 32.3196 33.6935
Au 25.5695 35.5296 29.6044
Au 17.8445 32.1862 24.4227
Pt 26.4858 32.5448 31.3484
Au 24.4967 31.2093 27.3802
Pt 20.4742 32.3176 38.1804
Au 24.104 34.0235 27.3295
Pt 28.1959 31.8339 33.6424
Pt 27.5721 34.8412 31.291
Pt 25.7718 36.8906 32.2672
Au 32.243 33.4614 26.7834
Au 27.3222 30.4508 22.4378
Au 35.649 25.9521 21.3201
Au 18.89 21.0773 31.8962
Pt 24.0142 10.2872 31.4891
Au 25.7352 20.1214 22.3644
Pt 19.2519 9.92106 31.9248
Au 26.8968 18.6293 27.2188
Pt 22.704 16.9051 33.5676
Au 18.448 16.3104 26.8053
Pt 21.291 10.3725 20.1566
Pt 27.6727 14.2778 33.9864
Au 24.0234 13.9508 26.2975
Au 24.2901 13.9996 21.2935
Pt 33.015 13.3184 27.0359
Pt 31.7927 15.7742 32.5045
Pt 34.6024 11.8636 23.1477
Pt 26.2673 36.6894 20.784
Au 25.5235 35.9499 11.8493
Pt 14.488 35.1928 22.5545
Pt 11.2984 31.886 22.5323
Au 19.6403 34.282 9.14343
Pt 26.3415 36.8908 17.9836
Pt 21.3529 36.0373 19.2032
Pt 24.6575 35.1214 16.6063
Au 23.1415 33.8673 18.5555
Au 26.2912 30.5263 19.8155
Au 35.1613 30.1594 24.3608
Au 30.0469 30.9872 22.7176
Au 24.0928 32.5767 29.8457
Au 30.4178 25.6571 20.2594
Pt 20.7271 15.1787 15.9801
Au 19.1041 16.4346 22.1386
Pt 16.0382 13.1534 24.1465
Pt 19.5505 14.5329 19.9928
Au 25.5636 10.2617 13.1796
Pt 23.3225 13.9674 16.2596
Au 24.9905 17.2224 17.3981
Pt 19.6894 10.7823 25.3451
Au 17.7833 28.472 14.3371
Pt 24.8922 16.9394 13.3661
Pt 27.5223 13.705 15.2706
Au 29.7949 14.0839 13.4065
Au 25.9231 17.2006 24.8828
Au 26.9188 14.2997 25.5613
Pt 36.398 22.0438 34.3237
Pt 33.6067 22.7496 35.142
Au 28.7239 20.1106 31.8091
Pt 33.8189 31.3882 33.0007
Pt 37.0882 21.4627 27.0736
Au 24.8081 27.4976 23.8328
Au 39.2226 17.5026 31.7608
Pt 33.5592 26.5808 32.9852
Au 27.6203 17.5579 32.3675
Pt 28.9077 34.2322 34.2347
Au 28.341 21.7431 33.9781
Au 30.4606 29.2359 30.237
Au 27.7361 16.6239 16.7921
Au 30.139 31.2374 17.7348
Pt 29.8188 18.2983 17.354
Pt 34.4097 36.2599 24.2369
Pt 32.2472 13.0813 24.0724
Au 30.9074 28.485 19.3713
Pt 36.1738 15.2995 20.3521
Au 23.0053 30.7897 11.2772
Pt 26.2214 20.4717 10.9884
Au 26.536 29.2956 26.8845
Au 23.8393 22.3613 17.5441
Pt 31.3563 21.8496 16.8987
Au 20.5136 23.8246 28.6301
Pt 11.2552 33.0581 28.8239
Au 20.3109 13.3829 25.2713
Pt 11.763 30.7157 20.2563
Pt 25.0842 8.54873 21.6271
Au 19.7484 34.6907 29.0423
Au 16.3268 18.8611 25.6329
Pt 14.7868 39.5763 27.0109
Au 21.5655 13.8895 30.0443
Au 18.5027 35.1496 24.3813
Au 19.9183 16.9738 32.1831
Pt 17.0362 38.439 27.8245
Au 19.8612 22.1185 17.8048
Pt 13.6381 23.764 14.9999
Au 24.4039 17.5454 22.1734
Pt 14.4375 32.9722 13.1373
Au 24.5607 14.4475 18.6033
Pt 13.5134 32.2646 15.7798
Au 18.4201 21.4 15.4009
Au 27.4651 30.2653 9.26164
Au 24.7759 22.8316 14.8824
Au 19.9012 33.1127 22.7379
Pt 23.6886 14.6889 12.713
Pt 30.4057 33.7082 12.0567
Au 41.368 20.9811 15.9543
Pt 38.6564 20.4618 16.1037
Pt 32.7013 32.3301 17.8447
Au 28.0078 25.7712 21.7673
Pt 40.2491 25.4943 28.2647
Pt 34.7389 25.8678 30.7181
Pt 36.8141 24.3943 31.3865
Au 10.1582 24.6055 12.6554
Pt 11.0134 17.3076 21.9103
Au 13.6414 22.2336 26.0112
Au 10.9168 13.3059 18.2463
Au 20.6299 25.2346 23.2611
Pt 11.3999 27.2714 32.0444
Pt 13.2514 25.3052 32.4446
Pt 18.206 41.2093 28.3986
Pt 17.8982 40.5479 23.6641
Au 20.6848 33.1824 25.3272
Au 28.2892 30.4872 31.2863
Pt 28.1 37.3315 26.6136
Pt 29.7627 38.0403 28.4989
Au 41.6123 34.2466 29.6429
Pt 18.1996 6.58907 24.3826
Pt 23.8077 9.3482 26.7441
Pt 23.7103 9.52319 19.3882
Pt 22.4453 8.73338 21.8144
Au 22.8268 4.96345 23.8067
Au 30.7175 9.60663 15.0636
Pt 38.2805 14.1713 21.8482
Au 20.7011 25.5856 30.9497
Pt 31.7794 28.2299 38.6638
Pt 13.5852 27.6925 34.0031
Au 23.6792 29.2148 29.2623
Pt 30.8126 30.7898 38.9277
Pt 28.4442 29.8594 38.6211
Pt 18.3736 36.4198 33.5867
Au 27.6586 24.8599 19.1569
Pt 20.8685 26.3809 11.2988
Au 21.6012 28.7142 12.5448
Au 17.8675 26.4505 7.61011
Pt 31.1703 25.5789 12.9889
Pt 29.6408 33.6542 16.3309
Au 30.5486 42.0897 17.784
Pt 35.3663 12.7106 31.3401
Au 23.0473 26.3889 18.7647
Pt 29.5714 19.0688 34.3975
Au 26.563 19.2428 34.3785
Au 24.2013 19.5323 37.3984
Pt 34.3923 20.4712 33.4076
Pt 34.8827 20.7271 36.1577
Pt 30.725 32.1839 34.5086
Au 16.3596 27.8014 29.5684
Au 42.3752 26.1761 29.8734
Au 24.4926 24.1104 32.5168
Pt 29.3388 34.0313 36.8525
Au 25.0133 22.4034 30.3146
Au 21.5965 32.7207 40.5611
Au 19.1721 29.2118 31.0031
Pt 32.6676 21.4115 37.667
Pt 26.3922 28.2472 38.0548
Au 25.2396 23.2206 26.2293
Au 27.297 25.9271 36.459
Pt 21.9538 30.6631 36.3643
Au 38.8423 18.3443 12.3736
Au 39.3539 23.0598 12.1172
Au 29.2742 13.1092 10.817
Pt 32.2002 15.3558 13.2045
Au 28.5094 18.0205 19.8142
Au 32.9941 26.9151 20.6244
Au 25.2074 29.1705 10.5396
Pt 28.6212 20.0974 9.11817
Au 30.1489 17.3326 12.7531
Pt 27.9377 16.1345 14.1409
Pt 31.0605 27.6555 15.2513
Au 31.4381 23.8309 7.90301
Au 35.1763 19.6133 8.22672
Pt 20.869 22.5926 10.9764
Pt 29.7085 21.3491 13.664
Pt 30.442 24.1792 10.4855
Pt 23.9191 22.2486 10.4552
Pt 33.1017 24.8201 11.3274
Au 22.8638 36.7043 12.187
Pt 31.4921 28.8838 10.1714
Pt 15.5543 26.7888 36.1325
Pt 17.4542 22.2818 36.7821
Pt 26.2655 15.8127 40.1863
Au 20.8209 16.7567 40.6648
Pt 23.8477 12.641 36.4537
Au 12.3914 24.5987 38.638
Pt 15.6833 29.2094 34.6362
Pt 18.4467 26.0037 40.0841
Pt 18.8083 15.049 37.0669
Pt 24.7812 24.6915 41.5508
Au 12.8204 32.955 36.0752
Pt 19.0269 34.3354 31.7244
Pt 12.986 26.0202 36.4339
Pt 17.6075 19.9684 38.3564
Au 17.6111 39.214 33.8426
Pt 21.1257 34.864 33.5542
Pt 17.5519 29.3238 36.421
Pt 24.2517 26.8187 37.6228
Au 14.7051 24.118 40.1292
Pt 20.1586 28.0464 39.9419
Pt 13.7439 20.4712 20.4295
Au 14.0603 23.771 10.0276
Pt 19.3986 17.4495 17.5896
Au 18.2541 26.2634 16.1188
Pt 18.9852 19.9068 13.0424
Pt 11.4531 21.7421 15.5393
Pt 13.5289 28.6828 12.0883
Pt 18.423 22.4245 10.0646
Pt 17.3537 26.8696 10.2298
Pt 21.5314 24.6792 13.3445
Au 9.31526 32.9853 15.5221
Au 10.7309 27.3324 12.0614
Au 27.0128 39.8027 14.4062
Pt 20.1159 22.4049 13.508
Au 12.0435 25.3519 10.7375
Pt 23.5508 27.0123 11.6015
Pt 24.487 26.9797 9.03951
Pt 16.3845 34.9535 13.6179
Au 22.9548 28.222 7.09538
Au 24.3489 40.6814 14.4833
Au 40.5554 34.5498 27.1357
Au 34.923 28.6527 21.8293
Au 30.8916 23.9505 24.7939
Pt 33.333 33.6226 20.2163
Pt 34.8698 34.0004 17.8621
Pt 40.7881 29.3851 27.8904
Pt 36.3996 31.8798 21.7546
Pt 38.9503 31.6972 21.0566
Au 35.561 23.4763 25.7628
Pt 37.9146 27.4533 22.1692
Au 26.8223 29.3835 33.3705
Au 27.7444 25.6729 28.4084
Au 31.2933 26.3376 22.8399
Au 33.1424 22.0819 24.5496
Pt 32.7602 32.9714 30.8043
Au 28.3832 30.6727 25.2849
Pt 37.7579 31.7345 18.7261
Pt 38.191 30.1608 27.9884
Au 26.9243 26.6459 26.0906
Au 27.9552 15.2222 29.1726
Au 20.7205 31.9101 20.2885
Au 8.80657 32.9092 30.029
Au 12.9568 38.897 18.2644
Au 9.56818 34.9968 17.9306
Pt 9.29686 25.4735 26.6776
Pt 10.2855 32.1567 26.6454
Au 8.65332 33.2308 22.5124
Au 18.7733 28.0177 18.1279
Au 7.24611 31.7192 20.3745
Pt 9.74332 30.3136 18.6787
Pt 12.5334 30.5246 17.7338
Au 12.061 39.7964 26.5764
Pt 9.62156 30.8367 24.3228
Au 18.285 25.2262 21.8874
Pt 10.7225 26.457 22.7175
Au 16.0841 21.6046 21.415
Au 18.0461 24.6355 24.5786
Au 15.3497 25.218 30.7027
Au 15.8632 24.0059 22.7494
Au 9.78482 20.4496 33.9843
Pt 32.6948 15.2602 28.8306
Au 31.8682 19.8239 23.2216
Au 35.3569 23.7683 23.0248
Au 31.0971 22.4183 22.4515
Au 33.8107 23.1713 16.59
Au 28.5677 20.7539 22.7457
Au 34.8703 20.3533 26.0601
Au 39.4897 14.5967 27.3417
Au 27.1686 17.879 22.2313
Au 32.7568 23.6196 26.7608
Pt 37.0282 19.6073 33.2222
Pt 38.5613 17.1181 26.4542
Pt 37.4695 19.3882 25.3785
Au 36.2116 21.2803 23.7734
Pt 34.0096 11.1582 28.1698
Au 39.0133 11.7728 22.5508
Pt 34.891 18.3132 34.9948
Pt 36.7 15.1844 30.8446
Au 38.5222 17.7919 34.4109
Pt 37.5361 26.0176 29.3538
Au 21.3023 10.9476 37.0897
Pt 10.8306 15.5365 23.8323
Pt 15.1684 15.1482 22.8673
Au 9.70721 15.6827 17.9667
Au 12.7404 12.4751 16.2837
Pt 18.9164 14.1591 28.5136
Pt 12.3315 13.2208 27.3985
Pt 9.17258 19.8247 25.8536
Pt 11.6691 18.8492 19.5891
Pt 11.9794 16.0939 19.5312
Pt 12.7534 15.262 31.1481
Pt 10.2459 17.8406 27.8839
Au 10.6504 14.8537 32.9348
Pt 17.8508 13.0112 26.2867
Pt 11.4987 19.9108 29.7209
Au 8.26452 17.8109 29.9288
Pt 11.688 26.1977 25.1628
Au 11.4958 15.8586 35.5516
Pt 11.7405 19.7538 26.9331
Au 7.29508 27.5637 30.4704
Pt 26.4622 30.5204 35.7796
Au 23.249 37.2066 38.0206
Au 17.7327 43.2854 26.5706
Au 21.5809 33.535 31.2104
Pt 19.6165 41.5516 25.7496
Pt 25.9065 33.6743 38.5892
Pt 23.1314 36.8022 33.2487
Au 16.076 42.4422 24.4221
Pt 17.65 39.2987 30.234
Pt 19.5372 39.2037 27.2785
Pt 29.3747 36.5056 35.5535
Pt 30.8882 34.4509 29.1221
Au 31.1592 31.7056 28.9338
Pt 25.5132 38.572 29.2408
Pt 27.2661 39.0829 32.576
Pt 33.7948 36.4326 33.0977
Au 22.4764 31.9664 22.7539
Pt 29.6229 39.254 31.0945
Au 32.0297 37.5215 35.5646
Pt 35.2335 32.2829 31.0275
Pt 22.6631 18.1872 39.2367
Au 24.6187 18.4653 32.3625
Pt 29.0614 12.2397 35.3911
Pt 24.9117 7.10885 26.1523
Pt 22.4311 11.6292 25.6317
Pt 16.4051 17.5746 34.4977
Pt 21.6636 12.3913 34.8548
Au 21.9663 15.4854 21.8508
Pt 21.2676 9.68476 27.1686
Pt 19.8312 9.51942 29.3883
Pt 29.0467 14.7918 38.9035
Au 20.4604 16.4483 29.2306
Au 23.8349 15.5203 24.0317
Pt 24.2356 12.7762 30.3755
Pt 28.2922 12.1837 32.7548
Au 34.5303 9.10671 23.8857
Au 24.4513 10.1626 24.1225
Au 25.4045 11.5982 26.4404
Au 34.008 8.15811 29.0018
Pt 26.7425 9.07215 26.5331
Pt 29.6725 36.2404 17.9608
Au 19.3642 32.618 11.2793
Pt 20.7074 37.5804 15.1567
Pt 22.7135 39.3136 15.9972
Pt 16.3549 39.1818 21.8206
Au 30.3778 28.7572 24.352
Pt 24.621 34.357 21.6407
Au 23.8145 34.5388 13.7552
Pt 23.3047 36.9247 14.8311
Au 20.8625 35.1146 13.9014
Pt 29.6957 38.9378 17.3399
Pt 29.5083 40.4858 19.791
Pt 25.1305 38.6899 19.4314
Au 22.5141 34.7404 23.7408
Au 25.0831 30.5204 15.5184
Pt 26.136 35.6497 26.8602
Au 23.2379 32.7798 15.8208
Pt 34.1747 38.7604 25.4371
Pt 23.5874 39.6729 27.5994
Au 32.6824 25.4229 28.7074
Pt 20.9789 15.2504 13.0914
Pt 22.4238 16.0379 10.8432
Pt 29.476 11.9036 15.0249
Au 26.9699 6.66893 20.3647
Au 22.0684 6.07246 21.2523
Pt 22.393 20.3154 11.4009
Pt 30.8242 15.712 10.8079
Au 23.4376 8.83524 14.3796
Pt 23.4853 11.0623 15.8383
Pt 19.0234 9.70641 18.9884
Au 35.9977 10.9031 17.1291
Pt 21.1871 12.519 16.4458
Au 22.8382 10.8543 12.7038
Pt 26.2505 8.08899 24.0405
Au 28.6282 14.9865 8.82906
Au 26.0419 8.46619 15.2202
Pt 30.3495 9.12226 22.1916
Au 28.9746 15.4132 21.3645
Au 32.3551 11.535 13.7934
Au 25.1963 12.9019 23.846
Au 32.9684 7.33745 25.6103
Au 30.9467 30.4205 26.561
Pt 29.177 14.8916 36.1169
Au 25.3438 27.1901 28.4376
Au 31.3622 7.46763 29.3083
Pt 34.9136 34.0373 33.3559
Pt 35.0832 13.8812 28.964
Pt 30.0987 34.0279 31.8949
Pt 30.663 19.7679 36.8078
Au 29.0598 26.0989 24.4129
Au 23.6661 4.62574 26.4647
Pt 31.5222 34.7383 35.5749
Pt 37.2041 14.8446 25.6497
Pt 36.4391 30.0824 32.0455
Pt 28.4036 17.259 39.5176
Au 27.1202 33.4843 40.9205
Au 29.0705 7.34821 31.0877
Pt 19.2257 36.5001 26.795
Pt 28.3053 22.3948 39.5592
Au 25.6868 21.3559 32.9213
Pt 35.2216 21.9007 14.5699
Au 35.894 36.9576 21.9431
Pt 33.5238 20.211 16.2854
Au 36.8071 38.4127 24.1114
Pt 33.6612 16.7989 19.722
Au 33.5456 29.5802 19.3018
Au 31.9179 15.5236 25.9582
Au 27.7948 31.2431 16.0031
Au 40.7727 23.2663 14.4601
Au 37.5259 20.8363 8.29841
Pt 32.8344 17.4589 11.5861
Pt 32.5281 35.9155 19.0716
Pt 34.0163 14.2289 19.2714
Au 31.8106 28.1178 27.9935
Pt 34.08 21.9711 12.1592
Au 31.5528 31.4268 20.2151
Pt 36.0911 15.39 15.6551
Au 31.9542 33.2168 22.4918
Pt 33.4981 19.9022 10.4618
Pt 30.6287 37.8853 19.8531
Au 17.0566 24.6435 35.5834
Au 17.9597 26.429 31.457
Pt 11.7876 19.446 32.3568
Au 18.4858 41.1818 31.9978
Au 26.2837 15.324 22.7239
Au 15.7888 40.0774 32.0121
Pt 19.9767 12.2737 32.6216
Au 24.0301 29.991 34.508
Au 21.4522 14.7445 27.291
Au 15.6432 37.3681 32.85
Au 15.7607 17.6036 28.0005
Au 18.9784 38.2321 35.9814
Au 21.5411 19.1955 32.0386
Au 15.2718 42.2797 27.1215
Pt 20.2961 18.9469 38.0176
Pt 20.9123 36.3949 31.342
Pt 16.4344 12.1 28.491
Au 23.6995 34.7114 39.8957
Pt 20.8099 16.4169 37.9407
Pt 23.6564 37.3387 30.7374
Pt 12.6604 13.2302 20.1804
Pt 12.1453 34.5599 16.6253
Pt 14.6598 16.6616 18.8382
Pt 10.6979 25.9126 17.3541
Pt 14.1508 10.842 20.5727
Au 9.22195 35.4262 20.724
Au 28.5884 16.1727 24.1485
Au 14.6874 37.104 13.2599
Au 16.0112 19.091 19.7164
Au 10.0078 31.7955 13.1303
Pt 16.3052 16.7254 21.0016
Pt 10.9127 32.5451 17.6788
Pt 17.5098 9.61571 21.4766
Pt 15.348 34.1522 17.3187
Au 18.3612 21.2735 20.0119
Au 9.9378 35.4613 15.211
Pt 19.5071 13.2713 14.4877
Au 23.7367 33.7334 11.1433
Pt 18.4019 15.7479 13.3101
Au 27.8857 42.4463 18.1936
Pt 38.2826 25.0633 20.9879
Pt 36.1404 18.0902 27.3693
Pt 39.599 20.8133 26.2503
Pt 40.4253 26.8958 23.3369
Pt 34.8809 24.2257 33.2099
Pt 33.073 30.3006 30.2026
Pt 34.3027 23.4888 37.6871
Au 33.4418 25.1378 24.2783
Au 8.86971 22.7474 14.639
Au 9.6454 19.9365 14.7267
Pt 10.0376 21.8806 27.2079
Pt 11.445 18.1249 24.8452
Au 7.36594 21.7604 29.9303
Pt 8.92479 28.2833 28.1851
Au 10.2732 22.2365 35.9063
Au 18.258 17.063 39.1221
Pt 11.8986 34.7146 19.3107
Au 21.4749 43.8035 22.1519
Pt 22.8638 41.3262 22.6756
Au 21.6396 35.2801 26.7272
Au 21.9914 34.1597 21.0424
Pt 24.061 39.0449 21.7607
Au 34.2377 38.6002 34.4046
Au 36.4718 38.8939 29.7921
Au 19.3233 6.18344 19.7589
Pt 20.7978 7.29795 28.3962
Au 13.2026 9.61914 22.9263
Pt 28.8045 8.65794 24.5115
Au 30.4275 7.24071 26.6541
Pt 29.9226 9.64598 29.5643
Pt 28.6163 9.84461 31.8397
Au 38.3573 12.3179 19.856
Au 19.8741 14.3815 39.5651
Pt 33.6359 28.1076 36.5143
Au 25.5514 29.1962 42.413
Pt 19.4655 21.6615 38.6044
Pt 19.653 23.6727 40.4012
Au 37.0316 21.8115 37.2646
Au 30.8231 16.3086 40.6789
Pt 26.8933 30.8753 40.6566
Pt 21.467 20.0344 13.7758
Pt 24.3017 18.2961 11.1878
Pt 24.084 21.9973 7.81423
Au 24.5391 23.6324 5.75422
Pt 24.0495 19.7158 9.12333
Pt 29.5952 26.825 11.009
Pt 30.7273 31.0121 12.1846
Pt 28.9606 32.4405 13.8598
Au 36.935 24.2358 38.4879
Pt 26.7878 25.2889 39.0691
Au 33.2461 16.6649 39.2826
Pt 29.3289 24.6247 38.2764
Au 28.2814 7.50536 28.4494
Pt 26.3297 11.8588 35.4131
Au 33.7066 29.6724 26.8829
Au 38.7389 20.8935 35.0715
Pt 30.9053 26.9674 32.4177
Pt 25.1176 24.1905 37.0968
Pt 25.2277 26.9525 40.3056
Au 20.7124 21.6652 41.8411
Pt 32.528 20.0047 35.0691
Pt 33.7606 16.2777 36.5614
Au 30.5987 33.7147 39.3373
Pt 32.9262 25.8834 38.1998
Au 32.0657 21.8595 41.768
Pt 32.5783 30.3388 35.0614
Pt 37.5426 29.7559 34.4304
Au 31.3682 13.8425 39.7596
Au 34.6823 13.8057 35.5363
Pt 30.7686 29.3644 36.6041
Pt 28.2634 32.4525 38.6381
Au 29.4094 31.6013 41.0055
Pt 37.4641 28.5496 30.0314
Pt 32.3357 29.2215 32.5686
Au 29.2448 28.0061 26.7994
Pt 38.3108 22.7527 19.3736
Au 31.147 26.6764 7.04625
Pt 40.5868 22.1198 21.52
Pt 26.2446 18.2388 15.0547
Au 34.5613 14.8464 11.337
Pt 31.0592 18.6878 10.0519
Au 41.5039 18.6895 17.5025
Au 37.0216 16.4717 11.4023
Pt 26.2505 22.8683 9.51484
Pt 38.1055 22.6877 14.6737
Pt 24.0809 24.49 8.38222
Au 17.2101 23.7947 8.06795
Pt 35.4096 25.6858 12.4504
Au 38.676 25.2887 13.6841
Au 30.4412 16.2057 15.4958
Au 31.693 29.3521 7.51868
Au 27.905 19.9312 6.24971
Au 35.543 29.2545 10.4658
Au 26.5596 27.3526 12.1202
Pt 28.7252 23.0474 8.72428
Pt 27.7664 24.8721 10.7866
Pt 34.9885 31.319 13.9109
Au 22.3659 25.2777 6.25962
Pt 31.7553 26.3074 9.60068
Au 37.4109 32.6577 14.1149
Au 33.4639 30.5876 9.13923
Pt 33.5705 27.4444 11.278
Au 8.0195 24.5526 30.6355
Au 15.8342 31.3493 39.8994
Au 23.129 21.1445 43.077
Au 24.4325 13.9525 40.9362
Au 28.4949 25.2866 43.7346
Pt 17.2052 15.8812 32.2316
Pt 15.2357 21.2727 37.7423
Au 13.7131 32.3818 38.6005
Pt 15.8517 14.8459 34.5729
Au 26.3493 26.5889 42.7958
Au 17.1014 14.5592 39.0945
Pt 24.2876 20.4932 40.2687
Pt 13.5643 37.8488 25.4043
Pt 18.6459 27.3111 37.7157
Au 17.201 23.9701 41.6917
Pt 20.9362 25.7719 38.8709
Pt 23.7914 22.1512 38.0568
Pt 17.1486 35.9042 28.5506
Au 15.6473 28.9112 41.026
Pt 17.1385 32.1054 32.6607
Au 19.3893 34.7125 39.351
Au 18.2365 27.9142 41.9799
Au 16.7375 33.9084 39.1487
Au 18.0252 21.3778 41.0305
Pt 21.4348 33.3469 35.8175
Au 27.5601 40.1752 35.2343
Pt 19.5523 31.363 35.6584
Au 11.1387 29.9075 11.4551
Pt 14.695 26.3642 11.3408
Au 11.8985 19.159 12.9832
Au 18.0612 13.3102 12.142
Pt 24.9036 12.6872 14.2808
Pt 19.7719 20.0728 10.4946
Pt 16.0816 32.6308 15.1593
Au 12.6757 21.3784 10.9699
Pt 14.4939 18.5111 14.0737
Au 20.3776 27.297 6.75243
Au 22.9391 22.4754 12.9747
Au 21.955 22.3456 6.2162
Au 12.1043 36.4573 14.148
Au 17.8081 29.178 8.31825
Pt 13.3002 25.7775 18.8399
Pt 16.6575 24.3262 10.7576
Pt 16.3101 20.2873 13.6017
Au 20.1511 37.3601 12.4021
Au 12.6747 27.789 9.81103
Au 13.1988 30.566 9.74998
Pt 22.3673 28.5187 9.7984
Au 19.4921 21.9299 7.60208
Au 26.1558 41.9778 16.0777
Pt 16.1875 28.6063 12.1121
Au 29.3891 28.483 8.49962
Au 27.0807 22.6297 6.5701
Pt 30.329 36.4905 15.49
Au 39.534 35.4273 31.9159
Au 41.4543 27.3108 32.3534
Pt 36.8876 29.6482 20.3295
Au 39.5962 34.8104 20.5107
Pt 33.8141 33.2427 15.4658
Pt 36.3626 32.1329 16.5043
Au 40.5397 32.901 31.7161
Au 30.7493 43.9006 25.0108
Pt 33.6493 34.6495 28.8525
Au 42.4747 28.4841 21.8757
Pt 41.0018 24.7701 20.9478
Pt 39.4262 25.2433 18.5543
Pt 35.6237 36.3633 28.6908
Pt 36.2203 33.6996 29.0414
Pt 35.8192 31.4558 26.739
Pt 39.4588 31.7041 23.6353
Au 43.2811 23.5292 20.12
Au 32.4551 30.864 24.3212
Au 35.9207 20.2572 21.0203
Au 41.3335 30.1973 32.6117
Au 42.2707 23.4912 16.8566
Pt 40.2155 31.5312 26.2223
Pt 39.9444 29.3934 22.164
Au 35.6981 27.1907 24.0922
Pt 36.6426 27.0678 32.2103
Au 41.9218 23.4921 29.3344
Pt 30.8647 31.4411 31.9525
Pt 15.5724 38.6975 17.4063
Au 14.2544 40.8245 22.4453
Au 9.82377 31.3599 32.0583
Au 9.52102 29.167 13.8627
Pt 8.78876 24.9257 18.9157
Pt 12.5437 26.0167 29.8965
Au 19.0718 43.111 20.9646
Pt 14.5464 37.0456 27.8433
Au 11.689 37.4687 27.8555
Pt 11.9386 28.1621 18.6282
Au 7.36753 19.1482 21.8073
Pt 8.53394 28.4048 23.1514
Pt 15.5856 39.3007 24.427
Au 11.8001 34.8057 34.3368
Au 7.59204 29.6734 25.669
Pt 12.8774 27.9824 21.036
Pt 8.41547 26.5784 21.1181