2057
Atoms. Timestep: 20922
Au 17.3092 43.4357 24.8679
Au 31.1115 10.5654 35.1672
Au 18.338 27.9508 10.5605
Au 28.4749 13.1924 39.2065
Au 6.54451 17.3606 25.4525
Pt 23.2777 28.3425 26.1343
Au 12.0801 35.1071 22.8347
Au 34.9015 16.5216 40.3157
Au 15.1814 22.0929 16.784
Au 23.5223 28.4688 41.8671
Au 40.5021 17.2138 35.6703
Au 14.4324 30.0517 37.5068
Au 27.6456 20.6352 6.96779
Au 22.4961 40.7962 30.5289
Au 22.6532 40.4643 34.0953
Au 35.5017 37.3731 29.2026
Pt 21.6137 12.905 28.0861
Au 23.577 21.1052 42.5108
Au 13.4369 15.1437 33.9153
Pt 16.1154 15.5186 18.7
Pt 34.434 18.0479 25.9811
Au 16.4245 32.2166 21.0141
Au 11.4287 33.8684 25.3664
Au 14.109 12.2929 34.8684
Au 29.4961 39.4375 17.4551
Au 14.5048 39.8086 14.8314
Au 24.6702 21.272 12.2099
Au 15.0809 9.37555 28.6104
Au 11.2631 33.2515 9.53811
Au 5.66258 27.1771 26.9886
Pt 25.0649 34.7531 28.0776
Au 33.3984 19.2061 39.5883
Au 19.0203 20.9074 8.67256
Au 13.1475 16.3218 15.5243
Au 10.0909 23.4455 18.5761
Au 31.4396 37.7389 37.9104
Au 11.9636 31.0723 19.0972
Au 31.3372 35.1047 38.0342
Au 11.0107 24.3438 12.0938
Au 33.6059 18.0897 42.0622
Pt 17.4724 39.4012 28.5662
Au 14.1903 13.7393 19.4077
Au 19.6594 41.3839 28.1924
Pt 17.2951 17.9077 18.0427
Au 19.1693 34.966 36.7975
Au 30.0422 20.2982 8.31798
Au 29.5849 35.1267 33.3062
Au 8.48234 23.8678 33.6521
Pt 34.2216 35.2324 23.0087
Au 33.1388 12.3957 16.1352
Pt 29.1863 30.7875 22.7253
Au 19.5557 38.1614 36.667
Pt 25.3373 12.4773 31.315
Pt 30.8418 23.4893 33.356
Au 17.0759 36.6353 15.5375
Pt 25.8942 20.7734 14.7249
Au 28.6405 31.7822 7.68181
Au 30.0533 19.5521 39.2661
Au 36.6267 35.9659 31.2233
Pt 29.7697 16.8698 38.535
Au 31.9305 19.2538 10.2925
Au 28.753 29.4026 6.13447
Au 39.2084 32.0496 33.5609
Au 22.0744 29.1325 7.55201
Pt 35.367 19.9723 34.6926
Pt 26.0098 14.5234 10.9319
Pt 31.5487 15.0627 20.1123
Au 33.1824 8.96484 30.2186
Au 30.8938 16.9747 11.5446
Au 16.5609 33.5501 23.7498
Au 21.6965 17.3476 10.2625
Au 30.9142 12.7006 38.0484
Au 16.9968 31.9884 7.49989
Au 7.23275 21.5393 34.36
Au 19.9177 22.8194 10.5245
Au 28.1179 12.528 11.3101
Au 25.0721 23.7363 42.8571
Au 16.6128 41.7412 17.6644
Au 41.9788 26.5897 17.9207
Au 17.6862 24.3523 6.37284
Au 26.2458 33.1461 12.0922
Pt 34.4642 34.7838 29.8192
Pt 28.7827 20.1114 25.2391
Au 30.3445 8.77551 14.7794
Au 16.9274 35.7801 12.1857
Au 27.4118 25.2525 9.30447
Au 14.5141 25.8401 20.6863
Au 36.1024 22.4787 14.2516
Au 20.7811 42.5122 16.1231
Au 33.4629 14.3331 38.9429
Pt 18.3775 25.4024 37.0772
Au 25.7285 37.935 15.6247
Au 8.65569 28.386 24.7368
Au 30.802 7.73391 31.0278
Au 31.4041 37.5176 17.0097
Pt 18.8127 14.1303 21.743
Pt 33.1641 11.7165 30.8846
Au 27.8081 23.0238 10.9381
Au 19.313 29.0581 5.74468
Au 15.0037 27.6754 7.32822
Au 26.2855 32.2494 9.30569
Au 23.5074 23.8211 7.29801
Au 8.82885 33.7166 26.2412
Pt 26.3766 17.2194 27.0572
Au 37.3986 18.52 14.6425
Au 12.2616 29.7009 21.839
Pt 37.9241 26.9224 24.828
Au 12.0311 32.86 34.2653
Au 34.7568 31.6947 19.0841
Au 37.5171 11.9119 28.6952
Au 27.7739 36.9735 8.47292
Au 12.8491 37.315 34.3942
Au 35.7532 35.6292 27.2135
Pt 30.439 19.7747 12.6625
Au 8.4808 27.2547 29.4345
Au 41.1304 30.5539 22.9497
Pt 18.2846 34.4371 28.2489
Au 24.4654 6.02707 27.6489
Au 4.20534 22.3245 25.5468
Pt 36.7645 29.3208 25.4561
Au 16.9362 11.4295 35.3288
Au 21.6524 7.49555 17.7189
Au 19.6781 36.5285 38.9342
Au 26.6972 40.8887 18.0759
Au 25.1382 40.6806 15.8776
Au 25.1636 14.8974 36.2839
Au 9.8076 33.1606 18.8623
Au 33.0263 39.6446 21.7133
Au 9.27841 14.8232 29.2664
Au 23.116 34.3994 19.1319
Pt 27.1254 21.5532 22.0926
Au 13.1095 37.848 22.7742
Au 35.0864 11.111 20.235
Au 26.3623 25.5398 6.64149
Pt 27.9214 35.7825 18.9816
Pt 20.8857 18.5864 36.0039
Pt 30.8367 30.1063 16.7174
Pt 26.1449 24.56 40.4745
Au 25.1574 23.7117 10.9835
Au 27.3744 6.93467 24.5533
Au 18.4585 28.4658 19.6564
Au 28.3468 43.2471 25.59
Au 23.7346 6.52002 30.2769
Au 14.7721 27.03 14.2852
Au 25.7416 12.1083 9.53258
Au 38.4737 16.7501 19.0721
Au 21.4473 33.8862 35.0969
Pt 31.3736 23.4764 14.0507
Au 20.0124 33.7851 19.7849
Pt 9.00669 19.9112 22.454
Pt 32.9836 26.9846 33.1269
Pt 29.1589 14.79 37.0005
Au 41.5719 16.4743 24.1108
Pt 20.611 9.1029 24.8297
Au 14.1921 19.1883 20.8097
Pt 11.4496 21.9241 20.1977
Pt 37.7825 20.4249 27.8353
Au 42.767 21.0911 23.1138
Au 33.9454 37.2133 31.4497
Pt 34.647 28.3628 11.8084
Pt 9.54673 19.6889 19.9635
Au 23.8904 21.7652 9.3322
Au 24.0421 19.1751 10.1193
Pt 25.1135 14.9544 26.127
Pt 19.6768 38.7425 27.1868
Pt 37.8982 21.546 17.5096
Pt 30.6254 9.71288 26.121
Au 20.425 15.5714 35.2761
Au 24.8382 18.9709 40.9101
Pt 19.6651 9.08987 27.3749
Au 11.5367 21.068 36.2444
Au 20.4746 8.70995 15.3181
Au 17.2925 34.85 39.0269
Pt 20.1468 23.1883 36.2528
Au 41.9962 17.0547 21.459
Au 28.3763 10.2133 15.7692
Au 21.7884 5.17389 28.8722
Pt 24.216 16.5652 11.0408
Au 18.56 16.3009 8.40838
Au 16.7737 39.3343 16.2356
Au 27.3443 20.232 12.2879
Au 38.9643 25.6213 12.8303
Au 33.8558 36.4913 34.3166
Au 23.6773 34.2417 16.382
Au 30.5796 41.8727 26.478
Pt 25.7214 19.5114 36.1459
Pt 33.3559 22.0388 20.3614
Pt 15.7362 23.7871 22.0008
Pt 34.8661 25.0432 29.0532
Pt 25.3592 7.77796 31.9444
Au 21.4241 20.1309 9.81693
Au 16.4992 25.316 39.2651
Pt 23.3796 19.4858 34.7601
Au 22.5322 42.8022 21.3896
Pt 22.466 27.4828 21.327
Pt 9.61695 21.678 24.7037
Pt 24.5111 28.2989 37.4622
Au 7.82102 24.9357 31.2011
Pt 19.4048 27.989 32.7702
Pt 18.519 19.562 19.5591
Pt 25.9407 27.6824 26.2762
Pt 26.8908 30.6683 13.8984
Pt 16.6077 18.9074 35.7281
Pt 22.7191 12.9682 16.8811
Au 40.333 31.4203 31.1265
Pt 22.3662 30.3692 30.1455
Pt 31.0538 29.5668 21.1652
Pt 35.9503 29.3926 38.0546
Pt 34.6175 29.5713 35.8007
Au 16.2605 18.245 8.76525
Au 12.5732 35.415 12.9029
Au 26.4955 34.5907 40.658
Au 7.69137 24.2566 19.5063
Au 40.3362 29.9647 15.8356
Au 27.5789 8.50872 13.7743
Au 24.9136 23.7625 5.06963
Au 23.3682 40.6375 22.9874
Au 22.5034 37.2033 20.2961
Pt 20.7881 32.5469 30.6472
Au 27.6577 14.0275 8.97787
Au 32.6411 21.4101 12.6254
Au 27.7785 27.6062 7.88412
Au 27.7692 40.3593 34.8377
Au 13.5392 32.4589 36.5386
Au 19.5954 27.5975 8.00003
Pt 28.9365 14.4574 20.8976
Au 29.5262 37.8924 24.4572
Au 36.9306 29.7881 11.3663
Au 26.2649 29.0849 40.6069
Au 13.7662 39.0109 25.1589
Au 12.9273 26.9034 31.452
Au 34.5317 38.1461 26.6687
Pt 34.7742 14.2947 23.2931
Au 26.5818 23.1945 13.527
Au 16.2455 31.6379 36.0252
Au 20.1866 41.0366 13.4731
Pt 24.8482 21.2428 23.7588
Au 39.6907 31.7085 18.1506
Au 22.8599 41.1868 17.3262
Pt 35.9897 22.7071 35.4305
Au 21.2723 17.5192 15.3712
Au 36.6814 35.9157 16.748
Pt 23.689 18.8858 24.0001
Au 24.0748 34.0384 13.5783
Au 15.4251 8.21011 25.5564
Au 16.3265 29.0497 24.2688
Au 36.6794 31.4985 13.4218
Au 19.0964 34.8053 16.6145
Au 17.0272 33.8228 14.6643
Au 21.1902 38.8724 22.2298
Au 11.0785 35.651 18.695
Au 26.5166 35.2653 14.5724
Au 40.7628 28.3449 36.167
Au 32.1603 38.3484 35.479
Au 28.2264 34.4474 7.84689
Pt 30.9151 21.0914 15.0893
Au 16.8557 40.1478 21.7139
Au 35.1059 33.6083 12.5518
Pt 25.1245 30.9134 30.6953
Au 38.1608 35.9343 19.095
Au 33.8274 24.2168 9.32589
Au 39.9232 32.9785 26.7008
Pt 25.9026 9.21932 21.161
Au 19.399 19.6895 41.1282
Pt 29.0925 25.9496 19.9436
Au 30.3615 42.6597 23.9175
Pt 11.263 24.543 16.4227
Au 10.4355 15.11 33.8324
Au 26.8096 20.7145 9.5707
Au 11.7055 32.0726 29.7139
Au 12.1913 33.3019 17.3828
Au 18.8591 38.8631 9.5876
Au 36.5036 13.0609 21.5613
Au 9.10339 15.3067 22.0504
Au 9.44155 24.7229 14.416
Pt 22.3351 32.1903 39.2758
Au 29.9961 37.4557 19.4109
Au 12.0799 12.0456 30.6613
Pt 29.5687 32.292 28.9801
Pt 33.0407 36.2458 28.2787
Pt 28.3817 22.9814 34.4233
Au 32.5007 9.75097 32.7557
Pt 29.8518 19.2526 36.2941
Au 11.4705 15.3092 20.526
Au 30.9262 18.9766 33.7692
Pt 30.5318 23.5892 38.8689
Au 8.9965 29.3859 33.6439
Pt 24.1201 26.8126 28.1972
Pt 32.3708 33.0566 19.3264
Au 40.2419 33.7634 29.3546
Au 20.469 20.4146 6.29779
Pt 39.6809 27.5735 16.8861
Pt 31.7577 24.4508 22.2833
Au 17.2497 29.2328 7.62328
Au 14.7799 30.613 8.3768
Au 19.8321 22.7558 13.6149
Au 18.2873 18.8593 7.08913
Pt 39.3001 24.6182 35.4071
Pt 16.2563 14.9261 21.3446
Pt 16.7839 23.8461 26.9411
Pt 27.8651 34.9212 31.0173
Pt 29.469 33.1114 38.0534
Pt 32.9401 23.2724 26.6866
Pt 38.0253 14.5573 29.3949
Pt 30.1444 9.48151 21.8238
Pt 21.5843 36.5288 36.1122
Au 25.4214 37.4355 9.71734
Pt 29.8822 28.4244 41.1059
Au 26.4406 36.9202 23.3023
Pt 22.019 25.5536 39.8939
Pt 33.4261 22.7041 34.637
Au 17.5583 40.9497 33.4928
Au 22.2253 18.9019 12.3847
Pt 13.8534 33.7857 29.9838
Pt 21.3134 13.7121 21.2999
Pt 25.7429 33.7105 18.895
Au 29.7709 9.25594 32.9816
Au 17.1265 37.3149 21.29
Pt 21.3974 19.2362 25.9678
Pt 37.5264 23.8061 33.5528
Au 13.4196 31.8109 32.0909
Au 10.6569 31.8159 27.0184
Au 19.1523 28.7219 23.6282
Pt 19.787 30.1721 31.2893
Pt 28.2578 18.3147 34.048
Au 22.6864 29.286 14.3595
Au 24.8587 7.05447 17.3226
Pt 22.968 9.19726 30.6694
Pt 7.20246 21.5185 23.3109
Pt 8.06086 19.6949 25.0562
Au 42.3399 28.3798 24.568
Au 17.7478 28.0923 14.189
Au 40.2377 22.5778 16.5015
Au 33.249 9.24681 19.0924
Pt 31.794 15.3601 37.1708
Au 20.8414 27.9977 18.4776
Pt 28.5326 15.2244 30.3142
Au 22.1961 42.7036 28.3715
Au 15.6927 24.2572 10.5416
Au 5.81003 23.7852 33.2148
Pt 21.9773 19.8235 16.9276
Pt 20.1115 39.3826 29.8053
Au 41.7466 18.1383 33.3815
Pt 28.1206 24.348 23.8061
Pt 32.0299 33.4844 29.1518
Pt 30.062 32.1158 18.0806
Au 12.4713 37.8385 27.5558
Au 42.5878 16.344 31.3447
Au 39.0773 28.021 11.6019
Au 30.0208 6.74448 25.9598
Pt 34.472 29.1512 26.9494
Au 28.6467 33.2188 10.2759
Au 19.1367 31.9135 5.88587
Pt 22.7803 12.2161 12.7472
Au 25.1935 17.305 37.9315
Au 23.5617 36.5607 14.5003
Au 21.3988 39.395 24.938
Au 14.8852 37.4468 36.3161
Au 23.0051 17.0489 39.6781
Pt 17.8966 13.5179 27.325
Au 15.8035 24.346 13.376
Au 34.6482 34.0901 17.1132
Au 23.5028 17.1131 8.22766
Au 24.5143 37.7318 37.2891
Pt 29.0639 16.2816 27.4173
Au 19.6602 21.2526 21.3888
Pt 22.9506 30.4913 37.2224
Pt 12.9813 31.2408 15.6981
Au 28.2396 33.0955 13.9593
Pt 15.1198 16.7765 22.8346
Au 23.8371 7.58547 19.7408
Au 19.0298 18.2261 34.1214
Au 19.0229 31.6735 21.3834
Pt 31.0137 23.242 16.7564
Pt 28.9036 11.752 20.9571
Au 29.8077 17.7378 41.2946
Au 9.87023 31.3238 21.0769
Au 10.2831 20.016 15.302
Pt 35.4978 22.6663 17.1633
Pt 35.8694 16.3639 17.1425
Au 20.6605 26.3186 10.2702
Au 28.3405 30.5066 41.8445
Au 17.1077 16.888 10.9416
Au 14.1228 17.1709 10.1075
Au 21.701 38.6443 13.5471
Pt 22.3905 17.1589 30.8261
Pt 20.7074 33.1611 27.9787
Au 18.8659 20.8877 35.2555
Pt 32.3332 24.1595 29.1449
Au 30.2572 17.6571 29.4232
Au 23.6829 31.3063 41.9339
Pt 16.4567 21.231 27.9179
Au 30.981 31.9037 42.4838
Au 33.1998 26.3598 27.3605
Pt 39.6586 22.2359 26.8147
Pt 27.6254 30.2104 29.2811
Au 16.2573 34.6766 17.2337
Au 37.6597 13.0973 26.0266
Pt 16.6902 26.4993 22.7246
Pt 21.1781 10.6309 16.9686
Au 20.843 37.0044 9.83417
Pt 6.43785 18.9819 23.021
Pt 39.8148 25.1519 32.8923
Pt 16.056 25.4333 33.1836
Au 17.9287 34.5221 21.6203
Au 17.3848 23.0747 8.78048
Au 31.0536 40.6478 28.9367
Au 37.9056 23.0669 12.2237
Pt 34.0467 16.7309 37.7946
Pt 23.2076 38.8428 15.9754
Pt 13.8682 35.4096 27.2438
Au 21.8306 33.4363 12.0954
Au 25.1301 42.676 22.0212
Pt 15.2134 35.9962 33.9925
Au 27.8613 17.3943 36.7042
Pt 23.4491 12.5597 33.2872
Au 23.9077 31.7783 17.8245
Pt 23.3913 36.7349 17.5068
Pt 23.4233 25.7902 25.4054
Pt 14.9179 35.6725 14.1495
Pt 18.5415 37.0422 29.4878
Au 15.6501 28.5087 9.85472
Pt 14.5305 29.1453 32.0041
Pt 28.8388 23.7872 18.2254
Au 32.8139 35.4216 12.36
Au 36.703 31.5358 17.0652
Pt 25.055 32.4525 39.5575
Au 42.6569 26.7513 28.7698
Au 38.8533 22.1338 36.3156
Pt 27.2653 10.1003 25.5361
Au 12.6918 15.8156 18.1134
Pt 20.9499 30.8985 23.2586
Pt 34.177 25.7375 11.5657
Pt 14.1597 28.1845 29.1403
Au 15.0661 41.3426 20.0283
Pt 25.4966 17.0426 21.9077
Au 6.90783 21.9586 26.0275
Pt 30.9587 18.3089 14.6883
Au 24.1422 43.5026 26.6206
Pt 30.4387 34.8138 20.2025
Pt 37.7155 21.1539 34.1954
Au 10.7729 20.7247 17.8319
Pt 38.3381 29.3712 18.1412
Pt 26.6076 22.6033 36.7188
Pt 29.6064 17.0552 20.9661
Pt 22.3631 11.3977 21.5798
Pt 14.8382 22.3928 25.8748
Pt 40.2858 17.9059 26.2314
Pt 40.3767 19.8586 28.218
Au 30.3481 28.3903 8.85023
Au 30.5034 39.8262 33.8844
Au 30.2687 33.3383 31.3648
Au 18.987 32.0378 16.3403
Au 41.5321 20.886 18.389
Pt 21.297 20.929 36.9807
Pt 19.5664 36.015 34.335
Au 36.2193 10.7305 26.5554
Pt 17.6201 36.7155 26.8809
Au 6.19866 25.4469 29.0566
Au 19.6996 32.1163 10.5181
Au 23.1793 37.928 11.1907
Pt 14.349 23.4191 28.3339
Au 8.66786 26.7461 20.4299
Pt 29.4123 22.024 23.651
Au 18.8348 43.2443 17.8413
Pt 27.4456 17.9645 39.3846
Pt 38.3506 26.3012 22.2161
Pt 32.9279 25.224 15.9198
Au 30.7419 27.6102 6.36437
Au 40.5248 28.0285 22.2251
Au 32.1947 9.51421 23.6949
Au 17.2615 25.4407 20.18
Pt 14.9353 19.2789 28.6535
Au 34.6348 29.0853 40.459
Pt 31.4748 13.7443 14.5476
Au 35.2931 31.9047 10.4272
Pt 35.32 30.544 32.7597
Au 16.1579 19.543 16.2363
Pt 19.3969 19.2909 16.8156
Pt 17.9731 14.8113 12.5646
Au 4.48644 23.6259 27.9538
Au 39.9037 13.1671 27.3938
Pt 25.3953 14.5705 23.5209
Pt 31.4852 28.7941 39.1133
Pt 18.5483 13.9623 24.5302
Pt 26.0089 30.4278 11.3793
Au 10.9374 17.669 16.8064
Pt 21.8668 24.676 34.269
Pt 33.7008 16.3128 18.942
Au 10.8338 37.2687 16.4625
Pt 31.107 15.2028 30.644
Pt 27.6944 19.2965 31.3524
Pt 25.4181 21.8474 40.7547
Au 35.309 11.8831 35.348
Au 37.3337 16.4493 21.6897
Au 33.3207 10.9113 25.824
Au 22.4386 24.1457 10.0327
Au 25.9482 27.8113 10.2551
Au 15.8764 9.25597 31.4228
Pt 18.8511 18.3558 24.8083
Au 34.2962 20.8141 41.8168
Pt 32.4827 30.5612 14.7546
Pt 33.4329 30.2656 38.2459
Au 27.2637 18.0135 42.1122
Pt 19.0479 27.8105 35.7155
Au 33.0934 12.7705 36.5756
Pt 30.8485 21.9374 21.4955
Au 17.3725 30.8688 14.4267
Pt 27.7235 31.3683 26.9834
Pt 36.3877 24.0546 31.1249
Au 41.2469 25.2469 20.4884
Au 12.9027 24.0166 18.5068
Au 12.4815 30.9206 9.99825
Pt 33.2392 16.942 30.5199
Pt 20.7923 29.3907 25.8626
Au 23.9305 35.0823 10.9352
Pt 33.1922 23.654 18.0837
Pt 10.964 25.7072 26.8484
Au 33.7943 12.8971 13.4258
Au 29.098 20.2103 42.7777
Pt 28.997 33.7321 22.1604
Au 17.2752 6.32092 24.9165
Pt 39.0046 17.6394 28.5627
Au 21.4664 14.677 39.4512
Au 18.1218 23.3035 40.6921
Au 41.9939 22.4339 20.7076
Au 26.7685 25.8019 12.1
Pt 23.0991 31.7393 34.7743
Pt 14.5924 19.6158 25.9292
Pt 32.4344 31.1991 35.7922
Au 19.7048 36.4569 22.3452
Pt 25.0615 18.6924 12.6961
Au 24.8391 39.7278 32.5148
Pt 16.5923 22.9794 29.9115
Au 19.1756 8.76487 17.8615
Au 25.6014 16.33 40.6591
Pt 26.0178 9.85666 30.6206
Au 34.6434 35.4275 14.516
Pt 32.025 33.6774 22.1302
Au 34.9177 15.3857 12.8027
Pt 28.6111 25.4032 33.5852
Pt 21.005 25.5666 36.5687
Au 24.3064 35.2202 38.8859
Au 20.8325 27.3647 41.5622
Pt 23.2631 23.5795 23.245
Au 21.0229 37.0351 15.7696
Au 11.7263 19.4472 34.0034
Au 25.7248 32.6106 15.5696
Pt 27.3534 17.3449 29.5995
Au 30.111 24.6725 9.96125
Pt 12.6503 23.6855 30.7419
Au 6.74777 25.3572 21.8531
Pt 34.2973 20.0526 23.954
Au 28.7071 32.1849 43.8865
Pt 31.3491 19.6814 24.5313
Au 26.063 23.1081 8.26913
Au 40.386 22.0601 24.0838
Au 6.77555 20.2226 20.6328
Au 20.5928 29.3412 21.1449
Pt 25.7957 32.2354 33.035
Pt 24.2946 35.6843 22.0908
Au 18.3369 24.9736 10.9153
Pt 12.7999 22.1369 33.9595
Pt 29.238 15.7751 18.2022
Au 22.2971 42.6031 32.5758
Pt 30.172 11.439 23.6469
Pt 15.2504 21.2366 23.5366
Pt 29.8034 29.9218 14.1196
Au 29.8667 35.1273 29.0792
Pt 18.1612 29.5844 26.1418
Au 29.7833 39.3095 36.468
Au 38.1302 16.2655 36.7721
Au 13.7791 39.2678 29.606
Pt 39.1514 30.3238 27.1235
Pt 25.4447 30.8244 35.5869
Pt 18.9816 40.8772 25.4113
Pt 20.6799 32.0816 25.6057
Au 16.0037 41.0288 24.5723
Au 10.5051 28.7751 19.651
Pt 11.9471 28.7548 33.2884
Pt 29.8384 24.706 35.9731
Au 28.2738 15.6099 40.7398
Pt 26.8844 25.8499 21.4738
Pt 11.0865 22.3278 22.7273
Pt 22.5221 21.7983 14.8905
Pt 23.4301 15.177 21.7048
Au 19.0982 33.5929 8.22058
Au 36.832 35.5862 21.5272
Pt 32.4245 16.216 13.7552
Au 37.8054 14.5553 17.2627
Pt 38.9827 31.2321 24.6917
Pt 15.2166 23.1574 19.4953
Au 14.5341 14.684 36.4693
Pt 29.2812 22.2499 37.0071
Pt 24.8477 28.7181 23.9127
Pt 24.0386 26.4027 35.2078
Au 11.3514 29.3782 16.9808
Pt 21.4312 11.1046 26.1055
Au 11.0599 29.1017 11.5554
Au 22.2261 39.2394 36.5481
Pt 33.0249 13.7387 26.9807
Pt 17.2774 18.9193 12.9475
Au 4.35663 25.1251 25.7279
Pt 27.5144 10.3935 22.8122
Au 28.8592 33.3687 41.5106
Pt 36.392 25.1642 13.0481
Au 34.1197 36.9993 16.7136
Au 13.3517 35.0341 35.7444
Pt 21.6402 17.5585 33.6107
Pt 38.7842 31.7741 22.1197
Pt 35.6586 18.1748 30.5356
Au 21.712 44.4907 26.2184
Au 34.3667 34.3609 20.5186
Au 36.1409 36.4662 24.3748
Pt 30.6572 11.4464 16.6464
Au 10.7475 31.1454 32.4558
Au 11.8134 17.074 32.4845
Au 35.9837 12.9201 15.8048
Pt 23.1518 32.8685 29.3213
Pt 34.7323 14.8203 35.9252
Au 18.2486 31.4363 24.1122
Au 25.965 40.4979 23.6826
Pt 11.8172 26.317 34.3241
Au 27.7265 14.8927 25.352
Au 32.3707 37.1464 14.3767
Au 23.983 33.6467 8.5093
Pt 24.0641 32.8638 37.1593
Au 29.1203 19.0106 10.527
Au 32.4565 14.6048 11.6614
Au 43.1003 22.6741 25.3546
Pt 13.0657 30.615 12.8226
Au 20.1299 8.32461 33.1232
Pt 17.3867 13.2698 17.2721
Pt 12.672 24.1517 21.3365
Au 11.2414 13.8405 22.9712
Au 20.6813 39.8606 15.8777
Pt 18.3298 15.6711 17.1262
Pt 22.0836 23.547 31.5701
Pt 39.986 26.9124 29.2462
Pt 30.3543 30.1065 28.0072
Pt 17.8444 26.844 25.3198
Au 21.6025 36.1092 12.4329
Pt 27.547 13.0591 22.8932
Pt 20.2876 9.30072 30.175
Pt 32.3927 22.199 23.9157
Pt 22.718 25.6807 30.1476
Au 13.479 24.8999 25.9881
Pt 21.3882 25.5176 17.4727
Au 24.4714 38.4034 21.7659
Pt 14.4949 18.4317 14.4455
Pt 11.9693 33.1783 14.2924
Pt 34.254 23.7786 22.226
Pt 37.1556 23.6393 28.5688
Au 24.512 39.1138 18.556
Pt 16.7018 18.4548 33.0532
Pt 15.0937 16.9823 25.547
Pt 28.0997 11.119 31.6422
Au 34.6484 19.7121 10.891
Pt 18.8089 11.4697 25.4424
Pt 19.5461 17.5689 12.8508
Pt 30.7558 14.9616 25.6844
Au 35.1138 22.4343 11.5681
Pt 32.0735 28.6376 36.3951
Pt 17.9607 16.3405 23.0428
Au 16.3022 26.701 11.9587
Pt 34.5331 13.892 17.9514
Au 21.5447 38.7886 18.2275
Pt 34.1543 26.9958 35.6828
Pt 14.0765 16.471 20.3357
Pt 15.2091 25.8769 27.887
Pt 25.3015 30.7293 20.1454
Pt 27.6538 28.5702 12.3311
Pt 12.5463 30.0142 27.8523
Au 38.0061 34.7161 26.1112
Au 26.3155 10.4321 35.9629
Au 34.6348 9.03303 21.9121
Pt 26.5689 35.0069 10.0449
Au 19.7926 30.9433 18.8563
Pt 28.3183 26.4108 17.4612
Pt 21.9169 28.3881 28.4552
Pt 36.085 26.8897 26.9051
Au 25.7077 6.82596 22.2638
Au 14.6066 32.6356 18.705
Au 27.9805 29.8125 9.58812
Au 15.8423 19.1099 38.3976
Au 7.71444 19.5312 32.5243
Pt 32.5114 10.7303 21.2843
Pt 23.9883 32.245 10.9163
Pt 13.0494 21.1966 27.3676
Pt 22.1161 14.1931 14.6606
Pt 8.44417 17.3821 23.5476
Au 30.1855 29.5152 43.6082
Pt 17.5027 25.3935 29.0867
Au 20.164 23.2354 5.82727
Au 17.1527 23.9593 17.7322
Au 30.3551 36.9452 12.4062
Au 10.9592 34.3495 31.1053
Pt 17.335 23.2145 32.4911
Au 37.934 22.3986 38.9555
Pt 20.6322 26.7201 25.1415
Pt 26.7324 29.5663 22.0456
Au 19.3338 34.6691 11.2909
Au 29.0515 37.5214 34.5649
Au 9.61311 16.873 19.0924
Au 13.2611 23.1555 13.4265
Au 41.5175 28.861 30.5279
Au 40.5971 25.3778 15.4406
Pt 37.2906 26.5145 29.4464
Pt 14.7767 22.5866 32.0269
Au 42.8344 26.5751 22.4156
Au 7.6912 16.4497 27.824
Au 31.6364 24.342 41.3738
Pt 34.4402 26.7929 14.0296
Pt 37.1491 32.0414 26.3596
Au 43.34 15.3663 28.9846
Pt 30.4306 17.0285 23.5636
Au 16.0109 29.552 12.4094
Pt 19.0231 11.37 18.4445
Au 7.68154 17.6625 20.9061
Au 22.4193 23.3594 43.4005
Au 39.0188 33.5995 20.2127
Au 10.2302 35.8583 14.1209
Au 11.1001 30.4584 35.2143
Pt 15.8977 31.6653 25.865
Au 33.2403 20.5385 26.3315
Au 8.03891 27.1064 14.8454
Au 32.229 29.5858 41.7672
Au 11.2905 14.465 31.3024
Au 24.2534 12.2854 35.8828
Au 34.1505 14.902 15.4222
Au 19.9003 33.8603 39.4577
Au 21.3196 33.0933 17.3884
Au 32.1185 22.1036 42.7342
Pt 32.465 20.0252 22.0943
Pt 12.6878 32.9564 11.7829
Pt 34.5018 16.0967 33.3728
Au 9.44698 17.6938 33.8163
Pt 15.7852 15.7377 32.5413
Au 12.7973 20.4414 13.6726
Pt 35.4951 20.8348 39.1935
Pt 30.1719 25.3685 15.4733
Au 20.0599 29.9759 14.6327
Pt 13.9718 21.3377 29.8707
Au 39.2219 18.8328 37.6053
Pt 28.6261 31.2366 11.9806
Pt 36.4272 20.0411 32.1824
Au 19.4438 11.4975 20.9768
Au 34.3022 23.6647 41.5206
Pt 31.9865 25.9728 13.3913
Pt 25.8622 8.0383 26.4767
Pt 25.8642 25.3883 37.4205
Pt 25.4592 20.252 38.6888
Pt 21.2751 21.7689 27.1897
Pt 18.0013 8.81329 25.1701
Pt 17.7528 16.0903 25.7631
Au 17.3404 27.0111 6.11436
Pt 24.2474 13.838 28.8261
Pt 13.5387 24.7789 33.0822
Au 18.7965 34.3912 25.422
Pt 23.1671 16.952 35.8745
Au 34.9752 10.8263 17.4698
Pt 25.8344 17.1601 34.9842
Au 27.8564 37.668 11.0121
Pt 32.9428 18.6204 12.8694
Au 5.36528 25.9717 31.6281
Au 16.8083 33.6193 9.719
Au 14.4136 14.336 14.0343
Pt 13.6468 22.7915 36.6507
Pt 14.8806 34.2341 11.7962
Pt 13.7918 18.9549 23.4729
Au 29.2639 10.2903 12.692
Pt 26.2838 24.6248 34.8625
Pt 32.6671 27.9364 15.7126
Pt 34.3108 29.7633 23.7277
Pt 22.1233 29.5711 32.7967
Au 35.2096 10.9006 32.6595
Pt 26.5363 27.792 29.0456
Pt 29.0763 23.5822 31.4251
Pt 22.3492 20.655 22.2337
Au 29.8389 23.3996 43.2391
Pt 22.5784 38.2392 31.831
Au 13.3873 16.5585 12.653
Pt 32.8664 20.0214 35.3074
Pt 22.7713 14.9341 34.1887
Au 10.9177 26.1539 18.6989
Pt 28.2949 26.2345 28.0655
Pt 29.221 36.5427 26.8932
Pt 40.6852 24.4859 28.5207
Pt 26.9324 22.191 25.036
Pt 25.6766 9.65507 15.7872
Au 6.95661 28.0184 22.4841
Pt 27.8524 20.1402 37.7496
Pt 40.5544 15.3407 29.0267
Pt 29.5888 12.934 30.5828
Au 20.8293 39.54 11.1998
Au 13.0821 27.925 19.4395
Pt 16.1463 13.8083 34.2169
Pt 37.3415 26.2794 32.5046
Au 16.78 30.2807 38.8588
Au 13.7685 30.383 34.6388
Au 14.1494 29.7998 17.6608
Au 41.4751 28.887 27.5674
Pt 18.5218 17.0847 36.5989
Pt 28.4596 17.5571 25.1565
Au 12.7528 37.8861 18.4574
Pt 27.79 26.7954 40.4856
Pt 29.7052 20.3656 29.658
Pt 38.9122 24.7591 30.5296
Au 18.5528 19.8123 37.633
Pt 28.5297 34.4766 35.739
Au 26.5236 41.2977 26.3111
Pt 22.9046 21.023 39.5313
Au 13.0424 31.3178 25.2444
Pt 23.7202 37.7293 34.6727
Pt 22.142 14.9783 19.1122
Pt 14.1831 19.9961 32.5757
Au 16.8899 20.3797 10.4386
Au 7.34615 18.0121 30.1634
Pt 25.8239 23.7798 22.7718
Au 21.7112 27.7847 5.16397
Pt 28.5023 36.8957 16.4933
Pt 27.6421 20.2801 40.5284
Au 20.8683 13.3746 32.6289
Pt 14.3109 33.6242 15.7513
Pt 18.1441 15.7133 33.9082
Pt 31.7794 26.8764 10.8694
Au 30.4206 21.7783 10.5688
Au 21.1173 6.84908 31.0133
Pt 20.5725 29.8718 38.4181
Pt 28.9254 26.9409 10.7119
Au 21.4572 34.3326 9.47222
Pt 33.4348 32.6567 31.4028
Pt 22.9201 19.3988 31.9203
Au 28.7014 11.4934 36.9846
Pt 19.7538 37.1498 25.0362
Au 38.9626 12.8391 22.6411
Pt 19.9825 18.7032 31.5246
Au 27.105 43.0705 30.1855
Au 22.6559 17.7425 18.6152
Pt 38.4546 24.2715 24.3405
Au 14.0644 17.8048 36.6674
Au 28.5192 35.2803 24.3468
Au 29.2519 22.1464 13.0504
Au 39.0036 30.124 13.2602
Au 39.7856 19.5819 16.6307
Pt 28.6339 11.5378 34.1921
Au 11.6641 26.5481 10.6231
Au 21.9928 21.7969 12.0456
Pt 28.4647 12.3405 25.3988
Pt 33.5931 14.2535 29.6057
Pt 30.2583 30.5175 37.2766
Pt 30.1292 30.0234 34.5876
Au 10.0035 34.0506 21.4568
Au 22.9687 43.1831 24.1024
Pt 35.7563 30.2399 21.4695
Pt 38.8457 20.0943 25.3652
Pt 37.453 24.208 17.5141
Pt 27.1647 27.28 23.6301
Au 43.5123 21.4825 30.3578
Au 27.0151 38.5583 25.4621
Pt 23.8986 35.2754 36.0209
Pt 16.3173 21.0029 33.9252
Au 28.447 41.643 28.278
Pt 33.0386 17.6977 23.6744
Au 16.0039 31.6711 16.5443
Pt 27.8196 16.1508 22.8045
Au 36.46 34.037 37.9278
Pt 36.7308 29.7796 28.2025
Au 30.0777 14.3128 10.3075
Au 21.8919 22.931 20.4428
Au 23.1497 32.1686 32.0705
Au 13.7086 14.3461 22.0318
Au 37.153 20.4413 12.3051
Pt 27.3228 24.2049 29.4546
Pt 28.0171 15.569 15.148
Pt 32.1431 23.9093 11.4649
Au 7.87836 30.5519 22.9972
Pt 33.718 33.7807 27.1976
Au 27.4804 23.2035 5.96851
Pt 27.8408 20.6043 35.0008
Au 5.01295 20.9857 27.8397
Pt 20.899 9.36339 22.2984
Pt 40.8116 26.5745 26.5621
Au 34.3791 9.05236 27.7018
Au 24.287 14.6428 38.9644
Pt 34.2046 21.8513 37.1568
Au 10.2426 31.7104 11.6815
Au 19.627 32.6877 13.6522
Au 10.3218 34.4151 11.7951
Pt 39.989 15.214 31.4523
Au 12.7824 28.285 36.1579
Au 5.86127 20.3906 30.3103
Au 15.651 34.9366 20.0444
Au 21.8366 7.66001 28.2572
Au 18.3614 41.4256 15.5133
Au 25.0651 21.4037 6.47457
Au 35.5076 27.6883 16.4125
Pt 11.2831 27.7051 28.9966
Pt 33.7317 28.8866 31.3556
Pt 21.4691 34.789 25.4755
Au 24.6817 42.3571 31.2236
Pt 28.6076 9.11312 29.8848
Pt 24.1153 28.3284 30.6897
Pt 32.2301 30.257 18.9011
Pt 28.9094 23.7409 21.402
Pt 8.97788 24.6254 28.4932
Pt 29.5075 19.4614 22.6227
Pt 24.3448 8.66915 28.5262
Au 39.9546 24.082 38.1095
Au 24.457 39.1375 13.474
Au 37.6032 29.3516 15.5089
Au 13.3734 28.7816 24.3309
Au 26.1347 33.0183 6.76107
Pt 20.738 31.7983 33.3786
Pt 23.9271 10.4152 19.8044
Pt 18.4991 12.6804 14.2008
Pt 38.2321 29.3187 22.9825
Au 25.263 28.0871 13.6186
Au 26.168 20.3204 42.9707
Pt 17.9806 22.8116 37.9511
Au 39.8915 27.7614 14.2048
Pt 28.7361 17.6295 13.2164
Au 10.5469 25.6028 30.5944
Pt 21.0329 16.6116 37.7295
Pt 31.904 31.101 23.6643
Pt 26.8037 14.8876 28.2205
Pt 13.4737 36.4093 29.7667
Pt 18.6408 39.041 23.4674
Pt 31.3013 34.9227 26.5885
Pt 27.9139 26.562 35.7956
Au 30.2194 34.9102 17.5474
Au 17.4864 9.05732 33.7048
Au 43.3188 19.795 28.1189
Pt 12.4861 35.4694 15.6463
Pt 23.9305 24.8983 20.7987
Au 17.3504 22.9799 15.1193
Pt 24.631 12.7653 14.8248
Au 6.08848 22.7806 21.1771
Au 22.2039 24.7373 5.00329
Pt 40.8552 20.6291 30.6923
Au 33.1368 31.42 8.66497
Pt 21.7021 16.0971 12.8254
Au 12.5963 37.8251 14.1233
Au 29.8371 35.511 14.6538
Pt 26.8768 28.8898 31.4614
Au 27.8166 37.6588 13.7676
Au 22.7675 10.0109 34.9243
Au 9.77621 18.1036 28.7996
Pt 30.6234 24.181 24.6603
Au 42.9851 17.8767 26.0561
Pt 34.1052 29.9895 16.9499
Au 39.2415 30.4653 35.7087
Pt 38.1294 24.8881 20.0038
Pt 20.3822 35.1167 29.939
Au 39.3894 14.4595 35.0313
Au 12.285 33.5925 20.1503
Pt 26.7828 11.1935 13.8563
Au 29.6683 35.7344 9.9862
Pt 27.9337 29.1003 17.4822
Pt 25.3661 18.4029 19.206
Au 42.061 23.7727 18.2028
Au 36.1193 15.1376 38.32
Pt 33.6432 35.9016 25.5384
Pt 31.2354 17.2806 18.6547
Pt 27.203 12.5272 29.5139
Pt 33.0013 24.3381 32.0293
Au 14.0596 37.8122 32.061
Pt 13.9112 25.5027 35.7475
Pt 35.2876 13.5879 33.2349
Pt 17.073 38.9646 25.8546
Pt 37.3273 19.5446 21.0931
Au 21.6217 30.3103 16.8884
Pt 19.3522 24.5461 15.9967
Au 17.7141 23.3916 35.1488
Pt 18.6153 38.56 33.9095
Au 21.3716 22.3279 8.09332
Pt 39.7327 27.2972 19.6346
Au 39.8914 12.6626 30.1178
Au 39.9162 15.3652 22.1483
Pt 26.5101 18.1611 10.5966
Pt 21.6782 14.8589 29.736
Pt 23.366 26.7598 18.9835
Au 35.655 10.1919 30.004
Pt 18.3223 32.1193 26.9263
Pt 34.9632 26.3344 31.4092
Au 14.1549 40.4129 22.585
Pt 12.4743 17.6988 25.4728
Au 11.6261 18.0351 14.077
Pt 30.4043 31.1871 39.9601
Pt 26.6804 16.5531 17.3533
Au 24.8191 9.23305 13.2675
Au 38.0081 33.3746 35.6843
Pt 23.1835 18.9721 37.6191
Pt 15.3347 17.9635 30.9866
Au 9.33332 25.3797 35.6911
Pt 30.7419 24.8964 27.1232
Pt 23.3051 26.8636 32.6401
Au 20.104 33.5678 23.18
Pt 15.9978 20.3393 19.0314
Au 27.132 38.6826 36.8341
Pt 27.7373 25.7203 14.6409
Pt 22.9882 13.2944 23.562
Au 28.9578 35.2785 39.5703
Pt 28.55 29.4732 39.0701
Au 41.4252 25.768 36.3962
Au 20.9004 35.9844 18.3748
Pt 15.8525 38.4563 23.4773
Pt 21.7233 37.4087 29.3446
Pt 27.5076 19.0135 20.9214
Au 27.6824 39.7542 15.5916
Pt 22.5576 35.227 28.0946
Au 31.4576 40.0222 24.2747
Au 42.1378 20.9519 33.0371
Au 13.1119 27.0498 16.7086
Au 28.7588 40.6951 24.754
Au 38.7795 29.1576 38.0705
Au 43.3339 18.4919 23.3946
Pt 28.6266 18.5219 18.7094
Pt 21.1389 38.3032 34.1534
Pt 21.5141 23.9834 25.5905
Au 38.2698 32.0599 29.0384
Pt 18.3011 32.1699 32.4031
Au 14.1608 26.1835 9.45369
Au 12.81 23.8708 10.1386
Pt 26.4169 16.3726 12.7659
Au 24.335 39.0555 29.6903
Au 9.41391 32.7161 23.7379
Au 11.9357 18.3736 19.3474
Au 41.4935 22.7756 36.1622
Au 22.8542 29.636 19.3904
Pt 25.0588 36.4305 19.5829
Pt 29.8572 26.1241 22.8644
Au 18.8142 30.064 12.1993
Pt 36.5655 31.4293 23.7975
Au 30.5534 31.1727 9.76692
Au 20.9532 11.027 11.1979
Pt 31.5527 15.6448 28.1532
Pt 17.4664 16.0899 28.455
Pt 25.1543 18.0298 30.8715
Au 27.5481 7.74731 16.7908
Pt 41.829 22.1533 28.3174
Pt 23.4347 8.75305 22.1265
Pt 15.2262 26.9267 25.4234
Au 8.00173 21.5579 18.4652
Pt 20.9936 20.2428 33.6618
Au 41.7456 15.3602 26.6625
Au 9.76123 28.674 22.2723
Au 35.9715 17.8498 12.3635
Au 22.739 41.131 14.4906
Pt 23.4179 28.981 35.0367
Au 19.281 7.19065 23.1591
Pt 24.8498 29.6378 33.0199
Au 37.15 13.5681 36.4465
Pt 41.0267 23.2256 31.2449
Au 10.3362 35.981 26.7848
Au 19.5503 38.0771 20.0754
Pt 27.3172 27.9538 19.7014
Pt 32.3804 13.0516 24.2388
Pt 24.1584 14.5951 12.8948
Au 40.5469 33.1107 23.8884
Pt 29.7758 22.9568 28.7901
Au 37.1933 27.8439 39.8372
Au 17.3391 30.7557 9.92044
Au 15.9642 12.0336 15.373
Au 15.0691 35.924 22.7067
Au 15.0732 9.77552 34.355
Pt 20.0504 17.3483 18.4573
Pt 36.054 27.8973 22.9369
Pt 30.7053 10.41 19.324
Au 18.539 26.1098 40.742
Au 26.1533 16.3329 8.68597
Au 11.5338 36.9628 31.9007
Pt 39.5848 23.6521 21.9467
Au 9.88401 34.5537 16.4071
Au 22.8355 7.79017 33.011
Pt 16.5637 26.4474 35.5114
Au 42.3274 28.018 20.2333
Au 30.1093 7.37664 19.8812
Pt 33.7629 26.4081 22.5433
Au 27.2499 36.5794 28.8101
Au 29.0565 36.6844 37.2283
Pt 21.5509 12.217 19.0637
Au 37.6405 31.5769 37.7194
Pt 18.9999 20.3784 27.0721
Pt 35.7172 20.6269 19.1662
Au 12.9429 19.4347 16.3524
Au 17.1619 7.54702 27.5143
Pt 14.348 27.4822 34.0308
Au 24.7743 42.1062 33.9018
Pt 28.9498 28.1727 21.6566
Pt 10.8044 19.899 26.5544
Pt 18.0344 39.0597 31.3796
Pt 20.9148 11.6323 14.4793
Pt 31.3469 22.3112 30.9158
Pt 9.30742 17.782 26.0841
Au 26.3951 28.1645 5.31695
Au 21.169 42.4437 19.0195
Au 23.2003 36.3394 8.66025
Au 26.4748 7.25083 29.3884
Au 17.12 41.8002 27.1214
Pt 19.3139 11.5148 28.0728
Pt 28.6154 23.1274 15.4561
Au 35.1418 29.494 9.30072
Pt 28.3752 31.1639 16.0114
Au 8.5766 27.857 17.8653
Pt 35.3923 19.2529 28.1773
Pt 41.586 20.4078 25.9445
Au 23.3431 5.87943 21.8739
Au 16.4433 10.8374 17.9542
Au 14.377 37.4425 16.141
Pt 39.3922 27.6521 31.7666
Pt 26.8669 16.7281 32.4304
Au 19.1565 31.4331 40.165
Pt 24.8205 23.2417 38.611
Au 23.8975 26.1176 11.8032
Pt 28.6745 28.0424 33.224
Au 20.0322 43.8348 24.1119
Pt 15.9382 32.7059 31.3973
Pt 18.558 28.2103 29.9249
Au 7.29733 27.8429 31.9675
Au 26.7488 35.1195 33.4053
Pt 31.4988 12.8607 28.9552
Pt 37.1505 28.4421 35.9332
Au 16.8647 25.7809 15.6052