2057
Atoms. Timestep: 20454
Au 24.7774 24.967 25.4001
Au 27.1538 25.0083 24.0078
Au 27.1233 24.8976 26.9034
Au 22.397 25.0067 23.9826
Au 22.4601 24.8459 26.8451
Pt 23.3327 27.3542 25.2862
Au 26.1375 27.331 25.3573
Au 23.4268 22.5926 25.2857
Au 26.3089 22.6459 25.356
Au 24.8895 23.4556 27.7447
Au 24.6636 26.4267 27.6443
Au 24.7815 23.5723 23.0586
Au 24.7346 26.4843 23.0771
Au 29.4459 25.0813 22.4592
Au 29.5749 25.0576 25.4925
Au 31.0921 22.5794 28.383
Pt 20.0802 24.9834 22.4285
Au 19.9665 24.8264 25.3778
Au 20.1867 24.6657 28.3121
Pt 21.8635 29.6241 25.3202
Pt 24.6757 29.7256 25.2277
Au 27.5422 29.6599 25.3168
Au 22.0507 20.2194 25.0912
Au 24.9157 20.2091 25.1431
Au 27.7779 20.3367 25.1901
Au 24.875 21.7748 29.9346
Au 25.0528 25.0032 30.1223
Au 24.607 27.9739 29.8422
Au 24.7756 22.1661 20.6867
Au 24.7479 25.0915 20.6972
Pt 24.7112 27.984 20.7907
Au 28.1516 24.891 31.0751
Au 27.0122 28.0799 31.3317
Au 27.1532 23.6451 21.5818
Au 27.0765 26.5751 21.5994
Au 22.5566 23.2575 29.251
Au 22.3068 26.5521 29.1361
Au 22.433 23.5481 21.5631
Au 22.3533 26.4639 21.531
Au 28.593 27.4021 23.9013
Pt 31.0089 26.9734 27.6547
Au 20.9894 27.3641 23.7719
Au 20.968 27.2073 26.6135
Pt 28.6931 22.6999 23.8506
Au 28.7127 22.5819 26.7656
Au 21.034 22.5829 23.8099
Au 21.0587 22.3907 26.7303
Au 23.144 28.8665 27.5784
Pt 25.9326 28.9456 27.5541
Au 23.5348 21.0021 27.5647
Pt 26.3897 21.0018 27.573
Au 23.2653 28.8701 22.9561
Pt 26.1266 28.9023 23.0388
Pt 23.4152 21.0946 22.8338
Au 26.2863 21.2273 22.9024
Pt 31.6373 25.1033 20.6937
Au 31.8246 24.9215 23.8672
Au 34.3617 25.091 25.2015
Au 33.653 22.5613 26.155
Pt 17.8381 24.8919 20.9706
Au 17.6247 24.804 23.8653
Au 17.5448 24.3999 26.85
Au 17.827 24.3879 29.6361
Au 20.3432 31.8467 25.341
Pt 23.1964 31.9789 25.2384
Pt 26.0554 32.0689 25.1765
Pt 28.8336 31.9765 25.2967
Au 20.7768 17.765 24.8748
Au 23.5801 17.7571 24.9378
Au 26.4136 17.8232 24.9801
Au 29.3141 17.9285 25.118
Au 24.7791 20.2521 32.2175
Au 27.2692 23.064 29.24
Au 26.5006 28.3887 34.158
Au 24.5103 29.4251 32.067
Au 24.8098 20.8248 18.2645
Au 24.735 23.6246 18.2647
Au 24.7129 26.5069 18.335
Au 24.683 29.3001 18.368
Au 29.4335 24.7788 28.432
Au 27.5758 20.5441 32.2506
Pt 32.9035 29.0957 34.5492
Pt 33.5049 27.8528 29.8549
Au 26.2051 25.767 32.7353
Au 29.4559 23.6307 19.9598
Au 27.1285 22.219 19.11
Au 29.4168 26.5791 19.9702
Au 27.1001 25.1009 19.1315
Au 27.0655 27.9922 19.1551
Au 20.0695 22.7627 30.4689
Pt 22.2958 21.282 31.3181
Au 19.7264 26.6335 30.4015
Au 21.6748 25.0127 31.2732
Au 21.7898 28.5115 31.3658
Au 20.1267 23.5079 20.0676
Pt 22.4122 22.0731 19.1588
Pt 20.0358 26.358 19.9808
Au 22.3566 24.9953 19.132
Au 22.3527 27.927 19.1866
Au 30.0895 29.7063 23.8253
Au 30.9847 27.4315 22.2021
Au 30.0291 29.6241 26.7149
Au 31.2028 27.4407 25.1032
Pt 32.0184 24.7069 26.6934
Au 19.5439 29.7365 23.6416
Au 18.6709 27.3585 22.146
Pt 19.3461 29.5568 26.518
Au 18.567 27.2906 25.0127
Au 18.5183 26.912 27.8031
Au 30.1424 20.3311 23.5915
Au 30.9388 22.7008 22.2398
Au 30.2288 20.2565 26.5066
Au 31.0669 22.5764 25.1888
Pt 31.3691 20.3911 30.226
Au 19.673 20.1087 23.5983
Au 18.6863 22.5449 22.3045
Pt 19.6916 19.8739 26.5484
Au 18.6253 22.2938 25.2134
Au 18.7027 22.0494 28.0766
Pt 23.0508 30.446 29.7688
Au 21.4874 31.2916 27.7517
Au 25.8725 30.5202 29.9151
Au 24.5038 31.3329 27.4955
Au 27.3634 31.3007 27.5937
Au 23.5606 19.2764 29.8115
Au 22.1455 18.5492 27.336
Au 26.4394 19.4147 29.8018
Au 25.0214 18.5366 27.438
Au 27.8406 18.5787 27.4415
Au 23.2712 30.4417 20.6032
Pt 21.881 31.173 22.9712
Au 26.2358 30.2928 20.6563
Au 24.7324 31.305 22.8997
Au 27.6939 31.2226 22.9352
Pt 23.408 19.7514 20.4577
Pt 22.0646 18.7543 22.6367
Pt 26.248 19.7904 20.4742
Pt 24.8911 18.7706 22.6504
Au 27.7699 18.9048 22.7009
Au 30.3948 18.2959 28.5243
Au 28.5008 27.3548 26.819
Au 28.6338 21.2698 21.3551
Au 28.6154 28.9028 21.4543
Au 21.0922 20.6279 28.9252
Au 20.5921 28.8379 28.8541
Au 21.0634 21.0694 21.3664
Au 20.8824 28.9364 21.3139
Pt 33.8924 25.1265 19.109
Au 33.9238 24.8959 22.1098
Pt 35.9076 22.9343 24.4129
Pt 36.226 23.3707 26.987
Pt 33.317 23.6817 33.1385
Au 15.506 24.763 19.6063
Pt 13.6792 26.6147 21.2084
Au 15.1254 24.1874 25.4406
Pt 15.0558 23.9351 28.2317
Pt 15.6707 23.8721 31.0048
Au 18.9275 34.1424 25.5146
Au 21.7284 34.3464 25.2736
Pt 24.5444 34.2911 25.2107
Pt 27.4471 34.3932 25.1338
Au 28.8376 33.5456 27.5695
Au 19.4484 15.3 24.7473
Pt 22.2682 15.2395 24.7162
Pt 25.0309 15.3394 24.6978
Pt 27.8945 15.4956 24.8776
Pt 30.8248 15.6407 25.0194
Au 25.8188 19.2319 36.9388
Au 23.7918 23.5242 31.9757
Pt 22.6912 24.9853 33.9745
Au 23.7149 26.7008 32.198
Au 22.3787 31.7707 34.7295
Au 24.8139 19.4553 15.8802
Pt 24.7682 22.2257 15.7819
Au 24.7563 25.0081 15.8325
Au 24.6655 27.8673 15.861
Au 24.607 30.6347 15.9044
Pt 31.0514 22.5445 33.6258
Au 28.4189 23.5525 33.5821
Au 27.6789 22.9944 36.2511
Au 29.5583 22.3941 31.1053
Au 26.0157 21.0858 34.7219
Au 25.3961 23.948 34.639
Au 31.9067 25.3983 29.5342
Au 27.048 26.5802 29.0587
Pt 29.7294 25.4826 37.0213
Pt 31.6975 23.6846 18.3173
Pt 29.4547 22.2213 17.5379
Pt 27.1394 20.8526 16.6634
Pt 31.7144 26.5487 18.3496
Au 29.4366 25.0934 17.5455
Au 27.0925 23.6258 16.6437
Pt 29.4334 27.935 17.5627
Au 27.0648 26.4983 16.6983
Pt 27.0987 29.2775 16.6863
Pt 17.7449 22.3053 31.755
Pt 19.8979 20.7713 32.5996
Au 22.3123 19.5777 33.5019
Pt 17.2492 26.4212 31.3984
Pt 19.0816 24.674 32.3355
Pt 21.1349 23.0249 33.03
Pt 19.024 28.6362 32.2873
Pt 20.699 26.7664 33.2128
Pt 20.5823 30.4266 33.3886
Au 17.8166 23.3829 18.5923
Pt 20.1238 22.076 17.6738
Pt 22.446 20.7599 16.7424
Pt 17.7588 26.2456 18.4975
Pt 20.0238 24.8939 17.6349
Au 22.3942 23.5112 16.7327
Au 20.0168 27.7546 17.5933
Au 22.3559 26.3974 16.7055
Au 22.2763 29.2496 16.7021
Au 31.0327 32.1876 23.647
Au 32.4289 29.8267 21.8804
Au 33.407 27.3758 20.6873
Au 31.546 27.5952 31.8993
Au 32.9642 29.8934 24.5226
Pt 33.3359 27.1617 23.5752
Au 31.6227 31.7378 26.4196
Au 32.8942 28.8076 27.0188
Au 35.1639 28.1141 25.467
Au 17.9346 32.0951 23.7877
Au 16.9394 29.7608 21.9782
Au 16.3052 27.2265 20.5965
Pt 17.718 31.926 26.6399
Au 17.0393 29.6887 24.8411
Au 15.2888 24.5858 22.3728
Au 16.6863 29.1833 27.5045
Au 16.1457 26.7218 26.1285
Au 16.0149 26.5989 28.9559
Au 31.6679 17.9808 23.3808
Pt 32.4818 20.3735 21.8917
Au 33.1355 22.7344 20.5238
Au 31.9565 17.969 26.2497
Au 32.7107 20.287 24.7467
Pt 33.4294 22.5542 23.3945
Au 33.0563 18.0263 29.2908
Au 32.6613 20.3645 27.7524
Pt 32.4034 22.6984 30.8851
Au 18.4057 17.6261 23.3091
Au 17.2868 20.0088 22.0071
Pt 16.4197 22.3766 20.781
Au 18.3791 17.421 26.2853
Au 17.2921 19.7411 24.9999
Au 16.2565 22.2088 23.6622
Au 17.2859 19.5267 27.8845
Au 16.2005 21.8707 26.5935
Au 16.3109 21.7287 29.3837
Au 22.9566 31.7862 32.0914
Au 21.6496 33.1644 30.1508
Au 19.8175 33.5756 28.0792
Au 25.6532 32.6959 32.1598
Au 23.9342 34.8366 31.4276
Au 22.9544 33.7388 27.6385
Pt 24.48 32.903 29.6955
Au 26.0335 33.752 27.5776
Au 29.672 34.4997 30.1895
Pt 23.5854 17.5631 31.926
Au 22.2861 16.8181 29.5371
Au 20.8717 16.0411 27.1001
Au 26.4489 17.7492 31.9706
Pt 25.1316 16.8618 29.6537
Au 23.6726 16.012 27.1571
Pt 27.8835 16.7178 29.5154
Au 26.4603 16.0715 27.1943
Pt 29.2497 16.0543 27.2418
Au 23.2984 31.813 18.153
Au 21.403 32.6224 20.5036
Au 20.3212 33.4539 22.9776
Au 26.2257 31.5489 18.1468
Au 24.9933 32.8272 20.4059
Au 23.1917 33.6168 22.6834
Au 27.8509 32.7243 20.5251
Au 26.2005 33.716 22.7555
Pt 28.9191 33.6927 22.922
Au 23.439 18.3792 18.0559
Au 22.0452 17.3699 20.2779
Pt 20.819 16.2498 22.4775
Pt 26.2904 18.4367 18.0867
Pt 24.9089 17.405 20.2705
Au 23.5693 16.3645 22.5115
Pt 27.7709 17.5462 20.2446
Au 26.4099 16.4552 22.5025
Au 29.3113 16.6008 22.6276
Pt 31.8466 18.2925 31.7181
Au 29.5103 29.8982 31.3624
Pt 30.4459 16.2948 30.4592
Pt 32.8737 33.5093 33.1621
Au 30.3317 20.1425 32.8727
Au 28.2881 29.1776 28.9942
Pt 30.9326 21.2619 19.7139
Pt 31.011 28.8497 19.7427
Au 30.1558 18.9245 21.0915
Au 30.0988 31.2183 21.2115
Au 28.6005 19.8688 18.8901
Au 28.636 30.3178 18.9487
Pt 18.7163 20.2155 30.2531
Pt 17.9829 28.6262 29.8632
Pt 19.7788 18.1634 28.7115
Pt 18.7557 30.9683 28.7803
Pt 21.0647 18.8193 31.066
Pt 20.4122 30.7547 30.7631
Pt 18.7707 21.0304 19.8631
Pt 18.5235 28.7187 19.7026
Pt 19.7001 18.655 21.0932
Au 19.1896 31.2264 21.2304
Pt 21.0724 19.6916 18.9365
Au 20.8168 30.3764 18.8907
Pt 36.2939 25.0755 17.6387
Pt 36.0809 25.2186 20.5644
Au 38.1792 22.8511 22.943
Au 38.728 22.6957 25.7398
Pt 37.4815 22.3897 29.4901
Pt 36.1952 20.1255 32.3076
Pt 13.3662 24.7471 18.1632
Au 12.8089 24.1145 20.8269
Au 12.9086 23.7436 23.7467
Pt 12.7501 23.4564 26.6718
Pt 12.7143 23.096 29.3377
Au 13.2579 23.7041 31.974
Au 17.243 36.0515 26.114
Au 18.7104 38.1771 24.5283
Pt 21.5639 37.9235 25.2248
Pt 25.7807 36.1538 23.7301
Au 29.0489 36.6455 25.7171
Au 32.616 35.7766 20.7135
Pt 18.2453 12.8344 24.6632
Pt 21.0007 12.8812 24.5239
Pt 23.7261 12.9282 24.5039
Au 26.523 13.0733 24.5077
Au 29.3911 13.2665 24.5989
Au 32.3425 13.4383 24.6649
Au 17.4331 15.0952 39.7601
Pt 26.0711 23.118 39.6969
Au 22.6493 23.806 36.3599
Pt 20.3167 26.9252 40.5187
Au 23.9953 29.0736 36.4865
Au 24.3975 31.9196 36.6164
Au 24.7763 18.0237 13.4985
Pt 24.7385 20.8654 13.4247
Pt 24.7127 23.5831 13.3916
Au 24.6558 26.4206 13.4094
Pt 24.5952 29.184 13.3957
Pt 24.6183 31.951 13.5139
Pt 33.1004 20.8687 32.8402
Au 28.7689 21.0326 34.8597
Au 28.8527 20.7699 28.9667
Au 23.4747 22.0205 34.1739
Au 33.7752 23.6077 28.6739
Pt 34.1051 31.0689 36.2238
Au 26.2775 24.9185 37.4136
Au 24.9375 22.4882 37.0916
Pt 30.3744 25.1413 34.4505
Au 27.6218 25.8086 35.1932
Au 22.6705 28.8451 34.035
Au 30.8615 24.7994 31.9107
Au 28.553 28.7987 43.1279
Au 24.6001 26.6421 34.9881
Pt 33.9214 23.693 16.7853
Au 31.6704 22.352 15.8767
Au 29.4098 20.8494 15.1089
Au 27.1177 19.4875 14.2647
Au 34.0093 26.5119 16.6823
Pt 31.6692 25.1554 15.9286
Au 29.3577 23.6896 15.0556
Pt 27.0354 22.2733 14.1891
Pt 31.6702 27.9185 15.9136
Au 29.3342 26.486 15.0945
Pt 27.0127 25.0104 14.1522
Au 29.3698 29.2436 15.064
Au 26.9794 27.8158 14.2226
Au 26.9831 30.6056 14.2686
Pt 15.3888 21.9764 33.0072
Pt 17.511 20.4297 33.8451
Au 19.8808 19.1143 34.8174
Au 22.3284 17.9056 35.8867
Au 14.9677 26.1599 32.6014
Pt 16.6695 24.3007 33.5595
Pt 18.682 22.7306 34.2671
Au 20.9778 21.627 35.3553
Au 16.3047 28.7087 32.7176
Au 17.9802 26.6207 34.0571
Au 20.2239 24.7091 35.0671
Au 17.8743 30.4554 34.284
Pt 19.6947 28.553 35.0303
Pt 21.3641 29.8762 36.5239
Au 15.4763 23.2631 17.1309
Pt 17.7574 21.987 16.1661
Au 20.1352 20.7058 15.2477
Au 22.4611 19.3272 14.3556
Pt 15.506 26.1233 17.0039
Au 17.7327 24.8117 16.0871
Au 20.0647 23.4665 15.2143
Pt 22.4205 22.1338 14.2728
Pt 17.7881 27.6812 15.9669
Au 20.0457 26.3238 15.1487
Au 22.4012 24.9434 14.2664
Pt 19.9937 29.1062 14.9519
Pt 22.2942 27.802 14.2086
Au 22.2598 30.6462 14.2699
Pt 34.9838 37.0211 21.0208
Pt 34.5568 31.4969 21.8815
Pt 34.8983 29.6763 20.0744
Au 35.7164 27.4103 18.9315
Au 32.9947 34.0812 26.2653
Au 33.6086 32.6315 24.0032
Au 35.9418 30.8029 24.3872
Pt 37.1988 27.7147 21.2817
Pt 30.3576 33.8956 34.4212
Pt 38.9411 27.0377 26.3249
Au 35.9904 26.1814 23.2525
Au 32.345 30.3387 31.6967
Pt 36.468 26.0448 26.7917
Au 33.9515 26.2936 27.7076
Pt 16.0946 33.7171 25.0714
Au 15.0833 31.3953 23.4949
Pt 14.9642 29.492 20.0759
Pt 14.016 27.3849 18.7516
Pt 16.2356 33.9845 27.759
Pt 13.3868 33.1626 25.1102
Au 16.2053 27.27 23.3529
Pt 11.3992 28.3137 21.4261
Pt 15.1927 31.3991 26.2329
Au 14.4678 28.8401 25.2952
Au 13.8459 26.3584 24.2686
Pt 13.895 29.5771 27.7809
Au 13.6864 26.4404 27.2454
Au 13.7467 25.6596 30.0728
Pt 33.1163 15.7378 23.0823
Au 33.9784 18.1158 21.6625
Pt 34.6855 20.4322 20.2269
Pt 35.3986 22.7827 18.9388
Pt 36.852 17.2798 28.4744
Au 34.3781 18.1026 24.4502
Pt 35.1195 20.358 22.9641
Au 35.6902 22.6749 21.7069
Pt 33.1513 13.771 32.8252
Au 34.7191 18.3393 27.2222
Pt 35.3169 20.5206 25.6568
Pt 34.1267 20.0721 30.5632
Au 35.1253 21.2573 28.3283
Pt 35.6811 17.1402 30.8078
Pt 17.2009 15.0405 23.1821
Pt 16.0565 17.2208 21.7856
Pt 14.8111 19.466 20.5496
Pt 14.1182 22.088 19.3937
Pt 16.8857 14.8243 25.984
Pt 16.0878 17.1164 24.602
Au 14.9932 19.462 23.3965
Au 13.981 21.7473 22.0718
Au 15.9907 16.9067 27.5509
Au 14.8524 19.2138 26.3377
Au 13.8633 21.4973 25.0339
Pt 14.7368 18.9776 29.1065
Pt 13.8318 21.2304 27.8468
Au 13.9926 21.1409 30.6479
Pt 21.353 34.5104 35.7699
Au 21.3657 34.05 33.0993
Au 19.7861 35.1124 31.0191
Au 17.8849 35.843 28.9722
Pt 24.9392 37.3505 32.5062
Au 23.9257 34.0054 34.2135
Pt 21.9974 35.8042 29.2978
Au 20.3259 36.1441 27.0473
Pt 26.6117 34.7297 30.4362
Pt 24.6751 35.7182 28.8933
Pt 23.2178 36.3123 26.6711
Au 28.0022 35.9972 28.505
Au 26.0566 36.3253 26.4488
Au 32.2553 36.8287 25.7818
Au 23.5555 15.914 34.1453
Pt 22.2742 15.13 31.692
Au 21.0025 14.2807 29.2452
Pt 19.6347 13.5231 26.896
Au 24.8031 18.4649 34.3219
Pt 25.1541 15.2345 31.8125
Au 23.7927 14.3213 29.3997
Pt 22.3665 13.4783 26.9265
Pt 28.0264 15.4309 31.8964
Au 26.5744 14.3587 29.4563
Au 25.124 13.5869 26.9658
Pt 29.3141 14.2172 29.2856
Pt 27.9069 13.646 26.999
Pt 31.9889 11.3964 26.6137
Pt 23.362 33.1829 15.728
Au 23.0236 34.4444 19.5504
Pt 19.0286 34.2081 20.7752
Pt 17.739 34.972 23.1681
Au 26.2053 32.8786 15.6853
Pt 25.0501 34.1457 17.832
Pt 21.4478 35.7677 21.4123
Pt 20.0816 36.0661 23.767
Au 27.7874 33.7541 17.9263
Au 24.5682 35.8134 21.3871
Au 26.1985 38.2581 21.9165
Au 26.8729 35.3342 20.1166
Au 28.4196 36.3398 22.8293
Au 30.3396 34.2308 25.3551
Pt 23.4094 16.9224 15.6656
Au 22.049 15.9238 17.8204
Pt 20.8058 14.8723 20.0871
Pt 19.5074 13.8408 22.3272
Au 26.2746 17.0188 15.644
Pt 24.9001 15.9664 17.8286
Au 23.5844 14.9645 20.0546
Pt 22.287 13.8749 22.2911
Au 27.7756 16.1271 17.8669
Pt 26.3683 15.119 20.0603
Pt 25.0265 13.9969 22.2545
Au 29.34 15.3182 20.0941
Au 27.8717 14.1366 22.2949
Au 30.8325 14.3434 22.3865
Pt 34.276 18.2624 32.6836
Pt 32.921 26.1854 33.7611
Au 33.1144 16.005 31.1542
Pt 32.1542 33.1817 36.371
Pt 31.7915 15.8327 28.1312
Au 30.0847 31.482 28.9343
Au 29.7225 17.3079 33.1311
Pt 31.3084 27.2613 35.6172
Au 29.0314 18.7167 30.8596
Pt 30.6815 35.6252 32.5233
Au 27.6254 18.5795 34.4343
Au 26.5038 33.1785 34.9309
Au 33.172 21.3323 18.0812
Au 33.2431 28.8039 18.1085
Pt 32.425 18.9896 19.4312
Pt 32.5828 31.1159 19.4665
Pt 31.6785 16.7305 20.792
Au 32.1194 33.1216 21.3239
Pt 30.9091 19.8607 17.3088
Au 30.8932 30.2524 17.3458
Pt 30.1403 17.5795 18.6062
Au 30.296 32.7243 18.8601
Au 28.6145 18.4579 16.4519
Pt 28.5988 31.5643 16.42
Au 16.2852 19.7645 31.4779
Pt 15.378 29.1106 29.9924
Au 17.3648 17.7034 29.9578
Pt 16.016 31.4888 28.8701
Pt 18.4712 15.6196 28.3553
Au 17.9067 33.2381 30.0593
Au 18.6075 18.3182 32.4355
Pt 17.5174 30.7631 31.2767
Au 19.798 16.3404 30.8085
Au 19.2071 32.4943 32.3896
Au 21.0524 17.041 33.2841
Pt 19.7394 32.4006 35.1609
Au 16.3293 20.8331 18.476
Pt 16.358 28.5943 18.0204
Au 17.3216 18.5304 19.6577
Pt 17.0231 30.949 19.3704
Au 18.4582 16.1096 20.9319
Pt 16.8247 32.7009 21.4545
Au 18.7335 19.6568 17.4606
Au 18.5652 30.1082 17.2182
Au 19.6963 17.235 18.6874
Au 18.9809 32.6216 18.6661
Pt 21.0823 18.2757 16.5497
Pt 20.71 31.4406 16.2585
Au 38.5736 25.2196 15.9512
Pt 38.3427 25.8472 19.2897
Pt 38.4064 25.3894 21.999
Au 37.9309 25.0828 24.7473
Pt 38.54 24.2788 27.9055
Pt 38.2794 25.0914 30.5418
Pt 39.1773 17.0673 29.9245
Au 10.1818 23.9533 19.6944
Pt 11.51 26.4189 19.2733
Au 11.5358 25.992 22.8457
Au 10.5567 23.1595 25.1703
Au 10.0913 22.7725 27.9305
Pt 9.11307 21.1535 30.2386
Pt 11.0342 23.9822 33.2898
Pt 15.1746 39.7337 29.5782
Pt 20.6494 38.3397 22.5674
Au 24.3332 38.1957 24.9051
Au 25.1402 40.4091 23.4818
Pt 27.0205 41.0166 21.6403
Pt 30.7301 38.2889 24.1504
Au 39.5338 35.9075 25.678
Pt 16.978 10.4398 24.5764
Pt 19.7344 10.5041 24.3622
Pt 22.4417 10.5592 24.2666
Pt 25.1718 10.603 24.2447
Au 27.9798 10.6962 24.2008
Au 30.821 10.9201 24.2168
Pt 33.4726 9.09855 26.0558
Au 23.3331 20.322 36.3826
Pt 27.0883 21.1413 38.2728
Pt 21.8858 21.8976 38.1196
Au 21.8408 26.9448 35.8075
Pt 28.1315 29.2908 38.4715
Pt 27.1929 26.8006 41.8194
Pt 24.426 30.4082 40.912
Au 24.8139 16.6716 11.117
Pt 24.7391 19.4692 11.0478
Au 24.7124 22.1904 11.0015
Au 24.6713 24.9968 10.9975
Pt 24.6078 27.758 10.9718
Pt 24.5302 30.5097 11.0578
Au 24.4668 33.2719 11.2149
Pt 34.4767 17.1982 35.2369
Au 26.361 22.9096 32.0016
Pt 30.4513 22.9682 36.1518
Au 25.5379 17.9506 41.7249
Au 23.7896 26.0421 37.6131
Pt 34.1005 26.9772 36.1158
Pt 34.5155 28.9673 38.2202
Pt 32.4966 24.5562 35.9253
Au 24.991 30.8184 34.2676
Au 39.4592 26.3698 36.897
Au 28.7364 28.3167 35.8254
Pt 30.1729 30.7815 36.7021
Au 28.9324 26.9699 33.0072
Au 24.289 25.8441 43.9799
Au 27.1699 30.6455 36.1445
Pt 32.3263 26.2043 37.9207
Pt 24.3832 28.2268 39.1576
Au 27.1568 30.5255 32.5219
Au 26.3019 27.7428 37.1237
Pt 25.6999 30.4807 38.4677
Au 36.1551 23.7604 15.1379
Au 33.9124 22.3381 14.1776
Au 31.6631 20.885 13.3782
Pt 29.401 19.4645 12.6572
Au 27.1114 18.0303 11.9208
Au 36.2726 26.6208 14.9647
Au 33.8398 25.115 14.2454
Pt 31.5755 23.7071 13.3343
Au 29.3307 22.2613 12.5958
Pt 27.0682 20.8742 11.8071
Pt 33.9419 27.9855 14.1032
Au 31.5763 26.5527 13.4684
Au 29.2698 25.1193 12.5787
Pt 27.0038 23.6548 11.7518
Pt 31.6371 29.3192 13.3701
Pt 29.2252 27.8684 12.5686
Pt 26.9407 26.453 11.7228
Pt 29.2489 30.589 12.5831
Au 26.8989 29.1988 11.7619
Pt 26.9447 31.9449 11.8527
Pt 13.0628 22.016 34.2773
Pt 15.2748 20.3323 35.2626
Pt 16.0768 18.0144 33.8637
Au 19.0707 17.0516 41.6374
Pt 17.5122 17.1427 38.0087
Au 12.4336 26.5995 33.4244
Pt 13.6923 24.6028 34.5531
Pt 15.4825 22.9828 35.5302
Pt 17.5677 21.5441 36.3347
Pt 17.8796 23.6783 40.9832
Au 14.3474 28.0253 34.7757
Pt 15.7746 25.9517 35.6739
Pt 17.6562 24.3564 36.3815
Pt 19.7223 23.1246 37.4127
Au 15.67 30.3737 36.18
Pt 17.2488 28.2668 36.1529
Pt 19.1906 26.5247 36.675
Pt 20.2495 29.8899 39.5573
Au 20.2811 29.0847 42.4257
Pt 23.9335 32.8686 39.3108
Pt 13.178 23.5704 15.7159
Au 15.3609 22.0023 14.6041
Pt 17.7697 20.6229 13.7712
Au 20.2016 19.2846 12.7872
Pt 22.4784 17.9168 11.9203
Pt 12.9344 26.5324 16.1043
Pt 15.4035 24.7559 14.5963
Pt 17.7954 23.3837 13.6843
Pt 20.1686 22.0651 12.7497
Pt 22.4377 20.7632 11.8554
Au 15.4195 27.5084 14.5909
Au 17.7079 26.1719 13.5673
Au 20.0797 24.841 12.7284
Pt 22.4107 23.529 11.8446
Au 17.7606 29.0058 13.4057
Pt 20.0304 27.6203 12.6056
Pt 22.3273 26.3338 11.7945
Pt 19.8738 30.4714 12.4727
Au 22.2434 29.1319 11.8397
Au 22.0973 32.018 11.9745
Au 34.7999 34.1826 21.6692
Au 37.23 37.5371 18.7197
Au 36.156 32.235 19.868
Pt 36.9838 30.0287 18.4927
Pt 37.8117 27.558 17.1745
Pt 34.0021 35.3641 23.842
Pt 35.7136 33.4869 25.3647
Pt 36.9176 33.0362 22.9189
Au 37.2174 30.4674 21.7771
Pt 38.7593 28.4958 19.4736
Au 31.1798 29.036 29.3274
Au 34.5231 31.2417 26.6095
Au 35.0785 28.8338 22.6374
Au 37.6933 28.2504 24.0205
Pt 35.0929 29.9137 30.7791
Au 37.6843 29.4738 26.6138
Pt 39.8437 28.5959 28.2899
Pt 37.8597 26.975 28.7974
Au 35.6132 28.5674 28.2497
Au 35.1814 22.6188 30.963
Au 15.461 36.3345 23.9582
Au 11.8993 33.8237 22.6299
Au 11.6687 32.8156 19.8658
Au 12.4591 30.1943 19.9312
Pt 11.8391 28.6722 17.8795
Pt 14.3049 35.4139 26.2276
Au 12.2695 31.1366 22.8623
Au 7.86223 32.1346 25.0012
Au 14.0698 28.9627 22.4837
Pt 10.0433 30.8087 21.2859
Pt 13.7766 32.6601 27.9678
Au 12.4029 30.716 25.7592
Pt 9.77868 30.3738 23.9363
Au 11.8793 28.5249 24.1184
Pt 12.8296 30.5328 29.8609
Au 11.2899 28.3029 26.8496
Au 11.4397 25.8132 25.593
Au 12.3479 27.8895 29.384
Au 11.4025 25.2198 28.3561
Au 11.07 25.9581 31.0969
Pt 34.5634 13.4234 22.7734
Au 35.3513 15.7614 21.3016
Au 36.2901 18.1454 20.0146
Au 37.0121 20.4211 18.6055
Au 37.6731 22.7268 17.2327
Au 33.5061 15.7572 25.9132
Au 35.6929 15.726 24.0464
Au 37.072 18.1053 25.7392
Au 37.6325 20.3903 21.3285
Au 37.9101 23.1694 20.0888
Pt 38.2658 15.5038 24.9465
Pt 36.1243 15.4866 26.7002
Pt 38.9892 18.7157 27.8931
Au 37.6245 20.4944 24.2737
Pt 37.1938 14.9278 29.7758
Au 40.4933 13.6215 27.0323
Pt 37.5262 20.7691 27.1539
Pt 35.0071 15.7113 33.078
Au 36.7782 19.6047 29.6617
Pt 37.978 18.2094 31.7913
Au 18.0108 11.5288 22.1941
Pt 14.5468 15.1495 23.3452
Pt 12.9865 17.3365 19.8772
Au 10.9252 16.2143 18.2538
Au 11.8945 22.346 17.9211
Pt 15.7627 12.7203 23.4667
Pt 14.0746 14.0525 25.4815
Pt 13.5175 17.3502 22.6404
Pt 12.345 19.4065 21.7219
Pt 12.5519 19.7509 18.833
Pt 14.8893 14.2412 27.8906
Pt 13.8495 16.7775 25.772
Au 12.5116 18.9144 24.6287
Pt 11.5127 21.2398 23.5135
Pt 13.842 16.4479 29.1485
Au 12.2374 18.3492 27.6257
Pt 11.548 20.8184 26.3895
Au 12.3564 18.5235 30.7097
Pt 11.5034 20.6006 29.1507
Au 11.6456 21.3246 31.9776
Pt 22.0608 36.4628 32.0601
Au 18.7921 37.9302 36.3838
Au 21.2476 36.9511 36.9799
Au 18.0243 37.1054 32.0345
Pt 15.6135 37.3381 27.919
Pt 25.3611 36.1252 35.3291
Pt 20.404 38.2956 32.4082
Au 18.5929 39.2989 34.0233
Pt 19.9827 37.5613 29.8366
Pt 18.5053 38.1283 27.2649
Pt 27.2521 39.0948 32.0783
Pt 23.4567 37.8615 30.2473
Au 21.8337 38.4068 28.0295
Pt 23.1786 40.209 26.4274
Pt 26.1804 37.5588 30.0986
Pt 28.7613 38.2847 29.9281
Au 24.746 38.3479 27.8177
Pt 31.1351 36.9356 30.197
Au 30.8002 35.4556 27.808
Pt 34.4286 38.5566 25.8934
Pt 21.1383 15.4595 35.569
Au 22.0455 13.4941 33.9105
Pt 20.8815 12.6461 31.4544
Pt 19.7838 11.7846 29.0709
Pt 18.4692 11.0713 26.8206
Pt 26.0466 14.4021 36.2108
Pt 24.7997 13.5351 33.9512
Au 23.5492 12.6394 31.5962
Pt 22.4333 11.6786 29.1662
Pt 21.1435 11.1067 26.7005
Pt 27.5681 16.7997 36.5002
Au 26.2497 12.6769 31.5793
Au 25.1264 11.6436 29.1806
Pt 23.8191 11.1184 26.6563
Pt 27.7181 11.0007 33.3151
Au 28.256 6.92656 28.3196
Au 26.5734 11.1769 26.6636
Au 27.9049 11.7346 29.1402
Au 37.2512 8.84352 22.135
Pt 29.3081 11.288 26.6512
Pt 23.2804 34.5273 13.468
Au 21.2675 33.5762 17.4967
Pt 17.8601 35.4126 18.5482
Pt 16.4783 35.3306 20.9494
Pt 17.1317 37.7208 22.3592
Au 26.2037 34.2168 13.2236
Pt 25.0464 35.4796 15.4054
Au 23.3159 37.1247 19.3354
Pt 19.0268 36.7775 20.9567
Au 23.3143 38.3935 21.8978
Pt 27.7043 35.0909 15.3421
Pt 22.8736 35.5882 17.031
Pt 25.6877 38.288 19.3027
Au 22.9385 36.2062 23.6524
Au 29.1482 36.0551 17.847
Pt 28.2992 37.6219 20.2743
Au 24.4662 40.6085 20.696
Pt 30.6784 37.5788 21.4812
Pt 28.8715 39.2376 22.541
Au 31.2439 35.385 23.1317
Pt 23.4191 15.5655 13.2826
Pt 22.1033 14.5038 15.4409
Pt 20.8121 13.472 17.6433
Au 19.3905 12.5245 19.8967
Au 19.613 9.11374 21.8865
Pt 26.2896 15.5954 13.2119
Pt 24.8942 14.5457 15.3713
Au 23.5812 13.5137 17.5696
Pt 22.2706 12.5081 19.8318
Pt 20.9601 11.5095 22.0797
Au 27.7669 14.6988 15.3654
Pt 26.351 13.6877 17.5543
Au 25.0687 12.6014 19.7953
Pt 23.7313 11.5663 22.0398
Au 29.3678 13.8771 17.5461
Au 27.8778 12.8289 19.7828
Pt 26.4749 11.6189 22.0047
Au 30.7781 12.9362 19.8149
Au 29.3383 11.7768 21.9964
Au 32.2689 11.8998 22.0546
Au 32.5407 11.68 34.4251
Au 30.6739 32.5242 31.8071
Pt 34.7657 13.8447 30.7055
Au 33.2483 35.7149 37.3661
Au 26.4782 9.1439 35.0133
Pt 30.4539 35.18 36.7324
Pt 33.2408 13.5785 27.6272
Pt 33.3822 35.7642 28.5036
Pt 35.5497 22.1475 36.4826
Au 30.3386 29.2347 33.8639
Au 30.4713 9.88595 33.4575
Pt 34.4541 33.3473 37.678
Pt 30.6491 13.6711 27.0414
Pt 32.6204 34.8849 30.9665
Pt 27.6269 15.0028 38.3262
Au 28.9909 31.5721 34.1187
Au 28.0858 8.39902 32.8262
Pt 28.2262 36.4729 31.7461
Pt 28.7803 19.5149 39.7149
Au 29.5637 27.0048 30.1445
Pt 35.4232 21.3243 16.4569
Au 35.5386 28.9066 16.3824
Pt 34.6321 18.9908 17.8047
Au 36.163 33.5161 17.3409
Pt 33.8508 16.6935 19.0996
Au 33.8643 33.6133 19.1192
Au 33.0184 14.3938 20.5879
Au 29.7592 35.0239 20.5537
Au 33.1174 19.9451 15.6344
Au 33.1675 30.2107 15.5758
Pt 32.3736 17.5856 16.9927
Pt 34.6877 31.2086 17.6818
Pt 31.6194 15.3227 18.3186
Au 32.3978 32.5453 16.9777
Pt 30.9067 18.4498 14.8498
Au 30.827 31.584 14.7592
Pt 30.1591 16.1452 16.1622
Au 30.0603 33.9593 16.1805
Pt 28.6532 17.0442 14.0219
Pt 28.5588 32.9212 13.9156
Au 13.8316 19.5529 32.9795
Au 13.5745 28.6251 31.8741
Pt 12.63 15.6237 31.6559
Au 14.9094 31.4932 31.3499
Au 16.1743 15.2155 29.943
Au 15.7089 35.2755 32.8675
Pt 17.38 13.1163 28.3595
Au 15.5946 36.8384 30.6249
Au 14.8797 17.2839 31.512
Au 14.4098 30.6311 33.8819
Au 18.4146 16.5292 34.8845
Au 16.4257 32.6478 33.4218
Au 18.5502 13.8616 30.6563
Au 14.1138 37.6785 32.9457
Pt 17.4733 18.8556 36.0871
Pt 18.9254 30.3766 37.0922
Pt 19.6845 14.6044 33.1123
Au 18.3853 34.7425 33.5661
Pt 20.0218 17.6538 37.1426
Pt 21.8635 32.3916 37.244
Pt 14.0711 20.8452 16.8366
Pt 14.0858 29.0021 16.5437
Pt 14.8998 18.3376 18.0968
Pt 14.6626 31.1436 18.027
Pt 16.1578 16.1256 19.2017
Au 14.2637 32.141 20.7226
Au 16.7722 13.8145 20.7745
Au 14.7087 34.0529 22.7329
Au 16.3414 19.5427 15.9356
Au 16.2976 30.0708 15.5736
Pt 17.3919 17.2052 17.1373
Pt 16.8538 32.2927 16.8564
Pt 18.4495 14.7878 18.4944
Pt 16.05 33.4899 19.0506
Au 18.8015 18.2279 15.0114
Au 18.5688 31.5711 14.6735
Pt 19.725 15.7956 16.2627
Au 18.7951 34.0216 16.2479
Pt 21.1039 16.8151 14.1242
Au 20.9037 33.4011 14.3095
Pt 40.5436 25.3725 13.9542
Pt 42.0729 21.7773 19.756
Pt 41.3564 22.6136 26.6694
Pt 39.8936 21.4222 28.4086
Pt 39.1073 20.3907 30.7254
Pt 36.0115 24.9285 29.3245
Pt 36.7051 29.3977 32.7953
Au 34.0129 25.4679 31.2508
Au 8.64848 25.4172 13.1939
Au 6.7479 23.7225 19.0296
Pt 10.4698 23.5274 22.3245
Pt 9.01037 25.0109 23.9722
Au 6.08106 24.3762 26.704
Pt 10.449 23.3515 30.659
Au 7.08109 22.8673 31.1113
Au 12.8383 24.2887 39.2644
Pt 15.2915 40.9892 25.0967
Au 16.9404 41.8034 20.5898
Pt 19.8843 40.6128 23.6314
Au 21.5272 40.7557 21.1734
Au 27.176 38.306 24.5522
Pt 29.1232 39.6574 25.9087
Au 37.1875 37.8206 26.1864
Au 36.5011 39.8777 24.1747
Au 16.7157 6.09996 23.4642
Pt 21.1406 8.16027 24.0817
Au 22.4759 5.78033 23.7369
Pt 25.3406 8.72495 26.255
Au 25.3322 6.72715 28.3019
Pt 26.6771 8.26832 23.8977
Pt 29.4902 8.41158 23.8294
Au 32.4906 7.19759 21.388
Au 26.5395 15.5287 40.8954
Pt 26.3616 20.256 40.7244
Au 22.4184 21.2311 43.2691
Pt 23.4386 23.6801 39.3921
Pt 18.7856 27.993 38.7025
Au 31.9281 26.9209 42.1077
Au 29.2629 23.0457 43.1397
Pt 28.4082 34.6451 38.514
Pt 24.8293 15.353 8.77852
Pt 24.7749 18.0764 8.69409
Pt 24.7308 20.8216 8.5593
Au 24.6571 24.9917 6.20446
Pt 24.6811 26.381 8.60602
Pt 26.8578 30.5869 9.40053
Pt 24.5406 31.903 8.77051
Pt 24.466 34.6833 8.97479
Au 39.7084 21.5952 35.6276
Pt 33.4438 19.299 36.8885
Au 36.1903 18.5597 36.9222
Pt 29.7696 21.4554 38.1167
Au 29.5331 12.97 38.8718
Pt 24.2234 18.0503 39.1007
Au 33.2572 30.7422 28.9417
Au 40.6732 29.3848 34.9042
Pt 34.0517 23.7994 37.9865
Pt 28.4924 22.0443 40.5431
Pt 22.8103 26.0225 40.3591
Au 33.926 17.6356 38.8707
Pt 34.7547 19.9028 34.7877
Pt 32.9674 25.2624 40.2801
Au 26.7719 22.2636 42.6812
Pt 30.7789 23.6634 41.1302
Au 31.7367 16.0621 39.378
Pt 36.6764 30.1652 37.1041
Pt 35.4203 29.064 35.1089
Au 36.5228 22.9767 39.0634
Au 35.5331 24.867 40.6563
Pt 30.6249 30.2319 39.3317
Pt 27.9665 26.5754 39.0264
Au 26.0504 27.9704 43.9397
Pt 28.7838 33.0339 36.4034
Pt 30.2143 27.8658 38.054
Au 27.9043 32.3147 30.3847
Pt 38.3818 26.6139 13.2008
Au 36.1397 22.2763 12.5028
Pt 33.8637 20.8248 11.6762
Pt 31.6217 19.4944 10.9837
Au 29.3255 18.0943 10.2816
Pt 27.1028 16.6683 9.52276
Au 40.7041 28.1072 13.0944
Au 36.0952 25.1177 12.5684
Pt 33.8283 23.6646 11.6154
Pt 31.6152 22.2269 10.8491
Pt 29.3443 20.8865 10.1579
Au 27.0232 19.4889 9.39306
Pt 36.1792 28.0035 12.3785
Au 33.8358 26.4823 11.7621
Au 31.5951 25.056 10.9162
Au 29.2792 23.672 10.1651
Au 26.9842 22.2442 9.32901
Au 33.889 29.349 11.5794
Au 31.4894 27.8972 10.9718
Pt 29.1949 26.4847 10.1254
Pt 26.9669 25.0587 9.35645
Pt 33.1686 31.6695 13.2027
Au 29.2134 29.2435 10.0852
Pt 26.9272 27.8109 9.29519
Au 31.78 33.1805 9.75915
Au 29.2566 32.0431 10.2146
Pt 26.8163 33.3063 9.60043
Au 9.13152 17.6493 33.9979
Au 8.72467 20.2602 34.7518
Au 12.8309 15.8611 36.4371
Au 18.504 10.9295 35.9574
Au 24.4902 23.0417 43.9837
Pt 22.3521 16.3288 38.2975
Pt 17.2275 20.0528 38.6019
Au 13.0831 27.1111 39.3145
Pt 19.6798 20.2936 37.3315
Au 22.3839 24.0058 42.3838
Au 16.7105 17.9389 40.4037
Pt 21.9168 21.5547 40.6427
Pt 10.4659 31.4732 30.7351
Pt 15.2816 24.2692 37.9199
Au 15.2556 25.3618 40.3829
Pt 18.6744 25.1556 38.9964
Pt 20.7068 23.9138 40.1912
Pt 12.9729 29.9447 36.3788
Au 15.404 28.1656 40.355
Pt 16.6104 26.5411 38.2967
Au 19.3313 31.6041 41.668
Au 23.6183 29.3515 43.3343
Au 13.8089 30.0708 38.9959
Au 17.9248 29.2946 41.0284
Pt 24.5953 27.4543 41.7624
Au 24.5175 32.8952 42.0071
Pt 21.6845 27.933 38.3559
Au 10.4256 23.2526 12.7094
Pt 13.2856 22.398 11.3898
Au 15.3359 20.4367 12.3575
Au 17.8403 19.1685 11.3597
Pt 20.282 17.8182 10.3783
Pt 22.5055 16.5381 9.52105
Pt 10.9895 24.772 17.1735
Au 13.1483 24.3518 13.1108
Pt 15.6357 23.3146 12.0956
Au 17.8546 21.9246 11.276
Au 20.0678 20.6167 10.2444
Au 22.4316 19.3767 9.44827
Au 13.0226 27.1558 13.351
Au 15.3721 25.9951 12.0115
Pt 17.8411 24.7086 11.169
Pt 20.17 23.4353 10.3523
Pt 22.4352 22.1303 9.41781
Au 17.507 30.3282 10.7803
Au 19.9721 27.4721 7.66098
Au 20.0693 26.2178 10.1976
Pt 22.3591 24.8685 9.44118
Au 19.9124 30.2437 7.81875
Au 17.6713 28.6572 8.61585
Pt 22.2875 27.7018 9.41776
Au 19.758 31.9017 10.0011
Au 22.19 30.5098 9.42137
Pt 22.1517 33.2976 9.59701
Au 36.8359 36.3333 32.6306
Au 39.0676 36.2913 20.458
Pt 38.1485 33.7328 20.6733
Au 41.1371 31.5836 18.1038
Pt 39.3179 29.8488 17.213
Pt 39.996 27.506 15.6824
Au 35.5588 35.8948 35.2856
Au 34.7018 41.916 23.3183
Pt 39.3287 34.9486 22.956
Au 42.1718 28.4659 22.4347
Pt 40.2982 26.9673 20.9023
Pt 40.4812 24.2135 20.6642
Pt 37.6132 33.3465 29.4122
Pt 37.0811 35.4938 24.5423
Pt 38.6249 30.8097 24.2509
Pt 39.6899 29.3555 22.1543
Au 42.4796 26.4168 24.5544
Au 32.1329 33.2501 28.8775
Au 35.0965 33.6112 28.1708
Au 41.7743 31.2945 21.0748
Au 42.8969 23.66 24.6935
Pt 39.0221 31.0507 28.5654
Pt 37.3904 32.1685 26.8237
Au 40.5802 28.9641 25.1808
Pt 37.6489 23.2984 34.905
Au 42.1671 23.378 29.2551
Pt 36.0545 27.2534 30.805
Pt 12.8968 36.3427 22.934
Au 10.0516 37.3336 25.5996
Au 11.6203 37.16 20.7134
Au 10.0707 34.8319 20.5504
Pt 9.58798 29.6354 16.6079
Pt 10.1527 27.1006 16.5984
Au 13.0643 41.7717 26.4394
Pt 11.7552 34.2628 27.3997
Au 9.41924 35.9067 27.8546
Pt 9.44346 33.0167 22.7976
Au 7.43796 30.0287 19.8302
Pt 9.60937 28.3684 19.3183
Pt 13.985 35.2972 28.7832
Au 7.67101 34.2322 29.3315
Au 7.19373 29.2589 24.5375
Pt 8.74247 28.7226 22.0883
Pt 9.5938 26.2997 21.1791