2057
Atoms. Timestep: 20433
Au 30.1038 22.4855 24.1361
Au 25.8958 22.7256 27.3275
Au 20.8608 15.8008 27.2777
Au 22.1832 28.1219 29.1063
Au 23.5133 22.4715 29.6669
Pt 25.4343 33.5447 24.7201
Au 25.3944 24.4664 15.0623
Au 19.3612 20.907 21.7431
Au 20.4124 23.3529 22.9903
Au 17.8948 21.6265 18.9821
Au 24.6986 27.3695 35.1391
Au 22.7641 26.0662 17.4963
Au 19.3077 32.5952 25.0115
Au 21.4613 26.3563 26.6189
Au 21.3219 30.8909 22.7405
Au 22.048 21.0513 23.5631
Pt 11.0006 33.3148 19.6207
Au 21.5199 31.1595 25.5828
Au 20.5704 28.9234 27.0418
Pt 13.6923 32.6235 28.932
Pt 22.603 35.9247 23.1017
Au 31.2838 19.8856 23.416
Au 21.7773 26.323 21.2469
Au 20.4223 22.6272 14.0017
Au 22.6995 18.0494 28.304
Au 17.6623 20.5427 26.34
Au 20.3302 20.34 31.2043
Au 20.897 26.2154 31.2007
Au 20.4833 27.9454 14.0484
Au 15.4322 23.9153 22.6354
Pt 23.752 35.577 25.5306
Au 31.7121 24.1947 31.8079
Au 24.4659 26.8061 38.5455
Au 17.785 28.9809 14.1996
Au 25.1957 24.4249 24.6883
Au 21.7785 15.4806 23.38
Au 16.0631 26.975 25.2309
Au 18.9141 34.7058 9.82785
Au 24.0665 27.3674 19.7245
Au 32.0794 21.558 30.9323
Pt 35.3733 29.49 33.9807
Au 16.7635 30.0101 16.723
Au 28.5885 20.1401 24.2355
Pt 31.8867 23.1352 16.9436
Au 24.7098 21.9704 23.2635
Au 18.8595 27.4963 25.397
Au 17.963 30.0559 21.1388
Au 17.6115 29.7326 30.314
Pt 24.5889 29.0189 23.8675
Au 22.3499 19.6403 26.0346
Pt 20.0844 12.9059 27.2465
Au 16.5871 31.4203 19.117
Pt 22.5765 35.3195 28.1042
Pt 14.7984 30.2337 11.4252
Au 25.6991 16.1296 15.7422
Pt 33.1841 21.0458 11.1969
Au 28.0979 33.7201 18.9146
Au 31.1259 19.0053 31.0987
Au 30.9183 23.4334 28.926
Pt 10.465 25.2338 20.0002
Au 21.44 23.7434 17.7325
Au 16.4302 29.7024 25.311
Au 14.3244 23.0086 27.484
Au 19.067 32.2208 17.5206
Pt 10.1893 23.8581 25.3173
Pt 23.5881 37.8206 27.2337
Pt 23.9952 31.3716 22.5862
Au 24.434 19.8428 21.5041
Au 23.2018 19.3816 15.887
Au 27.5752 17.7589 14.4496
Au 28.2973 19.9153 17.1502
Au 16.2878 23.1446 32.2355
Au 24.3596 19.2673 24.276
Au 14.9235 28.6564 29.2682
Au 20.1675 26.8887 33.8381
Au 27.8261 22.1728 12.6411
Au 20.1378 39.6772 14.5698
Au 26.4319 28.302 12.1388
Au 25.4427 26.4735 17.1492
Au 29.4084 17.8291 29.2398
Au 32.7953 31.0907 30.3874
Pt 35.6571 27.1878 38.4049
Pt 34.7699 21.2676 35.752
Au 18.4825 24.5376 30.8589
Au 28.9677 20.2523 14.4084
Au 22.8301 21.1248 13.4506
Au 27.215 24.2523 17.2519
Au 24.448 23.8346 17.5519
Au 26.8241 27.9179 19.0881
Au 14.8166 24.5477 25.1721
Pt 18.4968 16.7174 28.6434
Au 17.6684 25.7934 27.2186
Au 22.5646 25.3876 29.2113
Au 24.3193 31.125 25.4041
Au 18.4712 27.4793 16.674
Pt 19.4932 26.1338 10.4845
Pt 9.93948 27.9001 21.2325
Au 26.3694 29.0339 16.5435
Au 17.42 27.8179 22.9184
Au 29.1112 24.1134 26.1406
Au 32.2929 33.1882 27.5012
Au 25.025 24.5614 33.7239
Au 25.8002 27.2284 25.5139
Pt 34.7968 18.9186 16.8316
Au 20.4487 23.8606 20.287
Au 18.9872 29.5948 18.4512
Pt 20.7611 28.9087 35.5959
Au 15.2549 20.9518 29.3089
Au 19.904 25.0288 28.5684
Au 32.1071 18.5119 28.3682
Au 26.177 21.599 17.8667
Au 26.8307 25.3605 27.1113
Au 22.4949 22.1457 21.1243
Pt 34.9569 15.301 31.6895
Au 20.2458 26.1579 18.6967
Au 16.9623 19.5324 20.6428
Pt 14.4945 17.8818 24.1516
Au 21.5116 28.6493 24.3703
Au 22.6767 33.2246 24.0346
Pt 12.7614 29.0675 20.8317
Au 18.7671 36.3835 24.8992
Au 22.8592 26.8383 33.2884
Au 27.8694 30.7832 28.7717
Au 26.4378 32.4848 27.0801
Au 27.1051 16.526 28.5171
Au 20.0692 18.4968 26.938
Au 25.9552 19.5902 32.0057
Au 22.3989 13.9492 25.9097
Au 30.6381 16.6262 27.0284
Au 23.7976 34.8934 12.8659
Pt 22.8911 28.6802 21.9534
Au 25.8004 27.463 6.46924
Au 16.3771 31.3183 23.1519
Au 28.0365 30.7274 18.505
Pt 31.0328 20.603 16.2842
Pt 27.7595 19.2333 12.1235
Pt 36.0176 20.5029 14.8311
Pt 23.1427 12.9335 23.1492
Au 20.5773 21.3841 19.1027
Au 34.1589 19.0607 30.3175
Au 26.2605 20.3338 25.7974
Au 23.2604 24.5447 19.8251
Au 27.2472 28.3146 23.3745
Au 18.7819 18.0675 22.2973
Au 18.359 32.5146 28.9109
Au 16.3109 25.6126 20.5996
Au 23.1453 33.8608 8.68024
Pt 34.0678 31.9268 15.349
Au 30.6712 25.9483 21.1365
Pt 29.9165 18.1549 15.9309
Pt 35.1717 26.8153 33.7598
Pt 30.5571 26.2731 34.5358
Au 16.0865 27.4292 18.2324
Pt 12.9228 31.6869 18.8995
Au 20.0771 28.4403 21.9388
Pt 14.7365 18.5757 35.2374
Pt 14.9354 21.5244 34.1809
Au 16.1641 33.3907 21.338
Au 21.9651 33.1834 21.257
Pt 24.5565 36.6574 29.3265
Pt 22.725 39.3485 32.6703
Au 23.3151 26.5712 24.3206
Au 18.2151 27.531 19.9078
Pt 19.6706 17.4339 17.512
Pt 18.7516 15.2867 22.3084
Pt 33.9512 16.2309 23.5692
Pt 37.8087 14.548 26.9714
Au 20.2618 23.7365 32.8204
Au 23.9757 25.1073 26.9165
Pt 27.3218 26.1046 38.4563
Au 23.7835 21.951 25.8366
Au 24.4186 24.7897 36.4761
Au 23.1742 28.3563 12.4564
Pt 24.9912 24.1331 10.4364
Au 26.443 35.1753 12.2875
Au 22.9109 39.3644 14.2104
Au 23.0209 28.5354 6.85134
Pt 35.9792 19.1377 36.9827
Au 31.0757 23.4616 34.7802
Au 24.2143 19.8098 34.1369
Au 23.0529 24.3773 31.731
Au 25.1997 24.5685 29.4385
Au 15.7733 28.4964 31.9935
Au 23.2483 21.5245 18.4365
Au 28.7488 27.1317 32.6418
Pt 31.6906 27.8216 36.5111
Pt 34.2035 19.4896 13.0574
Pt 22.037 10.9785 16.578
Pt 26.1204 16.8347 11.9549
Pt 36.4607 25.7014 16.5295
Au 25.0045 29.7159 14.1529
Au 30.1224 25.1364 16.5701
Pt 30.2295 22.9357 9.65709
Au 21.9813 19.1194 11.8952
Pt 32.727 25.59 16.0608
Pt 17.3693 22.6948 35.0643
Pt 18.1304 18.6374 31.1927
Au 18.1791 22.1469 24.0593
Pt 13.4599 28.01 33.1872
Pt 18.5982 32.454 33.9885
Pt 13.5871 22.687 36.2476
Pt 12.4163 25.0824 26.4819
Pt 18.9004 32.0981 38.0301
Pt 12.7005 35.6346 25.4093
Au 21.8429 37.267 12.3986
Pt 19.3461 25.4522 7.8474
Pt 17.6293 32.4945 10.2638
Pt 14.4011 29.5675 18.5779
Pt 16.8301 29.914 9.8852
Au 15.8669 27.4968 15.5394
Au 17.2489 36.5175 10.9727
Au 15.6874 34.3373 10.16
Au 25.6241 39.8932 14.3677
Au 26.0327 25.17 19.6221
Au 29.99 27.9856 22.6943
Au 34.4607 29.4057 21.9623
Au 28.2391 24.5583 14.6982
Au 34.4416 23.3643 22.242
Pt 34.5303 23.6224 16.6861
Au 28.1385 32.5998 24.8945
Au 29.2675 18.5149 21.5331
Au 30.135 20.2923 19.0475
Au 18.9441 29.9728 24.0671
Au 21.4768 28.5903 19.4847
Au 21.6958 34.6612 10.8478
Pt 16.2846 33.0326 30.7587
Au 15.6736 28.6175 20.8566
Au 17.7764 32.0706 14.821
Au 13.1637 27.0082 24.698
Au 18.6114 30.7117 26.8978
Au 13.982 26.4369 30.6724
Au 33.2224 22.5348 33.4553
Pt 24.3236 12.2456 17.6571
Au 32.7337 21.0901 18.4332
Au 23.2721 17.4474 20.2668
Au 27.0177 19.5602 28.4938
Pt 31.8902 20.68 13.6671
Au 30.4382 19.5389 26.2626
Au 28.0436 23.5565 28.8939
Pt 29.8062 16.8363 32.3454
Au 19.1871 20.0529 16.9807
Au 24.008 17.2228 17.443
Pt 13.0312 19.2318 17.5621
Au 24.4041 15.0223 24.4366
Au 7.10164 23.4994 16.7199
Au 20.1747 30.4342 13.0897
Au 19.697 16.8262 24.7834
Au 20.6197 26.0683 23.8177
Au 17.0656 25.1615 16.2704
Au 12.5721 27.1955 28.4332
Au 22.8839 29.9629 34.4143
Au 18.2839 34.4415 26.8065
Au 27.284 22.6845 24.6008
Au 23.9649 30.0014 30.4403
Au 20.4321 34.2471 30.3858
Pt 21.7607 36.5603 32.7364
Au 23.4 28.5554 26.4117
Au 25.3091 30.0574 27.9852
Pt 23.8667 22.6644 40.7194
Au 26.5089 16.8801 24.597
Au 20.1977 25.394 15.8002
Au 26.1253 14.9117 26.5757
Pt 34.6752 18.8605 27.544
Au 26.8726 13.8476 24.03
Pt 26.0833 11.4415 29.8463
Au 25.1904 17.9186 26.8408
Pt 28.5069 12.4605 31.0424
Au 23.4908 26.089 5.53119
Au 18.0033 24.4804 18.7692
Au 20.8125 32.5332 15.3538
Au 21.109 28.0737 16.7741
Au 23.6816 28.783 17.3227
Au 27.2373 33.8698 22.4745
Au 29.9133 29.7869 16.596
Au 25.1272 26.6972 22.2467
Pt 28.6239 36.0454 31.0158
Au 19.1024 23.9943 12.0796
Au 21.7839 18.2401 23.3934
Pt 15.7791 16.0562 18.9299
Pt 31.914 11.6467 17.5547
Pt 19.1545 15.2658 14.6256
Au 26.9296 17.5623 17.9433
Pt 33.0161 14.8406 21.5464
Au 27.8367 16.1661 22.2443
Au 28.7066 15.2015 25.673
Pt 36.4206 16.9356 35.1471
Au 29.3631 22.5998 31.1085
Pt 26.2928 12.3172 32.4388
Pt 27.546 33.8269 35.084
Au 28.5127 21.496 26.9351
Au 25.0457 18.0184 29.8201
Pt 30.2031 22.6817 14.5628
Pt 36.6873 28.1063 17.8901
Au 25.8622 19.2761 16.1043
Au 30.8828 33.6058 29.8695
Au 30.2836 15.1388 20.5573
Au 27.8637 26.5282 21.3261
Pt 13.5045 14.6521 29.3978
Pt 12.3113 30.116 25.2137
Pt 12.092 18.3413 19.8998
Pt 20.2726 37.114 22.6972
Pt 14.7874 15.3045 23.3324
Pt 10.3428 27.1122 29.8739
Pt 18.8612 28.3226 8.91371
Pt 10.4938 31.982 17.4455
Pt 16.9249 25.9611 11.4004
Au 24.1393 32.9742 10.9157
Pt 17.8518 23.8387 9.65569
Au 22.6033 32.1847 13.2091
Pt 35.2897 17.7121 14.5461
Pt 38.6852 23.8355 20.1576
Au 31.3631 22.2097 26.5592
Au 30.5509 25.4991 24.0108
Pt 35.4699 20.9375 23.4493
Pt 32.8074 17.1022 32.0342
Pt 12.1749 23.0398 15.1142
Au 22.6199 24.118 15.0658
Au 15.2056 21.5185 24.9971
Pt 8.30297 17.4053 23.8721
Pt 18.5872 21.3447 33.0706
Au 13.1561 14.8416 34.8428
Au 19.6125 30.1089 15.8241
Au 24.9497 27.2968 28.3394
Pt 21.5289 37.3211 25.5737
Pt 26.7503 38.0328 30.8767
Au 24.5964 32.665 29.227
Au 29.4948 34.7413 21.0995
Pt 17.1046 9.94943 24.6762
Pt 19.6834 12.4619 18.0065
Pt 17.9289 12.3887 25.712
Au 27.4087 7.00554 29.3107
Au 29.2493 9.70943 25.4711
Au 28.5908 11.6814 23.5451
Au 29.3031 12.7263 39.4414
Pt 25.5807 24.2892 39.4614
Au 16.9722 37.0621 36.2445
Pt 14.6535 26.8527 35.1919
Au 25.1602 29.3895 32.8903
Au 26.456 31.7462 31.1956
Au 28.8409 7.41018 21.2178
Pt 19.3201 19.2004 12.2281
Pt 24.6647 24.1972 7.25844
Au 24.8325 30.3223 11.0382
Pt 23.433 21.7891 7.18574
Pt 23.0713 28.5645 9.69697
Pt 35.8691 21.969 33.4962
Au 35.178 11.6906 34.9688
Au 29.4193 17.4725 24.2041
Au 17.916 24.9721 33.5212
Au 26.8267 23.5163 37.2338
Pt 31.4061 18.6442 33.8226
Au 29.493 25.3199 30.7526
Au 29.4403 28.4615 30.1125
Pt 37.0807 24.2533 34.2374
Au 21.8952 23.2471 27.5785
Au 20.8417 32.9239 27.8692
Au 26.799 24.1102 31.5716
Au 38.7297 32.7602 35.1887
Au 22.1153 26.4088 36.079
Pt 37.8196 25.6196 14.2205
Au 28.2925 29.1144 14.4668
Au 20.6452 16.8054 10.5009
Au 24.936 22.7715 12.8731
Au 37.2295 21.4684 12.4765
Pt 31.1109 25.2002 13.7829
Au 26.1623 27.045 14.5193
Pt 26.9388 18.8047 9.70263
Pt 33.3433 26.9525 13.7987
Au 23.4945 31.0984 8.54399
Pt 31.3293 25.208 10.9082
Au 28.9966 31.993 21.054
Au 22.0412 30.879 10.9135
Au 25.2865 32.6737 13.7251
Pt 16.173 20.3483 32.0484
Pt 17.0637 23.0689 40.0416
Au 24.6685 22.1384 32.3386
Au 18.2939 27.2409 31.8121
Au 16.8105 19.1698 23.9924
Pt 10.9415 23.1225 31.5174
Pt 19.7613 24.6444 35.4634
Au 19.3317 27.6057 29.2146
Au 14.8789 25.7991 27.7515
Au 17.9536 21.7239 30.4832
Au 14.5216 23.8703 30.1602
Au 14.8244 29.8509 39.5427
Pt 12.4693 26.8037 36.9189
Pt 17.2381 37.1967 33.4332
Au 13.4448 22.6771 17.8045
Pt 15.5156 30.7139 14.1479
Au 23.2986 14.5841 16.2353
Au 21.124 25.6363 13.0128
Pt 14.0436 24.9546 15.8716
Au 18.2779 26.1938 13.8102
Au 25.2075 30.1394 6.61857
Pt 18.406 21.2358 9.42423
Pt 11.3804 25.594 15.6777
Au 8.50933 32.2834 19.2646
Au 26.3761 17.7397 7.20352
Pt 19.5318 35.731 12.1994
Pt 13.0712 29.9735 13.3555
Au 27.8288 30.0667 7.23165
Pt 33.393 38.1969 25.5898
Pt 37.923 27.2525 23.9928
Pt 36.2626 30.1835 19.7666
Au 30.9128 28.1241 27.5784
Au 28.9731 27.3632 25.5405
Au 25.4936 29.3431 21.2281
Au 26.7735 29.9101 25.6128
Pt 31.2016 27.4913 12.4451
Pt 27.9245 38.7005 33.8835
Pt 36.5819 24.6949 29.9702
Au 26.1304 32.1906 20.5553
Au 28.4954 22.3386 35.3491
Pt 34.8043 21.6603 31.118
Au 33.7642 23.7379 29.8009
Pt 13.8963 38.3778 21.3456
Au 7.447 32.0297 21.7561
Pt 8.47438 23.4104 19.6203
Pt 15.9027 34.2682 14.7035
Pt 15.33 32.6809 12.2627
Pt 14.2012 33.7559 26.3001
Au 14.2584 28.5341 26.6326
Pt 12.1196 26.5474 21.8847
Pt 11.8147 32.632 26.2684
Au 19.8876 32.8926 12.0254
Au 14.7897 26.5867 22.604
Pt 9.08278 23.7455 29.2366
Au 16.126 21.308 22.3888
Au 16.8202 23.6743 28.8713
Pt 36.2706 16.7954 27.5212
Au 28.4571 20.0639 30.7192
Pt 30.4423 18.2111 13.2746
Pt 34.3959 27.5321 16.3664
Pt 38.823 18.0323 30.5423
Au 29.7609 14.3788 23.2624
Pt 31.2576 20.4806 9.44345
Au 31.8413 30.5119 22.5225
Pt 30.9757 13.1882 30.2818
Au 33.3941 21.204 28.4616
Pt 35.2074 24.2266 32.3202
Pt 35.3385 17.7427 32.7367
Au 31.9584 25.9094 29.2709
Pt 36.9981 13.4715 31.7412
Pt 22.4768 14.5665 20.8846
Pt 12.9021 20.0467 24.3262
Pt 16.343 14.6047 21.059
Pt 10.7281 23.0901 18.2104
Pt 19.6891 14.0988 24.6437
Pt 17.6097 11.6347 30.9017
Au 7.89074 15.522 25.9362
Au 15.5178 22.7724 19.9544
Au 16.1994 18.3014 29.2688
Au 10.3838 14.1032 25.6123
Au 14.9379 8.9235 23.2093
Pt 15.9165 14.1307 25.7233
Pt 10.7067 18.5999 24.2087
Au 17.2834 17.6962 26.4783
Pt 18.9361 37.8053 29.3988
Au 22.0273 32.0313 30.4369
Au 20.1914 30.2537 29.5538
Au 17.2895 34.2073 23.7475
Pt 25.3402 38.9479 33.0007
Au 22.65 30.7635 28.0448
Pt 18.9135 29.4252 37.6599
Au 23.1725 34.529 30.7979
Pt 25.1161 32.9243 39.1228
Pt 27.2378 28.4641 34.5785
Pt 26.8135 31.4332 33.99
Au 30.2907 33.1187 23.2453
Au 30.7338 30.6951 28.7036
Au 33.5594 25.8587 21.1131
Au 20.5906 17.941 29.9012
Pt 23.4084 17.6609 38.7576
Au 29.5013 14.1728 28.054
Pt 20.2226 14.1643 33.9475
Au 22.8334 16.0656 30.6695
Pt 18.8225 14.0659 31.6695
Au 19.1312 22.3885 28.0154
Pt 25.1833 10.5578 27.4156
Pt 30.0188 14.2558 32.5443
Au 27.4157 12.3769 26.4708
Au 25.9911 17.2292 20.4834
Pt 34.9585 14.0512 26.8411
Pt 33.6598 13.7673 29.8172
Pt 34.0406 11.8169 27.9058
Pt 30.5174 35.2372 17.7059
Au 25.6879 34.6598 9.28261
Pt 14.7776 35.4869 16.9516
Pt 13.1588 33.2246 21.3669
Au 26.0079 33.8137 17.0368
Pt 26.8601 37.7052 15.2233
Pt 31.9222 38.6775 20.4494
Pt 28.743 38.1365 17.0606
Au 24.0373 33.0389 18.8109
Au 28.287 27.0818 16.5636
Au 33.1344 30.2905 27.3702
Au 27.6974 35.0549 26.0723
Au 23.9248 32.001 32.5831
Au 28.0167 22.5494 19.6717
Pt 17.6723 10.9695 18.4962
Au 20.8436 19.4724 14.5336
Pt 17.0868 16.1901 24.2489
Pt 19.4023 18.8991 19.6796
Au 32.8009 16.157 10.4192
Pt 20.6515 17.0415 13.1749
Au 24.8364 19.3862 18.8365
Pt 22.9549 8.88256 28.1975
Au 26.942 32.8104 10.9036
Pt 22.1311 13.3096 18.3772
Pt 26.8802 11.2445 17.186
Au 27.7211 13.4709 21.5026
Au 32.2521 14.4082 27.648
Au 29.7162 17.379 18.7891
Pt 38.7139 23.1464 29.2109
Pt 36.861 28.9762 31.8058
Au 27.4475 21.7315 32.893
Pt 30.1192 34.4597 34.819
Pt 35.6632 23.4824 24.7242
Au 23.3622 24.3909 22.5128
Au 40.0451 21.2233 35.914
Pt 30.0308 28.878 34.4128
Au 23.3006 19.9701 30.7449
Pt 25.9283 38.1402 35.5002
Au 30.4633 21.2123 33.2466
Au 26.5312 28.9449 30.4475
Au 29.1615 18.7616 7.80686
Au 27.08 31.4942 15.7907
Pt 30.0488 20.7344 11.811
Pt 36.5294 37.2606 22.5856
Pt 32.9583 12.5917 25.5286
Au 28.9328 25.1244 19.1386
Pt 36.3596 17.0502 22.8568
Au 27.108 30.8796 12.7332
Pt 16.9228 18.7667 13.214
Au 32.3848 33.2213 21.4991
Au 22.3623 23.4285 11.9133
Pt 29.2937 22.4951 17.1654
Au 20.5117 21.7227 25.7685
Pt 10.1184 25.6832 27.5746
Au 21.8248 18.9942 18.2261
Pt 13.8827 26.8298 19.7951
Pt 23.5243 10.4851 24.1718
Au 17.1786 28.4462 27.6658
Au 18.993 22.8715 16.6113
Pt 15.4888 35.1911 32.5037
Au 22.4295 15.724 33.4592
Au 16.0944 31.1273 28.4261
Au 22.0306 18.4183 32.5682
Pt 16.9999 40.2758 27.0528
Au 16.0978 22.6144 16.5557
Pt 13.4481 27.2676 14.3975
Au 21.6791 16.9054 15.6974
Pt 18.8822 34.4749 14.8282
Au 22.8433 16.9202 25.6645
Pt 14.5417 31.0865 21.0578
Au 22.3566 29.9298 14.9095
Au 12.968 34.1386 12.122
Au 21.5233 21.5164 16.2539
Au 23.9368 36.2229 10.5617
Pt 17.7199 13.3226 16.015
Pt 28.4762 36.2567 13.8273
Au 37.0356 16.1537 16.0055
Pt 33.9373 16.3479 16.3281
Pt 37.1305 29.1085 22.2996
Au 23.1033 30.7334 20.1469
Pt 36.0574 24.6202 20.44
Pt 32.9262 25.4895 33.8219
Pt 37.5009 22.538 31.5761
Au 8.72574 28.2788 14.6172
Pt 10.8895 20.4737 19.0556
Au 13.4031 22.0463 22.4768
Au 12.8994 13.5319 16.1467
Au 19.5995 24.3327 25.8076
Pt 11.4323 20.536 31.7453
Pt 20.0556 22.0076 35.1099
Pt 14.8275 38.7933 27.3994
Pt 21.4832 41.3497 23.7934
Au 24.5292 34.0754 22.0873
Au 27.6 28.2024 27.7872
Pt 31.0609 35.1175 32.1754
Pt 29.1069 38.074 29.2652
Au 35.285 38.3273 32.0182
Pt 19.3075 10.1054 26.2098
Pt 25.3864 8.8526 29.4328
Pt 20.1692 9.81044 18.3701
Pt 27.4495 9.33374 27.5383
Au 19.0286 7.59496 19.6996
Au 20.8129 8.28297 13.0532
Pt 36.0304 15.7129 25.1216
Au 22.2402 23.9826 24.9376
Pt 28.7528 26.8757 40.6349
Pt 13.3656 24.2132 32.6139
Au 16.6485 26.4212 29.8369
Pt 29.9455 31.191 39.0468
Pt 29.4051 31.4797 34.3061
Pt 20.5787 34.2045 33.2413
Au 23.9282 25.6055 12.8639
Pt 15.307 27.8029 10.1423
Au 26.5818 24.9913 12.5
Au 24.7343 19.7364 5.8689
Pt 29.2118 24.3339 11.9897
Pt 29.0024 34.0924 12.2674
Au 38.1255 36.4569 18.4245
Pt 31.2993 15.8884 30.0773
Au 17.9226 23.2502 21.4013
Pt 32.2924 17.0182 38.8525
Au 26.9746 19.7958 34.9855
Au 25.5634 22.2257 35.1318
Pt 36.2759 23.1807 37.193
Pt 34.2415 17.0766 37.0042
Pt 28.9572 27.48 36.4407
Au 19.2469 29.5425 32.8654
Au 44.1177 23.9889 29.2518
Au 28.7886 24.4013 33.4484
Pt 29.1747 32.5272 36.7077
Au 26.215 24.1087 22.1185
Au 19.4725 36.5504 37.2392
Au 24.073 27.1089 30.897
Pt 34.5797 24.9288 37.9518
Pt 30.6517 22.3542 37.3364
Au 27.6849 25.5247 24.031
Au 27.0397 25.7419 35.3446
Pt 21.4312 33.2078 37.6965
Au 33.886 18.5341 9.34227
Au 34.0784 21.0898 8.62325
Au 25.6516 20.169 13.5694
Pt 21.152 12.5777 12.6169
Au 27.7831 15.3465 19.4438
Au 30.6377 30.3181 19.4501
Au 24.3279 31.3844 16.3171
Pt 28.7434 16.5544 12.0514
Au 24.1352 17.7148 13.9239
Pt 23.1999 16.6953 11.6042
Pt 35.5238 26.6137 12.1716
Au 30.3688 24.3871 6.72114
Au 35.4384 22.6258 10.4799
Pt 24.6461 19.0002 11.3389
Pt 30.5413 27.4334 9.87586
Pt 28.4577 20.955 9.64438
Pt 25.6907 22.2421 8.57648
Pt 29.4676 31.4919 11.2636
Au 20.6163 32.6111 9.19485
Pt 28.7838 26.7485 13.2848
Pt 21.5063 23.2754 37.0561
Pt 16.0071 23.0592 37.5584
Pt 24.1645 20.2068 39.6371
Au 29.8993 15.2833 40.264
Pt 27.0432 13.8978 38.0598
Au 10.8704 22.5493 36.1824
Pt 11.5343 29.9692 33.0166
Pt 16.7122 25.4622 38.8021
Pt 20.3321 14.6683 37.2989
Pt 24.2426 22.4268 37.883
Au 10.5627 30.4118 37.1308
Pt 18.8997 32.0406 31.4311
Pt 12.1591 22.2018 33.8887
Pt 22.9228 21.7746 35.5112
Au 12.6292 39.3848 29.0325
Pt 20.2434 31.4146 35.771
Pt 15.5192 25.9244 32.7564
Pt 26.3452 28.1361 37.1978
Au 20.6182 25.2204 42.8457
Pt 21.2149 30.4914 38.0902
Pt 11.327 21.1223 16.6186
Au 17.753 26.832 6.14997
Pt 16.1701 23.5096 11.8709
Au 14.1384 29.8137 8.73768
Pt 17.9669 21.5026 11.9468
Pt 10.23 24.5287 13.5699
Pt 17.4813 34.0288 12.468
Pt 23.3441 21.2236 10.4311
Pt 21.2189 27.0939 8.44488
Pt 25.0128 26.7685 10.6339
Au 10.9197 33.6418 14.9954
Au 8.60955 26.3865 12.3742
Au 30.1539 38.4749 13.3034
Pt 20.5673 21.4714 11.2764
Au 16.4907 28.9082 7.44008
Pt 22.3366 25.8691 10.5373
Pt 25.5477 28.6616 8.83161
Pt 14.3392 37.1747 18.9927
Au 20.7121 26.815 5.8164
Au 31.033 39.5563 15.7826
Au 41.1595 31.3813 25.5518
Au 31.5103 31.6889 25.2943
Au 32.0923 28.2934 20.5647
Pt 37.8828 33.3834 20.0778
Pt 33.7022 29.998 24.7379
Pt 39.6238 28.0284 27.924
Pt 35.3205 27.9993 24.2825
Pt 36.3385 30.3676 24.4934
Au 31.7383 23.6759 22.1563
Pt 39.02 26.0969 26.1089
Au 21.746 28.9397 31.7832
Au 29.3285 31.5293 30.934
Au 32.9323 28.3771 29.4407
Au 31.2463 28.919 24.9519
Pt 34.7018 37.4709 27.6485
Au 29.311 30.1669 26.4049
Pt 36.692 31.7305 21.9221
Pt 37.5991 32.7613 32.4841
Au 27.3851 19.7378 19.898
Au 33.8747 16.4655 29.2545
Au 25.8885 35.1382 19.8036
Au 5.87392 22.5746 26.3435
Au 10.3395 36.5532 19.4542
Au 6.55766 29.3856 22.3663
Pt 10.7369 22.1785 23.3589
Pt 10.1707 31.5762 24.4969
Au 8.8411 34.6191 20.932
Au 14.3055 29.2896 23.3514
Au 6.32416 28.4156 24.9117
Pt 9.08183 29.1548 25.11
Pt 14.7829 33.5377 18.9777
Au 11.1571 38.0763 21.7174
Pt 10.4819 26.3072 24.5341
Au 19.0157 25.7377 21.6765
Pt 10.6015 20.9781 25.6226
Au 17.6578 25.0426 23.9722
Au 20.8504 22.9566 30.2676
Au 17.0024 23.2714 26.2247
Au 13.2223 24.2429 20.6218
Au 11.1043 15.482 33.0895
Pt 36.3937 17.114 30.3548
Au 30.8349 23.0669 19.548
Au 31.9309 28.0702 17.5084
Au 29.8966 21.2965 21.571
Au 31.9275 25.5936 18.7304
Au 26.7242 18.7958 22.7025
Au 33.1646 20.1504 25.7755
Au 42.1556 19.6113 26.9808
Au 25.1699 22.3551 20.3054
Au 32.9834 22.2624 24.2353
Pt 40.5878 22.0139 31.327
Pt 38.4837 17.0311 25.5413
Pt 38.2943 18.2143 33.222
Au 33.931 23.5151 26.8743
Pt 38.205 13.0765 29.3812
Au 40.6382 15.1667 22.7226
Pt 33.6645 19.945 32.8598
Pt 35.8144 14.2347 33.9903
Au 40.4961 16.6332 32.4987
Pt 36.1423 22.0906 28.9958
Au 20.6905 16.0424 41.7982
Pt 12.3558 17.5741 22.4536
Pt 16.1946 17.2001 21.8365
Au 6.93278 19.1188 16.9311
Au 10.5823 15.0957 16.4326
Pt 20.2134 16.3954 32.0785
Pt 13.179 13.6406 24.6375
Pt 10.1221 16.8936 26.0649
Pt 9.574 23.1369 15.7802
Pt 9.48623 19.3491 16.1214
Pt 15.9536 15.4135 28.419
Pt 12.5056 18.1722 26.3824
Au 9.39651 16.3043 30.8523
Pt 22.6458 11.3395 26.8153
Pt 11.0824 16.9547 28.6152
Au 8.82712 19.7375 32.3877
Pt 9.05988 18.6209 18.8772
Au 11.9571 17.5268 35.2691
Pt 12.8044 20.7243 27.1904
Au 8.22187 17.5698 28.0544
Pt 25.8896 33.8967 33.005
Au 26.6987 37.4664 38.0191
Au 19.2383 43.0451 24.1674
Au 21.1178 31.5081 32.9581
Pt 17.6317 40.5734 24.4424
Pt 21.8837 35.4976 35.6161
Pt 17.2689 34.8552 34.8309
Au 17.1558 41.4538 31.2345
Pt 16.677 36.8534 30.8114
Pt 16.6757 38.1943 25.4039
Pt 26.4558 34.8052 37.4699
Pt 25.2696 35.5366 35.2391
Au 25.9803 34.8584 30.6286
Pt 21.2664 41.295 28.2212
Pt 22.2145 32.8932 35.0254
Pt 29.5324 36.7628 33.4643
Au 20.1767 34.4865 23.0979
Pt 27.1971 40.6287 32.1709
Au 24.7287 35.6909 39.4112
Pt 35.1845 30.0616 29.6294
Pt 21.4992 19.3657 39.707
Au 24.6546 17.2031 32.6881
Pt 28.5167 12.4768 36.4654
Pt 23.4571 8.92795 31.2225
Pt 18.2225 14.9844 26.6288
Pt 20.6923 20.6782 37.3018
Pt 24.5016 11.9866 34.7104
Au 24.0069 15.6303 28.1985
Pt 24.2947 13.5018 30.3938
Pt 20.7745 10.3638 28.4869
Pt 30.8052 13.2115 35.2405
Au 24.3527 20.3663 28.0751
Au 31.8427 14.9935 24.899
Pt 23.8116 11.563 32.0354
Pt 29.661 10.5052 35.2185
Au 37.8877 10.5976 24.7081
Au 30.2239 12.4943 25.6745
Au 28.8794 8.07673 34.4683
Au 36.4902 10.752 32.4645
Pt 35.1772 10.9794 25.5243
Pt 35.9598 36.0934 20.0367
Au 21.7897 30.9076 17.5975
Pt 20.0017 36.9824 14.6078
Pt 21.3391 36.7678 18.3929
Pt 14.5946 35.5913 21.0751
Au 31.0613 33.0169 19.1933
Pt 25.441 35.5965 15.0459
Au 25.3689 30.4346 18.6711
Pt 21.3215 34.6652 13.6827
Au 23.3482 33.7463 15.5454
Pt 30.4653 36.875 15.5122
Pt 34.3431 38.0614 21.313
Pt 24.2559 37.5134 19.0891
Au 20.3476 31.2801 20.0685
Au 26.5678 31.1606 23.1187
Pt 23.3936 33.1904 26.7504
Au 29.2285 30.4499 23.5711
Pt 36.8707 32.8442 24.3641
Pt 21.2641 38.6942 28.1303
Au 31.6258 25.1178 26.6091
Pt 14.3132 15.0705 13.9444
Pt 15.3765 16.6765 12.1265
Pt 20.9898 10.6141 14.2107
Au 31.3857 7.80575 25.6573
Au 12.138 12.143 20.8641
Pt 19.5758 14.5996 12.0965
Pt 18.4311 20.7554 14.4387
Au 15.2236 9.84113 18.0085
Pt 25.1796 8.60506 23.3706
Pt 20.5652 13.2751 22.2804
Au 30.8337 8.92805 17.3099
Pt 15.1022 14.9625 16.5456
Au 18.4653 9.21657 14.1208
Pt 24.8511 12.4143 25.2312
Au 26.1006 8.68605 14.4114
Au 19.5209 10.3902 11.8414
Pt 32.1483 13.1336 19.6872
Au 31.4062 16.7764 22.4874
Au 24.4943 14.9947 19.0647
Au 32.1749 17.7996 24.9529
Au 36.3127 8.55019 25.6231
Au 31.4363 27.103 31.8432
Pt 29.2956 17.4939 35.2633
Au 26.1043 26.7709 32.6312
Au 32.4854 8.35747 31.0431
Pt 32.3688 34.9568 36.3343
Pt 37.4367 15.9085 32.8387
Pt 26.7551 36.4011 33.0958
Pt 35.1243 21.0974 38.5156
Au 28.2874 29.3952 20.9859
Au 29.1929 7.16186 24.1432
Pt 31.1401 32.512 32.6864
Pt 36.872 13.0793 24.9994
Pt 40.7845 28.8218 30.2601
Pt 30.5487 19.6166 38.4672
Au 27.4462 35.6857 39.983
Au 24.2201 11.1039 38.7459
Pt 18.1696 39.0167 31.5966
Pt 28.887 24.0615 38.9862
Au 26.223 21.7316 30.0433
Pt 32.8415 23.3709 14.4932
Au 37.4918 39.4611 24.0124
Pt 32.5833 18.5233 15.1502
Au 33.8081 41.0184 25.3195
Pt 32.4647 16.0474 19.0884
Au 32.786 27.5058 23.1882
Au 31.8641 18.5808 20.5378
Au 33.3443 31.0547 20.0681
Au 35.6206 13.9671 16.7592
Au 36.7153 24.2184 12.2184
Pt 29.0848 13.2838 13.3072
Pt 31.3064 39.7078 25.6925
Pt 29.4443 11.2117 16.725
Au 28.0106 33.6253 29.4383
Pt 32.1088 18.6571 11.3309
Au 29.4528 32.5625 16.8662
Pt 25.4813 10.1845 19.1482
Au 32.9651 33.9296 24.191
Pt 28.5048 15.8488 16.668
Pt 33.5667 34.6634 18.7034
Au 19.5771 19.6583 24.3615
Au 15.048 19.2837 26.7399
Pt 12.2785 16.7273 30.8616
Au 16.5017 39.8194 33.4712
Au 25.1349 14.476 21.7608
Au 11.5815 37.3782 27.3015
Pt 27.3099 14.83 32.6669
Au 27.159 26.3909 29.9369
Au 18.5683 19.7093 28.7789
Au 9.16594 30.7796 31.9919
Au 22.0337 21.5838 32.9085
Au 11.8375 31.8338 35.2919
Au 22.3818 24.1746 34.4661
Au 14.6829 37.9905 32.5241
Pt 19.364 21.8382 39.4745
Pt 19.3676 36.5563 31.7136
Pt 20.2247 12.3175 35.8004
Au 21.1556 40.5437 34.904
Pt 18.6376 23.5781 37.6581
Pt 19.5723 34.0611 36.021
Pt 13.0562 16.1733 18.2728
Pt 17.775 39.6339 18.9428
Pt 14.003 20.9312 15.7249
Pt 11.7528 29.6291 17.688
Pt 18.2178 16.4481 19.8441
Au 9.84515 36.0472 23.2606
Au 24.2876 17.0625 22.7097
Au 16.1278 40.514 16.8663
Au 21.6664 19.5284 21.0247
Au 12.0856 30.0387 10.6511
Pt 20.7234 16.7461 21.039
Pt 12.758 33.6937 16.9955
Pt 15.7615 12.0374 19.8934
Pt 14.784 31.9388 16.7284
Au 15.4423 20.5604 18.2066
Au 12.1498 38.6083 19.1772
Pt 19.9282 14.4051 19.8911
Au 24.8514 37.5501 12.9798
Pt 12.8518 17.2558 13.0912
Au 33.5549 38.8791 16.771
Pt 34.7269 25.9013 18.4825
Pt 37.9674 21.0023 22.0171
Pt 37.2132 23.3221 22.4175
Pt 35.9726 25.9787 25.7768
Pt 40.4384 19.3801 32.0288
Pt 35.1153 28.2256 27.5347
Pt 39.3721 23.076 33.7535
Au 28.932 23.9185 22.0013
Au 7.32524 27.3372 16.8644
Au 8.18432 25.5212 14.9903
Pt 9.69641 18.1532 21.4727
Pt 10.3285 15.9109 23.1488
Au 10.547 19.9067 34.68
Pt 8.798 20.1838 23.1447
Au 9.359 22.1259 33.7932
Au 27.1912 23.3644 43.9162
Pt 11.5322 35.2504 21.4408
Au 23.6526 42.3635 21.3354
Pt 25.8571 38.7205 22.8617
Au 21.0868 34.6624 25.7309
Au 18.8877 32.2819 22.2917
Pt 24.141 40.7266 23.6322
Au 29.6529 41.6861 30.9489
Au 35.7604 39.4326 29.3426
Au 22.633 6.54565 26.8987
Pt 23.9789 9.64485 33.7946
Au 16.8467 8.79649 27.0657
Pt 31.4274 10.4135 23.8916
Au 31.1035 9.12002 33.2265
Pt 31.3972 11.8076 28.1051
Pt 24.6142 13.0196 27.7757
Au 33.6887 8.52664 21.5189
Au 22.5585 23.0754 43.0777
Pt 33.8316 29.0882 38.263
Au 36.5282 29.7457 39.1237
Pt 21.275 23.7186 40.7777
Pt 16.5801 27.634 37.2842
Au 40.7371 18.8466 34.5685
Au 31.0241 11.7127 37.5345
Pt 26.2535 28.5248 40.1101
Pt 19.8399 14.8807 17.1529
Pt 21.8983 14.8407 13.7999
Pt 21.2571 21.326 8.63415
Au 22.6022 15.6293 8.7198
Pt 24.7393 19.7694 8.56189
Pt 29.046 28.8645 11.5533
Pt 27.4041 30.1657 9.97877
Pt 27.5241 33.8861 14.5616
Au 38.4818 18.8928 36.12
Pt 30.249 26.3617 38.5388
Au 39.4637 14.1732 33.2247
Pt 32.121 25.1334 36.6155
Au 24.6827 9.20778 36.3356
Pt 28.8391 14.9718 34.8544
Au 29.3472 26.0092 28.1178
Au 41.6292 24.3269 33.148
Pt 32.87 26.6756 38.876
Pt 23.5612 25.9002 41.0335
Pt 25.1149 30.1877 38.4641
Au 30.41 24.8284 41.2783
Pt 32.3082 21.3574 39.3814
Pt 38.6624 20.7349 33.2944
Au 36.8156 22.844 39.8224
Pt 32.504 31.3637 38.1051
Au 33.1674 25.3561 41.2771
Pt 35.4901 31.4083 31.8426
Pt 38.1037 30.37 33.7927
Au 31.9424 13.9797 39.0705
Au 34.3865 15.262 38.9419
Pt 28.5857 28.7512 38.7271
Pt 28.1505 33.284 39.0466
Au 24.9645 30.8018 41.2739
Pt 33.909 26.1685 31.2888
Pt 33.3466 33.4365 31.2888
Au 27.2475 36.3391 28.5692
Pt 34.548 16.8912 20.8237
Au 28.0347 13.6056 8.84893
Pt 35.6363 21.6949 20.5289
Pt 23.2527 12.2551 14.3362
Au 33.6276 14.2705 12.1513
Pt 24.77 10.5772 15.6945
Au 41.4161 18.4731 19.191
Au 35.7079 19.8486 10.8238
Pt 26.0483 21.1884 10.8782
Pt 39.0974 19.0234 20.2633
Pt 22.9638 23.509 9.14803
Au 19.2608 29.034 6.39164
Pt 34.6745 22.2118 13.1588
Au 40.5291 25.2015 14.9079
Au 27.1193 22.0542 15.3378
Au 25.8892 22.2282 5.65367
Au 32.196 22.6178 7.46538
Au 32.6616 28.6542 8.60336
Au 29.6172 27.7868 19.0249
Pt 29.3012 25.3037 8.90047
Pt 26.4746 25.6923 8.55634
Pt 33.0309 29.367 14.9722
Au 29.7486 21.5102 7.22853
Pt 30.0001 29.8462 8.9855
Au 30.4647 27.563 7.20667
Au 28.2537 26.2022 6.41403
Pt 31.307 32.8664 12.4802
Au 12.636 20.0908 36.4632
Au 20.2247 29.2349 40.4886
Au 25.6501 19.1818 41.71
Au 25.2504 21.6307 42.9543
Au 25.9417 26.1035 43.9497
Pt 23.0406 17.6424 35.2671
Pt 19.0037 24.8104 40.1563
Au 12.0888 28.7914 38.6735
Pt 22.6999 15.6982 37.0798
Au 23.2255 25.7734 43.6642
Au 30.6535 20.3017 41.8507
Pt 22.8773 24.6389 38.838
Pt 14.5015 34.4435 23.5636
Pt 15.1872 24.135 34.6676
Au 21.7543 27.8158 42.5177
Pt 14.3016 28.8019 37.1579
Pt 17.0975 25.2755 36.1312
Pt 13.8306 33.1539 31.885
Au 17.6383 30.3077 39.9122
Pt 14.6513 30.8109 30.8055
Au 19.784 34.5783 39.2929
Au 17.4424 34.6641 37.8345
Au 13.3071 33.9843 34.429
Au 27.8499 20.9891 42.2522
Pt 18.6899 27.2727 39.107
Au 21.6883 41.9818 32.763
Pt 14.5828 31.5957 35.8633
Au 13.6114 32.3067 10.1986
Pt 10.9786 26.9944 13.3622
Au 9.19014 24.0141 11.0626
Au 11.4957 14.8832 13.8027
Pt 20.8766 13.1138 15.5303
Pt 20.8165 28.2772 11.1121
Pt 13.7494 32.8118 14.3395
Au 14.807 26.5095 7.65427
Pt 14.2652 25.599 11.0948
Au 19.0725 24.4235 5.35866
Au 23.2311 27.1453 15.0061
Au 17.1008 19.1128 7.98109
Au 28.3934 39.8938 14.8915
Au 11.4724 32.0085 12.8203
Pt 18.1374 28.2802 11.6071
Pt 19.1881 22.8215 7.4885
Pt 15.3731 24.1208 9.26209
Au 18.8311 40.8477 16.7904
Au 15.7484 31.9886 8.49823
Au 15.1266 37.3367 14.9304
Pt 21.7494 24.4465 7.07927
Au 21.0882 22.1657 5.70282
Au 27.9694 41.3895 19.7706
Pt 19.3886 30.4789 10.4505
Au 28.3837 34.8339 9.70226
Au 21.4531 24.6823 4.34161
Pt 31.0562 35.7855 13.0473
Au 36.9997 35.8404 32.2981
Au 41.5863 27.1256 33.938
Pt 38.2052 35.6263 21.3166
Au 38.1176 30.9964 13.573
Pt 34.7553 34.3081 16.1238
Pt 36.7025 32.2912 15.6438
Au 39.3029 34.6995 33.1702
Au 33.7497 40.4478 30.8303
Pt 35.4509 34.9867 27.7936
Au 42.4036 27.9681 21.8607
Pt 40.6156 26.6081 23.62
Pt 39.8421 22.6046 18.1863
Pt 33.827 35.9462 31.8935
Pt 35.8497 33.9502 30.6082
Pt 36.9304 33.0256 27.0277
Pt 38.887 30.9153 23.7281
Au 41.2389 29.8251 20.0954
Au 31.18 29.8048 32.1849
Au 27.1837 21.4318 22.1218
Au 40.0817 36.1053 27.9485
Au 42.6075 26.2984 19.2874
Pt 35.9712 30.6329 27.1415
Pt 39.8444 28.7698 25.2138
Au 33.2015 27.2891 26.0688
Pt 39.4377 23.4073 26.4904
Au 43.8841 22.2809 27.0456
Pt 28.1894 29.7536 32.4838
Pt 19.4209 38.8878 20.937
Au 12.7714 39.8158 23.4565
Au 7.81029 26.2251 29.2084
Au 10.2482 29.5431 12.6638
Pt 8.11623 25.7028 21.2408
Pt 8.71875 27.2769 19.0768
Au 14.3342 41.1864 21.546
Pt 12.2227 34.6943 27.942
Au 11.1736 37.9443 24.6674
Pt 9.21499 30.0739 22.5417
Au 6.93554 18.5373 21.8355
Pt 8.31306 22.8135 22.2033
Pt 14.0205 37.9088 25.1081
Au 8.68376 26.7425 34.4326
Au 6.60227 22.3607 29.0026
Pt 10.1993 24.6687 22.509
Pt 11.4245 27.5666 19.1431