2057
Atoms. Timestep: 20329
Au 25.1101 24.596 25.8311
Au 27.3875 24.5588 24.3715
Au 27.455 24.5884 27.3255
Au 22.7889 24.6701 24.244
Au 22.8229 24.5813 27.2065
Pt 23.7284 26.9493 25.6968
Au 26.5515 26.9136 25.8681
Au 23.6092 22.3239 25.582
Au 26.4283 22.2143 25.8204
Au 25.2331 23.0813 28.194
Au 25.1035 26.0665 28.1378
Au 25.025 23.2081 23.3845
Au 25.1093 26.0468 23.4595
Au 29.6367 24.6484 22.7594
Au 29.8363 24.5709 25.6511
Au 31.5853 22.098 28.1301
Pt 20.4725 24.6792 22.5437
Au 20.4171 24.6296 25.6156
Au 20.4683 24.5894 28.5841
Pt 22.295 29.2084 25.5696
Pt 25.0909 29.2843 25.6524
Au 27.9719 29.2141 25.9061
Au 22.0968 20.0454 25.3114
Au 24.9376 19.8955 25.4335
Au 27.78 19.904 25.6814
Au 24.8475 21.2933 30.1806
Au 25.0124 24.6495 30.5427
Au 24.9902 27.6626 30.4457
Au 24.9646 21.8187 20.948
Au 25.0244 24.6873 20.9611
Pt 25.0629 27.4645 21.102
Au 27.512 23.6004 29.9199
Au 27.3942 26.368 29.6675
Au 27.3448 23.2329 21.8795
Au 27.3662 26.0978 21.9176
Au 22.7176 22.9908 29.5394
Au 22.6798 26.1966 29.4911
Au 22.702 23.2341 21.7533
Au 22.7261 26.0864 21.792
Au 28.8479 26.9663 24.2933
Pt 31.8313 26.7162 28.1165
Au 21.3468 26.9533 24.1206
Au 21.3408 26.964 27.0037
Pt 28.7445 22.2147 24.1647
Au 28.8705 22.21 26.9862
Au 21.247 22.3746 24.003
Au 21.242 22.2628 26.9671
Au 23.6055 28.433 27.9971
Pt 26.3668 28.5582 28.0602
Au 23.5876 20.7533 27.8276
Pt 26.9134 20.799 28.3754
Au 23.644 28.3644 23.3148
Pt 26.4959 28.3869 23.4943
Pt 23.5123 20.8391 23.0734
Au 26.3795 20.849 23.2586
Pt 31.8766 24.6785 21.0443
Au 32.1398 24.602 23.9027
Au 33.8395 22.0968 26.3871
Au 34.1106 22.0559 29.1837
Pt 18.1697 24.7158 21.0237
Au 18.1153 24.6718 23.9433
Au 18.0088 24.6315 27.0168
Au 18.0873 24.5555 29.9984
Au 20.7243 31.4706 25.3187
Pt 23.6268 31.5792 25.4445
Pt 26.4243 31.6226 25.6205
Pt 29.214 31.5495 25.8126
Au 20.6114 17.725 25.0203
Au 23.4214 17.5508 25.1334
Au 26.2557 17.4824 25.2813
Au 29.1425 17.5129 25.6114
Au 24.4603 19.6807 32.4646
Au 27.2329 21.3965 31.4535
Au 28.1332 25.9063 32.2564
Au 24.565 29.3671 32.7098
Au 24.9195 20.5034 18.4846
Au 24.9399 23.2652 18.4602
Au 24.9985 26.0846 18.54
Au 25.0785 28.853 18.627
Au 29.9743 24.2661 28.4685
Au 26.7106 23.7035 32.8366
Pt 33.3878 29.0187 27.8449
Pt 34.43 26.9028 29.2314
Au 29.9097 28.1411 32.0213
Au 29.6241 23.2168 20.2514
Au 27.2679 21.8379 19.3675
Au 29.6688 26.121 20.2746
Au 27.3282 24.666 19.3854
Au 27.3431 27.4768 19.445
Au 20.2346 22.8143 30.8171
Pt 22.2052 21.0622 31.5604
Au 20.2027 26.3568 30.8532
Au 22.4157 24.6918 31.7562
Au 22.4629 27.9271 31.7378
Au 20.3936 23.2892 20.1526
Pt 22.6046 21.82 19.3103
Pt 20.3855 26.1154 20.1554
Au 22.6446 24.6776 19.3108
Au 22.723 27.5045 19.4007
Au 30.2983 29.3262 24.1954
Au 31.1857 27.0193 22.5793
Au 30.631 29.0765 27.0394
Au 31.4457 26.8719 25.4168
Pt 32.4091 24.4813 26.704
Au 19.8935 29.2685 23.9462
Au 19.0155 26.9708 22.4554
Pt 19.8101 29.3044 26.8418
Au 18.9235 26.9872 25.4314
Au 18.9411 26.9893 28.3335
Au 30.0822 19.8745 23.9818
Au 30.9779 22.2344 22.5225
Au 30.3422 19.941 26.8889
Au 31.2463 22.238 25.3149
Pt 31.2586 19.7341 30.0486
Au 19.7248 20.0521 23.7733
Au 18.9212 22.4038 22.4042
Pt 19.6851 19.9543 26.6997
Au 18.8202 22.3081 25.4035
Au 18.8521 22.2532 28.3064
Pt 23.2618 30.0848 30.1931
Au 22.0311 30.77 27.752
Au 26.0527 30.1965 30.3274
Au 24.8625 30.9038 27.8739
Au 27.7029 30.9377 28.152
Au 23.2077 18.9461 30.0213
Au 21.9032 18.4165 27.5363
Au 26.0076 18.7971 30.1809
Au 24.7859 18.2553 27.6961
Au 27.5521 18.1919 27.8907
Au 23.615 29.7962 20.8892
Pt 22.2354 30.6759 23.1576
Au 26.5044 29.7506 21.0212
Au 25.0657 30.7209 23.2502
Au 27.9495 30.6787 23.4343
Pt 23.4603 19.5028 20.6581
Pt 22.0252 18.598 22.8163
Pt 26.2798 19.4238 20.7686
Pt 24.8402 18.4705 22.9001
Au 27.7068 18.5027 23.075
Au 29.2813 21.4753 29.6141
Au 29.1107 26.7941 27.2734
Au 28.6712 20.8236 21.6462
Au 28.8443 28.409 21.8145
Au 21.0175 20.587 29.1447
Au 21.0786 28.5966 29.3104
Au 21.1871 20.8902 21.5108
Au 21.2439 28.4305 21.6243
Pt 34.1056 24.6812 19.4941
Au 34.4022 24.6471 22.2218
Pt 36.0469 22.0589 24.7589
Pt 36.3538 22.0065 27.46
Pt 34.5452 22.0419 31.8813
Au 15.8778 24.7253 19.5043
Pt 15.7674 24.689 22.3055
Au 15.6894 24.6795 25.3355
Pt 15.6092 24.5355 28.3587
Pt 15.7634 24.4554 31.2946
Au 19.1188 33.7828 25.0828
Au 22.0775 33.912 25.1686
Pt 24.9341 33.9712 25.3608
Pt 27.7152 33.9657 25.503
Au 30.6206 33.7976 25.6854
Au 19.0215 15.4539 24.7481
Pt 21.8387 15.1813 24.8186
Pt 24.6444 15.0754 24.9013
Pt 27.5665 15.1495 25.2496
Pt 30.4662 15.1944 25.4902
Au 24.1692 17.8418 34.5996
Au 24.2594 22.7226 32.3767
Pt 23.6468 24.5131 34.347
Au 25.3024 26.218 32.7733
Au 24.2035 31.0429 34.8693
Au 24.8551 19.1784 16.0692
Pt 24.9 21.9236 15.953
Au 24.9746 24.6795 16.0012
Au 24.9678 27.5204 16.0678
Au 25.0303 30.2778 16.1763
Pt 32.4754 20.3532 33.0533
Au 29.3579 18.6492 34.3546
Au 28.0907 19.0328 36.821
Au 31.8582 22.1414 30.9838
Au 25.9425 22.9862 35.4111
Au 28.5378 27.3036 34.6128
Au 32.5412 24.5366 29.5609
Au 30.1904 26.0824 30.3399
Pt 28.0716 26.9313 37.2488
Pt 31.824 23.2673 18.6471
Pt 29.5505 21.8064 17.8195
Pt 27.2113 20.4958 16.9
Pt 31.8828 26.1138 18.6527
Au 29.6105 24.672 17.8
Au 27.2631 23.2504 16.8579
Pt 29.6528 27.5093 17.8468
Au 27.2986 26.1071 16.9186
Pt 27.3885 28.8914 16.9739
Pt 17.7534 22.5921 32.1062
Pt 19.7709 20.8912 32.8799
Au 21.9541 19.3278 33.7013
Pt 17.7287 26.4715 32.0458
Pt 19.5709 24.5233 32.7745
Pt 21.5618 22.7818 33.4991
Pt 19.8168 28.2717 32.8654
Pt 21.5076 26.3284 33.6029
Pt 21.9407 29.5652 34.0239
Au 18.1032 23.3093 18.6022
Pt 20.3431 21.9238 17.7479
Pt 22.5646 20.5414 16.8653
Pt 18.097 26.164 18.635
Pt 20.3254 24.7342 17.7311
Au 22.6061 23.273 16.851
Au 20.3606 27.538 17.7963
Au 22.6432 26.1074 16.8654
Au 22.6625 28.9276 16.9473
Au 31.612 31.7142 23.9487
Au 32.6288 29.3955 22.3215
Au 33.4196 27.0368 20.9276
Au 32.0368 31.3853 26.7128
Au 32.9506 29.2001 25.1254
Pt 33.8119 26.9249 23.6799
Au 35.5893 29.1371 26.1059
Au 34.6882 24.4724 24.9901
Au 34.0647 26.787 26.4254
Au 18.2706 31.5755 23.7127
Au 17.4807 29.2928 22.2617
Au 16.6567 27.0168 20.898
Pt 18.1858 31.5477 26.6046
Au 17.3905 29.3205 25.2028
Au 16.5177 26.9753 23.7599
Au 17.347 29.3381 28.0836
Au 16.5042 26.9881 26.7056
Au 16.544 26.9302 29.578
Au 31.3953 17.4749 23.7174
Pt 32.3663 19.9101 22.2165
Au 33.1936 22.2855 20.8486
Au 31.8716 17.6094 26.4594
Au 32.7003 19.9166 25.0238
Pt 33.5415 22.2138 23.6044
Au 32.569 17.4213 29.8955
Au 33.0762 19.6832 27.9558
Pt 33.8439 19.697 30.8293
Au 18.1675 17.759 23.4631
Au 17.3675 20.0895 22.1614
Pt 16.6125 22.3761 20.8358
Au 18.1346 17.6808 26.3671
Au 17.2455 19.9949 25.0929
Au 16.4667 22.3846 23.7352
Au 17.2708 19.9669 27.9681
Au 16.3563 22.3391 26.7178
Au 16.423 22.2282 29.5873
Au 22.966 31.7162 32.4228
Au 21.7729 32.4586 29.9347
Au 20.4683 33.1129 27.5248
Au 25.795 31.9366 32.554
Au 24.5609 32.633 30.0988
Au 23.3434 33.3157 27.6234
Pt 27.2962 32.9001 30.3491
Au 26.1544 33.3585 27.8216
Au 28.96 33.3487 28.0324
Pt 22.8787 17.1544 32.0607
Au 21.6554 16.6331 29.6614
Au 20.3415 16.051 27.2091
Au 25.588 16.9336 32.2247
Pt 24.4599 16.3851 29.7862
Au 23.1729 15.8213 27.2915
Pt 27.2333 16.2464 29.9508
Au 25.9854 15.7341 27.4514
Pt 28.7511 15.621 27.7251
Au 23.5912 31.2399 18.4007
Au 22.1134 32.1503 20.6836
Au 20.607 32.9896 22.8495
Au 26.4936 31.2022 18.5022
Au 25.0074 32.221 20.7164
Au 23.5314 33.0693 22.9793
Au 27.9056 32.1322 20.9203
Au 26.4219 33.0818 23.164
Pt 29.2232 33.0442 23.3448
Au 23.415 18.1529 18.2227
Au 21.9378 17.2412 20.416
Pt 20.5525 16.2698 22.564
Pt 26.2485 18.0933 18.344
Pt 24.7971 17.1062 20.4928
Au 23.3315 16.1563 22.6809
Pt 27.6387 17.1346 20.5671
Au 26.1717 16.1015 22.7817
Au 29.0302 16.1442 23.0236
Pt 31.0628 18.0293 32.207
Au 31.3288 30.5827 31.6294
Pt 30.1383 17.8525 28.4476
Pt 30.3346 31.0317 28.9042
Au 28.6871 18.7922 30.5426
Au 28.8858 28.6021 29.308
Pt 30.9403 20.7926 20.0028
Pt 31.1303 28.4627 20.0709
Au 30.0379 18.4549 21.413
Au 30.251 30.7292 21.6279
Au 28.59 19.4363 19.1601
Au 28.799 29.7943 19.2797
Pt 18.5863 20.5144 30.4656
Pt 18.6208 28.7557 30.5279
Pt 19.4277 18.304 28.8624
Pt 19.4981 30.8875 29.0476
Pt 20.6844 18.7993 31.2366
Pt 20.7845 30.2934 31.4793
Pt 18.8863 20.9528 19.9343
Pt 18.8708 28.4604 19.9577
Pt 19.6506 18.6322 21.2292
Au 19.7236 30.7441 21.4262
Pt 21.1247 19.5413 19.0598
Au 21.2133 29.8773 19.1928
Pt 36.3109 24.6433 17.9581
Pt 36.6709 24.6202 20.6695
Au 38.3108 21.9476 23.117
Au 38.5727 22.0325 25.9275
Pt 38.9246 22.2522 28.531
Pt 36.4611 19.8029 31.6714
Pt 13.5796 24.8455 17.9864
Au 13.4338 24.7456 20.7811
Au 13.4099 24.7142 23.648
Pt 13.333 24.5283 26.6496
Pt 13.2583 24.4715 29.4886
Au 13.3444 24.4807 32.4455
Au 17.6598 36.143 24.8068
Au 20.5137 36.2254 24.8972
Pt 23.4053 36.2791 25.1049
Pt 26.2717 36.3302 25.2221
Au 29.1164 36.3007 25.3112
Au 32.0092 36.1172 25.5688
Pt 17.4977 13.2108 24.5293
Pt 20.2834 12.9735 24.5569
Pt 23.0488 12.7969 24.638
Au 25.9819 12.7418 24.7966
Au 28.8936 12.8695 24.9937
Au 31.8236 12.9085 25.1663
Au 22.3327 15.6098 40.5286
Pt 25.1503 21.5416 37.7152
Au 23.7452 21.3763 34.6076
Pt 21.6498 25.9359 40.7526
Au 23.3916 29.1695 36.7465
Au 23.9834 32.8392 36.8778
Au 24.7774 17.7756 13.6782
Pt 24.8351 20.6133 13.5907
Pt 24.8684 23.3315 13.5576
Au 24.9173 26.1608 13.5928
Pt 24.9308 28.9287 13.6232
Pt 25.0021 31.6947 13.8063
Pt 34.9421 20.0343 33.8775
Au 31.9907 18.3493 34.8846
Au 28.3504 21.5359 34.4376
Au 25.9934 20.0892 35.4422
Au 32.6372 24.2246 32.5145
Pt 33.7178 26.4402 34.3796
Au 28.7521 24.2893 34.5777
Au 27.108 19.2432 32.9536
Pt 35.3497 26.8686 31.9226
Au 29.597 23.5369 31.8895
Au 23.7184 27.4378 34.5882
Au 32.6602 26.7267 31.4487
Au 23.5544 27.6832 41.8031
Au 27.1411 28.5157 32.383
Pt 33.9848 23.2364 17.1341
Au 31.7314 21.91 16.1978
Au 29.4568 20.4625 15.3705
Au 27.1511 19.1678 14.486
Au 34.0691 26.0773 17.0412
Pt 31.8073 24.7248 16.207
Au 29.5106 23.3138 15.28
Pt 27.157 21.9613 14.3868
Pt 31.8316 27.5462 16.2418
Au 29.5406 26.1299 15.3454
Pt 27.2157 24.7026 14.3551
Au 29.5948 28.9272 15.369
Au 27.251 27.5286 14.4524
Au 27.3085 30.3541 14.5636
Pt 15.3608 22.5209 33.3634
Pt 17.3282 20.7421 34.2092
Au 19.4697 19.0932 35.0483
Au 21.624 17.4583 35.9506
Au 15.2982 26.4972 33.2501
Pt 17.1287 24.5135 33.9427
Pt 19.0609 22.7397 34.7538
Au 21.2036 21.1957 35.7169
Au 17.3127 28.3705 34.0643
Au 19.0568 26.4212 34.7113
Au 21.0464 24.5628 35.4863
Au 19.5433 29.7012 35.2518
Pt 21.2144 27.5256 36.0532
Pt 21.6478 31.405 36.1469
Au 15.7262 23.3576 17.0516
Pt 18.0179 21.9675 16.1719
Au 20.2787 20.5957 15.3028
Au 22.5238 19.1525 14.4661
Pt 15.8155 26.2143 17.1108
Au 18.0091 24.8012 16.1634
Au 20.2724 23.3737 15.2715
Pt 22.5444 21.9658 14.3635
Pt 18.0653 27.6434 16.2791
Au 20.3249 26.2361 15.295
Au 22.6126 24.7509 14.3827
Pt 20.3747 29.0051 15.3681
Pt 22.602 27.5799 14.4079
Au 22.6769 30.3479 14.5798
Pt 33.1301 33.9237 23.653
Pt 34.0426 31.6752 21.9942
Pt 34.9204 29.3695 20.5946
Au 35.6788 27.0021 19.2993
Au 33.4293 33.7664 26.3949
Au 34.3402 31.6119 24.7517
Au 35.2775 29.3095 23.3403
Pt 36.0761 26.9713 22.0241
Pt 34.7728 31.4204 27.5113
Pt 36.3944 26.7729 24.7216
Au 37.0063 24.4397 23.3756
Au 35.8718 29.3421 29.0303
Pt 37.1905 24.4632 26.1543
Au 34.908 24.4653 27.7901
Pt 16.8041 33.9064 23.4623
Au 15.9748 31.6249 22.0945
Pt 15.1688 29.3304 20.6793
Pt 14.3697 27.0859 19.3417
Pt 16.6422 33.8906 26.3259
Pt 15.838 31.6575 25.0136
Au 14.9754 29.3477 23.5751
Pt 14.1813 27.0625 22.1324
Pt 15.7493 31.6781 27.8087
Au 14.9263 29.3871 26.4376
Au 14.0941 27.0534 25.0582
Pt 14.9077 29.4138 29.2328
Au 14.1158 26.8876 27.9341
Au 14.1609 26.871 30.7354
Pt 32.721 15.165 23.505
Au 33.6391 17.5536 22.0079
Pt 34.5336 19.8732 20.5877
Pt 35.4404 22.2714 19.261
Pt 33.9277 15.0548 29.7507
Au 34.0951 17.5618 24.8041
Pt 34.9304 19.8758 23.388
Au 35.7597 22.1805 21.9797
Pt 33.5245 13.0785 31.694
Au 34.4657 17.2355 27.83
Pt 35.3181 19.735 26.1814
Pt 35.2745 17.3731 30.6139
Au 35.7779 19.5938 28.893
Pt 36.3127 17.6479 33.3205
Pt 16.6074 15.5015 23.2136
Pt 15.7959 17.7656 21.9119
Pt 15.0176 20.0777 20.6643
Pt 14.2963 22.4236 19.3585
Pt 16.5104 15.3733 25.9951
Pt 15.6514 17.6579 24.7263
Au 14.8739 20.0026 23.4725
Au 14.1392 22.3602 22.1426
Au 15.6471 17.6277 27.5402
Au 14.7769 19.9844 26.3681
Au 13.9949 22.3464 25.0624
Pt 14.7827 19.8756 29.1913
Pt 13.9407 22.2318 27.9804
Au 14.0125 22.1995 30.825
Pt 22.6719 33.4876 34.558
Au 21.4851 34.15 32.1116
Au 20.3063 34.9257 29.6657
Au 18.9708 35.5274 27.2338
Pt 25.508 33.7988 34.6697
Au 24.2714 34.3652 32.2432
Pt 23.1425 35.0883 29.7588
Au 21.8477 35.6991 27.3816
Pt 27.0005 34.6963 32.5023
Pt 25.8451 35.2073 30.0167
Pt 24.6706 35.7567 27.5032
Au 28.5971 35.3099 30.2605
Au 27.4367 35.7712 27.7001
Au 30.2947 35.7805 27.9542
Au 22.5868 15.3966 34.1701
Pt 21.2959 14.8246 31.7123
Au 20.0778 14.2562 29.2736
Pt 18.7609 13.7111 26.8789
Au 25.3472 15.1096 34.3102
Pt 24.09 14.5757 31.8657
Au 22.8776 14.0303 29.4009
Pt 21.5422 13.4631 26.969
Pt 26.8718 14.3801 32.0191
Au 25.6855 13.9169 29.5611
Au 24.4247 13.3001 27.0622
Pt 28.4685 13.7887 29.7746
Pt 27.3074 13.3189 27.3276
Pt 30.0989 13.2901 27.5176
Pt 23.5672 32.6832 16.0105
Au 22.0948 33.5631 18.2653
Pt 20.5578 34.4467 20.4371
Pt 19.1026 35.2967 22.5569
Au 26.4461 32.6521 16.087
Pt 24.9456 33.6802 18.2633
Pt 23.4817 34.5975 20.5215
Pt 21.9684 35.3688 22.6548
Au 27.7997 33.589 18.3902
Au 26.3323 34.6248 20.5852
Au 24.8625 35.452 22.8783
Au 29.2595 34.5061 20.7728
Au 27.7718 35.4416 22.9835
Au 30.66 35.2802 23.1361
Pt 23.3202 16.7335 15.8164
Au 21.8669 15.8086 17.9392
Pt 20.4744 14.9014 20.1586
Pt 19.0176 14.0272 22.3315
Au 26.1825 16.7159 15.8831
Pt 24.7158 15.6881 18.0345
Au 23.2881 14.7616 20.219
Pt 21.8098 13.8065 22.3872
Au 27.5821 15.7475 18.167
Pt 26.0869 14.7506 20.3273
Pt 24.5906 13.7111 22.4791
Au 29.0358 14.8376 20.4514
Au 27.4507 13.7132 22.6362
Au 30.4102 13.8618 22.8034
Pt 33.7087 17.7887 32.7853
Pt 35.0497 24.5019 30.4867
Au 32.2728 15.4988 31.9711
Pt 32.9874 31.1106 29.4512
Pt 31.4774 15.5145 28.1976
Au 31.6786 33.4231 28.6183
Au 30.6184 15.9991 34.1584
Pt 31.5825 28.6892 29.7676
Au 29.9506 16.1232 30.4114
Pt 30.0294 33.0015 30.8011
Au 28.3525 16.7211 32.5459
Au 28.6255 30.5647 31.1085
Au 33.1611 20.833 18.404
Au 33.3494 28.4706 18.4503
Pt 32.2647 18.4529 19.7341
Pt 32.5399 30.7716 19.8215
Pt 31.3938 16.1889 21.1225
Au 31.627 33.0314 21.4557
Pt 30.8755 19.3814 17.5843
Au 31.0565 29.8933 17.6229
Pt 29.9772 17.0935 18.9016
Au 30.1887 32.1539 19.1138
Au 28.5614 18.0547 16.7033
Pt 28.7744 31.2482 16.7852
Au 16.0833 20.3448 31.6658
Pt 16.1829 28.8491 31.6026
Au 16.9325 18.172 30.0322
Pt 17.0505 31.0509 30.2355
Pt 17.8306 15.8976 28.4293
Au 17.9558 33.2437 28.7331
Au 18.2229 18.6547 32.5102
Pt 18.3099 30.5265 32.6593
Au 19.1253 16.4717 30.8792
Au 19.2603 32.6268 31.1804
Au 20.4076 16.9612 33.3443
Pt 20.4716 31.9108 33.6826
Au 16.4851 20.994 18.426
Pt 16.5805 28.4862 18.4684
Au 17.2777 18.6607 19.713
Pt 17.376 30.7856 19.7739
Au 18.1573 16.334 21.021
Pt 18.2013 33.0679 21.1853
Au 18.8075 19.618 17.5149
Au 18.8732 29.942 17.5871
Au 19.581 17.222 18.779
Au 19.681 32.2226 19.0199
Pt 21.0554 18.1646 16.6435
Pt 21.1954 31.3184 16.7799
Au 38.5091 24.6017 16.3207
Pt 38.81 24.6358 19.0884
Pt 39.3738 24.1966 21.7635
Au 39.6437 24.2519 24.5584
Pt 39.5475 24.7615 27.4269
Pt 37.3877 24.5444 28.9368
Pt 40.8822 20.9013 30.0552
Au 11.3498 24.8426 16.4439
Pt 11.1086 24.7913 19.2917
Au 11.0024 24.7118 22.0698
Au 11.0105 24.6077 24.9266
Au 10.9457 24.5583 27.8219
Pt 10.9101 24.5109 30.692
Pt 10.9172 24.5516 33.5857
Pt 16.2256 38.4824 24.5316
Pt 19.0233 38.5818 24.6874
Au 21.8351 38.6227 24.8347
Au 24.7142 38.6167 24.899
Pt 27.5873 38.7421 25.0142
Pt 30.3433 38.6836 25.0943
Au 33.2595 38.4449 25.3801
Pt 15.9702 10.9483 24.2855
Pt 18.7514 10.7333 24.3452
Pt 21.4904 10.5818 24.3863
Pt 24.2822 10.4548 24.5055
Au 27.2904 10.3198 24.589
Au 30.2181 10.4743 24.7094
Pt 34.4352 8.27837 24.6069
Au 23.3757 19.5696 36.7276
Pt 24.3548 19.7811 39.5535
Pt 22.4107 21.4039 38.515
Au 23.2544 25.7952 36.763
Pt 27.2606 28.7123 39.1114
Pt 24.5853 29.1265 39.5769
Pt 23.5703 34.5759 38.8731
Au 24.768 16.4528 11.2977
Pt 24.7881 19.242 11.2213
Au 24.8375 21.9599 11.1889
Au 24.8601 24.7947 11.1741
Pt 24.9449 27.5637 11.1981
Pt 24.9431 30.3065 11.2719
Au 24.9719 33.0702 11.4669
Pt 36.3931 22.0588 35.3047
Au 29.8429 20.6072 32.3394
Pt 31.1061 22.4585 34.0106
Au 26.8599 17.3535 34.9725
Au 25.3172 24.3051 37.8639
Pt 35.2709 24.4293 33.1532
Pt 34.1679 22.6913 37.1687
Pt 32.5166 24.3926 35.5022
Au 26.2056 25.7256 35.3952
Au 31.7307 19.4103 40.0836
Au 32.1555 28.6336 33.6139
Pt 30.6787 28.3395 36.0475
Au 30.8888 26.0004 33.6705
Au 26.1583 21.0637 41.4757
Au 29.4355 29.9465 34.0487
Pt 31.9739 26.9212 37.8975
Pt 22.5547 27.446 38.7667
Au 26.1248 28.6504 35.1766
Au 25.3799 27.33 37.6674
Pt 25.7557 30.4391 37.4446
Au 36.1785 23.2094 15.5285
Au 33.9259 21.8402 14.535
Au 31.6866 20.4352 13.6854
Pt 29.4266 19.0945 12.9091
Au 27.1081 17.7273 12.1414
Au 36.3062 26.0979 15.4401
Au 33.9675 24.6322 14.5456
Pt 31.7255 23.2706 13.5741
Au 29.4456 21.9076 12.8227
Pt 27.1653 20.5735 12.0186
Pt 34.0265 27.5228 14.5608
Au 31.769 26.1457 13.7603
Au 29.4696 24.7818 12.8136
Pt 27.1698 23.3812 11.9542
Pt 31.8065 28.9778 13.7723
Pt 29.4895 27.5658 12.8458
Pt 27.2039 26.1897 11.9495
Pt 29.5393 30.3621 12.9196
Au 27.2356 28.9786 12.0196
Pt 27.2944 31.7866 12.1992
Pt 12.8865 22.465 34.4903
Pt 14.8882 20.6212 35.4067
Pt 16.9635 18.8582 36.2777
Au 17.707 17.2456 40.6739
Pt 17.5112 14.9506 36.6366
Au 12.7823 26.5587 34.5404
Pt 14.6648 24.5018 35.0995
Pt 16.578 22.6967 35.938
Pt 18.6065 21.0165 36.8184
Pt 19.745 21.2648 39.4246
Au 14.8378 28.4699 35.4199
Pt 16.5563 26.4125 35.8849
Pt 18.4028 24.6356 36.6131
Pt 20.3835 23.0234 37.5632
Au 17.0623 29.8857 36.4777
Pt 18.6867 27.6489 37.2139
Pt 20.5369 25.749 38.0153
Pt 19.1605 31.6514 37.3155
Au 20.7523 29.4445 37.8727
Pt 21.2711 33.2527 38.1784
Pt 13.4698 23.3613 15.4995
Au 15.7155 22.011 14.6197
Pt 17.9854 20.6131 13.7391
Au 20.2658 19.2067 12.8582
Pt 22.4752 17.7753 12.0276
Pt 13.5481 26.2161 15.5656
Pt 15.7121 24.7788 14.5986
Pt 17.9803 23.3925 13.6817
Pt 20.2924 22.0293 12.7741
Pt 22.5213 20.6184 11.9894
Au 15.7672 27.5921 14.7095
Au 18.0331 26.204 13.7321
Au 20.2839 24.7893 12.8159
Pt 22.5427 23.4141 11.9166
Au 18.1092 29.0262 13.8357
Pt 20.3557 27.5901 12.8162
Pt 22.5799 26.1963 11.9686
Pt 20.3769 30.4073 12.9713
Au 22.6227 28.9628 12.0332
Au 22.6588 31.7854 12.1979
Au 34.3381 36.3375 23.6015
Au 35.2879 34.0936 21.8784
Au 36.271 31.7694 20.3525
Pt 37.1515 29.4177 18.9741
Pt 37.8418 27.0422 17.6572
Pt 34.7906 36.1302 26.3239
Pt 35.7411 34.0183 24.5493
Pt 36.6589 31.7909 23.0353
Au 37.5543 29.3915 21.6769
Pt 38.2682 26.9858 20.3565
Au 36.1007 33.7905 27.2394
Au 36.9733 31.5895 25.7371
Au 37.9643 29.1317 24.3821
Au 38.7004 26.661 23.0338
Pt 37.2554 31.7626 28.915
Au 38.1188 29.5158 27.2149
Pt 39.0502 26.8138 25.7296
Pt 38.6764 29.5648 29.9319
Au 36.7139 26.8757 27.4307
Au 36.6831 22.1428 30.1297
Au 15.2979 36.2749 23.2635
Au 14.4632 33.9688 21.8987
Au 13.6227 31.6237 20.5452
Au 12.8246 29.3477 19.1915
Pt 12.0642 27.1279 17.8543
Pt 15.2036 36.2624 26.0748
Au 14.3312 33.986 24.768
Au 13.4237 31.6771 23.4268
Au 12.6049 29.3757 22.058
Pt 11.86 27.0876 20.6593
Pt 14.2167 34.0424 27.5564
Au 13.3379 31.722 26.2348
Pt 12.4394 29.4178 24.8667
Au 11.7253 27.0894 23.4863
Pt 13.2757 31.7309 28.9883
Au 12.4839 29.3073 27.656
Au 11.6693 26.9826 26.2975
Au 12.4522 29.3792 30.4773
Au 11.6993 26.9082 29.1593
Au 11.7678 26.9211 31.9666
Pt 34.066 12.8388 23.2757
Au 34.9857 15.1451 21.7624
Au 35.9257 17.4805 20.3392
Au 36.7904 19.8721 18.9658
Au 37.7592 22.2653 17.6898
Au 33.2258 15.2358 26.1907
Au 35.3994 15.0785 24.5446
Au 36.6311 17.2511 26.0062
Au 37.1487 19.7183 21.7365
Au 38.0875 22.1333 20.3515
Pt 38.3155 14.5032 28.1211
Pt 35.6805 14.7862 27.5844
Pt 37.1875 17.1228 28.6569
Au 37.5073 19.6206 24.5601
Pt 36.667 15.0001 30.2087
Au 39.6675 16.1131 29.7758
Pt 37.998 19.5098 27.2338
Pt 37.8983 17.5557 31.1703
Au 38.4399 19.8421 29.8311
Pt 39.2745 20.461 32.3412
Au 15.1067 13.263 22.977
Pt 14.2528 15.5762 21.7008
Pt 13.5236 17.8117 20.3863
Au 12.7595 20.1282 19.1097
Au 12.0495 22.5231 17.8464
Pt 14.9921 13.1362 25.7885
Pt 14.1043 15.4405 24.5054
Pt 13.3161 17.736 23.2095
Pt 12.5201 20.0356 21.9244
Pt 11.8032 22.3714 20.6261
Pt 14.1101 15.3158 27.2589
Pt 13.2318 17.6303 25.9931
Au 12.379 20.0073 24.7694
Pt 11.6749 22.3128 23.4014
Pt 13.2336 17.4921 28.8118
Au 12.329 19.8634 27.6241
Pt 11.6333 22.2346 26.3655
Au 12.4063 19.8357 30.4478
Pt 11.5665 22.2081 29.1717
Au 11.5545 22.1602 32.0861
Pt 22.358 35.2339 36.5898
Au 21.1243 35.8934 34.2247
Au 19.9165 36.6633 31.8216
Au 18.7231 37.2803 29.3891
Pt 17.4924 37.8744 26.9822
Pt 25.1189 35.4694 36.7211
Pt 23.927 36.0834 34.3537
Au 22.7555 36.7853 31.9078
Pt 21.5809 37.4768 29.5387
Pt 20.3551 38.0272 27.166
Pt 26.6745 36.4077 34.6171
Pt 25.5357 36.9513 32.1638
Au 24.4011 37.5604 29.6705
Pt 23.1527 38.1082 27.2715
Pt 28.2644 37.1941 32.441
Pt 27.158 37.6387 29.9024
Au 25.9938 38.1993 27.3606
Pt 29.9014 37.7507 30.1778
Au 28.7899 38.1452 27.5003
Pt 31.5518 38.1259 27.7342
Pt 20.0225 15.155 35.4791
Au 20.9909 13.091 33.7838
Pt 19.7176 12.5263 31.3666
Pt 18.4714 11.9936 28.9601
Pt 17.21 11.4856 26.6222
Pt 25.003 13.2942 36.3146
Pt 23.7799 12.7912 33.9403
Au 22.5072 12.2513 31.4931
Pt 21.2547 11.6602 29.0738
Pt 19.9827 11.2306 26.7096
Pt 28.0796 14.7725 34.5413
Au 25.3073 12.0638 31.6482
Au 24.1091 11.406 29.1859
Pt 22.7326 11.0458 26.7973
Pt 28.0988 11.9271 31.8177
Au 26.927 11.3511 29.3618
Au 25.7001 10.7436 26.8974
Au 29.7621 11.3936 29.5042
Au 28.5446 10.8949 27.0256
Pt 31.4247 10.9482 27.233
Pt 23.5637 34.1065 13.6691
Au 22.089 34.9771 15.8454
Pt 20.584 35.8511 18.0505
Pt 19.0998 36.7551 20.2019
Pt 17.6563 37.6236 22.3669
Au 26.4379 34.0598 13.704
Pt 24.9428 35.0727 15.895
Au 23.5057 35.9957 18.1213
Pt 21.9485 36.825 20.2408
Au 20.4777 37.698 22.4559
Pt 27.7333 35.0344 15.9184
Pt 26.3037 36.0575 18.1162
Pt 24.8641 36.998 20.3087
Au 23.3271 37.7446 22.5198
Au 29.1519 35.9518 18.2604
Pt 27.6726 36.9611 20.4363
Au 26.2488 37.807 22.6382
Pt 30.4446 36.9208 20.5896
Pt 29.0451 37.8036 22.7724
Au 31.8587 37.7122 22.9494
Pt 23.294 15.4036 13.4295
Pt 21.8851 14.4319 15.5525
Pt 20.3838 13.5212 17.6946
Au 18.9668 12.6389 19.8944
Au 17.4509 11.7859 22.0803
Pt 26.1665 15.3118 13.4445
Pt 24.6938 14.3146 15.5774
Au 23.2296 13.3317 17.7375
Pt 21.7825 12.4198 19.9545
Pt 20.293 11.5522 22.1275
Au 27.5704 14.3634 15.6541
Pt 26.0476 13.369 17.8269
Au 24.6111 12.3285 20.0378
Pt 23.0636 11.4127 22.2037
Au 29.0366 13.4372 17.9148
Au 27.4482 12.3786 20.139
Pt 25.8291 11.2703 22.3227
Au 30.3549 12.4053 20.2277
Au 28.7847 11.3109 22.4105
Au 31.7035 11.4588 22.5591
Au 34.4638 15.7182 37.2241
Au 33.9297 29.1308 31.1467
Pt 35.0302 15.3627 32.3759
Au 35.3205 31.5574 30.9324
Au 33.1028 11.0274 33.6421
Pt 34.3697 33.5025 29.2225
Pt 32.8561 13.2134 27.9452
Pt 33.0378 35.7901 28.4109
Pt 35.3265 20.1149 36.5848
Au 33.5993 31.1334 33.2369
Au 34.7088 13.2619 34.2342
Pt 32.7444 33.0339 31.3199
Pt 31.2465 13.6821 30.1135
Pt 31.3192 35.3967 30.6407
Pt 26.1769 10.8016 36.0785
Au 31.0979 32.4703 33.5705
Au 33.0355 13.5858 36.452
Pt 29.7118 34.8835 32.8315
Pt 26.2343 13.6909 38.7316
Au 28.4372 32.4186 33.0105
Pt 35.3795 20.784 16.789
Au 35.6215 28.5089 16.7886
Pt 34.4645 18.3955 18.1322
Au 34.8082 30.893 18.1518
Pt 33.606 16.1066 19.448
Au 33.87 33.1682 19.618
Au 32.636 13.8366 20.9902
Au 32.8371 35.471 21.2847
Au 33.087 19.4248 15.9395
Au 33.3069 29.9432 15.9304
Pt 32.2178 17.038 17.3004
Pt 32.4818 32.273 17.3809
Pt 31.3435 14.7924 18.6614
Au 31.5127 34.5274 18.937
Pt 30.8645 17.9894 15.126
Au 31.0335 31.3361 15.1153
Pt 29.9757 15.678 16.4671
Au 30.0893 33.6377 16.6381
Pt 28.5741 16.6679 14.2756
Pt 28.7897 32.7368 14.3402
Au 13.6209 20.2396 32.9469
Au 13.724 28.8758 32.8891
Pt 14.409 17.9868 31.3373
Au 14.5322 31.1446 31.3705
Au 15.3607 15.8416 29.6848
Au 15.4366 33.4029 29.9507
Pt 16.2642 13.6405 28.1444
Au 16.4445 35.6481 28.4607
Au 15.6701 18.4615 33.8122
Au 15.767 30.6199 33.8285
Au 17.8578 16.7777 34.6302
Au 16.6935 32.8204 32.4104
Au 17.5568 14.1701 30.5522
Au 17.6879 35.0639 30.9283
Pt 16.5843 16.9828 38.2147
Pt 18.0191 32.1158 34.8943
Pt 18.771 14.6573 33.0254
Au 18.904 34.3485 33.383
Pt 19.0687 17.1928 37.0943
Pt 20.1492 33.7123 35.7593
Pt 14.1939 20.979 16.8548
Pt 14.2876 28.5286 16.942
Pt 14.9468 18.6654 18.1385
Pt 15.109 30.8379 18.238
Pt 15.7505 16.3801 19.4279
Au 15.8833 33.1449 19.5698
Au 16.5878 14.1081 20.7456
Au 16.7458 35.3957 21.0194
Au 16.4665 19.6177 15.9446
Au 16.5299 29.9749 16.0555
Pt 17.2224 17.2835 17.2516
Pt 17.3417 32.2937 17.3978
Pt 18.0871 14.9452 18.5303
Pt 18.1932 34.5397 18.8173
Au 18.7513 18.1892 15.0772
Au 18.8323 31.3917 15.1547
Pt 19.5236 15.832 16.3257
Au 19.6545 33.6232 16.6046
Pt 21.0149 16.753 14.2097
Au 21.1954 32.7261 14.3839
Pt 40.7231 24.4651 14.7548
Pt 42.8473 23.927 18.9256
Pt 40.5089 22.3687 18.9735
Pt 42.3533 23.4478 24.1118
Pt 41.5293 23.2812 26.7824
Pt 39.3489 27.398 28.3359
Pt 38.5802 27.2212 32.3355
Au 37.4127 24.8713 31.7002
Au 9.05592 24.82 14.9401
Au 8.86083 24.8002 17.8068
Pt 8.66311 24.8027 20.5636
Pt 8.61811 24.8232 23.3394
Au 8.58668 24.7279 26.1358
Pt 8.61286 24.6683 29.1368
Au 6.32248 24.7962 33.219
Au 13.2013 24.6613 38.9417
Pt 14.7757 40.6736 24.3003
Au 17.5718 40.9352 24.4103
Pt 20.3441 41.0101 24.613
Au 23.1823 41.0303 24.6735
Au 26.0456 41.035 24.7751
Pt 28.9008 41.1258 24.8031
Au 31.6863 40.9702 24.8391
Au 34.5122 40.7567 24.9446
Au 14.3667 8.67968 24.0509
Pt 17.2361 8.49358 24.0218
Au 19.9386 8.25319 24.1444
Pt 22.7628 8.24682 24.252
Au 25.6689 8.0968 24.3406
Pt 28.7573 8.01718 24.3066
Pt 31.6604 8.28877 24.4017
Au 37.0733 7.97942 25.4066
Au 26.2898 18.1169 40.8927
Pt 27.0021 20.0406 39.1241
Au 29.0028 18.7235 40.7178
Pt 24.3944 25.8533 39.9284
Pt 19.8641 27.685 39.8023
Au 23.9725 30.9281 41.5235
Au 28.8293 27.1913 41.08
Pt 25.2713 32.2953 39.2695
Pt 24.7596 15.1589 8.97339
Pt 24.7975 17.8847 8.87497
Pt 24.8156 20.6422 8.7226
Au 24.8203 23.4065 8.78679
Pt 24.8914 26.2387 8.82357
Pt 24.9301 28.9679 8.87123
Pt 24.9416 31.7702 8.98901
Pt 24.926 34.553 9.24766
Au 40.1996 24.4009 35.6001
Pt 32.8071 18.8969 37.439
Au 36.0156 24.4651 38.5702
Pt 30.3819 22.8792 36.4586
Au 29.9591 12.1582 38.135
Pt 25.5469 18.1885 37.5958
Au 36.742 29.2721 31.8025
Au 42.1401 25.2906 31.2433
Pt 32.1454 24.3034 38.0768
Pt 30.3999 20.2647 36.2283
Pt 22.5216 24.1592 38.992
Au 32.7608 16.9202 39.2335
Pt 35.4622 24.4558 35.7537
Pt 33.9172 28.2925 38.8533
Au 33.8708 25.7339 39.8126
Pt 29.8022 25.6219 39.0028
Au 31.5101 24.2016 40.7152
Pt 34.7771 30.8323 35.8348
Pt 33.3439 28.4977 36.1576
Au 31.8849 29.7289 40.1333
Au 31.5936 27.0416 40.6299
Pt 31.9651 30.7313 35.5035
Pt 30.5124 30.5404 37.8559
Au 26.0048 24.2978 41.5778
Pt 29.4857 31.9795 35.8864
Pt 29.8909 28.2543 38.7449
Au 26.9573 31.3254 35.0714
Pt 38.4404 23.1218 13.9686
Au 36.179 21.8007 13.001
Pt 33.8977 20.3373 12.0755
Pt 31.6624 19.0861 11.2786
Au 29.3386 17.7474 10.5427
Pt 27.0756 16.3911 9.75459
Au 38.6028 25.9782 13.8288
Au 36.2678 24.59 12.9248
Pt 34.049 23.1961 11.8956
Pt 31.7595 21.8225 11.1315
Pt 29.4586 20.5506 10.3996
Au 27.0847 19.222 9.6081
Pt 36.2801 27.4457 13.0494
Au 34.0508 26.0567 12.084
Au 31.8139 24.661 11.2032
Au 29.4682 23.3557 10.4002
Au 27.1611 21.9781 9.5476
Au 34.0443 28.9758 12.1725
Au 31.7532 27.5312 11.3145
Pt 29.4693 26.1843 10.3817
Pt 27.1929 24.8331 9.56924
Pt 31.8173 30.3621 11.4397
Au 29.5245 28.9975 10.3935
Pt 27.2499 27.5677 9.51924
Au 29.5264 31.8805 10.6118
Au 27.2551 30.4399 9.60018
Pt 27.2619 33.2466 9.90594
Au 7.66546 19.9762 32.8321
Au 10.0634 20.5002 37.6071
Au 12.8098 16.43 37.0247
Au 14.12 16.9009 39.3474
Au 24.8015 14.3466 41.0915
Pt 18.7237 15.3442 39.0071
Pt 16.1193 20.8754 37.9064
Au 13.4933 27.9736 39.1395
Pt 18.1224 19.1694 38.7855
Au 23.5296 20.6904 42.0114
Au 17.1688 21.1714 40.6307
Pt 24.3871 22.6128 40.0759
Pt 11.3275 28.9233 34.1221
Pt 15.8601 24.6056 37.7578
Au 17.281 24.0352 41.0913
Pt 19.8948 24.0392 40.0117
Pt 21.7744 22.364 40.9133
Pt 14.5343 30.1581 37.5183
Au 17.2555 27.7807 40.8756
Pt 17.9875 25.7961 39.0859
Au 20.9819 27.861 42.5302
Au 17.5286 31.5641 40.9812
Au 15.5332 29.7908 40.0466
Au 19.1675 29.599 41.7071
Pt 22.8955 31.1008 38.672
Au 26.5812 30.5996 40.9717
Pt 22.4101 32.874 40.6105
Au 11.1853 23.4025 13.8812
Pt 13.4522 22.0423 13.0326
Au 15.6871 20.6198 12.234
Au 17.9358 19.2094 11.3367
Pt 20.2538 17.7884 10.4504
Pt 22.4609 16.4235 9.64453
Pt 11.2772 26.2714 14.0471
Au 13.4328 24.7989 13.0123
Pt 15.705 23.4373 12.124
Au 17.9689 22.0325 11.2526
Au 20.1833 20.6158 10.3419
Au 22.4881 19.2692 9.56985
Au 13.394 27.6613 13.1504
Au 15.7179 26.2157 12.1746
Pt 17.9778 24.8032 11.2622
Pt 20.2357 23.4719 10.3634
Pt 22.5079 22.0228 9.5816
Au 15.7548 29.0747 12.2578
Au 17.9998 27.6265 11.2515
Au 20.2593 26.2007 10.3641
Pt 22.4799 24.8498 9.51705
Au 17.9998 30.4464 11.4348
Au 20.2724 29.0709 10.413
Pt 22.6231 27.5709 9.6131
Au 20.3433 31.9153 10.5707
Au 22.6047 30.4394 9.61889
Pt 22.6358 33.2137 9.8445
Au 35.6987 38.7699 23.2894
Au 38.7354 36.719 19.8923
Pt 37.4962 34.2535 20.1589
Au 41.0209 32.1981 19.6739
Pt 39.2525 29.5177 17.2658
Pt 39.9903 26.9626 16.0068
Au 36.0744 38.511 26.0398
Au 37.7799 38.9416 21.4395
Pt 37.9183 34.2808 22.8362
Au 41.8866 29.6905 18.2924
Pt 40.607 27.7717 21.3944
Pt 41.4893 25.6424 22.8336
Pt 37.3831 36.3689 27.0111
Pt 37.0375 36.4481 24.3398
Pt 39.139 32.1241 24.0798
Pt 40.0551 30.0444 22.6807
Au 44.0223 25.5586 24.0068
Au 38.3878 34.2886 28.6506
Au 38.2521 34.219 25.5882
Au 41.4468 32.4571 22.4691
Au 43.273 27.8198 22.4143
Pt 39.9248 32.0494 29.7506
Pt 39.3089 32.1761 27.0703
Au 40.3099 30.0919 25.5289
Pt 39.1726 26.7657 34.8578
Au 41.9707 30.3294 30.6047
Pt 37.244 27.1195 30.0294
Pt 13.8322 38.5921 22.9125
Au 12.9638 36.3304 21.673
Au 12.1227 33.9547 20.3923
Au 11.2337 31.6689 19.0304
Pt 10.4158 29.3657 17.7241
Pt 9.8098 27.1351 16.3791
Au 13.7344 38.5428 25.8088
Pt 12.808 36.3142 24.4974
Au 11.8634 34.0128 23.205
Pt 10.9934 31.6716 21.9189
Au 10.2506 29.4122 20.519
Pt 9.57932 27.1305 19.175
Pt 12.734 36.3616 27.2887
Au 11.7515 34.1079 25.9906
Au 10.8345 31.7438 24.705
Pt 10.0592 29.432 23.3762