2057
Atoms. Timestep: 20277
Au 25.0978 24.6778 25.625
Au 27.4345 24.696 24.2169
Au 27.4205 24.5514 27.1518
Au 22.7818 24.7093 24.0928
Au 22.795 24.6666 27.035
Pt 23.712 26.9885 25.5535
Au 26.5388 26.9688 25.7282
Au 23.5913 22.3826 25.4178
Au 26.5 22.3439 25.5337
Au 25.0685 23.0865 27.8317
Au 25.1446 26.091 27.9866
Au 25.0334 23.2604 23.2211
Au 25.1265 26.1005 23.2931
Au 29.8018 24.7172 22.7706
Au 29.7858 24.4502 25.6078
Au 29.8098 24.5917 28.7185
Pt 20.4747 24.6984 22.4549
Au 20.4119 24.6673 25.4998
Au 20.4402 24.6157 28.4583
Pt 22.3008 29.22 25.4383
Pt 25.1297 29.2737 25.5153
Au 27.9716 29.2233 25.6566
Au 22.0817 20.0997 25.2045
Au 24.9295 19.9883 25.2706
Au 27.755 19.9974 25.3856
Au 24.8917 21.5362 30.1177
Au 24.992 24.3643 30.2194
Au 25.1015 27.5446 30.355
Au 24.9583 21.8501 20.8122
Au 25.0629 24.7204 20.8362
Pt 25.108 27.4963 20.9662
Au 27.3898 22.9184 29.4369
Au 27.326 25.7884 29.6481
Au 27.4035 23.2939 21.7993
Au 27.4505 26.1424 21.8161
Au 22.6139 22.9566 29.2592
Au 22.7459 26.0751 29.4705
Au 22.7041 23.2579 21.637
Au 22.7447 26.1125 21.6734
Au 29.0239 27.0223 24.2217
Pt 28.9347 26.7204 26.9731
Au 21.341 26.9788 24.0248
Au 21.3596 27.0099 26.9349
Pt 28.7863 22.2787 24.05
Au 28.8623 22.2032 27.0945
Au 21.2278 22.4117 23.8905
Au 21.2017 22.2959 26.835
Au 23.7426 28.3927 27.9112
Pt 26.9257 28.2994 28.1707
Au 23.5473 20.7855 27.6797
Pt 26.4457 20.7116 27.7852
Au 23.6567 28.3906 23.1827
Pt 26.5641 28.3993 23.3402
Pt 23.4971 20.8756 22.9407
Au 26.3553 20.8837 23.055
Pt 32.0346 24.7212 21.1791
Au 32.3046 24.306 24.1536
Au 32.0125 24.0937 27.183
Au 34.1132 23.9702 28.9423
Pt 18.1695 24.7148 20.9754
Au 18.1102 24.6847 23.8804
Au 18.0083 24.6369 26.9335
Au 18.023 24.588 29.8833
Au 20.7574 31.4705 25.2117
Pt 23.6328 31.5779 25.2596
Pt 26.4102 31.6383 25.3654
Pt 29.1741 31.5936 25.5229
Au 20.6259 17.767 24.9842
Au 23.4073 17.6215 25.0124
Au 26.1881 17.5476 25.0688
Au 28.9847 17.5418 25.1991
Au 24.64 19.9547 32.3999
Au 24.8735 22.78 32.6399
Au 24.8225 25.6598 32.5034
Au 24.6054 29.377 32.4104
Au 24.9102 20.5156 18.3755
Au 24.9618 23.2821 18.365
Au 25.0386 26.0979 18.4378
Au 25.1209 28.8606 18.5084
Au 29.7084 22.4949 30.8932
Au 27.2415 21.1832 31.6312
Pt 31.5508 28.8771 29.6916
Pt 31.8722 26.8268 31.4576
Au 27.2306 26.8369 32.16
Au 29.7126 23.259 20.2706
Au 27.2926 21.8664 19.3022
Au 29.7928 26.1256 20.2789
Au 27.3945 24.684 19.314
Au 27.4161 27.4776 19.3535
Au 20.1707 22.8011 30.6802
Pt 22.3315 21.3854 31.6267
Au 20.2622 26.1943 30.8193
Au 22.5192 24.2216 31.6546
Au 22.4533 27.8052 31.6316
Au 20.3894 23.2912 20.0801
Pt 22.5916 21.825 19.2192
Pt 20.3932 26.1156 20.0801
Au 22.6576 24.6858 19.2151
Au 22.7468 27.5113 19.2929
Au 30.3589 29.4713 24.0444
Au 31.3788 27.0693 22.6612
Au 30.4748 28.7844 26.9178
Au 31.5422 26.5746 25.7253
Pt 32.0749 26.4583 28.6523
Au 19.8911 29.272 23.865
Au 19.018 26.9771 22.3951
Pt 19.8358 29.3127 26.7748
Au 18.9251 27.0031 25.3995
Au 18.9377 26.991 28.3185
Au 30.0694 19.8915 23.8314
Au 31.0227 22.2456 22.5595
Au 30.1076 19.7479 26.8521
Au 31.1508 22.0076 25.4978
Pt 31.184 21.8914 28.6527
Au 19.7053 20.0821 23.7359
Au 18.9043 22.4164 22.3444
Pt 19.6757 19.9834 26.68
Au 18.8082 22.3264 25.3348
Au 18.8156 22.2554 28.2427
Pt 23.2898 30.0207 30.0521
Au 22.0903 30.7105 27.6371
Au 26.1084 30.1141 30.0794
Au 24.9309 30.8321 27.6781
Au 27.7168 30.8606 27.8186
Au 23.3605 19.2119 29.9615
Au 21.9566 18.5054 27.4583
Au 26.2237 19.0688 29.9613
Au 24.8512 18.3488 27.5495
Au 27.6879 18.2932 27.6094
Au 23.6298 29.8038 20.7483
Pt 22.2264 30.6827 23.0143
Au 26.5673 29.766 20.8567
Au 25.0812 30.7158 23.0694
Au 27.9683 30.725 23.1792
Pt 23.4333 19.5199 20.5446
Pt 22.0055 18.6253 22.7328
Pt 26.2483 19.4294 20.5919
Pt 24.809 18.4954 22.7419
Au 27.6491 18.5174 22.8302
Au 28.781 20.4175 29.2489
Au 29.4354 27.4103 29.4461
Au 28.6897 20.8569 21.5425
Au 28.9679 28.4234 21.7168
Au 21.0343 20.6347 29.0931
Au 21.1432 28.5142 29.2359
Au 21.1662 20.9053 21.4356
Au 21.2479 28.4357 21.5238
Pt 34.1538 24.7089 19.5166
Au 34.5677 24.3335 22.1837
Pt 35.0686 23.7445 24.7734
Pt 36.0173 23.349 27.3321
Pt 34.5011 23.1403 31.7071
Au 15.8728 24.7016 19.4991
Pt 15.7712 24.6807 22.2977
Au 15.6919 24.6823 25.311
Pt 15.5775 24.5509 28.2588
Pt 15.5891 24.6474 31.0448
Au 19.1779 33.7891 24.9938
Au 22.1052 33.9195 25.0168
Pt 24.9302 33.9836 25.1393
Pt 27.6941 33.9973 25.2058
Au 30.5676 33.859 25.2902
Au 19.1146 15.4617 24.7871
Pt 21.9018 15.2102 24.7792
Pt 24.6472 15.1362 24.7614
Pt 27.4756 15.1498 24.9449
Pt 30.3198 15.1806 25.0392
Au 24.2554 18.4558 34.5909
Au 23.5478 21.5023 34.613
Pt 23.5002 24.3838 34.4711
Au 23.6405 27.375 34.1108
Au 24.4146 31.2053 34.5624
Au 24.8445 19.1677 15.9828
Pt 24.9078 21.9189 15.8794
Au 24.9993 24.6715 15.9239
Au 24.9893 27.5054 15.9743
Au 25.0357 30.2631 16.0472
Pt 32.2071 21.8903 32.3083
Au 29.8088 20.622 32.9678
Au 27.2067 19.3164 33.6476
Au 31.9355 24.0877 30.5565
Au 27.8448 21.9829 34.3189
Au 25.9442 26.0436 35.1085
Au 29.5527 25.3701 31.4535
Au 27.2785 23.9732 32.1248
Pt 28.4414 26.1912 37.0769
Pt 31.8855 23.2724 18.7205
Pt 29.5831 21.8066 17.8209
Pt 27.2144 20.4947 16.8409
Pt 31.9636 26.1167 18.6779
Au 29.6835 24.6729 17.7875
Au 27.3001 23.2504 16.8014
Pt 29.7182 27.5015 17.8034
Au 27.347 26.0967 16.8451
Pt 27.4147 28.8749 16.8654
Pt 17.4061 22.7258 31.8959
Pt 19.449 21.3301 32.9456
Au 21.6933 19.7673 33.7022
Pt 17.8235 26.4625 32.0365
Pt 19.3863 24.2973 32.6713
Pt 21.3845 22.8709 33.7407
Pt 19.9569 28.1242 32.9153
Pt 21.4667 25.8594 33.3892
Pt 22.1018 29.6938 33.8056
Au 18.0863 23.2818 18.575
Pt 20.3215 21.9035 17.694
Pt 22.547 20.5285 16.7949
Pt 18.0923 26.1427 18.5954
Pt 20.3185 24.7154 17.6698
Au 22.6071 23.26 16.7801
Au 20.3618 27.5186 17.7248
Au 22.6549 26.0932 16.7814
Au 22.6711 28.9089 16.849
Au 31.6477 31.9036 23.5216
Au 32.6569 29.5538 22.1341
Au 33.5882 27.0878 20.908
Au 31.9175 31.1267 26.0805
Au 32.9086 28.7277 24.8017
Pt 33.8495 26.4372 23.6797
Au 33.1666 29.0423 27.5103
Au 34.0824 25.6578 26.3583
Au 34.7568 27.1338 28.5621
Au 18.3001 31.5738 23.6569
Au 17.4891 29.289 22.2203
Au 16.6581 27.0053 20.8748
Pt 18.2562 31.5529 26.5675
Au 17.4159 29.3276 25.1914
Au 16.5333 26.9844 23.7527
Au 17.4104 29.3501 28.0943
Au 16.5085 26.9935 26.7294
Au 16.5188 26.9997 29.6139
Au 31.3294 17.4486 23.6323
Pt 32.319 19.8058 22.2112
Au 33.1826 22.2125 20.9383
Au 31.3743 17.238 26.6201
Au 32.481 19.5859 25.2612
Pt 33.3806 21.8068 23.8996
Au 32.4747 19.4091 28.2075
Au 33.5734 21.8213 26.9235
Pt 33.4572 21.3307 29.9448
Au 18.1956 17.7645 23.4995
Au 17.3545 20.0853 22.1914
Pt 16.5977 22.3613 20.8378
Au 18.197 17.6831 26.4162
Au 17.2408 19.9879 25.1443
Au 16.4658 22.3743 23.733
Au 17.2563 19.9419 28.0176
Au 16.3557 22.3211 26.6821
Au 16.3373 22.1888 29.4914
Au 23.0902 31.7726 32.1846
Au 21.8484 32.4219 29.7884
Au 20.5428 33.084 27.4154
Au 25.9455 31.9637 32.2604
Au 24.66 32.5846 29.8598
Au 23.3996 33.2732 27.4455
Pt 27.4582 32.697 29.9704
Au 26.2041 33.3238 27.5497
Au 29.0153 33.3068 27.6733
Pt 23.1806 17.5226 32.0267
Au 21.8773 16.8712 29.6532
Au 20.4993 16.1171 27.2034
Au 25.9812 17.3558 32.0944
Pt 24.7112 16.6864 29.7218
Au 23.3096 15.9601 27.2214
Pt 27.5327 16.5618 29.6937
Au 26.1481 15.8864 27.2884
Pt 28.9613 15.8416 27.385
Au 23.5883 31.231 18.2544
Au 22.1045 32.1451 20.5407
Au 20.6194 32.9936 22.7296
Au 26.5168 31.2186 18.3177
Au 25.0052 32.2291 20.5229
Au 23.5325 33.0716 22.7996
Au 27.8943 32.198 20.6577
Au 26.3982 33.1085 22.9079
Pt 29.1912 33.1217 23.0072
Au 23.3871 18.1504 18.1302
Au 21.9143 17.2448 20.3478
Pt 20.5647 16.2765 22.5442
Pt 26.2222 18.0733 18.197
Pt 24.7596 17.1031 20.3507
Au 23.3155 16.1752 22.5745
Pt 27.5948 17.1111 20.3647
Au 26.1328 16.1054 22.5873
Au 28.9662 16.1256 22.7048
Pt 31.1717 19.9453 30.6132
Au 31.1311 30.5533 31.8555
Pt 30.0709 17.8985 28.9657
Pt 30.4351 30.9602 28.2917
Au 28.6539 18.6069 31.3017
Au 28.8709 30.0306 30.2147
Pt 30.9469 20.7637 19.9967
Pt 31.229 28.4614 20.0167
Au 30.0094 18.4232 21.2928
Au 30.2471 30.8009 21.3766
Au 28.5823 19.4314 19.0665
Au 28.8454 29.8025 19.1258
Pt 18.601 20.5343 30.4442
Pt 18.7368 28.6866 30.5491
Pt 19.5244 18.3376 28.8615
Pt 19.5953 30.8353 29.0148
Pt 20.862 19.031 31.2292
Pt 20.865 30.2096 31.4303
Pt 18.8621 20.939 19.9101
Pt 18.8686 28.448 19.8969
Pt 19.6351 18.6332 21.2114
Au 19.7208 30.7393 21.3378
Pt 21.0954 19.5369 19.0023
Au 21.2084 29.8672 19.0901
Pt 36.2427 24.6393 17.9212
Pt 36.8531 24.175 20.3735
Au 37.4369 23.9303 22.8901
Au 37.8829 23.5428 25.5416
Pt 38.6393 23.139 28.2122
Pt 35.6912 20.7227 31.3449
Pt 13.5729 24.798 18.0185
Au 13.4446 24.7172 20.815
Au 13.4224 24.7022 23.6783
Pt 13.3209 24.5458 26.6537
Pt 13.1906 24.5202 29.4283
Au 13.1422 24.8592 32.1646
Au 17.7337 36.154 24.7492
Au 20.5676 36.2466 24.7846
Pt 23.4261 36.3043 24.9321
Pt 26.2563 36.3581 24.9811
Au 29.0786 36.3655 24.9878
Au 31.9452 36.2049 25.1276
Pt 17.6573 13.19 24.6564
Pt 20.4176 12.9677 24.5978
Pt 23.1481 12.8095 24.5957
Au 25.9667 12.7783 24.6177
Au 28.8006 12.7981 24.7235
Au 31.6112 12.8012 24.7099
Au 24.4809 16.8071 36.73
Pt 27.836 20.4196 39.5608
Au 23.4105 23.0645 36.9861
Pt 23.4419 28.1597 38.8031
Au 23.582 29.0961 36.2358
Au 24.253 32.9803 36.6569
Au 24.7574 17.7574 13.6068
Pt 24.8419 20.5916 13.5327
Pt 24.8872 23.305 13.4982
Au 24.9357 26.1254 13.5197
Pt 24.9381 28.8863 13.5257
Pt 24.9837 31.6562 13.6668
Pt 34.3651 21.2671 33.6785
Au 33.4797 17.4643 34.2109
Au 29.6928 18.9577 35.2678
Au 27.1702 17.8352 35.9856
Au 32.9849 24.8158 33.2502
Pt 32.946 26.4456 35.495
Au 30.2361 21.7894 35.7528
Au 25.8044 20.4907 35.6593
Pt 30.6815 26.1853 33.8655
Au 28.2477 24.7191 34.6154
Au 23.5655 26.1576 36.6139
Au 28.3954 27.4391 34.5194
Au 26.0166 24.8651 37.7865
Au 25.9843 28.8136 34.8277
Pt 34.0122 23.1637 17.2185
Au 31.7641 21.8713 16.2546
Au 29.4799 20.4459 15.3687
Au 27.1604 19.1555 14.4354
Au 34.0969 26.0991 17.0304
Pt 31.8784 24.687 16.2266
Au 29.5657 23.2947 15.2747
Pt 27.1844 21.9453 14.3441
Pt 31.8672 27.5296 16.211
Au 29.599 26.1088 15.3096
Pt 27.2538 24.6775 14.302
Au 29.6191 28.9102 15.2863
Au 27.2833 27.4927 14.3724
Au 27.3092 30.3193 14.433
Pt 14.9708 22.9848 33.1861
Pt 16.9539 21.4578 34.3038
Au 19.0394 19.703 35.1884
Au 21.7403 18.1203 35.9566
Au 15.4642 26.5225 33.2186
Pt 17.0537 24.3983 33.979
Pt 19.0504 23.0126 35.1789
Au 21.1147 21.3676 36.0779
Au 17.5315 28.2731 34.2096
Au 19.1129 26.0324 34.6811
Au 21.2433 24.602 35.9044
Au 19.7452 29.8896 35.0981
Pt 21.2826 27.5508 35.4448
Pt 21.9449 31.5038 35.9201
Au 15.7066 23.3048 17.0671
Pt 17.9944 21.9217 16.1609
Au 20.2515 20.5545 15.2713
Au 22.5014 19.121 14.4175
Pt 15.8018 26.1688 17.1049
Au 17.9927 24.7568 16.1383
Au 20.2611 23.3342 15.2282
Pt 22.5419 21.9316 14.313
Pt 18.0498 27.6013 16.2399
Au 20.3184 26.1958 15.2384
Au 22.6177 24.715 14.3194
Pt 20.3662 28.9624 15.2967
Pt 22.6054 27.539 14.3298
Au 22.664 30.3076 14.4774
Pt 33.0317 34.183 23.1579
Pt 33.9462 31.932 21.7191
Pt 34.8511 29.5976 20.3905
Au 35.8135 27.1048 19.0987
Au 33.335 33.5827 25.6978
Au 34.2564 31.0856 24.3395
Au 35.1874 28.6459 22.98
Pt 36.245 26.4291 21.6662
Pt 34.2239 31.6548 27.5414
Pt 35.3499 28.113 25.8781
Au 36.4175 26.0952 24.3849
Au 35.1962 29.708 29.2742
Pt 36.7148 25.8854 27.0345
Au 36.6041 25.4829 29.7019
Pt 16.8585 33.9113 23.4144
Au 16.0038 31.6196 22.0635
Pt 15.1779 29.3151 20.6627
Pt 14.3686 27.0569 19.347
Pt 16.747 33.9061 26.3077
Pt 15.9098 31.6681 25.0159
Au 15.0143 29.3524 23.5879
Pt 14.2034 27.053 22.1503
Pt 15.86 31.7086 27.8313
Au 14.983 29.4014 26.4806
Au 14.1259 27.0624 25.0921
Pt 14.9918 29.5078 29.2935
Au 14.1131 26.9251 27.9898
Au 14.086 27.1415 30.7865
Pt 32.6403 15.082 23.4444
Au 33.5662 17.3839 22.0371
Pt 34.4819 19.7265 20.6674
Pt 35.378 22.142 19.4076
Pt 32.6813 14.8026 26.4092
Au 33.7378 17.083 25.0906
Pt 34.6761 19.3996 23.6768
Au 35.5522 21.7671 22.3945
Pt 33.7484 16.7871 27.974
Au 34.8434 19.053 26.6974
Pt 35.7376 21.2819 25.3532
Pt 34.7055 18.7451 29.6665
Au 35.7912 20.9387 28.441
Pt 35.7648 18.9285 33.3772
Pt 16.6937 15.483 23.3286
Pt 15.8279 17.7425 22.0188
Pt 15.0145 20.0433 20.7553
Pt 14.2899 22.3841 19.4109
Pt 16.6676 15.3598 26.1312
Pt 15.7252 17.6374 24.8592
Au 14.8753 19.9746 23.5939
Au 14.1415 22.3271 22.2005
Au 15.7357 17.6069 27.6927
Au 14.7592 19.9542 26.5339
Au 14.0031 22.3215 25.1124
Pt 14.6984 19.7962 29.3725
Pt 13.9221 22.2151 27.9921
Au 13.9666 22.1688 30.7878
Pt 22.934 33.5833 34.3407
Au 21.6902 34.2114 31.9235
Au 20.439 34.9138 29.5413
Au 19.077 35.5252 27.15
Pt 25.8063 33.763 34.4056
Au 24.4903 34.364 32.0119
Pt 23.2957 35.0669 29.5865
Au 21.9433 35.6831 27.2429
Pt 27.2871 34.4552 32.1495
Pt 26.0387 35.089 29.7393
Pt 24.7499 35.7325 27.3017
Au 28.8151 35.0973 29.8826
Au 27.5229 35.7422 27.3987
Au 30.3815 35.7231 27.5373
Au 23.1362 15.9259 34.1529
Pt 21.7225 15.1535 31.7235
Au 20.4091 14.4139 29.3327
Pt 19.0134 13.7468 26.9535
Au 25.9531 15.7613 34.3099
Pt 24.5573 15.006 31.8425
Au 23.2002 14.3122 29.4029
Pt 21.7688 13.5348 26.9796
Pt 27.3842 14.9084 31.8372
Au 26.0195 14.2311 29.4746
Au 24.5981 13.4912 26.9897
Pt 28.8485 14.1558 29.4297
Pt 27.4695 13.4792 27.1085
Pt 30.2447 13.4741 27.1118
Pt 23.538 32.6598 15.8588
Au 22.0691 33.5464 18.1203
Pt 20.555 34.4455 20.317
Pt 19.1355 35.3064 22.4662
Au 26.4242 32.6567 15.888
Pt 24.9149 33.6899 18.0672
Pt 23.4528 34.6065 20.3449
Pt 21.98 35.3869 22.5114
Au 27.7504 33.6566 18.1317
Au 26.2726 34.6776 20.3415
Au 24.8344 35.4842 22.6651
Au 29.1545 34.6363 20.433
Au 27.7035 35.5085 22.6954
Au 30.5528 35.4266 22.7491
Pt 23.2938 16.7104 15.7479
Au 21.8398 15.7935 17.8885
Pt 20.4699 14.8891 20.1533
Pt 19.0752 14.0089 22.3878
Au 26.166 16.6859 15.7582
Pt 24.6845 15.6619 17.9176
Au 23.2601 14.7472 20.1284
Pt 21.8379 13.798 22.3591
Au 27.5464 15.7038 17.9838
Pt 26.0445 14.7232 20.1564
Pt 24.5793 13.7153 22.3495
Au 28.9635 14.775 20.2031
Au 27.399 13.6812 22.401
Au 30.2979 13.7895 22.4833
Pt 33.41 19.3515 32.045
Pt 34.1008 25.8706 30.855
Au 32.384 17.4501 30.3501
Pt 32.7451 31.2497 29.7214
Pt 31.3374 15.423 28.7439
Au 31.8306 33.2711 27.9827
Au 31.0431 18.0989 32.8173
Pt 29.7507 28.1579 32.0695
Au 29.9133 16.1213 31.0577
Pt 30.2655 32.7189 30.2366
Au 28.5309 16.8806 33.5395
Au 27.4002 29.5201 32.5197
Au 33.1565 20.7571 18.4641
Au 33.3932 28.5147 18.3616
Pt 32.2538 18.358 19.7237
Pt 32.4939 30.8955 19.619
Pt 31.3369 16.094 21.0256
Au 31.5033 33.2 21.0748
Pt 30.8892 19.3335 17.5706
Au 31.0858 29.9153 17.4873
Pt 29.9593 17.0417 18.8049
Au 30.137 32.2292 18.8269
Au 28.5633 18.0313 16.6245
Pt 28.7704 31.2639 16.5906
Au 16.098 20.3584 31.7466
Pt 16.3332 28.883 31.6908
Au 17.072 18.2111 30.1517
Pt 17.2054 31.0354 30.2695
Pt 18.0658 15.9273 28.521
Au 18.0904 33.2292 28.7112
Au 18.4625 18.8372 32.5842
Pt 18.4776 30.4635 32.6921
Au 19.39 16.6287 30.9685
Au 19.4111 32.6005 31.1419
Au 20.7472 17.2177 33.3714
Pt 20.6696 32.0362 33.5575
Au 16.4596 20.9497 18.4546
Pt 16.5682 28.4578 18.4371
Au 17.2608 18.6318 19.7539
Pt 17.3705 30.7692 19.719
Au 18.1696 16.316 21.0647
Pt 18.2118 33.0643 21.1122
Au 18.7729 19.5843 17.5068
Au 18.855 29.913 17.5192
Au 19.555 17.1993 18.7727
Au 19.6635 32.2083 18.9252
Pt 21.0191 18.1401 16.6052
Pt 21.1717 31.2885 16.6735
Au 38.4656 24.397 16.5306
Pt 38.7393 25.4617 19.0619
Pt 39.1292 25.7916 21.6946
Au 39.2408 25.7217 24.4243
Pt 39.345 25.6337 27.0867
Pt 39.2994 25.5507 29.5916
Pt 40.9816 20.7618 30.1836
Au 11.3376 24.775 16.5068
Pt 11.1205 24.7487 19.3589
Au 11.0298 24.6827 22.1378
Au 11.0297 24.624 24.9838
Au 10.9191 24.6218 27.8487
Pt 10.7409 24.7656 30.6434
Pt 10.6072 25.1632 33.3095
Pt 16.3128 38.4916 24.5099
Pt 19.0971 38.603 24.6121
Au 21.8863 38.6539 24.71
Au 24.7352 38.6572 24.7189
Pt 27.5768 38.7821 24.7744
Pt 30.3125 38.7689 24.7844
Au 33.1254 38.6338 24.9127
Pt 16.1867 10.9059 24.4876
Pt 18.9472 10.7026 24.4655
Pt 21.6602 10.5611 24.4295
Pt 24.4102 10.4245 24.4357
Au 27.2654 10.3241 24.4123
Au 30.0975 10.292 24.4579
Pt 32.8976 10.3668 24.4464
Au 25.7976 19.0374 38.0865
Pt 23.7426 20.1305 39.7781
Pt 23.4231 20.1382 37.1141
Au 23.507 25.4205 39.2065
Pt 25.6289 29.7717 39.6285
Pt 23.3535 30.9254 38.308
Pt 24.0529 34.7583 38.7124
Au 24.7542 16.4279 11.2406
Pt 24.7906 19.2129 11.1731
Au 24.8621 21.9217 11.1422
Au 24.8836 24.7448 11.1173
Pt 24.9638 27.5049 11.1232
Pt 24.9372 30.2393 11.1683
Au 24.9296 33.0084 11.3204
Pt 32.1108 20.093 34.489
Au 30.3613 23.4669 33.4385
Pt 30.0609 21.856 38.5007
Au 31.9905 16.2253 38.5791
Au 25.8456 21.9734 38.0588
Pt 35.8546 25.1991 32.6877
Pt 35.3028 23.5463 34.64
Pt 32.639 22.891 35.1071
Au 25.795 23.3031 35.4415
Au 28.3086 16.0259 41.4913
Au 31.9707 28.5336 33.7748
Pt 30.5889 27.763 36.1781
Au 30.6727 24.7331 36.1254
Au 25.5469 23.1925 42.859
Au 29.6156 29.9064 34.2828
Pt 30.271 27.1989 38.7993
Pt 25.6502 27.066 40.1025
Au 28.1611 29.1842 36.6342
Au 25.9201 27.7213 37.4881
Pt 25.7902 30.653 37.0512
Au 36.2319 23.0413 15.687
Au 33.9792 21.7662 14.6423
Au 31.7332 20.3923 13.7409
Pt 29.4658 19.0627 12.9149
Au 27.1118 17.7027 12.1059
Au 36.4412 26.1521 15.5695
Au 34.0878 24.5793 14.6385
Pt 31.8088 23.2271 13.6314
Au 29.5027 21.878 12.8293
Pt 27.2023 20.5488 11.9884
Pt 34.0926 27.522 14.5901
Au 31.8607 26.0908 13.7764
Au 29.5381 24.7456 12.8023
Pt 27.2117 23.3469 11.919
Pt 31.8359 28.9371 13.7294
Pt 29.5354 27.5218 12.7948
Pt 27.2423 26.1391 11.8949
Pt 29.5491 30.3208 12.8116
Au 27.2577 28.9195 11.9258
Pt 27.2694 31.7275 12.054
Pt 12.5777 23.4929 34.4682
Pt 14.6791 21.9725 35.6899
Pt 17.0034 20.8513 36.9177
Au 17.5021 16.4791 39.2275
Pt 18.0371 15.2026 36.7444
Au 13.0446 26.6769 34.4138
Pt 14.7191 24.7127 35.3058
Pt 16.784 23.4665 36.5967
Pt 19.0627 22.3785 37.8179
Pt 21.4448 21.3165 38.7592
Au 15.0924 28.4756 35.573
Pt 16.7739 26.2279 36.0518
Pt 18.9406 25.0204 37.2847
Pt 21.25 23.9215 38.5198
Au 17.3621 30.1626 36.4601
Pt 18.9688 27.7537 36.8162
Pt 21.1851 26.5606 38.0457
Pt 19.5614 31.7565 37.2377
Au 21.1747 29.3547 37.515
Pt 21.795 33.2742 38.0234
Pt 13.4419 23.2854 15.5511
Au 15.682 21.9407 14.6501
Pt 17.9514 20.5491 13.7474
Au 20.2351 19.1536 12.8395
Pt 22.4489 17.7372 11.9876
Pt 13.5273 26.1484 15.589
Pt 15.6861 24.708 14.6086
Pt 17.9579 23.3255 13.675
Pt 20.2812 21.9717 12.7491
Pt 22.5177 20.5735 11.9496
Au 15.7439 27.5247 14.6981
Au 18.0142 26.1371 13.7046
Au 20.2751 24.7307 12.7737
Pt 22.5501 23.3614 11.8725
Au 18.0867 28.9593 13.7931
Pt 20.3444 27.5278 12.759
Pt 22.5841 26.1381 11.9066
Pt 20.3499 30.3417 12.8956
Au 22.6144 28.8998 11.9517
Au 22.6255 31.7226 12.0902
Au 34.2496 36.6206 23.1384
Au 35.229 34.415 21.5652
Au 36.1623 32.1405 20.1466
Pt 37.0825 29.8216 18.8623
Pt 38.1427 27.4444 17.4672
Pt 34.5769 36.3864 25.8034
Pt 35.5276 34.4061 24.2819
Pt 36.3952 32.295 22.9121
Au 37.2527 30.0665 21.6255
Pt 38.1643 27.8449 20.2736
Au 35.3956 34.2752 27.3648
Au 36.2553 32.256 25.7798
Au 37.0486 30.0392 24.4366
Au 38.1473 27.932 23.0877
Pt 36.4352 32.1824 29.0646
Au 36.9058 30.0074 27.2158
Pt 38.181 27.8729 25.847
Pt 37.3895 30.1791 30.8498
Au 37.8284 27.8704 28.7382
Au 36.7174 22.9133 30.1366
Au 15.3619 36.278 23.2522
Au 14.5094 33.9667 21.8875
Au 13.6473 31.6123 20.5359
Au 12.8343 29.3224 19.1965
Pt 12.0624 27.0829 17.8854
Pt 15.3223 36.2776 26.0869
Au 14.4297 34.0018 24.7773
Au 13.4958 31.689 23.437
Au 12.6496 29.3735 22.0765
Pt 11.8841 27.0648 20.6983
Pt 14.3643 34.078 27.5987
Au 13.4514 31.7494 26.2692
Pt 12.5131 29.4401 24.9006
Au 11.7674 27.0959 23.5304
Pt 13.4107 31.8331 29.0487
Au 12.5505 29.3904 27.7198
Au 11.7124 27.0387 26.3524
Au 12.5199 29.5859 30.5574
Au 11.6821 27.0339 29.2277
Au 11.5614 27.3536 32.0583
Pt 33.9547 12.6549 23.1749
Au 34.9311 14.9238 21.8666
Au 35.8269 17.2502 20.4682
Au 36.7647 19.6533 19.1683
Au 37.7784 22.2115 18.1295
Au 33.9348 12.399 26.1215
Au 35.0414 14.6847 24.8507
Au 35.9997 16.9661 23.5016
Au 36.8944 19.2611 22.1216
Au 37.8161 21.609 20.8471
Pt 35.107 14.413 27.7268
Pt 36.2506 16.6497 26.5213
Pt 37.1156 18.9256 25.1155
Au 37.9404 21.3132 23.7652
Pt 36.1014 16.3527 29.3594
Au 37.3079 18.5569 28.1027
Pt 38.0241 20.9618 26.7102
Pt 37.0568 18.4545 30.9303
Au 38.3275 20.6099 29.7021
Pt 38.0457 20.4118 32.5523
Au 15.2526 13.217 23.154
Pt 14.3361 15.5262 21.8561
Pt 13.557 17.7566 20.5297
Au 12.7627 20.0753 19.2395
Au 12.0419 22.4651 17.9362
Pt 15.2157 13.0908 25.9914
Pt 14.244 15.3909 24.688
Pt 13.3874 17.681 23.3821
Pt 12.5396 19.9805 22.0856
Pt 11.8187 22.3226 20.7312
Pt 14.3102 15.2638 27.4532
Pt 13.3384 17.5746 26.2009
Au 12.4014 19.9551 24.9966
Pt 11.7031 22.2646 23.5245
Pt 13.351 17.3973 29.0652
Au 12.3014 19.8079 27.9418
Pt 11.6577 22.2281 26.4685
Au 12.3202 19.7687 30.9041
Pt 11.5827 22.2191 29.2409
Au 11.6133 22.3834 32.1209
Pt 22.7324 35.3139 36.4367
Au 21.4949 35.9765 34.0588
Au 20.1807 36.6889 31.7028
Au 18.9013 37.2842 29.3206
Pt 17.6236 37.8826 26.9412
Pt 25.5623 35.4592 36.486
Pt 24.2924 36.0723 34.1648
Au 23.0409 36.809 31.7577
Pt 21.7734 37.4536 29.4136
Pt 20.4823 38.0275 27.0728
Pt 27.0984 36.1672 34.2676
Pt 25.8619 36.7966 31.8939
Au 24.6141 37.5068 29.496
Pt 23.2717 38.0965 27.1251
Pt 28.6147 36.864 32.0179
Pt 27.3956 37.5012 29.5822
Au 26.0931 38.1801 27.1423
Pt 30.1597 37.516 29.722
Au 28.8945 38.1431 27.2019
Pt 31.6576 38.112 27.3732
Pt 20.6455 15.5031 35.545
Au 21.6453 13.5094 33.8346
Pt 20.2153 12.7656 31.4671
Pt 18.8729 12.0932 29.0652
Pt 17.5252 11.4746 26.7792
Pt 25.9446 13.8429 36.2186
Pt 24.4907 13.2806 33.8999
Au 23.0093 12.6113 31.51
Pt 21.6265 11.8139 29.1097
Pt 20.2829 11.2551 26.7882
Pt 27.3137 13.1755 33.9031
Au 25.8672 12.5073 31.6056
Au 24.4339 11.7382 29.1552
Pt 23.0115 11.1171 26.7889
Pt 28.7313 12.4712 31.5186
Au 27.2965 11.7003 29.1803
Au 25.8688 10.9953 26.7965
Au 30.119 11.694 29.1441
Au 28.7172 10.9474 26.8397
Pt 31.5183 11.0179 26.8331
Pt 23.5162 34.0636 13.5161
Au 22.0439 34.9483 15.6981
Pt 20.5561 35.8354 17.9272
Pt 19.1007 36.7526 20.1069
Pt 17.6942 37.6292 22.3059
Au 26.3979 34.0446 13.5054
Pt 24.8955 35.0704 15.7035
Au 23.4604 35.9994 17.9442
Pt 21.9325 36.8423 20.0946
Au 20.4975 37.7222 22.3415
Pt 27.6759 35.0813 15.6732
Pt 26.2429 36.1148 17.8889
Pt 24.8107 37.0481 20.102
Au 23.3212 37.7909 22.3511
Au 29.0632 36.0621 17.9454
Pt 27.5963 37.061 20.1616
Au 26.2041 37.8735 22.4047
Pt 30.3597 37.068 20.234
Pt 28.9752 37.9054 22.4716
Au 31.7554 37.8688 22.5374
Pt 23.2632 15.3772 13.3732
Pt 21.8518 14.4056 15.5097
Pt 20.3723 13.4947 17.7007
Au 19.004 12.6034 19.9606
Au 17.5673 11.741 22.2123
Pt 26.1437 15.2724 13.3481
Pt 24.6663 14.2773 15.4858
Au 23.2019 13.3012 17.6635
Pt 21.7877 12.388 19.9367
Pt 20.3748 11.518 22.1813
Au 27.5466 14.3097 15.5055
Pt 26.017 13.3193 17.6857
Au 24.5846 12.2933 19.9243
Pt 23.1093 11.3922 22.1696
Au 29.0002 13.3639 17.709
Au 27.4049 12.3199 19.9341
Pt 25.8361 11.2465 22.1639
Au 30.2877 12.3288 19.9759
Au 28.7162 11.2329 22.1809
Au 31.5547 11.3 22.2373
Au 36.7154 19.4839 37.011
Au 33.5971 29.012 31.3958
Pt 34.8209 16.9435 31.7857
Au 34.9346 31.5866 31.3249
Au 33.7654 15.0067 30.1136
Pt 34.0134 33.6519 29.6228
Pt 32.5686 12.9914 28.4575
Pt 33.0938 35.7091 27.9248
Pt 34.3641 19.4638 35.7699
Au 33.3622 30.9663 33.5629
Au 32.3973 15.5707 32.5066
Pt 32.5201 33.0468 31.8094
Pt 31.2755 13.6583 30.7946
Pt 31.5963 35.1008 30.1352
Pt 29.613 16.8941 37.0896
Au 30.9405 32.3737 34.0648
Au 29.8329 14.3812 33.1637
Pt 30.0527 34.4773 32.337
Pt 28.4587 15.0362 35.5142
Au 28.7258 32.0115 32.3708
Pt 35.4177 20.6676 16.9746
Au 35.6887 28.646 16.7194
Pt 34.4664 18.2662 18.2075
Au 34.7363 31.0733 17.9697
Pt 33.5711 15.9532 19.4611
Au 33.7779 33.3864 19.3354
Au 32.5968 13.6995 20.9024
Au 32.7418 35.6795 20.8806
Au 33.1317 19.3518 16.0009
Au 33.3248 29.985 15.8149
Pt 32.2308 16.9535 17.2923
Pt 32.4487 32.398 17.1447
Pt 31.3171 14.6926 18.5668
Au 31.4202 34.6736 18.6042
Pt 30.9007 17.9467 15.1174
Au 31.0404 31.3564 14.9562
Pt 29.9775 15.6329 16.385
Au 30.0375 33.7025 16.371
Pt 28.5878 16.6356 14.2159
Pt 28.765 32.731 14.1389
Au 13.8447 20.4741 33.3446
Au 13.9028 28.9907 32.9874
Pt 14.6618 17.9522 31.581
Au 14.731 31.2031 31.4529
Au 15.6695 15.8325 29.8452
Au 15.6314 33.4271 29.9974
Pt 16.5862 13.6246 28.2977
Au 16.6101 35.657 28.4624
Au 16.0933 18.7393 34.1154
Au 16.0176 30.6327 33.9454
Au 18.349 16.9891 34.7805
Au 16.9231 32.8331 32.4584
Au 17.9502 14.2549 30.7003
Au 17.8982 35.0717 30.9137
Pt 17.3497 18.1586 37.0384
Pt 18.3132 32.3045 34.8616
Pt 19.2345 14.8459 33.1344
Au 19.2063 34.4384 33.3135
Pt 19.7213 17.0915 37.5645
Pt 20.4852 33.8766 35.7352
Pt 14.1657 20.9135 16.9295
Pt 14.2718 28.4822 16.9345
Pt 14.9282 18.6065 18.2301
Pt 15.0983 30.8105 18.2066
Pt 15.7685 16.3292 19.5289
Au 15.8858 33.1308 19.5277
Au 16.6455 14.0619 20.8584
Au 16.765 35.395 20.966
Au 16.4268 19.5566 15.985
Au 16.5036 29.9286 16.015
Pt 17.1956 17.2313 17.2974
Pt 17.3178 32.2657 17.3355
Pt 18.0886 14.9015 18.5801
Pt 18.1785 34.5269 18.7367
Au 18.7085 18.1394 15.0822
Au 18.7998 31.3423 15.0811
Pt 19.4914 15.7919 16.328
Au 19.6183 33.593 16.503
Pt 20.9768 16.7167 14.1849
Au 21.153 32.6776 14.2725
Pt 40.6321 24.1448 15.0526
Pt 40.7222 23.6359 18.161
Pt 39.7091 23.5134 20.6793
Pt 40.2198 23.3427 23.5095
Pt 41.6848 25.9348 25.7243
Pt 40.4935 28.1484 27.0902
Pt 40.5893 28.0485 29.702
Au 38.331 25.11 31.9408
Au 9.03535 24.7305 15.0318
Au 8.86784 24.736 17.8998
Pt 8.69257 24.7648 20.6516
Pt 8.6511 24.8432 23.4043
Au 8.59504 24.8324 26.1746
Pt 8.51075 24.9772 29.0442
Au 8.20354 25.2121 31.7238
Au 11.8557 24.2839 39.2199
Pt 14.872 40.683 24.315
Au 17.659 40.9503 24.3712
Pt 20.4225 41.0414 24.5401
Au 23.2369 41.0705 24.5592
Au 26.0851 41.0807 24.6337
Pt 28.9089 41.1718 24.6363
Au 31.6445 41.1038 24.5789
Au 34.4385 40.9781 24.5072
Au 14.6249 8.61651 24.315
Pt 17.4727 8.44737 24.2181
Au 20.1599 8.21558 24.2845
Pt 22.9519 8.198 24.2873
Au 25.8001 7.99423 24.2578
Pt 28.6597 7.91106 24.2048
Pt 31.4618 8.00107 24.2336
Au 34.2036 8.04963 24.1879
Au 24.6161 14.7171 38.5747
Pt 23.951 17.4955 39.3808
Au 24.0073 15.466 41.2905
Pt 23.5673 22.7564 39.6679
Pt 23.187 27.1619 41.3269
Au 25.3785 31.6131 41.7215
Au 27.8228 30.2575 41.3655
Pt 25.5269 32.4653 39.0569
Pt 24.7479 15.1386 8.92551
Pt 24.8137 17.8596 8.83558
Pt 24.8361 20.5989 8.69076
Au 24.8525 23.3481 8.74245
Pt 24.9181 26.1665 8.76587
Pt 24.9405 28.8857 8.78802
Pt 24.9165 31.673 8.87343
Pt 24.8596 34.4631 9.0897
Au 37.106 22.8569 36.8381
Pt 32.2974 20.6416 37.2279
Au 36.99 25.4221 37.6819
Pt 28.2955 23.3469 37.034
Au 33.4097 15.517 36.2616
Pt 27.0745 15.7832 37.7167
Au 35.9927 29.622 33.1855
Au 38.6484 26.9334 35.9946
Pt 32.3182 23.2462 37.7397
Pt 32.4353 21.6404 39.7543
Pt 25.7026 24.342 40.4271
Au 30.4201 17.4777 40.5034
Pt 35.819 26.1498 35.2688
Pt 34.8874 27.3591 37.3089
Au 32.5948 24.4043 40.3494
Pt 30.1684 24.4938 38.8275
Au 28.3103 18.8044 41.801
Pt 33.9301 30.9605 37.4488
Pt 32.597 28.5282 37.6669
Au 30.3099 25.9309 41.2257
Au 28.1092 21.6024 42.0813
Pt 31.7716 30.392 35.9145
Pt 30.2437 29.8544 38.2055
Au 27.9058 27.3942 41.8406
Pt 29.4427 31.7802 36.4112
Pt 27.9859 28.4551 39.2792
Au 27.2516 31.3485 34.7511
Pt 38.4992 22.9507 14.1405
Au 36.2521 21.7452 13.1451
Pt 33.9603 20.2909 12.1759
Pt 31.7172 19.0503 11.3298
Au 29.3687 17.7217 10.5495
Pt 27.0852 16.3691 9.72452
Au 38.9375 26.161 14.3377
Au 36.4544 24.633 13.1782
Pt 34.1669 23.1796 12.0441
Pt 31.8469 21.789 11.197
Pt 29.5294 20.5209 10.416
Au 27.1202 19.193 9.58853
Pt 36.3659 27.5112 13.1984
Au 34.1803 26.0176 12.184
Au 31.9213 24.6101 11.2532
Au 29.5438 23.3171 10.4071
Au 27.2167 21.9393 9.52727
Au 34.1091 28.9565 12.2035
Au 31.834 27.464 11.3221
Pt 29.5327 26.1325 10.3627
Pt 27.2442 24.7763 9.53369
Pt 31.8591 30.2973 11.3917
Au 29.5789 28.9334 10.3316
Pt 27.292 27.5013 9.45972
Au 29.5161 31.8214 10.4915
Au 27.2653 30.3579 9.49742
Pt 27.2188 33.1692 9.75457
Au 8.89588 19.5774 34.7697
Au 10.1842 20.4782 37.1272
Au 13.2109 16.432 37.0456
Au 15.0687 17.5826 38.666
Au 19.9299 15.3972 39.7826
Pt 22.1018 16.0468 38.0301
Pt 14.4001 23.8091 37.8424
Au 11.956 27.1293 38.9156
Pt 14.4148 21.1342 38.2071
Au 16.6586 22.3518 39.3117
Au 19.0238 21.0793 40.3785
Pt 21.4192 19.9467 40.9812
Pt 11.4656 29.2087 34.1523
Pt 14.4304 26.5638 37.4222
Au 16.5719 25.2444 38.7468
Pt 21.0306 25.6048 40.6488
Pt 21.1425 22.8036 40.9948
Pt 14.2711 28.4271 39.2789
Au 16.5963 28.0278 38.134
Pt 18.7854 26.7857 39.4302
Au 23.0006 26.1715 43.775
Au 17.0488 32.0986 38.7109
Au 18.7771 29.6312 38.8391
Au 20.9975 28.3269 40.1469
Pt 21.0039 31.147 39.5969
Au 22.9026 28.9554 43.3861
Pt 23.1316 32.682 40.3535
Au 11.1539 23.3053 13.9648
Pt 13.4144 21.954 13.0911
Au 15.6447 20.5366 12.2764
Au 17.894 19.1405 11.3539
Pt 20.2166 17.7325 10.4387
Pt 22.4352 16.3867 9.61075
Pt 11.2483 26.1834 14.0984
Au 13.3979 24.7075 13.0517
Pt 15.6728 23.3507 12.1457
Au 17.9412 21.955 11.258
Au 20.1621 20.5522 10.3278
Au 22.4772 19.2181 9.53876
Au 13.3607 27.5705 13.1665
Au 15.6866 26.1253 12.1765
Pt 17.9546 24.7188 11.2491
Pt 20.227 23.3983 10.3373
Pt 22.5157 21.9639 9.54838
Au 15.7206 28.9865 12.2408
Au 17.9709 27.5374 11.2216
Au 20.246 26.1228 10.3199
Pt 22.4856 24.7764 9.47514
Au 17.9599 30.3575 11.3866
Au 20.2445 28.9833 10.3536
Pt 22.6309 27.4909 9.54817
Au 20.2961 31.826 10.4892
Au 22.5782 30.349 9.53234
Pt 22.5808 33.1201 9.72528
Au 35.6589 38.9976 22.9387
Au 38.7538 37.0006 19.8126
Pt 37.5103 34.5675 20.0439
Au 40.9884 32.5821 19.8554
Pt 39.2572 30.0561 17.4456
Pt 40.655 28.429 16.1401
Au 35.854 38.8581 25.7205
Au 37.7987 39.2215 21.2692
Pt 37.8104 34.6658 22.8184
Au 41.8799 30.1251 18.4326
Pt 40.5518 28.0675 21.6146
Pt 41.3422 25.6688 19.9541
Pt 36.7696 36.7956 27.2312
Pt 36.9071 36.7866 24.2525
Pt 38.7165 32.5128 24.2749
Pt 39.7334 30.3644 22.9257
Au 41.6145 25.8234 22.9346
Au 37.6957 34.6065 28.8077
Au 37.7587 34.6516 25.7948
Au 41.1169 32.8165 22.8696
Au 43.0699 28.2996 22.8671
Pt 38.6796 32.4974 30.4581
Pt 38.5527 32.4783 27.2489
Au 39.5088 30.3306 25.7248
Pt 39.9256 30.2805 31.4393
Au 39.3131 30.294 28.6967
Pt 36.0589 27.7501 31.134
Pt 13.9056 38.5956 22.9346
Au 13.0181 36.332 21.6981
Au 12.1634 33.952 20.4005
Au 11.2552 31.6537 19.0373
Pt 10.4233 29.3251 17.75
Pt 9.80106 27.07 16.4357
Au 13.8658 38.5588 25.8533
Pt 12.9044 36.3331 24.5479
Au 11.9462 34.0368 23.2278
Pt 11.0593 31.682 21.9282
Au 10.2904 29.4012 20.5436
Pt 9.59926 27.0942 19.2308
Pt 12.8936 36.4005 27.3657
Au 11.9021 34.1397 26.0335
Au 10.9518 31.7895 24.7136
Pt 10.1344 29.4674 23.3961
Pt 9.50108 27.1355 22.0037