2057
Atoms. Timestep: 20226
Au 25.179 24.7324 25.7756
Au 27.5012 24.723 24.3502
Au 27.5563 24.6132 27.3819
Au 22.8533 24.7396 24.2058
Au 22.9176 24.7521 27.2454
Pt 23.7383 27.0349 25.6579
Au 26.5861 27.0125 25.6341
Au 23.6967 22.438 25.5727
Au 26.5953 22.4061 25.6966
Au 25.2107 23.2057 28.0374
Au 25.3579 26.2192 28.0929
Au 25.0951 23.2831 23.3434
Au 25.1254 26.1186 23.3654
Au 29.7851 24.7576 22.8593
Au 29.8473 24.4947 25.797
Au 30.1982 24.6319 28.7637
Pt 20.5414 24.7063 22.4988
Au 20.532 24.6886 25.6318
Au 20.5828 24.7445 28.6986
Pt 22.2579 29.257 25.5047
Pt 25.011 29.3752 25.4258
Au 27.796 29.4071 25.4969
Au 22.1891 20.1455 25.297
Au 25.0124 20.0433 25.3735
Au 27.8407 20.0428 25.5102
Au 25.1289 21.6696 30.2555
Au 25.2798 24.6872 30.3362
Au 25.4137 27.7199 30.395
Au 25.0234 21.8715 20.8949
Au 25.1068 24.7406 20.9132
Pt 25.1037 27.5217 21.0091
Au 27.6601 23.0678 29.7104
Au 27.9543 25.9091 30.0171
Au 27.4395 23.3243 21.8903
Au 27.4711 26.1701 21.937
Au 22.7822 23.1193 29.6013
Au 22.8896 26.2563 29.6047
Au 22.7739 23.2818 21.7052
Au 22.7648 26.1259 21.7285
Au 29.1882 27.0482 24.5669
Pt 28.6258 26.9942 27.4537
Au 21.3608 26.9867 24.0899
Au 21.3501 27.0409 27.0167
Pt 28.8262 22.3203 24.1389
Au 28.9668 22.2441 27.2829
Au 21.3423 22.4355 23.97
Au 21.367 22.3832 27.0062
Au 23.6092 28.4585 28.0046
Pt 26.3017 28.7064 27.7266
Au 23.6901 20.8856 27.8696
Pt 26.5805 20.8003 27.9206
Au 23.621 28.4142 23.2125
Pt 26.5067 28.474 23.2816
Pt 23.568 20.8967 23.0187
Au 26.4263 20.9118 23.1648
Pt 32.0922 24.7286 21.3205
Au 32.2165 24.4556 24.1948
Au 32.4437 24.0842 26.9827
Au 32.9385 23.639 29.6105
Pt 18.2264 24.7147 20.9951
Au 18.2178 24.6812 23.9267
Au 18.1331 24.6521 26.9538
Au 18.0674 24.5515 29.8018
Au 20.6894 31.5067 25.2446
Pt 23.5529 31.67 25.2457
Pt 26.3444 31.7684 25.3528
Pt 29.1625 31.7112 25.4979
Au 20.72 17.7804 25.0046
Au 23.4836 17.6461 25.034
Au 26.2493 17.5813 25.101
Au 29.0279 17.5487 25.2606
Au 24.7897 20.0603 32.4189
Au 24.0107 23.1118 32.3515
Au 24.1467 26.0935 32.3561
Au 24.61 29.1946 32.687
Au 24.9727 20.5473 18.4206
Au 25.0186 23.3102 18.4223
Au 25.0724 26.1225 18.4935
Au 25.1293 28.8888 18.5385
Au 30.0529 22.6042 31.0958
Au 27.4189 21.161 31.7598
Pt 32.6508 28.4811 30.6495
Pt 31.3524 25.6967 31.0369
Au 26.938 26.6566 32.5921
Au 29.7492 23.2947 20.3474
Au 27.3429 21.9047 19.3629
Au 29.8067 26.1467 20.363
Au 27.4326 24.7197 19.3929
Au 27.4273 27.5048 19.4358
Au 20.1339 22.7915 30.7873
Pt 22.2788 21.2257 31.5885
Au 19.8044 26.5291 30.9468
Au 21.7872 24.7638 31.6845
Au 22.2376 28.0318 31.6345
Au 20.457 23.3127 20.1048
Pt 22.6626 21.8566 19.2538
Pt 20.4279 26.1311 20.1089
Au 22.7114 24.7094 19.2628
Au 22.7614 27.5329 19.333
Au 30.2899 29.5783 23.9747
Au 31.2666 27.136 22.6983
Au 30.1452 29.0594 26.721
Au 31.3391 26.6319 26.5463
Pt 30.5662 27.5874 29.2006
Au 19.8702 29.2766 23.9109
Au 19.0461 26.9744 22.4243
Pt 19.7684 29.3618 26.8163
Au 18.9425 27.0104 25.4363
Au 18.9075 27.0649 28.3299
Au 30.0816 19.9072 23.8813
Au 31.0463 22.2844 22.6211
Au 30.1897 19.7396 27.0057
Au 31.1537 22.0233 25.5543
Pt 31.2586 21.7072 28.8079
Au 19.8313 20.0889 23.7435
Au 19.0076 22.4202 22.3686
Pt 19.8217 19.9975 26.7034
Au 18.9621 22.3299 25.3796
Au 18.9637 22.2658 28.2659
Pt 23.2721 30.0867 30.1581
Au 22.0217 30.7938 27.6848
Au 26.0033 30.383 30.0279
Au 24.797 31.0024 27.6275
Au 27.7229 31.0001 27.8341
Au 23.4688 19.1811 30.0378
Au 22.0849 18.5268 27.5172
Au 26.2712 19.0931 29.9842
Au 24.9391 18.3851 27.585
Au 27.7754 18.312 27.6959
Au 23.6091 29.8358 20.7735
Pt 22.1817 30.7118 23.0466
Au 26.5292 29.8409 20.8431
Au 25.0282 30.8036 23.0478
Au 27.9129 30.8708 23.1229
Pt 23.4977 19.5469 20.5784
Pt 22.0782 18.645 22.7564
Pt 26.3066 19.4581 20.6456
Pt 24.869 18.5224 22.7802
Au 27.6992 18.5329 22.8845
Au 28.8569 20.4504 29.4272
Au 28.2101 28.734 29.5172
Au 28.7277 20.8843 21.6007
Au 28.9035 28.4727 21.7907
Au 21.1479 20.6503 29.1488
Au 21.0302 28.646 29.2682
Au 21.2523 20.9311 21.4594
Au 21.2442 28.4499 21.5623
Pt 34.2101 24.753 19.71
Au 34.6297 24.1994 22.4364
Pt 34.6522 23.6783 25.2425
Pt 35.1016 23.3615 27.8232
Pt 34.8697 21.2614 33.0369
Au 15.93 24.6997 19.4935
Pt 15.8387 24.6763 22.3079
Au 15.7899 24.6694 25.2915
Pt 15.6525 24.5092 28.1269
Pt 15.598 24.505 30.7904
Au 19.0772 33.8143 25.0187
Au 22.0185 33.9901 25.0129
Pt 24.8651 34.0896 25.132
Pt 27.6541 34.1127 25.1944
Au 30.5802 33.9798 25.3032
Au 19.1623 15.4693 24.7619
Pt 21.9396 15.208 24.7619
Pt 24.6787 15.1289 24.7577
Pt 27.4977 15.1442 24.9425
Pt 30.3215 15.1415 25.0435
Au 24.6398 18.0183 34.3598
Au 24.6835 20.8516 35.1006
Pt 22.564 24.722 34.271
Au 22.4146 27.4446 34.2528
Au 24.5736 31.3968 34.5641
Au 24.9096 19.2086 16.0045
Pt 24.9713 21.9563 15.9149
Au 25.0526 24.7045 15.968
Au 25.0219 27.534 16.0136
Au 25.0464 30.294 16.0709
Pt 32.3104 20.3974 33.177
Au 29.5768 20.3519 33.2235
Au 27.1388 17.0982 35.8274
Au 32.6627 22.8397 32.0909
Au 27.2929 21.9916 34.4738
Au 25.0478 26.4743 34.8506
Au 29.2825 24.9172 32.6338
Au 26.7668 23.7999 32.4136
Pt 28.2863 26.534 37.2163
Pt 31.9569 23.297 18.8485
Pt 29.642 21.8463 17.8948
Pt 27.2739 20.5381 16.885
Pt 31.9806 26.12 18.7747
Au 29.7285 24.6931 17.8618
Au 27.3564 23.29 16.8568
Pt 29.7265 27.5222 17.8746
Au 27.3848 26.1304 16.9108
Pt 27.4306 28.9044 16.9157
Pt 17.8816 22.2349 32.1582
Pt 19.9986 20.8301 32.9803
Au 22.3266 19.4116 33.63
Pt 17.9587 24.7702 32.5238
Pt 20.0816 23.4271 33.5002
Pt 22.2319 22.0936 34.2298
Pt 20.0248 28.6207 33.1938
Pt 20.126 26.025 33.6272
Pt 22.1478 30.0758 33.8916
Au 18.1549 23.3029 18.5716
Pt 20.3946 21.9344 17.7009
Pt 22.6157 20.5654 16.8083
Pt 18.1327 26.1556 18.6088
Pt 20.3765 24.7424 17.6908
Au 22.6719 23.2942 16.8111
Au 20.3868 27.5406 17.7491
Au 22.6977 26.1219 16.8185
Au 22.6871 28.9343 16.8781
Au 31.5155 31.9967 23.5683
Au 32.6642 29.582 22.2858
Au 33.4596 27.1744 20.9356
Au 31.9584 31.2092 26.1656
Au 32.6391 28.5551 24.9952
Pt 33.7656 26.5033 23.5045
Au 32.602 29.1717 28.0434
Au 34.1507 26.3256 26.2133
Au 32.9051 26.3042 28.8538
Au 18.2394 31.5699 23.7016
Au 17.4812 29.2787 22.2573
Au 16.6881 26.9968 20.8916
Pt 18.1562 31.5848 26.6011
Au 17.377 29.3238 25.2494
Au 16.5708 26.9725 23.7825
Au 17.3151 29.4007 28.1741
Au 16.5353 26.9887 26.8125
Au 16.6364 27.0196 29.8445
Au 31.3132 17.4156 23.6481
Pt 32.3268 19.8009 22.2642
Au 33.2674 22.2052 21.0596
Au 31.3919 17.175 26.7083
Au 32.4426 19.4945 25.2928
Pt 33.3573 21.7819 23.9553
Au 32.5072 19.1864 28.4678
Au 33.4049 21.4512 27.0742
Pt 33.6041 20.7822 30.4601
Au 18.2836 17.769 23.4636
Au 17.4657 20.0872 22.1479
Pt 16.6862 22.3635 20.8221
Au 18.2858 17.6863 26.384
Au 17.3863 19.992 25.0926
Au 16.584 22.3742 23.7265
Au 17.4108 19.9283 27.9723
Au 16.5089 22.3007 26.684
Au 16.5517 22.1612 29.5715
Au 23.1868 31.8891 32.1834
Au 21.8249 32.5359 29.7986
Au 20.4896 33.1713 27.414
Au 26.0335 32.0187 32.269
Au 24.6249 32.753 29.8497
Au 23.3342 33.4056 27.4332
Pt 27.4617 32.8317 29.9758
Au 26.1738 33.4358 27.5423
Au 28.9967 33.4178 27.6541
Pt 23.2685 17.3134 31.9486
Au 21.9471 16.7707 29.6221
Au 20.5503 16.1052 27.1934
Au 26.0428 17.2695 31.9777
Pt 24.7773 16.5965 29.6417
Au 23.3634 15.9412 27.2014
Pt 27.5986 16.4699 29.6681
Au 26.1971 15.8793 27.2645
Pt 29.0049 15.7944 27.3939
Au 23.576 31.261 18.275
Au 22.0673 32.1748 20.5688
Au 20.5521 33.0192 22.7568
Au 26.4954 31.2788 18.3262
Au 24.9654 32.2926 20.5283
Au 23.469 33.14 22.8061
Au 27.8652 32.293 20.6522
Au 26.3376 33.2201 22.9009
Pt 29.1365 33.277 23.0075
Au 23.4468 18.1823 18.1393
Au 21.9718 17.2703 20.3464
Pt 20.6133 16.2952 22.5296
Pt 26.2747 18.1067 18.2264
Pt 24.8065 17.1319 20.369
Au 23.3581 16.1933 22.5809
Pt 27.6305 17.1274 20.391
Au 26.1618 16.119 22.6042
Au 28.9781 16.1117 22.7201
Pt 31.1207 19.8343 30.8167
Au 32.2223 30.4093 32.5676
Pt 30.1155 17.8098 29.0904
Pt 30.3569 30.9775 28.4257
Au 28.5976 18.4881 31.3572
Au 30.1595 30.0333 30.886
Pt 30.9968 20.7943 20.0648
Pt 31.1605 28.5215 20.089
Au 30.0347 18.4304 21.3231
Au 30.2274 30.8662 21.3847
Au 28.6268 19.4654 19.1105
Au 28.8116 29.858 19.1651
Pt 18.7167 20.3802 30.4252
Pt 18.6586 29.0011 30.6275
Pt 19.6296 18.2983 28.8445
Pt 19.5211 30.9823 29.0027
Pt 20.9286 18.8512 31.2222
Pt 20.8247 30.4898 31.443
Pt 18.947 20.962 19.8969
Pt 18.8804 28.4581 19.9263
Pt 19.7142 18.6534 21.1903
Au 19.6977 30.7484 21.3796
Pt 21.1693 19.5684 19.0029
Au 21.2051 29.8864 19.1232
Pt 36.346 24.7267 18.1289
Pt 36.7891 24.305 20.6585
Au 37.8113 23.5928 23.0346
Au 37.3181 23.1851 25.7693
Pt 37.6486 22.8991 28.4976
Pt 36.3445 20.3942 31.1462
Pt 13.626 24.7951 17.9905
Au 13.5033 24.7078 20.7955
Au 13.4768 24.6925 23.6626
Pt 13.3756 24.5312 26.568
Pt 13.2401 24.4523 29.2878
Au 13.1996 24.5611 31.9891
Au 17.6289 36.1751 24.7445
Au 20.4703 36.2974 24.7601
Pt 23.3444 36.3839 24.9045
Pt 26.204 36.4633 24.956
Au 29.0681 36.4729 24.9726
Au 32.0145 36.2974 25.1726
Pt 17.6661 13.2022 24.5862
Pt 20.4196 12.9699 24.5469
Pt 23.1449 12.7926 24.5557
Au 25.9568 12.7455 24.5925
Au 28.7701 12.7651 24.6955
Au 31.5528 12.7144 24.654
Au 20.8785 18.7821 42.1371
Pt 25.6087 19.8037 39.3709
Au 23.0306 23.2825 36.6879
Pt 23.8838 28.6694 38.5547
Au 24.297 28.9817 35.7123
Au 24.3568 33.2723 36.5188
Au 24.8273 17.8055 13.6092
Pt 24.9151 20.6369 13.5543
Pt 24.9509 23.3449 13.5299
Au 24.9842 26.159 13.5526
Pt 24.9692 28.9174 13.5542
Pt 24.9914 31.6859 13.6835
Pt 35.1543 19.3541 34.8239
Au 32.7243 18.1795 34.7703
Au 29.138 21.7672 36.381
Au 27.0839 19.782 36.7675
Au 32.0705 25.0597 33.6003
Pt 31.7264 26.7692 35.65
Au 27.9514 23.8828 37.7103
Au 27.0948 19.245 33.8975
Pt 31.6718 27.7625 33.0412
Au 27.354 24.9937 34.9218
Au 22.7879 26.2965 36.6647
Au 29.2035 27.2229 34.5306
Au 25.4919 25.0518 37.14
Au 26.7886 28.6544 34.6301
Pt 34.1163 23.2138 17.3922
Au 31.847 21.9149 16.376
Au 29.553 20.4931 15.4343
Au 27.2307 19.2063 14.4666
Au 34.1339 26.1109 17.1548
Pt 31.9399 24.7002 16.3288
Au 29.6365 23.3255 15.3421
Pt 27.2529 21.9902 14.3886
Pt 31.886 27.5362 16.2886
Au 29.6373 26.1304 15.375
Pt 27.3079 24.7142 14.3516
Au 29.6316 28.9299 15.3317
Au 27.3166 27.5235 14.42
Au 27.3267 30.3555 14.4635
Pt 15.5064 22.8832 33.0446
Pt 17.3873 20.5393 34.335
Au 19.7754 19.0943 35.0981
Au 22.1112 17.5987 35.7738
Au 15.5557 25.7845 33.1831
Pt 17.6134 23.1933 34.7746
Pt 19.7297 21.8146 35.6338
Au 22.0599 20.4423 36.3369
Au 17.6948 27.3967 32.7164
Au 17.8434 25.8889 35.3603
Au 20.4959 24.6316 36.0147
Au 17.6243 28.8049 35.08
Pt 20.0651 27.49 35.8508
Pt 21.9553 31.8533 35.9145
Au 15.7711 23.3237 17.0376
Pt 18.0645 21.952 16.1427
Au 20.3246 20.5927 15.2601
Au 22.5734 19.1649 14.4139
Pt 15.846 26.1778 17.0976
Au 18.0514 24.7821 16.1381
Au 20.328 23.3685 15.2381
Pt 22.6115 21.9726 14.327
Pt 18.0824 27.6183 16.2478
Au 20.3672 26.2242 15.2565
Au 22.6754 24.751 14.3463
Pt 20.3874 28.9851 15.3154
Pt 22.6446 27.5697 14.3554
Au 22.6792 30.3335 14.4995
Pt 32.9156 34.2488 23.2023
Pt 33.87 32.0175 21.6981
Pt 34.8411 29.5944 20.588
Au 35.6858 27.1823 19.2605
Au 33.375 33.7402 25.8545
Au 34.0899 31.2679 24.2247
Au 35.2311 28.7586 23.4119
Pt 36.0908 26.6354 21.831
Pt 34.1238 31.9121 27.8702
Pt 36.6527 27.7577 25.8036
Au 36.2159 25.6194 24.2931
Au 34.8593 30.049 29.6911
Pt 36.6597 25.3955 27.1341
Au 35.4162 25.3527 29.6147
Pt 16.7669 33.8976 23.4521
Au 15.9582 31.5949 22.1018
Pt 15.1826 29.2942 20.6779
Pt 14.402 27.0431 19.3455
Pt 16.6125 33.9297 26.3282
Pt 15.8205 31.6596 25.0585
Au 14.9976 29.3257 23.6201
Pt 14.2338 27.0344 22.1628
Pt 15.7275 31.7605 27.8514
Au 14.9247 29.3943 26.5133
Au 14.1788 27.0288 25.1386
Pt 14.8381 29.5767 29.2751
Au 14.1983 26.9117 28.1069
Au 14.155 27.0728 30.9267
Pt 32.5964 15.0064 23.4066
Au 33.5431 17.3406 22.0569
Pt 34.5343 19.7197 20.7927
Pt 35.4897 22.1772 19.5885
Pt 32.6406 14.6832 26.4202
Au 33.6792 16.9458 25.111
Pt 34.6453 19.3004 23.7487
Au 35.6583 21.6738 22.6353
Pt 33.7414 16.5567 28.0788
Au 34.772 18.8487 26.7808
Pt 35.6576 21.1011 25.4882
Pt 34.8984 18.426 29.6911
Au 35.7558 20.8245 28.4911
Pt 36.7213 18.5134 32.99
Pt 16.7439 15.4908 23.2601
Pt 15.9081 17.7419 21.9399
Pt 15.1064 20.0457 20.6764
Pt 14.3641 22.3858 19.3635
Pt 16.694 15.359 26.0609
Pt 15.7988 17.637 24.7761
Au 15.0013 19.9723 23.4912
Au 14.2395 22.33 22.1553
Au 15.8184 17.5839 27.6
Au 14.9263 19.9364 26.385
Au 14.1255 22.312 25.0605
Pt 14.9266 19.8071 29.2061
Pt 14.0833 22.1935 27.9257
Au 14.1133 22.1133 30.7394
Pt 22.9353 33.7821 34.2552
Au 21.6749 34.3456 31.8785
Au 20.3784 35.02 29.5204
Au 19.0107 35.6093 27.1261
Pt 25.8817 33.9396 34.332
Au 24.4989 34.4866 31.9833
Pt 23.2433 35.208 29.5628
Au 21.8726 35.791 27.2173
Pt 27.2886 34.588 32.108
Pt 26.0012 35.2171 29.6991
Pt 24.6957 35.8481 27.2715
Au 28.7678 35.2559 29.8396
Au 27.4825 35.8573 27.3596
Au 30.3651 35.847 27.5138
Au 23.1121 15.5604 34.0009
Pt 21.7071 14.9368 31.6437
Au 20.3787 14.3328 29.2686
Pt 18.9916 13.7347 26.9089
Au 25.9486 15.4026 33.9657
Pt 24.5526 14.7861 31.6684
Au 23.1833 14.1848 29.3211
Pt 21.7552 13.5045 26.9283
Pt 27.4519 14.7101 31.6727
Au 26.0311 14.1116 29.3636
Au 24.5943 13.438 26.9489
Pt 28.8861 14.0347 29.3792
Pt 27.4771 13.4348 27.0805
Pt 30.2661 13.3929 27.0918
Pt 23.5291 32.6869 15.8742
Au 22.0403 33.5688 18.1387
Pt 20.4931 34.4604 20.3303
Pt 19.0487 35.3179 22.4738
Au 26.4138 32.7035 15.8961
Pt 24.8878 33.7358 18.0715
Pt 23.4036 34.6524 20.3485
Pt 21.9031 35.4278 22.5043
Au 27.7217 33.7286 18.1423
Au 26.2287 34.7483 20.344
Au 24.7683 35.5655 22.655
Au 29.1192 34.7429 20.4397
Au 27.6525 35.6243 22.6912
Au 30.5255 35.5758 22.7533
Pt 23.3518 16.7516 15.7345
Au 21.8913 15.8257 17.8638
Pt 20.5072 14.9153 20.1172
Pt 19.0984 14.0315 22.3381
Au 26.2199 16.7272 15.765
Pt 24.726 15.6936 17.9104
Au 23.2912 14.7755 20.1129
Pt 21.8553 13.8136 22.3265
Au 27.5783 15.727 17.9852
Pt 26.0641 14.7448 20.1509
Pt 24.5859 13.7175 22.3305
Au 28.9667 14.7687 20.1913
Au 27.3851 13.6701 22.3811
Au 30.2624 13.7426 22.452
Pt 34.0867 18.7204 32.316
Pt 34.7446 24.1277 33.4077
Au 32.5005 17.291 30.5497
Pt 32.5106 31.3942 29.9898
Pt 31.3527 15.3153 28.8033
Au 31.7609 33.3624 28.0364
Au 30.9459 17.902 32.81
Pt 29.4621 27.5117 31.7079
Au 29.9806 15.9505 31.1093
Pt 30.2215 32.915 30.241
Au 28.4453 16.6139 33.4344
Au 27.4462 29.4628 32.1002
Au 33.2406 20.7863 18.5856
Au 33.3345 28.5723 18.4412
Pt 32.2867 18.3637 19.773
Pt 32.4465 30.9101 19.6953
Pt 31.3324 16.0694 21.0235
Au 31.4456 33.3064 21.0956
Pt 30.9444 19.3701 17.6397
Au 31.0416 29.9472 17.5366
Pt 29.9846 17.0609 18.8277
Au 30.1096 32.3041 18.8532
Au 28.6137 18.0727 16.6566
Pt 28.7531 31.3159 16.6197
Au 16.1289 20.2599 31.6978
Pt 16.1072 29.1253 31.5939
Au 17.1273 18.1236 30.0783
Pt 17.1104 31.2298 30.2527
Pt 18.0616 15.9103 28.473
Au 18.0229 33.348 28.6711
Au 18.4432 18.6434 32.5497
Pt 18.3937 30.6501 32.8084
Au 19.4165 16.5032 30.8999
Au 19.3169 32.7619 31.1289
Au 20.7869 17.0253 33.2983
Pt 20.6205 32.2856 33.5328
Au 16.5389 20.9716 18.4111
Pt 16.5887 28.457 18.451
Au 17.3412 18.6492 19.6976
Pt 17.3587 30.7645 19.7509
Au 18.2292 16.3363 21.0138
Pt 18.1575 33.0585 21.1466
Au 18.8505 19.6154 17.4783
Au 18.8604 29.9234 17.5436
Au 19.6227 17.2274 18.7375
Au 19.6391 32.2155 18.9572
Pt 21.088 18.1773 16.5868
Pt 21.1688 31.3046 16.6976
Au 38.674 24.731 16.7464
Pt 38.7849 25.6206 19.2295
Pt 38.8734 25.8704 21.9332
Au 38.8693 25.7077 24.6996
Pt 39.2633 24.7617 27.1282
Pt 38.1873 25.286 29.6277
Pt 40.6318 21.3731 30.3407
Au 11.3928 24.771 16.4551
Pt 11.1743 24.7279 19.3102
Au 11.0777 24.6639 22.0914
Au 11.0444 24.5859 24.925
Au 10.9482 24.5043 27.7624
Pt 10.7941 24.4819 30.5352
Pt 10.7358 24.5691 33.2645
Pt 16.1985 38.5062 24.4689
Pt 18.9877 38.6442 24.561
Au 21.784 38.7176 24.6579
Au 24.6439 38.742 24.6671
Pt 27.5018 38.8906 24.7271
Pt 30.2526 38.8939 24.7689
Au 33.1504 38.7211 24.9659
Pt 16.1631 10.9256 24.3914
Pt 18.9202 10.7121 24.3921
Pt 21.6291 10.5536 24.3659
Pt 24.3715 10.3934 24.381
Au 27.2044 10.2721 24.3571
Au 30.0129 10.2366 24.3763
Pt 32.7919 10.2136 24.3599
Au 24.3713 18.9427 37.1297
Pt 23.1909 19.2004 40.616
Pt 23.242 21.037 38.7058
Au 23.9221 26.0674 39.1272
Pt 25.9949 30.0386 39.6018
Pt 23.6609 31.1855 37.95
Pt 24.1379 35.005 38.5765
Au 24.8317 16.4847 11.2278
Pt 24.8696 19.2662 11.1794
Au 24.9363 21.9693 11.1623
Au 24.9437 24.784 11.1419
Pt 25.0057 27.5386 11.1474
Pt 24.9635 30.2702 11.1888
Au 24.9319 33.0363 11.3301
Pt 33.2866 22.2829 34.8839
Au 30.5727 22.6598 33.9858
Pt 30.201 22.6461 39.027
Au 29.4734 18.5563 35.3649
Au 25.5836 22.1647 37.545
Pt 36.1055 24.2816 35.6159
Pt 34.1968 22.5772 37.4173
Pt 31.5711 23.0394 36.7122
Au 25.0238 23.5623 34.7989
Au 28.1828 16.2935 40.6638
Au 31.537 29.5264 35.5187
Pt 30.4701 27.9496 37.5196
Au 29.903 24.7496 35.547
Au 27.1936 23.2845 42.9608
Au 29.622 29.8171 33.7097
Pt 30.9043 27.2132 39.9652
Pt 26.1153 27.4339 40.091
Au 28.5627 29.4974 36.5235
Au 26.1951 27.9691 37.4373
Pt 26.0949 30.7754 36.9576
Au 36.392 23.1537 15.9152
Au 34.0855 21.8256 14.8141
Au 31.8215 20.4522 13.8369
Pt 29.5456 19.119 12.9666
Au 27.1847 17.7612 12.1235
Au 36.4499 26.1573 15.6576
Au 34.1516 24.6008 14.7589
Pt 31.8902 23.2543 13.7233
Au 29.5797 21.9207 12.8879
Pt 27.2792 20.6002 12.0215
Pt 34.1155 27.5441 14.6555
Au 31.9064 26.1014 13.8568
Au 29.5953 24.7772 12.8602
Pt 27.2757 23.3888 11.9601
Pt 31.8408 28.9453 13.7669
Pt 29.5602 27.5479 12.8364
Pt 27.2883 26.1729 11.9343
Pt 29.5517 30.3439 12.8249
Au 27.2839 28.9499 11.9571
Pt 27.2776 31.7639 12.0736
Pt 13.1128 23.1097 34.3257
Pt 15.2588 21.8055 35.4991
Pt 17.3256 21.159 36.9611
Au 17.4103 16.6216 38.715
Pt 18.193 14.9194 36.684
Au 13.1268 26.0192 34.3543
Pt 15.4005 24.4347 35.6301
Pt 15.9564 23.065 38.1835
Pt 18.4989 21.9335 39.3141
Pt 20.9203 20.6124 40.0739
Au 15.3469 27.2192 35.6362
Pt 16.1813 25.6172 38.0232
Pt 18.3315 23.7437 37.2425
Pt 20.8263 22.4012 38.0136
Au 16.8875 28.1779 37.7702
Pt 18.9546 26.3665 38.0087
Pt 21.3018 24.9168 38.6278
Pt 19.7645 30.3782 35.3156
Au 21.8769 29.2691 36.6768
Pt 21.8769 33.527 37.9829
Pt 13.5102 23.3016 15.4984
Au 15.7568 21.9681 14.606
Pt 18.028 20.5853 13.7139
Au 20.3126 19.1981 12.8159
Pt 22.5262 17.7886 11.9686
Pt 13.576 26.1543 15.5619
Pt 15.7489 24.7314 14.5843
Pt 18.0287 23.3597 13.6599
Pt 20.3546 22.0123 12.745
Pt 22.5954 20.6208 11.9525
Au 15.7822 27.5388 14.6883
Au 18.0679 26.1641 13.704
Au 20.3379 24.7656 12.7826
Pt 22.6176 23.4033 11.8868
Au 18.1123 28.9787 13.7959
Pt 20.3879 27.5561 12.7733
Pt 22.6382 26.1728 11.9263
Pt 20.3698 30.3628 12.9091
Au 22.6496 28.9299 11.9715
Au 22.6343 31.747 12.1041
Au 34.1009 36.7253 23.1315
Au 35.1294 34.4861 21.5158
Au 36.1347 32.1578 20.2228
Pt 37.0222 29.8806 18.958
Pt 37.8478 27.5 17.6907
Pt 34.782 36.4095 25.8712
Pt 35.3528 34.4441 24.1711
Pt 36.3647 32.3412 22.9811
Au 37.2053 30.0837 21.8287
Pt 38.0489 27.9221 20.4629
Au 35.5797 34.4328 27.6317
Au 36.0023 32.3663 25.8659
Au 37.2616 30.2582 24.7017
Au 38.2833 28.0554 23.3874
Pt 36.3627 32.4841 29.3772
Au 34.7518 29.6443 26.3357
Pt 39.2246 28.3091 26.0193
Pt 37.448 29.5592 30.1537
Au 35.2322 27.7785 28.3777
Au 35.4458 22.8801 30.7492
Au 15.2672 36.2594 23.2505
Au 14.4388 33.9277 21.9278
Au 13.6161 31.5742 20.5701
Au 12.8445 29.2938 19.204
Pt 12.097 27.0659 17.8647
Pt 15.1988 36.2835 26.0734
Au 14.3061 33.9776 24.8316
Au 13.4344 31.6452 23.4932
Au 12.6434 29.3362 22.1055
Pt 11.9179 27.0356 20.6875
Pt 14.1586 34.0745 27.6634
Au 13.3261 31.723 26.3396
Pt 12.4955 29.3929 24.971
Au 11.8041 27.0627 23.5474
Pt 13.2108 31.8176 29.1104
Au 12.4985 29.306 27.8298
Au 11.7864 26.9634 26.3917
Au 12.4485 29.4548 30.806
Au 11.7487 26.9043 29.2845
Au 11.596 27.0149 32.0911
Pt 33.8778 12.5208 23.098
Au 34.8676 14.8211 21.8236
Au 35.8159 17.2055 20.5157
Au 36.8016 19.663 19.2934
Au 37.8973 22.3489 18.3475
Au 33.8434 12.2489 26.0253
Au 34.9636 14.5008 24.8071
Au 35.923 16.7972 23.4984
Au 36.9065 19.1198 22.2654
Au 37.8899 21.4361 21.0724
Pt 34.9813 14.1037 27.7589
Pt 36.1102 16.3637 26.4902
Pt 37.0494 18.6629 25.1554
Au 38.0927 21.0058 24.0123
Pt 36.1968 15.962 29.2205
Au 37.2536 18.2797 27.9825
Pt 38.0621 20.6431 26.7768
Pt 37.4182 18.0123 30.6098
Au 38.466 20.3256 29.425
Pt 38.7852 20.3485 32.1856
Au 15.2655 13.2347 23.0632
Pt 14.3865 15.5371 21.7629
Pt 13.6246 17.7645 20.436
Au 12.8452 20.0719 19.1335
Au 12.1131 22.459 17.8591
Pt 15.2095 13.1026 25.8982
Pt 14.2781 15.3997 24.5949
Pt 13.4539 17.6885 23.275
Pt 12.6377 19.9829 21.9622
Pt 11.8996 22.3151 20.647
Pt 14.3189 15.2614 27.3614
Pt 13.3982 17.5724 26.0716
Au 12.5277 19.9496 24.8146
Pt 11.795 22.2666 23.4286
Pt 13.4307 17.4096 28.8983
Au 12.5005 19.7912 27.6942
Pt 11.7611 22.1828 26.3577
Au 12.6029 19.748 30.6051
Pt 11.7276 22.121 29.1344
Au 11.7229 22.132 32.0306
Pt 22.7229 35.5332 36.3536
Au 21.4438 36.1488 34
Au 20.1223 36.8325 31.6473
Au 18.823 37.3941 29.2713
Pt 17.5409 37.9605 26.8885
Pt 25.5858 35.714 36.3859
Pt 24.2616 36.2494 34.0936
Au 22.9823 36.9503 31.7077
Pt 21.6913 37.5806 29.3643
Pt 20.3923 38.1219 27.0214
Pt 27.0659 36.3739 34.1815
Pt 25.7972 36.9382 31.826
Au 24.5322 37.6468 29.4411
Pt 23.1855 38.2046 27.0713
Pt 28.5336 37.0498 31.9434
Pt 27.3043 37.646 29.5122
Au 26.0096 38.3015 27.0867
Pt 30.0627 37.6949 29.6545
Au 28.8146 38.2677 27.152
Pt 31.5887 38.2445 27.3382
Pt 20.5926 15.169 35.4288
Au 21.5583 13.1879 33.6983
Pt 20.1711 12.5875 31.3654
Pt 18.8101 12.0268 29.0076
Pt 17.4714 11.4842 26.702
Pt 25.7468 13.6916 35.9939
Pt 24.3947 13.0156 33.7486
Au 22.9998 12.3796 31.4247
Pt 21.5923 11.7405 29.0504
Pt 20.2362 11.2434 26.7239
Pt 27.3007 12.9859 33.6948
Au 25.866 12.2951 31.4458
Au 24.409 11.5911 29.1147
Pt 22.9711 11.075 26.7357
Pt 28.7597 12.2866 31.4102
Au 27.2787 11.5263 29.1404
Au 25.8216 10.9189 26.7648
Au 30.1033 11.5541 29.0966
Au 28.6579 10.8988 26.7929
Pt 31.471 10.889 26.7795
Pt 23.5037 34.0864 13.5236
Au 22.0176 34.966 15.7057
Pt 20.5012 35.8421 17.9266
Pt 19.0213 36.7537 20.0966
Pt 17.5944 37.6314 22.283
Au 26.3839 34.0846 13.5104
Pt 24.8681 35.1099 15.7039
Au 23.4153 36.032 17.9396
Pt 21.8596 36.8637 20.0789
Au 20.4028 37.747 22.3106
Pt 27.641 35.1393 15.6809
Pt 26.2027 36.1688 17.8858
Pt 24.7505 37.1006 20.087
Au 23.2313 37.8456 22.3175
Au 29.0361 36.1406 17.9479
Pt 27.5466 37.1343 20.1543
Au 26.1272 37.9601 22.3736
Pt 30.3207 37.1756 20.2254
Pt 28.9112 38.0194 22.4499
Au 31.6977 38.0298 22.5477
Pt 23.3252 15.4272 13.3433
Pt 21.9009 14.4487 15.4674
Pt 20.4096 13.5286 17.6455
Au 19.0249 12.6322 19.894
Au 17.5702 11.7628 22.1317
Pt 26.2004 15.3203 13.3354
Pt 24.707 14.3207 15.4586
Au 23.2291 13.3373 17.6266
Pt 21.7994 12.4164 19.8895
Pt 20.3693 11.5368 22.1205
Au 27.5795 14.3416 15.4865
Pt 26.0353 13.3445 17.6536
Au 24.5832 12.313 19.8855
Pt 23.0935 11.3953 22.1195
Au 29.0084 13.3695 17.6743
Au 27.3869 12.324 19.8908
Pt 25.8045 11.2283 22.1152
Au 30.2486 12.2904 19.9253
Au 28.6548 11.1949 22.1218
Au 31.487 11.2173 22.1646
Au 37.363 15.8121 33.4189
Au 33.9808 26.3176 31.8257
Pt 35.2873 16.4896 31.6628
Au 34.6984 31.8292 31.7544
Au 33.7531 14.768 30.2367
Pt 33.9139 33.8465 29.7744
Pt 32.5688 12.8629 28.4829
Pt 33.116 35.8026 27.9096
Pt 33.758 19.9739 36.8248
Au 33.8551 30.9615 34.5824
Au 34.8104 14.0872 34.4279
Pt 32.3954 33.2784 31.9337
Pt 31.2823 13.5636 30.8523
Pt 31.5354 35.2937 30.0968
Pt 27.1097 11.4098 35.761
Au 31.1233 32.3998 34.2017
Au 32.7097 15.5996 32.8898
Pt 30.0256 34.6623 32.3293
Pt 25.8481 12.0741 38.0602
Au 28.8426 32.1407 32.3599
Pt 35.4911 20.7238 17.1228
Au 35.5818 28.7012 16.7766
Pt 34.5027 18.2748 18.286
Au 34.6693 31.0763 18.0679
Pt 33.5734 15.9252 19.4667
Au 33.7029 33.4065 19.3324
Au 32.5468 13.636 20.855
Au 32.6963 35.8069 20.8566
Au 33.1928 19.3931 16.1011
Au 33.2676 30.0064 15.8493
Pt 32.2554 16.9713 17.3279
Pt 32.3557 32.4051 17.1742
Pt 31.3155 14.6898 18.5536
Au 31.3971 34.7813 18.6061
Pt 30.9572 17.9954 15.1655
Au 30.9985 31.3832 14.9676
Pt 30.0037 15.6626 16.3887
Au 29.9975 33.7765 16.3918
Pt 28.6411 16.6837 14.2325
Pt 28.7562 32.7907 14.1505
Au 13.8788 20.3569 33.2991
Au 14.1282 28.5637 33.3954
Pt 14.6353 17.8947 31.3992
Au 14.6123 31.2969 31.4479
Au 15.6196 15.7831 29.7708
Au 15.5758 33.5324 29.9752
Pt 16.5359 13.623 28.2318
Au 16.5323 35.7445 28.4113
Au 15.8763 18.3193 33.7918
Au 15.9272 30.6798 33.8953
Au 18.3141 16.7454 34.6639
Au 16.8373 32.9731 32.4863
Au 17.9003 14.1703 30.6169
Au 17.8202 35.2088 30.8784
Pt 17.4207 18.5227 36.5612
Pt 18.2669 32.5142 34.8955
Pt 19.231 14.6603 33.0534
Au 19.1518 34.6274 33.2715
Pt 19.6865 17.1304 37.204
Pt 20.4388 34.0971 35.7107
Pt 14.2466 20.9277 16.8561
Pt 14.2962 28.475 16.9334
Pt 15.0098 18.6178 18.1469
Pt 15.0928 30.7938 18.2248
Pt 15.833 16.3457 19.447
Au 15.843 33.1064 19.5569
Au 16.6826 14.0853 20.7824
Au 16.6884 35.3755 20.9782
Au 16.5074 19.5838 15.9305
Au 16.516 29.9306 16.0263
Pt 17.2695 17.2558 17.2336
Pt 17.3016 32.2587 17.3603
Pt 18.1353 14.9328 18.5183
Pt 18.1278 34.516 18.7531
Au 18.7847 18.1763 15.0399
Au 18.8024 31.3501 15.098
Pt 19.5515 15.8265 16.2807
Au 19.5972 33.5947 16.523
Pt 21.0437 16.7614 14.1508
Au 21.1501 32.6912 14.2894
Pt 40.7394 24.1759 15.3137
Pt 40.7791 23.5897 18.3489
Pt 39.403 23.504 20.6003
Pt 40.8759 23.9476 22.6921
Pt 42.4564 24.5372 24.7647
Pt 37.8714 27.4799 28.229
Pt 39.3097 27.5057 30.5549
Au 37.014 24.8398 31.9943
Au 9.09296 24.7258 14.9599
Au 8.91848 24.7139 17.8278
Pt 8.73626 24.715 20.5769
Pt 8.66739 24.6981 23.329
Au 8.58453 24.603 26.1045
Pt 8.53353 24.4994 29.0117
Au 8.31035 24.467 31.7845
Au 11.6751 27.293 38.4468
Pt 14.745 40.6888 24.2393
Au 17.533 40.9838 24.2934
Pt 20.3006 41.0983 24.4543
Au 23.1181 41.1465 24.4761
Au 25.9664 41.1779 24.5508
Pt 28.7833 41.3012 24.5759
Au 31.5319 41.233 24.5691
Au 34.3363 41.1134 24.5463
Au 14.5793 8.6434 24.1984
Pt 17.4217 8.46432 24.1225
Au 20.1034 8.21706 24.1967
Pt 22.8899 8.17719 24.2052
Au 25.7182 7.94431 24.1602
Pt 28.5599 7.83043 24.115
Pt 31.3163 7.9093 24.0847
Au 34.0525 7.83034 24.1466
Au 26.5649 17.2724 38.4193
Pt 23.9345 16.9534 39.1065
Au 27.3995 13.0325 40.0671
Pt 25.7559 22.1825 40.5022
Pt 23.2642 27.6675 41.0453
Au 25.45 31.8487 41.6543
Au 28.0229 30.6108 41.3668
Pt 25.6062 32.7017 38.9391
Pt 24.835 15.2049 8.89967
Pt 24.9033 17.9222 8.828
Pt 24.9231 20.6538 8.69736
Au 24.9266 23.3947 8.75738
Pt 24.9739 26.2043 8.78417
Pt 24.9794 28.9184 8.80488
Pt 24.9372 31.7013 8.88401
Pt 24.8576 34.4876 9.09353
Au 36.5386 19.8249 37.276
Pt 31.6327 17.8777 37.1156
Au 36.8034 22.6708 38.0568
Pt 30.4271 25.2148 38.1455
Au 33.4605 13.3042 36.8143
Pt 28.3873 14.6168 35.5688
Au 34.8324 29.0744 32.41
Au 38.2872 27.5413 35.6216
Pt 32.6524 23.9582 38.932
Pt 32.0305 20.9072 38.4497
Pt 26.1771 24.7462 39.7396
Au 30.5536 17.5763 39.7654
Pt 33.5568 24.8587 35.9426
Pt 34.9153 27.591 39
Au 33.4603 25.8699 40.6826
Pt 30.8757 24.6099 40.7712
Au 27.5919 18.4831 42.4744
Pt 35.5354 31.1773 36.6703
Pt 32.5392 28.9542 38.8064
Au 31.3797 26.8739 42.4214
Au 30.0541 22.4221 42.2396
Pt 32.8091 31.1432 37.204
Pt 30.4681 30.5405 38.4526
Au 28.6583 27.9147 41.8886
Pt 29.6997 32.0315 36.4226
Pt 28.4776 28.7283 39.2702
Au 27.4626 31.457 34.679
Pt 38.5829 23.0222 14.3505
Au 36.337 21.7829 13.3309
Pt 34.0383 20.3407 12.2916
Pt 31.7985 19.1025 11.4049
Au 29.4479 17.7827 10.585
Pt 27.1677 16.4334 9.72706
Au 38.8732 26.0248 14.2614
Au 36.4831 24.5982 13.264
Pt 34.2344 23.1872 12.1468
Pt 31.921 21.8226 11.2706
Pt 29.6091 20.5692 10.464
Au 27.2042 19.2497 9.60906
Pt 36.4001 27.4704 13.2542
Au 34.2246 26.0192 12.2639
Au 31.9825 24.6244 11.3274
Au 29.6104 23.3567 10.4585
Au 27.2931 21.9889 9.55797
Au 34.1298 28.9575 12.2528
Au 31.8654 27.4651 11.3811
Pt 29.5768 26.1652 10.4062
Pt 27.3035 24.8138 9.56665
Pt 31.8705 30.2891 11.4126
Au 29.6087 28.9574 10.3558
Pt 27.3363 27.5346 9.48897
Au 29.5159 31.8459 10.4922
Au 27.2855 30.3862 9.51963
Pt 27.2232 33.2037 9.76851
Au 8.15225 21.5041 35.4229
Au 11.4541 21.6391 38.0359
Au 13.3478 16.3717 36.8726
Au 15.0329 17.8629 38.3519
Au 22.905 20.1892 43.3876
Pt 21.727 16.7761 40.4491
Pt 18.2493 24.5495 39.7341
Au 14.2483 28.3331 38.5526
Pt 14.6798 20.7582 38.0743
Au 16.055 21.5635 40.5126
Au 18.5656 20.2133 41.4483
Pt 23.073 21.9155 41.3531
Pt 11.5541 29.32 33.6427
Pt 13.5092 25.8784 37.0948
Au 17.8752 25.9351 42.0353
Pt 22.4026 25.0967 41.2437
Pt 23.6437 23.4948 39.3652
Pt 15.0256 29.7728 36.3227
Au 16.0896 27.1026 40.3205
Pt 20.1243 26.1654 40.6671
Au 23.9146 26.4099 43.2624
Au 17.3322 32.7286 39.1193
Au 19.3602 29.2937 37.8575
Au 21.3791 27.6396 38.8306
Pt 21.404 30.8081 39.0338
Au 22.8232 29.3722 43.0388
Pt 23.164 32.8422 40.1703
Au 11.222 23.32 13.8915
Pt 13.4906 21.9792 13.0291
Au 15.7261 20.5735 12.2207
Au 17.9787 19.1865 11.3062
Pt 20.3014 17.7879 10.3998
Pt 22.5212 16.4477 9.57839
Pt 11.2994 26.1859 14.0504
Au 13.4638 24.729 13.0084
Pt 15.7469 23.3839 12.1106
Au 18.021 21.9969 11.233
Au 20.2475 20.6008 10.3114
Au 22.5657 19.2737 9.52794
Au 13.4034 27.5835 13.1376
Au 15.7451 26.1531 12.1563
Pt 18.0237 24.7566 11.2373
Pt 20.3004 23.4397 10.3352
Pt 22.5962 22.0133 9.55256
Au 15.7506 29.0041 12.2283
Au 18.0208 27.5661 11.2188
Au 20.3086 26.1591 10.3266
Pt 22.5525 24.8174 9.48453
Au 17.9838 30.376 11.384
Au 20.2833 29.0118 10.362
Pt 22.6796 27.5264 9.56171
Au 20.3084 31.8449 10.4913
Au 22.6078 30.3764 9.54513
Pt 22.5864 33.1401 9.72926
Au 35.4923 39.1991 22.8842
Au 38.6836 37.0368 19.6887
Pt 37.453 34.5774 19.9906
Au 40.9276 32.6469 19.9763
Pt 39.226 30.0054 17.4188
Pt 40.0269 27.6356 16.2503
Au 35.9527 38.8827 25.6456
Au 37.4856 39.3901 20.9607
Pt 37.6883 34.7499 22.727
Au 41.8285 30.2106 18.7089
Pt 40.4858 28.2703 21.5785
Pt 41.1392 25.6796 20.5143
Pt 36.9365 37.0052 27.4955
Pt 36.6876 36.9445 23.8921
Pt 38.6088 32.7846 24.4555
Pt 39.6111 30.5897 23.2043
Au 43.3927 25.2511 22.0931
Au 37.9071 35.124 29.2393
Au 37.4263 35.0086 25.622
Au 41.0026 32.9552 23.1186
Au 43.2017 28.0747 22.2923
Pt 38.9212 31.7081 29.4337
Pt 38.191 33.051 27.3021
Au 41.4156 28.9577 24.2582
Pt 37.6142 29.4239 32.9166
Au 37.1208 30.2888 27.5564
Pt 36.5949 27.3542 31.1256
Pt 13.8028 38.5747 22.8857
Au 12.9402 36.2879 21.6803
Au 12.1112 33.898 20.4204
Au 11.2404 31.6061 19.0462
Pt 10.4383 29.2929 17.736
Pt 9.83925 27.0521 16.3941
Au 13.7427 38.5622 25.8016
Pt 12.8081 36.3065 24.5264
Au 11.8673 33.9796 23.2678
Pt 11.0213 31.621 21.964
Au 10.3006 29.3486 20.545
Pt 9.63418 27.0565 19.1952
Pt 12.7611 36.3965 27.3464
Au 11.7509 34.1169 26.0975
Au 10.8711 31.7154 24.7725
Pt 10.1168 29.3811 23.4126
Pt 9.53199 27.0614 21.9751