2057
Atoms. Timestep: 21326
Au 9.92187 31.6665 14.2367
Au 21.8402 6.38112 26.9254
Au 19.6574 15.2359 24.5008
Au 9.07056 15.621 21.4244
Au 15.8621 26.0342 13.4893
Pt 26.1989 15.2792 28.4853
Au 29.8073 28.7575 9.41389
Au 24.467 28.653 43.1161
Au 25.9169 13.5439 10.1511
Au 27.9692 18.1101 42.8212
Au 41.5348 30.4811 20.5183
Au 42.8934 20.4594 32.7384
Au 41.3116 20.8402 20.7438
Au 37.0145 37.7756 29.5718
Au 11.2675 24.5852 28.2022
Au 15.1019 33.6792 37.8066
Pt 20.3118 14.4256 14.9318
Au 14.2594 32.6995 32.9866
Au 22.6991 23.9593 15.4351
Pt 18.1307 11.1438 18.9357
Pt 31.021 17.2568 39.3747
Au 20.6387 26.2051 11.1927
Au 11.4066 15.2936 19.9385
Au 14.3776 33.1037 28.4328
Au 13.8195 21.5793 19.7448
Au 8.24106 29.7866 32.6162
Au 11.6668 21.5543 12.5158
Au 17.3191 15.5372 22.5072
Au 14.3458 32.856 11.1993
Au 33.3298 21.8525 9.66701
Pt 28.7582 35.6168 34.2261
Au 40.4945 31.3582 12.2048
Au 13.0063 28.9834 31.5567
Au 17.2252 18.4707 8.34797
Au 13.0772 20.0497 10.1009
Au 24.9933 28.8362 9.39129
Au 14.2348 39.4702 23.2118
Au 41.8397 23.0433 32.7359
Au 9.27506 29.8009 20.5744
Au 14.0739 32.9514 16.2016
Pt 18.0567 8.5407 26.2099
Au 14.8639 33.4003 20.2167
Au 15.4018 30.3743 15.7045
Pt 32.6962 15.2777 14.4483
Au 26.6515 42.4185 28.238
Au 14.7523 30.0858 9.48376
Au 25.939 21.3129 12.4919
Au 18.3115 39.7379 16.6035
Pt 20.6181 37.2321 34.4949
Au 37.1769 11.3391 25.0093
Pt 34.3281 33.8812 24.8649
Au 16.3415 24.5978 42.6718
Pt 34.2685 36.4424 18.8308
Pt 33.0982 13.0153 33.4433
Au 22.7637 37.4185 10.3855
Pt 14.4401 18.6582 28.3773
Au 41.8484 30.5324 17.7416
Au 19.1541 20.99 20.6204
Au 41.1263 33.0474 14.1591
Pt 32.5815 37.0792 26.9471
Au 37.2361 20.3166 37.9031
Au 16.6928 33.5901 10.1136
Au 33.2325 38.6071 22.5381
Au 13.882 11.0841 20.7052
Pt 17.4616 15.8874 30.7874
Pt 19.9027 25.6179 37.1723
Pt 33.7755 14.5955 31.4518
Au 30.661 9.50214 31.3085
Au 22.5413 29.7763 8.17512
Au 15.9416 28.0147 20.9362
Au 12.2334 15.9636 11.8029
Au 40.7226 18.3932 22.0786
Au 13.1066 29.336 16.8957
Au 18.031 35.4634 19.9314
Au 12.7002 24.2991 19.6804
Au 26.5617 23.0832 10.4002
Au 26.6255 37.5872 33.8841
Au 20.7647 29.0539 6.31796
Au 29.6684 16.428 8.8907
Au 18.3766 11.2502 36.4124
Au 40.8261 31.9475 22.9311
Pt 26.8501 38.7231 17.3115
Pt 29.2136 23.2919 10.8355
Au 32.5082 21.0144 12.3345
Au 11.0189 27.6168 38.1096
Au 23.8578 24.9372 6.66276
Au 27.4941 29.6885 7.99052
Au 34.32 27.3674 8.64246
Au 33.0614 31.6141 10.9405
Au 33.7147 10.2649 21.2749
Pt 25.784 29.7229 36.4022
Au 36.1321 21.1492 8.83363
Au 17.0642 31.4421 8.58008
Au 10.5653 24.9062 37.899
Au 39.2496 33.1048 32.7543
Pt 26.5027 17.6633 37.5922
Pt 16.5645 31.6605 37.0954
Au 24.8238 30.0994 11.9934
Au 20.0561 23.8284 16.3744
Au 16.5247 25.8372 7.74509
Au 15.66 28.9388 18.0512
Au 13.6961 14.0542 13.2615
Au 12.0359 33.6601 20.4602
Pt 28.7418 18.9831 38.2755
Au 36.9729 17.938 12.1716
Au 18.9329 19.8496 14.86
Pt 35.6167 31.1048 32.9265
Au 8.11624 31.3806 25.3942
Au 7.46567 34.2517 21.2132
Au 22.1866 14.0262 41.4257
Au 42.1025 19.8919 30.2072
Au 6.47211 26.7999 30.1839
Au 32.8941 23.6959 42.7224
Pt 38.141 30.2909 15.9884
Au 18.9953 32.0143 10.6474
Au 31.1618 10.4468 27.013
Pt 16.882 13.4364 31.5244
Au 23.4948 36.7403 38.4841
Au 10.3658 25.4875 24.0036
Pt 35.2439 20.9266 18.3818
Au 10.9378 29.2456 26.7979
Au 8.9051 15.2903 18.67
Au 16.4864 38.7914 24.8228
Au 11.3786 38.3345 26.7685
Au 11.1621 19.6339 19.7139
Au 38.8798 12.8563 26.6278
Au 5.77159 21.4788 19.9032
Au 24.9703 41.1906 20.8217
Au 21.0774 27.7475 13.41
Au 21.9552 34.0504 14.4545
Pt 34.9234 34.0942 15.3467
Au 17.3952 20.1258 12.575
Au 13.1009 24.9996 17.0111
Au 13.7667 35.7034 19.1679
Pt 33.2337 15.6525 33.9517
Pt 34.6806 24.7661 32.3041
Pt 32.1008 26.6816 39.5862
Pt 31.2671 19.5104 34.1146
Au 10.52 29.0671 18.1114
Au 40.4809 30.3296 30.6681
Au 19.9032 11.1192 38.6125
Au 38.2856 34.1519 35.147
Au 12.8189 23.292 38.6899
Au 7.37443 32.7075 29.0524
Au 25.2133 36.2095 10.876
Au 10.6707 25.4199 21.2574
Au 25.6852 37.4429 15.2728
Pt 31.5548 23.5211 16.9064
Au 14.2632 30.6965 38.2557
Pt 33.5939 22.3152 32.4177
Pt 29.0933 14.6402 26.2809
Pt 37.2384 24.2987 34.3972
Au 7.51064 28.9265 18.5573
Pt 27.8823 15.5042 16.0456
Au 35.1114 25.2055 7.02648
Pt 17.0319 10.7934 25.1844
Pt 28.9702 26.1186 41.5767
Au 43.0059 17.8507 31.8477
Au 30.1547 40.5111 15.9194
Pt 23.7585 17.0505 23.9645
Pt 15.7395 20.187 38.6888
Au 19.8969 29.5027 15.1259
Au 41.0089 28.7477 11.5111
Pt 19.0582 9.54313 21.0262
Pt 15.7222 20.1428 24.364
Pt 23.9265 38.9368 21.9979
Pt 31.8215 29.321 15.3809
Au 6.78966 16.1868 19.9269
Au 19.2627 32.0108 40.8767
Pt 23.7647 32.8165 21.906
Au 18.2405 18.4196 22.5591
Au 21.3987 13.4094 9.18276
Au 30.5059 31.5873 9.85104
Pt 25.1371 9.47906 26.0452
Au 9.58934 34.4945 19.161
Au 7.04384 17.5144 22.2036
Au 18.0113 11.9738 10.8619
Pt 40.2482 28.582 16.3114
Au 40.4208 18.091 31.4264
Au 11.0609 17.7194 21.8728
Au 30.8133 23.3674 8.43201
Au 15.9706 39.8685 27.4487
Au 9.78854 36.1597 27.3146
Au 35.8003 31.2977 11.8189
Au 24.3909 16.8749 9.78372
Pt 30.7478 19.3527 31.2055
Pt 19.9493 34.9691 35.8441
Pt 25.0675 30.1217 40.8356
Pt 32.8068 19.324 22.0624
Pt 19.8965 35.6029 32.2874
Au 12.0329 12.5747 19.0897
Au 18.6211 38.361 26.7381
Pt 27.6349 12.4265 20.5408
Au 11.3409 31.3948 16.5142
Pt 16.5222 13.717 13.9628
Pt 24.1688 39.3139 24.806
Pt 15.6727 22.8946 30.1851
Au 32.6327 16.5421 41.384
Pt 20.2078 33.2833 20.3159
Pt 22.2594 37.083 32.3643
Pt 36.688 22.94 19.6532
Pt 23.6322 14.4093 27.5691
Pt 21.5902 18.2769 33.1426
Pt 14.5695 24.053 36.4795
Au 31.0308 40.5475 22.9393
Pt 26.5988 31.0535 10.1157
Pt 23.0521 21.8976 29.8788
Pt 25.1905 24.2859 37.0098
Pt 25.1881 28.1978 15.9046
Au 32.4358 29.4254 9.0174
Au 31.0005 38.1105 14.965
Au 11.8618 34.1233 27.5794
Au 13.4691 12.0889 34.1431
Au 41.2493 23.5044 16.8318
Au 19.32 21.2158 17.5816
Au 18.3281 26.572 24.773
Au 36.2217 36.745 34.0804
Au 12.1133 26.4615 32.1387
Pt 18.0374 13.3295 20.8219
Au 27.9426 22.8298 6.2129
Au 11.7791 18.0295 26.9006
Au 13.2235 17.0442 13.9913
Au 9.197 33.1103 16.7276
Au 22.8549 28.2737 40.8952
Au 20.4392 28.4964 17.7813
Pt 37.5698 22.3782 30.2155
Au 26.6873 25.2222 6.4613
Au 43.3993 28.7875 19.3203
Au 18.2524 24.684 11.9529
Au 11.8649 20.5342 37.7574
Au 25.0677 38.7518 19.444
Au 34.2198 21.0023 42.5073
Pt 20.6723 23.7355 28.9535
Au 32.6913 34.032 9.57992
Au 9.77448 25.2232 32.9742
Au 14.2313 31.98 35.7574
Pt 37.1063 33.5639 30.9433
Au 40.6294 30.4308 25.2397
Au 35.5282 11.5496 33.4247
Pt 35.384 27.3131 18.0145
Au 31.2758 26.8266 5.15972
Au 21.0264 40.0011 35.521
Pt 20.8492 14.4365 20.1235
Au 20.2251 40.1992 19.4051
Au 19.2595 16.8532 9.7131
Au 17.5273 33.1079 21.3288
Au 22.7337 28.1274 11.0563
Au 6.48383 26.8248 20.3084
Au 33.4788 40.8172 24.1929
Au 16.1273 37.509 29.6622
Au 20.5218 39.6256 14.7167
Au 10.2721 15.8621 25.9399
Au 26.7987 32.3799 41.0915
Au 34.2186 33.5824 37.9082
Au 25.5073 13.4568 12.954
Pt 28.6927 8.82322 23.216
Au 13.5118 26.4229 21.5086
Au 17.6915 23.2594 21.1242
Pt 24.9033 20.5294 40.3547
Au 26.3388 20.6244 6.64749
Au 13.1261 19.8506 14.466
Au 38.6393 12.6675 29.429
Pt 34.4986 23.6028 34.6057
Au 41.6761 22.0508 23.3114
Pt 31.4985 15.2653 27.5786
Au 11.9058 37.0316 17.5142
Pt 34.2788 17.3643 15.4898
Au 14.2754 13.4885 36.6391
Au 28.8871 30.3705 11.7793
Au 11.3999 31.9038 29.168
Au 16.2735 20.3869 6.52242
Au 25.7168 27.671 7.02311
Au 39.4815 21.7454 15.3133
Au 17.9105 24.8888 14.8624
Au 35.0976 31.472 9.16217
Pt 27.9695 24.1815 23.5785
Au 21.0493 36.6216 13.4934
Au 34.4743 29.7113 7.21986
Pt 19.6484 13.6304 32.1678
Pt 33.0704 19.109 29.5018
Pt 23.2187 24.9057 24.2535
Au 18.2204 41.0397 31.348
Pt 28.1418 19.4988 27.237
Au 9.8477 26.0779 14.3561
Au 30.7115 8.34567 28.7465
Pt 28.5199 19.0373 24.7492
Au 28.9128 23.9686 39.9965
Pt 29.1571 11.5622 18.5694
Pt 30.6933 26.9822 26.249
Au 41.1318 21.2454 34.7841
Au 20.1647 32.1706 13.1953
Pt 23.2443 18.9966 20.3493
Pt 28.8129 37.5433 32.3481
Au 15.3227 34.482 30.9371
Au 15.5151 17.7112 23.0435
Au 16.7394 34.1932 33.2927
Au 15.5711 14.9814 26.1575
Pt 30.0692 36.9878 28.5013
Pt 33.7633 11.6127 27.2326
Pt 28.3459 35.9751 22.427
Pt 29.5071 35.2898 30.9457
Pt 24.1321 10.9104 31.1522
Pt 35.2853 16.3438 37.6703
Pt 25.4396 26.8746 36.5791
Pt 30.4534 15.4777 37.3327
Pt 20.2268 11.2466 34.0653
Au 31.9797 38.7585 24.9501
Pt 30.7729 37.3886 22.806
Au 28.268 19.8628 17.1372
Pt 33.1852 35.2084 35.6904
Pt 25.716 13.2511 22.2952
Au 26.1754 15.8455 11.5834
Au 18.3444 27.1806 13.0648
Pt 25.5037 37.9757 28.8267
Pt 33.6881 14.3871 26.2441
Pt 32.2216 38.1339 19.9228
Au 41.9403 23.3194 19.4617
Au 14.8375 10.3582 23.3568
Pt 24.8217 11.3261 17.0382
Pt 19.214 27.3601 33.684
Au 20.055 37.3336 10.9852
Au 14.2269 8.36071 27.8362
Au 7.1904 26.079 27.3646
Pt 23.0392 35.2965 18.552
Pt 21.5658 27.0255 25.6892
Au 26.9191 16.0291 8.89542
Au 31.5655 26.9414 7.88308
Pt 26.6188 24.8847 41.3095
Pt 19.1983 23.4141 38.5454
Pt 27.8003 33.4394 23.7216
Au 20.8562 21.5104 42.6475
Au 23.7215 34.6527 9.11395
Au 9.41341 22.7532 13.6312
Au 30.92 18.5042 43.0877
Pt 29.458 18.6432 10.3859
Au 10.4977 33.8442 32.452
Pt 20.6967 29.8199 39.8602
Au 17.2956 6.42058 24.7601
Au 37.2622 11.6165 22.333
Au 20.2278 27.9078 41.7164
Pt 15.8657 29.1571 30.6704
Pt 34.2113 20.534 38.7391
Au 33.6338 37.9652 33.8523
Pt 31.7803 23.6201 11.167
Pt 25.1973 33.5004 32.7784
Pt 30.8303 20.3282 17.9094
Au 9.91428 38.1031 22.2544
Au 27.3056 38.6693 36.9722
Au 36.449 12.2032 19.8515
Au 25.0603 22.7736 14.8103
Pt 33.8078 29.4291 17.2675
Au 22.2339 25.0804 17.9784
Au 17.5796 33.4381 12.7621
Pt 33.4305 23.7694 23.6236
Au 12.1551 16.3967 36.2446
Au 9.98342 35.6052 16.508
Au 12.4363 24.8826 34.361
Au 13.815 38.9059 25.8301
Au 17.3625 12.4355 38.8943
Pt 26.6709 28.6809 24.6821
Au 13.1364 29.0219 19.6743
Au 7.14265 21.5746 29.2154
Au 13.3976 13.7464 21.0655
Au 27.3518 41.0375 15.9803
Pt 18.6068 29.6608 30.3355
Au 21.0522 15.5929 7.58403
Pt 35.2273 18.1222 22.2437
Pt 31.0297 30.3501 17.63
Au 11.1677 29.9359 12.4634
Pt 17.1604 14.575 11.2684
Au 15.9384 25.5549 10.593
Au 24.2133 11.2297 38.0102
Au 42.4003 26.7353 24.0096
Pt 25.0781 23.2375 33.865
Pt 20.5125 20.2743 23.3837
Au 39.817 30.5059 33.3322
Au 7.01833 29.3182 23.7775
Au 27.2392 15.7651 41.6622
Pt 35.7691 27.295 20.8084
Pt 39.8435 26.3038 14.7699
Au 26.9003 31.6452 13.3043
Au 15.0392 29.9489 33.1239
Au 26.6896 34.6863 12.9517
Au 12.4154 28.6533 10.313
Au 18.6592 35.4274 17.205
Pt 16.2592 17.4672 20.5173
Pt 38.4347 31.7608 13.7713
Au 7.76063 26.5834 24.6576
Pt 38.5169 24.2221 16.1289
Au 21.3921 27.0237 22.9316
Au 10.0139 28.3258 24.4084
Pt 30.5853 34.9748 21.4185
Au 35.5413 38.5898 31.9329
Au 24.7955 9.02138 33.394
Pt 19.4729 10.39 16.6132
Pt 21.7437 19.1059 28.5726
Au 16.4629 23.1467 7.08235
Au 18.4516 20.1016 42.0827
Pt 14.9568 16.6207 30.1396
Pt 21.936 22.2332 17.6751
Au 14.5832 18.8534 8.11004
Pt 22.6531 15.3685 32.4007
Pt 36.1305 25.5906 27.8274
Pt 15.8626 13.3541 16.6804
Au 11.0479 18.3063 15.4215
Au 19.0937 22.5377 13.822
Au 30.0868 30.7051 7.36083
Au 9.51339 19.6369 17.4133
Pt 18.0041 15.339 33.5312
Pt 37.8925 25.0747 20.8736
Pt 29.8571 24.0144 31.4769
Au 33.7474 29.8486 13.5371
Au 35.1093 38.3542 20.6131
Pt 28.8993 18.6869 33.3408
Au 32.6226 31.819 7.93598
Pt 17.2991 21.0012 28.9008
Au 17.1349 8.83748 31.4976
Pt 11.8506 31.6143 31.8846
Pt 30.9734 30.1496 30.0046
Pt 25.2497 32.7712 26.8733
Pt 17.7953 30.9372 24.882
Au 15.6351 35.3124 11.9583
Pt 26.3941 32.0956 21.6434
Pt 29.5359 27.5121 11.8569
Au 17.38 28.2084 15.5406
Au 20.4921 24.9183 13.7206
Pt 32.5452 35.9843 24.5465
Au 40.0333 18.7574 19.3947
Au 37.2665 27.1088 37.6897
Pt 37.7251 20.3508 31.6843
Au 6.28337 30.813 27.3941
Pt 40.7141 22.7184 25.8909
Pt 38.2838 24.0444 26.317
Pt 33.8723 16.5095 18.1431
Au 29.5703 25.3016 6.60272
Pt 21.0011 33.8578 17.534
Au 30.2659 40.0272 20.4118
Pt 38.5905 29.1214 26.743
Au 10.7082 28.6523 33.1651
Pt 38.4871 21.5277 34.0858
Pt 22.0283 9.64604 29.3577
Au 18.3527 26.7241 9.74819
Pt 27.2573 22.2234 36.0529
Pt 24.9544 18.9991 35.7572
Pt 21.9293 24.3466 38.4152
Pt 21.5932 18.4305 11.367
Pt 37.678 29.6708 29.2047
Pt 24.1216 26.8715 32.0025
Pt 15.81 12.4232 19.305
Au 28.1538 14.3404 13.6132
Au 40.3018 20.8138 32.1733
Au 23.3605 40.9321 34.4159
Au 27.0643 34.7967 9.4478
Au 18.6621 14.2463 8.75046
Pt 23.6623 27.5963 18.0073
Pt 23.4427 30.7757 28.1101
Au 38.3584 22.6035 9.89163
Pt 14.4162 24.3193 27.6314
Au 16.3654 31.5035 39.8855
Au 17.163 19.5407 16.9309
Au 18.0426 23.723 18.2212
Pt 23.8659 27.8849 24.5268
Au 15.6756 12.8255 22.2802
Pt 26.3135 13.333 26.3868
Au 20.8861 23.4364 10.8388
Pt 16.9586 18.5063 29.8146
Pt 22.6115 35.8233 35.9743
Pt 31.9483 27.4978 17.4747
Au 11.5774 27.0817 16.2513
Au 25.5731 32.8885 8.19675
Au 31.5662 26.3758 42.4103
Au 11.9484 32.6005 12.4405
Pt 27.5869 16.8101 26.492
Au 32.4735 12.8461 37.9762
Pt 30.0782 13.5953 23.9061
Au 33.1679 24.7411 9.06012
Pt 19.4391 25.9667 39.809
Au 23.6735 12.1483 14.6341
Pt 29.9261 21.9523 12.9696
Pt 24.9784 16.2228 16.8235
Au 13.5252 16.0011 27.6019
Au 39.357 34.0646 12.5102
Pt 30.133 25.6736 9.84192
Pt 31.6878 32.9851 36.7826
Pt 30.7947 22.9873 24.1018
Pt 21.9132 21.2864 21.1823
Au 24.9798 24.1178 12.3015
Pt 28.597 16.9999 35.9987
Pt 29.0342 26.058 21.8922
Au 17.1394 10.9354 13.7013
Pt 28.6992 18.5227 29.7162
Pt 29.1914 38.9454 29.9706
Pt 35.3595 31.8863 17.2222
Au 18.4503 22.9253 42.4398
Au 21.6764 39.5171 23.4122
Au 23.6866 7.37726 28.8254
Au 10.753 31.9957 25.7232
Au 23.8537 22.1577 5.91755
Au 42.3139 24.9158 30.7493
Pt 19.3834 27.0996 27.3336
Au 39.7511 15.8312 23.0825
Pt 35.6028 30.4262 22.4908
Pt 32.4917 20.9104 24.403
Au 29.0317 20.6216 43.0486
Pt 15.9801 17.6598 37.7142
Au 33.165 15.2174 11.6756
Pt 11.4473 32.7673 23.1881
Au 15.8315 19.8995 10.2932
Pt 32.4521 21.6148 30.0759
Pt 33.6549 25.6991 21.7521
Au 32.4775 16.7028 9.2846
Au 16.2064 13.1828 9.26471
Au 31.4587 12.6131 17.7722
Pt 33.7049 27.2281 15.404
Pt 23.4996 35.0679 26.6126
Au 14.7317 21.4069 16.927
Pt 34.8835 27.4309 13.1478
Pt 18.2039 39.2632 29.32
Au 23.8897 22.1289 10.6235
Au 12.1884 30.2074 24.2313
Pt 22.7187 12.3285 29.0668
Au 31.6138 21.2927 43.0204
Pt 37.8398 32.1108 18.328
Au 12.9481 11.1773 31.6063
Au 14.0985 24.1929 12.2049
Au 25.4802 18.3245 7.82633
Au 16.1848 20.2335 21.4819
Pt 35.8598 19.109 32.9421
Pt 18.4045 23.0034 30.4695
Pt 29.2551 32.9686 26.0437
Au 25.5747 25.5468 9.05687
Pt 30.5849 13.0456 28.4897
Au 15.9925 37.1996 26.9667
Pt 20.7302 9.79408 18.7999
Au 22.39 10.4672 12.8212
Au 19.7533 13.0289 40.5233
Pt 31.3137 24.4701 21.6808
Au 19.6579 25.9346 18.6386
Pt 31.9006 17.0992 16.3393
Au 29.4072 26.0919 44.1536
Pt 34.3398 18.8743 24.7036
Pt 12.8309 25.9415 36.9753
Au 30.3455 40.7056 31.4668
Au 16.8496 38.0765 22.1134
Pt 36.2735 22.4071 32.7921
Au 30.3564 39.4626 27.4161
Au 10.2827 29.6782 30.5465
Au 19.838 34.5606 11.5412
Pt 31.463 30.5476 39.6242
Au 16.504 37.2066 16.7699
Pt 19.1156 28.2656 38.2896
Au 18.4787 35.5266 26.4444
Pt 20.0223 13.4184 22.6472
Au 29.3586 33.4415 40.7232
Pt 19.2409 23.13 35.9386
Au 21.5093 20.8529 6.49537
Au 29.7033 38.0168 12.5504
Au 14.6715 17.6519 25.6876
Au 28.2097 32.392 8.33744
Pt 27.1427 24.2993 15.8547
Pt 31.8295 35.5401 19.0798
Au 30.58 22.8496 5.78079
Pt 20.56 25.1843 34.638
Pt 30.1623 20.5383 36.4637
Au 24.7852 30.6032 14.8041
Pt 21.2354 33.2396 23.0288
Pt 17.2083 11.424 29.6363
Pt 38.1958 27.4449 19.3266
Au 12.977 28.4841 14.1477
Pt 19.9533 20.4192 32.7513
Au 31.7518 40.3835 18.149
Au 16.3895 15.9404 8.97639
Au 26.1135 41.131 18.4183
Pt 20.5707 24.8966 24.2073
Pt 21.2962 36.1868 30.0455
Pt 21.0779 19.7889 25.9781
Pt 9.60795 30.676 23.193
Au 25.0583 42.9381 30.4281
Au 10.8769 34.8856 25.0262
Pt 24.5601 25.7335 34.4656
Pt 26.9296 22.0127 22.0919
Au 35.9878 38.4541 27.1626
Pt 30.8729 18.0774 36.8166
Pt 24.6311 9.91042 21.5394
Pt 22.0171 19.9617 31.2433
Pt 14.8029 20.3787 30.3359
Au 8.81132 27.3613 16.6278
Au 18.1332 30.3323 17.1693
Pt 29.5556 25.4364 17.2978
Au 20.8604 7.88215 22.4091
Pt 18.9633 12.8833 13.1722
Pt 21.2181 16.0925 12.9902
Au 13.531 17.0978 18.9532
Pt 31.3093 26.6905 34.1547
Pt 26.3913 21.6694 17.3762
Pt 28.8241 18.6743 19.505
Au 11.5843 39.4525 24.1988
Pt 32.1479 24.53 35.7652
Au 27.9514 26.9127 8.48946
Au 10.07 18.2234 31.1454
Pt 26.202 20.587 9.43515
Pt 29.3908 22.6005 21.8135
Au 7.30318 25.5413 18.0408
Pt 35.767 31.7776 24.8974
Au 13.9035 14.3975 18.3395
Pt 35.8646 16.9037 34.954
Au 18.7513 38.2256 36.2641
Au 21.3892 26.3641 6.25696
Pt 15.0018 15.9419 35.7896
Pt 30.1605 13.4874 20.2917
Pt 32.4732 24.2547 30.3806
Au 6.3458 22.4259 31.7034
Au 39.1841 16.5655 35.1559
Au 41.2657 26.385 10.1812
Pt 28.1338 26.3458 25.0197
Au 22.5235 35.0709 11.5653
Au 25.4598 34.7891 40.1672
Au 38.098 36.4901 27.3971
Pt 33.8906 32.8225 32.3549
Pt 13.4314 20.0749 26.1896
Au 39.4324 29.0824 13.7188
Au 8.93107 25.4038 29.7249
Pt 21.9983 31.9669 33.0779
Au 37.1908 13.3361 31.7802
Au 11.442 36.7752 20.2463
Au 17.3085 22.3191 15.9865
Pt 31.8442 33.5142 34.2236
Au 17.6323 21.2423 8.64168
Au 39.2368 25.0658 8.95748
Au 33.7476 11.7141 35.6813
Pt 28.9136 26.3475 32.9982
Au 14.595 34.623 35.1865
Pt 25.9032 16.1329 14.203
Pt 22.3552 29.7875 34.671
Au 5.7322 26.8636 22.9188
Au 19.6592 35.3514 22.1256
Pt 32.7746 19.9623 36.4767
Pt 25.1499 27.0614 41.0397
Pt 35.1977 20.8044 30.806
Pt 29.3182 10.9379 29.2556
Pt 29.7366 37.2078 20.2115
Au 10.3455 35.2022 22.1864
Pt 29.1262 21.3504 34.2412
Pt 30.5338 14.719 16.1727
Pt 23.6558 9.9041 18.9527
Pt 12.3743 20.4341 34.6774
Au 19.6047 42.8172 29.6846
Pt 34.6107 21.5264 13.9569
Au 23.4893 20.2464 13.2812
Pt 16.157 19.9971 36.2003
Pt 28.7029 9.24952 27.2123
Pt 28.9123 33.9376 16.1662
Pt 21.1587 31.9083 27.4365
Au 15.3766 10.7909 27.496
Pt 21.521 27.497 38.5662
Pt 14.7078 26.3831 25.9028
Pt 19.3019 9.45564 29.8259
Au 7.11186 31.7346 22.3959
Pt 22.0592 16.4689 15.9919
Pt 25.4524 28.5145 38.7605
Pt 32.4142 37.5836 17.3171
Au 38.4955 36.2198 20.6067
Pt 21.093 36.4623 27.1609
Pt 20.7141 18.8615 16.7182
Au 22.8293 41.482 25.7468
Pt 39.8151 28.1594 29.086
Au 13.0036 36.2441 26.1739
Pt 27.9143 13.2294 28.6379
Pt 16.8962 32.093 29.1446
Pt 23.8362 14.7958 34.9568
Pt 20.7356 40.4619 30.34
Pt 36.8092 20.2609 28.7127
Pt 24.2565 19.487 32.8745
Au 35.1097 33.7974 10.8036
Au 10.9407 14.2951 17.2854
Au 35.9242 13.0513 29.1736
Pt 28.0944 35.272 25.8168
Au 14.8064 36.7394 24.091
Pt 31.8064 25.1159 19.1932
Pt 37.0514 24.7833 31.2212
Pt 23.6684 14.3903 20.6225
Au 14.3545 21.2832 12.2384
Au 32.5608 37.7781 12.6829
Au 22.9615 38.2767 14.746
Au 31.0201 39.0533 33.5453
Au 6.23853 33.9533 23.7889
Pt 35.6132 23.6045 9.75184
Pt 31.3945 36.285 33.607
Pt 27.9449 13.4361 33.2154
Pt 20.0088 17.3159 26.3421
Pt 28.1346 19.7311 13.6543
Au 10.9937 17.0524 33.5771
Pt 32.582 19.5899 14.8186
Au 6.02016 24.143 20.272
Au 18.0185 28.0994 19.0575
Au 36.6499 38.0656 12.1415
Au 36.9698 34.2138 25.8056
Pt 30.7338 35.7983 16.4525
Au 34.5893 17.5113 10.9572
Pt 19.0677 24.4578 26.5712
Pt 29.551 28.6195 34.9214
Au 16.515 28.5686 8.04706
Au 29.2431 38.0294 35.298
Au 25.999 39.8162 13.9497
Au 36.8374 26.2799 8.781
Au 30.1778 9.11989 18.3322
Au 24.687 25.4278 43.1798
Pt 31.7602 27.5521 13.4604
Pt 28.5224 36.0916 14.5036
Au 7.41342 22.2516 22.0218
Au 12.9786 25.6819 14.2152
Au 31.2227 9.2836 22.3088
Pt 36.4322 34.7868 28.5038
Pt 37.4478 26.9859 14.0045
Au 23.4551 12.1506 10.7015
Pt 20.9648 22.9172 31.5361
Au 31.9867 29.2619 6.24987
Pt 18.3605 18.7636 19.5832
Au 12.4365 25.8225 39.7836
Au 29.8144 38.4085 17.7082
Au 17.7327 30.8632 14.1193
Au 23.1423 24.9837 10.3088
Au 8.89562 26.7384 36.7778
Pt 24.0327 16.6646 36.9576
Au 40.1055 25.884 22.6617
Au 19.0325 33.9105 8.75328
Au 23.7363 39.3435 37.0136
Au 6.89577 22.8534 17.8391
Au 11.4943 12.1554 26.9051
Au 39.1489 15.1032 30.7347
Au 21.397 33.2185 42.2372
Au 15.967 39.6004 17.9725
Au 12.9558 14.79 34.3338
Pt 19.4335 29.0039 25.5708
Pt 31.7924 25.9188 28.412
Pt 26.9696 10.6129 22.2868
Au 17.6832 39.9106 20.2054
Pt 32.3234 19.4473 41.0666
Au 14.7529 18.1708 16.2176
Pt 16.9477 26.8567 39.0979
Pt 21.7057 24.2542 26.4642
Au 15.6905 27.8993 23.8464
Pt 19.2805 21.8275 27.3787
Au 33.4456 39.8256 26.9802
Pt 27.4105 17.085 21.2466
Pt 22.5843 26.0241 36.2851
Au 28.2823 17.1747 12.6129
Au 42.8964 24.0392 24.7657
Pt 22.0724 36.9124 22.471
Pt 34.8518 14.494 19.4995
Pt 26.2478 11.3451 33.0154
Pt 37.3388 29.056 33.5544
Pt 19.3203 17.7802 34.468
Pt 40.9935 27.9849 18.7557
Pt 28.982 32.0771 18.2001
Au 13.5179 16.4267 21.5902
Pt 19.468 31.9225 29.2966
Pt 18.3681 15.6241 13.2521
Au 13.9728 24.2028 31.963
Pt 23.2792 24.2378 28.7264
Au 31.4043 10.9632 20.0974
Pt 14.1167 21.4527 36.7759
Au 22.9787 25.7389 13.0016
Pt 30.5319 21.3047 15.5281
Au 35.1395 23.2817 41.1294
Au 28.5479 26.4352 14.3494
Au 6.18734 21.6769 24.5082
Pt 22.5089 40.6407 28.424
Pt 27.5345 32.5822 28.1171
Pt 35.2664 33.1808 22.3671
Au 42.0052 28.0874 14.1199
Pt 10.6369 19.0852 24.3948
Pt 39.2797 29.9261 18.6193
Pt 36.1163 30.2529 27.0675
Pt 31.6356 29.5359 19.9946
Au 35.6497 14.309 33.7593
Pt 30.1761 31.3485 34.5517
Pt 23.607 28.265 27.4474
Pt 20.0002 16.2915 32.0125
Au 16.8722 8.84153 28.659
Pt 32.0347 28.8294 24.7348
Au 20.7731 25.117 8.54736
Pt 18.745 33.5565 24.1069
Pt 20.6728 15.3377 39.4402
Au 24.6233 33.2483 14.3185
Pt 27.1566 16.8596 18.3676
Pt 36.6281 29.6597 18.0956
Pt 25.5938 34.4405 30.0577
Pt 25.7202 25.7208 24.2336
Pt 23.2025 21.9547 32.6163
Au 38.5573 19.3669 16.4023
Pt 21.7059 26.3974 28.2876
Pt 30.2094 16.3832 14.2064
Pt 16.5501 29.1794 38.1582
Au 37.0588 35.8117 16.0741
Au 19.3965 25.636 21.5334
Pt 33.2005 27.1916 32.0886
Pt 29.1778 14.2844 35.2984
Au 42.0067 16.3876 27.2612
Au 27.5678 12.2039 11.8758
Au 24.9621 30.4595 7.16488
Au 42.3003 25.751 15.6744
Pt 26.783 24.8354 21.2179
Pt 15.8831 14.4458 28.9844
Au 32.0423 21.1486 7.35651
Pt 18.3904 9.06897 23.599
Pt 29.5098 33.5397 32.9039
Pt 31.0806 30.1232 22.5419
Au 14.9194 26.4553 41.1742
Pt 35.846 20.547 21.0017
Au 38.6896 35.5046 29.9435
Pt 25.3171 37.3195 26.1843
Au 20.2012 28.9007 20.6608
Pt 25.2674 12.6482 28.9003
Pt 19.5486 25.1876 32.063
Pt 38.9684 18.3356 24.1383
Au 19.8129 19.4704 8.04504
Au 14.0906 38.3754 16.2409
Pt 21.97 21.747 27.4505
Au 7.63394 31.6737 19.4498
Pt 33.3583 30.0344 31.4942
Pt 18.0464 11.6322 22.893
Au 17.4749 36.0328 23.9574
Pt 21.6804 16.3115 28.0649
Pt 16.2706 14.9202 38.2463
Pt 15.0866 15.5355 15.4056
Au 26.6334 11.2818 14.6178
Au 25.0788 10.849 12.451
Pt 24.0434 25.7304 26.6348
Pt 20.2812 22.2714 25.0808
Au 14.4358 14.6952 10.6423
Pt 30.9308 22.5652 19.4549
Pt 21.2333 19.987 18.9606
Au 31.1595 14.4321 10.0386
Pt 16.0867 16.1758 17.9309
Au 23.338 28.2971 6.03349
Pt 20.2698 11.8698 20.5041
Au 36.0841 20.721 40.5916
Au 21.2816 9.0177 14.9089
Pt 17.8321 12.4834 33.9083
Au 22.5105 26.6901 15.6311
Au 25.2888 33.3553 11.094
Au 19.5529 38.1516 31.4444
Au 37.4683 20.2121 13.7763
Au 11.9316 34.1105 17.6774
Pt 26.7859 10.9008 27.6091
Au 18.1382 30.7056 20.0001
Au 16.0516 32.2119 26.4665
Pt 35.0579 16.1278 24.704
Pt 32.8904 15.4499 38.4937
Pt 38.2948 24.4881 28.9023
Pt 35.0125 28.075 36.5144
Au 23.2908 19.8599 37.7863
Au 18.98 39.2172 23.9828
Pt 25.5126 36.2537 17.9901
Pt 26.4289 20.7361 33.8328
Pt 20.7691 29.4869 23.404
Pt 18.8177 36.5581 29.1098
Au 33.4718 14.2085 16.7564
Au 21.1774 42.9316 27.3664
Pt 35.0326 36.1039 26.1841
Pt 38.6273 21.2088 20.2171
Au 20.7369 27.9245 8.91297
Pt 26.966 14.9602 24.4182
Au 35.0571 15.9047 40.301
Pt 27.7263 19.4738 35.7876
Au 15.2223 41.1683 25.0775
Pt 37.8781 27.4616 22.3544
Au 13.3798 22.6443 14.5621
Au 11.8221 26.816 19.073
Au 11.6259 13.5258 32.3496
Au 25.5729 8.65098 17.0919
Au 30.1575 10.7116 24.4736
Pt 29.8202 24.0329 34.0224
Pt 37.2919 25.2947 18.2153
Pt 27.2929 17.9318 15.5267
Au 12.1131 37.0085 23.4933
Pt 16.9185 31.7112 34.4603
Au 14.2012 17.4157 10.4195
Pt 24.6475 33.3494 17.2878
Au 25.7521 41.9867 25.2856
Pt 22.1048 12.7043 31.5532
Pt 17.8666 25.0108 34.5292
Au 17.715 33.6137 38.8424
Au 40.5601 25.4058 25.4671
Pt 25.4573 31.8625 29.3961
Au 16.5512 31.0166 11.4241
Au 18.3971 32.9732 18.3772
Au 11.0786 23.9348 15.4004
Pt 31.6772 12.7958 25.8097
Au 31.219 41.3485 25.6626
Au 13.8391 30.2764 11.9976
Au 8.67201 36.5945 20.4461
Au 22.1707 7.53081 19.6091
Au 9.36683 16.1645 15.9451
Au 12.5452 25.622 10.3338
Au 41.7556 29.1927 22.9964
Pt 26.8076 32.1143 16.1552
Pt 33.3038 19.1871 17.3612
Pt 26.9187 24.5524 18.392
Au 25.0086 13.0605 39.9522
Pt 27.342 32.3983 33.9255
Pt 32.882 22.0112 40.4386
Pt 30.8636 35.7506 13.509
Pt 26.5174 28.0996 31.9304
Pt 25.8592 34.7881 22.2879
Pt 39.0476 23.5128 32.3763
Pt 12.543 19.0118 32.0147
Au 27.823 35.9401 36.9485
Au 9.69584 37.4065 24.839
Au 30.7955 14.0686 12.7469
Au 33.3068 13.5867 28.9056
Au 26.9182 37.4973 12.7043
Pt 37.2345 34.8819 23.0304
Pt 20.5869 35.9667 19.2934
Pt 25.9855 20.1644 23.8803
Pt 22.96 32.5676 25.6526
Au 12.1896 20.0606 28.9975
Au 27.6264 41.4834 30.7729
Pt 26.2442 25.0992 28.7821
Au 29.132 33.391 13.6194
Pt 38.405 24.31 13.4835
Au 14.741 11.7587 14.6437
Pt 14.7978 27.4861 28.5056
Pt 17.893 13.8658 18.256
Pt 27.7286 12.5471 24.0082
Pt 21.284 21.8725 37.5179
Pt 20.7297 29.2753 28.2213
Pt 34.547 29.5262 19.8476
Pt 28.7376 21.8025 38.3442
Au 39.3646 21.8571 12.5402
Au 15.706 11.12 32.5355
Au 31.1219 11.2254 36.0037
Pt 37.688 25.825 24.4977
Pt 22.9115 9.95961 23.8074
Au 13.208 19.2013 23.6665
Pt 24.4133 30.7166 17.5479
Au 27.6371 25.7085 11.1789
Au 21.9584 12.6221 24.7242
Pt 17.9743 19.1253 39.4412
Au 12.6398 27.2282 24.1904
Pt 26.8284 18.2803 10.4451
Au 18.3493 15.0959 26.8764
Au 25.5678 22.9854 7.85829
Pt 37.4346 33.1074 15.9191
Au 34.656 38.7977 13.8721
Au 37.4941 14.5863 18.723
Au 10.9682 22.3396 20.1741
Pt 21.0985 33.5014 30.9352
Au 27.5579 9.07888 32.632
Pt 29.8518 34.4972 38.2188
Au 34.9959 27.6425 39.3493
Pt 26.2322 21.2982 26.4419
Pt 19.4842 31.5538 31.9307
Au 38.3862 30.011 11.1202
Au 11.4006 33.8009 14.9743
Pt 28.6879 38.9703 22.3462
Au 36.2547 18.2484 39.3895
Pt 29.1167 16.5324 23.8962
Pt 26.4196 37.8243 21.7284
Au 21.0718 7.02542 29.7318
Au 42.1536 26.9587 29.0415
Pt 35.51 15.8854 27.3872
Pt 28.1356 24.2496 8.59589
Pt 39.339 20.724 22.7603
Pt 23.4983 20.5023 16.2103
Au 7.34693 19.1434 24.4659
Pt 22.0299 14.5574 36.9241
Pt 13.0925 22.6522 29.6062
Pt 31.7735 14.0212 35.5967
Pt 28.0903 36.4515 17.1218
Au 25.754 41.2838 32.6961
Pt 15.0094 30.6231 24.6544
Au 17.8923 17.4029 41.7058
Pt 26.2136 13.2753 35.1743
Au 12.8367 22.7943 10.2765
Pt 30.5967 35.4599 35.9925
Au 13.9755 11.5103 17.5162
Au 41.417 27.8094 31.5416
Pt 22.0552 9.87999 21.0661
Pt 27.1399 16.2549 30.8544
Pt 28.1455 21.8285 24.6512
Au 41.8517 15.9658 30.2523
Pt 24.9404 12.1018 20.0714
Pt 31.1509 32.8005 20.0485
Au 12.1939 39.2538 21.4144
Pt 22.2873 34.7453 21.0398
Au 7.61719 17.5028 17.6467
Pt 35.6232 23.3767 17.1906
Pt 35.0188 16.7641 32.3313
Au 11.2912 27.1614 12.3656
Au 15.9079 21.9075 42.0128
Pt 30.4409 28.2714 40.6878
Pt 35.7576 35.6355 20.8547
Au 23.0177 9.71324 36.0052
Pt 36.1593 13.7918 23.8566
Pt 27.3773 39.8852 28.3827
Au 39.8535 34.1223 21.7164
Pt 35.551 27.3167 23.5283
Au 29.5115 41.6427 28.8725
Pt 33.4094 34.3986 17.2861
Pt 16.7083 28.5858 26.2039
Au 34.1539 11.8936 31.0723
Pt 28.3708 20.7881 31.7007
Au 43.8839 20.5475 28.201
Au 7.87995 25.0814 22.2063
Pt 17.6066 20.5304 31.4294
Pt 26.3892 25.4056 32.2617
Pt 39.1245 23.5756 23.8007
Au 32.4563 24.6855 6.39691
Pt 38.8696 22.0047 27.8751
Au 14.0559 35.6677 16.3489
Au 32.9626 8.47364 30.28
Au 9.52223 32.5995 21.2989
Au 31.9306 37.8076 36.0691
Au 26.9034 29.9529 42.6966
Au 23.6048 19.178 6.00211
Pt 18.1727 21.2029 37.4587
Pt 38.9569 31.5197 20.7975
Pt 19.3628 33.405 33.7164
Au 26.8157 12.0773 37.7212
Pt 19.5336 13.9612 35.2813
Au 5.88659 23.2207 26.9525
Au 40.2543 24.1143 11.3388
Pt 22.7074 23.083 8.34864
Au 9.99131 31.3731 33.799
Au 16.6482 30.5021 22.5336
Au 31.7808 12.6987 14.9397
Au 12.6166 19.5574 17.4162
Au 15.8746 22.7694 10.3989
Pt 12.483 22.3903 27.0873
Pt 32.7435 32.4823 29.8397
Au 21.5255 33.0613 9.81287
Pt 29.9198 27.9299 28.8547
Au 15.4313 8.54591 25.4478
Au 35.2117 16.0486 13.361
Pt 25.2705 32.4024 24.0928
Pt 10.6048 20.5258 26.6196
Pt 24.5323 10.012 28.6895
Au 15.761 20.4675 14.6329
Pt 41.415 21.5307 28.0857
Pt 28.8752 9.68199 20.5822
Pt 32.2068 21.9709 21.9213
Au 28.1549 30.5883 23.1932
Pt 18.2678 16.5703 38.7927
Au 37.9472 24.3522 37.1675
Au 9.52259 24.3484 35.4525
Au 16.3911 6.62242 27.3084
Au 11.2449 28.1948 21.7875
Pt 10.3322 22.1378 28.7488
Au 11.0359 22.5805 33.4498
Pt 27.5753 23.0849 32.8754
Au 25.5397 8.32226 23.7069
Pt 33.5917 28.7213 22.3037
Au 11.4674 12.5736 29.7829
Au 10.3249 31.7716 18.9019
Pt 24.3791 38.9675 32.6272
Pt 37.8929 27.525 16.6591
Pt 37.5562 32.1806 28.5879
Au 9.08345 30.8551 28.101
Pt 30.2096 21.6705 40.6898
Au 12.6726 16.2247 16.5062
Au 14.5634 37.1271 13.8474
Au 18.6581 29.5004 9.50574
Au 11.752 36.6677 28.9801
Au 15.0634 39.8852 20.7022
Pt 41.1122 18.9602 27.7084
Pt 32.9821 16.9347 23.3095
Pt 30.4595 12.3681 33.744
Au 22.9024 32.4543 12.2345
Au 14.5425 21.5822 8.31604
Au 42.9109 28.1653 16.7393
Pt 26.9357 20.6074 29.2999
Au 11.086 36.2079 31.4526
Au 27.7664 7.93425 18.7186
Pt 20.416 19.3692 37.9555
Au 16.634 38.7294 14.555
Au 17.2135 34.2442 36.0382
Pt 35.6974 20.0929 15.9038
Au 12.7629 29.3516 28.8825
Au 37.4154 19.3198 18.9506
Pt 25.6003 18.6924 26.1211
Au 16.8058 38.7505 32.0983
Pt 23.7501 35.4633 15.9933
Pt 24.877 28.0189 20.334
Au 14.0363 27.2531 11.8904
Au 7.24974 24.9713 32.1186
Pt 33.1606 27.3169 19.7378
Au 34.4664 28.9983 10.9242
Pt 32.9701 28.9097 38.2241
Pt 26.3796 34.8181 15.6678
Pt 23.2941 34.8265 31.4311
Pt 22.499 12.3386 19.1353
Pt 32.6705 13.7108 20.8016
Pt 20.2347 12.5901 17.8307
Au 10.7483 17.2623 18.1059
Au 22.0168 26.8317 20.1178
Au 23.8697 31.4451 9.78971
Au 15.3489 36.6523 33.3376
Au 28.1258 35.7965 39.8827
Pt 32.0542 23.0568 14.0779
Pt 38.6101 18.6316 33.4811
Au 12.0215 18.7266 12.1701
Pt 25.0648 16.0855 26.1006
Au 14.7277 27.1977 15.9203
Pt 31.8087 33.0868 25.1256
Pt 32.3146 38.2813 29.182
Au 17.1691 32.9147 15.8326
Au 18.9607 37.4627 15.3251
Au 8.78314 27.4193 31.5315
Pt 22.7099 9.03304 26.7628
Pt 33.7628 30.3159 28.7155
Au 13.0159 35.1679 33.0036
Pt 16.5736 16.905 27.8371
Au 12.5424 30.3735 34.2286
Pt 21.9782 25.764 40.7144
Au 10.6534 15.49 30.8161
Pt 24.4202 23.2443 17.5087
Pt 34.9829 15.3626 21.9894
Au 16.5712 10.6206 16.4908
Au 26.0206 30.8356 31.8949
Pt 24.8531 16.928 19.6312