2057
Atoms. Timestep: 20160
Au 24.9908 24.6586 25.4331
Au 27.2923 24.6416 23.9804
Au 27.3587 24.6285 26.9012
Au 22.6757 24.6983 23.9486
Au 22.7376 24.6731 26.919
Pt 23.5906 26.9621 25.3595
Au 26.4271 26.9261 25.4486
Au 23.5294 22.3939 25.3121
Au 26.3906 22.3494 25.3528
Au 25.1184 23.1712 27.7298
Au 25.0265 26.0808 27.7388
Au 24.9199 23.2453 23.049
Au 24.9877 26.075 23.0885
Au 29.5888 24.6912 22.4713
Au 29.6994 24.6052 25.3392
Au 29.834 24.4616 28.1426
Pt 20.3871 24.6941 22.3429
Au 20.3542 24.6786 25.4133
Au 20.4546 24.6796 28.3902
Pt 22.1963 29.2131 25.2947
Pt 24.989 29.2532 25.3206
Au 27.7755 29.229 25.3749
Au 22.0559 20.1247 25.1434
Au 24.8868 20.0134 25.1642
Au 27.7031 20.034 25.2235
Au 25.0458 21.7627 30.0677
Au 24.9259 24.5715 30.0634
Au 25.0457 27.5425 30.0529
Au 24.869 21.8355 20.6629
Au 24.9395 24.6983 20.6472
Pt 24.9611 27.4775 20.7653
Au 27.5325 23.2814 29.3818
Au 27.3564 26.1602 29.2448
Au 27.2656 23.2629 21.5676
Au 27.2833 26.1168 21.5724
Au 22.6674 22.9882 29.1625
Au 22.6698 26.234 29.3223
Au 22.6082 23.2479 21.5
Au 22.6209 26.096 21.5208
Au 28.7789 26.9921 23.9628
Pt 28.7862 26.9101 26.9435
Au 21.2283 26.9674 23.8896
Au 21.2774 27.0283 26.8228
Pt 28.7035 22.3069 23.8463
Au 28.745 22.2498 26.7873
Au 21.1748 22.4091 23.7905
Au 21.193 22.3183 26.7622
Au 23.6239 28.406 27.6757
Pt 26.5484 28.4035 27.7388
Au 23.6051 20.8699 27.6091
Pt 26.4885 20.8454 27.6925
Au 23.5236 28.3794 23.0067
Pt 26.3865 28.3898 23.0869
Pt 23.4362 20.8799 22.8393
Au 26.2927 20.8935 22.9012
Pt 31.8527 24.6962 20.8694
Au 32.0982 24.5815 23.7361
Au 32.2445 24.4601 26.6028
Au 32.3137 24.1741 29.4376
Pt 18.093 24.7099 20.8794
Au 18.0552 24.6996 23.7977
Au 17.9925 24.6892 26.8791
Au 18.1181 24.6852 29.8107
Au 20.6974 31.4702 25.1324
Pt 23.5733 31.5526 25.1741
Pt 26.3276 31.5924 25.2222
Pt 29.0506 31.535 25.2426
Au 20.622 17.806 24.9801
Au 23.4015 17.6657 24.9681
Au 26.1834 17.6039 24.9892
Au 28.981 17.6177 25.0832
Au 24.8007 20.3024 32.3486
Au 24.3874 23.1736 32.4876
Au 24.3848 26.0008 32.3076
Au 25.0777 29.046 32.2766
Au 24.8397 20.4923 18.2546
Au 24.8742 23.2574 18.2055
Au 24.9286 26.0799 18.2567
Au 24.9874 28.8497 18.3293
Au 30.1996 22.6987 30.5095
Au 27.5135 21.4601 31.3679
Pt 31.6068 26.8716 30.5832
Pt 29.4599 25.3908 30.5645
Au 27.5971 27.8154 31.4885
Au 29.582 23.2356 20.0204
Au 27.2034 21.8362 19.1149
Au 29.625 26.1186 19.9993
Au 27.2771 24.6643 19.0918
Au 27.2763 27.4762 19.1276
Au 20.1651 22.8165 30.5123
Pt 22.34 21.5593 31.574
Au 20.289 26.4012 30.7744
Au 22.2209 24.4375 31.4053
Au 22.5054 28.027 31.6589
Au 20.3064 23.2814 19.9678
Pt 22.5148 21.8088 19.1004
Pt 20.2961 26.1077 19.9589
Au 22.5584 24.6683 19.0663
Au 22.6293 27.4961 19.1467
Au 30.1892 29.3408 23.7638
Au 31.1425 27.0199 22.3118
Au 30.247 29.0382 26.5902
Au 31.2822 26.8542 25.2026
Pt 31.302 26.7168 27.9961
Au 19.8078 29.2789 23.7622
Au 18.9281 26.978 22.2857
Pt 19.7922 29.3405 26.7026
Au 18.8572 27.0234 25.3154
Au 18.9317 27.0643 28.2598
Au 30.026 19.9611 23.6467
Au 30.9553 22.2972 22.3154
Au 30.1245 19.8483 26.5832
Au 31.0859 22.208 25.1853
Pt 31.1757 21.9703 28.0946
Au 19.6898 20.089 23.6654
Au 18.8541 22.4159 22.2549
Pt 19.6907 20.0009 26.6374
Au 18.7901 22.3487 25.2503
Au 18.8323 22.2947 28.1266
Pt 23.4814 29.9496 29.9014
Au 22.1163 30.72 27.5238
Au 26.4196 29.9609 29.9597
Au 25.044 30.7603 27.5788
Au 28.0156 30.6217 27.7829
Au 23.4633 19.423 29.9493
Au 22.0139 18.5781 27.4305
Au 26.3098 19.2727 29.8842
Au 24.9149 18.4631 27.5016
Au 27.75 18.4457 27.5216
Au 23.5084 29.8001 20.5972
Pt 22.1316 30.6919 22.8986
Au 26.405 29.7635 20.6406
Au 24.9566 30.7187 22.9119
Au 27.828 30.6935 22.934
Pt 23.3805 19.5116 20.4588
Pt 21.9733 18.636 22.682
Pt 26.2016 19.4344 20.4728
Pt 24.7795 18.5153 22.6589
Au 27.6258 18.5526 22.7045
Au 28.8764 20.6428 29.0465
Au 29.348 28.2082 29.3811
Au 28.6323 20.8747 21.3625
Au 28.7749 28.4058 21.4502
Au 21.0719 20.6573 29.0224
Au 21.151 28.6246 29.169
Au 21.1086 20.8954 21.3373
Au 21.1393 28.4352 21.3956
Pt 34.074 24.7072 19.3335
Au 34.3652 24.6741 22.0418
Pt 34.6552 24.3935 24.716
Pt 34.8502 24.168 27.3373
Pt 35.0798 23.6576 29.8735
Au 15.8049 24.6982 19.4194
Pt 15.7174 24.6903 22.2251
Au 15.6695 24.7146 25.2623
Pt 15.5978 24.6023 28.2462
Pt 15.8158 24.6402 31.0737
Au 19.1584 33.785 24.9595
Au 22.0914 33.8904 24.9862
Pt 24.9084 33.9351 25.0772
Pt 27.6499 33.9326 25.0821
Au 30.4496 33.8107 25.0584
Au 19.1211 15.5216 24.8421
Pt 21.9129 15.2847 24.8067
Pt 24.6615 15.2112 24.7469
Pt 27.4999 15.2347 24.8987
Pt 30.3514 15.2936 24.9601
Au 24.5944 18.7362 34.524
Au 23.9853 21.638 34.8481
Pt 23.9836 24.7301 34.7356
Au 23.825 27.673 34.3036
Au 24.7194 30.7641 34.3408
Au 24.7943 19.1385 15.8901
Pt 24.8481 21.8907 15.7535
Au 24.9237 24.6482 15.7753
Au 24.9053 27.4929 15.8176
Au 24.9455 30.2559 15.8996
Pt 32.797 22.5025 31.8407
Au 30.0019 20.9408 32.7305
Au 27.3853 19.7688 33.5444
Au 31.3965 24.7372 32.3405
Au 28.9971 23.4657 32.8397
Au 26.6041 22.4864 33.7523
Au 29.2902 26.3262 33.0264
Au 26.9282 24.8553 31.8959
Pt 26.5136 26.7749 33.7779
Pt 31.8313 23.2457 18.5184
Pt 29.5351 21.7891 17.6482
Pt 27.1629 20.4666 16.7051
Pt 31.8603 26.1079 18.4422
Au 29.6091 24.6491 17.5712
Au 27.2348 23.2246 16.6266
Pt 29.6121 27.497 17.5805
Au 27.266 26.0788 16.6502
Pt 27.3184 28.8768 16.6869
Pt 17.7435 22.7032 31.8079
Pt 19.9039 21.4746 32.9691
Au 22.1208 19.9423 33.7211
Pt 17.9237 26.4961 32.0066
Pt 19.6947 24.3675 32.635
Pt 21.8602 23.1212 33.8634
Pt 20.009 28.2022 32.9039
Pt 21.745 26.0135 33.4702
Pt 22.0847 29.8188 33.8543
Au 18.0121 23.2734 18.4794
Pt 20.2507 21.8868 17.5926
Pt 22.4859 20.502 16.698
Pt 18.0071 26.1405 18.4952
Pt 20.2316 24.7055 17.5507
Au 22.5278 23.2377 16.6485
Au 20.2661 27.514 17.6042
Au 22.5653 26.0804 16.6393
Au 22.5746 28.8999 16.717
Au 31.4892 31.7194 23.4574
Au 32.5181 29.4121 22.0047
Au 33.399 27.0622 20.6699
Au 31.6546 31.3423 26.2197
Au 32.7494 29.1531 24.8705
Pt 33.6807 26.8923 23.46
Au 32.8012 28.9343 27.7323
Au 33.8685 26.7247 26.1958
Au 33.9222 26.3939 28.8785
Au 18.248 31.5884 23.5883
Au 17.4219 29.3012 22.1333
Au 16.5853 27.0109 20.7846
Pt 18.2197 31.572 26.5071
Au 17.3626 29.3512 25.1241
Au 16.4735 27.0031 23.676
Au 17.3811 29.3899 28.0374
Au 16.4797 27.0317 26.682
Au 16.5395 27.0418 29.5781
Au 31.3299 17.5445 23.5022
Pt 32.3412 19.9469 22.0607
Au 33.2199 22.3196 20.788
Au 31.4241 17.3804 26.4462
Au 32.4903 19.7841 24.942
Pt 33.3884 22.1496 23.6288
Au 32.5144 19.5046 27.9387
Au 33.4377 21.94 26.5652
Pt 33.4395 21.5221 29.5089
Au 18.1911 17.7828 23.4858
Au 17.3387 20.0838 22.125
Pt 16.5497 22.3552 20.7601
Au 18.2116 17.72 26.4366
Au 17.2642 20.0133 25.0947
Au 16.4394 22.3895 23.6633
Au 17.3084 19.9752 27.9887
Au 16.3666 22.3629 26.6277
Au 16.4424 22.2725 29.4586
Au 23.2952 31.5151 32.0901
Au 21.9486 32.3202 29.7418
Au 20.579 33.0588 27.3764
Au 26.2569 31.6707 32.1724
Au 24.8122 32.4129 29.8028
Au 23.4961 33.1924 27.407
Pt 27.5862 32.5007 29.8497
Au 26.3498 33.1649 27.4607
Au 29.2032 33.0312 27.5581
Pt 23.3585 17.7645 32.0167
Au 21.9289 17.0697 29.7024
Au 20.5212 16.2179 27.2635
Au 26.1382 17.6561 32.0633
Pt 24.7916 16.8798 29.7105
Au 23.3593 16.0812 27.2323
Pt 27.6153 16.7686 29.6361
Au 26.2158 16.0213 27.2538
Pt 29.0368 16.0097 27.3252
Au 23.4937 31.23 18.1262
Au 22.0253 32.1526 20.448
Au 20.5683 33.0026 22.6689
Au 26.4002 31.2122 18.1563
Au 24.9025 32.2296 20.4003
Au 23.4609 33.0763 22.7215
Au 27.7852 32.1644 20.4787
Au 26.3165 33.0883 22.7826
Pt 29.1022 33.0662 22.7974
Au 23.3447 18.1319 18.0648
Au 21.8827 17.2407 20.3118
Pt 20.55 16.3026 22.5503
Pt 26.1905 18.0691 18.108
Pt 24.7339 17.1074 20.2889
Au 23.3028 16.2007 22.5474
Pt 27.5793 17.136 20.2781
Au 26.1265 16.1419 22.5305
Au 28.9702 16.1916 22.617
Pt 31.3046 20.1794 30.4069
Au 31.414 29.485 31.1379
Pt 30.1685 18.1205 28.826
Pt 30.572 30.5355 28.731
Au 28.7786 18.8759 31.156
Au 28.802 30.438 31.386
Pt 30.9547 20.8228 19.842
Pt 31.0803 28.4628 19.7796
Au 30.0149 18.4864 21.1651
Au 30.1473 30.7501 21.1962
Au 28.5644 19.4395 18.9388
Au 28.7237 29.8029 18.93
Pt 18.6475 20.5517 30.3899
Pt 18.738 28.7754 30.4985
Pt 19.5417 18.3768 28.8823
Pt 19.592 30.8779 28.9424
Pt 20.9655 19.201 31.2787
Pt 20.8903 30.2767 31.3932
Pt 18.8073 20.9257 19.8226
Pt 18.7868 28.455 19.7922
Pt 19.601 18.626 21.1567
Au 19.648 30.7544 21.2465
Pt 21.044 19.5146 18.9217
Au 21.1162 29.873 18.9709
Pt 36.3099 24.655 17.9009
Pt 36.6313 24.9576 20.4848
Au 36.987 24.7004 23.1034
Au 37.2103 24.1611 25.815
Pt 37.3918 23.8995 28.4631
Pt 35.6978 21.2384 30.9734
Pt 13.5123 24.796 17.9498
Au 13.3917 24.7255 20.7505
Au 13.3876 24.7283 23.6188
Pt 13.3095 24.5956 26.5919
Pt 13.225 24.5844 29.4018
Au 13.4384 24.7267 32.2058
Au 17.7488 36.1502 24.7418
Au 20.5868 36.2199 24.7765
Pt 23.4461 36.2559 24.9279
Pt 26.2578 36.2911 24.942
Au 29.0373 36.2982 24.8781
Au 31.8482 36.1823 24.9074
Pt 17.6658 13.274 24.7813
Pt 20.43 13.059 24.6958
Pt 23.1666 12.9025 24.6492
Au 26.0002 12.8741 24.6355
Au 28.848 12.9091 24.7135
Au 31.6623 12.9416 24.6737
Au 22.2932 16.0791 38.1985
Pt 26.2202 18.7769 38.0826
Au 23.4117 23.2099 37.1617
Pt 23.2996 28.4566 38.9541
Au 23.3979 29.473 36.3955
Au 24.4548 32.3266 36.5164
Au 24.7176 17.721 13.5436
Pt 24.7914 20.5556 13.4318
Pt 24.8311 23.2756 13.3759
Au 24.873 26.1067 13.3869
Pt 24.8745 28.8786 13.3952
Pt 24.9209 31.653 13.5501
Pt 34.5808 21.6417 33.5466
Au 32.3032 20.4081 34.1612
Au 29.7778 19.3316 35.0562
Au 27.2945 17.9925 35.6781
Au 33.4749 24.7225 34.3021
Pt 33.1928 27.0807 36.1614
Au 28.7232 21.8979 35.554
Au 26.2502 20.5339 36.0174
Pt 30.9707 25.8997 35.2087
Au 28.289 24.706 35.1451
Au 23.5573 26.5904 36.7876
Au 28.6155 27.5801 35.3414
Au 26.1589 25.8679 36.3254
Au 25.9471 28.5877 35.8629
Pt 34.0415 23.1731 17.0936
Au 31.7584 21.856 16.1239
Au 29.453 20.4228 15.2494
Au 27.1236 19.1249 14.3387
Au 34.0864 26.0799 16.9017
Pt 31.8593 24.6668 16.058
Au 29.5322 23.2665 15.1167
Pt 27.1384 21.9151 14.2079
Pt 31.8225 27.525 16.0461
Au 29.5524 26.0927 15.1326
Pt 27.201 24.6572 14.1543
Au 29.556 28.9063 15.1336
Au 27.2219 27.4859 14.2172
Au 27.2494 30.3241 14.3004
Pt 15.3111 22.7009 33.0321
Pt 17.5108 21.6393 34.2844
Au 19.4314 19.7196 35.1925
Au 22.0062 18.314 36.0722
Au 15.5478 26.5632 33.1538
Pt 17.2495 24.4208 33.8077
Pt 19.4336 23.2573 35.1446
Au 21.3957 21.4441 36.0834
Au 17.5694 28.3103 34.1489
Au 19.2439 26.1062 34.6108
Au 21.4879 24.8739 35.9513
Au 19.6928 29.9825 35.1058
Pt 21.2727 27.7223 35.4702
Pt 21.7712 31.6989 36.037
Au 15.6418 23.2938 16.99
Pt 17.9319 21.9005 16.0785
Au 20.1947 20.5277 15.1893
Au 22.4511 19.0858 14.3428
Pt 15.7286 26.166 17.0202
Au 17.9179 24.7475 16.0383
Au 20.1884 23.3151 15.1193
Pt 22.4827 21.9015 14.2074
Pt 17.9667 27.6015 16.1408
Au 20.2399 26.1882 15.1188
Au 22.5483 24.6948 14.1922
Pt 20.2841 28.9607 15.1842
Pt 22.5329 27.5309 14.2021
Au 22.585 30.3037 14.3581
Pt 32.9599 33.977 23.2099
Pt 33.9177 31.7332 21.7214
Pt 34.8472 29.4472 20.3698
Au 35.7327 27.1206 19.0533
Au 33.0539 33.8302 25.9296
Au 34.0591 31.6255 24.504
Au 35.0161 29.3633 23.1926
Pt 35.9426 27.1695 21.8464
Pt 34.2195 31.4855 27.3218
Pt 35.1792 29.1631 26.0404
Au 36.1666 26.87 24.6861
Au 35.3469 28.969 28.8077
Pt 36.3722 26.3946 27.4294
Au 36.328 26.2164 30.3272
Pt 16.8362 33.9278 23.3751
Au 15.959 31.6383 21.9999
Pt 15.1212 29.3289 20.5831
Pt 14.3051 27.0629 19.2695
Pt 16.7226 33.9142 26.2644
Pt 15.863 31.6895 24.961
Au 14.9615 29.3753 23.5214
Pt 14.1488 27.0713 22.0791
Pt 15.8245 31.7233 27.7782
Au 14.9413 29.43 26.4203
Au 14.0891 27.0896 25.0349
Pt 14.9678 29.5042 29.2384
Au 14.1018 26.9597 27.9382
Au 14.1166 27.0784 30.739
Pt 32.6819 15.2156 23.3768
Au 33.6122 17.562 21.9693
Pt 34.5798 19.9095 20.6065
Pt 35.498 22.3167 19.3639
Pt 32.7611 15.0052 26.3044
Au 33.7938 17.3271 24.9254
Pt 34.7814 19.8105 23.4397
Au 35.6724 22.2206 22.1759
Pt 33.8488 17.0398 27.823
Au 34.8791 19.4259 26.3839
Pt 35.6678 21.8393 25.087
Pt 34.8504 19.1103 29.3792
Au 35.7108 21.5765 28.0516
Pt 35.9355 19.336 33.1264
Pt 16.692 15.5216 23.3879
Pt 15.824 17.7457 21.9979
Pt 14.9932 20.035 20.6895
Pt 14.245 22.3769 19.3421
Pt 16.6821 15.4316 26.2382
Pt 15.7385 17.6792 24.8727
Au 14.8872 19.99 23.5208
Au 14.1094 22.3369 22.1305
Au 15.7754 17.6696 27.7274
Au 14.8156 19.9922 26.4359
Au 14.0013 22.3574 25.0389
Pt 14.8328 19.9305 29.266
Pt 13.9596 22.2891 27.9014
Au 14.0641 22.2731 30.6862
Pt 23.09 33.2318 34.2372
Au 21.8087 34.0139 31.8906
Au 20.5198 34.8214 29.5338
Au 19.1249 35.4899 27.1406
Pt 25.9622 33.3477 34.4004
Au 24.6322 34.0844 31.9874
Pt 23.4044 34.8976 29.5807
Au 22.0212 35.5952 27.2445
Pt 27.3721 34.1609 32.0249
Pt 26.1477 34.9088 29.6663
Pt 24.8451 35.6067 27.2788
Au 28.9422 34.8418 29.7647
Au 27.6405 35.5653 27.337
Au 30.5077 35.4742 27.401
Au 23.3143 16.1728 34.1227
Pt 21.8949 15.3678 31.7534
Au 20.3745 14.6404 29.4787
Pt 19.0057 13.9017 27.0873
Au 26.1347 15.9355 34.1609
Pt 24.7143 15.2227 31.8116
Au 23.2286 14.4877 29.4265
Pt 21.7817 13.6831 27.0639
Pt 27.5519 15.1498 31.7691
Au 26.0911 14.4194 29.4571
Au 24.6442 13.6256 27.0124
Pt 28.9522 14.3685 29.3927
Pt 27.5518 13.6315 27.1061
Pt 30.3367 13.6563 27.0792
Pt 23.4763 32.6608 15.752
Au 22.0143 33.5546 18.0382
Pt 20.5194 34.4568 20.2631
Pt 19.1175 35.3147 22.4336
Au 26.3593 32.6466 15.7652
Pt 24.8578 33.6823 17.967
Pt 23.4037 34.6079 20.2772
Pt 21.9538 35.3867 22.4719
Au 27.701 33.6216 18.0069
Au 26.2238 34.6523 20.2418
Au 24.8046 35.4657 22.6083
Au 29.1193 34.5589 20.3041
Au 27.664 35.4638 22.5866
Au 30.5058 35.3502 22.5876
Pt 23.261 16.6837 15.7071
Au 21.8141 15.7776 17.8732
Pt 20.4567 14.892 20.1761
Pt 19.0684 14.0511 22.4608
Au 26.143 16.6713 15.7007
Pt 24.6665 15.6582 17.8842
Au 23.2483 14.7519 20.1245
Pt 21.8344 13.8376 22.4026
Au 27.5431 15.7173 17.9303
Pt 26.0435 14.7431 20.1241
Pt 24.5845 13.7571 22.3588
Au 28.9824 14.8261 20.1526
Au 27.4175 13.7389 22.383
Au 30.3304 13.8802 22.4396
Pt 33.5947 19.7429 31.7839
Pt 33.7671 25.3442 31.4158
Au 32.5473 17.733 30.1977
Pt 33.0718 30.8317 29.5773
Pt 31.4513 15.658 28.6452
Au 31.8693 33.0348 28.3097
Au 31.2092 18.3778 32.6311
Pt 30.0704 28.8199 33.3292
Au 30.0608 16.3871 30.9346
Pt 30.2776 32.4256 30.4011
Au 28.7014 17.1913 33.3639
Au 27.4682 29.6086 33.7393
Au 33.2235 20.8237 18.3801
Au 33.3233 28.5018 18.2204
Pt 32.2989 18.4496 19.6445
Pt 32.4676 30.8222 19.53
Pt 31.3752 16.1817 20.9591
Au 31.4964 33.0914 21.0258
Pt 30.9095 19.3635 17.476
Au 31.0182 29.9008 17.3462
Pt 29.9773 17.0808 18.7299
Au 30.1052 32.1935 18.7268
Au 28.5566 18.0273 16.5388
Pt 28.7124 31.2606 16.4687
Au 16.1264 20.4283 31.751
Pt 16.3472 28.9081 31.6389
Au 17.0714 18.2781 30.2312
Pt 17.1925 31.0715 30.2106
Pt 18.0353 16.0558 28.6632
Au 18.0906 33.2373 28.6549
Au 18.5735 19.0598 32.6079
Pt 18.4865 30.5036 32.6519
Au 19.4068 16.819 31.1296
Au 19.4311 32.6086 31.0856
Au 20.9528 17.4682 33.4442
Pt 20.6485 32.07 33.5536
Au 16.4114 20.9301 18.3802
Pt 16.4959 28.4677 18.3465
Au 17.2288 18.6138 19.701
Pt 17.3087 30.7842 19.6342
Au 18.152 16.3162 21.0642
Pt 18.1725 33.0812 21.05
Au 18.725 19.5546 17.4357
Au 18.7781 29.925 17.4178
Au 19.521 17.1766 18.738
Au 19.6002 32.2249 18.8383
Pt 20.9765 18.108 16.5467
Pt 21.0982 31.296 16.5644
Au 38.5911 24.6003 16.4842
Pt 38.9151 25.0409 19.1233
Pt 39.2975 25.3267 21.7277
Au 39.3391 25.4526 24.5487
Pt 39.2146 25.5689 27.4146
Pt 39.161 25.6014 30.1542
Pt 40.3136 21.3758 30.6754
Au 11.2832 24.77 16.4458
Pt 11.07 24.7536 19.298
Au 10.9838 24.7072 22.076
Au 10.9922 24.6722 24.9206
Au 10.9178 24.6735 27.7974
Pt 10.8128 24.7498 30.633
Pt 11.1132 24.825 33.414
Pt 16.3549 38.4864 24.5207
Pt 19.1488 38.5787 24.6279
Au 21.9395 38.6038 24.7344
Au 24.7829 38.5927 24.7368
Pt 27.6018 38.7058 24.7603
Pt 30.3239 38.691 24.697
Au 33.1284 38.5588 24.6992
Pt 16.2051 11.0121 24.6756
Pt 18.9608 10.8123 24.6259
Pt 21.6797 10.6652 24.547
Pt 24.4437 10.5331 24.5153
Au 27.3178 10.4387 24.4622
Au 30.158 10.4227 24.4877
Pt 32.9591 10.52 24.4495
Au 24.6476 17.0105 36.5605
Pt 23.8772 20.325 40.2375
Pt 23.715 20.1685 37.424
Au 23.3168 25.6526 39.2848
Pt 25.3785 29.0529 40.721
Pt 22.9974 31.2541 38.5313
Pt 24.135 33.8953 38.6271
Au 24.7173 16.3809 11.2
Pt 24.7431 19.1676 11.0985
Au 24.8121 21.8818 11.0417
Au 24.8282 24.7182 11.0035
Pt 24.912 27.4907 11.0073
Pt 24.8879 30.2369 11.0583
Au 24.8863 33.0121 11.2282
Pt 33.4124 22.3499 35.925
Au 31.2302 22.9661 34.419
Pt 29.9211 21.9167 38.8586
Au 29.7413 17.4945 37.0393
Au 25.7306 21.6679 38.5628
Pt 35.3826 26.4017 33.1065
Pt 34.0679 24.6225 37.0249
Pt 30.3613 23.8387 36.8046
Au 25.929 23.2487 36.2086
Au 27.5267 18.3249 42.2382
Au 32.4459 27.2469 33.2349
Pt 30.6476 28.1424 37.0256
Au 28.6588 26.1423 37.7465
Au 25.5289 23.0651 41.5528
Au 32.0829 29.3401 35.0364
Pt 30.337 27.1266 39.6695
Pt 25.418 26.2369 41.0217
Au 28.0073 29.0401 37.6263
Au 25.8295 27.3119 38.5705
Pt 25.5086 30.187 38.1814
Au 36.2984 23.1337 15.6112
Au 34.008 21.7758 14.5656
Au 31.7316 20.3856 13.654
Pt 29.4494 19.0403 12.8328
Au 27.0796 17.6636 12.0394
Au 36.4288 26.1083 15.4654
Au 34.0843 24.5702 14.505
Pt 31.8004 23.2032 13.5135
Au 29.4777 21.8491 12.7056
Pt 27.1651 20.5111 11.8858
Pt 34.0632 27.4991 14.4643
Au 31.8344 26.0699 13.6304
Au 29.5006 24.7213 12.6592
Pt 27.1629 23.3183 11.7925
Pt 31.8048 28.9277 13.6147
Pt 29.4938 27.5114 12.6596
Pt 27.1935 26.1216 11.7645
Pt 29.5131 30.3198 12.7007
Au 27.2119 28.9174 11.7994
Pt 27.2336 31.7376 11.9557
Pt 12.8805 22.8339 34.2561
Pt 15.0462 21.6831 35.484
Pt 17.1371 20.7564 36.8157
Au 17.6303 16.5956 39.2147
Pt 18.2271 15.4108 36.7443
Au 13.1332 26.6881 34.3905
Pt 14.81 24.5144 34.9757
Pt 16.9213 23.4223 36.3997
Pt 19.1411 22.4334 37.7001
Pt 21.5203 21.4686 38.7786
Au 15.0965 28.4571 35.4488
Pt 16.768 26.1524 35.8577
Pt 18.9492 25.0864 37.1942
Pt 21.1788 24.0738 38.5141
Au 17.2397 30.1741 36.3987
Pt 18.8486 27.7992 36.7363
Pt 21.0354 26.7277 38.0735
Pt 19.3283 31.8129 37.2861
Au 20.9628 29.4917 37.5973
Pt 21.4318 33.4873 38.2271
Pt 13.3847 23.2727 15.482
Au 15.6239 21.9146 14.5838
Pt 17.8986 20.5196 13.6797
Au 20.1858 19.1135 12.777
Pt 22.4049 17.689 11.9382
Pt 13.4642 26.1444 15.5156
Pt 15.619 24.693 14.5262
Pt 17.8912 23.3017 13.587
Pt 20.2231 21.9424 12.6586
Pt 22.4638 20.5343 11.8644
Au 15.6754 27.5202 14.6119
Au 17.9434 26.126 13.6035
Au 20.2081 24.7119 12.666
Pt 22.493 23.3314 11.7665
Au 18.0173 28.9578 13.6972
Pt 20.2771 27.5209 12.6457
Pt 22.5221 26.1212 11.7898
Pt 20.2821 30.3445 12.7916
Au 22.553 28.894 11.8338
Au 22.5716 31.726 11.9911
Au 34.2233 36.4008 23.1552
Au 35.2111 34.1786 21.6548
Au 36.1828 31.915 20.2164
Pt 37.1539 29.5903 18.8816
Pt 38.1133 27.1921 17.5423
Pt 34.3933 36.38 25.9059
Pt 35.4326 34.2022 24.4117
Pt 36.4067 32.0189 22.9972
Au 37.3299 29.7442 21.6331
Pt 38.2377 27.4405 20.2846
Au 35.3834 34.1817 27.2401
Au 36.4301 31.999 25.7951
Au 37.4195 29.7968 24.4326
Au 38.3662 27.5723 23.078
Pt 36.4601 32.0664 28.7056
Au 37.4257 29.8922 27.258
Pt 38.4516 27.6856 25.9246
Pt 37.501 30.0012 30.2078
Au 38.1643 27.7543 28.812
Au 35.6802 23.6794 32.4699
Au 15.3766 36.2941 23.2309
Au 14.4911 33.9897 21.8476
Au 13.6098 31.631 20.4791
Au 12.7835 29.337 19.1295
Pt 12.0071 27.0883 17.8194
Pt 15.3262 36.282 26.0632
Au 14.3972 34.0215 24.7365
Au 13.4483 31.712 23.3867
Au 12.6005 29.3964 22.0158
Pt 11.8325 27.0808 20.6347
Pt 14.3312 34.0802 27.5514
Au 13.3972 31.7715 26.2191
Pt 12.4641 29.4647 24.849
Au 11.7272 27.1231 23.4721
Pt 13.3723 31.8144 28.994
Au 12.5196 29.3952 27.671
Au 11.6824 27.0675 26.3003
Au 12.5046 29.5253 30.5116
Au 11.6785 27.0423 29.1884
Au 11.6424 27.183 32.0267
Pt 34.0072 12.8157 23.1371
Au 34.9843 15.1302 21.8167
Au 35.915 17.5 20.4436
Au 36.9113 19.8982 19.1706
Au 37.821 22.2859 17.9548
Au 34.0055 12.6121 26.0554
Au 35.1106 14.9351 24.7398
Au 36.0817 17.375 23.3783
Au 37.1249 19.8443 22.0144
Au 38.0692 22.6584 20.7445
Pt 35.1661 14.6552 27.6371
Pt 36.2462 16.9439 26.3759
Pt 37.1913 19.482 24.8911
Au 37.9804 22.1491 23.7163
Pt 36.2324 16.6576 29.2015
Au 37.1947 18.9885 27.8363
Pt 37.924 21.5565 26.5544
Pt 37.1768 18.8417 30.6763
Au 38.0729 21.1465 29.3378
Pt 37.9478 20.9488 32.2542
Au 15.2568 13.268 23.2746
Pt 14.3366 15.5393 21.8879
Pt 13.5455 17.7477 20.5051
Au 12.7387 20.059 19.1757
Au 12.0015 22.455 17.8688
Pt 15.2372 13.1977 26.1706
Pt 14.2564 15.4441 24.7607
Pt 13.3897 17.704 23.3589
Pt 12.527 19.9907 22.01
Pt 11.7805 22.3288 20.6577
Pt 14.3049 15.3907 27.5472
Pt 13.3377 17.6458 26.1633
Au 12.4148 20.0008 24.8655
Pt 11.6731 22.3073 23.4342
Pt 13.3693 17.5905 28.9805
Au 12.3662 19.9133 27.738
Pt 11.6388 22.2921 26.3337
Au 12.4435 19.9807 30.6209
Pt 11.602 22.3095 29.0816
Au 11.6665 22.3874 31.8948
Pt 22.8705 34.7887 36.3626
Au 21.6122 35.6968 34.041
Au 20.3078 36.5539 31.7031
Au 18.9971 37.2107 29.3325
Pt 17.6946 37.8497 26.9516
Pt 25.6567 34.8454 36.6367
Pt 24.4247 35.6707 34.197
Au 23.1934 36.5701 31.7832
Pt 21.9076 37.3122 29.4433
Pt 20.585 37.945 27.1048
Pt 27.2255 35.6571 34.2725
Pt 26.0021 36.5317 31.8922
Au 24.7441 37.3227 29.5183
Pt 23.3843 37.9826 27.155
Pt 28.7514 36.4983 31.9847
Pt 27.5389 37.2842 29.597
Au 26.2036 38.0262 27.1654
Pt 30.3072 37.2208 29.6131
Au 29.0008 37.9493 27.1547
Pt 31.7593 37.8788 27.1883
Pt 20.8584 15.6699 35.6408
Au 21.8947 13.6967 33.8524
Pt 20.4113 12.9193 31.5173
Pt 18.8865 12.334 29.2455
Pt 17.524 11.6559 26.9768
Pt 26.2526 14.1672 36.1655
Pt 24.7282 13.4899 33.8902
Au 23.2004 12.7928 31.5453
Pt 21.6877 12.0019 29.1981
Pt 20.2956 11.4209 26.9314
Pt 27.5914 13.4615 33.8778
Au 26.0673 12.7303 31.6157
Au 24.5282 11.915 29.2034
Pt 23.0497 11.2697 26.875
Pt 28.9318 12.7313 31.5177
Au 27.4136 11.8984 29.2093
Au 25.9418 11.144 26.8523
Au 30.2433 11.9185 29.1427
Au 28.8062 11.1133 26.8712
Pt 31.6177 11.2104 26.8375
Pt 23.4762 34.0717 13.4328
Au 22.0077 34.9561 15.6268
Pt 20.5329 35.8467 17.8775
Pt 19.0975 36.7657 20.0796
Pt 17.7141 37.638 22.2982
Au 26.3589 34.0399 13.4129
Pt 24.8636 35.07 15.6242
Au 23.4346 35.9994 17.8846
Pt 21.9199 36.8506 20.0566
Au 20.5095 37.7219 22.3337
Pt 27.6561 35.0529 15.5876
Pt 26.2229 36.0935 17.8161
Pt 24.796 37.0336 20.0533
Au 23.3279 37.7749 22.3362
Au 29.0547 36.0049 17.8671
Pt 27.5834 37.0138 20.0978
Au 26.2038 37.8376 22.3688
Pt 30.3432 36.9895 20.1452
Pt 28.9697 37.8489 22.3985
Au 31.7477 37.7783 22.4035
Pt 23.2326 15.3378 13.3538
Pt 21.8286 14.3772 15.5131
Pt 20.3555 13.4825 17.7417
Au 18.9935 12.6193 20.0499
Au 17.5694 11.7949 22.3466
Pt 26.1183 15.243 13.3174
Pt 24.6497 14.2593 15.4771
Au 23.1904 13.294 17.6813
Pt 21.7804 12.3983 19.997
Pt 20.3769 11.5695 22.2909
Au 27.5417 14.3066 15.4811
Pt 26.0165 13.3292 17.6811
Au 24.5869 12.3124 19.9536
Pt 23.1178 11.4432 22.241
Au 29.0178 13.3928 17.692
Au 27.4206 12.3596 19.9387
Pt 25.8549 11.3063 22.2091
Au 30.3143 12.3896 19.9699
Au 28.7496 11.3094 22.1995
Au 31.5928 11.4008 22.2379
Au 36.1816 17.6037 35.3067
Au 33.9971 28.204 31.0503
Pt 34.9726 17.3242 31.5845
Au 35.2303 31.2186 30.9554
Au 33.8955 15.2947 30.0169
Pt 34.1938 33.4282 29.5453
Pt 32.6819 13.2289 28.4074
Pt 33.1144 35.5936 28.159
Pt 34.6502 19.9294 35.6312
Au 33.5536 30.3195 32.9109
Au 32.5735 15.9094 32.4215
Pt 32.7003 32.6083 31.5569
Pt 31.4216 13.9405 30.7394
Pt 31.6363 34.8711 30.2918
Pt 28.7158 15.428 35.442
Au 30.9857 31.4363 33.2911
Au 30.0472 14.7222 33.11
Pt 30.0342 34.0411 32.3293
Pt 28.6464 13.7226 37.4733
Au 28.5127 32.3663 33.8627
Pt 35.4769 20.7361 16.9292
Au 35.6566 28.5856 16.6727
Pt 34.5279 18.3647 18.178
Au 34.7712 30.9744 17.9645
Pt 33.6224 16.0602 19.4379
Au 33.7998 33.2485 19.3521
Au 32.6413 13.7982 20.8774
Au 32.7679 35.5318 20.8683
Au 33.1648 19.3787 15.9384
Au 33.3027 29.9652 15.7371
Pt 32.2616 16.9982 17.248
Pt 32.4535 32.3135 17.1059
Pt 31.3493 14.7481 18.5403
Au 31.4363 34.5953 18.5679
Pt 30.911 17.9562 15.0567
Au 31.008 31.3359 14.8641
Pt 29.9925 15.6494 16.3446
Au 30.0399 33.6749 16.3011
Pt 28.5773 16.6225 14.1615
Pt 28.738 32.7358 14.0549
Au 13.7393 20.1949 33.4104
Au 13.9003 28.9812 32.8955
Pt 14.4273 18.2414 31.5429
Au 14.7097 31.2064 31.3773
Au 15.5568 16.0115 30.0304
Au 15.6128 33.4368 29.9367
Pt 16.5568 13.8151 28.5303
Au 16.6259 35.6526 28.4225
Au 16.4017 19.1394 34.2603
Au 15.997 30.6527 33.8639
Au 18.5564 17.1106 34.7019
Au 16.9122 32.8484 32.3911
Au 17.8378 14.5393 31.01
Au 17.9206 35.0544 30.8694
Pt 17.5008 18.2106 36.9865
Pt 18.2283 32.3312 34.8277
Pt 19.5533 14.9966 33.1818
Au 19.2019 34.4216 33.2803
Pt 19.9104 17.2355 37.6398
Pt 20.3369 33.9388 35.7907
Pt 14.1234 20.8886 16.8648
Pt 14.2091 28.4902 16.856
Pt 14.8977 18.5764 18.183
Pt 15.0421 30.83 18.1301
Pt 15.7502 16.3103 19.525
Au 15.8506 33.1533 19.4688
Au 16.6299 14.0725 20.9282
Au 16.7526 35.415 20.9259
Au 16.3827 19.5206 15.9255
Au 16.436 29.9407 15.9268
Pt 17.1602 17.1952 17.266
Pt 17.2618 32.287 17.2566
Pt 18.0651 14.8806 18.6024
Pt 18.1481 34.5497 18.6785
Au 18.666 18.0975 15.0327
Au 18.7381 31.3545 14.9867
Pt 19.459 15.757 16.3163
Au 19.5691 33.6086 16.4226
Pt 20.9389 16.6736 14.1518
Au 21.0969 32.6896 14.1774
Pt 40.7192 24.0984 15.095
Pt 40.7801 23.4949 18.0319
Pt 40.8299 23.3307 20.8078
Pt 40.5288 23.2536 23.4204
Pt 41.5858 25.8172 26.0549
Pt 40.6271 28.0302 27.3714
Pt 40.5795 28.1354 30.0721
Au 37.8331 25.3269 32.5582
Au 8.9864 24.7229 14.9758
Au 8.81954 24.7373 17.8447
Pt 8.64526 24.7827 20.5991
Pt 8.60875 24.8582 23.359
Au 8.56668 24.8313 26.1418
Pt 8.54291 24.8782 29.0864
Au 8.36078 24.8918 31.8987
Au 11.8516 23.8108 38.6276
Pt 14.9508 40.6899 24.3492
Au 17.7496 40.9249 24.4223
Pt 20.5154 40.9978 24.6167
Au 23.318 41.0055 24.6239
Au 26.1506 41.0089 24.6723
Pt 28.9446 41.0893 24.6501
Au 31.6612 41.0386 24.5355
Au 34.4601 40.905 24.4519
Au 14.6538 8.73659 24.5486
Pt 17.4917 8.56492 24.4275
Au 20.1808 8.33124 24.4558
Pt 22.9858 8.31355 24.4225
Au 25.8474 8.11744 24.3627
Pt 28.7213 8.03882 24.2811
Pt 31.5294 8.14104 24.2935
Au 34.2685 8.19989 24.2265
Au 24.9265 15.0668 38.454
Pt 24.0699 17.8721 39.1468
Au 27.2753 12.942 41.7877
Pt 23.4719 22.9241 39.8392
Pt 22.9862 27.4252 41.4007
Au 24.9117 30.7232 42.8965
Au 27.4759 29.6209 42.455
Pt 25.0152 31.7774 40.2653
Pt 24.7104 15.0766 8.90424
Pt 24.7691 17.8006 8.78432
Pt 24.7838 20.549 8.6127
Au 24.7983 23.3097 8.64707
Pt 24.8654 26.1452 8.66273
Pt 24.8915 28.8761 8.68712
Pt 24.8755 31.6805 8.78602
Pt 24.8298 34.4787 9.01753
Au 36.0109 23.7486 35.1735
Pt 31.1887 21.135 36.689
Au 34.6674 23.0948 39.5053
Pt 27.9782 23.4691 37.8889
Au 33.5658 15.9532 36.2316
Pt 27.3831 16.21 37.7011
Au 36.2523 29.0528 32.4191
Au 39.6663 28.0119 35.7502
Pt 32.3232 23.0904 38.3443
Pt 32.0224 21.3228 40.2249
Pt 25.6606 24.386 38.9349
Au 30.8401 17.6479 40.7701
Pt 35.7968 26.3175 35.8003
Pt 35.2488 27.5895 37.9551
Au 32.4562 24.1703 40.9193
Pt 30.132 24.3961 39.5524
Au 25.2818 20.5117 42.6634
Pt 34.2331 29.818 36.8036
Pt 32.7027 28.3448 38.5659
Au 30.1349 25.5967 41.9874
Au 27.9004 21.1742 42.6633
Pt 31.7506 30.7574 37.346
Pt 30.0032 29.7353 39.2213
Au 27.6423 26.7828 42.6504
Pt 29.5984 30.3261 35.6242
Pt 27.8715 28.0354 40.2242
Au 27.0409 31.2668 36.0207
Pt 38.5376 22.9938 14.0987
Au 36.2652 21.7653 13.0774
Pt 33.9452 20.2918 12.0922
Pt 31.6964 19.0321 11.2542
Au 29.3382 17.6876 10.4876
Pt 27.0505 16.3187 9.68052
Au 38.9142 26.0475 14.1338
Au 36.4467 24.6079 13.0396
Pt 34.1497 23.1613 11.9361
Pt 31.821 21.7651 11.0886
Pt 29.4984 20.4856 10.3161
Au 27.0787 19.146 9.5101
Pt 36.3505 27.4477 13.0811
Au 34.1552 25.9968 12.0491
Au 31.8893 24.5833 11.1281
Au 29.5012 23.2874 10.2838
Au 27.1706 21.8982 9.42245
Au 34.0769 28.9335 12.0952
Au 31.7965 27.4497 11.1965
Pt 29.4869 26.1145 10.235
Pt 27.1943 24.7518 9.41715
Pt 31.8289 30.2913 11.2964
Au 29.5406 28.9289 10.2178
Pt 27.2448 27.4867 9.34483
Au 29.4887 31.8282 10.4067
Au 27.226 30.3632 9.39551
Pt 27.1916 33.1826 9.68123
Au 8.25701 21.447 35.488
Au 10.2825 20.014 36.7171
Au 13.3007 16.4293 36.6444
Au 15.1553 17.731 38.3466
Au 21.977 17.6845 41.2478
Pt 23.7554 15.7762 40.7427
Pt 14.3826 23.444 37.4608
Au 11.7653 26.6352 38.3097
Pt 14.7092 20.7125 38.1018
Au 16.6705 22.3312 39.0974
Au 18.9674 21.2215 40.3271
Pt 21.3803 20.3109 41.1168
Pt 11.4801 29.1221 34.0904
Pt 14.2746 26.3021 37.0415
Au 16.4262 25.1442 38.501
Pt 20.8163 25.7579 40.6609
Pt 20.9625 23.0318 40.9709
Pt 13.9556 28.1722 38.9195
Au 16.3835 27.9108 37.9518
Pt 18.5637 26.8038 39.3494
Au 22.8715 26.3568 43.8562
Au 16.7062 32.0526 38.6738
Au 18.4805 29.6118 38.8133
Au 20.7389 28.4477 40.1928
Pt 20.577 31.2394 39.702
Au 22.5846 29.1297 43.5336
Pt 22.5572 32.8786 40.6516
Au 11.1015 23.2845 13.9078
Pt 13.3618 21.9222 13.0335
Au 15.5939 20.4938 12.2244
Au 17.8448 19.0901 11.3083
Pt 20.1711 17.6739 10.401
Pt 22.3932 16.3245 9.58167
Pt 11.1914 26.1773 14.0356
Au 13.3364 24.6883 12.9804
Pt 15.6111 23.3199 12.0724
Au 17.8827 21.9173 11.1826
Au 20.1065 20.508 10.2562
Au 22.4252 19.1648 9.47606
Au 13.3002 27.5625 13.0928
Au 15.6211 26.1062 12.0921
Pt 17.8885 24.6916 11.1597
Pt 20.1667 23.3686 10.2461
Pt 22.4591 21.9222 9.46044
Au 15.6615 28.9809 12.1576
Au 17.9064 27.5253 11.1251
Au 20.1807 26.1035 10.2167
Pt 22.4264 24.75 9.37588
Au 17.9025 30.3582 11.297
Au 20.1859 28.9769 10.2497
Pt 22.578 27.4737 9.4418
Au 20.2487 31.8343 10.4038
Au 22.5284 30.3504 9.4306
Pt 22.5406 33.1331 9.64559
Au 35.6232 38.8269 22.9921
Au 38.7343 36.8283 19.9282
Pt 37.4816 34.385 20.1391
Au 40.9239 32.5169 19.9643
Pt 39.2942 29.9596 17.4017
Pt 40.2207 28.0122 15.9913
Au 35.6988 38.7899 25.8668
Au 37.7831 39.0512 21.3672
Pt 37.7321 34.4589 22.9503
Au 41.8417 30.2847 18.5492
Pt 40.6192 27.8813 21.5802
Pt 41.381 25.7513 19.9971
Pt 36.677 36.7059 27.2639
Pt 36.7629 36.6407 24.3746
Pt 38.8223 32.3208 24.3352
Pt 39.842 30.1477 22.9569
Au 41.7669 25.655 22.9518
Au 37.7093 34.5365 28.6755
Au 37.7687 34.5136 25.7869
Au 41.1697 32.6311 22.9383
Au 43.1343 28.1259 22.8361
Pt 38.7346 32.4426 30.1389
Pt 38.782 32.3986 27.1876
Au 39.8743 30.1498 25.7377
Pt 39.7513 30.3847 31.5455
Au 39.7422 30.3055 28.661
Pt 38.542 27.8118 31.677
Pt 13.9478 38.6212 22.9362
Au 13.0319 36.3636 21.6712
Au 12.1487 33.9764 20.3637
Au 11.222 31.674 18.9912
Pt 10.3798 29.3366 17.6945
Pt 9.75146 27.0723 16.379
Au 13.8998 38.5726 25.8489
Pt 12.9128 36.3606 24.5148
Au 11.9202 34.0626 23.1901
Pt 11.0197 31.7038 21.8902
Au 10.2439 29.4208 20.4943
Pt 9.55105 27.1065 19.177
Pt 12.8818 36.4046 27.3194
Au 11.854 34.1617 25.9927
Au 10.8952 31.805 24.6847
Pt 10.0873 29.4816 23.3579
Pt 9.45554 27.1539 21.956
Au 11.8889 34.1416 28.7947