2057
Atoms. Timestep: 21190
Au 20.3048 29.6376 7.21897
Au 33.4186 11.4055 36.7684
Au 23.9516 15.8331 32.3603
Au 26.0658 14.5317 31.2895
Au 22.8101 24.5482 23.3521
Pt 25.3744 31.0547 34.2539
Au 26.1236 23.3122 11.0579
Au 21.6124 25.1811 13.1891
Au 21.3881 25.5975 17.897
Au 35.7944 34.3613 15.3877
Au 29.5072 19.5971 19.2868
Au 23.63 25.3187 6.52803
Au 26.4775 14.8626 28.6043
Au 29.9267 35.4672 12.1364
Au 20.3389 23.8362 24.2213
Au 17.8685 40.7563 25.2951
Pt 14.2677 17.101 14.7426
Au 31.5944 25.9173 15.8601
Au 22.3577 21.203 19.0548
Pt 21.1178 34.0546 25.7504
Pt 28.5573 37.7965 20.7266
Au 29.7353 13.7322 37.0779
Au 21.1358 32.264 14.6355
Au 26.544 31.9256 13.6701
Au 28.2021 10.3911 32.4686
Au 18.9555 12.5205 38.4052
Au 18.3865 25.9992 14.7949
Au 20.0773 26.1123 29.563
Au 20.4191 40.6186 27.2215
Au 21.3479 28.438 17.4337
Pt 23.0833 41.0298 30.2523
Au 18.6033 31.8449 7.7549
Au 24.6084 7.94537 33.5319
Au 11.294 34.6941 20.1339
Au 29.7921 23.1942 20.3153
Au 24.7939 27.7441 6.06158
Au 27.5957 26.9116 12.702
Au 15.4583 25.9721 10.9234
Au 24.178 41.1639 14.8927
Au 29.9786 11.7698 28.4235
Pt 38.3027 34.4319 23.2983
Au 22.7834 31.027 16.5189
Au 24.2745 17.3409 29.927
Pt 37.6957 29.8785 28.4094
Au 22.9985 23.054 25.906
Au 11.3775 34.0104 17.0653
Au 22.2224 40.4216 13.0914
Au 27.2821 31.174 18.4606
Pt 26.3926 34.8786 36.9862
Au 35.0061 6.53386 23.2509
Pt 21.5012 15.4312 20.9456
Au 26.6876 41.8128 19.1949
Pt 13.1342 34.3943 27.5593
Pt 9.96411 23.4274 18.0061
Au 25.0306 25.2925 21.7993
Pt 34.7121 17.5342 24.239
Au 16.3552 41.6513 18.1124
Au 28.2158 28.3444 10.386
Au 32.9137 32.3812 10.717
Pt 19.0587 36.9717 13.486
Au 27.7406 29.5758 14.2308
Au 22.4657 33.793 16.7114
Au 20.8833 27.5176 19.987
Au 14.9209 30.8515 11.0695
Pt 13.0834 29.6556 25.0288
Pt 19.4073 35.6002 29.8083
Pt 12.183 17.6 26.5861
Au 30.6241 5.93985 24.7178
Au 15.9249 14.4403 11.3314
Au 13.5729 39.2556 22.5639
Au 26.322 16.7514 7.66587
Au 25.6815 15.6377 24.492
Au 26.3173 26.3668 17.3919
Au 29.42 27.0938 8.33102
Au 20.3342 10.7927 36.5788
Au 40.6054 26.7139 16.1496
Au 13.6151 39.4081 27.5314
Au 31.5941 25.5741 8.94739
Au 16.6427 41.093 15.3055
Au 29.488 8.12328 30.989
Au 21.5741 29.4928 14.4727
Pt 31.088 34.2219 27.6162
Pt 33.412 24.8007 28.5151
Au 18.8174 41.9429 16.5455
Au 17.74 26.9242 12.1742
Au 37.3142 23.9434 12.0364
Au 20.6268 27.0711 25.0233
Au 20.9229 35.0057 14.3901
Au 39.3736 27.9132 13.9532
Au 22.5892 34.6221 7.82397
Pt 9.55817 18.7346 28.7274
Au 24.4712 32.1843 18.2934
Au 29.3719 25.9408 19.498
Au 23.805 28.5201 16.3193
Au 23.1013 39.5774 16.8877
Pt 22.9848 18.7367 12.1769
Pt 11.6722 31.0838 23.2715
Au 13.1579 37.143 13.6263
Au 19.8962 16.4585 34.726
Au 22.4447 29.3582 25.3476
Au 26.6531 38.5727 13.9056
Au 29.46 7.97154 28.18
Au 24.8621 22.8535 6.65005
Pt 28.3077 18.4298 17.0435
Au 17.334 35.1575 12.0563
Au 15.6187 33.4143 10.3507
Pt 27.4423 29.3593 33.7414
Au 15.8616 26.8066 26.363
Au 5.85999 24.0017 20.2814
Au 25.0324 9.18252 28.9449
Au 21.8192 25.7222 8.69888
Au 21.8186 36.62 21.3771
Au 13.2648 14.7808 27.8781
Pt 29.1468 18.3416 28.5721
Au 23.4318 28.9958 11.3349
Au 24.0136 27.4822 8.567
Pt 13.0829 24.4702 35.7018
Au 27.8961 31.105 10.9652
Au 7.21211 32.2189 24.6734
Pt 12.4267 33.3753 24.5535
Au 9.96651 29.9815 13.5321
Au 23.9713 22.6013 21.2471
Au 22.7964 31.856 20.9154
Au 18.494 26.5816 27.3552
Au 25.3211 33.5638 20.542
Au 17.2974 23.6093 15.6974
Au 27.2561 12.1661 27.7449
Au 19.7023 33.6364 16.7522
Au 23.162 7.7094 17.962
Au 12.0642 35.6915 29.823
Pt 26.0134 32.8308 32.5181
Au 23.2066 19.3102 9.39298
Au 20.1073 39.1039 12.0786
Au 31.4858 24.3544 18.2063
Pt 19.2281 35.2305 24.1625
Pt 36.4486 22.2282 22.6217
Pt 34.0126 28.78 24.3115
Pt 21.9734 11.9036 23.2448
Au 15.694 37.3233 12.5261
Au 17.3452 30.7266 22.9576
Au 20.5502 13.7095 25.0653
Au 39.1701 30.5357 17.9298
Au 25.1252 22.8794 23.7986
Au 6.46361 25.23 17.7332
Au 24.0315 19.9108 23.6071
Au 20.1905 41.2636 20.706
Au 23.2057 37.3006 19.1007
Pt 36.9345 21.8066 19.7448
Au 25.2788 34.7532 7.64824
Pt 33.42 20.5449 16.9994
Pt 32.5713 31.8422 27.4687
Pt 25.8664 25.973 36.0409
Au 28.7654 39.6796 15.3302
Pt 8.39984 24.9265 19.6706
Au 26.1632 36.8897 19.5255
Pt 21.412 25.3841 38.7065
Pt 23.8465 24.136 35.5481
Au 10.6311 34.7346 26.5265
Au 24.5358 18.6621 6.86525
Pt 25.861 40.2488 30.4666
Pt 36.4061 30.9341 32.837
Au 28.6644 34.6446 16.2641
Au 15.3241 28.1132 23.8197
Pt 16.0576 13.8021 18.6039
Pt 12.7447 22.2174 21.679
Pt 35.1596 24.0776 30.4332
Pt 25.414 11.9027 35.7061
Au 26.8822 11.8327 25.0129
Au 23.8879 25.7364 15.978
Pt 27.3747 19.7626 27.0549
Au 25.7623 6.58579 25.2793
Au 27.0622 25.2932 14.9593
Au 25.0458 14.8784 9.8008
Pt 30.6931 17.5222 20.5341
Au 15.8843 32.5872 15.4049
Au 28.2643 34.0227 13.6979
Au 17.495 39.2279 13.3281
Pt 30.6285 14.9659 24.339
Au 22.0635 17.8505 28.0598
Au 19.0823 36.1081 21.5324
Au 38.6939 10.0733 21.9831
Au 25.2174 21.202 25.9593
Au 20.8296 25.0108 6.34483
Au 9.59907 27.358 14.253
Au 31.414 21.0288 41.7223
Pt 30.7236 35.2134 25.1928
Pt 32.2237 16.8153 22.6998
Pt 31.734 19.8982 21.1915
Pt 33.3914 8.7125 22.8627
Pt 33.7584 24.5523 16.5621
Au 25.7131 30.6371 16.1604
Au 41.1709 19.9037 20.9241
Pt 34.4945 31.3499 25.5723
Au 19.4154 40.9581 14.0096
Pt 29.7099 15.5974 21.9654
Pt 9.62465 27.2284 31.9556
Pt 17.3894 20.8163 38.8908
Au 30.5429 21.7701 12.7177
Pt 16.0885 23.6911 35.1936
Pt 25.9264 30.1924 37.8574
Pt 17.2701 27.7332 36.1489
Pt 23.9575 26.5554 34.1167
Pt 20.6775 27.959 34.5353
Pt 23.0475 32.6307 34.9543
Au 8.56388 33.8155 17.2553
Pt 25.6613 22.82 13.8218
Pt 14.9659 18.7054 16.6835
Pt 17.6317 19.4052 10.7791
Pt 27.591 17.9396 14.4895
Au 19.4021 29.7604 19.1542
Au 11.7325 27.8445 12.7488
Au 7.27619 22.6486 18.3475
Au 11.1862 36.557 15.7574
Au 34.1975 14.9867 9.95672
Au 24.7718 24.5672 19.1483
Au 27.9592 41.7999 16.8193
Au 20.3955 36.3341 39.2058
Au 16.0486 39.0763 17.2237
Pt 33.1139 20.5265 28.2883
Au 25.5944 29.7075 9.48897
Au 26.3664 20.7545 22.2808
Au 29.3904 22.1746 17.5969
Au 15.9232 12.633 13.6486
Au 13.3055 38.9535 18.1597
Au 29.1673 32.4948 8.635
Pt 10.5038 23.2153 25.9799
Au 24.5526 24.6677 9.09661
Au 27.9902 20.577 9.97238
Au 16.1775 39.8665 22.8845
Au 22.907 29.7909 19.1572
Au 19.2717 8.74207 24.9647
Au 27.829 14.3971 26.0919
Pt 24.9408 14.229 17.275
Au 24.6603 37.0085 12.2836
Au 22.9833 26.1656 11.082
Au 24.2057 30.0807 13.8926
Pt 25.4258 23.9059 26.8016
Au 28.139 25.9041 22.3752
Au 22.4858 8.25016 32.0307
Pt 25.1131 25.5311 29.1068
Au 40.025 33.1364 21.6446
Au 23.1072 17.0583 24.909
Pt 21.5384 20.155 21.3672
Au 31.1018 37.2792 10.5456
Au 6.1601 26.7817 19.8506
Au 31.6524 33.2183 13.2947
Au 20.8901 27.8462 12.2833
Au 18.9347 33.6261 19.4666
Au 14.1456 35.2307 11.8095
Au 34.356 33.3622 12.8852
Au 23.6435 26.9762 18.5876
Au 22.5987 34.3324 19.6376
Au 29.9707 7.28719 20.2883
Au 23.3769 12.853 31.61
Au 21.811 29.3062 21.9189
Pt 28.257 33.7516 27.7082
Au 27.6224 29.5412 21.7877
Au 18.3376 14.2525 34.0852
Pt 30.9983 30.5133 30.8215
Au 32.56 14.0342 36.8862
Au 26.045 39.9882 16.3808
Au 16.7732 7.80422 24.5845
Pt 37.4755 22.6871 27.158
Au 21.2345 14.0282 30.3079
Pt 33.0342 21.7143 10.6875
Au 33.0775 6.98405 24.9652
Pt 14.2292 12.1432 19.8068
Au 9.65936 18.8627 15.7824
Au 26.7474 27.672 7.98051
Au 25.0797 43.7366 20.19
Au 16.94 34.0574 8.05462
Au 18.9723 28.6023 14.3145
Au 13.9616 32.7702 12.9413
Au 27.1754 14.2225 8.35232
Au 12.4889 38.7132 25.1783
Pt 23.6448 34.4139 37.067
Au 8.71542 21.3072 16.4606
Au 23.0183 27.2682 23.3651
Pt 23.205 12.326 18.9057
Pt 27.4295 8.60634 19.8915
Pt 22.8668 17.7742 22.1892
Au 33.3943 29.6928 9.91607
Pt 32.8748 16.0664 20.1716
Au 22.4894 25.3983 20.6403
Au 18.4672 15.1497 39.2098
Pt 32.3588 18.5013 37.7391
Au 30.4018 11.9624 33.2545
Pt 32.8553 12.8455 34.4441
Pt 27.4966 26.7959 29.0076
Au 23.8497 8.29039 23.5355
Au 22.6079 19.6747 26.0406
Pt 26.7628 42.2881 21.9971
Pt 33.6859 28.8668 21.5164
Au 24.3348 21.8459 9.20028
Au 24.3293 30.1477 23.23
Au 27.8941 12.5082 30.5147
Au 16.7162 32.4822 12.6692
Pt 9.41911 16.3678 24.3348
Pt 22.1772 22.9777 37.5753
Pt 12.4313 22.656 18.8638
Pt 18.9352 31.4686 33.8544
Pt 11.2123 15.8862 19.0484
Pt 20.0402 21.8274 36.1298
Pt 25.0342 17.1197 19.9584
Pt 22.0483 34.011 30.2992
Pt 18.9848 21.714 14.2359
Au 14.9123 40.1409 30.386
Pt 12.4911 24.8589 22.3914
Au 34.789 30.7081 12.0636
Pt 21.873 17.0051 10.357
Pt 40.1272 23.5968 31.0923
Au 24.3317 19.7681 20.7171
Au 23.803 14.7585 29.4703
Pt 31.7545 22.3125 22.3774
Pt 23.2831 18.5681 39.3275
Pt 16.3856 16.0465 20.2039
Au 23.8382 32.7229 14.3236
Au 21.8912 37.0637 12.7857
Pt 12.0324 24.6673 27.9264
Pt 14.0773 22.1562 34.6236
Au 11.3867 11.7607 17.4459
Au 25.5991 26.9421 10.7187
Au 15.3392 35.0242 14.2286
Pt 14.7616 35.8444 29.2224
Pt 26.0944 38.5852 34.8572
Au 18.5278 39.2014 15.9528
Au 30.3985 40.6638 17.3557
Pt 34.3875 10.1338 20.699
Pt 18.5617 15.1325 24.2361
Pt 12.1813 15.3969 21.4107
Au 12.1878 13.9501 30.3819
Au 27.7634 6.02642 27.1784
Au 20.3548 26.1564 22.4569
Au 21.2294 7.54698 26.5997
Pt 33.2101 32.7608 34.2727
Au 31.2213 25.1931 40.9374
Pt 20.9689 29.9808 32.6485
Au 29.2255 20.9062 21.9825
Au 27.2093 7.22843 29.6428
Au 30.8185 11.2675 35.8131
Pt 17.7171 12.4766 25.666
Pt 28.0798 8.23166 22.3388
Au 21.5395 41.3983 15.5151
Pt 32.5425 10.7422 18.7196
Pt 33.5626 9.78096 25.3146
Pt 25.8864 24.3706 33.578
Au 28.2606 13.4874 39.4266
Au 28.5107 15.9849 30.4431
Au 18.678 25.2721 17.5183
Au 28.9103 10.1724 26.5789
Pt 23.8841 24.7335 40.6086
Au 19.4081 24.9392 20.1736
Au 31.7432 21.5632 19.0786
Pt 32.4442 23.3853 36.8332
Au 22.3527 15.031 26.9416
Au 18.2268 25.4651 24.7753
Au 31.9161 30.4197 12.2938
Au 23.136 36.815 38.4947
Au 23.1945 14.275 24.1255
Pt 38.3354 24.0911 19.1545
Au 25.9421 19.0895 9.14104
Au 23.7547 10.6789 33.3694
Au 26.4849 20.6348 6.99798
Au 42.4752 29.0599 20.7571
Pt 30.2015 17.6932 15.1518
Au 18.0093 37.7202 11.0426
Pt 32.3194 16.9579 10.5625
Pt 32.7359 34.5938 20.2025
Au 19.697 30.3884 12.3736
Pt 29.5581 27.4683 27.1402
Au 27.5814 22.9406 6.00237
Au 33.2181 31.2378 14.5763
Au 15.135 39.6923 20.0352
Pt 28.4631 21.0173 37.1142
Pt 9.31578 24.9545 27.6076
Au 28.3765 16.6413 24.1643
Au 20.4976 12.6426 34.5535
Au 16.098 13.4658 27.8477
Pt 10.0292 32.6897 21.673
Pt 19.3777 14.4314 36.5934
Au 24.204 28.1005 20.9995
Au 19.929 31.3596 21.4048
Au 15.7728 21.269 10.0576
Au 19.0448 24.1006 12.8198
Au 26.6797 26.2189 43.2474
Pt 19.1423 29.5531 36.2136
Pt 15.588 23.8442 30.8755
Au 9.79869 36.0198 18.2517
Pt 23.4056 31.3073 32.5509
Au 31.699 22.4761 15.8353
Au 24.1764 32.37 7.24817
Pt 15.1556 37.2632 21.5809
Au 38.3076 25.2313 16.6007
Au 33.3083 39.4326 20.7061
Pt 24.024 19.3188 18.0032
Pt 14.5859 29.3087 27.385
Au 26.3875 25.1885 6.98764
Au 17.5145 26.2275 9.26296
Pt 26.0804 27.6379 22.8384
Pt 20.9692 19.9379 13.4246
Au 40.2352 22.2451 35.5007
Pt 35.3699 20.0896 23.7858
Pt 19.2296 38.3044 25.745
Pt 29.5024 19.2364 12.7598
Au 21.2196 23.5181 10.4724
Au 25.3625 30.728 20.6772
Au 20.4028 23.9311 15.5901
Au 28.8526 36.1197 18.5725
Pt 30.4895 33.4521 20.8057
Pt 34.2029 26.1094 24.0914
Pt 34.8882 17.2367 34.0364
Au 18.4605 40.1092 18.6594
Au 30.4615 13.4034 30.7779
Pt 37.658 16.5543 30.9235
Au 29.333 27.1279 14.8847
Pt 14.0235 35.0208 20.159
Au 12.9782 32.7241 18.9374
Pt 10.6513 23.5791 20.6259
Pt 9.24549 29.7474 27.9285
Pt 9.42397 21.1051 19.2597
Pt 12.5552 27.2144 17.9823
Au 23.9764 33.2901 22.9383
Pt 15.5628 19.0617 13.0682
Pt 14.525 20.1096 20.9153
Au 18.5143 33.5176 10.0828
Au 19.578 19.1542 15.5688
Pt 11.628 32.2069 27.0208
Au 29.9391 27.8684 21.4633
Au 20.3487 22.9967 18.3736
Pt 31.0385 11.2288 16.5826
Au 20.1036 38.4218 20.2751
Pt 20.4537 19.1574 10.8075
Pt 33.6398 28.2252 12.4222
Pt 32.602 19.1077 34.9469
Au 29.195 15.9864 8.33859
Pt 29.754 10.0806 21.2567
Au 23.6491 45.0132 24.6481
Pt 34.5918 12.0866 30.1726
Au 13.5502 25.6769 12.806
Pt 39.4237 18.5857 25.9611
Pt 29.6976 18.6358 25.8613
Au 20.896 33.9164 21.8768
Pt 26.4063 9.15883 24.3105
Pt 27.3345 11.2371 22.3038
Pt 22.3717 20.5943 41.4024
Pt 23.3255 23.6926 33.0271
Pt 7.75386 20.4082 22.6615
Pt 23.0389 13.251 21.308
Pt 18.2003 17.7917 27.5717
Au 5.0904 16.7081 22.4043
Au 17.9744 10.1139 16.4054
Au 18.4053 31.5908 14.581
Au 10.1067 24.011 35.45
Au 6.73517 15.6513 24.3455
Pt 7.93905 20.5405 27.3035
Pt 15.0683 23.8086 37.5967
Au 26.9181 15.7987 21.7105
Pt 19.4505 27.6193 31.9873
Au 27.8345 28.7329 16.7653
Au 19.9329 30.585 16.5455
Au 18.1401 23.8766 22.4766
Pt 28.4506 25.7723 36.9792
Au 17.6698 31.8281 17.4935
Pt 20.8056 35.3109 32.2525
Au 5.14131 23.5185 25.0918
Pt 31.1381 20.985 37.4907
Pt 26.5479 24.1414 41.1711
Pt 23.3875 29.6086 30.5851
Au 20.6708 38.6694 17.6594
Au 30.4851 27.7935 17.5614
Au 24.5624 35.0643 17.8954
Au 12.4893 30.4204 12.2762
Pt 13.3155 13.6835 25.2484
Au 22.7787 7.54135 28.9684
Pt 16.5517 11.085 18.8264
Au 32.9022 10.2179 34.1575
Pt 19.1231 19.3213 25.4951
Au 35.9409 12.1075 15.9207
Pt 27.2891 11.9009 12.7211
Pt 19.2035 19.7171 37.3072
Au 23.0168 10.288 30.3393
Au 19.8674 34.2502 7.75846
Pt 34.7901 14.5804 28.9522
Pt 34.3812 35.2881 24.339
Pt 24.1826 18.5994 32.3675
Pt 29.9614 36.8228 29.4586
Au 21.0996 44.3403 23.9571
Pt 16.6859 32.9672 24.4792
Pt 11.8065 30.8261 20.5633
Au 16.5353 29.2299 18.4363
Pt 22.5815 39.3244 26.2605
Pt 14.7396 34.6135 24.7604
Pt 18.8538 25.9273 39.327
Au 25.6037 28.9473 18.5261
Au 18.7378 42.8785 19.1156
Au 18.0218 37.2971 18.2974
Au 25.7455 23.5234 16.5864
Au 25.0557 25.3929 13.0693
Au 21.4606 32.1054 7.39328
Pt 17.4742 19.2082 17.384
Au 24.9419 13.7211 26.5055
Pt 25.9107 11.8219 18.0398
Pt 15.6001 18.3519 19.2199
Au 39.7379 14.2896 18.817
Pt 20.7396 13.6129 19.003
Au 17.3448 31.3148 20.276
Pt 17.3213 16.4625 29.9363
Au 24.2559 39.0882 37.2971
Pt 26.3154 16.4652 17.7661
Pt 29.6967 12.4364 25.1515
Au 19.9841 11.0405 26.4326
Au 36.1032 35.5076 22.2665
Au 31.6782 28.4915 8.09003
Pt 28.3389 24.7775 34.4349
Pt 35.9888 25.2663 28.1657
Au 32.2273 28.5487 14.7242
Pt 26.5925 34.6985 22.9012
Pt 30.6617 25.2306 38.1856
Au 19.2092 12.751 31.9049
Au 37.423 26.243 38.5292
Pt 29.7685 25.921 32.3058
Au 22.5037 9.45044 15.8287
Pt 36.6419 28.915 34.5367
Au 32.2974 6.27328 22.1031
Au 27.9504 13.9093 23.4657
Au 8.14958 24.0282 15.9768
Au 21.7895 44.2112 27.0198
Pt 37.8216 20.1708 27.6238
Pt 36.2009 23.8745 17.6103
Pt 31.1232 15.6404 29.2361
Au 21.0625 26.7609 15.3264
Pt 30.4745 14.8661 19.4219
Au 40.2631 22.2357 19.8589
Pt 16.4522 24.8482 20.2287
Au 25.0852 21.8005 18.7847
Au 20.5442 22.0125 42.7357
Pt 25.0824 18.3233 13.5555
Au 17.3532 26.5088 22.3585
Pt 25.2795 37.5917 29.7009
Au 39.4196 15.2732 16.2075
Pt 10.4725 19.5954 26.1364
Pt 17.4108 19.5117 31.8284
Au 33.7367 35.8043 13.8417
Au 16.0012 31.441 8.48085
Pt 22.0294 42.1223 22.6072
Au 20.0877 16.0467 28.718
Au 24.5996 19.3251 27.9624
Au 18.2636 13.9395 29.5553
Pt 25.7791 35.4192 31.4651
Au 22.9794 23.3707 17.4151
Pt 11.8315 13.3672 19.7646
Au 23.9464 8.416 26.395
Pt 18.578 34.1458 33.1021
Au 28.0101 18.4357 21.4339
Pt 14.6005 31.32 20.725
Au 12.5154 26.8973 15.2388
Au 17.82 38.4386 34.852
Au 20.6442 37.7057 9.83123
Au 14.9448 39.1354 14.4959
Pt 27.4952 14.3463 13.792
Pt 27.0691 18.6937 11.8224
Au 38.3824 35.3827 20.6375
Pt 27.8476 19.2701 24.1637
Pt 34.6028 23.7305 11.9442
Au 20.3129 23.1972 29.516
Pt 32.114 26.7006 19.9044
Pt 37.4871 26.7503 33.3346
Pt 33.2308 29.626 29.6659
Au 14.3154 28.304 12.0735
Pt 15.3851 33.5248 21.9548
Au 18.1078 34.4283 14.584
Au 22.5604 7.83487 20.8918
Au 19.6944 33.1621 12.5013
Pt 8.83256 20.61 30.2399
Pt 7.99043 22.826 28.6764
Pt 13.491 29.3806 22.1534
Pt 21.1459 17.2002 13.0548
Au 31.6759 41.2856 27.9658
Au 30.3688 34.8968 9.43893
Pt 28.6706 31.6827 30.7605
Pt 29.3273 41.8456 26.4743
Au 39.6204 30.9007 32.6201
Pt 12.9747 16.0985 16.9653
Pt 16.039 11.2308 21.4592
Pt 21.9766 20.2665 32.7452
Pt 30.4799 13.9679 16.755
Au 31.8653 8.4341 17.2181
Au 32.0798 11.2011 12.1744
Pt 36.8359 14.6667 15.4823
Au 25.0517 21.9786 28.793
Pt 34.1187 20.0521 32.9766
Pt 25.442 22.9609 38.9017
Au 20.641 21.5972 25.8772
Pt 40.4233 25.2687 29.0144
Pt 33.4527 35.398 26.9025
Pt 25.5256 28.2324 29.7931
Au 18.2052 21.5596 8.95229
Pt 22.6062 12.6845 12.1286
Au 17.424 23.7238 10.6017
Au 35.9388 19.2946 9.40446
Pt 33.1695 24.4079 13.971
Pt 24.2486 38.6122 21.5187
Au 39.0582 33.0706 19.0854
Pt 18.9265 22.0758 40.6049
Au 14.7851 31.1285 17.5604
Pt 35.526 18.4519 31.4002
Au 29.2486 5.76602 22.4053
Au 27.427 24.0417 18.8596
Pt 33.0096 23.6415 32.2132
Pt 26.3521 25.3738 38.5621
Pt 32.6071 37.4879 31.3967
Au 19.7659 20.1076 19.0232
Au 39.3576 13.5965 33.5132
Au 17.9698 28.2335 24.687
Pt 27.7145 28.3244 36.4025
Au 21.5122 21.3318 15.9825
Au 33.6242 26.4589 41.2514
Au 17.9584 11.4 28.3669
Pt 27.6179 31.0707 35.8829
Pt 26.5064 19.9885 32.9371
Au 24.7913 7.24075 30.8712
Au 23.7714 38.4304 14.4546
Pt 32.3392 26.1761 32.9088
Au 33.8545 17.1615 8.2162
Au 38.0788 15.7413 13.3193
Au 23.0969 25.8972 26.0747
Pt 36.2458 12.3955 28.0883
Au 20.0786 35.6063 11.3204
Au 26.4359 32.3316 8.7937
Au 26.3916 35.9108 14.8066
Pt 36.602 11.4813 21.0357
Au 17.9028 27.1555 19.5818
Pt 32.4853 18.7015 18.903
Pt 38.7189 20.9543 21.9943
Au 23.5405 16.5987 8.23597
Au 34.4363 13.0224 11.8299
Pt 16.8793 17.6595 15.0329
Pt 36.7278 26.1151 19.8718
Pt 38.2527 19.1689 17.1709
Pt 32.5459 30.1776 16.9877
Pt 32.7706 13.4317 19.3517
Au 13.2225 38.1171 29.8841
Pt 32.8754 19.4091 23.4267
Pt 18.9248 20.9123 33.5513
Pt 15.6443 37.4327 31.2157
Pt 29.7381 23.2795 36.3731
Au 31.1182 27.8029 41.5883
Pt 24.9959 28.764 32.5625
Au 11.4409 24.3394 37.7992
Pt 22.4393 35.2423 34.6407
Pt 27.925 22.148 34.4164
Pt 13.6769 31.4501 28.6788
Pt 22.307 21.4145 28.1718
Au 8.36547 31.8609 29.579
Pt 23.5078 39.2825 34.4463
Pt 15.3052 18.5674 26.5279
Pt 10.7266 27.1901 27.498
Au 18.2807 42.1442 28.0213
Pt 32.0371 35.1077 34.3075
Pt 14.5448 36.7891 26.7796
Pt 32.6203 37.1534 24.7165
Au 38.6586 26.6132 35.9408
Pt 18.729 22.4523 27.5294
Pt 12.4549 27.224 20.7771
Au 31.5164 27.8615 10.6353
Pt 18.4369 15.0787 18.7227
Au 13.8823 20.8688 12.0833
Pt 21.0158 16.0393 23.3954
Pt 11.0346 18.5225 31.0686
Pt 28.52 15.801 16.0885
Pt 35.2336 15.599 12.9789
Pt 28.4954 16.5142 12.5486
Pt 34.2611 13.9434 14.693
Au 21.3862 33.4771 9.96904
Au 20.8508 21.0104 8.76918
Au 19.8464 25.8544 10.6816
Pt 27.384 9.48911 17.4893
Au 20.2873 8.69795 17.2175
Pt 11.2607 20.8552 17.2411
Pt 37.2531 20.1294 14.8474
Pt 33.5235 17.651 13.4545
Au 31.4434 39.1858 15.1419
Au 20.6825 42.7129 29.2655
Au 40.4701 29.5093 27.4633
Au 25.6213 9.86311 31.5093
Au 23.7372 35.4896 14.6244
Pt 26.5247 31.8816 23.156
Pt 32.8052 23.8495 20.5582
Pt 34.7418 32.923 19.8133
Pt 31.5004 32.4136 23.1486
Pt 35.398 28.0879 28.7796
Au 34.8561 32.0724 16.902
Pt 37.5066 22.7644 15.4298
Au 28.0766 24.2441 12.6012
Au 33.1392 33.7913 15.5576
Au 26.9402 22.8372 8.54921
Au 12.6753 18.6245 13.073
Pt 34.0041 34.6336 17.8233
Au 36.03 31.7721 14.3347
Pt 34.0943 18.2979 21.2501
Pt 35.3285 22.6653 36.0724
Au 18.9531 39.7576 22.6574
Au 26.3353 9.76382 34.3543
Au 29.1563 38.4323 12.1631
Au 7.92629 23.2001 33.9094
Au 18.9767 28.5003 10.2765
Au 6.54863 29.5234 20.3625
Pt 10.3033 21.5277 28.0385
Pt 14.1443 32.1876 26.1264
Au 7.25357 31.9707 19.0902
Au 20.4713 35.8727 18.7775
Au 9.66909 36.5095 21.1086
Pt 10.5009 27.8703 24.9499
Pt 15.2964 22.4372 14.2995
Au 10.0579 36.9898 25.1639
Pt 11.9676 30.3409 17.7479
Au 29.0782 25.0157 16.8222
Pt 13.0679 17.9671 18.8202
Au 31.8269 9.52194 28.7764
Au 11.4297 37.6405 22.9261
Au 18.7033 27.9979 16.9929
Au 25.8551 27.7201 14.8022
Au 11.9815 21.8982 36.2883
Pt 40.1329 19.496 23.6
Au 14.2175 40.8622 16.506
Au 16.8735 37.1011 15.193
Au 28.5252 11.3395 37.6281
Au 18.5397 36.1141 9.00819
Au 14.281 34.3771 16.9882
Au 21.1263 19.0013 23.8041
Au 39.6761 33.2205 30.4263
Au 26.1149 29.2017 12.1631
Au 17.6662 30.9694 10.4388
Pt 39.9497 22.6413 28.4533
Pt 37.2161 11.8489 23.5814
Pt 37.3632 23.7483 32.0335
Au 15.8074 33.2281 19.0657
Pt 21.9405 14.8161 35.824
Au 36.9948 10.8284 30.2357
Pt 35.1573 31.2081 28.1696
Pt 38.518 29.2464 25.5662
Au 39.832 17.7848 35.0366
Pt 35.1276 25.5019 32.6032
Au 5.50682 19.4762 27.0813
Pt 10.7898 25.8205 19.2817
Pt 19.5067 11.4179 23.8109
Au 16.3527 12.0636 30.4574
Au 7.25952 32.1296 21.793
Pt 17.218 20.2877 27.0616
Pt 24.3679 21.683 36.7285
Pt 14.726 26.4308 21.7388
Pt 18.9804 16.3708 14.1899
Pt 8.9324 21.3121 24.8019
Pt 11.7844 25.3158 25.15
Pt 11.8056 23.192 33.4897
Au 10.1821 12.7344 25.3297
Pt 18.2347 15.0448 26.8773
Pt 16.9391 20.571 19.5635
Au 26.4105 33.0063 40.7134
Pt 8.26097 27.1507 26.43
Au 8.51837 28.7293 33.9833
Pt 21.1978 32.7411 32.9399
Au 5.796 27.4452 22.4154
Pt 27.6722 19.0675 39.9584
Au 34.2155 36.7437 33.4152
Au 19.1275 27.3378 41.7021
Au 28.475 28.7143 19.3441
Pt 25.0334 34.3725 34.6033
Pt 27.6369 27.9221 31.4458
Pt 13.0347 18.0985 33.1388
Au 15.5615 36.8836 33.856
Pt 23.993 28.2809 27.5548
Pt 30.1982 38.5836 31.552
Pt 25.3868 32.4706 36.4621
Pt 22.1276 30.1242 28.0505
Au 26.4227 15.054 34.2371
Pt 28.642 38.9459 23.0532
Pt 39.1681 25.9916 31.5334
Pt 24.6918 42.7537 23.6433
Au 24.2305 33.7265 9.90705
Pt 25.1431 39.4127 18.903
Au 35.6202 30.2769 36.8803
Pt 36.7513 31.4524 18.8262
Pt 29.4974 21.0029 39.7107
Au 22.8502 24.2198 28.4515
Pt 10.7092 28.6086 19.4091
Pt 11.3178 16.6648 28.9078
Pt 22.5392 17.8321 19.6152
Pt 23.2591 27.1415 39.73
Pt 17.8344 24.3638 29.2554
Au 20.6153 8.68884 30.0675
Pt 21.2202 16.7587 15.7588
Pt 25.4815 13.35 22.687
Pt 32.9564 14.5105 30.9092
Au 22.2631 21.8134 23.5276
Au 13.988 12.3437 29.1951
Pt 24.5615 18.5267 36.9127
Pt 31.2675 13.8465 26.7227
Au 42.033 22.4113 21.9706
Au 13.4553 14.3899 13.513
Au 35.0117 10.4638 32.3448
Au 25.7626 14.8744 39.4374
Pt 16.4734 15.9654 22.8799
Pt 28.7883 41.46 23.4686
Au 23.1333 44.5307 22.0127
Pt 28.2878 25.0739 27.0221
Pt 23.5609 34.7866 26.3966
Pt 21.4423 31.4338 30.3048
Au 29.8359 28.7102 12.6325
Pt 17.6989 33.5556 28.9872
Au 31.6484 37.4092 13.1594
Pt 8.5275 27.6771 20.853
Au 31.0106 35.335 14.8847
Pt 22.8239 32.7307 28.064
Pt 24.0571 37.1837 27.2853
Pt 20.2922 37.9546 28.1809
Au 21.9685 27.4842 6.49657
Au 27.8347 32.3589 20.86
Pt 17.3166 26.3307 30.8262
Au 19.4407 36.4398 16.1673
Pt 36.3903 30.1946 23.7859
Pt 24.4417 27.8147 37.5742
Au 22.0871 24.9943 31.0953
Pt 18.5133 12.4705 14.9905
Pt 7.66307 25.4004 22.1429
Pt 21.3031 22.529 13.2774
Au 27.0979 9.21302 12.5751
Au 17.3847 16.8834 33.0174
Pt 35.7543 11.1705 25.6578
Pt 16.8563 19.7378 24.2213
Au 13.4928 12.0895 15.1488
Pt 17.502 13.1112 22.9554
Pt 18.4186 12.633 17.6554
Au 22.1804 10.5131 10.4719
Pt 20.0746 12.4571 12.9271
Au 30.3927 10.6141 30.8247
Pt 30.6925 8.12896 23.0544
Au 17.9663 12.0907 35.8282
Au 19.825 10.1511 11.7798
Pt 35.194 13.5192 24.1716
Au 27.0648 23.4079 21.7143
Au 26.6031 38.5378 11.0278
Au 27.1619 7.82292 32.3749
Au 30.4672 9.18495 33.41
Au 26.6215 26.7496 20.1088
Pt 37.1471 21.8995 29.7889
Au 18.4477 10.2222 31.1354
Au 23.8735 12.4064 9.70832
Pt 38.9981 24.5473 33.9692
Pt 16.7046 18.83 37.1
Pt 15.0447 21.1388 37.3031
Pt 25.8626 26.4407 26.9013
Au 25.6049 17.9225 22.7045
Au 17.7685 12.1245 11.3996
Pt 29.9978 37.8646 25.0655
Pt 35.4496 15.3117 19.9651
Pt 22.5153 22.3201 30.6256
Pt 28.5993 16.9295 33.1406
Au 25.5751 28.7791 42.5696
Au 37.6787 14.8137 37.8477
Pt 24.291 32.4697 30.3351
Pt 33.1684 24.955 39.0667
Au 28.3549 16.6166 19.3946
Pt 36.7265 18.109 26.2235
Au 40.8485 24.5902 17.8781
Pt 29.8047 23.1549 25.7453
Au 33.0639 39.347 26.5523
Pt 40.4329 24.7005 23.3041
Au 20.959 38.6593 14.8351
Au 27.5588 21.4183 19.7699
Au 16.0697 28.8487 21.147
Au 40.7548 24.8149 36.1246
Au 42.69 23.6705 19.6186
Pt 38.9812 18.0703 21.3969
Pt 29.748 28.4082 24.222
Pt 40.1776 22.1432 23.8545
Au 40.4999 29.4387 15.8018
Pt 33.3949 25.9435 11.1339
Au 23.1123 31.127 9.4745
Pt 37.838 20.8978 24.9087
Au 12.4758 38.9324 15.6181
Pt 36.991 33.0971 21.2744
Pt 27.073 42.5051 25.0086
Au 30.5598 14.3581 34.6411
Au 24.359 35.8527 21.5929
Pt 24.4091 22.3537 41.4031
Au 34.1975 32.6855 37.4434
Au 27.8402 21.4932 12.5133
Au 8.12852 34.4995 22.6959
Pt 14.0636 29.0839 32.9055
Au 27.0023 34.0074 18.4443
Au 16.2998 26.5132 16.7656
Au 9.68089 21.3606 34.9746
Au 24.7094 16.5104 27.2403
Au 16.4825 39.482 32.6231
Au 20.4716 24.5907 26.8981
Au 24.1923 19.2845 43.2757
Pt 27.6042 18.4144 37.2053
Pt 26.8709 36.0485 33.8686
Pt 10.485 30.4054 25.5962
Au 33.1518 35.5652 37.9482
Pt 7.96022 29.6315 25.5695
Pt 26.7225 26.842 33.6834
Pt 16.0496 15.3625 13.8327
Pt 14.3531 31.6678 23.4507
Pt 18.7353 15.6072 21.3942
Pt 13.4022 35.5626 22.6429
Pt 20.8518 9.49428 22.3717
Au 14.4457 24.8794 15.257
Au 34.6215 9.28847 29.8652
Au 11.1356 33.3256 34.4629
Au 23.3124 27.4036 13.6831
Au 23.5814 23.3885 11.8828
Pt 27.2957 16.6631 10.1138
Pt 14.6312 31.2875 31.5391
Pt 18.5205 10.4582 21.4718
Pt 13.4723 27.0479 34.5652
Au 27.8445 14.1113 18.0586
Au 17.4001 38.3746 20.7594
Pt 7.51334 23.2508 23.6085
Au 30.7344 38.9494 19.7087
Pt 22.8831 18.9323 15.2155
Au 32.7704 39.4589 17.6841
Pt 34.8702 16.441 15.6021
Pt 24.3952 21.2373 31.9089
Pt 36.465 19.7025 21.3791
Pt 28.0006 21.1461 29.4787
Pt 36.989 20.7083 32.2877
Pt 26.8961 28.8483 27.2496
Pt 37.9687 28.8441 31.6306
Au 30.4654 30.2745 9.83709
Au 24.8803 37.4646 16.7711
Au 22.5008 42.8528 19.9124
Pt 10.6986 28.7754 22.2177
Pt 10.211 21.0389 21.8737
Au 14.6592 15.6905 33.38
Pt 10.4501 28.418 16.6271
Au 23.429 41.9974 33.9463
Au 27.5149 16.5957 41.1318
Pt 22.1103 37.5792 36.0412
Au 22.234 40.716 36.3111
Pt 25.2391 30.6852 25.9582
Au 18.9824 28.6716 21.7899
Au 22.1982 36.6129 16.5549
Pt 21.905 37.5686 33.1799
Au 29.2079 44.45 25.8276
Au 39.4917 36.0854 25.3467
Au 25.1173 6.47754 28.0082
Pt 15.4651 17.912 34.698
Au 6.90914 18.5427 29.1403
Pt 34.8333 13.3311 32.63
Au 22.8506 12.4224 28.5357
Pt 15.5096 13.889 21.37
Pt 19.2433 18.3492 29.9765
Au 39.5514 16.2285 32.9291
Au 16.8133 23.1864 41.8783
Pt 29.4276 35.5313 34.3184
Au 40.4963 26.925 26.8017
Pt 30.9476 16.9899 34.5097
Pt 31.0342 25.3953 35.2475
Au 35.7469 32.9704 31.0877
Au 29.6476 18.7839 41.735
Pt 35.3408 24.8915 37.4356
Pt 32.5598 14.8438 12.4876
Pt 37.5604 17.2335 15.5363
Pt 23.5753 20.9845 13.6456
Au 37.6164 17.4474 11.1746
Pt 25.8197 15.9373 12.5335
Pt 34.7331 19.9424 11.871
Pt 36.8959 17.9842 19.2715
Pt 31.1127 37.8939 22.4892
Au 40.3216 17.0432 30.2825
Pt 31.7614 25.1116 30.5244
Au 26.3358 9.88091 37.1259
Pt 35.7966 20.2265 34.9251
Au 15.7568 13.552 34.7303
Pt 31.7881 21.3545 32.173
Au 30.3217 24.244 14.1013
Au 28.1316 12.1853 34.9033
Pt 33.0442 16.495 35.9195
Pt 24.2346 13.8505 36.9942
Pt 21.8348 17.5456 36.5065
Au 42.7874 23.4894 24.4052
Pt 26.1415 17.8155 34.5613
Pt 30.5689 23.4077 33.5823
Au 34.9397 38.7661 31.4757
Pt 29.7014 27.7725 39.2642
Au 34.9618 27.4416 39.002
Pt 29.6104 40.6682 29.7009
Pt 31.8493 33.807 36.6356
Au 35.5227 13.0659 37.361
Au 32.9908 15.9953 39.2825
Pt 37.4347 22.4908 34.4382
Pt 27.3604 31.2181 28.3834
Au 8.42724 16.1267 28.9993
Pt 23.145 36.3874 30.8897
Pt 32.3192 31.1548 36.2128
Au 22.6321 34.2923 12.2917
Pt 30.5789 17.0205 17.7315
Au 27.5718 5.98336 20.1385
Pt 34.5118 19.8522 14.6135
Pt 34.4838 15.4674 22.4468
Au 38.7524 15.8075 26.1382
Pt 18.5084 18.9946 13.1196
Au 38.671 11.0564 19.2819
Au 29.2728 23.0545 10.2745
Pt 30.21 15.2937 10.9142
Pt 38.6761 28.9069 22.9823
Pt 19.2211 10.5097 18.9016
Au 30.3866 37.8026 17.1038
Pt 36.9479 15.8503 24.1022
Au 38.3464 28.0557 16.9162
Au 15.0463 18.6383 10.4776
Au 26.5773 12.0509 9.93146
Au 34.4281 8.57997 18.4507
Au 37.3047 22.9436 39.0735
Au 36.0117 25.4626 10.1005
Pt 33.2043 19.3019 9.57945
Pt 32.8109 18.0188 16.2166
Pt 31.0581 29.4929 28.1259
Au 40.2268 17.8268 15.9307
Pt 19.1829 16.9043 11.2416
Au 29.2263 24.3264 7.73823
Au 35.9231 22.0268 10.3377
Pt 30.8806 25.1808 21.8608
Au 16.7626 13.9516 37.3963
Au 35.3472 11.6706 34.8264
Au 32.1635 18.2778 40.6579
Au 31.2484 11.753 38.3936
Au 34.3334 41.7226 27.2204
Pt 15.3206 17.5924 31.454
Pt 18.6923 23.4053 34.3532
Au 14.1875 35.0245 31.7062
Pt 13.5678 19.4241 30.7148
Au 15.2095 21.8623 40.1404
Au 36.9384 17.2529 39.0037
Pt 20.5772 24.4352 36.0164
Pt 9.87398 32.7979 24.4332
Pt 17.161 23.6999 39.2627
Au 40.6956 28.2746 31.7768
Pt 17.1629 16.111 35.7454
Pt 26.6154 23.3457 36.3872
Pt 27.33 32.5782 38.215
Au 34.422 34.8887 35.683
Pt 15.7771 30.2832 25.18
Au 22.3557 34.3614 39.5401
Au 20.727 18.2584 39.1144
Au 17.9572 31.3163 39.5406
Au 20.2395 13.3896 27.733
Pt 12.0521 17.0848 23.815
Au 30.8605 36.4682 36.6071
Pt 25.8133 26.6538 40.7999
Au 20.339 12.4489 10.1798
Pt 20.2528 20.6945 30.839
Au 7.15097 15.3316 21.4174
Au 14.6292 9.54777 24.6301
Pt 23.7924 11.8546 16.4572
Pt 24.3754 21.1795 16.1173
Pt 20.3641 17.7609 21.1143
Au 28.8259 10.8586 10.7247
Pt 18.7067 19.676 21.54
Au 22.2579 23.2033 7.81801
Au 21.4377 18.3572 7.70776
Au 25.1835 20.6241 11.54
Au 27.7064 33.966 10.8186
Au 12.6054 34.6573 14.5015
Pt 22.2714 21.1168 11.1671
Pt 12.4059 24.7236 17.1553
Pt 13.9698 20.2463 14.8798
Au 9.97956 30.9862 33.8636
Au 17.7269 29.2722 8.01659
Au 25.9085 33.4621 15.9649
Pt 38.7243 19.9156 19.5617
Au 24.7894 9.50009 19.1176
Au 35.031 35.9196 30.7061
Pt 30.3311 12.242 19.3058
Au 24.206 41.8285 17.9709
Au 14.6768 30.3404 14.0648
Pt 23.0924 37.7966 23.8127
Au 39.023 27.6802 29.3617
Au 41.7034 19.1895 31.205
Pt 34.6599 22.3917 15.5648
Au 37.4501 20.1145 11.765
Pt 32.7555 28.7635 32.1959
Pt 35.265 20.4535 26.4106
Au 39.0989 34.9861 28.1233
Au 34.3168 33.7444 28.878
Pt 30.05 30.5954 18.0495
Au 25.8496 44.9154 22.5412
Pt 34.4982 26.8767 26.6053
Pt 33.2816 15.2445 24.7972
Pt 30.9225 32.9823 32.2501
Pt 30.7926 15.7314 32.1139
Pt 30.6611 36.1442 20.5824
Pt 34.9562 11.8828 18.693
Au 39.3752 26.6336 18.9681
Au 28.509 36.8439 9.94145
Au 19.3902 24.117 8.50022
Au 38.1404 31.1266 34.983
Au 35.3362 40.3127 22.2661
Pt 34.7963 27.9174 19.3723
Pt 29.9429 23.1183 28.4988
Au 25.558 18.4254 25.429
Pt 24.8623 23.6988 30.8739
Au 39.7231 17.16 18.7181
Pt 31.8475 28.221 34.6235
Pt 21.6352 36.8529 25.8873
Au 6.67385 30.9567 27.4291
Au 5.48003 22.1254 22.2886
Au 22.9998 20.7551 7.00208
Pt 9.51767 17.1386 26.7623
Pt 15.9415 16.3724 17.4987
Au 22.8871 38.7928 10.9911
Pt 18.8108 22.1662 20.5677
Au 16.167 28.5559 10.085
Pt 15.8128 27.6947 29.1039
Au 14.3388 28.5963 16.5364
Pt 16.5113 18.4446 21.7676
Pt 13.2063 23.1381 24.3553
Au 6.16648 28.2514 27.7056
Au 10.0726 31.5231 15.9992
Pt 22.271 27.586 32.1993
Pt 12.5828 27.3465 23.52
Au 17.335 41.341 20.8611
Pt 31.8387 12.8157 14.3526