2057
Atoms. Timestep: 20318
Au 25.2148 24.5359 25.8218
Au 27.6599 24.4376 24.5875
Au 27.5253 24.5373 27.5353
Au 22.8714 24.5925 24.1638
Au 22.8386 24.5709 27.063
Pt 23.7719 26.8449 25.6396
Au 26.615 26.8108 25.8621
Au 23.6358 22.2716 25.541
Au 26.4429 22.1551 25.725
Au 25.143 23.0681 28.1532
Au 25.2463 25.9366 28.2259
Au 25.1372 23.1246 23.3644
Au 25.2313 25.933 23.4488
Au 29.8427 24.4971 22.9713
Au 30.0439 24.8215 26.372
Au 31.4901 22.5309 27.8789
Pt 20.5066 24.6032 22.4878
Au 20.4344 24.5602 25.4777
Au 20.4276 24.5515 28.4047
Pt 22.3051 29.1006 25.4997
Pt 25.0857 29.1808 25.5601
Au 27.8925 29.1662 25.6919
Au 22.1108 19.9779 25.2513
Au 24.9407 19.8296 25.3713
Au 27.8375 19.8478 25.6466
Au 24.6794 21.4005 30.3325
Au 24.7881 24.3209 30.7763
Au 24.9336 27.5355 30.369
Au 25.0384 21.7318 20.9177
Au 25.0964 24.5996 20.9503
Pt 25.1383 27.356 21.0788
Au 27.2135 22.465 29.908
Au 27.7386 27.8228 30.2843
Au 27.4526 23.1687 21.8981
Au 27.5134 25.9413 22.0008
Au 22.5864 22.8491 29.2357
Au 22.7338 25.9909 29.4505
Au 22.7725 23.1492 21.7024
Au 22.7838 26.0019 21.742
Au 28.9534 26.8644 24.3829
Pt 31.6393 27.0265 28.133
Au 21.3672 26.8598 24.0653
Au 21.3254 26.8961 26.9414
Pt 28.7041 22.0153 24.0256
Au 28.8868 22.3167 26.8431
Au 21.2917 22.3005 23.9145
Au 21.2006 22.1892 26.8293
Au 23.6373 28.2737 27.9218
Pt 26.3689 28.495 27.974
Au 23.5082 20.6593 27.7772
Pt 26.2281 20.5362 27.9104
Au 23.6808 28.2395 23.2536
Pt 26.5329 28.2881 23.4108
Pt 23.5568 20.7609 23.0195
Au 26.4034 20.693 23.1896
Pt 32.0073 24.5366 21.1435
Au 32.4026 24.5947 24.0741
Au 33.7254 22.5426 26.0799
Au 34.0359 22.5905 29.0065
Pt 18.1788 24.6423 20.9845
Au 18.1047 24.6081 23.8595
Au 17.9938 24.5679 26.863
Au 18.0178 24.5263 29.7937
Au 20.7391 31.3691 25.2786
Pt 23.626 31.4831 25.3707
Pt 26.3986 31.5529 25.4916
Pt 29.1739 31.5174 25.576
Au 20.6069 17.663 24.9766
Au 23.4272 17.483 25.0828
Au 26.277 17.4425 25.2296
Au 29.2319 17.5174 25.6008
Au 24.3047 19.5398 32.4111
Au 27.2871 25.2001 30.2035
Au 28.4028 26.0658 32.5859
Au 24.6032 29.2674 32.5437
Au 24.957 20.4112 18.4551
Au 24.9636 23.1778 18.4403
Au 25.0238 25.9935 18.5231
Au 25.116 28.7561 18.5901
Au 29.598 23.6841 29.3801
Au 26.8539 20.7797 32.0695
Pt 32.9968 29.4264 28.0299
Pt 34.0901 27.2723 29.6491
Au 29.9965 28.1803 32.2991
Au 29.6813 23.146 20.2369
Au 27.3151 21.7559 19.3286
Au 29.751 25.9656 20.3244
Au 27.3669 24.5709 19.3819
Au 27.3951 27.3447 19.4615
Au 20.0682 22.6383 30.4761
Pt 22.1549 21.2629 31.5779
Au 20.263 26.2304 30.747
Au 22.1852 24.1835 31.5221
Au 22.4599 27.6496 31.7415
Au 20.4283 23.2106 20.1154
Pt 22.6415 21.7307 19.2744
Pt 20.4035 26.0386 20.1202
Au 22.6751 24.5974 19.28
Au 22.747 27.4246 19.3616
Au 30.278 29.2912 24.0256
Au 31.227 26.9019 22.5742
Au 30.4207 29.0278 26.81
Au 31.5337 26.8782 25.381
Pt 32.7305 24.858 26.9185
Au 19.8899 29.1705 23.9179
Au 19.0232 26.892 22.4181
Pt 19.8126 29.2208 26.8175
Au 18.9151 26.9112 25.3952
Au 18.8889 26.9353 28.3066
Au 30.1136 19.7618 23.835
Au 30.9901 22.0699 22.3785
Au 30.4955 20.0347 26.638
Au 31.1254 22.4039 25.1142
Pt 31.2962 20.2248 29.4866
Au 19.7428 19.9795 23.7067
Au 18.9373 22.3303 22.3383
Pt 19.6661 19.8592 26.6216
Au 18.8199 22.2365 25.2603
Au 18.7807 22.1473 28.1016
Pt 23.3035 29.9107 30.1319
Au 22.082 30.6369 27.6935
Au 26.1281 30.1243 30.2475
Au 24.9016 30.7882 27.7894
Au 27.8138 30.7596 27.9705
Au 23.1472 18.9548 29.9937
Au 21.8852 18.3195 27.4719
Au 25.9734 18.8957 30.0686
Au 24.7198 18.1438 27.6194
Au 27.5089 18.0606 27.8324
Au 23.6289 29.6906 20.8336
Pt 22.2405 30.5634 23.1037
Au 26.5174 29.673 20.934
Au 25.0578 30.6251 23.1621
Au 27.9218 30.6416 23.2533
Pt 23.5009 19.4156 20.622
Pt 22.0567 18.5217 22.7745
Pt 26.3149 19.295 20.7199
Pt 24.8777 18.3512 22.8502
Au 27.7751 18.3384 23.0255
Au 28.7154 20.4438 28.7736
Au 28.8025 27.0387 27.7759
Au 28.6753 20.6759 21.5348
Au 28.8665 28.2957 21.772
Au 20.9652 20.4534 29.053
Au 21.1421 28.4562 29.2596
Au 21.2226 20.8109 21.4603
Au 21.2575 28.3365 21.587
Pt 34.2339 24.541 19.6065
Au 34.5964 24.6174 22.3721
Pt 35.875 22.8082 24.3143
Pt 36.2808 22.8359 27.0957
Pt 34.4872 22.2468 32.1964
Au 15.8744 24.6556 19.4794
Pt 15.7462 24.6316 22.2664
Au 15.659 24.6217 25.2414
Pt 15.5563 24.4794 28.1762
Pt 15.6516 24.4575 31.0136
Au 19.1382 33.689 25.0771
Au 22.0805 33.8259 25.1235
Pt 24.9131 33.8993 25.2665
Pt 27.6778 33.921 25.3234
Au 30.5557 33.8219 25.3855
Au 19.0173 15.3998 24.7365
Pt 21.8424 15.1413 24.7986
Pt 24.6727 15.0308 24.8788
Pt 27.642 15.174 25.2663
Pt 30.612 15.2864 25.5697
Au 24.0535 17.78 34.5368
Au 24.4069 22.2146 33.0251
Pt 24.0055 24.7231 33.4778
Au 25.8312 26.5716 32.7308
Au 24.3688 31.0168 34.7164
Au 24.8584 19.0926 16.0381
Pt 24.9014 21.8408 15.9288
Au 24.9738 24.5979 15.9791
Au 24.9653 27.4357 16.0419
Au 25.0212 30.1953 16.1301
Pt 31.8083 20.9489 32.9429
Au 29.4158 19.1399 33.5054
Au 27.8634 20.115 36.2645
Au 31.9793 22.4934 30.7923
Au 26.8096 23.6902 32.659
Au 28.2853 27.1944 35.1456
Au 32.3224 24.8995 29.5634
Au 30.0441 26.272 30.2432
Pt 29.8166 27.5417 40.4896
Pt 31.8438 23.2163 18.6157
Pt 29.5621 21.7331 17.7544
Pt 27.2209 20.4117 16.8519
Pt 31.9384 25.9906 18.7025
Au 29.6204 24.597 17.7837
Au 27.266 23.1728 16.8301
Pt 29.6797 27.3985 17.8579
Au 27.3024 26.0228 16.9032
Pt 27.3945 28.7895 16.9445
Pt 17.6135 22.4972 31.8127
Pt 19.7415 21.178 32.8326
Au 21.8872 19.6167 33.765
Pt 17.8401 26.4358 31.8999
Pt 19.5232 24.2683 32.4509
Pt 21.7141 22.8529 33.8085
Pt 19.9718 28.0021 32.9554
Pt 21.5182 25.7105 33.5657
Pt 22.057 29.5142 33.9021
Au 18.114 23.233 18.5824
Pt 20.3557 21.8412 17.7246
Pt 22.5757 20.4568 16.8391
Pt 18.0979 26.0933 18.6127
Pt 20.333 24.6584 17.7077
Au 22.6134 23.1924 16.8286
Au 20.36 27.4641 17.7721
Au 22.6461 26.0289 16.8409
Au 22.6598 28.8488 16.9155
Au 31.5663 31.7011 23.6688
Au 32.5782 29.3293 22.2187
Au 33.4417 26.9284 20.933
Au 31.9163 31.4257 26.3615
Au 32.8837 29.2242 25.0578
Pt 33.8511 26.9419 23.7275
Au 35.2753 29.6719 26.4243
Au 34.9634 25.0201 25.4228
Au 34.0044 27.2301 26.7508
Au 18.2735 31.4829 23.7166
Au 17.4761 29.2118 22.2565
Au 16.6542 26.9424 20.8794
Pt 18.2113 31.4612 26.6195
Au 17.3887 29.2435 25.2211
Au 16.5153 26.9176 23.7422
Au 17.3458 29.2727 28.1168
Au 16.4721 26.9189 26.6946
Au 16.4296 26.8953 29.5608
Au 31.486 17.4269 23.6825
Pt 32.3687 19.7513 22.0073
Au 33.1992 22.1243 20.6582
Au 32.0043 17.7145 26.4629
Au 32.7297 19.9804 24.8025
Pt 33.5106 22.1491 23.3426
Au 32.7831 17.8665 29.354
Au 33.1569 20.2276 27.5991
Pt 33.7131 20.0961 30.7376
Au 18.1652 17.6947 23.4328
Au 17.367 20.0201 22.1214
Pt 16.6059 22.3073 20.7993
Au 18.1161 17.598 26.3347
Au 17.2432 19.9197 25.0287
Au 16.4538 22.3161 23.6559
Au 17.2321 19.8469 27.8877
Au 16.3348 22.2559 26.577
Au 16.3686 22.1376 29.399
Au 23.0654 31.6305 32.3095
Au 21.8375 32.3088 29.8812
Au 20.5246 32.9956 27.49
Au 25.9214 31.8418 32.427
Au 24.6373 32.5126 29.9904
Au 23.3877 33.2061 27.5569
Pt 27.4346 32.6709 30.1258
Au 26.2168 33.2311 27.6817
Au 29.0283 33.2271 27.7863
Pt 22.7886 17.1492 32.0977
Au 21.6181 16.6431 29.6837
Au 20.3365 15.9924 27.1936
Au 25.5823 17.0684 32.1049
Pt 24.4293 16.4307 29.7486
Au 23.1748 15.745 27.2594
Pt 27.2271 16.2701 29.9467
Au 26.0133 15.6692 27.415
Pt 28.8406 15.6438 27.7552
Au 23.5765 31.1508 18.3466
Au 22.0974 32.0533 20.6389
Au 20.6043 32.8973 22.8205
Au 26.4739 31.1419 18.4113
Au 24.9749 32.1455 20.6325
Au 23.5083 32.9818 22.915
Au 27.8524 32.1034 20.765
Au 26.3693 33.0266 23.0331
Pt 29.1627 33.0374 23.1136
Au 23.4297 18.068 18.1955
Au 21.9613 17.1599 20.3902
Pt 20.5672 16.2057 22.54
Pt 26.2546 17.9714 18.3052
Pt 24.8256 16.9927 20.4651
Au 23.3628 16.0673 22.6503
Pt 27.6707 16.9793 20.5331
Au 26.2475 15.9703 22.7633
Au 29.1782 15.9691 23.0334
Pt 31.3166 18.669 31.571
Au 31.1897 30.7061 32.1016
Pt 30.1339 17.9753 28.4535
Pt 30.5258 30.9211 28.5763
Au 28.5892 18.625 30.8122
Au 28.9363 30.2025 30.5175
Pt 30.9249 20.6538 19.8645
Pt 31.1227 28.3641 20.0361
Au 30.0585 18.2828 21.3228
Au 30.1971 30.676 21.4524
Au 28.5884 19.3018 19.0769
Au 28.7756 29.7061 19.1984
Pt 18.5212 20.355 30.3446
Pt 18.7286 28.6654 30.5369
Pt 19.4128 18.196 28.8298
Pt 19.5786 30.7686 29.039
Pt 20.6846 18.8993 31.3104
Pt 20.8733 30.0916 31.4849
Pt 18.9003 20.8752 19.9037
Pt 18.8683 28.3826 19.9395
Pt 19.6664 18.556 21.198
Au 19.719 30.6515 21.411
Pt 21.1425 19.4572 19.0316
Au 21.2044 29.7924 19.1632
Pt 36.4662 24.4879 18.1706
Pt 36.8499 24.8876 20.8219
Au 38.1575 23.0621 22.4641
Au 38.4074 23.0765 25.2218
Pt 38.8493 23.0343 27.917
Pt 36.3485 20.3414 31.3593
Pt 13.5692 24.7801 17.9702
Au 13.4156 24.6868 20.751
Au 13.367 24.6627 23.6016
Pt 13.2727 24.5022 26.5408
Pt 13.1857 24.4492 29.3422
Au 13.2722 24.5024 32.2056
Au 17.6826 36.0534 24.8377
Au 20.5257 36.1482 24.8868
Pt 23.3913 36.2159 25.0471
Pt 26.2235 36.2831 25.099
Au 29.0443 36.306 25.1105
Au 31.9134 36.2128 25.2773
Pt 17.495 13.1651 24.5626
Pt 20.2807 12.9385 24.5761
Pt 23.053 12.7852 24.6384
Au 26.0615 12.7378 24.7946
Au 29.0023 12.9669 25.0597
Au 31.9882 13.1042 25.2711
Au 19.3215 16.7328 41.5115
Pt 25.5622 20.9495 37.4727
Au 23.6886 23.2809 35.7982
Pt 24.9126 25.8383 39.1821
Au 23.5374 28.9741 36.4069
Au 24.3094 32.7309 36.8035
Au 24.7558 17.6942 13.6473
Pt 24.8204 20.5369 13.5628
Pt 24.8567 23.256 13.534
Au 24.9054 26.0853 13.5686
Pt 24.9141 28.8522 13.5932
Pt 24.9719 31.6217 13.759
Pt 34.4342 19.9075 33.3889
Au 32.052 18.5423 34.5144
Au 28.6633 21.7685 33.9419
Au 24.1586 20.4956 35.2239
Au 32.6143 24.0585 33.0112
Pt 33.4487 26.4618 34.6726
Au 28.473 24.4404 34.8835
Au 26.5458 18.9709 34.091
Pt 35.1561 26.933 32.5512
Au 29.8901 23.8204 32.2511
Au 23.6482 27.2413 34.2585
Au 32.4391 26.6276 31.8288
Au 25.5173 23.6251 37.8375
Au 25.9359 28.6362 35.0412
Pt 33.9613 23.2133 17.1074
Au 31.716 21.8597 16.121
Au 29.4449 20.384 15.3061
Au 27.136 19.0856 14.4374
Au 34.1141 25.9727 17.1331
Pt 31.7929 24.6814 16.1864
Au 29.4956 23.2543 15.242
Pt 27.1459 21.888 14.3525
Pt 31.8494 27.452 16.2679
Au 29.5328 26.068 15.3273
Pt 27.2063 24.6342 14.3269
Au 29.595 28.8493 15.3538
Au 27.2418 27.4556 14.424
Au 27.2938 30.278 14.522
Pt 15.2225 22.4851 33.1081
Pt 17.3258 21.0733 34.1721
Au 19.4032 19.4323 34.9762
Au 21.5524 17.6874 35.9285
Au 15.4125 26.5106 33.0337
Pt 17.0383 24.4197 33.538
Pt 19.1675 23.0612 34.7311
Au 21.4405 21.3822 36.0317
Au 17.5061 28.1082 34.1245
Au 19.0898 25.8835 34.6002
Au 21.2395 24.4793 36.1019
Au 19.6789 29.6553 35.2443
Pt 21.2052 27.3775 35.5969
Pt 21.8461 31.327 35.9427
Au 15.7229 23.2852 17.0412
Pt 18.0135 21.8901 16.1607
Au 20.2725 20.5162 15.2882
Au 22.5116 19.0733 14.4434
Pt 15.8064 26.1472 17.0978
Au 18.003 24.7281 16.1514
Au 20.2659 23.2969 15.257
Pt 22.5348 21.8893 14.3451
Pt 18.0538 27.5735 16.2639
Au 20.3163 26.1613 15.2781
Au 22.6032 24.6752 14.3627
Pt 20.3586 28.9308 15.3493
Pt 22.5893 27.5053 14.3851
Au 22.654 30.2752 14.5515
Pt 33.0177 33.9893 23.4193
Pt 33.9507 31.7009 21.9119
Pt 34.8602 29.3867 20.5701
Au 35.6831 26.9679 19.3063
Au 33.3098 33.8896 26.0987
Au 34.232 31.7238 24.685
Au 35.1181 29.4521 23.3716
Pt 36.0053 27.2158 22.0561
Pt 34.319 31.8494 27.8728
Pt 36.2669 27.4351 25.0133
Au 37.11 25.2691 23.6402
Au 35.4281 29.7196 29.4251
Pt 37.5314 25.3218 26.4812
Au 35.2058 25.0781 28.3503
Pt 16.8145 33.8183 23.4927
Au 15.9747 31.5448 22.1144
Pt 15.1656 29.2564 20.6797
Pt 14.3612 27.0185 19.3328
Pt 16.6818 33.8057 26.3733
Pt 15.8568 31.5797 25.0611
Au 14.9796 29.2847 23.596
Pt 14.1753 27.0033 22.1241
Pt 15.785 31.61 27.8676
Au 14.9221 29.3187 26.4778
Au 14.0799 26.9976 25.0447
Pt 14.8821 29.3786 29.2727
Au 14.052 26.8461 27.9187
Au 13.9694 26.911 30.714
Pt 32.8357 15.1837 23.4475
Au 33.691 17.438 21.8422
Pt 34.5454 19.7115 20.3131
Pt 35.4141 22.0524 18.9654
Pt 34.4622 15.6037 28.8223
Au 34.2119 17.5943 24.6192
Pt 34.9201 19.8121 23.0706
Au 35.7535 22.1005 21.6316
Pt 33.1914 13.2164 32.1756
Au 34.764 18.0506 27.3515
Pt 35.3409 20.4542 25.7282
Pt 35.5031 17.9642 30.0859
Au 35.7302 20.4143 28.5893
Pt 36.3199 17.9657 32.6761
Pt 16.597 15.4454 23.2277
Pt 15.7847 17.7 21.9068
Pt 15.0049 20.0074 20.6423
Pt 14.2831 22.355 19.3338
Pt 16.5028 15.3182 26.019
Pt 15.6405 17.5996 24.7246
Au 14.8601 19.9375 23.4375
Au 14.1142 22.298 22.1016
Au 15.6206 17.5486 27.5395
Au 14.7567 19.907 26.3154
Au 13.9662 22.2834 24.9884
Pt 14.7416 19.794 29.1309
Pt 13.8936 22.1798 27.8435
Au 13.9813 22.1387 30.638
Pt 22.8978 33.4095 34.4588
Au 21.6248 34.0543 32.0411
Au 20.3938 34.7938 29.6389
Au 19.031 35.4243 27.237
Pt 25.7353 33.6775 34.532
Au 24.4249 34.251 32.1339
Pt 23.2374 34.9789 29.6998
Au 21.8992 35.5968 27.3487
Pt 27.2035 34.4077 32.2678
Pt 25.9726 35.0313 29.8519
Pt 24.7138 35.6533 27.4192
Au 28.743 35.09 29.9904
Au 27.4857 35.6716 27.5115
Au 30.3462 35.7031 27.6585
Au 22.6112 15.3884 34.3333
Pt 21.2614 14.8822 31.797
Au 20.054 14.2868 29.3332
Pt 18.7525 13.6962 26.9157
Au 25.4516 15.3126 34.1622
Pt 24.0545 14.6651 31.8416
Au 22.8471 14.0591 29.4144
Pt 21.5347 13.444 26.9847
Pt 26.8675 14.4263 32.0113
Au 25.6662 13.9681 29.5515
Au 24.4742 13.2475 27.0398
Pt 28.4614 13.8478 29.7926
Pt 27.4041 13.2957 27.3265
Pt 30.1822 13.3454 27.5891
Pt 23.5312 32.6087 15.96
Au 22.0626 33.4793 18.2252
Pt 20.5394 34.3658 20.4172
Pt 19.1042 35.2128 22.5617
Au 26.4062 32.5967 15.9983
Pt 24.8991 33.6192 18.1843
Pt 23.4348 34.5255 20.4626
Pt 21.9521 35.2977 22.6226
Au 27.736 33.5673 18.2619
Au 26.2598 34.5865 20.4716
Au 24.8102 35.3984 22.7884
Au 29.1603 34.5153 20.5813
Au 27.6893 35.423 22.8227
Au 30.5551 35.3261 22.8949
Pt 23.3052 16.653 15.7936
Au 21.8672 15.7295 17.9265
Pt 20.4832 14.8278 20.1527
Pt 19.0208 13.9693 22.3396
Au 26.1604 16.6151 15.8491
Pt 24.7153 15.5921 18.0148
Au 23.3046 14.668 20.206
Pt 21.8208 13.744 22.3812
Au 27.5906 15.6185 18.1407
Pt 26.1201 14.6303 20.315
Pt 24.6364 13.6346 22.4735
Au 29.1089 14.6808 20.4468
Au 27.5655 13.587 22.6321
Au 30.6027 13.6446 22.8092
Pt 33.7007 17.6637 32.1553
Pt 34.545 24.7145 31.0183
Au 31.0522 16.401 33.0147
Pt 32.7731 31.3219 29.9809
Pt 31.5626 15.6352 28.2682
Au 31.7922 33.3439 28.3167
Au 30.6864 15.7936 35.5978
Pt 31.4212 28.7934 30.058
Au 29.9636 16.2222 30.4492
Pt 30.2114 32.7748 30.4659
Au 28.1994 16.7147 32.7857
Au 27.4095 29.17 32.7584
Au 33.1221 20.7023 18.2142
Au 33.3324 28.4144 18.453
Pt 32.256 18.2956 19.5854
Pt 32.4813 30.7548 19.751
Pt 31.4513 16.0336 21.064
Au 31.5173 33.0525 21.258
Pt 30.8455 19.2482 17.4664
Au 31.0362 29.8226 17.5804
Pt 29.9784 16.9466 18.8281
Au 30.1194 32.1222 18.9707
Au 28.539 17.9348 16.6326
Pt 28.742 31.1913 16.7047
Au 16.0232 20.26 31.5987
Pt 16.3011 28.7905 31.603
Au 16.9095 18.1031 30.034
Pt 17.1683 30.9629 30.2775
Pt 17.8207 15.8781 28.4645
Au 18.0487 33.14 28.7573
Au 18.2125 18.7816 32.5626
Pt 18.4724 30.3307 32.7385
Au 19.1207 16.5437 30.9814
Au 19.3741 32.4754 31.2001
Au 20.393 17.0879 33.446
Pt 20.5946 31.8526 33.6305
Au 16.4832 20.9186 18.4113
Pt 16.5703 28.4152 18.459
Au 17.275 18.584 19.6998
Pt 17.3649 30.7083 19.7744
Au 18.1559 16.2622 21.015
Pt 18.1933 32.984 21.1917
Au 18.8064 19.5376 17.5012
Au 18.8549 29.867 17.5743
Au 19.5825 17.143 18.7688
Au 19.6593 32.1419 19.0088
Pt 21.0511 18.0839 16.627
Pt 21.1675 31.2388 16.7534
Au 38.5434 24.7281 16.5207
Pt 39.0168 25.1062 19.2437
Pt 39.4665 25.4871 21.9737
Au 39.7684 25.5349 24.6988
Pt 40.1009 25.4857 27.4044
Pt 37.9203 25.3092 29.14
Pt 40.8726 21.0576 30.0534
Au 11.3325 24.7817 16.4394
Pt 11.0889 24.7365 19.2766
Au 10.972 24.6635 22.041
Au 10.9477 24.5925 24.878
Au 10.8753 24.5415 27.7428
Pt 10.7969 24.5126 30.5708
Pt 10.8867 24.49 33.3601
Pt 16.2525 38.3929 24.5985
Pt 19.0404 38.504 24.7134
Au 21.8334 38.5623 24.8207
Au 24.6862 38.5788 24.8334
Pt 27.5363 38.7206 24.8909
Pt 30.2887 38.7129 24.9323
Au 33.1802 38.5573 25.1122
Pt 15.9749 10.9066 24.3485
Pt 18.753 10.6976 24.3948
Pt 21.4917 10.5661 24.4184
Pt 24.2981 10.4892 24.5321
Au 27.4835 10.3832 24.5903
Au 30.3694 10.6907 24.8076
Pt 33.275 10.8449 25.1024
Au 23.1718 19.1597 37.6195
Pt 23.4688 20.0681 40.5003
Pt 21.161 20.4452 39.6683
Au 23.5239 26.1227 36.781
Pt 24.1568 30.2633 40.4418
Pt 23.0165 30.9009 38.2578
Pt 23.9477 34.583 38.7403
Au 24.7215 16.3819 11.2621
Pt 24.7534 19.1727 11.1927
Au 24.816 21.8917 11.1631
Au 24.8436 24.7259 11.1513
Pt 24.9272 27.4945 11.1742
Pt 24.9167 30.2356 11.242
Au 24.9275 33.0022 11.4215
Pt 35.5753 22.1266 34.8301
Au 29.5243 21.2314 31.3319
Pt 30.8911 23.0782 34.8316
Au 28.3573 17.453 35.5863
Au 26.3423 22.4736 35.266
Pt 35.1988 24.473 33.7142
Pt 34.2922 22.3145 37.4252
Pt 33.198 24.1021 35.7777
Au 25.9003 25.3829 35.4075
Au 29.4035 19.6864 40.7348
Au 32.135 28.7153 33.9426
Pt 30.768 27.9511 36.13
Au 30.7992 25.9821 34.131
Au 22.9267 24.1144 43.053
Au 29.5693 29.9054 34.4831
Pt 31.7905 27.1917 38.4519
Pt 25.3911 27.9244 40.6357
Au 28.0517 29.5191 36.7975
Au 26.199 27.3603 37.4805
Pt 25.623 30.0503 38.1334
Au 36.1226 23.2458 15.5715
Au 33.9109 21.7876 14.4939
Au 31.6602 20.3765 13.611
Pt 29.3952 19.0319 12.8394
Au 27.0691 17.6577 12.0868
Au 36.315 26.0948 15.5771
Au 33.9493 24.6128 14.554
Pt 31.7154 23.2252 13.5441
Au 29.427 21.8549 12.7802
Pt 27.1421 20.5102 11.9791
Pt 34.0242 27.4767 14.6091
Au 31.7616 26.107 13.7484
Au 29.4636 24.7306 12.7865
Pt 27.1565 23.3204 11.9244
Pt 31.8014 28.922 13.7814
Pt 29.48 27.5102 12.8213
Pt 27.1924 26.1266 11.9223
Pt 29.5195 30.2988 12.8907
Au 27.2191 28.9119 11.9871
Pt 27.2602 31.7196 12.1572
Pt 12.7865 22.4677 34.3614
Pt 14.8956 20.9574 35.397
Pt 17.1933 19.4095 36.6212
Au 16.7345 15.817 40.1509
Pt 17.5816 14.9923 36.7254
Au 12.9784 26.6082 34.3059
Pt 14.5462 24.4809 34.7547
Pt 16.5701 23.1412 35.7909
Pt 18.5897 21.6768 36.7633
Pt 18.3075 20.6746 39.1468
Au 14.9903 28.248 35.4194
Pt 16.6028 25.9799 35.7972
Pt 18.6897 24.5484 37.03
Pt 20.4675 22.7454 38.3408
Au 17.1653 29.7174 36.4388
Pt 18.7057 27.353 36.8058
Pt 20.9515 26.3026 38.2115
Pt 19.6624 31.4361 37.4958
Au 21.0243 29.0305 37.7298
Pt 21.6343 33.1516 38.1406
Pt 13.4552 23.2927 15.499
Au 15.7001 21.9366 14.6189
Pt 17.9671 20.5385 13.7347
Au 20.2402 19.1323 12.8476
Pt 22.4389 17.702 12.007
Pt 13.5316 26.1528 15.56
Pt 15.696 24.7096 14.5954
Pt 17.9629 23.3211 13.6769
Pt 20.2725 21.9574 12.7641
Pt 22.4963 20.5481 11.9715
Au 15.7479 27.527 14.7029
Au 18.015 26.1344 13.7246
Au 20.2658 24.718 12.8043
Pt 22.5238 23.3437 11.8994
Au 18.0844 28.9578 13.8254
Pt 20.3348 27.519 12.8029
Pt 22.5616 26.1255 11.95
Pt 20.3481 30.3353 12.9558
Au 22.5993 28.8917 12.0118
Au 22.6206 31.7153 12.1707
Au 34.2567 36.4175 23.3548
Au 35.2275 34.1675 21.8124
Au 36.1898 31.8878 20.3515
Pt 37.1051 29.5389 19.0321
Pt 37.8721 27.1661 17.7785
Pt 34.6781 36.3015 26.0054
Pt 35.613 34.1927 24.5407
Pt 36.5119 32.0306 23.1154
Au 37.387 29.7652 21.7777
Pt 38.2095 27.429 20.5006
Au 35.616 34.2388 27.6049
Au 36.5954 32.1109 26.1323
Au 37.542 29.9251 24.6617
Au 38.4924 27.7099 23.3017
Pt 36.7655 32.1344 29.3673
Au 37.7701 30.0015 27.6111
Pt 38.8041 27.7457 26.0922
Pt 38.2318 29.8877 30.3205
Au 36.5071 27.5064 27.8701
Au 36.5577 22.8623 29.9682
Au 15.3126 36.1876 23.3287
Au 14.4688 33.8897 21.9517
Au 13.6214 31.5549 20.5742
Au 12.8188 29.2858 19.2019
Pt 12.052 27.0679 17.8547
Pt 15.2505 36.1706 26.1561
Au 14.3615 33.9068 24.8393
Au 13.44 31.6113 23.4761
Au 12.6108 29.3213 22.0781
Pt 11.8511 27.0332 20.6587
Pt 14.2686 33.9594 27.6516
Au 13.3634 31.6523 26.3029
Pt 12.4474 29.3625 24.9039
Au 11.7133 27.0484 23.481
Pt 13.2973 31.6914 29.0643
Au 12.467 29.2727 27.7169
Au 11.6472 26.9632 26.2941
Au 12.3737 29.3702 30.5564
Au 11.6049 26.8899 29.1678
Au 11.4671 26.9403 32.0209
Pt 34.0786 12.8738 23.324
Au 35.0308 15.0494 21.5908
Au 35.949 17.3304 20.1116
Au 36.902 19.7168 18.6838
Au 37.8071 21.9902 17.2182
Au 33.4541 15.3866 26.1927
Au 36.3244 15.9469 26.7426
Au 36.9339 18.3439 25.3825
Au 37.1655 19.6154 21.4032
Au 38.0167 22.2617 19.8459
Pt 35.3031 15.5079 31.4153
Pt 37.1924 15.9381 29.3523
Pt 37.535 18.3375 28.079
Au 37.4383 20.6598 23.8901
Pt 37.8833 15.9517 31.9119
Au 39.1235 13.8262 28.4484
Pt 37.9307 20.6831 26.6253
Pt 38.168 18.3091 30.6794
Au 38.3588 20.7218 29.3344
Pt 38.9606 20.6009 31.9847
Au 15.1017 13.2085 23.0207
Pt 14.239 15.5134 21.7267
Pt 13.5048 17.7448 20.3976
Au 12.7401 20.0603 19.106
Au 12.03 22.4588 17.8387
Pt 14.9901 13.0933 25.8436
Pt 14.0944 15.3854 24.5397
Pt 13.3008 17.6738 23.2193
Pt 12.4976 19.9739 21.9147
Pt 11.779 22.3118 20.6085
Pt 14.0947 15.2668 27.3056
Pt 13.2109 17.573 26.0047
Au 12.3553 19.9482 24.744
Pt 11.6408 22.2644 23.3767
Pt 13.2037 17.4445 28.8299
Au 12.2976 19.8204 27.5852
Pt 11.5851 22.2039 26.2878
Au 12.3586 19.7764 30.4076
Pt 11.52 22.1765 29.0677
Au 11.5833 22.12 31.9053
Pt 22.6684 35.1194 36.508
Au 21.3863 35.8035 34.1578
Au 20.0786 36.5347 31.8079
Au 18.8262 37.1613 29.4146
Pt 17.5577 37.7767 27.0294
Pt 25.4819 35.3314 36.6006
Pt 24.1804 35.9548 34.2708
Au 22.9311 36.6899 31.8687
Pt 21.6848 37.3558 29.5224
Pt 20.4132 37.9317 27.1743
Pt 26.9669 36.1197 34.3732
Pt 25.7395 36.7311 32.0042
Au 24.5152 37.4386 29.6103
Pt 23.2022 38.0148 27.2361
Pt 28.4767 36.8715 32.1195
Pt 27.287 37.4671 29.6874
Au 26.0204 38.1131 27.2552
Pt 30.0429 37.5533 29.8266
Au 28.8159 38.1016 27.3162
Pt 31.5801 38.1213 27.5031
Pt 20.0802 15.1798 35.4991
Au 21.0244 13.1442 33.8671
Pt 19.699 12.6007 31.4541
Pt 18.4616 12.0249 29.0299
Pt 17.2103 11.4725 26.686
Pt 24.9184 13.5478 36.2417
Pt 23.7905 12.882 33.9073
Au 22.4803 12.3022 31.5185
Pt 21.2291 11.6869 29.1212
Pt 19.9743 11.2207 26.757
Pt 28.2985 14.7755 34.6641
Au 25.2762 12.1323 31.6318
Au 24.0829 11.4754 29.1769
Pt 22.7264 11.0541 26.8195
Pt 28.0348 11.9551 31.8425
Au 26.914 11.4431 29.341
Au 25.842 10.7028 26.8429
Au 29.7193 11.408 29.6296
Au 28.7253 10.817 27.1131
Pt 31.6126 11.1027 27.3416
Pt 23.5152 34.0384 13.6243
Au 22.0438 34.9063 15.8105
Pt 20.5472 35.7754 18.0358
Pt 19.0771 36.6766 20.2105
Pt 17.6537 37.54 22.4028
Au 26.3889 34.0085 13.6285
Pt 24.8915 35.0197 15.8285
Au 23.4519 35.9338 18.0688
Pt 21.9123 36.7626 20.2132
Au 20.4608 37.6307 22.4522
Pt 27.6748 35.0106 15.8156
Pt 26.2396 36.0315 18.0277
Pt 24.799 36.9604 20.237
Au 23.2902 37.7027 22.4733
Au 29.0742 35.9575 18.1125
Pt 27.595 36.9571 20.3149
Au 26.1836 37.7895 22.5372
Pt 30.3622 36.9476 20.4138
Pt 28.9684 37.8184 22.6185
Au 31.7698 37.7651 22.7292
Pt 23.2554 15.3289 13.4062
Pt 21.8586 14.3556 15.5436
Pt 20.3735 13.4457 17.703
Au 18.9651 12.5716 19.9187
Au 17.4532 11.7322 22.1228
Pt 26.1201 15.2254 13.4042
Pt 24.6593 14.2299 15.5546
Au 23.2156 13.2482 17.7321
Pt 21.7853 12.3413 19.9622
Pt 20.2981 11.4979 22.1529
Au 27.5328 14.2597 15.6202
Pt 26.0328 13.2727 17.8114
Au 24.6322 12.2417 20.0418
Pt 23.0844 11.3626 22.2151
Au 29.0368 13.3051 17.8934
Au 27.494 12.2628 20.141
Pt 25.885 11.2118 22.3466
Au 30.4474 12.2218 20.1974
Au 28.9664 11.191 22.382
Au 31.9649 11.1377 22.5155
Au 35.2024 15.4341 36.3249
Au 33.6606 29.1904 31.608
Pt 36.1626 15.5737 33.8892
Au 34.9767 31.7849 31.4966
Au 35.9986 13.0838 32.6367
Pt 34.0542 33.7812 29.8191
Pt 32.9562 13.3924 27.9993
Pt 33.0919 35.7739 28.1248
Pt 35.0998 19.8397 36.027
Au 33.4184 31.2288 33.7931
Au 34.495 13.1309 34.7791
Pt 32.4865 33.2141 31.9744
Pt 32.7066 15.5614 30.9195
Pt 31.5029 35.2097 30.3044
Pt 26.0986 10.9341 36.0962
Au 30.903 32.4736 34.2433
Au 32.8045 14.099 36.5733
Pt 29.9387 34.5229 32.4957
Pt 26.2728 13.9427 38.6883
Au 28.6511 31.9689 32.63
Pt 35.3806 20.6072 16.5625
Au 35.6001 28.5292 16.8362
Pt 34.4527 18.2494 17.9474
Au 34.7533 30.9137 18.1456
Pt 33.5974 15.9552 19.3025
Au 33.7976 33.2024 19.5416
Au 32.7097 13.6601 20.9285
Au 32.7593 35.5118 21.0935
Au 33.0508 19.3055 15.7922
Au 33.284 29.9092 15.9249
Pt 32.1891 16.9028 17.1715
Pt 32.4268 32.2579 17.3199
Pt 31.341 14.6543 18.5853
Au 31.4372 34.5394 18.7903
Pt 30.8177 17.8796 15.0217
Au 31.0057 31.2909 15.0719
Pt 29.9406 15.5503 16.3903
Au 30.032 33.6231 16.5295
Pt 28.5249 16.5688 14.2049
Pt 28.7544 32.6976 14.2674
Au 13.5944 20.2186 32.9146
Au 13.8381 28.8727 32.8536
Pt 14.3813 17.9842 31.3772
Au 14.6642 31.0934 31.3981
Au 15.3402 15.8295 29.7554
Au 15.5731 33.3236 30.0288
Pt 16.26 13.6365 28.2107
Au 16.5417 35.5485 28.5242
Au 15.7395 18.6935 34.0402
Au 15.9484 30.438 33.8669
Au 17.8275 16.9694 34.7892
Au 16.8802 32.6742 32.52
Au 17.5473 14.2427 30.6465
Au 17.831 34.9331 30.9903
Pt 16.491 17.1754 37.8288
Pt 18.2535 32.0037 35.0431
Pt 18.7549 14.7702 33.1237
Au 19.1026 34.2408 33.4288
Pt 19.1562 17.1285 37.109
Pt 20.4225 33.6793 35.7969
Pt 14.1808 20.9073 16.8541
Pt 14.2718 28.4643 16.941
Pt 14.9314 18.5907 18.1417
Pt 15.0931 30.77 18.2462
Pt 15.735 16.3087 19.441
Au 15.8695 33.07 19.5945
Au 16.5781 14.0427 20.7724
Au 16.7376 35.315 21.0527
Au 16.4518 19.5398 15.9441
Au 16.507 29.9074 16.0528
Pt 17.2082 17.2048 17.2555
Pt 17.3155 32.2222 17.4039
Pt 18.0774 14.8702 18.5432
Pt 18.1674 34.4636 18.8263
Au 18.7324 18.1109 15.0736
Au 18.8007 31.3197 15.1454
Pt 19.5069 15.7544 16.3268
Au 19.6185 33.5492 16.5947
Pt 20.9871 16.6774 14.1987
Au 21.1547 32.6532 14.3604
Pt 40.6585 24.3609 14.9716
Pt 42.5487 23.3439 19.0579
Pt 40.3824 23.267 20.6871
Pt 40.7148 23.2642 23.3946
Pt 40.969 23.2536 26.0832
Pt 39.1562 27.718 28.7475
Pt 39.6244 27.7828 31.3766
Au 37.1118 25.008 31.6899
Au 9.03634 24.7617 14.9412
Au 8.83956 24.7467 17.8013
Pt 8.6367 24.7554 20.5496
Pt 8.57584 24.7796 23.3125
Au 8.51557 24.7032 26.0969
Pt 8.51283 24.648 29.0446
Au 6.47982 25.1938 33.4844
Au 13.4961 24.7523 39.1662
Pt 14.8044 40.5848 24.4027
Au 17.5912 40.8545 24.4714
Pt 20.3538 40.9476 24.6412
Au 23.1717 40.9874 24.6642
Au 26.0225 41.0112 24.7323
Pt 28.8638 41.1138 24.7411
Au 31.6312 41.0241 24.7202
Au 34.4566 40.8806 24.7203
Au 14.3839 8.637 24.135
Pt 17.25 8.45568 24.0972
Au 19.9534 8.22552 24.2069
Pt 22.7803 8.2664 24.2987
Au 25.7578 8.22793 24.4511
Pt 29.0463 8.15211 24.2312
Pt 31.8552 8.67668 24.0866
Au 36.892 7.99554 25.3077
Au 24.7608 18.2548 41.963
Pt 25.6749 19.1565 39.4363
Au 27.3568 17.6833 41.1044
Pt 23.1302 21.7598 38.2571
Pt 22.6248 25.935 40.6017
Au 25.0087 32.2225 42.2536
Au 27.6239 28.1174 42.1905
Pt 25.5324 32.4241 39.3356
Pt 24.69 15.0998 8.93091
Pt 24.7445 17.8272 8.84121
Pt 24.7762 20.5857 8.69482
Au 24.7965 23.3464 8.76373
Pt 24.8737 26.1752 8.80313
Pt 24.9079 28.9005 8.84679
Pt 24.9069 31.6968 8.95693
Pt 24.87 34.4827 9.2032
Au 38.5891 24.4804 37.0785
Pt 32.6421 19.7382 37.1364
Au 36.4324 23.5637 38.8598
Pt 27.9179 24.8004 37.5944
Au 30.3771 9.83574 34.2435
Pt 25.7904 18.3176 36.7757
Au 36.3551 29.4822 32.2902
Au 40.4452 24.9772 35.0364
Pt 32.5545 24.4553 38.5624
Pt 31.6533 22.3129 37.3747
Pt 24.6225 24.1512 41.0231
Au 32.002 20.8886 39.8655
Pt 35.96 24.1928 36.3619
Pt 35.8765 28.5966 37.0995
Au 34.2764 28.1019 39.2982
Pt 30.0745 25.1864 39.3329
Au 29.0096 22.2262 41.6931
Pt 34.4971 30.847 36.3656
Pt 33.2917 28.4443 36.6241
Au 32.2388 26.2304 40.8988
Au 31.5595 23.526 41.0671
Pt 31.753 30.5914 36.1094
Pt 30.2904 29.6668 38.4572
Au 26.5468 22.9445 42.5495
Pt 29.4543 31.8939 36.6125
Pt 27.6788 28.8249 39.4217
Au 27.1272 31.2878 34.94
Pt 38.388 23.0515 14.158
Au 36.168 21.7415 13.0305
Pt 33.8616 20.2876 12.0212
Pt 31.6225 19.0366 11.1989
Au 29.2842 17.6985 10.4661
Pt 27.0127 16.3348 9.69259
Au 38.5992 25.9396 14.0115
Au 36.2825 24.5579 13.0064
Pt 34.0563 23.1564 11.9059
Pt 31.7437 21.7861 11.0918
Pt 29.4326 20.5085 10.3502
Au 27.0399 19.173 9.56253
Pt 36.2873 27.3996 13.1496
Au 34.0697 26.02 12.1097
Au 31.8239 24.6215 11.1901
Au 29.4606 23.3145 10.37
Au 27.1402 21.9285 9.51588
Au 34.0525 28.9313 12.2242
Au 31.7614 27.4871 11.3126
Pt 29.4686 26.136 10.3618
Pt 27.1817 24.7801 9.54432
Pt 31.8184 30.3069 11.451
Au 29.5233 28.9451 10.3738
Pt 27.2402 27.5118 9.49632
Au 29.4967 31.8235 10.5838
Au 27.2349 30.3759 9.57037
Pt 27.2202 33.184 9.86654
Au 7.58436 19.9552 32.9398
Au 8.79332 20.3657 35.3443
Au 12.898 16.6314 37.136
Au 14.3574 17.3172 39.4513
Au 21.8238 15.5988 40.779
Pt 19.2305 15.379 39.1806
Pt 17.9522 23.3333 39.2766
Au 13.5975 27.8441 39.0376
Pt 15.9063 19.5016 39.3924
Au 17.488 23.5998 41.9261
Au 16.8401 18.1775 41.5757
Pt 19.3946 19.4173 41.3492
Pt 11.4388 28.9706 34.0407
Pt 16.0476 24.6022 38.0367
Au 17.3409 28.1021 40.9764
Pt 19.5688 22.1008 40.9686
Pt 22.2843 22.7716 40.7331
Pt 14.6161 30.0027 37.4331
Au 16.1677 27.5329 38.2241
Pt 18.3239 26.0941 39.1997
Au 20.2745 23.7482 42.8614
Au 16.6733 33.0154 40.4194
Au 18.5322 29.1258 38.7807
Au 20.2458 27.7746 40.4967
Pt 21.2066 30.4389 40.0707
Au 24.077 26.6405 42.8261
Pt 22.9962 32.6554 40.4031
Au 11.1644 23.3341 13.8874
Pt 13.4291 21.9705 13.04
Au 15.6594 20.5447 12.2393
Au 17.9019 19.1363 11.3369
Pt 20.2067 17.7194 10.4411
Pt 22.402 16.3573 9.62144
Pt 11.2557 26.2101 14.0479
Au 13.4102 24.7309 13.0159
Pt 15.6805 23.3664 12.1266
Au 17.9402 21.962 11.2514
Au 20.149 20.5486 10.334
Au 22.4454 19.2045 9.5523
Au 13.3704 27.5978 13.1495
Au 15.6937 26.1467 12.1735
Pt 17.9527 24.7333 11.2584
Pt 20.2093 23.4035 10.3545
Pt 22.4784 21.9582 9.56514
Au 15.7245 29.0089 12.2546
Au 17.9722 27.5572 11.2461
Au 20.2339 26.1318 10.3536
Pt 22.4558 24.7829 9.50201
Au 17.9649 30.3781 11.4269
Au 20.2415 28.9999 10.401
Pt 22.6005 27.5019 9.59489
Au 20.299 31.8437 10.5556
Au 22.5707 30.368 9.59842
Pt 22.5857 33.1397 9.81554
Au 35.6332 38.8473 23.1191
Au 38.7187 36.7996 19.9542
Pt 37.472 34.3416 20.2088
Au 40.9236 32.404 19.8676
Pt 39.2523 29.6424 17.3946
Pt 39.9496 27.223 16.1234
Au 35.9655 38.7306 25.8646
Au 37.7742 39.0462 21.4304
Pt 37.8187 34.4491 22.9668
Au 41.84 30.0632 18.4594
Pt 40.7228 27.8535 21.6031
Pt 41.5543 25.5936 20.2691
Pt 36.9233 36.7072 27.3947
Pt 36.9329 36.6147 24.3864
Pt 38.9125 32.3635 24.3657
Pt 39.9168 30.1691 22.9119
Au 42.1542 25.7195 23.0874
Au 37.9649 34.5343 29.0055
Au 37.926 34.5473 25.9357
Au 41.236 32.6463 22.7886
Au 43.3251 28.1567 22.5981
Pt 39.4611 32.2535 29.9643
Pt 39.0439 32.4573 27.3039
Au 40.0645 30.2033 25.6968
Pt 40.386 27.5083 33.9053
Au 40.4091 30.1608 28.4568
Pt 36.9735 27.4611 30.5494
Pt 13.8516 38.5078 23.0088
Au 12.9737 36.2544 21.7607
Au 12.1277 33.8905 20.4519
Au 11.2326 31.6157 19.0616
Pt 10.4107 29.3133 17.736
Pt 9.79522 27.0795 16.3854
Au 13.7869 38.4503 25.9216
Pt 12.8395 36.2337 24.6023
Au 11.8852 33.9487 23.2796
Pt 11.0061 31.6173 21.9607
Au 10.2544 29.3623 20.5353
Pt 9.56781 27.0813 19.1788
Pt 12.7982 36.2734 27.4135
Au 11.8029 34.0307 26.0836
Au 10.8646 31.6902 24.755
Pt 10.0663 29.3921 23.3946
Pt 9.44446 27.092 21.9522
Au 11.7962 33.9954 28.8855