2057
Atoms. Timestep: 21391
Au 27.3131 16.2807 21.0067
Au 18.7844 21.6388 19.9043
Au 16.8044 20.2352 25.0245
Au 28.8092 21.0064 23.7094
Au 28.5301 23.344 27.7558
Pt 26.1196 35.919 30.454
Au 22.8533 28.2588 18.1097
Au 20.3968 24.3606 20.4994
Au 31.7225 25.4818 18.3301
Au 20.8967 17.372 19.0318
Au 19.9992 27.525 35.8966
Au 15.8377 27.0201 21.473
Au 25.0477 32.3986 31.8927
Au 33.546 28.5951 30.6273
Au 21.7966 27.4164 33.7135
Au 22.151 30.2704 20.1274
Pt 21.8074 25.7323 8.79397
Au 22.7706 32.8587 33.6691
Au 23.9897 23.6115 28.3595
Pt 13.0172 28.7435 17.7631
Pt 15.8235 35.85 24.4868
Au 29.0246 23.0664 21.7265
Au 31.2235 19.4026 28.3178
Au 21.6299 31.6124 22.648
Au 20.4014 15.6959 25.1229
Au 18.4807 17.8447 25.7895
Au 15.897 25.378 26.02
Au 22.0118 24.6324 33.3549
Au 25.0094 25.8568 19.4171
Au 16.033 31.9053 22.3197
Pt 25.1666 38.1831 28.9836
Au 26.9065 21.7929 25.4261
Au 24.5747 27.3042 34.5587
Au 25.9851 36.2434 9.35035
Au 22.2468 33.0081 19.5806
Au 26.4178 29.0212 20.9147
Au 18.5544 24.0816 26.9868
Au 27.7132 26.4252 5.60671
Au 24.6482 32.7408 20.7373
Au 29.0901 20.6084 32.1004
Pt 33.9235 33.7125 28.6466
Au 17.9839 28.1114 19.695
Au 29.5137 18.5874 24.6588
Pt 32.8838 28.5573 13.8136
Au 26.7708 26.4715 24.7498
Au 18.1797 27.373 31.1445
Au 19.9333 31.6719 18.7504
Au 22.4314 31.5563 28.777
Pt 20.5278 35.1104 29.7634
Au 26.9053 19.0324 25.449
Pt 18.7208 12.605 24.3873
Au 19.7507 30.713 15.9284
Pt 23.144 36.7458 26.3362
Pt 12.6708 28.1428 14.946
Au 23.6004 14.2016 22.5875
Pt 27.9818 16.6517 17.9212
Au 28.7305 39.0221 12.4007
Au 31.5524 19.4512 31.3642
Au 31.1322 23.3916 26.9342
Pt 14.5301 27.6277 12.8986
Au 13.7167 27.0444 19.7256
Au 14.4323 29.3015 22.3037
Au 15.7849 26.8458 29.8197
Au 16.0011 26.6853 8.5178
Pt 7.46594 24.4191 19.4084
Pt 24.9747 35.7568 27.9521
Pt 18.032 34.6783 25.7785
Au 24.3272 17.9043 25.5821
Au 22.3178 31.1603 17.4471
Au 31.5299 21.9158 23.0054
Au 26.5489 21.7578 14.0515
Au 15.8563 21.5571 29.3786
Au 26.1022 24.1781 26.3243
Au 15.4644 28.0686 27.2342
Au 22.4592 23.5668 30.7658
Au 32.8173 22.7934 17.6616
Au 17.0954 35.1907 13.9911
Au 23.0052 31.7952 7.25268
Au 20.7008 30.6743 11.0208
Au 27.6661 26.6551 19.9937
Au 25.9014 31.3326 24.9738
Pt 35.9015 25.2598 35.9911
Pt 34.3235 25.6576 30.2113
Au 25.0575 23.6482 21.3849
Au 29.3571 26.9853 17.9045
Au 26.2394 28.0714 18.1388
Au 26.4776 27.2822 15.4386
Au 21.4374 31.2032 13.7728
Au 27.6452 38.3383 15.2532
Au 16.2064 30.4148 24.5822
Pt 21.8543 16.8658 29.5771
Au 23.031 25.5797 21.4164
Au 24.3008 22.7472 33.8018
Au 21.801 26.3769 28.2447
Au 21.7148 36.1398 12.4496
Pt 26.7848 23.4257 9.4002
Pt 10.3673 28.3843 16.9317
Au 23.4378 34.0808 11.3848
Au 24.7126 30.3659 19.1007
Au 20.3873 29.0001 31.805
Au 24.5541 35.1641 22.0585
Au 26.9466 22.0192 33.0956
Au 28.4808 32.3369 25.4837
Pt 30.8294 12.172 16.52
Au 17.5759 30.1653 17.861
Au 18.0726 30.7166 10.1247
Pt 20.7794 34.5206 35.1596
Au 15.486 31.5811 31.2452
Au 20.5388 30.2207 25.0135
Au 25.1389 16.981 22.665
Au 22.0952 29.1575 15.5059
Au 24.0453 18.5164 30.3483
Au 22.2411 18.9823 22.4127
Pt 32.9016 24.6173 32.1985
Au 21.8802 34.4702 22.0828
Au 18.5448 25.8689 24.8595
Pt 9.08069 20.1437 31.8115
Au 27.0963 25.2919 17.4009
Au 23.369 37.8332 17.5517
Pt 12.2951 27.509 21.9557
Au 20.7227 35.2403 19.4279
Au 25.1427 22.9207 31.0289
Au 24.0582 25.9211 26.7642
Au 25.7948 29.7325 32.5318
Au 28.449 15.1886 28.5896
Au 21.1684 25.1387 25.7406
Au 31.8493 22.1455 31.7058
Au 18.1246 21.3998 22.5873
Au 29.8291 18.1823 33.4176
Au 23.3477 38.4006 12.7037
Pt 30.3527 36.3661 27.2877
Au 20.5881 30.4024 8.25723
Au 13.8842 29.0874 24.9812
Au 30.6698 29.4541 17.4552
Pt 28.6892 23.3277 12.2559
Pt 32.1831 20.6319 13.3492
Pt 32.7945 20.2437 16.1924
Pt 21.7986 10.3137 18.1034
Au 25.7544 24.4697 15.0785
Au 32.8096 17.6164 29.8586
Au 28.5447 19.7614 29.4584
Au 24.2468 26.4396 16.6677
Au 26.125 26.1128 22.0458
Au 29.9185 20.4207 21.2696
Au 18.0788 30.6059 31.7557
Au 20.948 26.7691 16.3423
Au 27.408 40.6162 19.1301
Pt 29.2006 31.9488 15.7025
Au 29.9038 25.3053 20.3079
Pt 29.4433 14.3252 17.2065
Pt 33.3316 29.6001 34.6027
Pt 31.1269 20.6196 33.9652
Au 15.535 22.5285 19.5727
Pt 13.3716 24.2343 18.8501
Au 22.1772 25.4862 18.5916
Pt 20.8836 19.0703 33.9582
Pt 13.2586 23.1206 35.965
Au 28.6154 35.3817 9.53899
Au 24.6675 33.5748 26.2211
Pt 27.4966 36.9158 27.8032
Pt 21.7406 39.5057 33.8846
Au 29.0672 26.0926 15.4692
Au 22.6112 24.3284 16.0827
Pt 16.2937 15.9209 13.8175
Pt 19.2024 13.1074 21.422
Pt 35.9135 16.3997 21.6511
Pt 30.6818 12.7211 24.5734
Au 24.3206 25.1763 24.0724
Au 27.8029 29.7247 26.1166
Pt 22.9334 29.0378 38.8207
Au 24.3121 30.4022 22.0505
Au 21.4103 26.3508 31.1142
Au 18.7487 30.7982 13.0653
Pt 24.8238 22.2477 7.70981
Au 28.2675 40.5468 16.5979
Au 35.6646 32.1868 12.7463
Au 23.3263 23.5405 5.69239
Pt 38.8867 19.0988 32.4972
Au 29.7541 17.4098 30.2628
Au 24.7563 22.3616 23.8256
Au 22.5394 27.4216 25.0247
Au 24.4895 27.8644 23.2353
Au 18.3198 33.9407 18.8479
Au 26.9786 30.9908 17.3182
Au 28.8962 25.2534 34.8843
Pt 33.5361 25.2415 34.8139
Pt 40.0834 28.0433 19.3659
Pt 26.1492 12.5348 16.2971
Pt 30.7062 13.9186 14.0682
Pt 37.38 19.2946 16.408
Au 24.7162 29.5167 16.4507
Au 40.9414 24.0719 14.4048
Pt 34.3514 26.2461 13.5641
Au 24.7114 23.7681 17.7898
Pt 33.2937 24.2402 12.5388
Pt 14.3964 19.1509 29.2059
Pt 19.1977 17.0207 30.3193
Au 21.8304 28.8007 22.6364
Pt 13.8295 24.6022 33.7797
Pt 19.0005 36.4569 36.0892
Pt 13.7733 27.8427 36.7602
Pt 12.5938 31.4773 30.8385
Pt 15.9688 22.7357 36.2995
Pt 9.6489 31.2132 23.8484
Au 19.1119 35.4409 11.8785
Pt 20.5927 26.57 12.2418
Pt 19.6594 23.9819 9.03141
Pt 18.9487 25.875 14.3787
Pt 24.1492 23.4531 10.2394
Au 24.3449 29.2612 13.8062
Au 18.2841 28.4586 8.6166
Au 16.2106 32.4263 13.9203
Au 24.9995 41.6184 19.4335
Au 27.6178 31.1848 8.57273
Au 31.7739 29.9541 21.8673
Au 28.4202 29.1513 15.9143
Au 27.971 38.1237 9.84659
Au 31.1973 20.6611 18.4864
Pt 37.3579 28.1153 14.2586
Au 29.4035 27.8477 24.7217
Au 29.5995 23.3946 24.6192
Au 31.6875 28.8632 28.5154
Au 17.892 29.139 26.3404
Au 19.8955 30.4697 27.7514
Au 22.7407 29.0817 6.84971
Pt 13.7897 30.9123 33.2439
Au 26.996 35.6132 14.343
Au 20.8112 33.3076 11.9964
Au 19.6328 33.0929 21.3476
Au 20.0759 33.215 27.6176
Au 17.1604 29.3115 22.0416
Au 34.0677 18.8056 27.7253
Pt 28.4361 15.4381 13.6399
Au 33.0612 26.3936 20.8044
Au 22.3652 20.914 24.2748
Au 24.4706 16.306 28.7098
Pt 35.5815 23.6423 16.9047
Au 31.0747 16.2419 27.9658
Au 26.2575 21.8668 28.1675
Pt 33.3721 14.9712 30.5076
Au 25.5571 18.9925 20.653
Au 20.9357 27.3187 20.3809
Pt 13.6253 16.1568 24.7332
Au 23.9932 18.8254 18.3475
Au 6.81748 17.5034 20.4693
Au 27.7485 29.0581 6.6964
Au 20.3048 22.6172 25.2555
Au 18.613 31.3378 23.3001
Au 22.7134 26.7638 14.1745
Au 18.0541 31.9641 26.0767
Au 25.3233 31.8978 34.7138
Au 15.698 28.8037 32.1005
Au 25.1663 13.672 27.2918
Au 27.9305 22.7052 35.6484
Au 24.7466 30.3756 30.0381
Pt 26.6285 34.457 32.871
Au 29.329 30.7177 28.4388
Au 19.4568 25.3099 29.4578
Pt 24.0822 23.1455 41.2135
Au 23.9805 7.00461 24.0245
Au 17.8171 23.4894 18.1085
Au 27.5605 18.2051 31.9718
Pt 36.4304 16.1686 27.2358
Au 27.6032 12.497 28.4681
Pt 28.0999 12.3397 23.8116
Au 22.463 14.9042 19.2482
Pt 29.8391 11.5617 33.3913
Au 23.9474 20.8379 5.49309
Au 17.5122 23.8494 20.9852
Au 23.7097 31.8588 15.2474
Au 20.1296 33.2105 24.5506
Au 22.2297 32.1464 26.0894
Au 30.1674 37.0714 11.1051
Au 31.2303 24.4279 15.8452
Au 26.0898 39.1538 13.1416
Pt 25.4988 38.0867 26.3446
Au 10.4261 20.7382 10.9218
Au 23.1125 23.2091 25.8769
Pt 14.0631 14.8433 17.1555
Pt 31.0829 9.94458 20.6192
Pt 20.3978 15.0653 17.2169
Au 29.4482 23.6235 17.9029
Pt 26.6761 8.52629 20.5069
Au 26.5411 16.4913 26.8549
Au 22.8216 13.6446 25.4499
Pt 38.0342 20.478 26.1851
Au 22.3142 29.2034 27.0749
Pt 24.6103 17.6174 35.0018
Pt 23.744 30.6758 36.7395
Au 26.1401 20.375 30.5365
Au 28.8351 25.8892 29.3265
Pt 29.8795 28.1305 13.8892
Pt 34.8154 18.2737 23.3594
Au 22.8692 34.9979 17.6218
Au 26.5933 34.1172 24.0092
Au 28.8922 17.8656 27.3317
Au 25.6742 39.4513 17.2117
Pt 19.1474 14.9328 32.4509
Pt 9.00403 29.7708 29.056
Pt 12.4411 13.7824 24.0412
Pt 11.9666 34.0535 28.0218
Pt 12.0018 22.2996 25.6865
Pt 13.163 29.7642 27.5111
Pt 22.0637 28.7706 12.3636
Pt 17.035 30.0174 14.9987
Pt 16.9669 25.0991 12.7686
Au 18.5271 39.4964 18.2421
Pt 15.1575 25.4452 14.5428
Au 21.1764 28.1755 9.80372
Pt 33.2793 22.6574 14.9641
Pt 38.0934 24.5081 16.8815
Au 35.885 24.599 25.1758
Au 33.2673 21.6981 27.2536
Pt 38.3865 15.5477 21.3198
Pt 36.4173 20.6419 32.6886
Pt 10.984 16.1284 23.9044
Au 25.4655 21.4547 19.2702
Au 14.502 24.5728 21.3405
Pt 11.7338 19.5715 26.5796
Pt 14.9882 17.1862 32.1569
Au 13.6912 11.9284 31.5018
Au 23.996 34.4376 8.71774
Au 24.3902 20.7181 26.2181
Pt 24.7992 36.422 24.3588
Pt 29.9882 38.596 31.456
Au 22.2037 28.9065 29.7907
Au 23.2313 36.5225 20.0176
Pt 19.0659 14.8767 19.4494
Pt 18.224 13.3068 17.1944
Pt 9.53539 17.4242 19.8009
Au 29.0291 7.39149 24.4539
Au 29.8172 6.62835 26.9396
Au 27.6019 14.0444 25.8257
Au 20.831 12.8009 38.2675
Pt 25.2855 28.4503 37.5125
Au 22.1932 36.4 39.5556
Pt 14.8222 23.4225 31.6295
Au 26.1913 24.6723 34.6234
Au 27.3634 24.6691 31.9738
Au 27.2653 6.25693 19.3575
Pt 18.3107 15.4321 15.5381
Pt 31.7561 21.2572 8.68985
Au 23.2436 29.975 9.35556
Pt 29.9982 17.5878 10.108
Pt 26.6929 26.3997 8.14096
Pt 35.5283 25.1637 32.9626
Au 39.2447 12.8361 30.5936
Au 27.4735 18.8414 22.6084
Au 16.4028 27.9527 35.5141
Au 25.2091 28.4901 25.9023
Pt 35.1316 22.964 34.2677
Au 29.3316 27.935 27.5005
Au 31.3507 26.0261 27.9502
Pt 37.2604 23.1584 32.5024
Au 21.1481 23.5364 28.0923
Au 22.5307 30.7751 31.8006
Au 23.2024 14.7952 30.7676
Au 34.1545 28.3566 40.0392
Au 24.5814 25.3309 32.5037
Pt 38.1314 27.4897 17.0889
Au 22.1495 32.5432 9.56956
Au 19.7072 19.4082 21.1896
Au 26.7921 19.2553 17.8379
Au 43.7585 25.4936 19.7641
Pt 27.2769 27.4652 10.8774
Au 28.1427 25.8855 12.9993
Pt 30.8699 19.9349 11.0887
Pt 33.7651 25.3649 16.0982
Au 26.6275 21.3922 5.83493
Pt 28.5014 25.1923 10.1967
Au 24.0651 32.7746 23.4879
Au 34.1015 34.3014 13.4363
Au 23.1391 40.6041 17.6589
Pt 12.2717 15.6807 30.8852
Pt 14.5056 24.2064 38.1577
Au 30.5083 21.8403 29.2384
Au 17.1417 21.8496 31.8426
Au 19.4107 23.9068 23.0181
Pt 13.7245 24.1092 27.0513
Pt 20.2847 21.1572 35.6656
Au 16.0997 24.3122 28.6745
Au 19.7367 28.116 29.0764
Au 18.4636 22.6732 29.3228
Au 19.8587 23.4653 31.6145
Au 13.8463 29.0058 39.3134
Pt 16.0467 29.5289 37.7199
Pt 17.2125 31.9717 37.5612
Au 14.2273 19.8898 19.4257
Pt 19.869 28.4603 14.0427
Au 22.6354 16.5074 23.7145
Au 23.0809 39.5015 15.1745
Pt 11.5536 26.311 18.1712
Au 21.2153 35.1012 9.92284
Au 25.3713 38.4475 10.7496
Pt 16.5918 27.1721 11.1064
Pt 11.601 24.0058 16.9101
Au 19.7833 35.94 14.4864
Au 20.746 22.4768 18.2297
Pt 26.4356 37.1164 22.0796
Pt 22.2767 23.1986 8.19629
Au 35.7983 24.4995 8.735
Pt 31.6708 37.5844 29.7837
Pt 35.7629 29.2213 17.5242
Pt 30.8393 24.7682 11.2928
Au 29.0309 28.4168 21.8119
Au 31.4895 25.4522 25.0716
Au 25.4483 35.0182 19.3483
Au 26.9332 32.023 27.9134
Pt 32.6694 27.1039 11.3998
Pt 35.6835 32.9101 30.3722
Pt 38.6687 19.7335 21.1775
Au 30.6778 30.1953 26.1084
Au 28.0114 22.5085 30.369
Pt 36.9667 27.1441 34.2054
Au 33.6574 24.8419 26.9159
Pt 12.2925 36.7083 27.5352
Au 13.6986 29.8986 11.4149
Pt 9.97446 24.2552 19.0545
Pt 15.5766 34.091 16.382
Pt 18.8668 28.509 11.5254
Pt 13.4999 24.7629 29.5435
Au 20.1341 32.4143 32.991
Pt 13.2966 26.7816 26.3582
Pt 10.6636 28.1158 19.765
Au 22.5529 34.3989 27.943
Au 15.7966 27.8794 18.0312
Pt 9.61039 25.5002 32.1285
Au 17.4683 22.9458 24.7357
Au 18.7202 21.0803 27.0217
Pt 32.1229 16.521 23.5793
Au 27.0221 23.8574 23.5347
Pt 35.5045 23.6994 14.1288
Pt 36.8939 21.7987 12.712
Pt 38.3415 17.7931 25.6046
Au 20.9286 15.6008 21.4138
Pt 35.1543 14.6999 17.8836
Au 29.5818 31.3154 21.022
Pt 28.6278 12.7775 31.1521
Au 33.6362 20.0727 25.0263
Pt 40.1907 18.1843 28.4141
Pt 38.4838 17.1531 30.3112
Au 24.9219 19.6229 23.5117
Pt 31.8729 10.1266 29.1238
Pt 16.4472 10.9734 24.0434
Pt 11.3217 14.9346 28.3897
Pt 17.9186 14.9577 25.9259
Pt 9.45146 19.8227 18.5245
Pt 21.8042 12.7238 20.9812
Pt 18.342 13.6784 28.5302
Au 6.61495 19.4449 31.3176
Au 19.5666 19.6055 18.0695
Au 16.3781 27.6341 24.3217
Au 6.08179 17.4637 23.3284
Au 5.8043 20.0565 24.7442
Pt 16.0048 12.8444 30.3215
Pt 11.8362 24.9322 25.2318
Au 16.4505 24.9486 23.2628
Pt 23.6642 40.3569 32.2477
Au 26.9157 27.1594 33.2997
Au 18.4474 28.4783 33.7207
Au 22.4225 33.4001 30.7908
Pt 25.2738 38.13 31.6477
Au 23.9606 25.8173 29.9381
Pt 18.3617 29.882 36.2119
Au 15.6865 30.861 27.3188
Pt 28.4506 30.8278 35.1988
Pt 22.4726 31.8822 38.6842
Pt 28.4907 29.4285 32.8253
Au 31.7907 31.9277 27.9933
Au 29.5241 30.4651 23.6402
Au 28.9275 25.5047 26.218
Au 21.4655 18.3923 25.5145
Pt 21.2507 12.4031 35.5196
Au 19.9185 16.0348 27.7398
Pt 22.0246 9.70927 30.3125
Au 19.649 20.0864 24.3722
Pt 23.5564 15.5977 33.2987
Au 20.9466 21.3552 29.858
Pt 24.3996 11.6142 21.2556
Pt 26.2067 15.5953 34.0313
Au 28.2289 6.48325 21.9226
Au 22.2506 23.6117 23.1778
Pt 31.8604 11.731 26.7923
Pt 30.1229 13.8124 26.9926
Pt 36.5819 12.3276 30.0893
Pt 28.0173 36.2849 19.9834
Au 28.9478 43.6042 26.4721
Pt 16.6403 37.3007 20.6035
Pt 12.0607 30.4821 15.9568
Au 20.5325 33.6294 16.7923
Pt 28.4792 40.8129 22.4238
Pt 28.4526 38.7454 20.7654
Pt 30.5237 37.3495 24.1796
Au 17.7097 31.9682 29.0262
Au 20.7862 38.3975 13.9573
Au 33.8282 29.9118 27.0588
Au 23.362 30.163 24.6039
Au 23.4604 29.8384 34.1864
Au 24.5331 34.7595 15.518
Pt 18.3795 17.7329 13.9306
Au 25.0666 14.1978 20.3461
Pt 17.544 18.4759 23.1231
Pt 18.6783 15.1367 23.0433
Au 27.717 7.77754 14.7408
Pt 21.9773 19.1891 16.6592
Au 26.1025 14.4453 29.8936
Pt 18.8036 9.86571 24.4008
Au 26.8085 33.7528 8.37036
Pt 21.7673 15.138 12.0597
Pt 23.3546 12.3522 18.899
Au 25.4307 16.6059 19.0333
Au 28.8274 20.6632 26.944
Au 28.4349 21.2662 19.0629
Pt 35.1082 23.2852 28.6193
Pt 38.3903 29.5619 28.9986
Au 31.6273 26.6478 30.6728
Pt 32.0939 33.0814 31.5688
Pt 40.2154 26.6686 24.9355
Au 34.7381 21.4703 22.8619
Au 39.1676 16.9339 34.2375
Pt 35.8148 27.3606 31.6267
Au 29.9637 15.838 25.2255
Pt 28.1039 35.4746 34.9452
Au 29.6795 23.071 33.4148
Au 29.2261 28.5837 30.2703
Au 24.7295 28.6262 11.2014
Au 19.1947 41.2489 21.0308
Pt 34.8404 18.4031 16.7448
Pt 34.58 38.0927 26.4319
Pt 34.115 16.9301 25.5136
Au 22.4622 36.6666 15.124
Pt 32.4134 14.7071 25.8177
Au 26.4172 30.9865 11.6423
Pt 25.3058 17.0955 16.3872
Au 31.2317 32.564 24.7553
Au 26.4933 14.3807 22.7863
Pt 25.4333 25.7423 10.3319
Au 20.111 27.6337 26.3353
Pt 12.9071 28.6275 31.9283
Au 18.2985 17.2715 20.641
Pt 14.653 34.2386 22.731
Pt 19.1369 11.145 26.9971
Au 20.9559 26.1895 23.1111
Au 23.7621 21.1016 21.507
Pt 18.7049 34.8581 33.7146
Au 21.5791 20.9442 27.0463
Au 16.4737 26.3801 33.1859
Au 15.8953 22.259 26.7416
Pt 19.1413 39.1687 32.8209
Au 25.2787 26.5709 13.0355
Pt 16.3341 29.697 12.3208
Au 24.9747 15.2912 24.9658
Pt 16.0312 35.5984 18.4864
Au 21.9016 20.1192 19.6144
Pt 16.3329 34.2113 20.7099
Au 18.4225 28.037 16.3234
Au 12.8901 34.9654 16.356
Au 23.2646 21.4403 17.5162
Au 26.9794 33.5381 16.1339
Pt 24.0738 10.9792 16.8426
Pt 29.4987 36.9285 13.9829
Au 43.7336 20.6947 22.8984
Pt 37.651 17.9182 22.7971
Pt 37.2112 21.8715 15.4289
Au 19.4251 25.8672 33.1847
Pt 37.5916 22.0279 18.1095
Pt 36.7098 24.734 30.3712
Pt 33.7814 30.8851 32.2364
Au 13.6911 32.4371 12.6794
Pt 8.3559 21.5103 22.6852
Au 13.9528 26.2361 23.714
Au 10.3391 13.3801 19.9331
Au 23.827 28.0363 20.5867
Pt 11.6554 23.1429 28.2865
Pt 16.0695 24.3135 40.4325
Pt 12.1392 36.1099 30.0816
Pt 14.1172 37.584 25.8304
Au 20.8053 39.1153 16.5864
Au 29.792 32.7072 30.3786
Pt 34.334 32.4681 26.2299
Pt 29.5744 34.9269 25.1959
Au 40.0296 34.6806 28.0292
Pt 16.6962 13.2116 22.7424
Pt 25.6126 8.64121 26.1512
Pt 17.5855 10.9947 29.1763
Pt 28.8219 9.23409 22.2492
Au 21.5961 6.47043 25.5582
Au 25.2436 12.9414 10.0232
Pt 35.735 17.0356 19.1279
Au 20.0591 18.7832 28.1646
Pt 32.937 20.7673 35.9251
Pt 17.7408 21.2552 34.6058
Au 19.1416 28.3437 23.6694
Pt 24.8804 30.807 39.4561
Pt 29.6839 26.7456 37.2103
Pt 15.6176 32.5105 35.4997
Au 19.1582 25.9573 18.5177
Pt 24.4508 24.8843 7.93459
Au 23.9819 22.2331 14.9542
Au 27.0379 11.0369 11.1649
Pt 33.2277 24.6533 9.93376
Pt 28.8615 30.7371 13.2268
Au 32.5989 39.0177 15.5725
Pt 35.6611 17.1047 29.6902
Au 16.6555 19.8349 20.8864
Pt 30.5811 14.762 30.2206
Au 23.6715 21.0333 29.0308
Au 25.3955 19.5728 32.9741
Pt 30.3978 19.5502 40.3202
Pt 36.7485 22.7839 36.3894
Pt 26.4605 30.7957 37.1784
Au 20.6657 30.0478 34.443
Au 42.5934 23.1416 26.9179
Au 27.6883 24.5066 37.6594
Pt 27.5137 38.2431 30.2236
Au 26.7386 26.7111 27.5382
Au 24.6789 32.3028 41.5879
Au 30.1961 24.2368 30.9791
Pt 35.7063 29.3333 33.3353
Pt 31.2124 25.9018 33.7394
Au 26.4182 24.6098 29.253
Au 27.0449 26.8748 36.179
Pt 17.9202 27.5556 37.7214
Au 39.6935 21.6122 13.5332
Au 41.512 21.1404 17.7779
Au 26.8479 22.2735 16.9536
Pt 30.2015 15.4435 11.7407
Au 26.1511 23.9791 12.2408
Au 26.0916 36.4834 17.2303
Au 22.0636 33.9989 14.3829
Pt 30.6162 19.1067 14.8788
Au 25.7844 19.0926 27.9789
Pt 30.9987 23.1339 13.4992
Pt 36.9951 25.9439 12.7728
Au 37.3622 17.4766 12.1262
Au 39.8554 25.3762 12.3015
Pt 17.3288 23.6452 15.022
Pt 34.4252 22.2326 9.75521
Pt 35.3971 19.3009 12.2186
Pt 34.3307 21.8105 12.3792
Pt 30.9668 23.7317 8.75754
Au 18.2757 37.847 15.9872
Pt 31.9822 22.3741 11.0779
Pt 12.7754 20.6021 35.7701
Pt 20.8339 23.1965 37.9741
Pt 25.3137 23.0785 36.6432
Au 27.4333 19.2127 41.916
Pt 16.591 17.6616 37.4351
Au 8.65771 23.1222 35.1046
Pt 14.132 27.3896 34.1339
Pt 18.0532 20.3286 37.1073
Pt 19.0421 16.2611 37.2576
Pt 30.5488 22.1935 36.1223
Au 10.1623 24.8334 36.8862
Pt 22.9777 37.4744 32.7095
Pt 15.2116 17.7155 34.8467
Pt 16.1261 19.7561 38.9228
Au 8.30581 34.328 26.2475
Pt 21.4037 34.3542 37.8405
Pt 15.0446 21.7219 33.9816
Pt 20.8821 24.8792 35.8564
Au 19.8425 20.4293 42.1509
Pt 19.4253 23.3452 34.2814
Pt 12.4462 23.8981 22.9104
Au 18.3264 25.7092 7.40981
Pt 16.0351 21.4044 15.6215
Au 16.1397 23.9839 7.61133
Pt 17.323 22.4616 11.8966
Pt 12.7796 23.2311 12.4885
Pt 21.0656 24.4574 13.8612
Pt 19.7319 22.0004 10.9269
Pt 19.1189 26.3486 9.98537
Pt 25.8686 16.5621 13.5417
Au 9.97782 26.1213 12.9338
Au 8.20989 24.3802 13.8249
Au 29.8655 41.2523 19.9506
Pt 15.2737 22.8816 13.3825
Au 17.1495 15.3463 11.2366
Pt 16.9684 24.6415 10.1154
Pt 28.3216 19.4938 10.9071
Pt 14.3519 30.1542 14.1275
Au 22.8766 26.3648 6.24834
Au 22.5247 41.9879 20.3082
Au 40.3158 34.9033 21.0162
Au 33.9185 25.5965 23.4048
Au 30.9892 27.9411 19.9361
Pt 32.7681 34.3027 17.95
Pt 34.3925 33.5041 20.027
Pt 35.4377 37.0612 21.3386
Pt 33.51 27.5578 18.0193
Pt 36.2404 25.6666 27.7023
Au 31.3741 24.5748 22.4991
Pt 35.93 26.3829 17.9631
Au 31.2464 28.7187 32.8685
Au 34.7234 27.215 25.5942
Au 31.0887 20.9098 25.5528
Au 28.5187 29.3846 19.1658
Pt 35.8447 29.675 24.9525
Au 24.7805 33.3188 29.236
Pt 37.8958 34.4519 22.599
Pt 39.2534 32.4043 21.1238
Au 25.0788 33.1697 13.3488
Au 22.5803 15.9884 26.8343
Au 24.7343 32.7988 17.7544
Au 6.01745 24.2037 26.1996
Au 15.6187 34.3002 11.8691
Au 6.33895 26.8068 19.4033
Pt 11.528 21.5468 15.9107
Pt 9.87048 31.4983 30.7104
Au 9.30412 30.8072 16.1645
Au 17.6353 31.5291 20.2487
Au 7.37385 27.1871 22.9482
Pt 11.3822 32.713 19.7363
Pt 9.54769 26.3784 25.7417
Au 11.218 35.2769 18.592
Pt 9.41366 27.137 29.2937
Au 18.5579 26.3569 21.7351
Pt 13.2608 27.3897 28.8849
Au 16.7698 20.5474 18.1918
Au 17.2967 24.6458 31.1666
Au 17.762 26.6438 27.7337
Au 19.7113 29.8418 21.1364
Au 10.1694 19.1122 36.1709
Pt 37.0628 12.7552 27.4598
Au 31.6941 27.3469 15.9982
Au 27.2081 36.7971 11.9412
Au 31.8738 19.1086 23.08
Au 27.177 28.6963 13.1985
Au 29.3636 14.6183 22.7282
Au 36.2794 23.8816 22.4594
Au 39.0798 12.7273 23.3817
Au 28.5317 23.4421 15.028
Au 24.4399 28.0449 28.5405
Pt 34.6382 19.1008 31.3593
Pt 34.6134 12.7954 22.0729
Pt 35.6419 21.855 25.7483
Au 31.2879 18.3823 19.9828
Pt 28.2153 8.71973 26.7035
Au 30.8943 11.0332 14.1206
Pt 38.3331 21.5022 34.265
Pt 34.0339 11.5015 29.5868
Au 40.2579 23.3715 33.5329
Pt 38.5209 24.9178 26.2445
Au 16.3547 13.0696 36.1492
Pt 14.0497 20.747 24.922
Pt 8.59247 19.5057 21.0753
Au 9.3329 15.285 17.8505
Au 9.6341 13.9915 22.8885
Pt 21.1782 16.5486 32.2349
Pt 13.6071 13.7867 29.3286
Pt 10.1247 21.9588 30.1004
Pt 9.72917 19.6127 15.9218
Pt 9.517 17.8632 25.328
Pt 16.9802 12.5938 26.3832
Pt 12.3281 17.427 28.7866
Au 9.47257 15.4429 30.3029
Pt 15.1324 14.0164 25.1549
Pt 13.5911 21.2399 27.6393
Au 7.68464 17.4879 29.5593
Pt 13.1722 22.1765 20.8232
Au 17.5074 19.2937 41.0916
Pt 11.11 24.0933 34.3936
Au 8.25349 19.2474 34.2426
Pt 18.5053 29.9914 38.9819
Au 23.7165 38.3012 38.2159
Au 19.9263 39.0459 35.8731
Au 22.6828 28.0389 36.3317
Pt 16.4894 38.1828 31.9699
Pt 26.6293 35.2292 37.7836
Pt 16.7493 22.2928 38.8128
Au 10.692 36.4624 22.9078
Pt 20.5056 37.1114 33.9359
Pt 18.3423 39.038 30.2742
Pt 29.2438 34.4827 37.6266
Pt 23.0635 35.6393 34.676
Au 27.5618 30.914 30.6894
Pt 27.5936 32.0833 33.1345
Pt 31.7376 33.6494 36.7322
Pt 34.6496 35.2323 26.4977
Au 27.3315 33.655 30.2269
Pt 34.4607 35.9889 33.4525
Au 31.6209 39.6313 33.6906
Pt 35.9254 29.8515 30.4337
Pt 25.8172 19.9258 39.8758
Au 23.186 20.864 31.7326
Pt 27.2621 11.0981 33.1335
Pt 21.9559 10.7539 32.9266
Pt 17.7017 10.8241 21.7883
Pt 20.1797 18.6589 36.4766
Pt 14.8673 15.0186 34.2893
Au 22.906 18.6587 27.8471
Pt 20.4787 11.96 29.3244
Pt 24.694 9.50989 30.9329
Pt 32.4113 16.5169 37.3732
Au 22.6121 13.4021 28.3706
Au 25.334 12.476 24.2434
Pt 25.4235 13.6617 32.3686
Pt 29.0959 10.08 28.7647
Au 37.055 11.5643 21.7512
Au 26.5742 6.27179 25.1781
Au 25.9897 9.87733 35.3459
Au 29.0143 7.51509 29.3877
Pt 27.701 12.9579 20.8549
Pt 28.6464 35.9739 16.5853
Au 23.7591 42.9487 24.4591
Pt 25.9235 39.9124 21.3925
Pt 17.6182 37.0759 23.114
Pt 13.2487 36.3291 23.5511
Au 33.0187 30.4871 24.403
Pt 23.864 38.0368 22.28
Au 20.7534 40.7301 18.8945
Pt 18.0801 35.237 16.5416
Au 25.0267 32.0411 9.50463
Pt 27.1411 34.1461 21.3294
Pt 35.082 36.8618 24.1735
Pt 20.5449 35.733 26.423
Au 22.5178 34.6191 24.7738
Au 24.9899 37.6422 15.0345
Pt 24.1263 34.9599 32.3552
Au 26.4143 31.0043 14.6479
Pt 36.5995 33.7555 27.6094
Pt 21.8165 37.0777 28.4774
Au 26.904 29.2256 28.636
Pt 23.73 16.9457 11.9406
Pt 14.5733 25.1576 11.7134
Pt 18.3228 16.9313 17.8821
Au 24.4071 9.54869 19.1191
Au 19.1754 6.80681 27.7411
Pt 26.8833 11.2841 13.7882
Pt 16.3992 17.8966 12.0149
Au 15.5876 10.5474 19.8792
Pt 22.8406 11.5108 23.3326
Pt 15.0014 13.206 20.3575
Au 26.0044 8.96834 12.8494
Pt 20.0989 19.8686 12.4022
Au 19.5519 8.61269 18.1649
Pt 24.6608 9.82959 24.072
Au 20.9773 8.82985 15.797
Au 21.9259 7.82613 19.2124
Pt 29.9151 11.8833 22.0223
Au 31.7832 18.0684 25.982
Au 23.2262 17.2023 20.6409
Au 27.5224 16.5338 24.1754
Au 33.9753 8.61175 30.2668
Au 24.5879 30.8187 27.298
Pt 31.8549 12.7179 31.2116
Au 26.7609 21.4145 21.762
Au 32.6906 7.83517 20.3209
Pt 27.9094 38.1837 34.6266
Pt 36.1279 14.9517 31.134
Pt 20.8539 29.9359 37.3046
Pt 31.2852 24.7729 36.3135
Au 23.8382 27.9717 31.7892
Au 22.3923 6.98711 21.7613
Pt 30.9174 30.1432 35.3427
Pt 30.8267 9.29415 26.8243
Pt 40.9136 25.2044 27.1931
Pt 30.3839 14.2941 32.8722
Au 18.9248 31.9192 41.1111
Au 31.3969 7.97277 30.8942
Pt 23.3738 36.1463 30.2338
Pt 29.6996 25.4154 39.4743
Au 23.553 25.0677 35.6969
Pt 36.0239 17.8967 14.4676
Au 42.3962 34.8508 22.9198
Pt 32.1741 17.7149 16.4541
Au 33.5261 39.2613 28.5987
Pt 37.4996 18.3917 28.0581
Au 33.6971 23.612 21.4236
Au 30.5207 21.7028 15.9463
Au 33.9498 28.3862 22.8919
Au 42.0595 16.1046 23.3119
Au 39.4832 17.4574 17.386
Pt 27.3919 17.9152 8.84851
Pt 31.8672 32.4287 19.7419
Pt 28.2356 11.9465 17.6604
Au 31.3951 27.3422 22.8949
Pt 33.4315 12.8488 16.6736
Au 26.3481 34.1552 11.0871
Pt 28.5671 12.9328 15.0608
Au 24.6626 36.0528 12.7781
Pt 24.7622 19.1649 13.2546
Pt 29.0667 34.8603 12.1423
Au 20.2493 28.9637 18.1985
Au 17.1739 29.2901 29.2952
Pt 14.628 14.5513 31.7469
Au 23.7287 41.4304 34.7825
Au 26.9688 17.2696 29.5554
Au 9.90419 37.8956 26.8541
Pt 17.4024 16.6317 28.4181
Au 29.2606 26.6705 32.1639
Au 20.0022 17.5406 23.1654
Au 13.4436 24.1872 40.6595
Au 16.1091 25.436 19.1404
Au 11.7598 38.0907 31.9655
Au 18.5043 19.9966 30.0606
Au 20.877 38.6185 38.4325
Pt 25.6918 16.9919 39.289
Pt 34.4939 37.5911 30.5212
Pt 21.2091 14.5761 34.0975
Au 25.0117 36.3835 39.8011
Pt 17.1188 16.3618 33.2294
Pt 23.4937 34.0172 39.7131
Pt 14.6815 19.3081 16.6481
Pt 12.3852 34.642 21.3654
Pt 17.6044 18.9605 16.2228
Pt 13.2646 31.5845 18.1989
Pt 19.6839 11.1268 16.7855
Au 7.49992 30.0502 22.7292
Au 21.0064 13.6229 23.4636
Au 9.75526 34.8217 20.9447
Au 15.4074 21.9824 22.5893
Au 14.2668 34.7614 14.0909
Pt 16.8486 15.0989 20.9685
Pt 12.5833 29.9511 20.3537
Pt 11.3869 21.0574 13.3938
Pt 15.058 30.3283 16.7718
Au 13.8739 19.6479 22.0948
Au 8.36842 32.5157 21.5226
Pt 13.4417 17.3288 17.656
Au 33.8555 37.0335 14.1923
Pt 21.7395 22.1133 12.8355
Au 27.1279 42.6191 21.0665
Pt 33.3615 29.8552 16.2673
Pt 39.1461 16.0305 27.4506
Pt 37.9209 22.7894 24.7685
Pt 35.8816 26.1709 20.8157
Pt 39.2863 24.107 31.0957
Pt 37.2269 27.2695 29.5502
Pt 38.0173 29.0038 31.8079
Au 20.9363 21.7366 21.8125
Au 6.37793 22.4147 18.126
Au 8.88626 21.6125 14.2167
Pt 10.6095 18.5701 22.494
Pt 15.9288 16.7488 26.2991
Au 10.3543 15.6841 32.9266
Pt 14.3997 23.4771 24.5893
Au 10.4738 31.1818 35.2326
Au 11.9223 17.2893 38.1167
Pt 13.8774 32.3347 20.8334
Au 14.252 38.8151 20.1637
Pt 20.4859 39.2864 28.6278
Au 20.1921 31.6115 30.2942
Au 17.6588 32.4715 16.4445
Pt 16.3484 38.6908 25.1408
Au 35.4908 36.2542 35.8898
Au 37.1022 36.7628 33.6889
Au 26.2989 7.3648 30.4775
Pt 21.1254 13.0346 31.8909
Au 10.5795 12.384 27.9134
Pt 33.5496 12.6325 24.6514
Au 31.8851 7.5228 25.1515
Pt 26.4547 8.0642 23.2333
Pt 27.6158 9.73999 30.9702
Au 36.2409 9.75669 29.3017
Au 17.4693 16.3471 39.7264
Pt 36.5877 31.6896 32.6102
Au 31.1522 22.1041 40.7859
Pt 22.586 22.5535 36.0377
Pt 19.9847 26.0339 41.5024
Au 39.5595 26.4962 34.8492
Au 33.4522 11.7938 36.4987
Pt 25.9217 22.5874 39.247
Pt 20.4719 19.3892 9.74425
Pt 27.7211 16.8669 11.4717
Pt 20.1443 21.503 8.30524
Au 31.1447 19.744 6.41188
Pt 27.2426 14.2822 11.3534
Pt 29.6118 19.7651 8.57068
Pt 26.2248 28.9473 9.00653
Pt 32.0208 33.4491 15.015
Au 38.2038 25.0372 37.2929
Pt 33.1075 31.3686 36.7253
Au 36.6494 18.5824 37.3771
Pt 31.9142 27.0963 38.7186
Au 35.0955 16.2328 37.834
Pt 27.8768 13.5343 33.6307
Au 26.4827 27.234 30.5733
Au 38.2398 20.6696 36.9333
Pt 24.9469 28.035 40.0973
Pt 21.2082 22.0935 40.4134
Pt 28.5651 29.1656 37.3313
Au 22.8208 14.6589 39.1976
Pt 34.515 12.8709 31.8108
Pt 37.1211 19.4125 30.4615
Au 29.4443 26.4447 41.9158
Pt 29.6759 28.1276 39.6759
Au 31.667 24.6789 41.4298
Pt 30.2075 31.4778 32.9631
Pt 33.7695 31.206 29.5908
Au 34.7034 18.4457 39.3
Au 33.8239 22.8243 40.1457
Pt 31.2556 29.5534 37.9006
Pt 20.9222 30.1915 40.1078
Au 22.3999 21.9028 42.855
Pt 36.1529 28.5909 27.6364
Pt 29.2532 34.1732 32.6482
Au 27.1312 34.5389 26.7611
Pt 37.1642 21.7871 20.9308
Au 29.149 12.4998 12.2765
Pt 26.5995 10.7669 22.1313
Pt 29.3877 20.8903 13.1491
Au 37.0923 12.6398 18.0117
Pt 22.6842 19.359 11.4887
Au 35.2523 10.9202 16.8345
Au 32.2931 18.4592 8.64778
Pt 21.287 21.9389 15.5819
Pt 41.345 21.4613 24.3546
Pt 22.6968 20.4008 7.94808
Au 25.2655 27.8792 6.32919
Pt 36.5287 19.6422 18.8545
Au 38.894 27.8354 11.9771
Au 25.0694 19.8307 15.8247
Au 25.7648 18.4147 5.30879
Au 28.802 15.3699 9.13431
Au 36.9477 15.3652 14.0657
Au 23.5032 31.265 11.9149
Pt 31.2631 26.3835 8.99041
Pt 26.7966 21.4664 11.3695
Pt 35.0877 20.5007 14.5656
Au 38.1295 20.0437 11.184
Pt 29.342 22.0543 10.1622
Au 37.0857 22.1532 9.62709
Au 30.0723 27.5376 6.40132
Pt 35.1072 26.2751 10.8445
Au 12.3925 21.7208 40.2683
Au 14.8721 29.3996 41.8171
Au 26.6973 22.3098 41.9416
Au 28.1051 15.7109 39.0323
Au 25.4597 24.8688 42.7182
Pt 25.346 16.5538 31.6799
Pt 16.6439 18.244 30.5089
Au 8.36275 33.8524 31.0391
Pt 17.0141 13.5604 33.2872
Au 20.0825 23.3267 42.5359
Au 29.6763 17.1264 41.146
Pt 24.1492 25.57 40.3654
Pt 9.97828 30.52 20.9783
Pt 16.4062 19.385 33.073
Au 21.5656 27.7447 43.2424
Pt 18.5866 22.9778 36.813
Pt 23.3898 23.312 38.5853
Pt 17.6029 37.3521 34.1461
Au 16.6556 27.2958 42.5193
Pt 9.89151 28.1949 31.6773
Au 17.3598 38.5824 36.664
Au 9.96131 34.7093 33.1962
Au 12.8844 32.3119 35.5962
Au 24.7575 17.9126 41.6731
Pt 18.7949 18.2777 32.5021
Au 26.6231 38.2389 38.6692
Pt 20.3894 27.8375 38.8086
Au 14.9304 22.6805 10.5
Pt 15.3484 23.8482 16.9485
Au 11.6577 16.5655 13.434
Au 14.1922 16.0887 12.1486
Pt 22.4157 13.4577 16.5016
Pt 23.3079 17.4579 14.6716
Pt 21.6456 24.1517 10.9441
Au 15.5273 20.22 9.25388
Pt 17.8967 19.9273 10.793
Au 11.6877 33.0855 14.3901
Au 23.5788 24.3106 13.0272
Au 28.1488 19.1709 6.39414
Au 18.3735 43.0789 25.8991
Au 13.9269 24.8177 9.07673
Pt 23.0154 26.4372 11.1578
Pt 22.1883 21.5667 10.2614
Pt 17.5786 22.1859 9.21083
Au 16.091 38.313 18.0438
Au 25.2865 30.5232 7.10176
Au 17.9582 33.0525 11.7239
Pt 24.2747 21.6205 12.283
Au 18.5902 22.9242 6.63157
Au 34.2318 39.4065 22.1622
Pt 24.6621 20.7302 9.84015
Au 32.3755 28.4932 7.34025
Au 33.8114 26.1761 7.79219
Pt 28.1563 38.1785 18.1176
Au 38.5109 33.6485 32.5495
Au 41.9602 27.7524 29.2597
Pt 34.1505 31.0435 21.0748
Au 36.4343 34.1107 14.8895
Pt 29.5157 31.8762 18.4361
Pt 37.9155 32.8344 18.9417
Au 33.9554 33.6986 38.3196
Au 32.9371 39.969 31.3115
Pt 28.9879 35.9183 29.7205
Au 40.1818 31.4162 16.248
Pt 37.2803 28.2299 19.5689
Pt 38.1681 17.6589 19.7998
Pt 39.929 31.8042 25.5093
Pt 39.7033 27.256 30.3853
Pt 38.2327 29.7979 26.364
Pt 38.4928 26.9929 21.6294
Au 40.6421 32.6477 18.7858
Au 32.1298 27.9542 25.7677
Au 28.8834 25.7942 22.9201
Au 35.1637 40.2229 24.6882
Au 40.6006 28.471 16.2174
Pt 40.1132 33.4978 23.4736
Pt 38.2691 28.8881 23.7064
Au 33.5961 20.9524 29.8028
Pt 36.9758 22.0657 30.097
Au 43.5125 23.0848 24.1756
Pt 23.9245 35.664 37.4061
Pt 21.3406 39.7414 21.7105
Au 7.39046 32.3126 24.553
Au 7.03594 28.3146 30.279
Au 11.8569 27.9712 12.2089
Pt 9.05133 28.773 24.8384
Pt 11.9298 21.1965 23.1293
Au 17.3743 41.4961 27.798
Pt 14.3926 36.1129 20.7721
Au 6.61539 29.7972 25.4367
Pt 8.82216 26.5803 18.2004
Au 10.0442 23.2932 11.8777
Pt 10.8021 23.7112 14.3779
Pt 13.626 31.7181 23.6512
Au 7.53836 22.8651 30.8391
Au 8.19434 26.8931 15.3643