2057
Atoms. Timestep: 20210
Au 25.1129 24.6341 25.6315
Au 27.4487 24.6332 24.209
Au 27.4561 24.4251 27.0664
Au 22.8115 24.6813 24.0826
Au 22.8229 24.6306 27.0218
Pt 23.7401 26.9568 25.5672
Au 26.5662 26.9067 25.687
Au 23.6101 22.3439 25.4543
Au 26.4886 22.2765 25.5254
Au 25.0878 23.0884 27.8969
Au 25.1901 26.0121 28.0281
Au 25.0359 23.2203 23.2285
Au 25.1417 26.0707 23.2953
Au 29.7667 24.6777 22.7529
Au 29.8414 24.4513 25.612
Au 29.8774 24.2133 28.5175
Pt 20.499 24.6769 22.4412
Au 20.4543 24.63 25.46
Au 20.4744 24.6104 28.3839
Pt 22.3216 29.1947 25.4553
Pt 25.1244 29.2542 25.5116
Au 27.9101 29.2419 25.5953
Au 22.1028 20.0704 25.2469
Au 24.9325 19.9505 25.3186
Au 27.8029 19.9482 25.3859
Au 24.9228 21.5406 30.1738
Au 25.273 24.3681 30.3527
Au 25.1548 27.3135 30.502
Au 24.9666 21.8162 20.8245
Au 25.0843 24.692 20.8461
Pt 25.1319 27.4823 20.9701
Au 27.4716 22.7343 29.372
Au 27.5453 25.6584 29.4626
Au 27.4083 23.2374 21.8145
Au 27.4601 26.1244 21.8234
Au 22.728 23.156 29.4498
Au 22.7247 26.1524 29.3536
Au 22.7185 23.2326 21.6294
Au 22.7684 26.0936 21.6681
Au 29.0045 27.0094 24.231
Pt 28.9229 26.6682 27.0616
Au 21.3677 26.9589 24.0107
Au 21.3566 26.9935 26.8906
Pt 28.8625 22.2477 24.1009
Au 28.8957 22.0449 26.9836
Au 21.2696 22.3737 23.894
Au 21.2576 22.2614 26.9103
Au 23.7743 28.3539 27.924
Pt 26.6353 28.3579 27.9735
Au 23.5203 20.8219 27.7913
Pt 26.4103 20.6616 27.7765
Au 23.6782 28.3699 23.1901
Pt 26.5661 28.3907 23.3131
Pt 23.5077 20.8449 22.9627
Au 26.365 20.8418 23.075
Pt 31.9945 24.644 21.171
Au 32.2213 24.4379 24.1109
Au 32.2292 24.3174 27.0337
Au 34.5365 24.5825 28.3821
Pt 18.1898 24.7028 20.9549
Au 18.1317 24.6574 23.8366
Au 18.0362 24.6098 26.7871
Au 18.0064 24.565 29.5774
Au 20.7695 31.4482 25.2458
Pt 23.6597 31.5613 25.2929
Pt 26.4254 31.6348 25.3923
Pt 29.1732 31.6072 25.5155
Au 20.6305 17.7585 25.0072
Au 23.4027 17.5958 25.0686
Au 26.2003 17.5337 25.0961
Au 29.0364 17.5191 25.2229
Au 24.724 19.868 32.339
Au 25.1212 22.6901 32.7127
Au 25.5186 25.4093 32.9107
Au 24.6178 29.1726 32.4811
Au 24.9271 20.4865 18.3899
Au 24.9913 23.2543 18.3785
Au 25.0693 26.0793 18.4523
Au 25.1559 28.8519 18.522
Au 30.0229 22.436 30.7433
Au 27.3549 21.0528 31.6917
Pt 31.4553 28.9398 29.7808
Pt 32.299 26.9302 31.3144
Au 27.662 26.7982 31.8952
Au 29.7169 23.1794 20.2954
Au 27.314 21.811 19.3362
Au 29.787 26.0819 20.2827
Au 27.417 24.646 19.3317
Au 27.4421 27.4625 19.3664
Au 20.3978 23.5165 31.0239
Pt 22.5562 21.9641 31.9932
Au 20.1339 26.3304 30.6492
Au 22.9739 24.7921 31.7034
Au 22.3374 27.7612 31.6095
Au 20.4115 23.2802 20.0608
Pt 22.6122 21.805 19.2107
Pt 20.4193 26.1071 20.0757
Au 22.6855 24.671 19.2129
Au 22.7762 27.5024 19.2993
Au 30.3755 29.4771 24.042
Au 31.3787 27.0327 22.661
Au 30.2939 28.8788 26.8926
Au 31.4691 26.7375 25.6246
Pt 31.342 26.5344 28.5623
Au 19.9025 29.2547 23.8827
Au 19.0389 26.9626 22.383
Pt 19.8282 29.3134 26.7718
Au 18.9284 26.9814 25.3517
Au 18.9117 27.02 28.2182
Au 30.1934 19.8826 23.9293
Au 31.0891 22.2162 22.5999
Au 30.2661 19.6696 26.8525
Au 31.311 22.0482 25.5386
Pt 31.3427 21.7545 28.4171
Au 19.7458 20.0507 23.7106
Au 18.9413 22.3918 22.3211
Pt 19.719 19.9905 26.7041
Au 18.8729 22.2852 25.3227
Au 18.8802 22.2468 28.2558
Pt 23.3526 29.9195 30.0959
Au 22.1531 30.6951 27.6467
Au 26.1612 29.9413 30.136
Au 24.9886 30.8014 27.7199
Au 27.7881 30.8107 27.8707
Au 23.2831 19.2273 30.0577
Au 21.9115 18.5747 27.5787
Au 26.2115 19.0444 29.9528
Au 24.7861 18.3401 27.6041
Au 27.6726 18.2665 27.6029
Au 23.6589 29.7916 20.7679
Pt 22.2515 30.6647 23.0466
Au 26.5959 29.7698 20.8534
Au 25.1045 30.7115 23.0847
Au 27.9926 30.7381 23.1589
Pt 23.4448 19.4939 20.5578
Pt 22.0151 18.6043 22.7495
Pt 26.2584 19.3976 20.6231
Pt 24.8143 18.4695 22.7782
Au 27.6811 18.4925 22.8618
Au 28.836 20.3408 29.2177
Au 28.988 27.8851 29.4205
Au 28.7422 20.8173 21.6177
Au 28.9955 28.4213 21.7202
Au 21.0887 20.9259 29.4333
Au 21.1485 28.5606 29.1741
Au 21.1885 20.8829 21.4186
Au 21.2736 28.4252 21.5342
Pt 34.176 24.5906 19.6814
Au 34.4304 24.2499 22.4186
Pt 34.6056 24.1027 25.5047
Pt 36.4613 22.9371 27.7952
Pt 34.884 23.9292 33.1366
Au 15.8921 24.7069 19.4719
Pt 15.7774 24.679 22.266
Au 15.6914 24.6712 25.239
Pt 15.5778 24.5382 28.135
Pt 15.6231 24.522 30.8931
Au 19.1761 33.7543 25.0621
Au 22.1262 33.8934 25.0684
Pt 24.9544 33.9735 25.1764
Pt 27.7142 34.0048 25.2204
Au 30.5735 33.8963 25.2751
Au 19.0777 15.4661 24.7693
Pt 21.8663 15.2056 24.8024
Pt 24.6149 15.1227 24.7921
Pt 27.4572 15.1377 24.9618
Pt 30.3058 15.1494 25.065
Au 24.3038 18.064 34.3947
Au 23.2469 20.4464 35.5688
Pt 23.0837 23.9658 34.1772
Au 23.5041 26.9055 33.8862
Au 24.4633 31.0602 34.6061
Au 24.8618 19.1416 15.9977
Pt 24.9354 21.8913 15.8948
Au 25.032 24.6462 15.9403
Au 25.025 27.4896 15.9941
Au 25.0835 30.2529 16.067
Pt 32.4498 22.0279 32.2614
Au 30.0112 20.6847 32.9737
Au 27.658 19.2178 34.0096
Au 32.4053 23.9047 29.9897
Au 27.9165 22.1676 34.1859
Au 25.9023 26.2503 35.4934
Au 30.0326 25.4626 30.9928
Au 27.7263 23.9002 31.8448
Pt 28.3114 26.2238 36.9938
Pt 31.9157 23.1685 18.7804
Pt 29.6232 21.7146 17.8859
Pt 27.2437 20.4424 16.8817
Pt 31.9868 26.0159 18.7149
Au 29.7124 24.5855 17.8136
Au 27.3335 23.1989 16.8273
Pt 29.7291 27.4188 17.8088
Au 27.3758 26.0567 16.8619
Pt 27.4517 28.8544 16.8856
Pt 17.7483 22.7548 31.6475
Pt 19.9566 21.2065 32.3905
Au 22.1059 19.601 33.283
Pt 18.0349 25.5046 32.1069
Pt 19.2992 23.5244 33.6139
Pt 21.3256 22.0522 34.5365
Pt 19.7813 28.0522 32.8798
Pt 20.9511 25.5803 33.1513
Pt 22.0986 29.5029 33.8014
Au 18.1098 23.2881 18.5464
Pt 20.3452 21.9 17.6726
Pt 22.5686 20.5131 16.7878
Pt 18.1179 26.1499 18.5896
Pt 20.3468 24.718 17.6618
Au 22.6364 23.2485 16.7803
Au 20.3921 27.5226 17.7328
Au 22.6869 26.0863 16.7876
Au 22.7091 28.9051 16.8671
Au 31.6677 31.9248 23.4671
Au 32.5923 29.5189 22.0822
Au 33.5686 27.0392 20.9323
Au 31.9198 31.3011 26.0436
Au 32.9815 28.9131 24.7897
Pt 33.921 26.5312 23.6958
Au 32.9207 29.2246 27.5729
Au 34.0705 26.659 26.4897
Au 33.9409 27.2691 29.1992
Au 18.2943 31.5461 23.7139
Au 17.4972 29.2713 22.2502
Au 16.676 26.9979 20.8729
Pt 18.2368 31.5342 26.614
Au 17.4007 29.3023 25.2283
Au 16.5423 26.9692 23.7491
Au 17.3669 29.3471 28.1243
Au 16.5069 26.9669 26.7536
Au 16.6007 26.9721 29.7691
Au 31.4407 17.4397 23.7227
Pt 32.4444 19.777 22.3451
Au 33.2703 22.1306 20.9991
Au 31.4526 17.1984 26.6457
Au 32.7092 19.6493 25.3154
Pt 33.5046 21.9509 23.9079
Au 32.7953 19.3166 28.1494
Au 33.7533 21.8871 27.0173
Pt 33.4709 21.2174 30.0456
Au 18.1977 17.7505 23.4462
Au 17.3859 20.0724 22.1197
Pt 16.6216 22.3587 20.792
Au 18.1763 17.684 26.3563
Au 17.2854 19.9791 25.0481
Au 16.4969 22.3636 23.6763
Au 17.27 19.9239 27.9021
Au 16.398 22.3069 26.5996
Au 16.3368 22.1756 29.3911
Au 23.1676 31.6328 32.2324
Au 21.9203 32.3431 29.8343
Au 20.5912 33.0563 27.4594
Au 26.0128 31.8439 32.3032
Au 24.7273 32.4933 29.9116
Au 23.4514 33.2466 27.4954
Pt 27.487 32.7175 30.0247
Au 26.2457 33.2969 27.5879
Au 29.0298 33.3145 27.6886
Pt 23.1537 17.3241 31.9718
Au 21.8103 16.7817 29.6602
Au 20.442 16.1232 27.2153
Au 26.0513 17.3626 32.1395
Pt 24.6725 16.6726 29.7722
Au 23.2432 15.9495 27.2879
Pt 27.4738 16.5394 29.6986
Au 26.0812 15.8749 27.299
Pt 28.899 15.8052 27.3787
Au 23.6232 31.2198 18.2835
Au 22.1258 32.1284 20.5879
Au 20.6293 32.9673 22.7864
Au 26.5487 31.2262 18.3283
Au 25.0299 32.2224 20.5526
Au 23.5535 33.0593 22.8426
Au 27.9183 32.2242 20.6491
Au 26.4241 33.1088 22.9319
Pt 29.2147 33.1443 22.9974
Au 23.3974 18.1293 18.138
Au 21.9131 17.2321 20.351
Pt 20.5495 16.2744 22.5418
Pt 26.2388 18.048 18.2319
Pt 24.7598 17.0825 20.3776
Au 23.3031 16.1642 22.6024
Pt 27.6059 17.084 20.4111
Au 26.1316 16.0893 22.6196
Au 28.9991 16.1158 22.7443
Pt 31.2142 19.8836 30.532
Au 31.2816 30.6528 31.9577
Pt 30.0503 17.8497 28.9481
Pt 30.4961 31.023 28.3039
Au 28.6416 18.5881 31.3387
Au 28.9519 30.3532 30.3817
Pt 31.0246 20.6951 20.0925
Pt 31.2091 28.4093 19.9819
Au 30.0811 18.3995 21.3887
Au 30.2556 30.8372 21.343
Au 28.6216 19.3828 19.1451
Au 28.8673 29.8039 19.1215
Pt 18.5401 20.4771 30.2929
Pt 18.7442 28.741 30.5074
Pt 19.475 18.3292 28.8112
Pt 19.6167 30.8474 29.0108
Pt 20.7506 18.8832 31.1128
Pt 20.8872 30.1693 31.4554
Pt 18.8856 20.9354 19.8693
Pt 18.8913 28.4446 19.9121
Pt 19.646 18.6217 21.1761
Au 19.7362 30.7228 21.3793
Pt 21.112 19.5229 18.9824
Au 21.2366 29.8625 19.1154
Pt 36.3241 24.4058 18.2157
Pt 36.7394 24.1152 20.8756
Au 38.2861 22.9118 22.9714
Au 38.2321 23.171 25.7057
Pt 38.8834 23.8766 28.2819
Pt 36.563 20.2208 31.3369
Pt 13.5907 24.8217 17.9831
Au 13.4523 24.7293 20.7739
Au 13.4097 24.7124 23.6336
Pt 13.3104 24.5605 26.5872
Pt 13.2149 24.4904 29.374
Au 13.2907 24.5973 32.2103
Au 17.7349 36.1146 24.832
Au 20.5795 36.211 24.8422
Pt 23.4441 36.2835 24.9715
Pt 26.275 36.3558 25.0039
Au 29.0904 36.3894 24.9973
Au 31.9462 36.297 25.1179
Pt 17.5807 13.2147 24.6109
Pt 20.344 12.9815 24.5987
Pt 23.075 12.8032 24.6175
Au 25.9003 12.7639 24.6494
Au 28.7349 12.7657 24.7495
Au 31.5283 12.7438 24.728
Au 20.5701 18.2123 41.9047
Pt 25.1343 19.7086 39.7431
Au 23.0579 22.9716 36.7728
Pt 23.367 27.5252 38.6041
Au 23.6263 28.7176 36.0869
Au 24.383 32.8318 36.6746
Au 24.7717 17.7309 13.6223
Pt 24.8664 20.5649 13.547
Pt 24.9124 23.2794 13.5136
Au 24.9623 26.1053 13.5377
Pt 24.9765 28.8734 13.5484
Pt 25.035 31.645 13.6968
Pt 34.9335 21.2828 33.0806
Au 32.5892 20.3656 34.4495
Au 30.3397 21.8887 35.7157
Au 27.8904 20.4911 36.5573
Au 32.5116 24.7575 32.6366
Pt 32.903 26.1151 35.1907
Au 27.9389 23.379 36.8439
Au 25.6646 20.8225 34.7337
Pt 30.6006 26.2368 33.6598
Au 28.0147 24.887 34.3863
Au 23.3374 25.801 36.4106
Au 28.3992 27.5218 34.4506
Au 25.7176 24.8219 37.9062
Au 26.0455 28.8337 34.8638
Pt 34.0633 23.0679 17.3258
Au 31.7997 21.7899 16.3185
Au 29.5166 20.3723 15.426
Au 27.1868 19.1125 14.4732
Au 34.1773 25.9358 17.1613
Pt 31.9258 24.5844 16.2867
Au 29.6025 23.2111 15.3072
Pt 27.2125 21.8978 14.3706
Pt 31.9041 27.3853 16.2486
Au 29.6244 26.0144 15.3232
Pt 27.2791 24.6304 14.3181
Au 29.6353 28.8068 15.2971
Au 27.3076 27.4542 14.3881
Au 27.3666 30.302 14.4554
Pt 15.4289 22.7686 32.9619
Pt 17.5564 21.3169 33.9506
Au 19.6888 19.8566 34.8608
Au 21.5596 18.0441 35.9175
Au 15.7707 26.3775 33.0836
Pt 17.0153 23.8194 34.9162
Pt 19.0033 22.3884 36.0752
Au 21.0628 20.9569 37.1319
Au 17.3573 28.3461 34.3065
Au 18.6827 26.0314 34.6033
Au 20.8738 24.5522 35.6836
Au 19.7424 29.7809 35.1156
Pt 21.1581 27.3391 35.241
Pt 22.0369 31.2894 35.9285
Au 15.728 23.3294 17.0281
Pt 18.0154 21.935 16.1293
Au 20.2739 20.5563 15.2494
Au 22.52 19.1086 14.4106
Pt 15.8269 26.1916 17.0936
Au 18.0194 24.7746 16.1246
Au 20.2874 23.3387 15.2211
Pt 22.568 21.9225 14.3142
Pt 18.0801 27.6194 16.2461
Au 20.3487 26.2032 15.243
Au 22.6461 24.7076 14.3273
Pt 20.4012 28.9694 15.316
Pt 22.6389 27.5375 14.3461
Au 22.7069 30.3066 14.5028
Pt 33.1349 34.1995 23.177
Pt 33.9498 31.8536 21.66
Pt 34.8894 29.4979 20.3588
Au 35.8782 26.9501 19.218
Au 33.336 33.8751 25.7609
Au 34.3334 31.6014 24.3934
Au 35.1324 29.0392 23.0115
Pt 36.1182 26.6096 21.9205
Pt 34.1988 31.9413 27.5297
Pt 36.1606 27.2969 24.8719
Au 36.6308 24.8129 23.9107
Au 35.1583 29.9132 29.1192
Pt 36.8883 25.3512 26.6492
Au 36.8994 25.622 29.4257
Pt 16.8447 33.8736 23.5034
Au 15.9988 31.5932 22.1308
Pt 15.1943 29.3056 20.686
Pt 14.3863 27.064 19.3435
Pt 16.7236 33.869 26.3888
Pt 15.8816 31.6345 25.0952
Au 15.0117 29.3314 23.6322
Pt 14.2133 27.0514 22.1504
Pt 15.8203 31.6791 27.9055
Au 14.9544 29.3729 26.545
Au 14.1418 27.0449 25.1165
Pt 14.9584 29.4689 29.3866
Au 14.1639 26.9198 28.0742
Au 14.1109 27.0429 30.8872
Pt 32.6712 15.0481 23.5305
Au 33.7845 17.3613 22.2591
Pt 34.5463 19.6705 20.733
Pt 35.469 22.0234 19.4969
Pt 32.6227 14.7472 26.4336
Au 33.8823 17.0987 25.1782
Pt 34.8822 19.5157 23.7284
Au 35.7457 21.7837 22.4323
Pt 33.7961 16.7082 28.0354
Au 35.4221 19.114 26.3705
Pt 35.8537 21.7642 25.2488
Pt 34.7632 18.4663 29.9444
Au 35.5918 20.6195 28.6481
Pt 35.7191 18.6286 33.3368
Pt 16.6547 15.4898 23.2631
Pt 15.824 17.7409 21.9297
Pt 15.0315 20.0487 20.6581
Pt 14.3056 22.3988 19.346
Pt 16.5968 15.3772 26.0661
Pt 15.6983 17.6443 24.7656
Au 14.9061 19.979 23.4686
Au 14.1581 22.3397 22.128
Au 15.7079 17.5968 27.6034
Au 14.811 19.9476 26.3623
Au 14.0191 22.3302 25.027
Pt 14.795 19.8142 29.2018
Pt 13.9415 22.219 27.8792
Au 13.9575 22.1587 30.7076
Pt 23.0256 33.454 34.3839
Au 21.7821 34.1095 31.9732
Au 20.5085 34.8581 29.6015
Au 19.1184 35.4946 27.2131
Pt 25.8954 33.6788 34.436
Au 24.5642 34.2708 32.0553
Pt 23.3505 35.0102 29.6364
Au 21.9825 35.6536 27.2953
Pt 27.3402 34.4332 32.1909
Pt 26.0684 35.0692 29.7765
Pt 24.7802 35.7115 27.3387
Au 28.8451 35.1165 29.9075
Au 27.5403 35.7409 27.4228
Au 30.3901 35.7682 27.5401
Au 22.9772 15.6349 34.1034
Pt 21.5373 15.0306 31.7809
Au 20.2601 14.3989 29.3386
Pt 18.8962 13.7737 26.9464
Au 25.88 15.7348 34.3627
Pt 24.5148 14.9437 31.892
Au 23.084 14.2648 29.4907
Pt 21.6625 13.5384 27.0051
Pt 27.2963 14.8663 31.8348
Au 25.9055 14.2128 29.4724
Au 24.4891 13.48 27.0201
Pt 28.7258 14.1192 29.4354
Pt 27.376 13.4534 27.117
Pt 30.1686 13.4221 27.1302
Pt 23.5849 32.6488 15.8969
Au 22.1012 33.53 18.1722
Pt 20.565 34.4199 20.38
Pt 19.1354 35.2702 22.5389
Au 26.479 32.6524 15.9073
Pt 24.9621 33.6763 18.0994
Pt 23.4819 34.587 20.3923
Pt 21.9958 35.358 22.564
Au 27.8102 33.6685 18.142
Au 26.3135 34.6676 20.3692
Au 24.8643 35.4706 22.6999
Au 29.2196 34.6563 20.4307
Au 27.7467 35.5111 22.7055
Au 30.616 35.4408 22.7513
Pt 23.295 16.6939 15.7504
Au 21.8313 15.785 17.8837
Pt 20.447 14.8881 20.1405
Pt 19.0294 14.0209 22.3624
Au 26.1707 16.6582 15.793
Pt 24.6754 15.6431 17.9391
Au 23.237 14.74 20.1461
Pt 21.793 13.8014 22.3716
Au 27.5414 15.6688 18.0318
Pt 26.0257 14.7038 20.1911
Pt 24.5369 13.7029 22.3771
Au 28.962 14.7512 20.2584
Au 27.3676 13.6636 22.4347
Au 30.2821 13.7663 22.5174
Pt 33.437 19.3344 32.054
Pt 34.6883 25.4738 31.0471
Au 32.2951 17.3963 30.3546
Pt 32.7649 31.3524 29.7428
Pt 31.2235 15.3599 28.7517
Au 31.8211 33.3762 28.0175
Au 30.9914 18.1418 32.8247
Pt 30.0177 28.2317 32.0028
Au 29.798 16.0725 31.0869
Pt 30.3284 32.7967 30.2932
Au 28.4938 16.7537 33.5473
Au 27.4977 29.4527 32.5496
Au 33.2083 20.6614 18.5273
Au 33.4118 28.3941 18.3747
Pt 32.3442 18.2763 19.8636
Pt 32.5004 30.8086 19.579
Pt 31.4166 16.0792 21.1538
Au 31.5779 33.2535 21.0577
Pt 30.9355 19.2516 17.6722
Au 31.0826 29.8143 17.4812
Pt 29.9888 16.9928 18.9007
Au 30.2019 32.2546 18.8231
Au 28.5894 17.9812 16.6934
Pt 28.8154 31.2642 16.6099
Au 16.1387 20.38 31.6309
Pt 16.437 28.8749 31.7145
Au 17.0268 18.1724 30.1026
Pt 17.235 31.0608 30.2844
Pt 17.9551 15.9574 28.4917
Au 18.1294 33.2234 28.7454
Au 18.3994 18.8897 32.5712
Pt 18.5002 30.4552 32.74
Au 19.2655 16.5893 30.9679
Au 19.4749 32.5603 31.1792
Au 20.6594 17.2041 33.3438
Pt 20.756 31.9211 33.6028
Au 16.4802 20.9632 18.3956
Pt 16.5908 28.4646 18.4513
Au 17.2713 18.632 19.6862
Pt 17.3862 30.7603 19.7634
Au 18.1571 16.3155 21.0142
Pt 18.2158 33.037 21.1802
Au 18.7908 19.5865 17.4658
Au 18.8818 29.9182 17.5487
Au 19.5575 17.1958 18.7383
Au 19.6842 32.1977 18.9774
Pt 21.0311 18.1326 16.585
Pt 21.2078 31.2832 16.7077
Au 38.5695 24.3575 16.7588
Pt 38.6286 25.3931 19.2775
Pt 38.8241 25.6043 22.0467
Au 39.1569 25.7542 24.8009
Pt 39.2216 26.4074 27.7604
Pt 39.3488 26.1513 30.5928
Pt 40.5296 22.4953 30.0256
Au 11.3566 24.82 16.4622
Pt 11.1287 24.7741 19.3103
Au 11.0251 24.7034 22.087
Au 11.0012 24.6324 24.934
Au 10.9127 24.5527 27.7984
Pt 10.8046 24.4857 30.5849
Pt 10.8668 24.4727 33.2774
Pt 16.3138 38.4505 24.5937
Pt 19.1032 38.5652 24.6788
Au 21.8929 38.6259 24.7648
Au 24.7417 38.6465 24.7621
Pt 27.5823 38.795 24.8149
Pt 30.3269 38.8047 24.8297
Au 33.172 38.6876 24.9191
Pt 16.0764 10.9456 24.4196
Pt 18.8384 10.7318 24.4419
Pt 21.5506 10.5703 24.4357
Pt 24.2999 10.4128 24.4622
Au 27.1494 10.2922 24.4498
Au 29.9773 10.2317 24.5039
Pt 32.7575 10.2648 24.4853
Au 25.5787 18.7175 36.7193
Pt 22.8687 19.0057 40.6464
Pt 23.1536 19.3314 37.9796
Au 23.1063 24.6475 38.9569
Pt 25.6921 30.1574 39.8662
Pt 23.5276 30.5736 38.1889
Pt 24.1547 34.6389 38.7011
Au 24.7594 16.4038 11.2506
Pt 24.8043 19.1889 11.1846
Au 24.8796 21.898 11.1549
Au 24.9018 24.722 11.1325
Pt 24.9807 27.4843 11.1394
Pt 24.9675 30.2298 11.1942
Au 24.9717 33.0011 11.3585
Pt 35.5861 22.5543 35.3154
Au 30.2105 23.4858 33.3075
Pt 29.6022 21.9668 38.5068
Au 30.3065 19.079 35.4416
Au 25.3119 21.5352 37.5006
Pt 36.1262 25.1506 35.0979
Pt 33.6463 21.5607 36.7166
Pt 32.7254 23.1714 34.7987
Au 25.5199 23.5273 35.3513
Au 29.3439 17.497 40.5553
Au 32.2202 28.4366 33.7543
Pt 30.6687 27.6591 36.0727
Au 30.4211 24.6935 35.9145
Au 25.243 23.4665 42.8356
Au 29.8012 29.8643 34.3052
Pt 30.1006 27.3174 38.7382
Pt 25.5078 27.5901 40.3895
Au 28.2825 29.1129 36.6988
Au 25.9452 27.8245 37.7427
Pt 25.9716 30.6039 37.137
Au 36.3028 22.9882 15.8356
Au 34.0165 21.6979 14.7197
Au 31.75 20.3361 13.7783
Pt 29.4766 19.0114 12.9441
Au 27.1202 17.6662 12.1318
Au 36.5063 25.9882 15.7437
Au 34.1312 24.4856 14.7201
Pt 31.8475 23.148 13.6745
Au 29.524 21.8146 12.8569
Pt 27.2175 20.5064 12.0103
Pt 34.1165 27.3663 14.6484
Au 31.8892 25.9718 13.8019
Au 29.5609 24.6672 12.8159
Pt 27.2288 23.3012 11.9353
Pt 31.8438 28.7909 13.7309
Pt 29.541 27.4336 12.7914
Pt 27.2566 26.094 11.9072
Pt 29.5492 30.2141 12.7783
Au 27.2704 28.8808 11.9345
Pt 27.3143 31.7151 12.0829
Pt 12.9005 22.6235 34.3583
Pt 15.2326 21.6312 35.427
Pt 17.2918 20.2156 36.4986
Au 17.1805 15.9534 39.8407
Pt 17.8454 15.0677 36.3245
Au 13.255 26.7775 34.3982
Pt 14.5363 24.5562 34.7157
Pt 16.7134 22.8039 37.4753
Pt 18.6268 21.3273 38.6134
Pt 20.6573 19.9226 39.5907
Au 14.9587 28.6711 35.884
Pt 16.2327 26.1789 35.9956
Pt 18.4538 24.9038 37.1001
Pt 20.6052 23.4708 38.1437
Au 17.3769 30.1885 36.5808
Pt 18.898 27.6388 36.7357
Pt 20.9533 26.1979 37.8746
Pt 19.6969 31.6036 37.2805
Au 21.2669 29.0429 37.4174
Pt 21.9999 33.0207 38.0491
Pt 13.4649 23.3291 15.5001
Au 15.705 21.9726 14.6055
Pt 17.9736 20.5695 13.7121
Au 20.2539 19.1578 12.8186
Pt 22.4627 17.7272 11.9818
Pt 13.5537 26.1887 15.5689
Pt 15.7136 24.7438 14.5845
Pt 17.9841 23.3494 13.6557
Pt 20.3038 21.9801 12.7405
Pt 22.5375 20.5668 11.9512
Au 15.7742 27.5585 14.6977
Au 18.0443 26.1629 13.7018
Au 20.3016 24.7407 12.7759
Pt 22.5716 23.3559 11.8782
Au 18.1185 28.9833 13.8088
Pt 20.3757 27.5397 12.7726
Pt 22.6097 26.1352 11.9207
Pt 20.387 30.3525 12.9235
Au 22.6474 28.901 11.9727
Au 22.6641 31.7255 12.1237
Au 34.4082 36.6306 23.1324
Au 35.1481 34.3969 21.4505
Au 36.1543 32.073 20.0431
Pt 37.1269 29.7023 18.8613
Pt 38.2444 27.3399 17.5992
Pt 34.6349 36.4533 25.7842
Pt 35.742 34.3741 24.3658
Pt 36.3841 32.3564 22.7496
Au 37.3347 30.0652 21.5873
Pt 38.1887 27.7558 20.4266
Au 35.4976 34.4325 27.3473
Au 36.6232 32.2904 26.0355
Au 37.2598 30.2624 24.3335
Au 38.2099 27.9401 23.2112
Pt 36.4216 32.4552 29.076
Au 35.2914 29.6505 26.1697
Pt 38.4039 28.2054 25.9286
Pt 37.3244 30.47 30.7358
Au 36.4038 27.7375 27.8091
Au 35.5539 22.8277 30.6417
Au 15.3595 36.2362 23.343
Au 14.5015 33.9313 21.9863
Au 13.6495 31.5949 20.6096
Au 12.8493 29.328 19.2283
Pt 12.0803 27.1087 17.8788
Pt 15.3133 36.2298 26.1734
Au 14.3974 33.9568 24.8888
Au 13.4779 31.6539 23.5393
Au 12.6538 29.3646 22.1287
Pt 11.8955 27.0739 20.6974
Pt 14.3079 34.0184 27.7131
Au 13.3994 31.7047 26.3959
Pt 12.5111 29.4065 24.997
Au 11.7793 27.0951 23.5506
Pt 13.3575 31.7454 29.1914
Au 12.5496 29.3123 27.8719
Au 11.7519 27.0005 26.3977
Au 12.4597 29.4454 30.7943
Au 11.7197 26.9187 29.2864
Au 11.5755 26.9678 32.1032
Pt 33.9105 12.5938 23.2307
Au 35.0757 14.9088 22.0453
Au 35.7472 17.0784 20.3717
Au 36.7324 19.4415 19.1031
Au 37.8625 22.0454 18.214
Au 33.7999 12.291 26.118
Au 35.0334 14.6439 24.9248
Au 36.529 17.0477 24.0941
Au 36.8562 18.9364 22.0577
Au 37.8535 21.1824 20.834
Pt 34.886 14.1968 27.786
Pt 36.2541 16.4384 26.7989
Pt 38.1614 18.2132 26.033
Au 37.9027 20.3802 24.1518
Pt 35.9696 15.9657 29.5206
Au 37.1886 18.3453 28.677
Pt 37.7872 20.7111 26.8356
Pt 37.0257 17.574 31.3162
Au 38.1833 21.2683 29.4633
Pt 38.8907 21.502 32.0581
Au 15.1776 13.2416 23.0719
Pt 14.2991 15.544 21.7589
Pt 13.5458 17.7751 20.4235
Au 12.7729 20.0942 19.1248
Au 12.0563 22.495 17.8561
Pt 15.1092 13.1341 25.9058
Pt 14.1797 15.4158 24.5917
Pt 13.3627 17.7028 23.2602
Pt 12.5501 20.0038 21.9465
Pt 11.8265 22.347 20.6373
Pt 14.2157 15.2969 27.3718
Pt 13.2943 17.5937 26.0633
Au 12.425 19.9747 24.7941
Pt 11.7051 22.2983 23.4159
Pt 13.3064 17.4505 28.8996
Au 12.3767 19.8261 27.6629
Pt 11.6514 22.2277 26.3377
Au 12.4355 19.7545 30.5401
Pt 11.6011 22.1628 29.1224
Au 11.5543 22.0646 32.0237
Pt 22.8327 35.1866 36.473
Au 21.5899 35.8734 34.1114
Au 20.2585 36.6256 31.7633
Au 18.9579 37.2424 29.3858
Pt 17.655 37.8523 27.0118
Pt 25.6605 35.3846 36.5191
Pt 24.3695 35.9846 34.21
Au 23.0985 36.7349 31.8112
Pt 21.8167 37.4114 29.4721
Pt 20.5094 37.996 27.1332
Pt 27.1577 36.1356 34.309
Pt 25.8965 36.7542 31.9396
Au 24.6349 37.4758 29.5429
Pt 23.2905 38.0739 27.1736
Pt 28.6432 36.8665 32.0576
Pt 27.405 37.4954 29.6214
Au 26.0975 38.1724 27.1829
Pt 30.1587 37.557 29.7495
Au 28.8874 38.1648 27.2362
Pt 31.646 38.1711 27.3896
Pt 20.5393 15.479 35.4912
Au 21.3749 13.2906 33.9122
Pt 19.972 12.7528 31.472
Pt 18.6876 12.1102 29.0628
Pt 17.3741 11.5283 26.7389
Pt 25.6259 13.7066 36.0978
Pt 24.2591 13.1137 33.9273
Au 22.8115 12.524 31.6114
Pt 21.4543 11.8202 29.1321
Pt 20.1365 11.2831 26.7869
Pt 27.1648 13.1715 33.8925
Au 25.7095 12.4769 31.6001
Au 24.2672 11.7202 29.1843
Pt 22.8663 11.1155 26.8108
Pt 28.5854 12.4461 31.5458
Au 27.1482 11.6702 29.1966
Au 25.7268 10.9782 26.8249
Au 29.9722 11.6446 29.1667
Au 28.5853 10.9104 26.8669
Pt 31.402 10.9577 26.8772
Pt 23.5635 34.0541 13.5624
Au 22.0833 34.9328 15.753
Pt 20.5721 35.8094 17.9903
Pt 19.1051 36.7199 20.1783
Pt 17.694 37.5899 22.3853
Au 26.4555 34.0362 13.5364
Pt 24.947 35.059 15.7437
Au 23.4956 35.9765 17.9945
Pt 21.9474 36.8101 20.1503
Au 20.5036 37.6838 22.4035
Pt 27.7351 35.0875 15.7044
Pt 26.2917 36.0986 17.9298
Pt 24.8382 37.0274 20.1512
Au 23.3329 37.7632 22.4015
Au 29.1488 36.0835 17.9583
Pt 27.6325 37.0532 20.198
Au 26.2266 37.8659 22.4437
Pt 30.3941 37.1144 20.2634
Pt 29.0072 37.9203 22.5111
Au 31.809 37.9053 22.5759
Pt 23.2566 15.3617 13.3717
Pt 21.8338 14.3995 15.5004
Pt 20.3416 13.4969 17.679
Au 18.955 12.6162 19.9279
Au 17.4933 11.7645 22.1638
Pt 26.1313 15.2398 13.3725
Pt 24.6412 14.2577 15.5006
Au 23.1655 13.2942 17.6737
Pt 21.7363 12.392 19.9407
Pt 20.3 11.5332 22.1731
Au 27.5121 14.2645 15.5437
Pt 25.9747 13.2912 17.7142
Au 24.5306 12.2831 19.9483
Pt 23.032 11.3909 22.1869
Au 28.9479 13.3059 17.7595
Au 27.3499 12.2918 19.9729
Pt 25.7559 11.2285 22.1974
Au 30.2307 12.2809 20.0386
Au 28.6308 11.1933 22.2251
Au 31.4662 11.2369 22.2846
Au 35.3745 17.018 35.8508
Au 33.705 29.1729 31.4276
Pt 35.7137 14.2665 31.6657
Au 34.9314 31.7618 31.3232
Au 33.499 14.8655 30.1621
Pt 34.0274 33.8141 29.646
Pt 32.4737 12.8883 28.5162
Pt 33.1199 35.8131 27.938
Pt 35.2392 19.8266 35.5534
Au 33.4977 31.0319 33.6725
Au 35.6687 12.5342 33.746
Pt 32.5737 33.1521 31.861
Pt 31.0734 13.5949 30.8534
Pt 31.6234 35.1915 30.1631
Pt 28.3132 15.0167 35.6035
Au 31.0692 32.3948 34.1435
Au 32.1011 15.5566 32.5929
Pt 30.1166 34.5211 32.3845
Pt 27.9818 13.2535 37.4443
Au 28.803 32.0624 32.5073
Pt 35.4207 20.5637 16.9891
Au 35.7165 28.4868 16.7796
Pt 34.4287 18.1479 18.1881
Au 34.7374 30.9348 17.9286
Pt 33.5324 15.8287 19.4939
Au 33.7553 33.2714 19.257
Au 32.6116 13.6635 21.0093
Au 32.7916 35.7828 20.8801
Au 33.1164 19.271 16.0258
Au 33.3171 29.823 15.8048
Pt 32.1989 16.8572 17.3342
Pt 32.4137 32.2386 17.0988
Pt 31.2723 14.6185 18.6371
Au 31.5288 34.7629 18.5809
Pt 30.8915 17.8746 15.1565
Au 31.0103 31.2094 14.927
Pt 29.9455 15.562 16.4341
Au 30.1116 33.7457 16.3905
Pt 28.5757 16.5862 14.2566
Pt 28.8276 32.7405 14.1604
Au 13.8007 20.3314 33.0635
Au 14.1332 28.9709 33.0684
Pt 14.5576 18.0012 31.4505
Au 14.8102 31.1914 31.5027
Au 15.5217 15.8757 29.8322
Au 15.6818 33.4208 30.0424
Pt 16.4293 13.6864 28.2567
Au 16.6467 35.6361 28.5164
Au 16.0286 18.9657 34.1713
Au 16.0378 30.7201 34.0499
Au 18.3484 17.3666 35.0262
Au 16.9975 32.8308 32.5048
Au 17.7538 14.3153 30.7008
Au 17.9716 35.0439 30.9687
Pt 17.1326 17.4146 37.567
Pt 18.423 32.2533 34.9289
Pt 19.031 14.9023 33.2177
Au 19.3203 34.3585 33.3665
Pt 19.4842 16.0517 37.9664
Pt 20.6248 33.7283 35.8035
Pt 14.1869 20.9421 16.8521
Pt 14.2932 28.5045 16.947
Pt 14.9384 18.6219 18.1408
Pt 15.1129 30.8142 18.2493
Pt 15.7549 16.3415 19.4467
Au 15.8909 33.1113 19.6016
Au 16.6029 14.0783 20.7943
Au 16.7638 35.3604 21.0486
Au 16.4456 19.5754 15.9251
Au 16.5291 29.9455 16.0443
Pt 17.1993 17.2408 17.2351
Pt 17.3364 32.2641 17.3911
Pt 18.0647 14.9117 18.5327
Pt 18.1878 34.5057 18.8056
Au 18.7219 18.1474 15.0414
Au 18.8311 31.3494 15.1191
Pt 19.4847 15.7947 16.2952
Au 19.6471 33.5823 16.5594
Pt 20.98 16.7131 14.1647
Au 21.193 32.6757 14.3163
Pt 40.6802 24.0147 15.2393
Pt 40.8026 23.4896 18.3152
Pt 39.4411 23.2809 20.5684
Pt 40.8618 23.95 22.875
Pt 41.2746 26.9332 26.1775
Pt 40.28 29.119 27.4495
Pt 38.5401 28.3612 29.5017
Au 37.2048 25.8813 32.4416
Au 9.05846 24.7974 14.975
Au 8.87772 24.782 17.8412
Pt 8.69142 24.7888 20.594
Pt 8.63448 24.7907 23.3589
Au 8.5643 24.6937 26.1475
Pt 8.52247 24.5711 29.0915
Au 8.35514 24.4855 31.9022
Au 11.8176 24.8203 38.71
Pt 14.8707 40.6414 24.402
Au 17.6581 40.913 24.4459
Pt 20.418 41.0122 24.6052
Au 23.2244 41.0552 24.6188
Au 26.0636 41.0858 24.6947
Pt 28.8779 41.2049 24.7125
Au 31.6276 41.1568 24.6732
Au 34.4613 41.0232 24.5181
Au 14.4896 8.66354 24.2234
Pt 17.3387 8.48479 24.1701
Au 20.0231 8.23627 24.2698
Pt 22.8126 8.19722 24.3024
Au 25.6533 7.96908 24.2929
Pt 28.5003 7.85957 24.259
Pt 31.2921 7.90932 24.3048
Au 34.0193 7.91637 24.2593
Au 26.3336 15.9701 37.4202
Pt 24.4394 17.1353 39.2157
Au 26.9984 13.7877 39.8581
Pt 22.7443 21.6284 39.3756
Pt 23.0743 26.4218 41.0775
Au 25.6934 32.0405 41.8956
Au 28.03 30.5038 41.5019
Pt 25.7501 32.5871 39.0597
Pt 24.7484 15.1142 8.93049
Pt 24.8203 17.8358 8.84282
Pt 24.8523 20.5763 8.69928
Au 24.8656 23.3258 8.75313
Pt 24.927 26.1447 8.77876
Pt 24.9453 28.8659 8.80605
Pt 24.9349 31.672 8.90434
Pt 24.8907 34.4628 9.13375
Au 38.0271 23.138 36.2386
Pt 33.2842 17.53 34.1914
Au 36.3949 24.3166 38.0123
Pt 29.8166 24.6596 38.7187
Au 31.7981 12.0698 36.8563
Pt 28.3047 17.5762 36.3819
Au 35.8858 29.6436 33.0455
Au 39.4093 27.9766 35.4529
Pt 31.8576 23.1485 37.8078
Pt 31.573 20.3634 37.6934
Pt 25.358 25.0009 40.614
Au 31.6854 18.7788 39.9567
Pt 34.0841 24.3188 36.7245
Pt 35.0984 26.9185 36.7363
Au 32.2017 24.4582 40.274
Pt 29.7467 23.161 40.9196
Au 27.2068 19.1077 41.5184
Pt 34.2586 30.731 37.2862
Pt 32.8331 28.2737 37.3986
Au 30.0687 26.0313 41.1734
Au 27.3334 21.8892 41.8703
Pt 31.9701 30.3045 35.9317
Pt 30.4064 29.8462 38.1476
Au 27.8725 27.6396 41.9608
Pt 29.5705 31.7456 36.3998
Pt 27.9326 28.7322 39.4296
Au 27.3596 31.2919 34.8027
Pt 38.5473 22.8649 14.3075
Au 36.2944 21.6703 13.2632
Pt 33.9719 20.2228 12.2256
Pt 31.721 18.9884 11.3573
Au 29.3689 17.6724 10.5704
Pt 27.0849 16.3321 9.74136
Au 39.0059 26.0359 14.5181
Au 36.5017 24.5222 13.299
Pt 34.2073 23.0822 12.1081
Pt 31.8657 21.7133 11.2257
Pt 29.5398 20.4635 10.4367
Au 27.1289 19.1531 9.60521
Pt 36.4017 27.3399 13.3151
Au 34.2235 25.8876 12.2283
Au 31.9562 24.5056 11.2752
Au 29.5614 23.2503 10.4217
Au 27.229 21.8964 9.54094
Au 34.126 28.7851 12.2289
Au 31.8444 27.3283 11.3284
Pt 29.5394 26.0553 10.3644
Pt 27.2522 24.7267 9.54403
Pt 31.8731 30.1262 11.362
Au 29.5852 28.8421 10.3071
Pt 27.3002 27.4502 9.46563
Au 29.4869 31.7203 10.4229
Au 27.2564 30.3105 9.50167
Pt 27.2472 33.1572 9.78601
Au 7.83919 22.1928 35.9986
Au 8.91338 19.8823 35.1929
Au 13.2444 16.6383 37.0412
Au 14.8452 17.4273 39.0989
Au 22.8983 19.0888 43.3035
Pt 22.4695 16.4493 41.0345
Pt 14.2788 23.7301 37.0762
Au 11.6025 27.57 38.7532
Pt 14.6777 21.2002 38.0767
Au 16.3553 21.9911 40.2024
Au 18.6019 20.3355 41.3086
Pt 21.5387 20.9312 41.9621
Pt 11.5963 29.2232 33.8172
Pt 13.6734 26.3639 37.1475
Au 15.9887 25.2544 38.6006
Pt 20.72 25.1626 40.4236
Pt 20.2828 22.5151 40.4935
Pt 14.1056 28.5462 38.7203
Au 16.5288 27.9306 38.07
Pt 18.608 26.6015 39.3106
Au 23.0237 25.174 43.45
Au 17.2817 32.1222 38.8447
Au 18.8854 29.4233 38.7922
Au 20.993 27.8985 39.9999
Pt 21.2051 30.8094 39.5242
Au 23.1266 28.179 43.1342
Pt 23.4131 32.2846 40.2913
Au 11.1779 23.369 13.9023
Pt 13.4396 22.0032 13.0359
Au 15.6696 20.5744 12.227
Au 17.9158 19.164 11.3164
Pt 20.2346 17.7411 10.4158
Pt 22.4454 16.3785 9.60258
Pt 11.2764 26.2424 14.0671
Au 13.4278 24.7607 13.0173
Pt 15.7013 23.3924 12.1152
Au 17.967 21.9826 11.2341
Au 20.1852 20.5636 10.3153
Au 22.4954 19.2137 9.53704
Au 13.3931 27.6232 13.157
Au 15.7183 26.1696 12.1649
Pt 17.9828 24.7503 11.24
Pt 20.2488 23.4119 10.3351
Pt 22.5335 21.9602 9.55155
Au 15.7512 29.0289 12.2502
Au 18.0032 27.5706 11.228
Au 20.2733 26.138 10.3292
Pt 22.5052 24.7755 9.48338
Au 17.9937 30.3888 11.4095
Au 20.2747 29.002 10.3735
Pt 22.6462 27.4904 9.56441
Au 20.3281 31.8443 10.5238
Au 22.604 30.356 9.55797
Pt 22.6131 33.1288 9.76488
Au 35.8854 38.9869 22.9187
Au 38.5318 37.0675 19.3998
Pt 37.3909 34.5718 19.7762
Au 40.9666 32.691 19.7832
Pt 39.288 29.9798 17.4239
Pt 40.5795 28.1768 16.2529
Au 35.8881 38.9143 25.7065
Au 37.4078 39.3296 20.6529
Pt 37.6185 34.8842 22.4778
Au 41.8745 30.1015 18.4868
Pt 40.4671 28.249 21.7558
Pt 40.9832 25.5571 20.5261
Pt 36.7929 36.9423 27.3003
Pt 37.0816 36.756 24.3639
Pt 38.6138 32.9408 24.001
Pt 39.7843 30.7405 22.8111
Au 41.6474 26.4231 23.3843
Au 37.6964 34.9091 28.9512
Au 38.0368 34.7101 26.0227
Au 41.0388 33.2408 22.6783
Au 42.9993 28.825 23.1505
Pt 38.5592 32.9115 30.6407
Pt 38.9348 32.7305 27.7715
Au 39.508 30.9972 25.642
Pt 39.4541 30.9876 32.2166
Au 37.652 30.2861 27.7357
Pt 36.1401 27.8996 30.9007
Pt 13.9075 38.5578 23.0194
Au 13.0185 36.2967 21.7878
Au 12.1625 33.9277 20.4972
Au 11.2659 31.6547 19.1022
Pt 10.4418 29.3517 17.7734
Pt 9.82275 27.117 16.4198
Au 13.8623 38.5119 25.941
Pt 12.9022 36.2883 24.6383
Au 11.9327 33.9936 23.3465
Pt 11.0553 31.6588 22.0274
Au 10.3048 29.4024 20.5855
Pt 9.61286 27.1198 19.2218
Pt 12.8826 36.3404 27.4638
Au 11.8565 34.0946 26.1767
Au 10.9269 31.7337 24.8475
Pt 10.1351 29.4296 23.4639
Pt 9.51019 27.1266 22.0061