2057
Atoms. Timestep: 20319
Au 25.0011 24.6116 26.0014
Au 27.2364 24.6807 24.4426
Au 27.3553 24.6701 27.4522
Au 22.6708 24.6558 24.3846
Au 22.6394 24.6147 27.2145
Pt 23.5367 27.0377 25.8228
Au 26.3282 27.0122 25.9195
Au 23.6523 22.2575 25.8414
Au 26.4882 22.3414 25.824
Au 26.2468 20.7072 27.9658
Au 24.8955 26.0879 28.2456
Au 24.9215 23.2179 23.5373
Au 24.9125 26.1124 23.59
Au 29.4724 24.7802 22.8029
Au 29.6706 24.7411 25.727
Au 31.5778 22.3959 28.1631
Pt 20.3515 24.6249 22.6815
Au 20.224 24.5972 25.6503
Au 20.2594 24.596 28.5488
Pt 22.066 29.3464 25.7659
Pt 24.8526 29.4604 25.6628
Au 27.7165 29.3881 25.7155
Au 22.1552 19.9826 25.5158
Au 25.0429 19.8334 25.5276
Au 27.911 19.93 25.7715
Au 26.6973 21.5508 30.5599
Au 27.5858 24.0806 30.1803
Au 24.7898 27.8518 30.4586
Au 24.9269 21.8317 21.0905
Au 24.8925 24.7296 21.0994
Pt 24.8327 27.5409 21.2199
Au 30.3726 24.3423 31.2757
Au 27.2225 28.2308 31.9865
Au 27.2397 23.305 21.9791
Au 27.167 26.2061 21.9829
Au 22.4925 22.8459 29.3454
Au 22.5108 26.294 29.4102
Au 22.6278 23.2143 21.8916
Au 22.5544 26.0965 21.934
Au 28.6267 27.0991 24.3118
Pt 31.5671 27.1351 28.3539
Au 21.1711 26.9644 24.2537
Au 21.0788 27.0078 27.0456
Pt 28.7514 22.3609 24.2486
Au 28.8703 22.306 27.1957
Au 21.2572 22.2924 24.1417
Au 21.1351 22.206 26.982
Au 23.4906 28.6175 28.0513
Pt 26.1823 28.7522 27.9607
Au 23.5403 20.65 28.0969
Pt 28.6501 19.9564 28.7451
Au 23.398 28.4551 23.4545
Pt 26.2293 28.5145 23.4982
Pt 23.5344 20.7982 23.2408
Au 26.4149 20.8869 23.3679
Pt 31.6987 24.889 21.0505
Au 31.9484 24.8827 23.9738
Au 33.8621 22.5439 26.4083
Au 34.255 22.39 29.224
Pt 18.0736 24.6098 21.1303
Au 17.939 24.5878 24.0091
Au 17.7628 24.5704 27.036
Au 17.8566 24.5756 29.9535
Au 20.4536 31.6087 25.7115
Pt 23.4075 31.7791 25.5549
Pt 26.1978 31.8588 25.4943
Pt 29.0169 31.8009 25.4148
Au 20.6608 17.6659 25.2287
Au 23.4871 17.5436 25.2775
Au 26.4444 17.321 25.3166
Au 29.3692 17.516 25.6755
Au 24.6502 19.8182 32.4637
Au 28.492 22.7498 32.5681
Au 25.1863 25.0674 31.2812
Au 24.8908 29.5911 32.667
Au 24.9368 20.5129 18.6244
Au 24.868 23.2883 18.5942
Au 24.8377 26.1307 18.6594
Au 24.8252 28.916 18.7036
Au 29.9781 24.7056 28.4887
Au 25.9979 22.85 33.42
Pt 32.9126 29.516 28.1453
Pt 34.1913 27.0859 29.325
Au 29.8908 28.2687 32.6843
Au 29.5218 23.3614 20.3037
Au 27.2318 21.9114 19.465
Au 29.4721 26.2818 20.3011
Au 27.1904 24.7566 19.4718
Au 27.1218 27.593 19.5
Au 20.0626 22.783 30.7734
Pt 22.0768 21.0211 31.6345
Au 20.0834 26.3728 30.7246
Au 22.3045 24.5324 31.4243
Au 22.2707 28.0361 31.5395
Au 20.3373 23.217 20.2852
Pt 22.5863 21.7719 19.4573
Pt 20.2487 26.0709 20.291
Au 22.5416 24.6652 19.4509
Au 22.5265 27.5158 19.5382
Au 30.0537 29.498 24.1293
Au 30.9295 27.1915 22.6124
Au 30.3027 29.4419 27.0838
Au 31.1639 27.1527 25.5536
Pt 32.2952 24.8829 26.7492
Au 19.7156 29.3208 24.1717
Au 18.8622 26.916 22.5918
Pt 19.451 29.3482 26.9581
Au 18.6769 26.9572 25.517
Au 18.5988 26.9902 28.3877
Au 30.1569 20.0495 24.0189
Au 30.9631 22.4438 22.5825
Au 30.5495 20.0525 26.836
Au 31.2244 22.4854 25.3974
Pt 31.1957 19.8866 29.7334
Au 19.7659 19.9446 23.9072
Au 18.9023 22.2963 22.525
Pt 19.6691 19.8708 26.8043
Au 18.7276 22.2202 25.4466
Au 18.7366 22.2091 28.3123
Pt 23.3108 30.2943 30.3529
Au 22.0635 31.0455 27.9465
Au 26.2162 30.3115 30.2248
Au 24.8321 31.1497 27.891
Au 27.6524 31.1706 27.787
Au 23.4077 18.8595 30.2225
Au 21.9587 18.3119 27.7756
Au 26.3248 18.8678 30.0544
Au 24.8225 18.0839 27.7452
Au 27.564 17.7707 27.7674
Au 23.3441 29.8622 21.02
Pt 21.9733 30.7929 23.3868
Au 26.2167 29.8819 21.0134
Au 24.7858 30.8696 23.28
Au 27.6645 30.8653 23.2669
Pt 23.5116 19.4618 20.8166
Pt 22.0871 18.538 22.9785
Pt 26.3403 19.4721 20.8985
Pt 24.942 18.4583 23.0295
Au 27.835 18.5582 23.1783
Au 29.4554 22.0901 29.9712
Au 28.8504 27.0773 27.3097
Au 28.6896 20.95 21.7355
Au 28.5886 28.5666 21.8149
Au 20.9382 20.4907 29.2263
Au 20.9659 28.7526 29.1895
Au 21.2053 20.8087 21.6512
Au 21.0314 28.449 21.7914
Pt 33.9286 24.9868 19.4531
Au 34.1778 25.0135 22.2308
Pt 36.0767 22.6902 24.7377
Pt 36.4853 22.524 27.441
Pt 34.7494 22.0908 32.0733
Au 15.8159 24.5641 19.5597
Pt 15.6305 24.5527 22.3475
Au 15.4616 24.5551 25.3289
Pt 15.2572 24.4455 28.3099
Pt 15.4536 24.5068 31.1848
Au 18.8401 33.8753 25.6422
Au 21.905 34.1122 25.3837
Pt 24.7947 34.2135 25.3271
Pt 27.5909 34.2459 25.25
Au 30.5412 34.1243 25.1051
Au 19.1214 15.3479 24.9764
Pt 21.8849 15.1928 24.9799
Pt 24.6871 15.1313 25.0451
Pt 28.3611 14.811 25.4192
Pt 31.0937 15.4831 25.3627
Au 24.013 18.4267 35.0184
Au 24.2647 22.4644 31.4048
Pt 23.6538 24.2575 33.74
Au 25.1812 23.2362 28.6732
Au 25.6055 30.9823 34.9813
Au 24.9284 19.1803 16.2149
Pt 24.8823 21.933 16.0805
Au 24.8696 24.7027 16.1134
Au 24.7806 27.559 16.1554
Au 24.7493 30.3274 16.2286
Pt 32.8009 20.5103 33.3107
Au 29.5504 18.7643 33.9909
Au 26.1059 20.4843 35.2193
Au 32.1499 22.1156 30.9841
Au 26.7662 23.0329 36.1042
Au 27.839 25.5816 32.5502
Au 32.6276 24.7275 29.458
Au 29.572 26.7556 30.3603
Pt 27.6201 25.9473 37.1252
Pt 31.7237 23.4998 18.6496
Pt 29.5158 21.968 17.8681
Pt 27.237 20.5718 17.0005
Pt 31.6821 26.3387 18.6336
Au 29.467 24.8302 17.8385
Au 27.1839 23.3323 16.9477
Pt 29.4246 27.678 17.8613
Au 27.1301 26.2045 16.9876
Pt 27.1416 29.0075 17.0038
Pt 17.4767 22.7273 32.0497
Pt 19.4769 21.1371 32.9666
Au 21.6658 19.6608 33.9297
Pt 17.6495 26.616 31.8669
Pt 19.3366 24.5697 32.6391
Pt 21.3358 22.9193 33.3904
Pt 19.7597 28.2944 32.6582
Pt 21.5149 26.1592 33.316
Pt 22.2891 29.8952 33.3718
Au 18.0714 23.1761 18.7068
Pt 20.3441 21.8194 17.8849
Pt 22.5941 20.478 17.0172
Pt 17.9925 26.0643 18.7359
Pt 20.2482 24.6608 17.8648
Au 22.5577 23.2304 16.992
Au 20.2012 27.4903 17.9172
Au 22.5155 26.0899 16.9967
Au 22.4369 28.9263 17.0507
Au 31.4643 31.8608 23.7946
Au 32.3454 29.5785 22.3332
Au 33.1427 27.2866 20.9124
Au 31.6461 31.8195 26.6408
Au 32.6081 29.5339 25.2718
Pt 33.4798 27.2764 23.7448
Au 35.1507 29.6864 26.3802
Au 34.5064 24.9807 25.0338
Au 33.7464 27.2664 26.5886
Au 18.0849 31.6067 24.0478
Au 17.3305 29.2338 22.4309
Au 16.5378 26.9037 20.9912
Pt 17.7334 31.5588 26.9005
Au 17.1188 29.2807 25.3501
Au 16.3198 26.8811 23.8321
Au 16.8624 29.2595 28.2063
Au 16.1901 26.8811 26.7603
Au 16.0588 26.8345 29.6132
Au 31.6762 17.7837 23.7252
Pt 32.466 20.1978 22.2076
Au 33.1597 22.5897 20.8668
Au 32.1308 17.8223 26.5181
Au 32.8244 20.2601 24.9913
Pt 33.5293 22.6068 23.6357
Au 32.7354 17.6657 29.3834
Au 33.2192 20.1231 27.8585
Pt 33.7786 19.8791 30.747
Au 18.2468 17.6 23.5824
Au 17.4209 19.9313 22.2489
Pt 16.6069 22.2119 20.9047
Au 18.141 17.5903 26.4897
Au 17.2329 19.8673 25.146
Au 16.3923 22.2478 23.7612
Au 17.1941 19.9122 27.9938
Au 16.203 22.2388 26.7043
Au 16.2544 22.2225 29.5241
Au 23.7842 32.1122 32.5792
Au 22.106 32.7086 30.3021
Au 20.708 33.4994 27.877
Au 26.6109 32.0209 32.3368
Au 24.9934 32.8497 30.1011
Au 23.4806 33.6316 27.7479
Pt 27.9135 32.8095 29.9478
Au 26.2736 33.6585 27.6578
Au 29.1252 33.528 27.494
Pt 22.7615 17.5023 32.5244
Au 21.8954 16.5441 29.9974
Au 20.3786 16.0513 27.5195
Au 25.5724 17.2463 31.9887
Pt 24.781 16.156 29.6716
Au 23.2732 15.7096 27.4308
Pt 27.5277 16.1997 29.9536
Au 26.2964 15.3553 27.3454
Pt 29.1439 15.2755 27.9202
Au 23.3083 31.2774 18.5094
Au 21.8247 32.2057 20.9057
Au 20.3472 33.059 23.2098
Au 26.1888 31.3196 18.4941
Au 24.7026 32.3387 20.7609
Au 23.2783 33.221 23.1148
Au 27.6116 32.3151 20.7914
Au 26.1799 33.2724 23.0649
Pt 29.0209 33.2853 23.0208
Au 23.5211 18.1063 18.384
Au 22.0594 17.1384 20.5717
Pt 20.6475 16.2059 22.7303
Pt 26.3596 18.143 18.4865
Pt 24.9341 17.1039 20.6481
Au 23.474 16.14 22.8175
Pt 27.7991 17.239 20.6898
Au 26.4111 16.0969 22.8956
Au 29.3612 16.2603 23.1204
Pt 31.7532 18.2622 31.9309
Au 31.4316 30.5604 32.562
Pt 30.1738 17.6836 28.435
Pt 30.1428 31.3901 29.0229
Au 29.0464 18.4575 30.9254
Au 27.0791 26.659 29.6094
Pt 30.9552 21.019 20.0514
Pt 30.8643 28.6655 20.0695
Au 30.1671 18.6352 21.4762
Au 29.9856 30.935 21.5596
Au 28.6603 19.5648 19.2525
Au 28.5223 29.9595 19.2731
Pt 18.4571 20.5256 30.4942
Pt 18.5656 28.9313 30.338
Pt 19.3969 18.2593 28.992
Pt 19.5378 31.1699 28.932
Pt 20.6216 18.8237 31.3701
Pt 20.6668 30.4924 31.3081
Pt 18.9228 20.8214 20.0515
Pt 18.7078 28.402 20.0943
Pt 19.7275 18.4945 21.3536
Au 19.512 30.7626 21.6651
Pt 21.1926 19.4288 19.2116
Au 20.986 29.8784 19.3513
Pt 36.1465 25.0693 17.8559
Pt 36.4559 25.1183 20.5797
Au 38.387 22.7672 22.9963
Au 38.6686 22.6978 25.7588
Pt 39.089 22.536 28.4697
Pt 36.3628 19.9437 31.6724
Pt 13.5457 24.6204 17.9655
Au 13.3346 24.5183 20.7357
Au 13.2056 24.4987 23.5737
Pt 13.0118 24.3564 26.4825
Pt 12.7823 24.3555 29.2778
Au 12.8632 24.5163 32.1743
Au 17.3644 36.1775 25.4446
Au 20.2847 36.3657 25.1387
Pt 23.3036 36.4964 25.1167
Pt 26.2142 36.6173 25.0055
Au 29.0326 36.667 24.9348
Au 31.9798 36.568 24.8716
Pt 17.6824 13.0612 24.8229
Pt 20.4112 12.8478 24.8156
Pt 23.1454 12.9203 24.7709
Au 26.2833 13.0215 25.0247
Au 28.5043 11.5297 25.1991
Au 32.7853 13.3453 24.9792
Au 20.0669 14.4139 40.3685
Pt 25.0539 22.0385 37.9535
Au 23.2031 23.2063 36.3251
Pt 20.9879 26.7242 39.8101
Au 23.7101 29.0151 35.5481
Au 24.6817 32.5298 37.1003
Au 24.9078 17.7684 13.8304
Pt 24.8606 20.6117 13.7201
Pt 24.8121 23.3379 13.665
Au 24.7774 26.1795 13.6808
Pt 24.7142 28.9597 13.6876
Pt 24.6696 31.7296 13.8269
Pt 35.4408 20.4737 34.2664
Au 32.1779 18.0375 34.6321
Au 28.91 21.3311 35.1836
Au 23.6282 21.5367 34.2507
Au 33.1204 24.3419 32.2235
Pt 33.5046 25.645 34.4883
Au 28.8797 24.2506 34.9201
Au 27.4393 20.0688 32.7083
Pt 34.6833 26.7421 32.1453
Au 31.1431 22.896 33.6607
Au 24.2411 26.9019 33.1487
Au 32.1031 26.7811 31.2292
Au 25.6981 27.9512 41.4559
Au 26.2245 28.1263 34.7503
Pt 33.8866 23.5761 17.0752
Au 31.6897 22.1624 16.1871
Au 29.4743 20.626 15.4197
Au 27.2191 19.243 14.5901
Au 33.8736 26.3971 16.9762
Pt 31.6571 24.9644 16.1882
Au 29.4138 23.4773 15.3203
Pt 27.127 22.0398 14.4745
Pt 31.6054 27.7831 16.2237
Au 29.3621 26.2939 15.3742
Pt 27.0991 24.7921 14.4267
Au 29.3432 29.096 15.3745
Au 27.0517 27.6261 14.5004
Au 27.0221 30.4591 14.5804
Pt 15.0317 22.722 33.2241
Pt 16.9879 21.1187 34.252
Au 19.062 19.5618 35.2231
Au 21.1763 18.0523 36.2643
Au 15.1607 26.779 32.7772
Pt 16.7779 24.7898 33.7845
Pt 18.6317 23.2126 34.8498
Au 20.7395 21.7554 35.79
Au 17.1956 28.5955 33.7207
Au 18.8982 26.4674 34.5283
Au 20.9543 24.7086 35.4323
Au 19.8822 30.284 34.3833
Pt 21.2253 27.9437 35.1366
Pt 22.6172 31.6998 35.2566
Au 15.7234 23.1542 17.1041
Pt 18.0434 21.8008 16.2835
Au 20.3297 20.4665 15.4424
Au 22.6053 19.0636 14.6297
Pt 15.7503 26.0459 17.1516
Au 17.9625 24.6596 16.2673
Au 20.2477 23.2633 15.401
Pt 22.544 21.8999 14.5023
Pt 17.9478 27.5446 16.3523
Au 20.2264 26.1541 15.4178
Au 22.5336 24.7056 14.5086
Pt 20.1741 28.9462 15.4449
Pt 22.4428 27.5569 14.5138
Au 22.4106 30.3304 14.637
Pt 32.9935 34.144 23.5289
Pt 33.8203 31.8651 22.0646
Pt 34.6463 29.6189 20.6487
Au 35.4196 27.3488 19.2551
Au 33.16 34.3209 26.3231
Au 34.0417 31.9739 24.9531
Au 34.8875 29.6465 23.4961
Pt 35.7435 27.4009 22.0411
Pt 34.1454 31.9851 27.9277
Pt 36.0307 27.3339 24.8254
Au 36.7489 25.0785 23.3243
Au 35.5632 29.492 29.1218
Pt 37.0975 24.9878 26.0943
Au 34.8902 24.8437 27.7923
Pt 16.6026 33.8613 23.8812
Au 15.8296 31.5383 22.3028
Pt 15.0301 29.1763 20.7508
Pt 14.2789 26.8939 19.3558
Pt 16.1502 33.8678 26.6805
Pt 15.5498 31.5561 25.2109
Au 14.7526 29.1983 23.603
Pt 14.0103 26.8692 22.1138
Pt 15.166 31.5241 27.9143
Au 14.5479 29.1986 26.4327
Au 13.8129 26.8659 24.9832
Pt 14.2284 29.2049 29.1659
Au 13.6869 26.7132 27.8233
Au 13.4822 26.7732 30.5825
Pt 33.1973 15.5778 23.4186
Au 33.9357 17.9613 21.9433
Pt 34.6619 20.3029 20.5403
Pt 35.3821 22.6811 19.2165
Pt 34.4755 15.5519 29.0266
Au 34.3761 18.0268 24.6994
Pt 35.0552 20.3896 23.304
Au 35.7527 22.6919 21.9526
Pt 33.0657 13.6506 33.0044
Au 34.877 17.8964 27.5235
Pt 35.4801 20.3154 26.0636
Pt 35.4281 17.7331 30.3557
Au 35.8729 20.1166 28.8479
Pt 36.0725 16.0963 32.4776
Pt 16.7439 15.2691 23.3482
Pt 15.9164 17.5535 21.995
Pt 15.0861 19.841 20.6923
Pt 14.3186 22.1907 19.3579
Pt 16.5571 15.2755 26.1397
Pt 15.7023 17.5017 24.7813
Au 14.8921 19.8218 23.4749
Au 14.1006 22.1565 22.1117
Au 15.6032 17.5579 27.5917
Au 14.7039 19.8489 26.3442
Au 13.8721 22.1638 24.9954
Pt 14.6205 19.8525 29.1481
Pt 13.6977 22.1174 27.8541
Au 13.7621 22.2278 30.6489
Pt 24.5434 33.6901 34.7107
Au 22.6692 34.6918 32.3089
Au 21.008 35.2357 30.1072
Au 19.2634 35.9903 27.7033
Pt 29.5262 35.5834 33.9714
Au 25.4247 34.6536 32.2148
Pt 23.9392 35.3699 29.8023
Au 22.0754 36.0881 27.5375
Pt 28.1808 34.4337 32.1078
Pt 26.6914 35.2709 29.8294
Pt 24.8944 36.1274 27.3479
Au 29.4296 35.1466 29.7395
Au 27.7108 36.0891 27.4093
Au 30.7476 35.8084 27.3165
Au 22.2639 15.8837 34.7447
Pt 21.012 15.2023 32.2287
Au 20.1695 14.2977 29.6737
Pt 18.7492 13.7781 27.239
Au 24.918 15.8368 34.1702
Pt 23.6864 15.0333 31.8998
Au 23.0763 13.8072 29.5102
Pt 21.5324 13.5663 27.194
Pt 26.5014 14.653 32.0473
Au 25.9294 13.6469 29.5422
Au 24.5785 13.1105 27.1489
Pt 28.5495 13.7494 30.1342
Pt 27.8471 13.0108 27.5514
Pt 30.3927 13.1563 26.3686
Pt 23.2703 32.6991 16.0918
Au 21.8047 33.5723 18.4421
Pt 20.2514 34.4387 20.7244
Pt 18.794 35.2827 22.9587
Au 26.1264 32.7378 16.0635
Pt 24.6512 33.7525 18.282
Pt 23.1978 34.6801 20.6331
Pt 21.7087 35.4541 22.8396
Au 27.5092 33.7311 18.2899
Au 26.0546 34.7658 20.5061
Au 24.6505 35.6232 22.8462
Au 29.0137 34.7274 20.5375
Au 27.5691 35.6614 22.7629
Au 30.4544 35.6773 22.7116
Pt 23.4855 16.6693 15.9936
Au 22.0616 15.677 18.1176
Pt 20.6618 14.7401 20.3272
Pt 19.2087 13.9119 22.5526
Au 26.3599 16.7737 16.0428
Pt 24.9131 15.6935 18.2127
Au 23.5068 14.668 20.3895
Pt 21.9924 13.7976 22.538
Au 27.837 15.8689 18.317
Pt 26.3423 14.8285 20.4685
Pt 24.8998 13.767 22.6489
Au 29.3905 15.0502 20.6107
Au 27.8702 13.7873 22.8585
Au 30.7178 13.8533 23.0833
Pt 34.4304 18.3068 32.9102
Pt 35.3002 24.6485 30.5281
Au 33.417 16.1138 31.6214
Pt 32.5874 31.4319 30.1227
Pt 31.7477 15.4041 28.0572
Au 31.7414 33.5923 28.7164
Au 31.1579 15.8091 33.3533
Pt 31.0856 29.1525 30.1393
Au 30.4576 15.9441 30.5193
Pt 30.5392 32.9727 31.2137
Au 28.4362 16.4378 32.6173
Au 27.3545 33.0533 34.6726
Au 33.1608 21.1682 18.4024
Au 33.0889 28.7274 18.4402
Pt 32.418 18.7693 19.759
Pt 32.282 30.993 19.8502
Pt 31.695 16.4767 21.1782
Au 31.4092 33.2701 21.376
Pt 30.9508 19.6228 17.629
Au 30.7889 30.0909 17.6258
Pt 30.1897 17.3054 18.9768
Au 29.9304 32.3498 19.0685
Au 28.6933 18.1922 16.8005
Pt 28.4865 31.401 16.7819
Au 15.8617 20.4689 31.6353
Pt 16.1253 29.1093 31.1837
Au 16.8102 18.2361 30.1111
Pt 17.1113 31.3903 29.8795
Pt 17.7948 15.9347 28.6417
Au 18.1124 33.6766 28.6297
Au 18.0199 18.8796 32.6138
Pt 18.1724 30.807 32.332
Au 19.0309 16.613 31.0755
Au 19.3384 33.0227 31.0443
Au 20.1141 17.3298 33.6666
Pt 21.0882 32.4441 33.1321
Au 16.5496 20.79 18.503
Pt 16.4549 28.356 18.5457
Au 17.3933 18.4674 19.8179
Pt 17.1933 30.686 19.918
Au 18.286 16.1206 21.1495
Pt 17.9966 33.021 21.4674
Au 18.9104 19.4441 17.6468
Au 18.6925 29.8753 17.7085
Au 19.7165 17.0238 18.9242
Au 19.4376 32.1852 19.2119
Pt 21.1786 18.0119 16.8103
Pt 20.9589 31.2845 16.8919
Au 38.3979 25.1015 16.1567
Pt 38.6908 25.1922 18.9111
Pt 39.0207 25.1763 21.618
Au 39.3402 25.1281 24.3732
Pt 39.6456 24.9234 27.1083
Pt 37.4876 24.7943 28.7991
Pt 41.0721 20.2243 30.8046
Au 11.3467 24.5459 16.3543
Pt 11.0403 24.4957 19.1563
Au 10.8405 24.4204 21.8922
Au 10.7119 24.3455 24.6981
Au 10.5313 24.31 27.5369
Pt 10.2969 24.3445 30.3654
Pt 10.2489 24.4881 33.1546
Pt 14.9181 38.5298 27.6906
Pt 17.7278 38.2916 27.4108
Au 21.6874 38.7511 24.8434
Au 24.6321 38.8805 24.8086
Pt 27.5343 39.2086 24.7153
Pt 30.2007 39.1999 24.6197
Au 33.6845 38.7649 24.7922
Pt 16.2592 10.7796 24.5949
Pt 19.0829 10.4792 24.7938
Pt 21.8583 10.5537 24.4727
Pt 24.9471 9.24506 22.1718
Au 26.478 8.98921 24.6363
Au 31.2305 11.0745 24.5454
Pt 36.0034 9.1491 24.1131
Au 22.8371 20.2972 36.8507
Pt 23.4519 20.6598 39.6021
Pt 21.5566 22.1793 38.4945
Au 23.4269 26.1525 35.7283
Pt 27.5568 28.2287 39.1961
Pt 24.0844 28.9451 39.5643
Pt 24.0634 31.5967 39.6952
Au 24.9462 16.4387 11.4518
Pt 24.8665 19.2282 11.3539
Au 24.8252 21.9537 11.2974
Au 24.7614 24.8005 11.2589
Pt 24.766 27.5815 11.2627
Pt 24.6724 30.3345 11.309
Au 24.622 33.0941 11.4835
Pt 37.9933 20.5717 35.0034
Au 30.2424 20.6362 32.2657
Pt 31.5432 22.1218 36.1112
Au 26.8357 17.8901 34.4108
Au 25.1148 24.7497 37.6144
Pt 35.7055 24.4326 33.3437
Pt 34.3491 22.2522 37.2187
Pt 32.7582 24.3932 36.5563
Au 26.0849 25.3663 34.7632
Au 31.8984 18.2862 39.8799
Au 32.4603 28.1217 33.6994
Pt 30.6318 29.1883 35.6958
Au 30.8277 25.721 33.6177
Au 24.42 21.2913 42.1181
Au 28.2301 30.1414 34.075
Pt 31.7971 25.8915 38.7998
Pt 22.4127 27.7857 37.7284
Au 28.7843 27.1203 34.9458
Au 25.3584 27.4797 37.479
Pt 25.558 30.0996 37.6677
Au 36.0769 23.6743 15.3824
Au 33.885 22.1963 14.4635
Au 31.7007 20.6988 13.677
Pt 29.4884 19.2702 12.96
Au 27.2336 17.8077 12.2426
Au 36.1362 26.5203 15.3522
Au 33.822 24.9823 14.473
Pt 31.6288 23.5371 13.5587
Au 29.4045 22.0785 12.8636
Pt 27.1805 20.6518 12.1083
Pt 33.8206 27.8485 14.5086
Au 31.5833 26.4082 13.7455
Au 29.3352 24.95 12.8459
Pt 27.0972 23.4642 12.0231
Pt 31.5629 29.2267 13.7537
Pt 29.2839 27.7319 12.8605
Pt 27.0472 26.2805 11.9996
Pt 29.2547 30.5197 12.9185
Au 26.9971 29.0705 12.0467
Pt 26.9792 31.8763 12.2031
Pt 12.4778 22.646 34.1867
Pt 14.4456 20.9541 35.2719
Pt 16.4458 19.3147 36.3129
Au 16.804 17.9152 40.8086
Pt 17.0199 15.4618 36.916
Au 12.6394 26.8848 33.8333
Pt 14.2091 24.8165 34.7625
Pt 16.0416 23.1469 35.8581
Pt 17.9939 21.5422 36.8897
Pt 18.8973 21.9152 39.517
Au 14.5251 28.8914 34.7691
Pt 15.9322 26.804 35.5623
Pt 17.6557 25.2452 36.6333
Pt 19.5412 23.7166 37.5548
Au 17.4426 30.8208 35.4232
Pt 18.0315 28.3168 36.3688
Pt 19.9552 26.6596 37.2287
Pt 19.9862 32.2482 36.1979
Au 20.3532 29.5957 37.0125
Pt 22.0734 33.2435 37.3418
Pt 13.5056 23.0991 15.4849
Au 15.7719 21.7727 14.6801
Pt 18.07 20.428 13.8448
Au 20.3742 19.0576 13.0077
Pt 22.6125 17.6747 12.1975
Pt 13.512 25.9864 15.5449
Pt 15.6957 24.5684 14.6427
Pt 17.982 23.2148 13.7798
Pt 20.3166 21.902 12.8968
Pt 22.5688 20.536 12.1315
Au 15.688 27.4172 14.7331
Au 17.9604 26.0516 13.8398
Au 20.2305 24.6731 12.935
Pt 22.5073 23.3493 12.0337
Au 17.9512 28.9423 13.8489
Pt 20.2262 27.4977 12.922
Pt 22.4683 26.1443 12.0727
Pt 20.1254 30.3447 12.985
Au 22.4358 28.9279 12.1157
Au 22.3067 31.7543 12.1984
Au 34.3708 36.4813 23.2754
Au 35.2093 34.2156 21.8787
Au 36.0743 31.9658 20.4241
Pt 36.9406 29.6887 19.0379
Pt 37.6547 27.4337 17.6402
Pt 34.8137 36.5795 25.9823
Pt 35.5945 34.2763 24.6801
Pt 36.3773 32.0149 23.2276
Au 37.215 29.7481 21.8103
Pt 37.9856 27.4583 20.3835
Au 35.585 34.4267 27.6593
Au 36.5444 32.0815 26.1323
Au 37.441 29.7453 24.6399
Au 38.296 27.4834 23.1601
Pt 39.5113 31.509 29.677
Au 37.8415 29.7446 27.4579
Pt 38.6465 27.3705 25.9113
Pt 38.2391 29.2567 30.174
Au 36.3931 27.2554 27.5688
Au 36.8611 22.3851 30.1954
Au 15.0732 36.0797 23.6348
Au 14.2657 33.8028 22.0938
Au 13.4845 31.4287 20.602
Au 12.7127 29.1273 19.1699
Pt 11.9952 26.8748 17.7848
Pt 14.6226 36.0953 26.4199
Au 13.9802 33.7572 24.9306
Au 13.1708 31.451 23.4313
Au 12.4016 29.1379 21.985
Pt 11.7185 26.8221 20.545
Pt 13.5111 33.7026 27.6518
Au 12.8805 31.4216 26.1893
Pt 12.0995 29.1391 24.7327
Au 11.4743 26.8186 23.3149
Pt 12.521 31.4456 28.9348
Au 11.9518 29.0556 27.4883
Au 11.2982 26.7246 26.0882
Au 11.6361 29.1387 30.2832
Au 11.1277 26.681 28.9115
Au 10.9051 26.7746 31.7037
Pt 35.0227 13.5299 23.0775
Au 35.5882 15.7669 21.6302
Au 36.3088 18.0848 20.2296
Au 36.9878 20.4278 18.8809
Au 37.6359 22.7816 17.5213
Au 33.8217 15.6658 26.1855
Au 36.0073 15.7813 24.4208
Au 37.0889 18.0512 25.7814
Au 37.3922 20.4259 21.5815
Au 38.046 22.8054 20.2386
Pt 39.186 15.7171 28.0474
Pt 36.5488 15.687 27.1943
Pt 37.5534 17.8835 28.5236
Au 37.656 20.4186 24.3572
Pt 37.0688 15.5417 29.92
Au 41.7643 15.7663 29.005
Pt 38.1206 20.2748 27.1274
Pt 38.0274 17.7194 31.2536
Au 38.5006 20.1335 29.8507
Pt 38.9173 19.9909 32.5368
Au 15.3111 12.9316 23.1232
Pt 14.4515 15.3259 21.7966
Pt 13.6664 17.5081 20.4069
Au 12.8549 19.8255 19.0792
Au 12.1043 22.228 17.777
Pt 15.0936 13.0125 25.9527
Pt 14.2233 15.265 24.5694
Pt 13.4003 17.5269 23.2015
Pt 12.5658 19.7908 21.8572
Pt 11.7924 22.0924 20.5166
Pt 14.0988 15.2233 27.3321
Pt 13.2191 17.465 25.9645
Au 12.338 19.7863 24.6595
Pt 11.5833 22.0629 23.2601
Pt 13.1103 17.4329 28.7684
Au 12.1851 19.7162 27.4823
Pt 11.4186 22.0126 26.1432
Au 12.154 19.7914 30.2865
Pt 11.2396 22.04 28.9194
Au 11.1981 22.1247 31.7588
Pt 23.9038 35.2249 36.9059
Au 23.7994 36.2283 34.4108
Au 21.4785 37.3109 32.2031
Au 19.8626 37.6354 29.9014
Pt 16.2926 40.3154 29.2609
Pt 26.5142 34.5324 36.6957
Pt 26.727 35.7762 34.2909
Au 24.2553 37.28 31.9079
Pt 22.6862 37.7049 29.6517
Pt 20.5119 38.4738 27.3015
Pt 30.6251 38.3431 34.4173
Pt 26.9706 37.0837 31.8633
Au 25.5565 37.7017 29.5124
Pt 23.3857 38.5388 27.2222
Pt 29.6588 36.9654 31.8226
Pt 28.3652 37.7554 29.6032
Au 26.382 38.6079 27.0836
Pt 31.0902 37.4018 29.5899
Au 29.4779 38.2565 27.1527
Pt 32.5712 37.8277 27.2365
Pt 19.5948 15.6569 35.8901
Au 20.634 13.5725 34.3486
Pt 19.3766 12.8116 31.8878
Pt 18.421 12.1044 29.3997
Pt 17.2317 11.4966 27.0078
Pt 24.5243 14.3435 36.3566
Pt 23.37 13.3274 34.1585
Au 22.0113 12.7034 31.8788
Pt 21.2661 11.6946 29.4762
Pt 19.9275 11.3618 27.1874
Pt 27.1392 15.1777 35.5172
Au 24.7451 12.5071 31.7812
Au 24.4481 11.0736 29.1233
Pt 22.6423 11.2319 26.9827
Pt 27.4942 12.1597 32.1011
Au 28.2369 8.36623 26.8614
Au 26.4195 10.6492 26.9179
Au 27.2288 11.061 29.5108
Au 30.1448 6.69197 25.523
Pt 29.4157 10.8131 27.7841
Pt 23.2329 34.1064 13.716
Au 21.7744 34.9475 15.9588
Pt 20.2545 35.7801 18.2228
Pt 18.7708 36.6581 20.4606
Pt 17.3341 37.5155 22.7431
Au 26.0988 34.1254 13.6781
Pt 24.629 35.1217 15.8976
Au 23.2022 36.0291 18.1844
Pt 21.6296 36.8152 20.349
Au 20.1865 37.6976 22.6213
Pt 27.4432 35.1352 15.8379
Pt 26.018 36.1595 18.0436
Pt 24.617 37.1092 20.2778
Au 23.0857 37.8515 22.5142
Au 28.9145 36.1096 18.1052
Pt 27.4573 37.1223 20.2745
Au 26.0595 38.0177 22.5031
Pt 30.3264 37.2383 20.3362
Pt 28.8527 38.0946 22.4714
Au 31.8311 38.1862 22.5319
Pt 23.5264 15.3412 13.6227
Pt 22.1439 14.2729 15.7753
Pt 20.7008 13.3027 17.9188
Au 19.2876 12.3743 20.1128
Au 17.8063 11.6204 22.4296
Pt 26.4149 15.3823 13.5993
Pt 24.981 14.3441 15.7684
Au 23.5416 13.2272 17.9606
Pt 22.0817 12.2116 20.1352
Pt 20.6288 11.4951 22.3448
Au 27.9035 14.5187 15.8022
Pt 26.3874 13.4857 17.9774
Au 25.0201 12.317 20.264
Pt 23.4688 11.5057 22.3905
Au 29.4867 13.6852 18.0496
Au 27.883 12.6353 20.2912
Pt 26.3234 11.3986 22.7467
Au 30.9171 12.7647 20.3485
Au 29.0978 11.3064 22.5117
Au 32.6592 11.939 22.3973
Au 34.4777 15.7527 37.0152
Au 33.583 29.1005 31.1299
Pt 35.1528 13.8572 31.1415
Au 36.8815 32.0878 28.9754
Au 32.4544 11.0401 34.1519
Pt 34.1662 33.6706 30.0994
Pt 33.4134 13.4071 27.684
Pt 33.2946 35.8062 28.7885
Pt 36.3651 22.6873 35.4552
Au 35.2102 31.388 31.0573
Au 33.6632 13.3803 35.6747
Pt 33.3137 32.5688 32.5134
Pt 30.7883 12.8768 28.92
Pt 31.8784 35.14 31.0499
Pt 25.5213 11.6075 36.3761
Au 32.2878 31.5111 34.9432
Au 31.7216 13.2287 37.6212
Pt 31.8453 34.1761 33.9275
Pt 25.3005 15.3799 38.9084
Au 28.5424 29.0446 29.2932
Pt 35.3725 21.2474 16.7336
Au 35.4026 28.8383 16.765
Pt 34.6365 18.8638 18.1182
Au 34.5768 31.1028 18.1863
Pt 33.9448 16.5434 19.4558
Au 33.6743 33.3426 19.6268
Au 33.1965 14.2912 20.9917
Au 32.7496 35.6893 21.1213
Au 33.1576 19.7766 15.9266
Au 33.0534 30.1863 15.9204
Pt 32.4472 17.3855 17.3331
Pt 32.2354 32.4568 17.3888
Pt 31.7365 15.1195 18.727
Au 31.3205 34.7229 18.8569
Pt 30.999 18.2435 15.1707
Au 30.7455 31.5193 15.1161
Pt 30.2681 15.9205 16.5446
Au 29.8321 33.7982 16.593
Pt 28.7655 16.8294 14.3678
Pt 28.4772 32.8683 14.3276
Au 13.2934 20.3842 32.7807
Au 13.6183 29.1804 32.1661
Pt 14.1817 18.0796 31.3096
Au 14.5831 31.4385 30.7564
Au 15.2334 15.9051 29.798
Au 15.57 33.7578 29.5306
Pt 16.2145 13.675 28.3886
Au 16.5673 36.1695 28.447
Au 15.3683 18.7545 33.7945
Au 15.6004 30.9966 33.3451
Au 17.494 17.1828 34.8275
Au 16.7134 33.2879 32.0577
Au 17.4189 14.349 30.8108
Au 17.8695 35.7817 30.9213
Pt 15.9392 17.531 38.2972
Pt 18.5785 32.9534 34.0598
Pt 18.4346 15.006 33.3759
Au 19.9345 35.0422 32.9255
Pt 18.5126 17.7579 37.3346
Pt 21.7531 34.3299 34.986
Pt 14.2935 20.7029 16.8731
Pt 14.1936 28.3272 16.9527
Pt 15.0892 18.3969 18.1987
Pt 14.956 30.6747 18.3002
Pt 15.9765 16.1252 19.5367
Au 15.6924 33.0076 19.736
Au 16.8248 13.7762 20.893
Au 16.5059 35.2616 21.3003
Au 16.6051 19.386 16.0361
Au 16.3851 29.8285 16.1209
Pt 17.4117 17.0493 17.3763
Pt 17.1256 32.1738 17.5199
Pt 18.3356 14.6288 18.6904
Pt 17.9396 34.433 19.0097
Au 18.9156 17.9711 15.2265
Au 18.6283 31.2986 15.2452
Pt 19.7127 15.5697 16.5011
Au 19.3994 33.536 16.7422
Pt 21.1953 16.5747 14.3994
Au 20.9324 32.6777 14.4639
Pt 40.6656 25.0467 14.5245
Pt 42.6586 22.9206 19.6653
Pt 40.5975 22.7978 21.3066
Pt 40.9579 22.7584 24.0523
Pt 41.2734 22.6717 26.7623
Pt 38.961 27.1143 28.6064
Pt 39.3333 27.0124 31.3292
Au 37.8442 24.6327 31.5832
Au 9.0827 24.4644 14.7732
Au 8.81623 24.445 17.6005
Pt 8.53226 24.4335 20.3041
Pt 8.36727 24.4363 23.0205
Au 8.20758 24.3552 25.7691
Pt 8.07499 24.3223 28.6805
Au 5.40487 24.2408 32.5324
Au 10.8646 23.0327 37.7605
Pt 15.8793 38.3601 24.9618
Au 17.4636 42.5738 28.0159
Pt 20.1632 41.0655 24.3441
Au 22.9863 41.1995 24.3527
Au 25.8444 41.3703 24.4142
Pt 28.7773 41.6705 24.1807
Au 32.0802 40.9019 24.0155
Au 37.0349 40.9682 22.9703
Au 13.5983 6.28481 23.8755
Pt 17.5147 8.33311 24.7217
Au 20.6988 7.90101 24.1814
Pt 27.6475 8.7861 22.156
Au 25.2168 6.84647 25.8757
Pt 29.2473 9.09595 24.3313
Pt 31.1405 9.66055 21.9182
Au 34.3043 7.1511 23.741
Au 22.9216 18.921 41.6645
Pt 26.0612 20.4143 40.0324
Au 25.6924 18.685 42.0107
Pt 23.5173 23.6876 39.6204
Pt 18.894 28.4328 39.0745
Au 22.921 33.0376 41.7582
Au 28.2954 27.0434 41.6904
Pt 26.4049 30.4281 40.1216
Pt 24.9734 15.133 9.12666
Pt 24.913 17.8592 9.0063
Pt 24.8425 20.6291 8.82302
Au 24.7603 23.4003 8.87525
Pt 24.7476 26.2431 8.88717
Pt 24.6881 28.9819 8.91687
Pt 24.6215 31.7897 9.00902
Pt 24.5707 34.5757 9.25109
Au 38.9718 22.6925 36.4361
Pt 32.735 17.9252 37.2913
Au 36.8529 20.9318 37.4599
Pt 29.8146 21.9523 37.9879
Au 29.0925 12.1337 38.3987
Pt 25.2372 19.4103 37.5833
Au 36.2559 29.0819 32.05
Au 40.7122 24.5321 35.1863
Pt 32.0327 23.1307 38.7554
Pt 28.1413 18.5371 36.7048
Pt 23.8165 26.3303 39.6697
Au 32.4022 15.6958 38.8511
Pt 33.8187 22.792 34.5828
Pt 32.0451 28.5573 38.2898
Au 33.8809 27.1956 39.8824
Pt 29.1806 25.7228 39.5131
Au 31.1173 20.9628 40.6639
Pt 34.298 30.1674 33.624
Pt 35.8104 28.7384 37.1095
Au 31.1192 26.1851 41.484
Au 30.3663 23.6158 40.7679
Pt 33.3059 29.1758 36.0704
Pt 30.2865 28.2213 40.1146
Au 25.0499 25.0895 41.847
Pt 29.4083 30.1649 38.5058
Pt 31.5398 26.7228 36.0571
Au 28.901 30.7089 31.4577
Pt 38.3513 23.6783 13.7333
Au 36.1075 22.2768 12.8353
Pt 33.9018 20.7013 11.995
Pt 31.7135 19.3556 11.271
Au 29.446 17.9151 10.5965
Pt 27.2386 16.4623 9.85931
Au 38.4588 26.5009 13.7105
Au 36.1329 25.0599 12.8049
Pt 33.9446 23.5754 11.8115
Pt 31.7075 22.0958 11.1187
Pt 29.4558 20.7217 10.4397
Au 27.1391 19.2953 9.69691
Pt 36.0895 27.8876 12.9831
Au 33.8721 26.4268 12.0243
Au 31.6688 24.9442 11.1886
Au 29.3785 23.5275 10.4313
Au 27.1258 22.0549 9.61898
Au 33.8174 29.3352 12.1493
Au 31.5486 27.8098 11.3006
Pt 29.3026 26.356 10.4029
Pt 27.0736 24.9201 9.62093
Pt 31.5434 30.6299 11.4256
Au 29.2756 29.1595 10.3957
Pt 27.0478 27.6578 9.54879
Au 29.2028 32.0196 10.5856
Au 26.9661 30.5192 9.60894
Pt 26.9134 33.3176 9.88984
Au 6.22347 21.9507 31.1812
Au 7.23213 19.7312 32.5534
Au 12.4286 16.9082 37.1109
Au 16.6101 13.8024 39.0719
Au 24.0301 16.1765 41.5002
Pt 18.0578 16.0092 39.3319
Pt 15.4083 21.3445 37.8176
Au 12.0988 28.9606 38.3015
Pt 17.374 19.7587 38.8624
Au 19.7536 22.3644 42.1628
Au 16.1911 21.5983 40.5631
Pt 22.1987 22.3925 41.3066
Pt 11.0671 29.228 33.1332
Pt 15.0349 25.0917 37.5556
Au 15.73 25.3923 40.2658
Pt 18.4682 25.6395 39.2714
Pt 20.498 24.0543 40.0508
Pt 14.8999 31.2632 36.2505
Au 13.9101 27.1995 39.367
Pt 16.5493 27.2462 38.3466
Au 17.4945 27.3604 41.1599
Au 18.2841 30.2511 41.0601
Au 14.1708 31.0762 38.901
Au 20.0354 28.3239 41.8344
Pt 22.755 30.5502 37.6537
Au 23.958 30.3379 42.0026
Pt 21.4734 32.1742 39.6113
Au 11.2438 23.0658 13.801
Pt 13.5359 21.75 13.0328
Au 15.7998 20.3664 12.2956
Au 18.0819 18.9968 11.4446
Pt 20.419 17.6296 10.5976
Pt 22.6472 16.3233 9.80994
Pt 11.2623 25.9738 13.9597
Au 13.4403 24.5306 13.0036
Pt 15.729 23.1996 12.1765
Au 18.0213 21.8355 11.3452
Au 20.262 20.4674 10.4647
Au 22.587 19.1784 9.71026
Au 13.338 27.4245 13.1144
Au 15.6662 26.0039 12.2063
Pt 17.9468 24.6131 11.3643
Pt 20.2251 23.339 10.466
Pt 22.5173 21.9423 9.69963
Au 15.6483 28.8945 12.2554
Au 17.9008 27.4549 11.3914
Au 20.1725 26.0733 10.472
Pt 22.4016 24.781 9.60236
Au 17.7852 30.4008 11.3274
Au 20.1264 28.9614 10.5186
Pt 22.4649 27.5184 9.69768
Au 19.9311 31.8441 10.4136
Au 22.3294 30.412 9.66017
Pt 22.3096 33.1996 9.87912
Au 38.6791 38.8809 24.045
Au 38.8507 36.6647 19.8037
Pt 37.4947 34.2744 20.1878
Au 40.9176 32.1217 19.8287
Pt 39.1362 29.7441 17.3796
Pt 39.8015 27.4432 15.9627
Au 36.498 39.0918 25.604
Au 38.0408 38.8988 21.2602
Pt 37.7878 34.3122 22.9911
Au 41.7634 29.8136 18.4124
Pt 40.4924 27.5116 21.4448
Pt 41.1587 25.1854 19.9581
Pt 37.2389 36.7047 27.081
Pt 37.0659 36.5396 24.3399
Pt 38.8719 32.0806 24.3036
Pt 39.8057 29.8284 22.8682
Au 43.7301 25.1435 20.9472
Au 37.9768 34.6245 29.1016
Au 38.081 34.3706 25.9683
Au 41.2677 32.1719 22.623
Au 43.1259 27.489 22.4561
Pt 40.3925 29.374 28.3727
Pt 39.1764 32.1928 27.0808
Au 40.0398 29.7662 25.6403
Pt 39.6762 26.806 34.098
Au 42.9178 29.6817 29.3854
Pt 36.7936 26.9771 30.3173
Pt 13.6236 38.3053 23.2711
Au 12.7207 36.1004 21.8759
Au 11.9533 33.7187 20.4244
Au 11.1005 31.4119 18.9735
Pt 10.3254 29.0778 17.5878
Pt 9.76404 26.8135 16.2312
Au 12.9878 38.2008 25.9193
Pt 12.3844 35.9309 24.6256
Au 11.5419 33.6896 23.1701
Pt 10.7494 31.3661 21.7735
Au 10.0746 29.0986 20.3404
Pt 9.46354 26.8024 18.9753
Pt 11.919 35.9087 27.3034
Au 11.2052 33.6857 25.9105
Au 10.4433 31.3861 24.4905
Pt 9.74672 29.0945 23.1261
Pt 9.24064 26.7844 21.6996