2057
Atoms. Timestep: 20775
Au 26.5436 41.8372 17.0318
Au 25.4808 14.3163 41.0203
Au 28.8301 36.9598 14.6344
Au 11.7707 25.4679 10.9607
Au 37.1127 13.0466 32.3986
Pt 19.8471 13.0024 29.6788
Au 21.2865 39.8342 29.8267
Au 34.5926 19.3413 38.2456
Au 19.16 10.041 32.3122
Au 30.1684 33.3796 38.4636
Au 20.7536 16.9173 8.12823
Au 20.3619 12.7913 42.2981
Au 30.6357 16.475 8.71806
Au 12.1124 38.6786 24.5836
Au 30.4822 24.9705 10.8174
Au 38.8532 26.8971 35.8996
Pt 25.4727 24.5534 36.3962
Au 19.4316 37.1786 25.2124
Au 16.6525 9.54302 31.1817
Pt 9.4741 22.6001 28.1958
Pt 31.0835 24.4957 31.9723
Au 22.4285 29.13 17.4748
Au 9.759 25.2366 32.3368
Au 31.7489 13.907 37.1998
Au 36.3365 35.4366 34.5304
Au 16.8463 25.9401 8.68593
Au 22.5275 30.5542 10.3122
Au 39.4828 13.4907 25.3255
Au 26.1334 39.1685 23.029
Au 12.1485 18.0599 12.0806
Pt 26.6959 27.7338 19.0522
Au 19.255 21.538 40.9909
Au 7.29554 17.0868 21.7378
Au 30.8436 21.064 8.96378
Au 14.6883 13.9228 11.6799
Au 38.1078 39.074 29.8212
Au 17.8187 28.5972 8.20136
Au 35.9733 36.1863 19.4817
Au 35.4779 38.0046 23.6806
Au 32.1421 25.0618 42.6953
Pt 32.0489 28.2227 37.1113
Au 13.7771 10.8394 17.6245
Au 10.4222 31.5223 16.1517
Pt 30.8972 26.3033 13.2326
Au 37.001 35.8143 22.5923
Au 29.4397 9.88408 35.5588
Au 30.6028 33.9357 41.124
Au 18.7474 9.27524 24.0601
Pt 26.337 38.5961 25.7948
Au 36.5458 14.1682 34.7824
Pt 36.5123 26.5146 24.2719
Au 25.724 42.9569 21.7736
Pt 26.4206 19.0191 16.7483
Pt 31.3598 29.1422 41.699
Au 27.3305 39.0898 20.5357
Pt 17.5161 14.4431 29.7368
Au 32.5087 18.744 9.14918
Au 24.1518 8.17208 22.6101
Au 39.387 29.421 31.2913
Pt 32.4313 20.1742 31.1198
Au 41.0695 28.9853 21.5186
Au 36.8689 18.7668 12.4713
Au 33.2694 31.4298 7.58388
Au 31.8229 41.8675 19.3701
Pt 14.7109 24.9602 33.2021
Pt 34.7828 23.4468 25.0724
Pt 14.1172 22.569 29.329
Au 39.7905 22.8549 24.5423
Au 30.8737 11.9781 17.1385
Au 23.7865 10.6103 12.1829
Au 7.78142 25.7361 25.4564
Au 35.6912 12.0591 19.6332
Au 24.1989 29.8883 7.6916
Au 21.6065 7.67336 35.3884
Au 14.7867 35.433 34.1856
Au 34.3389 19.5903 7.19381
Au 16.8501 35.0599 32.1872
Au 27.1789 33.0462 10.8821
Au 32.9845 15.122 25.4334
Au 14.5469 9.26385 19.7528
Au 28.1375 35.496 9.66643
Pt 26.4867 28.8447 26.5676
Pt 22.1203 22.5218 17.5163
Au 8.66997 14.7106 21.9131
Au 11.2255 29.3901 14.7464
Au 28.5997 29.8481 13.0695
Au 12.2714 22.1618 14.1367
Au 25.2458 37.2487 20.1861
Au 14.0871 28.2318 17.267
Au 21.5108 13.4076 39.6964
Pt 26.9298 33.2079 35.62
Au 14.7748 37.1604 13.8502
Au 18.5668 8.40113 16.309
Au 26.7374 9.6238 35.4512
Au 37.8249 34.5507 24.9241
Pt 33.8271 14.8119 22.7736
Pt 18.5471 17.8571 29.6661
Au 28.6928 30.4417 7.18008
Au 4.84899 15.8906 26.0107
Au 19.4113 23.9998 7.42575
Au 39.8218 32.0917 17.38
Au 29.4651 18.5438 7.46399
Au 12.6633 20.7598 11.3605
Pt 12.4241 15.6725 20.5742
Au 40.7049 24.9707 16.0842
Au 13.0109 32.468 20.8656
Pt 26.1414 12.8598 27.6232
Au 40.0848 24.8955 34.9883
Au 30.797 31.4538 8.6833
Au 26.4227 13.0682 38.5701
Au 21.1587 31.5533 17.9873
Au 32.744 42.5383 22.3344
Au 24.6315 42.4345 19.0384
Pt 23.3649 19.5071 30.1372
Au 20.9463 40.7394 22.5953
Au 23.2491 17.4159 37.5846
Pt 24.1773 20.675 22.5619
Au 18.3732 11.1007 15.8822
Au 17.7285 24.1839 17.4513
Pt 36.0466 27.967 17.4797
Au 12.7869 29.958 12.4677
Au 33.7335 9.63948 29.5055
Au 20.5929 32.3759 22.7654
Au 15.5337 33.9222 20.4672
Au 21.623 43.3088 23.6246
Au 38.3528 19.2423 35.7184
Au 20.1474 28.8735 6.8555
Au 17.9037 12.236 27.8524
Au 19.8646 12.4984 10.5539
Au 12.7357 22.6646 40.019
Pt 25.5358 30 31.5832
Au 18.2075 31.1426 39.1495
Au 31.4219 26.4487 8.67227
Au 13.1943 19.6206 14.07
Pt 32.3047 33.5471 15.2093
Pt 31.6961 20.32 33.7081
Pt 16.0335 21.8924 27.4359
Pt 13.8373 31.7531 30.3054
Au 29.1977 34.1737 15.1432
Au 20.494 34.2146 18.8835
Au 18.6484 24.4502 10.0024
Au 35.5187 33.7175 38.6851
Au 8.0085 27.0551 31.0746
Au 16.4896 28.8752 15.8516
Au 15.5226 39.0929 27.7566
Au 31.7034 19.9651 11.5701
Au 37.1918 40.5091 24.529
Pt 23.9485 22.0712 14.4864
Au 24.661 17.7543 7.73995
Pt 12.896 13.5656 24.2522
Pt 21.776 34.0951 33.5214
Pt 20.3831 22.5261 30.8358
Au 40.4071 25.5958 13.3447
Pt 19.6702 14.805 11.9427
Au 12.5894 11.2594 20.0214
Pt 12.8648 27.5693 24.3843
Pt 21.371 16.9348 23.9893
Au 33.4578 34.8544 19.4599
Au 33.0166 39.5889 32.4104
Pt 14.7789 18.9494 11.6963
Pt 22.825 37.5556 29.4287
Au 17.8251 35.5747 29.6261
Au 20.7117 25.9401 6.06484
Pt 31.9227 14.1254 27.7077
Pt 24.1096 23.7358 9.36372
Pt 29.6193 25.2436 23.1327
Pt 34.3249 16.6768 31.5976
Au 29.568 8.91409 21.4337
Au 17.3736 25.6541 32.9819
Pt 21.8732 23.6066 33.1753
Au 29.0887 29.4528 43.9008
Au 19.2669 19.7028 12.33
Au 23.6032 41.5451 22.9025
Pt 32.5636 29.7396 32.1723
Au 10.5741 20.3238 12.9465
Au 11.9369 31.8316 18.3208
Au 32.4195 19.8192 27.69
Pt 32.0237 23.0914 29.7718
Au 25.7329 12.5733 16.2699
Au 11.3787 30.9495 25.5424
Au 7.24125 22.1654 29.7939
Au 19.4052 31.89 20.3006
Au 37.7691 35.1949 27.6825
Au 29.0936 41.595 29.0759
Au 40.1253 22.9012 18.056
Pt 32.5647 32.4104 31.3262
Pt 24.9559 20.3383 12.5494
Pt 17.6709 30.8858 26.6508
Pt 30.4884 37.9144 24.9304
Pt 11.5114 23.9351 25.5775
Au 16.2613 25.0263 11.5562
Au 27.8599 41.2733 22.2455
Pt 10.1581 18.6287 24.4054
Au 13.829 41.0728 28.9887
Pt 30.6493 25.9099 29.7473
Pt 21.1307 17.8061 28.5737
Pt 23.5162 18.1698 41.0322
Au 14.2432 33.538 18.0929
Pt 25.0317 40.4341 20.8972
Pt 29.8573 38.2215 16.8703
Pt 12.3492 22.42 21.4599
Pt 36.7203 27.9538 34.6139
Pt 19.4925 13.9451 32.3248
Pt 23.1835 13.9749 15.0555
Au 40.0795 18.1805 16.2593
Pt 18.6694 26.1277 19.5194
Pt 25.8966 29.9486 22.2103
Pt 25.1487 15.1925 26.7367
Pt 36.9403 27.7798 31.9973
Au 38.636 16.5611 14.5963
Au 18.0711 37.998 18.0403
Au 39.8595 29.3096 34.9786
Au 20.019 39.2945 27.2569
Au 25.1999 35.9942 30.4842
Au 38.2126 38.3582 23.3816
Au 40.388 27.4774 26.0932
Au 18.7923 35.1173 14.5966
Au 23.7443 42.6672 16.3668
Pt 25.8442 26.525 28.0889
Au 11.2809 13.4101 28.2487
Au 17.2356 38.7278 13.6728
Au 33.3149 25.5476 10.6747
Au 26.4757 41.4458 29.6602
Au 20.3658 39.8273 19.947
Au 26.7607 35.6478 16.0751
Pt 27.7988 10.8506 21.3688
Au 23.3695 36.249 38.5125
Au 20.9205 35.6384 8.69342
Au 22.0969 38.2369 16.8287
Au 26.6238 26.045 44.6972
Au 27.4379 8.98434 19.4058
Au 35.3676 11.4585 24.9574
Pt 31.0894 10.8392 25.4521
Au 37.5352 24.1437 10.1308
Au 25.2125 32.6261 41.1998
Au 18.5785 39.4613 29.7527
Pt 12.0531 18.7533 31.1796
Au 13.0104 36.2049 31.994
Au 23.959 32.4054 8.75479
Pt 32.2705 14.8575 31.4672
Au 24.424 33.0188 11.4456
Au 33.5946 22.1458 6.7473
Pt 32.9704 19.5376 18.7129
Au 17.1701 23.6674 14.7113
Au 33.8699 17.6044 13.1145
Au 22.1974 28.741 14.7015
Au 14.6145 32.852 15.0996
Au 19.349 37.9449 15.3723
Au 18.4366 41.5161 27.9592
Au 17.0286 39.6648 32.1379
Au 16.674 26.8209 13.5971
Au 8.9326 29.9229 21.741
Au 42.1004 27.04 17.5885
Au 19.4192 27.4952 13.6143
Au 14.8847 34.853 11.3706
Pt 34.4908 27.6835 23.1263
Au 24.3304 37.5022 11.121
Au 18.5148 35.6205 7.42376
Pt 8.56006 19.6606 22.2813
Au 41.0496 31.7843 22.1079
Au 25.8762 34.2591 8.78687
Au 33.1218 9.41521 26.5575
Pt 37.9746 17.4695 31.2018
Au 25.7769 34.9579 39.7765
Pt 20.4101 21.5878 26.2914
Au 35.3881 42.4544 23.2404
Pt 32.1789 34.3461 21.9764
Au 11.5251 27.4111 12.8776
Au 39.4623 27.3849 33.1818
Au 7.42735 16.3567 26.3284
Au 18.018 17.3306 8.25939
Au 15.902 36.5506 21.1148
Au 19.8476 7.73682 28.5874
Au 18.6995 21.6323 6.35056
Au 16.8766 12.3657 14.0999
Pt 18.0101 23.0832 31.9675
Au 27.2674 41.9123 19.6824
Au 5.86508 19.3591 22.0822
Pt 32.2307 28.2797 25.0318
Pt 39.5916 23.2378 27.2362
Pt 16.6593 15.5254 22.2038
Au 30.7369 17.8734 40.3418
Pt 17.1009 20.8082 32.805
Au 16.4215 9.88919 25.7105
Au 16.2578 16.5403 41.5615
Pt 12.5447 33.1116 26.3803
Au 21.8411 24.2955 44.0381
Pt 30.3838 26.5921 41.329
Pt 29.9777 17.5058 20.0476
Au 41.5537 27.3584 15.0631
Au 36.9982 25.0604 7.58222
Pt 22.0686 31.2738 20.6542
Pt 22.4181 22.1177 37.4263
Au 28.5259 33.0618 8.46044
Au 14.9965 25.9501 15.6577
Au 9.94996 32.3116 20.1951
Au 27.087 25.9245 6.61491
Pt 28.9632 26.5262 32.3224
Pt 10.6791 22.6126 33.5052
Pt 13.6037 25.477 18.0676
Pt 38.1833 18.4429 24.543
Pt 33.0396 31.0023 15.3621
Pt 28.4951 24.0309 32.7407
Pt 34.2109 19.2541 23.1953
Pt 23.2347 11.6474 16.6729
Pt 24.4012 12.1526 36.133
Au 20.5566 37.8035 21.9994
Pt 25.5397 15.9043 38.757
Au 21.6613 31.4414 15.1693
Pt 19.8862 21.5284 38.032
Pt 23.8508 13.965 28.8574
Au 31.5672 35.5994 39.1964
Au 14.4046 30.5747 10.2537
Pt 14.9132 23.4191 38.4815
Pt 27.3056 28.6416 33.019
Pt 26.7543 34.5551 23.6844
Au 24.5001 11.9714 40.174
Au 18.0052 33.6352 22.0339
Pt 22.5083 16.9699 30.8116
Pt 25.8812 31.9659 33.3554
Au 21.4778 17.7109 43.1217
Au 17.8979 23.8546 41.8281
Au 9.56527 27.4391 17.1153
Pt 14.3548 30.8378 33.0133
Pt 28.9182 34.3133 22.1991
Au 38.0046 18.9647 28.9922
Au 20.0902 9.57375 14.2793
Pt 11.5316 29.2461 17.455
Pt 12.5879 21.7126 26.6615
Pt 22.3518 11.8213 29.4833
Au 38.2454 20.1549 31.7604
Au 22.9251 42.1111 25.7194
Au 34.5524 24.3804 8.25679
Au 17.0853 19.8244 7.85877
Pt 33.9683 18.9848 32.9767
Au 25.0802 26.8978 4.95629
Pt 20.4405 31.8702 34.2468
Au 34.9236 26.2784 6.13027
Au 19.9413 39.34 12.7749
Au 36.0843 28.1406 12.8805
Pt 17.4126 32.661 24.645
Pt 21.7502 22.1783 39.9241
Au 19.6844 8.79456 21.3739
Pt 19.5358 22.3879 16.2517
Pt 28.4472 26.9955 39.5069
Pt 33.2482 23.2727 15.6574
Au 11.2697 32.5343 28.6407
Au 36.2862 22.2485 8.42445
Au 25.4059 39.4982 12.5618
Au 12.6378 13.3301 31.792
Pt 40.218 28.344 18.9692
Au 17.8271 27.3167 10.9276
Au 11.8568 32.1757 32.25
Pt 28.2417 18.3735 14.8321
Au 33.1005 18.9154 35.6453
Au 19.9379 20.4813 4.41356
Au 35.0297 23.3067 10.7962
Au 21.3775 32.9805 9.55452
Au 14.7066 18.2182 39.916
Pt 38.3573 30.5333 28.7562
Au 7.19157 24.0087 27.5026
Au 19.5314 33.0903 16.4069
Au 28.2545 23.53 5.72459
Au 9.05383 28.0596 19.7111
Pt 15.8489 15.0623 35.4124
Au 11.7101 11.7678 25.866
Pt 13.4614 22.8283 23.8509
Pt 29.6489 40.3643 20.1503
Au 31.9691 23.6648 8.61641
Pt 18.247 31.0922 29.1453
Au 29.7156 18.6504 10.2196
Au 13.6746 10.0742 36.019
Au 24.1636 39.8791 24.8673
Pt 35.7028 18.9136 30.6827
Pt 14.3701 23.8127 35.9316
Au 39.3143 21.4553 29.4045
Au 24.4124 40.0945 16.1341
Au 32.9195 21.4859 13.5878
Pt 29.4729 37.5 19.7926
Pt 20.8535 18.9509 31.1585
Au 14.5036 32.773 35.1401
Au 35.7269 28.9203 38.6378
Au 37.3145 17.1922 9.79376
Au 5.62091 20.3658 24.5814
Au 17.2599 22.1289 39.1211
Pt 28.7113 37.3978 26.8191
Pt 16.4441 29.984 24.4838
Au 25.3891 10.3251 37.8069
Pt 13.9804 18.0071 19.9517
Au 14.9558 10.7776 38.2627
Au 16.2517 15.4631 9.77149
Pt 29.31 23.4672 30.0962
Au 21.9965 11.0291 41.0349
Au 36.5884 31.4804 37.7357
Pt 34.3782 23.5475 35.9139
Pt 34.3693 14.3072 33.1378
Au 26.4988 20.7749 14.7412
Au 28.3625 18.6903 41.4251
Pt 21.1546 11.8135 31.8102
Pt 31.0404 21.5999 15.5862
Au 26.3825 34.0146 13.7973
Pt 15.2164 22.5294 21.7762
Pt 33.7207 25.8172 25.3036
Pt 27.1657 32.9801 38.4509
Au 20.9062 35.0381 38.298
Au 19.8281 39.9337 17.2146
Au 30.8048 42.2879 26.4326
Au 9.20173 16.0373 24.2135
Pt 18.0421 30.8704 22.5295
Pt 33.5563 27.0764 13.0418
Pt 22.0456 27.8593 36.7867
Au 23.4775 35.4212 12.6744
Au 29.5818 25.1384 43.9466
Pt 27.214 12.6814 23.6041
Au 41.1734 20.1333 17.9418
Pt 29.9967 29.0948 32.8531
Au 15.6503 31.3271 17.4204
Pt 22.5474 41.3202 20.4539
Pt 29.8197 33.7236 35.1037
Pt 16.5461 33.1568 30.1845
Pt 27.7179 17.7124 22.2726
Au 25.5493 7.68337 24.8854
Pt 18.8268 34.1315 33.7629
Pt 14.8531 21.538 15.2925
Au 14.2974 39.4399 31.0178
Au 24.69 30.0496 42.3748
Pt 22.2027 24.6815 30.4344
Au 41.0656 29.5414 24.1511
Au 22.7397 31.3649 40.9068
Pt 27.8719 14.2844 34.2369
Au 10.3548 19.4377 38.2729
Pt 19.8063 28.8446 38.1156
Pt 35.3401 25.7023 32.148
Pt 15.2996 14.3492 31.1861
Au 26.914 38.7379 15.8081
Pt 35.9701 19.7464 25.2552
Au 19.127 38.7179 34.2548
Pt 23.9784 16.7637 28.6639
Au 23.975 40.2669 29.6949
Pt 29.3357 29.0753 25.5428
Pt 18.2319 18.4879 21.9908
Au 18.8489 9.78636 26.8542
Pt 33.9027 32.7833 24.6068
Pt 26.1845 38.7319 30.3863
Pt 29.5325 12.7122 22.0041
Pt 13.8537 25.2427 24.6749
Pt 16.5117 19.2847 26.0373
Pt 36.6453 21.2463 29.5141
Pt 29.3024 10.2234 27.7529
Au 37.2942 14.52 15.8027
Au 17.5253 27.1358 37.7784
Au 42.4399 24.4406 18.4127
Au 14.2797 25.7145 9.73094
Au 32.1421 27.2453 6.19111
Pt 23.77 13.8673 38.1462
Pt 21.1939 17.0826 35.457
Au 37.5842 18.9495 15.3068
Pt 10.8977 25.0009 17.9857
Au 22.9081 36.1741 21.263
Au 28.6229 26.0852 8.89376
Au 15.059 21.4512 12.547
Pt 15.0236 31.8663 25.901
Au 5.62354 22.0828 22.3927
Pt 30.9312 34.0703 28.8405
Au 30.6779 35.7268 10.5459
Pt 12.1898 24.7016 33.6504
Pt 15.1185 15.4961 19.9719
Pt 33.4458 29.801 12.766
Au 28.8741 32.5233 13.0305
Au 44.1616 26.4032 19.2509
Au 25.8452 24.32 4.6449
Au 23.6689 41.3265 13.8608
Pt 17.5692 12.1706 31.0869
Au 36.1065 21.6251 36.8027
Pt 13.9003 22.6961 19.2283
Au 28.1366 15.9321 7.88264
Pt 34.0594 31.5364 27.113
Au 9.4139 22.6643 14.0491
Pt 24.8335 21.1435 20.0671
Pt 22.0428 32.1084 25.1253
Au 27.8861 21.1962 42.4668
Au 27.9342 33.0904 41.0054
Pt 25.6481 17.51 30.6033
Pt 14.0119 23.8043 26.8613
Pt 28.9095 21.9433 37.3819
Pt 24.4575 13.526 20.1087
Au 21.0574 15.4347 41.7523
Pt 18.6957 29.4104 31.174
Pt 33.6892 27.0585 17.6511
Au 26.576 28.8696 6.29969
Pt 16.2453 13.1154 21.2014
Pt 21.4345 15.4143 37.7482
Pt 24.5705 31.9452 21.1475
Au 27.1671 31.0334 42.6965
Au 38.5462 26.5142 9.19281
Au 16.1236 9.54015 17.0125
Au 29.578 20.4159 13.4509
Au 40.017 24.1767 11.009
Au 14.8195 11.438 31.2621
Pt 36.3938 30.4641 26.5938
Au 39.413 28.3243 13.9892
Pt 25.5762 19.3187 28.5051
Pt 20.7913 14.9994 14.4224
Au 28.938 22.3039 40.1614
Pt 14.0867 15.6648 22.7993
Au 22.5987 35.3518 36.0349
Pt 28.1426 24.2579 35.802
Au 15.8271 34.8302 23.2901
Pt 28.6273 30.0493 22.5372
Pt 34.3549 20.5139 20.9326
Au 27.4844 31.6754 15.3355
Au 25.1089 10.5531 14.5487
Au 23.0477 33.685 19.8159
Pt 20.3149 27.1376 24.1997
Pt 32.9831 29.2613 27.4695
Au 30.1597 33.1047 10.7367
Pt 28.4146 13.2338 16.6918
Pt 12.6434 17.7876 22.3835
Au 10.6135 34.6485 31.9415
Au 16.9164 25.0728 39.6123
Pt 28.9587 31.0118 17.8115
Au 11.3654 15.1095 16.0879
Pt 29.2751 25.1574 27.6112
Au 17.7283 9.94007 38.7292
Au 10.7243 13.148 20.9665
Au 38.9295 21.9695 9.37169
Au 16.7702 39.6366 16.2325
Pt 22.3438 12.6096 21.3234
Pt 17.4967 22.7586 23.2631
Pt 24.5338 23.0172 11.9476
Au 34.9479 37.766 33.2809
Pt 17.458 16.2249 31.6615
Au 15.449 27.4254 40.0037
Pt 24.6072 29.6765 34.2021
Au 31.1964 8.53979 23.6351
Au 30.9109 27.4575 43.9001
Pt 18.9331 14.6956 27.5062
Au 22.1847 17.979 5.94709
Pt 31.8154 19.0538 38.0306
Au 25.2682 9.74524 17.2389
Pt 25.0245 38.0908 28.0452
Pt 16.6357 14.5962 39.6488
Au 37.8627 37.609 18.2655
Au 11.8522 14.3009 39.009
Pt 27.1942 28.0811 23.8163
Au 18.3951 30.7816 17.8853
Au 17.0559 19.6918 40.5472
Au 28.104 20.8224 9.70783
Pt 28.9954 29.3332 15.7646
Au 25.3885 34.5644 21.2625
Pt 8.38444 18.8924 26.7263
Au 5.63087 18.508 26.5325
Pt 17.8209 23.9832 20.7657
Au 40.0106 20.8387 15.603
Pt 31.5607 31.9294 13.0926
Au 22.1559 23.5114 7.07824
Au 32.7054 38.3361 16.1739
Au 23.7256 22.5935 4.96163
Au 19.5186 29.5604 15.6151
Pt 32.732 36.0968 28.5853
Pt 20.3536 27.0724 21.4125
Au 29.8874 28.7146 8.96102
Pt 16.5497 20.111 23.3583
Pt 23.1956 30.5328 22.9736
Au 19.2452 31.8482 11.0457
Pt 35.3142 25.778 35.0448
Pt 21.8182 23.6269 12.3629
Pt 24.8653 24.4673 29.5252
Au 23.8697 37.929 36.4057
Pt 11.6554 23.5788 35.9625
Au 33.7056 36.1423 35.1384
Au 31.5479 40.6089 28.571
Au 8.82657 20.5247 34.0445
Pt 34.3909 27.9667 30.8484
Pt 25.7118 31.4594 28.048
Pt 21.4848 9.33289 30.5664
Pt 8.86007 20.1771 29.0773
Au 34.3591 41.3443 20.5736
Au 12.8235 28.6686 21.8473
Pt 16.0071 24.8619 22.9575
Pt 36.8245 16.1086 20.0297
Au 18.9336 19.6229 43.003
Pt 26.0586 37.5984 33.2393
Pt 21.613 26.05 13.6185
Pt 17.6326 18.5809 16.8491
Pt 31.7519 27.0845 32.007
Au 30.8522 33.6108 17.4947
Au 35.6483 38.5762 16.801
Pt 21.3867 23.8487 9.68625
Au 24.5613 19.2282 10.0702
Pt 41.6742 26.4753 20.4345
Pt 15.0217 20.241 17.9244
Au 22.8445 8.6227 37.6016
Pt 10.795 18.629 28.662
Pt 30.914 21.1804 25.5247
Pt 13.7472 19.9654 35.4819
Au 35.0702 33.2774 15.3204
Pt 32.2618 15.9877 20.8321
Au 28.6615 10.5612 17.6953
Au 20.6329 34.7498 11.5995
Pt 12.6552 15.8252 27.2125
Pt 19.6735 12.5027 13.6521
Au 9.64011 25.2405 12.7346
Pt 22.8408 11.3078 38.1987
Au 15.5811 29.2766 21.8953
Pt 36.3043 26.1047 21.6581
Au 36.9486 37.1675 31.5365
Au 10.0108 30.0962 28.0592
Pt 30.2613 15.3627 25.8602
Pt 33.1907 22.1401 22.7241
Pt 25.6799 21.3357 26.5548
Au 35.2705 39.4685 26.1078
Au 38.7853 19.384 10.6055
Au 14.4342 20.4132 41.879
Pt 27.5557 18.5801 19.7054
Au 22.3521 28.78 42.0936
Au 28.0569 12.1576 29.3447
Au 24.6077 24.0846 26.8033
Pt 18.8457 28.4768 25.8488
Pt 12.5506 34.1227 30.2456
Au 8.97072 14.567 27.9107
Au 23.1393 33.8209 39.665
Pt 28.6553 29.1596 41.166
Au 33.1293 42.4701 24.9962
Au 41.4892 34.0927 23.6832
Au 22.4263 40.8051 17.876
Pt 21.543 37.0245 27.0592
Au 24.3971 13.5289 8.44318
Au 7.69809 17.9975 33.5531
Au 28.5424 7.78184 23.8045
Pt 18.7686 18.5568 24.7259
Au 8.67169 18.5118 19.7657
Pt 15.4139 17.9411 22.2257
Pt 29.791 35.5218 32.4981
Au 25.8129 15.2169 6.78722
Au 23.9855 32.8077 14.2277
Pt 20.8823 30.5768 29.9666
Pt 30.0009 36.3309 29.6991
Pt 35.2845 23.5391 30.6928
Pt 16.7204 33.9821 16.2951
Pt 11.7089 21.0265 29.095
Au 26.5602 23.0781 7.87418
Pt 10.97 16.104 29.3701
Pt 28.2581 15.1081 23.079
Pt 37.0544 28.6253 21.7514
Pt 24.9781 29.0737 29.057
Au 29.2413 23.3496 8.51314
Pt 34.2417 24.6828 22.5905
Au 40.6901 23.888 20.6905
Pt 26.6963 10.3647 31.3798
Pt 22.7037 16.7526 26.2794
Pt 32.0844 16.9055 27.4833
Pt 29.4537 19.8374 38.958
Au 22.6216 27.865 6.01626
Pt 25.4727 15.4822 22.0443
Pt 19.4443 19.417 9.48461
Pt 29.9651 27.8534 23.2718
Au 30.0106 15.0324 13.3793
Pt 18.7288 15.6958 20.5806
Pt 32.01 37.1857 20.7509
Pt 26.3089 32.4789 19.2838
Au 31.9133 16.9748 11.2494
Pt 12.8997 24.0604 31.2274
Pt 19.7515 21.0692 33.018
Au 24.7452 8.60681 19.8515
Pt 22.1933 21.969 42.5402
Au 12.3838 24.8806 38.1378
Pt 34.9972 30.2312 22.1531
Pt 8.1644 22.4412 22.595
Pt 26.463 30.234 17.4724
Pt 26.9176 22.9444 16.789
Pt 30.3619 30.0947 20.4122
Pt 16.5298 28.5392 26.8372
Au 36.3304 21.407 16.0637
Au 8.3176 27.5876 23.4065
Au 36.7649 32.0234 24.2502
Pt 32.0322 28.4076 19.2587
Au 11.2402 36.5567 29.8692
Pt 25.67 17.8755 14.3274
Pt 30.4545 13.5733 33.1772
Pt 33.9721 30.1886 24.6146
Au 38.2182 20.6603 26.8028
Au 25.822 19.4134 42.0792
Au 7.14566 20.8923 20.2552
Au 12.0854 32.1051 14.048
Au 8.96147 18.6483 36.0035
Pt 21.7172 19.2853 10.9486
Pt 25.8763 35.3405 11.2992
Pt 18.6188 18.4716 32.6264
Pt 18.6079 21.6856 28.3705
Pt 22.0431 23.8553 25.7432
Au 18.4803 33.6076 37.9318
Pt 21.765 26.1795 42.0639
Au 16.265 26.3351 18.1651
Au 38.7608 18.383 19.9506
Au 27.228 37.6905 11.1619
Au 40.1565 35.3241 26.0729
Pt 20.3416 33.8338 35.9181
Au 40.0082 32.2276 24.8055
Pt 15.3612 14.856 17.2202
Pt 38.7969 30.4196 23.0062
Au 20.5147 37.1576 19.1351
Au 22.3397 19.339 8.30155
Au 17.5044 22.5841 11.8696
Au 23.3559 35.1082 9.8712
Au 32.6042 22.2535 41.4889
Au 28.2007 27.0733 42.7933
Pt 22.6227 19.7178 38.9624
Pt 18.7348 12.0358 25.1587
Au 40.2867 26.8515 30.5178
Au 30.8879 22.5711 6.29704
Au 25.4088 40.6451 32.1029
Pt 19.5589 30.7895 24.6711
Pt 32.05 22.0244 18.0704
Au 37.5156 12.8109 23.6963
Pt 22.6884 9.04837 18.1359
Au 6.35822 19.2851 29.0648
Pt 26.9287 25.5756 22.9808
Au 16.3069 11.5283 40.496
Au 29.7247 38.6681 36.1343
Au 32.5664 17.4061 6.9161
Au 17.1755 30.1054 10.5422
Au 10.6466 22.2849 38.2309
Pt 32.1437 16.6346 36.5418
Au 26.0601 25.7371 12.1654
Au 18.9547 31.1748 8.35315
Au 28.1181 10.899 37.6264
Au 39.3363 17.8771 33.5517
Au 26.2409 23.0361 40.9668
Au 30.6776 30.1687 11.2748
Au 10.3373 34.8728 26.9808
Au 29.1706 27.7995 6.52386
Au 21.3582 21.6085 35.0302
Pt 20.6392 12.9651 16.1177
Pt 37.581 27.442 19.35
Pt 9.82382 25.1879 27.3381
Au 29.7143 22.2871 11.3792
Pt 12.8347 18.7045 17.1334
Au 9.37088 27.4627 14.4298
Pt 29.8141 12.7676 27.1606
Pt 24.6412 13.0315 22.724
Au 29.4139 42.2164 18.0371
Pt 22.5712 27.5813 22.896
Au 40.2748 24.021 29.7773
Pt 24.9649 29.6371 19.7074
Pt 20.0789 31.3088 36.9914
Au 20.3263 7.89006 18.7102
Au 35.9699 26.2921 40.1556
Pt 27.7486 21.4196 28.6808
Pt 25.815 17.1677 11.4655
Pt 38.033 31.9203 31.7643
Pt 25.1094 21.9358 28.978
Pt 29.7883 19.2544 32.0511
Pt 33.2461 25.4295 30.4348
Pt 26.8546 15.7113 32.3245
Au 20.4313 36.3401 34.2112
Pt 24.0072 14.2894 17.6157
Pt 16.4607 15.8839 12.4262
Au 36.0592 40.6324 28.5593
Pt 38.2109 16.9392 22.2494
Au 35.2273 10.9558 27.7258
Pt 26.5728 13.0014 31.9272
Au 17.2318 33.2124 7.46563
Pt 24.3337 25.3172 23.1076
Au 17.5771 39.9094 25.8828
Au 9.75538 30.2759 32.8054
Au 16.9662 9.5268 14.216
Pt 29.5687 18.009 36.8417
Pt 31.545 24.0388 21.8069
Pt 20.416 29.4368 19.4524
Au 31.0214 14.4953 10.649
Pt 19.529 26.1954 40.3918
Pt 28.9761 17.9213 17.4446
Pt 28.0511 17.0279 34.7431
Pt 35.7831 33.3815 26.4872
Au 24.1898 21.1071 40.6519
Pt 16.3525 30.8409 31.2169
Pt 29.368 38.8462 29.4832
Pt 32.4552 38.0878 23.2696
Au 12.4505 11.901 34.3873
Pt 36.9522 20.981 34.134
Au 14.3863 33.5614 32.2473
Pt 27.7531 21.225 32.8183
Pt 12.9497 19.015 37.9071
Au 10.8022 19.9632 15.5753
Pt 32.2833 18.6243 21.0859
Pt 32.4495 36.87 32.7287
Pt 30.7463 24.1101 19.3911
Pt 12.8803 16.1271 18.1522
Pt 17.7784 15.2378 37.3
Au 20.1056 21.8706 10.9349
Pt 23.105 19.2398 27.5151
Pt 19.9702 29.0142 35.3866
Pt 20.8229 10.5859 19.6863
Au 20.5302 29.5744 22.4013
Au 32.8447 33.9874 10.9872
Pt 35.87 26.1408 29.4028
Pt 34.8637 16.424 26.9705
Au 16.3367 40.909 29.7465
Au 8.82911 27.6826 33.5873
Au 32.2709 37.2966 13.4175
Au 38.8424 33.5136 22.5858
Pt 19.0023 12.0289 18.2691
Pt 28.5292 14.7183 28.2873
Au 14.7161 40.5998 18.0222
Pt 27.8241 34.6101 30.5566
Pt 35.5333 28.7711 28.4623
Pt 20.7987 29.96 32.6453
Au 19.6918 27.9935 42.3619
Pt 22.9815 23.1339 21.8419
Au 38.6915 22.9016 34.1014
Pt 22.3013 30.4647 35.6236
Au 12.1051 35.6737 25.0838
Pt 14.9903 22.3974 32.1856
Pt 26.2386 23.5741 14.1033
Pt 13.1379 21.7814 37.3522
Au 35.7323 30.9795 11.3668
Au 9.52371 32.1788 30.7767
Pt 12.5391 21.4949 31.5805
Au 34.2783 36.0143 21.9571
Pt 34.9823 19.5715 14.4783
Pt 18.7758 11.0935 36.476
Au 37.046 12.549 29.3032
Pt 33.9479 30.6513 37.2271
Pt 30.6543 31.6748 33.3448
Pt 35.1907 33.447 22.4339
Au 21.1005 20.2953 44.3789
Au 29.0239 12.7397 19.3177
Pt 11.6944 15.9742 31.9207
Pt 28.495 24.8796 20.8104
Au 26.8756 38.135 36.0184
Pt 28.6743 22.5744 14.744
Pt 10.0188 17.3029 21.9235
Au 8.07495 13.7783 25.4062
Pt 11.791 24.7036 22.9566
Au 42.2957 22.3123 25.3254
Pt 26.6796 16.6505 17.7787
Au 40.806 29.5653 16.5851
Au 38.4558 34.8167 18.2156
Pt 27.0367 20.5753 21.6007
Au 24.5543 16.9342 5.21854
Au 42.7559 31.5776 24.4103
Au 9.94178 25.0949 15.4317
Au 26.1034 16.9058 41.2336
Au 36.4759 40.3072 21.9826
Pt 14.9214 35.3401 30.2165
Au 12.128 33.7556 16.2676
Au 11.3109 36.9219 20.0789
Pt 23.6711 11.1308 19.2736
Pt 21.5428 32.9182 31.0776
Pt 32.41 39.8592 25.9464
Pt 38.8302 27.7971 23.8258
Au 31.7019 19.9832 6.6673
Au 13.6685 40.2281 22.7913
Pt 30.4443 34.9844 20.0259
Pt 18.3098 23.7793 26.8314
Pt 29.0897 15.3665 18.3008
Pt 36.8607 24.0264 23.4198
Au 39.3453 25.0764 22.9201
Au 13.4975 30.5307 23.7212
Pt 23.7898 33.6762 29.3899
Pt 25.1776 11.8006 29.7678
Au 23.2201 38.7855 22.3506
Pt 29.6052 19.7032 21.5489
Au 6.75055 17.3355 31.0777
Pt 29.3577 28.2184 30.3492
Au 25.4227 30.6539 10.3673
Pt 32.3132 35.5801 24.298
Au 16.7179 32.1723 12.6384
Au 39.7221 33.0679 20.0368
Au 18.7165 39.4516 23.4628
Au 38.1568 23.736 12.8834
Au 12.9492 11.8289 29.4279
Pt 31.2254 36.036 15.5443
Pt 22.9496 33.6086 22.7251
Pt 22.0492 14.9915 19.853
Au 21.1409 37.4562 36.774
Pt 35.3688 25.474 19.2329
Au 26.2221 21.7122 5.50272
Pt 35.3596 14.2105 30.6577
Au 15.5203 18.1026 9.29472
Pt 30.6423 17.0948 15.3582
Pt 17.7208 29.815 36.8248
Au 35.6875 24.099 38.3566
Au 12.2553 19.9644 40.2897
Pt 24.8957 21.1706 33.4699
Au 10.2922 29.2619 35.2667
Au 32.018 40.0075 21.3989
Au 5.67872 16.6001 28.5751
Pt 37.5546 27.8176 26.6716
Au 16.2491 18.7765 42.9629
Au 10.4672 26.4652 24.9694
Au 35.4931 39.3062 30.9008
Au 27.3399 23.6318 43.5891
Au 19.7719 40.1507 32.1267
Au 34.149 29 6.54943
Au 17.3742 13.3544 11.4621
Pt 15.052 30.5209 13.9317
Pt 24.2482 34.6974 24.8587
Pt 26.2864 25.4799 39.3861
Au 39.0664 35.8098 20.6915
Pt 17.5863 17.0055 27.1843
Pt 25.1799 10.7886 21.4723
Pt 28.2405 21.6191 25.9853
Pt 23.9622 38.1584 31.7307
Pt 28.1682 30.9725 31.7636
Pt 15.382 26.7923 30.9201
Pt 13.4595 13.4323 21.5111
Au 29.988 12.4559 14.4803
Au 33.9736 35.6384 37.8901
Au 39.2717 16.5261 28.8091
Au 26.9486 17.8645 6.31451
Au 13.7944 36.2044 19.0471
Pt 13.9185 37.3242 26.3631
Pt 17.8882 21.2179 21.2627
Pt 36.0392 23.9637 15.0793
Pt 32.6892 17.1038 23.5412
Au 23.0701 16.8796 9.89267
Au 36.1601 25.4561 26.753
Pt 25.4112 11.2044 33.675
Au 26.9866 28.5045 8.92945
Pt 21.9765 13.303 12.4145
Au 12.6517 15.2682 13.3679
Pt 25.3827 10.3193 26.387
Pt 37.9904 21.0268 24.0509
Pt 18.4523 21.6927 35.5739
Pt 23.9976 35.668 27.7091
Pt 13.2826 26.1386 35.7056
Pt 36.4557 32.5979 33.966
Pt 29.0914 31.797 36.6707
Au 18.3196 35.749 20.092
Au 13.982 16.429 10.9585
Au 41.6747 19.3973 20.5125
Pt 20.7494 21.5294 8.2742
Pt 20.08 20.1951 17.7265
Au 28.0576 19.1337 29.7647
Pt 32.5523 29.1512 8.92298
Au 10.3875 17.4162 17.2972
Au 39.889 21.5444 11.832
Pt 23.7883 12.696 31.7546
Au 39.6418 19.0514 13.3711
Pt 27.2128 21.7757 12.3359
Au 21.5645 14.5537 9.60621
Au 14.0455 32.4597 12.2029
Pt 32.9168 25.9356 20.3171
Au 25.0506 36.6737 23.1505
Au 13.7231 37.5206 29.1632
Au 33.4951 10.6892 20.9759
Pt 33.7746 32.1281 33.6888
Au 36.6575 26.5586 37.4079
Pt 34.463 24.0445 28.2433
Au 24.2786 43.8335 23.9482
Pt 36.5926 29.3032 24.2556
Pt 20.1528 19.9437 20.5996
Au 35.0734 13.7685 27.7042
Au 29.0521 42.6319 24.3109
Pt 25.8419 25.456 17.736
Au 30.6091 39.1521 14.4414
Pt 28.0416 23.0606 22.8925
Pt 28.8184 19.7905 24.0741
Au 30.9866 23.6193 13.6499
Au 16.9563 21.4335 42.7368
Pt 25.2683 18.2842 21.4784
Pt 17.305 20.9711 14.0963
Pt 19.44 20.6892 23.4667
Pt 27.652 14.3919 25.7554
Au 22.5797 40.3505 32.2794
Pt 15.2435 17.5258 17.7151
Pt 26.7461 21.7803 35.6651
Pt 18.2684 28.8719 20.6886
Pt 11.3437 22.6569 18.9532
Au 14.7298 34.6251 25.714
Pt 27.2251 36.7964 28.845
Au 13.9906 25.2166 40.3087
Pt 34.297 36.8803 30.6444
Au 22.6626 12.0355 10.0974
Pt 35.1249 23.4582 17.5208
Au 33.394 27.9847 43.2089
Au 34.5552 14.4772 19.8947
Pt 22.2559 21.015 12.7959
Pt 17.4474 14.6685 25.1686
Pt 25.1033 32.4174 23.7807
Au 38.5062 31.5484 35.6303
Pt 27.4901 27.4517 16.6323
Pt 27.5227 29.9529 29.3348
Au 36.504 35.169 13.9366
Pt 29.2593 11.5948 31.6099
Au 26.7585 8.21061 21.8451
Pt 17.0425 14.0757 33.0892
Pt 31.2257 19.2678 16.7867
Au 35.348 11.3421 31.1599
Au 35.759 19.0913 35.7673
Pt 27.2156 26.4301 37.0077
Pt 14.4806 33.2933 28.2743
Au 19.2053 9.01845 34.9244
Pt 24.161 23.5261 19.3746
Pt 31.9416 34.6133 36.4719
Au 22.1438 43.4269 18.6615
Pt 16.6623 19.3955 28.638
Au 20.5219 34.9122 21.6357
Pt 32.6537 12.706 23.9204
Pt 35.3815 21.1436 31.9795
Au 22.7806 39.5534 27.2755
Pt 29.0929 22.1988 20.5686
Au 37.2001 28.7084 10.3092
Au 28.5529 24.6317 12.8177
Pt 22.9565 31.549 33.1623
Pt 31.5143 39.0595 18.8415
Pt 30.0698 29.8284 28.0901
Au 40.8927 17.3816 18.685
Pt 19.1064 19.0627 35.0666
Au 40.1654 31.4467 33.2204
Au 31.9064 37.3568 37.1657
Au 19.6487 26.6474 8.44356
Au 40.0629 33.8845 31.6575
Au 19.4335 25.4936 43.4001
Au 19.0259 17.4325 41.4639
Pt 31.6435 27.4893 34.5563
Pt 32.933 26.9927 40.7896
Pt 16.6693 28.6438 29.5229
Au 25.852 17.569 36.6962
Pt 20.6376 17.3833 21.2888
Au 16.3916 28.9738 18.7868
Au 17.6455 29.5578 13.2816
Pt 20.2097 14.3276 25.0313
Au 38.411 32.6215 26.9589
Au 13.8495 30.6667 37.0048
Au 22.9843 25.2156 4.91394
Au 41.5162 26.8593 23.3869
Au 36.5616 36.0072 16.5149
Pt 24.7827 34.0753 37.3435
Pt 29.5301 23.717 25.2781
Au 38.9415 33.757 34.1883
Pt 29.6359 35.7241 37.0258
Au 21.8993 36.1266 23.9025
Au 33.1986 12.1734 18.5828
Pt 13.6756 38.1209 21.0842
Pt 15.4278 12.1476 35.8995
Pt 25.5816 21.6059 10.0634
Au 35.2587 13.096 17.014
Pt 29.3137 17.2021 27.6308
Pt 27.2809 20.8789 18.6848
Pt 28.6353 37.904 33.8502
Au 18.202 9.44584 18.8196
Pt 31.9789 32.0862 35.7084
Au 30.3545 15.931 38.53
Au 14.8129 39.801 25.1493
Au 33.1309 15.6859 9.01055
Au 14.3233 35.4922 16.0965
Pt 31.2713 10.9396 22.5468
Au 11.6792 27.2832 19.1956
Pt 28.8377 28.9129 37.379
Au 40.0878 24.7899 32.3801
Pt 31.2554 30.6658 37.8444
Au 17.7723 12.1565 42.612
Au 23.0038 38.6902 19.5511
Pt 19.3477 16.5772 16.0401
Pt 26.2287 18.8803 24.038
Pt 34.4158 28.4157 10.7351
Au 38.6482 30.905 15.1637
Pt 32.3829 28.7941 21.9566
Au 39.0227 29.9391 25.9987
Au 29.005 27.481 11.2767
Au 29.8783 17.7254 12.7863
Au 13.6505 23.4493 11.2519
Au 8.91052 30.9719 24.3655
Pt 26.9864 13.4221 21.0878
Pt 16.6458 16.5764 15.313
Pt 27.7549 11.5549 25.9738
Au 15.7678 29.7281 38.7452
Au 19.7379 19.1608 6.80312
Au 13.3319 35.2608 21.5808
Pt 38.647 25.3738 25.4899
Au 37.0641 21.4395 11.1589
Au 35.0836 12.4645 22.3143
Pt 17.8962 13.366 35.4401
Au 37.7572 33.3925 15.9693
Au 34.091 14.4964 35.9639
Pt 27.9949 30.7386 34.5325
Au 17.2996 26.54 41.9485
Au 31.1568 28.9788 13.8751
Pt 30.7462 15.7022 29.6089
Au 39.9253 18.3724 26.7164
Pt 28.421 16.7078 30.3807
Pt 33.5782 21.0194 25.0848
Au 18.9963 42.7 23.319
Au 39.5095 14.6471 22.7359
Pt 21.5005 15.1688 28.2579
Au 18.3641 41.299 21.1854
Pt 26.5386 30.5732 40.0526
Pt 11.6401 28.5216 26.5825
Pt 21.83 34.5504 26.1773
Pt 23.2201 26.3966 15.8139
Pt 21.3931 9.88073 27.8838
Pt 21.1952 27.7979 26.8748
Au 17.0524 20.1029 10.7593
Au 11.3436 36.8094 22.7549
Au 27.1883 18.0972 9.29501
Au 21.5158 8.53047 23.4834
Au 26.293 41.2043 14.4399
Pt 20.626 23.9011 41.5639
Pt 30.1364 22.6414 27.7028
Au 19.8361 29.152 10.19
Pt 27.827 25.5526 29.8989
Au 10.2484 20.1795 18.2235
Pt 35.7716 30.4889 35.3601
Pt 31.7835 31.5025 40.2929
Au 23.226 8.68103 25.9863
Au 23.687 10.5838 24.0336
Au 27.2144 40.1344 34.1772
Pt 30.4297 26.8259 20.7714
Pt 20.3241 26.0509 28.9883
Au 38.9346 15.2018 33.1788
Pt 12.4365 24.8794 20.347
Au 7.02668 21.2386 27.0935
Pt 33.102 29.2639 39.4465
Au 16.4064 37.433 25.1608
Pt 28.8325 19.6833 34.7251
Pt 13.0055 30.6082 27.8958
Au 14.0437 29.1372 30.8082
Au 13.1017 33.3562 23.6801
Pt 10.2494 20.6921 26.4913
Pt 31.8335 31.6936 28.599
Au 16.8636 9.10033 21.2376