2057
Atoms. Timestep: 20608
Au 22.0234 24.0746 28.2527
Au 25.8577 26.3198 24.5191
Au 25.7674 25.1648 27.0592
Au 21.3245 25.6281 23.8827
Au 20.3856 25.5649 26.6577
Pt 22.531 29.7945 26.416
Au 24.807 27.8715 26.7473
Au 21.5588 23.1723 25.6843
Au 24.2008 22.9373 26.4031
Au 19.8245 23.3542 29.8613
Au 23.7104 26.3847 28.869
Au 23.3846 23.7916 23.7051
Au 23.1782 25.6489 26.0402
Au 27.8509 26.2386 22.349
Au 28.6725 25.3459 25.0236
Au 29.8076 22.586 28.9237
Pt 19.258 24.8584 21.9221
Au 18.834 24.4618 24.6624
Au 18.0062 24.6802 27.5382
Pt 19.9282 30.0709 26.8909
Pt 24.9912 30.5315 26.4348
Au 27.5168 30.0268 26.463
Au 20.4146 20.4391 25.1387
Au 23.1372 20.5515 25.257
Au 25.9266 20.6792 26.0149
Au 20.6395 21.1932 32.1418
Au 22.1968 25.0296 30.8701
Au 21.9936 27.9233 30.625
Au 24.2808 22.9098 20.8898
Au 23.9088 26.2961 22.4748
Pt 23.3099 27.941 24.5487
Au 28.7035 25.4949 31.3243
Au 27.7112 28.0299 31.5879
Au 25.9805 24.19 22.7469
Au 25.949 28.1419 21.5678
Au 16.9969 24.2415 30.0439
Au 19.9083 26.0749 29.4758
Au 21.8193 24.0522 21.327
Au 21.2635 26.7572 21.3684
Au 25.9133 29.1006 24.1708
Pt 31.4084 28.5875 28.5684
Au 20.5929 27.9444 25.3311
Au 19.2321 28.7886 29.844
Pt 26.6301 23.3916 25.148
Au 26.8216 22.641 27.8241
Au 20.4641 22.6488 23.3515
Au 19.4738 22.3876 27.2435
Au 21.5126 27.7968 27.9112
Pt 23.7786 29.2466 28.812
Au 21.9217 21.1771 27.6979
Pt 24.6172 21.1378 28.4409
Au 21.3906 28.9345 22.9411
Pt 23.6111 30.4165 23.715
Pt 22.5522 21.2604 22.2542
Au 24.9765 21.6201 23.5494
Pt 30.275 26.5035 20.2858
Au 30.582 25.8932 22.8619
Au 32.0855 21.9599 26.913
Au 32.6152 23.472 29.112
Pt 16.9211 24.8148 20.193
Au 16.6087 25.1922 22.9162
Au 16.1708 24.025 25.4289
Au 18.0461 22.2151 31.6815
Au 18.8398 31.4022 28.9894
Pt 23.2692 32.2667 25.5047
Pt 26.5065 34.3324 29.0888
Pt 25.4176 33.2448 26.6573
Au 19.1589 17.9774 25.0587
Au 21.9504 17.9059 25.1815
Au 24.7662 18.0789 25.4946
Au 27.5836 18.3155 25.7239
Au 25.1755 21.8666 31.1225
Au 24.599 23.7784 29.2056
Au 25.9184 29.6393 32.9269
Au 23.068 29.5044 32.7259
Au 24.4043 21.1393 18.7029
Au 23.8675 23.791 18.1879
Au 23.3444 28.8006 20.9698
Au 24.6958 30.8449 18.3815
Au 28.4882 24.9236 28.0153
Au 26.8134 19.4657 32.233
Pt 32.0167 25.9499 34.747
Pt 32.7022 27.4525 30.4683
Au 24.7639 27.8414 31.0862
Au 28.4937 24.4268 20.2731
Au 26.5543 23.0402 18.9504
Au 27.6375 27.1987 19.5336
Au 25.8217 25.396 20.3662
Au 24.9197 28.0399 18.5345
Au 18.4237 25.5436 31.8385
Pt 18.1914 20.578 34.0532
Au 20.4147 27.2014 32.7667
Au 22.0345 24.2669 34.656
Au 23.1232 26.4618 33.0728
Au 19.1503 23.2101 19.8498
Pt 21.7385 22.2693 19.3206
Pt 19.072 26.5915 19.867
Au 23.3488 26.0321 19.7381
Au 21.5274 27.9391 18.9162
Au 28.8397 30.9648 24.2538
Au 28.9589 28.7448 21.623
Au 29.1162 30.1951 28.7868
Au 28.4695 28.1161 24.3588
Pt 31.0229 24.4072 26.9567
Au 18.8017 29.7556 24.1421
Au 19.0093 27.2469 23.067
Pt 16.6654 29.6493 28.842
Au 18.537 27.7164 27.4105
Au 17.0888 27.043 29.6716
Au 28.0128 21.0909 24.1621
Au 28.7208 23.4527 22.9451
Au 28.5829 20.4364 27.4089
Au 29.0574 22.8424 26.114
Pt 33.4936 22.2494 31.426
Au 18.461 19.773 22.9913
Au 17.818 22.6157 22.3492
Pt 18.202 19.8744 27.0487
Au 17.9724 21.8056 25.0274
Au 17.2588 21.7595 28.8265
Pt 22.3757 31.8546 31.4543
Au 21.4231 30.4818 29.2307
Au 24.8242 30.9086 30.7371
Au 23.5859 31.9469 28.3848
Au 26.4193 31.6318 28.6139
Au 21.9505 19.2794 30.2101
Au 20.6049 18.7047 27.5671
Au 24.7428 19.2981 30.3433
Au 23.4279 18.7668 27.8013
Au 26.3294 18.8821 28.1369
Au 21.8477 31.4321 21.8604
Pt 21.0603 31.0446 24.5798
Au 25.1065 30.8853 21.4709
Au 23.6897 33.2736 22.9868
Au 26.0215 31.8933 24.1818
Pt 22.0499 19.6784 20.1558
Pt 20.9926 18.8954 22.591
Pt 24.7274 19.9479 21.0074
Pt 23.5397 18.8543 23.0861
Au 26.2254 19.1933 23.3534
Au 28.7383 18.5449 29.737
Au 27.4921 27.3008 26.8187
Au 26.8168 21.7496 21.5402
Au 27.8427 31.3508 21.7202
Au 19.5993 20.5573 29.5294
Au 20.4165 29.9685 31.9432
Au 20.0519 21.1033 21.2043
Au 19.782 29.3478 20.75
Pt 32.9585 26.0662 20.7301
Au 32.309 25.9178 24.9782
Pt 39.1968 27.0825 27.6541
Pt 36.5616 21.0078 28.2535
Pt 35.9211 24.1291 31.1899
Au 12.4909 23.1722 20.7808
Pt 14.2976 25.0655 20.5057
Au 13.4469 23.2879 25.8715
Pt 13.4437 21.5724 28.3192
Pt 16.9432 26.0588 33.9858
Au 18.6171 32.3315 25.6083
Au 21.0764 32.6207 26.9797
Pt 23.7671 34.6074 28.3479
Pt 25.1408 36.4413 29.6731
Au 25.8281 34.7567 24.3449
Au 19.6154 16.4597 22.6814
Pt 20.9437 15.2511 24.927
Pt 23.6753 15.4761 25.1229
Pt 26.4732 15.7591 25.4337
Pt 29.2247 16.019 25.6181
Au 25.1282 21.7975 36.4075
Au 20.3379 23.835 32.6124
Pt 24.134 26.3692 37.0673
Au 24.8018 24.6162 34.7856
Au 25.4329 30.6704 35.3798
Au 23.3779 16.8682 16.232
Pt 24.4292 21.7999 15.9544
Au 24.3765 24.4573 15.411
Au 24.7379 27.3834 15.5558
Au 26.4719 32.5666 16.1483
Pt 33.6652 21.7626 35.2057
Au 28.249 21.9287 32.6462
Au 27.7008 22.7577 35.6442
Au 27.2795 23.5178 30.4324
Au 27.44 20.8706 29.9288
Au 25.0102 24.8785 31.7002
Au 30.8508 25.5307 29.5366
Au 31.0814 26.2197 32.2828
Pt 31.564 23.2034 36.2336
Pt 31.4579 24.6954 18.6085
Pt 29.2981 22.9212 18.0755
Pt 26.938 21.4341 16.9106
Pt 32.2137 27.5155 18.5728
Au 29.1749 25.8182 17.8055
Au 25.9856 25.5068 17.5476
Pt 32.4124 29.0155 16.3123
Au 27.2948 27.7814 16.7742
Pt 29.9199 28.1807 16.3806
Pt 15.8421 21.3046 33.1909
Pt 16.4257 21.8411 35.8215
Au 23.2268 20.0293 32.623
Pt 15.5585 26.562 31.8118
Pt 17.7998 23.3923 34.1215
Pt 20.6608 24.7573 37.0316
Pt 21.0266 29.1322 34.6251
Pt 22.699 28.8528 37.1877
Pt 22.8306 30.9731 35.2034
Au 17.1445 22.3849 18.1409
Pt 19.6844 22.7347 17.1396
Pt 20.4193 20.6292 15.3815
Pt 16.6649 26.9077 16.9598
Pt 18.2594 24.9795 17.9532
Au 20.9871 24.9238 18.6402
Au 17.7245 29.1544 15.9973
Au 22.736 26.2261 16.9857
Au 22.8129 29.2031 16.807
Au 28.163 33.5821 23.3029
Au 29.8891 31.1854 19.8806
Au 31.8137 28.6625 21.0799
Au 30.388 28.8753 31.2031
Au 30.2348 29.6554 26.3473
Pt 30.7855 30.6478 22.4151
Au 31.4307 31.2301 30.0065
Au 33.8076 23.9954 26.2591
Au 33.2137 28.44 25.8106
Au 16.0687 28.6813 23.8224
Au 16.2552 31.604 24.1915
Au 17.4141 30.1084 21.8568
Pt 16.6525 32.3223 27.6879
Au 17.2613 30.0207 26.2998
Au 17.3341 26.7236 25.2594
Au 15.6585 26.0884 27.5098
Au 14.4695 26.3214 24.8981
Au 15.2752 23.4753 28.013
Au 29.8763 18.3747 24.1973
Pt 30.5595 21.263 22.6323
Au 30.9904 23.6474 21.2292
Au 30.0729 18.1384 27.1933
Au 30.4652 20.6558 25.2996
Pt 31.0706 23.4468 24.3595
Au 30.9908 17.9683 31.3645
Au 31.2596 20.0807 28.7602
Pt 34.744 20.3974 32.9289
Au 16.8474 17.1982 23.2938
Au 15.887 19.5769 22.1391
Pt 15.4894 22.686 21.0839
Au 18.1675 15.3101 24.8295
Au 16.4601 19.381 24.9063
Au 15.4648 21.8994 23.693
Au 16.9662 17.3567 26.704
Au 15.5256 21.3002 26.4968
Au 15.8414 19.3862 28.4449
Au 21.1289 32.4581 33.8152
Au 21.7162 34.572 32.0443
Au 19.1417 34.9958 33.0423
Au 27.2365 32.0706 33.8139
Au 24.372 32.2035 33.2481
Au 21.5148 33.5134 29.5457
Pt 26.7363 33.282 31.5035
Au 24.234 33.9184 30.9144
Au 28.4859 35.3231 25.3342
Pt 21.9011 17.2867 32.2276
Au 20.7436 16.8225 29.7791
Au 19.4959 16.115 27.2296
Au 24.6454 17.5755 32.474
Pt 23.5495 16.8585 30.0082
Au 22.2673 16.1919 27.4237
Pt 26.3778 17.0691 30.261
Au 25.0811 16.3901 27.7152
Pt 27.8444 16.5062 27.9522
Au 23.7847 32.9219 20.1114
Au 18.2791 34.318 21.0851
Au 19.1649 32.2207 22.7253
Au 26.6039 32.5955 19.1072
Au 21.2644 34.1081 21.3879
Au 21.1861 33.691 24.2174
Au 26.0453 33.621 21.6536
Au 23.3098 34.9166 25.6589
Pt 24.7393 37.7311 18.6347
Au 20.8675 18.278 17.9072
Au 21.1378 17.0218 20.3274
Pt 19.897 14.5122 20.2437
Pt 23.5184 18.3304 18.5327
Pt 23.8145 17.3665 20.8186
Au 22.3382 16.3511 22.8363
Pt 26.5148 17.8258 21.0123
Au 25.1325 16.5562 23.0953
Au 27.8788 16.8557 23.1797
Pt 33.0621 17.7389 33.1417
Au 28.9788 27.4742 29.1702
Pt 28.5526 16.752 31.8727
Pt 28.7431 32.81 29.3341
Au 32.012 20.5235 33.3035
Au 26.4583 26.1463 29.6249
Pt 29.1493 21.64 20.346
Pt 29.879 28.7646 18.8949
Au 28.5891 19.449 21.8934
Au 34.2478 33.2495 18.9114
Au 26.9681 20.0276 19.253
Au 27.1204 29.8377 19.5074
Pt 17.0735 19.8474 30.9495
Pt 17.8246 28.2396 32.201
Pt 18.3434 18.1034 29.0972
Pt 17.424 30.8438 31.4088
Pt 19.4929 18.7204 31.6007
Pt 18.9316 30.8468 33.8733
Pt 17.4443 20.8075 20.2767
Pt 17.5942 28.5482 18.9347
Pt 19.1381 18.6615 20.4456
Au 19.8785 32.2891 19.8493
Pt 19.5364 20.5417 18.5061
Au 22.1492 30.6831 19.2095
Pt 36.2812 26.6147 19.1003
Pt 35.7105 26.3915 21.6555
Au 36.7095 23.587 26.2364
Au 37.4762 24.3507 23.4786
Pt 41.0777 22.7091 27.965
Pt 36.003 21.6018 30.831
Pt 13.6204 26.6586 17.0417
Au 14.1003 24.2002 23.1535
Au 16.9285 27.3822 21.3445
Pt 11.5964 21.2894 26.2227
Pt 10.3042 23.5494 25.7346
Au 7.00119 19.4855 28.8923
Au 17.1946 36.7816 25.2737
Au 19.2475 34.956 25.7392
Pt 21.3012 35.5409 27.6982
Pt 23.5211 37.1336 27.453
Au 25.2523 36.3298 22.1697
Au 31.3218 35.0855 26.9922
Pt 17.1646 12.8178 24.6407
Pt 19.8935 12.8134 24.6399
Pt 22.601 12.9694 24.8246
Au 25.3614 13.2495 24.9992
Au 28.1288 13.5284 25.2603
Au 30.9081 13.8832 25.4106
Au 16.3911 15.7985 39.0962
Pt 24.2018 24.9267 39.309
Au 23.2121 23.7885 37.0297
Pt 19.2796 27.7964 39.7044
Au 25.5449 28.6891 37.3795
Au 28.3403 31.2036 36.3256
Au 25.1525 18.1853 14.2826
Pt 24.7293 20.9236 13.4846
Pt 26.4113 22.8939 14.3108
Au 24.2216 26.1794 13.1236
Pt 23.1015 29.8149 14.1896
Pt 25.1578 31.595 13.8216
Pt 33.9936 19.1179 35.1853
Au 37.5065 15.932 33.8414
Au 30.1526 20.6611 31.1678
Au 23.1919 22.9966 32.6419
Au 30.7679 23.3405 31.4516
Pt 36.2055 27.8547 33.3853
Au 29.9926 21.3777 34.8398
Au 26.1595 24.2664 37.3407
Pt 34.8075 25.2518 33.3678
Au 27.1833 24.35 33.3802
Au 24.1907 28.2286 34.9447
Au 29.9162 24.0822 34.0206
Au 25.7192 28.4328 43.4794
Au 29.1487 24.8325 36.6405
Pt 33.9892 25.5933 18.0434
Au 31.1169 23.4664 16.1263
Au 29.2574 21.4422 15.531
Au 25.1698 19.2986 16.7539
Au 34.8637 28.0991 17.2203
Pt 31.8188 26.2124 16.3751
Au 29.3636 25.768 15.1311
Pt 27.8005 23.8639 16.2777
Pt 33.3861 30.3102 14.2298
Au 31.099 27.7139 13.9107
Pt 26.6887 25.6691 14.7351
Au 30.359 30.2199 14.5371
Au 28.0235 27.9562 13.9983
Au 25.5472 29.8711 15.9628
Pt 15.7461 23.9395 32.5323
Pt 15.6347 20.0706 37.5541
Au 20.5737 19.3745 34.1226
Au 21.4041 20.0297 36.7617
Au 12.2022 21.8232 30.6775
Pt 15.804 24.621 35.8552
Pt 18.2556 23.5849 36.7579
Au 20.1379 22.2216 35.1488
Au 18.4137 28.3013 34.874
Au 19.4582 25.5191 34.7601
Au 19.9218 28.0909 37.134
Au 20.3756 30.9036 36.4948
Pt 23.153 31.3888 37.8172
Pt 24.6756 30.1024 39.4429
Au 15.4309 24.6472 17.7898
Pt 17.6511 24.0516 15.6198
Au 20.2877 25.1604 15.7812
Au 22.7739 19.4105 15.1302
Pt 14.9557 28.6506 15.7848
Au 18.3083 26.5636 14.4988
Au 19.5099 27.3109 17.1614
Pt 22.1515 20.5843 17.4195
Pt 15.695 31.1011 14.9516
Au 22.0751 27.2552 14.4495
Au 22.0702 23.0802 16.2061
Pt 18.1965 29.4015 11.1914
Pt 22.7623 28.4185 11.7869
Au 20.3277 29.1572 15.1017
Pt 32.89 40.1023 26.8027
Pt 33.6577 30.0697 22.8019
Pt 35.2908 30.63 17.956
Au 36.361 32.7983 16.2308
Au 32.2368 35.3464 24.3493
Au 28.0497 32.8253 26.4871
Au 31.9633 30.9259 24.8142
Pt 34.39 28.3219 20.1201
Pt 32.3498 32.1664 36.2685
Pt 36.9391 28.0781 28.8242
Au 35.1928 25.6564 24.316
Au 35.9318 30.6914 27.915
Pt 37.7107 26.2433 25.4746
Au 32.8098 26.2819 27.7499
Pt 16.7693 34.9702 27.2828
Au 14.2638 31.8786 19.7529
Pt 15.339 29.3772 20.258
Pt 13.5861 28.9922 18.2708
Pt 14.5152 36.0308 26.6576
Pt 14.9724 33.7457 25.4712
Au 14.4004 30.587 22.3725
Pt 15.2644 27.0259 19.1771
Pt 15.0376 31.5603 29.8853
Au 15.1175 28.4867 26.5509
Au 13.2918 28.9066 24.3726
Pt 13.8261 29.5965 28.6127
Au 11.1241 23.0444 28.2203
Au 15.019 21.7299 30.6339
Pt 31.5634 16.3186 24.0509
Au 32.2576 19.0198 23.066
Pt 32.9965 21.492 21.5202
Pt 33.4847 23.6533 19.9707
Pt 38.2407 14.4988 29.3893
Au 32.614 19.2265 26.2747
Pt 32.8339 21.4678 24.2252
Au 33.135 24.2845 22.8155
Pt 32.4261 13.9445 33.7276
Au 32.6533 17.5539 29.0606
Pt 33.9288 21.0242 28.8642
Pt 34.6014 17.0204 31.0732
Au 33.1221 19.5663 30.9108
Pt 32.46 15.5104 31.4798
Pt 15.6064 13.2705 22.2151
Pt 15.1169 17.1137 20.9314
Pt 13.495 18.2994 22.6598
Pt 13.1889 19.4434 17.2821
Pt 14.7587 15.5331 23.1664
Pt 13.0211 15.0324 25.2079
Au 14.4817 17.4077 25.1685
Au 13.3547 20.8467 21.8392
Au 15.732 14.8202 26.0853
Au 13.3525 19.1676 27.126
Au 13.5905 20.1805 24.65
Pt 11.2116 20.0155 28.8453
Pt 9.49289 22.0744 30.1788
Au 13.464 19.1125 29.9652
Pt 23.1313 37.132 34.779
Au 18.5781 35.5915 36.9682
Au 21.1212 37.137 32.9404
Au 19.0523 34.0775 28.3498
Pt 28.3537 34.6057 33.4562
Au 20.9021 37.3622 37.0959
Pt 22.5801 36.591 30.1219
Au 20.0247 36.0116 30.2469
Pt 26.6107 36.1489 31.9953
Pt 25.2288 38.4737 31.215
Pt 21.1673 38.2264 28.2607
Au 28.8409 35.4163 28.0753
Au 25.9284 35.8979 26.8992
Au 31.8525 37.6914 27.5129
Au 21.9862 15.3004 34.6039
Pt 20.7557 14.7629 31.9801
Au 19.6486 14.226 29.3967
Pt 18.4613 13.5 26.9474
Au 22.8118 17.9097 34.757
Pt 23.4767 14.9654 32.1061
Au 22.3484 14.3822 29.6133
Pt 21.1403 13.5595 27.0982
Pt 26.3254 15.2295 32.2575
Au 25.1346 14.5809 29.8367
Au 23.8903 13.814 27.3042
Pt 27.9062 14.7421 30.0112
Pt 26.6872 14.0182 27.5847
Pt 31.0281 12.0736 27.6325
Pt 24.5804 33.9677 17.6013
Au 21.8131 33.3332 18.2179
Pt 17.9057 34.0802 18.4141
Pt 15.5623 34.4693 19.6068
Au 28.2016 30.4062 17.0423
Pt 27.1762 34.7831 14.568
Pt 22.6605 35.804 17.4415
Pt 16.3686 32.5461 21.4734
Au 28.9957 33.0155 17.7729
Au 25.9142 35.4017 19.5415
Au 22.6384 36.0004 23.0326
Au 28.0132 36.5472 21.0688
Au 26.2451 38.6104 20.8669
Au 29.8899 35.797 22.8632
Pt 21.9531 14.6224 15.1528
Au 21.4418 15.4722 17.8094
Pt 18.9942 11.9718 20.086
Pt 18.4319 13.887 22.4318
Au 26.1809 16.2 15.9475
Pt 24.2763 15.284 18.1542
Au 22.6782 14.8113 20.31
Pt 21.2368 13.8188 22.5089
Au 26.1542 17.2069 18.5233
Pt 25.4498 15.2372 20.5447
Pt 23.9661 14.0678 22.6841
Au 28.1608 15.5707 20.4284
Au 26.7618 14.2993 22.8113
Au 29.5451 14.714 22.9635
Pt 37.3906 20.1897 33.2678
Pt 32.5847 23.5205 33.554
Au 29.3805 18.9157 33.4015
Pt 34.2219 32.1452 33.9382
Pt 30.1661 16.2494 29.4748
Au 30.6272 32.336 27.4513
Au 36.0629 18.4907 37.6557
Pt 29.9732 27.454 36.2922
Au 26.9178 17.406 34.1103
Pt 28.7093 34.9686 30.7602
Au 27.5451 20.1108 35.0726
Au 26.0489 31.7205 37.6945
Au 31.5697 21.8875 19.1016
Au 32.7011 30.1961 18.8492
Pt 30.9987 19.5734 20.5504
Pt 32.7068 31.8122 20.921
Pt 30.2782 17.1972 21.6744
Au 30.6059 33.2181 22.0361
Pt 29.5781 20.211 18.0623
Au 30.8451 31.1525 17.0885
Pt 28.8428 18.0668 19.512
Au 34.5229 32.9398 14.1228
Au 27.8189 18.6554 16.6349
Pt 31.7911 32.522 14.4171
Au 14.5157 16.6819 27.9594
Pt 14.2099 27.2278 29.5357
Au 15.9782 17.4041 30.3275
Pt 15.4437 29.1231 31.0983
Pt 17.2039 15.4573 28.6116
Au 17.1637 33.3937 30.2249
Au 17.2143 18.1289 33.0931
Pt 16.3961 29.8214 33.847
Au 18.3909 16.1971 31.1097
Au 19.5464 32.6622 31.4869
Au 19.5731 16.7038 33.5559
Pt 19.0013 33.3521 35.2985
Au 14.3892 22.2641 18.7603
Pt 15.8626 30.1418 17.6878
Au 16.9809 18.283 18.8367
Pt 15.8557 32.7067 17.5232
Au 17.6565 16.3077 20.828
Pt 13.4171 33.8215 17.8565
Au 15.8283 20.1343 17.1615
Au 19.768 29.942 18.0285
Au 18.8621 16.2001 18.326
Au 17.4564 31.3556 19.3914
Pt 20.6056 17.0556 15.5457
Pt 23.7485 32.0202 16.0314
Au 39.6132 27.3713 13.1713
Pt 38.4066 25.2098 18.0797
Pt 38.1711 27.1896 22.8035
Au 35.9602 28.4295 24.8434
Pt 41.3717 26.2851 26.4225
Pt 37.4932 25.3404 28.699
Pt 39.6135 19.6847 24.4451
Au 9.57298 21.3756 14.1418
Pt 10.5018 22.8194 18.8472
Au 11.9911 22.4867 23.7034
Au 9.23966 21.1389 24.6261
Au 7.40953 26.1841 27.2115
Pt 9.13391 21.0119 27.6748
Pt 11.4802 25.5647 34.0208
Pt 14.8314 36.0244 29.3893
Pt 17.0405 36.9346 22.6
Au 19.2618 38.2319 23.9167
Au 21.3517 36.8575 25.3731
Pt 23.2646 39.3266 26.1177
Pt 29.6609 38.6381 22.5223
Au 34.3709 40.489 28.9969
Pt 16.0293 10.4089 24.4643
Pt 18.8068 10.3844 24.5014
Pt 21.5364 10.5187 24.6177
Pt 24.2443 10.6885 24.7881
Au 27.0586 10.908 24.9485
Au 29.8676 11.2685 25.1719
Pt 32.7506 10.0397 27.5641
Au 22.8329 21.4651 34.9645
Pt 27.125 21.3536 40.6473
Pt 21.6215 24.0104 39.4905
Au 21.8683 26.7809 35.6129
Pt 29.3915 26.2982 38.9784
Pt 27.885 26.0337 41.2148
Pt 27.2783 30.7992 39.9206
Au 25.7801 19.6536 11.4959
Pt 23.8324 21.5209 10.7016
Au 26.1532 22.783 10.7254
Au 26.6073 25.1043 12.1777
Pt 24.7542 26.8383 10.6454
Pt 26.4783 30.8218 11.4397
Au 27.6141 30.6467 14.2391
Pt 37.9015 22.7322 34.881
Au 22.4716 22.07 30.201
Pt 31.3724 18.3349 35.1861
Au 25.6181 21.9251 33.7441
Au 26.0257 26.8367 33.4298
Pt 38.809 24.6797 30.9246
Pt 36.492 24.984 35.9652
Pt 35.5743 22.7779 33.6837
Au 29.1079 30.0995 33.4231
Au 42.2104 27.5743 31.9007
Au 27.5545 28.8277 35.1638
Pt 31.8273 25.7755 37.2909
Au 28.8812 26.7071 33.9234
Au 23.0728 27.2838 43.5817
Au 28.1542 28.6182 37.9918
Pt 34.6914 26.9558 35.3514
Pt 22.6513 25.6172 41.3442
Au 32.9887 29.9041 31.9207
Au 26.8837 26.4433 36.0708
Pt 26.4869 28.4745 40.8217
Au 36.2755 25.5761 16.2367
Au 33.8466 24.5062 15.3929
Au 31.4188 21.8862 13.5989
Pt 27.0221 20.1775 14.5602
Au 27.646 17.9156 13.0182
Au 36.7607 27.708 14.6006
Au 33.8432 27.3669 14.7373
Pt 31.6665 24.9481 13.9562
Au 29.0258 23.4974 13.5446
Pt 27.6434 21.4694 12.3746
Pt 34.4189 28.5277 12.3096
Au 32.6952 26.5116 12.0226
Au 29.295 26.0553 12.3317
Pt 28.6094 23.9773 10.6534
Pt 31.9458 29.7398 12.199
Pt 30.4911 27.9307 10.8807
Pt 27.2257 27.7071 11.1593
Pt 30.053 32.0935 12.3906
Au 28.9476 29.7386 11.9837
Pt 28.8245 31.8956 9.97389
Pt 12.9573 23.8223 32.4402
Pt 14.2703 22.9616 34.6101
Pt 18.4376 16.4439 37.5523
Au 20.5357 18.8692 41.6252
Pt 21.3539 16.7036 39.9086
Au 7.53449 23.5688 31.8867
Pt 14.676 25.663 40.1381
Pt 18.5469 20.6311 37.0167
Pt 15.534 19.356 34.9924
Pt 17.1385 24.7604 40.9315
Au 14.4108 29.3039 37.2123
Pt 15.5954 27.7578 35.3821
Pt 17.6872 26.3353 36.7634
Pt 20.2556 22.2696 38.048
Au 16.2815 31.5574 38.4344
Pt 17.0414 28.8487 37.4911
Pt 23.9006 27.5886 39.4738
Pt 22.8873 31.5762 40.773
Au 20.0862 27.749 43.3914
Pt 25.3038 32.7583 40.0478
Pt 12.0021 22.5214 14.2434
Au 15.3437 22.6755 15.8762
Pt 16.2363 21.694 13.3065
Au 17.829 21.2705 15.4325
Pt 22.8317 19.4322 12.2989
Pt 13.5665 26.9922 14.1755
Pt 15.6187 25.6407 14.9228
Pt 17.0733 24.3346 13.0394
Pt 22.3168 21.8321 13.7629
Pt 20.341 20.8684 12.2667
Au 16.3359 28.2665 13.5405
Au 20.0136 27.6677 12.5861
Au 21.9765 24.5953 13.6872
Pt 24.2903 23.4249 12.7125
Au 15.7457 23.5556 8.17408
Pt 20.6014 28.8532 10.1455
Pt 21.9514 25.9701 11.2349
Pt 20.0268 31.5302 10.3197
Au 25.4055 28.7794 13.0136
Au 20.7837 30.3647 12.5688
Au 31.9856 42.4948 25.7165
Au 33.2019 32.8527 23.3174
Au 35.2407 33.6009 21.6062
Pt 36.9773 32.371 19.0311
Pt 37.9618 30.6188 17.2749
Pt 35.498 36.2804 30.5817
Pt 35.5697 33.7466 24.4393
Pt 35.9997 31.4051 23.3324
Au 35.176 30.9709 20.6476
Pt 36.9275 29.2184 19.4385
Au 31.1333 34.1746 29.7121
Au 30.2824 26.9784 26.6036
Au 31.1303 28.3927 23.897
Au 33.6281 27.4618 22.9934
Pt 37.4895 31.5326 29.8661
Au 34.6813 30.9122 25.494
Pt 36.1902 28.9448 22.1602
Pt 37.9949 29.382 26.6075
Au 35.4924 26.5099 26.9223
Au 35.3458 23.4347 28.6098
Au 14.3917 33.8096 22.4993
Au 9.44317 32.9289 20.0058
Au 13.1259 35.9473 15.7884
Au 13.4713 31.2442 16.8772
Pt 11.0079 29.1077 18.2561
Pt 17.4946 36.0885 29.5837
Au 11.9457 32.2068 21.6333
Au 13.1448 31.9737 24.2925
Au 11.5467 31.8216 18.7792
Pt 12.6163 24.5399 18.3436
Pt 12.3775 34.5715 24.1854
Au 14.4847 31.2315 26.5825
Pt 10.647 28.1327 24.9023
Au 14.2149 27.3111 22.1006
Pt 12.5403 31.9266 28.7648
Au 12.4203 27.7798 26.9231
Au 11.79 25.633 24.9002
Au 12.9424 25.2257 27.7772
Au 10.1924 25.8764 27.4186
Au 5.40918 19.068 26.463
Pt 33.2143 14.2021 24.0295
Au 33.9253 16.7499 22.6121
Au 34.4571 19.1759 21.2991
Au 35.0558 21.4247 19.5394
Au 35.6133 23.7104 21.4872
Au 31.7048 16.0141 26.957
Au 33.8708 17.0321 25.2727
Au 35.0617 18.699 27.5915
Au 35.0676 22.8144 24.0073
Au 37.9557 25.086 20.8049
Pt 38.9672 16.7021 28.0626
Pt 34.4222 16.099 27.6123
Pt 36.5164 16.5826 29.2317
Au 37.182 21.1977 24.5659
Pt 34.2329 13.2336 31.8269
Au 39.448 12.5194 24.5664
Pt 37.926 18.9031 28.658
Pt 35.7713 18.0583 33.3705
Au 39.275 24.3446 26.8011
Pt 39.7987 17.902 30.3655
Au 14.1922 10.8091 22.5821
Pt 13.9264 14.6808 20.3706
Pt 13.1468 17.5204 19.2028
Au 14.7352 19.6641 19.703
Au 12.49 22.0289 16.8735
Pt 14.5055 12.6787 24.7285
Pt 12.9553 13.6031 22.7908
Pt 12.4182 16.219 21.7354
Pt 11.3036 18.6736 20.8261
Pt 12.0805 20.7107 19.3607
Pt 13.5375 13.5359 27.3143
Pt 10.758 14.8248 23.6681
Au 11.6979 17.2125 24.3572
Pt 11.1844 19.708 23.3976
Pt 12.4063 15.2766 29.1741
Au 11.7762 16.9217 27.2189
Pt 9.00065 18.0461 24.1007
Au 11.123 17.3599 30.1899
Pt 10.6187 18.9855 26.0684
Au 9.25349 17.1384 32.4932
Pt 25.6818 34.5508 33.8213
Au 23.5536 38.2564 37.2056
Au 25.7514 40.6631 33.0295
Au 19.7734 39.6779 33.0049
Pt 14.9935 38.4143 25.4228
Pt 27.3016 33.83 35.9735
Pt 23.0757 34.4591 34.3097
Au 19.0083 37.5288 34.7654
Pt 20.9971 38.7636 30.7824
Pt 18.9808 37.1512 27.3405
Pt 27.7947 36.8796 34.6737
Pt 23.9451 36.2888 32.3794
Au 24.1714 39.845 35.1249
Pt 23.4132 39.1017 29.3568
Pt 27.7153 37.2984 29.8603
Pt 25.8066 38.5307 28.1621
Au 23.0489 39.2606 32.634
Pt 29.368 38.7372 28.3951
Au 27.883 37.6722 26.5917
Pt 33.5635 38.0247 29.9163
Pt 20.392 17.324 35.9588
Au 19.5448 14.5696 35.6485
Pt 21.1712 9.94282 31.3756
Pt 18.5421 11.6956 29.0932
Pt 17.3893 11.0149 26.7532
Pt 26.8748 15.4466 36.0714
Pt 23.4977 13.0202 34.1947
Au 22.3249 12.4711 31.7206
Pt 21.2147 11.75 29.2653
Pt 20.0489 11.0988 26.8649
Pt 28.8784 17.3673 38.8489
Au 25.0974 12.6592 31.9191
Au 23.9413 11.932 29.4581
Pt 22.7442 11.2237 27.0244
Pt 27.7976 11.1656 34.1543
Au 28.8999 6.94315 27.1158
Au 25.5382 11.4337 27.2067
Au 26.7274 12.1516 29.6599
Au 33.4647 7.24376 25.1068
Pt 28.3095 11.6859 27.4466
Pt 23.6252 30.8835 11.697
Au 21.9994 34.086 15.5251
Pt 19.5635 34.5851 16.4848
Pt 18.0483 36.6164 17.5683
Pt 14.8612 36.0379 23.9793
Au 29.1679 32.8843 15.0165
Pt 22.903 36.4365 14.651
Au 20.2654 35.5432 19.1465
Pt 19.5994 38.2436 18.9535
Au 17.131 34.2453 23.7452
Pt 31.4605 34.0286 16.594
Pt 27.275 34.9542 17.2723
Pt 26.2154 40.1187 18.438
Au 19.573 35.6632 23.0673
Au 31.3663 33.4122 19.2208
Pt 27.4003 37.5101 18.3783
Au 26.1804 43.531 20.278
Pt 32.0431 37.5646 22.7776
Pt 27.452 41.2685 20.4368
Au 30.3786 37.4185 25.1917
Pt 24.354 15.1648 14.0226
Pt 23.4441 12.6491 14.1506
Pt 18.4034 12.259 15.6066
Au 16.9978 9.77113 15.7576
Au 17.4945 11.3238 22.2633
Pt 26.807 15.2554 13.1949
Pt 25.0024 13.6023 16.1078
Au 22.8288 13.115 17.6348
Pt 21.6428 12.2627 20.0977
Pt 20.249 11.3297 22.3241
Au 27.6131 13.8562 15.3843
Pt 26.8028 14.2921 18.0627
Au 24.3736 12.6901 20.2626
Pt 22.9434 11.5493 22.4347
Au 29.6099 13.8537 17.5402
Au 27.1246 12.9146 20.3649
Pt 25.6287 11.723 22.6321
Au 29.9072 13.2508 20.4251
Au 28.4538 12.0183 22.7752
Au 31.2451 12.4399 22.9487
Au 32.2988 12.3791 35.9791
Au 29.7141 32.49 31.9373
Pt 35.9883 12.6447 29.8323
Au 34.7962 31.2179 30.357
Au 27.5714 9.53187 36.2845
Pt 32.1556 34.717 36.9645
Pt 31.6494 12.4296 31.5649
Pt 30.7392 36.8805 29.8881
Pt 36.2406 20.461 35.5467
Au 31.251 28.4911 34.0015
Au 34.2147 11.7321 34.0439
Pt 31.0425 28.3086 38.663
Pt 29.4142 14.2646 27.7502
Pt 30.8587 34.9138 32.4427
Pt 24.5709 14.0016 36.3785
Au 31.6127 31.2751 33.7215
Au 31.7556 10.5808 33.7811
Pt 30.0341 35.5682 35.4593
Pt 29.8703 22.0682 40.425
Au 26.4711 28.8986 29.0132
Pt 33.5047 22.755 17.4586
Au 38.5712 31.7166 14.9008
Pt 33.0532 19.6905 18.8467
Au 38.9719 33.2898 17.3175
Pt 32.5886 17.4076 20.3406
Au 32.5936 34.9755 21.3243
Au 31.9525 14.9547 21.6145
Au 34.5664 36.0254 22.9924
Au 31.871 20.6778 16.4895
Au 35.9582 30.191 15.323
Pt 31.0949 17.9989 18.1366
Pt 35.1298 35.7837 20.0023
Pt 30.6591 15.7131 19.2772
Au 28.6529 34.0297 20.3343
Pt 30.3051 18.5494 15.7109
Au 35.5609 30.9021 12.6621
Pt 28.6768 16.2924 17.5573
Au 33.4478 31.8484 16.5333
Pt 28.7714 16.3991 14.9216
Pt 32.7961 35.0015 14.2286
Au 10.8001 20.3946 35.3117
Au 14.2841 24.5743 30.239
Pt 13.5762 16.6145 31.4015
Au 14.5843 31.2943 32.5984
Au 14.9222 14.7547 29.9151
Au 17.1299 32.8249 33.3211
Pt 16.1417 12.9555 28.2195
Au 16.9452 35.622 34.7237
Au 14.6593 18.9322 32.3838
Au 16.1236 37.8825 33.3397
Au 17.2082 15.9934 35.0428
Au 17.5545 31.0704 36.0965
Au 17.3292 13.6361 30.7476
Au 16.3524 33.6694 36.5076
Pt 19.9218 18.4857 38.4241
Pt 19.0175 30.3314 38.6596
Pt 19.6254 12.2249 31.5567
Au 13.5677 31.7801 37.6796
Pt 18.0189 18.4965 35.8175
Pt 21.6672 33.2022 36.4635
Pt 11.4933 19.8902 15.3639
Pt 13.8678 29.4266 13.3098
Pt 15.3467 16.3372 13.9916
Pt 15.477 35.5777 14.268
Pt 15.6752 15.801 18.6499
Au 9.40919 32.808 17.2602
Au 17.0264 13.8192 19.9785
Au 11.076 36.6931 20.3257
Au 17.1023 16.544 16.2708
Au 18.3671 31.8209 16.7012
Pt 19.3413 14.8035 15.6989
Pt 17.1344 33.7018 15.3259
Pt 19.9534 13.0435 17.833
Pt 15.6372 35.3635 16.9953
Au 18.6013 18.8295 16.448
Au 18.1618 30.5333 13.7012
Pt 19.9213 13.278 13.5279
Au 21.1674 31.489 16.2154
Pt 22.6493 17.0952 13.6096
Au 22.333 32.3863 13.5007
Pt 38.9283 26.1894 15.5531
Pt 40.8921 21.8091 20.436
Pt 41.358 21.865 23.2919
Pt 41.7097 23.7278 25.4053
Pt 40.1246 18.8327 26.8957
Pt 40.3537 29.4178 31.5194
Pt 36.9493 26.5519 31.2617
Au 34.8929 26.0549 29.5481
Au 10.894 17.4983 13.9191
Au 8.10075 23.0749 15.9287
Pt 8.63012 23.5433 20.6262
Pt 7.79545 23.6115 24.9355
Au 6.43067 24.896 29.3873
Pt 8.38817 23.5916 27.5969
Au 6.8982 22.2062 29.3519
Au 15.6054 20.2795 40.3256
Pt 14.4433 38.4712 22.8312
Au 23.4583 43.183 20.6916
Pt 21.8558 40.2469 20.2106
Au 23.4868 38.31 21.2261
Au 27.2835 37.4772 23.732
Pt 24.4673 37.2979 24.8193
Au 28.8528 42.9405 26.851
Au 31.9725 42.2047 20.2362
Au 16.047 5.82038 24.0339
Pt 20.3375 8.06869 24.4891
Au 21.8496 5.75322 24.4211
Pt 24.3531 8.9417 26.9979
Au 27.2042 7.34886 29.3185
Pt 25.9258 8.44942 24.7787
Pt 28.8181 8.74128 24.95
Au 32.1111 7.664 22.7453
Au 25.7575 16.6489 41.5853
Pt 32.2029 21.5285 38.9246
Au 22.7909 20.9386 42.7343
Pt 19.2066 23.1397 40.4312
Pt 21.5611 29.6719 39.3748
Au 38.2795 26.1271 37.9008
Au 35.0126 22.1638 39.8008
Pt 34.0661 33.0232 38.3401
Pt 28.2569 19.4757 10.5355
Pt 23.4977 20.5746 7.92312
Pt 22.3133 22.8975 8.62228
Au 22.652 27.1509 6.36971
Pt 26.4484 27.7614 8.55818
Pt 26.7571 30.7088 8.72081
Pt 24.488 32.0672 9.25281
Pt 24.3345 34.8808 9.9817
Au 41.4307 19.9812 31.3886
Pt 31.3952 18.9871 38.8652
Au 37.8139 18.2244 35.3586
Pt 29.5759 21.8269 37.6794
Au 30.3942 12.8935 38.0433
Pt 28.1349 17.834 41.3216
Au 34.2395 28.6165 28.4499
Au 43.2976 26.0716 29.7686
Pt 33.9222 24.3986 35.7649
Pt 27.2009 20.7603 37.8963
Pt 21.3584 23.3889 42.2332
Au 30.7276 17.7809 41.1524
Pt 37.4156 25.096 33.4363
Pt 37.4239 27.3223 35.5836
Au 28.3508 27.7761 43.197
Pt 36.2025 24.5164 38.6592
Au 31.7521 20.3975 41.3916
Pt 33.9125 29.6261 34.7373
Pt 35.8657 30.4482 32.8117
Au 38.4531 23.3072 37.4586
Au 38.9916 20.6088 36.0122
Pt 32.2229 26.05 39.8464
Pt 28.0584 23.7724 39.2887
Au 30.5605 29.617 42.7908
Pt 34.47 34.066 35.7435
Pt 34.405 26.2532 37.8967
Au 27.6964 30.7526 31.0522
Pt 35.9007 22.8899 16.3296
Au 33.9593 21.5929 14.8836
Pt 34.0718 20.3832 12.172
Pt 31.5709 19.6599 11.4689
Au 29.6118 19.7173 13.3297
Pt 29.9387 17.6125 11.325
Au 37.2586 27.1043 9.11075
Au 36.2278 23.0234 13.6743
Pt 33.6355 23.1752 12.7716
Pt 32.7281 22.0086 10.4177
Pt 29.9921 21.6589 11.1815
Au 24.9776 23.0965 8.14353
Pt 36.8939 27.3707 11.9885
Au 35.0965 25.5772 13.0648
Au 31.2383 24.0368 11.5473
Au 30.6853 23.1428 8.91179
Au 24.4699 22.0656 5.69983
Au 34.9946 28.8103 8.21259
Au 32.7997 28.4328 9.75302
Pt 28.9672 26.3073 9.42474
Pt 26.5238 25.1637 9.34624
Pt 31.141 30.819 10.004
Au 29.6455 30.546 7.36553
Pt 28.6588 29.0798 9.31439
Au 33.2417 32.8884 9.21755
Au 30.8013 32.8334 7.95544
Pt 26.6003 33.193 10.1063
Au 7.89631 16.9947 30.2199
Au 10.1214 24.4768 36.1639
Au 14.6793 17.9797 39.2819
Au 19.0578 14.591 39.463
Au 23.9638 24.3767 43.3382
Pt 24.5183 19.4969 37.7867
Pt 17.3344 18.6084 38.8287
Au 9.91671 30.0714 34.9319
Pt 15.7972 17.4039 36.8914
Au 21.1861 25.3742 43.865
Au 19.59 21.2999 42.6313
Pt 21.3337 21.4224 40.5157
Pt 11.3802 30.7269 32.7831
Pt 16.3119 24.4948 38.4177
Au 12.7933 24.3226 38.9046
Pt 18.9233 25.2516 38.899
Pt 19.9837 25.6896 41.2925
Pt 12.8659 27.4191 35.5974
Au 15.152 27.9266 41.349
Pt 16.7429 26.974 39.2883
Au 19.4145 29.7918 41.5743
Au 20.4896 32.2856 41.8471
Au 13.1923 27.8308 39.3265
Au 17.7548 27.2306 41.977
Pt 26.5012 26.4455 38.9963
Au 24.7385 35.3321 40.7193
Pt 23.8114 28.9779 41.6494
Au 13.1734 24.2938 10.6553
Pt 14.3936 23.6394 13.4116
Au 16.2437 18.8633 14.8064
Au 16.7127 18.3037 9.19922
Pt 21.0328 18.161 10.6707
Pt 23.6287 18.6978 9.90744
Pt 13.2621 24.4397 15.6545
Au 11.1801 22.6657 11.7839
Pt 17.4405 26.8224 11.6918
Au 19.6689 22.938 14.0943
Au 19.3043 17.1767 8.61903
Au 21.2571 19.0071 7.71227
Au 15.0953 28.3393 10.8867
Au 15.2081 25.891 9.51129
Pt 19.5767 24.924 12.2129
Pt 21.6303 23.0696 11.4071
Pt 21.5393 20.6384 9.9586
Au 16.4214 30.3753 9.43638
Au 19.5755 26.4457 9.93071
Au 20.0355 27.3406 7.46501
Pt 23.8428 24.391 10.2765
Au 18.1076 25.1105 7.72561
Au 17.3139 27.6929 9.02678
Pt 22.3792 30.5918 9.33383
Au 20.6228 32.2051 7.78547
Au 18.937 29.9058 8.31111
Pt 22.31 33.0152 10.5566
Au 31.1165 41.8005 31.0514
Au 39.829 35.5696 24.2845
Pt 37.6341 32.1702 21.5372
Au 43.3208 25.8597 20.5973
Pt 41.5637 27.772 19.8898
Pt 40.2224 27.153 17.6958
Au 40.951 31.705 32.9364
Au 36.5765 40.0945 23.7939
Pt 37.2853 35.2767 23.0117
Au 41.5828 26.9386 15.3566
Pt 42.2934 23.7472 21.6415
Pt 39.716 22.8377 18.2388
Pt 35.5671 33.4853 27.1333
Pt 34.6125 38.0077 27.4035
Pt 38.3357 33.017 23.9567
Pt 38.6494 29.7636 21.1665
Au 42.7901 26.2115 17.9256
Au 33.1117 33.2112 26.0598
Au 30.4472 33.2632 24.8356
Au 39.3164 36.1035 27.2597
Au 43.278 21.1498 21.4347
Pt 39.4086 31.5793 27.7573
Pt 38.1241 29.9467 23.8766
Au 32.8057 30.6856 27.5661
Pt 41.3785 25.1238 31.5096
Au 43.3743 27.7751 27.2683
Pt 33.2336 24.9454 31.3172
Pt 12.6455 36.5106 22.4439
Au 15.3002 41.2512 21.8496
Au 10.9195 34.7817 18.313
Au 11.5968 33.528 15.7775
Pt 14.3813 33.4382 15.4185
Pt 10.8279 30.8541 16.1919
Au 10.196 38.0001 25.9825
Pt 14.4302 33.7508 28.3016
Au 8.70808 34.6441 24.1692
Pt 9.99365 30.3053 20.7673
Au 8.73025 30.4395 18.3233
Pt 11.9143 25.3657 22.2302
Pt 15.8815 38.075 30.5469
Au 10.244 36.8101 23.5662
Au 10.4827 34.5183 22.0861
Pt 12.534 29.6049 20.6148
Pt 9.71804 23.8353 23.1217
Au 9.308 36.3424 28.0294