2057
Atoms. Timestep: 21006
Au 33.5116 32.9315 10.5078
Au 15.4352 9.82882 23.9879
Au 25.436 30.1347 7.71812
Au 26.1326 31.6235 10.245
Au 8.83178 24.0685 15.029
Pt 19.3873 24.2838 33.6522
Au 19.1841 26.0402 6.24916
Au 8.44015 29.9303 20.5113
Au 28.649 11.6295 13.0762
Au 25.187 25.5031 10.8594
Au 43.0784 22.8975 21.3072
Au 32.2442 27.2573 5.96017
Au 29.216 36.2034 9.14358
Au 35.9774 31.1066 12.6877
Au 16.1166 24.2846 11.704
Au 27.9053 40.3836 36.2059
Pt 19.3686 14.3778 15.2961
Au 17.174 34.4602 12.8467
Au 32.0136 24.276 6.1126
Pt 15.1855 32.0157 23.3617
Pt 39.2296 26.4391 20.4941
Au 12.9806 11.4897 27.9425
Au 22.3628 31.1027 16.4013
Au 16.1585 35.8963 26.1347
Au 17.632 14.7578 36.9641
Au 6.6403 25.2553 30.3509
Au 19.3547 38.7011 17.5697
Au 16.2179 12.4007 31.1075
Au 11.1276 27.4825 16.3016
Au 21.4849 30.3886 11.7465
Pt 30.3858 34.2379 29.3712
Au 24.1551 40.6159 17.7465
Au 14.442 16.4815 18.1317
Au 15.1543 27.4715 18.4972
Au 29.4871 12.5452 10.3719
Au 14.4348 36.4204 17.3268
Au 27.4415 13.5809 8.80955
Au 18.8216 28.0527 10.2917
Au 28.8827 33.1276 12.8388
Au 24.2531 11.6916 37.8047
Pt 29.9549 28.8605 34.2695
Au 24.9432 43.0102 27.2075
Au 27.1644 11.9773 33.6923
Pt 33.0513 29.5583 32.038
Au 24.4804 20.6435 4.10319
Au 21.2432 40.9146 25.5152
Au 21.6673 31.8893 19.2615
Au 17.4939 33.92 20.0473
Pt 33.3373 38.7989 28.779
Au 32.1923 7.46319 21.1041
Pt 15.9824 22.1516 22.632
Au 20.3745 41.7432 20.8613
Pt 26.9395 33.3954 26.3272
Pt 11.0498 32.7495 28.4642
Au 20.4458 28.161 5.04435
Pt 28.1782 26.9294 25.0274
Au 17.4233 37.2112 11.9464
Au 33.3721 30.7388 12.2625
Au 33.4865 27.944 8.36757
Pt 23.439 29.818 18.5631
Au 35.932 17.0356 13.9308
Au 9.68669 34.712 26.9883
Au 24.2458 23.0309 8.63701
Au 26.6952 26.9518 9.15516
Pt 11.4862 27.1315 32.5715
Pt 25.0241 33.7352 34.72
Pt 10.827 17.515 26.0387
Au 21.4166 9.04475 34.8697
Au 26.977 20.322 5.08066
Au 22.2319 41.2046 22.8647
Au 39.3078 14.4299 26.1906
Au 24.3195 30.4196 11.9989
Au 17.6713 24.0303 16.2999
Au 23.1743 33.7691 5.80156
Au 26.6365 7.05695 21.0653
Au 38.5987 13.8144 16.2419
Au 15.8668 40.5801 30.1165
Au 23.2056 28.3312 4.93829
Au 22.2436 34.3965 18.3064
Au 25.4805 13.0778 35.4842
Au 25.871 32.3548 5.60551
Pt 29.2892 37.1326 28.7529
Pt 32.4485 22.6831 33.619
Au 9.50946 35.5304 17.6202
Au 22.6367 29.0299 7.56868
Au 31.2573 16.9769 9.03659
Au 23.762 23.0883 11.3311
Au 19.0179 31.2171 20.0324
Au 39.294 26.2113 15.837
Au 13.1794 32.1515 9.06644
Pt 17.5265 24.5639 35.5402
Au 14.4685 14.267 14.9838
Au 28.475 25.0295 11.0101
Au 19.8114 42.2181 23.5733
Au 16.4263 23.0454 8.96255
Pt 22.1615 22.5205 18.0554
Pt 18.0047 27.5224 26.7224
Au 21.2413 23.6172 10.3867
Au 25.6884 40.3643 15.3074
Au 23.0174 34.7228 9.05098
Au 24.5932 32.7474 7.93615
Au 12.0772 13.2698 32.7636
Au 12.615 24.4681 18.1987
Pt 36.9593 31.8742 31.3856
Au 33.4189 23.5479 8.64765
Au 18.0407 41.0844 21.926
Pt 32.4476 34.7559 31.0099
Au 38.5865 31.804 16.4764
Au 9.71609 21.7898 13.6936
Au 21.7039 12.4025 31.358
Au 26.4433 22.4364 6.80194
Au 16.0271 27.796 10.0847
Au 16.2247 20.3336 33.6213
Pt 28.9989 25.0592 16.2704
Au 7.75131 21.4779 21.2952
Au 20.2233 34.5975 8.67251
Pt 14.4089 23.6924 27.7426
Au 25.0372 9.11516 16.7819
Au 14.7813 30.1653 9.91779
Pt 13.5663 36.5628 25.5022
Au 11.4947 33.2527 10.9933
Au 22.067 26.0339 16.4545
Au 20.6112 21.6454 12.4488
Au 8.75803 16.99 24.3335
Au 21.1128 37.0786 9.35957
Au 20.2945 30.5823 9.14971
Au 43.605 21.1346 25.8927
Au 10.6078 33.5249 34.5768
Au 15.7933 19.4182 13.9689
Au 8.98677 35.8584 24.6015
Pt 31.8779 23.7558 40.4462
Au 21.7799 32.4724 7.73074
Au 21.3331 24.0138 5.00344
Au 14.5003 22.5514 19.9138
Pt 11.5225 34.856 24.736
Pt 32.8789 28.5457 26.3213
Pt 31.3783 21.8568 38.6916
Pt 29.3874 13.8523 19.7427
Au 19.5949 41.6438 27.4376
Au 11.4293 34.8758 20.8346
Au 14.2004 14.4968 31.7054
Au 15.8492 35.4436 15.0865
Au 13.9592 17.9025 9.75849
Au 30.2389 31.1268 13.9901
Au 24.8712 35.4662 7.06154
Au 17.0676 37.3831 16.8248
Au 22.1402 32.6932 13.3124
Pt 28.3721 19.973 10.7125
Au 9.57895 24.22 22.0444
Pt 24.8249 23.6614 18.8281
Pt 34.5907 28.2109 30.3983
Pt 33.256 30.1916 37.0672
Au 30.5227 19.571 8.78966
Pt 14.6115 20.6849 26.9599
Au 36.4621 36.5653 19.0748
Pt 24.0489 30.5298 31.0592
Pt 26.8315 26.1387 22.3359
Au 18.2506 21.6088 39.9438
Au 11.0158 27.7552 11.7732
Pt 32.4494 32.0727 30.6536
Pt 34.3359 27.805 37.436
Au 24.0258 38.2231 15.6667
Au 14.6219 38.9091 16.3919
Pt 27.1234 10.3665 17.9375
Pt 26.8426 20.6676 37.5769
Pt 29.4559 32.8229 27.1189
Pt 31.0668 21.0554 10.9891
Au 6.5235 28.0588 20.9824
Au 15.1332 27.9374 14.4873
Pt 34.5681 29.2355 16.5906
Au 18.5961 17.3029 37.7218
Au 28.4372 38.4972 10.5954
Au 11.8249 30.0256 10.1944
Pt 25.76 29.2268 14.5666
Au 17.217 34.7571 17.4626
Au 39.2658 28.8567 15.8215
Au 24.1472 40.1617 33.3444
Pt 34.1713 10.8578 19.2958
Au 17.6983 8.74665 32.7846
Au 18.9018 36.5342 19.2742
Au 24.5746 8.69591 19.6295
Au 18.6823 30.4696 11.7131
Au 15.9165 32.571 8.65541
Au 16.2251 29.4173 12.3684
Au 20.5175 17.0316 34.3372
Pt 26.7443 22.8803 35.996
Pt 38.1907 19.175 24.5542
Pt 20.1579 24.2802 17.4535
Pt 38.8266 15.9065 18.1484
Pt 24.4331 24.3995 16.404
Au 20.6703 35.2674 13.8824
Au 16.3347 8.1656 30.4859
Pt 36.1707 14.9762 27.2833
Au 10.5533 31.0992 12.2725
Pt 30.0734 15.1308 37.3658
Pt 11.6313 30.2042 29.2562
Pt 18.8844 21.5879 33.2295
Au 20.3014 34.3047 20.4059
Pt 24.5852 15.507 31.4815
Pt 17.5909 27.1464 36.1356
Pt 20.0561 24.9009 36.1633
Pt 24.9975 16.8517 24.323
Pt 20.4324 27.4838 36.7828
Pt 31.2029 26.4193 40.817
Au 6.16163 30.6499 21.7929
Pt 23.8249 13.5795 17.9484
Pt 17.3859 30.5792 24.3934
Pt 28.1364 18.173 14.7472
Pt 31.0222 12.0792 21.0078
Au 9.70715 26.7449 14.0708
Au 10.7644 33.0424 16.562
Au 17.6188 25.5556 9.7228
Au 14.1203 35.7105 30.8164
Au 34.4024 28.6006 10.8721
Au 29.1524 25.8986 8.60195
Au 10.8338 37.1574 19.4389
Au 22.2148 42.8112 27.5049
Au 19.8836 35.813 16.8187
Pt 34.2452 17.7119 33.3459
Au 16.7276 29.9479 21.2839
Au 30.4442 27.078 3.62815
Au 26.5754 28.9599 11.3529
Au 13.4389 16.8997 15.5804
Au 14.5389 12.1924 19.7294
Au 17.4076 26.8494 12.6844
Pt 16.9901 21.6081 31.1757
Au 19.4524 33.1827 17.9803
Au 30.4626 28.2848 8.06136
Au 14.8847 38.4586 21.1822
Au 20.4046 7.80697 27.9983
Au 24.0564 12.7298 32.8641
Au 10.8079 28.7939 21.4587
Pt 13.2595 27.1663 26.075
Au 26.9906 11.8172 11.0071
Au 25.6155 38.5996 10.9571
Au 20.3361 19.0471 8.72389
Pt 37.266 20.3547 27.4248
Au 13.3687 34.276 15.7403
Au 13.2509 16.2419 36.6628
Pt 31.2322 33.6413 23.3679
Au 23.4871 31.0205 5.8426
Au 7.51256 33.677 25.5287
Pt 16.5901 24.5628 23.578
Au 18.3727 36.5373 14.4835
Au 10.6797 12.9978 27.5313
Au 40.6974 24.437 33.9986
Au 35.976 31.5218 17.1555
Au 10.9138 35.4708 15.2366
Au 27.6009 42.4264 26.6222
Au 42.2604 20.8691 19.0135
Au 31.7371 27.4394 10.3625
Au 26.0843 38.629 17.467
Au 18.937 7.73783 30.2736
Au 34.2805 31.3831 14.8596
Au 20.6994 28.5707 15.6856
Pt 30.5343 35.3674 21.5799
Au 31.2824 25.2162 12.0173
Au 28.012 8.44755 16.1252
Pt 14.8704 21.5283 29.4109
Au 17.2064 15.4211 39.5524
Au 13.6853 28.3578 20.9596
Au 23.1444 22.8107 41.8195
Pt 31.2868 25.351 29.1236
Au 23.6821 12.7809 40.3133
Pt 32.5921 16.7315 16.1053
Au 10.729 19.3084 31.8698
Pt 22.2999 20.3165 24.2898
Au 20.1534 9.54467 37.3152
Au 23.2673 25.8885 8.8338
Au 32.3475 32.4961 8.02558
Au 15.8054 32.7126 16.0393
Au 24.2096 39.6057 13.1694
Au 13.5596 38.8396 23.8614
Au 24.8882 27.5028 7.05642
Au 22.4814 41.9733 31.8464
Pt 23.1878 37.4525 32.8733
Au 16.2562 21.9904 17.643
Au 21.3925 39.7688 13.2626
Pt 28.0116 16.4503 19.4585
Pt 31.0627 21.0213 28.6634
Pt 27.005 12.5011 20.1463
Au 36.5729 22.5339 14.8345
Pt 29.1852 16.1035 13.243
Au 22.0928 20.8332 10.3198
Au 20.7314 23.9317 43.0288
Pt 40.1586 25.8117 22.8719
Au 20.3269 7.94634 32.5692
Pt 28.8761 28.2681 22.7905
Pt 32.5871 23.0649 29.5464
Au 39.7608 21.784 33.0349
Au 19.9146 36.9747 21.9322
Pt 29.5991 32.9929 18.2035
Pt 34.8798 26.7506 26.4935
Au 20.3373 13.3583 10.2356
Au 23.2168 30.9024 9.52115
Au 6.9892 23.4299 23.0852
Au 14.4017 30.6406 14.416
Pt 17.9215 15.4781 13.3632
Pt 22.1981 36.296 36.5333
Pt 10.054 32.6646 25.2417
Pt 24.7937 37.4154 23.6288
Pt 23.5594 12.5585 23.1956
Pt 20.1752 21.6524 23.0883
Pt 30.2394 15.5091 15.4732
Pt 30.8556 20.8865 34.6072
Pt 23.9821 16.1792 17.2894
Au 33.4783 36.9587 34.3304
Pt 22.0861 25.4055 41.0204
Au 19.7361 22.2918 15.1151
Pt 21.7592 40.3892 28.806
Pt 35.4794 25.469 17.5517
Au 21.1267 16.8941 6.88357
Au 32.2236 20.6405 42.2642
Pt 37.3893 16.4103 25.2312
Pt 26.2882 26.0595 27.0114
Pt 36.1379 25.9711 20.2873
Au 18.5923 39.1511 13.8219
Au 20.173 30.8539 14.2664
Pt 35.8874 27.6195 22.4976
Pt 14.855 22.562 25.05
Au 16.9903 13.1788 14.4208
Au 16.0421 22.4067 14.2409
Au 9.29985 19.157 14.3571
Pt 16.9856 24.1345 39.7046
Pt 22.18 27.7731 33.453
Au 23.4583 42.5792 24.9332
Au 37.0743 34.2417 17.4504
Pt 29.5451 20.0772 13.0561
Pt 25.2005 19.5001 21.1371
Pt 21.9342 20.0366 29.9141
Au 29.1738 7.8043 25.6099
Au 33.2115 7.75328 23.6305
Au 24.0311 34.7113 13.8134
Au 23.9952 5.52862 31.3009
Pt 23.4171 15.7871 29.0312
Au 32.9568 37.493 31.6351
Pt 20.4847 31.9559 36.7008
Au 34.6747 14.9933 12.5403
Au 17.1711 12.2652 11.877
Au 15.1544 10.3177 29.425
Pt 14.5764 25.0966 25.3071
Pt 21.7051 15.4531 31.0642
Au 20.3842 25.8689 8.90788
Pt 25.0329 18.169 13.2955
Pt 36.3248 16.3802 29.5847
Pt 32.7386 21.7529 36.3499
Au 23.1598 30.1416 43.0536
Au 30.4037 24.4395 4.00228
Au 15.6843 30.0936 7.24366
Au 15.5263 14.2354 12.3897
Pt 31.262 24.3823 31.5409
Au 25.7164 35.9249 16.0403
Au 27.2051 39.4298 13.0149
Pt 40.8253 25.5535 29.7385
Au 36.869 9.54972 27.1432
Au 7.25606 34.4812 22.8757
Au 35.9437 12.6174 15.922
Au 22.3169 18.7473 43.8901
Au 10.7157 24.4515 13.0763
Pt 37.9989 24.163 19.7177
Au 26.6075 37.127 8.8735
Au 22.8073 7.10096 33.1371
Au 31.7756 34.9606 9.4018
Au 30.9582 33.0801 39.9506
Pt 17.5802 26.1157 19.2029
Au 14.7507 27.5255 7.61199
Pt 30.6145 12.9635 27.2693
Pt 27.976 31.4724 31.6873
Au 15.8443 25.2235 14.4272
Pt 24.5814 39.8123 22.4333
Au 23.8791 37.3404 8.83938
Au 38.4322 9.69195 25.0224
Au 15.7663 38.6642 25.737
Pt 40.119 27.5294 27.8242
Pt 17.3626 26.5101 33.3299
Au 22.8895 9.44251 37.1518
Au 22.7782 29.6155 14.0471
Au 14.5159 17.8336 34.9124
Pt 23.5553 36.1125 28.3841
Pt 14.5492 22.2284 32.1009
Au 9.51699 22.8442 19.6656
Au 11.2019 37.6518 24.6676
Au 22.1724 38.6428 17.7869
Au 21.616 28.1514 10.149
Au 17.3835 18.9251 35.7616
Pt 31.3912 24.1612 37.6583
Pt 26.9155 10.1105 26.8824
Au 10.5701 21.2611 21.7899
Pt 31.1941 28.6477 36.5791
Au 31.862 33.0347 12.7448
Au 17.5494 28.9952 18.6173
Pt 22.0279 35.3347 22.391
Au 42.2968 23.5732 18.5815
Au 30.4558 39.5696 36.0177
Pt 19.15 26.3649 24.6989
Pt 14.3519 34.165 24.7801
Au 28.0134 25.554 3.87847
Au 8.38677 28.8006 23.0837
Pt 24.3931 34.9349 23.2245
Pt 30.0796 20.3295 15.5176
Au 13.4496 11.6589 31.0793
Pt 32.8922 34.1691 21.0012
Pt 19.3854 30.1483 22.5002
Pt 26.414 21.7089 10.4755
Au 7.23346 26.4491 18.8379
Au 21.7075 23.6462 7.61932
Au 27.9415 35.4974 14.0893
Au 30.8192 32.5354 10.3374
Pt 26.6083 38.0611 21.8491
Pt 27.9098 30.9441 15.5568
Pt 30.2401 30.0951 27.6026
Au 11.0914 30.3002 16.5605
Au 18.5042 22.996 10.8344
Pt 32.8292 29.8257 28.6596
Au 31.4204 21.9664 7.71028
Pt 25.2561 38.3528 26.2433
Au 16.516 37.8665 33.9789
Pt 22.3138 12.0938 19.4697
Pt 18.9498 21.0717 27.1323
Pt 23.3192 15.6917 22.6298
Pt 26.0633 28.5557 22.1484
Au 18.1419 40.5484 24.9626
Pt 34.6335 13.4845 23.2838
Pt 15.2053 13.8042 21.8446
Au 23.9236 33.1396 11.2267
Au 18.0585 20.1296 10.2473
Pt 22.7657 18.444 39.2447
Au 29.371 23.639 6.96356
Au 8.67121 28.9984 15.8988
Pt 33.3831 12.02 28.4304
Au 29.3663 33.505 15.5913
Pt 13.4904 15.6964 29.4348
Pt 31.0395 22.5411 13.4732
Pt 32.8684 25.2906 33.4644
Au 39.1841 21.5673 14.3956
Pt 32.0164 16.6189 26.0769
Au 30.4756 38.8902 15.2604
Pt 36.6422 22.3265 31.787
Au 32.9695 27.3798 12.8173
Pt 34.1264 20.5443 11.7382
Pt 29.4309 25.4672 22.9501
Au 17.4614 35.953 21.8332
Pt 31.643 16.0273 11.7841
Pt 22.4687 17.9365 15.4109
Pt 25.8329 24.3153 37.9924
Pt 22.0477 23.4705 33.4488
Pt 21.3902 20.1029 18.7959
Pt 25.7711 22.2306 20.8157
Pt 21.3075 14.2983 28.6764
Au 21.9654 12.0665 12.1597
Au 43.7848 19.0841 24.1193
Au 18.1766 32.0845 41.0872
Au 12.3459 26.2258 35.1179
Au 9.68657 25.9736 34.2029
Pt 27.24 18.2557 39.2272
Pt 14.3251 32.9662 31.9124
Au 16.5718 34.9921 10.2138
Pt 21.2921 20.4558 32.8024
Au 21.232 32.8509 10.5478
Au 28.352 40.5856 15.3135
Au 28.8115 30.8207 11.0893
Pt 22.6726 12.027 25.648
Au 11.7743 30.1025 19.2187
Pt 20.2819 32.1798 39.4315
Au 16.6457 15.4516 16.3232
Pt 30.6294 30.5868 32.1821
Pt 24.1242 15.1671 34.1159
Pt 32.0163 14.3229 24.8383
Au 6.21334 31.4471 26.4069
Au 38.5627 16.8585 14.0184
Au 27.6727 27.946 6.65168
Au 16.0655 29.8096 16.4558
Pt 30.8642 18.8018 30.8877
Au 23.006 16.4364 36.4975
Pt 29.5195 18.6109 40.6072
Au 26.5977 7.87423 24.8825
Pt 13.9971 28.789 28.2923
Au 25.3897 11.6135 8.92481
Pt 35.1982 11.1074 22.0337
Pt 19.3895 15.1777 24.9481
Au 26.5986 15.7186 6.84317
Au 22.5722 40.4703 15.5615
Pt 31.1505 12.6413 29.7887
Pt 32.9006 31.737 22.9961
Pt 15.3913 19.5046 31.1701
Pt 23.7 30.9594 21.1725
Au 22.2244 36.4885 39.3399
Pt 20.487 27.6938 22.7938
Pt 10.6062 19.2441 23.9715
Au 11.1576 17.1835 13.5668
Pt 35.2709 35.1758 21.314
Pt 25.4686 34.5451 19.1264
Pt 18.3087 31.1129 38.1867
Au 33.8175 25.6089 10.5113
Au 7.755 23.9296 17.6805
Au 11.6778 22.3693 11.7678
Au 13.1214 29.6643 7.87549
Au 24.6082 42.5349 22.4405
Au 10.5377 31.6438 21.4272
Pt 28.0149 16.5142 28.0753
Au 13.467 13.4144 35.7512
Pt 30.7426 10.523 16.7605
Pt 31.497 20.1579 17.9075
Au 37.4938 9.88842 22.5718
Pt 27.9408 12.7737 26.626
Au 19.6723 25.6954 11.6392
Pt 21.8198 20.72 37.1334
Au 28.5847 41.7926 19.9985
Pt 24.0584 19.2108 27.7745
Pt 26.5632 18.7035 23.3602
Au 12.0664 13.7121 22.3106
Au 41.2062 18.498 28.8674
Au 21.9268 26.382 6.46675
Pt 33.1086 22.3343 27.1421
Pt 22.9905 18.4258 8.15064
Au 43.2176 24.3126 29.7803
Pt 32.892 22.8268 21.2795
Pt 32.2154 28.4517 39.0178
Au 6.35132 20.9321 23.7405
Au 16.8416 35.702 38.0104
Pt 33.9374 17.5969 30.6512
Au 15.0038 20.2352 36.2323
Pt 36.556 23.7989 29.3144
Au 26.3149 13.3343 31.3218
Au 20.8577 11.8885 34.7212
Au 11.7533 14.9685 15.2259
Au 25.5428 41.5051 20.0025
Pt 28.8594 19.5293 35.8682
Pt 28.2674 30.1321 17.9585
Pt 27.4576 15.3946 38.0742
Au 32.5059 18.5944 11.0731
Pt 36.5483 23.4766 24.1357
Au 35.0612 20.9425 16.4493
Pt 19.7692 17.4957 26.4267
Au 25.5487 17.993 5.26583
Au 24.9575 17.0652 38.3758
Pt 28.3469 17.8652 9.17604
Au 34.555 33.8589 16.4619
Pt 21.3345 32.3464 34.2323
Au 27.1582 22.9375 17.2336
Pt 26.6783 25.6921 17.5061
Pt 24.5054 21.9939 37.3354
Au 5.62934 27.1236 25.121
Au 15.7644 18.3162 16.5806
Pt 35.9832 34.4296 28.3261
Au 29.9361 33.7724 7.75759
Au 20.3524 29.742 18.1516
Au 10.7646 15.6888 28.4139
Pt 20.6135 28.2294 31.4257
Au 37.3891 19.5179 14.8798
Pt 12.8983 23.2151 30.1742
Au 19.757 22.0675 6.11464
Pt 27.4345 26.5227 38.2963
Au 28.6017 10.6906 35.7715
Pt 19.7221 29.182 25.1972
Au 11.7288 15.7247 17.8536
Au 26.8125 31.9867 42.0393
Au 18.3729 36.8551 9.30039
Au 17.5383 38.5333 30.0467
Pt 20.2373 16.8085 14.3141
Pt 28.3639 22.2577 14.5573
Au 42.076 26.1383 19.6863
Pt 32.1399 37.593 26.481
Pt 26.9481 20.2075 13.067
Au 17.6851 20.483 15.7688
Pt 40.0599 25.1349 18.2399
Pt 26.0321 27.5341 41.8213
Pt 35.5461 22.3435 36.825
Au 16.2637 27.2832 21.1456
Pt 19.8735 19.5817 24.8649
Au 14.4413 20.7094 16.0146
Au 31.5716 7.0752 18.56
Au 21.7623 36.6632 19.7504
Pt 20.4098 27.3306 40.0945
Pt 16.0705 22.0745 38.0366
Pt 27.6875 18.3473 17.5527
Pt 19.0223 15.4048 19.7839
Au 37.6183 37.374 30.687
Au 29.0308 27.7659 10.8254
Pt 18.5342 28.4412 38.4273
Pt 25.6204 32.8952 30.9764
Au 41.1785 32.9831 30.2528
Pt 27.6999 23.5441 22.294
Pt 15.6594 24.6194 18.1978
Pt 28.361 31.6856 20.1978
Pt 30.6855 31.2319 16.6165
Au 30.8098 22.0865 5.06899
Au 14.7743 33.3289 13.5054
Pt 23.4521 28.5245 16.3667
Au 22.8184 13.6741 35.9358
Pt 27.2847 15.8239 30.8775
Pt 18.9145 15.1045 27.5714
Au 17.2454 10.2578 37.3505
Pt 35.2795 29.2007 27.7279
Pt 24.2575 29.9659 38.3659
Pt 17.7667 26.5856 40.6303
Au 12.2763 27.2883 18.7959
Pt 20.7309 18.1612 31.4055
Au 20.2043 37.6292 12.122
Au 27.1947 12.4277 37.6364
Pt 28.6365 17.5042 21.8623
Pt 30.6987 32.7562 20.77
Au 32.3718 35.6734 16.7065
Pt 9.03843 24.4152 24.6351
Au 25.6913 26.7776 4.5381
Pt 34.841 17.2385 35.953
Au 17.2116 11.6219 19.0346
Au 26.8133 31.2794 13.0584
Pt 35.3037 19.8143 36.5234
Pt 19.2345 36.583 29.7732
Pt 26.8821 40.904 22.3238
Au 15.293 32.161 20.7268
Au 38.4325 11.894 26.6484
Au 8.71542 35.3202 20.3583
Pt 24.4814 18.0273 41.3844
Au 12.7586 32.5852 19.8595
Au 41.9452 25.4713 25.1202
Au 13.1205 27.6318 9.79986
Pt 23.6908 40.5833 26.8163
Pt 34.2182 18.1993 25.582
Au 30.787 9.89601 23.7325
Au 27.6662 27.3212 15.3933
Pt 35.8995 18.077 23.6201
Au 22.7828 10.7393 17.0782
Au 35.953 19.7581 10.0385
Au 20.427 39.1242 20.1484
Pt 24.4346 21.7893 16.8293
Au 29.3866 37.6362 13.0241
Au 11.9011 37.3923 16.9243
Au 22.1312 36.0556 6.91042
Pt 35.947 19.0884 29.573
Au 9.53485 28.7903 33.4709
Pt 36.7602 14.3274 18.1809
Pt 37.4442 27.5392 27.1822
Au 12.3882 17.3855 20.0079
Au 19.4004 26.0674 14.8637
Pt 25.9789 14.9457 18.9268
Pt 31.8504 12.3883 18.6068
Pt 28.365 11.3414 15.8379
Pt 37.0091 30.132 22.3853
Pt 29.8832 16.2538 30.2954
Au 19.7607 41.5752 32.2379
Pt 18.4384 25.829 22.0618
Pt 21.3913 13.8032 24.0022
Pt 21.5799 29.4336 20.8582
Pt 28.5589 16.6566 35.404
Au 28.0559 6.21012 23.1893
Pt 20.4268 26.3304 27.1645
Au 16.5385 30.0098 40.0127
Pt 17.8302 28.2111 23.1642
Pt 22.8282 17.1095 32.9251
Pt 26.5981 22.1253 29.4838
Pt 29.7726 22.7811 32.9367
Au 14.7568 34.0509 37.1763
Pt 24.3289 33.7568 25.5901
Pt 17.0885 24.726 26.1995
Pt 28.2579 28.1433 27.3401
Au 17.473 39.9944 32.3287
Pt 24.7294 37.3403 30.7769
Pt 27.4593 39.4511 19.8086
Pt 25.7487 31.5409 33.331
Au 31.8496 17.8017 41.9006
Pt 13.2078 25.4628 31.3244
Pt 19.5305 28.2435 28.7656
Au 33.1443 8.81328 16.9039
Pt 21.4535 14.8652 18.7757
Au 12.5852 18.7776 17.6227
Pt 19.878 12.8674 19.9048
Pt 17.4609 19.2516 25.7392
Pt 20.9602 11.624 22.1387
Pt 26.5643 15.9592 33.5055
Pt 25.6876 14.4244 16.0561
Pt 24.4482 20.4245 9.25048
Au 12.1619 38.4213 21.4568
Au 31.3306 11.2586 12.4062
Au 29.1197 15.6133 7.86834
Pt 29.9764 12.3837 24.6549
Au 35.1419 8.43563 21.904
Pt 17.0303 15.9467 21.4127
Pt 28.8372 20.8446 30.2916
Pt 24.0302 16.1835 9.27608
Au 21.9665 35.3854 11.5006
Au 29.1074 41.8199 28.8482
Au 41.5864 27.9497 23.717
Au 25.3905 9.94472 33.0608
Au 31.1176 35.3371 14.0673
Pt 21.8223 30.1668 23.6059
Pt 32.2067 26.9843 31.3518
Pt 37.6913 29.1105 24.9382
Pt 30.334 35.5669 18.7949
Pt 34.3053 22.2796 23.3526
Au 23.3081 23.0373 3.39592
Pt 33.6153 26.9115 24.0918
Au 15.318 20.6119 8.96374
Au 20.0383 39.508 23.0866
Au 29.1589 24.6843 13.6144
Au 6.78744 30.7427 29.1329
Pt 34.8068 33.4228 30.5196
Au 36.6415 32.9303 14.8328
Pt 31.3036 10.165 28.2881
Pt 33.8765 20.7436 38.6179
Au 10.0901 36.7777 22.2788
Au 14.8097 11.5441 37.2591
Au 37.7879 29.5166 17.909
Au 11.4144 36.7242 27.2916
Au 8.38827 19.0593 17.1037
Au 6.6382 33.3437 28.323
Pt 8.55001 30.0409 25.5645
Pt 20.3367 32.1161 29.8028
Au 6.36783 31.3546 19.1139
Au 14.0688 25.5408 20.2669
Au 10.0474 33.6488 13.3761
Pt 13.3625 31.4807 27.5903
Pt 29.0005 25.5549 27.603
Au 30.2748 41.494 26.3488
Pt 15.1586 20.0363 24.3943
Au 33.5811 15.6927 10.0052
Pt 10.299 19.7778 28.9709
Au 22.1039 10.5134 39.5029
Au 12.8552 36.2028 22.8339
Au 26.6948 24.666 14.8924
Au 9.27389 31.4068 14.7363
Au 12.5153 28.93 34.4625
Pt 38.296 18.2902 17.1106
Au 13.3495 38.6893 18.8369
Au 30.7449 23.6905 9.79704
Au 40.2796 18.3948 31.6033
Au 10.2824 18.7018 21.1625
Au 26.2526 33.9054 12.3728
Au 27.0954 25.233 6.47747
Au 39.1982 28.1731 36.8896
Au 25.2882 30.8989 16.6433
Au 7.5847 21.3196 18.5081
Pt 39.5034 19.8934 18.9716
Pt 33.4057 15.5529 34.5801
Pt 31.7878 22.9823 24.8961
Au 12.5084 34.7896 13.0333
Pt 34.5639 19.9902 27.4695
Au 37.443 17.896 36.4361
Pt 24.2951 36.3857 21.0017
Pt 24.9538 30.0143 41.0571
Au 38.9674 16.1822 30.7267
Pt 28.327 39.469 29.6704
Au 26.8137 7.64028 18.4683
Pt 19.6989 16.4486 29.5874
Pt 15.7729 31.0102 28.5277
Au 18.7118 9.86636 35.0763
Au 15.4469 36.8494 23.48
Pt 27.9105 21.4762 34.2386
Pt 30.0422 14.0374 22.5842
Pt 27.6418 30.6915 27.0684
Pt 15.744 19.1683 11.2946
Pt 17.8678 18.3503 30.6538
Pt 27.5532 19.221 20.2162
Pt 20.2945 22.3672 35.4587
Au 9.74151 17.3511 18.8209
Pt 19.4513 21.5895 17.7498
Pt 18.9763 35.5212 25.4814
Au 15.3338 25.0663 41.6062
Pt 12.4453 20.9217 25.216
Au 26.4527 16.273 43.4062
Pt 20.3836 34.6338 35.5857
Au 18.5822 31.014 16.4414
Pt 27.8047 35.0401 17.4902
Au 19.5589 26.4368 42.6366
Au 27.7398 36.2833 39.762
Au 26.8642 24.0283 9.02763
Pt 18.5552 33.7421 37.3495
Pt 27.4728 37.0589 30.8786
Pt 27.0641 24.9788 29.4631
Au 18.8074 34.5292 39.914
Pt 16.3452 28.7131 31.7272
Pt 29.2837 30.5399 36.373
Pt 17.5483 21.8786 24.8596
Pt 25.0522 33.0879 28.2305
Au 32.3314 13.5343 36.368
Pt 34.3323 29.6987 22.0713
Pt 29.4949 26.589 35.7822
Pt 29.1194 26.9656 29.7651
Au 17.8701 14.5457 10.7376
Pt 28.7193 27.417 18.0496
Au 33.038 40.321 31.2137
Pt 36.3978 31.1478 26.29
Pt 31.4059 16.8998 39.1477
Au 11.1821 19.7732 12.439
Pt 14.8002 15.7502 25.2683
Pt 22.9357 28.2935 36.0426
Pt 22.1275 23.4324 15.7039
Pt 29.7563 34.2325 35.2307
Pt 26.6841 35.5496 24.5301
Au 17.9434 16.468 34.8868
Pt 29.3251 8.83777 18.537
Pt 33.3388 17.4173 13.5384
Pt 28.6775 11.613 22.0729
Au 16.1985 32.1393 11.3829
Au 8.57638 16.6303 21.5211
Pt 24.2995 26.6209 18.1452
Pt 38.1928 17.2668 22.5731
Au 42.7249 25.5071 22.2972
Au 10.2479 22.9485 17.0945
Au 18.8874 13.8839 34.5251
Au 24.3138 6.44433 28.7477
Pt 34.6274 15.5344 25.2855
Pt 27.5871 27.1745 33.7333
Au 16.1213 39.2349 18.689
Pt 30.9098 22.359 19.3676
Pt 26.0684 30.1589 19.7407
Pt 25.7909 35.228 29.6201
Au 26.9708 26.5768 12.8058
Pt 27.6358 33.5408 33.3928
Au 27.6683 38.0157 15.3483
Pt 8.5694 24.5196 27.2101
Au 20.0447 28.3031 7.6945
Pt 33.0607 25.9005 38.9739
Pt 21.8318 27.5991 18.697
Pt 22.2445 31.7643 25.6826
Au 25.6714 37.2097 13.5162
Au 21.1718 33.3883 15.8124
Pt 9.04954 24.3615 29.9819
Au 29.7482 36.3317 16.1018
Pt 35.9009 29.7685 36.4745
Pt 25.2158 22.2731 33.2547
Au 19.4473 27.0021 17.5411
Pt 16.3087 11.1734 21.5831
Pt 10.9814 30.635 26.7193
Pt 27.3778 13.1171 17.648
Au 38.6781 11.4473 20.685
Au 24.2583 8.37367 34.9885
Pt 41.0776 18.831 23.0241
Pt 20.855 22.21 25.6988
Au 12.5036 19.2962 14.7316
Pt 22.0603 26.5879 21.0978
Pt 29.1449 15.5234 10.5679
Au 21.7819 21.1497 4.57833
Pt 32.3711 14.1478 16.6461
Au 20.9743 12.6835 40.599
Pt 39.8961 20.7448 27.7133
Au 17.0761 11.9557 28.2644
Au 13.1175 20.2966 10.4987
Pt 25.6365 17.9104 8.00833
Au 40.8688 20.8315 16.6763
Au 10.0914 33.2123 19.1961
Au 8.74562 17.6594 27.5806
Au 30.3913 29.1491 40.8685
Au 9.83827 33.9364 22.7925
Pt 32.14 24.8101 23.174
Au 27.0733 10.7167 30.8281
Au 13.308 21.4188 37.9868
Pt 35.3641 25.2729 37.6558
Pt 27.7214 20.1517 25.5118
Pt 25.8917 15.7314 36.0403
Pt 28.1346 14.0133 35.6779
Au 31.5866 29.666 21.3834
Au 9.0084 29.1329 13.1735
Pt 19.7406 38.9232 28.3708
Pt 35.1548 14.9873 20.4108
Pt 23.7747 19.2095 17.5271
Pt 34.2936 24.5417 28.0697
Au 15.8628 16.5056 30.3884
Au 25.6102 6.84561 33.1266
Pt 25.771 32.0849 39.5513
Pt 39.0731 33.2508 31.8545
Au 36.5912 9.75019 19.8385
Pt 36.7922 20.9568 22.7212
Au 40.752 16.2294 22.11
Pt 15.0933 29.1961 23.5873
Au 22.8471 38.8225 35.4009
Pt 34.4679 32.0968 28.0045
Au 17.8264 32.3683 22.3069
Au 16.4525 25.2692 7.22366
Au 11.4817 24.8637 15.6681
Au 37.766 23.5 37.9956
Au 29.2425 16.8301 42.7754
Pt 32.8536 19.2442 15.8873
Pt 37.4253 28.3882 20.4059
Pt 39.2716 31.1077 29.896
Au 20.4375 18.7456 11.5619
Pt 28.6301 21.3784 27.6772
Au 32.9864 23.0136 11.3931
Pt 27.3485 32.4699 35.7739
Au 7.01851 29.017 18.1336
Pt 35.8996 26.4914 29.1131
Pt 35.1004 29.0476 24.7474
Au 30.175 8.62498 34.9727
Au 12.3658 25.2707 11.0762
Pt 20.9865 18.2273 37.0912
Au 25.9441 34.4239 41.0718
Au 27.4001 36.2278 11.3995
Au 16.9639 36.0779 31.741
Pt 34.3212 24.3366 25.2578
Au 25.7105 29.5004 5.05051
Au 22.0688 14.5762 8.15103
Au 12.7974 37.819 29.5213
Au 32.0581 8.60357 25.9022
Au 22.7593 37.2343 13.4303
Au 37.3835 18.6763 12.2576
Au 16.2141 29.5021 37.2904
Pt 33.5981 18.2206 38.1019
Pt 33.814 23.3583 38.5922
Pt 27.3348 30.7771 22.3867
Au 19.612 24.3777 40.4405
Pt 20.862 29.6807 34.7792
Pt 34.1183 34.0107 23.4322
Pt 27.448 17.4938 12.0488
Pt 33.089 36.3438 22.5173
Pt 25.6476 17.7167 15.988
Pt 14.4443 26.5238 22.9626
Pt 16.2162 12.3237 23.9418
Au 17.7208 38.6136 20.9375
Au 18.9211 10.441 20.7058
Au 11.6597 17.7646 33.9526
Au 23.2779 25.6567 4.11041
Au 9.61376 28.2324 18.5585
Pt 34.0557 22.1691 13.8381
Pt 29.7173 24.6145 25.3211
Pt 24.3453 24.4639 25.4149
Pt 13.9742 35.9726 28.0393
Au 24.2634 10.8806 30.4199
Au 19.6658 18.0548 19.5481
Pt 16.3394 24.359 20.948
Au 38.4766 24.3155 14.0534
Pt 26.6128 15.9498 14.1308
Au 24.5178 36.1479 11.2633
Pt 31.5704 25.148 20.4026
Pt 29.472 24.5666 18.7902
Pt 28.8451 22.4177 11.8192
Pt 34.7303 25.0654 22.5848
Pt 24.8435 17.8053 34.6449
Pt 26.486 27.7782 29.3157
Pt 24.9401 26.7521 15.3045
Au 38.1183 21.3419 16.9163
Au 16.394 18.2107 8.73081
Au 23.5407 43.7367 29.8018
Pt 23.6778 27.9663 31.3909
Pt 30.2034 17.986 16.7217
Au 19.2318 11.1514 39.1995
Pt 19.3763 23.883 27.0934
Au 29.1732 42.547 22.6668
Au 25.9232 10.3185 35.9763
Pt 28.3542 31.0036 39.7401
Au 17.2764 40.169 27.6034
Pt 24.1071 28.2163 20.3581
Au 25.8553 34.5535 9.52567
Au 13.3977 31.8096 17.1317
Pt 25.7432 35.7516 26.9318
Au 28.3338 37.965 35.1286
Au 21.2768 39.6917 33.3862
Au 22.582 9.85383 32.4998
Pt 18.2633 22.7964 29.3133
Au 12.5726 21.8766 35.4484
Pt 27.0142 19.4026 28.3716
Au 35.5553 10.1047 17.1888
Pt 12.205 21.7013 28.0186
Pt 29.0008 22.3085 24.3046
Au 29.8039 9.57024 14.2556
Au 11.2572 12.9002 24.9062
Pt 30.0099 31.6512 29.7955
Au 40.5689 20.872 30.4613
Pt 27.3063 18.6089 33.8671
Pt 32.4104 27.8108 34.0976
Au 38.5769 35.8887 32.8017
Au 29.8029 27.594 43.0275
Pt 26.2198 12.2095 28.6576
Pt 15.9989 21.6949 11.4011
Pt 34.2119 16.8371 27.9676
Pt 25.4647 17.7427 18.9688
Au 32.4636 10.0215 14.5355
Pt 30.4985 16.4516 23.6406
Pt 29.5716 10.3329 26.3434
Pt 36.649 19.7765 18.5039
Pt 28.1122 39.442 26.7969
Au 41.2763 29.9662 28.1543
Pt 26.6228 37.7179 28.4695
Au 14.6384 12.3975 33.5542
Pt 24.4237 16.6229 26.8806
Au 11.872 21.9153 32.6378
Pt 36.2694 12.5504 20.0256
Au 40.9872 18.0326 17.6716
Au 24.3862 8.15627 31.1294
Pt 17.0941 16.9984 18.751
Pt 19.3109 28.0614 20.4266
Pt 29.2536 20.2666 38.5777
Au 41.1255 28.4851 32.4492
Pt 29.013 12.4354 31.3861
Pt 26.2698 16.108 40.5903
Au 34.2424 19.1569 40.8395
Pt 29.9561 31.0305 22.7969
Au 32.9752 39.0218 35.8774
Pt 30.0832 38.6779 24.9775
Pt 24.5626 36.5921 34.9522
Au 35.2359 10.0788 29.3676
Au 12.959 15.463 33.9861
Pt 27.4861 23.5188 26.949
Pt 35.2222 19.9501 31.9461
Au 11.9158 13.5298 29.8877
Pt 32.033 28.9128 17.23
Pt 29.3176 23.4341 29.7525
Au 20.4164 38.5028 36.6304
Pt 19.9848 25.4431 19.9111
Au 43.0468 18.5123 26.7991
Pt 29.0266 26.4073 20.5989
Pt 33.779 10.3166 24.1216
Au 33.3447 8.34604 28.3682
Pt 21.6942 15.4062 16.1382
Au 22.541 6.73009 26.7426
Au 30.5282 27.0744 14.1347
Pt 9.95878 26.6756 23.5524
Pt 33.4481 21.9886 18.4646
Pt 25.4229 11.7852 16.3767
Au 33.5938 26.7349 15.6102
Pt 34.9716 20.962 20.5585
Au 19.9173 21.7184 8.83227
Au 19.0259 8.53638 25.6467
Au 26.1548 12.5051 13.8472
Au 34.4593 31.8365 32.8651
Au 42.5459 16.7766 24.6476
Au 27.8239 29.4988 8.87664
Pt 29.9926 18.0508 11.3836
Pt 34.4233 13.3066 18.1146
Pt 26.1092 28.5091 17.3729
Au 35.8018 8.60513 24.685
Pt 22.3799 16.8493 12.7014
Au 41.0593 15.7323 19.5002
Au 35.1109 28.6993 13.8402
Pt 23.5453 29.9894 33.6212
Au 8.99364 21.521 23.9462
Au 22.1876 14.5286 42.0648
Au 27.2947 27.6778 44.2874
Au 13.6124 17.4799 31.9472
Au 19.8908 40.6092 15.6772
Pt 24.0002 19.7525 32.7799
Pt 19.1333 20.5145 37.5332
Au 9.70912 34.0234 31.9655
Pt 25.2875 27.0313 24.5548
Au 15.0588 22.958 35.5764
Au 25.1438 18.7409 44.0217
Pt 23.4968 21.9133 28.7938
Pt 21.0374 36.2563 31.8122
Pt 27.6614 30.0327 34.0586
Au 41.1728 14.4185 24.198
Pt 24.9163 27.503 34.1465
Pt 29.4749 17.8307 25.8897
Pt 28.8681 37.0672 20.6658
Au 29.4841 25.6688 44.778
Pt 24.4227 25.982 29.4937
Au 19.5167 12.4821 29.3361
Au 19.7804 10.4338 27.5292
Au 20.8601 42.6748 29.8656
Au 27.7794 18.372 44.5459
Pt 17.9777 17.6966 15.2948
Au 24.4232 27.6732 44.0127
Pt 25.1074 19.8152 39.4155
Au 21.8292 7.03959 30.4281
Pt 21.8793 20.638 16.0015
Au 14.2561 23.5102 16.0897
Au 23.8004 16.2664 6.51823
Pt 27.2413 9.74982 20.465
Pt 25.1057 13.8346 10.4246
Pt 29.9621 9.79478 30.6614
Au 30.6933 7.40238 27.9044
Pt 19.3912 20.6426 20.5544
Au 7.85631 32.7401 20.8746
Au 18.4601 33.6949 15.2575
Au 30.2292 13.7937 12.5783
Au 20.382 34.0587 6.02909
Au 18.7528 23.9074 7.80121
Pt 24.5814 20.6283 12.1072
Pt 10.8301 30.415 23.8707
Pt 28.2846 13.8634 14.7818
Au 27.8478 41.669 31.3758
Au 7.10711 31.4799 16.4134
Au 20.7778 38.0209 15.2548
Pt 36.4095 18.7569 21.0406
Au 40.154 16.1285 15.9512
Au 29.1042 35.7078 37.5299
Pt 36.8316 13.7303 25.0891
Au 19.4296 32.9301 12.7139
Au 12.1153 32.1594 14.3381
Pt 15.7564 24.0014 29.91
Au 36.8772 34.3436 23.5405
Au 38.9625 19.7846 34.859
Pt 31.0091 26.534 16.9412
Au 39.1702 12.1449 23.9563
Pt 38.9814 23.565 30.6813
Pt 35.1472 21.7342 29.3263
Au 31.3854 37.7028 38.0763
Au 34.4084 32.1773 35.6494
Pt 25.9406 32.7072 21.0265
Au 30.4805 41.2153 31.4236
Pt 30.9348 28.9044 30.1159
Pt 28.4212 40.8746 24.5444
Pt 21.1836 34.3102 38.1917
Pt 31.3624 11.4874 32.3021
Pt 37.1127 34.7015 30.7869
Pt 34.5344 21.2769 34.2807
Au 42.5294 20.9091 28.3229
Au 32.3838 29.959 6.91484
Au 9.02165 31.0244 18.0968
Au 30.9939 38.3261 33.4176
Au 32.8794 39.5411 21.2796
Pt 35.7457 30.4879 19.7604
Pt 36.9941 16.1215 16.2601
Au 17.5309 30.2553 9.12782
Pt 18.9288 37.6354 32.5669
Au 43.2258 17.3929 22.0816
Pt 24.4966 25.4093 42.1108
Pt 22.2893 30.0244 40.3239
Au 7.6976 29.8234 31.6679
Au 6.38702 24.5595 25.5024
Au 24.4862 11.2646 11.6461
Pt 23.3824 18.4084 22.856
Pt 23.4885 22.0107 26.0833
Au 7.61187 33.5807 18.1795
Pt 22.9841 18.4732 20.195
Au 32.1689 33.1135 15.4665
Pt 15.4072 26.6929 30.2701
Au 17.6934 34.6038 7.74815
Pt 13.3474 21.4357 22.7105
Pt 14.4108 27.7008 36.4345
Au 13.1196 24.3293 37.1065
Au 18.5302 41.1747 29.8957
Pt 37.0287 21.6684 34.4284
Pt 26.158 20.5962 18.4834