2057
Atoms. Timestep: 21203
Au 16.5878 23.6288 20.4179
Au 21.77 7.45088 28.9967
Au 22.6467 38.6487 21.0949
Au 19.5911 8.82867 16.4857
Au 19.45 27.5291 11.0558
Pt 22.9966 20.2649 26.5117
Au 20.1658 30.5068 7.03023
Au 25.516 13.9941 39.5411
Au 35.5522 19.0608 10.9051
Au 22.5723 10.0741 34.0402
Au 41.2207 21.8275 14.1639
Au 42.1423 23.0136 28.7183
Au 30.7955 7.29297 24.677
Au 34.1702 38.2035 32.5104
Au 7.18926 23.4027 18.7641
Au 14.3163 35.3358 30.7084
Pt 28.1695 9.94111 21.6484
Au 8.42529 19.1603 34.0816
Au 37.1345 18.927 13.0909
Pt 27.6176 12.4864 22.1286
Pt 36.7457 25.5514 25.8465
Au 21.5638 28.008 16.0678
Au 26.7892 7.46114 17.8043
Au 6.13179 32.7247 28.0936
Au 10.8836 15.5798 16.5667
Au 5.03933 28.516 23.5987
Au 8.23421 24.949 12.452
Au 8.5239 19.2711 20.6668
Au 15.42 32.3089 9.78932
Au 38.9152 16.9505 13.4774
Pt 26.412 28.3861 26.6059
Au 31.4536 34.564 11.8494
Au 18.5775 20.693 41.1073
Au 31.7982 8.35187 17.4692
Au 13.7023 14.7852 13.7927
Au 14.4763 29.5033 13.3903
Au 27.215 42.6239 23.0272
Au 40.8971 34.4026 28.0703
Au 12.1885 32.9534 21.8005
Au 17.6119 31.1486 11.0793
Pt 26.7522 12.6578 25.8707
Au 14.8395 29.5671 23.5504
Au 22.2295 30.3847 11.6028
Pt 30.3583 16.2504 20.2194
Au 27.7324 32.8869 38.3148
Au 13.7871 22.644 25.5729
Au 30.4375 38.8562 15.1383
Au 17.348 29.9934 17.6646
Pt 27.5368 32.8408 35.2518
Au 26.8491 8.03404 30.8445
Pt 27.1131 33.0958 14.7748
Au 9.66614 23.5089 37.4839
Pt 37.8998 31.3102 21.747
Pt 34.7445 10.9053 23.3771
Au 20.5772 23.1235 9.58711
Pt 18.4694 13.9698 28.0589
Au 36.3356 16.6206 11.8804
Au 13.8581 13.9926 21.7396
Au 34.2434 31.0978 10.4008
Pt 33.6733 22.2573 17.3872
Au 44.3957 20.6033 23.6295
Au 18.7428 22.5817 28.7751
Au 30.1543 40.3731 32.9767
Au 15.893 31.8289 20.6659
Pt 15.1272 15.9191 25.3706
Pt 12.8777 26.7217 30.2465
Pt 23.1617 20.1925 29.5457
Au 9.60205 14.9856 31.8233
Au 8.961 22.3944 11.8679
Au 9.75806 27.1204 18.4084
Au 9.3436 24.0514 26.9073
Au 21.8556 6.07861 19.937
Au 16.2278 37.5012 12.1228
Au 18.3035 42.3056 20.3906
Au 18.7342 14.59 24.3408
Au 39.5505 20.101 12.7736
Au 28.6312 38.6199 37.1776
Au 26.0249 20.8726 16.8216
Au 31.9394 17.6075 9.37507
Au 10.6343 25.8863 38.6753
Au 43.3508 28.0756 24.2084
Pt 26.8453 34.9577 20.0757
Pt 28.6445 22.934 10.1188
Au 35.6167 12.9212 12.3808
Au 14.2774 39.4333 24.7543
Au 12.141 13.4991 17.6397
Au 12.4892 27.1023 13.6611
Au 39.0804 36.2111 21.4113
Au 28.4584 37.3558 13.9426
Au 39.3 22.9897 12.5257
Pt 24.611 23.1712 40.6187
Au 40.9894 28.2888 16.4793
Au 13.833 22.295 16.2892
Au 10.9615 19.4186 35.3025
Au 36.6669 36.649 26.1189
Pt 25.6971 21.015 39.7669
Pt 15.2112 26.4131 37.1298
Au 19.0432 27.3072 13.9998
Au 20.0189 30.1765 9.85126
Au 19.0505 23.1805 16.1778
Au 22.1809 32.8647 15.8342
Au 29.1408 8.38759 16.325
Au 10.5241 37.6153 19.1683
Pt 20.2903 20.2811 32.7754
Au 43.9348 18.701 21.7248
Au 21.6143 9.68485 12.6117
Pt 35.4165 27.7967 13.9601
Au 17.7788 36.8415 21.6428
Au 10.1774 34.0742 23.3492
Au 28.4285 13.6423 38.6292
Au 42.0862 25.3938 21.1293
Au 9.89766 15.8728 24.1737
Au 24.2238 7.68171 29.9564
Pt 24.8568 30.5909 17.8249
Au 7.56664 18.7112 29.2316
Au 32.8862 7.75252 28.7085
Pt 30.2966 19.8286 38.0662
Au 35.226 31.033 38.7602
Au 12.4228 31.0516 23.9485
Pt 23.5322 26.229 19.7488
Au 12.0485 28.6856 22.6935
Au 9.82559 17.9737 15.9878
Au 22.4735 42.3916 17.588
Au 10.364 36.6505 24.3238
Au 26.6366 10.1785 12.964
Au 39.8639 20.2767 33.0783
Au 8.60903 22.936 14.3911
Au 26.3313 37.4952 37.9272
Au 12.8441 24.3157 12.7149
Au 28.1416 36.5944 35.5556
Pt 16.1706 27.3111 17.2646
Au 12.144 17.5583 17.7781
Au 15.2578 21.1329 21.0143
Au 9.54475 21.7745 19.943
Pt 27.4855 24.3412 36.2719
Pt 26.6459 32.8889 32.5615
Pt 19.5296 27.7309 37.1694
Pt 33.3473 28.6192 34.5369
Au 19.0184 40.3544 27.5774
Au 40.8565 13.8469 23.1825
Au 33.9243 12.055 34.5653
Au 30.4974 38.5369 35.0859
Au 13.429 28.6063 33.413
Au 8.10777 25.2097 21.535
Au 40.0823 33.1348 17.0461
Au 17.802 36.9638 18.8707
Au 29.5807 34.474 20.6958
Pt 26.8541 30.1441 14.5144
Au 22.4496 25.5914 34.0109
Pt 25.585 20.9978 30.2529
Pt 30.6754 17.9834 35.695
Pt 36.3716 32.3049 29.4512
Au 12.1305 24.7285 26.1556
Pt 26.1039 27.621 14.4609
Au 27.1233 28.5374 9.22828
Pt 15.577 14.9914 28.4902
Pt 20.6505 25.1685 40.682
Au 36.7495 12.3323 30.5906
Au 25.5501 37.0724 14.0861
Pt 28.5926 16.0174 31.8959
Pt 14.3255 22.0816 35.2917
Au 25.5724 40.7763 33.6006
Au 38.9803 32.5864 14.4456
Pt 21.0684 21.6022 18.3756
Pt 25.3913 12.4957 23.6222
Pt 17.6122 28.6649 22.9412
Pt 34.8832 23.5424 12.2499
Au 13.104 11.0401 25.626
Au 32.7421 23.3763 41.6948
Pt 35.5909 27.9288 19.6519
Au 21.5511 27.7333 12.9899
Au 38.1871 16.6138 17.3567
Au 30.2579 39.9197 17.8954
Pt 22.8023 11.6513 13.802
Au 8.63953 32.4468 18.0836
Au 14.0149 18.5443 19.8529
Au 35.9183 10.5197 15.6837
Pt 38.5899 18.2965 24.2238
Au 38.5878 14.2964 29.1781
Au 5.2402 30.2849 26.8543
Au 33.1839 13.9898 11.7642
Au 20.2551 40.464 20.3543
Au 6.99536 35.4873 27.4784
Au 19.5824 18.2544 15.1757
Au 32.2618 16.1851 13.8501
Pt 27.883 17.0159 29.5179
Pt 30.3968 32.3776 34.6178
Pt 22.8914 24.7066 36.6936
Pt 26.1598 12.7468 35.6528
Pt 24.921 35.2858 27.8733
Au 23.6507 6.86596 24.6141
Au 16.3951 35.7466 35.9225
Pt 30.4987 8.7592 22.4668
Au 14.2536 36.2955 13.3814
Pt 29.6295 18.4869 31.1064
Pt 30.2387 35.8936 31.5383
Pt 24.804 19.2274 35.4988
Au 23.5468 23.2538 43.5167
Pt 23.0842 22.965 23.9247
Pt 28.8277 24.6374 40.3808
Pt 36.561 29.7563 15.1674
Pt 25.7543 19.4096 23.4595
Pt 22.7307 28.5129 34.466
Pt 25.2759 30.688 29.6741
Au 17.4768 40.9335 30.0689
Pt 19.4536 34.9939 20.4631
Pt 19.9608 26.1647 25.6446
Pt 23.0383 21.1931 31.9952
Pt 36.5488 25.9501 12.4739
Au 27.1438 35.1327 12.7444
Au 29.2161 41.9405 24.8341
Au 21.3137 39.4529 13.3372
Au 24.907 14.7769 34.4719
Au 29.8844 19.4637 8.56699
Au 14.2796 22.777 19.0098
Au 12.2589 29.5874 26.2763
Au 43.1026 31.0392 20.9484
Au 8.72501 33.5153 27.3962
Pt 29.6546 14.7567 17.882
Au 17.9364 33.6772 9.9205
Au 14.0737 24.2929 21.361
Au 13.7755 17.1148 12.2931
Au 8.7595 29.5039 15.0665
Au 36.7132 37.6196 31.6154
Au 20.4622 37.1099 14.508
Pt 36.4157 33.4993 18.5808
Au 24.4868 19.2647 10.0417
Au 35.4165 34.2368 25.3104
Au 12.3872 34.7695 14.8425
Au 5.53083 22.0738 32.0091
Au 25.0101 36.7125 35.6061
Au 41.1341 27.8474 32.1218
Pt 20.6285 17.4093 28.3711
Au 32.5475 40.0102 16.4392
Au 9.71592 29.5875 25.0917
Au 13.7525 38.1311 29.9317
Pt 28.7224 37.3777 33.0267
Au 44.1495 30.5888 23.4454
Au 15.2511 20.1244 37.416
Pt 37.5107 30.2027 24.3113
Au 20.8008 25.4131 15.0526
Au 23.8592 19.0761 41.1049
Pt 31.647 19.6918 20.7891
Au 6.94397 30.5779 16.7527
Au 17.73 27.6723 19.4911
Au 44.3945 26.6506 19.91
Au 24.1007 21.212 12.1603
Au 5.64266 31.086 24.1964
Au 26.1339 40.2245 26.8769
Au 23.0698 39.57 27.2258
Au 24.4454 40.1545 16.9005
Au 5.03091 26.605 29.8863
Au 43.3786 20.068 26.324
Au 37.3642 23.7099 38.634
Au 34.4044 21.5894 10.3964
Pt 19.753 16.2344 35.335
Au 11.3444 22.6114 14.768
Au 17.6906 25.1183 18.2456
Pt 21.8511 22.7184 41.537
Au 24.8334 29.0472 7.72649
Au 22.2883 16.3305 7.73485
Au 38.1719 14.5049 31.9474
Pt 28.9654 12.6852 24.4339
Au 40.3569 13.6728 26.0615
Pt 37.8027 14.4552 26.4887
Au 27.4267 22.2888 18.8818
Pt 34.0926 12.9432 30.0047
Au 18.9115 12.0554 36.781
Au 25.9205 41.8118 31.119
Au 13.709 37.5348 32.5188
Au 24.3956 12.307 9.37711
Au 29.9093 38.9499 30.6483
Au 31.6144 11.8074 11.155
Au 22.5035 30.7471 8.56758
Au 36.9604 34.6699 13.6087
Pt 39.3545 25.2319 22.1664
Au 12.7466 31.3 11.9053
Au 20.1832 10.9615 14.709
Pt 7.58623 30.4345 31.6503
Pt 36.6483 16.3775 28.0261
Pt 22.6137 10.6064 20.9268
Au 13.2951 32.1979 37.1786
Pt 18.4555 15.5606 32.4223
Au 24.7384 17.6357 7.81681
Au 35.355 13.6843 32.6435
Pt 19.4849 30.6264 32.145
Au 31.8958 19.0175 40.4466
Pt 29.8802 16.2591 27.2968
Pt 31.7718 24.7858 36.5174
Au 36.3076 14.5174 17.0329
Au 15.3516 25.2683 26.5201
Pt 24.9313 19.1163 18.8185
Pt 31.147 29.8789 35.7132
Au 16.1394 23.092 23.2214
Au 9.18426 17.7703 27.0921
Au 6.89054 22.5317 27.3668
Au 9.0753 24.8858 24.2154
Pt 31.3522 28.4432 30.9811
Pt 29.6191 20.7449 34.7264
Pt 28.8127 23.787 32.5594
Pt 24.5305 26.6076 35.5279
Pt 28.3512 22.4033 29.7959
Pt 34.3537 18.672 36.5911
Pt 29.6224 26.2076 36.3752
Pt 30.9968 22.2628 32.9091
Pt 17.9298 21.4559 21.9925
Au 25.7432 30.3388 38.8021
Pt 16.9627 29.9157 25.4552
Au 18.4611 20.5671 13.8777
Pt 17.6445 27.1495 35.2175
Pt 31.2644 19.5372 23.4699
Au 25.1406 36.3518 11.4063
Au 29.3254 16.779 9.27601
Pt 34.2448 36.5485 28.0875
Pt 34.4907 17.264 32.1027
Pt 23.9184 28.69 24.9231
Au 42.5147 26.1052 15.6732
Au 6.3699 23.2252 22.8784
Pt 12.3304 20.1764 24.6161
Pt 19.5987 29.2235 30.0222
Au 14.4848 25.1971 8.87424
Au 15.5121 19.3641 12.9008
Au 7.69565 32.9642 32.4812
Pt 22.0774 34.3882 28.3155
Pt 19.0117 30.3784 27.5108
Au 32.5562 23.9155 10.9422
Au 27.2739 35.5896 9.94864
Pt 32.6686 22.9051 34.9003
Pt 16.434 22.1283 30.8902
Pt 25.8692 35.5932 22.9337
Au 28.3286 30.4087 39.777
Au 25.1578 42.1705 18.6339
Au 16.7574 25.9903 21.8842
Au 40.7546 32.677 30.3932
Pt 26.0301 18.0151 16.6451
Au 14.0046 38.4009 27.3311
Pt 30.9366 33.0109 25.5894
Au 30.5469 13.8051 12.507
Au 37.0925 10.0427 18.1928
Au 33.8483 21.1242 40.6256
Pt 16.1688 16.3842 31.1378
Pt 28.5221 20.9169 32.0874
Au 43.2254 28.1214 26.9231
Pt 28.4923 27.0795 13.6031
Pt 22.0529 33.2612 33.7721
Pt 32.5042 12.8782 22.2753
Au 10.0026 15.0654 26.8181
Au 34.5761 39.0741 29.799
Au 30.7117 16.4727 11.6934
Au 17.5007 28.8787 9.45003
Pt 40.4126 30.4876 20.6494
Au 16.3646 20.7579 28.3823
Au 14.7341 29.3954 18.2944
Pt 41.5502 20.6709 18.5799
Au 22.3679 18.7963 15.0422
Au 9.02778 29.7132 18.0547
Au 20.8748 31.8779 39.1065
Au 11.6844 36.1385 30.8382
Au 17.9486 10.8312 34.5948
Pt 28.6494 27.683 18.2897
Au 21.7123 20.4548 10.4529
Au 10.1073 31.0992 22.4617
Au 15.114 10.7618 16.6657
Au 14.9146 40.6744 28.9778
Pt 27.5316 32.36 29.8374
Au 18.1313 22.144 8.65519
Pt 37.229 25.9445 18.5151
Pt 32.8081 32.006 21.7562
Au 14.1035 27.9334 9.23852
Pt 27.6078 19.3705 18.5275
Au 7.71574 29.7021 23.0215
Au 29.6926 8.33729 31.4564
Au 43.7375 25.5741 25.4065
Pt 23.7952 27.7983 22.0869
Pt 24.8896 21.4823 33.9766
Au 28.8002 41.4789 27.5776
Au 14.6943 27.0681 11.9174
Au 26.5472 14.8864 37.1433
Pt 39.9251 25.5789 16.5827
Pt 27.0689 25.0486 9.94435
Au 31.2234 39.0864 21.2443
Au 15.1816 30.6756 33.7551
Au 17.648 17.587 13.3844
Au 17.4568 16.2146 15.8336
Au 13.4933 42.0368 20.9781
Pt 30.5859 9.49803 29.024
Pt 31.5343 37.6533 17.3023
Au 20.6923 13.1995 12.859
Pt 28.5439 23.0101 14.5386
Au 14.464 34.7513 21.4473
Au 20.8784 38.42 32.3259
Pt 31.9488 30.0546 11.4854
Au 31.3073 41.0265 26.4023
Au 23.5256 12.0444 38.394
Pt 21.9135 9.74552 18.2986
Pt 13.7386 21.8185 30.8528
Au 24.1999 28.4923 12.5424
Au 11.1671 25.3122 36.0402
Pt 22.8243 15.6881 26.661
Pt 24.9745 29.5776 20.503
Au 42.3708 18.2154 17.1623
Pt 16.4062 12.1889 28.4375
Pt 32.1298 21.7857 24.6789
Pt 24.6 12.5664 20.9697
Au 20.6167 37.2911 11.7578
Au 19.1817 25.5483 9.0749
Au 12.9013 20.1862 17.9215
Au 10.6287 27.6629 15.7299
Pt 31.7282 26.024 26.1067
Pt 41.2972 24.1905 26.4278
Pt 36.5162 26.0739 34.9273
Au 27.2495 28.2569 6.5561
Au 31.1745 36.5932 13.6019
Pt 20.0682 28.1805 21.1223
Au 24.7007 30.0543 10.287
Pt 13.8055 15.4222 32.0354
Au 8.592 26.0598 36.8611
Pt 17.9477 24.4384 30.5646
Pt 31.9912 14.9399 23.8008
Pt 24.3436 29.4827 32.4455
Pt 16.291 31.4706 27.6893
Au 22.3529 32.8175 13.0529
Pt 27.2519 33.502 22.0453
Pt 28.6867 33.4012 11.0012
Au 25.6801 37.6165 16.8014
Au 25.6178 17.0463 11.7632
Pt 25.8388 32.3046 19.6513
Au 39.8234 19.4996 20.377
Au 37.0356 14.6228 34.5605
Pt 23.4058 12.6383 35.5921
Au 8.63505 30.9545 34.1974
Pt 35.4065 22.7359 21.6007
Pt 25.9253 33.2021 11.0369
Pt 28.8934 28.8554 15.8157
Au 26.9382 39.3378 15.1838
Pt 17.9467 20.7268 36.6102
Au 24.2168 29.4265 15.3187
Pt 35.7115 28.1472 25.1587
Au 10.8187 35.0176 26.5273
Pt 37.2389 20.5303 29.8244
Pt 16.1841 18.9197 22.322
Au 23.5491 16.4208 10.1201
Pt 36.3476 19.5443 25.5687
Pt 23.0564 17.775 31.1245
Pt 36.5073 27.2127 30.6581
Pt 21.6672 26.0688 21.633
Pt 39.1536 27.57 18.2344
Pt 18.8207 23.2235 37.2378
Pt 29.5992 18.3048 13.7629
Au 30.5754 16.4883 15.9439
Au 43.4157 18.1041 24.3888
Au 22.2312 34.3469 39.5099
Au 19.4063 29.7088 15.5796
Au 19.7726 17.9472 20.0579
Pt 23.6245 33.8856 23.4288
Pt 24.0324 23.7426 32.8347
Au 34.9704 19.9284 18.1814
Pt 24.287 19.5227 21.3719
Au 13.1506 36.3871 25.4451
Au 16.4139 17.38 20.0352
Au 6.38942 32.5116 21.6371
Pt 14.0847 35.771 18.8091
Au 16.8336 19.062 15.6102
Pt 32.7533 15.6184 21.2364
Au 16.9247 24.4875 7.94914
Pt 18.5325 20.5452 30.4365
Pt 23.343 35.8262 30.1252
Pt 39.9227 21.0384 16.4996
Au 9.76515 39.3915 24.2296
Au 13.2133 38.2759 18.2566
Au 35.9292 26.3262 39.23
Au 16.2081 17.2119 11.127
Pt 26.8897 29.0865 11.9802
Au 31.5125 11.2897 35.8806
Pt 34.9166 21.8035 29.1975
Au 23.9878 6.43039 27.3864
Pt 7.43815 27.9424 30.6116
Au 29.1611 10.6851 11.6687
Pt 35.1625 14.3311 21.6274
Pt 37.4627 21.1009 20.6391
Au 10.2664 32.2949 25.3874
Au 33.6195 39.8253 25.0424
Pt 26.4676 10.3678 17.3652
Pt 35.2039 30.9046 25.3407
Pt 25.3085 24.9907 37.7904
Pt 22.1762 15.9379 15.0859
Au 30.9683 24.8625 7.42572
Pt 16.1315 14.2306 32.9088
Pt 28.7121 26.1405 20.6048
Au 20.9296 17.2212 12.9267
Pt 30.824 26.517 38.7915
Pt 18.9523 36.2997 31.8024
Pt 31.0556 27.6126 19.5292
Au 30.4709 15.6093 39.619
Au 10.5945 30.8317 36.2821
Au 26.1015 7.56458 25.4985
Au 10.2181 27.0854 12.2391
Au 26.719 11.8265 10.7884
Au 38.8582 34.9148 18.8646
Pt 35.0568 20.7866 13.2188
Au 36.0481 7.95431 19.479
Pt 33.392 32.5903 24.4487
Pt 31.4051 11.7913 27.5906
Au 31.7488 32.333 36.9899
Pt 29.1848 17.4338 38.0479
Au 36.5759 16.6304 15.0209
Pt 12.6709 37.2638 20.7794
Au 15.5796 22.5418 9.48471
Pt 36.3703 29.663 29.6516
Pt 34.2898 25.636 25.0262
Au 31.1543 6.6195 20.9923
Au 28.0748 14.9627 11.1954
Au 41.0648 14.8576 20.5881
Pt 31.0119 26.2462 12.2721
Pt 17.9622 36.1737 29.3278
Au 11.2101 33.4525 17.2063
Pt 28.0082 26.1791 16.048
Pt 19.7386 33.4002 32.0622
Au 16.7228 22.6467 17.696
Au 13.0057 32.4411 34.3605
Pt 32.3891 9.7947 24.1349
Au 35.6449 21.1612 38.4946
Pt 27.3693 30.9763 21.468
Au 11.6756 14.8219 33.7388
Au 14.1264 19.5664 15.403
Au 17.7775 11.1195 16.4975
Au 6.14158 31.6987 19.054
Pt 38.5897 33.483 28.7386
Pt 14.1173 18.1323 24.5599
Pt 37.0502 32.3102 26.7274
Au 19.4854 19.9182 8.98656
Pt 30.4216 14.1087 31.4765
Au 26.4303 40.2945 24.1931
Pt 18.714 12.284 26.1878
Au 18.1392 17.5466 9.27844
Au 24.2775 8.70521 16.9386
Pt 33.7256 32.0507 15.0681
Au 9.25021 20.6407 28.0861
Pt 31.5053 12.2296 25.0229
Au 29.3655 27.8026 40.6001
Pt 34.6872 30.3904 13.1506
Pt 19.3351 32.2109 34.3123
Au 17.5032 39.509 20.437
Au 28.7907 40.3203 22.6652
Pt 41.8564 21.0415 23.9695
Au 26.7667 42.6578 25.8
Au 8.15534 37.4129 23.0673
Au 15.3618 31.1563 15.7003
Pt 19.7168 21.8954 34.9018
Au 11.9833 40.9472 25.2465
Pt 15.5207 24.9176 34.9778
Au 15.9383 38.5153 17.5325
Pt 23.0956 13.1606 11.6049
Au 41.9826 25.1768 30.5328
Pt 8.22259 22.9569 32.0957
Au 19.0561 18.8788 11.542
Au 34.2165 34.3786 13.7011
Au 7.513 20.6787 18.2853
Au 22.703 35.2411 11.456
Pt 33.8661 29.4022 15.5787
Pt 29.8112 37.9219 23.5136
Au 31.8949 30.1548 8.73704
Pt 20.4505 11.8651 34.1754
Pt 15.755 24.4646 39.0388
Au 12.5179 19.413 13.0388
Pt 21.0154 32.2042 36.2196
Pt 12.9651 24.1349 34.1429
Pt 29.487 30.1304 10.5196
Au 11.0817 31.7102 19.353
Pt 11.7199 19.2026 27.4539
Au 15.4496 39.5956 31.5465
Au 19.1584 21.6436 11.4009
Au 12.9937 23.2751 10.1426
Pt 20.6706 20.9026 15.6949
Pt 20.7808 36.4257 29.7743
Pt 26.8919 23.5034 21.3011
Pt 11.3207 22.5575 35.5079
Au 25.6312 24.879 42.9954
Au 19.6565 29.8493 12.6811
Pt 15.5565 31.3561 30.3681
Pt 25.7051 27.0346 23.8784
Au 25.7464 39.3303 36.0051
Pt 26.6946 28.0506 40.3777
Pt 36.4618 13.009 19.4646
Pt 32.1108 20.2197 35.5537
Pt 13.1067 27.0472 27.4816
Au 17.4074 30.9841 13.9053
Au 21.0966 32.4156 26.829
Pt 27.0713 37.5091 19.1883
Au 38.3726 12.0279 27.5368
Pt 26.3443 19.6616 12.1685
Pt 36.1238 13.6622 28.311
Au 8.6684 22.9944 29.4261
Pt 35.2193 19.6587 20.915
Pt 30.5477 19.0228 11.2254
Pt 25.5441 24.1156 23.7999
Au 11.2834 29.6258 13.6998
Pt 40.9257 27.1457 23.1788
Au 22.122 30.5994 17.4347
Au 11.0341 14.3583 22.1417
Pt 25.3382 14.3888 10.9474
Pt 29.4335 30.7315 25.7124
Au 6.19047 33.4638 25.5546
Pt 33.5 34.9924 23.3795
Au 9.87222 20.4605 13.4802
Pt 31.3984 16.8678 32.5357
Au 30.1419 20.4446 41.8572
Au 13.0542 24.8443 15.3164
Pt 13.9619 30.1279 28.5694
Pt 28.7658 8.46304 26.6627
Pt 24.0799 34.68 32.4836
Au 8.01489 25.7657 29.0647
Au 42.6117 16.2523 22.4092
Au 32.5629 20.1966 8.71185
Pt 20.9535 25.4503 28.1044
Au 9.4094 35.1442 18.615
Au 40.7991 18.279 34.5843
Au 41.0498 15.4131 28.0257
Pt 31.4763 37.9017 32.7066
Pt 8.91064 22.7631 22.379
Au 33.7226 28.3755 9.98816
Au 9.07733 37.2398 26.6942
Pt 27.7943 26.0346 38.5353
Au 28.8481 11.2934 37.0215
Au 19.7138 41.7828 17.7518
Au 23.2923 18.4651 12.3515
Pt 35.5802 24.7194 36.8955
Au 18.391 26.3362 6.51923
Au 35.0313 12.9975 15.0437
Au 29.0141 9.00469 13.7302
Pt 15.6768 33.4426 37.4269
Au 11.9894 23.4284 38.9917
Pt 18.221 10.2584 27.7718
Pt 11.7463 31.212 29.696
Au 16.0894 38.0591 33.9106
Au 21.4912 28.088 32.1049
Pt 39.9148 22.6931 24.6488
Pt 37.027 21.4239 33.8942
Pt 35.2368 24.9871 29.9684
Pt 20.952 13.6809 36.0043
Pt 21.4446 32.5694 24.0621
Au 22.6044 35.4132 14.2982
Pt 31.3701 21.7469 39.8271
Pt 32.2576 17.2826 27.8532
Pt 30.6525 17.1008 22.7041
Pt 13.5746 19.5971 34.9795
Au 14.5919 29.1643 38.1302
Pt 37.2008 23.1354 29.3979
Au 7.07974 34.2359 19.6286
Pt 13.9869 19.5016 29.1056
Pt 27.2399 20.0267 25.5584
Pt 37.6053 24.0144 20.4335
Pt 18.1313 24.5075 35.0004
Au 16.9481 8.28271 26.4813
Pt 28.8181 21.8055 39.828
Pt 9.94479 30.8305 27.7123
Pt 24.5492 18.2259 25.4916
Au 12.4291 28.7207 11.316
Pt 25.1213 16.4198 18.8555
Pt 30.4092 20.7996 30.1135
Pt 23.6672 33.3331 26.2768
Au 27.9358 41.9875 33.0792
Pt 23.1722 31.4723 37.7092
Pt 15.0211 16.6045 22.4714
Au 20.0631 42.9143 22.5786
Pt 34.0094 10.4653 26.0657
Au 17.3631 35.8316 14.0325
Pt 29.6992 20.7656 19.2674
Pt 14.6474 28.6581 30.7928
Pt 11.5176 16.6185 31.2332
Pt 20.1581 34.0983 37.7442
Pt 33.7757 21.0991 33.2638
Pt 27.7381 25.4727 22.9924
Au 31.5216 27.5929 7.548
Au 12.0155 12.758 20.1597
Au 28.2802 7.7973 23.8338
Pt 25.0782 37.7507 28.9193
Au 17.4509 40.1088 15.8203
Pt 40.4456 19.0326 27.7743
Pt 17.6405 20.251 32.8667
Pt 12.4693 21.4167 33.2988
Au 15.6075 28.8555 20.9106
Au 33.3194 36.8646 34.7786
Au 22.4911 35.3963 17.0766
Au 19.3769 42.5499 29.1295
Au 21.7045 33.5706 21.4832
Pt 37.1719 18.4899 19.2211
Pt 38.6512 32.1431 19.2899
Pt 28.0994 19.1079 36.1572
Pt 26.9745 19.9291 33.9797
Pt 29.5086 12.1014 29.4141
Au 11.9778 13.3052 31.4609
Pt 33.649 20.9185 22.6148
Au 10.8024 25.8943 28.3473
Au 25.1202 39.5352 19.5764
Au 20.2005 34.8194 12.9257
Au 21.7349 40.6469 22.7663
Pt 31.106 36.2633 21.9284
Au 28.432 7.33783 21.0168
Pt 16.1326 23.5799 28.5302
Pt 20.7121 31.7027 29.6462
Au 20.1849 25.1147 12.1241
Au 30.4415 32.1052 39.4149
Au 36.5526 36.3801 17.4863
Au 25.5944 23.264 7.68874
Au 34.7193 14.2727 35.9815
Au 33.7019 25.7558 34.8719
Pt 30.775 19.7464 15.8043
Pt 24.2619 35.7218 25.1209
Au 7.11786 26.7815 23.6364
Au 17.5612 33.296 15.6045
Au 29.4887 10.0882 34.591
Pt 29.037 28.5163 35.2836
Pt 24.9296 21.8972 22.3256
Au 34.2589 22.8392 14.8505
Pt 7.886 26.3814 26.3657
Au 35.3442 17.1759 17.6776
Pt 25.1727 15.4294 16.4087
Au 16.0291 13.0402 35.3691
Au 24.085 42.2028 26.7175
Au 29.5248 32.0305 8.51512
Au 13.8619 21.7703 13.5663
Au 13.9964 37.0183 35.1266
Pt 23.7075 17.4031 33.7405
Au 43.0242 28.8779 15.0436
Au 22.1418 35.8149 19.862
Au 39.6414 35.156 30.6207
Au 8.64512 18.1495 23.3452
Au 6.16612 27.9536 27.9726
Au 41.8011 16.7076 32.6609
Au 30.9386 34.7054 38.9148
Au 18.1892 37.4077 16.1014
Au 11.7308 16.6351 35.8764
Pt 24.052 31.4007 24.5138
Pt 34.5989 22.9143 24.2975
Pt 25.1017 14.1263 27.4667
Au 23.5946 42.752 29.3632
Pt 28.5645 21.7499 37.0016
Au 19.9949 28.2415 5.4988
Pt 18.3845 39.2024 25.0523
Pt 24.5068 30.6375 26.9083
Au 16.9338 29.1154 28.7465
Pt 20.4297 24.4892 18.1483
Au 26.8112 35.5224 25.8899
Pt 35.2112 31.4358 17.0918
Pt 23.3784 26.2486 39.0328
Au 30.4608 10.8515 16.7733
Au 41.9298 17.7087 20.0372
Pt 17.6315 24.9334 24.8693
Pt 22.9491 17.066 23.6957
Pt 16.8729 15.9783 34.7003
Pt 33.3441 23.9176 32.1227
Pt 12.5894 16.5947 21.3951
Pt 27.4647 22.0938 12.3991
Pt 37.4392 32.9067 24.0263
Au 7.53138 20.5308 23.1705
Pt 24.4435 26.9252 32.8981
Pt 31.772 30.2541 19.4997
Au 12.8164 35.6345 28.301
Pt 17.0509 25.3964 32.821
Au 33.2147 7.48332 25.8808
Pt 32.8237 16.3543 35.9557
Au 16.3324 21.7224 15.1266
Pt 35.3517 31.6594 22.7206
Au 44.6978 21.319 20.8735
Au 18.4357 38.4774 13.4256
Au 10.4199 20.4957 22.4832
Pt 19.1296 31.4545 25.0589
Pt 19.3429 32.688 22.4201
Pt 33.1478 18.0919 22.2913
Au 39.8085 34.3584 23.4048
Pt 25.5352 16.7876 22.8905
Pt 36.1782 34.6592 27.8692
Pt 33.0145 34.4897 26.6864
Pt 24.4752 26.3824 26.2131
Au 19.7415 9.1574 30.065
Pt 34.0549 31.0903 29.8914
Pt 35.039 27.0738 22.7251
Pt 11.5771 16.5837 28.4379
Au 22.122 8.77803 31.4661
Pt 39.6563 30.2152 17.8184
Au 28.9376 26.6785 8.15741
Pt 13.3228 30.9635 31.8099
Pt 9.28949 26.4 34.2745
Au 9.96648 38.7765 21.5666
Pt 22.4993 20.2783 36.7914
Pt 42.2135 23.0877 19.844
Pt 29.7612 31.7601 28.1493
Pt 17.3637 27.3607 26.5502
Pt 20.9411 13.5354 26.2318
Au 37.6967 9.61249 20.9567
Pt 35.3921 32.5937 34.1871
Pt 32.0624 14.7643 26.4018
Pt 17.3547 21.8594 38.9127
Au 26.3201 42.471 28.5304
Au 10.5456 27.0617 25.839
Pt 31.4969 22.016 27.9809
Pt 28.8736 13.6192 35.8452
Au 32.8619 35.0442 37.0262
Au 23.4525 21.9552 9.12423
Au 11.7491 36.0679 17.3063
Au 27.2553 33.4996 8.39812
Pt 33.0842 24.1294 19.6698
Pt 18.7326 22.424 24.4206
Au 10.3878 25.1254 14.1427
Pt 27.6144 11.9317 33.6691
Pt 36.9783 21.5247 27.3062
Pt 20.0993 35.4074 22.9844
Au 8.99806 21.2211 36.1645
Pt 25.0385 15.4885 25.1481
Au 45.0906 28.4897 22.0574
Pt 28.7878 32.4732 23.7868
Au 13.1501 31.4054 17.369
Pt 26.38 17.287 34.3409
Pt 15.474 36.3086 28.3603
Pt 39.8936 24.8975 19.4285
Au 26.5882 16.2753 9.25796
Au 21.8374 25.6001 9.69019
Pt 16.0235 19.2718 30.862
Au 10.5711 29.243 20.4701
Pt 18.6895 22.7245 32.4401
Pt 21.7367 18.0496 25.8668
Au 6.74081 28.6844 33.3933
Pt 8.05874 25.7948 32.1114
Pt 23.5716 15.5611 29.458
Pt 28.1885 16.3051 22.0372
Au 30.6987 11.3339 13.8711
Au 22.1243 13.814 9.0222
Pt 24.4338 24.5384 9.70804
Pt 14.1231 20.1175 26.5544
Au 17.832 12.8358 19.1083
Pt 33.6527 29.5092 23.717
Pt 22.5974 12.3846 18.9587
Au 34.4762 9.19033 17.5858
Pt 11.3774 18.0191 23.2374
Au 17.7693 33.4683 12.6977
Pt 22.0481 11.179 26.0455
Au 39.4403 26.111 35.1246
Au 21.0177 15.8166 21.4884
Pt 20.796 20.1018 27.9554
Au 6.67905 22.6027 16.2444
Au 20.4401 32.6585 8.70312
Au 5.83985 21.6405 25.0139
Au 42.797 20.7616 16.2248
Au 21.1531 21.4937 7.53212
Pt 12.7888 15.6992 23.8617
Au 11.4826 38.482 26.1165
Au 28.6913 32.0311 42.1591
Pt 30.7306 24.8238 28.3654
Pt 33.0051 31.3402 34.4033
Pt 42.6251 28.1582 21.2756
Pt 33.7746 19.4778 24.7392
Au 26.2572 11.7681 38.0378
Au 13.7459 33.0124 19.438
Pt 32.5431 34.47 20.6377
Pt 32.9771 20.4198 38.0951
Pt 32.1211 35.1057 29.5924
Pt 17.1222 34.3669 31.3032
Au 37.4646 14.6561 13.2422
Au 21.4758 40.6811 29.2871
Pt 34.3628 36.56 21.5437
Pt 32.1413 17.2802 25.0597
Au 17.5548 19.9292 19.8512
Pt 29.5947 13.6264 26.829
Au 21.393 27.3015 42.3862
Pt 29.2314 30.0074 30.1265
Au 19.3966 29.6237 39.1862
Pt 41.3175 18.6984 22.6706
Au 18.0858 30.1079 20.6599
Au 33.7701 32.2227 19.2354
Au 13.8762 10.903 20.7193
Au 38.3247 21.0456 38.1627
Au 30.8228 6.83977 27.3318
Pt 31.5286 31.4432 30.809
Pt 36.9052 23.4433 13.7904
Pt 28.1958 24.7358 12.3711
Au 24.855 36.9672 20.8079
Pt 20.028 20.1953 38.2916
Au 26.0338 21.8297 10.0559
Pt 28.1745 17.7711 11.5328
Au 16.0925 41.537 21.7988
Pt 24.5649 11.4788 27.0366
Pt 8.93843 28.2534 27.9044
Au 27.8995 26.2527 42.2838
Au 35.8964 19.4729 15.6794
Pt 10.9478 33.6942 29.1498
Au 31.2334 14.6461 9.89079
Au 22.5278 23.3221 11.5025
Au 10.4296 24.09 33.38
Pt 21.2462 22.0158 25.5821
Au 13.3056 30.5272 20.9115
Au 16.0757 27.2101 7.56657
Au 18.0413 39.0369 32.2804
Au 20.6383 14.0962 19.1026
Au 15.2324 26.1859 19.5338
Au 12.5039 26.0778 10.6002
Au 36.9533 37.9303 21.7648
Pt 27.2065 37.6169 24.243
Pt 23.8965 14.4206 37.3387
Pt 36.3601 22.2864 16.3614
Au 20.1968 15.4485 39.861
Pt 26.3549 25.1242 33.5747
Pt 30.763 23.5667 30.6239
Pt 32.7807 39.0601 27.7272
Pt 27.5548 34.9254 28.492
Pt 25.1479 39.0636 31.3634
Pt 38.1214 22.8346 22.6561
Pt 23.9403 14.6074 22.7375
Au 30.7414 36.785 37.0985
Au 18.0587 33.3314 36.3255
Au 37.2556 9.85839 26.3424
Au 29.3681 10.8901 31.7904
Au 27.1129 30.8224 7.31017
Pt 22.8225 36.7614 27.4334
Pt 18.1435 37.6225 27.1673
Pt 21.5363 27.8664 23.6458
Pt 38.1175 29.2442 19.9882
Au 16.5058 13.7315 25.9789
Au 28.7651 34.142 40.532
Pt 33.4841 29.7896 32.1207
Au 18.6939 13.8398 16.6678
Pt 37.1621 16.1973 22.4145
Au 17.0275 7.88459 19.8337
Pt 16.3913 39.6881 26.7887
Pt 26.8699 23.2138 38.7905
Pt 23.157 21.4696 14.686
Pt 22.475 23.8379 39.2153
Pt 25.458 31.9905 36.632
Pt 31.2764 33.5388 32.3765
Pt 20.8365 18.9338 30.5026
Au 31.7252 32.5528 10.0172
Au 14.0988 13.3527 24.5186
Au 17.6001 9.61747 31.9655
Pt 28.7105 39.4267 25.5868
Pt 22.3347 13.3349 30.5959
Au 8.00196 32.473 23.7339
Pt 32.3819 26.9695 23.524
Au 40.6004 33.2151 20.9592
Au 11.0902 15.3443 19.4008
Pt 25.0523 11.2165 33.7754
Au 7.06388 21.5597 34.2024
Pt 30.2345 23.4116 26.0519
Au 18.038 17.9482 17.8461
Au 19.6331 23.7769 7.03899
Pt 34.8853 24.6779 17.4913
Au 38.1329 37.6246 19.311
Au 35.3622 8.5362 24.7022
Au 9.63585 27.5624 23.2012
Pt 23.3246 29.0109 38.922
Au 30.8953 12.9335 37.9242
Pt 21.7134 35.0014 25.379
Au 40.574 15.233 30.8108
Pt 13.4693 19.305 22.2969
Pt 24.5322 27.7633 30.3981
Au 34.206 37.8457 17.1417
Au 9.68328 16.6514 21.3833
Pt 28.9604 29.8915 23.153
Au 37.5093 28.5431 35.569
Pt 29.713 10.0177 24.6422
Pt 23.9839 33.1761 17.8867
Au 20.3134 9.81718 22.7557
Au 31.2278 40.9091 29.1457
Pt 35.3589 16.7879 34.8963
Pt 26.2123 24.9222 14.3571
Pt 30.3568 32.0251 12.4619
Pt 26.4417 17.8911 20.7268
Au 5.13925 26.7876 25.6941
Pt 22.9347 21.1373 39.471
Pt 7.23715 30.2712 28.8025
Pt 27.6656 19.7502 38.67
Pt 29.5441 30.3896 17.9344
Au 35.3655 35.025 35.7399
Pt 18.0792 25.4552 28.1167
Au 15.856 11.4876 32.9505
Pt 22.3624 15.4036 34.8758
Au 24.1244 10.5667 11.5038
Pt 36.8512 22.4924 36.2826
Au 23.197 31.67 19.9692
Au 35.3673 35.4712 33.1032
Pt 34.8246 12.1306 17.6355
Pt 18.2205 11.435 30.1496
Pt 26.9341 23.5689 16.5507
Au 37.4984 12.2629 14.3215
Pt 22.757 13.0421 28.025
Pt 35.8194 22.6067 18.9938
Au 18.6232 37.1966 34.3163
Pt 18.6565 20.8972 26.6722
Au 18.8396 13.6537 21.6709
Pt 26.4178 28.5238 16.8816
Pt 19.1696 9.98063 25.2522
Au 9.80045 19.6861 25.2437
Au 5.73865 25.0367 27.7892
Pt 33.7049 23.0039 37.5102
Pt 31.5419 27.4486 28.3399
Au 21.7723 8.84294 24.8373
Pt 27.7131 18.1316 27.249
Pt 25.2285 33.7617 30.1475
Au 28.7308 39.488 20.0569
Pt 29.5756 23.9386 16.8506
Au 26.8368 34.0858 42.508
Pt 32.6532 37.1461 19.7432
Pt 31.6875 36.6958 27.4329
Au 32.0577 17.6836 38.0903
Pt 24.941 35.5941 18.4531
Au 39.7082 28.7405 34.156
Au 5.62909 27.199 21.2066
Pt 11.4271 23.2231 28.9322
Pt 20.3519 29.6984 34.5791
Pt 31.0955 33.7361 22.9486
Au 35.9732 28.8193 11.4206
Pt 35.4588 27.3076 16.7395
Au 12.387 40.3683 27.9383
Au 34.3526 11.063 31.91
Au 20.8519 43.1257 19.8862
Au 40.6836 29.0433 27.4742
Au 39.2586 18.6178 36.9237
Au 23.6 26.4593 7.7153
Pt 31.3603 24.9338 33.6234
Pt 23.4547 37.3309 32.5879
Pt 17.9049 34.5951 33.842
Au 32.7946 21.4902 30.8805
Pt 18.4679 18.0121 31.3531
Au 14.6913 37.0686 22.9265
Au 41.0343 15.9774 18.1026
Pt 15.1693 24.4018 11.3776
Au 16.445 22.5864 41.2447
Au 5.82978 32.0667 30.6262
Au 34.5001 17.5065 26.4402
Au 8.45434 20.3517 15.7302
Au 23.0057 32.7775 10.3344
Pt 13.2641 19.102 31.6036
Pt 32.9892 32.3296 12.5219
Au 24.9277 32.0826 8.42008
Pt 24.3377 29.2586 36.3515
Au 28.9349 7.24118 29.1477
Au 35.8441 32.7415 11.9377
Pt 18.1062 31.7743 29.9395
Pt 24.0712 22.1353 27.9041
Pt 18.3657 12.5263 32.533
Au 21.9077 30.354 14.3939
Pt 30.9249 27.8654 14.4336
Pt 28.5417 14.1213 20.1988
Pt 26.9776 27.1288 31.5874
Au 29.5151 33.3366 16.7302
Pt 17.1814 35.1354 26.6395
Au 41.1809 22.006 31.1735
Au 5.25709 29.3438 30.5345
Au 17.0074 8.59993 29.3493
Au 20.022 34.6991 15.7406
Pt 22.7894 12.7808 33.1652
Au 11.3391 21.8031 26.6936
Pt 38.7645 23.6972 27.1188
Au 20.7569 9.32747 27.3797
Pt 32.0759 27.5284 36.6446
Au 10.1144 19.8988 18.0099
Au 12.0265 39.872 20.0908
Pt 19.6089 27.8126 27.8299
Pt 29.3214 34.2162 13.7985
Pt 20.7282 38.2335 27.6582
Au 14.8505 9.92223 27.7799
Pt 35.6442 18.2894 23.3064
Au 10.6933 30.9851 16.1101
Au 11.7091 29.1424 17.9449
Au 15.1083 24.7628 17.0615
Au 19.2756 38.7018 29.8899
Au 19.4463 31.957 17.1533
Pt 37.1149 22.8717 25.0803
Pt 38.8535 20.5588 25.7146
Pt 27.9785 9.85837 29.2028
Au 21.6647 30.1352 25.2479
Au 30.1982 25.0228 9.97648
Au 28.0618 39.6908 34.7019
Pt 27.381 22.4926 34.3971
Au 14.0381 36.7428 16.067
Au 26.3826 7.54782 28.1755
Pt 12.7478 24.2374 31.3724
Au 11.5988 21.8589 11.9768
Au 16.5226 27.8887 42.0903
Pt 33.3491 20.4592 15.4338
Au 22.6392 38.4433 30.1128
Au 40.2717 25.0987 32.6355
Pt 29.9633 20.882 13.1874
Au 33.6394 25.9152 40.7806
Pt 18.8985 39.2705 18.1267
Pt 29.4239 29.0239 27.6035
Au 17.7941 29.1451 6.72616
Au 12.5402 21.1703 37.3204
Pt 34.9415 27.6046 36.4675
Au 13.3525 26.9485 17.226
Pt 39.4807 21.5378 28.6265
Pt 32.6476 37.7829 23.3491
Pt 16.3979 33.8187 28.9696
Pt 26.2603 8.92748 20.0067
Pt 33.2808 10.4132 28.7199
Pt 16.2025 14.7859 20.6537
Au 19.8533 15.4893 8.78611
Au 17.4488 25.4469 15.4509
Au 24.8927 34.9274 15.7893
Au 19.9206 40.9089 31.4971
Au 35.3166 38.8846 26.921
Pt 33.4789 21.5065 19.9831
Pt 32.9567 23.6745 26.4924
Au 6.60409 24.8114 14.5686
Pt 24.4785 10.5641 19.0257
Au 28.2756 24.055 7.62814
Pt 33.2641 28.1322 26.1506
Pt 22.6464 22.4035 35.0456
Au 17.2045 34.1581 22.4502
Au 13.9751 33.9455 16.8292
Au 14.8258 40.2919 19.3854
Pt 10.8973 22.252 31.3981
Pt 29.9308 38.8844 27.9033
Au 11.2229 37.8552 28.6724
Pt 22.5067 24.4763 26.1446
Au 17.0126 42.1563 27.4739
Pt 21.1614 20.0874 40.8408
Au 14.955 10.9607 23.3894
Pt 17.2176 31.2561 23.0825
Pt 29.1061 27.2401 29.6125
Au 15.3894 8.90721 21.6211
Au 28.9181 41.6609 30.5726
Pt 25.3815 10.3644 22.0354
Pt 31.0844 27.5174 33.9436